/*--------------------------------*- C++ -*----------------------------------*\
| =========                 |                                                 |
| \\      /  F ield         | OpenFOAM: The Open Source CFD Toolbox           |
|  \\    /   O peration     | Version:  2.3.0                                 |
|   \\  /    A nd           | Web:      www.OpenFOAM.org                      |
|    \\/     M anipulation  |                                                 |
\*---------------------------------------------------------------------------*/
FoamFile
{
    version     2.0;
    format      ascii;
    class       volScalarField;
    location    "4.800005";
    object      nut.water;
}
// * * * * * * * * * * * * * * * * * * * * * * * * * * * * * * * * * * * * * //

dimensions      [0 2 -1 0 0 0 0];

internalField   nonuniform List<scalar> 
10000
(
2.82876e-05
3.18253e-05
2.17525e-05
1.68414e-05
1.17565e-05
2.27221e-06
7.8924e-07
1.09338e-06
3.14616e-07
1.1689e-07
1.43971e-05
2.05379e-05
4.80987e-07
2.90864e-06
9.79327e-06
2.42848e-05
2.95131e-05
3.78514e-05
3.28972e-05
4.17723e-05
6.44643e-06
5.1144e-06
4.9566e-06
7.68249e-06
1.96847e-06
1.24753e-06
1.29107e-06
9.80726e-07
2.81032e-07
1.38923e-06
3.17725e-06
6.48318e-07
3.4907e-07
9.684e-08
8.85489e-08
7.82932e-06
5.45244e-06
9.46533e-06
6.27146e-06
7.8985e-06
2.04266e-05
8.13018e-06
1.06813e-05
5.67674e-06
2.55265e-06
1.17436e-05
4.84916e-06
1.32889e-06
1.8111e-06
4.14375e-06
8.85428e-06
1.85809e-05
1.24717e-06
4.54339e-07
3.83641e-07
6.57247e-06
7.34282e-06
1.05831e-05
1.74823e-05
3.24718e-05
9.4607e-06
1.939e-05
1.09769e-05
7.6979e-06
3.76245e-06
5.38891e-07
8.98917e-07
9.51515e-07
9.69107e-07
1.05663e-06
1.66285e-06
1.63551e-06
8.27986e-07
9.65371e-07
1.3123e-06
7.38592e-06
6.3086e-06
1.12932e-05
1.26283e-05
3.11558e-05
5.67851e-06
9.96243e-06
5.57583e-06
6.20001e-06
3.38959e-06
5.37224e-07
1.00249e-06
9.56411e-07
9.60669e-07
9.45822e-07
9.1892e-07
9.30309e-07
1.00202e-06
1.55441e-06
1.80441e-06
7.20745e-06
6.95523e-06
1.57042e-05
1.38622e-05
3.92514e-05
2.28816e-05
1.73752e-05
2.18331e-05
1.47344e-05
1.97237e-06
4.65725e-07
9.43496e-07
9.19588e-07
9.33071e-07
9.29314e-07
9.34799e-07
9.02903e-07
9.77742e-07
1.33246e-06
4.18081e-06
7.92594e-06
7.27034e-06
9.5972e-06
1.26209e-05
4.08733e-05
2.94518e-05
2.45308e-05
2.47763e-05
1.38612e-05
1.92845e-06
3.63817e-07
5.93151e-07
5.70063e-07
5.45917e-07
5.80639e-07
6.71143e-07
7.02015e-07
7.57788e-07
1.09915e-06
8.97157e-06
9.15977e-06
7.86215e-06
1.71126e-06
7.01091e-06
2.1302e-05
2.88977e-05
2.65182e-05
1.78953e-05
8.17982e-06
3.59472e-06
6.42578e-07
7.39655e-07
7.09125e-07
8.99262e-07
1.01915e-06
9.61088e-07
1.0722e-06
1.23438e-06
2.99908e-06
1.56183e-05
8.67206e-06
1.05222e-05
4.31468e-06
4.31607e-06
1.18986e-05
1.22327e-05
2.68356e-05
6.55569e-06
1.17077e-05
6.60443e-06
2.86781e-06
4.15708e-06
3.90585e-06
5.44912e-06
6.04671e-06
5.6864e-06
6.57319e-06
7.31427e-06
1.03811e-05
1.88873e-05
3.50423e-06
1.48729e-05
9.49269e-06
1.79608e-05
4.04307e-06
5.67182e-06
2.49134e-05
4.17071e-06
1.01362e-05
6.16178e-06
1.73006e-05
2.50351e-05
2.59009e-05
2.53214e-05
2.44195e-05
2.34619e-05
2.24981e-05
2.33446e-05
2.28269e-05
1.63332e-05
8.51604e-06
1.53664e-05
2.73126e-06
2.26934e-05
9.60706e-06
6.45235e-06
1.01321e-05
2.79758e-06
7.59307e-06
1.24997e-05
2.89895e-05
4.6052e-05
5.15026e-05
3.65496e-05
3.50521e-05
4.62932e-05
3.37115e-05
3.50634e-05
3.40645e-05
2.79672e-05
1.52114e-05
1.53859e-05
1.14696e-06
1.49154e-05
2.31128e-05
6.94246e-06
4.79922e-06
1.13736e-05
2.00145e-05
6.38755e-06
2.38983e-05
4.26952e-05
5.60034e-05
6.08943e-05
5.9117e-05
5.32805e-05
5.65009e-05
6.14894e-05
5.98309e-05
4.659e-05
1.96779e-05
1.56271e-05
7.28266e-07
9.11949e-06
2.84014e-05
7.03386e-06
9.81636e-06
2.50143e-05
2.12897e-05
4.15509e-06
1.52681e-05
3.15876e-05
4.83539e-05
5.65333e-05
5.60713e-05
4.65738e-05
5.13697e-05
6.00408e-05
5.92603e-05
4.1438e-05
1.57778e-05
1.66112e-05
5.72736e-07
5.10297e-06
3.05553e-05
7.55967e-06
1.49977e-05
2.65189e-05
1.97794e-05
3.81774e-06
1.17431e-05
1.8874e-05
3.70033e-05
4.40784e-05
4.55491e-05
3.75649e-05
4.24429e-05
5.15268e-05
5.2286e-05
3.43146e-05
1.70673e-05
1.51546e-05
4.24804e-07
2.07585e-05
3.30584e-05
8.2033e-06
1.76353e-05
2.77739e-05
1.96238e-05
4.19659e-06
1.35692e-05
9.88189e-06
2.48935e-05
3.18917e-05
3.58122e-05
2.86883e-05
3.57273e-05
4.3269e-05
4.49527e-05
3.14971e-05
1.53914e-05
1.35162e-05
5.4466e-07
2.58838e-05
1.80282e-05
7.60469e-06
1.22328e-05
2.75083e-05
1.87198e-05
4.60036e-06
1.70357e-05
1.01008e-05
1.55858e-05
2.30998e-05
2.87887e-05
3.07323e-05
3.69562e-05
3.80888e-05
4.03657e-05
3.43032e-05
1.59714e-05
1.18649e-05
5.4527e-07
2.73968e-05
9.66707e-06
1.10352e-05
6.51752e-06
1.35801e-05
1.58355e-05
7.62765e-06
2.62009e-05
1.12916e-05
1.69748e-05
2.4214e-05
2.97209e-05
3.6634e-05
3.77992e-05
3.88732e-05
3.86705e-05
3.19551e-05
1.62816e-05
9.32539e-06
3.51086e-07
1.6314e-05
2.1328e-05
2.13985e-05
1.4107e-05
1.64256e-05
1.22925e-05
1.3583e-05
2.59635e-05
1.38984e-05
2.73993e-05
2.34604e-05
2.78908e-05
3.72395e-05
3.3747e-05
3.49154e-05
3.38543e-05
2.91357e-05
1.73656e-05
6.17475e-06
1.04736e-07
2.06468e-05
2.17769e-05
7.47701e-06
1.20146e-05
1.18539e-05
5.1932e-06
1.61903e-05
2.08826e-05
2.51706e-05
2.79963e-05
2.19841e-05
2.47502e-05
3.41933e-05
2.91717e-05
2.9291e-05
2.80826e-05
2.30947e-05
1.70736e-05
2.20742e-06
2.79604e-08
6.7437e-06
7.80705e-06
1.01167e-06
1.12771e-06
1.1948e-06
8.10923e-07
8.89838e-07
1.98442e-06
1.22977e-05
1.60556e-05
3.10912e-05
2.43295e-05
2.29854e-05
3.66867e-05
3.54581e-05
3.25483e-05
1.82447e-05
1.76523e-05
3.78956e-07
1.37529e-07
1.05484e-06
1.32877e-06
3.18668e-05
3.42211e-05
2.32946e-05
2.09285e-05
1.25273e-05
2.26717e-06
5.30091e-07
1.02249e-06
2.90488e-07
1.7757e-07
1.43905e-05
2.00174e-05
4.69088e-07
3.0437e-06
1.03946e-05
2.44179e-05
3.04344e-05
3.87827e-05
3.62552e-05
4.62271e-05
6.52179e-06
7.36246e-06
5.65018e-06
5.14239e-06
3.11247e-06
1.09942e-06
1.27182e-06
9.66868e-07
2.71615e-07
1.47741e-06
3.0313e-06
6.67064e-07
3.80514e-07
1.30162e-07
1.39433e-07
8.10557e-06
6.5017e-06
1.08365e-05
6.80689e-06
7.92264e-06
1.57965e-05
8.05743e-06
1.03796e-05
6.97166e-06
3.42161e-06
1.16297e-05
4.67224e-06
1.32396e-06
1.74609e-06
3.91881e-06
8.40167e-06
1.73881e-05
1.16145e-06
5.38317e-07
3.23624e-07
7.15551e-06
7.58785e-06
1.12731e-05
1.45169e-05
2.41353e-05
9.56625e-06
1.54309e-05
1.07627e-05
8.25863e-06
4.47541e-06
5.22785e-07
9.00182e-07
9.45068e-07
9.61823e-07
1.0478e-06
1.67748e-06
1.67024e-06
8.64509e-07
9.96196e-07
1.29625e-06
7.77264e-06
7.01432e-06
1.25812e-05
1.30888e-05
2.90481e-05
6.84992e-06
1.08106e-05
6.2501e-06
7.04362e-06
4.07075e-06
5.67664e-07
9.96597e-07
9.5131e-07
9.5573e-07
9.40748e-07
9.14189e-07
9.29095e-07
9.90863e-07
1.54094e-06
1.51675e-06
7.63981e-06
7.52007e-06
1.73072e-05
1.35504e-05
3.49541e-05
1.61658e-05
1.16935e-05
1.59011e-05
1.25874e-05
2.61048e-06
5.03617e-07
9.525e-07
9.29153e-07
9.45647e-07
9.40198e-07
9.38626e-07
9.07713e-07
9.79805e-07
1.37649e-06
3.53531e-06
8.31396e-06
7.81488e-06
1.26582e-05
1.33895e-05
3.62587e-05
2.53736e-05
2.101e-05
2.12876e-05
1.23972e-05
2.38266e-06
3.56853e-07
6.29658e-07
6.05221e-07
5.77086e-07
6.1124e-07
7.05265e-07
7.36396e-07
7.90093e-07
1.03393e-06
8.34363e-06
9.6601e-06
8.49845e-06
4.26831e-06
8.58718e-06
2.17652e-05
2.52141e-05
2.31534e-05
1.70293e-05
9.24567e-06
3.6301e-06
6.04456e-07
6.7378e-07
6.49845e-07
8.02651e-07
9.1233e-07
8.80103e-07
9.83946e-07
1.12611e-06
2.56251e-06
1.52638e-05
9.45753e-06
1.07741e-05
1.76294e-06
4.42978e-06
1.34269e-05
1.23e-05
2.32665e-05
7.3232e-06
1.32558e-05
6.68116e-06
2.66569e-06
3.81118e-06
3.56488e-06
5.06051e-06
5.70853e-06
5.3976e-06
6.37256e-06
7.09417e-06
1.01583e-05
1.88736e-05
5.65668e-06
1.43672e-05
4.20767e-06
1.40263e-05
7.73913e-06
6.4269e-06
2.09484e-05
5.51777e-06
1.33734e-05
7.71462e-06
1.86779e-05
2.64966e-05
2.74594e-05
2.68335e-05
2.59185e-05
2.50001e-05
2.39664e-05
2.48355e-05
2.43571e-05
1.79706e-05
1.01963e-05
1.49186e-05
2.36099e-06
1.8832e-05
4.61606e-06
6.87966e-06
1.02983e-05
3.67404e-06
8.78735e-06
1.32128e-05
2.9067e-05
4.60785e-05
5.15301e-05
3.76882e-05
3.61903e-05
4.63261e-05
3.48484e-05
3.62093e-05
3.52147e-05
2.91037e-05
1.61056e-05
1.48139e-05
1.27566e-06
1.52456e-05
1.58579e-05
7.24261e-06
6.22302e-06
7.29682e-06
1.67924e-05
7.95038e-06
2.40845e-05
4.27615e-05
5.60276e-05
6.0946e-05
5.91669e-05
5.33039e-05
5.65483e-05
6.15341e-05
5.98785e-05
4.66761e-05
2.08361e-05
1.48864e-05
1.20055e-06
1.033e-05
2.28405e-05
7.4999e-06
5.70705e-06
1.89134e-05
1.88459e-05
5.66277e-06
1.59561e-05
3.17307e-05
4.83867e-05
5.65813e-05
5.61154e-05
4.66072e-05
5.14072e-05
6.00775e-05
5.92997e-05
4.1585e-05
1.73743e-05
1.47375e-05
1.14237e-06
6.17939e-06
2.65455e-05
8.31154e-06
1.26538e-05
2.06677e-05
1.78439e-05
5.20271e-06
1.28448e-05
1.93463e-05
3.70658e-05
4.41435e-05
4.56059e-05
3.76363e-05
4.25225e-05
5.15686e-05
5.23455e-05
3.48379e-05
1.87112e-05
1.34937e-05
8.51635e-07
1.52128e-05
2.83288e-05
8.81506e-06
1.49921e-05
2.22823e-05
1.74876e-05
5.66959e-06
1.46826e-05
1.09462e-05
2.51159e-05
3.20859e-05
3.5947e-05
2.98184e-05
3.68566e-05
4.33539e-05
4.50277e-05
3.29102e-05
1.7089e-05
1.24411e-05
6.86182e-07
2.18346e-05
1.81479e-05
8.1998e-06
1.23184e-05
2.24574e-05
1.61069e-05
6.19571e-06
1.81179e-05
1.11666e-05
1.67018e-05
2.4211e-05
2.99184e-05
3.18006e-05
3.79065e-05
3.91795e-05
4.06278e-05
3.52352e-05
1.75663e-05
1.10507e-05
6.01776e-07
2.28702e-05
1.1441e-05
1.14057e-05
7.6384e-06
1.37078e-05
1.30456e-05
8.96798e-06
2.63297e-05
1.23925e-05
1.80429e-05
2.53148e-05
3.08298e-05
3.67258e-05
3.81994e-05
3.92342e-05
3.97129e-05
3.3061e-05
1.77963e-05
8.42008e-06
2.84473e-07
1.64143e-05
1.45243e-05
1.73225e-05
8.96976e-06
1.0459e-05
9.53141e-06
1.50237e-05
2.6091e-05
1.50092e-05
2.74967e-05
2.46205e-05
2.90456e-05
3.72956e-05
3.49137e-05
3.60918e-05
3.5032e-05
3.02896e-05
1.88726e-05
5.08032e-06
8.80295e-08
1.61137e-05
1.77415e-05
5.11586e-06
9.25225e-06
8.60047e-06
3.62975e-06
1.70314e-05
2.11122e-05
2.52415e-05
2.80526e-05
2.31311e-05
2.58722e-05
3.42932e-05
3.03225e-05
3.04399e-05
2.92203e-05
2.42502e-05
1.82541e-05
1.98904e-06
3.19392e-08
5.12816e-06
5.46516e-06
4.05322e-07
4.56014e-07
4.6409e-07
3.68338e-07
1.85947e-06
3.02124e-06
1.25169e-05
1.62173e-05
3.11339e-05
2.4502e-05
2.41019e-05
3.67549e-05
3.55158e-05
3.26269e-05
1.93562e-05
1.78385e-05
2.87662e-07
1.46685e-07
5.64479e-07
4.46512e-07
3.43967e-05
3.59489e-05
2.4657e-05
2.26082e-05
1.28757e-05
2.24245e-06
4.47688e-07
9.2997e-07
2.47865e-07
2.04129e-07
1.43784e-05
1.93954e-05
4.64717e-07
3.11947e-06
1.08293e-05
2.44751e-05
3.11856e-05
3.98504e-05
3.89534e-05
4.93623e-05
6.87885e-06
9.79092e-06
6.47923e-06
5.98595e-06
3.80902e-06
1.03078e-06
1.26471e-06
9.65167e-07
2.69527e-07
1.51358e-06
2.97096e-06
6.80492e-07
4.60849e-07
1.00292e-07
1.36728e-07
8.38479e-06
7.92646e-06
1.31609e-05
8.34817e-06
1.02044e-05
1.24914e-05
7.84661e-06
9.86705e-06
8.3472e-06
4.18587e-06
1.13806e-05
4.44746e-06
1.30437e-06
1.71254e-06
3.77457e-06
8.14339e-06
1.65842e-05
1.20339e-06
5.76211e-07
3.06439e-07
7.6863e-06
8.39861e-06
1.31564e-05
1.22392e-05
1.89903e-05
9.59233e-06
1.26271e-05
1.01213e-05
9.51667e-06
5.03595e-06
5.15158e-07
8.99502e-07
9.38319e-07
9.54437e-07
1.03688e-06
1.6508e-06
1.68313e-06
8.47587e-07
1.01214e-06
1.30593e-06
8.1087e-06
8.01823e-06
1.45755e-05
1.35647e-05
2.7839e-05
7.77941e-06
1.04304e-05
7.39828e-06
8.33082e-06
4.36516e-06
5.47866e-07
9.87964e-07
9.44853e-07
9.48923e-07
9.34422e-07
9.09293e-07
9.23141e-07
9.81802e-07
1.50546e-06
1.39163e-06
7.99336e-06
8.55378e-06
1.91427e-05
1.41399e-05
3.21193e-05
1.4168e-05
9.29474e-06
1.25571e-05
1.11263e-05
2.77727e-06
5.20636e-07
9.44631e-07
9.2272e-07
9.39387e-07
9.35001e-07
9.31272e-07
9.02268e-07
9.69761e-07
1.38715e-06
2.82443e-06
8.62262e-06
8.97946e-06
1.66235e-05
1.43782e-05
3.29088e-05
2.22715e-05
1.83829e-05
1.85065e-05
1.11411e-05
2.34479e-06
3.54485e-07
6.4554e-07
6.20785e-07
5.9163e-07
6.255e-07
7.19703e-07
7.5048e-07
8.03313e-07
1.01695e-06
7.32887e-06
1.01343e-05
1.00454e-05
8.63545e-06
1.01186e-05
2.23482e-05
2.26537e-05
2.05754e-05
1.56957e-05
1.09914e-05
3.34025e-06
5.86624e-07
6.48151e-07
6.27227e-07
7.64302e-07
8.6904e-07
8.47868e-07
9.48085e-07
1.08149e-06
2.33968e-06
1.46058e-05
1.06224e-05
1.22923e-05
3.39195e-06
6.53956e-06
1.52618e-05
1.23997e-05
2.05997e-05
8.14971e-06
1.57016e-05
6.59008e-06
2.42378e-06
3.43759e-06
3.31224e-06
4.58774e-06
5.25819e-06
5.1082e-06
6.05417e-06
6.73599e-06
9.69288e-06
1.87471e-05
7.96618e-06
1.51754e-05
2.22272e-06
1.09939e-05
1.17091e-05
7.20097e-06
1.83755e-05
7.14954e-06
1.78271e-05
9.1558e-06
1.96567e-05
2.76159e-05
2.85851e-05
2.80364e-05
2.71146e-05
2.61206e-05
2.51322e-05
2.60257e-05
2.55985e-05
1.94479e-05
1.20359e-05
1.57757e-05
2.6028e-06
1.62758e-05
6.72614e-06
7.40941e-06
1.04888e-05
5.39132e-06
1.22149e-05
1.40323e-05
2.91884e-05
4.61217e-05
5.15724e-05
3.85685e-05
3.70721e-05
4.63731e-05
3.57246e-05
3.70781e-05
3.60879e-05
2.99823e-05
1.72089e-05
1.56476e-05
2.23805e-06
1.53666e-05
9.969e-06
7.61044e-06
7.35505e-06
5.89417e-06
1.53506e-05
9.72668e-06
2.43849e-05
4.28864e-05
5.60704e-05
6.10385e-05
5.92559e-05
5.33455e-05
5.66327e-05
6.16141e-05
5.99646e-05
4.68264e-05
2.22397e-05
1.54019e-05
2.55798e-06
1.11812e-05
1.8823e-05
7.84704e-06
5.3604e-06
1.35738e-05
1.75439e-05
7.42246e-06
1.68114e-05
3.19846e-05
4.8445e-05
5.66718e-05
5.61983e-05
4.66662e-05
5.14765e-05
6.01465e-05
5.93742e-05
4.1814e-05
1.90492e-05
1.50645e-05
2.81637e-06
8.15191e-06
2.35752e-05
8.98155e-06
1.09799e-05
1.56934e-05
1.69912e-05
6.93351e-06
1.38773e-05
1.99819e-05
3.71741e-05
4.42635e-05
4.57113e-05
3.77486e-05
4.26492e-05
5.16463e-05
5.24527e-05
3.55882e-05
2.05215e-05
1.36686e-05
2.59765e-06
1.13634e-05
2.50415e-05
9.34883e-06
1.32971e-05
1.79598e-05
1.65171e-05
7.41877e-06
1.56626e-05
1.22659e-05
2.54332e-05
3.23896e-05
3.61605e-05
3.0718e-05
3.78475e-05
4.3489e-05
4.51576e-05
3.42965e-05
1.89877e-05
1.28903e-05
1.72364e-06
1.88182e-05
1.79886e-05
8.69067e-06
1.20514e-05
1.90627e-05
1.47298e-05
8.00207e-06
1.904e-05
1.2474e-05
1.76957e-05
2.52723e-05
3.09477e-05
3.26217e-05
3.88629e-05
4.01274e-05
4.10609e-05
3.60124e-05
1.93292e-05
1.1727e-05
9.42959e-07
1.99134e-05
1.22383e-05
1.11703e-05
8.03887e-06
1.31716e-05
1.14099e-05
1.05562e-05
2.65191e-05
1.36717e-05
1.89619e-05
2.63649e-05
3.18487e-05
3.68689e-05
3.88379e-05
3.9809e-05
4.06744e-05
3.40707e-05
1.94292e-05
9.04577e-06
2.26521e-07
1.54725e-05
1.10968e-05
1.37418e-05
6.41875e-06
7.6556e-06
7.15503e-06
1.6546e-05
2.62996e-05
1.621e-05
2.763e-05
2.57184e-05
3.01071e-05
3.73813e-05
3.59468e-05
3.71283e-05
3.6076e-05
3.1341e-05
2.04302e-05
4.92092e-06
7.63321e-08
1.20455e-05
1.40288e-05
3.03959e-06
6.45768e-06
5.06517e-06
1.87015e-06
1.80182e-05
2.13975e-05
2.53503e-05
2.81543e-05
2.40778e-05
2.67922e-05
3.44398e-05
3.12361e-05
3.13539e-05
3.01322e-05
2.52135e-05
1.93264e-05
1.36046e-06
4.28283e-08
3.17743e-06
3.20724e-06
7.76155e-08
6.96752e-08
9.05381e-08
1.17748e-07
3.48443e-06
4.51365e-06
1.2951e-05
1.65345e-05
3.12244e-05
2.47916e-05
2.50729e-05
3.68719e-05
3.56221e-05
3.27625e-05
2.03594e-05
1.81788e-05
1.94763e-07
6.07702e-07
9.57834e-08
6.65648e-08
3.61539e-05
3.73333e-05
2.59457e-05
2.39191e-05
1.32092e-05
2.22686e-06
3.40428e-07
7.15556e-07
1.81375e-07
2.76392e-07
1.44917e-05
1.87871e-05
4.6314e-07
2.99596e-06
1.11925e-05
2.44519e-05
3.18723e-05
4.08041e-05
4.11252e-05
5.14237e-05
7.95704e-06
1.23155e-05
7.30302e-06
7.16904e-06
4.44403e-06
8.8525e-07
1.24795e-06
9.70285e-07
2.65471e-07
1.59624e-06
2.84848e-06
7.25244e-07
4.86899e-07
3.55724e-08
1.14858e-07
8.53511e-06
9.49845e-06
1.57865e-05
1.13171e-05
1.31543e-05
1.04642e-05
8.06024e-06
9.30758e-06
9.55769e-06
4.92913e-06
1.10632e-05
4.35618e-06
1.30281e-06
1.66741e-06
3.61958e-06
7.76208e-06
1.55589e-05
1.16694e-06
6.61602e-07
2.81489e-07
8.01105e-06
9.52053e-06
1.59174e-05
1.18474e-05
1.69442e-05
9.76156e-06
1.0835e-05
9.43151e-06
1.10609e-05
5.42502e-06
5.03825e-07
9.01034e-07
9.35038e-07
9.50785e-07
1.0327e-06
1.66311e-06
1.71601e-06
8.90764e-07
1.03906e-06
1.37426e-06
8.27292e-06
9.18855e-06
1.69789e-05
1.38836e-05
2.71117e-05
8.74147e-06
1.01801e-05
8.09497e-06
9.94166e-06
4.35602e-06
5.50436e-07
9.84097e-07
9.4192e-07
9.45906e-07
9.31533e-07
9.06938e-07
9.21472e-07
9.76363e-07
1.49065e-06
1.34149e-06
8.14806e-06
9.84281e-06
2.10374e-05
1.49609e-05
3.04251e-05
1.36794e-05
9.40636e-06
1.13343e-05
1.06174e-05
2.56017e-06
5.40824e-07
9.52535e-07
9.29697e-07
9.4947e-07
9.43301e-07
9.35621e-07
9.05359e-07
9.73249e-07
1.39285e-06
2.27957e-06
8.72486e-06
1.05093e-05
1.99248e-05
1.55016e-05
3.08682e-05
2.01937e-05
1.64835e-05
1.63432e-05
1.08164e-05
2.01797e-06
3.68879e-07
6.77678e-07
6.528e-07
6.22241e-07
6.55184e-07
7.47802e-07
7.76384e-07
8.27126e-07
1.01229e-06
6.08354e-06
1.04291e-05
1.21028e-05
1.34462e-05
1.1525e-05
2.31482e-05
2.07418e-05
1.86436e-05
1.45084e-05
1.33105e-05
3.11187e-06
5.55182e-07
6.12849e-07
5.94244e-07
7.1139e-07
8.07176e-07
7.99006e-07
8.91743e-07
1.01344e-06
2.06856e-06
1.36822e-05
1.17674e-05
1.47017e-05
8.88061e-06
8.89716e-06
1.69193e-05
1.26485e-05
1.8628e-05
8.89708e-06
1.85795e-05
6.27831e-06
2.19148e-06
3.06884e-06
3.05221e-06
4.1149e-06
4.80122e-06
4.86315e-06
5.75508e-06
6.38408e-06
9.08328e-06
1.84513e-05
1.0319e-05
1.73408e-05
5.99855e-06
9.82534e-06
1.44314e-05
7.83237e-06
1.66462e-05
8.51198e-06
2.21935e-05
1.01968e-05
2.02742e-05
2.84041e-05
2.93097e-05
2.89208e-05
2.79959e-05
2.68454e-05
2.59866e-05
2.69023e-05
2.65197e-05
2.06015e-05
1.36797e-05
1.80804e-05
5.46466e-06
1.48775e-05
1.08348e-05
7.80167e-06
1.08041e-05
7.54769e-06
1.71145e-05
1.46058e-05
2.93116e-05
4.61688e-05
5.16169e-05
3.91604e-05
3.76649e-05
4.64189e-05
3.63096e-05
3.76517e-05
3.66647e-05
3.05678e-05
1.8135e-05
1.80557e-05
4.57596e-06
1.53025e-05
9.19777e-06
7.84736e-06
8.26817e-06
6.36739e-06
1.65112e-05
1.10888e-05
2.46801e-05
4.30533e-05
5.61197e-05
6.116e-05
5.93719e-05
5.33938e-05
5.67418e-05
6.17194e-05
6.00787e-05
4.70177e-05
2.35079e-05
1.77856e-05
4.94114e-06
1.1972e-05
1.59088e-05
7.96623e-06
6.52422e-06
9.44917e-06
1.78398e-05
8.88074e-06
1.74858e-05
3.22712e-05
4.85129e-05
5.67919e-05
5.6309e-05
4.67345e-05
5.15658e-05
6.0239e-05
5.94752e-05
4.20662e-05
2.04746e-05
1.79933e-05
5.61196e-06
9.57038e-06
2.14169e-05
9.2978e-06
9.78613e-06
1.15529e-05
1.76376e-05
8.35835e-06
1.46363e-05
2.0632e-05
3.72973e-05
4.44185e-05
4.58489e-05
3.78674e-05
4.27916e-05
5.17476e-05
5.2589e-05
3.62882e-05
2.2081e-05
1.67484e-05
5.77916e-06
9.89669e-06
2.26065e-05
9.4719e-06
1.22209e-05
1.4653e-05
1.71647e-05
8.84483e-06
1.63646e-05
1.34657e-05
2.57388e-05
3.27278e-05
3.64017e-05
3.13421e-05
3.86367e-05
4.36405e-05
4.53146e-05
3.54052e-05
2.06791e-05
1.57286e-05
4.39542e-06
1.64875e-05
1.76808e-05
8.71932e-06
1.18135e-05
1.60069e-05
1.526e-05
9.43442e-06
1.96837e-05
1.36577e-05
1.84227e-05
2.61536e-05
3.17862e-05
3.31685e-05
3.96324e-05
4.08745e-05
4.15392e-05
3.66091e-05
2.09051e-05
1.45295e-05
2.14246e-06
1.75319e-05
1.14611e-05
1.01317e-05
7.18514e-06
1.23873e-05
1.20064e-05
1.18288e-05
2.6701e-05
1.47987e-05
1.96147e-05
2.72441e-05
3.26879e-05
3.70136e-05
3.95059e-05
4.04112e-05
4.14673e-05
3.48981e-05
2.08532e-05
1.22902e-05
3.72662e-07
1.39007e-05
9.18193e-06
1.01493e-05
4.52212e-06
5.50997e-06
6.73856e-06
1.76496e-05
2.65403e-05
1.7227e-05
2.77571e-05
2.66264e-05
3.09768e-05
3.747e-05
3.67781e-05
3.79608e-05
3.69167e-05
3.22062e-05
2.17442e-05
7.79676e-06
1.15541e-07
7.83208e-06
9.9511e-06
1.44059e-06
3.23737e-06
2.13375e-06
2.81002e-06
1.88427e-05
2.16907e-05
2.5482e-05
2.82763e-05
2.47398e-05
2.74414e-05
3.45857e-05
3.18676e-05
3.19873e-05
3.07669e-05
2.59004e-05
2.01128e-05
2.11177e-06
1.70131e-07
1.51053e-06
1.26978e-06
1.9871e-07
1.13448e-07
1.28175e-06
2.12929e-06
4.90362e-06
5.79704e-06
1.34816e-05
1.69296e-05
3.13446e-05
2.51026e-05
2.57977e-05
3.70056e-05
3.57501e-05
3.29186e-05
2.1117e-05
1.85618e-05
4.00609e-07
1.52523e-06
1.8669e-07
1.58869e-07
3.74298e-05
3.84255e-05
2.69488e-05
2.49596e-05
1.34929e-05
2.17279e-06
2.94523e-07
4.26704e-07
1.09779e-07
3.36294e-07
1.45994e-05
1.77116e-05
4.65681e-07
2.48595e-06
1.14689e-05
2.43818e-05
3.24767e-05
4.16541e-05
4.27708e-05
5.28387e-05
9.45728e-06
1.44093e-05
8.14626e-06
8.46491e-06
4.99878e-06
8.04414e-07
1.24072e-06
9.71869e-07
2.59865e-07
1.69173e-06
2.78863e-06
7.64184e-07
4.93394e-07
4.89674e-08
8.44951e-08
8.49166e-06
1.11361e-05
1.83441e-05
1.54344e-05
1.59419e-05
9.94328e-06
8.98262e-06
8.96779e-06
1.08926e-05
5.5189e-06
1.07026e-05
4.20266e-06
1.28256e-06
1.63066e-06
3.47716e-06
7.36876e-06
1.48561e-05
1.14137e-06
7.16883e-07
2.73307e-07
8.06544e-06
1.08103e-05
1.88773e-05
1.26128e-05
1.66957e-05
1.01674e-05
1.02536e-05
9.05329e-06
1.2548e-05
5.61352e-06
5.00217e-07
8.98679e-07
9.28545e-07
9.43413e-07
1.02092e-06
1.62836e-06
1.72372e-06
9.50646e-07
1.0598e-06
1.4496e-06
8.21378e-06
1.05286e-05
1.95938e-05
1.45926e-05
2.68756e-05
9.89098e-06
1.05271e-05
8.69061e-06
1.17015e-05
4.13505e-06
5.31412e-07
9.75652e-07
9.35766e-07
9.39457e-07
9.25506e-07
9.02207e-07
9.1646e-07
9.65963e-07
1.44682e-06
1.32393e-06
8.0997e-06
1.13271e-05
2.29007e-05
1.57939e-05
2.95337e-05
1.37634e-05
1.03111e-05
1.0919e-05
1.11253e-05
2.25824e-06
5.5042e-07
9.43009e-07
9.22959e-07
9.40935e-07
9.3539e-07
9.27719e-07
9.00399e-07
9.61968e-07
1.37333e-06
1.90059e-06
8.59389e-06
1.23264e-05
2.23415e-05
1.6525e-05
2.94839e-05
1.91419e-05
1.51849e-05
1.47976e-05
1.14587e-05
1.76527e-06
3.83302e-07
6.93379e-07
6.69202e-07
6.39531e-07
6.72127e-07
7.61648e-07
7.89292e-07
8.38653e-07
1.02181e-06
4.75974e-06
1.05474e-05
1.4443e-05
1.75754e-05
1.2963e-05
2.40503e-05
1.94177e-05
1.72038e-05
1.36953e-05
1.5897e-05
2.98643e-06
5.39174e-07
5.95474e-07
5.78e-07
6.85171e-07
7.76231e-07
7.73084e-07
8.63417e-07
9.76273e-07
1.87885e-06
1.25244e-05
1.26518e-05
1.76028e-05
1.44349e-05
1.08751e-05
1.84763e-05
1.29877e-05
1.71594e-05
9.54114e-06
2.16328e-05
5.77483e-06
1.94559e-06
2.68401e-06
2.78943e-06
3.65515e-06
4.35594e-06
4.60635e-06
5.46632e-06
6.0488e-06
8.4203e-06
1.79619e-05
1.24284e-05
2.06501e-05
1.20335e-05
1.01146e-05
1.64352e-05
8.25354e-06
1.5412e-05
9.42324e-06
2.60949e-05
1.07453e-05
2.05774e-05
2.88988e-05
2.96675e-05
2.94956e-05
2.85691e-05
2.72045e-05
2.65421e-05
2.74742e-05
2.71156e-05
2.13618e-05
1.48792e-05
2.17525e-05
1.01517e-05
1.43338e-05
1.42221e-05
7.94865e-06
1.12613e-05
9.04996e-06
2.20063e-05
1.49045e-05
2.9397e-05
4.62031e-05
5.16478e-05
3.94563e-05
3.7961e-05
4.64491e-05
3.65986e-05
3.79337e-05
3.69482e-05
3.08564e-05
1.86626e-05
2.19103e-05
7.74599e-06
1.53161e-05
1.12331e-05
7.84395e-06
8.87458e-06
7.96221e-06
2.01532e-05
1.18225e-05
2.4874e-05
4.3232e-05
5.61566e-05
6.12968e-05
5.95002e-05
5.34305e-05
5.68605e-05
6.18382e-05
6.02089e-05
4.7227e-05
2.44588e-05
2.18549e-05
8.04013e-06
1.26706e-05
1.43418e-05
7.82479e-06
7.71904e-06
7.76961e-06
2.02632e-05
9.70346e-06
1.78477e-05
3.25437e-05
4.85648e-05
5.69213e-05
5.64297e-05
4.67861e-05
5.16565e-05
6.03404e-05
5.95894e-05
4.22967e-05
2.14851e-05
2.28565e-05
9.09011e-06
1.03012e-05
1.98111e-05
9.1893e-06
8.99586e-06
8.84894e-06
2.02299e-05
9.15291e-06
1.50361e-05
2.11739e-05
3.73881e-05
4.45784e-05
4.59931e-05
3.79516e-05
4.29178e-05
5.1854e-05
5.27315e-05
3.67973e-05
2.31799e-05
2.25522e-05
9.81161e-06
9.55946e-06
2.09435e-05
8.96151e-06
1.12879e-05
1.18357e-05
2.00294e-05
9.63291e-06
1.67309e-05
1.43142e-05
2.59414e-05
3.30329e-05
3.66227e-05
3.16652e-05
3.91833e-05
4.37753e-05
4.54663e-05
3.61558e-05
2.191e-05
2.11423e-05
8.51865e-06
1.43716e-05
1.71146e-05
8.14454e-06
1.1088e-05
1.31529e-05
1.8573e-05
1.02114e-05
2.00088e-05
1.44941e-05
1.88083e-05
2.67716e-05
3.23756e-05
3.34425e-05
4.0169e-05
4.13874e-05
4.19403e-05
3.70423e-05
2.20637e-05
1.96154e-05
5.10431e-06
1.51267e-05
9.70623e-06
8.33163e-06
5.91557e-06
1.03999e-05
1.64717e-05
1.25151e-05
2.68183e-05
1.5578e-05
1.99499e-05
2.78721e-05
3.32866e-05
3.71083e-05
4.00385e-05
4.08908e-05
4.20362e-05
3.54915e-05
2.18769e-05
1.83488e-05
1.30967e-06
1.13356e-05
6.81924e-06
6.57554e-06
2.08858e-06
3.55686e-06
1.18221e-05
1.82186e-05
2.66915e-05
1.79018e-05
2.78416e-05
2.72653e-05
3.15924e-05
3.75314e-05
3.73622e-05
3.85473e-05
3.75093e-05
3.28297e-05
2.26704e-05
1.49939e-05
5.16009e-07
4.03928e-06
5.63153e-06
1.19373e-06
6.12002e-07
2.07453e-06
8.56243e-06
1.93404e-05
2.19352e-05
2.55937e-05
2.83698e-05
2.50819e-05
2.77818e-05
3.46839e-05
3.21936e-05
3.23152e-05
3.10964e-05
2.62633e-05
2.05302e-05
6.38744e-06
7.48123e-07
1.2983e-06
1.05534e-06
1.13092e-06
4.56248e-07
7.62562e-06
7.52407e-06
5.8064e-06
6.59657e-06
1.38848e-05
1.72367e-05
3.14436e-05
2.53188e-05
2.62002e-05
3.71059e-05
3.58494e-05
3.30364e-05
2.15388e-05
1.8838e-05
1.19211e-06
1.62337e-06
1.45441e-06
2.47322e-06
3.82702e-05
3.9293e-05
2.77372e-05
2.58323e-05
1.37146e-05
2.13246e-06
2.53583e-07
1.69605e-07
8.18721e-08
3.7261e-07
1.4881e-05
1.62196e-05
4.79604e-07
2.22122e-06
1.17138e-05
2.42779e-05
3.29792e-05
4.24239e-05
4.39806e-05
5.38834e-05
1.0878e-05
1.58066e-05
9.01688e-06
9.79792e-06
5.43896e-06
6.90674e-07
1.21929e-06
9.67081e-07
2.53325e-07
1.72649e-06
2.66329e-06
7.96781e-07
5.12972e-07
6.22953e-08
6.74397e-08
8.27134e-06
1.27176e-05
2.07031e-05
1.88279e-05
1.88205e-05
1.04443e-05
1.03691e-05
8.98648e-06
1.24722e-05
5.8916e-06
1.02979e-05
4.09826e-06
1.27308e-06
1.59283e-06
3.34802e-06
7.07095e-06
1.45774e-05
1.04894e-06
7.37542e-07
2.69916e-07
7.86527e-06
1.22337e-05
2.16813e-05
1.43681e-05
1.75418e-05
1.08867e-05
1.07773e-05
9.11323e-06
1.38789e-05
5.67159e-06
4.98888e-07
8.97954e-07
9.25353e-07
9.39792e-07
1.01666e-06
1.63131e-06
1.76685e-06
9.59761e-07
1.10762e-06
1.53573e-06
7.9204e-06
1.20464e-05
2.22079e-05
1.5798e-05
2.70017e-05
1.11901e-05
1.12219e-05
9.27333e-06
1.35067e-05
3.784e-06
5.54618e-07
9.71547e-07
9.32787e-07
9.36337e-07
9.2259e-07
8.99924e-07
9.1404e-07
9.61899e-07
1.42949e-06
1.34626e-06
7.84334e-06
1.29646e-05
2.47847e-05
1.66317e-05
2.90733e-05
1.44049e-05
1.13367e-05
1.08608e-05
1.25058e-05
1.99854e-06
5.49253e-07
9.47405e-07
9.26592e-07
9.46938e-07
9.4085e-07
9.29485e-07
9.01129e-07
9.63472e-07
1.36954e-06
1.66996e-06
8.22752e-06
1.43352e-05
2.42608e-05
1.74039e-05
2.8753e-05
1.88584e-05
1.43801e-05
1.37986e-05
1.30782e-05
1.65767e-06
4.2839e-07
7.29923e-07
7.05366e-07
6.76229e-07
7.07263e-07
7.90726e-07
8.14473e-07
8.61501e-07
1.04512e-06
3.53198e-06
1.04471e-05
1.68883e-05
2.08753e-05
1.42105e-05
2.45141e-05
1.88553e-05
1.61154e-05
1.31679e-05
1.84723e-05
2.85174e-06
5.13103e-07
5.72004e-07
5.54459e-07
6.49149e-07
7.31775e-07
7.34868e-07
8.17304e-07
9.2246e-07
1.70838e-06
1.11714e-05
1.31706e-05
2.06538e-05
1.88259e-05
1.24284e-05
1.99267e-05
1.3256e-05
1.60407e-05
1.0065e-05
2.45933e-05
5.24286e-06
1.79295e-06
2.41877e-06
2.59662e-06
3.30822e-06
3.98953e-06
4.36391e-06
5.16781e-06
5.72316e-06
7.77118e-06
1.72658e-05
1.41309e-05
2.46685e-05
1.72084e-05
1.10133e-05
1.81524e-05
8.44619e-06
1.44647e-05
9.90973e-06
2.94557e-05
2.13176e-05
6.55748e-07
2.91109e-05
6.55748e-07
2.97568e-05
2.88298e-05
6.55748e-07
2.67867e-05
2.77296e-05
2.73868e-05
2.17048e-05
1.5508e-05
2.6442e-05
1.50087e-05
1.43295e-05
1.64122e-05
7.78617e-06
1.17663e-05
9.71531e-06
2.6441e-05
2.80404e-05
6.55748e-07
6.55748e-07
6.55748e-07
6.55748e-07
6.55748e-07
6.55748e-07
6.55748e-07
6.55748e-07
6.55748e-07
6.55748e-07
5.51872e-05
2.68584e-05
1.14407e-05
1.53203e-05
1.32933e-05
7.53472e-06
9.30068e-06
9.00224e-06
2.51722e-05
3.43633e-05
6.55748e-07
4.33827e-05
6.55748e-07
6.14316e-05
5.96238e-05
6.55748e-07
5.69707e-05
6.19568e-05
6.0341e-05
4.74315e-05
2.49845e-05
2.70741e-05
1.14506e-05
1.31893e-05
1.38589e-05
7.41346e-06
8.27018e-06
7.91935e-06
2.47872e-05
3.96873e-05
6.55748e-07
3.27426e-05
6.55748e-07
5.70346e-05
5.6536e-05
6.55748e-07
5.17229e-05
6.0431e-05
5.96992e-05
4.24737e-05
2.19989e-05
2.88657e-05
1.29399e-05
1.04141e-05
1.84871e-05
8.24529e-06
8.43655e-06
7.51036e-06
2.48849e-05
4.88828e-05
6.55748e-07
2.15069e-05
6.55748e-07
4.47024e-05
4.61089e-05
6.55748e-07
4.29935e-05
5.19403e-05
5.28545e-05
3.7071e-05
2.37489e-05
2.97862e-05
1.41055e-05
9.25472e-06
1.95875e-05
8.04179e-06
1.01661e-05
9.2699e-06
2.52409e-05
5.68726e-05
6.55748e-07
1.47316e-05
6.55748e-07
3.32369e-05
3.67752e-05
6.55748e-07
3.9463e-05
4.38595e-05
4.55789e-05
3.65509e-05
2.25527e-05
2.83663e-05
1.3347e-05
1.21793e-05
1.60264e-05
6.78313e-06
9.69233e-06
1.0327e-05
2.47016e-05
6.8783e-05
6.55748e-07
1.4911e-05
6.55748e-07
2.70843e-05
3.26833e-05
6.55748e-07
4.0454e-05
4.16493e-05
4.21718e-05
3.73082e-05
2.26756e-05
2.64098e-05
9.84598e-06
1.25474e-05
7.76061e-06
6.17489e-06
4.20925e-06
7.73026e-06
2.43927e-05
9.05037e-05
6.55748e-07
1.59522e-05
6.55748e-07
2.82053e-05
3.36092e-05
6.55748e-07
4.03385e-05
4.11578e-05
4.23536e-05
3.58251e-05
2.2406e-05
2.60918e-05
3.83514e-06
7.95212e-06
3.82208e-06
3.25506e-06
7.2843e-07
2.49983e-06
2.122e-05
0.000119872
6.55748e-07
1.82005e-05
6.55748e-07
2.75949e-05
3.19185e-05
6.55748e-07
3.767e-05
3.88608e-05
3.78257e-05
3.31771e-05
2.31494e-05
2.40607e-05
1.48878e-06
2.29827e-06
2.07823e-06
2.11227e-06
2.41403e-07
4.67252e-06
1.45864e-05
0.000123149
6.55748e-07
6.55748e-07
6.55748e-07
6.55748e-07
6.55748e-07
6.55748e-07
6.55748e-07
6.55748e-07
6.55748e-07
6.55748e-07
0.000101286
1.17697e-05
1.15245e-06
2.86406e-06
3.01037e-06
4.19727e-06
1.13434e-06
1.47243e-05
1.07259e-05
0.000133759
4.70185e-07
4.70185e-07
4.70185e-07
4.70185e-07
4.70185e-07
4.70185e-07
4.70185e-07
4.70185e-07
4.70185e-07
4.70185e-07
9.87072e-05
3.34359e-06
1.26533e-06
3.36389e-06
7.08153e-06
3.88027e-05
4.00021e-05
2.83124e-05
2.65133e-05
1.38703e-05
2.0711e-06
2.44155e-07
9.15658e-08
5.29085e-08
3.99613e-07
1.48992e-05
1.45156e-05
4.95602e-07
2.10629e-06
1.18935e-05
2.41444e-05
3.33955e-05
4.31303e-05
4.4875e-05
5.47095e-05
1.20085e-05
1.65596e-05
9.85214e-06
1.11381e-05
5.73746e-06
6.34817e-07
1.20987e-06
9.56991e-07
2.46805e-07
1.8103e-06
2.60205e-06
8.29781e-07
4.7604e-07
7.63188e-08
5.26273e-08
7.90169e-06
1.41834e-05
2.28514e-05
2.15842e-05
2.15297e-05
1.11765e-05
1.18773e-05
9.27897e-06
1.40723e-05
6.16813e-06
9.84126e-06
3.9017e-06