/*--------------------------------*- C++ -*----------------------------------*\
| =========                 |                                                 |
| \\      /  F ield         | OpenFOAM: The Open Source CFD Toolbox           |
|  \\    /   O peration     | Version:  2.3.0                                 |
|   \\  /    A nd           | Web:      www.OpenFOAM.org                      |
|    \\/     M anipulation  |                                                 |
\*---------------------------------------------------------------------------*/
FoamFile
{
    version     2.0;
    format      ascii;
    class       volVectorField;
    location    "4.800005";
    object      U.air;
}
// * * * * * * * * * * * * * * * * * * * * * * * * * * * * * * * * * * * * * //

dimensions      [0 1 -1 0 0 0 0];

internalField   nonuniform List<vector> 
10000
(
(-0.187918 -0.611129 -0.518316)
(-0.00127643 -0.540988 -0.534141)
(0.0270061 -0.578363 -0.536075)
(0.108933 -0.536883 -0.3992)
(0.147856 -0.384424 -0.267788)
(0.114732 -0.205378 -0.362576)
(0.00593419 -0.0674283 -0.381978)
(0.0910968 -0.117686 -0.20421)
(0.163027 -0.123808 -0.211016)
(0.0141298 -0.0854724 -0.486924)
(-0.0328063 -0.0254773 -0.628028)
(-0.0211725 -0.061592 -0.471214)
(-0.0785168 -0.173366 -0.156163)
(-0.0603854 -0.133235 -0.0811551)
(-0.122041 -0.0993765 -0.113817)
(-0.0858917 -0.368843 -0.211931)
(-0.0807929 -0.372064 -0.320996)
(-0.134818 -0.400264 -0.364934)
(-0.115924 -0.747136 -0.537033)
(0.21376 -0.918454 -0.696457)
(-0.0206759 -0.640775 -0.0639539)
(-0.00943592 -0.669333 -0.106472)
(0.0317458 -0.68959 -0.0694533)
(0.0217354 -0.363603 0.0059457)
(0.00602799 -0.361963 -0.0652686)
(-0.0135169 -0.0350941 -0.898783)
(0.00322373 -0.0331709 -0.783749)
(0.0033288 -0.0596977 -0.424264)
(-0.00145073 -0.0541038 -0.484686)
(-0.0018713 -0.0763881 -0.751882)
(-0.00508734 -0.0156463 -1.50928)
(0.00507638 -0.0160929 -2.19312)
(-0.0551833 -0.182778 -0.3106)
(-0.00991551 -0.123163 -0.0533925)
(-0.00249745 -0.236479 -0.109169)
(-0.00950664 -0.400617 -0.0554828)
(0.00884915 -0.294934 -0.00852592)
(-0.00793866 -0.128685 0.0146267)
(0.00762597 -0.664351 -0.0386564)
(-0.0101821 -0.963259 -0.106413)
(-0.00976521 -0.51754 0.00339659)
(-0.00439675 -0.658883 -0.0149704)
(0.00761402 -0.700108 -0.00605177)
(0.00341695 -0.14849 0.0284916)
(0.00648515 -0.384667 -0.046553)
(-0.00290953 -0.129053 -0.21061)
(0.00136797 -0.0971101 -0.238025)
(-0.000997997 -0.0882135 -0.266227)
(-0.00205925 -0.0889649 -0.266786)
(0.00332522 -0.0755563 -0.311909)
(-0.00655748 -0.0472192 -0.537679)
(0.165657 -0.0400977 -0.631716)
(0.046115 -0.0670192 -0.497682)
(0.00134742 -0.125097 -0.263003)
(0.00659364 -0.261465 -0.107335)
(-0.00523254 -0.414087 -0.0497988)
(-0.00157814 -0.154977 0.0126789)
(-0.000704369 -0.218806 -0.00224353)
(0.0124737 -0.437589 0.0262302)
(0.00298445 -0.763408 0.0112112)
(-0.00494094 -0.650572 -0.00591155)
(0.000420214 -0.489338 0.00992821)
(-0.00139342 -0.684051 -0.00927002)
(0.00025982 -0.251268 -0.00276603)
(0.00660981 -0.381767 -0.0544451)
(-0.00997702 -0.107625 -0.229346)
(0.000370094 -0.0916824 -0.263308)
(-0.000261449 -0.0909834 -0.265472)
(-0.000345932 -0.0939063 -0.254764)
(-0.00104512 -0.0919948 -0.255641)
(-0.00111464 -0.0914925 -0.273316)
(0.0012698 -0.0857602 -0.255534)
(0.000167212 -0.138976 -0.275986)
(0.000535159 -0.166189 -0.215582)
(0.00283383 -0.261917 -0.103116)
(-0.00306027 -0.379197 -0.0446138)
(-0.00168795 -0.130026 0.0186762)
(-0.000507571 -0.314286 -0.017353)
(0.0171848 -0.26161 0.0481757)
(-0.00516001 -0.501197 0.0430909)
(-0.00530658 -0.717961 -0.0154301)
(-0.000880321 -0.587103 -0.000744087)
(-0.000411015 -0.717467 -0.0157984)
(4.20738e-06 -0.388372 -0.00227125)
(0.00587524 -0.36112 -0.0603053)
(-0.00811899 -0.118379 -0.208661)
(0.000241417 -0.0966756 -0.253656)
(-0.000493845 -0.0925825 -0.263899)
(0.000124322 -0.0945576 -0.259772)
(0.000484682 -0.0934177 -0.260197)
(0.000333842 -0.0853411 -0.2827)
(0.00191894 -0.0970831 -0.246151)
(0.000895576 -0.0925043 -0.258339)
(-0.00356223 -0.130481 -0.183627)
(-0.000136421 -0.256016 -0.0967499)
(-0.00698682 -0.354613 -0.0495428)
(-0.00466392 -0.138967 0.0155631)
(-0.000867039 -0.582651 -0.0494434)
(0.0135511 -0.2767 0.0215864)
(-0.00349578 -0.54386 0.0148189)
(-0.00022622 -0.639485 6.63697e-05)
(-0.000997476 -0.527906 0.00296524)
(-0.00211539 -0.570971 0.00418321)
(-0.00609713 -0.319833 0.0115764)
(0.00140997 -0.313352 -0.0779683)
(-0.00535202 -0.112754 -0.214356)
(6.967e-05 -0.095617 -0.257136)
(-0.000277875 -0.0930222 -0.263146)
(-0.000169945 -0.096959 -0.253011)
(-8.60808e-05 -0.0945074 -0.262303)
(0.000329758 -0.0881732 -0.279116)
(0.000299648 -0.0920554 -0.266309)
(-0.000745836 -0.0941106 -0.265671)
(-0.000885913 -0.132242 -0.189819)
(-0.00298184 -0.25599 -0.09113)
(-0.00376393 -0.308036 -0.0501091)
(-0.00440826 -0.142246 0.01338)
(0.0059683 -0.720027 -0.032479)
(0.00641202 -0.485943 -0.0246444)
(0.00149634 -0.610113 0.00187619)
(0.00298011 -0.496738 0.0125951)
(-0.00153114 -0.453254 0.0113971)
(-0.0069381 -0.462045 0.0186023)
(-0.00737479 -0.393613 -0.0007033)
(0.00334344 -0.246316 -0.100297)
(-0.00294874 -0.115125 -0.212868)
(-0.000222704 -0.097409 -0.250409)
(-0.000181642 -0.0930692 -0.261613)
(-0.000359771 -0.097469 -0.250276)
(3.42419e-05 -0.0958678 -0.252928)
(0.000456094 -0.0896622 -0.271427)
(0.000121502 -0.0920718 -0.265195)
(-0.000710468 -0.0917087 -0.26661)
(-0.00148584 -0.13664 -0.178794)
(-0.00960794 -0.235024 -0.081785)
(-0.00537156 -0.268201 -0.0347172)
(-0.00474436 -0.143111 0.0111828)
(0.00606057 -0.748287 -0.0137938)
(-0.00796632 -0.675607 -0.0407105)
(0.00988 -0.792439 -0.0193511)
(0.00288568 -0.47655 0.0127512)
(-0.00237138 -0.434999 0.0132243)
(-0.00515819 -0.571123 -0.00476208)
(0.00295953 -0.586832 -0.00911202)
(0.00888955 -0.195497 -0.103717)
(0.000299709 -0.107686 -0.208665)
(-3.22099e-07 -0.0965979 -0.234298)
(-0.000199985 -0.0925487 -0.244658)
(-0.000371424 -0.0986517 -0.228394)
(9.40017e-05 -0.0983458 -0.230281)
(0.000299826 -0.0900463 -0.255172)
(-0.000177136 -0.0899004 -0.258477)
(-0.000574657 -0.0923379 -0.251442)
(-0.00229409 -0.126715 -0.168859)
(-0.00695177 -0.189926 -0.0575348)
(-0.0030874 -0.184796 -0.00397982)
(-0.00522887 -0.164172 0.00911227)
(0.00672951 -0.649284 0.00129527)
(-0.0116588 -0.689035 -0.008103)
(0.0121471 -0.90638 -0.0297889)
(0.00129367 -0.623033 -0.0114293)
(0.000373424 -0.441352 0.0101288)
(0.00432247 -0.744679 -0.0204754)
(0.00524204 -0.616476 -0.00501875)
(0.00687602 -0.149447 -0.0576196)
(-0.000478967 -0.0772712 -0.155481)
(0.00115981 -0.0720534 -0.157793)
(-0.000205919 -0.068681 -0.159722)
(-0.00120481 -0.0733814 -0.142685)
(0.000154235 -0.0720405 -0.145342)
(-0.000889346 -0.0658906 -0.168251)
(-0.00141146 -0.0638694 -0.176523)
(-0.000563368 -0.0647785 -0.172896)
(-0.00051804 -0.0797985 -0.12088)
(0.00421867 -0.108655 -0.0212748)
(-0.000699167 -0.0537104 0.023245)
(-0.00525368 -0.203119 0.00541229)
(0.00628843 -0.556394 0.000866407)
(-0.00590778 -0.493639 0.0150741)
(0.00571114 -0.923929 -0.0138848)
(-0.00313545 -0.775301 -0.0152148)
(0.00240462 -0.461825 0.00297841)
(0.0090167 -0.786732 -0.0158047)
(0.00414249 -0.598362 -0.00794506)
(0.0020986 -0.0618109 0.0102676)
(0.000545103 -0.0277511 0.00470678)
(0.000591588 -0.0265712 0.00549996)
(0.000282326 -0.0166054 0.00544558)
(0.000181923 -0.0267214 0.00564861)
(-0.000395928 -0.0274767 0.00547482)
(-0.000178491 -0.0182634 0.00487749)
(0.000218832 -0.0276056 0.00440328)
(0.000320246 -0.0271052 0.00456204)
(0.000439107 -0.0310011 0.00646324)
(-0.000870179 -0.041271 0.0105608)
(-0.00189298 -0.0544318 0.00763104)
(-0.00145111 -0.204741 0.00652681)
(0.00467442 -0.708073 -0.00434626)
(-0.000116676 -0.466884 0.00720109)
(0.000737759 -0.814593 0.00161626)
(-0.00699387 -0.821311 -0.00379859)
(0.00219087 -0.584737 -0.013363)
(0.01032 -0.7828 -0.00768371)
(0.00158643 -0.527151 -0.00580291)
(-0.00136429 -0.0924245 -0.000283663)
(-0.000315778 -0.0436788 -0.00121157)
(9.79585e-05 -0.0288198 -0.000552956)
(0.000112819 -0.0243794 -0.000103016)
(1.95834e-05 -0.0259317 0.000596513)
(-9.74818e-06 -0.0266637 0.000623592)
(-7.49906e-06 -0.0268091 -2.35699e-05)
(3.97818e-05 -0.0273441 0.000614341)
(7.34703e-05 -0.0264751 0.000755115)
(2.34989e-05 -0.0272644 0.000945159)
(-0.000317795 -0.0318269 0.00119429)
(-0.000527069 -0.0577528 -9.246e-05)
(0.0001505 -0.210441 0.00466698)
(0.000339516 -0.762948 -0.00394372)
(0.0041071 -0.591668 -0.00751749)
(0.000933508 -0.695939 0.00173806)
(-0.00569332 -0.825736 -0.00625341)
(0.00325508 -0.637178 -0.017935)
(0.00592511 -0.697554 -0.000622476)
(-0.00120138 -0.381744 0.000914335)
(-0.00532978 -0.0833978 -0.000510057)
(-0.000767621 -0.0494368 -0.00045749)
(-0.00030406 -0.04088 -0.00304671)
(1.8847e-06 -0.0229617 -0.000214914)
(-0.000232205 -0.0288586 -0.000729262)
(0.000258577 -0.0296501 -0.000678612)
(-1.22723e-05 -0.0240691 -0.00010398)
(-0.000239352 -0.0309926 -0.000855651)
(3.54843e-05 -0.0288173 -0.00050946)
(-4.52412e-05 -0.029577 -0.000466862)
(0.000333298 -0.0375442 -0.00114019)
(-0.000202638 -0.0690788 -0.00111795)
(-4.99752e-05 -0.238276 2.21504e-05)
(-0.001205 -0.784259 -0.00364392)
(0.00589484 -0.679257 -0.0167278)
(0.00151697 -0.585066 0.00464272)
(-0.00144175 -0.805504 -0.0090315)
(0.00251408 -0.555451 0.00412818)
(-0.00193621 -0.592292 0.00199168)
(-0.00291719 -0.336704 0.00479428)
(-0.00514763 -0.10336 -4.4529e-05)
(-0.000745856 -0.0513719 -7.92861e-05)
(-0.000679334 -0.0553172 -0.0035076)
(1.94318e-05 -0.0267308 -0.000988116)
(1.91912e-05 -0.0312139 -0.0011367)
(7.90088e-05 -0.0313913 -0.000896972)
(5.07418e-05 -0.0272712 -0.000780674)
(1.02432e-05 -0.0335892 -0.000828383)
(2.15543e-05 -0.029545 -0.000514986)
(0.000213385 -0.0299557 -0.000377713)
(0.000488593 -0.0403965 -0.000459069)
(-0.000546291 -0.0541374 0.000617121)
(3.19359e-06 -0.26118 0.00142506)
(0.000244275 -0.793538 -0.0021653)
(0.00511692 -0.689172 -0.00862315)
(0.000695224 -0.520112 0.0177314)
(0.00118079 -0.748211 -0.00600688)
(-0.000202479 -0.390064 0.0206305)
(-0.00716619 -0.579169 0.00143339)
(-0.00178695 -0.316386 0.00881647)
(-0.000969841 -0.0709437 0.00166499)
(-0.000220045 -0.0473711 0.000369511)
(-0.000629854 -0.075221 -0.00181081)
(-0.000431555 -0.0346767 -0.0017601)
(6.31713e-05 -0.039885 -0.00194105)
(0.000377398 -0.0382843 -0.00143476)
(0.00040998 -0.0326421 -0.000453837)
(-0.00022193 -0.0388556 -0.000287437)
(-0.000346683 -0.0339136 -0.000809773)
(0.000281597 -0.033597 -0.000764682)
(0.000173607 -0.0404265 -6.73784e-05)
(-0.000364128 -0.0557904 0.000135132)
(0.000423484 -0.263907 0.0042951)
(0.00347813 -0.79597 -0.00288319)
(-0.000564457 -0.555068 0.00819927)
(0.000774966 -0.549708 0.00758928)
(0.00137318 -0.696959 -0.00818119)
(-0.000203835 -0.379558 0.0119384)
(-0.00277507 -0.552257 0.00204607)
(-0.00221969 -0.321843 0.00568148)
(5.81925e-05 -0.0687995 0.00104745)
(0.00024662 -0.0438914 0.00080796)
(-5.0554e-05 -0.0610613 0.000270017)
(-0.000209671 -0.0468748 -0.00111229)
(0.000247672 -0.0506199 -0.000748427)
(-8.41019e-05 -0.0454963 -0.000290968)
(0.00010457 -0.0294839 9.77284e-05)
(5.14567e-05 -0.0332846 0.000332605)
(-0.000188629 -0.037832 -0.000150202)
(-0.000285655 -0.0378246 -0.000276811)
(-8.24539e-05 -0.0381416 2.82661e-05)
(0.000604312 -0.0535282 0.000406325)
(0.000593026 -0.244227 0.0062772)
(0.00372066 -0.795002 -0.0035796)
(-0.00463965 -0.488637 0.0134404)
(0.000918219 -0.685429 -0.00692734)
(-0.00115136 -0.664155 -0.00813045)
(-0.00301267 -0.513138 -0.00675777)
(0.000288325 -0.545717 0.0018851)
(-0.00140536 -0.333564 0.00227778)
(0.000617782 -0.0654979 0.000607272)
(7.25739e-05 -0.0407754 0.000247632)
(0.000672947 -0.0608604 0.000492838)
(0.000354716 -0.0423622 2.81408e-05)
(0.000234281 -0.0428921 0.000372338)
(-0.000621751 -0.0377673 0.000458875)
(-0.000412621 -0.0296425 4.81854e-05)
(0.000353672 -0.0336901 3.36315e-05)
(0.000175257 -0.0327164 8.53975e-05)
(-0.000134722 -0.0363138 -5.47145e-05)
(-9.09137e-05 -0.038843 0.000108096)
(0.000451321 -0.0528482 0.00030335)
(0.00126204 -0.224541 0.00649478)
(0.000188049 -0.7948 -0.00339078)
(-0.00401691 -0.512414 0.00334532)
(0.00050153 -0.709794 -0.0120905)
(-0.000211732 -0.605837 -0.00162305)
(-0.00560826 -0.562449 -0.00963616)
(-0.00042563 -0.604355 -0.00209102)
(-0.000745022 -0.331005 0.00123368)
(0.00176174 -0.0794889 -0.000244435)
(0.000379861 -0.047007 -0.000599324)
(0.0001616 -0.0579351 0.00101938)
(-3.71378e-05 -0.0413785 0.000138581)
(0.000238729 -0.0420364 0.00019068)
(-0.000242325 -0.0373796 2.60586e-05)
(1.36018e-05 -0.032401 -5.583e-05)
(0.000222558 -0.0357786 -3.94615e-05)
(0.000112809 -0.0363707 -2.30546e-05)
(0.000143039 -0.0360814 7.88246e-06)
(-1.66765e-05 -0.0369022 9.58507e-05)
(-0.000237894 -0.0522333 0.000598988)
(0.00195336 -0.211979 0.00444281)
(-0.000989469 -0.798577 -0.00174158)
(-0.00104398 -0.581966 -0.00435072)
(-0.00305759 -0.610487 0.00335095)
(0.00242339 -0.431426 0.00436538)
(-0.00177596 -0.463441 0.00247369)
(-0.00215955 -0.511783 -0.000637144)
(-0.00134276 -0.307896 0.00231264)
(0.00142981 -0.0860673 -0.00277396)
(0.000196533 -0.0501767 -0.002989)
(0.000381542 -0.0538095 0.00211446)
(0.00027005 -0.0459722 -4.13168e-05)
(0.000385431 -0.0410662 0.0013655)
(-0.000213607 -0.0372883 0.00103833)
(7.56741e-05 -0.0328966 -0.000159665)
(0.000275556 -0.0332758 0.00098015)
(0.000124375 -0.0327896 0.00099617)
(-9.66428e-05 -0.03355 0.00107385)
(-7.90436e-06 -0.0368749 0.000829506)
(-0.000556841 -0.0496301 0.00218027)
(0.00213648 -0.197828 0.000499265)
(0.00104194 -0.803013 -0.00173425)
(4.4407e-05 -0.4559 0.00312936)
(0.000726491 -0.46138 0.0126076)
(0.00172955 -0.292493 0.00355564)
(0.0020698 -0.328939 0.00783565)
(-0.00117539 -0.354854 0.00558276)
(-0.00186108 -0.21801 0.00351074)
(-0.00211025 -0.117165 -0.0108691)
(-0.000328087 -0.0806067 -0.00990996)
(0.000339841 -0.0550572 -0.00110921)
(1.94462e-05 -0.0466673 -0.00202811)
(0.00022124 -0.034146 0.0012199)
(0.000179116 -0.0319379 0.000501517)
(-5.83869e-05 -0.0347833 -0.000230379)
(-0.000268699 -0.0285114 0.000818895)
(-6.49027e-05 -0.0284823 0.000685096)
(0.000143968 -0.0295268 0.000531946)
(0.000163915 -0.0330099 0.000523256)
(3.23506e-05 -0.0426372 0.000734582)
(0.00212455 -0.215821 -0.00156921)
(0.000201507 -0.805652 -0.00169521)
(-0.00239157 -0.263196 0.0103485)
(0.00287184 -0.308115 0.0059786)
(-0.00032382 -0.155094 0.00153661)
(2.44352e-05 -0.164439 0.00239508)
(0.000329755 -0.174313 0.00369583)
(4.92809e-05 -0.128373 0.00129725)
(-0.00249098 -0.232913 -0.00868082)
(-0.000602268 -0.175362 -0.00746043)
(-0.000882605 -0.084247 -0.00270132)
(-0.000737639 -0.0683226 -0.0019797)
(-0.000617198 -0.0386422 -6.84052e-05)
(-2.13923e-05 -0.0406422 -0.000529108)
(1.70676e-05 -0.0321314 4.97516e-05)
(-7.27978e-05 -0.0321881 -0.00015496)
(1.85848e-05 -0.0334225 -0.00027361)
(-7.17461e-05 -0.0358317 -0.000374319)
(0.000164431 -0.036266 5.29834e-05)
(0.00347289 -0.0582961 -0.000991748)
(0.000981 -0.176764 -0.000453302)
(-4.58975e-05 -0.810541 -0.000522552)
(-0.0009636 -0.146732 0.00290417)
(0.000484509 -0.194251 0.000404776)
(-0.202309 -0.617037 -0.458992)
(-0.00157897 -0.548217 -0.477577)
(0.0306955 -0.583725 -0.473977)
(0.117523 -0.545112 -0.359426)
(0.160453 -0.384559 -0.229051)
(0.119676 -0.204853 -0.343072)
(0.00490844 -0.0657208 -0.375236)
(0.094777 -0.117963 -0.202429)
(0.134615 -0.124218 -0.196797)
(0.00397585 -0.0877661 -0.431117)
(-0.0326176 -0.0254876 -0.623758)
(-0.0211016 -0.0619568 -0.464613)
(-0.0857291 -0.169833 -0.13534)
(-0.0642873 -0.13516 -0.0654563)
(-0.12912 -0.109412 -0.0938229)
(-0.0911306 -0.36515 -0.169049)
(-0.0844056 -0.372827 -0.279755)
(-0.139906 -0.404636 -0.33192)
(-0.123907 -0.751382 -0.476723)
(0.230527 -0.915965 -0.605294)
(-0.0222282 -0.672508 -0.0646769)
(-0.00943477 -0.699207 -0.103191)
(0.0324461 -0.710532 -0.0650239)
(0.0294031 -0.448198 -0.0149661)
(0.00940031 -0.361835 -0.0635429)
(-0.0129908 -0.0326499 -0.902185)
(0.00322056 -0.0305692 -0.782906)
(0.00339459 -0.0554771 -0.425469)
(-0.0015507 -0.0500581 -0.486104)
(-0.00182214 -0.0831428 -0.752171)
(-0.00510085 -0.0146271 -1.50827)
(0.00467661 -0.0154896 -2.19107)
(-0.0517607 -0.175911 -0.316963)
(-0.013304 -0.147383 -0.0565205)
(-0.00337898 -0.236585 -0.0974916)
(-0.0119485 -0.39389 -0.0536939)
(0.0068315 -0.308103 -0.0172234)
(-0.0112434 -0.181323 0.00692348)
(0.00650895 -0.689867 -0.0483215)
(-0.00620829 -0.97411 -0.106297)
(-0.0100585 -0.585866 0.00319105)
(-0.00404547 -0.695214 -0.020645)
(0.00682012 -0.718782 -0.00691234)
(0.00612841 -0.265367 0.0239391)
(0.00748713 -0.383939 -0.0455014)
(-0.00328284 -0.125182 -0.206531)
(0.00120566 -0.0911349 -0.235137)
(-0.00102184 -0.0829216 -0.264374)
(-0.00202607 -0.0832867 -0.26487)
(0.00322493 -0.0708252 -0.310768)
(-0.00592184 -0.0440939 -0.541652)
(0.171381 -0.0391883 -0.629961)
(0.0509144 -0.0674529 -0.489625)
(0.00165058 -0.117945 -0.253741)
(0.00578377 -0.245896 -0.10667)
(-0.00583285 -0.41039 -0.0505465)
(-0.00336519 -0.220153 0.00598682)
(-0.00143155 -0.255043 0.00434101)
(0.0150127 -0.547209 0.0120659)
(0.00413818 -0.843879 -0.0039775)
(-0.00481631 -0.671178 0.00122452)
(0.000395693 -0.565218 0.00733243)
(-0.00125707 -0.70476 -0.00853804)
(0.000512771 -0.308255 0.00694432)
(0.00605707 -0.377664 -0.0551139)
(-0.00992068 -0.10021 -0.229587)
(0.0003636 -0.0855694 -0.263856)
(-0.000236102 -0.0849942 -0.265207)
(-0.000356951 -0.0878109 -0.254435)
(-0.00102268 -0.0860939 -0.254673)
(-0.00111979 -0.0861058 -0.271455)
(0.000990333 -0.0801243 -0.252685)
(0.000114454 -0.132625 -0.274051)
(0.000736428 -0.161954 -0.215188)
(0.0034593 -0.247495 -0.103189)
(-0.00283296 -0.376505 -0.0471583)
(-0.00285304 -0.1973 0.0179225)
(-0.000801923 -0.333555 -0.00337494)
(0.0229813 -0.380013 0.0415068)
(-0.00434888 -0.598262 0.0360534)
(-0.00507995 -0.7419 -0.0130384)
(-0.00099918 -0.617505 0.000672316)
(-6.20316e-05 -0.741665 -0.0173613)
(-0.000103046 -0.417718 0.00131869)
(0.00540736 -0.354566 -0.0631838)
(-0.00773056 -0.110837 -0.208071)
(0.000210478 -0.0903949 -0.253852)
(-0.000468835 -0.0866062 -0.263786)
(0.00013131 -0.0884537 -0.259662)
(0.000460155 -0.0873276 -0.260079)
(0.000334148 -0.0797301 -0.282949)
(0.00182405 -0.0908217 -0.245864)
(0.000918017 -0.0861691 -0.260343)
(-0.00354701 -0.121607 -0.185296)
(0.000320757 -0.241796 -0.0967777)
(-0.00694445 -0.352566 -0.05268)
(-0.0067697 -0.202432 0.0158165)
(-0.0007454 -0.585742 -0.0347836)
(0.0165165 -0.369869 0.0284195)
(-0.00301105 -0.602465 0.0192571)
(-0.000236002 -0.696048 -0.00613153)
(-0.00132475 -0.605576 -0.00109004)
(-0.00241832 -0.63915 -0.00400075)
(-0.00542037 -0.384771 0.0119188)
(0.000299586 -0.300907 -0.0834775)
(-0.0051043 -0.105071 -0.214432)
(9.00236e-06 -0.0893892 -0.257364)
(-0.000271077 -0.0870071 -0.263108)
(-0.000170967 -0.0907157 -0.252869)
(-8.89538e-05 -0.0884525 -0.2622)
(0.000325625 -0.0824812 -0.278909)
(0.00029227 -0.0860751 -0.266519)
(-0.000738755 -0.0880666 -0.265655)
(-0.000837089 -0.123968 -0.189371)
(-0.00217781 -0.246893 -0.0920451)
(-0.00389692 -0.306721 -0.05414)
(-0.00664385 -0.204086 0.013179)
(0.00600168 -0.723771 -0.0262407)
(0.0064919 -0.513567 -0.00909717)
(0.00151151 -0.651538 0.00787976)
(0.00288059 -0.556257 0.00720003)
(-0.00169847 -0.51809 0.0087301)
(-0.00753719 -0.531339 0.0167499)
(-0.00656512 -0.428668 0.00874064)
(0.00163205 -0.230259 -0.106116)
(-0.00286755 -0.107496 -0.212959)
(-0.000255452 -0.0909352 -0.250502)
(-0.000180913 -0.0869095 -0.261629)
(-0.000356398 -0.0910154 -0.250191)
(3.60424e-05 -0.0895225 -0.252757)
(0.000458354 -0.0837259 -0.271328)
(0.0001231 -0.0859931 -0.265249)
(-0.000685387 -0.0856384 -0.266612)
(-0.00141267 -0.127546 -0.17859)
(-0.00949152 -0.231252 -0.0849006)
(-0.0054672 -0.268813 -0.041043)
(-0.00699515 -0.201167 0.0115999)
(0.00547269 -0.762748 -0.015015)
(-0.00919635 -0.706292 -0.0323362)
(0.0107638 -0.804542 -0.0115913)
(0.00256249 -0.532506 0.0149601)
(-0.00211066 -0.494357 0.0131677)
(-0.00520983 -0.591976 0.00490117)
(0.00258018 -0.591439 -0.000233321)
(0.00811572 -0.188973 -0.107937)
(0.000282728 -0.10077 -0.210226)
(-1.20829e-05 -0.0903212 -0.235657)
(-0.000202021 -0.0864936 -0.245983)
(-0.000350072 -0.0923304 -0.229723)
(8.97666e-05 -0.0920681 -0.23163)
(0.000316934 -0.0842313 -0.25647)
(-0.000149917 -0.0841951 -0.259977)
(-0.000544229 -0.0865203 -0.252807)
(-0.00230305 -0.119736 -0.171507)
(-0.00745121 -0.188443 -0.0642365)
(-0.00310223 -0.189187 -0.0156371)
(-0.00653528 -0.211112 0.0111505)
(0.00731903 -0.74773 -0.00564666)
(-0.0126001 -0.738285 -0.0136956)
(0.012194 -0.924886 -0.0254723)
(0.00126994 -0.636802 -0.000747284)
(0.000587312 -0.496742 0.010865)
(0.00444662 -0.758341 -0.0116161)
(0.00481129 -0.617231 -0.00465011)
(0.00739436 -0.147431 -0.0635841)
(-0.00063204 -0.0706225 -0.158688)
(0.0011466 -0.0661674 -0.160928)
(-0.000227974 -0.0627897 -0.163004)
(-0.00122605 -0.0679468 -0.145942)
(0.000164591 -0.0668543 -0.148565)
(-0.000883724 -0.0607501 -0.171412)
(-0.0014251 -0.0590412 -0.179405)
(-0.000589595 -0.060138 -0.17597)
(-0.000706075 -0.0759477 -0.125763)
(0.004099 -0.106987 -0.0300234)
(-0.00113362 -0.0855391 0.0172098)
(-0.00547436 -0.239309 0.00673514)
(0.00741989 -0.682711 0.0019699)
(-0.0064181 -0.593075 0.0085163)
(0.00500272 -0.951577 -0.0158387)
(-0.00356019 -0.789732 -0.00685586)
(0.00250889 -0.512013 0.00581737)
(0.00923845 -0.803929 -0.0140002)
(0.00376285 -0.598434 -0.0111868)
(0.00241828 -0.0740104 0.00815082)
(0.000617761 -0.0303264 0.00360863)
(0.000585719 -0.0299013 0.00406366)
(0.000279242 -0.0188324 0.00396098)
(0.000190674 -0.0298102 0.00415804)
(-0.000397667 -0.0306732 0.00403701)
(-0.000160893 -0.0206601 0.00346689)
(0.000237163 -0.0314322 0.00321246)
(0.000290425 -0.030812 0.00331217)
(0.000341592 -0.0340352 0.00474759)
(-0.000925909 -0.044441 0.00797244)
(-0.00213365 -0.0613176 0.0075142)
(-0.00121369 -0.241248 0.00659826)
(0.00470687 -0.732323 0.00452946)
(-0.000200114 -0.537381 0.00873471)
(0.000870239 -0.918834 -0.00571224)
(-0.00734882 -0.836139 -0.00203482)
(0.001969 -0.604526 -0.00894292)
(0.0102537 -0.803847 -0.0100982)
(0.00106759 -0.538139 -0.0127327)
(-0.00135388 -0.0860518 0.000499217)
(-0.000298686 -0.0401483 -0.00057763)
(8.66405e-05 -0.026529 -0.000161721)
(9.82415e-05 -0.0224466 5.61627e-05)
(2.18077e-06 -0.0247574 0.000548841)
(4.37852e-06 -0.025506 0.00057158)
(-6.06901e-06 -0.0246869 0.000104281)
(2.21796e-05 -0.0262167 0.000597776)
(6.31243e-05 -0.0253533 0.000685359)
(1.45468e-05 -0.0261188 0.000780327)
(-0.000278745 -0.0307155 0.000938903)
(-0.000528444 -0.0532545 0.000350223)
(0.000244171 -0.246241 0.00560708)
(-0.000238951 -0.774724 -0.000342176)
(0.00398085 -0.610769 -0.000151859)
(0.000972125 -0.784048 -0.00597216)
(-0.00596224 -0.840647 -0.0072447)
(0.00301273 -0.668347 -0.0177426)
(0.00586073 -0.75427 -0.00580918)
(-0.00142272 -0.424668 -0.0047586)
(-0.00488632 -0.0777155 -0.000101949)
(-0.000703271 -0.0454235 -0.000336273)
(-0.00028488 -0.0385439 -0.00216899)
(-6.54902e-06 -0.021122 -0.000133763)
(-0.000225169 -0.0272431 -0.000634232)
(0.000249773 -0.0279908 -0.000601314)
(-1.09508e-05 -0.0221421 -6.66891e-05)
(-0.000232393 -0.0292603 -0.000724071)
(3.24514e-05 -0.0272091 -0.000483759)
(-4.04593e-05 -0.0279243 -0.000457906)
(0.000323333 -0.0354307 -0.000931509)
(-0.000180357 -0.0650763 -0.00105377)
(-3.19278e-10 -0.267996 0.00220246)
(-0.00298386 -0.79179 -0.00254813)
(0.00565079 -0.697703 -0.0128636)
(0.00143425 -0.652821 -0.00209181)
(-0.0015733 -0.821443 -0.0123149)
(0.00233058 -0.644341 -0.0053574)
(-0.00243436 -0.655794 -0.00177483)
(-0.0029231 -0.379542 0.002357)
(-0.0045076 -0.0936851 -0.000515173)
(-0.00066831 -0.0482112 -0.00021296)
(-0.000631417 -0.0520864 -0.00233316)
(1.32764e-05 -0.0245732 -0.000613893)
(1.61645e-05 -0.0294478 -0.000771259)
(7.43853e-05 -0.029618 -0.000609163)
(4.59078e-05 -0.0250706 -0.00048926)
(8.09889e-06 -0.0316922 -0.000564207)
(1.95732e-05 -0.0278825 -0.000351769)
(0.000199947 -0.0282686 -0.000258179)
(0.00045796 -0.038127 -0.000332409)
(-0.00057827 -0.0559128 0.000275654)
(3.75772e-05 -0.295271 0.00272644)
(-0.000651193 -0.802471 -0.00187703)
(0.0050924 -0.716196 -0.0109981)
(0.000120719 -0.589089 0.0168965)
(0.00112543 -0.765858 -0.0103969)
(-0.000471163 -0.490133 0.0146554)
(-0.0075635 -0.637929 -7.63149e-05)
(-0.00189633 -0.364292 0.00798274)
(-0.00101024 -0.0822477 0.000244441)
(-0.000156387 -0.0487223 0.000159611)
(-0.000579484 -0.0709165 -0.00139759)
(-0.000395143 -0.0318524 -0.00108738)
(5.56099e-05 -0.0376129 -0.00131006)
(0.000356213 -0.0361132 -0.000971667)
(0.000381444 -0.0300247 -0.000264113)
(-0.000213572 -0.0366934 -0.000162634)
(-0.000330241 -0.0320048 -0.00055263)
(0.000267592 -0.0317095 -0.000520543)
(0.000159426 -0.0383885 -1.50511e-05)
(-0.000437545 -0.0571685 8.98086e-05)
(0.000473604 -0.304042 0.00349408)
(0.00313185 -0.805716 -0.00278752)
(-0.00099018 -0.634005 0.00235851)
(0.000898081 -0.602307 0.0108713)
(0.00135357 -0.717978 -0.0114226)
(-0.000305543 -0.457426 0.0147671)
(-0.00283194 -0.60861 0.000962644)
(-0.00233806 -0.368103 0.00611011)
(0.000172987 -0.0790228 0.000667837)
(0.000251317 -0.044684 0.000571231)
(-6.51517e-06 -0.0659185 -0.00021797)
(-0.000175565 -0.0430953 -0.000726489)
(0.000233989 -0.0477658 -0.000513326)
(-8.087e-05 -0.042954 -0.000187972)
(8.89542e-05 -0.0285127 6.38812e-05)
(5.89831e-05 -0.0328306 0.000209808)
(-0.000181357 -0.0357422 -7.17671e-05)
(-0.000269535 -0.0357033 -0.00019181)
(-9.21722e-05 -0.0374006 4.51701e-05)
(0.000498582 -0.0553052 0.000252371)
(0.000712913 -0.290572 0.00458005)
(0.00333475 -0.804763 -0.00336168)
(-0.00535389 -0.557592 0.0122737)
(0.000735813 -0.704885 -0.00260108)
(-0.000987269 -0.68873 -0.011812)
(-0.00303542 -0.54007 -0.000105002)
(0.000132866 -0.598641 0.00176844)
(-0.00130356 -0.380827 0.00241983)
(0.000865674 -0.0738385 0.000765311)
(7.4058e-05 -0.0406301 0.000238936)
(0.00073542 -0.065638 0.000352477)
(0.000362079 -0.0424842 -6.78763e-05)
(0.000234203 -0.043243 0.000216011)
(-0.000617719 -0.0376254 0.000320209)
(-0.00040233 -0.0285614 2.59873e-05)
(0.000345534 -0.0328208 -2.75967e-06)
(0.000186554 -0.0321652 5.25501e-05)
(-0.000125044 -0.034319 3.10055e-06)
(-0.000103465 -0.0382815 4.29002e-05)
(0.000319556 -0.0545076 0.000204371)
(0.0014429 -0.27614 0.00517892)
(-0.00143808 -0.803721 -0.00291022)
(-0.0043046 -0.565863 0.00461982)
(0.000552817 -0.736635 -0.0124717)
(-0.000277095 -0.635003 -0.009406)
(-0.00564507 -0.593973 -0.00967712)
(-0.000478009 -0.634568 -0.00437656)
(-0.000572044 -0.385446 -2.89207e-05)
(0.00182249 -0.0734773 0.000462099)
(0.000338247 -0.0431909 -0.000293972)
(0.000150166 -0.0619855 0.000775569)
(-2.93576e-05 -0.0412141 0.000150902)
(0.000242462 -0.0422574 0.000127654)
(-0.000239162 -0.0371577 1.05802e-05)
(1.38344e-05 -0.0298142 -2.63107e-05)
(0.00021236 -0.0338734 6.81066e-06)
(0.000110787 -0.0344251 -2.9816e-05)
(0.00013447 -0.0352804 8.26365e-06)
(-3.35549e-05 -0.0365668 2.15339e-05)
(-0.000365989 -0.0539954 0.00040433)
(0.00230049 -0.271902 0.00330225)
(-0.00237407 -0.805009 -0.00118825)
(-0.00112476 -0.611644 -0.00702965)
(-0.00202426 -0.687084 -0.00474688)
(0.00178226 -0.509862 -0.00666092)
(-0.00124933 -0.546203 -0.00606335)
(-0.00226019 -0.592676 -0.00923992)
(-0.00101569 -0.379556 -0.0028697)
(0.00157977 -0.0778528 -0.00133508)
(0.000165998 -0.0459613 -0.00173036)
(0.000325911 -0.0564011 0.00180605)
(0.000248558 -0.0422702 7.05455e-05)
(0.000369213 -0.0414616 0.00108126)
(-0.000186712 -0.0372533 0.000834491)
(7.80944e-05 -0.0302583 -9.67375e-05)
(0.000259492 -0.0329449 0.000834957)
(0.000111702 -0.032423 0.000845813)
(-0.000101912 -0.0332274 0.000810535)
(-2.52828e-05 -0.0367475 0.000672325)
(-0.000616379 -0.0513864 0.00173629)
(0.00261996 -0.271833 9.26337e-05)
(-0.00105082 -0.808351 -0.00129679)
(-0.000727941 -0.536377 -0.00788073)
(0.00200513 -0.558433 0.000612251)
(-0.000719213 -0.443964 -0.0092297)
(0.00190334 -0.452204 -0.00487603)
(-0.000661024 -0.493224 -0.00844924)
(-0.000483423 -0.353595 -0.00476271)
(-0.00180775 -0.104437 -0.00552289)
(-0.000322397 -0.0728411 -0.00547674)
(0.000274693 -0.0504853 -8.57399e-05)
(-3.42162e-06 -0.0428158 -0.00122511)
(0.000162002 -0.033505 0.000969958)
(0.000206509 -0.0310896 0.000483471)
(-5.37857e-05 -0.0320138 -0.000147024)
(-0.000282605 -0.0275529 0.000638358)
(-5.71951e-05 -0.0275115 0.000549851)
(0.000146187 -0.0285529 0.000461739)
(0.000160597 -0.0322989 0.000465703)
(2.47032e-05 -0.042616 0.000808371)
(0.00200219 -0.283705 -0.00268875)
(-0.00149512 -0.810759 -0.00132297)
(-0.00348855 -0.428929 -0.00439206)
(0.00480785 -0.48266 -0.00706977)
(-0.00252956 -0.427331 -0.00509345)
(-0.000294685 -0.43652 -0.00611444)
(0.000923128 -0.47263 -0.00548633)
(0.0012194 -0.363938 -0.00277128)
(-0.00291179 -0.189376 -0.00342165)
(-0.000537024 -0.150267 -0.00332956)
(-0.000789325 -0.0770757 -0.00156166)
(-0.000680813 -0.0626532 -0.00117579)
(-0.00057185 -0.0355478 -4.6673e-06)
(-2.61645e-05 -0.0374311 -0.000333126)
(1.24253e-05 -0.0313837 -9.21368e-05)
(-6.43948e-05 -0.0296162 -9.95917e-05)
(1.70915e-05 -0.0307447 -0.000180363)
(-7.17492e-05 -0.032964 -0.000242941)
(0.000172917 -0.0359005 -5.89041e-05)
(0.00339881 -0.0538699 -0.000553343)
(0.000745194 -0.291873 -0.00190398)
(-0.000213299 -0.815444 -0.000381903)
(-0.00135303 -0.40111 -0.00308945)
(0.000928397 -0.476932 -0.0051568)
(-0.215122 -0.623902 -0.427951)
(-0.0018971 -0.556664 -0.448206)
(0.0334463 -0.589218 -0.441932)
(0.124479 -0.551633 -0.335879)
(0.171894 -0.384759 -0.211749)
(0.12213 -0.203337 -0.337127)
(0.00418563 -0.0651167 -0.373476)
(0.0962879 -0.117318 -0.200919)
(0.128371 -0.123557 -0.193311)
(0.00102892 -0.0888638 -0.415578)
(-0.0346344 -0.0252177 -0.622553)
(-0.0214389 -0.0597497 -0.46178)
(-0.0901016 -0.162457 -0.130576)
(-0.0688723 -0.131655 -0.059132)
(-0.13708 -0.099963 -0.0853331)
(-0.0971531 -0.360732 -0.146722)
(-0.088818 -0.374582 -0.257608)
(-0.14557 -0.411058 -0.313362)
(-0.130422 -0.757056 -0.445819)
(0.245463 -0.915342 -0.561199)
(-0.0234171 -0.712695 -0.0672277)
(-0.00900557 -0.732046 -0.0993728)
(0.0331523 -0.738469 -0.0613125)
(0.0363578 -0.506394 -0.0155327)
(0.0127154 -0.361095 -0.0625887)
(-0.0125838 -0.0313519 -0.903081)
(0.00318292 -0.0294564 -0.782812)