/*--------------------------------*- C++ -*----------------------------------*\
| =========                 |                                                 |
| \\      /  F ield         | OpenFOAM: The Open Source CFD Toolbox           |
|  \\    /   O peration     | Version:  2.3.0                                 |
|   \\  /    A nd           | Web:      www.OpenFOAM.org                      |
|    \\/     M anipulation  |                                                 |
\*---------------------------------------------------------------------------*/
FoamFile
{
    version     2.0;
    format      ascii;
    class       volVectorField;
    location    "4.800005";
    object      U.water;
}
// * * * * * * * * * * * * * * * * * * * * * * * * * * * * * * * * * * * * * //

dimensions      [0 1 -1 0 0 0 0];

internalField   nonuniform List<vector> 
10000
(
(-0.185046 -0.612715 -0.460875)
(-0.00132719 -0.542557 -0.477664)
(0.026321 -0.579876 -0.479229)
(0.107929 -0.538394 -0.36562)
(0.146946 -0.385282 -0.249606)
(0.114128 -0.20584 -0.361933)
(0.00588223 -0.0677747 -0.38141)
(0.0911611 -0.118014 -0.204486)
(0.158915 -0.124161 -0.210172)
(0.015158 -0.0840974 -0.430819)
(-0.0293542 -0.0257816 -0.627497)
(-0.0211409 -0.0616772 -0.474464)
(-0.0783888 -0.17451 -0.152859)
(-0.0602781 -0.13378 -0.0785994)
(-0.121173 -0.117118 -0.110338)
(-0.0850417 -0.369931 -0.188886)
(-0.0806368 -0.373145 -0.289872)
(-0.133982 -0.401355 -0.333172)
(-0.113979 -0.748816 -0.476266)
(0.209635 -0.920928 -0.602759)
(-0.0196093 -0.645024 -0.0623294)
(-0.00936463 -0.674537 -0.103502)
(0.0316274 -0.694202 -0.0662726)
(0.0216552 -0.364247 0.0063671)
(0.00614605 -0.362477 -0.0654743)
(-0.013444 -0.0351257 -0.89757)
(0.00321897 -0.0331827 -0.781808)
(0.00330346 -0.0596973 -0.423525)
(-0.00144262 -0.0541413 -0.483752)
(-0.0018462 -0.0734589 -0.750842)
(-0.00487293 -0.0157121 -1.50729)
(0.00367067 -0.0158089 -2.18656)
(-0.0561945 -0.181434 -0.323476)
(-0.00975653 -0.123087 -0.0524832)
(0.000919987 -0.267182 -0.100395)
(-0.00668247 -0.401286 -0.054867)
(0.00942001 -0.297264 -0.00633531)
(-0.00840205 -0.129286 0.0154713)
(0.007202 -0.667775 -0.0367411)
(-0.0112861 -0.968144 -0.10492)
(-0.00976684 -0.517615 0.00338608)
(-0.00437564 -0.658814 -0.014657)
(0.0076363 -0.70013 -0.00606436)
(0.00338365 -0.147046 0.0308883)
(0.00647423 -0.384676 -0.0469837)
(-0.00290282 -0.129073 -0.209722)
(0.00134107 -0.0971566 -0.237551)
(-0.000999861 -0.0882354 -0.265909)
(-0.00205782 -0.0889916 -0.26631)
(0.00330277 -0.0755822 -0.311588)
(-0.00648796 -0.0472901 -0.537798)
(0.157711 -0.0402691 -0.629728)
(0.034092 -0.0611216 -0.473273)
(0.000945153 -0.126558 -0.231455)
(0.00657852 -0.26127 -0.107309)
(-0.00528769 -0.414148 -0.049949)
(-0.00162314 -0.154709 0.0126912)
(-0.000698477 -0.218761 -0.00226159)
(0.0124696 -0.436895 0.0262419)
(0.00300825 -0.760776 0.0112508)
(-0.00493939 -0.650561 -0.00592218)
(0.000418878 -0.489314 0.00991791)
(-0.00138609 -0.684037 -0.00928831)
(0.000181406 -0.25063 -0.00209444)
(0.00653842 -0.381788 -0.0547128)
(-0.00997234 -0.107663 -0.229214)
(0.000368245 -0.0916995 -0.263314)
(-0.000260098 -0.0909933 -0.26545)
(-0.000343072 -0.0939204 -0.254752)
(-0.00103697 -0.092009 -0.255524)
(-0.0011055 -0.091491 -0.273085)
(0.00127543 -0.0858333 -0.255072)
(0.000164706 -0.137709 -0.275368)
(0.000523899 -0.165282 -0.215221)
(0.00281704 -0.261923 -0.103052)
(-0.00307359 -0.37926 -0.0450038)
(-0.00168436 -0.129941 0.0186949)
(-0.000505883 -0.314321 -0.0173808)
(0.017181 -0.26164 0.048156)
(-0.00515028 -0.501079 0.0430626)
(-0.00529967 -0.717942 -0.0154183)
(-0.00088264 -0.587045 -0.000739825)
(-0.000409387 -0.717468 -0.0157764)
(3.29796e-05 -0.388458 -0.0021086)
(0.0059223 -0.361139 -0.0609662)
(-0.00810429 -0.118386 -0.208658)
(0.000241117 -0.096677 -0.253686)
(-0.00049208 -0.0925852 -0.263877)
(0.00012367 -0.0945594 -0.259728)
(0.000482676 -0.0934228 -0.260208)
(0.000333146 -0.0853493 -0.282729)
(0.00190952 -0.0970991 -0.246215)
(0.000887903 -0.0925224 -0.258673)
(-0.00355206 -0.130488 -0.183888)
(-0.000143343 -0.256026 -0.0966045)
(-0.00700293 -0.35468 -0.0500172)
(-0.0046558 -0.138927 0.0155737)
(-0.000864464 -0.582756 -0.0494677)
(0.0135594 -0.276962 0.0215065)
(-0.00350173 -0.544095 0.0147924)
(-0.000223269 -0.639071 6.7097e-05)
(-0.000996387 -0.527483 0.00298295)
(-0.00210909 -0.570193 0.00419597)
(-0.00609109 -0.319783 0.0118095)
(0.00144236 -0.313354 -0.0786448)
(-0.00533507 -0.112757 -0.214384)
(7.0299e-05 -0.0956169 -0.257145)
(-0.000276333 -0.0930235 -0.263134)
(-0.000169252 -0.0969602 -0.252963)
(-8.57274e-05 -0.0945064 -0.262258)
(0.00032773 -0.0881731 -0.279042)
(0.000298102 -0.0920564 -0.266339)
(-0.000741755 -0.0941029 -0.265661)
(-0.000887052 -0.132237 -0.18968)
(-0.00300351 -0.25601 -0.0910806)
(-0.00377232 -0.308088 -0.0506512)
(-0.00439767 -0.142233 0.0133862)
(0.00596625 -0.720027 -0.0324705)
(0.00639452 -0.486008 -0.0246815)
(0.00150646 -0.611348 0.00183714)
(0.00297131 -0.496439 0.0126072)
(-0.00153177 -0.453123 0.0114062)
(-0.00693619 -0.46225 0.0185654)
(-0.00751024 -0.394268 -9.20572e-05)
(0.00321767 -0.246307 -0.100672)
(-0.00293935 -0.115125 -0.212789)
(-0.000223054 -0.0974104 -0.250333)
(-0.000180806 -0.0930709 -0.261543)
(-0.00035836 -0.0974711 -0.250167)
(3.39699e-05 -0.0958706 -0.252777)
(0.000453905 -0.089665 -0.271329)
(0.000120836 -0.0920737 -0.265162)
(-0.000706649 -0.0917108 -0.266543)
(-0.00149793 -0.13665 -0.178586)
(-0.00964911 -0.235075 -0.0820668)
(-0.00537468 -0.268265 -0.0358118)
(-0.0047248 -0.143088 0.0111928)
(0.00605978 -0.748246 -0.0137691)
(-0.00796687 -0.675558 -0.0406877)
(0.00989634 -0.792541 -0.0193677)
(0.00288694 -0.476989 0.0127173)
(-0.00236964 -0.434998 0.0132134)
(-0.00514974 -0.571086 -0.00476203)
(0.00289295 -0.587047 -0.00904563)
(0.00882183 -0.195523 -0.103566)
(0.000301701 -0.107689 -0.208572)
(-2.56973e-07 -0.0966044 -0.234201)
(-0.000199255 -0.0925546 -0.244565)
(-0.000370946 -0.0986629 -0.22825)
(9.29997e-05 -0.0983584 -0.230145)
(0.000297553 -0.0900546 -0.25508)
(-0.0001776 -0.0899086 -0.258449)
(-0.000577088 -0.0923481 -0.251362)
(-0.00234237 -0.126743 -0.168871)
(-0.00702731 -0.189997 -0.0591566)
(-0.00307877 -0.184797 -0.0059273)
(-0.00519252 -0.164164 0.00910689)
(0.00672322 -0.648841 0.00129835)
(-0.0116556 -0.688984 -0.00808993)
(0.012136 -0.906357 -0.0297483)
(0.0012916 -0.623062 -0.0114351)
(0.000376604 -0.441407 0.0101185)
(0.00432408 -0.744677 -0.0204708)
(0.00522966 -0.616484 -0.00502395)
(0.00692596 -0.149457 -0.0576882)
(-0.000453543 -0.0772773 -0.154832)
(0.00115636 -0.0720748 -0.157354)
(-0.000209775 -0.0687049 -0.159345)
(-0.00120975 -0.0734168 -0.142418)
(0.000156896 -0.0720737 -0.145093)
(-0.000886038 -0.0659127 -0.167913)
(-0.0014133 -0.0638941 -0.176108)
(-0.000584554 -0.0648071 -0.172547)
(-0.000601021 -0.0798367 -0.121233)
(0.0042037 -0.108673 -0.0239714)
(-0.000637407 -0.0537832 0.0218645)
(-0.00523892 -0.203166 0.00539701)
(0.00629194 -0.556686 0.000853352)
(-0.00589358 -0.493342 0.015068)
(0.00570601 -0.923865 -0.0138826)
(-0.00313793 -0.775299 -0.0152062)
(0.00240662 -0.462281 0.00295751)
(0.00901778 -0.786718 -0.0157966)
(0.00414146 -0.598355 -0.00794499)
(0.00209901 -0.0618063 0.0102682)
(0.000559201 -0.0277293 0.00478659)
(0.000593359 -0.0265456 0.00561327)
(0.000282092 -0.0165554 0.00561778)
(0.000181558 -0.0266598 0.00584793)
(-0.000392735 -0.0274195 0.00566482)
(-0.00017107 -0.01815 0.0052157)
(0.000221748 -0.0275239 0.00471727)
(0.000309375 -0.0270114 0.0048953)
(0.000411195 -0.0308846 0.00667911)
(-0.000835474 -0.0412413 0.0105119)
(-0.00187486 -0.0544303 0.00733759)
(-0.00145301 -0.204755 0.00652228)
(0.00467193 -0.708016 -0.00434612)
(-0.000112609 -0.467247 0.00718395)
(0.000739816 -0.813942 0.00158473)
(-0.00699241 -0.821312 -0.00380301)
(0.00219607 -0.58471 -0.013372)
(0.0103205 -0.782751 -0.00766968)
(0.00158039 -0.527138 -0.00580643)
(-0.00136467 -0.0924144 -0.000283197)
(-0.000315742 -0.0436788 -0.00121163)
(9.79553e-05 -0.0288199 -0.000553073)
(0.00011282 -0.0243794 -0.000103008)
(1.95843e-05 -0.0259326 0.000596409)
(-9.74389e-06 -0.0266646 0.000623489)
(-7.50011e-06 -0.026809 -2.3538e-05)
(3.9778e-05 -0.0273451 0.000614152)
(7.34717e-05 -0.0264759 0.000754925)
(2.34851e-05 -0.027265 0.00094513)
(-0.000317843 -0.0318267 0.00119403)
(-0.000530848 -0.0577455 -9.36294e-05)
(0.000150749 -0.210464 0.00466231)
(0.000343577 -0.762947 -0.00394791)
(0.00410668 -0.591653 -0.00752107)
(0.000936734 -0.695258 0.00174918)
(-0.0056901 -0.825743 -0.00625851)
(0.00325743 -0.637154 -0.0179071)
(0.00591651 -0.696837 -0.000626499)
(-0.00120175 -0.38142 0.000917735)
(-0.00532992 -0.083393 -0.000509997)
(-0.000767683 -0.0494372 -0.00045779)
(-0.000303953 -0.0408801 -0.00304676)
(1.88817e-06 -0.0229617 -0.00021491)
(-0.000232202 -0.0288587 -0.000729233)
(0.000258577 -0.02965 -0.000678581)
(-1.22722e-05 -0.0240688 -0.000103937)
(-0.000239354 -0.0309926 -0.000855613)
(3.54841e-05 -0.0288173 -0.000509436)
(-4.52391e-05 -0.0295772 -0.000466842)
(0.000333336 -0.0375447 -0.00114003)
(-0.00020203 -0.0690803 -0.00111778)
(-4.89587e-05 -0.238971 1.99381e-05)
(-0.00120355 -0.784261 -0.003645)
(0.00589343 -0.679242 -0.016726)
(0.00151672 -0.58454 0.00467013)
(-0.00143942 -0.805504 -0.0090337)
(0.00250601 -0.555036 0.00412605)
(-0.00193822 -0.591732 0.00198337)
(-0.00291127 -0.336653 0.00479807)
(-0.00514733 -0.10336 -4.46982e-05)
(-0.000745843 -0.0513617 -7.93072e-05)
(-0.000679333 -0.0553174 -0.00350776)
(1.94361e-05 -0.0267308 -0.000988126)
(1.91911e-05 -0.0312138 -0.00113668)
(7.90031e-05 -0.0313912 -0.000896956)
(5.07358e-05 -0.0272709 -0.000780668)
(1.02407e-05 -0.033589 -0.000828454)
(2.15579e-05 -0.0295449 -0.000514992)
(0.000213204 -0.0299558 -0.000377661)
(0.000488649 -0.0403965 -0.000459185)
(-0.000542303 -0.0541335 0.000618562)
(3.03933e-06 -0.261188 0.00142775)
(0.000243128 -0.793538 -0.0021639)
(0.0051152 -0.689176 -0.00860948)
(0.000689808 -0.520075 0.0177239)
(0.00117835 -0.74822 -0.00601109)
(-0.000202279 -0.390011 0.0206296)
(-0.00715876 -0.579038 0.0014344)
(-0.00178661 -0.31639 0.00881403)
(-0.000969681 -0.0709407 0.00166498)
(-0.000220045 -0.0473687 0.000369918)
(-0.000629953 -0.0752207 -0.00181086)
(-0.000431556 -0.0346768 -0.00176014)
(6.31651e-05 -0.0398849 -0.00194109)
(0.00037739 -0.0382841 -0.00143479)
(0.000409955 -0.0326417 -0.000453911)
(-0.000221937 -0.0388565 -0.000287923)
(-0.000346663 -0.0339135 -0.000809798)
(0.000281858 -0.0335972 -0.000764712)
(0.00017364 -0.0404185 -6.65216e-05)
(-0.000364253 -0.0557907 0.000135056)
(0.000423503 -0.26391 0.00429657)
(0.0034772 -0.795975 -0.00288544)
(-0.000568982 -0.554482 0.00821845)
(0.00077198 -0.550382 0.00756095)
(0.00137212 -0.696973 -0.0081822)
(-0.000205155 -0.379816 0.0119104)
(-0.00277407 -0.552241 0.00204708)
(-0.0022189 -0.321863 0.00567772)
(5.83183e-05 -0.0688008 0.00104725)
(0.000246632 -0.043891 0.000807895)
(-5.05284e-05 -0.0610561 0.000270014)
(-0.000209676 -0.0468748 -0.00111231)
(0.000247662 -0.0506197 -0.000748486)
(-8.40956e-05 -0.0454961 -0.000291144)
(0.000103472 -0.0294826 9.73733e-05)
(5.14328e-05 -0.0332833 0.000331646)
(-0.000187499 -0.0378322 -0.000150423)
(-0.000285343 -0.0378243 -0.000277178)
(-8.24648e-05 -0.0381476 2.89942e-05)
(0.000604036 -0.0535284 0.000406246)
(0.000593004 -0.244226 0.00627847)
(0.00371668 -0.795006 -0.00357887)
(-0.00464096 -0.488638 0.0134286)
(0.000918908 -0.685383 -0.00694305)
(-0.00115074 -0.664165 -0.00813)
(-0.00301447 -0.513068 -0.00676397)
(0.000289071 -0.546082 0.00187752)
(-0.00140358 -0.333582 0.00227828)
(0.000617789 -0.0655016 0.00060683)
(7.26402e-05 -0.0407769 0.000247642)
(0.000672927 -0.06086 0.000492837)
(0.000354688 -0.0423601 2.81374e-05)
(0.000234255 -0.0428894 0.000372301)
(-0.000621706 -0.037765 0.000458836)
(-0.000412666 -0.0296438 4.8184e-05)
(0.000354408 -0.0337733 3.33165e-05)
(0.000175533 -0.0327166 8.50728e-05)
(-0.000134851 -0.0363134 -5.4244e-05)
(-9.11002e-05 -0.0388457 0.00010704)
(0.00045144 -0.0528483 0.000303572)
(0.00126213 -0.224545 0.00649637)
(0.000189229 -0.794795 -0.00338671)
(-0.004015 -0.512828 0.00333127)
(0.000504605 -0.709783 -0.0120635)
(-0.000210884 -0.605858 -0.00162907)
(-0.00560727 -0.562449 -0.00962737)
(-0.000427279 -0.604338 -0.00209218)
(-0.000746265 -0.330995 0.00123453)
(0.0017616 -0.0794844 -0.000244099)
(0.000379842 -0.0470073 -0.000599317)
(0.000161602 -0.0579344 0.00101941)
(-3.71469e-05 -0.04138 0.000138634)
(0.000238721 -0.0420365 0.000190668)
(-0.000242321 -0.0373798 2.6138e-05)
(1.47335e-05 -0.032401 -5.54768e-05)
(0.00022255 -0.0357759 -3.79448e-05)
(0.000111755 -0.0363682 -2.28749e-05)
(0.00014299 -0.0360874 8.28366e-06)
(-1.67388e-05 -0.0369021 9.57707e-05)
(-0.000237837 -0.0522332 0.000599101)
(0.00195342 -0.211985 0.00444463)
(-0.000986567 -0.798581 -0.00173867)
(-0.00104081 -0.581943 -0.00434726)
(-0.00304998 -0.609854 0.00335564)
(0.00241979 -0.430818 0.0043663)
(-0.00177319 -0.46319 0.00247653)
(-0.00215988 -0.511914 -0.000638985)
(-0.00134371 -0.307818 0.00231255)
(0.00142977 -0.0860688 -0.00277388)
(0.000196479 -0.0501774 -0.0029892)
(0.000381555 -0.0538103 0.00211446)
(0.000270047 -0.0459718 -4.12901e-05)
(0.000385424 -0.041066 0.00136552)
(-0.000213595 -0.0372884 0.00103836)
(7.58091e-05 -0.0328964 -0.000159647)
(0.00027565 -0.0332755 0.000980893)
(0.000124003 -0.0327883 0.000996494)
(-9.67781e-05 -0.0335501 0.00107337)
(-7.70345e-06 -0.0368752 0.000829476)
(-0.00055699 -0.0496297 0.00218034)
(0.00213677 -0.197846 0.000500241)
(0.00104096 -0.803009 -0.00173259)
(4.04916e-05 -0.455293 0.00313492)
(0.000725746 -0.461051 0.0125975)
(0.0017269 -0.292497 0.00355082)
(0.00206596 -0.328646 0.00783742)
(-0.00117325 -0.354635 0.00557679)
(-0.0018588 -0.217984 0.00351033)
(-0.00211052 -0.117202 -0.0108716)
(-0.000328115 -0.0806194 -0.00991176)
(0.000339841 -0.0550572 -0.00110934)
(1.94473e-05 -0.0466674 -0.00202822)
(0.000221229 -0.0341469 0.00121987)
(0.000179116 -0.0319397 0.000501447)
(-5.83623e-05 -0.0347832 -0.000230449)
(-0.00026869 -0.0285126 0.000818938)
(-6.49062e-05 -0.0284836 0.000685103)
(0.000143961 -0.0295281 0.000532055)
(0.000163903 -0.0330106 0.000523237)
(3.23329e-05 -0.0426398 0.000734571)
(0.00212449 -0.215816 -0.00156761)
(0.000199383 -0.805562 -0.00168682)
(-0.0023913 -0.263154 0.0103477)
(0.00287186 -0.308062 0.00597629)
(-0.000324291 -0.155145 0.00153578)
(2.43218e-05 -0.164497 0.00239359)
(0.000329848 -0.174365 0.00369411)
(4.94847e-05 -0.128403 0.00129726)
(-0.00249101 -0.23287 -0.0086837)
(-0.000602283 -0.175351 -0.00746197)
(-0.000882625 -0.0842476 -0.0027015)
(-0.000737637 -0.0683226 -0.00197979)
(-0.000617173 -0.0386424 -6.84174e-05)
(-2.13925e-05 -0.0406429 -0.000529181)
(1.70695e-05 -0.0321321 4.9694e-05)
(-7.27969e-05 -0.0321883 -0.000154938)
(1.85825e-05 -0.0334226 -0.000273572)
(-7.1742e-05 -0.0358319 -0.000374349)
(0.000164442 -0.036268 5.30072e-05)
(0.00347305 -0.0582969 -0.000991797)
(0.000980912 -0.176771 -0.000452522)
(-4.46114e-05 -0.806899 -0.000531415)
(-0.000963461 -0.146734 0.00290239)
(0.000484573 -0.1943 0.000406166)
(-0.196031 -0.619475 -0.4188)
(-0.00158342 -0.550568 -0.438536)
(0.0293078 -0.585995 -0.431849)
(0.114951 -0.547185 -0.332028)
(0.158314 -0.385821 -0.218512)
(0.118804 -0.205139 -0.343829)
(0.00487511 -0.0659116 -0.375388)
(0.0948287 -0.118252 -0.202854)
(0.133325 -0.124537 -0.197084)
(0.00580703 -0.0805558 -0.434561)
(-0.0298704 -0.0257415 -0.623925)
(-0.0209531 -0.0617052 -0.468965)
(-0.0854872 -0.170577 -0.133964)
(-0.0642563 -0.135751 -0.0643733)
(-0.128194 -0.120362 -0.0935629)
(-0.0891562 -0.366709 -0.161442)
(-0.083738 -0.374397 -0.262893)
(-0.137797 -0.406264 -0.311597)
(-0.11957 -0.753861 -0.434908)
(0.221644 -0.920053 -0.544284)
(-0.0211385 -0.678682 -0.0628898)
(-0.00935319 -0.706252 -0.101032)
(0.0323726 -0.71694 -0.0628699)
(0.0291465 -0.449383 -0.00892471)
(0.00931803 -0.362714 -0.0635487)
(-0.0128665 -0.0325321 -0.900826)
(0.00318999 -0.0305497 -0.781352)
(0.0033459 -0.0554479 -0.424777)
(-0.00152848 -0.0500649 -0.485221)
(-0.00181053 -0.0739677 -0.75113)
(-0.0047234 -0.0146485 -1.5067)
(0.00332538 -0.0149273 -2.18545)
(-0.0529057 -0.172117 -0.323212)
(-0.0140488 -0.148293 -0.0554845)
(-0.000719356 -0.252764 -0.0981639)
(-0.00774574 -0.3949 -0.0535203)
(0.0073728 -0.311848 -0.0148064)
(-0.0116782 -0.183726 0.00876001)
(0.00609907 -0.695089 -0.0466851)
(-0.00724224 -0.981527 -0.104733)
(-0.0100586 -0.585928 0.00317661)
(-0.00401079 -0.695177 -0.0201913)
(0.00683127 -0.718835 -0.00685175)
(0.00609187 -0.264665 0.0252575)
(0.00742325 -0.383946 -0.0459593)
(-0.00326249 -0.125249 -0.206515)
(0.00118777 -0.0912418 -0.235004)
(-0.00101531 -0.0829571 -0.264202)
(-0.00202289 -0.0833364 -0.264585)
(0.00321079 -0.0708803 -0.310566)
(-0.00577287 -0.0441339 -0.541591)
(0.157064 -0.0394198 -0.628576)
(0.0303903 -0.0565649 -0.471414)
(0.000802443 -0.117186 -0.232256)
(0.00544408 -0.245821 -0.106683)
(-0.00587284 -0.410454 -0.0505608)
(-0.00339122 -0.219937 0.0060399)
(-0.001425 -0.255079 0.00431178)
(0.0150346 -0.54709 0.012035)
(0.00416624 -0.843321 -0.00393112)
(-0.00481652 -0.671228 0.00119858)
(0.000395462 -0.565282 0.00732111)
(-0.00125488 -0.704792 -0.00855917)
(0.000455811 -0.307914 0.00721203)
(0.0060306 -0.377681 -0.0553487)
(-0.00990782 -0.100242 -0.229487)
(0.000358744 -0.0855841 -0.263834)
(-0.000236838 -0.0850046 -0.265205)
(-0.000353919 -0.0878288 -0.254442)
(-0.00101373 -0.0861085 -0.254628)
(-0.00110931 -0.0861009 -0.271355)
(0.00100668 -0.0802357 -0.252441)
(0.000118746 -0.130378 -0.273575)
(0.000719627 -0.160217 -0.214896)
(0.00343649 -0.247482 -0.103079)
(-0.00285252 -0.376557 -0.0470992)
(-0.00284834 -0.197214 0.0179537)
(-0.000800523 -0.333642 -0.0034262)
(0.0229767 -0.380058 0.0414997)
(-0.00434137 -0.598322 0.0360404)
(-0.00507218 -0.741915 -0.0130458)
(-0.0010014 -0.617515 0.000672718)
(-5.92825e-05 -0.741682 -0.0173555)
(-9.42442e-05 -0.418023 0.00166796)
(0.00549362 -0.354585 -0.0636005)
(-0.00770324 -0.110841 -0.208089)
(0.000211856 -0.0903941 -0.253869)
(-0.000465933 -0.0866053 -0.263773)
(0.000129611 -0.0884504 -0.259628)
(0.000457162 -0.0873286 -0.260096)
(0.00033144 -0.0797353 -0.282965)
(0.00181081 -0.0908388 -0.245934)
(0.000909707 -0.086189 -0.260556)
(-0.00352801 -0.121613 -0.18547)
(0.000317563 -0.241797 -0.0966414)
(-0.00696792 -0.352629 -0.0525847)
(-0.00676033 -0.202399 0.0158306)
(-0.000742479 -0.585887 -0.0348113)
(0.016511 -0.369843 0.028365)
(-0.00301341 -0.602543 0.0192305)
(-0.000230224 -0.695734 -0.0061396)
(-0.00132604 -0.605512 -0.00106303)
(-0.00240383 -0.639062 -0.00401671)
(-0.00546861 -0.385176 0.0124074)
(0.000365007 -0.30089 -0.08393)
(-0.00507239 -0.105065 -0.214455)
(1.0438e-05 -0.089383 -0.257365)
(-0.000269048 -0.0870035 -0.263102)
(-0.000169502 -0.0907114 -0.252836)
(-8.82322e-05 -0.0884437 -0.262168)
(0.00032237 -0.082474 -0.278856)
(0.000289704 -0.0860689 -0.266534)
(-0.000732106 -0.0880483 -0.265642)
(-0.000831639 -0.123947 -0.189275)
(-0.00219561 -0.246905 -0.0919169)
(-0.0039064 -0.306785 -0.053884)
(-0.00662962 -0.204083 0.0131847)
(0.0059996 -0.723798 -0.0262355)
(0.00647176 -0.513747 -0.00913637)
(0.00153174 -0.651686 0.00783497)
(0.00287373 -0.556252 0.00722189)
(-0.00169968 -0.518103 0.00873376)
(-0.00753491 -0.531307 0.0167453)
(-0.00674661 -0.429551 0.00895589)
(0.00153533 -0.23022 -0.106299)
(-0.00285224 -0.107487 -0.212897)
(-0.000256351 -0.090928 -0.250437)
(-0.000179558 -0.0869033 -0.261571)
(-0.000353644 -0.0910077 -0.250102)
(3.5295e-05 -0.0895149 -0.252637)
(0.00045402 -0.0837212 -0.271251)
(0.000122001 -0.0859879 -0.265218)
(-0.000676702 -0.0856323 -0.266556)
(-0.00141535 -0.127546 -0.178418)
(-0.00952998 -0.231305 -0.0845051)
(-0.00547468 -0.268844 -0.0406928)
(-0.0069761 -0.201164 0.011606)
(0.00547268 -0.762752 -0.0150023)
(-0.00919868 -0.70627 -0.0323228)
(0.0107788 -0.804753 -0.0116168)
(0.00256105 -0.532479 0.0149387)
(-0.00210704 -0.494357 0.0131574)
(-0.00520047 -0.592168 0.00490003)
(0.00253356 -0.591702 -0.000186316)
(0.00807228 -0.188956 -0.107505)
(0.000277848 -0.100734 -0.210117)
(-1.21113e-05 -0.0902904 -0.23555)
(-0.000199683 -0.0864679 -0.245885)
(-0.000347682 -0.092307 -0.229573)
(8.74363e-05 -0.0920461 -0.231481)
(0.000312238 -0.0842062 -0.256363)
(-0.000150173 -0.084161 -0.259911)
(-0.000543465 -0.0864898 -0.252696)
(-0.00235029 -0.119744 -0.171352)
(-0.00748995 -0.188517 -0.0637429)
(-0.00308961 -0.189204 -0.014529)
(-0.00652633 -0.21112 0.0111471)
(0.00731862 -0.747546 -0.00563653)
(-0.0125962 -0.738241 -0.0136775)
(0.0121808 -0.924913 -0.0254397)
(0.00126728 -0.636903 -0.000753568)
(0.00059046 -0.496748 0.0108585)
(0.00444973 -0.75836 -0.0116326)
(0.00481525 -0.617243 -0.00465449)
(0.00744241 -0.147447 -0.0623674)
(-0.000613199 -0.0706179 -0.157587)
(0.00113543 -0.0661832 -0.159873)
(-0.000234216 -0.0628095 -0.162154)
(-0.00122883 -0.0679845 -0.144968)
(0.000166685 -0.0668897 -0.147577)
(-0.000876508 -0.0607684 -0.170511)
(-0.00142238 -0.0590621 -0.178289)
(-0.000615297 -0.0601651 -0.174848)
(-0.000803374 -0.0759923 -0.124711)
(0.00405964 -0.107017 -0.0292289)
(-0.00108597 -0.085543 0.0170586)
(-0.00546108 -0.23935 0.00672253)
(0.00742006 -0.682703 0.00197941)
(-0.00641101 -0.593278 0.00849603)
(0.00499531 -0.951573 -0.0158449)
(-0.00356289 -0.789744 -0.00684895)
(0.00250876 -0.512035 0.00579627)
(0.00923774 -0.803917 -0.0139978)
(0.00376078 -0.598424 -0.0111875)
(0.00241942 -0.0740271 0.00815146)
(0.000633904 -0.0303243 0.00370908)
(0.000587585 -0.0298981 0.00420744)
(0.000278922 -0.0188009 0.00417444)
(0.000190015 -0.0297744 0.00442015)
(-0.000394574 -0.0306415 0.00428656)
(-0.000153451 -0.020566 0.00388677)
(0.000240028 -0.0313841 0.00360074)
(0.000278373 -0.0307503 0.00372815)
(0.000309236 -0.0339286 0.0050521)
(-0.000892028 -0.0444073 0.00798401)
(-0.00210934 -0.0612543 0.00707384)
(-0.00120847 -0.241262 0.00659446)
(0.00470528 -0.732347 0.00452105)
(-0.000193675 -0.537409 0.0087204)
(0.000870492 -0.918453 -0.00572374)
(-0.007348 -0.836148 -0.00203835)
(0.00197493 -0.604565 -0.00895606)
(0.0102555 -0.803837 -0.0100916)
(0.00106118 -0.538128 -0.0127358)
(-0.00135483 -0.0860547 0.000499076)
(-0.000298609 -0.0401483 -0.000577685)
(8.66355e-05 -0.026529 -0.000161717)
(9.82422e-05 -0.0224467 5.61739e-05)
(2.18437e-06 -0.0247577 0.000548867)
(4.382e-06 -0.0255062 0.00057161)
(-6.07121e-06 -0.0246869 0.000104313)
(2.21729e-05 -0.0262169 0.000597795)
(6.31195e-05 -0.0253535 0.000685372)
(1.45249e-05 -0.026119 0.000780325)
(-0.0002788 -0.030715 0.000938718)
(-0.000533518 -0.0532501 0.000349595)
(0.000244195 -0.246249 0.00559223)
(-0.000235402 -0.774725 -0.000341059)
(0.00398307 -0.610859 -0.000170198)
(0.000976805 -0.784272 -0.00596773)
(-0.00595843 -0.840661 -0.00725013)
(0.00301494 -0.668368 -0.0177277)
(0.00585303 -0.75398 -0.00580347)
(-0.00142531 -0.424692 -0.00475707)
(-0.00488711 -0.0777197 -0.000101623)
(-0.000703331 -0.0454241 -0.000336473)
(-0.000284721 -0.0385439 -0.00216906)
(-6.54391e-06 -0.021122 -0.000133759)
(-0.000225165 -0.0272433 -0.000634202)
(0.000249773 -0.0279908 -0.000601282)
(-1.09513e-05 -0.0221416 -6.6641e-05)
(-0.000232396 -0.0292603 -0.000724033)
(3.2452e-05 -0.0272093 -0.000483733)
(-4.04561e-05 -0.0279246 -0.000457881)
(0.000323437 -0.0354316 -0.000931396)
(-0.000179687 -0.0650785 -0.00105357)
(-1.84089e-07 -0.268087 0.00220246)
(-0.00298276 -0.791795 -0.00254965)
(0.00565037 -0.697712 -0.0128633)
(0.00143946 -0.652789 -0.00206488)
(-0.00157246 -0.821448 -0.0123171)
(0.00232559 -0.644047 -0.00537269)
(-0.00243927 -0.655826 -0.00174154)
(-0.00291957 -0.379538 0.00236002)
(-0.00450725 -0.0936865 -0.000514822)
(-0.000668416 -0.0482193 -0.000213002)
(-0.000631405 -0.0520865 -0.00233334)
(1.32842e-05 -0.0245731 -0.000613903)
(1.61631e-05 -0.0294477 -0.00077123)
(7.43719e-05 -0.0296178 -0.000609144)
(4.58928e-05 -0.0250699 -0.000489249)
(8.09747e-06 -0.0316918 -0.000564267)
(1.95881e-05 -0.0278824 -0.000351772)
(0.000199709 -0.0282686 -0.00025814)
(0.000458065 -0.0381273 -0.000332146)
(-0.00057308 -0.0559141 0.000276825)
(3.75684e-05 -0.295272 0.00273943)
(-0.000653135 -0.802472 -0.00187614)
(0.00509002 -0.716208 -0.0109884)
(0.000109418 -0.589096 0.0168923)
(0.00112362 -0.765867 -0.0104006)
(-0.000470933 -0.490218 0.014662)
(-0.00755981 -0.637913 -7.4087e-05)
(-0.00189599 -0.364295 0.00798089)
(-0.00101009 -0.0822492 0.000244414)
(-0.000156421 -0.0487223 0.000160072)
(-0.00057961 -0.070916 -0.00139762)
(-0.000395141 -0.0318525 -0.00108742)
(5.55971e-05 -0.0376126 -0.00131011)
(0.000356198 -0.036113 -0.000971704)
(0.000381404 -0.0300239 -0.000264188)
(-0.000213601 -0.0366945 -0.000163022)
(-0.000330217 -0.0320046 -0.000552686)
(0.000267827 -0.0317098 -0.000520563)
(0.000159425 -0.0383944 -1.54165e-05)
(-0.000437441 -0.0571688 8.9772e-05)
(0.000473673 -0.304047 0.0034959)
(0.00313256 -0.80572 -0.00278938)
(-0.000995668 -0.633996 0.00234235)
(0.000887341 -0.602375 0.0108458)
(0.0013523 -0.717995 -0.0114241)
(-0.000306783 -0.457398 0.0147457)
(-0.00282771 -0.608628 0.00096489)
(-0.00233662 -0.368109 0.00610644)
(0.000173172 -0.0790234 0.000667616)
(0.000251336 -0.0446843 0.000571174)
(-6.51315e-06 -0.0659187 -0.000217994)
(-0.000175574 -0.043095 -0.000726498)
(0.000233968 -0.0477654 -0.000513387)
(-8.08336e-05 -0.0429537 -0.000188134)
(8.74891e-05 -0.0285128 6.35338e-05)
(5.89291e-05 -0.0328312 0.000207406)
(-0.000180057 -0.0357428 -7.18919e-05)
(-0.000269072 -0.035703 -0.000192242)
(-9.19566e-05 -0.0373911 4.59175e-05)
(0.000498363 -0.0553059 0.000252293)
(0.000712973 -0.290577 0.0045813)
(0.00333032 -0.804769 -0.00336082)
(-0.00535694 -0.557634 0.0122618)
(0.000741963 -0.704908 -0.00262925)
(-0.000988662 -0.688745 -0.0118117)
(-0.00303955 -0.540132 -0.000126767)
(0.000134509 -0.598642 0.00176111)
(-0.00130093 -0.38083 0.00241916)
(0.000865649 -0.0738391 0.000764867)
(7.41772e-05 -0.0406304 0.00023895)
(0.000735426 -0.065638 0.00035248)
(0.000362064 -0.0424841 -6.78773e-05)
(0.000234191 -0.0432432 0.000215942)
(-0.000617723 -0.0376257 0.000320121)
(-0.000402423 -0.0285611 2.59778e-05)
(0.000345618 -0.0328432 -2.97279e-06)
(0.000186963 -0.0321656 5.21028e-05)
(-0.000125028 -0.0343215 3.26748e-06)
(-0.000103657 -0.0382804 4.2823e-05)
(0.000319613 -0.0545085 0.000204554)
(0.00144309 -0.276147 0.0051804)
(-0.00143609 -0.803717 -0.00290701)
(-0.00429822 -0.565883 0.00460721)
(0.000558388 -0.736674 -0.0124604)
(-0.000275927 -0.63504 -0.0094117)
(-0.00564496 -0.594003 -0.00967361)
(-0.00048044 -0.634578 -0.00438082)
(-0.000573234 -0.385448 -2.81556e-05)
(0.00182255 -0.0734807 0.000462117)
(0.000338242 -0.0431913 -0.000293977)
(0.000150168 -0.0619855 0.000775589)
(-2.93703e-05 -0.0412139 0.000150951)
(0.000242453 -0.0422578 0.00012764)
(-0.000239174 -0.0371583 1.06389e-05)
(1.53172e-05 -0.0298146 -2.61749e-05)
(0.000212399 -0.0338774 8.32942e-06)
(0.00010953 -0.0344282 -2.9717e-05)
(0.000134299 -0.0352755 8.80018e-06)
(-3.37154e-05 -0.0365666 2.13101e-05)
(-0.000365956 -0.0539962 0.000404434)
(0.00230055 -0.271908 0.00330382)
(-0.00237428 -0.80501 -0.00118512)
(-0.00112162 -0.611674 -0.00703045)
(-0.00201968 -0.686975 -0.00475893)
(0.00178332 -0.50992 -0.00666833)
(-0.00124653 -0.546181 -0.00606721)
(-0.00226071 -0.592647 -0.00924442)
(-0.00101676 -0.379555 -0.00286996)
(0.00157973 -0.0778544 -0.00133475)
(0.000165897 -0.045962 -0.00173055)
(0.000325921 -0.0564008 0.00180609)
(0.000248551 -0.0422696 7.05738e-05)
(0.000369206 -0.041462 0.00108127)
(-0.000186694 -0.0372539 0.000834495)
(7.83125e-05 -0.030258 -9.67031e-05)
(0.000259655 -0.0329469 0.000835541)
(0.00011122 -0.0324236 0.000846092)
(-0.000102146 -0.0332283 0.000810713)
(-2.50629e-05 -0.0367481 0.000672273)
(-0.000616539 -0.0513872 0.00173632)
(0.00262011 -0.271832 9.36487e-05)
(-0.00105206 -0.808366 -0.00129507)
(-0.000732253 -0.536449 -0.0078822)
(0.00200569 -0.558512 0.000595385)
(-0.000714945 -0.443985 -0.00925134)
(0.00190228 -0.452173 -0.00488604)
(-0.000663658 -0.493258 -0.0084666)
(-0.000464414 -0.353697 -0.00474491)
(-0.00180808 -0.104458 -0.00552548)
(-0.000322412 -0.0728504 -0.00547873)
(0.000274678 -0.050485 -8.58788e-05)
(-3.41589e-06 -0.0428156 -0.00122523)
(0.000161956 -0.0335053 0.000969973)
(0.000206495 -0.0310904 0.000483379)
(-5.37162e-05 -0.0320138 -0.000147109)
(-0.000282578 -0.0275536 0.000638432)
(-5.71981e-05 -0.0275123 0.000549899)
(0.000146167 -0.0285533 0.000461842)
(0.000160556 -0.0322995 0.000465688)
(2.46694e-05 -0.0426168 0.000808351)
(0.0019919 -0.283782 -0.00268135)
(-0.00148448 -0.810643 -0.00131504)
(-0.00349044 -0.428898 -0.00439881)
(0.00486845 -0.482687 -0.0071065)
(-0.00253756 -0.426995 -0.00508607)
(-0.000294939 -0.436193 -0.00612244)
(0.00092822 -0.472144 -0.00548704)
(0.00120227 -0.363693 -0.0027938)
(-0.00291172 -0.189357 -0.00342347)
(-0.000537023 -0.15026 -0.00333064)
(-0.000789345 -0.0770766 -0.00156183)
(-0.000680808 -0.0626534 -0.00117588)
(-0.000571791 -0.0355483 -4.67724e-06)
(-2.61651e-05 -0.0374334 -0.000333244)
(1.24192e-05 -0.0313844 -9.21993e-05)
(-6.43966e-05 -0.0296167 -9.95684e-05)
(1.70894e-05 -0.0307449 -0.000180324)
(-7.17405e-05 -0.0329645 -0.000242963)
(0.000172925 -0.0359013 -5.88832e-05)
(0.00339912 -0.0538721 -0.000553423)
(0.000755838 -0.291754 -0.00190968)
(-0.000222886 -0.811715 -0.000389533)
(-0.00135275 -0.400853 -0.00309014)
(0.000869461 -0.476396 -0.00513446)
(-0.206891 -0.626897 -0.387058)
(-0.00184023 -0.559587 -0.408067)
(0.031769 -0.592083 -0.399197)
(0.120978 -0.554505 -0.307381)
(0.16876 -0.386375 -0.200666)
(0.120682 -0.203602 -0.336875)
(0.00413742 -0.0653011 -0.373305)
(0.0963157 -0.117588 -0.201427)
(0.126417 -0.123854 -0.193352)
(0.00434472 -0.0784572 -0.438917)
(-0.0306173 -0.0253713 -0.622451)
(-0.0212124 -0.0591648 -0.465408)
(-0.0895954 -0.163432 -0.128715)
(-0.068807 -0.132733 -0.0578607)
(-0.135818 -0.114714 -0.0844327)
(-0.0945831 -0.362449 -0.139741)
(-0.0877493 -0.376352 -0.24031)
(-0.142608 -0.412959 -0.291703)
(-0.124878 -0.760032 -0.402712)
(0.234277 -0.919996 -0.499271)
(-0.0222451 -0.719015 -0.0654686)
(-0.00892116 -0.739022 -0.097114)
(0.0330146 -0.744995 -0.0594782)
(0.0359807 -0.508818 -0.0124871)
(0.0125872 -0.36238 -0.0624129)
(-0.0124486 -0.0313174 -0.901907)