/*--------------------------------*- C++ -*----------------------------------*\
| =========                 |                                                 |
| \\      /  F ield         | OpenFOAM: The Open Source CFD Toolbox           |
|  \\    /   O peration     | Version:  2.3.0                                 |
|   \\  /    A nd           | Web:      www.OpenFOAM.org                      |
|    \\/     M anipulation  |                                                 |
\*---------------------------------------------------------------------------*/
FoamFile
{
    version     2.0;
    format      ascii;
    class       volVectorField;
    location    "4.800005";
    object      Ur;
}
// * * * * * * * * * * * * * * * * * * * * * * * * * * * * * * * * * * * * * //

dimensions      [0 1 -1 0 0 0 0];

internalField   nonuniform List<vector> 
10000
(
(-0.00287214 0.00158613 -0.0574414)
(5.07576e-05 0.00156899 -0.0564774)
(0.000685045 0.00151267 -0.056846)
(0.00100376 0.00151179 -0.0335797)
(0.000909543 0.000858484 -0.0181819)
(0.000603981 0.000461978 -0.000643368)
(5.19677e-05 0.000346421 -0.000568449)
(-6.42661e-05 0.000327612 0.000275472)
(0.00411276 0.0003532 -0.000843435)
(-0.00102817 -0.00137491 -0.0561057)
(-0.00345207 0.000304328 -0.000530491)
(-3.15726e-05 8.52441e-05 0.0032504)
(-0.000127981 0.00114347 -0.00330394)
(-0.000107328 0.000545189 -0.00255574)
(-0.000867094 0.0177411 -0.00347858)
(-0.000850072 0.00108783 -0.0230451)
(-0.000156128 0.00108046 -0.0311232)
(-0.000835575 0.00109062 -0.0317613)
(-0.00194488 0.00167956 -0.0607666)
(0.00412541 0.00247439 -0.0936983)
(-0.00106663 0.00424961 -0.00162446)
(-7.12913e-05 0.00520377 -0.0029703)
(0.0001184 0.00461142 -0.0031807)
(8.01904e-05 0.000643854 -0.000421404)
(-0.000118059 0.000514011 0.000205729)
(-7.29516e-05 3.15431e-05 -0.0012139)
(4.76281e-06 1.17535e-05 -0.00194084)
(2.5339e-05 -4.95759e-07 -0.000738992)
(-8.1101e-06 3.74311e-05 -0.000933888)
(-2.51e-05 -0.00292922 -0.0010407)
(-0.000214415 6.58152e-05 -0.0019964)
(0.00140571 -0.000283908 -0.00655591)
(0.00101123 -0.0013441 0.0128763)
(-0.000158977 -7.62093e-05 -0.000909334)
(-0.00341744 0.0307035 -0.00877358)
(-0.00282417 0.000668627 -0.000615823)
(-0.000570855 0.00233044 -0.00219061)
(0.000463385 0.000600988 -0.000844596)
(0.000423972 0.0034233 -0.00191526)
(0.00110399 0.00488539 -0.00149302)
(1.6283e-06 7.4782e-05 1.05075e-05)
(-2.11131e-05 -6.82918e-05 -0.000313363)
(-2.22777e-05 2.17541e-05 1.25914e-05)
(3.33019e-05 -0.00144411 -0.00239675)
(1.09185e-05 8.90085e-06 0.000430676)
(-6.71132e-06 2.00579e-05 -0.000888419)
(2.6904e-05 4.65422e-05 -0.000473384)
(1.86466e-06 2.19635e-05 -0.000318558)
(-1.42992e-06 2.67778e-05 -0.000476048)
(2.24411e-05 2.59239e-05 -0.000321421)
(-6.95157e-05 7.09026e-05 0.000119566)
(0.00794648 0.000171435 -0.00198767)
(0.012023 -0.00589765 -0.0244088)
(0.000402266 0.00146108 -0.0315481)
(1.51178e-05 -0.000195033 -2.59113e-05)
(5.51467e-05 6.13341e-05 0.000150245)
(4.49919e-05 -0.000267681 -1.22523e-05)
(-5.89205e-06 -4.47625e-05 1.8055e-05)
(4.06436e-06 -0.000693767 -1.16768e-05)
(-2.38035e-05 -0.00263207 -3.95646e-05)
(-1.55419e-06 -1.11582e-05 1.06329e-05)
(1.33557e-06 -2.33017e-05 1.03003e-05)
(-7.33633e-06 -1.36776e-05 1.82965e-05)
(7.8414e-05 -0.000638368 -0.000671588)
(7.1395e-05 2.05144e-05 0.000267726)
(-4.68378e-06 3.71546e-05 -0.000131729)
(1.84977e-06 1.70579e-05 5.38964e-06)
(-1.35097e-06 9.88053e-06 -2.25036e-05)
(-2.85995e-06 1.41157e-05 -1.18043e-05)
(-8.151e-06 1.42282e-05 -0.000117051)
(-9.14313e-06 -1.47365e-06 -0.00023143)
(-5.63449e-06 7.30574e-05 -0.000462192)
(2.50565e-06 -0.00126654 -0.000618006)
(1.12597e-05 -0.000907314 -0.000360326)
(1.67868e-05 6.13119e-06 -6.3453e-05)
(1.33194e-05 6.36072e-05 0.000390004)
(-3.59363e-06 -8.53474e-05 -1.86709e-05)
(-1.6882e-06 3.46082e-05 2.77549e-05)
(3.83727e-06 2.97833e-05 1.97018e-05)
(-9.72811e-06 -0.000118595 2.83041e-05)
(-6.90972e-06 -1.88706e-05 -1.17813e-05)
(2.31887e-06 -5.81408e-05 -4.26172e-06)
(-1.62842e-06 8.3072e-07 -2.19905e-05)
(-2.87722e-05 8.56333e-05 -0.00016264)
(-4.70616e-05 1.93691e-05 0.000660923)
(-1.46976e-05 6.06622e-06 -3.21483e-06)
(2.99423e-07 1.39502e-06 2.97659e-05)
(-1.76547e-06 2.71214e-06 -2.15696e-05)
(6.51461e-07 1.76096e-06 -4.33656e-05)
(2.00552e-06 5.04586e-06 1.1445e-05)
(6.95542e-07 8.22542e-06 2.9715e-05)
(9.41931e-06 1.59294e-05 6.37137e-05)
(7.67217e-06 1.80745e-05 0.000334685)
(-1.01742e-05 6.22878e-06 0.000260614)
(6.92164e-06 9.7917e-06 -0.000145388)
(1.6109e-05 6.65923e-05 0.000474374)
(-8.11726e-06 -4.03444e-05 -1.05408e-05)
(-2.57442e-06 0.000105533 2.43231e-05)
(-8.33571e-06 0.000262293 7.99312e-05)
(5.95705e-06 0.000234641 2.65569e-05)
(-2.95187e-06 -0.000413622 -7.27299e-07)
(-1.08873e-06 -0.000422461 -1.77113e-05)
(-6.2944e-06 -0.000778 -1.27555e-05)
(-6.04053e-06 -5.06068e-05 -0.000233092)
(-3.23873e-05 1.93575e-06 0.000676547)
(-1.69487e-05 3.01102e-06 2.79323e-05)
(-6.29006e-07 -5.76514e-08 8.89872e-06)
(-1.54285e-06 1.27558e-06 -1.16391e-05)
(-6.93731e-07 1.26156e-06 -4.87779e-05)
(-3.53421e-07 -9.53787e-07 -4.45785e-05)
(2.02781e-06 -1.72742e-07 -7.38026e-05)
(1.54624e-06 9.81244e-07 2.95709e-05)
(-4.08094e-06 -7.72921e-06 -1.02806e-05)
(1.13881e-06 -5.59987e-06 -0.000139746)
(2.16713e-05 1.95075e-05 -4.93496e-05)
(8.39131e-06 5.23789e-05 0.000542093)
(-1.05883e-05 -1.26279e-05 -6.11568e-06)
(2.04511e-06 -1.2004e-07 -8.57736e-06)
(1.74956e-05 6.43438e-05 3.71854e-05)
(-1.01229e-05 0.00123503 3.9054e-05)
(8.80447e-06 -0.000298889 -1.20965e-05)
(6.32844e-07 -0.000130787 -9.1005e-06)
(-1.90572e-06 0.000204472 3.69818e-05)
(0.000135454 0.000654919 -0.000611243)
(0.000125772 -9.34117e-06 0.000374344)
(-9.38936e-06 4.23839e-07 -7.82375e-05)
(3.49518e-07 1.41579e-06 -7.53771e-05)
(-8.36096e-07 1.66683e-06 -7.01384e-05)
(-1.41098e-06 2.04561e-06 -0.000109878)
(2.71981e-07 2.8075e-06 -0.000150839)
(2.18928e-06 2.79139e-06 -9.77044e-05)
(6.66728e-07 1.87441e-06 -3.34404e-05)
(-3.81886e-06 2.1854e-06 -6.73609e-05)
(1.20899e-05 9.559e-06 -0.000208591)
(4.11719e-05 5.14995e-05 0.000281796)
(3.12238e-06 6.45024e-05 0.00109464)
(-1.95617e-05 -2.21466e-05 -1.00345e-05)
(7.85565e-07 -4.06182e-05 -2.46756e-05)
(5.486e-07 -4.88085e-05 -2.27947e-05)
(-1.63348e-05 0.000101373 1.66295e-05)
(-1.26178e-06 0.000439285 3.39246e-05)
(-1.74425e-06 -1.12385e-06 1.08718e-05)
(-8.45548e-06 -3.71458e-05 -5.5601e-08)
(6.65793e-05 0.000214495 -6.63841e-05)
(6.77145e-05 2.57872e-05 -0.000150482)
(-1.9917e-06 2.98393e-06 -9.31485e-05)
(-6.51254e-08 6.48992e-06 -9.71206e-05)
(-7.3034e-07 5.92006e-06 -9.31187e-05)
(-4.77476e-07 1.12436e-05 -0.000143796)
(1.00197e-06 1.26665e-05 -0.000135948)
(2.2722e-06 8.25092e-06 -9.21461e-05)
(4.63221e-07 8.18754e-06 -2.84629e-05)
(2.43134e-06 1.02903e-05 -8.03637e-05)
(4.82781e-05 2.88735e-05 1.19156e-05)
(7.55409e-05 7.0852e-05 0.00162185)
(-8.63854e-06 3.50735e-07 0.00194748)
(-3.63484e-05 -8.77678e-06 5.3818e-06)
(6.29077e-06 -0.000443006 -3.08403e-06)
(-3.22719e-06 -5.13121e-05 -1.30766e-05)
(1.10833e-05 -2.22818e-05 -4.05476e-05)
(2.07374e-06 2.94322e-05 5.75747e-06)
(-3.17959e-06 5.49655e-05 1.03022e-05)
(-1.61359e-06 -1.99187e-06 -4.68852e-06)
(1.23737e-05 7.69144e-06 5.20313e-06)
(-4.99476e-05 1.00125e-05 6.86337e-05)
(-2.54241e-05 6.11779e-06 -0.000649424)
(3.45069e-06 2.14575e-05 -0.000439013)
(3.8563e-06 2.3881e-05 -0.000376433)
(4.94516e-06 3.53277e-05 -0.000266826)
(-2.66077e-06 3.3196e-05 -0.000249542)
(-3.30775e-06 2.20661e-05 -0.000337443)
(1.84016e-06 2.47679e-05 -0.00041514)
(2.11866e-05 2.85684e-05 -0.000348469)
(8.29809e-05 3.82149e-05 0.000353341)
(1.49688e-05 1.77298e-05 0.00269657)
(-6.17601e-05 7.28037e-05 0.00138044)
(-1.47525e-05 4.72074e-05 1.52817e-05)
(-3.50832e-06 0.000291963 1.30555e-05)
(-1.41981e-05 -0.000297088 6.09232e-06)
(5.12897e-06 -6.4674e-05 -2.21811e-06)
(2.4817e-06 -2.0628e-06 -8.58902e-06)
(-2.00201e-06 0.000456376 2.08988e-05)
(-1.0841e-06 -1.36782e-05 -8.12166e-06)
(1.02839e-06 -6.6398e-06 -6.25395e-08)
(-4.13008e-07 -4.58234e-06 -6.04487e-07)
(-1.40982e-05 -2.18364e-05 -7.98076e-05)
(-1.77091e-06 -2.55955e-05 -0.000113306)
(2.3477e-07 -5.00129e-05 -0.000172204)
(3.65117e-07 -6.15663e-05 -0.000199326)
(-3.19263e-06 -5.72285e-05 -0.000190002)
(-7.42122e-06 -0.000113362 -0.00033821)
(-2.91573e-06 -8.17525e-05 -0.000313995)
(1.08712e-05 -9.38326e-05 -0.000333254)
(2.79115e-05 -0.000116582 -0.000215871)
(-3.47051e-05 -2.96859e-05 4.89236e-05)
(-1.81244e-05 -1.50706e-06 0.000293454)
(1.90197e-06 1.3854e-05 4.52297e-06)
(2.49163e-06 -5.67941e-05 -1.41258e-07)
(-4.067e-06 0.00036348 1.71478e-05)
(-2.05781e-06 -0.000651707 3.15311e-05)
(-1.45871e-06 1.09463e-06 4.42525e-06)
(-5.202e-06 -2.78656e-05 8.9891e-06)
(-5.44639e-07 -4.88155e-05 -1.40236e-05)
(6.0451e-06 -1.30202e-05 3.51487e-06)
(3.84038e-07 -1.0099e-05 -4.65692e-07)
(-3.55262e-08 2.41016e-08 6.36275e-08)
(3.25352e-09 6.12688e-08 1.17524e-07)
(-7.89212e-10 5.42105e-08 -8.66094e-09)
(-9.6063e-10 8.91447e-07 1.04091e-07)
(-4.29282e-09 8.75082e-07 1.02376e-07)
(1.05028e-09 -7.00799e-08 -3.18897e-08)
(3.79031e-09 1.02872e-06 1.89675e-07)
(-1.43627e-09 8.53715e-07 1.90263e-07)
(1.38194e-08 5.79733e-07 2.96493e-08)
(4.82071e-08 -1.70354e-07 2.60611e-07)
(3.77873e-06 -7.21023e-06 1.16942e-06)
(-2.49305e-07 2.29006e-05 4.67033e-06)
(-4.06116e-06 -3.05907e-07 4.19129e-06)
(4.20847e-07 -1.52038e-05 3.57962e-06)
(-3.22617e-06 -0.000681518 -1.11224e-05)
(-3.22702e-06 7.07675e-06 5.10186e-06)
(-2.3496e-06 -2.42108e-05 -2.78678e-05)
(8.59819e-06 -0.000717508 4.0231e-06)
(3.73597e-07 -0.000324429 -3.40031e-06)
(1.36808e-07 -4.8481e-06 -5.95319e-08)
(6.18381e-08 3.23191e-07 2.99927e-07)
(-1.07582e-07 4.51522e-08 5.26013e-08)
(-3.46682e-09 -2.27171e-08 -3.67647e-09)
(-2.80748e-09 5.12045e-08 -2.88646e-08)
(-2.12647e-11 -1.2931e-08 -3.10105e-08)
(-1.31464e-10 -2.42134e-07 -4.29425e-08)
(1.34142e-09 -3.65788e-08 -3.79962e-08)
(1.49456e-10 7.04942e-08 -2.44476e-08)
(-2.08816e-09 1.55325e-07 -2.00688e-08)
(-3.75505e-08 5.48358e-07 -1.56896e-07)
(-6.08279e-07 1.53627e-06 -1.7048e-07)
(-1.01653e-06 0.000695676 2.2123e-06)
(-1.45151e-06 2.11731e-06 1.08508e-06)
(1.41258e-06 -1.5042e-05 -1.88039e-06)
(2.52827e-07 -0.00052679 -2.74172e-05)
(-2.32939e-06 5.8382e-07 2.20199e-06)
(8.07771e-06 -0.000415297 2.12522e-06)
(2.00062e-06 -0.000559413 8.31224e-06)
(-5.92084e-06 -5.02428e-05 -3.7836e-06)
(-2.99406e-07 2.18186e-07 1.69231e-07)
(-1.33087e-08 -1.02527e-05 2.10621e-08)
(-6.61103e-10 1.95277e-07 1.62963e-07)
(-4.29021e-09 -1.17382e-08 9.46262e-09)
(1.51726e-10 -6.32773e-08 -2.47232e-08)
(5.74702e-09 -1.1513e-07 -1.68058e-08)
(5.96231e-09 -3.62716e-07 -5.91803e-09)
(2.47767e-09 -2.3242e-07 7.17118e-08)
(-3.6492e-09 -6.49855e-08 5.68058e-09)
(1.80961e-07 2.73681e-08 -5.25037e-08)
(-5.63978e-08 -5.55649e-08 1.15944e-07)
(-3.98718e-06 -3.854e-06 -1.44026e-06)
(1.54254e-07 8.98683e-06 -2.69194e-06)
(1.14686e-06 2.38129e-07 -1.39471e-06)
(1.72163e-06 4.26882e-06 -1.36628e-05)
(5.41607e-06 -3.69198e-05 7.42726e-06)
(2.43439e-06 9.53352e-06 4.2113e-06)
(-2.0073e-07 -5.30391e-05 8.5456e-07)
(-7.42972e-06 -0.000130792 -1.01085e-06)
(-3.41513e-07 4.07261e-06 2.4335e-06)
(-1.60064e-07 -2.96497e-06 5.37085e-09)
(2.65861e-10 -2.44205e-06 -4.07283e-07)
(9.84986e-08 -2.52046e-07 4.45937e-08)
(9.36571e-10 7.82087e-08 3.85835e-08)
(6.20074e-09 -1.34608e-07 4.46373e-08)
(8.05052e-09 -1.47478e-07 3.51988e-08)
(2.57613e-08 -4.06974e-07 7.38348e-08)
(7.54697e-09 9.52963e-07 4.85356e-07)
(-2.04111e-08 -8.22766e-08 2.5388e-08)
(-2.61311e-07 1.6479e-07 2.95518e-08)
(-3.20769e-08 -7.99647e-06 -8.56824e-07)
(1.25037e-07 3.11021e-07 7.66701e-08)
(-1.9419e-08 3.41142e-06 -1.4759e-06)
(9.21524e-07 4.43136e-06 2.2508e-06)
(4.52424e-06 -0.000585908 -1.91808e-05)
(2.98627e-06 0.000673836 2.83312e-05)
(1.0635e-06 1.40802e-05 1.01563e-06)
(1.32022e-06 0.000257674 2.79812e-05)
(-9.95424e-07 -1.61196e-05 -1.01576e-06)
(-7.91849e-07 1.99423e-05 3.76762e-06)
(-1.25793e-07 1.23652e-06 2.0411e-07)
(-1.19824e-08 -4.75686e-07 6.57993e-08)
(-2.5566e-08 -5.24631e-06 3.17555e-09)
(4.62785e-09 -5.813e-08 2.1557e-08)
(9.65618e-09 -2.07521e-07 5.91421e-08)
(-6.33682e-09 -2.01895e-07 1.7661e-07)
(1.09802e-06 -1.21973e-06 3.55044e-07)
(2.3894e-08 -1.25364e-06 9.59776e-07)
(-1.12976e-06 1.49947e-07 2.21819e-07)
(-3.11958e-07 -2.62595e-07 3.679e-07)
(1.0875e-08 5.98747e-06 -7.28078e-07)
(2.76747e-07 2.02146e-07 7.94123e-08)
(2.11891e-08 -1.06533e-06 -1.26288e-06)
(3.98289e-06 4.64117e-06 -7.21651e-07)
(1.31177e-06 1.024e-06 1.18804e-05)
(-6.88859e-07 -4.58159e-05 1.57102e-05)
(-6.18667e-07 1.07606e-05 -4.52906e-07)
(1.7989e-06 -6.95385e-05 6.19835e-06)
(-7.45467e-07 0.000364951 7.58633e-06)
(-1.78504e-06 1.77766e-05 -5.04274e-07)
(-7.33217e-09 3.67454e-06 4.42125e-07)
(-6.62841e-08 1.47811e-06 -9.81162e-09)
(1.9308e-08 -3.5177e-07 1.03277e-09)
(2.80257e-08 -2.15707e-06 3.36756e-09)
(2.55515e-08 -2.68941e-06 3.66673e-08)
(-4.44666e-08 -2.23823e-06 3.85579e-08)
(4.52433e-08 1.31833e-06 1.36961e-09)
(-7.35413e-07 8.32451e-05 3.15039e-07)
(-2.75893e-07 2.43258e-07 3.24747e-07)
(1.29097e-07 -4.17705e-07 -4.7059e-07)
(1.86531e-07 2.69007e-06 1.05592e-06)
(-1.18829e-07 1.66493e-07 -2.21458e-07)
(-8.44876e-08 3.91577e-06 -1.58971e-06)
(-1.17985e-06 -4.81395e-06 -4.07533e-06)
(-1.90884e-06 0.000413832 1.40485e-05)
(-3.07514e-06 -1.13127e-05 -2.70335e-05)
(-8.48394e-07 2.09994e-05 6.02494e-06)
(-9.93169e-07 8.91194e-07 -8.78981e-06)
(1.64862e-06 -1.67873e-05 1.16136e-06)
(1.243e-06 -1.06081e-05 -8.49219e-07)
(1.38561e-07 -4.46662e-06 -3.35291e-07)
(1.8635e-08 3.08734e-07 -7.14249e-09)
(-2.04276e-09 -7.27837e-07 -3.18517e-08)
(9.1211e-09 1.47813e-06 -5.30027e-08)
(8.46311e-09 1.12607e-08 1.17035e-08)
(-3.71167e-09 2.78667e-07 -7.94096e-08)
(-1.13169e-06 -1.19739e-08 -3.53265e-07)
(7.46702e-09 -2.7349e-06 -1.51667e-06)
(1.05456e-06 -2.53589e-06 -1.79641e-07)
(4.92146e-08 5.9783e-06 -4.01201e-07)
(6.23176e-08 -8.92948e-08 7.9984e-08)
(-5.70876e-08 -1.64581e-07 -1.12716e-07)
(-5.99112e-08 6.50111e-06 -1.82766e-06)
(-2.9021e-06 3.36237e-06 -2.91785e-06)
(-3.17451e-06 -2.32051e-05 -3.45893e-06)
(-7.61321e-06 -0.000632995 -4.68819e-06)
(3.59375e-06 -0.000607404 -9.25374e-07)
(-2.7738e-06 -0.000250559 -2.837e-06)
(3.3197e-07 0.000131303 1.84122e-06)
(9.54515e-07 -7.77178e-05 9.59958e-08)
(4.51012e-08 1.56542e-06 -8.12134e-08)
(5.40781e-08 6.9084e-07 1.98264e-07)
(-1.31087e-08 8.00347e-07 5.08484e-09)
(3.64499e-09 -4.06172e-07 -2.67181e-08)
(7.28933e-09 -2.26542e-07 -2.02757e-08)
(-1.21492e-08 1.15158e-07 -2.42158e-08)
(-1.34971e-07 -1.84029e-07 -1.79913e-08)
(-9.37836e-08 -2.15163e-07 -7.4218e-07)
(3.71598e-07 -1.26084e-06 -3.24261e-07)
(1.35316e-07 1.87383e-07 4.76004e-07)
(-2.00914e-07 3.62857e-07 2.98698e-08)
(1.48367e-07 -3.80188e-07 -6.98782e-08)
(-2.90394e-07 1.76969e-05 -9.76015e-07)
(9.8741e-07 -4.55646e-06 -1.65903e-06)
(3.91538e-06 -0.00060711 -5.56005e-06)
(7.4505e-07 -0.000328501 1.00388e-05)
(2.65053e-06 3.43536e-06 4.8161e-06)
(3.8423e-06 -0.000292456 -1.77074e-06)
(-2.14172e-06 -0.000219236 5.96977e-06)
(-2.27784e-06 -2.66062e-05 4.09042e-07)
(2.69415e-07 3.7187e-05 2.53577e-06)
(2.85052e-08 1.27249e-05 1.79738e-06)
(3.60434e-11 -2.2193e-08 1.34614e-07)
(-1.03265e-09 7.85423e-08 1.04776e-07)
(1.11986e-08 9.2372e-07 2.79616e-08)
(5.05304e-10 1.78716e-06 7.0555e-08)
(-2.4628e-08 -5.56316e-08 7.07492e-08)
(-9.09014e-09 1.1616e-06 -4.26929e-08)
(3.49533e-09 1.33075e-06 -6.95266e-09)
(6.42102e-09 1.30451e-06 -1.09262e-07)
(1.21151e-08 7.36039e-07 1.85052e-08)
(1.76258e-08 2.57088e-06 1.11084e-08)
(6.05407e-08 -5.36819e-06 -1.60075e-06)
(2.12354e-06 -8.94274e-05 -8.38516e-06)
(-2.68117e-07 -4.11029e-05 7.6536e-07)
(-2.30739e-08 -5.2991e-05 2.30904e-06)
(4.70532e-07 5.08039e-05 8.30263e-07)
(1.13416e-07 5.74709e-05 1.48981e-06)
(-9.27578e-08 5.18862e-05 1.72169e-06)
(-2.03776e-07 2.94085e-05 -1.72868e-08)
(3.33284e-08 -4.36716e-05 2.88468e-06)
(1.48318e-08 -1.11694e-05 1.54171e-06)
(1.98491e-08 5.71633e-07 1.85746e-07)
(-2.63762e-09 2.48419e-09 8.92982e-08)
(-2.49526e-08 2.44187e-07 1.22054e-08)
(1.85855e-10 6.84903e-07 7.25667e-08)
(-1.91031e-09 6.77608e-07 5.7616e-08)
(-8.56231e-10 2.4983e-07 -2.20412e-08)
(2.35738e-09 1.12874e-07 -3.81728e-08)
(-4.13167e-09 2.3661e-07 3.01018e-08)
(-1.09209e-08 1.99789e-06 -2.37353e-08)
(-1.6076e-07 7.63502e-07 4.9482e-08)
(8.84368e-08 6.96889e-06 -7.80235e-07)
(-1.28616e-06 -0.00364179 8.86273e-06)
(-1.39615e-07 1.75432e-06 1.78816e-06)
(-6.45365e-08 4.89159e-05 -1.3902e-06)
(-0.00627873 0.00243746 -0.0401921)
(4.44648e-06 0.00235144 -0.039041)
(0.00138766 0.00226944 -0.0421277)
(0.00257106 0.00207287 -0.0273979)
(0.00213833 0.0012619 -0.0105386)
(0.000871905 0.00028651 0.000756611)
(3.33283e-05 0.000190807 0.000151654)
(-5.17728e-05 0.000288636 0.000425045)
(0.00128987 0.000318362 0.000287615)
(-0.00183118 -0.00721037 0.00344365)
(-0.00274723 0.000253846 0.00016677)
(-0.00014851 -0.000251588 0.00435201)
(-0.000241878 0.000743356 -0.00137603)
(-3.10176e-05 0.000591021 -0.00108307)
(-0.000926719 0.0109502 -0.000260043)
(-0.0019744 0.00155832 -0.0076067)
(-0.000667601 0.00157001 -0.0168623)
(-0.00210879 0.00162826 -0.0203227)
(-0.00433671 0.00247879 -0.0418149)
(0.00888289 0.00408836 -0.0610101)
(-0.0010897 0.0061737 -0.00178711)
(-8.15787e-05 0.0070455 -0.00215879)
(7.34667e-05 0.00640803 -0.00215409)
(0.000256623 0.00118568 -0.00604143)
(8.22781e-05 0.00087868 5.78985e-06)
(-0.000124311 -0.000117815 -0.00135931)
(3.05649e-05 -1.95655e-05 -0.00155425)
(4.86914e-05 -2.9192e-05 -0.000692433)
(-2.22265e-05 6.85512e-06 -0.00088293)
(-1.16038e-05 -0.00917507 -0.00104087)
(-0.000377453 2.14279e-05 -0.00156643)
(0.00135123 -0.000562294 -0.00561542)
(0.00114499 -0.00379379 0.00624961)
(0.000744846 0.000909758 -0.00103608)
(-0.00265963 0.0161787 0.000672327)
(-0.00420273 0.00101071 -0.000173629)
(-0.000541308 0.00374493 -0.00241697)
(0.000434826 0.00240295 -0.00183654)
(0.000409878 0.00522153 -0.00163637)
(0.00103395 0.00741713 -0.00156478)
(9.19218e-08 6.26064e-05 1.44392e-05)
(-3.46795e-05 -3.76426e-05 -0.000453742)
(-1.11508e-05 5.31325e-05 -6.05831e-05)
(3.6547e-05 -0.000701181 -0.00131838)
(6.3888e-05 7.8319e-06 0.000457972)
(-2.03497e-05 6.76366e-05 -1.61457e-05)
(1.78851e-05 0.000106896 -0.00013346)
(-6.53069e-06 3.55353e-05 -0.000172301)
(-3.17536e-06 4.97387e-05 -0.000285022)
(1.41444e-05 5.51657e-05 -0.000201418)
(-0.00014897 4.00283e-05 -6.10846e-05)
(0.0143169 0.000231469 -0.00138505)
(0.0205241 -0.010888 -0.0182105)
(0.000848137 -0.000758925 -0.021485)
(0.000339691 -7.52123e-05 1.35337e-05)
(3.99953e-05 6.4414e-05 1.4345e-05)
(2.60266e-05 -0.000216069 -5.30831e-05)
(-6.55572e-06 3.66366e-05 2.92265e-05)
(-2.18244e-05 -0.000119382 3.09205e-05)
(-2.80564e-05 -0.000558081 -4.63845e-05)
(2.17896e-07 4.97391e-05 2.59356e-05)
(2.31064e-07 6.45212e-05 1.13214e-05)
(-2.19093e-06 3.21214e-05 2.11329e-05)
(5.69601e-05 -0.000341328 -0.000267708)
(2.64732e-05 1.64211e-05 0.000234776)
(-1.28619e-05 3.16875e-05 -9.99197e-05)
(4.85614e-06 1.4704e-05 -2.21541e-05)
(7.35621e-07 1.04485e-05 -2.07672e-06)
(-3.03184e-06 1.78708e-05 7.11676e-06)
(-8.95266e-06 1.45785e-05 -4.49423e-05)
(-1.04855e-05 -4.91927e-06 -0.000100531)
(-1.63493e-05 0.00011136 -0.000243778)
(-4.29196e-06 -0.00224732 -0.00047621)
(1.68016e-05 -0.00173623 -0.000291344)
(2.28081e-05 -1.25285e-05 -0.000109543)
(1.95614e-05 5.17245e-05 -5.91468e-05)
(-4.69795e-06 -8.61515e-05 -3.11077e-05)
(-1.39947e-06 8.6755e-05 5.12602e-05)
(4.64289e-06 4.48805e-05 7.14251e-06)
(-7.50377e-06 6.02245e-05 1.295e-05)
(-7.77019e-06 1.49647e-05 7.32e-06)
(2.22173e-06 1.04306e-05 -4.0157e-07)
(-2.7491e-06 1.70133e-05 -5.78314e-06)
(-8.80192e-06 0.000305103 -0.000349264)
(-8.62643e-05 1.84301e-05 0.000416677)
(-2.73157e-05 4.12494e-06 1.82629e-05)
(-1.3785e-06 -8.18314e-07 1.69432e-05)
(-2.90225e-06 -8.08906e-07 -1.32215e-05)
(1.69928e-06 -3.30293e-06 -3.36468e-05)
(2.99366e-06 9.40844e-07 1.64587e-05)
(2.7081e-06 5.20694e-06 1.62651e-05)
(1.32426e-05 1.71477e-05 6.96347e-05)
(8.30995e-06 1.98946e-05 0.000213527)
(-1.90015e-05 5.66078e-06 0.000173614)
(3.19407e-06 1.87262e-07 -0.000136265)
(2.3477e-05 6.34083e-05 -9.53291e-05)
(-9.37686e-06 -3.33508e-05 -1.40511e-05)
(-2.92128e-06 0.000144329 2.77159e-05)
(5.50749e-06 -2.5714e-05 5.45071e-05)
(2.35593e-06 7.77605e-05 2.66441e-05)
(-5.77828e-06 -0.000314619 8.07612e-06)
(1.29145e-06 -6.3692e-05 -2.70125e-05)
(-1.44826e-05 -8.85286e-05 1.59509e-05)
(4.82354e-05 0.000404976 -0.000488594)
(-6.5421e-05 -1.78249e-05 0.00045253)
(-3.19073e-05 -6.54478e-06 2.25231e-05)
(-1.43568e-06 -6.10658e-06 6.5476e-07)
(-2.02893e-06 -3.59411e-06 -6.48412e-06)
(-1.46414e-06 -4.38455e-06 -3.31419e-05)
(-7.21532e-07 -8.81016e-06 -3.24771e-05)
(3.25555e-06 -7.26823e-06 -5.2893e-05)
(2.56634e-06 -6.2248e-06 1.53139e-05)
(-6.64931e-06 -1.8371e-05 -1.26916e-05)
(-5.45e-06 -2.15895e-05 -9.59745e-05)
(1.77944e-05 1.18702e-05 -0.000128169)
(9.4782e-06 6.40556e-05 -0.000255997)
(-1.42364e-05 -2.87655e-06 -5.67628e-06)
(2.08058e-06 2.75545e-05 -5.22051e-06)
(2.01487e-05 0.000179685 3.92048e-05)
(-2.0235e-05 0.000147874 4.47836e-05)
(6.85326e-06 -5.42368e-06 -2.1858e-05)
(1.20891e-06 1.25232e-05 -3.66212e-06)
(-2.28372e-06 -3.1508e-05 4.58359e-06)
(0.000181492 0.000882869 -0.00021525)
(9.67244e-05 -3.95312e-05 0.000183525)
(-1.5308e-05 -9.48414e-06 -6.2628e-05)
(8.99088e-07 -7.13781e-06 -6.58529e-05)
(-1.35577e-06 -6.22546e-06 -5.83311e-05)
(-2.75413e-06 -7.66148e-06 -8.88262e-05)
(7.47378e-07 -7.53016e-06 -0.000119613)
(4.33381e-06 -4.72946e-06 -7.71411e-05)
(1.0988e-06 -5.17407e-06 -3.1223e-05)
(-8.68488e-06 -6.01983e-06 -5.63756e-05)
(2.68039e-06 5.74499e-07 -0.000171995)
(3.84661e-05 5.24984e-05 -0.000395545)
(7.48107e-06 3.07951e-05 -0.000350134)
(-1.90553e-05 -3.30011e-06 -6.07792e-06)
(1.12412e-08 3.6853e-06 -1.27504e-05)
(2.32615e-06 -2.15655e-05 -1.34168e-05)
(-1.49747e-05 0.000210675 2.54577e-05)
(1.44396e-06 -2.71789e-05 2.14268e-05)
(-3.62053e-06 3.96092e-07 1.02633e-05)
(-9.36217e-06 0.000192411 1.13928e-06)
(4.66202e-05 0.000262994 -4.70044e-05)
(4.34423e-05 -1.65885e-05 -0.000432649)
(4.88046e-06 -3.63715e-05 -0.000109239)
(2.83963e-08 -3.0812e-05 -0.000106618)
(-2.33789e-06 -2.56916e-05 -9.75798e-05)
(-2.39034e-06 -2.34247e-05 -0.000150447)
(2.33037e-06 -2.19638e-05 -0.000149091)
(4.69602e-06 -2.51612e-05 -0.000106112)
(2.55079e-07 -3.40883e-05 -6.63176e-05)
(-7.63953e-07 -3.04975e-05 -0.000111072)
(4.72376e-05 8.28242e-06 -0.000154864)
(3.8744e-05 7.3776e-05 -0.000493571)
(-1.26236e-05 1.72003e-05 -0.00110809)
(-8.9489e-06 7.77656e-06 3.40348e-06)
(4.16594e-07 -0.000183585 -1.0125e-05)
(-3.89091e-06 -4.40716e-05 -1.80856e-05)
(1.32252e-05 2.71208e-05 -3.26238e-05)
(2.65576e-06 0.000101481 6.28328e-06)
(-3.14819e-06 5.73119e-06 6.5031e-06)
(-3.1031e-06 1.86737e-05 1.64597e-05)
(-3.95908e-06 1.23329e-05 4.38115e-06)
(-4.80464e-05 1.5625e-05 -0.00121672)
(-1.88418e-05 -4.63509e-06 -0.00110143)
(1.11685e-05 1.58216e-05 -0.00105523)
(6.24178e-06 1.97953e-05 -0.000850456)
(2.77739e-06 3.77282e-05 -0.000973962)
(-2.09392e-06 3.54175e-05 -0.000988381)
(-7.2161e-06 1.8217e-05 -0.000901224)
(-2.71972e-06 2.09546e-05 -0.00111669)
(2.57018e-05 2.71481e-05 -0.00112193)
(9.7299e-05 4.4642e-05 -0.00105144)
(3.93651e-05 3.02722e-05 -0.00079453)
(-4.7645e-05 3.872e-06 0.000151172)
(-1.32768e-05 4.10647e-05 1.26162e-05)
(-1.6842e-07 -8.5426e-06 -9.51155e-06)
(-7.09401e-06 0.000203189 2.02729e-05)
(7.40331e-06 -3.74774e-06 6.19594e-06)
(2.7003e-06 1.18398e-05 -6.90978e-06)
(1.27544e-07 2.2405e-05 2.11013e-05)
(7.19339e-07 -1.23012e-05 -2.39247e-06)
(2.07579e-06 -9.29371e-06 7.44419e-07)
(-1.14519e-06 1.67203e-05 -6.33423e-07)
(-1.61425e-05 -2.1774e-06 -0.000100456)
(-1.86631e-06 -3.2185e-06 -0.000143781)
(3.19758e-07 -3.1515e-05 -0.000213456)
(6.58787e-07 -3.58612e-05 -0.000262112)
(-3.09337e-06 -3.17177e-05 -0.000249552)
(-7.44195e-06 -9.41688e-05 -0.000419875)
(-2.86427e-06 -4.81004e-05 -0.000388281)
(1.20517e-05 -6.16617e-05 -0.000415979)
(3.23557e-05 -0.000106654 -0.000304511)
(-3.38805e-05 -3.37636e-05 -1.15719e-05)
(-2.43085e-05 -6.32992e-05 0.000440354)
(-5.21507e-06 1.42681e-05 3.79932e-06)
(1.59499e-06 2.43118e-05 8.40734e-06)
(-6.43883e-06 2.88666e-05 1.43102e-05)
(-2.52781e-07 -0.00038155 1.15021e-05)
(-8.14125e-07 8.96796e-06 3.53542e-06)
(-5.92947e-06 3.80619e-05 1.31388e-05)
(-1.8582e-06 -1.08879e-05 -6.61856e-06)
(6.41551e-06 -1.19312e-05 3.05539e-06)
(9.54382e-07 2.89113e-06 1.41662e-07)
(-7.73294e-08 -6.12399e-09 5.482e-08)
(4.98334e-09 2.5655e-08 -3.82479e-09)
(-6.23155e-10 9.90911e-08 -1.11881e-08)
(-3.59488e-09 2.53162e-07 -2.58849e-08)
(-3.47779e-09 2.08568e-07 -3.08202e-08)
(2.2065e-09 -2.32501e-08 -3.22465e-08)
(6.70709e-09 1.60187e-07 -1.89364e-08)
(4.84137e-09 2.50443e-07 -1.23393e-08)
(2.18542e-08 2.64948e-07 1.47129e-09)
(5.56737e-08 -4.62562e-07 1.85033e-07)
(5.07461e-06 -4.41576e-06 6.27925e-07)
(-2.47626e-08 7.50771e-06 1.48582e-05)
(-3.54904e-06 1.05261e-06 -1.11701e-06)
(-2.2174e-06 8.92662e-05 1.83391e-05)
(-4.6801e-06 0.000223845 -4.4324e-06)
(-3.81053e-06 1.32988e-05 5.42895e-06)
(-2.21052e-06 2.11102e-05 -1.49223e-05)
(7.70604e-06 -0.000290421 -5.71023e-06)
(2.5915e-06 2.40478e-05 -1.52795e-06)
(7.86373e-07 4.183e-06 -3.2646e-07)
(6.05622e-08 5.59151e-07 1.99869e-07)
(-1.58871e-07 -3.97243e-09 6.34135e-08)
(-5.1166e-09 -4.92917e-08 -4.31588e-09)
(-3.35927e-09 1.2674e-07 -3.01226e-08)
(5.63676e-11 1.15088e-08 -3.17821e-08)
(5.20624e-10 -4.61957e-07 -4.80134e-08)
(2.55685e-09 -2.60301e-08 -3.84461e-08)
(-5.60938e-10 1.63039e-07 -2.62384e-08)
(-3.17484e-09 3.1796e-07 -2.49484e-08)
(-1.04429e-07 9.16958e-07 -1.13202e-07)
(-6.7003e-07 2.16418e-06 -2.03155e-07)
(1.8377e-07 9.10143e-05 7.15086e-09)
(-1.0954e-06 4.25761e-06 1.52006e-06)
(4.19722e-07 9.00182e-06 -2.42361e-07)
(-5.20847e-06 -3.1961e-05 -2.69274e-05)
(-8.36074e-07 5.22502e-06 2.21861e-06)
(4.98649e-06 -0.000293533 1.52878e-05)
(4.90915e-06 3.2508e-05 -3.32918e-05)
(-3.53084e-06 -3.96168e-06 -3.02215e-06)
(-3.56673e-07 1.41193e-06 -3.50695e-07)
(1.06495e-07 8.12165e-06 4.2259e-08)
(-1.17198e-08 9.90743e-08 1.76847e-07)
(-7.82098e-09 -5.3253e-08 9.84911e-09)
(1.38903e-09 -1.40895e-07 -2.94055e-08)
(1.33928e-08 -2.20653e-07 -1.87324e-08)
(1.4939e-08 -6.91546e-07 -1.12112e-08)
(1.42772e-09 -4.14732e-07 5.955e-08)
(-1.49037e-08 -1.11006e-07 2.49564e-09)
(2.38025e-07 5.36693e-08 -3.82322e-08)
(-1.05773e-07 2.25232e-07 -2.62436e-07)
(-5.18982e-06 1.29185e-06 -1.17072e-06)
(8.74327e-09 8.33951e-07 -1.29935e-05)
(1.94196e-06 1.53458e-06 -8.96581e-07)
(2.3783e-06 1.27341e-05 -9.72763e-06)
(1.1301e-05 6.97455e-06 4.26936e-06)
(1.80801e-06 8.63621e-06 3.69092e-06)
(-2.30406e-07 8.47883e-05 -6.54124e-06)
(-3.69097e-06 -1.55774e-05 -2.22794e-06)
(-3.35424e-07 3.41938e-06 1.84905e-06)
(-1.47413e-07 1.56127e-06 2.71436e-08)
(3.35244e-08 4.02932e-08 -4.6107e-07)
(1.263e-07 -4.79195e-07 3.00848e-08)
(-1.17226e-09 7.55968e-08 4.09226e-08)
(1.28444e-08 -2.97598e-07 4.66391e-08)
(1.52129e-08 -2.71661e-07 3.70823e-08)
(3.9586e-08 -7.98034e-07 7.51487e-08)
(2.9061e-08 1.1199e-06 3.87733e-07)
(-2.42311e-08 -1.15389e-07 5.59383e-08)
(-2.3546e-07 3.00567e-07 2.04805e-08)
(1.15478e-09 5.93888e-06 3.65415e-07)
(-1.03725e-07 2.88444e-07 3.66372e-08)
(-6.89745e-08 4.81505e-06 -1.81446e-06)
(-7.05358e-07 4.14936e-06 1.85749e-06)
(5.48844e-06 -9.40509e-06 1.6166e-05)
(1.07398e-05 6.86045e-05 2.54496e-05)
(1.27979e-06 1.75365e-05 1.54151e-06)
(1.24002e-06 -2.79729e-05 2.14063e-05)
(-4.23033e-06 1.82273e-05 -2.246e-06)
(-1.43485e-06 6.42902e-06 3.66944e-06)
(-1.84283e-07 5.80049e-07 2.21051e-07)
(-1.92297e-08 3.27295e-07 5.70514e-08)
(-2.02247e-09 1.02014e-07 2.40714e-08)
(9.53774e-09 -2.6666e-07 9.07414e-09)
(2.09962e-08 -4.59113e-07 6.03606e-08)
(-3.64222e-08 -3.66942e-07 1.62046e-07)
(1.46508e-06 8.68727e-08 3.4743e-07)
(5.39547e-08 6.12727e-07 2.40222e-06)
(-1.30018e-06 5.63322e-07 1.2485e-07)
(-4.63431e-07 -3.06736e-07 4.31207e-07)
(-2.1565e-07 -9.46656e-06 -7.47355e-07)
(2.19276e-07 7.48799e-07 7.79653e-08)
(-6.03121e-08 4.85276e-06 -1.24517e-06)
(4.43585e-06 5.57344e-06 -8.63581e-07)
(3.04677e-06 4.2029e-05 1.18621e-05)
(-6.15059e-06 2.25958e-05 2.81691e-05)
(1.39259e-06 1.50735e-05 -3.10439e-07)
(4.12449e-06 6.14435e-05 2.17656e-05)
(-1.64324e-06 5.3075e-07 7.32361e-06)
(-2.62868e-06 2.38177e-06 6.72448e-07)
(2.52629e-08 6.07007e-07 4.44374e-07)
(-1.19206e-07 2.4599e-07 -1.3602e-08)
(-6.78257e-09 3.33418e-08 -2.59643e-09)
(1.5286e-08 -6.51047e-08 9.98861e-10)
(1.29369e-08 2.44196e-07 6.89532e-08)
(3.38849e-09 3.86196e-07 8.87935e-08)
(9.28728e-08 -3.45756e-07 9.52537e-09)
(-8.39793e-08 2.23508e-05 2.13123e-07)
(-4.09048e-07 4.11155e-07 4.47311e-07)
(-1.63867e-08 2.51333e-06 -1.66937e-07)
(1.91406e-07 -1.17395e-06 7.71452e-08)
(-5.72337e-08 8.74285e-07 -1.82933e-07)
(-1.92514e-07 6.36464e-06 -1.47494e-06)
(-1.99016e-06 -3.50272e-06 -3.20409e-06)
(-6.37408e-06 1.98119e-05 1.26105e-05)
(-5.57067e-06 3.85566e-05 -1.13516e-05)
(-1.16763e-06 3.75764e-05 5.69874e-06)
(-1.11131e-07 2.96522e-05 -3.50361e-06)
(2.43176e-06 9.92258e-06 4.25988e-06)
(1.19011e-06 2.39181e-06 -7.65094e-07)
(-6.20012e-08 3.4482e-06 -1.83442e-08)
(5.24962e-09 4.86899e-07 5.24053e-09)
(-2.60327e-09 -4.96312e-08 -2.01283e-08)
(1.26614e-08 -1.63293e-07 -4.8604e-08)
(8.56274e-09 3.7563e-07 1.38694e-08)
(1.26894e-08 5.40803e-07 -5.87712e-08)
(-1.48273e-06 3.93445e-07 -1.35756e-07)
(-3.83238e-08 4.00168e-06 -1.51876e-06)
(1.25729e-06 3.15151e-06 -9.90303e-08)
(1.71171e-07 -4.89428e-06 -5.36526e-07)
(1.60549e-07 -1.67696e-07 2.23735e-07)
(-3.25731e-08 7.91736e-07 -1.0374e-07)
(-5.52874e-08 5.87221e-06 -1.56474e-06)
(2.08131e-07 9.84253e-07 -3.13409e-06)
(-3.13223e-06 3.00012e-05 8.06113e-07)
(-4.58057e-06 -0.000109284 1.20559e-05)
(-1.06199e-06 5.72638e-05 7.40596e-06)
(-2.80072e-06 -2.1911e-05 3.85832e-06)
(5.23103e-07 -2.89105e-05 4.50242e-06)
(1.06351e-06 -8.18391e-07 2.60455e-07)
(4.01062e-08 1.60501e-06 -3.34929e-07)
(1.01137e-07 6.94356e-07 1.94784e-07)
(-9.43822e-09 -3.6298e-07 -4.27897e-08)
(7.06745e-09 -6.1777e-07 -2.8356e-08)
(7.60932e-09 3.65687e-07 -7.67122e-09)
(-1.79512e-08 6.19774e-07 -3.78577e-09)