/*--------------------------------*- C++ -*----------------------------------*\
| =========                 |                                                 |
| \\      /  F ield         | OpenFOAM: The Open Source CFD Toolbox           |
|  \\    /   O peration     | Version:  2.3.0                                 |
|   \\  /    A nd           | Web:      www.OpenFOAM.org                      |
|    \\/     M anipulation  |                                                 |
\*---------------------------------------------------------------------------*/
FoamFile
{
    version     2.0;
    format      ascii;
    class       volScalarField;
    location    "3.30001";
    object      alpha.water;
}
// * * * * * * * * * * * * * * * * * * * * * * * * * * * * * * * * * * * * * //

dimensions      [0 0 0 0 0 0 0];

internalField   nonuniform List<scalar> 
10000
(
0.997345
0.997391
0.996508
0.980334
0.667446
0.684638
0.654435
0.471086
0.457923
0.539468
0.467274
0.333344
0.338616
0.47296
0.559356
0.841175
0.991172
0.996049
0.996793
0.996954
1
1
0.999992
0.987925
0.494266
0.781913
0.80773
0.816702
0.773849
0.718576
0.776157
0.138926
0.101764
0.116662
0.171191
0.733181
0.99798
1
1
1
1
1
1
0.999941
0.96462
0.787878
0.674029
0.699604
0.633913
0.651075
0.666442
0.655776
0.506397
0.516117
0.57173
0.98251
0.999981
1
1
1
1
1
1
0.999994
0.989452
0.611991
0.584177
0.614948
0.629077
0.6114
0.604927
0.636297
0.667121
0.651046
0.671931
0.990211
0.999994
1
1
1
1
1
1
0.999999
0.990396
0.65088
0.631987
0.608733
0.647416
0.653717
0.615608
0.65384
0.626532
0.656843
0.66489
0.988982
0.999999
1
1
1
1
1
1
1
0.991706
0.674293
0.588627
0.628064
0.691398
0.604153
0.605246
0.641352
0.623524
0.648669
0.678744
0.991492
1
1
1
1
1
1
1
1
0.995815
0.662447
0.608397
0.665406
0.656818
0.651337
0.624682
0.645252
0.670296
0.634028
0.714296
0.998
1
1
1
1
1
1
1
1
0.998908
0.794409
0.753277
0.618755
0.6266
0.627672
0.618857
0.646995
0.708745
0.759244
0.867617
0.999819
1
1
1
1
1
1
1
1
0.999994
0.999471
0.999521
0.998616
0.998408
0.998205
0.99819
0.99808
0.99829
0.998894
0.999459
0.999998
1
1
1
1
1
1
1
1
1
1
1
1
1
1
1
1
1
1
1
1
1
1
1
1
1
1
1
1
1
1
1
1
1
1
1
1
1
1
1
1
1
1
1
1
1
1
1
1
1
1
1
1
1
1
1
1
1
1
1
1
1
1
1
1
1
1
1
1
1
1
1
1
1
1
1
1
1
1
1
1
1
1
1
1
1
1
1
1
1
1
1
1
1
1
1
1
1
1
1
1
1
1
1
1
1
1
1
1
1
1
1
1
1
1
1
1
1
1
1
1
1
1
1
1
1
1
1
1
1
1
1
1
1
1
1
1
1
1
1
1
1
1
1
1
1
1
1
1
1
1
1
1
1
1
1
1
1
1
1
1
1
1
1
1
1
1
1
1
1
1
1
1
1
1
1
1
1
1
1
1
1
1
1
1
1
1
1
1
1
1
1
1
1
1
1
1
1
1
1
1
1
1
1
1
1
1
1
1
1
1
1
1
1
1
1
1
1
1
1
1
1
1
1
1
0.99723
0.997348
0.996459
0.979118
0.659293
0.684294
0.63999
0.431089
0.436934
0.533093
0.467309
0.33486
0.331351
0.467098
0.557572
0.82351
0.990931
0.996018
0.996777
0.996864
1
1
0.999973
0.966222
0.455745
0.784735
0.807491
0.817557
0.776162
0.719139
0.777851
0.133285
0.0919898
0.108655
0.15573
0.648595
0.997362
1
1
1
1
1
1
0.99992
0.9606
0.79343
0.676723
0.702014
0.634157
0.652768
0.668679
0.655312
0.493217
0.508876
0.559113
0.972724
0.999968
1
1
1
1
1
1
0.999994
0.988704
0.61139
0.583414
0.615048
0.628944
0.609663
0.604782
0.635074
0.668795
0.650734
0.672496
0.989777
0.999994
1
1
1
1
1
1
0.999999
0.989089
0.64958
0.631527
0.608602
0.644785
0.655148
0.615853
0.654431
0.626898
0.656998
0.664732
0.98803
0.999999
1
1
1
1
1
1
1
0.989641
0.674913
0.588707
0.626336
0.691819
0.603036
0.603961
0.641405
0.622389
0.649589
0.678032
0.989711
1
1
1
1
1
1
1
1
0.995066
0.661358
0.607184
0.666254
0.657927
0.65203
0.624977
0.645249
0.669181
0.632404
0.708813
0.997337
1
1
1
1
1
1
1
1
0.998694
0.786781
0.747685
0.612921
0.619363
0.619666
0.610678
0.636316
0.695882
0.747232
0.857863
0.999729
1
1
1
1
1
1
1
1
0.999991
0.99944
0.999506
0.998574
0.99834
0.998118
0.998111
0.99795
0.998132
0.998821
0.999408
0.999998
1
1
1
1
1
1
1
1
1
1
1
1
1
1
1
1
1
1
1
1
1
1
1
1
1
1
1
1
1
1
1
1
1
1
1
1
1
1
1
1
1
1
1
1
1
1
1
1
1
1
1
1
1
1
1
1
1
1
1
1
1
1
1
1
1
1
1
1
1
1
1
1
1
1
1
1
1
1
1
1
1
1
1
1
1
1
1
1
1
1
1
1
1
1
1
1
1
1
1
1
1
1
1
1
1
1
1
1
1
1
1
1
1
1
1
1
1
1
1
1
1
1
1
1
1
1
1
1
1
1
1
1
1
1
1
1
1
1
1
1
1
1
1
1
1
1
1
1
1
1
1
1
1
1
1
1
1
1
1
1
1
1
1
1
1
1
1
1
1
1
1
1
1
1
1
1
1
1
1
1
1
1
1
1
1
1
1
1
1
1
1
1
1
1
1
1
1
1
1
1
1
1
1
1
1
1
1
1
1
1
1
1
1
1
1
1
1
1
1
1
1
1
1
1
0.997176
0.997319
0.996421
0.979079
0.656445
0.684588
0.630701
0.41045
0.426854
0.530663
0.472162
0.342308
0.331003
0.470175
0.571732
0.817575
0.990795
0.996002
0.996766
0.996825
1
1
0.999966
0.95486
0.425047
0.786342
0.807481
0.817933
0.777406
0.719446
0.778936
0.129146
0.0867149
0.104257
0.148614
0.586669
0.997276
1
1
1
1
1
1
0.999879
0.960165
0.797402
0.677995
0.703288
0.634295
0.653795
0.670069
0.656543
0.486042
0.505598
0.551945
0.962111
0.999954
1
1
1
1
1
1
0.999994
0.988144
0.611053
0.582956
0.615113
0.628895
0.608644
0.604684
0.634287
0.669607
0.650551
0.672766
0.989623
0.999994
1
1
1
1
1
1
0.999999
0.98829
0.648868
0.631269
0.608551
0.643312
0.655958
0.616029
0.654769
0.62714
0.657066
0.664703
0.987705
0.999999
1
1
1
1
1
1
1
0.988832
0.675336
0.588749
0.625353
0.692017
0.60241
0.603207
0.641416
0.621675
0.650124
0.677705
0.988912
1
1
1
1
1
1
1
1
0.994842
0.660856
0.606577
0.666771
0.658646
0.652524
0.625265
0.645662
0.668725
0.631667
0.706121
0.996893
1
1
1
1
1
1
1
1
0.998616
0.782572
0.744682
0.609766
0.61544
0.61532
0.606237
0.630501
0.689015
0.740738
0.85248
0.999673
1
1
1
1
1
1
1
1
0.999988
0.999422
0.999497
0.99855
0.998302
0.998067
0.998068
0.997874
0.998044
0.998784
0.999382
0.999998
1
1
1
1
1
1
1
1
1
1
1
1
1
1
1
1
1
1
1
1
1
1
1
1
1
1
1
1
1
1
1
1
1
1
1
1
1
1
1
1
1
1
1
1
1
1
1
1
1
1
1
1
1
1
1
1
1
1
1
1
1
1
1
1
1
1
1
1
1
1
1
1
1
1
1
1
1
1
1
1
1
1
1
1
1
1
1
1
1
1
1
1
1
1
1
1
1
1
1
1
1
1
1
1
1
1
1
1
1
1
1
1
1
1
1
1
1
1
1
1
1
1
1
1
1
1
1
1
1
1
1
1
1
1
1
1
1
1
1
1
1
1
1
1
1
1
1
1
1
1
1
1
1
1
1
1
1
1
1
1
1
1
1
1
1
1
1
1
1
1
1
1
1
1
1
1
1
1
1
1
1
1
1
1
1
1
1
1
1
1
1
1
1
1
1
1
1
1
1
1
1
1
1
1
1
1
1
1
1
1
1
1
1
1
1
1
1
1
1
1
1
1
1
1
0.997181
0.99734
0.996466
0.981873
0.655022
0.684961
0.618693
0.387975
0.415015
0.528177
0.474236
0.348303
0.336883
0.480179
0.584134
0.818074
0.990791
0.996096
0.996844
0.996876
1
1
0.999971
0.955639
0.401076
0.788255
0.807548
0.818294
0.778778
0.719821
0.780403
0.125418
0.0805791
0.0991403
0.141513
0.527065
0.998125
1
1
1
1
1
1
0.999861
0.959828
0.80214
0.679427
0.704618
0.634471
0.655045
0.671813
0.659115
0.476488
0.502262
0.544334
0.945212
0.999922
1
1
1
1
1
1
0.999995
0.987289
0.610714
0.582452
0.615198
0.628854
0.607475
0.604566
0.633299
0.67053
0.650306
0.67292
0.989506
0.999994
1
1
1
1
1
1
0.999999
0.987376
0.648102
0.630992
0.608507
0.641675
0.656865
0.616247
0.655165
0.62744
0.657122
0.664641
0.98744
0.999998
1
1
1
1
1
1
1
0.988438
0.675878
0.588793
0.624252
0.692215
0.601707
0.60234
0.641412
0.620805
0.650722
0.677354
0.988115
1
1
1
1
1
1
1
1
0.9947
0.660313
0.605942
0.66737
0.659493
0.653126
0.625631
0.646025
0.668327
0.630941
0.703295
0.996324
1
1
1
1
1
1
1
1
0.998525
0.777816
0.741387
0.606312
0.61114
0.610553
0.601364
0.624111
0.681599
0.733633
0.84643
0.999614
1
1
1
1
1
1
1
1
0.999985
0.999401
0.999485
0.998522
0.998259
0.998006
0.998015
0.997784
0.997936
0.998731
0.999351
0.999997
1
1
1
1
1
1
1
1
1
1
1
1
1
1
1
1
1
1
1
1
1
1
1
1
1
1
1
1
1
1
1
1
1
1
1
1
1
1
1
1
1
1
1
1
1
1
1
1
1
1
1
1
1
1
1
1
1
1
1
1
1
1
1
1
1
1
1
1
1
1
1
1
1
1
1
1
1
1
1
1
1
1
1
1
1
1
1
1
1
1
1
1
1
1
1
1
1
1
1
1
1
1
1
1
1
1
1
1
1
1
1
1
1
1
1
1
1
1
1
1
1
1
1
1
1
1
1
1
1
1
1
1
1
1
1
1
1
1
1
1
1
1
1
1
1
1
1
1
1
1
1
1
1
1
1
1
1
1
1
1
1
1
1
1
1
1
1
1
1
1
1
1
1
1
1
1
1
1
1
1
1
1
1
1
1
1
1
1
1
1
1
1
1
1
1
1
1
1
1
1
1
1
1
1
1
1
1
1
1
1
1
1
1
1
1
1
1
1
1
1
1
1
1
1
0.997165
0.997344
0.99648
0.984023
0.654103
0.685005
0.603817
0.369443
0.403911
0.525629
0.476907
0.354068
0.343493
0.488564
0.594679
0.826808
0.990359
0.996143
0.996881
0.996898
1
1
0.999979
0.959136
0.380933
0.79024
0.808129
0.818606
0.780082
0.720152
0.782008
0.121643
0.0749869
0.0942051
0.134913
0.495939
0.998722
1
1
1
1
1
1
0.999856
0.957919
0.806227
0.680459
0.705677
0.634601
0.656195
0.673346
0.661949
0.4676
0.499504
0.536991
0.924889
0.999856
1
1
1
1
1
1
0.999995
0.986231
0.610494
0.582021
0.615308
0.628837
0.606361
0.604461
0.632321
0.671372
0.650015
0.673008
0.989482
0.999994
1
1
1
1
1
1
0.999999
0.986527
0.647362
0.630702
0.608474
0.640131
0.657721
0.616472
0.655524
0.627773
0.65716
0.66459
0.987321
0.999998
1
1
1
1
1
1
1
0.988366
0.676485
0.588847
0.623206
0.692383
0.601055
0.601506
0.641419
0.619899
0.651288
0.677085
0.987477
1
1
1
1
1
1
1
1
0.994634
0.659832
0.605383
0.667957
0.660342
0.653755
0.626053
0.646564
0.668082
0.630359
0.70087
0.995685
1
1
1
1
1
1
1
1
0.998416
0.773424
0.738413
0.603193
0.607256
0.606249
0.596964
0.618318
0.675
0.727248
0.840811
0.999549
1
1
1
1
1
1
1
1
0.999984
0.999386
0.999475
0.998501
0.998226
0.997957
0.997972
0.997709
0.997845
0.998682
0.999325
0.999997
1
1
1
1
1
1
1
1
1
1
1
1
1
1
1
1
1
1
1
1
1
1
1
1
1
1
1
1
1
1
1
1
1
1
1
1
1
1
1
1
1
1
1
1
1
1
1
1
1
1
1
1
1
1
1
1
1
1
1
1
1
1
1
1
1
1
1
1
1
1
1
1
1
1
1
1
1
1
1
1
1
1
1
1
1
1
1
1
1
1
1
1
1
1
1
1
1
1
1
1
1
1
1
1
1
1
1
1
1
1
1
1
1
1
1
1
1
1
1
1
1
1
1
1
1
1
1
1
1
1
1
1
1
1
1
1
1
1
1
1
1
1
1
1
1
1
1
1
1
1
1
1
1
1
1
1
1
1
1
1
1
1
1
1
1
1
1
1
1
1
1
1
1
1
1
1
1
1
1
1
1
1
1
1
1
1
1
1
1
1
1
1
1
1
1
1
1
1
1
1
1
1
1
1
1
1
1
1
1
1
1
1
1
1
1
1
1
1
1
1
1
1
1
1
0.997156
0.997354
0.9965
0.986664
0.654021
0.685056
0.585389
0.353387
0.392575
0.523809
0.479165
0.35906
0.348846
0.492877
0.599427
0.827923
0.98985
0.9962
0.996928
0.996926
1
1
0.999989
0.966438
0.36399
0.792397
0.809077
0.81889
0.781377
0.72049
0.783795
0.117889
0.0696295
0.0892516
0.127268
0.48684
0.998763
1
1
1
1
1
1
0.999871
0.954586
0.809902
0.681402
0.706531
0.634735
0.657396
0.674869
0.66523
0.459256
0.496763
0.529861
0.906536
0.999747
1
1
1
1
1
1
0.999994
0.985021
0.610346
0.581608
0.615434
0.62883
0.605232
0.604363
0.63122
0.672196
0.649526
0.673031
0.989495
0.999993
1
1
1
1
1
1
0.999998
0.985867
0.646639
0.630412
0.60845
0.63861
0.658571
0.616716
0.655887
0.62814
0.657172
0.664473
0.987272
0.999997
1
1
1
1
1
1
1
0.988476
0.677132
0.588901
0.622166
0.692533
0.600409
0.600658
0.641413
0.618903
0.651848
0.676842
0.986979
1
1
1
1
1
1
1
1
0.994604
0.659344
0.604862
0.668557
0.66122
0.654426
0.626523
0.647179
0.667954
0.629861
0.698629
0.994932
1
1
1
1
1
1
1
1
0.998247
0.769065
0.735543
0.600182
0.603512
0.602104
0.592717
0.612731
0.668744
0.721129
0.835166
0.999458
1
1
1
1
1
1
1
1
0.999984
0.999376
0.999469
0.998487
0.998208
0.997928
0.997944
0.997664
0.997788
0.998647
0.999308
0.999996
1
1
1
1
1
1
1
1
1
1
1
1
1
1
1
1
1
1
1
1
1
1
1
1
1
1
1
1
1
1
1
1
1
1
1
1
1
1
1
1
1
1
1
1
1
1
1
1
1
1
1
1
1
1
1
1
1
1
1
1
1
1
1
1
1
1
1
1
1
1
1
1
1
1
1
1
1
1
1
1
1
1
1
1
1
1
1
1
1
1
1
1
1
1
1
1
1
1
1
1
1
1
1
1
1
1
1
1
1
1
1
1
1
1
1
1
1
1
1
1
1
1
1
1
1
1
1
1
1
1
1
1
1
1
1
1
1
1
1
1
1
1
1
1
1
1
1
1
1
1
1
1
1
1
1
1
1
1
1
1
1
1
1
1
1
1
1
1
1
1
1
1
1
1
1
1
1
1
1
1
1
1
1
1
1
1
1
1
1
1
1
1
1
1
1
1
1
1
1
1
1
1
1
1
1
1
1
1
1
1
1
1
1
1
1
1
1
1
1
1
1
1
1
1
0.997142
0.997361
0.996514
0.989064
0.654494
0.684888
0.558656
0.340267
0.381969
0.522674
0.481507
0.363857
0.353712
0.494144
0.599441
0.817784
0.989123
0.996252
0.996973
0.996953
1
1
0.999995
0.975968
0.349125
0.794639
0.809958
0.819158
0.782621
0.720807
0.785765
0.114188
0.0647228
0.0845375
0.119513
0.462574
0.998204
1
1
1
1
1
1
0.9999
0.948795
0.813057
0.68216
0.707104
0.63485
0.658551
0.676309
0.66841
0.45188
0.494631
0.523635
0.891051
0.999625
1
1
1
1
1
1
0.999993
0.983924
0.610279
0.581237
0.615571
0.628836
0.604126
0.604288
0.630023
0.672969
0.649073
0.673011
0.989555
0.999993
1
1
1
1
1
1
0.999997
0.98556
0.645935
0.630095
0.608435
0.637143
0.65939
0.61697
0.656233
0.628541
0.657178
0.664288
0.987416
0.999997
1
1
1
1
1
1
1
0.989099
0.677752
0.588955
0.621155
0.692664
0.599792
0.599818
0.641408
0.617857
0.652384
0.676651
0.98665
1
1
1
1
1
1
1
1
0.994579
0.658844
0.60439
0.669148
0.662094
0.655114
0.627026
0.647877
0.667926
0.629451
0.696662
0.994095
1
1
1
1
1
1
1
1
0.997998
0.764941
0.732887
0.597375
0.600026
0.598241
0.588753
0.607507
0.662985
0.71549
0.829738
0.999315
1
1
1
1
1
1
1
1
0.999988
0.999374
0.999468
0.998485
0.998205
0.997925
0.997938
0.997658
0.997779
0.998639
0.999306
0.999997
1
1
1
1
1
1
1
1
1
1
1
1
1
1
1
1
1
1
1
1
1
1
1
1
1
1
1
1
1
1
1
1
1
1
1
1
1
1
1
1
1
1
1
1
1
1
1
1
1
1
1
1
1
1
1
1
1
1
1
1
1
1
1
1
1
1
1
1
1
1
1
1
1
1
1
1
1
1
1
1
1
1
1
1
1
1
1
1
1
1
1
1
1
1
1
1
1
1
1
1
1
1
1
1
1
1
1
1
1
1
1
1
1
1
1
1
1
1
1
1
1
1
1
1
1
1
1
1
1
1
1
1
1
1
1
1
1
1
1
1
1
1
1
1
1
1
1
1
1
1
1
1
1
1
1
1
1
1
1
1
1
1
1
1
1
1
1
1
1
1
1
1
1
1
1
1
1
1
1
1
1
1
1
1
1
1
1
1
1
1
1
1
1
1
1
1
1
1
1
1
1
1
1
1
1
1
1
1
1
1
1
1
1
1
1
1
1
1
1
1
1
1
1
1
0.997128
0.997368
0.996524
0.990958
0.657835
0.684409
0.512196
0.329947
0.372438
0.522261
0.483319
0.367594
0.357858
0.493301
0.593412
0.803948
0.988414
0.996303
0.99702
0.996982
1
1
0.999998
0.983526
0.3349
0.796923
0.811026
0.819407
0.783828
0.721113
0.787906
0.110523
0.059996
0.0797124
0.112286
0.415725
0.99622
1
1
1
1
1
1
0.999928
0.941188
0.815934
0.683032
0.707442
0.634966
0.659718
0.677752
0.67146
0.444525
0.493437
0.518886
0.878715
0.999482
1
1
1
1
1
1
0.999992
0.983216
0.61026
0.580898
0.615708
0.628863
0.603027
0.604232
0.628691
0.673703
0.648684
0.672867
0.989688
0.999993
1
1
1
1
1
1
0.999997
0.985514
0.645248
0.629762
0.608427
0.635717
0.660191
0.617238
0.656575
0.62897
0.657179
0.664052
0.987861
0.999997
1
1
1
1
1
1
1
0.989899
0.678304
0.589001
0.620162
0.692779
0.599191
0.598974
0.641391
0.616848
0.652905
0.676484
0.986519
1
1
1
1
1
1
1
1
0.994503
0.658294
0.603955
0.669739
0.662974
0.655822
0.62756
0.648634
0.668088
0.62911
0.694908
0.993272
1
1
1
1
1
1
1
1
0.997695
0.760991
0.730395
0.594757
0.596781
0.594651
0.585062
0.602648
0.6576
0.710262
0.824508
0.999121
1
1
1
1
1
1
1
1
0.999988
0.999373
0.999467
0.998484
0.998203
0.997925
0.997934
0.997655
0.997773
0.998635
0.999301
0.999997
1
1
1
1
1
1
1
1
1
1
1
1
1
1
1
1
1
1
1
1
1
1
1
1
1
1
1
1
1
1
1
1
1
1
1
1
1
1
1
1
1
1
1
1
1
1
1
1
1
1
1
1
1
1
1
1
1
1
1
1
1
1
1
1
1
1
1
1
1
1
1
1
1
1
1
1
1
1
1
1
1
1
1
1
1
1
1
1
1
1
1
1
1
1
1
1
1
1
1
1
1
1
1
1
1
1
1
1
1
1
1
1
1
1
1
1
1
1
1
1
1
1
1
1
1
1
1
1
1
1
1
1
1
1
1
1
1
1
1
1
1
1
1
1
1
1
1
1
1
1
1
1
1
1
1
1
1
1
1
1
1
1
1
1
1
1
1
1
1
1
1
1
1
1
1
1
1
1
1
1
1
1
1
1
1
1
1
1
1
1
1
1
1
1
1
1
1
1
1
1
1
1
1
1
1
1
1
1
1
1
1
1
1
1
1
1
1
1
1
1
1
1
1
1
0.997112
0.997376
0.99653
0.992398
0.662343
0.684876
0.438375
0.321728
0.365722
0.522878
0.485299
0.370379
0.360528
0.488638
0.586153
0.794364
0.987974
0.996352
0.997068
0.997011
1
1
0.999999
0.98958
0.319965
0.799206
0.813619
0.819653
0.784967
0.721393
0.790201
0.106924
0.0554202
0.0748572
0.105497
0.387602
0.99392
1
1
1
1
1
1
0.999955
0.932052
0.81879
0.684187
0.707562
0.635074
0.66084
0.679213
0.674365
0.43637
0.492495
0.515787
0.87135
0.999342
1
1
1
1
1
1
0.999991
0.98296
0.610311
0.580599
0.61584
0.62889
0.601957
0.604187
0.627257
0.674392
0.648317
0.672713
0.989842
0.999993
1
1
1
1
1
1
0.999996
0.985598
0.644623
0.629396
0.608423
0.634347
0.660959
0.617513
0.656903
0.62942
0.657165
0.663824
0.988372
0.999997
1
1
1
1
1
1
0.999999
0.99036
0.678759
0.589037
0.619201
0.692881
0.598619
0.59814
0.641375
0.615883
0.6534
0.676358
0.986541
1
1
1
1
1
1
1
1
0.994338
0.657696
0.603562
0.670312
0.663835
0.656531
0.628106
0.649433
0.668302
0.628833
0.69343
0.992592
1
1
1
1
1
1
1
1
0.997387
0.757341
0.728121
0.592364
0.593821
0.59138
0.581693
0.598206
0.652656
0.705523
0.819705
0.998913
1
1
1
1
1
1
1
1
0.999988
0.999372
0.999467
0.998486
0.998202
0.997937
0.997933
0.997665
0.997772
0.998637
0.999299
0.999997
1
1
1
1
1
1
1
1
1
1
1
1
1
1
1
1
1
1
1
1
1
1
1
1
1
1
1
1
1
1
1
1
1
1
1
1
1
1
1
1
1
1
1
1
1
1
1
1
1
1
1
1
1
1
1
1
1
1
1
1
1
1
1
1
1
1
1
1
1
1
1
1
1
1
1
1
1
1
1
1
1
1
1
1
1
1
1
1
1
1
1
1
1
1
1
1
1
1
1
1
1
1
1
1
1
1
1
1
1
1
1
1
1
1
1
1
1
1
1
1
1
1
1
1
1
1
1
1
1
1
1
1
1
1
1
1
1
1
1
1
1
1
1
1
1
1
1
1
1
1
1
1
1
1
1
1
1
1
1
1
1
1
1
1
1
1
1
1
1
1
1
1
1
1
1
1
1
1
1
1
1
1
1
1
1
1
1
1
1
1
1
1
1
1
1
1
1
1
1
1
1
1
1
1
1
1
1
1
1
1
1
1
1
1
1
1
1
1
1
1
1
1
1
1
0.997095
0.997383
0.996534
0.993355
0.667025
0.684056
0.373378
0.31526
0.361766
0.524915
0.487127
0.371849
0.361674
0.481988
0.579119
0.787126
0.987803
0.996399
0.997117
0.997042
1
1
1
0.99445
0.305008
0.80149
0.81873
0.819891
0.78607
0.721651
0.792621
0.10335
0.0509331
0.0697784
0.0982634
0.376465
0.992424
1
1
1
1
1
1
0.99998
0.922095
0.822004
0.685595
0.707561
0.635189
0.661954
0.680707
0.677463
0.427761
0.491647
0.513977
0.867676
0.99926
1
1
1
1
1
1
0.99999
0.982978
0.61043
0.580337
0.615965
0.628914
0.600908
0.604137
0.625739
0.675048
0.647991
0.672512
0.989958
0.999994
1
1
1
1
1
1
0.999996
0.986019
0.644108
0.629006
0.608422
0.633026
0.661701
0.617798
0.657222
0.629885
0.657152
0.663645
0.988882
0.999998
1
1
1
1
1
1
0.999999
0.990483
0.679106
0.589063
0.618265
0.692971
0.598067
0.597309
0.641353
0.614957
0.653876
0.676261
0.986911
1
1
1
1
1
1
1
1
0.994126
0.657042
0.603203
0.670876
0.664683
0.657241
0.628662
0.650268
0.668609
0.628607
0.692181
0.992129
1
1
1
1
1
1
1
1
0.997104
0.753956
0.726017
0.590169
0.591113
0.588393
0.57861
0.59413
0.648095
0.70119
0.815332
0.998735
1
1
1
1
1
1
1
1
0.999986
0.999372
0.999467
0.998488
0.9982
0.997942
0.997932
0.997675
0.99777
0.998649
0.999296
0.999997
1
1
1
1
1
1
1
1
1
1
1
1
1
1
1
1
1
1
1
1
1
1
1
1
1
1
1
1
1
1
1
1
1
1
1
1
1
1
1
1
1
1
1
1
1
1
1
1
1
1
1
1
1
1
1
1
1
1
1
1
1
1
1
1
1
1
1
1
1
1
1
1
1
1
1
1
1
1
1
1
1
1
1
1
1
1
1
1
1
1
1
1
1
1
1
1
1
1
1
1
1
1
1
1
1
1
1
1
1
1
1
1
1
1
1
1
1
1
1
1
1
1
1
1
1
1
1
1
1
1
1
1
1
1
1
1
1
1
1
1
1
1
1
1
1
1
1
1
1
1
1
1
1
1
1
1
1
1
1
1
1
1
1
1
1
1
1
1
1
1
1
1
1
1
1
1
1
1
1
1
1
1
1
1
1
1
1
1
1
1
1
1
1
1
1
1
1
1
1
1
1
1
1
1
1
1
1
1
1
1
1
1
1
1
1
1
1
1
1
1
1
1
1
1
0.997075
0.997389
0.996535
0.993953
0.670946
0.679749
0.341902
0.310668
0.359851
0.526553
0.489878
0.372387
0.362026
0.474582
0.57075
0.781633
0.987774
0.996445
0.997167
0.997073
1
1
1
0.997046
0.291065
0.8038
0.823542
0.82013
0.787147
0.721889
0.795152
0.099811
0.0467487
0.0646903
0.0905811
0.373866
0.991915
1
1
1
1
1
1
0.999987
0.911585
0.825775
0.686927
0.707104
0.635306
0.663021
0.682162
0.681059
0.420348
0.491144
0.512854
0.865465
0.999249
1
1
1
1
1
1
0.999988
0.983737
0.610516
0.580119
0.616084
0.628935
0.599894
0.604072
0.624195
0.67567
0.647698
0.672244
0.990012
0.999995
1
1
1
1
1
1
0.999996
0.986913
0.643708
0.628586
0.608428
0.631765
0.662406
0.618086
0.657528
0.63036
0.657141
0.663534
0.989224
0.999998
1
1
1
1
1
1
0.999999
0.990472
0.679336
0.589079
0.61736
0.69305
0.597546
0.596488
0.64133
0.61408
0.654326
0.676203
0.987134
1
1
1
1
1
1
1
1
0.9939
0.65636
0.602883
0.671416
0.665499
0.657936
0.629222
0.65112
0.668973
0.628425
0.691181
0.991869
1
1
1
1
1
1
1
1
0.996858
0.750944
0.724126
0.588211
0.588701
0.585738
0.575862
0.590473
0.643974
0.697318
0.811498
0.998604
1
1
1
1
1
1
1
1
0.999986
0.999372
0.999471
0.998491
0.998199
0.997942
0.997937
0.997678
0.99777
0.99868
0.999294
0.999997
1
1
1
1
1
1
1
1
1
1
1
1
1
1
1
1
1
1
1
1
1
1
1
1
1
1
1
1
1
1
1
1
1
1
1
1
1
1
1
1
1
1
1
1
1
1
1
1
1
1
1
1
1
1
1
1
1
1
1
1
1
1
1
1
1
1
1
1
1
1
1
1
1
1
1
1
1
1
1
1
1
1
1
1
1
1
1
1
1
1
1
1
1
1
1
1
1
1
1
1
1
1
1
1
1
1
1
1
1
1
1
1
1
1
1
1
1
1
1
1
1
1
1
1
1
1
1
1
1
1
1
1
1
1
1
1
1
1
1
1
1
1
1
1
1
1
1
1
1
1
1
1
1
1
1
1
1
1
1
1
1
1
1
1
1
1
1
1
1
1
1
1
1
1
1
1
1
1
1
1
1
1
1
1
1
1
1
1
1
1
1
1
1
1
1
1
1
1
1
1
1
1
1
1
1
1
1
1
1
1
1
1
1
1
1
1
1
1
1
1
1
1
1
1
0.997052
0.997392
0.996534
0.994233
0.674521
0.676241
0.323913
0.306799
0.35829
0.527911
0.493056
0.371766
0.362384
0.467412
0.560873
0.777177
0.987846
0.99649
0.997218
0.997104
1
1
1
0.997858
0.279489
0.806149
0.828878
0.820369
0.788216
0.722117
0.797805
0.0962584
0.0428212
0.0596105
0.0824416
0.374006
0.992161
1
1
1
1
1
1
0.999988
0.900094
0.829989
0.688264
0.706506
0.635437
0.664066
0.683507
0.685664
0.414876
0.491081
0.511864
0.863077
0.999304
1
1
1
1
1
1
0.999989
0.985063
0.610594
0.579944
0.616196
0.628951
0.598909
0.603998
0.622661
0.67626
0.647442
0.671952
0.990022
0.999996
1
1
1
1
1
1
0.999996
0.987883
0.643356
0.628149
0.608439
0.630559
0.663079
0.61838
0.657822
0.630841
0.657135
0.663486
0.989366
0.999999
1
1
1
1
1
1
1
0.990312
0.679463
0.589089
0.616482
0.69312
0.597054
0.595673
0.641305
0.61325
0.654755
0.676177
0.987238
1
1
1
1
1
1
1
1
0.993675
0.655664
0.602596
0.671938
0.666289
0.658616
0.629783
0.651978
0.669382
0.628275
0.690369
0.991731
1
1
1
1
1
1
1
1
0.996644
0.748293
0.72243
0.586498
0.586593
0.583429
0.573467
0.587238
0.640232
0.693827
0.808136
0.998511
1
1
1
1
1
1
1
1
0.999985
0.999372
0.999477
0.998491
0.998202
0.997936
0.997964
0.997671
0.997789
0.998711
0.999293
0.999997
1
1
1
1
1
1
1
1
1
1
1
1
1
1
1
1
1
1
1
1
1
1
1
1
1
1
1
1
1
1
1
1
1
1
1
1
1
1
1
1
1
1
1
1
1
1
1
1
1
1
1
1
1
1
1
1
1
1
1
1
1
1
1
1
1
1
1
1
1
1
1
1
1
1
1
1
1
1
1
1
1
1
1
1
1
1
1
1
1
1
1
1
1
1
1
1
1
1
1
1
1
1
1
1
1
1
1
1
1
1
1
1
1
1
1
1
1
1
1
1
1
1
1
1
1
1
1
1
1
1
1
1
1
1
1
1
1
1
1
1
1
1
1
1
1
1
1
1
1
1
1
1
1
1
1
1
1
1
1
1
1
1
1
1
1
1
1
1
1
1
1
1
1
1
1
1
1
1
1
1
1
1
1
1
1
1
1
1
1
1
1
1
1
1
1
1
1
1
1
1
1
1
1
1
1
1
1
1
1
1
1
1
1
1
1
1
1
1
1
1
1
1
1
1
0.997027
0.997387
0.99653
0.994352
0.677963
0.670888
0.305953
0.303969
0.356598
0.528673
0.497743
0.366501
0.363773
0.460951
0.549532
0.772902
0.987943
0.996533
0.997269
0.997134
1
1
1
0.998169
0.270283
0.808588
0.834027
0.820603
0.789242
0.722338
0.800593
0.0927216
0.039119
0.0547355
0.0744497
0.370125
0.992337
1
1
1
1
1
1
0.999987
0.887473
0.834057
0.689606
0.706002
0.635573
0.665058
0.684686
0.69146
0.411077
0.491839
0.510407
0.859615
0.999386
1
1
1
1
1
1
0.999991
0.986167
0.6107
0.579812
0.616301
0.628961
0.597963
0.603945
0.621184
0.676815
0.64721
0.671684
0.99
0.999997
1
1
1
1
1
1
0.999996
0.98857
0.642975
0.627696
0.608451
0.629413
0.663712
0.618673
0.6581
0.631321
0.657129
0.663474
0.98939
0.999999
1
1
1
1
1
1
1
0.990062
0.679512
0.589094
0.615637
0.693182
0.596601
0.594873
0.641281
0.612473
0.655156
0.676176
0.987267
1
1
1
1
1
1
1
1
0.993463
0.654986
0.602344
0.672432
0.667036
0.659269
0.630331
0.652826
0.669825
0.628156
0.689734
0.991648
1
1
1
1
1
1
1
1
0.99642
0.745989
0.720896
0.584919
0.584692
0.581373
0.57131
0.584349
0.636848
0.690704
0.805182
0.998431
1
1
1
1
1
1
1
1
0.999988
0.999486
0.999599
0.998839
0.99858
0.998327
0.998359
0.998041
0.997985
0.998771
0.999326
0.999998
1
1
1
1
1
1
1
1
0.999928
0.997778
0.997751
0.997589
0.997589
0.997589
0.997589
0.997589
0.997588
0.997589
0.997591
0.999997
1
1
1
1
1
1
1
1
1
0.999999
0.999999
0.999998
0.99999
0.99997
0.999979
0.999983
0.999999
0.999999
1
1
1
1
1
1
1
1
1
1
1
1
1
1
1
1
1
1
1
1
1
1
1
1
1
1
1
1
1
1
1
1
1
1
1
1
1
1
1
1
1
1
1
1
1
1
1
1
1
1
1
1
1
1
1
1
1
1
1
1
1
1
1
1
1
1
1
1
1
1
1
1
1
1
1
1
1
1
1
1
1
1
1
1
1
1
1
1
1
1
1
1
1
1
1
1
1
1
1
1
1
1
1
1
1
1
1
1
1
1
1
1
1
1
1
1
1
1
1
1
1
1
1
1
1
1
1
1
1
1
1
1
1
1
1
1
1
1
1
1
1
1
1
1
1
1
1
1
1
1
1
1
1
1
1
1
1
1
1
1
1
1
1
1
1
1
1
1
1
1
1
1
1
1
1
1
1
1
1
1
1
1
1
1
1
1
0.996999
0.997374
0.996521
0.994339
0.681985
0.66376
0.303111
0.30312
0.355112
0.528908
0.503933
0.35868
0.365156
0.452312
0.538354
0.766943
0.988101
0.996574
0.997316
0.997163
1
1
1
0.998048
0.26301
0.811108
0.838709
0.820829
0.790221
0.722541
0.803442
0.0892061
0.0355001
0.0499868
0.0669882
0.348756
0.992648
1
1
1
1
1
1
0.999986
0.873294
0.837373
0.690959
0.705465
0.635714
0.666008
0.685706
0.698561
0.408494
0.492438
0.508369
0.854872
0.999483
1
1
1
1
1
1
0.999993
0.986888
0.610869
0.579713
0.616399
0.628967
0.597052
0.603923
0.619788
0.677335
0.647005
0.671508
0.989909
0.999998
1
1
1
1
1
1
0.999997
0.98893
0.642522
0.627239
0.608465
0.628321
0.664309
0.618965
0.658362
0.631795
0.657126
0.663497
0.989339
1
1
1
1
1
1
1
1
0.989835
0.679521
0.589097
0.614822
0.693237
0.596187
0.594087
0.641258
0.611742
0.65553
0.676262
0.987266
1
1
1
1
1
1
1
1
0.993267
0.654345
0.602121
0.672903
0.667747
0.659899
0.630866
0.653661
0.670294
0.628061
0.689222
0.991592
1
1
1
1
1
1
1
1
0.996072
0.74333
0.71901
0.582648
0.581947
0.578376
0.568213
0.580328
0.632254
0.686788
0.801678
0.998328
1
1
1
1
1
1
1
1
1
0.999824
0.99987
0.999416
0.999289
0.999147
0.999165
0.999066
0.999081
0.999466
0.999729
1
1
1
1
1
1
1
1
1
1
1
1
1
1
1
1
1
1
1
1
1
1
1
1
1
1
1
1
1
1
1
0.999997
1
1
1
0.999977
1
1
1
1
1
1
1
1
1
1
1
1
1
1
1
1
1
1
1
1
1
1
1
1
1
1
1
1
1
1
1
1
1
1
1
1
1
1
1
1
1
1
1
1
1
1
1
1
1
1
1
1
1
1
1
1
1
1
1
1
1
1
1
1
1
1
1
1
1
1
1
1
1
1
1
1
1
1
1
1
1
1
1
1
1
1
1
1
1
1
1
1
1
1
1
1
1
1
1
1
1
1
1
1
1
1
1
1
1
1
1
1
1
1
1
1
1
1
1
1
1
1
1
1
1
1
1
1
1
1
1
1
1
1
1
1
1
1
1
1
1
1
1
1
1
1
1
1
1
1
1
1
1
1
1
1
1
1
1
1
1
1
1
1
1
1
1
1
1
1
1
1
1
1
1
1
1
1
1
1
1
1
1
1
1
1
1
1
1
0.996969
0.997356
0.996509
0.994298
0.68571
0.657047
0.303115
0.303116
0.354267
0.527391
0.513495
0.351568
0.363378
0.439896
0.528708
0.757928
0.988272
0.996611
0.997357
0.99719
1
1
1
0.997722
0.257151
0.813732
0.84257
0.821052
0.791148
0.722718
0.806299
0.0858743
0.0320149
0.0453486
0.0601561
0.317086
0.993156
1
1
1
1
1
1
0.999984
0.856935
0.839639
0.692337
0.704813
0.635846
0.666889
0.686623
0.706588
0.407009
0.492892
0.506808
0.84827
0.999593
1
1
1
1
1
1
0.999995
0.987275
0.611047
0.579653
0.61649
0.628987
0.596184
0.603921
0.618496
0.677821
0.646829
0.671458
0.989773
0.999999
1
1
1
1
1
1
0.999997
0.989065
0.642013
0.626782
0.608482
0.627279
0.664861
0.619253
0.658607
0.632254
0.657121
0.66365
0.989258
1
1
1
1
1
1
1
1
0.989661
0.679477
0.5891
0.614041
0.693285
0.595817
0.593319
0.641239
0.611065
0.655873
0.676431
0.987263
1
1
1
1
1
1
1
1
0.993086
0.653772
0.60193
0.673344
0.668416
0.660502
0.631386
0.65448
0.670795
0.627989
0.688834
0.991572
1
1
1
1
1
1
1
1
0.995586
0.740678
0.717105
0.580359
0.579068
0.575149
0.564949
0.575885
0.627084
0.68255
0.797957
0.998192
1
1
1
1
1
1
1
1
1
0.999839
0.999883
0.999446
0.999322
0.999185
0.999202
0.99911
0.999137
0.999497
0.999745
1
1
1
1
1
1
1
1
1
1
1
1
1
1
1
1
1
1
1
1
1
1
1
1
1
1
1
1
1
1
1
1
1
1
1
1
1
1
1
1
1
1
1
1
1
1
1
1
1
1
1
1
1
1
1
1
1
1
1
1
1
1
1
1
1
1
1
1
1
1
1
1
1
1
1
1
1
1
1
1
1
1
1
1
1
1
1
1
1
1
1
1
1
1
1
1
1
1
1
1
1
1
1
1
1
1
1
1
1
1
1
1
1
1
1
1
1
1
1
1
1
1
1
1
1
1
1
1
1
1
1
1
1
1
1
1
1
1
1
1
1
1
1
1
1
1
1
1
1
1
1
1
1
1
1
1
1
1
1
1
1
1
1
1
1
1
1
1
1
1
1
1
1
1
1
1
1
1
1
1
1
1
1
1
1
1
1
1
1
1
1
1
1
1
1
1
1
1
1
1
1
1
1
1
1
1
1
1
1
1
1
1
1
1
1
1
1
1
1
1
1
1
1
1
1
0.996939
0.997338
0.996495
0.994153
0.689398
0.652473
0.303113
0.303153
0.353284
0.526244
0.520702
0.34534
0.356508
0.427673
0.520247
0.747015
0.988472
0.996642
0.997388
0.997214
1
1
1
0.996643
0.252078
0.816342
0.845569
0.82127
0.792035
0.722886
0.809138
0.0827886
0.0285739
0.0407151
0.0536563
0.286746
0.99381
1
1
1
1
1
1
0.999979
0.838586
0.841104
0.693732
0.704083
0.635966
0.667711
0.687558
0.715131
0.406469
0.493856
0.505894
0.839292
0.99972
1
1
1
1
1
1
0.999996
0.987427
0.611147
0.579623
0.616575
0.629037
0.595359
0.603935
0.617303
0.678278
0.646689
0.671463
0.989598
0.999999
1
1
1
1
1
1
0.999998
0.989091
0.641481
0.626337
0.608501
0.626276
0.665372
0.619535
0.658834
0.632691
0.657115
0.663871
0.989238
1
1
1
1
1
1
1
1
0.989533
0.679365
0.589104
0.613292
0.693328
0.595488
0.59257
0.641225
0.610448
0.656184
0.676628
0.987346
1
1
1
1
1
1
1
1
0.992928
0.653291
0.601768
0.673758
0.669043
0.661073
0.631886
0.655274
0.671309
0.627936
0.688533
0.991636
1
1
1
1
1
1
1
1
0.995046
0.738227
0.715338
0.578165
0.576297
0.572032
0.561803
0.571571
0.622062
0.678588
0.794439
0.998047
1
1
1
1
1
1
1
1
1
0.999864
0.999902
0.999499
0.999383
0.999256
0.999272
0.999197
0.999243
0.999558
0.999775
1
1
1
1
1
1
1
1
1
1
1
1
1
1
1
1
1
1
1
1
1
1
1
1
1
1
1
1
1
1
1
1
1
1
1
1
1
1
1
1
1
1
1
1
1
1
1
1
1
1
1
1
1
1
1
1
1
1
1
1
1
1
1
1
1
1
1
1
1
1
1
1
1
1
1
1
1
1
1
1
1
1
1
1
1
1
1
1
1
1
1
1
1
1
1
1
1
1
1
1
1
1
1
1
1
1
1
1
1
1
1
1
1
1
1
1
1
1
1
1
1
1
1
1
1
1
1
1
1
1
1
1
1
1
1
1
1
1
1
1
1
1
1
1
1
1
1
1
1
1
1
1
1
1
1
1
1
1
1
1
1
1
1
1
1
1
1
1
1
1
1
1
1
1
1
1
1
1
1
1
1
1
1
1
1
1
1
1
1
1
1
1
1
1
1
1
1
1
1
1
1
1
1
1
1
1
1
1
1
1
1
1
1
1
1
1
1
1
1
1
1
1
1
1
1
0.996908
0.997322
0.996481
0.993919
0.692165
0.650966
0.309765
0.309091
0.351976
0.525173
0.530692
0.340558
0.346862
0.416905
0.513278
0.73546
0.988683
0.996667
0.997411
0.997236
1
1
1
0.994816
0.246976
0.818836
0.847877
0.821481
0.79287
0.723059
0.811964
0.0799825
0.0249741
0.036222
0.0472522
0.258388
0.99443
1
1
1
1
1
1
0.999972
0.818792
0.842276
0.695069
0.703285
0.636076
0.668463
0.688565
0.723394
0.407025
0.495373
0.505225
0.828455
0.999826
1
1
1
1
1
1
0.999997
0.987454
0.611168
0.579615
0.616652
0.629098
0.594585
0.603943
0.616194
0.678713
0.646575
0.671519
0.989429
0.999999
1
1
1
1
1
1
0.999998
0.989083
0.640956
0.625908
0.608522
0.625319
0.665836
0.619807
0.659042
0.633099
0.657106
0.664096
0.989319
1
1
1
1
1
1
1
1
0.98943
0.679253
0.589112
0.612578
0.693365
0.595201
0.591844
0.641217
0.609894
0.65646
0.676865
0.987812
1
1
1
1
1
1
1
1
0.992799
0.65294
0.601635
0.674139
0.669621
0.661607
0.632362
0.656034
0.671825
0.627899
0.688303
0.992015
1
1
1
1
1
1
1
1
0.994616
0.736081
0.713775
0.576202
0.573842
0.569286
0.559016
0.567779
0.617622
0.675128
0.791313
0.99792
1
1
1
1
1
1
1
1
1
0.999885
0.999919
0.999546
0.999435
0.999315
0.999333
0.999266
0.99932
0.999601
0.999795
1
1
1
1
1
1
1
1
1
1
1
1
1
1
1
1
1
1
1
1
1
1
1
1
1
1
1
1
1
1
1
1
1
1
1
1
1
1
1
1
1
1
1
1
1
1
1
1
1
1
1
1
1
1
1
1
1
1
1
1
1
1
1
1
1
1
1
1
1
1
1
1
1
1
1
1
1
1
1
1
1
1
1
1
1
1
1
1
1
1
1
1
1
1
1
1
1
1
1
1
1
1
1
1
1
1
1
1
1
1
1
1
1
1
1
1
1
1
1
1
1
1
1
1
1
1
1
1
1
1
1
1
1
1
1
1
1
1
1
1
1
1
1
1
1
1
1
1
1
1
1
1
1
1
1
1
1
1
1
1
1
1
1
1
1
1
1
1
1
1
1
1
1
1
1
1
1
1
1
1
1
1
1
1
1
1
1
1
1
1
1
1
1
1
1
1
1
1
1
1
1
1
1
1
1
1
1
1
1
1
1
1
1
1
1
1
1
1
1
1
1
1
1
1
1
0.996877
0.997307
0.996466
0.993601
0.694823
0.658469
0.415708
0.323481
0.351282
0.524179
0.542282
0.337289
0.337263
0.408988
0.508598
0.723235
0.988807
0.996689
0.997429
0.997255
1
1
1
0.991706
0.241554
0.821096
0.8496
0.821689
0.793649
0.723231
0.814821
0.0774855
0.0212966
0.0318607
0.0411415
0.22899
0.99455
1
1
1
1
1
1
0.99996
0.798905
0.843622
0.696307
0.702432
0.63618
0.669151
0.689475
0.730692
0.408425
0.497061
0.504511
0.817309
0.999877
1
1
1
1
1
1
0.999998
0.987396
0.611045
0.579655
0.616723
0.629167
0.593861
0.60394
0.615126
0.679124
0.646483
0.671624
0.989331
1
1
1
1
1
1
1
0.999998
0.989031
0.640461
0.625505
0.608548
0.624408
0.666254
0.620068
0.65923
0.633475
0.657096
0.664349
0.989579
1
1
1
1
1
1
1
1
0.989338
0.679155
0.589125
0.611899
0.693399
0.594954
0.591141