/*--------------------------------*- C++ -*----------------------------------*\
| =========                 |                                                 |
| \\      /  F ield         | OpenFOAM: The Open Source CFD Toolbox           |
|  \\    /   O peration     | Version:  2.3.0                                 |
|   \\  /    A nd           | Web:      www.OpenFOAM.org                      |
|    \\/     M anipulation  |                                                 |
\*---------------------------------------------------------------------------*/
FoamFile
{
    version     2.0;
    format      ascii;
    class       volScalarField;
    location    "3.30001";
    object      nut.air;
}
// * * * * * * * * * * * * * * * * * * * * * * * * * * * * * * * * * * * * * //

dimensions      [0 2 -1 0 0 0 0];

internalField   nonuniform List<scalar> 
10000
(
7.42366e-06
5.11831e-06
3.79161e-06
1.1786e-06
1.7452e-07
1.29772e-07
3.87502e-08
3.49651e-09
1.10625e-08
5.02785e-09
1.86227e-08
2.37541e-08
6.25047e-08
1.19808e-07
2.10205e-07
4.80035e-07
2.05288e-06
4.56684e-06
5.4706e-06
8.09069e-06
2.18922e-06
2.10885e-06
3.84208e-06
8.50851e-07
2.88619e-09
4.14737e-09
1.89183e-08
1.10161e-08
1.55268e-08
9.8987e-08
4.12718e-09
4.48149e-09
9.21374e-10
1.03792e-09
6.09382e-10
4.09095e-08
8.13679e-07
6.05384e-06
2.00938e-06
5.34849e-06
4.07598e-06
1.24678e-06
1.02879e-05
2.77073e-06
8.64551e-08
4.89983e-07
2.1898e-08
2.83702e-08
2.51054e-08
2.60901e-08
3.44942e-07
2.3052e-07
2.30613e-08
8.84656e-09
4.30476e-09
8.57075e-08
1.18597e-06
8.43338e-06
4.76122e-06
2.9831e-06
1.42482e-05
1.80428e-06
1.29557e-05
1.21175e-06
1.24235e-07
1.18632e-08
1.92109e-08
2.03398e-08
2.0498e-08
2.00379e-08
1.26842e-08
1.03172e-08
2.10555e-08
1.83716e-08
7.26435e-09
4.0516e-08
3.95913e-06
8.81161e-06
6.41901e-06
5.12288e-06
1.04409e-05
2.24914e-06
1.21349e-05
8.01011e-07
1.52994e-07
7.40604e-09
2.27131e-08
2.02141e-08
2.09914e-08
2.12935e-08
2.17328e-08
2.50464e-08
2.52878e-08
2.42789e-08
7.70588e-09
3.86515e-08
4.61484e-06
4.87158e-06
3.12043e-06
1.80002e-05
2.24705e-05
2.44202e-06
1.55529e-05
1.05905e-06
1.26394e-07
7.49472e-09
2.03342e-08
1.97918e-08
2.06798e-08
2.02198e-08
2.02744e-08
2.13411e-08
2.08618e-08
2.1401e-08
6.62615e-09
6.33829e-08
4.98016e-06
2.60108e-06
2.36723e-06
2.13392e-05
2.12017e-05
3.7522e-06
6.4376e-06
3.33617e-06
1.39224e-07
5.4217e-09
1.83213e-08
1.79368e-08
1.74322e-08
1.62623e-08
1.63596e-08
1.46062e-08
1.11688e-08
1.13744e-08
5.75946e-09
2.58258e-07
4.66211e-06
9.39574e-06
2.67921e-06
2.38935e-05
2.05606e-05
6.37836e-06
5.91316e-07
4.20051e-06
3.66628e-07
9.54685e-09
1.23971e-08
1.27365e-08
1.39944e-08
1.45169e-08
1.38936e-08
1.68838e-08
1.80293e-08
1.60435e-08
1.483e-08
5.98729e-07
3.51271e-06
6.14463e-06
4.36705e-06
2.50398e-05
1.82504e-05
1.08805e-05
9.89304e-07
4.47625e-06
5.91251e-07
3.61503e-07
4.62481e-07
3.44857e-07
4.03026e-07
4.02646e-07
3.41953e-07
4.51517e-07
5.2048e-07
5.16639e-07
5.84367e-07
5.84833e-07
1.86252e-06
1.01013e-05
6.83883e-06
2.36812e-05
1.06108e-05
2.13524e-05
9.59213e-07
2.62535e-06
2.96906e-07
3.08575e-06
5.069e-06
4.44576e-06
4.15925e-06
3.76541e-06
2.87461e-06
3.44211e-06
3.59583e-06
3.69977e-06
3.21992e-06
5.38268e-07
4.61353e-06
8.07285e-07
1.17101e-05
2.24093e-05
1.2323e-06
2.08969e-05
8.24092e-07
4.64105e-06
5.94891e-07
5.34776e-06
9.25626e-06
8.65784e-06
6.07385e-06
5.3529e-06
3.9233e-06
4.40338e-06
4.62353e-06
5.18641e-06
5.20774e-06
1.55928e-06
5.69751e-06
1.06281e-06
2.282e-05
2.31383e-05
1.27075e-06
2.07387e-05
6.59953e-07
6.26254e-06
3.35308e-07
5.30041e-06
9.50831e-06
7.58346e-06
1.1433e-05
9.0921e-06
5.52449e-06
5.8404e-06
5.43748e-06
8.74619e-06
4.67149e-06
1.89042e-06
6.61404e-06
1.06642e-06
2.21273e-05
2.3989e-05
1.51244e-06
2.02754e-05
5.84145e-07
3.85242e-06
3.96284e-07
5.03051e-06
8.53666e-06
1.07919e-05
1.27252e-05
1.19961e-05
6.96252e-06
7.75941e-06
8.14219e-06
7.59073e-06
3.33519e-06
2.58843e-06
7.39646e-06
1.00314e-06
2.26768e-05
2.36411e-05
2.0382e-06
2.04708e-05
5.35236e-07
4.86616e-06
4.71425e-07
3.65266e-06
5.45343e-06
9.13099e-06
1.07388e-05
1.11538e-05
8.51358e-06
1.02448e-05
1.07574e-05
9.38286e-06
4.00379e-06
2.64818e-06
1.05113e-05
9.72727e-07
2.22934e-05
2.11752e-05
2.82864e-06
1.84484e-05
4.10784e-07
7.97874e-06
8.56129e-07
2.44414e-06
3.61049e-06
6.59743e-06
7.43201e-06
8.86013e-06
1.07166e-05
1.18129e-05
1.11493e-05
8.83831e-06
5.84495e-06
1.87658e-06
1.21738e-05
9.91582e-07
2.17762e-05
1.82479e-05
3.89766e-06
1.47804e-05
2.1538e-07
1.09787e-05
3.04605e-06
3.53696e-06
4.4642e-06
4.75675e-06
5.393e-06
8.03807e-06
9.7658e-06
1.04087e-05
9.36877e-06
6.62204e-06
6.03029e-06
2.14928e-06
1.90878e-05
1.01301e-06
1.99117e-05
1.6553e-05
6.9787e-06
1.16622e-05
1.11709e-07
7.55762e-06
4.12503e-06
5.62768e-06
7.56085e-06
7.86733e-06
8.27816e-06
8.63865e-06
8.63269e-06
8.72026e-06
7.88674e-06
4.65787e-06
5.67245e-06
2.94391e-06
1.27545e-05
6.55116e-07
1.53287e-05
1.40788e-05
1.55003e-05
6.84447e-06
3.58945e-08
3.081e-06
5.40104e-06
5.00161e-06
5.50317e-06
5.43839e-06
5.65562e-06
5.71162e-06
5.57997e-06
5.81306e-06
5.87926e-06
3.68404e-06
4.83503e-06
3.60654e-06
1.06178e-05
5.14744e-07
1.02131e-05
8.98771e-06
4.79701e-06
2.96754e-06
8.41377e-09
1.81475e-06
4.0592e-06
3.71916e-06
3.78429e-06
3.83128e-06
3.81186e-06
3.82405e-06
3.86454e-06
3.83714e-06
3.9044e-06
4.7523e-06
3.42512e-06
2.52968e-06
1.18144e-05
5.74976e-07
3.45347e-06
2.92537e-06
7.49895e-09
4.595e-07
3.49416e-09
1.69618e-06
2.94095e-07
1.53327e-07
1.53223e-07
1.56441e-07
1.54937e-07
1.56922e-07
1.62256e-07
1.64398e-07
2.11802e-07
4.83793e-07
1.97952e-07
3.00711e-06
6.76782e-06
5.37297e-08
1.1577e-08
4.31618e-07
7.63851e-06
5.23812e-06
3.906e-06
1.30524e-06
2.09238e-07
1.35684e-07
3.3366e-08
3.5911e-09
1.18703e-08
5.00794e-09
1.96692e-08
2.3355e-08
6.19817e-08
1.34449e-07
2.1843e-07
4.83448e-07
2.10079e-06
4.90378e-06
5.79681e-06
8.09295e-06
3.31876e-06
2.50672e-06
3.86728e-06
5.29686e-07
3.33021e-09
4.1259e-09
2.07618e-08
1.16319e-08
1.62929e-08
9.46606e-08
4.05208e-09
4.14754e-09
7.4573e-10
9.99971e-10
5.69028e-10
2.6527e-08
9.09602e-07
5.07694e-06
2.3544e-06
5.73429e-06
3.74582e-06
1.52872e-06
1.0197e-05
2.86916e-06
1.05036e-07
4.80451e-07
2.02877e-08
2.78005e-08
2.48783e-08
2.70498e-08
3.41293e-07
2.36398e-07
2.34057e-08
8.98636e-09
3.72844e-09
8.65699e-08
1.13743e-06
8.04939e-06
4.46763e-06
3.61153e-06
1.09169e-05
2.03967e-06
1.27505e-05
1.32219e-06
1.37456e-07
1.09201e-08
1.91832e-08
2.02452e-08
2.03789e-08
1.99477e-08
1.30132e-08
9.94325e-09
2.10643e-08
1.78982e-08
8.28545e-09
7.66989e-08
3.31959e-06
8.0508e-06
6.05524e-06
5.38373e-06
1.08844e-05
2.58893e-06
1.21061e-05
9.52399e-07
1.56446e-07
7.69556e-09
2.25254e-08
2.01501e-08
2.08728e-08
2.12009e-08
2.16713e-08
2.50569e-08
2.51868e-08
2.41979e-08
8.53891e-09
6.1036e-08
4.06965e-06
5.12501e-06
3.40461e-06
1.55109e-05
2.00165e-05
2.93071e-06
1.25636e-05
9.88545e-07
1.49134e-07
8.43736e-09
2.02761e-08
1.97647e-08
2.06362e-08
2.02484e-08
2.02901e-08
2.14754e-08
2.1425e-08
2.18428e-08
7.47403e-09
8.28507e-08
4.44056e-06
2.52262e-06
2.80245e-06
1.93472e-05
1.90378e-05
4.30417e-06
3.84825e-06
2.62759e-06
2.26142e-07
5.73847e-09
1.87874e-08
1.83635e-08
1.80592e-08
1.70348e-08
1.70905e-08
1.54861e-08
1.18174e-08
1.21128e-08
6.22588e-09
3.47949e-07
4.13723e-06
6.49152e-06
3.18878e-06
2.14603e-05
1.82856e-05
6.75368e-06
8.18351e-07
3.74589e-06
5.58191e-07
9.25736e-09
1.22167e-08
1.25399e-08
1.35638e-08
1.39577e-08
1.34176e-08
1.568e-08
1.61034e-08
1.45328e-08
1.34983e-08
8.73576e-07
3.033e-06
6.16351e-06
4.78214e-06
2.24872e-05
1.54192e-05
1.12415e-05
1.04153e-06
3.94291e-06
9.23326e-07
3.35609e-07
4.23213e-07
3.13345e-07
3.64806e-07
3.6534e-07
3.12677e-07
4.02338e-07
4.57263e-07
4.61317e-07
5.15787e-07
9.34309e-07
2.27466e-06
7.06238e-06
7.26345e-06
2.15673e-05
7.29449e-06
1.90223e-05
9.91045e-07
2.93347e-06
6.4136e-07
3.35139e-06
5.35862e-06
4.74678e-06
4.45139e-06
4.05841e-06
3.15889e-06
3.73136e-06
3.8885e-06
3.99048e-06
3.49549e-06
8.60338e-07
4.822e-06
9.56464e-07
1.20916e-05
2.04987e-05
1.42763e-06
1.8681e-05
8.22735e-07
3.60442e-06
1.00006e-06
5.36114e-06
9.26119e-06
8.67087e-06
6.30185e-06
5.58177e-06
4.14691e-06
4.62724e-06
4.85173e-06
5.40804e-06
5.21738e-06
1.7129e-06
5.89164e-06
1.16403e-06
2.03147e-05
2.0891e-05
1.46757e-06
1.83416e-05
6.58504e-07
5.29025e-06
5.6206e-07
5.33554e-06
9.52066e-06
7.81147e-06
1.14466e-05
9.31246e-06
5.75933e-06
6.06336e-06
5.68544e-06
8.77346e-06
4.73704e-06
2.06244e-06
6.81102e-06
1.1731e-06
1.98505e-05
2.132e-05
1.79294e-06
1.77517e-05
5.64614e-07
3.93037e-06
6.1149e-07
5.06967e-06
8.55348e-06
1.07984e-05
1.2734e-05
1.20103e-05
7.19635e-06
7.99373e-06
8.37818e-06
7.81546e-06
3.54447e-06
2.67589e-06
7.53444e-06
1.1339e-06
2.00804e-05
2.10274e-05
2.31871e-06
1.77515e-05
5.00691e-07
5.05492e-06
7.47902e-07
3.70425e-06
5.51026e-06
9.13962e-06
1.07509e-05
1.11648e-05
8.74286e-06
1.04702e-05
1.09795e-05
9.40798e-06
4.2109e-06
2.80802e-06
1.05353e-05
1.13758e-06
1.95639e-05
1.89894e-05
3.03502e-06
1.60285e-05
3.74978e-07
8.156e-06
1.12951e-06
2.61542e-06
3.83004e-06
6.62485e-06
7.46673e-06
8.86895e-06
1.07223e-05
1.18228e-05
1.11589e-05
8.8517e-06
5.9537e-06
2.10692e-06
1.23913e-05
1.17701e-06
1.88931e-05
1.61475e-05
4.07004e-06
1.27039e-05
1.87936e-07
1.10445e-05
3.28165e-06
3.75144e-06
4.68123e-06
4.97723e-06
5.60668e-06
8.04593e-06
9.77124e-06
1.04174e-05
9.37813e-06
6.63896e-06
6.18255e-06
2.20762e-06
1.75756e-05
1.23449e-06
1.70548e-05
1.40894e-05
6.92538e-06
9.75647e-06
9.36981e-08
7.72645e-06
4.34378e-06
5.65465e-06
7.58234e-06
7.88009e-06
8.29835e-06
8.6538e-06
8.64357e-06
8.7353e-06
7.9013e-06
4.71032e-06
5.79241e-06
3.22304e-06
1.1536e-05
9.53164e-07
1.26053e-05
1.1519e-05
1.19865e-05
5.29147e-06
2.83839e-08
3.74726e-06
5.42151e-06
5.02337e-06
5.53708e-06
5.46348e-06
5.68998e-06
5.74628e-06
5.60541e-06
5.84756e-06
5.91474e-06
3.90181e-06
4.92047e-06
3.97844e-06
9.42913e-06
6.38501e-07
7.61434e-06
7.05646e-06
2.26712e-06
2.25254e-06
7.60428e-09
2.92199e-06
4.1385e-06
3.80743e-06
3.87185e-06
3.91763e-06
3.89867e-06
3.91055e-06
3.94941e-06
3.92252e-06
3.98419e-06
4.75965e-06
3.55565e-06
2.86817e-06
1.11868e-05
5.78729e-07
1.90155e-06
2.2764e-06
2.55883e-09
2.78901e-07
5.70272e-09
4.16912e-06
4.88314e-07
3.23902e-07
3.20837e-07
3.23059e-07
3.22206e-07
3.24399e-07
3.29619e-07
3.33845e-07
3.91103e-07
7.13711e-07
4.53343e-07
3.32001e-06
6.39905e-06
5.06391e-08
1.93891e-08
2.5352e-07
7.90439e-06
5.33255e-06
4.006e-06
1.43029e-06
2.19914e-07
1.38102e-07
2.99512e-08
3.99135e-09
1.3671e-08
4.99407e-09
1.95282e-08
2.32355e-08
6.12196e-08
1.41615e-07
2.25175e-07
4.86979e-07
2.16147e-06
5.08453e-06
6.11782e-06
8.14874e-06
4.70428e-06
3.02682e-06
3.92474e-06
4.63922e-07
3.206e-09
4.07717e-09
2.14416e-08
1.19437e-08
1.6433e-08
9.25953e-08
4.01337e-09
4.03206e-09
6.58822e-10
8.89667e-10
5.56989e-10
1.52806e-08
1.12709e-06
5.13576e-06
2.82563e-06
6.22862e-06
3.68321e-06
1.98325e-06
1.00096e-05
2.94004e-06
1.08567e-07
4.65895e-07
1.95783e-08
2.75056e-08
2.46484e-08
2.74338e-08
3.32395e-07
2.39259e-07
2.36259e-08
8.99532e-09
4.77904e-09
8.53378e-08
1.3285e-06
7.82363e-06
4.01478e-06
4.46797e-06
8.73134e-06
2.37738e-06
1.225e-05
1.53688e-06
1.37367e-07
1.05544e-08
1.91649e-08
2.01929e-08
2.0294e-08
1.98582e-08
1.3205e-08
9.9693e-09
2.09409e-08
1.77767e-08
8.34245e-09
1.0502e-07
2.72413e-06
7.8124e-06
5.42149e-06
6.12988e-06
1.12719e-05
3.09317e-06
1.15273e-05
1.28933e-06
1.54564e-07
7.84669e-09
2.23934e-08
2.00792e-08
2.07613e-08
2.10748e-08
2.15416e-08
2.48045e-08
2.48243e-08
2.38869e-08
8.84285e-09
8.30538e-08
3.66729e-06
5.25627e-06
3.69743e-06
1.36603e-05
1.79573e-05
3.63567e-06
9.78254e-06
1.41299e-06
1.55556e-07
8.7568e-09
2.01986e-08
1.97087e-08
2.05189e-08
2.01403e-08
2.01617e-08
2.12902e-08
2.12808e-08
2.16364e-08
7.8125e-09
9.99535e-08
4.03543e-06
2.76396e-06
3.33874e-06
1.77918e-05
1.72174e-05
4.92833e-06
2.13429e-06
2.42468e-06
3.04277e-07
5.8062e-09
1.8945e-08
1.85094e-08
1.82804e-08
1.73205e-08
1.73651e-08
1.58484e-08
1.21262e-08
1.24507e-08
6.40489e-09
3.84887e-07
3.81728e-06
4.8039e-06
3.76775e-06
1.95375e-05
1.63429e-05
7.18792e-06
1.10089e-06
3.50301e-06
6.67706e-07
9.17268e-09
1.21665e-08
1.2486e-08
1.342e-08
1.37596e-08
1.32484e-08
1.5224e-08
1.53529e-08
1.39446e-08
1.29585e-08
1.0471e-06
2.94449e-06
5.63304e-06
5.27308e-06
2.04214e-05
1.29722e-05
1.14711e-05
1.12237e-06
3.71752e-06
1.17837e-06
3.15648e-07
4.00965e-07
2.99375e-07
3.3948e-07
3.37333e-07
2.95602e-07
3.61153e-07
3.98604e-07
4.09722e-07
4.5103e-07
1.25684e-06
2.77785e-06
4.73682e-06
7.72354e-06
1.98463e-05
4.77645e-06
1.70886e-05
1.02249e-06
3.15624e-06
1.05129e-06
3.54015e-06
5.5763e-06
4.96657e-06
4.68275e-06
4.29696e-06
3.37195e-06
3.97436e-06
4.13388e-06
4.23203e-06
3.73168e-06
1.24999e-06
5.18092e-06
1.12855e-06
1.23404e-05
1.89656e-05
1.62103e-06
1.6865e-05
7.75795e-07
3.04852e-06
1.42601e-06
5.37717e-06
9.26924e-06
8.69083e-06
6.48e-06
5.76124e-06
4.33408e-06
4.81166e-06
5.04107e-06
5.58326e-06
5.23389e-06
1.9234e-06
6.21376e-06
1.32049e-06
1.82526e-05
1.90833e-05
1.67256e-06
1.6361e-05
6.40504e-07
4.63513e-06
9.53879e-07
5.37908e-06
9.54336e-06
7.98549e-06
1.14691e-05
9.50299e-06
5.94417e-06
6.26661e-06
5.92874e-06
8.81731e-06
4.83383e-06
2.30612e-06
7.14683e-06
1.35215e-06
1.79608e-05
1.91176e-05
2.0744e-06
1.56473e-05
5.60187e-07
4.05945e-06
9.51238e-07
5.12226e-06
8.58452e-06
1.08092e-05
1.27507e-05
1.20346e-05
7.37771e-06
8.19367e-06
8.58117e-06
8.01346e-06
3.75546e-06
2.81646e-06
7.80489e-06
1.38643e-06
1.78901e-05
1.87955e-05
2.5674e-06
1.54595e-05
4.79137e-07
5.39216e-06
1.03926e-06
3.76862e-06
5.59765e-06
9.15466e-06
1.07734e-05
1.11847e-05
8.91737e-06
1.06618e-05
1.11884e-05
9.44732e-06
4.41648e-06
3.08039e-06
1.05438e-05
1.48543e-06
1.72851e-05
1.70873e-05
3.18565e-06
1.39472e-05
3.61963e-07
8.46164e-06
1.3907e-06
2.76389e-06
4.04878e-06
6.66552e-06
7.52119e-06
8.88535e-06
1.07317e-05
1.18403e-05
1.11762e-05
8.87432e-06
6.04221e-06
2.45498e-06
1.24561e-05
1.56944e-06
1.63989e-05
1.43699e-05
4.14588e-06
1.09343e-05
1.96347e-07
1.116e-05
3.50215e-06
3.93594e-06
4.88889e-06
5.15259e-06
5.80299e-06
8.05901e-06
9.78089e-06
1.04338e-05
9.39577e-06
6.66974e-06
6.35628e-06
2.38611e-06
1.60463e-05
1.73393e-06
1.4549e-05
1.2001e-05
6.41979e-06
8.15832e-06
7.95333e-08
8.05497e-06
4.54177e-06
5.69169e-06
7.61998e-06
7.90101e-06
8.33381e-06
8.68205e-06
8.66279e-06
8.76381e-06
7.92822e-06
4.78546e-06
5.94875e-06
3.6685e-06
1.05169e-05
1.55591e-06
1.01647e-05
9.33267e-06
8.83926e-06
4.05683e-06
2.5049e-08
4.65327e-06
5.45727e-06
5.06365e-06
5.60208e-06
5.50975e-06
5.75577e-06
5.81242e-06
5.65224e-06
5.91378e-06
5.98272e-06
4.13473e-06
5.05335e-06
4.4234e-06
8.85621e-06
7.60108e-07
5.26347e-06
5.37635e-06
7.30236e-07
1.63229e-06
8.66803e-09
3.99409e-06
4.25704e-06
3.92676e-06
3.98781e-06
4.03159e-06
4.01287e-06
4.02342e-06
4.05912e-06
4.03e-06
4.07514e-06
4.77647e-06
3.70091e-06
3.27457e-06
1.07111e-05
4.88079e-07
8.6175e-07
1.54275e-06
4.01595e-09
5.43819e-08
3.11653e-08
6.02226e-06
8.16568e-07
6.46178e-07
6.43036e-07
6.42647e-07
6.44512e-07
6.47541e-07
6.51901e-07
6.61955e-07
7.23495e-07
1.00137e-06
7.97103e-07
3.66513e-06
6.13692e-06
4.90745e-08
4.79414e-09
4.3927e-08
8.11619e-06
5.4753e-06
4.13037e-06
1.60102e-06
2.28296e-07
1.42138e-07
2.48296e-08
4.21774e-09
1.5847e-08
5.00156e-09
2.00313e-08
2.28981e-08
5.99086e-08
1.45222e-07
2.30886e-07
4.88651e-07
2.23519e-06
5.29357e-06
6.4459e-06
8.29253e-06
5.97062e-06
3.61207e-06
4.00481e-06
4.62881e-07
3.08629e-09
4.06623e-09
2.23525e-08
1.26393e-08
1.70499e-08
8.93603e-08
3.96973e-09
3.83993e-09
5.63084e-10
8.88165e-10
5.98533e-10
7.98906e-09
1.58758e-06
5.41522e-06
3.42965e-06
6.73791e-06
4.86425e-06
2.59282e-06
9.73647e-06
3.00033e-06
1.11875e-07
4.49132e-07
1.84526e-08
2.70705e-08
2.45259e-08
2.81041e-08
3.22712e-07
2.41535e-07
2.11492e-08
8.91403e-09
5.62101e-09
7.64661e-08
1.73708e-06
7.70099e-06
3.64084e-06
5.34359e-06
7.96164e-06
2.88205e-06
1.13063e-05
1.84451e-06
1.33281e-07
1.00259e-08
1.91472e-08
2.0129e-08
2.02242e-08
1.98148e-08
1.36396e-08
9.91989e-09
2.08763e-08
1.7771e-08
8.42254e-09
1.19266e-07
2.25831e-06
7.69375e-06
4.73431e-06
7.16246e-06
1.14585e-05
3.70583e-06
1.06538e-05
1.85029e-06
1.49084e-07
8.23192e-09
2.22678e-08
2.00452e-08
2.07037e-08
2.10181e-08
2.14901e-08
2.47144e-08
2.46773e-08
2.37714e-08
9.28516e-09
1.02515e-07
3.40448e-06
5.50567e-06
3.98983e-06
1.25813e-05
1.61916e-05
4.43719e-06
7.13343e-06
2.18011e-06
1.57838e-07
8.75275e-09
2.0165e-08
1.96862e-08
2.05123e-08
2.01528e-08
2.02057e-08
2.14151e-08
2.1687e-08
2.19607e-08
8.34149e-09
1.19078e-07
3.7568e-06
3.22071e-06
3.88253e-06
1.66052e-05
1.56944e-05
5.52351e-06
1.34135e-06
2.88168e-06
3.52338e-07
5.73628e-09
1.92329e-08
1.87791e-08
1.86735e-08
1.78296e-08
1.78689e-08
1.65364e-08
1.27865e-08
1.315e-08
6.5639e-09
4.05444e-07
3.68647e-06
3.75431e-06
4.33659e-06
1.80427e-05
1.46419e-05
7.58895e-06
1.52584e-06
3.57666e-06
7.43285e-07
9.05772e-09
1.21105e-08
1.24243e-08
1.32163e-08
1.34663e-08
1.29961e-08
1.45802e-08
1.43579e-08
1.31373e-08
1.20949e-08
1.16373e-06
3.2294e-06
4.72182e-06
5.74966e-06
1.87897e-05
1.0749e-05
1.15357e-05
1.31084e-06
3.76543e-06
1.3395e-06
2.88767e-07
3.64279e-07
2.79692e-07
3.10049e-07
3.08448e-07
2.71264e-07
3.21549e-07
3.42225e-07
3.58477e-07
3.90728e-07
1.51773e-06
3.44958e-06
2.94913e-06
8.12988e-06
1.84643e-05
3.26134e-06
1.54856e-05
1.14238e-06
3.45594e-06
1.38973e-06
3.66113e-06
5.73165e-06
5.11121e-06
4.85384e-06
4.47561e-06
3.51855e-06
4.16067e-06
4.32095e-06
4.41516e-06
3.91037e-06
1.59342e-06
5.64089e-06
1.3758e-06
1.24161e-05
1.77385e-05
1.77919e-06
1.53562e-05
7.50332e-07
3.06894e-06
1.72666e-06
5.39261e-06
9.27798e-06
8.71122e-06
6.59975e-06
5.88192e-06
4.46515e-06
4.94136e-06
5.17463e-06
5.70132e-06
5.25338e-06
2.10877e-06
6.61141e-06
1.57761e-06
1.65491e-05
1.76283e-05
1.83991e-06
1.47304e-05
6.41417e-07
4.234e-06
1.3481e-06
5.41658e-06
9.57353e-06
8.10213e-06
1.14971e-05
9.65385e-06
6.07018e-06
6.43073e-06
6.13063e-06
8.86931e-06
4.93428e-06
2.53698e-06
7.56926e-06
1.65754e-06
1.63452e-05
1.72992e-05
2.27091e-06
1.38665e-05
5.75203e-07
4.23516e-06
1.27609e-06
5.17045e-06
8.62498e-06
1.0821e-05
1.27733e-05
1.20653e-05
7.50087e-06
8.34912e-06
8.74012e-06
8.17196e-06
3.93228e-06
2.96655e-06
8.20507e-06
1.81486e-06
1.60803e-05
1.68626e-05
2.70681e-06
1.35013e-05
5.1012e-07
5.83282e-06
1.27508e-06
3.8293e-06
5.69116e-06
9.1718e-06
1.08029e-05
1.12105e-05
9.03465e-06
1.08118e-05
1.13699e-05
9.49268e-06
4.58659e-06
3.3708e-06
1.05481e-05
2.11244e-06
1.53135e-05
1.54019e-05
3.21367e-06
1.2127e-05
4.25984e-07
8.84599e-06
1.57707e-06
2.86196e-06
4.23167e-06
6.70605e-06
7.58191e-06
8.90661e-06
1.07421e-05
1.18628e-05
1.11986e-05
8.90311e-06
6.10375e-06
2.8985e-06
1.23324e-05
2.28713e-06
1.41996e-05
1.27975e-05
4.06428e-06
9.37776e-06
2.63612e-07
1.13143e-05
3.65211e-06
4.06264e-06
5.05759e-06
5.27233e-06
5.9587e-06
8.0747e-06
9.79212e-06
1.04555e-05
9.41927e-06
6.70856e-06
6.4988e-06
2.79511e-06
1.4523e-05
2.64995e-06
1.22741e-05
1.01716e-05
5.50825e-06
6.70416e-06
8.41052e-08
8.49503e-06
4.68534e-06
5.72661e-06
7.66757e-06
7.92392e-06
8.37873e-06
8.71912e-06
8.68503e-06
8.80142e-06
7.96401e-06
4.86161e-06
6.09668e-06
4.22789e-06
9.84761e-06
2.53674e-06
7.8854e-06
7.36422e-06
6.12518e-06
2.79807e-06
2.26052e-08
5.57899e-06
5.49916e-06
5.11301e-06
5.68935e-06
5.56651e-06
5.84395e-06
5.90096e-06
5.7098e-06
6.00282e-06
6.07275e-06
4.33208e-06
5.20353e-06
4.84136e-06
8.88754e-06
8.28543e-07
2.95849e-06
3.66096e-06
1.1892e-07
7.29283e-07
1.15177e-08
4.99369e-06
4.3727e-06
4.03836e-06
4.09635e-06
4.13805e-06
4.1198e-06
4.12922e-06
4.16205e-06
4.13115e-06
4.16187e-06
4.81123e-06
3.82627e-06
3.65072e-06
1.03801e-05
3.40867e-07
1.81044e-07
6.09594e-07
7.55266e-08
5.06258e-09
1.61604e-07
7.48441e-06
1.11459e-06
9.26443e-07
9.21593e-07
9.19765e-07
9.2261e-07
9.25384e-07
9.28434e-07
9.39473e-07
9.98072e-07
1.25072e-06
1.0816e-06
3.95744e-06
5.93321e-06
5.03877e-08
1.19509e-08
4.65584e-09
8.23904e-06
5.59165e-06
4.23531e-06
1.7791e-06
2.36556e-07
1.44436e-07
2.10834e-08
4.90439e-09
1.77737e-08
5.017e-09
2.00281e-08
2.22898e-08
5.78742e-08
1.48868e-07
2.36107e-07
4.94001e-07
2.23307e-06
5.4518e-06
6.68079e-06
8.38292e-06
6.903e-06
4.2181e-06
4.09319e-06
4.91322e-07
2.97374e-09
4.14076e-09
2.27331e-08
1.31206e-08
1.7368e-08
8.64924e-08
3.94856e-09
3.74572e-09
5.39488e-10
8.14354e-10
6.49166e-10
8.34579e-09
2.08723e-06
5.79075e-06
4.09829e-06
7.23333e-06
6.02144e-06
3.33066e-06
9.3106e-06
3.14115e-06
1.12204e-07
4.31464e-07
1.8526e-08
2.6686e-08
2.42477e-08
2.81943e-08
3.11787e-07
2.42425e-07
1.84262e-08
9.2472e-09
5.76406e-09
6.15669e-08
2.15785e-06
7.65932e-06
3.54675e-06
6.1986e-06
8.30406e-06
3.56488e-06
1.01915e-05
2.28228e-06
1.25149e-07
1.00168e-08
1.91203e-08
2.00719e-08
2.01301e-08
1.973e-08
1.38564e-08
1.00563e-08
2.0676e-08
1.78316e-08
8.44768e-09
1.24386e-07
2.16703e-06
7.62012e-06
4.28191e-06
8.13995e-06
1.14285e-05
4.37079e-06
9.3989e-06
2.59819e-06
1.42017e-07
8.44961e-09
2.21198e-08
1.9974e-08
2.05853e-08
2.08955e-08
2.13692e-08
2.44426e-08
2.43036e-08
2.35086e-08
9.33082e-09
1.14758e-07
3.30098e-06
5.71476e-06
4.30652e-06
1.23183e-05
1.47057e-05
5.21452e-06
4.87961e-06
3.18405e-06
1.57126e-07
8.5699e-09
2.00755e-08
1.96353e-08
2.0393e-08
2.00649e-08
2.00791e-08
2.11835e-08
2.14809e-08
2.1721e-08
8.49358e-09
1.31687e-07
3.67284e-06
3.4127e-06
4.39278e-06
1.57583e-05
1.4374e-05
6.05054e-06
1.52393e-06
3.71986e-06
3.76497e-07
5.7577e-09
1.93092e-08
1.88563e-08
1.88006e-08
1.80255e-08
1.80603e-08
1.68419e-08
1.31597e-08
1.35368e-08
6.46326e-09
4.04361e-07
3.79661e-06
2.97855e-06
4.85777e-06
1.69268e-05
1.31146e-05
7.92484e-06
2.14174e-06
3.9757e-06
7.50027e-07
9.04192e-09
1.20965e-08
1.24048e-08
1.31245e-08
1.33267e-08
1.28792e-08
1.42648e-08
1.38675e-08
1.27382e-08
1.16614e-08
1.21165e-06
3.80524e-06
3.59757e-06
6.17096e-06
1.75192e-05
8.7993e-06
1.14594e-05
1.68899e-06
4.09784e-06
1.44469e-06
2.67023e-07
3.32788e-07
2.62708e-07
2.8362e-07
2.80814e-07
2.55742e-07
2.83771e-07
2.88804e-07
3.06738e-07
3.28782e-07
1.68958e-06
4.26037e-06
1.98506e-06
8.45084e-06
1.73783e-05
2.50242e-06
1.41541e-05
1.43216e-06
3.94212e-06
1.5736e-06
3.72166e-06
5.83238e-06
5.18461e-06
4.96751e-06
4.59524e-06
3.59593e-06
4.28691e-06
4.44717e-06
4.5366e-06
4.03012e-06
1.8453e-06
6.15878e-06
1.78548e-06
1.23351e-05
1.67555e-05
1.87657e-06
1.40848e-05
8.70773e-07
3.51073e-06
1.88482e-06
5.4036e-06
9.28434e-06
8.72512e-06
6.6592e-06
5.94192e-06
4.53222e-06
5.00853e-06
5.24389e-06
5.76019e-06
5.26867e-06
2.21898e-06
7.04532e-06
1.9694e-06
1.51399e-05
1.64392e-05
1.9297e-06
1.33761e-05
7.3108e-07
4.16549e-06
1.5872e-06
5.43939e-06
9.60721e-06
8.16058e-06
1.1528e-05
9.75958e-06
6.13396e-06
6.54397e-06
6.2706e-06
8.92264e-06
5.02018e-06
2.71181e-06
8.02911e-06
2.15203e-06
1.49696e-05
1.57965e-05
2.32994e-06
1.23399e-05
6.63294e-07
4.44433e-06
1.47692e-06
5.20152e-06
8.66784e-06
1.08297e-05
1.2799e-05
1.20986e-05
7.56332e-06
8.45446e-06
8.84884e-06
8.28344e-06
4.05405e-06
3.09084e-06
8.7155e-06
2.46184e-06
1.45182e-05
1.51504e-05
2.69474e-06
1.18011e-05
6.30643e-07
6.3306e-06
1.41084e-06
3.87021e-06
5.77183e-06
9.18458e-06
1.08343e-05
1.12382e-05
9.09371e-06
1.09161e-05
1.1511e-05
9.53732e-06
4.70432e-06
3.60746e-06
1.06017e-05
3.05399e-06
1.35709e-05
1.38632e-05
3.07908e-06
1.04918e-05
6.2037e-07
9.26548e-06
1.67307e-06
2.9108e-06
4.35748e-06
6.7334e-06
7.63639e-06
8.92793e-06
1.07497e-05
1.18868e-05
1.12226e-05
8.93375e-06
6.15191e-06
3.31595e-06
1.20952e-05
3.39158e-06
1.22044e-05
1.1326e-05
3.86347e-06
7.91385e-06
5.24932e-07
1.14911e-05
3.72354e-06
4.1247e-06
5.17127e-06
5.33273e-06
6.06083e-06
8.08951e-06
9.80063e-06
1.04786e-05
9.44437e-06
6.74643e-06
6.60484e-06
3.32901e-06
1.31279e-05
4.03046e-06
1.01152e-05
8.46064e-06
4.23602e-06
5.12648e-06
1.33596e-07
8.99222e-06
4.76078e-06
5.74911e-06
7.71747e-06
7.94056e-06
8.42562e-06
8.75876e-06
8.70184e-06
8.84115e-06
8.00206e-06
4.92294e-06
6.21862e-06
4.73554e-06
9.68162e-06
3.81241e-06
5.52501e-06
5.38021e-06
3.89436e-06
1.39578e-06
5.0969e-08
6.4547e-06
5.53131e-06
5.15346e-06
5.78149e-06
5.6137e-06
5.93677e-06
5.99412e-06
5.75753e-06
6.09517e-06
6.15947e-06
4.46778e-06
5.34065e-06
5.17118e-06
9.26631e-06
8.51609e-07
1.20381e-06
1.74089e-06
1.69607e-08
1.103e-07
1.01191e-07
5.90219e-06
4.45059e-06
4.11019e-06
4.16531e-06
4.2063e-06
4.18766e-06
4.19635e-06
4.22848e-06
4.19652e-06
4.22332e-06
4.84803e-06
3.90655e-06
3.8871e-06
1.01884e-05
2.11978e-07
1.95701e-08
7.43316e-08
1.76684e-07
1.30589e-08
3.82141e-07
8.62278e-06
1.30768e-06
1.10468e-06
1.09913e-06
1.09645e-06
1.09987e-06
1.1024e-06
1.10432e-06
1.1153e-06
1.16947e-06
1.40599e-06
1.25662e-06
4.12952e-06
5.74938e-06
4.64309e-08
8.63061e-08
2.36863e-08
8.34388e-06
5.7005e-06
4.34931e-06
2.03413e-06
2.44918e-07
1.4816e-07
1.68909e-08
5.88487e-09
2.19958e-08
5.1082e-09
2.01608e-08
2.17543e-08
5.36528e-08
1.54805e-07
2.43067e-07
5.06258e-07
2.21577e-06
5.61691e-06
6.885e-06
8.4781e-06
7.64202e-06
4.78607e-06
4.2282e-06
5.46928e-07
2.66821e-09
4.25126e-09
2.28925e-08
1.3818e-08
1.79842e-08
8.40075e-08
3.94416e-09
3.60255e-09
5.16123e-10
7.40064e-10
6.50676e-10
8.86561e-09
2.4147e-06
6.21132e-06
4.71966e-06
7.70643e-06
6.95398e-06
4.13683e-06
8.53752e-06
3.40375e-06
1.09975e-07
4.13802e-07
1.88205e-08
2.63015e-08
2.41151e-08
2.89459e-08
2.99946e-07
2.43479e-07
1.59252e-08
9.59659e-09
5.74516e-09
5.90877e-08
2.55722e-06
7.67776e-06
3.76292e-06
7.00862e-06
8.94169e-06
4.34252e-06
9.143e-06
2.85654e-06
1.15793e-07
9.88115e-09
1.91033e-08
2.00127e-08
2.00798e-08
1.96889e-08
1.44956e-08
1.02934e-08
2.05887e-08
1.81438e-08
8.52857e-09
1.26455e-07
2.42961e-06
7.61897e-06
4.24458e-06
9.08026e-06
1.12748e-05
5.07635e-06
7.9008e-06
3.44675e-06
1.35151e-07
8.89089e-09
2.20007e-08
1.99393e-08
2.05272e-08
2.08357e-08
2.13113e-08
2.43089e-08
2.41225e-08
2.33874e-08
9.55786e-09
1.21016e-07
3.42495e-06
5.8565e-06
4.66641e-06
1.2528e-05
1.34714e-05
5.88506e-06
3.33353e-06
4.21482e-06
1.54714e-07
8.11748e-09
2.00392e-08
1.96106e-08
2.03648e-08
2.00445e-08
2.0086e-08
2.12647e-08
2.17309e-08
2.19046e-08
8.8564e-09
1.38051e-07
3.87737e-06
3.42029e-06
4.85126e-06
1.52656e-05
1.32094e-05
6.49305e-06
2.39004e-06
4.64639e-06
3.62798e-07
5.77689e-09
1.95634e-08
1.90895e-08
1.91491e-08
1.84923e-08
1.85307e-08
1.75723e-08
1.40004e-08
1.43945e-08
6.40673e-09
3.78385e-07
4.18444e-06
2.63589e-06
5.31444e-06
1.61426e-05
1.17161e-05
8.18512e-06
2.83925e-06
4.60963e-06
7.03672e-07
9.11517e-09
1.20882e-08
1.23863e-08
1.29567e-08
1.30716e-08
1.26498e-08
1.37802e-08
1.32205e-08
1.21904e-08
1.10082e-08
1.18999e-06
4.54112e-06
2.72337e-06
6.51453e-06
1.65636e-05
7.13895e-06
1.12738e-05
2.38968e-06
4.6801e-06
1.47815e-06
2.54035e-07
3.06567e-07
2.47891e-07
2.64461e-07
2.61991e-07
2.41817e-07
2.59184e-07
2.54885e-07
2.74449e-07
2.91454e-07
1.79921e-06
5.1028e-06
2.11503e-06
8.687e-06
1.65247e-05
2.19554e-06
1.30357e-05
1.97914e-06
4.62046e-06
8.70544e-06
1.35351e-07
5.87656e-06
1.35351e-07
5.01932e-06
4.65173e-06
1.35351e-07
4.35021e-06
4.50986e-06
4.59429e-06
4.09342e-06
1.98027e-06
6.70114e-06
2.44894e-06
1.21164e-05
1.59958e-05
1.89839e-06
1.29934e-05
1.17965e-06
4.20084e-06
6.28506e-06
1.35351e-07
1.35351e-07
1.35351e-07
1.35351e-07
1.35351e-07
1.35351e-07
1.35351e-07
1.35351e-07
1.35351e-07
1.35351e-07
2.44877e-06
7.48336e-06
2.54594e-06
1.39392e-05
1.54655e-05
1.91391e-06
1.22078e-05
9.47057e-07
4.43584e-06
3.61985e-06
1.35351e-07
9.63939e-06
1.35351e-07
1.15598e-05
9.81838e-06
1.35351e-07
6.60139e-06
6.33612e-06
8.97143e-06
5.07884e-06
2.80656e-06
8.48347e-06
2.81973e-06
1.3798e-05
1.44616e-05
2.22355e-06
1.1021e-05
8.65064e-07
4.79171e-06
2.95245e-06
1.35351e-07
8.70401e-06
1.35351e-07
1.28238e-05
1.21303e-05
1.35351e-07
8.50726e-06
8.9047e-06
8.34425e-06
4.1134e-06
3.1627e-06
9.28747e-06
3.3269e-06
1.31193e-05
1.36071e-05
2.50379e-06
1.02942e-05
8.83611e-07
6.84274e-06
2.81087e-06
1.35351e-07
5.82285e-06
1.35351e-07
1.08606e-05
1.12626e-05
1.35351e-07
1.09727e-05
1.15982e-05
9.57528e-06
4.76367e-06
3.74623e-06
1.07697e-05
4.27711e-06
1.19772e-05
1.24032e-05
2.711e-06
8.95724e-06
1.03361e-06
9.68154e-06
3.03996e-06
1.35351e-07
4.41771e-06
1.35351e-07
7.67201e-06
8.94236e-06
1.35351e-07
1.19085e-05
1.12433e-05
8.95982e-06
6.19235e-06
3.57891e-06
1.1885e-05
4.84474e-06
1.03272e-05
9.85596e-06
3.08232e-06
6.41569e-06
1.16435e-06
1.16703e-05
6.76648e-06
1.35351e-07
5.22527e-06
1.35351e-07
6.10482e-06
8.09905e-06
1.35351e-07
1.04978e-05
9.46489e-06
6.77118e-06
6.68461e-06
3.72493e-06
1.20875e-05
5.78106e-06
7.99302e-06
6.70804e-06
3.08431e-06
3.37174e-06
3.27402e-07
9.49354e-06
8.30834e-06
1.35351e-07
7.76053e-06
1.35351e-07
8.46537e-06
8.79243e-06
1.35351e-07
8.87362e-06
8.03349e-06
4.95516e-06
6.31139e-06
5.03865e-06
1.0077e-05
5.11454e-06
3.07348e-06
3.21904e-06
2.03003e-06
4.78752e-07
2.08863e-07
7.26692e-06
1.96235e-05
1.35351e-07
5.8406e-06
1.35351e-07
5.99504e-06
6.05233e-06
1.35351e-07
6.15254e-06
6.21637e-06
4.53299e-06
5.44081e-06
5.36727e-06
9.7614e-06
8.65016e-07
2.53759e-07
4.29595e-07
1.1292e-08
4.93152e-07
1.76382e-07
6.71298e-06
2.461e-05
1.35351e-07
1.35351e-07
1.35351e-07
1.35351e-07
1.35351e-07
1.35351e-07
1.35351e-07
1.35351e-07
1.35351e-07
1.35351e-07
1.27488e-05
1.01218e-05
1.87855e-07
7.79712e-08
7.17406e-08
2.10163e-07
8.3128e-08
2.25226e-07
9.49317e-06
2.03236e-05
9.33779e-08
9.33779e-08
9.33779e-08
9.33779e-08
9.33779e-08
9.33779e-08
9.33779e-08
9.33779e-08
9.33779e-08
9.33779e-08
1.07418e-05
5.56327e-06
3.61745e-08
8.65147e-07
5.12334e-07
8.41777e-06
5.79302e-06
4.47329e-06
2.37163e-06
2.54422e-07
1.50647e-07
1.29577e-08
7.27803e-09
2.6926e-08
4.87114e-09
2.04554e-08
2.10845e-08
4.79689e-08
1.60241e-07
2.51412e-07
5.19468e-07
2.16498e-06
5.78109e-06
7.04542e-06
8.55598e-06
8.26858e-06
5.2892e-06
4.43672e-06
6.42388e-07
2.4905e-09
4.40956e-09
2.28234e-08
1.45657e-08
1.82259e-08
8.05679e-08
3.97858e-09
3.46089e-09
5.30749e-10
7.24966e-10
6.32508e-10
1.15622e-08
2.44344e-06
6.59472e-06
5.23658e-06
8.13961e-06
7.79372e-06
4.92844e-06
7.64631e-06
3.79558e-06
1.04442e-07
3.96814e-07
1.93332e-08
2.58315e-08
2.38489e-08
2.89075e-08