/*--------------------------------*- C++ -*----------------------------------*\
| =========                 |                                                 |
| \\      /  F ield         | OpenFOAM: The Open Source CFD Toolbox           |
|  \\    /   O peration     | Version:  2.3.0                                 |
|   \\  /    A nd           | Web:      www.OpenFOAM.org                      |
|    \\/     M anipulation  |                                                 |
\*---------------------------------------------------------------------------*/
FoamFile
{
    version     2.0;
    format      ascii;
    class       volVectorField;
    location    "3.30001";
    object      U;
}
// * * * * * * * * * * * * * * * * * * * * * * * * * * * * * * * * * * * * * //

dimensions      [0 1 -1 0 0 0 0];

internalField   nonuniform List<vector> 
10000
(
(-0.327089 -1.50397 -0.836591)
(0.0506931 -1.57304 -0.88413)
(0.19163 -1.15252 -0.719779)
(0.21209 -0.662428 -0.375171)
(0.333334 -0.542205 -0.313172)
(0.323226 -0.378354 -0.609517)
(0.203109 -0.22842 -0.404038)
(0.0263014 -0.103447 -0.349833)
(-0.00437685 -0.102052 -0.289238)
(-0.0523075 -0.131418 -0.336158)
(-0.192709 -0.203816 -0.534411)
(-0.299561 -0.420384 -0.318893)
(-0.293383 -0.387721 -0.164596)
(-0.335404 -0.368658 -0.172444)
(-0.336677 -0.356418 -0.128621)
(-0.250414 -0.428362 -0.187728)
(-0.239265 -0.666797 -0.433259)
(-0.18831 -0.997905 -0.718081)
(-0.0781185 -1.2717 -0.871868)
(0.334947 -1.30473 -0.849594)
(-0.00386355 -1.69308 -0.199937)
(-0.0135892 -1.72006 -0.13309)
(0.000125226 -1.22656 -0.0696836)
(-0.0303537 -0.349242 0.0128006)
(0.0149692 -0.15162 -0.596547)
(0.11019 -0.0185594 -1.68223)
(-0.00302669 0.0522322 -0.750481)
(-0.00806462 -0.0561662 -0.499145)
(-0.000131652 -0.0651149 -0.385719)
(0.0029799 -0.0525306 -0.518225)
(-0.0416035 -0.00661265 -1.34796)
(-0.0120673 -0.0327956 -1.08385)
(0.00762533 -0.109245 -0.175142)
(-0.0103136 -0.101577 -0.175313)
(0.000120297 -0.124183 -0.134475)
(0.0251446 -0.284085 -0.0842437)
(0.0194826 -0.476836 -0.021421)
(-0.0147631 -0.819519 0.00123968)
(0.00928116 -1.41935 -0.112547)
(-0.00609438 -1.43049 -0.138252)
(-0.0155425 -1.66191 -0.0843191)
(-0.0298551 -1.72788 -0.0334845)
(-0.00280859 -1.29775 -0.0303276)
(-0.0150649 -0.525475 -0.0183329)
(0.00735646 -0.256782 -0.116121)
(0.00459217 -0.13556 -0.283415)
(0.000752263 -0.0985051 -0.288084)
(0.00296813 -0.0777216 -0.31813)
(0.000152318 -0.0874155 -0.281999)
(-0.000154143 -0.100095 -0.246879)
(-0.000888002 -0.106858 -0.289126)
(0.0394857 -0.141951 -0.225181)
(0.00471576 -0.128736 -0.202139)
(0.000957 -0.11691 -0.212222)
(0.00404563 -0.147237 -0.176157)
(-0.00707325 -0.282284 -0.0934849)
(0.0385612 -0.65312 -0.0317253)
(-0.0215739 -0.549873 0.0585082)
(0.0241876 -1.55662 -0.0268794)
(-0.0017161 -1.47849 -0.0573009)
(-2.12077e-05 -1.41828 0.00559889)
(-0.0838507 -1.62728 -0.00412828)
(-0.0112056 -1.28048 -0.00700282)
(-0.0242791 -0.646381 -0.019524)
(0.00372586 -0.271936 -0.105417)
(-0.00369366 -0.0814563 -0.302844)
(8.99368e-05 -0.0586817 -0.388534)
(0.000108336 -0.069217 -0.35037)
(0.000193277 -0.0798845 -0.304525)
(0.000107271 -0.0851013 -0.283304)
(5.24989e-05 -0.0845681 -0.282863)
(-0.000105954 -0.0943287 -0.256249)
(-4.69132e-05 -0.118663 -0.243513)
(0.000220674 -0.111358 -0.248178)
(0.00229778 -0.143562 -0.18906)
(-0.00196754 -0.27399 -0.105486)
(0.0106826 -0.482243 0.0256143)
(-0.0128103 -0.613731 0.0270756)
(0.0429155 -1.5795 -0.00680275)
(-0.0020046 -1.39579 -0.0190033)
(-0.00145516 -1.40965 -0.0106349)
(-0.0876621 -1.57186 -0.011223)
(-0.0213726 -1.30757 -0.00735832)
(-0.00527269 -0.727817 -0.0262581)
(0.00493903 -0.276521 -0.107516)
(-0.00352481 -0.101478 -0.243246)
(0.000339139 -0.0772674 -0.322497)
(0.000110083 -0.07297 -0.333465)
(0.000112404 -0.0817191 -0.299016)
(0.000260801 -0.0905032 -0.274253)
(-2.23779e-05 -0.0937498 -0.261685)
(-0.000116667 -0.111815 -0.218633)
(-0.000103039 -0.11368 -0.213324)
(0.000661702 -0.10823 -0.225707)
(0.00191413 -0.130019 -0.184631)
(0.0052527 -0.279173 -0.105624)
(-0.00807087 -0.443384 0.0254856)
(0.00111986 -1.1688 -0.0347586)
(0.040651 -1.72312 -0.0252651)
(0.00419474 -1.18967 0.00725721)
(0.00752251 -1.24421 0.0171585)
(-0.0240383 -1.52855 -0.0478221)
(-0.0128986 -1.32854 0.010073)
(0.0196334 -0.712644 -0.0135477)
(0.00355292 -0.263543 -0.117941)
(-0.0010126 -0.0947066 -0.260745)
(0.000220415 -0.0711699 -0.340056)
(7.10215e-05 -0.0712869 -0.342828)
(0.000120887 -0.0811196 -0.303929)
(0.00018087 -0.0852006 -0.282894)
(0.000157257 -0.0870276 -0.27944)
(-0.000225638 -0.1035 -0.23497)
(-0.000443139 -0.113497 -0.213982)
(0.000478819 -0.10966 -0.223841)
(0.00091738 -0.12743 -0.19191)
(0.00546565 -0.281831 -0.101437)
(-0.00888241 -0.422204 0.0204281)
(0.0179545 -1.39062 -0.017974)
(0.0151277 -1.7525 -0.0280153)
(0.00355864 -1.09968 0.0291806)
(0.0167586 -1.19001 0.0407495)
(0.0303932 -1.50223 -0.0524513)
(-0.0106402 -1.39956 0.022353)
(0.0296745 -0.501736 0.0105724)
(0.00100062 -0.255052 -0.114941)
(0.000805529 -0.0948106 -0.256677)
(0.000221461 -0.0734031 -0.328913)
(0.000125158 -0.0717813 -0.343964)
(4.31066e-05 -0.080418 -0.304273)
(0.000138016 -0.0869976 -0.2845)
(0.000149847 -0.0872707 -0.281185)
(-0.000149977 -0.103192 -0.236382)
(-0.000310036 -0.113164 -0.215388)
(0.000182619 -0.108042 -0.22089)
(0.00109654 -0.124568 -0.196945)
(0.00121921 -0.275914 -0.0907771)
(-0.000893562 -0.403087 0.0114319)
(0.0214388 -1.36213 0.00500092)
(-0.0106354 -1.72794 -0.0507562)
(0.00229322 -1.1854 0.010207)
(0.0283169 -1.21919 0.0323341)
(0.0352282 -1.40816 -0.0168934)
(-0.0154571 -1.65875 -0.0127246)
(0.00870985 -0.380941 0.0186354)
(-0.00150196 -0.215611 -0.101366)
(0.00200049 -0.0914202 -0.255124)
(-0.000124008 -0.0735779 -0.327674)
(-0.000105748 -0.0693201 -0.330106)
(-0.000108401 -0.0787346 -0.292501)
(0.000170938 -0.0828579 -0.276686)
(0.000146547 -0.0822216 -0.276727)
(-0.000184185 -0.0967873 -0.232568)
(0.000158726 -0.109588 -0.203415)
(6.58019e-05 -0.108538 -0.209472)
(-0.000811374 -0.117348 -0.190545)
(-0.00267597 -0.234491 -0.0829642)
(0.00241606 -0.385952 0.00230708)
(0.0285078 -1.45898 -0.00218175)
(-0.0018819 -1.62785 -0.046904)
(0.00547387 -1.22992 0.0104244)
(0.0281858 -1.33308 0.0211742)
(0.0276539 -1.32188 -0.0154838)
(-0.00930031 -1.67438 -0.0326857)
(-0.000232266 -0.397054 0.00873323)
(-0.00412766 -0.158792 -0.049899)
(9.92113e-05 -0.0675466 -0.200301)
(0.000363678 -0.0546295 -0.252458)
(-0.000417472 -0.0516586 -0.264375)
(-0.00153839 -0.0575587 -0.228676)
(0.000362349 -0.0613278 -0.209822)
(-1.74794e-05 -0.0601799 -0.217553)
(-0.00036716 -0.0695349 -0.175304)
(0.00118402 -0.0784752 -0.144142)
(-0.000528377 -0.0754091 -0.157512)
(-0.000153617 -0.085147 -0.139206)
(0.000798818 -0.168813 -0.0499142)
(-0.0244353 -0.480032 -0.00732179)
(0.0274195 -1.45626 0.00183596)
(0.0172844 -1.48377 -0.0172569)
(4.33391e-05 -1.16296 0.033386)
(-0.0244849 -1.57557 0.0104698)
(0.0164332 -1.19118 0.020473)
(0.0103268 -1.70323 -0.0343283)
(0.00366275 -0.5424 -0.00210585)
(0.00163044 -0.0718523 0.00731183)
(0.00079522 -0.0279679 0.0034486)
(0.000387794 -0.0196957 0.00363195)
(0.000139007 -0.0122048 0.00334587)
(0.000199811 -0.0261236 0.00372149)
(-0.000269456 -0.0294909 0.00395242)
(-1.46152e-05 -0.0262928 0.00335788)
(0.000385788 -0.0340085 0.00450843)
(0.000138045 -0.0348006 0.00558046)
(-0.000615035 -0.0340053 0.00530724)
(-0.00140663 -0.0409905 0.00479669)
(-0.0032675 -0.0904378 0.00471091)
(-0.0295681 -0.589639 -0.0205301)
(0.0199102 -1.62451 -0.00744184)
(0.00360636 -1.3851 -0.0263171)
(-0.0156281 -1.10317 0.0392651)
(-0.0261529 -1.75553 -0.0232938)
(0.00674238 -1.17149 0.0315974)
(0.0116953 -1.71422 -0.0358008)
(0.00657275 -0.532338 0.00334671)
(-0.000285018 -0.143705 -0.00188709)
(-0.00011616 -0.0465447 -0.00079568)
(0.000245219 -0.0283588 -0.000556197)
(0.000100311 -0.0283684 -0.000594261)
(0.000230514 -0.0287305 0.000730577)
(0.000185932 -0.0308628 0.000979246)
(-0.000147614 -0.0361717 0.000233132)
(-5.18258e-05 -0.0350505 0.00049383)
(-0.000275056 -0.0342161 0.000404932)
(-0.000624178 -0.0328062 0.000549955)
(6.13768e-05 -0.0514057 -0.00177005)
(-0.00372295 -0.152996 -0.00145818)
(-0.00234569 -0.642742 -0.0242072)
(-0.0167712 -1.59123 -0.0218578)
(-0.00788946 -1.22853 0.0126773)
(-0.0250219 -1.14258 0.0194583)
(-0.0163391 -1.7536 -0.0441185)
(-0.00196071 -1.18917 0.0201543)
(0.00300812 -1.72117 -0.0349536)
(0.00729031 -0.553969 0.00388222)
(-0.000451208 -0.124083 -0.000647876)
(-0.000453664 -0.0459136 -0.000179645)
(3.13648e-05 -0.036304 -0.00165296)
(0.000168898 -0.0241541 0.000345616)
(-0.000216048 -0.0302293 -9.79919e-05)
(0.000433924 -0.0287972 2.18191e-05)
(0.000266924 -0.0291998 0.00105262)
(-0.000173938 -0.0367632 -1.27495e-05)
(-0.000129935 -0.0373169 -2.10017e-05)
(-7.39147e-06 -0.039337 -0.000410343)
(0.0002235 -0.0661562 -0.00195797)
(-0.00466825 -0.141962 -0.00229338)
(-0.00911463 -0.682911 -0.0152011)
(-0.0255866 -1.5623 -0.00334633)
(-0.0119521 -1.19056 0.0302225)
(-0.0201396 -1.23979 0.0041998)
(-0.0122869 -1.71885 -0.0331135)
(-0.00142955 -1.20359 0.0124736)
(0.00603438 -1.73077 -0.031359)
(0.00128016 -0.683393 -0.00498432)
(0.0016323 -0.119247 0.000775922)
(-0.000625191 -0.0498001 -0.00164769)
(-0.000313888 -0.0412888 -0.00200323)
(0.000101764 -0.0241444 -0.000167103)
(-5.67083e-05 -0.0280575 -0.000276905)
(0.000181605 -0.0292873 -4.16735e-05)
(0.00050473 -0.025524 0.000650143)
(-9.81802e-05 -0.0307428 0.00110668)
(-0.000307825 -0.0305166 0.00108239)
(0.000273213 -0.0327229 0.000170605)
(-0.000249907 -0.0517764 0.000714818)
(-0.00341392 -0.141191 -0.00188467)
(-0.010536 -0.686035 -0.00276633)
(-0.00834142 -1.51739 -0.00690614)
(-0.0118167 -1.24085 0.0160569)
(0.0014421 -1.26366 0.0188818)
(-0.0177121 -1.69137 -0.0310787)
(-0.000963135 -1.24947 0.00690481)
(0.00845833 -1.73653 -0.0297104)
(0.00162937 -0.720711 -0.0111374)
(0.001795 -0.0759916 0.00248907)
(-0.00040152 -0.0617056 -0.00121552)
(-0.000525536 -0.0562756 -0.0013601)
(-0.000355185 -0.0279218 -0.00105439)
(-4.14676e-05 -0.0329655 -0.00162905)
(-1.95168e-05 -0.031503 -0.00104631)
(8.33464e-05 -0.0225624 0.000281708)
(-0.000138532 -0.0267531 0.000295732)
(-0.000144279 -0.0287533 7.70466e-05)
(0.000188234 -0.0377171 -0.000592662)
(-0.000122296 -0.0498979 0.000453856)
(0.00166364 -0.149793 -0.00262318)
(-0.0119027 -0.680883 -0.000497805)
(-0.0140306 -1.49026 -0.00702342)
(-0.00832884 -1.29553 0.0120163)
(0.0270399 -1.18685 0.0421003)
(-0.0114054 -1.67528 -0.033122)
(-0.00157665 -1.19564 0.0239042)
(0.00469539 -1.74083 -0.0309019)
(0.00517171 -0.7255 -0.0146098)
(0.00687026 -0.0768546 0.00251598)
(0.000164543 -0.0522351 0.000397561)
(-0.000212303 -0.0482818 0.000630744)
(-0.000301279 -0.0363739 -0.000744786)
(-0.000332367 -0.0441603 -0.001204)
(-0.00050458 -0.0394659 -0.00122798)
(-0.000182887 -0.0239425 -0.000156892)
(3.15384e-05 -0.029924 -0.000546303)
(0.0002011 -0.0322493 -0.000866002)
(3.84028e-05 -0.0409495 -0.00172806)
(0.000467004 -0.0521294 0.000459421)
(0.00393622 -0.154867 -7.87647e-05)
(-0.00990265 -0.674848 -0.00932669)
(-0.0179777 -1.45599 -0.0109127)
(-0.0091714 -1.32637 0.0115822)
(0.028227 -1.13335 0.0377182)
(-0.00697718 -1.63313 -0.0211372)
(-0.00276194 -1.07168 0.0299641)
(0.000807527 -1.75179 -0.0275216)
(-0.00129552 -0.718157 -0.0149715)
(0.00581541 -0.0670511 0.0034157)
(-0.000567074 -0.0433073 0.000782563)
(0.000135222 -0.0450137 0.000811096)
(0.000101284 -0.0332147 0.000216058)
(-0.000111093 -0.0406685 8.10338e-06)
(-9.97214e-05 -0.0435435 -0.000299168)
(-0.000126789 -0.0262465 -0.000571425)
(-5.42664e-05 -0.0339643 -0.0011576)
(-1.53747e-06 -0.0385844 -0.00143492)
(0.000188245 -0.0546809 -0.00279051)
(0.00105909 -0.0563224 -0.000484165)
(-0.000432286 -0.123455 0.00319779)
(-0.0034101 -0.621821 0.000953888)
(-0.0092289 -1.44319 -0.0224171)
(-0.0102669 -1.32334 0.0153384)
(0.0270941 -1.15185 0.0143086)
(-0.0103364 -1.5805 -0.0208183)
(-0.00310125 -0.961799 0.0222096)
(0.00335657 -1.7721 -0.0179951)
(-0.0119737 -0.721421 -0.0104053)
(0.0028773 -0.0613785 0.00140558)
(-0.00019311 -0.0455463 -0.000896261)
(-0.000108556 -0.047376 -0.00139855)
(-5.23725e-05 -0.0337938 -0.00114178)
(0.00015788 -0.0440584 -0.00177416)
(0.00021428 -0.0424626 -0.00187006)
(-8.96042e-05 -0.0303771 -0.00193062)
(0.000116719 -0.0413236 -0.00262005)
(0.000772923 -0.0463944 -0.00219741)
(0.000237006 -0.0687515 -0.000408006)
(0.000339566 -0.0608544 -0.00201001)
(-0.00411927 -0.107185 0.00384149)
(0.00110259 -0.575568 0.0122853)
(-0.00360696 -1.44118 -0.0255634)
(-0.00840891 -1.23719 0.0153903)
(0.0243672 -1.14378 0.00847966)
(-0.0166679 -1.48134 0.00554909)
(0.0136692 -0.761484 0.0186359)
(0.00249117 -1.78852 -0.0153202)
(-0.00834897 -0.74514 -0.00568515)
(-0.00109904 -0.0734822 -0.0027365)
(1.62362e-05 -0.0553195 -0.00512265)
(-0.000221143 -0.064164 -0.00421714)
(-5.76234e-05 -0.0495488 -0.00582383)
(0.000179879 -0.0626269 -0.00447564)
(-0.000263001 -0.0623085 -0.00457011)
(5.14738e-07 -0.0480816 -0.00594257)
(0.000402265 -0.0609462 -0.00446332)
(0.00069582 -0.0606586 -0.00349343)
(0.000261556 -0.0524265 0.000766828)
(0.000243552 -0.0710435 -0.00218236)
(0.0035831 -0.0937313 0.0026962)
(-0.00243269 -0.564571 0.00134221)
(-0.00560251 -1.43123 -0.0224719)
(-0.00649894 -1.09759 0.00876961)
(0.0155866 -0.922615 0.0179257)
(-0.0155043 -1.47191 0.00955042)
(0.0187914 -0.505384 0.0194596)
(-0.00208138 -1.80025 -0.00737534)
(-0.00178153 -0.751349 -0.00432603)
(-0.00687652 -0.109067 -0.0103966)
(-0.00038961 -0.108208 -0.0129844)
(-0.00018293 -0.106001 -0.0118087)
(-3.12161e-05 -0.10368 -0.0138017)
(0.000207139 -0.104854 -0.0119329)
(-0.000231612 -0.104134 -0.0118946)
(-1.38563e-05 -0.101749 -0.0137165)
(0.000225857 -0.102357 -0.0117876)
(-0.000334808 -0.0958217 -0.0108191)
(0.000235841 -0.0716041 -0.00712324)
(0.00124939 -0.102381 -0.00877146)
(0.0108783 -0.0956787 0.00218674)
(0.00829819 -0.46909 0.0162281)
(-0.00159116 -1.42478 -0.00950678)
(-0.00571315 -0.835531 0.00456314)
(0.00792277 -0.479302 0.0184589)
(-0.00498342 -1.67734 -0.00680358)
(0.00649466 -0.255744 0.0133411)
(0.000629811 -1.80517 -0.00178156)
(-0.00191469 -0.750154 -0.00376612)
(-0.00670044 -0.208665 -0.00725489)
(-0.000266852 -0.237915 -0.00886178)
(-9.87963e-05 -0.236487 -0.00960565)
(-1.51608e-05 -0.234428 -0.00969347)
(9.32965e-06 -0.235363 -0.00965952)
(-3.26276e-05 -0.234199 -0.00964257)
(-1.31023e-05 -0.231201 -0.00964768)
(-2.70361e-05 -0.23034 -0.00953949)
(-0.000243704 -0.214507 -0.00904064)
(9.76709e-05 -0.157871 -0.00721261)
(2.22497e-05 -0.215121 -0.00876576)
(-0.00217154 -0.0957132 0.00259838)
(0.0195703 -0.38781 0.0290187)
(0.00313777 -1.4269 -0.00509523)
(-0.00358546 -0.731816 -0.00120861)
(0.00283715 -0.247379 0.0064869)
(-0.349909 -1.48788 -0.738272)
(0.054774 -1.56258 -0.779086)
(0.205426 -1.14566 -0.635258)
(0.224596 -0.670971 -0.340601)
(0.355926 -0.558672 -0.288387)
(0.320687 -0.374861 -0.584012)
(0.163498 -0.216064 -0.380015)
(0.00921294 -0.0989395 -0.333159)
(-0.00445017 -0.0988114 -0.277956)
(-0.0481641 -0.126685 -0.317312)
(-0.19771 -0.202043 -0.513481)
(-0.312802 -0.422269 -0.297419)
(-0.305142 -0.38569 -0.146439)
(-0.347688 -0.36214 -0.155141)
(-0.348822 -0.35171 -0.113666)
(-0.269608 -0.424012 -0.162785)
(-0.249552 -0.672264 -0.393387)
(-0.199642 -1.00018 -0.655569)
(-0.0821922 -1.27523 -0.791704)
(0.354074 -1.30163 -0.770299)
(-0.00913522 -1.67872 -0.192336)
(-0.0119585 -1.7194 -0.126208)
(0.00149348 -1.22602 -0.0634064)
(-0.0280166 -0.415738 0.00828491)
(0.0141088 -0.140745 -0.594739)
(0.105501 -0.0169983 -1.69179)
(-0.00388593 0.0583445 -0.750839)
(-0.0085112 -0.0544377 -0.500898)
(-0.000268671 -0.0600458 -0.3873)
(0.00306533 -0.0488876 -0.517861)
(-0.0413234 -0.00553482 -1.35294)
(-0.0164383 -0.0193875 -1.09803)
(0.0124182 -0.0946817 -0.182652)
(-0.0103901 -0.0880631 -0.182858)
(0.00171681 -0.11448 -0.141467)
(0.0225997 -0.266087 -0.0928136)
(0.0177628 -0.499132 -0.0196117)
(-0.0182225 -0.857156 -0.0104865)
(0.0100184 -1.43733 -0.101109)
(-0.00360439 -1.4318 -0.131227)
(-0.0152087 -1.6869 -0.0788251)
(-0.0284863 -1.74652 -0.0394356)
(-0.00308358 -1.30505 -0.0290695)
(-0.0147861 -0.540379 -0.00893476)
(0.00866965 -0.24668 -0.111914)
(0.00451184 -0.134213 -0.280591)
(0.000593302 -0.0961531 -0.282435)
(0.00317147 -0.0729192 -0.317407)
(0.000149656 -0.0820366 -0.281086)
(-6.5235e-05 -0.0940632 -0.245198)
(-0.000901876 -0.103837 -0.287466)
(0.0408794 -0.137626 -0.222349)
(0.00893842 -0.123569 -0.199642)
(0.00104745 -0.109904 -0.211556)
(0.00428276 -0.139268 -0.174968)
(-0.00573302 -0.268425 -0.0955387)
(0.0391946 -0.688005 -0.0273141)
(-0.0249987 -0.646284 0.0537353)
(0.0246356 -1.58161 -0.0219758)
(0.000387653 -1.4927 -0.0575788)
(-0.000232685 -1.46896 0.000747564)
(-0.0847483 -1.6533 -0.0100833)
(-0.0113231 -1.28827 -0.00852959)
(-0.0252093 -0.653067 -0.0116815)
(0.00347092 -0.260738 -0.105476)
(-0.00401029 -0.0754883 -0.304465)
(7.6362e-05 -0.0544494 -0.389748)
(1.02497e-05 -0.0646855 -0.350608)
(0.000178619 -0.0745994 -0.304808)
(9.16135e-05 -0.0793583 -0.283771)
(4.07621e-05 -0.0787836 -0.283541)
(-0.000137816 -0.0874213 -0.25775)
(-7.85477e-05 -0.111713 -0.244408)
(0.000290156 -0.104989 -0.248757)
(0.00211549 -0.139949 -0.189806)
(-0.00133119 -0.260765 -0.106391)
(0.00933366 -0.582434 0.0213679)
(-0.013921 -0.680677 0.0418466)
(0.0439414 -1.6 -0.00131758)
(-0.00226854 -1.41706 -0.0160635)
(0.000544159 -1.42084 -0.0105643)
(-0.0860506 -1.59437 -0.014364)
(-0.0215165 -1.32098 -0.0015368)
(-0.00591209 -0.732924 -0.0248755)
(0.00478903 -0.266779 -0.107993)
(-0.0035505 -0.0948879 -0.242319)
(0.000343056 -0.0724633 -0.322053)
(0.000115369 -0.0682454 -0.333352)
(0.00011019 -0.0763801 -0.298962)
(0.000265317 -0.0847364 -0.27424)
(-2.39317e-05 -0.0878023 -0.261542)
(-0.000116168 -0.104928 -0.218168)
(-0.000108143 -0.106375 -0.213618)
(0.000755982 -0.101236 -0.225895)
(0.0016221 -0.121236 -0.185704)
(0.00645873 -0.268139 -0.104772)
(-0.0111253 -0.528389 0.0235849)
(0.0012737 -1.17315 -0.0103905)
(0.0404765 -1.74208 -0.0190972)
(0.00376739 -1.24053 0.00587138)
(0.0100902 -1.29488 0.0188441)
(-0.0222545 -1.55463 -0.0494403)
(-0.0138452 -1.38639 0.0155614)
(0.0204365 -0.724637 -0.0210121)
(0.00301185 -0.252169 -0.118068)
(-0.000458099 -0.0884205 -0.260883)
(0.000201957 -0.066493 -0.340291)
(8.77465e-05 -0.0665881 -0.342883)
(0.000120211 -0.0758549 -0.304)
(0.000179087 -0.0795866 -0.283067)
(0.000157363 -0.0812904 -0.279738)
(-0.000219753 -0.0967348 -0.235369)
(-0.000450953 -0.106163 -0.214046)
(0.000533965 -0.102583 -0.223922)
(0.000566173 -0.119197 -0.192469)
(0.0062535 -0.271085 -0.10086)
(-0.0118327 -0.492667 0.0183414)
(0.0197048 -1.41506 -0.00290745)
(0.0128022 -1.77726 -0.0272901)
(0.00275145 -1.15625 0.0308807)
(0.0179894 -1.25692 0.0390322)
(0.0319081 -1.5227 -0.0554574)
(-0.0121608 -1.50776 0.0194366)
(0.0348517 -0.585794 -0.00155616)
(0.00151342 -0.24416 -0.115601)
(0.00103928 -0.0884975 -0.256797)
(0.000176983 -0.0685122 -0.32877)
(0.000132267 -0.0670937 -0.344059)
(4.06233e-05 -0.0751635 -0.304399)
(0.000134311 -0.0813441 -0.284629)
(0.000147206 -0.0816024 -0.281416)
(-0.000148937 -0.0964851 -0.236702)
(-0.00030922 -0.105767 -0.215612)
(0.000199429 -0.100829 -0.221027)
(0.00121651 -0.116351 -0.197544)
(0.00105369 -0.267084 -0.0926616)
(-0.0027835 -0.464394 0.00881801)
(0.0241142 -1.42538 0.00729358)
(-0.0117021 -1.75463 -0.0547011)
(0.000496896 -1.2214 0.0146485)
(0.0290762 -1.28231 0.0353894)
(0.0352202 -1.42319 -0.0212797)
(-0.0151871 -1.65572 -0.00745257)
(0.0103832 -0.447815 0.0143195)
(-9.46165e-05 -0.208136 -0.105174)
(0.00200101 -0.0854297 -0.256706)
(-0.000157104 -0.0686306 -0.328627)
(-0.000103685 -0.064535 -0.331231)
(-8.4478e-05 -0.0734059 -0.293806)
(0.000166736 -0.0772902 -0.278135)
(0.000147209 -0.0766231 -0.278218)
(-0.000175818 -0.0903537 -0.234443)
(0.000137332 -0.10238 -0.205389)
(7.35684e-05 -0.101454 -0.211271)
(-0.000486763 -0.109905 -0.1925)
(-0.00409417 -0.227419 -0.087636)
(0.00136532 -0.445682 0.00217281)
(0.0294768 -1.4772 0.00236863)
(-0.00265343 -1.64968 -0.0551297)
(0.00420237 -1.26518 0.00977441)
(0.027807 -1.39648 0.0279628)
(0.0279528 -1.34052 -0.0118097)
(-0.0137265 -1.67174 -0.0293409)
(-0.000146254 -0.444251 0.0123997)
(-0.00278247 -0.155903 -0.0553213)
(6.0766e-05 -0.0615404 -0.20264)
(0.000333433 -0.0496892 -0.254178)
(-0.000411629 -0.0468276 -0.266282)
(-0.00152492 -0.0521655 -0.230409)
(0.000384561 -0.055569 -0.211634)
(-1.34578e-05 -0.0544562 -0.219369)
(-0.000375384 -0.0634637 -0.177471)
(0.00119659 -0.0723655 -0.146699)
(-0.000519541 -0.0692412 -0.160039)
(-0.000156446 -0.0784355 -0.141911)
(-0.000298326 -0.166965 -0.0542811)
(-0.0237026 -0.50074 -0.00138567)
(0.0286384 -1.51153 0.00482452)
(0.015997 -1.49928 -0.0245991)
(-0.0015099 -1.21703 0.0295221)
(-0.0264877 -1.64705 0.0105137)
(0.0177369 -1.24634 0.0220194)
(0.00927654 -1.70555 -0.0319741)
(0.00343027 -0.557488 0.00435775)
(0.00203111 -0.102058 0.00680557)
(0.000866973 -0.0313781 0.00281076)
(0.000397077 -0.024627 0.00284146)
(0.000136485 -0.016164 0.00261099)
(0.000193432 -0.0309871 0.00294439)
(-0.000281962 -0.0342689 0.00310261)
(-2.78452e-05 -0.0300448 0.00267091)
(0.000364234 -0.0385726 0.00349411)
(0.000131422 -0.0388701 0.00427215)
(-0.000631633 -0.0381892 0.00409522)
(-0.0014633 -0.0454534 0.0037821)
(-0.00426684 -0.122437 0.00520192)
(-0.028096 -0.592229 -0.0156007)
(0.0227075 -1.62066 -0.0165052)
(0.00288743 -1.40215 -0.0233777)
(-0.0176275 -1.1637 0.038666)
(-0.0280234 -1.78067 -0.0316372)
(0.00693077 -1.23264 0.0303282)
(0.0136273 -1.71558 -0.0349764)
(0.00597401 -0.584198 0.00694343)
(-0.000903271 -0.127654 0.00032755)
(-0.000128315 -0.0428198 -0.000277954)
(0.000225968 -0.026116 -9.74528e-05)
(8.54842e-05 -0.0261422 -0.000184574)
(0.000194662 -0.027709 0.000717667)
(0.000193014 -0.0299863 0.00099296)
(-0.000142172 -0.0357114 0.000343145)
(-5.22635e-05 -0.0343733 0.00059898)
(-0.000277898 -0.0334244 0.000507071)
(-0.000567833 -0.0318259 0.000561296)
(9.6892e-05 -0.0472352 -0.000917407)
(-0.00362084 -0.138454 0.00052102)
(-0.0022119 -0.642866 -0.0204883)
(-0.0166861 -1.58624 -0.02274)
(-0.00930862 -1.27727 0.0143102)
(-0.0250285 -1.18832 0.02397)
(-0.0177994 -1.77907 -0.0458522)
(-0.00214593 -1.24158 0.0201901)
(0.00700247 -1.72192 -0.0349236)
(0.00698618 -0.592691 0.00698626)
(-0.000731291 -0.113563 -0.000891796)
(-0.000410098 -0.0421905 -8.51145e-05)
(2.85087e-05 -0.0342499 -0.00124464)
(0.000128197 -0.0230918 0.000225096)
(-0.000209502 -0.0285485 -0.000205237)
(0.000409634 -0.0281197 -0.000127724)
(0.000266994 -0.0283747 0.000729623)
(-0.000154701 -0.0365731 -0.000111195)
(-0.000121376 -0.0371467 -0.000113561)
(-3.81507e-06 -0.0371432 -0.000390354)
(0.000187014 -0.062375 -0.00159672)
(-0.00455941 -0.133201 -0.00232618)
(-0.00872239 -0.682371 -0.0129857)
(-0.0287698 -1.56048 -0.00618683)
(-0.0127419 -1.24879 0.0304237)
(-0.0190582 -1.27485 0.00802867)
(-0.013855 -1.74056 -0.0360888)
(-0.00146125 -1.25072 0.0135678)
(0.00983779 -1.72803 -0.0309087)
(0.00158466 -0.68559 -0.00042796)
(0.00188956 -0.129615 -0.00112311)
(-0.000554481 -0.0456947 -0.00102835)
(-0.000300984 -0.0389242 -0.00136349)
(9.05465e-05 -0.0222186 -0.000122482)
(-5.52929e-05 -0.0264777 -0.000188993)
(0.000170127 -0.0276484 -5.5789e-05)
(0.000473728 -0.024503 0.000455185)
(-9.91488e-05 -0.0302833 0.000835982)
(-0.000285431 -0.0299906 0.000838271)
(0.000270012 -0.0321645 0.000117674)
(-0.000227257 -0.0534432 0.000422743)
(-0.0031881 -0.132886 -0.00120508)
(-0.00999768 -0.68565 -0.00260619)
(-0.0125148 -1.51369 -0.00932987)
(-0.0128806 -1.28778 0.0188345)
(0.00271843 -1.31159 0.0165626)
(-0.0186583 -1.71193 -0.0333921)
(-0.000979235 -1.29272 0.00557571)
(0.0116327 -1.72983 -0.0296379)
(0.00189256 -0.719289 -0.00936892)
(0.00243976 -0.101708 0.000610177)
(-0.000337119 -0.0567218 -0.000860242)
(-0.000492278 -0.0530599 -0.000961391)
(-0.000328901 -0.0256615 -0.000665494)
(-4.00665e-05 -0.031096 -0.00111846)
(-2.51721e-05 -0.0297273 -0.00071856)
(5.00511e-05 -0.0214746 0.000148678)
(-0.000131219 -0.026025 0.000172204)
(-0.000122912 -0.0278426 2.30208e-05)
(0.000190249 -0.0355996 -0.000432937)
(-6.21739e-05 -0.0507135 0.000485054)
(0.00168401 -0.14011 -0.00154971)
(-0.0113698 -0.6803 -0.000334009)
(-0.0163149 -1.48837 -0.00936327)
(-0.00984196 -1.3407 0.0131313)
(0.0280548 -1.25971 0.0356656)
(-0.0126984 -1.69489 -0.0355631)
(-0.00170449 -1.25964 0.0164644)
(0.00962489 -1.73109 -0.0307666)
(0.00510963 -0.723141 -0.0147485)
(0.00846817 -0.0938383 0.00231259)
(0.000194085 -0.0537387 0.000102311)
(-0.000182975 -0.0495607 0.000395892)
(-0.000270147 -0.0334627 -0.000453587)
(-0.000316734 -0.0416763 -0.000797687)
(-0.000486169 -0.0372345 -0.000834781)
(-0.000175142 -0.0220251 -0.000123323)
(2.66858e-05 -0.0282435 -0.000425741)
(0.000198251 -0.0304312 -0.00066445)
(4.50905e-05 -0.0386255 -0.00116917)
(0.000444093 -0.0516263 0.000390856)
(0.00503669 -0.14607 -0.000397907)
(-0.00934889 -0.675107 -0.00630445)
(-0.0210817 -1.45529 -0.0126043)
(-0.0108268 -1.37492 0.0104503)
(0.0295407 -1.21166 0.0337508)
(-0.00881272 -1.65334 -0.0246254)
(-0.00272716 -1.15594 0.0199055)
(0.00624685 -1.73883 -0.0264458)
(-0.00112981 -0.715901 -0.0152041)
(0.00564844 -0.0684953 0.00278042)
(-0.000566018 -0.0430604 0.00058259)
(0.000149455 -0.0454436 0.000586115)
(0.000117102 -0.0323948 0.000138521)
(-9.95e-05 -0.0405555 1.23066e-05)
(-9.1534e-05 -0.0410947 -0.000197271)
(-0.000115235 -0.0241253 -0.000359657)
(-5.01205e-05 -0.0320382 -0.000787847)
(1.87404e-06 -0.0363867 -0.000973393)
(0.000168038 -0.0515246 -0.00187759)
(0.000999009 -0.0530387 -0.000320046)
(-4.247e-06 -0.1304 0.0018328)
(-0.00280891 -0.636469 0.00055653)
(-0.0109393 -1.44313 -0.0225668)
(-0.0116518 -1.38137 0.00955456)
(0.0287522 -1.21846 0.0116038)
(-0.0111807 -1.60917 -0.015122)
(-0.00319396 -1.05863 0.0089089)
(0.00746202 -1.75628 -0.0161531)
(-0.0108495 -0.71803 -0.0094785)
(0.00265264 -0.0606191 0.000999557)
(-0.000181843 -0.0418284 -0.00047309)
(-0.00010162 -0.0446574 -0.000876473)
(-4.90344e-05 -0.0310645 -0.000689669)
(0.000151097 -0.0415411 -0.00117081)
(0.000209249 -0.0400301 -0.0012381)
(-8.10035e-05 -0.0279048 -0.00120006)
(0.000107077 -0.0389484 -0.00175266)
(0.000725097 -0.0437272 -0.00146353)
(0.000217623 -0.0648647 -0.000304226)
(0.00031781 -0.0572251 -0.00133927)
(-0.00492199 -0.110875 0.00272862)
(0.00154243 -0.599436 0.00850691)
(-0.00536657 -1.44193 -0.0253273)
(-0.00966449 -1.31443 0.00387182)
(0.0264433 -1.2179 -0.00238064)
(-0.0180083 -1.55058 0.00467988)
(0.0157395 -0.895712 -0.00143411)
(0.00513663 -1.76663 -0.0127716)
(-0.00720889 -0.738645 -0.0043902)
(-0.000969157 -0.0674958 -0.00152877)
(3.70449e-05 -0.0505238 -0.00293668)
(-0.000203204 -0.060148 -0.00215404)
(-5.24112e-05 -0.0452591 -0.00338929)
(0.000171488 -0.0587141 -0.00233997)
(-0.00024861 -0.0584232 -0.00241116)
(-8.78973e-08 -0.0439292 -0.00347376)
(0.000375178 -0.0571587 -0.00235993)
(0.000631711 -0.0569475 -0.00176849)
(0.000241307 -0.0533018 0.000885906)
(0.000229679 -0.0665758 -0.000820429)
(0.00351756 -0.0952406 0.00232046)
(-0.00216742 -0.584787 -0.0023124)
(-0.00818276 -1.4345 -0.0227885)
(-0.00811017 -1.20674 -0.0100134)
(0.0182752 -1.04749 -0.00977722)
(-0.0170081 -1.60164 -0.000419408)
(0.021236 -0.712685 -0.00283881)
(-0.000249195 -1.77532 -0.00581573)
(-0.00159829 -0.744938 -0.00388336)
(-0.00619507 -0.0985362 -0.0057094)
(-0.000323315 -0.09628 -0.00679859)
(-0.000165655 -0.0944047 -0.00575806)
(-2.86795e-05 -0.0923142 -0.0073259)
(0.000198011 -0.0934078 -0.00585281)
(-0.000221416 -0.0927921 -0.00584387)
(-1.39754e-05 -0.0906671 -0.00730757)
(0.000208317 -0.0912908 -0.0058213)
(-0.000336718 -0.0858122 -0.00540513)
(0.000209912 -0.0650365 -0.0036585)
(0.00110635 -0.0914201 -0.00403798)
(0.0104993 -0.0957769 0.00184981)
(0.00849724 -0.49712 0.0105518)
(-0.0019302 -1.42759 -0.00858825)
(-0.00679527 -1.07046 -0.0165801)
(0.0114249 -0.718651 -0.0143748)
(-0.00496156 -1.71088 -0.00440138)
(0.0076082 -0.567247 0.000644025)
(0.000770726 -1.77897 -0.00126655)
(-0.00395616 -0.743249 -0.0035074)
(-0.00652989 -0.176032 -0.00293891)
(-0.000282257 -0.191108 -0.00334393)
(-0.000107033 -0.1899 -0.00376789)
(-1.5263e-05 -0.18843 -0.00383574)
(8.7282e-06 -0.189127 -0.00380899)
(-3.13996e-05 -0.188357 -0.00381295)
(-1.25786e-05 -0.186267 -0.00384716)
(-2.53314e-05 -0.185715 -0.00379908)
(-0.000219336 -0.17596 -0.00376171)
(8.2884e-05 -0.136968 -0.00348431)
(-0.000187063 -0.175346 -0.00366557)
(-0.00321949 -0.0950686 0.00141099)
(0.020821 -0.432296 0.0221894)
(0.00312748 -1.42925 -0.00374599)
(-0.00074424 -1.07371 -0.00958766)
(0.0049567 -0.586209 -0.00646019)
(-0.373991 -1.47079 -0.657043)
(0.0578377 -1.55412 -0.703301)
(0.217627 -1.1402 -0.57368)
(0.237782 -0.680233 -0.311977)
(0.370784 -0.563165 -0.276764)
(0.318585 -0.371494 -0.57336)
(0.149915 -0.205453 -0.373679)
(0.00337302 -0.0961611 -0.326435)
(-0.0056379 -0.0971888 -0.272811)
(-0.0456274 -0.123753 -0.311148)
(-0.200301 -0.198755 -0.503808)
(-0.319547 -0.422851 -0.285691)
(-0.313868 -0.384065 -0.133497)
(-0.362201 -0.355827 -0.141332)
(-0.365731 -0.34243 -0.105319)
(-0.293984 -0.415856 -0.146333)
(-0.260866 -0.679442 -0.360004)
(-0.211366 -1.00374 -0.606523)
(-0.0856257 -1.28139 -0.729477)
(0.376079 -1.30005 -0.701377)
(-0.0149002 -1.67091 -0.184843)
(-0.0101731 -1.72613 -0.119718)
(0.00275485 -1.22984 -0.0572044)
(-0.0264572 -0.477948 0.00441659)
(0.0165595 -0.132774 -0.599108)
(0.105276 -0.0161587 -1.69543)
(-0.00428883 0.0605207 -0.750665)
(-0.00833544 -0.0533522 -0.501371)
(-0.000285655 -0.0577868 -0.387777)
(0.00305383 -0.0472105 -0.517835)
(-0.0416651 -0.00428049 -1.3546)
(-0.0216879 -0.0126547 -1.10258)
(0.0169359 -0.081249 -0.188722)
(-0.0101647 -0.0771274 -0.188741)
(0.00663845 -0.10452 -0.147184)
(0.0195454 -0.252597 -0.0952137)
(0.014302 -0.528657 -0.0175941)
(-0.0240833 -0.887815 -0.0208832)
(0.0117727 -1.46929 -0.091856)
(0.00231405 -1.43904 -0.123958)
(-0.0159871 -1.70916 -0.097198)
(-0.0269519 -1.77324 -0.0409243)
(-0.00374864 -1.3188 -0.0275139)
(-0.0142915 -0.567735 -0.00291787)
(0.00943002 -0.242127 -0.109459)
(0.00432937 -0.131862 -0.278939)
(0.000500833 -0.0941031 -0.280761)
(0.0031253 -0.0707888 -0.31739)