/*--------------------------------*- C++ -*----------------------------------*\
| =========                 |                                                 |
| \\      /  F ield         | OpenFOAM: The Open Source CFD Toolbox           |
|  \\    /   O peration     | Version:  2.3.0                                 |
|   \\  /    A nd           | Web:      www.OpenFOAM.org                      |
|    \\/     M anipulation  |                                                 |
\*---------------------------------------------------------------------------*/
FoamFile
{
    version     2.0;
    format      ascii;
    class       volVectorField;
    location    "3.30001";
    object      U.waterMean;
}
// * * * * * * * * * * * * * * * * * * * * * * * * * * * * * * * * * * * * * //

dimensions      [0 1 -1 0 0 0 0];

internalField   nonuniform List<vector> 
10000
(
(-0.244388 -1.04203 -0.602079)
(0.0298261 -1.05791 -0.623282)
(0.107341 -0.882478 -0.556947)
(0.16072 -0.609494 -0.362686)
(0.192852 -0.411902 -0.234337)
(0.206379 -0.287594 -0.324737)
(0.150735 -0.195352 -0.26677)
(0.0524047 -0.153499 -0.250499)
(0.0173958 -0.147034 -0.234821)
(-0.00609289 -0.149553 -0.228964)
(-0.035038 -0.165488 -0.276461)
(-0.0902779 -0.250565 -0.215035)
(-0.123798 -0.252225 -0.155967)
(-0.159082 -0.258967 -0.1648)
(-0.18874 -0.292931 -0.175478)
(-0.168916 -0.383837 -0.215893)
(-0.125181 -0.574361 -0.337786)
(-0.0687178 -0.757686 -0.481844)
(-0.00878658 -0.837171 -0.499383)
(0.205868 -0.805713 -0.487957)
(0.00768443 -1.135 -0.0852982)
(0.00106218 -1.096 -0.0807336)
(0.000943822 -0.900017 -0.0582813)
(6.15052e-05 -0.483595 -0.0102429)
(0.0148332 -0.286182 -0.14215)
(0.0515568 -0.0962888 -0.697954)
(0.00603246 -0.0859894 -0.43644)
(-0.006852 -0.107604 -0.350143)
(0.000413431 -0.119916 -0.295361)
(-0.000463599 -0.11629 -0.294705)
(-0.0044667 -0.0924311 -0.480197)
(0.000330209 -0.101609 -0.440088)
(-0.00166873 -0.124771 -0.226199)
(0.00292817 -0.12059 -0.251527)
(-0.0183838 -0.145776 -0.209726)
(-0.01675 -0.290033 -0.122834)
(-0.000857357 -0.476897 -0.015113)
(-0.00153824 -0.771399 -0.0524606)
(0.000313754 -0.838251 -0.0552335)
(-0.00276001 -0.822498 -0.0598203)
(0.00343887 -1.16726 -0.0324382)
(0.0032821 -1.09357 -0.024293)
(0.00352315 -0.908759 -0.0233623)
(-0.000837746 -0.50644 -0.0113351)
(0.00413887 -0.325249 -0.0747206)
(0.00284643 -0.164838 -0.168118)
(0.0016438 -0.139482 -0.199513)
(0.000291034 -0.133548 -0.210287)
(8.67247e-05 -0.138803 -0.202706)
(-0.000200095 -0.139774 -0.195376)
(-0.000476937 -0.135107 -0.20399)
(0.00573554 -0.142997 -0.187948)
(3.14752e-06 -0.14039 -0.180223)
(-0.000783882 -0.138273 -0.182073)
(-0.000608145 -0.161227 -0.148591)
(-0.0040867 -0.323259 -0.0820641)
(-3.79145e-06 -0.510805 -0.0135222)
(-0.00414073 -0.768669 -0.0182633)
(-0.00151923 -0.835944 -0.0167571)
(-0.000931674 -0.831873 -0.021165)
(0.00590292 -1.13622 -0.0128005)
(0.00212578 -1.05054 -0.0104296)
(0.00295768 -0.865324 -0.00371124)
(-0.000358913 -0.441488 0.0042944)
(0.00136173 -0.305523 -0.0713116)
(-0.00044899 -0.143488 -0.188925)
(0.000592239 -0.122779 -0.239613)
(-0.000200453 -0.122776 -0.233109)
(-8.67806e-05 -0.131243 -0.217666)
(-8.29067e-05 -0.131432 -0.211681)
(-0.000346482 -0.121149 -0.226297)
(-0.000412859 -0.126014 -0.221445)
(-0.000156856 -0.131319 -0.22283)
(-0.000663714 -0.12874 -0.225349)
(0.000338742 -0.155888 -0.174128)
(-9.09176e-05 -0.305891 -0.0813357)
(-0.000229839 -0.450322 0.000893488)
(-0.00466573 -0.731574 -0.00239515)
(-0.00075599 -0.806553 -0.00323564)
(-0.00343386 -0.796462 -0.00490744)
(0.00182909 -1.15975 -0.015013)
(0.00242818 -1.05154 -0.0119187)
(0.00367497 -0.892747 -0.00644815)
(0.00287996 -0.455256 0.000905397)
(0.00429655 -0.294846 -0.0725545)
(-0.000197686 -0.147568 -0.173105)
(0.000413558 -0.125824 -0.224511)
(-9.79266e-05 -0.123127 -0.226547)
(-8.80763e-05 -0.131419 -0.212559)
(-6.71603e-05 -0.132098 -0.207006)
(-0.000126482 -0.123671 -0.214441)
(-7.86791e-05 -0.13129 -0.203586)
(-6.02115e-05 -0.130332 -0.205791)
(-0.000671723 -0.127873 -0.21189)
(8.01174e-05 -0.152168 -0.169549)
(-0.00337139 -0.296307 -0.0828041)
(-0.00214228 -0.457007 -0.000901811)
(-0.00596413 -0.758055 -0.00401982)
(-0.000966897 -0.820402 -0.00334004)
(-0.000336862 -0.811575 -0.00672309)
(0.00267004 -1.16998 -0.0161129)
(0.00190027 -1.04433 -0.0108978)
(0.00302755 -0.899906 -0.00542117)
(0.00142143 -0.4388 0.00338446)
(0.00279038 -0.269082 -0.0735518)
(2.54301e-05 -0.135463 -0.184368)
(0.000440722 -0.118393 -0.230915)
(-6.32502e-05 -0.116128 -0.231304)
(-0.000148813 -0.125536 -0.216037)
(-5.99391e-05 -0.125841 -0.209655)
(-6.18836e-05 -0.117081 -0.220307)
(-8.54895e-05 -0.124269 -0.209303)
(2.7647e-05 -0.12445 -0.209868)
(-0.000434737 -0.121356 -0.216224)
(0.000167718 -0.143223 -0.174424)
(-0.00211468 -0.27404 -0.0849502)
(-0.00124759 -0.435735 0.0013984)
(-0.00559528 -0.763468 -0.00260484)
(-0.000813503 -0.824691 -0.0018542)
(-0.00069307 -0.808886 -0.00471935)
(0.00134984 -1.17551 -0.0167707)
(0.00109394 -1.03396 -0.0091964)
(0.0032384 -0.915436 -0.0057735)
(0.00290244 -0.435762 0.00380753)
(0.00472722 -0.245343 -0.0698509)
(0.000406731 -0.128252 -0.182892)
(0.000591966 -0.112953 -0.226711)
(9.26783e-05 -0.110397 -0.228486)
(-0.000104907 -0.11952 -0.212502)
(-6.5004e-06 -0.121774 -0.206676)
(-1.58039e-05 -0.112721 -0.216141)
(9.48655e-05 -0.120511 -0.20457)
(0.000271708 -0.119235 -0.206551)
(-0.000166483 -0.11582 -0.213274)
(0.000156157 -0.136044 -0.173968)
(-0.00424188 -0.253396 -0.082644)
(-0.00219844 -0.426539 0.00228908)
(-0.00534227 -0.778473 -0.00245916)
(-0.000670337 -0.833324 -0.00182942)
(-0.000640756 -0.811699 -0.00419298)
(0.000321733 -1.17581 -0.0167654)
(0.000617027 -1.02529 -0.00764734)
(0.00298782 -0.930869 -0.00510351)
(0.00373468 -0.430979 0.005131)
(0.00335808 -0.194026 -0.0585805)
(0.00129747 -0.111696 -0.178596)
(0.00065562 -0.100657 -0.217333)
(0.000120909 -0.0973971 -0.218595)
(-0.000250798 -0.106001 -0.200545)
(-1.28195e-06 -0.108027 -0.19413)
(0.000203001 -0.101373 -0.204872)
(0.000439689 -0.108191 -0.192785)
(0.00064769 -0.107301 -0.194873)
(0.000257106 -0.103974 -0.202878)
(-0.000524364 -0.119802 -0.166562)
(-0.00340337 -0.208981 -0.0727038)
(-0.0025115 -0.416674 0.00353061)
(-0.0051763 -0.792233 -0.00228089)
(-0.000557014 -0.838504 -0.000945045)
(-0.000683292 -0.810046 -0.00254735)
(-0.000393784 -1.17243 -0.0164778)
(-9.24983e-05 -1.0164 -0.00594271)
(0.00267394 -0.951539 -0.00509979)
(0.00531989 -0.438973 0.0051275)
(-0.00133792 -0.125514 -0.0129379)
(-0.00176743 -0.0736404 -0.131968)
(0.000650789 -0.0671065 -0.159338)
(-8.91157e-06 -0.0631706 -0.158894)
(-0.000857997 -0.0691693 -0.142098)
(0.000382604 -0.0720051 -0.135095)
(0.000256292 -0.0683189 -0.145539)
(2.57044e-05 -0.0727323 -0.133143)
(0.000944111 -0.0714191 -0.135719)
(0.000137039 -0.0701524 -0.146178)
(0.00211253 -0.0804276 -0.118354)
(-0.000246519 -0.141898 -0.0268414)
(-0.00387716 -0.420922 0.00404111)
(-0.00446432 -0.804409 -0.00253545)
(-0.000574422 -0.844649 -0.000321128)
(-0.000138094 -0.810242 -0.000892834)
(-0.000739824 -1.16659 -0.0152439)
(-0.00033021 -1.00657 -0.00365849)
(0.00260784 -0.975183 -0.00670791)
(0.00384113 -0.455095 0.00220156)
(0.00137562 -0.0636137 0.00899343)
(0.000286286 -0.0317179 0.00480516)
(0.000330281 -0.0283808 0.00522248)
(0.000150787 -0.0205322 0.00508344)
(0.000213402 -0.0278814 0.00577706)
(-9.63686e-05 -0.028839 0.0060301)
(8.92902e-06 -0.0221544 0.0056298)
(0.000135036 -0.028935 0.00606188)
(-7.03643e-05 -0.028593 0.00589781)
(-0.000350032 -0.0291242 0.00560559)
(-0.000373425 -0.0370727 0.00570924)
(-0.00174129 -0.061191 0.0104313)
(-0.00313134 -0.437076 0.0018317)
(-0.00368371 -0.815812 -0.00269319)
(-0.00028349 -0.847806 0.000337226)
(0.000166431 -0.809453 0.000643837)
(-0.00132134 -1.16053 -0.0135848)
(-0.000641535 -0.997722 -0.00140932)
(0.00269125 -0.994591 -0.00749286)
(0.00376106 -0.459581 0.000675466)
(0.000344083 -0.0919355 -0.000411026)
(-0.00035666 -0.0457123 -0.000514496)
(3.21244e-05 -0.0317339 -0.00041952)
(4.60976e-05 -0.0291648 -0.000217082)
(-0.000103846 -0.028281 6.96696e-05)
(0.000135408 -0.0289061 4.67788e-05)
(-5.15369e-06 -0.0295348 -7.25838e-05)
(-0.000122001 -0.029475 -0.000126114)
(-1.77877e-05 -0.0291108 -8.00362e-05)
(-0.000105973 -0.0304775 -0.000148009)
(7.38653e-05 -0.0421163 -0.000789635)
(-0.000134644 -0.094148 -0.00163962)
(-0.0024282 -0.439535 0.000757156)
(-0.00347681 -0.825555 -0.00306784)
(-0.000255916 -0.848318 0.00144187)
(0.000441114 -0.808224 0.00215389)
(-0.00207929 -1.14942 -0.0111627)
(-0.00104682 -0.987876 0.000668791)
(0.00278593 -1.01392 -0.00761533)
(0.00465641 -0.453498 0.00154196)
(-0.000122539 -0.0792365 0.000494771)
(-0.000474328 -0.0426253 -9.83751e-05)
(-0.00013145 -0.0425622 -0.00189202)
(-4.44458e-06 -0.0282465 -0.000151592)
(-0.000118435 -0.036262 -0.00133158)
(0.00012233 -0.0373886 -0.00125641)
(2.29114e-05 -0.0280243 -6.02523e-05)
(-4.09346e-05 -0.0389899 -0.00130823)
(1.82377e-05 -0.0380912 -0.00118246)
(0.000136648 -0.0397941 -0.00122664)
(0.000454614 -0.0546437 -0.00149488)
(0.000864471 -0.0967097 -0.00124939)
(-0.00325845 -0.432028 0.00155565)
(-0.00355814 -0.83383 -0.00328738)
(-0.000428421 -0.845558 0.00302202)
(0.00106543 -0.803239 0.00368326)
(-0.00369473 -1.13913 -0.00921108)
(-0.000750419 -0.980924 0.00212102)
(0.0028422 -1.03862 -0.00904482)
(0.00457758 -0.449249 0.00154719)
(0.000222801 -0.0766915 0.000336651)
(-0.000158253 -0.045726 -0.000261682)
(-0.000214565 -0.0456559 -0.000783129)
(-7.33356e-05 -0.0306193 -0.000422191)
(0.0001176 -0.0372079 -0.000623207)
(-0.000116032 -0.0365028 -0.000456575)
(4.17213e-05 -0.0301685 -0.000218054)
(0.000183273 -0.0365078 -0.000277751)
(4.49471e-05 -0.035395 -0.000219971)
(0.00018902 -0.0376873 -0.000179258)
(0.000333617 -0.0483798 0.000275696)
(-0.000130971 -0.0781583 0.00103519)
(-0.00304002 -0.424399 0.00204252)
(-0.00307481 -0.842242 -0.00349366)
(-0.000786859 -0.843442 0.00482541)
(0.00367658 -0.799165 0.00551273)
(-0.00489121 -1.1246 -0.00826364)
(-0.000521609 -0.971032 0.00314024)
(0.00262596 -1.06273 -0.011306)
(0.00338253 -0.443446 0.0018856)
(0.000274648 -0.0688046 0.000655742)
(-0.000171604 -0.0439007 0.000134987)
(-0.000257036 -0.0471497 -0.000461131)
(-0.000163454 -0.0331554 -0.000516075)
(-7.64606e-05 -0.0406746 -0.00101441)
(-2.57287e-05 -0.0399502 -0.000978748)
(4.39891e-05 -0.0302699 -0.000370393)
(-2.22346e-05 -0.0391888 -0.000717005)
(6.83997e-05 -0.0380659 -0.000633446)
(0.000166029 -0.0399905 -0.000418337)
(0.000284402 -0.0481605 3.89597e-05)
(-0.000300718 -0.0769963 0.000727938)
(-0.00201627 -0.417735 0.00263951)
(-0.00202761 -0.850592 -0.00384227)
(-0.00116294 -0.841324 0.00566321)
(0.00488663 -0.793321 0.00642066)
(-0.00471476 -1.10084 -0.00713359)
(-0.000503929 -0.957148 0.00382901)
(0.00176665 -1.07915 -0.0127788)
(0.00165593 -0.435776 0.00182073)
(0.000316373 -0.0634592 0.000755607)
(-7.43329e-05 -0.0409459 0.000387119)
(-0.000107198 -0.0472498 -0.000161106)
(-0.000114868 -0.0359958 -0.000335767)
(-3.19704e-05 -0.0469887 -0.000938955)
(-0.00010928 -0.0468787 -0.000910615)
(-1.91864e-06 -0.034127 -0.000387582)
(-1.05337e-05 -0.0444623 -0.000523343)
(1.2856e-05 -0.0426033 -0.000599497)
(7.94326e-05 -0.0424184 -0.000424457)
(0.000325524 -0.0489621 3.65748e-06)
(-0.000171021 -0.0701297 0.000983025)
(-0.000396298 -0.410628 0.00260399)
(-0.00102395 -0.854626 -0.0039005)
(-0.00170937 -0.831673 0.00798202)
(0.00546071 -0.780575 0.00719735)
(-0.00701747 -1.05262 -0.00285071)
(0.0010549 -0.927592 0.00483651)
(0.000864628 -1.08928 -0.012376)
(-0.000283969 -0.427692 0.00166063)
(0.000472401 -0.0594405 0.00083699)
(-2.88023e-05 -0.0387272 0.000414412)
(-1.99472e-05 -0.0460964 0.000136653)
(-2.25132e-05 -0.0348725 4.25994e-05)
(5.52566e-05 -0.046797 -0.000322617)
(-0.000123274 -0.0461479 -0.000312358)
(-7.13161e-05 -0.0337167 1.10674e-05)
(-4.24402e-05 -0.0425717 -0.000188482)
(-2.39786e-05 -0.043046 -0.000355034)
(6.73054e-05 -0.0437284 -0.000365918)
(0.000274807 -0.0485185 -2.99758e-06)
(-0.000112448 -0.0670884 0.000891123)
(0.00139272 -0.402097 0.00286387)
(0.000371081 -0.850417 -0.00191181)
(-0.00188604 -0.815639 0.0102698)
(0.00543295 -0.755668 0.00765817)
(-0.00905182 -0.979358 0.000512148)
(0.00273057 -0.878571 0.00553888)
(-0.000308769 -1.09169 -0.0104027)
(-0.00223882 -0.417771 0.00188113)
(0.000615716 -0.0591349 0.000584899)
(8.56866e-05 -0.037858 6.24901e-05)
(8.30576e-05 -0.0448569 0.000399325)
(-8.01211e-06 -0.0346629 0.000152272)
(0.000142212 -0.0458489 0.000186518)
(-0.000156019 -0.045416 0.000197136)
(-3.55393e-05 -0.0327385 0.000184004)
(0.000104104 -0.0442341 -4.33673e-05)
(1.74343e-05 -0.0441975 -0.000175996)
(2.92743e-05 -0.0446965 -0.000165887)
(0.000193294 -0.0478908 -0.000112184)
(0.000209016 -0.0642973 0.000906126)
(0.00288145 -0.393332 0.00356091)
(0.00178856 -0.837485 0.000608859)
(-0.0015385 -0.781914 0.012628)
(0.00407193 -0.704302 0.00809958)
(-0.00721413 -0.873406 0.00241712)
(0.00225786 -0.7935 0.00524679)
(-0.00191787 -1.08644 -0.00752072)
(-0.00373226 -0.404785 0.00211075)
(0.000268711 -0.0633608 -0.000298506)
(0.000164575 -0.040577 -0.00112519)
(0.000169036 -0.0424161 0.0013169)
(1.99984e-05 -0.0347447 -0.000310607)
(0.000295508 -0.0434644 0.0013356)
(-0.000277312 -0.0425281 0.00143996)
(3.89932e-06 -0.0330568 -0.000131667)
(0.000166433 -0.0420546 0.00113432)
(-0.000106626 -0.043058 0.000846503)
(-4.79334e-05 -0.0435658 0.000719674)
(0.000195817 -0.0486513 0.000253567)
(0.000600839 -0.0624934 0.0016961)
(0.00381556 -0.380874 0.00500547)
(0.00296253 -0.815501 0.00309028)
(-0.000745184 -0.723572 0.0153983)
(0.002591 -0.620333 0.0087081)
(-0.00299073 -0.69927 0.00536268)
(0.00157122 -0.648977 0.00382119)
(-0.00335598 -1.06973 -0.00339684)
(-0.00472166 -0.379802 0.0033669)
(-0.00159688 -0.0735415 -0.00279565)
(-0.000284829 -0.0532611 -0.0039883)
(0.000136787 -0.0408873 -0.000387758)
(3.74427e-05 -0.0407289 -0.00210677)
(0.000120893 -0.0414994 -0.000375921)
(-0.000133174 -0.0397523 -0.000124096)
(-3.79196e-05 -0.0370988 -0.00162381)
(-5.81495e-05 -0.0403585 -0.000612567)
(-2.40376e-05 -0.0442383 -0.00137953)
(8.02391e-05 -0.0465931 -0.00180276)
(0.0003046 -0.0561594 -0.00298456)
(0.00190003 -0.0674556 -0.000753666)
(0.00394592 -0.3571 0.00812657)
(0.0037738 -0.779249 0.00786326)
(-0.000196441 -0.62425 0.0179528)
(-0.000459051 -0.479635 0.00959448)
(-0.000650554 -0.550233 0.00252769)
(0.000496876 -0.527146 0.00116942)
(-0.00363349 -1.04297 -0.0014691)
(-0.00498892 -0.345346 0.0032317)
(-0.00373415 -0.107473 -0.00206927)
(-0.000649159 -0.092469 -0.0028418)
(-0.000296661 -0.0617907 -0.00145165)
(-4.35757e-05 -0.0623548 -0.00173617)
(-0.000102576 -0.0626335 -0.00150449)
(4.29777e-05 -0.0580344 -0.00131049)
(7.36096e-05 -0.054036 -0.00140842)
(0.000162248 -0.0626884 -0.00168631)
(0.000139687 -0.0726332 -0.00230634)
(0.000234621 -0.0797485 -0.00259067)
(0.000301561 -0.101943 -0.00321902)
(0.00378617 -0.0962426 -0.00181676)
(0.00347503 -0.316156 0.00837147)
(0.00275126 -0.733778 0.00748675)
(-0.000129976 -0.531034 0.0110651)
(-0.0011219 -0.356909 0.00665446)
(-0.258558 -1.03599 -0.539003)
(0.0318003 -1.05464 -0.557752)
(0.114845 -0.877625 -0.496166)
(0.169255 -0.610397 -0.326165)
(0.203026 -0.412096 -0.210495)
(0.212081 -0.28622 -0.307254)
(0.150662 -0.190305 -0.24768)
(0.0502949 -0.149122 -0.235918)
(0.0175875 -0.142908 -0.223386)
(-0.00557007 -0.14559 -0.216065)
(-0.0354882 -0.162383 -0.262035)
(-0.0921338 -0.249769 -0.202011)
(-0.127254 -0.251079 -0.142567)
(-0.163241 -0.256846 -0.151115)
(-0.194662 -0.29058 -0.159296)
(-0.177612 -0.382357 -0.193908)
(-0.132385 -0.575624 -0.302846)
(-0.0734593 -0.754126 -0.429561)
(-0.00952352 -0.835695 -0.447992)
(0.217155 -0.803486 -0.439809)
(0.00585109 -1.1367 -0.0798388)
(0.00127944 -1.103 -0.0778258)
(0.00217508 -0.905582 -0.0559989)
(0.00171672 -0.511275 -0.0137368)
(0.0169778 -0.278456 -0.148914)
(0.0525528 -0.0920488 -0.702999)
(0.00574321 -0.0810725 -0.436538)
(-0.00707719 -0.103503 -0.35088)
(0.00043401 -0.114143 -0.296141)
(-0.000338661 -0.110695 -0.295029)
(-0.0044644 -0.0885318 -0.481882)
(-1.01308e-05 -0.0957543 -0.448273)
(-0.00164988 -0.118085 -0.226644)
(0.00291842 -0.114471 -0.251653)
(-0.0192584 -0.138222 -0.210708)
(-0.0179943 -0.279209 -0.126486)
(-0.00262941 -0.505092 -0.01735)
(-0.00243205 -0.779308 -0.0509269)
(0.000230961 -0.84834 -0.0536862)
(-0.00122157 -0.830896 -0.0577561)
(0.00307535 -1.18459 -0.029852)
(0.00326741 -1.11792 -0.0237565)
(0.00360234 -0.931257 -0.0218051)
(-0.000280718 -0.536485 -0.0122504)
(0.00497555 -0.322939 -0.0741642)
(0.00294702 -0.161769 -0.166039)
(0.00162701 -0.13488 -0.197623)
(0.000285254 -0.129861 -0.209449)
(9.61506e-05 -0.133757 -0.202137)
(-0.000196657 -0.134439 -0.194596)
(-0.000472596 -0.131511 -0.202903)
(0.00577689 -0.13786 -0.186483)
(-1.13657e-05 -0.134866 -0.178683)
(-0.000805953 -0.13309 -0.180585)
(-0.000730569 -0.154281 -0.147828)
(-0.0049859 -0.315927 -0.081491)
(-0.000657516 -0.536093 -0.0139993)
(-0.00425011 -0.793539 -0.0174153)
(-0.0016538 -0.86144 -0.0157248)
(-0.000543824 -0.854761 -0.0201303)
(0.00625726 -1.16457 -0.0114491)
(0.00213886 -1.08379 -0.0104061)
(0.00307223 -0.900272 -0.00274678)
(6.19325e-05 -0.485423 0.00318404)
(0.00156035 -0.302959 -0.0725659)
(-0.000400893 -0.139103 -0.189715)
(0.000589716 -0.118161 -0.24023)
(-0.00020788 -0.119237 -0.233521)
(-8.20216e-05 -0.126129 -0.217987)
(-8.08675e-05 -0.126048 -0.212005)
(-0.000350031 -0.11719 -0.226795)
(-0.000423884 -0.120759 -0.221998)
(-0.000154773 -0.126188 -0.223324)
(-0.000661622 -0.123809 -0.22588)
(0.000333231 -0.149615 -0.174544)
(-0.000339523 -0.298239 -0.082434)
(-0.00087843 -0.488037 -0.000219929)
(-0.00493746 -0.767807 -0.0015455)
(-0.000854839 -0.840324 -0.00243075)
(-0.00371324 -0.82847 -0.00425811)
(0.00194245 -1.18926 -0.0145153)
(0.00252861 -1.08491 -0.0122486)
(0.00399443 -0.92431 -0.00543895)
(0.00384994 -0.493698 0.00101023)
(0.00442532 -0.293598 -0.073875)
(-0.000223367 -0.143527 -0.173213)
(0.000401106 -0.121321 -0.224676)
(-0.00010942 -0.119817 -0.226785)
(-8.96285e-05 -0.126575 -0.212777)
(-6.69877e-05 -0.126979 -0.207226)
(-0.00012998 -0.119841 -0.21459)
(-8.22207e-05 -0.12619 -0.203628)
(-5.53242e-05 -0.125336 -0.206041)
(-0.00066405 -0.123163 -0.212191)
(9.21631e-05 -0.146079 -0.169929)
(-0.00348811 -0.289716 -0.0839999)
(-0.00307205 -0.48999 -0.00108329)
(-0.00638414 -0.791325 -0.00299756)
(-0.00111335 -0.853888 -0.00280541)
(-0.000501192 -0.84271 -0.00611497)
(0.00295178 -1.19834 -0.015809)
(0.00191158 -1.07621 -0.0111349)
(0.0032708 -0.931451 -0.00445895)
(0.00217079 -0.478252 0.00307474)
(0.00292339 -0.268318 -0.0754709)
(-2.33794e-05 -0.131977 -0.185063)
(0.000422436 -0.114359 -0.23143)
(-7.84449e-05 -0.113235 -0.231788)
(-0.00015704 -0.121164 -0.216503)
(-6.27798e-05 -0.121166 -0.210066)
(-6.486e-05 -0.113604 -0.220751)
(-9.62635e-05 -0.119569 -0.209735)
(2.71841e-05 -0.119809 -0.210283)
(-0.000431194 -0.116962 -0.216702)
(0.000179194 -0.13763 -0.174965)
(-0.00227157 -0.268402 -0.0866234)
(-0.00205788 -0.470379 0.00085432)
(-0.00597072 -0.797579 -0.00186771)
(-0.000943914 -0.8585 -0.00157014)
(-0.000884086 -0.840729 -0.00435147)
(0.00158558 -1.20513 -0.0167152)
(0.00115217 -1.06721 -0.00941537)
(0.00349876 -0.947069 -0.00461648)
(0.00372073 -0.474129 0.00392919)
(0.00483102 -0.246282 -0.0727071)
(0.000339279 -0.124959 -0.183654)
(0.000575857 -0.109208 -0.227372)
(8.04353e-05 -0.1076 -0.229177)
(-0.000109451 -0.115487 -0.213242)
(-9.24923e-06 -0.11745 -0.207358)
(-2.33804e-05 -0.109331 -0.216758)
(7.88809e-05 -0.116013 -0.205197)
(0.000266236 -0.114836 -0.207194)
(-0.000163633 -0.11157 -0.213923)
(0.000202359 -0.130687 -0.174681)
(-0.00438746 -0.249181 -0.0851338)
(-0.00304058 -0.460871 0.00208211)
(-0.00571074 -0.811722 -0.00166166)
(-0.000782444 -0.866744 -0.00140879)
(-0.000879577 -0.844119 -0.00370871)
(0.000455816 -1.20613 -0.0169626)
(0.00060935 -1.05886 -0.00769699)
(0.00323238 -0.962747 -0.00396754)
(0.00442024 -0.469038 0.0056828)
(0.00377315 -0.198377 -0.0630856)
(0.00132079 -0.108518 -0.180749)
(0.00064635 -0.0972519 -0.219165)
(0.000116903 -0.0945077 -0.220482)
(-0.000240457 -0.102472 -0.202579)
(-2.86061e-06 -0.104331 -0.196206)
(0.000196889 -0.0981227 -0.206766)
(0.000437167 -0.104264 -0.194809)
(0.000639153 -0.103343 -0.196847)
(0.000266975 -0.100028 -0.204707)
(-0.000536614 -0.115162 -0.168705)
(-0.00387673 -0.206926 -0.0768966)
(-0.00326614 -0.451757 0.00385892)
(-0.0055007 -0.824166 -0.00166433)
(-0.000707676 -0.872174 -0.000632926)
(-0.000822473 -0.843664 -0.0021253)
(-0.000357526 -1.20316 -0.0166393)
(-0.000150391 -1.05037 -0.00584821)
(0.00294803 -0.982929 -0.00421598)
(0.00562808 -0.474387 0.00627498)
(-0.00066284 -0.134024 -0.0174045)
(-0.00177515 -0.0707833 -0.134704)
(0.000655607 -0.0641053 -0.16172)
(-5.89044e-06 -0.0606279 -0.161446)
(-0.000863986 -0.0664038 -0.144682)
(0.000402026 -0.0690459 -0.137757)
(0.00026197 -0.0653606 -0.148254)
(2.22697e-05 -0.0696626 -0.135796)
(0.000964527 -0.068324 -0.138315)
(0.000156641 -0.0667917 -0.148644)
(0.00212846 -0.0767189 -0.121052)
(-0.000648175 -0.145746 -0.0319092)
(-0.00421602 -0.454324 0.00499781)
(-0.00476833 -0.835831 -0.00196418)
(-0.000769809 -0.877846 -8.48704e-05)
(-0.000218974 -0.844591 -0.000559918)
(-0.000882417 -1.19806 -0.0155228)
(-0.000371949 -1.04163 -0.00359823)
(0.00291006 -1.00457 -0.00578567)
(0.00381215 -0.484494 0.00290459)
(0.00169407 -0.0824237 0.00793368)
(0.000375591 -0.03505 0.00398314)
(0.000337991 -0.0323969 0.00420014)
(0.000144006 -0.0234166 0.00406987)
(0.000207447 -0.031509 0.00461301)
(-0.000104454 -0.0324108 0.00480563)
(1.08084e-05 -0.0249 0.00448382)
(0.000145356 -0.0324429 0.00482831)
(-6.25614e-05 -0.0320455 0.00470376)
(-0.000365478 -0.0328017 0.00448157)
(-0.000491315 -0.0410909 0.0045896)
(-0.00230448 -0.0807108 0.00880159)
(-0.0031179 -0.463826 0.00242614)
(-0.00394016 -0.845876 -0.00217658)
(-0.000486708 -0.880775 0.000377866)
(9.41895e-05 -0.844175 0.000877211)
(-0.00154187 -1.19225 -0.0140328)
(-0.000624258 -1.03388 -0.0012844)
(0.00303705 -1.02334 -0.00650462)
(0.00373867 -0.485673 0.000759097)
(0.000446886 -0.0898739 0.000330392)
(-0.000345961 -0.0429273 -0.000185344)
(2.94316e-05 -0.0298055 -0.000108921)
(4.10351e-05 -0.0275372 -1.16092e-08)
(-0.000106448 -0.0267093 0.000207081)
(0.000135045 -0.0273477 0.000187109)
(-4.1549e-06 -0.02809 9.59641e-05)
(-0.000122482 -0.0278445 6.52569e-05)
(-1.52474e-05 -0.0274573 9.84821e-05)
(-9.16426e-05 -0.0287472 6.16498e-05)
(8.54443e-05 -0.0391659 -0.000345162)
(-0.000171992 -0.0875566 -0.000377177)
(-0.00245837 -0.463113 0.000713454)
(-0.00373326 -0.854838 -0.00265741)
(-0.000475604 -0.881243 0.00153944)
(0.000454465 -0.843235 0.00230339)
(-0.00237653 -1.18253 -0.0118849)
(-0.000992778 -1.02616 0.000756105)
(0.00329734 -1.04296 -0.00689054)
(0.00462102 -0.479051 0.00151277)
(-0.00011781 -0.0820367 0.000180947)
(-0.000439638 -0.0409466 -6.6625e-05)
(-0.000123245 -0.040228 -0.00143086)
(-7.43309e-06 -0.0265788 -8.16581e-05)
(-0.000113945 -0.0342894 -0.00103636)
(0.000117514 -0.0353572 -0.000986289)
(2.09465e-05 -0.026411 -1.71985e-05)
(-4.08663e-05 -0.0368536 -0.00103351)
(1.71877e-05 -0.0360221 -0.000942404)
(0.000130468 -0.0376203 -0.000976874)
(0.0004212 -0.0516244 -0.00121983)
(0.000791111 -0.0950534 -0.00155967)
(-0.00323311 -0.45554 0.00143478)
(-0.00388391 -0.862568 -0.00291719)
(-0.000723731 -0.879772 0.00304221)
(0.00115895 -0.839478 0.00368026)
(-0.00410717 -1.17202 -0.0103002)
(-0.000615478 -1.02077 0.00187196)
(0.00352102 -1.06563 -0.00865284)
(0.00454247 -0.473585 0.00142096)
(0.000201105 -0.0791281 0.000165955)
(-0.000135799 -0.0435248 -0.000169973)
(-0.000200055 -0.0441059 -0.000542252)
(-6.87622e-05 -0.0288764 -0.000275255)
(0.000114205 -0.036008 -0.000423177)
(-0.00011538 -0.0356935 -0.000312184)
(3.80468e-05 -0.0283761 -0.000147553)
(0.000179762 -0.0362676 -0.000203644)
(4.46585e-05 -0.0349817 -0.000163007)
(0.000176333 -0.0368911 -0.000121491)
(0.000304203 -0.0482356 0.000172051)
(-0.000181775 -0.083765 0.000540884)
(-0.00301893 -0.4482 0.00186889)
(-0.00353668 -0.870415 -0.00324504)
(-0.00112295 -0.87905 0.00447829)
(0.0038377 -0.836608 0.00512933)
(-0.00538083 -1.15805 -0.00979659)
(-0.000317927 -1.0131 0.00231663)
(0.00351483 -1.08644 -0.0111206)
(0.00335763 -0.466684 0.00162746)
(0.000207254 -0.0733949 0.000322998)
(-0.000150483 -0.0430302 3.99603e-05)
(-0.00023962 -0.0465185 -0.0003608)
(-0.00015039 -0.0313004 -0.00033565)
(-7.50177e-05 -0.0393977 -0.000696467)
(-2.32139e-05 -0.038823 -0.000661325)
(4.04427e-05 -0.0289421 -0.000242131)
(-2.76848e-05 -0.0385823 -0.000464891)
(6.37391e-05 -0.0373009 -0.000420174)
(0.000153284 -0.0388696 -0.000267326)
(0.000266959 -0.0476334 7.23429e-05)
(-0.000329532 -0.0805301 0.000561366)
(-0.00201561 -0.440894 0.00236246)
(-0.00260373 -0.877011 -0.00373889)
(-0.00154524 -0.877723 0.00512296)
(0.00509729 -0.831433 0.00564616)
(-0.00530707 -1.13618 -0.00851112)
(-0.000224679 -1.00197 0.00232341)
(0.00289421 -1.09979 -0.0126168)
(0.00165052 -0.458794 0.00142835)
(0.0002917 -0.0684707 0.000487946)
(-5.89241e-05 -0.0411576 0.000245014)
(-9.38898e-05 -0.0477321 -0.000145922)
(-0.000106266 -0.0342963 -0.0002356)
(-3.27613e-05 -0.0454889 -0.000688272)
(-0.000101644 -0.0450967 -0.000659338)
(-4.9637e-06 -0.0321844 -0.000246212)
(-1.3965e-05 -0.0431559 -0.000382034)
(8.75891e-06 -0.0412853 -0.000418875)
(7.186e-05 -0.041074 -0.000292751)
(0.000307027 -0.0477587 1.96054e-05)
(-0.000206059 -0.0742621 0.000702064)
(-0.000424207 -0.433685 0.00223226)
(-0.00175838 -0.878978 -0.00391292)
(-0.00212849 -0.870515 0.00688243)
(0.00577312 -0.820492 0.00592622)
(-0.00784207 -1.09556 -0.00589653)
(0.0015604 -0.978843 0.00180793)
(0.00227008 -1.10749 -0.012093)
(-0.000225209 -0.451249 0.00108765)
(0.000595033 -0.0634631 0.000672643)
(-2.60895e-05 -0.0385161 0.000319564)
(-1.1309e-05 -0.0472897 9.34792e-05)
(-1.91838e-05 -0.0344189 2.52882e-05)
(5.28268e-05 -0.047394 -0.000298307)
(-0.000117338 -0.0466793 -0.000306893)
(-6.82452e-05 -0.0328475 -1.24129e-05)
(-3.89991e-05 -0.0431128 -0.000204047)
(-2.41266e-05 -0.0427055 -0.000292635)
(6.12334e-05 -0.0429016 -0.000279634)
(0.000259881 -0.0475198 -1.55185e-05)
(-0.000204276 -0.0703113 0.000673757)
(0.00128577 -0.426244 0.0023439)
(-0.000466746 -0.874325 -0.00215859)
(-0.00237541 -0.857929 0.00825813)
(0.00592988 -0.799407 0.00507319)
(-0.0102601 -1.03611 -0.00585584)
(0.0035028 -0.941286 -0.000138947)
(0.00121088 -1.1096 -0.0102473)
(-0.00206692 -0.443284 0.000976136)
(0.000771837 -0.0594659 0.000615979)
(7.97168e-05 -0.0365203 9.09574e-05)
(9.18989e-05 -0.0461068 0.000290813)
(-7.1197e-06 -0.0336809 0.000129302)
(0.000142297 -0.0473759 0.000109898)
(-0.000153982 -0.0468689 0.000119954)
(-3.27472e-05 -0.0318923 0.000134439)
(0.000104051 -0.0445905 -2.453e-05)
(2.09235e-05 -0.0442787 -0.000131623)
(2.1803e-05 -0.0444034 -0.000137576)
(0.000179005 -0.0473465 -7.98597e-05)
(4.85015e-05 -0.0670343 0.000683041)
(0.00265082 -0.419395 0.0028086)
(0.000954222 -0.862976 -0.000192173)
(-0.00209419 -0.831986 0.00905153)
(0.00485664 -0.757166 0.00305674)
(-0.0087436 -0.953473 -0.00891193)
(0.00308706 -0.877893 -0.00456227)
(-0.000744189 -1.10573 -0.00811931)
(-0.00347931 -0.435302 0.000578627)
(0.000412632 -0.0595956 4.58007e-05)
(0.000151003 -0.0378008 -0.000644348)
(0.000164546 -0.0435508 0.00116343)
(1.93234e-05 -0.0331636 -0.000157044)
(0.000288516 -0.0451332 0.00118591)
(-0.000271513 -0.0442315 0.00124281)
(6.47573e-06 -0.0314745 -5.07977e-05)
(0.000163017 -0.0432008 0.00102869)
(-0.000104763 -0.0437926 0.000828792)
(-4.27705e-05 -0.0440826 0.000740429)
(0.000180335 -0.0483099 0.00048604)
(0.000355306 -0.0644892 0.00163032)
(0.00346175 -0.411738 0.0037177)
(0.00224953 -0.846117 0.00138668)
(-0.00124473 -0.788366 0.00930171)
(0.00375258 -0.691345 -0.000107004)
(-0.00481926 -0.835674 -0.00935324)
(0.00223832 -0.783521 -0.00824688)
(-0.00295625 -1.09652 -0.00501514)
(-0.00456033 -0.425323 0.00103167)
(-0.00129766 -0.0671892 -0.0014373)
(-0.000262345 -0.0486571 -0.00227854)
(0.000107219 -0.0390551 0.000132459)
(3.58828e-05 -0.0376578 -0.00120988)
(0.000104304 -0.0400607 0.000182723)
(-0.000117694 -0.0383863 0.000301093)
(-3.41087e-05 -0.0343332 -0.000954422)
(-5.20231e-05 -0.0387268 -2.76681e-05)
(-1.80672e-05 -0.04156 -0.000505441)
(7.98467e-05 -0.0435885 -0.000734809)
(0.000274156 -0.0518948 -0.00135367)
(0.00149474 -0.0631362 0.000170838)
(0.00347407 -0.403176 0.00566718)
(0.00349725 -0.823573 0.0047451)
(-0.000453586 -0.724721 0.00990795)
(0.00111239 -0.596508 -0.00175248)
(-0.00214433 -0.773087 -0.00663711)
(0.000415163 -0.736433 -0.00619342)
(-0.00389886 -1.08819 -0.003362)
(-0.00504194 -0.419019 0.000862161)
(-0.00343671 -0.0936866 -0.000894233)
(-0.000589352 -0.0806494 -0.00136978)
(-0.000270342 -0.0548152 -0.000732168)
(-4.169e-05 -0.0553798 -0.000905422)
(-9.94464e-05 -0.0559889 -0.000765094)
(4.92631e-05 -0.052409 -0.000705258)
(6.77365e-05 -0.0486825 -0.000785062)
(0.000143243 -0.0563984 -0.000899124)
(0.000127783 -0.0652305 -0.00126189)
(0.000207434 -0.0701701 -0.00133158)
(0.000268715 -0.0880854 -0.00152108)
(0.00342867 -0.0854603 -0.000865422)
(0.00325637 -0.396639 0.00563274)
(0.00291839 -0.804558 0.00415504)
(4.27025e-05 -0.68655 0.00508496)
(0.000239771 -0.543974 -0.000977328)
(-0.27407 -1.02951 -0.482946)
(0.0333192 -1.05237 -0.506936)
(0.12184 -0.873605 -0.449669)
(0.178431 -0.611327 -0.295078)
(0.213994 -0.411903 -0.191754)
(0.216038 -0.284628 -0.296515)
(0.150207 -0.186208 -0.238866)
(0.0489454 -0.146323 -0.229904)
(0.0176227 -0.140356 -0.21818)
(-0.00527052 -0.142963 -0.210545)
(-0.0356009 -0.160373 -0.255592)
(-0.092669 -0.248839 -0.195814)
(-0.128926 -0.249914 -0.135498)
(-0.166183 -0.254707 -0.142889)
(-0.20006 -0.287736 -0.148477)
(-0.187714 -0.380627 -0.176257)
(-0.139926 -0.576712 -0.273783)
(-0.0778138 -0.751285 -0.389746)
(-0.0101154 -0.83499 -0.408183)
(0.229351 -0.801541 -0.397967)
(0.00328393 -1.14023 -0.0749828)
(0.00137271 -1.11493 -0.0756077)
(0.00371514 -0.914107 -0.0542095)
(0.0043074 -0.536872 -0.0159051)
(0.0185811 -0.273609 -0.152203)
(0.0528632 -0.0905706 -0.704914)
(0.00554226 -0.0785869 -0.436425)