/*--------------------------------*- C++ -*----------------------------------*\
| =========                 |                                                 |
| \\      /  F ield         | OpenFOAM: The Open Source CFD Toolbox           |
|  \\    /   O peration     | Version:  2.3.0                                 |
|   \\  /    A nd           | Web:      www.OpenFOAM.org                      |
|    \\/     M anipulation  |                                                 |
\*---------------------------------------------------------------------------*/
FoamFile
{
    version     2.0;
    format      ascii;
    class       volScalarField;
    location    "1.2994";
    object      Ct2;
}
// * * * * * * * * * * * * * * * * * * * * * * * * * * * * * * * * * * * * * //

dimensions      [0 0 0 0 0 0 0];

internalField   nonuniform List<scalar> 
18816
(
1
1
1
1
1
1
1
1
1
1
1
1
1
1
1
1
1
1
1
1
1
1
1
1
1
1
1
1
1
1
1.32942
1.34806
1.32785
1.33792
1.34229
1.32363
1.17791
1
1
1
1
1
1
1
1
1
1
1
1
1
1
1
1
1
1
1
1
1
1.36307
1.35902
1.3263
1.35969
1.39473
1.4583
1.32218
1
1
1
1
1
1
1
1
1
1
1
1
1.00011
1.00058
1.00001
1
1
1
1
1
1
1.25347
1.29151
1.29734
1.35824
1.38896
1.34209
1.05034
1
1
1
1
1
1.3127
1.43615
2.10079
1.58005
1.36753
1.27798
1.08204
1.02689
1.02212
1.16313
1
1
1
1
1
1
1.10048
1.21562
1.29133
1.35445
1.33082
1.23358
1.00943
1
1
1
1
1
1
1.03702
1.69584
2.24118
1.90232
1.44177
1.19572
1.00895
1.00091
1.01227
1.21077
1
1
1
1
1
1.05231
1.15772
1.30072
1.33674
1.14889
1.00768
1
1
1
1
1
1
1
1
1.3725
1.54192
1.95882
1.71699
1.33962
1.00768
1.00007
1.00035
1.04608
1
1
1
1
1
1.13811
1.14589
1.32374
1.3237
1.02877
1.00001
1
1
1
1
1
1
1
1
1.29726
1.4117
1.78113
1.78527
1.36774
1.01343
1.00001
1
1.00109
1
1
1
1
1
1.20621
1.14841
1.34297
1.32628
1.01869
1
1
1
1
1
1
1
1
1
1.25951
1.39274
1.76385
1.84154
1.37146
1.03279
1
1
1.00003
1
1
1
1
1
1.14745
1.13859
1.36496
1.36851
1.11907
1.00013
1
1
1
1
1
1
1
1.03874
1.36731
1.42905
2.21513
1.93676
1.36565
1.14785
1
1
1
1
1
1
1
1
1.09068
1.1363
1.38432
1.47565
1.32292
1.08541
1
1
1
1
1
1
1
1.39496
1.68998
2.63639
4.6314
1.83538
1.35542
1.35525
1.00051
1
1
1
1
1
1
1
1.02131
1.12748
1.41218
2.36498
1.71921
1.35715
1.36108
1.0953
1
1
1
1
1.53913
3.90675
6.18056
8.33901
6.59582
1.57292
1.6966
1.85527
1.11486
1
1
1
1
1
1
1
1.00143
1.19974
1.57163
5.21467
4.39894
2.48572
3.89696
4.0943
1.35895
1
1.1494
2.78866
7.87128
8.77368
8.92681
8.94907
8.07455
2.6002
4.25619
5.30974
1.37427
1
1.00011
1
1
1
1
1
1.00005
1.31023
2.29054
7.93286
8.12533
6.82212
6.19515
7.61979
7.41336
2.04005
6.58445
8.89301
8.95845
8.95944
8.95942
8.95754
8.64225
4.62948
7.44153
8.52088
2.31306
1.00028
1.00031
1
1
1
1
1
1
1.38337
4.91227
8.78468
8.86021
8.77271
8.23257
7.35586
8.64792
8.88204
8.95843
8.95931
8.95942
8.95946
8.95946
8.959
8.88622
7.13846
8.56609
8.9341
7.70901
1.33497
1
1
1
1
1
1
1.00001
1.67019
7.68203
8.93208
8.90513
8.85652
8.84808
8.39805
8.63696
8.9074
8.95818
8.95922
8.95942
8.95946
8.95947
8.95947
8.95236
8.63027
8.88755
8.95602
8.93152
2.69992
1
1
1
1
1
1
1.00126
2.67431
8.65853
8.94964
8.87224
8.76602
8.87421
8.90328
8.90141
8.9382
8.95849
8.95932
8.95945
8.95947
8.95948
8.95948
8.95948
8.93634
8.95371
8.95842
8.95837
6.16645
1
1
1
1
1
1
1.04771
4.04425
8.86894
8.957
8.94609
8.93008
8.93597
8.95356
8.95698
8.95877
8.95934
8.95946
8.95948
8.95948
8.95948
8.95948
8.95948
8.95926
8.95941
8.95894
8.95852
7.21878
1
1
1
1
1
1
1.11471
4.53507
8.90759
8.95858
8.9587
8.95925
8.95921
8.95945
8.95948
8.95948
8.95948
8.95948
8.95948
8.95948
8.95949
8.95949
8.95949
8.95949
8.95948
8.9571
8.92773
7.89319
1
1
1
1
1
1
1.09267
4.1244
8.91295
8.95658
8.9584
8.95948
8.95949
8.95949
8.95949
8.95949
8.95949
8.95949
8.95949
8.95949
8.95949
8.95949
8.95949
8.95949
8.95949
8.93978
8.45861
8.31979
1
1
1
1
1
1
1.03017
3.38344
8.84826
8.93137
8.95576
8.95949
8.95949
8.95949
8.95949
8.95949
8.95949
8.95949
8.95949
8.95949
8.95949
8.95949
8.95949
8.95949
8.95949
8.88073
6.42495
7.65762
1.16952
1
1
1
1
1
1.00203
2.5488
8.10198
8.25482
8.9277
8.95949
8.9595
8.9595
8.9595
8.9595
8.9595
8.9595
8.9595
8.9595
8.9595
8.9595
8.9595
8.9595
8.95949
8.74732
3.77073
5.139
2.22313
1
1
1
1
1
1.00001
1.75495
6.04024
5.74942
8.77335
8.95946
8.9595
8.9595
8.9595
8.9595
8.9595
8.9595
8.9595
8.9595
8.9595
8.9595
8.9595
8.9595
8.9595
8.54295
2.45286
2.64619
1.71241
1
1
1
1
1
1
1.46892
4.40148
4.05829
8.62525
8.95947
8.9595
8.9595
8.9595
8.9595
8.9595
8.9595
8.9595
8.9595
8.9595
8.9595
8.95951
8.95951
8.9595
8.41112
2.19656
1.73549
1.35804
1
1
1
1
1
1
1.45903
3.64724
3.59829
8.5527
8.95947
8.95951
8.95951
8.95951
8.95951
8.95951
8.95951
8.95951
8.95951
8.95951
8.95951
8.95951
8.95951
8.9595
8.35036
2.31896
1.59227
1.35537
1
1
1
1
1
1
1.60017
3.46021
5.27627
8.78064
8.9595
8.95951
8.95951
8.95951
8.95951
8.95951
8.95951
8.95951
8.95951
8.95951
8.95951
8.95951
8.95951
8.9595
8.6012
4.32953
1.7247
1.48561
1
1
1
1
1
1
1.66777
3.35213
7.90527
8.92019
8.95951
8.95952
8.95952
8.95952
8.95952
8.95952
8.95952
8.95952
8.95952
8.95952
8.95952
8.95952
8.95952
8.95951
8.84766
7.23421
2.65665
1.63915
1
1
1
1
1
1
1.63063
3.3727
8.85287
8.95489
8.95952
8.95952
8.95952
8.95952
8.95952
8.95952
8.95952
8.95952
8.95952
8.95952
8.95952
8.95952
8.95952
8.95952
8.94368
8.66852
5.54911
1.66365
1
1
1
1
1
1
1.60211
6.25854
8.95734
8.95934
8.95953
8.95953
8.95953
8.95953
8.95953
8.95953
8.95953
8.95953
8.95953
8.95953
8.95953
8.95953
8.95953
8.95953
8.95889
8.95182
8.61821
1.55787
1
1
1
1
1
1
1
1
1
1
1
1
1
1
1
1
1
1
1
1
1
1
1
1
1
1
1
1
1
1
1
1
1
1.34034
1.3626
1.34361
1.33339
1.31782
1.29916
1.18381
1
1
1
1
1
1
1
1
1
1
1
1
1.00053
1.00004
1
1
1
1
1
1
1
1.37101
1.42756
1.39032
1.34893
1.20797
1.10173
1.06152
1
1
1
1
1
1
1
1
1
1
1.00011
1.00436
1.00453
1.00784
1.0037
1
1
1
1
1
1
1.34444
1.48463
1.44425
1.29961
1.00082
1
1
1
1
1
1
1
1.29088
1.3266
1.46715
1.43196
1.34247
1.28156
1.05618
1.00555
1.00588
1.0229
1.00001
1
1
1
1
1
1.30565
1.52678
1.52057
1.17077
1
1
1
1
1
1
1
1
1
1
1.13959
1.31285
1.39137
1.42617
1.28026
1.01906
1.01919
1.01675
1.11283
1
1
1
1
1
1.2797
1.59525
1.6506
1.07504
1
1
1
1
1
1
1
1
1
1
1.00091
1.10422
1.30437
1.47807
1.36796
1.1014
1.05275
1.04591
1.00994
1
1
1
1
1
1.36164
1.80139
2.01772
1.0624
1
1
1
1
1
1
1
1
1
1
1.00016
1.07622
1.28777
1.47401
1.42859
1.21812
1.05618
1.05444
1.00145
1
1
1
1
1
1.40818
1.97655
3.02953
1.29863
1
1
1
1
1
1
1
1
1
1
1.10888
1.29965
1.36574
1.7748
1.47777
1.2921
1.03079
1.02144
1.0194
1
1
1
1
1.00715
1.41399
2.04489
4.78598
1.40857
1.00277
1
1
1
1
1
1
1
1
1.00005
1.37422
1.51533
2.00438
2.29279
1.49726
1.34578
1.02869
1.01971
1.08619
1
1
1
1
1.21436
1.40443
2.07829
6.69997
2.11349
1.29425
1.00085
1
1
1
1
1
1
1
1.32998
2.07876
3.21481
4.88038
2.4715
1.49335
1.56802
1.19026
1.12663
1.03416
1
1
1
1
1.21427
1.35961
2.05037
7.39256
6.986
2.13072
1.34473
1.27357
1
1
1
1
1
1.34382
4.15586
6.63489
8.37884
7.42046
1.82297
2.527
3.39398
1.35171
1.24162
1.22875
1
1
1
1
1.20755
1.34173
2.36063
7.85852
8.76504
6.20331
2.79363
3.82059
2.36435
1.00044
1
1
1.68312
7.6274
8.7613
8.91233
8.95375
8.66384
3.16856
5.87059
7.60053
1.85581
1.27751
1.36389
1
1
1
1
1.18302
1.33699
2.88054
8.17557
8.75005
8.5181
7.1698
6.63862
7.82647
5.37279
1.3303
4.37241
8.84087
8.95705
8.95943
8.95943
8.95904
8.85059
5.3633
8.04101
8.86848
5.52566
1.31217
1.36852
1.14013
1
1
1
1.15396
1.3491
4.09636
8.32539
8.65517
7.66487
7.6543
8.00298
8.40939
8.73594
8.66433
8.95411
8.95923
8.95939
8.95945
8.95946
8.95937
8.93298
7.5918
8.7009
8.95116
8.77617
1.84137
1.29893
1.32406
1
1
1
1.10298
1.38967
6.43524
8.80256
8.45243
6.48433
5.22983
6.57152
8.6461
8.86936
8.9269
8.9576
8.95907
8.95939
8.95946
8.95947
8.95947
8.9566
8.73941
8.91727
8.95753
8.95657
6.39644
1.28494
1.32055
1
1
1
1.09123
1.49709
8.12448
8.92073
8.401
6.32556
4.63836
5.2505
8.34783
8.94112
8.95169
8.95887
8.95935
8.95945
8.95947
8.95948
8.95948
8.95948
8.94702
8.9569
8.95884
8.95872
7.75792
1.27962
1.30827
1
1
1
1.09763
1.75895
8.42943
8.94397
8.86312
8.36882
7.82011
8.08611
8.75989
8.95532
8.95908
8.95942
8.95947
8.95948
8.95948
8.95948
8.95948
8.95948
8.95941
8.95946
8.95906
8.9553
7.8835
1.06603
1.27702
1
1
1
1.07798
1.87038
8.37017
8.95102
8.95285
8.9482
8.9275
8.93081
8.95618
8.95944
8.95948
8.95948
8.95948
8.95948
8.95948
8.95949
8.95949
8.95949
8.95949
8.95948
8.95511
8.85996
7.98305
1.00015
1.15602
1
1
1
1.03055
1.80215
7.77693
8.93691
8.94451
8.95878
8.95947
8.95947
8.95949
8.95949
8.95949
8.95949
8.95949
8.95949
8.95949
8.95949
8.95949
8.95949
8.95949
8.95949
8.92866
7.97236
7.97169
1.00004
1.03638
1
1
1
1.00236
1.64656
6.55193
8.79126
8.85042
8.95584
8.95949
8.95949
8.95949
8.95949
8.95949
8.95949
8.95949
8.95949
8.95949
8.95949
8.95949
8.95949
8.95949
8.95949
8.81816
5.4246
6.72676
1.12527
1.00969
1
1
1
1.00001
1.50472
5.00624
7.66257
7.85197
8.93156
8.95949
8.9595
8.9595
8.9595
8.9595
8.9595
8.9595
8.9595
8.9595
8.9595
8.9595
8.9595
8.9595
8.95949
8.50099
3.00903
3.59081
2.01704
1.00359
1
1
1
1
1.41048
3.03238
5.80259
6.44011
8.86095
8.95949
8.9595
8.9595
8.9595
8.9595
8.9595
8.9595
8.9595
8.9595
8.9595
8.9595
8.9595
8.9595
8.95949
7.9539
2.08774
1.93578
2.13567
1.00045
1
1
1
1
1.35894
1.77806
5.01284
6.19951
8.83996
8.9595
8.9595
8.9595
8.9595
8.9595
8.9595
8.9595
8.9595
8.9595
8.9595
8.9595
8.95951
8.95951
8.95949
7.58907
1.95592
1.60032
1.42027
1
1
1
1
1
1.18058
1.58703
5.28243
7.33934
8.89511
8.95951
8.95951
8.95951
8.95951
8.95951
8.95951
8.95951
8.95951
8.95951
8.95951
8.95951
8.95951
8.95951
8.95949
7.49127
2.53461
1.60816
1.34648
1
1
1
1
1
1.00009
1.73036
5.40554
8.48915
8.94919
8.95951
8.95951
8.95951
8.95951
8.95951
8.95951
8.95951
8.95951
8.95951
8.95951
8.95951
8.95951
8.95951
8.9595
8.28492
5.93753
2.46587
1.44285
1
1
1
1
1
1
1.94103
4.96479
8.90573
8.95828
8.95952
8.95952
8.95952
8.95952
8.95952
8.95952
8.95952
8.95952
8.95952
8.95952
8.95952
8.95952
8.95952
8.95951
8.83602
8.38908
5.77421
1.78438
1
1
1
1
1
1
1.88765
5.79734
8.95773
8.95938
8.95952
8.95952
8.95952
8.95952
8.95952
8.95952
8.95952
8.95952
8.95952
8.95952
8.95952
8.95952
8.95952
8.95952
8.94985
8.90965
8.38225
1.93086
1
1
1
1
1
1
1.78641
8.45295
8.95952
8.95952
8.95953
8.95953
8.95953
8.95953
8.95953
8.95953
8.95953
8.95953
8.95953
8.95953
8.95953
8.95953
8.95953
8.95953
8.95937
8.95923
8.94218
1.6414
1
1
1
1
1
1
1
1
1
1
1
1
1
1
1
1
1
1
1
1
1
1
1
1
1
1
1
1
1
1
1
1
1.15808
1.43316
1.58373
1.48548
1.34383
1.27801
1.22412
1.1464
1
1
1
1
1
1
1
1
1
1.04356
1.30281
1.35
1.36114
1.34581
1.18488
1.00034
1
1
1
1
1.09858
1.5775
2.55293
2.02802
1.31954
1.00249
1
1.00011
1
1
1
1
1
1
1.00098
1.00367
1.00285
1.0169
1.09036
1.12797
1.17185
1.10153
1.05309
1.00018
1
1
1
1
1
1.54663
3.55379
2.29112
1.13466
1
1
1
1
1
1
1
1.00008
1.23954
1.17227
1.29168
1.31278
1.30386
1.29134
1.24752
1.29282
1.27998
1.16706
1.00046
1
1
1
1
1
1.45071
4.00747
2.26375
1.00681
1
1
1
1
1
1
1
1.0019
1
1
1.00001
1.03175
1.23009
1.3493
1.34555
1.3263
1.37117
1.31406
1.12365
1
1
1
1
1
1.43786
4.57647
2.21724
1.00039
1
1
1
1
1
1
1
1.00557
1
1
1
1.00085
1.06494
1.32176
1.47798
1.3693
1.41197
1.38641
1.0353
1
1
1
1
1
1.73335
5.36304
3.01611
1.00121
1
1
1
1
1
1
1
1
1
1
1
1.05461
1.18496
1.33202
1.65536
1.42679
1.38854
1.41897
1.04673
1
1
1
1
1.00005
2.02015
5.96065
5.18962
1.26424
1
1
1
1
1
1
1
1
1
1
1.06442
1.32054
1.39041
1.75932
1.9391
1.53207
1.34388
1.41023
1.29196
1
1
1
1
1.31238
2.05192
6.4086
7.36303
1.45454
1
1
1
1
1
1
1
1
1
1
1.33555
1.59151
2.20961
2.47978
2.21273
1.91101
1.33519
1.40261
1.38259
1
1
1
1
1.35624
2.00924
6.8041
8.071
2.817
1.27823
1.00002
1
1
1
1
1
1
1
1.30432
1.59509
3.12617
5.04654
2.75425
2.56061
3.53268
1.45277
1.46691
1.35504
1
1
1
1
1.34445
1.78302
7.24411
8.01783
7.88737
2.96414
1.33227
1.27213
1.0001
1
1
1
1
1.58839
5.4356
6.75788
8.33565
7.99871
2.23903
4.81413
7.03298
2.29084
1.54698
1.40528
1
1
1
1
1.33887
1.69866
7.79969
7.95882
6.13119
6.53548
3.22669
4.08479
4.2384
1.28349
1
1.19784
3.9775
8.45642
8.84803
8.91662
8.95386
8.79967
3.90457
7.34067
8.7817
5.52912
1.66338
1.9761
1
1
1
1
1.3383
1.7497
8.19779
8.23006
4.21719
5.00497
6.36619
6.67455
8.43495
7.71203
1.78131
7.65254
8.93586
8.95913
8.95938
8.95943
8.95927
8.89248
6.1409
8.43412
8.94668
8.64424
2.29276
2.10428
1.32805
1
1
1
1.34629
1.94711
8.51052
8.35147
3.84191
1.96298
2.36714
5.72205
8.65331
8.90488
8.9125
8.95866
8.95925
8.95941
8.95945
8.95946
8.95941
8.93977
7.98837
8.803
8.95557
8.95255
5.98396
1.76578
1.33304
1
1
1
1.35255
2.35084
8.73718
8.44341
4.16019
1.67425
1.39522
1.9523
7.15868
8.92397
8.95386
8.95902
8.9593
8.95943
8.95946
8.95947
8.95947
8.95707
8.82257
8.93698
8.95799
8.95834
8.28117
1.5752
1.32722
1
1
1
1.36566
3.03764
8.84546
8.73094
5.93434
2.21084
1.47114
1.50195
5.00772
8.9008
8.95838
8.95925
8.95941
8.95947
8.95947
8.95948
8.95948
8.95948
8.95359
8.95855
8.95858
8.9579
8.38847
1.39311
1.32303
1
1
1
1.38078
3.92605
8.88169
8.86785
7.76396
4.90342
3.45354
4.18836
7.6499
8.93582
8.95934
8.95946
8.95948
8.95948
8.95948
8.95948
8.95948
8.95948
8.95945
8.95945
8.95803
8.92832
8.28451
1.31613
1.3124
1
1
1
1.38629
4.11823
8.87571
8.91569
8.86251
8.76532
8.51905
8.50359
8.91604
8.95924
8.95947
8.95948
8.95948
8.95948
8.95948
8.95949
8.95949
8.95949
8.95949
8.95947
8.94025
8.58836
8.04066
1.13917
1.27867
1
1
1
1.38314
3.85954
8.74657
8.86527
8.86035
8.95853
8.95932
8.95914
8.95948
8.95949
8.95949
8.95949
8.95949
8.95949
8.95949
8.95949
8.95949
8.95949
8.95949
8.95946
8.84348
6.87787
7.40808
1.01984
1.19895
1
1
1
1.37281
3.30897
8.2271
8.56166
8.64922
8.95538
8.95949
8.95949
8.95949
8.95949
8.95949
8.95949
8.95949
8.95949
8.95949
8.95949
8.95949
8.95949
8.95949
8.95945
8.51172
4.01373
5.16396
1.1792
1.13939
1
1
1
1.35329
2.71026
6.75771
7.34133
8.10779
8.94261
8.95949
8.9595
8.9595
8.9595
8.9595
8.9595
8.9595
8.9595
8.9595
8.9595
8.9595
8.9595
8.9595
8.95943
7.84574
2.21231
2.44211
2.02568
1.14861
1
1
1
1.29701
2.17113
4.65966
6.27037
7.77657
8.92668
8.9595
8.9595
8.9595
8.9595
8.9595
8.9595
8.9595
8.9595
8.9595
8.9595
8.9595
8.9595
8.9595
8.9594
7.1491
1.7042
1.60116
2.9978
1.14521
1
1
1
1.16737
1.70737
2.46036
6.43307
8.37483
8.94098
8.9595
8.9595
8.9595
8.9595
8.9595
8.9595
8.9595
8.9595
8.9595
8.9595
8.9595
8.95951
8.95951
8.95941
6.94754
1.67736
1.47328
1.58121
1.1295
1
1
1
1.03721
1.43877
1.85536
6.58438
8.8402
8.95548
8.95951
8.95951
8.95951
8.95951
8.95951
8.95951
8.95951
8.95951
8.95951
8.95951
8.95951
8.95951
8.95951
8.95944
7.4269
2.79727
1.61735
1.33903
1.11275
1
1
1
1.00166
1.33287
1.99436
6.13672
8.94743
8.95901
8.95951
8.95951
8.95951
8.95951
8.95951
8.95951
8.95951
8.95951
8.95951
8.95951
8.95951
8.95951
8.95951
8.95949
8.61125
6.97804
3.29352
1.44878
1.10256
1
1
1
1.00001
1.01023
2.39404
6.15152
8.95894
8.95942
8.95952
8.95952
8.95952
8.95952
8.95952
8.95952
8.95952
8.95952
8.95952
8.95952
8.95952
8.95952
8.95952
8.95952
8.91903
8.726
7.17148
2.03042
1.06225
1
1
1
1
1
2.37728
7.91449
8.9595
8.95951
8.95952
8.95952
8.95952
8.95952
8.95952
8.95952
8.95952
8.95952
8.95952
8.95952
8.95952
8.95952
8.95952
8.95952
8.95725
8.94572
8.76496
2.29545
1.00032
1
1
1
1
1
2.13301
8.92071
8.95952
8.95953
8.95953
8.95953
8.95953
8.95953
8.95953
8.95953
8.95953
8.95953
8.95953
8.95953
8.95953
8.95953
8.95953
8.95953
8.95947
8.95949
8.95737
1.76422
1
1
1
1
1
1
1
1
1
1
1
1
1
1
1
1
1
1
1
1
1
1
1
1
1
1
1
1
1
1
1
1
1.35619
1.82856
2.47279
1.991
1.35305
1.22183
1.10057
1.07259
1
1
1
1
1
1.00008
1.02804
1.22749
1.34419
1.4013
1.50218
1.59173
1.82717
1.50653
1.36468
1.28793
1.01631
1
1
1
1.20986
2.22978
4.47477
2.43319
1.23367
1
1
1
1
1
1
1
1.00014
1.11521
1.16937
1.14724
1.15545
1.2005
1.25959
1.3012
1.3778
1.30526
1.22037
1.0679
1.00343
1
1
1
1
2.21105
5.15721
2.08329
1.00362
1
1
1
1
1
1
1
1.06949
1.15165
1.02718
1.16767
1.22882
1.25415
1.2862
1.37161
1.94033
1.87113
1.31308
1.00937
1
1
1
1
1
2.00885
5.60783
1.8791
1
1
1
1
1
1
1
1
1.00834
1
1
1
1.00018
1.03829
1.28033
1.48863
2.21836
2.96461
1.77465
1.14829
1
1
1
1
1
2.07752
6.04972
1.78657
1
1
1
1
1
1
1
1
1.00893
1
1
1
1.00002
1.00636
1.21755
1.62245
2.56536
3.27994
2.74396
1.06118
1
1
1
1
1
2.65149
6.29719
2.23813
1
1
1
1
1
1
1
1
1.00003
1
1
1
1.07124
1.20108
1.263
1.83166
3.00861
2.95964
3.42437
1.18436
1
1
1
1
1.25947
2.73065
6.33269
3.66853
1.09718
1
1
1
1
1
1
1
1
1
1
1.0004
1.26226
1.35462
1.49767
2.69645
3.76466
2.49837
3.63873
1.4794
1
1
1
1
1.46039
2.72114
6.4358
4.46155
1.34668
1
1
1
1
1
1
1
1
1
1
1.04738
1.28138
1.70358
1.93188
3.79051
5.3377
2.44049
3.53198
1.89728
1
1
1
1
1.51336
2.72957
6.49223
3.18237
2.29142
1.22492
1
1
1
1
1
1
1
1
1.19648
1.16571
1.55453
2.56639
2.57736
5.27762
7.50403
3.95534
3.94989
1.57152
1
1
1
1
1.46732
2.61597
7.28286
2.6467
3.31448
3.40714
1.32729
1.29309
1.3739
1.04963
1
1.00089
1.37698
4.7704
5.52305
5.207
7.85236
8.18478
2.84333
7.06808
8.72194
6.90938
4.77858
1.64074
1
1
1
1
1.41469
2.51947
8.18791
2.63636
1.44581
5.35047
3.52179
4.52721
6.83566
4.90648
1.33744
4.5348
8.19132
8.83757
8.88766
8.9091
8.95257
8.83931
4.5644
8.06501
8.93968
8.65171
5.71071
3.91344
1.00112
1
1
1
1.38785
2.69929
8.56597
3.7348
1.31687
1.49178
4.13759
6.52992
8.65325
8.89283
8.20274
8.93635
8.95782
8.9594
8.95945
8.95941
8.95929
8.91061
6.71432
8.63502
8.9532
8.94854
7.18709
4.64304
1.27998
1
1
1
1.38693
3.22545
8.71373
5.15636
1.34902
1.19237
1.26821
2.65377
8.55031
8.93947
8.9584
8.95925
8.95942
8.95946
8.95947
8.95945
8.95942
8.94069
8.21828
8.86056
8.95596
8.95674
8.51203
4.12963
1.28364
1
1
1
1.39852
4.09807
8.784
6.38805
1.57302
1.14463
1.00258
1.25979
5.45807
8.93381
8.9587
8.95931
8.95943
8.95947
8.95947
8.95947
8.95947
8.95721
8.86765
8.94663
8.95743
8.95651
8.71749
2.76313
1.3052
1
1
1.00001
1.4281
5.19988
8.82881
7.50578
2.46129
1.2724
1.14716
1.16985
2.79629
8.89428
8.95888
8.9594
8.95946
8.95947
8.95948
8.95948
8.95948
8.95947
8.9558
8.95895
8.95721
8.93435
8.68854
1.71628
1.34035
1
1
1.00061
1.48151
6.09682
8.84334
8.23856
4.72422
1.97387
1.49241
1.65503
6.30068
8.94083
8.95931
8.95947
8.95948
8.95948
8.95948
8.95948
8.95948
8.95948
8.95947
8.95942
8.93951
8.75031
8.37393
1.3722
1.34285
1
1
1.005
1.49998
6.21616
8.83713
8.74783
8.63061
8.10971
7.3176
7.10006
8.78525
8.95897
8.95947
8.95948
8.95948
8.95948
8.95948
8.95949
8.95949
8.95949
8.95949
8.95942
8.85097
7.74174
7.6875
1.28421
1.33621
1
1
1.01433
1.4903
5.87321
8.71466
8.68777
8.82954
8.95669
8.95739
8.9556
8.95942
8.95949
8.95949
8.95949
8.95949
8.95949
8.95949
8.95949
8.95949
8.95949
8.95949
8.95941
8.55927
5.25857
6.25698
1.15564
1.31451
1
1
1.02235
1.46099
5.16286
8.23363
8.22977
8.66883
8.95599
8.95949
8.95949
8.95949
8.95949
8.95949
8.95949
8.95949
8.95949
8.95949
8.95949
8.95949
8.95949
8.95949
8.95939
7.94172
2.7838
3.67716
1.24637
1.27224
1
1
1.02151
1.42456
4.29702
7.06099
7.22359
8.49057
8.95117
8.9595
8.9595
8.9595
8.9595
8.9595
8.9595
8.9595
8.9595
8.9595
8.9595
8.9595
8.9595
8.9595
8.95937
7.14079
1.71642
1.87812
2.37765
1.27722
1
1
1.01793
1.39317
3.41355
5.56885
6.8308
8.48173
8.94852
8.9595
8.9595
8.9595
8.9595
8.9595
8.9595
8.9595
8.9595
8.9595
8.9595
8.9595
8.9595
8.9595
8.95936
6.6319
1.46274
1.42555
4.61269
1.28817
1
1
1.01336
1.37011
2.49156
3.2582
7.06318
8.83538
8.95669
8.9595
8.9595
8.9595
8.9595
8.9595
8.9595
8.9595
8.9595
8.9595
8.9595
8.9595
8.95951
8.95951
8.9594
6.72072
1.48929
1.35876
1.96896
1.30743
1.00001
1
1.00938
1.34647
1.8142
2.19211
6.3397
8.94441
8.95892
8.95951
8.95951
8.95951
8.95951
8.95951
8.95951
8.95951
8.95951
8.95951
8.95951
8.95951
8.95951
8.95951
8.95946
7.99921
2.86223
1.53199
1.33864
1.32585
1.0005
1
1.00657
1.29293
1.44435
2.3272
5.92013
8.95853
8.95937
8.95951
8.95951
8.95951
8.95951
8.95951
8.95951
8.95951
8.95951
8.95951
8.95951
8.95951
8.95951
8.95951
8.95951
8.80476
7.26947
3.32615
1.47618
1.32947
1.01246
1
1.00452
1.18503
1.30601
2.92346
7.07469
8.95937
8.95949
8.95952
8.95952
8.95952
8.95952
8.95952
8.95952
8.95952
8.95952
8.95952
8.95952
8.95952
8.95952
8.95952
8.95952
8.94481
8.80831
7.28393
2.26253
1.32642
1.10438
1
1.00321
1.07866
1.00335
2.98687
8.61952
8.95951
8.95952
8.95952
8.95952
8.95952
8.95952
8.95952
8.95952
8.95952
8.95952
8.95952
8.95952
8.95952
8.95952
8.95952
8.95952
8.95875
8.9531
8.79532
2.62283
1.26703
1.20917
1
1.0018
1.00354
1.00001
2.64966
8.95482
8.95952
8.95953
8.95953
8.95953
8.95953
8.95953
8.95953
8.95953
8.95953
8.95953
8.95953
8.95953
8.95953
8.95953
8.95953
8.95953
8.95949
8.95946
8.95812
1.88407
1.00018
1.19442
1
1
1
1.00001
1.00006
1
1
1
1
1
1
1
1
1
1
1
1
1
1
1
1
1
1.00001
1.00002
1
1
1
1
1
1
1.42598
2.50408
3.84409
2.28577
1.31833
1.14729
1.0236
1.01744
1
1
1
1.00052
1.21155
1.34358
1.39023
1.46738
1.5556
1.66009
1.95577
2.79694
4.31524
2.5619
1.47466
1.36609
1.28779
1.0017
1
1
1.14158
2.92809
4.82048
2.01657
1.06052
1
1
1
1
1
1.00002
1.09064
1.2775
1.31061
1.29187
1.26253
1.2556
1.26291
1.31203
1.66728
2.92189
1.84661
1.2991
1.20752
1.18724
1.03503
1
1
1.00011
2.90502
4.88956
1.58542
1
1
1
1
1
1
1.03062
1.14214
1.21214
1.04093
1.00152
1.03485
1.10597
1.17897
1.27184
1.77895
5.89637
5.85773
1.58163
1.03596
1.01139
1.007
1
1
1
2.77461
4.69063
1.44376
1
1
1
1
1
1
1.09489
1.1016
1.00048
1
1
1
1
1.0022
1.17647
1.51543
6.18791
7.57774
3.02082
1.1367
1.00372
1.00031
1
1
1
2.81655
4.17872
1.39688
1
1
1
1
1
1
1.01744
1.04059
1.00092
1
1
1
1
1.00155
1.09404
1.42393
6.21669
7.82878
4.90173
1.0521
1.00249
1.00017
1
1
1.00065
2.65652
3.22528
1.47693
1
1
1
1
1
1
1
1.0059
1.00075
1
1
1
1.03967
1.17216
1.19212
1.45697
6.47316
7.6818
6.69096
1.22184
1.00176
1.00065
1
1
1.42646
2.55733
2.71037
1.71437
1.00195
1
1
1
1
1
1
1
1
1
1
1
1.10942
1.24135
1.24773
2.19655
7.67903
7.29356
8.06825
1.8872
1.00011
1.00107
1
1
1.62892
2.53212
2.62171
1.73402
1.24885
1
1
1
1
1
1
1
1
1
1
1
1.03955
1.23122
1.32244
4.08189
8.43137
7.25559
8.33863
2.81151
1
1.00032
1
1
1.68291
2.73069
2.62943
1.36308
1.60418
1.07549
1
1
1
1
1
1
1
1
1.00045
1
1.12226
1.23128
1.82116
7.30643
8.83159
8.30383
8.47437
2.13582
1
1
1
1
1.61362
3.11418
4.28202
1.29347
1.36497
2.9066
1.28371
1.26797
1.26677
8.85431
1.06673
8.79702
1.4668
8.9394
1.71714
1.80024
8.95852
4.65397
4.03879
8.13636
8.938
8.84762
8.65265
2.39581
1
1
1
1
1.50653
3.4116
6.48951
1.32152
1.10306
2.61416
4.16538
4.39599
8.95953
8.9586
8.95953
8.95769
8.95953
8.95946
8.95953
8.95953
8.95946
8.95953
4.81707
8.35896
8.94982
8.94397
8.75158
5.7338
1.01361
1
1
1.00009
1.45048
3.85734
7.69485
1.54729
1.03896
1.14672
2.24988
5.79697
8.85704
8.95946
8.95946
8.95946
8.95946
8.95946
8.95947
8.95947
8.95947
8.91295
6.84686
8.73189
8.95178
8.94921
8.81647
6.61473
1.16032
1
1
1.00152
1.4444
4.72352
8.28291
2.30638
1.12843
1
1.04377
1.46485
8.95953
8.95947
8.95953
8.95947
8.95953
8.95947
8.95953
8.95953
8.95947
8.95953
8.29658
8.88753
8.95289
8.93987
8.8476
6.68894
1.23845
1
1
1.0181
1.4787
5.80074
8.48578
3.36617
1.22345
1
1
1.03337
8.93364
8.95947
8.95947
8.95947
8.95947
8.95947
8.95947
8.95947
8.95947
8.95947
8.87457
8.95021
8.95201
8.87892
8.76954
5.01698
1.31893
1
1
1.07134
1.55538
6.78118
8.58003
4.75165
1.36527
1.05647
1.00001
1.00032
8.95953
8.95948
8.95953
8.95948
8.95953
8.95948
8.95953
8.95953
8.95948
8.95953
8.95644
8.95899
8.93085
8.64649
8.47884
2.59616
1.52372
1.00002
1
1.13805
1.68533
7.3158
8.6248
6.76132
2.48751
1.32505
1.22005
1.23216
8.95953
8.95948
8.95953
8.95948
8.95953
8.95948
8.95953
8.95953
8.95948
8.95953
8.95947
8.95937
8.8413
7.9007
7.85975
1.49809
1.57512
1.00553
1
1.19583
1.71555
7.33672
8.59573
8.4482
8.33744
6.94703
5.46178
5.18377
8.95948
8.95948
8.95948
8.95948
8.95948
8.95953
8.95948
8.95949
8.95953
8.95949
8.95949
8.95937
8.5779
6.13043
6.59624
1.31262
1.49987
1.08406
1
1.21515
1.68796
7.01055
8.50161
8.48099
8.84863
8.9538
8.9514
8.94676
8.95953
8.95949
8.95953
8.95949
8.95953
8.95949
8.95953
8.95953
8.95949
8.95953
8.95949
8.95935
8.02559
3.65308
4.64433
1.25011
1.3906
1.1991
1
1.21054
1.62035
6.31125
7.997
7.98331
8.75023
8.95678
8.95949
8.95949
8.95953
8.95949
8.95953
8.95949
8.95953
8.95949
8.95953
8.95953
8.95949
8.95953
8.95949
8.95932
7.24174
2.0297
2.67477
1.28175
1.34055
1.25158
1
1.19667
1.54051
5.36083
6.90255
7.18342
8.65778
8.95508
8.9595
8.9595
8.9595
8.9595
8.9595
8.9595
8.9595
8.9595
8.9595
8.9595
8.9595
8.9595
8.9595
8.95934
6.48275
1.45554
1.6197
3.48498
1.34541
1.27692
1
1.17267
1.47081
4.37021
5.79496
6.99597
8.72326
8.9551
8.9595
8.9595
8.9595
8.9595
8.9595
8.9595
8.9595
8.9595
8.9595
8.9595
8.9595
8.9595
8.9595
8.95933
6.07827
1.31605
1.32656
5.84789
1.35596
1.30165
1
1.14108
1.41852
3.24545
3.80362
6.90645
8.91369
8.95873
8.9595
8.9595
8.9595
8.9595
8.9595
8.9595
8.9595
8.9595
8.9595
8.9595
8.9595
8.95951
8.95951
8.9594
6.81243
1.36012
1.27265
2.56001
1.37829
1.32799
1
1.10649
1.38112
2.29216
2.52924
5.84981
8.95483
8.95929
8.95951
8.95951
8.95951
8.95951
8.95951
8.95951
8.95951
8.95951
8.95951
8.95951
8.95951
8.95951
8.95951
8.95947
8.29708
2.65106
1.37793
1.37488
1.39976
1.34289
1
1.07611
1.35586
1.67341
2.6905
5.72178
8.95908
8.95945
8.95951
8.95951
8.95951
8.95951
8.95951
8.95951
8.95951
8.95951
8.95951
8.95951
8.95951
8.95951
8.95951
8.95951
8.86418
7.19679
2.71988
1.50595
1.39726
1.34494
1
1.0508
1.3299
1.36616
3.53714
7.61068
8.95945
8.95951
8.95952
8.95952
8.95952
8.95952
8.95952
8.95952
8.95952
8.95952
8.95952
8.95952
8.95952
8.95952
8.95952
8.95952
8.95088
8.81608
6.61359
2.20864
1.38502
1.34427
1
1.03395
1.28472
1.16596
3.69728
8.80542
8.95951
8.95952
8.95952
8.95952
8.95952
8.95952
8.95952
8.95952
8.95952
8.95952
8.95952
8.95952
8.95952
8.95952
8.95952
8.95952
8.95902
8.95407
8.69288
2.70116
1.35414
1.34217
1
1.01485
1.13786
1.00774
3.48231
8.95815
8.95952
8.95953
8.95953
8.95953
8.95953
8.95953
8.95953
8.95953
8.95953
8.95953
8.95953
8.95953
8.95953
8.95953
8.95953
8.95953
8.9595
8.95947
8.95726
1.96016
1.1228
1.33548
1
1
1
1.0003
1.00136
1.0002
1
1
1
1
1
1
1
1
1
1
1
1
1
1
1
1.00006
1.00072
1.00081
1.00001
1
1
1
1
1
1.37589
2.88132
3.68325
2.13356
1.26777
1.07602
1.00369
1.00182
1
1
1.00277
1.30776
1.43704
1.61045
1.62973
1.64352
1.73357
1.98329
2.68197
4.63256
7.40843
5.09791
1.68661
1.46853
1.35013
1.1651
1
1
1.15296
2.95856
3.62664
1.53136
1.00296
1
1
1
1
1
1.32195
1.34617
1.34323
1.31644
1.27151
1.25794
1.25518
1.2759
1.37402
2.41506
7.11641
4.48751
1.43599
1.23515
1.28661
1.25196
1
1
1.03253
2.76168
2.47893
1.3077
1
1
1
1
1
1
1.30921
1.32398
1.16565
1.00315
1.00007
1.00273
1.02265
1.07956
1.22557
1.65071
7.90357
8.27272
2.03766
1.06013
1.07964
1.17374
1
1
1.00023
2.40902
2.04347
1.25286
1
1
1
1
1
1
1.2686
1.21229
1
1
1
1
1
1.00014
1.06018
1.36429
7.28382
8.73043
3.71037
1.10613
1.04936
1.07863
1
1
1
2.18002
1.77364
1.2349
1
1
1
1
1
1
1.19907
1.11637
1.00002
1
1
1
1
1.00104
1.02703
1.26788
6.52777
8.82024
5.4411
1.03261
1.05425
1.08134
1
1
1.26565
2.01426
1.54322
1.23641
1
1
1
1
1
1
1.00859
1.02397
1.00088
1
1
1
1.0042
1.10318
1.11865
1.26459
6.45637
8.85223
7.30677
1.22511
1.05595
1.13415
1
1
1.64023
1.96273
1.46565
1.27265
1
1
1
1
1
1
1
1
1
1
1
1
1.00245
1.12972
1.16223
1.69168
8.26708
8.85975
8.54754
2.22053
1.02207
1.19079
1
1
1.74498
2.09383
1.47299
1.26933
1.16498
1
1
1
1
1
1
1
1
1
1
1
1
1.03199
1.18396
3.52615
8.85069
8.86141
8.74034
3.57667
1
1.1712
1
1
1.79251
2.49675
1.57176
1.19634
1.29878
1.0001
1
1
1
1
1
1
1
1.00163
1
1
1
1.01
1.40204
7.8346
8.94122
8.89623
8.76561
3.1689
1
1.06297
1
1.00004
1.76514
3.15238
2.40734
1.16418
1.18248
2.19356
1.21686
1.22449
1.1032
1.13079
1.17627
1.14312
1.24944
1.19931
1.22082
1.23769
8.95953
1.69114
5.54459
8.58092
8.94328
8.90504
8.78091
3.71333
1
1.00246
1
1.00376
1.61932
3.90837
4.33014
1.18056
1.00014
1.461
4.18393
4.23509
8.62853
8.95953
8.95953
8.95953
8.95953
8.95953
8.95953
8.95953
8.95953
8.95953
5.4528
8.57434
8.94317
8.89733
8.78703
6.39217
1.00704
1.00285
1
1.02413
1.53839
4.7457
6.03592
1.24713
1
1
1.48575
4.42312
8.95953
8.95953
8.95953
8.95953
8.95953
8.95953
8.95953
8.95953
8.95953
8.92271
7.2878
8.83198
8.93861
8.78754
8.72657
6.88661
1.09778
1.00639
1
1.05822
1.53931
5.76706
7.05547
1.42742
1.00057
1
1.00001
1.22841
8.80504
8.95953
8.95953
8.95953
8.95953
8.95953
8.95953
8.95953
8.95953
8.95953
8.46635
8.92074
8.93221
8.58754
8.56437
7.06066
1.21755
1.01816
1
1.18258
1.6202
6.72785
7.53466
1.7668
1.0632
1
1
1
8.95953
8.95953
8.95953
8.95953
8.95953
8.95953
8.95953
8.95953
8.95953
8.95953
8.89486
8.95399
8.91055
8.19109
8.20199
6.18116
1.38875
1.06741
1
1.26044
1.78255
7.38869
7.84114
2.47868
1.20125
1.00002
1
1
8.95948
8.95953
8.95953
8.95953
8.95953
8.95953
8.95953
8.95953
8.95953
8.95953
8.95771
8.9589
8.808
7.46703
7.57008
3.69822
1.93948
1.18183
1
1.30417
2.03675
7.67535
8.11302
4.94463
1.60175
1.1978
1.06699
1.11088
8.95948
8.95953
8.95953
8.95953
8.95953
8.95953
8.95953
8.95953
8.95953
8.95953
8.95948
8.95931
8.56245
6.22509
6.41751
1.7911
2.15548
1.27391
1
1.32589
2.07361
7.64582
8.21384
8.05356
7.78222
4.80358
2.90944
2.99254
8.95953
8.95953
8.95953
8.95953
8.95953
8.95953
8.95953
8.95953
8.95953
8.95953
8.95949
8.95931
8.06043
4.30615
4.72556
1.37914
1.96225
1.31295
1
1.32562
2.01891
7.39542
8.15162
8.23602
8.8413
8.94708
8.92435
8.92083
8.95949
8.95953
8.95953
8.95953
8.95953
8.95953
8.95953
8.95953
8.95953
8.95953
8.95949
8.95929
7.29781
2.52247
3.13639
1.28019
1.68901
1.31544
1
1.31909
1.8911
6.7758
7.60632
7.73175
8.75649
8.95774
8.95949
8.95949
8.87967
8.95953
8.95953
8.95953
8.95953
8.95953
8.95953
8.95953
8.95953
8.95953
8.95949
8.95926
6.45132
1.62535
2.0558
1.37902
1.6645
1.31569
1
1.30284
1.73957
5.8206
6.5616
7.05659
8.69433
8.95668
8.9595
8.9595
8.9595
8.9595
8.9595
8.9595
8.9595
8.9595
8.9595
8.9595
8.9595
8.9595
8.9595
8.9593
5.78551
1.31457
1.49683
5.02198
1.75037
1.31492
1
1.27436
1.60592
4.77721
5.54448
6.82745
8.79837
8.95826
8.9595
8.9595
8.9595
8.9595
8.9595
8.9595
8.9595
8.9595
8.9595
8.9595
8.9595
8.9595
8.9595
8.95933
5.5064
1.23319
1.28333
5.80709
1.83546
1.31118
1
1.23413
1.50534
3.6632
4.00081
6.30471
8.93288
8.95919
8.9595
8.9595
8.9595
8.9595
8.9595
8.9595
8.9595
8.9595
8.9595
8.9595
8.9595
8.9595
8.95951
8.95943
6.9009
1.28242
1.22224
3.05878
1.85089
1.30306
1
1.18433
1.43142
2.67457
2.79729
5.2286
8.95703
8.95939
8.95951
8.95951
8.95951
8.95951
8.95951
8.95951
8.95951
8.95951
8.95951
8.95951
8.95951
8.95951
8.95951
8.95949
8.39506
2.39953
1.26679
1.48074
1.81345
1.28433
1
1.1335
1.38095
1.93431
3.0264
5.5331
8.95925
8.95948
8.95951
8.95951
8.95951
8.95951