/*--------------------------------*- C++ -*----------------------------------*\
| =========                 |                                                 |
| \\      /  F ield         | OpenFOAM: The Open Source CFD Toolbox           |
|  \\    /   O peration     | Version:  2.3.0                                 |
|   \\  /    A nd           | Web:      www.OpenFOAM.org                      |
|    \\/     M anipulation  |                                                 |
\*---------------------------------------------------------------------------*/
FoamFile
{
    version     2.0;
    format      ascii;
    class       volScalarField;
    location    "1.2994";
    object      rho;
}
// * * * * * * * * * * * * * * * * * * * * * * * * * * * * * * * * * * * * * //

dimensions      [1 -3 0 0 0 0 0];

internalField   nonuniform List<scalar> 
18816
(
559.112
636.892
737.75
761.109
746.154
722.918
694.211
660.691
623.98
541.432
537.035
553.187
559.001
552.244
562.345
577.67
598.848
622.672
649.974
679.366
705.96
727.917
723.571
700.51
656.72
606.374
555.906
565.02
601.606
799.139
983.792
987.562
982.567
984.923
988.723
984.113
967.773
657.504
553.326
554.747
560.121
578.371
620.509
648.095
667.814
687.159
712.419
739.311
761.623
780.641
778.15
767.129
729.445
658.073
577.192
577.53
610.813
805.19
987.986
986.049
979.664
988.362
998.489
1004.85
974.548
703.993
582.965
571.906
569.604
686.696
819.76
867.456
877.557
864.91
866.2
889.565
915.04
932.309
936.387
926.758
851.436
714.356
589.831
589.467
606.899
776.006
971.718
974.936
975.678
987.402
998.35
995.686
953.618
710.432
591.474
601.658
596.268
848.522
981.319
1002.06
1016.09
1008.45
993.505
975.688
958.79
951.438
950.285
965.735
922.878
741.827
587.921
592.946
602.408
706.523
959.786
968.501
974.97
986.167
985.384
973.361
945.11
715.961
597.336
620.139
626.251
861.24
923.176
953.292
1011.09
1017.08
1014.12
1001.85
967.798
945.822
937.526
947.205
970.497
736.222
584.229
591.939
599.655
652.52
954.822
964.232
975.904
981.861
964.729
945.516
923.323
728.539
603.037
618.33
621.323
834.53
804.06
904.324
993.709
1007.05
1014.73
1011.36
983.123
945.119
930.621
934.768
954.851
719.556
578.141
590.236
597.125
667.584
962.844
963.34
978.636
979.444
951.56
925.322
886.147
750.379
605.088
610.944
610.815
736.926
731.832
871.159
976.912
998.936
1012.45
1012.49
990.757
947.587
926.184
924.357
938.375
702.74
574.758
588.536
594.04
786.214
968.035
963.622
981.963
979.933
949.226
920.238
854.301
721.889
607.224
591.962
583.91
611.543
700.88
886.042
972.634
995.912
1012.16
1013.31
992.481
952.269
923.848
914.661
928.941
686.07
571.805
586.668
592.786
877.057
963.722
962.967
987.792
990.706
961.763
932.119
859.62
705.159
605.142
578.997
579.094
601.729
782.019
952.986
989.306
1000.52
1016.85
1014.51
992.355
964.235
924.214
908.524
916.578
672.695
569.392
584.855
595.835
905.801
959.163
962.923
993.953
1004.13
981.191
958.795
924.383
783.944
633.676
579.094
594.52
706.351
911.574
996.138
1010.8
1019.18
1023.83
1013.59
991.96
989.246
935.927
907.594
891.797
674.454
564.994
585.033
600.716
906.526
949.944
962.352
998.843
1017.85
1012.11
1000.25
989.162
959.348
800.352
635.46
734.136
915.166
1006.76
1022.67
1025.42
1026.81
1025.76
1009.49
1011.35
1013.59
961.568
915.123
898.982
726.765
564.139
585.773
603.711
899.004
939.122
968.052
1007.96
1024.5
1023.52
1018.96
1022.66
1022.98
988.383
856.481
964.088
1019.79
1026.56
1027.02
1027.1
1027.11
1026.67
1019.21
1023.28
1024.6
993.577
922.481
931.893
819.555
567.154
586.883
605.256
887.352
929.762
978.677
1017.39
1026.59
1026.7
1025.91
1025.43
1026.41
1026.3
1015.64
1025.75
1027.08
1027.11
1027.11
1027.11
1027.11
1026.96
1023.86
1026.31
1026.9
1017.53
934.282
934.737
870.929
573.62
588.379
607.103
874.873
924.705
995.303
1024.15
1027.03
1027.06
1027.02
1026.75
1026.25
1026.97
1027.08
1027.11
1027.11
1027.11
1027.11
1027.11
1027.11
1027.08
1026.13
1026.92
1027.1
1026.46
985.349
916.814
890.394
581.071
589.933
609.203
860.304
926.88
1010.53
1026.44
1027.1
1027.09
1027.06
1027.06
1026.84
1026.96
1027.09
1027.11
1027.11
1027.11
1027.11
1027.11
1027.11
1027.11
1026.96
1027.08
1027.11
1027.1
1019.49
906.215
903.985
589.062
591.153
611.463
849.289
939.647
1019.34
1026.97
1027.11
1027.07
1027.02
1027.07
1027.09
1027.08
1027.1
1027.11
1027.11
1027.11
1027.11
1027.11
1027.11
1027.11
1027.1
1027.11
1027.11
1027.11
1025.41
896.242
905.881
593.515
592.102
613.854
840.211
955.481
1022.92
1027.07
1027.11
1027.1
1027.1
1027.1
1027.11
1027.11
1027.11
1027.11
1027.11
1027.11
1027.11
1027.11
1027.11
1027.11
1027.11
1027.11
1027.11
1027.11
1026.17
896.053
901.441
591.989
592.051
615.685
829.867
961.784
1023.69
1027.09
1027.11
1027.11
1027.11
1027.11
1027.11
1027.11
1027.11
1027.11
1027.11
1027.11
1027.11
1027.11
1027.11
1027.11
1027.11
1027.11
1027.11
1027.1
1026.57
896.788
885.009
589.325
591.642
616.116
815.223
959.466
1023.07
1027.09
1027.11
1027.11
1027.11
1027.11
1027.11
1027.11
1027.11
1027.11
1027.11
1027.11
1027.11
1027.11
1027.11
1027.11
1027.11
1027.11
1027.1
1026.87
1026.8
910.028
860.789
586.217
590.788
615.726
795.755
951.628
1021.62
1027.06
1027.1
1027.11
1027.11
1027.11
1027.11
1027.11
1027.11
1027.11
1027.11
1027.11
1027.11
1027.11
1027.11
1027.11
1027.11
1027.11
1027.07
1025.6
1026.44
966.674
837.821
582.319
589.61
614.873
773.389
940.018
1018.88
1026.68
1026.77
1027.1
1027.11
1027.11
1027.11
1027.11
1027.11
1027.11
1027.11
1027.11
1027.11
1027.11
1027.11
1027.11
1027.11
1027.11
1027.01
1022.43
1024.45
1017.42
816.003
578.042
588.333
613.634
750.412
925.32
1012.37
1025.31
1025.06
1027.03
1027.11
1027.11
1027.11
1027.11
1027.11
1027.11
1027.11
1027.11
1027.11
1027.11
1027.11
1027.11
1027.11
1027.11
1026.91
1018.38
1019.34
1012.14
791.379
573.776
586.991
612.385
727.264
906.199
1004.52
1023.54
1023.04
1026.95
1027.11
1027.11
1027.11
1027.11
1027.11
1027.11
1027.11
1027.11
1027.11
1027.11
1027.11
1027.11
1027.11
1027.11
1026.84
1016.87
1012.17
997.109
766.862
570.073
585.728
610.698
703.689
880.008
1004.06
1022.29
1022.25
1026.92
1027.11
1027.11
1027.11
1027.11
1027.11
1027.11
1027.11
1027.11
1027.11
1027.11
1027.11
1027.11
1027.11
1027.11
1026.81
1017.66
1009.24
994.449
747.057
567.351
584.722
609.712
681.93
858.385
1009.33
1021.92
1024.64
1027.03
1027.11
1027.11
1027.11
1027.11
1027.11
1027.11
1027.11
1027.11
1027.11
1027.11
1027.11
1027.11
1027.11
1027.11
1026.94
1023.4
1011.97
1001.98
732.744
565.537
583.989
609.375
661.953
852.251
1010.93
1021.69
1026.59
1027.09
1027.11
1027.11
1027.11
1027.11
1027.11
1027.11
1027.11
1027.11
1027.11
1027.11
1027.11
1027.11
1027.11
1027.11
1027.06
1026.18
1019.39
1008.66
721.894
563.761
583.233
609.368
647.707
856.539
1010.25
1021.73
1027.06
1027.11
1027.11
1027.11
1027.11
1027.11
1027.11
1027.11
1027.11
1027.11
1027.11
1027.11
1027.11
1027.11
1027.11
1027.11
1027.1
1026.97
1024.87
1009.9
717.344
562.171
582.291
610.6
629.365
886.417
1010.21
1025.5
1027.11
1027.11
1027.11
1027.11
1027.11
1027.11
1027.11
1027.11
1027.11
1027.11
1027.11
1027.11
1027.11
1027.11
1027.11
1027.11
1027.11
1027.11
1026.95
1007.1
727.254
558.646
581.124
581.114
750.691
822.048
831.968
820.64
795.025
748.513
690.249
640.779
544.133
549.268
546.662
582.247
622.452
656.936
684.922
712.633
739.341
768.277
796.631
818.363
833.331
832.926
815.653
778.066
715.847
595.635
532.857
683.894
902.631
990.642
994.876
990.418
988.185
987.031
981.931
968.504
686.726
549.047
625.788
657.885
701.785
732.713
754.315
774.679
800.442
838.1
881.925
913.393
935.863
928.968
889.659
835.817
775.1
704.903
557.057
708.344
903.611
994.231
1000.9
996.859
990.315
971.728
963.341
955.322
703.895
549.297
613.888
683.406
773.321
863.939
897.202
904.319
899.185
908.903
931.9
943.343
944.023
945.894
942.549
894.021
813.276
711.751
595.165
697.883
869.757
986.066
1004.37
1001.99
979.505
938.086
921.135
912.069
707.504
551.653
591.457
708.1
884.955
980.411
989.73
1005.12
1003.1
992.287
978.647
956.616
944.529
944.671
951.095
926.482
815.778
703.388
594.607
698.432
780.833
978.529
1006.22
1006.05
966.852
909.2
878.547
871.523
704.577
554.11
583.39
732.214
909.728
921.577
908.221
965.416
986.575
999.798
1002.05
977.242
949.811
949.726
949.176
962.916
816.204
694.014
596.188
701.432
697.97
975.388
1008.51
1009.97
958.337
887.658
838.182
828.714
700.31
555.379
577.242
716.181
909.109
836.849
867.16
938.153
962.013
983.663
1005.14
994.807
960.946
955.596
954.826
947.036
808.312
681.999
597.411
704.044
702.52
990.423
1012.68
1015.25
956.869
873.7
803.095
761.701
691.047
557.408
571.399
672.6
844.591
762.378
844.158
932.945
958.841
979.987
1004.98
1001.98
970.778
956.075
955.914
939.626
794.828
672.31
600.522
702.73
846.041
999.146
1014.85
1020.57
979.121
902.611
826.497
737.277
664.366
561.088
570.949
617.623
668.189
702.856
864.407
961.542
980.17
996.206
1012.76
1005.11
979.084
952.405
950.342
950.305
770.667
661.215
603.986
699.727
945.754
999.922
1015.53
1023.99
1000.3
941.662
861.492
719.139
625.841
574.155
578.902
588.373
606.476
733.963
930.032
995.276
1006.59
1015.45
1017.65
1006.36
991.21
952.063
949.927
960.225
726.947
648.875
607.265
700.937
973.258
999.549
1015.86
1025.81
1016.34
980.954
937.725
817.545
663.801
595.365
594.283
590.633
634.747
827.07
985.953
1016.03
1021.24
1024.22
1018.88
1006.65
1008.53
968.774
963.21
953.394
703.475
634.28
606.98
704.416
975.448
994.436
1015.66
1026.27
1026.02
1016.9
1000.65
976.502
869.767
681.59
604.717
644.827
825.465
992.567
1023.18
1025.8
1026.84
1026.32
1014.53
1018.96
1021.68
992.323
973.104
972.34
737.442
621.05
605.647
710.085
971.783
991.697
1017.86
1026.55
1027.02
1025.47
1020.29
1022.6
1018.1
935.805
741.066
899.017
1011.58
1026.43
1027.02
1027.09
1027.11
1026.98
1021.31
1025.19
1026.41
1013.79
977.729
996.028
866.181
623.577
605.902
713.829
968.258
991.435
1020.15
1026.72
1027.01
1026.9
1026.16
1025.79
1026.55
1024.79
993.881
1023.63
1027.06
1027.11
1027.11
1027.11
1027.11
1027.06
1024.77
1026.66
1027.07
1024.85
984.451
998.23
963.723
632.869
606.584
717.258
965.228
995.156
1023.03
1026.8
1026.97
1026.45
1026.44
1026.63
1026.85
1027.01
1026.99
1027.11
1027.11
1027.11
1027.11
1027.11
1027.11
1027.1
1026.42
1026.99
1027.11
1027.03
1013.76
989.975
981.258
644.838
606.862
722.142
960.58
1001.1
1025.62
1027.04
1026.87
1025.67
1024.56
1025.73
1026.97
1027.07
1027.1
1027.11
1027.11
1027.11
1027.11
1027.11
1027.11
1027.11
1027.01
1027.09
1027.11
1027.11
1025.61
986.321
980.511
656.226
606.975
729.331
959.244
1007.47
1026.7
1027.09
1026.84
1025.54
1023.86
1024.58
1026.82
1027.1
1027.11
1027.11
1027.11
1027.11
1027.11
1027.11
1027.11
1027.11
1027.11
1027.11
1027.11
1027.11
1026.5
977.982
978.307
666.782
607.179
738.094
959.628
1012.69
1026.86
1027.1
1027.07
1026.83
1026.53
1026.68
1027.02
1027.11
1027.11
1027.11
1027.11
1027.11
1027.11
1027.11
1027.11
1027.11
1027.11
1027.11
1027.11
1027.11
1026.57
957.299
974.484
675.255
607.97
746.442
957.635
1013.92
1026.83
1027.11
1027.11
1027.11
1027.1
1027.1
1027.11
1027.11
1027.11
1027.11
1027.11
1027.11
1027.11
1027.11
1027.11
1027.11
1027.11
1027.11
1027.11
1027.07
1026.63
932.626
964.462
676.736
608.85
752.293
951.43
1012.89
1026.51
1027.1
1027.1
1027.11
1027.11
1027.11
1027.11
1027.11
1027.11
1027.11
1027.11
1027.11
1027.11
1027.11
1027.11
1027.11
1027.11
1027.11
1027.1
1026.62
1026.62
929.353
952.627
676.115
609.682
755.36
940.372
1009.99
1025.73
1027.03
1027.06
1027.11
1027.11
1027.11
1027.11
1027.11
1027.11
1027.11
1027.11
1027.11
1027.11
1027.11
1027.11
1027.11
1027.11
1027.11
1027.05
1024.75
1025.87
963.869
945.934
673.83
610.587
756.891
924.795
1005.38
1024.33
1026.45
1026.56
1027.1
1027.11
1027.11
1027.11
1027.11
1027.11
1027.11
1027.11
1027.11
1027.11
1027.11
1027.11
1027.11
1027.11
1027.11
1026.89
1020.69
1022.23
1015.81
941.963
669.598
611.252
757.149
905.809
998.464
1020.78
1025.15
1025.67
1027.07
1027.11
1027.11
1027.11
1027.11
1027.11
1027.11
1027.11
1027.11
1027.11
1027.11
1027.11
1027.11
1027.11
1027.11
1026.61
1016.33
1015.19
1016.62
935.287
663.722
611.67
757.296
884.674
986.774
1013.04
1024.4
1025.5
1027.06
1027.11
1027.11
1027.11
1027.11
1027.11
1027.11
1027.11
1027.11
1027.11
1027.11
1027.11
1027.11
1027.11
1027.11
1026.4
1015.22
1010.27
1002.4
924.081
656.768
612.415
757.568
862.153
966.151
1009.42
1024.7
1026.28
1027.08
1027.11
1027.11
1027.11
1027.11
1027.11
1027.11
1027.11
1027.11
1027.11
1027.11
1027.11
1027.11
1027.11
1027.11
1026.35
1019
1010.42
992.814
909.772
648.505
613.667
758.619
840.206
931.019
1012.29
1024.83
1026.89
1027.11
1027.11
1027.11
1027.11
1027.11
1027.11
1027.11
1027.11
1027.11
1027.11
1027.11
1027.11
1027.11
1027.11
1027.11
1026.79
1025.26
1018.74
1001.79
896.439
643.511
615.315
760.339
818.936
890.633
1014.96
1024.38
1027.09
1027.11
1027.11
1027.11
1027.11
1027.11
1027.11
1027.11
1027.11
1027.11
1027.11
1027.11
1027.11
1027.11
1027.11
1027.11
1027.05
1026.84
1025.12
1012.47
876.525
642.497
616.885
761.946
801.638
879.299
1014.45
1025.18
1027.11
1027.11
1027.11
1027.11
1027.11
1027.11
1027.11
1027.11
1027.11
1027.11
1027.11
1027.11
1027.11
1027.11
1027.11
1027.11
1027.11
1027.09
1026.84
1014.41
829.072
640.724
618.24
767.539
777.667
891.233
1013.47
1026.87
1027.11
1027.11
1027.11
1027.11
1027.11
1027.11
1027.11
1027.11
1027.11
1027.11
1027.11
1027.11
1027.11
1027.11
1027.11
1027.11
1027.11
1027.11
1027.1
1009.91
786.823
638.314
622.258
647.035
825.066
876.269
882.249
874.273
850.599
803.464
729.285
664.593
559.405
544.751
595.351
644.005
681.997
716.859
741.474
766.232
791.514
821.192
850.911
871.446
883.549
883.411
866.203
826.34
760.044
648.205
557.299
777.971
965.364
1003.57
1009.19
1005.91
994.607
982.802
974.597
966.422
728.841
575.042
736.478
777.913
810.006
841.301
864.271
890.363
921.376
953.829
977.387
987.25
991.746
986.246
966.828
934.659
889.868
824.558
654.986
817.752
961.579
1008.81
1018.88
1015.57
988.023
942.184
920.676
932.878
767.179
622.522
743.627
796.193
861.162
918.985
938
942.507
941.575
949.071
960.218
964.734
969.906
962.45
956.408
933.133
893.469
830.067
721.873
812.018
911.487
1007.75
1021.98
1017.48
965.081
896.886
875.521
888.718
774.936
652.181
762.166
817.758
931.105
976.148
970.036
987.721
991.903
988.337
984.219
977.001
984.697
981.367
968.914
936.209
883.667
821.441
725.565
810.885
835.461
1003.56
1022.86
1017.31
945.584
861.452
836.464
850.844
777.585
677.495
770.904
840.217
940.49
900.787
879
927.266
954.086
976.308
996.575
994.627
990.279
997.567
988.077
964.919
882.948
812.726
731.483
812.329
749.608
1002.74
1023.73
1017.01
935.761
827.5
788.859
807.997
769.265
684.11
729.775
826.934
944.42
858.902
848.734
908.337
938.446
959.014
993.098
1005.78
997.714
1001.44
999.884
954.411
877.551
805.403
734.551
812.857
769.21
1012.07
1024.66
1020.61
939.177
805.757
748.47
754.242
751.089
683.614
677.596
783.045
904.555
793.727
828
919.188
957.206
971.078
995.714
1011.11
1003.03
999.608
1002.41
956.38
868.146
802.695
738.934
811.335
930.646
1015.61
1025.23
1024.49
978.388
858.758
753.713
720.742
726.65
692.177
661.013
718.287
738.057
714.261
829.006
957.896
990.697
1001.82
1013.21
1015.18
1007.93
994.482
1001.86
987.019
848.714
797.316
743.253
811.474
993.227
1015.93
1025.6
1026.26
1005.07
923.217
796.913
713.128
711.823
709.453
662.141
641.527
624.641
706.748
903.619
992.77
1009.91
1017.42
1019.07
1017.49
1014.74
993.312
1001.31
1000.99
797.822
786.173
746.082
813.934
1000.22
1015.69
1025.9
1026.67
1020.16
984.386
928.839
824.768
749.946
709.143
666.249
615.797
644.491
840.051
988.086
1010.29
1021.15
1024.48
1020.44
1019.35
1022.07
1004.76
1005.25
997.69
741.025
769.019
745.491
819.189
999.705
1013.32
1026.19
1026.65
1026.58
1020.89
1001.33
979.67
932.107
784.598
680.862
722.359
894.085
1010.09
1024.83
1025.92
1026.82
1026.66
1018.38
1024.18
1026.07
1017.68
1008.35
1002.16
765.667
741.633
743.503
827.761
996.449
1012.1
1026.52
1026.62
1025.44
1025.75
1021.64
1023.16
1023.42
986.487
832.876
971.823
1023.01
1026.88
1027.06
1027.09
1027.11
1027.04
1023.04
1026.28
1027.03
1024.88
1011.29
1015.49
910.748
735.098
743.503
835.14
993.752
1012.95
1026.74
1026.76
1023.39
1024.4
1025.63
1025.84
1026.87
1026.51
1014.02
1026.47
1027.1
1027.11
1027.11
1027.11
1027.11
1027.08
1025.51
1026.87
1027.11
1026.96
1017.78
1016.68
985.999
738.069
744.057
841.605
993.068
1015.34
1026.9
1026.82
1022.76
1015.72
1018.42
1025.08
1026.97
1027.09
1027.09
1027.11
1027.11
1027.11
1027.11
1027.11
1027.11
1027.1
1026.66
1027.04
1027.11
1027.11
1025.3
1013.56
987.593
742.246
744.877
850.35
992.299
1018.25
1027.01
1026.87
1023.26
1012.11
1003.96
1015.53
1026.18
1027.1
1027.11
1027.11
1027.11
1027.11
1027.11
1027.11
1027.11
1027.11
1027.05
1027.1
1027.11
1027.11
1026.79
1010.07
985.943
749.094
745.879
861.151
993.361
1020.94
1027.06
1027.01
1025.26
1017.52
1007.51
1008.52
1024.43
1027.09
1027.11
1027.11
1027.11
1027.11
1027.11
1027.11
1027.11
1027.11
1027.11
1027.11
1027.11
1027.11
1026.84
1001.19
984.141
758.836
747.095
872.945
995.051
1022.83
1027.08
1027.07
1026.51
1024.29
1022.08
1023.39
1026.46
1027.1
1027.11
1027.11
1027.11
1027.11
1027.11
1027.11
1027.11
1027.11
1027.11
1027.11
1027.11
1027.1
1026.79
986.705
981.256
769.18
749.246
883.312
995.063
1023.11
1027.07
1027.09
1027.07
1027.02
1026.91
1026.91
1027.09
1027.11
1027.11
1027.11
1027.11
1027.11
1027.11
1027.11
1027.11
1027.11
1027.11
1027.11
1027.1
1026.94
1026.67
964.952
975.913
778.592
751.849
890.819
993.595
1022.64
1027.01
1027.07
1027.07
1027.11
1027.11
1027.11
1027.11
1027.11
1027.11
1027.11
1027.11
1027.11
1027.11
1027.11
1027.11
1027.11
1027.11
1027.11
1027.06
1025.97
1026.32
950.374
968.412
786.4
754.67
895.13
989.988
1021.43
1026.76
1026.93
1026.97
1027.11
1027.11
1027.11
1027.11
1027.11
1027.11
1027.11
1027.11
1027.11
1027.11
1027.11
1027.11
1027.11
1027.11
1027.11
1026.9
1023
1024.6
969.903
963.604
790.559
757.815
897.247
983.892
1019.53
1025.9
1026.28
1026.7
1027.1
1027.11
1027.11
1027.11
1027.11
1027.11
1027.11
1027.11
1027.11
1027.11
1027.11
1027.11
1027.11
1027.11
1027.11
1026.55
1017.47
1018.98
1016.03
964.216
790.754
760.811
897.663
975.41
1016.63
1023.97
1025.59
1026.54
1027.1
1027.11
1027.11
1027.11
1027.11
1027.11
1027.11
1027.11
1027.11
1027.11
1027.11
1027.11
1027.11
1027.11
1027.11
1026.14
1012.69
1011.33
1020.72
963.83
791.039
763.134
897.563
964.902
1011.28
1018.78
1025.72
1026.84
1027.1
1027.11
1027.11
1027.11
1027.11
1027.11
1027.11
1027.11
1027.11
1027.11
1027.11
1027.11
1027.11
1027.11
1027.11
1026.02
1012.37
1008.05
1009.49
962.488
792.739
765.516
897.453
952.57
1001.6
1014.37
1025.83
1027.06
1027.11
1027.11
1027.11
1027.11
1027.11
1027.11
1027.11
1027.11
1027.11
1027.11
1027.11
1027.11
1027.11
1027.11
1027.11
1026.32
1020.32
1011.55
994.578
961.037
797.456
768.286
897.578
939.217
982.386
1015.74
1025.52
1027.11
1027.11
1027.11
1027.11
1027.11
1027.11
1027.11
1027.11
1027.11
1027.11
1027.11
1027.11
1027.11
1027.11
1027.11
1027.11
1026.95
1026.07
1021.73
1003.97
960.108
806.21
771.552
897.863
925.011
946.446
1018.41
1025.52
1027.11
1027.11
1027.11
1027.11
1027.11
1027.11
1027.11
1027.11
1027.11
1027.11
1027.11
1027.11
1027.11
1027.11
1027.11
1027.11
1027.09
1027.01
1026.19
1015.66
956.108
819.119
774.67
898.145
912.167
908.393
1018.35
1026.62
1027.11
1027.11
1027.11
1027.11
1027.11
1027.11
1027.11
1027.11
1027.11
1027.11
1027.11
1027.11
1027.11
1027.11
1027.11
1027.11
1027.11
1027.11
1027.02
1017.58
934.443
835.322
777.126
899.881
890.751
906.549
1017.02
1027.09
1027.11
1027.11
1027.11
1027.11
1027.11
1027.11
1027.11
1027.11
1027.11
1027.11
1027.11
1027.11
1027.11
1027.11
1027.11
1027.11
1027.11
1027.11
1027.11
1012.68
874.276
838.504
782.93
685.605
867.26
908.333
913.4
907.763
884.802
839.743
763.868
689.57
566.244
544.467
627.723
688.162
726.142
761.201
784.799
808.66
833.101
859.989
885.476
902.424
911.502
911.477
896.898
861.046
801.713
703.084
572.62
816.052
993.887
1013.93
1018.7
1015.54
998.377
976.98
963.798
960.186
746.253
628.672
809.11
863.102
901.56
931.016
951.494
970.739
986.285
998.561
1005.86
1009.11
1013.51
1006.37
993.398
976.784
948.683
895.163
713.031
854.709
973.234
1017.36
1023.65
1018.44
976.687
922.024
896.684
909.594
801.233
709.271
833.897
886.019
932.524
962.332
967.227
965.485
966.207
970.354
978.419
990.505
1001.89
991.635
974.733
957.974
942.221
908.908
785.191
852.045
918.458
1017.23
1024.48
1016.26
943.644
875.956
859.561
870.883
818.202
752.159
861.211
910.035
958.198
968.855
953.755
971.608
979.126
982.244
988.058
1000.99
1015.24
1014.47
995.113
947.348
924.016
900.755
796.028
849.371
861.632
1015.67
1024.94
1014.36
919.357
837.802
828.166
846.534
828.687
789.934
892.178
918.999
946.683
891.331
872.056
905.972
934.558
956.101
988.099
1007.04
1017.35
1020.6
1013.4
968.941
921.048
891.609
804.887
849.208
800.783
1016.27
1025.33
1013.24
907.864
799.433
788.511
820.411
826.499
798.478
872.117
910.755
946.941
872.669
848.985
892.91
928.359
946.515
978.823
1010.98
1019.18
1021.48
1019.94
959.698
917.591
885.502
807.207
848.01
858.055
1019.56
1025.54
1017.45
912.309
776.096
752.555
783.734
816.391
796.462
825.541
889.709
929.208
817.414
826.491
909.166
960.485
976.141
990.766
1014.52
1020.8
1020.61
1021.87
974.229
912.935
886.579
809.605
847.972
985.293
1019.93
1025.58
1022.38
963.465
816.996
740.648
738.707
793.857
798.113
808.245
847.743
814.974
734.949
808.46
936.147
984.849
1001.82
1009.38
1020.06
1022.6
1018.92
1022.32
1007.7
900.272
884.984
811.848
851.314
1007.04
1019.95
1025.66
1023.7
1000.49
893.933
771.562
732.066
766.863
793.025
789.022
752.873
666.731
727.829
881.118
957.322
993.378
1013.22
1016.3
1022.84
1024.74
1018.66
1022.1
1015.06
854.759
878.029
811.935
859.068
1009.01
1020.05
1025.71
1021.42
1018.15
980.238
920.249
850.524
814.824
785.925
760.363
673.684
708.427
900.69
975.302
973.671
1010.07
1019.7
1020.18
1024.77
1026.37
1022.92
1022.91
1009.96
781.276
863.78
811.13
869.895
1007.59
1019.64
1026.24
1019.84
1021.84
1022.14
1002.88
989.972
1001.82
956.882
844.777
938.128
1001.08
1024.11
1024.94
1024.67
1026.57
1026.76
1021.1
1026.14
1027
1025.99
1024.11
1011.48
801.583
839.501
809.637
883.725
1004.59
1019.22
1026.74
1019.82
1007.86
1024.82
1022.39
1023.87
1025.96
1024.31
992.853
1023.83
1026.75
1027.06
1027.08
1027.09
1027.11
1027.06
1024.11
1026.7
1027.1
1026.97
1025.08
1022.91
938.92
834.853
809.759
895.642
1002.09
1019.94
1026.93
1022.66
1001.05
1009.02
1023.34
1025.76
1026.97
1027.08
1026.76
1027.1
1027.11
1027.11
1027.11
1027.11
1027.11
1027.09
1025.96
1026.97
1027.11
1027.11
1026.18
1024
981.637
837.271
810.962
905.234
1001.19
1021.52
1027
1024.58
1003.09
977.908
993.2
1019.82
1026.93
1027.1
1027.11
1027.11
1027.11
1027.11
1027.11
1027.11
1027.11
1027.1
1026.78
1027.07
1027.11
1027.11
1026.91
1023.31
982.831
840.489
813.21
915.932
1001.31
1023.23
1027.03
1025.66
1010.91
971.143
943.368
991.901
1024.89
1027.1
1027.11
1027.11
1027.11
1027.11
1027.11
1027.11
1027.11
1027.11
1027.07
1027.11
1027.11
1027.11
1027
1020.18
987.438
846.67
816.32
926.414
1002.79
1024.61
1027.05
1026.38
1019.13
995.332
972.22
976.252
1020.41
1027.08
1027.11
1027.11
1027.11
1027.11
1027.11
1027.11
1027.11
1027.11
1027.11
1027.11
1027.11
1027.1
1026.99
1012.61
994.233
857.267
820.042
935.687
1005.26
1025.41
1027.06
1026.78
1024.17
1016.46
1009.64
1013.07
1025.6
1027.1
1027.11
1027.11
1027.11
1027.11
1027.11
1027.11
1027.11
1027.11
1027.11
1027.11
1027.1
1027.02
1026.84
1000.41
993.457
871.254
824.794
942.588
1005.77
1025.49
1027.06
1027.02
1026.96
1026.72
1026.31
1026.19
1027.03
1027.11
1027.11
1027.11
1027.11
1027.11
1027.11
1027.11
1027.11
1027.11
1027.11
1027.11
1027.06
1026.51
1026.49
983.747
990.185
886.412
830.181
946.941
1005.1
1025.19
1027
1026.99
1027.05
1027.11
1027.11
1027.11
1027.11
1027.11
1027.11
1027.11
1027.11
1027.11
1027.11
1027.11
1027.11
1027.11
1027.11
1027.11
1026.93
1024.66
1025.58
967.857
983.461
899.651
835.856
949.068
1003.3
1024.49
1026.77
1026.77
1026.98
1027.11
1027.11
1027.11
1027.11
1027.11
1027.11
1027.11
1027.11
1027.11
1027.11
1027.11
1027.11
1027.11
1027.11
1027.11
1026.61
1020.23
1022.67
980.114
976.431
907.852
841.417
948.875
1000.36
1023.38
1026.12
1026.24
1026.9
1027.11
1027.11
1027.11
1027.11
1027.11
1027.11
1027.11
1027.11
1027.11
1027.11
1027.11
1027.11
1027.11
1027.11
1027.11
1026.15
1013.33
1015.81
1018.5
976.64
913.067
846.67
947.988
996.278
1021.72
1025
1026.01
1026.9
1027.11
1027.11
1027.11
1027.11
1027.11
1027.11
1027.11
1027.11
1027.11
1027.11
1027.11
1027.11
1027.11
1027.11
1027.11
1025.83
1008.61
1008.22
1023.92
977.573
918.685
850.825
946.626
990.877
1018.62
1021.64
1026.17
1027.06
1027.11
1027.11
1027.11
1027.11
1027.11
1027.11
1027.11
1027.11
1027.11
1027.11
1027.11
1027.11
1027.11
1027.11
1027.11
1025.89
1009.79
1005.45
1015.68
979.798
926.053
854.455
945.087
983.931
1013.18
1017.55
1025.72
1027.1
1027.11
1027.11
1027.11
1027.11
1027.11
1027.11
1027.11
1027.11
1027.11
1027.11
1027.11
1027.11
1027.11
1027.11
1027.11
1026.66
1020.99
1011.06
998.167
982.473
935.64
858.022
943.639
975.78
1002.86
1018.32
1025.41
1027.11
1027.11
1027.11
1027.11
1027.11
1027.11
1027.11
1027.11
1027.11
1027.11
1027.11
1027.11
1027.11
1027.11
1027.11
1027.11
1027.04
1026.29
1022.1
1006.74
982.789
947.071
862.005
942.207
966.605
980.67
1020.69
1026.18
1027.11
1027.11
1027.11
1027.11
1027.11
1027.11
1027.11
1027.11
1027.11
1027.11
1027.11
1027.11
1027.11
1027.11
1027.11
1027.11
1027.1
1027.05
1026.3
1017.68
981.894
960.151
866.03
940.97
957.896
942.32
1020.9
1026.97
1027.11
1027.11
1027.11
1027.11
1027.11
1027.11
1027.11
1027.11
1027.11
1027.11
1027.11
1027.11
1027.11
1027.11
1027.11
1027.11
1027.11
1027.11
1027.04
1019.45
974.148
968.155
869.432
938.997
941.992
925.906
1019.85
1027.11
1027.11
1027.11
1027.11
1027.11
1027.11
1027.11
1027.11
1027.11
1027.11
1027.11
1027.11
1027.11
1027.11
1027.11
1027.11
1027.11
1027.11
1027.11
1027.11
1014.81
933.159
967.052
875.444
707.795
889.798
926.234
931.245
925.63
902.531
859.749
789.542
711.535
574.836
558.03
662.771
725.675
762.398
794.722
816.115
837.688
859.889
883.378
905.205
920.622
928.529
928.627
915.407
883.725
831.139
743.274
593.478
832.073
1003.33
1019.04
1022.72
1017.84
996.16
970.037
953.409
951.382
757.511
688.021
884.555
936.213
970.304
989.455
998.349
1004.42
1008.05
1010.79
1015.12
1020.03
1023.45
1019.09
1005.37
995.819
978.59
939.957
754.393
865.346
967.846
1020.65
1024.16
1016.02
959.607
910.13
891.527
894.493
816.86
778.428
927.361
959.873
977.247
985.708
983.21
978.647
977.866
979.825
994.04
1012.01
1020.64
1014.47
993.506
972.477
968.841
953.061
825.594
864.192
932.851
1020.6
1024.27
1010.4
922.194
871.872
861.912
862.113
838.383
825.398
952.449
964.427
972.851
956.957
941.302
956.16
965.984
973.936
989.846
1013.78
1025.25
1025.21
1010.78
955.268
947.621
945.064
839.035
862.436
896.02
1020.16
1024.03
1006.23
896.493
837.958
837.504
846.056
848.404
858.394
961.173
961.123
936.994
889.936
874.456
895.829
923.678
942.846
974.829
1008.91
1025.49
1026.41
1021.01
969.789
943.013
934.681
847.983
860.59
863.669
1020.34
1023.34
1004.16
884.176
800.578
807.498
831.861
847.82
855.891
950.073
954.16
938.99
882.152
854.618
887.54
924.936
941.667
966.182
1006.89
1025.52
1026.55
1024.31
959.805
941.515
933.024
847.701
859.16
937.536
1019.91
1021.58
1008.06
884.747
770.531
768.253
811.068
843.741
848.647
919.407
944.597
937.822
835.542
830.526
896.541
956.982
975.873
983.121
1009.02
1025.72
1026.48
1025.87
985.276
940.256
936.754
847.488
862.684
1006.11
1019.62
1020.15
1013.33
942.28
791.983
746.714
766.772
831.2
840.331
889.927
918.276
872.997
766.527
807.376
907.313
966.831
991.27
997.688
1018.27
1026.48
1026.25
1026.69
1015.43
932.224
938.279
847.089
873.471
1011.98
1019.58
1019.86
1013.79
991.197
865.204
767.622
752.583
798.996
819.932
853.952
828.892
720.548
766.917
859.814
915.301
957.844
991.301
1005.14
1023.47
1026.87
1026.23
1026.82
1020.44
892.109
934.745
846.544
889.017
1013.01
1020.36
1019.91
1004.98
1011.89
963.046
890.6
852.649
843.825
821.946
810.755
726.053
786.378
909.254
937.584
925.202
968.452
991.951
1016.24
1026.31
1027.06
1026.8
1026.89
1017.27
815.412
923.725
845.986
905.299
1011.85
1021.45
1023.59
1000.79
1005.2
1021.01
1000.58
989.898
987.355
1027.06
958.858
1027.04
1006.68
1027.1
1013.11
1014.42
1027.11
1024.09
1023.61
1026.74
1027.1
1027.06
1026.97
1018.8
838.715
903.958
846.247
920.965
1009.03
1022.1
1025.75
1003.02
968.097
1019.97
1023.54
1023.77
1027.11
1027.11
1027.11
1027.11
1027.11
1027.11
1027.11
1027.11
1027.11
1027.11
1024.5
1026.85
1027.11
1027.1
1027.02
1025.16
949.324
903.466
847.712
932.527
1006.7
1022.93
1026.5
1011.15
958.144
973.251
1018.24
1025.22
1027.07
1027.11
1027.11
1027.11
1027.11
1027.11
1027.11
1027.11
1027.11
1027.09
1026.07
1027.01
1027.11
1027.11
1027.05
1025.84
970.201
905.871
851.041
940.775
1005.98
1024.14
1026.8
1018.58
971.103
922.376
958.544
1008.5
1027.11
1027.11
1027.11
1027.11
1027.11
1027.11
1027.11
1027.11
1027.11
1027.11
1026.83
1027.08
1027.11
1027.1
1027.06
1025.89
980.695
909.66
855.502
949.078
1006.91
1025.21
1026.9
1022.05
988.29
920.166
880.375
956.723
1027.1
1027.11
1027.11
1027.11
1027.11
1027.11
1027.11
1027.11
1027.11
1027.11
1027.08
1027.11
1027.11
1027.08
1027.03
1024.46
996.575
916.533
860.453
955.952
1009.02
1025.94
1026.94
1024.25
1005.43
960.975
927.378
937.029
1027.11
1027.11
1027.11
1027.11
1027.11
1027.11
1027.11
1027.11
1027.11
1027.11
1027.11
1027.11
1027.1
1026.97
1026.89
1019.56
1008.51
928.23
865.5
961.443
1011.65
1026.27
1026.96
1025.97
1019.68
1003.76
989.994
994.874
1027.11
1027.11
1027.11
1027.11
1027.11
1027.11
1027.11
1027.11
1027.11
1027.11
1027.11
1027.11
1027.06
1026.6
1026.59
1008.18
1009.62
944.027
871.227
965.37
1012
1026.28
1026.95
1026.89
1026.84
1026.11
1025.03
1024.78
1027.11
1027.11
1027.11
1027.11
1027.11
1027.11
1027.11
1027.11
1027.11
1027.11
1027.11
1027.11
1026.94
1025.47
1025.84
995.435
1007.06
958.958
877.605
966.645
1011.37
1026.07
1026.91
1026.9
1027.06
1027.11
1027.11
1027.11
1027.11
1027.11
1027.11
1027.11
1027.11
1027.11
1027.11
1027.11
1027.11
1027.11
1027.11
1027.11
1026.66
1022.54
1024.12
981.7
1000.71
968.44
884.166
966.341
1009.81
1025.57
1026.66
1026.66
1027.02
1027.11
1027.11
1027.11
1027.11
1027.11
1027.11
1027.11
1027.11
1027.11
1027.11