/*--------------------------------*- C++ -*----------------------------------*\
| =========                 |                                                 |
| \\      /  F ield         | OpenFOAM: The Open Source CFD Toolbox           |
|  \\    /   O peration     | Version:  2.3.0                                 |
|   \\  /    A nd           | Web:      www.OpenFOAM.org                      |
|    \\/     M anipulation  |                                                 |
\*---------------------------------------------------------------------------*/
FoamFile
{
    version     2.0;
    format      ascii;
    class       volScalarField;
    location    "3.69736";
    object      alpha.water;
}
// * * * * * * * * * * * * * * * * * * * * * * * * * * * * * * * * * * * * * //

dimensions      [0 0 0 0 0 0 0];

internalField   nonuniform List<scalar> 
1000
(
0.6329
0.784404
0.819073
0.831771
0.832211
0.826217
0.836727
0.860388
0.865692
0.813959
0.661674
0.622751
0.746095
0.803609
0.847153
0.884344
0.901659
0.896977
0.880972
0.746559
0.763601
0.982432
0.995726
0.99734
0.997558
0.997562
0.998171
0.998664
0.998203
0.950281
0.757873
0.744251
0.955709
0.992455
0.997039
0.997992
0.998662
0.995719
0.994522
0.842917
0.823509
0.993538
0.998517
0.999722
0.999989
0.999998
0.999999
0.999986
0.998933
0.978149
0.795566
0.827612
0.995001
0.999128
0.998507
0.997999
0.999174
0.997977
0.995144
0.878589
0.857487
0.989348
0.994027
0.998715
0.999972
1
1
0.999974
0.998233
0.964701
0.807692
0.853287
0.985417
0.998615
0.995968
0.994567
0.999224
0.999561
0.994365
0.893298
0.874872
0.979367
0.979891
0.994932
0.999917
1
1
0.999991
0.999554
0.989218
0.832905
0.854472
0.953981
0.996667
0.992031
0.989859
0.998768
0.999938
0.994075
0.899149
0.872248
0.966169
0.955588
0.984832
0.999786
1
1
1
0.999995
0.99989
0.84468
0.848769
0.919156
0.984569
0.987719
0.984421
0.997718
0.999984
0.995491
0.901604
0.866596
0.947516
0.922057
0.968367
0.9996
1
1
1
1
1
0.896374
0.850133
0.884712
0.957463
0.979968
0.979849
0.996838
0.999987
0.996361
0.903461
0.859938
0.925135
0.894642
0.95501
0.999469
1
1
1
1
1
0.996058
0.873
0.87633
0.928104
0.967139
0.976392
0.997055
0.999984
0.99608
0.907039
0.853755
0.908241
0.8822
0.959008
0.999388
1
1
1
1
1
0.999983
0.907148
0.875151
0.907371
0.950993
0.973966
0.998598
0.999997
0.994208
0.913948
0.842277
0.885975
0.887814
0.989862
0.999973
1
1
1
1
1
1
0.931173
0.876396
0.894132
0.934505
0.981124
0.999843
1
0.99374
0.913372
0.722336
0.848936
0.872351
0.882157
0.881376
0.877024
0.888557
0.908583
0.933246
0.927775
0.816901
0.710873
0.81528
0.850668
0.890421
0.919502
0.929765
0.92482
0.909427
0.783885
0.876663
0.995093
0.998402
0.998916
0.999039
0.999052
0.999362
0.999584
0.999267
0.997141
0.868074
0.885948
0.988894
0.996173
0.997355
0.997932
0.999308
0.999523
0.99851
0.87863
0.914962
0.996123
0.998939
0.999837
0.999995
1
1
0.999985
0.999279
0.990739
0.888794
0.93169
0.996616
0.996663
0.995719
0.995035
0.999445
0.999962
0.998942
0.908693
0.932085
0.992402
0.994666
0.999067
0.999977
1
1
0.999978
0.999079
0.98813
0.918834
0.934276
0.988918
0.995389
0.991261
0.990437
0.998758
0.99999
0.998681
0.922084
0.936555
0.984868
0.984155
0.996182
0.999922
1
1
0.999996
0.999821
0.996789
0.981658
0.950822
0.967293
0.991047
0.9853
0.985083
0.997766
0.99999
0.99884
0.928571
0.935144
0.975303
0.966701
0.989055
0.9998
1
1
1
0.999999
0.999983
0.974523
0.967118
0.969936
0.9823
0.982652
0.980544
0.996527
0.999987
0.99896
0.931245
0.932392
0.965253
0.945495
0.978344
0.999643
1
1
1
1
1
0.940295
0.937898
0.957691
0.977682
0.980395
0.978826
0.995597
0.999978
0.99865
0.932755
0.931145
0.955621
0.933784
0.97033
0.999555
1
1
1
1
1
0.99824
0.937532
0.942268
0.9679
0.977339
0.978245
0.996538
0.999979
0.997551
0.935044
0.930209
0.949476
0.929333
0.973925
0.999583
1
1
1
1
1
0.999997
0.946258
0.929525
0.953182
0.971767
0.979045
0.998465
0.999997
0.996915
0.939361
0.926329
0.941835
0.935502
0.994318
0.999987
1
1
1
1
1
1
0.956544
0.923095
0.938983
0.963385
0.984985
0.999833
1
0.996932
0.939148
0.75492
0.867093
0.887026
0.893791
0.891301
0.887981
0.899019
0.917345
0.941444
0.940247
0.83709
0.731145
0.835063
0.8664
0.903365
0.927763
0.937174
0.931598
0.916327
0.794704
0.911629
0.997588
0.999085
0.999326
0.999344
0.999335
0.999552
0.99975
0.999853
0.999104
0.901337
0.905754
0.993134
0.995934
0.996984
0.997936
0.999355
0.999773
0.99934
0.891913
0.950923
0.998708
0.999736
0.999966
0.999999
1
1
0.999999
0.999945
0.998869
0.915735
0.939624
0.995291
0.994506
0.993786
0.99549
0.999375
0.99999
0.999685
0.921282
0.962072
0.997355
0.998146
0.999751
0.999996
1
1
0.999999
0.999941
0.999056
0.947022
0.947634
0.987128
0.992282
0.988928
0.991113
0.998612
0.999991
0.999591
0.93387
0.967352
0.994453
0.99411
0.998891
0.999986
1
1
0.999999
0.999983
0.999787
0.997559
0.969391
0.97592
0.98854
0.983461
0.986314
0.997613
0.999989
0.999612
0.940425
0.970451
0.990263
0.986573
0.996649
0.999959
1
1
1
1
0.999999
0.99329
0.990251
0.981166
0.983575
0.982484
0.982586
0.996371
0.999978
0.999603
0.943013
0.971466
0.985649
0.976676
0.993121
0.99992
1
1
1
1
1
0.987094
0.98917
0.988331
0.985984
0.982686
0.981704
0.995464
0.999967
0.999333
0.944675
0.971509
0.981292
0.971646
0.990359
0.999893
1
1
1
1
1
0.999453
0.990053
0.987941
0.987354
0.983752
0.982754
0.996165
0.999964
0.998924
0.947175
0.97131
0.977849
0.970435
0.991246
0.999874
1
1
1
1
1
0.999983
0.992421
0.98484
0.986124
0.984532
0.984001
0.997937
0.999993
0.998796
0.951121
0.96815
0.971098
0.974364
0.998621
0.999997
1
1
1
1
1
1
0.989269
0.980468
0.983337
0.983905
0.987305
0.999675
1
0.998962
0.951733
0.723035
0.85061
0.873687
0.883164
0.882234
0.877761
0.888925
0.908519
0.933358
0.928134
0.80888
0.710904
0.814612
0.84994
0.889859
0.919185
0.929688
0.924735
0.909356
0.783936
0.876441
0.995461
0.998477
0.998976
0.99909
0.999094
0.999389
0.999603
0.999401
0.997092
0.906238
0.893092
0.987872
0.995952
0.997176
0.997686
0.999224
0.999495
0.998458
0.878513
0.916477
0.996292
0.998936
0.999841
0.999995
1
1
0.999991
0.999477
0.991445
0.895337
0.931135
0.996611
0.996604
0.995312
0.99451
0.999346
0.999959
0.998928
0.908497
0.934943
0.992577
0.994502
0.999078
0.999977
1
1
0.999988
0.999392
0.989658
0.910814
0.93121
0.989163
0.995405
0.991004
0.989854
0.99855
0.999988
0.998669
0.921864
0.93898
0.985123
0.984019
0.996192
0.999922
1
1
0.999998
0.99993
0.998055
0.972686
0.943536
0.966177
0.991845
0.985989
0.984709
0.997429
0.999988
0.998832
0.928297
0.937472
0.975767
0.967063
0.989049
0.999798
1
1
1
1
0.999992
0.99392
0.965968
0.968393
0.983026
0.983387
0.980357
0.996038
0.99998
0.998956
0.930999
0.934611
0.966036
0.947042
0.978356
0.999638
1
1
1
1
1
0.984892
0.972105
0.971015
0.976593
0.979977
0.978447
0.994999
0.99997
0.998653
0.932531
0.933296
0.956924
0.935306
0.970366
0.999549
1
1
1
1
1
0.987541
0.954358
0.962681
0.972106
0.977202
0.977636
0.995715
0.999966
0.997552
0.934826
0.932541
0.951241
0.930341
0.973881
0.999577
1
1
1
1
1
0.999753
0.958757
0.951788
0.96446
0.974147
0.977789
0.997829
0.999994
0.996901
0.93918
0.929254
0.943745
0.936194
0.994259
0.999987
1
1
1
1
1
1
0.951992
0.935442
0.951927
0.968465
0.982527
0.999713
1
0.996898
0.938969
0.637733
0.791441
0.824209
0.836434
0.836744
0.83071
0.841063
0.865298
0.870436
0.819429
0.65972
0.622323
0.742007
0.801481
0.845524
0.88309
0.900494
0.895954
0.879777
0.745476
0.770374
0.985148
0.996333
0.997564
0.997774
0.997771
0.998338
0.998806
0.998439
0.953056
0.753888
0.736152
0.951761
0.991944
0.997038
0.99804
0.998689
0.995728
0.994485
0.841509
0.828594
0.993494
0.998474
0.99972
0.999989
0.999998
0.999999
0.99999
0.999181
0.980745
0.799668
0.824964
0.994361
0.999158
0.998609
0.998131
0.999255
0.998018
0.995159
0.877201
0.862305
0.989178
0.993827
0.998704
0.999972
1
1
0.999984
0.998671
0.967888
0.808825
0.84792
0.983764
0.998641
0.996091
0.994755
0.999323
0.999577
0.994376
0.891972
0.878324
0.979117
0.979557
0.994898
0.999916
1
1
0.999995
0.99975
0.992783
0.829971
0.846841
0.950333
0.996531
0.991613
0.989887
0.999026
0.999943
0.994089
0.897868
0.875463
0.965734
0.95512
0.984758
0.999782
1
1
1
0.999997
0.999942
0.850347
0.850784
0.914687
0.982683
0.985861
0.984047
0.998184
0.999987
0.995509
0.900406
0.869713
0.947059
0.921521
0.968113
0.99959
1
1
1
1
1
0.876774
0.85084
0.888776
0.957984
0.976173
0.979278
0.99749
0.999991
0.996373
0.902332
0.863157
0.924987
0.894428
0.954521
0.999455
1
1
1
1
1
0.964348
0.866595
0.873263
0.932097
0.965012
0.976661
0.997553
0.999989
0.996083
0.906001
0.856994
0.90861
0.882224
0.958559
0.999373
1
1
1
1
1
0.999542
0.889365
0.872392
0.913447
0.953324
0.977159
0.998974
0.999998
0.994174
0.913049
0.845396
0.88703
0.887722
0.989651
0.999973
1
1
1
1
1
0.999999
0.91408
0.873691
0.904047
0.944685
0.98583
0.999901
1
0.993668
0.912507
)
;

boundaryField
{
    aeration
    {
        type            calculated;
        value           uniform 0.5;
    }
    xsides
    {
        type            calculated;
        value           nonuniform List<scalar> 
100
(
0.6329
0.763601
0.823509
0.857487
0.874872
0.872248
0.866596
0.859938
0.853755
0.842277
0.722336
0.876663
0.914962
0.932085
0.936555
0.935144
0.932392
0.931145
0.930209
0.926329
0.75492
0.911629
0.950923
0.962072
0.967352
0.970451
0.971466
0.971509
0.97131
0.96815
0.723035
0.876441
0.916477
0.934943
0.93898
0.937472
0.934611
0.933296
0.932541
0.929254
0.637733
0.770374
0.828594
0.862305
0.878324
0.875463
0.869713
0.863157
0.856994
0.845396
0.746559
0.842917
0.878589
0.893298
0.899149
0.901604
0.903461
0.907039
0.913948
0.913372
0.783885
0.87863
0.908693
0.922084
0.928571
0.931245
0.932755
0.935044
0.939361
0.939148
0.794704
0.891913
0.921282
0.93387
0.940425
0.943013
0.944675
0.947175
0.951121
0.951733
0.783936
0.878513
0.908497
0.921864
0.928297
0.930999
0.932531
0.934826
0.93918
0.938969
0.745476
0.841509
0.877201
0.891972
0.897868
0.900406
0.902332
0.906001
0.913049
0.912507
)
;
    }
    zsides
    {
        type            calculated;
        value           nonuniform List<scalar> 
400
(
0.6329
0.763601
0.823509
0.857487
0.874872
0.872248
0.866596
0.859938
0.853755
0.842277
0.784404
0.982432
0.993538
0.989348
0.979367
0.966169
0.947516
0.925135
0.908241
0.885975
0.819073
0.995726
0.998517
0.994027
0.979891
0.955588
0.922057
0.894642
0.8822
0.887814
0.831771
0.99734
0.999722
0.998715
0.994932
0.984832
0.968367
0.95501
0.959008
0.989862
0.832211
0.997558
0.999989
0.999972
0.999917
0.999786
0.9996
0.999469
0.999388
0.999973
0.826217
0.997562
0.999998
1
1
1
1
1
1
1
0.836727
0.998171
0.999999
1
1
1
1
1
1
1
0.860388
0.998664
0.999986
0.999974
0.999991
1
1
1
1
1
0.865692
0.998203
0.998933
0.998233
0.999554
0.999995
1
1
1
1
0.813959
0.950281
0.978149
0.964701
0.989218
0.99989
1
1
1
1
0.661674
0.757873
0.795566
0.807692
0.832905
0.84468
0.896374
0.996058
0.999983
1
0.622751
0.744251
0.827612
0.853287
0.854472
0.848769
0.850133
0.873
0.907148
0.931173
0.746095
0.955709
0.995001
0.985417
0.953981
0.919156
0.884712
0.87633
0.875151
0.876396
0.803609
0.992455
0.999128
0.998615
0.996667
0.984569
0.957463
0.928104
0.907371
0.894132
0.847153
0.997039
0.998507
0.995968
0.992031
0.987719
0.979968
0.967139
0.950993
0.934505
0.884344
0.997992
0.997999
0.994567
0.989859
0.984421
0.979849
0.976392
0.973966
0.981124
0.901659
0.998662
0.999174
0.999224
0.998768
0.997718
0.996838
0.997055
0.998598
0.999843
0.896977
0.995719
0.997977
0.999561
0.999938
0.999984
0.999987
0.999984
0.999997
1
0.880972
0.994522
0.995144
0.994365
0.994075
0.995491
0.996361
0.99608
0.994208
0.99374
0.746559
0.842917
0.878589
0.893298
0.899149
0.901604
0.903461
0.907039
0.913948
0.913372
0.637733
0.770374
0.828594
0.862305
0.878324
0.875463
0.869713
0.863157
0.856994
0.845396
0.791441
0.985148
0.993494
0.989178
0.979117
0.965734
0.947059
0.924987
0.90861
0.88703
0.824209
0.996333
0.998474
0.993827
0.979557
0.95512
0.921521
0.894428
0.882224
0.887722
0.836434
0.997564
0.99972
0.998704
0.994898
0.984758
0.968113
0.954521
0.958559
0.989651
0.836744
0.997774
0.999989
0.999972
0.999916
0.999782
0.99959
0.999455
0.999373
0.999973
0.83071
0.997771
0.999998
1
1
1
1
1
1
1
0.841063
0.998338
0.999999
1
1
1
1
1
1
1
0.865298
0.998806
0.99999
0.999984
0.999995
1
1
1
1
1
0.870436
0.998439
0.999181
0.998671
0.99975
0.999997
1
1
1
1
0.819429
0.953056
0.980745
0.967888
0.992783
0.999942
1
1
1
1
0.65972
0.753888
0.799668
0.808825
0.829971
0.850347
0.876774
0.964348
0.999542
0.999999
0.622323
0.736152
0.824964
0.84792
0.846841
0.850784
0.85084
0.866595
0.889365
0.91408
0.742007
0.951761
0.994361
0.983764
0.950333
0.914687
0.888776
0.873263
0.872392
0.873691
0.801481
0.991944
0.999158
0.998641
0.996531
0.982683
0.957984
0.932097
0.913447
0.904047
0.845524
0.997038
0.998609
0.996091
0.991613
0.985861
0.976173
0.965012
0.953324
0.944685
0.88309
0.99804
0.998131
0.994755
0.989887
0.984047
0.979278
0.976661
0.977159
0.98583
0.900494
0.998689
0.999255
0.999323
0.999026
0.998184
0.99749
0.997553
0.998974
0.999901
0.895954
0.995728
0.998018
0.999577
0.999943
0.999987
0.999991
0.999989
0.999998
1
0.879777
0.994485
0.995159
0.994376
0.994089
0.995509
0.996373
0.996083
0.994174
0.993668
0.745476
0.841509
0.877201
0.891972
0.897868
0.900406
0.902332
0.906001
0.913049
0.912507
)
;
    }
    outlet
    {
        type            calculated;
        value           nonuniform List<scalar> 
100
(
0.842277
0.926329
0.96815
0.929254
0.845396
0.885975
0.941835
0.971098
0.943745
0.88703
0.887814
0.935502
0.974364
0.936194
0.887722
1
1
1
1
1
1
1
1
1
1
1
1
1
1
1
1
1
1
1
1
1
1
1
1
1
1
1
1
1
1
1
1
1
1
1
1
1
1
1
1
0.931173
0.956544
0.989269
0.951992
0.91408
0.876396
0.923095
0.980468
0.935442
0.873691
0.894132
0.938983
0.983337
0.951927
0.904047
0.934505
0.963385
0.983905
0.968465
0.944685
0.981124
0.984985
0.987305
0.982527
0.98583
1
1
1
1
1
1
1
1
1
1
1
1
1
1
1
0.913372
0.939148
0.951733
0.938969
0.912507
)
;
    }
}


// ************************************************************************* //
