/*--------------------------------*- C++ -*----------------------------------*\
| =========                 |                                                 |
| \\      /  F ield         | OpenFOAM: The Open Source CFD Toolbox           |
|  \\    /   O peration     | Version:  2.3.0                                 |
|   \\  /    A nd           | Web:      www.OpenFOAM.org                      |
|    \\/     M anipulation  |                                                 |
\*---------------------------------------------------------------------------*/
FoamFile
{
    version     2.0;
    format      ascii;
    class       volScalarField;
    location    "3.69736";
    object      Ct2;
}
// * * * * * * * * * * * * * * * * * * * * * * * * * * * * * * * * * * * * * //

dimensions      [0 0 0 0 0 0 0];

internalField   nonuniform List<scalar> 
1000
(
1
1
1
1
1
1
1
1
1
1
1
1
1
1
1
1
1
1
1
1
1
1.39939
3.5397
4.70568
4.91319
4.87294
5.50603
6.16745
6.07188
1.33834
1
1
1.24312
2.28474
4.32018
5.25614
6.20319
3.3541
2.52845
1
1
2.53662
6.10341
8.28165
8.93003
8.95432
8.95551
8.92283
6.79001
1.53057
1
1
3.02255
6.86785
5.88295
5.33749
7.16058
5.30969
2.64388
1
1
1.81864
2.81206
6.37503
8.88789
8.95924
8.95918
8.89497
5.87538
1.41238
1
1
1.60614
5.926
3.22303
2.9288
7.28068
7.92418
2.47281
1
1
1.34757
1.35444
3.11829
8.74763
8.95939
8.95936
8.93756
7.96692
2.15836
1
1
1.361
4.11107
1.80187
1.84011
6.53339
8.80448
2.44532
1
1
1.23903
1.17438
1.47244
8.43055
8.95945
8.95947
8.95925
8.94683
8.69688
1
1
1.00573
1.58882
1.56333
1.41246
5.19448
8.91934
3.05566
1
1
1.16062
1.00567
1.16096
8.00505
8.95947
8.95949
8.95949
8.95949
8.9594
1
1
1
1.2609
1.37582
1.26247
4.3712
8.92769
3.59643
1.00001
1
1.01351
1
1.08447
7.71743
8.95948
8.9595
8.9595
8.9595
8.9595
3.86611
1
1
1.02666
1.2461
1.21846
4.54483
8.91969
3.43173
1.00005
1
1.0001
1
1.13348
7.54342
8.9595
8.95951
8.95951
8.95951
8.95951
8.9187
1.00007
1
1.00008
1.17672
1.21612
6.26336
8.95269
2.62543
1.00063
1
1
1
1.85481
8.88963
8.95952
8.95952
8.95952
8.95952
8.95952
8.95949
1.03316
1
1
1.05714
1.36334
8.57554
8.95932
2.5287
1.00057
1
1
1
1
1
1
1
1.00007
1.03842
1.02039
1
1
1
1
1
1.0023
1.01705
1.00704
1.0001
1
1
2.90875
5.74832
6.53918
6.74418
6.74394
7.35956
7.87902
7.32496
4.76583
1
1
1.73095
3.54762
4.40472
5.04343
7.28234
7.72493
5.56563
1
1.00117
3.36587
6.57965
8.51479
8.94405
8.95893
8.95899
8.91981
7.33052
2.17764
1
1.03513
3.73254
3.65561
3.14322
2.94496
7.60964
8.85183
6.28275
1.00009
1.04681
2.0724
2.82333
6.79673
8.89507
8.95941
8.95922
8.90144
7.00132
1.87107
1.00344
1.05273
1.67148
2.83119
1.78118
1.82946
6.35365
8.932
5.9636
1.00516
1.08847
1.39459
1.39653
3.53585
8.7412
8.95943
8.9594
8.9478
8.51703
4.4449
1.5299
1.21134
1.21479
1.82851
1.2913
1.40152
5.03886
8.93285
6.30479
1.01842
1.0781
1.23966
1.16445
1.64104
8.40946
8.95946
8.95947
8.95941
8.95635
8.91684
1.38158
1.30349
1.27878
1.37111
1.27749
1.25671
3.91437
8.92282
6.55182
1.02915
1.09068
1.21396
1.09285
1.21196
8.00179
8.95947
8.95949
8.95949
8.95949
8.95947
1.11936
1.09889
1.24851
1.34104
1.31411
1.23347
3.29908
8.90121
6.05191
1.03854
1.07665
1.1922
1.03626
1.14439
7.76315
8.95949
8.9595
8.9595
8.9595
8.9595
5.79066
1.09011
1.13234
1.2654
1.29629
1.23768
3.85282
8.90346
4.65289
1.05572
1.067
1.1633
1.02021
1.19882
7.80886
8.9595
8.95951
8.95951
8.95951
8.95951
8.95232
1.16009
1.03045
1.20174
1.25421
1.27521
5.81524
8.9512
4.08315
1.08571
1.03546
1.10586
1.0468
2.70395
8.91586
8.95952
8.95952
8.95952
8.95952
8.95952
8.95952
1.18768
1.00855
1.08815
1.21209
1.46207
8.45914
8.95948
4.14732
1.18541
1
1
1
1
1
1
1
1.00105
1.07276
1.07713
1
1
1
1
1.00001
1.01139
1.03996
1.01986
1.00081
1
1.00032
4.26319
6.73453
7.21613
7.24881
7.21866
7.74253
8.2595
8.56078
7.02966
1
1.00002
2.26682
3.2651
3.94831
4.95531
7.32641
8.3223
7.10178
1
1.34458
5.99944
8.2087
8.85531
8.95684
8.9592
8.95926
8.95657
8.80865
6.65359
1.00095
1.06149
2.85572
2.48071
2.30945
3.04991
7.38239
8.92902
8.01788
1.00398
1.40481
4.33391
5.2055
8.23823
8.94811
8.95944
8.95943
8.95517
8.79948
6.97365
1.13187
1.11564
1.46642
1.87784
1.52087
1.85041
5.97168
8.93411
7.83591
1.03627
1.42145
2.65714
2.50421
6.29499
8.91504
8.95946
8.95945
8.9577
8.91196
8.44393
5.17347
1.26307
1.23911
1.5145
1.2371
1.42392
4.65497
8.92758
7.91708
1.07223
1.43702
1.83428
1.46934
3.63828
8.82703
8.95947
8.95948
8.95947
8.95913
8.95678
2.77387
2.09251
1.40323
1.37775
1.27007
1.28713
3.57773
8.89466
7.91047
1.0933
1.44397
1.52516
1.23272
2.16568
8.70095
8.95948
8.95949
8.95949
8.95949
8.95948
1.73612
1.94712
1.82996
1.56307
1.3363
1.28259
3.03942
8.86194
7.31858
1.26936
1.44429
1.38295
1.20532
1.73393
8.6044
8.9595
8.9595
8.9595
8.9595
8.95949
7.69287
2.04706
1.79492
1.69264
1.40346
1.32491
3.40081
8.85115
6.54158
1.30313
1.44283
1.31911
1.20744
1.92652
8.53748
8.95951
8.95951
8.95951
8.95951
8.95951
8.90971
2.45102
1.57638
1.63102
1.47549
1.3923
4.87286
8.93749
6.33231
1.34643
1.42481
1.24596
1.23733
5.9337
8.94989
8.95952
8.95952
8.95952
8.95952
8.95952
8.95951
1.85304
1.39967
1.47893
1.45462
1.5597
7.97774
8.95943
6.6379
1.35194
1
1
1
1
1
1
1
1.00006
1.03865
1.02156
1
1
1
1
1
1.00213
1.01699
1.00697
1.00009
1
1
3.08295
5.84843
6.64312
6.83576
6.82182
7.41674
7.92552
7.58446
4.73089
1.00004
1
1.65407
3.42486
4.24052
4.76462
7.11285
7.65934
5.48779
1
1.00182
3.47065
6.57539
8.52396
8.94416
8.95898
8.95908
8.9356
7.72898
2.30181
1
1.03178
3.73722
3.61368
2.93891
2.73078
7.39973
8.84357
6.25451
1.00008
1.06704
2.10417
2.76175
6.81708
8.89487
8.95941
8.95935
8.9277
7.58585
2.06197
1.00029
1.03685
1.70196
2.84218
1.74646
1.76111
6.02915
8.92666
5.94451
1.00494
1.10954
1.40914
1.39209
3.54211
8.74008
8.95944
8.95944
8.95522
8.78086
5.64577
1.36008
1.14965
1.22833
1.96944
1.3094
1.39643
4.68742
8.92783
6.29104
1.01769
1.09997
1.24619
1.16647
1.64065
8.40421
8.95946
8.95947
8.95945
8.9585
8.93902
3.05426
1.2981
1.27932
1.4397
1.37839
1.27563
3.59132
8.90492
6.54437
1.02827
1.11879
1.21722
1.10153
1.21211
7.99026
8.95947
8.95949
8.95949
8.95949
8.95948
1.68442
1.34399
1.31504
1.33546
1.34634
1.25252
3.01734
8.87769
6.05711
1.03759
1.10168
1.19733
1.04371
1.14434
7.74837
8.95949
8.9595
8.9595
8.9595
8.9595
1.95325
1.29312
1.276
1.28882
1.30125
1.24821
3.33268
8.86861
4.65522
1.0544
1.09245
1.17468
1.02372
1.19816
7.79321
8.9595
8.95951
8.95951
8.95951
8.95951
8.38248
1.29527
1.25809
1.26324
1.25457
1.25241
4.97653
8.94355
4.07684
1.08435
1.05799
1.12086
1.05065
2.68418
8.91469
8.95952
8.95952
8.95952
8.95952
8.95952
8.95907
1.22667
1.08487
1.18836
1.21669
1.35107
8.10465
8.95945
4.11984
1.18263
1
1
1
1
1
1
1
1
1
1
1
1
1
1
1
1
1
1
1
1
1
1.50274
3.90336
4.926
5.1427
5.09641
5.72883
6.41294
6.36056
1.36272
1
1
1.24158
2.18392
4.32098
5.31707
6.24611
3.35967
2.51979
1
1
2.52139
6.04286
8.27694
8.93016
8.95473
8.95583
8.93422
7.21792
1.59622
1
1
2.76825
6.92758
6.03957
5.50318
7.31326
5.35983
2.65001
1
1
1.79919
2.74499
6.35927
8.88688
8.95925
8.95925
8.91917
6.46726
1.42366
1
1
1.47863
5.97934
3.29529
3.01302
7.46868
7.95917
2.47808
1
1
1.34284
1.34711
3.10332
8.74484
8.9594
8.95939
8.94809
8.37951
2.83541
1
1
1.21135
3.97736
1.71158
1.8683
6.95478
8.81663
2.45114
1
1
1.23705
1.17236
1.46906
8.42035
8.95944
8.95946
8.95937
8.95292
8.82129
1
1
1.00215
1.66543
1.83751
1.46702
5.73935
8.92738
3.06563
1
1
1.15709
1.00501
1.15971
7.98225
8.95947
8.95949
8.95949
8.95949
8.95944
1
1
1
1.391
1.4953
1.4093
4.9699
8.93807
3.6049
1.00001
1
1.0131
1
1.08255
7.68776
8.95948
8.9595
8.9595
8.9595
8.9595
1.41133
1
1
1.08724
1.41333
1.40424
5.03073
8.93279
3.43263
1.00003
1
1.00012
1
1.13215
7.51343
8.9595
8.95951
8.95951
8.95951
8.95951
8.05087
1
1
1.00145
1.36473
1.42435
6.86629
8.95529
2.61297
1.00047
1
1
1
1.82889
8.88727
8.95952
8.95952
8.95952
8.95952
8.95952
8.95839
1.00178
1
1.00004
1.19659
1.62043
8.7135
8.95931
2.50494
1.00043
)
;

boundaryField
{
    aeration
    {
        type            calculated;
        value           uniform 1;
    }
    xsides
    {
        type            calculated;
        value           nonuniform List<scalar> 
100
(
1
1
1
1
1
1
1
1
1
1
1
1
1.00039
1.01811
1.03301
1.02765
1
1
1
1
1
1.0001
1.00001
1
1
1
1
1
1
1
1
1
1.00061
1.02598
1.0415
1.03647
1
1
1
1
1
1
1
1
1
1
1
1
1
1
1
1
1
1
1
1.00001
1.00001
1.00007
1.00089
1.00073
1
1
1.00004
1.00295
1.01137
1.01764
1.02144
1.02825
1.04319
1
1
1
1.00202
1.02158
1.04579
1.05636
1.00017
1
1
1
1
1
1.00004
1.00281
1.01087
1.01704
1.02085
1.02761
1.04191
1
1
1
1
1
1
1
1.00001
1.00005
1.00066
1.00055
)
;
    }
    zsides
    {
        type            calculated;
        value           nonuniform List<scalar> 
400
(
1
1
1
1
1
1
1
1
1
1
1
1.55142
2.8939
2.04118
1.46296
1.32735
1.22919
1.02009
1.00015
1
1
3.82371
6.32352
3.04291
1.4566
1.25701
1.0092
1
1
1
1
4.99482
8.35141
6.59266
3.38962
1.61852
1.27908
1.21291
1.23029
1.94192
1
5.19798
8.93327
8.89562
8.76942
8.48131
8.08962
7.81905
7.6457
8.89384
1
5.19559
8.95494
8.95926
8.9594
8.95945
8.95947
8.95949
8.9595
8.95952
1
5.86417
8.95601
8.95921
8.95937
8.95947
8.95949
8.9595
8.95951
8.95952
1
6.51376
8.92699
8.90111
8.93954
8.95927
8.95949
8.9595
8.95951
8.95952
1
1.00032
6.92838
5.94791
8.01649
8.94774
8.95949
8.9595
8.95951
8.95952
1
1
1
1
1.00001
8.7143
8.95941
8.9595
8.95951
8.95952
1
1
1
1
1
1
1
4.0413
8.91924
8.95949
1
1
1
1
1
1
1
1
1.0001
1.05629
1
1.21008
3.39926
1.63772
1.14075
1.00353
1
1
1
1
1
2.57173
7.23217
6.42999
4.39804
1.61483
1.27009
1.03333
1.00011
1
1
4.72757
6.29751
3.92597
2.42412
1.81524
1.45098
1.31489
1.25066
1.08257
1
5.66727
5.6827
3.2569
2.08353
1.6077
1.43995
1.37444
1.34717
1.47323
1.00001
6.52812
7.33347
7.41968
6.69208
5.38187
4.56718
4.7248
6.39077
8.58804
1
3.8267
5.68012
8.04104
8.82024
8.92296
8.93008
8.92203
8.95293
8.95932
1
3.2669
3.58187
3.25137
3.14509
3.77836
4.29978
4.10348
3.15892
2.96512
1
1
1
1
1
1.00001
1.00001
1.00007
1.00089
1.00073
1
1
1
1
1
1
1
1
1
1
1
1.67786
2.87933
2.0201
1.45719
1.32559
1.22448
1.0195
1.00018
1
1
4.2017
6.26566
2.97268
1.44864
1.25444
1.00813
1
1
1
1
5.20946
8.34724
6.57774
3.37423
1.61453
1.2776
1.21034
1.22858
1.91608
1
5.41996
8.93339
8.89471
8.76691
8.47205
8.06875
7.79172
7.61767
8.89161
1
5.41124
8.95531
8.95927
8.95941
8.95945
8.95947
8.95949
8.9595
8.95952
1
6.07188
8.95629
8.95927
8.9594
8.95946
8.95949
8.9595
8.95951
8.95952
1
6.72281
8.93708
8.92301
8.94912
8.95938
8.95949
8.9595
8.95951
8.95952
1
1.00064
7.33384
6.53242
8.4113
8.9534
8.95949
8.9595
8.95951
8.95952
1
1
1
1
1.00002
8.8295
8.95945
8.9595
8.95951
8.95952
1
1
1
1
1
1
1
1
1.00096
1.11073
1
1
1
1
1
1
1
1
1
1
1
1.18299
3.12024
1.57458
1.23108
1
1
1
1
1
1
2.45459
7.28322
6.46671
4.31073
1
1
1
1
1
1
4.72724
6.43807
3.99978
2.32942
1.00001
1
1
1
1.14237
1
5.72239
5.8357
3.33464
2.07988
1.56534
1.36553
1.29416
1.30239
1.62311
1
6.56659
7.47281
7.59313
7.08896
5.90266
5.13398
5.17105
6.95093
8.72143
1
3.83138
5.72605
8.07192
8.83108
8.93025
8.93966
8.93432
8.95543
8.95932
1
3.25146
3.58895
3.25571
3.15031
3.78783
4.30772
4.10494
3.14652
2.94154
1
1
1
1
1
1
1.00001
1.00005
1.00066
1.00055
)
;
    }
    outlet
    {
        type            calculated;
        value           nonuniform List<scalar> 
100
(
1
1.03546
1.42481
1.05799
1
1
1.10586
1.24597
1.12087
1
1
1.04681
1.23735
1.05065
1
8.95953
8.95953
8.95953
8.95953
8.95953
8.95953
8.95953
8.95953
8.95953
8.95953
8.95953
8.95953
8.95953
8.95953
8.95953
8.95953
8.95953
8.95953
8.95953
8.95953
8.95953
8.95953
8.95953
8.95953
8.95953
8.95953
8.95953
8.95953
8.95953
8.95953
8.95953
8.95953
8.95953
8.95953
8.95953
8.95953
8.95953
8.95953
8.95953
8.95953
1.03316
1.18769
1.46622
1.22667
1.00178
1
1.00855
1.39968
1.08487
1
1
1.08816
1.47894
1.18837
1.00004
1.05714
1.2121
1.45464
1.2167
1.19659
1.36336
1.46209
1.55973
1.35109
1.62045
8.95953
8.95953
8.95953
8.95953
8.95953
8.95953
8.95953
8.95953
8.95953
8.95953
8.95953
8.95953
8.95953
8.95953
8.95953
1.00057
1.18541
1.35194
1.18263
1.00043
)
;
    }
}


// ************************************************************************* //
