/*--------------------------------*- C++ -*----------------------------------*\
| =========                 |                                                 |
| \\      /  F ield         | OpenFOAM: The Open Source CFD Toolbox           |
|  \\    /   O peration     | Version:  2.3.0                                 |
|   \\  /    A nd           | Web:      www.OpenFOAM.org                      |
|    \\/     M anipulation  |                                                 |
\*---------------------------------------------------------------------------*/
FoamFile
{
    version     2.0;
    format      ascii;
    class       volScalarField;
    location    "3.69736";
    object      epsilon.air;
}
// * * * * * * * * * * * * * * * * * * * * * * * * * * * * * * * * * * * * * //

dimensions      [0 2 -3 0 0 0 0];

internalField   nonuniform List<scalar> 
1000
(
0.10966
0.132887
0.0912713
0.0563772
0.0388704
0.0305807
0.0269944
0.0200576
0.0449307
0.136413
0.0686691
0.0334932
0.0822707
0.10173
0.0658548
0.0319851
0.0159282
0.0200874
0.0399173
0.0702725
0.0956934
0.0159161
0.0258136
0.0290134
0.0282906
0.023874
0.0225613
0.0226369
0.0393803
0.114234
0.235173
0.0272631
0.0129894
0.014152
0.0207786
0.0240643
0.0326012
0.0185861
0.0112833
0.05221
0.0998118
0.0169919
0.0396282
0.0449078
0.0453052
0.040749
0.04331
0.0518855
0.0501982
0.0775614
0.211073
0.0171359
0.00955734
0.0182888
0.0201982
0.0312802
0.057402
0.0431659
0.016347
0.0490544
0.105705
0.01634
0.0209937
0.0346352
0.0442075
0.0419031
0.0481953
0.0614145
0.0588004
0.0910018
0.211544
0.0513272
0.010654
0.0129654
0.00659836
0.0188846
0.0686038
0.0769508
0.023792
0.0485704
0.119131
0.0201833
0.0126017
0.016271
0.0388107
0.0387831
0.0469901
0.064658
0.0775069
0.0362804
0.178755
0.0681841
0.0292415
0.0164174
0.00230281
0.0100916
0.0669365
0.0916757
0.029404
0.0507527
0.142749
0.0355563
0.0164492
0.00667116
0.0322397
0.0353768
0.041352
0.0628087
0.0929522
0.106087
0.145203
0.110854
0.0513339
0.0183325
0.00451526
0.00605245
0.0513612
0.0904661
0.0399808
0.0531591
0.156347
0.0668711
0.0278695
0.00371094
0.026315
0.033356
0.0415675
0.0581925
0.0876743
0.117425
0.0978778
0.263724
0.156146
0.0479289
0.0134311
0.00465816
0.0364383
0.0826247
0.0431283
0.0556822
0.153801
0.0893299
0.0465918
0.00221682
0.0192193
0.0276292
0.0360723
0.053265
0.0812306
0.114547
0.0470731
0.275194
0.268106
0.0997433
0.0252231
0.00537379
0.0299587
0.0721747
0.0334746
0.0566705
0.152264
0.113902
0.0614427
0.00375883
0.0136184
0.0222165
0.0293559
0.0415304
0.0602445
0.0808201
0.0853907
0.17776
0.294595
0.169731
0.0480063
0.00783122
0.0266466
0.0552473
0.0203335
0.0546194
0.149808
0.146367
0.0555965
0.00249646
0.00837484
0.0118324
0.0143677
0.0177753
0.0215726
0.0237495
0.0354
0.0716301
0.271004
0.202694
0.0714732
0.00953906
0.0139704
0.0227874
0.0138367
0.0602522
0.0371952
0.0321041
0.0182504
0.0123838
0.00997132
0.00883106
0.00811897
0.00579292
0.00869559
0.0196809
0.0101906
0.00829357
0.0141628
0.0249594
0.0144818
0.00912746
0.0073087
0.00776902
0.0109533
0.0223723
0.032556
0.0101425
0.013561
0.0137134
0.013382
0.0128895
0.015016
0.01767
0.0169176
0.0387163
0.0307992
0.00543568
0.00427136
0.00924333
0.00990664
0.0128497
0.0217417
0.0267239
0.0209584
0.0206016
0.0357903
0.0091867
0.0132322
0.014987
0.0152001
0.0155335
0.0184057
0.0223627
0.0216302
0.0194234
0.0187554
0.00368204
0.00605344
0.00594707
0.00590654
0.00794304
0.0244692
0.0386547
0.0408867
0.0209006
0.03753
0.00682262
0.00598509
0.0112626
0.0140125
0.0149662
0.0183285
0.0228409
0.0224074
0.011509
0.0125892
0.00426693
0.00332367
0.00380583
0.0027221
0.00500102
0.0202068
0.0413986
0.0625847
0.0213153
0.0507004
0.00671759
0.00371811
0.00526498
0.0110163
0.0124337
0.0158768
0.022436
0.029937
0.0304355
0.126969
0.0183466
0.0043966
0.00334759
0.00153534
0.00340549
0.0141464
0.0376454
0.0824609
0.0231716
0.0584701
0.0111831
0.00508055
0.0023896
0.00809011
0.00982213
0.0121991
0.017657
0.0266383
0.0502368
0.274082
0.0873096
0.0125801
0.00485467
0.0022857
0.0028538
0.00939783
0.0315535
0.0921323
0.0254946
0.0826314
0.0198827
0.00961351
0.0019742
0.00589561
0.00779868
0.0104683
0.0144119
0.0197417
0.0270655
0.0858161
0.104211
0.0405117
0.00993829
0.00460962
0.00322639
0.00658102
0.0231066
0.0790602
0.0270664
0.0917144
0.0282108
0.0149709
0.00211494
0.003769
0.00528391
0.00709113
0.0105975
0.0148937
0.0174616
0.0287921
0.102345
0.0783818
0.0219957
0.00782726
0.00401536
0.00607287
0.0155558
0.0505785
0.0294806
0.106029
0.0347841
0.0193251
0.0024418
0.00268139
0.00363108
0.00466415
0.00622599
0.00805551
0.0098667
0.0127316
0.0826188
0.0858753
0.0517628
0.016296
0.00583547
0.00655402
0.00743537
0.0320731
0.0279573
0.115888
0.0432235
0.0175119
0.0016461
0.00164989
0.00182252
0.00208666
0.00236924
0.00250243
0.00336567
0.00466197
0.0445901
0.0806309
0.0623111
0.0239967
0.00568197
0.00348527
0.00238294
0.0215984
0.0389554
0.0175272
0.0145764
0.00817707
0.00648557
0.00582722
0.00550981
0.0050868
0.00425517
0.00471376
0.00665613
0.00710797
0.00676899
0.00929203
0.0123079
0.00754427
0.00591669
0.00553441
0.00572836
0.00706271
0.0118219
0.0140995
0.00755229
0.00881947
0.00861876
0.00853679
0.00896932
0.0111732
0.0128066
0.010948
0.0118372
0.00658082
0.00345565
0.00342423
0.00566461
0.0063188
0.00916475
0.0150403
0.0235098
0.0238959
0.0118583
0.017657
0.0134206
0.00910089
0.00865398
0.00863748
0.00951452
0.0112481
0.0121655
0.0113325
0.0119695
0.00483008
0.00248938
0.00363872
0.00327355
0.00332004
0.00527641
0.0133287
0.0298809
0.0538167
0.0121331
0.0201553
0.0117234
0.00578451
0.00699882
0.00727452
0.00820554
0.00966807
0.0103258
0.0101258
0.0119898
0.00620049
0.00300189
0.00226121
0.00213841
0.00199151
0.00308814
0.00888139
0.0306412
0.0841211
0.0137377
0.0232774
0.0100898
0.00349717
0.00451658
0.00498908
0.00566228
0.00690649
0.00858126
0.0104972
0.0178624
0.131558
0.00943241
0.00333705
0.00233123
0.00137685
0.0022251
0.00538802
0.0244368
0.106041
0.0161306
0.0283175
0.010814
0.0037782
0.00278586
0.00331307
0.00365902
0.00435588
0.00560999
0.00744734
0.00950117
0.124049
0.0468249
0.00773524
0.00345245
0.00191573
0.00203866
0.00364546
0.0176955
0.113685
0.0179491
0.0256655
0.0127081
0.00647558
0.00228925
0.0023641
0.00245676
0.00312998
0.00393884
0.00461722
0.00396016
0.0397646
0.052487
0.0204255
0.00553489
0.00264201
0.00246342
0.00295119
0.0102058
0.0980227
0.0223878
0.0213323
0.0139467
0.00991328
0.00226542
0.00163121
0.00161921
0.00194053
0.00264361
0.00338337
0.0023949
0.00826332
0.0441774
0.0314292
0.00910703
0.00346089
0.00293571
0.00295944
0.00542241
0.0733863
0.025452
0.0218312
0.0157368
0.0126367
0.0024769
0.00137594
0.00128349
0.0014512
0.00169457
0.00187265
0.00166653
0.00446652
0.0414506
0.0335503
0.0175911
0.00585392
0.00413551
0.0031892
0.00246631
0.0508657
0.0248365
0.0267537
0.0215181
0.0110201
0.00222234
0.00117618
0.00116423
0.00125525
0.00135463
0.00139053
0.00137186
0.00234181
0.0256854
0.0321738
0.0247451
0.00954993
0.00418607
0.00194035
0.0014559
0.0337232
0.0226051
0.0361938
0.0304918
0.0171799
0.0116001
0.00933834
0.00825581
0.0074981
0.00601643
0.00874698
0.0189833
0.0119042
0.00834259
0.0144151
0.0255706
0.0149203
0.00935235
0.00748012
0.00789845
0.0110941
0.0225957
0.0305475
0.0102396
0.01342
0.0137267
0.0133203
0.0128779
0.0149989
0.0177409
0.0173793
0.0337127
0.00971745
0.00483363
0.00431307
0.00923015
0.00957003
0.0121174
0.0212302
0.0264921
0.0206943
0.0208855
0.0334656
0.00940645
0.0132313
0.0150018
0.0151982
0.0155246
0.0184302
0.0224584
0.0224076
0.0156568
0.0109178
0.00340636
0.00589389
0.00585884
0.00545151
0.0072264
0.0235635
0.0384986
0.0406283
0.0212244
0.0361781
0.00691318
0.00590033
0.0113004
0.0140042
0.0149587
0.0183561
0.022917
0.0235147
0.0107041
0.020971
0.00818242
0.00404761
0.00382288
0.00260023
0.00466099
0.0187271
0.0412232
0.0623761
0.0216479
0.0467667
0.00694835
0.00374726
0.00527835
0.0110126
0.0124181
0.0158611
0.0223585
0.0298597
0.0316692
0.124722
0.0312572
0.00900315
0.00411033
0.00143947
0.00300347
0.0124517
0.037419
0.0822729
0.0235055
0.0591692
0.0113962
0.00511667
0.00239015
0.00808596
0.00983752
0.012236
0.0178594
0.0271694
0.0373876
0.342328
0.0692566
0.0149358
0.00573294
0.00230388
0.00226326
0.00781149
0.0312417
0.0920311
0.0258508
0.081028
0.019991
0.00970561
0.00197996
0.00590112
0.00780755
0.0104998
0.0146716
0.0207603
0.0206208
0.0236544
0.0543145
0.0232775
0.00666682
0.00328026
0.00224695
0.00516245
0.0226866
0.079189
0.027492
0.0870566
0.0281061
0.0150746
0.00212316
0.00377778
0.00527984
0.0070811
0.0104216
0.015597
0.0141008
0.00475161
0.0179789
0.0164857
0.00647738
0.00328438
0.00246902
0.00460063
0.015266
0.0507333
0.0299014
0.10823
0.0346803
0.0193787
0.00246146
0.00267967
0.00362761
0.00467149
0.00633504
0.00811143
0.0068129
0.0141671
0.00883333
0.0116508
0.00563616
0.00300104
0.00303999
0.00526452
0.00743251
0.0323716
0.0278795
0.112876
0.0432276
0.0175915
0.00164448
0.00164882
0.00182489
0.00208271
0.00235196
0.00259348
0.00221161
0.00342957
0.00950936
0.0099081
0.00622261
0.00392347
0.00303246
0.0030968
0.00237649
0.0216011
0.0397133
0.105875
0.124482
0.0856253
0.0522607
0.0357186
0.0277837
0.0236685
0.0205572
0.0436018
0.130206
0.0679393
0.0295922
0.0844097
0.104759
0.0680071
0.0330428
0.0166457
0.0206222
0.0407877
0.0712703
0.088718
0.0154292
0.0268488
0.030234
0.0293178
0.0247999
0.0233414
0.0240689
0.0405019
0.124313
0.0648768
0.0220116
0.0150933
0.0141564
0.0208361
0.0243061
0.0328254
0.0186
0.0112926
0.0532222
0.0933721
0.0166625
0.0393272
0.0448592
0.045264
0.0407109
0.043353
0.0522366
0.0535297
0.0827706
0.0592638
0.019836
0.00837041
0.018437
0.0204812
0.0318849
0.0584646
0.043529
0.0163201
0.0501118
0.0994251
0.0161461
0.0206501
0.0345856
0.0442069
0.0419303
0.0482841
0.061888
0.0647375
0.0885246
0.265909
0.102604
0.0111122
0.0133067
0.00655628
0.0192087
0.0700737
0.0771975
0.0237962
0.0496354
0.113218
0.020298
0.0126601
0.0162015
0.0387919
0.0387813
0.0470049
0.0647943
0.0806149
0.040286
0.223777
0.230632
0.0567472
0.0179757
0.0019247
0.0100267
0.0702814
0.0917041
0.0294203
0.0518415
0.137152
0.035915
0.0165314
0.0066603
0.0321994
0.0353731
0.0413216
0.0625532
0.0927529
0.112822
0.190278
0.198933
0.099383
0.0434103
0.0141084
0.00596163
0.0551976
0.0904202
0.0400434
0.0542593
0.150737
0.0669001
0.0280579
0.00371067
0.0262532
0.0333766
0.0416515
0.0584996
0.0882059
0.127365
0.183591
0.185562
0.122887
0.0525825
0.0206566
0.00500864
0.0397322
0.0825395
0.0432001
0.0568272
0.148191
0.0887749
0.046688
0.00220114
0.0191697
0.0276284
0.0360727
0.0532134
0.0814959
0.119909
0.0989146
0.173924
0.134383
0.0623356
0.0215188
0.00515396
0.0307153
0.0722914
0.0335526
0.0577466
0.147258
0.112578
0.0615138
0.00379305
0.0135897
0.022207
0.0293652
0.0416534
0.0602405
0.0825139
0.117539
0.120214
0.140669
0.0648366
0.0339425
0.0062524
0.0270285
0.0555426
0.0203374
0.0554897
0.145015
0.144427
0.055769
0.00247628
0.00835524
0.0118293
0.014361
0.0178415
0.0217835
0.0238508
0.00216354
0.101468
0.125452
0.0593038
0.0273627
0.00635966
0.0141997
0.0228256
0.0137888
0.0613955
)
;

boundaryField
{
    aeration
    {
        type            fixedValue;
        value           uniform 0.00015;
    }
    xsides
    {
        type            epsilonWallFunction;
        value           nonuniform List<scalar> 
100
(
0.161952
0.138772
0.141256
0.150152
0.171185
0.221237
0.229338
0.223755
0.218478
0.209757
0.00943146
0.00709121
0.00675128
0.00816163
0.00937561
0.00979206
4.50544e-20
1.00126e-20
9.87876e-21
9.4522e-21
0.00433772
0.00278474
7.59258e-15
1.48869e-20
1.51981e-20
1.54828e-20
1.55632e-20
1.5562e-20
1.55208e-20
1.51868e-20
0.00934894
0.00716242
0.00642696
0.00787796
0.00900896
0.010253
1.46273e-19
1.03428e-20
1.02188e-20
9.73583e-21
0.156589
0.129398
0.132434
0.141498
0.162347
0.212887
0.222041
0.216715
0.211053
0.203031
0.0984483
0.0796921
0.0798538
0.0828798
0.0894034
0.0947478
0.0979125
0.0976283
0.0955738
0.0900626
0.00720182
0.00706723
0.00782524
0.00943778
0.0112677
0.0119462
0.0111224
0.010352
0.00977926
7.30594e-19
0.00431756
0.00398607
0.00472352
0.00654494
0.00835777
0.00861766
3.46166e-09
1.88941e-19
1.395e-20
1.40468e-20
0.00723416
0.00711647
0.00788044
0.00949317
0.011345
0.0120361
0.0112264
0.01051
0.00958275
2.52781e-19
0.099816
0.0811394
0.0813588
0.0844646
0.091062
0.0964444
0.0997031
0.0994419
0.0968948
0.0913897
)
;
        Cmu             0.09;
        kappa           0.41;
        E               9.8;
        value           nonuniform List<scalar> 
100
(
0.161952
0.138772
0.141256
0.150152
0.171185
0.221237
0.229338
0.223755
0.218478
0.209757
0.00943146
0.00709121
0.00675128
0.00816163
0.00937561
0.00979206
4.50544e-20
1.00126e-20
9.87876e-21
9.4522e-21
0.00433772
0.00278474
7.59258e-15
1.48869e-20
1.51981e-20
1.54828e-20
1.55632e-20
1.5562e-20
1.55208e-20
1.51868e-20
0.00934894
0.00716242
0.00642696
0.00787796
0.00900896
0.010253
1.46273e-19
1.03428e-20
1.02188e-20
9.73583e-21
0.156589
0.129398
0.132434
0.141498
0.162347
0.212887
0.222041
0.216715
0.211053
0.203031
0.0984483
0.0796921
0.0798538
0.0828798
0.0894034
0.0947478
0.0979125
0.0976283
0.0955738
0.0900626
0.00720182
0.00706723
0.00782524
0.00943778
0.0112677
0.0119462
0.0111224
0.010352
0.00977926
7.30594e-19
0.00431756
0.00398607
0.00472352
0.00654494
0.00835777
0.00861766
3.46166e-09
1.88941e-19
1.395e-20
1.40468e-20
0.00723416
0.00711647
0.00788044
0.00949317
0.011345
0.0120361
0.0112264
0.01051
0.00958275
2.52781e-19
0.099816
0.0811394
0.0813588
0.0844646
0.091062
0.0964444
0.0997031
0.0994419
0.0968948
0.0913897
)
;
    }
    zsides
    {
        type            epsilonWallFunction;
        value           nonuniform List<scalar> 
400
(
0.161952
0.138772
0.141256
0.150152
0.171185
0.221237
0.229338
0.223755
0.218478
0.209757
0.298251
0.0602828
0.0898262
0.0644199
0.0629202
0.100244
0.177152
0.224803
0.284388
0.361021
0.176342
0.127761
0.232755
0.0719373
0.0321678
0.0406387
0.0687195
0.113509
0.150282
0.132637
0.102003
0.167705
0.337218
0.209006
0.0610031
0.0184863
0.0116716
0.00979786
0.0103855
0.00497385
0.071281
0.165524
0.361242
0.34419
0.281185
0.21245
0.157335
0.103073
0.0646466
0.0354096
0.056716
0.147977
0.351415
0.349918
0.307432
0.25594
0.217798
0.159201
0.108021
0.0445555
0.0499657
0.167533
0.392474
0.410156
0.380124
0.305028
0.273055
0.205328
0.135297
0.0509708
0.0199101
0.19169
0.440996
0.465151
0.477048
0.450366
0.358793
0.285616
0.175881
0.0601328
0.0465317
4.17286e-18
0.287232
0.201174
0.381608
0.626203
0.499809
0.394617
0.232266
0.071991
0.226144
7.84828e-20
9.61055e-20
8.73732e-20
1.49436e-19
0.68007
0.613685
0.501494
0.294935
0.0828684
5.28064e-20
0.257067
5.28064e-20
5.28064e-20
5.28064e-20
0.0247106
0.137501
0.143864
0.285409
0.113875
5.28064e-20
5.28064e-20
5.28064e-20
5.28064e-20
5.28064e-20
0.0302779
0.309226
0.48547
0.398104
0.242125
5.28064e-20
0.00954059
0.049967
0.0168941
0.000466803
0.01336
0.160089
0.474711
0.648708
0.671959
0.224305
0.0657708
0.207219
0.133618
0.0782045
0.0271112
0.0568421
0.173506
0.37268
0.493573
0.127184
0.144228
0.189734
0.0595449
0.0191182
0.0183001
0.0284515
0.0559633
0.123928
0.174146
0.0586661
0.200878
0.239238
0.0997759
0.0418817
0.0239649
0.0195977
0.0216792
0.0275713
0.0255665
0.0356589
0.288545
0.455571
0.49618
0.414791
0.2606
0.16264
0.125534
0.115454
0.0513562
0.0427828
0.13207
0.351511
0.72525
0.809529
0.712131
0.55271
0.397387
0.232304
0.0758075
0.0737389
0.140432
0.323603
0.422159
0.48294
0.678536
0.71254
0.480285
0.190587
0.0935678
0.0984483
0.0796921
0.0798538
0.0828798
0.0894034
0.0947478
0.0979125
0.0976283
0.0955738
0.0900626
0.156589
0.129398
0.132434
0.141498
0.162347
0.212887
0.222041
0.216715
0.211053
0.203031
0.2793
0.0611728
0.0879639
0.0636464
0.0630855
0.101455
0.17679
0.223313
0.280353
0.356152
0.164005
0.142396
0.229082
0.069872
0.0323879
0.0407499
0.068971
0.113608
0.150457
0.132934
0.0933519
0.178607
0.336993
0.20824
0.0605714
0.018432
0.0116719
0.00981536
0.0104859
0.00492676
0.0647603
0.174913
0.361074
0.344029
0.280998
0.21205
0.156817
0.102721
0.0644403
0.0352911
0.0508516
0.156994
0.351177
0.349895
0.307224
0.256052
0.218004
0.159195
0.107937
0.044545
0.0435585
0.176083
0.393046
0.410904
0.380068
0.305306
0.273792
0.205295
0.135356
0.0509353
0.0268803
0.199849
0.444127
0.469401
0.479569
0.450923
0.361416
0.284413
0.176611
0.0603274
0.0516441
2.37216e-17
0.315152
0.235166
0.424632
0.625877
0.506841
0.398403
0.231048
0.07289
0.216363
8.11109e-20
1.01443e-19
8.83302e-20
2.30003e-19
0.676272
0.632432
0.515641
0.294684
0.0831787
5.28064e-20
5.28064e-20
5.28064e-20
0.275639
5.28064e-20
5.28064e-20
5.28064e-20
8.63438e-20
1.13006e-18
5.06305e-18
5.28064e-20
5.28064e-20
3.17503e-05
0.117929
0.246725
5.28064e-20
5.28064e-20
5.28064e-20
5.28064e-20
5.29201e-20
5.28064e-20
0.00789386
0.0405405
0.0271634
0.0776357
5.30368e-20
5.28064e-20
5.28064e-20
5.28064e-20
5.28064e-20
0.231136
0.0634851
0.209573
0.134456
0.0972515
1.14295e-19
8.57544e-20
6.01914e-20
5.29421e-20
7.11119e-09
0.131986
0.144239
0.193199
0.0589625
0.0161165
1.28802e-19
9.51824e-20
8.76648e-20
8.29409e-20
0.0117599
0.0607636
0.202586
0.244118
0.0998773
0.0363924
0.0132772
0.00386242
0.00198501
0.00210318
0.00814444
0.0370566
0.290353
0.466227
0.509318
0.440487
0.281404
0.171683
0.1192
0.108937
0.0522442
0.043909
0.131806
0.354571
0.726361
0.805692
0.707792
0.547493
0.39357
0.231113
0.0764602
0.0752379
0.138937
0.322802
0.420694
0.481667
0.678441
0.713224
0.482374
0.191232
0.0937077
0.099816
0.0811394
0.0813588
0.0844646
0.091062
0.0964444
0.0997031
0.0994419
0.0968948
0.0913897
)
;
        Cmu             0.09;
        kappa           0.41;
        E               9.8;
        value           nonuniform List<scalar> 
400
(
0.161952
0.138772
0.141256
0.150152
0.171185
0.221237
0.229338
0.223755
0.218478
0.209757
0.298251
0.0602828
0.0898262
0.0644199
0.0629202
0.100244
0.177152
0.224803
0.284388
0.361021
0.176342
0.127761
0.232755
0.0719373
0.0321678
0.0406387
0.0687195
0.113509
0.150282
0.132637
0.102003
0.167705
0.337218
0.209006
0.0610031
0.0184863
0.0116716
0.00979786
0.0103855
0.00497385
0.071281
0.165524
0.361242
0.34419
0.281185
0.21245
0.157335
0.103073
0.0646466
0.0354096
0.056716
0.147977
0.351415
0.349918
0.307432
0.25594
0.217798
0.159201
0.108021
0.0445555
0.0499657
0.167533
0.392474
0.410156
0.380124
0.305028
0.273055
0.205328
0.135297
0.0509708
0.0199101
0.19169
0.440996
0.465151
0.477048
0.450366
0.358793
0.285616
0.175881
0.0601328
0.0465317
4.17286e-18
0.287232
0.201174
0.381608
0.626203
0.499809
0.394617
0.232266
0.071991
0.226144
7.84828e-20
9.61055e-20
8.73732e-20
1.49436e-19
0.68007
0.613685
0.501494
0.294935
0.0828684
5.28064e-20
0.257067
5.28064e-20
5.28064e-20
5.28064e-20
0.0247106
0.137501
0.143864
0.285409
0.113875
5.28064e-20
5.28064e-20
5.28064e-20
5.28064e-20
5.28064e-20
0.0302779
0.309226
0.48547
0.398104
0.242125
5.28064e-20
0.00954059
0.049967
0.0168941
0.000466803
0.01336
0.160089
0.474711
0.648708
0.671959
0.224305
0.0657708
0.207219
0.133618
0.0782045
0.0271112
0.0568421
0.173506
0.37268
0.493573
0.127184
0.144228
0.189734
0.0595449
0.0191182
0.0183001
0.0284515
0.0559633
0.123928
0.174146
0.0586661
0.200878
0.239238
0.0997759
0.0418817
0.0239649
0.0195977
0.0216792
0.0275713
0.0255665
0.0356589
0.288545
0.455571
0.49618
0.414791
0.2606
0.16264
0.125534
0.115454
0.0513562
0.0427828
0.13207
0.351511
0.72525
0.809529
0.712131
0.55271
0.397387
0.232304
0.0758075
0.0737389
0.140432
0.323603
0.422159
0.48294
0.678536
0.71254
0.480285
0.190587
0.0935678
0.0984483
0.0796921
0.0798538
0.0828798
0.0894034
0.0947478
0.0979125
0.0976283
0.0955738
0.0900626
0.156589
0.129398
0.132434
0.141498
0.162347
0.212887
0.222041
0.216715
0.211053
0.203031
0.2793
0.0611728
0.0879639
0.0636464
0.0630855
0.101455
0.17679
0.223313
0.280353
0.356152
0.164005
0.142396
0.229082
0.069872
0.0323879
0.0407499
0.068971
0.113608
0.150457
0.132934
0.0933519
0.178607
0.336993
0.20824
0.0605714
0.018432
0.0116719
0.00981536
0.0104859
0.00492676
0.0647603
0.174913
0.361074
0.344029
0.280998
0.21205
0.156817
0.102721
0.0644403
0.0352911
0.0508516
0.156994
0.351177
0.349895
0.307224
0.256052
0.218004
0.159195
0.107937
0.044545
0.0435585
0.176083
0.393046
0.410904
0.380068
0.305306
0.273792
0.205295
0.135356
0.0509353
0.0268803
0.199849
0.444127
0.469401
0.479569
0.450923
0.361416
0.284413
0.176611
0.0603274
0.0516441
2.37216e-17
0.315152
0.235166
0.424632
0.625877
0.506841
0.398403
0.231048
0.07289
0.216363
8.11109e-20
1.01443e-19
8.83302e-20
2.30003e-19
0.676272
0.632432
0.515641
0.294684
0.0831787
5.28064e-20
5.28064e-20
5.28064e-20
0.275639
5.28064e-20
5.28064e-20
5.28064e-20
8.63438e-20
1.13006e-18
5.06305e-18
5.28064e-20
5.28064e-20
3.17503e-05
0.117929
0.246725
5.28064e-20
5.28064e-20
5.28064e-20
5.28064e-20
5.29201e-20
5.28064e-20
0.00789386
0.0405405
0.0271634
0.0776357
5.30368e-20
5.28064e-20
5.28064e-20
5.28064e-20
5.28064e-20
0.231136
0.0634851
0.209573
0.134456
0.0972515
1.14295e-19
8.57544e-20
6.01914e-20
5.29421e-20
7.11119e-09
0.131986
0.144239
0.193199
0.0589625
0.0161165
1.28802e-19
9.51824e-20
8.76648e-20
8.29409e-20
0.0117599
0.0607636
0.202586
0.244118
0.0998773
0.0363924
0.0132772
0.00386242
0.00198501
0.00210318
0.00814444
0.0370566
0.290353
0.466227
0.509318
0.440487
0.281404
0.171683
0.1192
0.108937
0.0522442
0.043909
0.131806
0.354571
0.726361
0.805692
0.707792
0.547493
0.39357
0.231113
0.0764602
0.0752379
0.138937
0.322802
0.420694
0.481667
0.678441
0.713224
0.482374
0.191232
0.0937077
0.099816
0.0811394
0.0813588
0.0844646
0.091062
0.0964444
0.0997031
0.0994419
0.0968948
0.0913897
)
;
    }
    outlet
    {
        type            inletOutlet;
        phi             phi.air;
        inletValue      uniform 0.00015;
        value           nonuniform List<scalar> 
100
(
0.149808
0.115888
0.0267537
0.112876
0.145015
0.146367
0.0432235
0.0215181
0.0432276
0.144427
0.0555965
0.0175119
0.0110201
0.0175915
0.055769
0.00015
0.00015
0.00015
0.00015
0.00015
0.00015
0.00015
0.00015
0.00015
0.00015
0.00015
0.00015
0.00015
0.00015
0.00015
0.00015
0.00015
0.00015
0.00015
0.00015
0.00015
0.00015
0.00015
0.00015
0.00015
0.00015
0.00015
0.00015
0.00015
0.00015
0.00015
0.00015
0.00015
0.00015
0.00015
0.00015
0.00015
0.00015
0.00015
0.00015
0.0716301
0.0445901
0.00015
0.00950936
0.101468
0.271004
0.0806309
0.0321738
0.0099081
0.125452
0.202694
0.0623111
0.0247451
0.00622261
0.0593038
0.0714732
0.0239967
0.00954993
0.00392347
0.0273627
0.00953906
0.00568197
0.00418607
0.00303246
0.00635966
0.00015
0.00015
0.00015
0.00015
0.00015
0.00015
0.00015
0.00015
0.00015
0.00015
0.00015
0.00015
0.00015
0.00015
0.00015
0.0602522
0.0389554
0.0226051
0.0397133
0.0613955
)
;
    }
}


// ************************************************************************* //
