/*--------------------------------*- C++ -*----------------------------------*\
| =========                 |                                                 |
| \\      /  F ield         | OpenFOAM: The Open Source CFD Toolbox           |
|  \\    /   O peration     | Version:  2.3.0                                 |
|   \\  /    A nd           | Web:      www.OpenFOAM.org                      |
|    \\/     M anipulation  |                                                 |
\*---------------------------------------------------------------------------*/
FoamFile
{
    version     2.0;
    format      ascii;
    class       volScalarField;
    location    "0.98";
    object      alpha.air;
}
// * * * * * * * * * * * * * * * * * * * * * * * * * * * * * * * * * * * * * //

dimensions      [0 0 0 0 0 0 0];

internalField   nonuniform List<scalar> 
6000
(
0.584462
0.584462
0.584462
0.584461
0.584462
0.593499
0.643315
0.684474
0.625943
0.575778
0.564536
0.571063
0.667157
0.577095
0.556997
0.556996
0.57404
0.653282
0.609435
0.559646
0.559547
0.559456
0.541608
0.511041
0.496414
0.486965
0.528095
0.604198
0.602058
0.558674
0.584463
0.585807
0.594137
0.602258
0.631257
0.679841
0.685811
0.682137
0.685118
0.656442
0.642641
0.667027
0.669772
0.659444
0.59413
0.569671
0.641899
0.653272
0.653287
0.647916
0.63495
0.632085
0.611449
0.557763
0.51482
0.501681
0.587579
0.6042
0.604147
0.590971
0.590689
0.639203
0.653274
0.65637
0.672376
0.682749
0.682018
0.686823
0.682018
0.630465
0.606659
0.667807
0.66703
0.668163
0.617075
0.593422
0.653213
0.653249
0.653272
0.626058
0.596691
0.605517
0.594047
0.532155
0.471352
0.470997
0.558814
0.604147
0.604149
0.555895
0.662984
0.698032
0.696226
0.680785
0.675017
0.681896
0.684999
0.682018
0.685549
0.614766
0.580625
0.666898
0.669621
0.666898
0.596208
0.569743
0.639139
0.653231
0.653228
0.586927
0.534944
0.535993
0.546907
0.533026
0.470076
0.471062
0.528394
0.591311
0.582852
0.512948
0.708895
0.708795
0.685756
0.644262
0.626936
0.676517
0.681896
0.686217
0.681896
0.61621
0.563276
0.66703
0.666898
0.665142
0.547647
0.518622
0.575363
0.641654
0.620541
0.530342
0.482078
0.480391
0.509411
0.566952
0.471072
0.469751
0.497375
0.537451
0.519325
0.484691
0.708795
0.708086
0.64457
0.565128
0.545721
0.635338
0.682722
0.681896
0.684527
0.623308
0.548421
0.659547
0.66752
0.629729
0.512595
0.48927
0.507484
0.569367
0.535575
0.480862
0.480283
0.479067
0.532106
0.656068
0.474974
0.470792
0.470711
0.478089
0.471163
0.470355
0.708706
0.696548
0.579729
0.496797
0.492711
0.564469
0.676453
0.682963
0.681772
0.632005
0.529288
0.621329
0.656857
0.57879
0.493738
0.48006
0.480082
0.481823
0.479533
0.480191
0.478845
0.480319
0.629989
0.73865
0.571372
0.469496
0.470533
0.469751
0.470271
0.470006
0.708599
0.668648
0.51926
0.480005
0.480058
0.501071
0.603829
0.672511
0.682084
0.624837
0.509591
0.551453
0.590929
0.530501
0.482583
0.479656
0.480057
0.479095
0.480121
0.478687
0.480231
0.623332
0.727426
0.751461
0.717687
0.523886
0.469805
0.484308
0.477984
0.470289
0.701699
0.618504
0.484759
0.480055
0.479422
0.480004
0.505369
0.58614
0.634517
0.575713
0.493314
0.492126
0.502459
0.488332
0.479804
0.480001
0.478257
0.480062
0.47848
0.492209
0.65487
0.736249
0.749906
0.749484
0.752049
0.709353
0.623297
0.658015
0.606033
0.531126
0.654747
0.546656
0.480061
0.478393
0.479998
0.478501
0.479968
0.483892
0.524694
0.497345
0.479923
0.47957
0.479939
0.479302
0.479964
0.47805
0.480025
0.511389
0.596177
0.697712
0.746407
0.749666
0.7496
0.752039
0.749484
0.752084
0.749359
0.751682
0.692694
0.534944
0.576045
0.485661
0.478622
0.480012
0.476405
0.479962
0.477287
0.479936
0.479023
0.479921
0.478737
0.479918
0.477738
0.479935
0.477584
0.480008
0.602692
0.735311
0.778177
0.76946
0.754189
0.749715
0.750236
0.749595
0.752636
0.749479
0.752369
0.749361
0.707679
0.525712
0.548682
0.518044
0.534054
0.540465
0.519328
0.47635
0.479944
0.476309
0.479916
0.476952
0.479916
0.47643
0.479916
0.476443
0.479985
0.670484
0.779877
0.782143
0.779956
0.78109
0.756176
0.748477
0.7496
0.752036
0.749481
0.752261
0.749364
0.75222
0.696314
0.581582
0.665671
0.718975
0.778915
0.805719
0.78409
0.681631
0.529957
0.479972
0.476321
0.47993
0.476381
0.479919
0.476396
0.47998
0.683611
0.779955
0.782328
0.779956
0.781935
0.779956
0.756685
0.744368
0.750061
0.749484
0.752396
0.749367
0.75225
0.749248
0.686408
0.648284
0.861077
0.887712
0.897458
0.893677
0.873693
0.83377
0.766077
0.662747
0.589103
0.553359
0.528794
0.494812
0.496352
0.666653
0.779932
0.782261
0.779956
0.781862
0.779956
0.780331
0.752907
0.736277
0.749484
0.75148
0.749367
0.751761
0.749248
0.752513
0.698212
0.673709
0.911038
0.91104
0.905043
0.889837
0.866032
0.832224
0.796985
0.779151
0.773058
0.776974
0.76416
0.737193
0.700972
0.759376
0.782067
0.779956
0.781664
0.779956
0.78054
0.773893
0.740923
0.723053
0.749643
0.749367
0.751694
0.749248
0.751677
0.749129
0.738226
0.661102
0.911038
0.908504
0.894359
0.872932
0.845578
0.813054
0.785128
0.777902
0.779956
0.782603
0.779956
0.781625
0.767488
0.779809
0.779956
0.781809
0.779956
0.780416
0.773265
0.750347
0.718435
0.703966
0.748343
0.750741
0.749248
0.751089
0.749129
0.752353
0.749006
0.620357
0.911037
0.896946
0.875479
0.851358
0.821671
0.788488
0.766067
0.765609
0.780414
0.779956
0.782295
0.779956
0.781478
0.779956
0.782197
0.779956
0.77374
0.754771
0.732808
0.70609
0.681615
0.671704
0.730637
0.749248
0.750911
0.749129
0.751281
0.749008
0.750286
0.567137
0.89959
0.878284
0.854492
0.828468
0.794676
0.758673
0.740464
0.745392
0.776361
0.78307
0.779956
0.782208
0.779956
0.781699
0.779956
0.774127
0.724084
0.68874
0.66899
0.641953
0.625172
0.619322
0.690656
0.749618
0.749129
0.750615
0.749008
0.751376
0.748884
0.523309
0.875342
0.855028
0.830212
0.800927
0.761262
0.721213
0.707271
0.720164
0.768501
0.779956
0.782672
0.779956
0.782155
0.779956
0.782165
0.75823
0.654948
0.600188
0.590722
0.565756
0.552505
0.55091
0.627087
0.737894
0.749663
0.749008
0.749619
0.748885
0.737436
0.50216
0.845594
0.826785
0.799932
0.765242
0.719323
0.67654
0.668427
0.693367
0.76278
0.78362
0.779956
0.782433
0.779956
0.782011
0.779956
0.754395
0.614141
0.523007
0.518226
0.499818
0.493679
0.496106
0.545505
0.683564
0.741907
0.749138
0.748459
0.739429
0.638544
0.49498
0.812131
0.792086
0.76098
0.720402
0.671023
0.628923
0.626947
0.670091
0.762672
0.779956
0.78262
0.779956
0.782296
0.779956
0.781752
0.763421
0.632979
0.48992
0.48061
0.470663
0.469145
0.472177
0.490375
0.584094
0.673955
0.695254
0.683405
0.649862
0.500085
0.494978
0.771994
0.748998
0.712287
0.667724
0.620455
0.585284
0.588478
0.654678
0.765562
0.783688
0.779956
0.782188
0.779956
0.781922
0.779956
0.779061
0.681958
0.486481
0.468252
0.467895
0.46824
0.468077
0.468258
0.498344
0.560529
0.599021
0.579457
0.529224
0.494993
0.49498
0.723059
0.696979
0.656212
0.612378
0.574348
0.550018
0.558799
0.645222
0.771071
0.779956
0.782176
0.779956
0.782023
0.779956
0.781248
0.779956
0.71082
0.506755
0.467905
0.468248
0.467894
0.468291
0.46801
0.480652
0.556716
0.611236
0.613185
0.593362
0.562303
0.524222
0.667996
0.639952
0.599737
0.563804
0.539405
0.525226
0.536817
0.634111
0.773881
0.783543
0.779956
0.78173
0.779956
0.781452
0.779956
0.779557
0.698498
0.528523
0.468323
0.485853
0.582322
0.623528
0.637356
0.649823
0.708978
0.745052
0.762286
0.772741
0.774494
0.752693
0.614191
0.586668
0.5535
0.530246
0.517309
0.509673
0.518838
0.613204
0.774786
0.779956
0.78172
0.779956
0.781554
0.779956
0.780516
0.762231
0.658146
0.55664
0.597404
0.745867
0.812837
0.825725
0.829863
0.831713
0.834443
0.833729
0.834886
0.833729
0.83397
0.802175
0.570339
0.547059
0.524546
0.51171
0.504722
0.500909
0.503894
0.585565
0.7753
0.782778
0.779956
0.781216
0.779956
0.78084
0.779956
0.720815
0.62381
0.643037
0.768135
0.834509
0.833729
0.83483
0.833729
0.834888
0.833729
0.834887
0.833729
0.834884
0.833729
0.799068
0.540662
0.524147
0.50946
0.501897
0.497338
0.496932
0.493551
0.57317
0.775295
0.779956
0.781702
0.779956
0.780752
0.779956
0.759006
0.673642
0.623696
0.703645
0.81294
0.833729
0.834171
0.833729
0.834401
0.833729
0.834506
0.833729
0.83473
0.833729
0.83302
0.796096
0.521419
0.511079
0.500397
0.495152
0.492155
0.49436
0.491937
0.599637
0.772631
0.782032
0.779956
0.780641
0.779956
0.773301
0.71256
0.634634
0.645854
0.742926
0.813645
0.828026
0.830041
0.831681
0.833729
0.833996
0.833729
0.834083
0.833729
0.834211
0.82668
0.794132
0.505014
0.499813
0.491623
0.487728
0.486615
0.489039
0.491995
0.644765
0.776617
0.779956
0.781269
0.779956
0.773342
0.736914
0.664599
0.622274
0.671494
0.759256
0.798568
0.806382
0.810214
0.811317
0.81345
0.819559
0.826226
0.831687
0.83392
0.833729
0.818698
0.792391
0.487263
0.48563
0.480254
0.477937
0.478749
0.480974
0.503519
0.682784
0.779956
0.781355
0.779956
0.775159
0.735766
0.675029
0.623856
0.621637
0.681338
0.745911
0.767082
0.776794
0.782039
0.782127
0.781581
0.787826
0.79954
0.811707
0.823646
0.826301
0.810945
0.790265
0.470212
0.470014
0.467438
0.467112
0.469656
0.4747
0.518912
0.699982
0.780276
0.779956
0.780254
0.740555
0.664876
0.603951
0.579813
0.604624
0.659306
0.699678
0.72138
0.739913
0.74939
0.750392
0.748386
0.750422
0.761831
0.777795
0.800832
0.810478
0.802741
0.787099
0.457241
0.457285
0.456721
0.45811
0.462172
0.47106
0.538793
0.700133
0.777621
0.780135
0.75269
0.664124
0.570779
0.525047
0.518687
0.544601
0.583686
0.616896
0.65359
0.68686
0.706988
0.713711
0.713109
0.711523
0.71871
0.737118
0.768065
0.789309
0.79263
0.781721
0.449805
0.450127
0.450744
0.453638
0.459376
0.474115
0.562305
0.690186
0.74712
0.746118
0.671181
0.549145
0.486596
0.470156
0.468585
0.476944
0.492001
0.514663
0.556196
0.606503
0.645109
0.666174
0.672744
0.67193
0.673614
0.691453
0.723377
0.755994
0.77556
0.771793
0.447467
0.448498
0.450831
0.456398
0.465111
0.496968
0.577524
0.650787
0.672861
0.645904
0.533141
0.467653
0.451609
0.447941
0.447203
0.448481
0.452143
0.459921
0.477332
0.511355
0.559821
0.600962
0.623322
0.630136
0.630213
0.641318
0.666274
0.700276
0.741776
0.753547
0.44747
0.451111
0.458883
0.471454
0.495958
0.536633
0.568114
0.579882
0.551548
0.5026
0.455961
0.444003
0.443343
0.443378
0.443334
0.443397
0.443435
0.444834
0.449565
0.4609
0.485501
0.524626
0.563317
0.585317
0.58963
0.590529
0.599298
0.620818
0.678911
0.716903
0.448016
0.456706
0.48209
0.504355
0.528195
0.536483
0.530771
0.491123
0.462785
0.446314
0.443386
0.443138
0.443326
0.443163
0.443343
0.443221
0.443363
0.443338
0.443447
0.446212
0.454929
0.473878
0.50545
0.538622
0.550933
0.54281
0.534624
0.534893
0.589224
0.649337
0.452957
0.468233
0.510862
0.520782
0.527943
0.512587
0.473097
0.450074
0.443323
0.443318
0.4429
0.4433
0.442908
0.443316
0.442991
0.443334
0.443124
0.443357
0.443317
0.443421
0.445772
0.454348
0.472056
0.499564
0.515643
0.502655
0.488107
0.48178
0.507917
0.557465
0.528322
0.500453
0.515108
0.518346
0.503485
0.467778
0.447195
0.443262
0.443291
0.442869
0.443282
0.442637
0.443291
0.442715
0.443308
0.442736
0.443327
0.442971
0.443355
0.443287
0.443426
0.447193
0.458425
0.477531
0.489671
0.476597
0.467037
0.46477
0.47401
0.489673
0.617578
0.533275
0.510376
0.497251
0.466802
0.447451
0.443269
0.443284
0.442877
0.443268
0.442516
0.443272
0.442443
0.443286
0.442377
0.443302
0.442426
0.443324
0.442891
0.443355
0.443309
0.444052
0.452233
0.468026
0.476207
0.465363
0.464303
0.464509
0.47407
0.47433
0.625093
0.549463
0.49365
0.469406
0.449703
0.443315
0.443285
0.442887
0.443257
0.442545
0.443256
0.44232
0.443269
0.442317
0.443284
0.442388
0.4433
0.442437
0.443334
0.44288
0.443367
0.443374
0.448693
0.46376
0.472372
0.46436
0.464516
0.486847
0.510709
0.474447
0.597674
0.546456
0.475622
0.454293
0.444284
0.443292
0.442937
0.44325
0.442545
0.443242
0.442282
0.443253
0.442305
0.443298
0.442454
0.448948
0.442448
0.443316
0.442437
0.443338
0.442956
0.443389
0.446439
0.461419
0.471313
0.464545
0.491624
0.561183
0.576597
0.513802
0.543343
0.524391
0.464968
0.447503
0.443315
0.443035
0.443249
0.442511
0.443229
0.442237
0.443238
0.442255
0.443323
0.447916
0.495224
0.572777
0.487052
0.442364
0.443331
0.442438
0.443355
0.443141
0.445294
0.46101
0.47433
0.51937
0.57113
0.582729
0.582479
0.578851
0.499052
0.491654
0.456323
0.44402
0.443147
0.443251
0.442518
0.443222
0.441998
0.443222
0.442161
0.443314
0.450032
0.492995
0.665141
0.745121
0.666387
0.489066
0.442446
0.443347
0.442549
0.443392
0.445422
0.464064
0.506984
0.580065
0.582661
0.582479
0.582699
0.582598
0.480526
0.47019
0.451052
0.443279
0.443255
0.442617
0.443221
0.441742
0.443211
0.441819
0.44334
0.449482
0.470538
0.62304
0.763188
0.760205
0.762227
0.638131
0.466345
0.442549
0.443372
0.442972
0.446446
0.468681
0.547906
0.582504
0.582387
0.582661
0.582479
0.571818
0.47414
0.463929
0.450196
0.443296
0.442807
0.443225
0.441754
0.443206
0.441618
0.447138
0.463682
0.46424
0.497019
0.759232
0.760205
0.764285
0.760205
0.737916
0.547605
0.445355
0.442617
0.443435
0.449227
0.477612
0.556966
0.578224
0.580007
0.577133
0.566245
0.537949
0.471518
0.463629
0.450973
0.443156
0.443234
0.442054
0.443207
0.441396
0.451105
0.568382
0.542297
0.481632
0.630236
0.760203
0.765048
0.760205
0.763166
0.759779
0.609774
0.455465
0.443457
0.443113
0.453544
0.495573
0.542544
0.550896
0.553495
0.546975
0.53011
0.506144
0.470733
0.46454
0.453268
0.44405
0.44253
0.443216
0.44136
0.44349
0.525869
0.660477
0.61834
0.569794
0.760122
0.765467
0.760205
0.763529
0.760205
0.760523
0.635603
0.465242
0.443196
0.445599
0.465109
0.503769
0.515833
0.51646
0.516449
0.510588
0.501086
0.490812
0.470929
0.465694
0.456009
0.447453
0.443261
0.441841
0.44324
0.447741
0.552767
0.661411
0.647947
0.662695
0.764253
0.760205
0.764494
0.760205
0.761764
0.758156
0.635417
0.486188
0.450084
0.459867
0.482633
0.499564
0.499043
0.497196
0.49484
0.491751
0.488554
0.484415
0.471599
0.466448
0.457882
0.449895
0.442532
0.44324
0.441776
0.473894
0.524903
0.649967
0.647741
0.701238
0.760205
0.765346
0.760205
0.762443
0.760205
0.737812
0.609505
0.508144
0.472178
0.477437
0.489518
0.492647
0.49194
0.489789
0.487433
0.485518
0.483729
0.480829
0.472542
0.467397
0.458719
0.452391
0.445452
0.444396
0.461562
0.48288
0.485207
0.611258
0.639688
0.706015
0.764242
0.760205
0.763555
0.760205
0.759389
0.69469
0.578817
0.523674
0.498213
0.489575
0.489432
0.489139
0.488147
0.486126
0.484136
0.482553
0.480998
0.478243
0.474752
0.497807
0.470121
0.457472
0.452555
0.453868
0.461664
0.470746
0.46716
0.552748
0.619665
0.704986
0.760204
0.764435
0.760205
0.760897
0.739191
0.6459
0.570382
0.541834
0.518901
0.498381
0.490016
0.487628
0.4857
0.483617
0.481809
0.4804
0.478984
0.476134
0.474982
0.532695
0.532369
0.480878
0.459027
0.45516
0.455969
0.456131
0.456364
0.520314
0.593513
0.70065
0.762614
0.760205
0.762183
0.759122
0.699637
0.612695
0.572853
0.556483
0.532779
0.50746
0.49265
0.487298
0.48421
0.481808
0.480007
0.478731
0.477457
0.474255
0.464508
0.515824
0.532705
0.530052
0.477626
0.457673
0.45614
0.456332
0.466773
0.513672
0.566749
0.693848
0.760204
0.762286
0.760205
0.737718
0.656715
0.598169
0.575287
0.560542
0.538057
0.513685
0.496477
0.487927
0.483489
0.480576
0.478681
0.477536
0.47635
0.472331
0.454822
0.468532
0.500339
0.526109
0.513207
0.486356
0.477789
0.503607
0.556595
0.513155
0.539029
0.679896
0.760659
0.760204
0.750468
0.690782
0.621052
0.585195
0.569689
0.5553
0.536066
0.515539
0.49934
0.489109
0.483277
0.479785
0.477805
0.476828
0.475452
0.469913
0.45478
0.454822
0.462939
0.482347
0.507698
0.525763
0.543056
0.635199
0.686819
0.520623
0.513316
0.648714
0.748788
0.758722
0.70882
0.632182
0.587421
0.560539
0.546039
0.536335
0.525443
0.512224
0.499413
0.48965
0.483122
0.479289
0.477381
0.476492
0.474077
0.466393
0.454784
0.454775
0.454812
0.458796
0.475379
0.507582
0.553344
0.73866
0.785405
0.547005
0.499449
0.590624
0.702841
0.729877
0.651381
0.574895
0.549935
0.523455
0.506897
0.505219
0.505598
0.501642
0.495375
0.488131
0.482413
0.478973
0.477305
0.475827
0.470858
0.461514
0.45669
0.454798
0.45477
0.454818
0.458933
0.480359
0.545763
0.808099
0.819798
0.621816
0.499467
0.519851
0.612982
0.653041
0.598296
0.538596
0.51997
0.494357
0.47824
0.475957
0.480658
0.48577
0.486724
0.483911
0.480877
0.478676
0.476836
0.472931
0.464994
0.45605
0.462428
0.456946
0.454867
0.454778
0.454851
0.467725
0.584543
0.81867
0.816726
0.770405
0.513865
0.513096
0.514355
0.558927
0.553782
0.539899
0.506854
0.480143
0.471041
0.463344
0.463658
0.470581
0.47745
0.479277
0.479178
0.477794
0.473845
0.46652
0.457998
0.451389
0.462466
0.474995
0.505204
0.457949
0.454883
0.464703
0.668345
0.816727
0.820856
0.816722
0.701357
0.522628
0.523697
0.551465
0.55243
0.555869
0.516027
0.489453
0.51347
0.463437
0.462547
0.462584
0.471053
0.479419
0.478528
0.474493
0.467051
0.458742
0.452012
0.448427
0.500497
0.635162
0.689333
0.631199
0.514071
0.524672
0.717547
0.817338
0.816727
0.819811
0.814596
0.721104
0.675763
0.650452
0.619381
0.62386
0.603123
0.618457
0.695333
0.542117
0.467676
0.470786
0.479982
0.480214
0.476342
0.467353
0.458782
0.452145
0.448433
0.447231
0.632698
0.724233
0.723576
0.724255
0.635769
0.587498
0.68229
0.799913
0.818342
0.816727
0.818401
0.816583
0.813139
0.7922
0.752536
0.749761
0.76396
0.797689
0.818829
0.692334
0.51966
0.493908
0.492624
0.480346
0.468272
0.458543
0.451788
0.448164
0.44723
0.447188
0.669354
0.723576
0.72434
0.723576
0.698272
0.595047
0.590068
0.740974
0.816727
0.817644
0.816727
0.817693
0.816727
0.817946
0.816271
0.817574
0.816727
0.819461
0.816727
0.766403
0.543433
0.491289
0.483069
0.469428
0.458479
0.451281
0.447582
0.447226
0.447186
0.447188
0.636407
0.71071
0.723576
0.724338
0.723561
0.601819
0.541074
0.662307
0.778969
0.800683
0.812735
0.815237
0.817678
0.816727
0.817495
0.816727
0.818603
0.816727
0.819789
0.782125
0.537699
0.477505
0.469069
0.458901
0.451298
0.447283
0.44724
0.447186
0.447206
0.447179
0.586878
0.655895
0.701112
0.723576
0.723778
0.62972
0.538518
0.583005
0.694543
0.742849
0.750076
0.729301
0.74657
0.789443
0.814034
0.817407
0.816727
0.819703
0.816727
0.788738
0.535
0.468948
0.4599
0.452738
0.447642
0.447255
0.447244
0.447331
0.452189
0.447243
0.532375
0.578808
0.641638
0.692831
0.709863
0.661694
0.538428
0.530791
0.605581
0.662345
0.648698
0.594757
0.582291
0.64712
0.755189
0.807558
0.817512
0.816727
0.818637
0.792726
0.54553
0.464462
0.454217
0.45026
0.4478
0.448103
0.45551
0.477432
0.529869
0.463247
0.492696
0.516234
0.571997
0.627627
0.658607
0.655271
0.579269
0.53078
0.557489
0.583339
0.561009
0.515545
0.495429
0.494946
0.61685
0.758957
0.816708
0.818526
0.816727
0.773715
0.570948
0.466004
0.451949
0.451628
0.45525
0.475766
0.545934
0.550303
0.550728
0.488336
0.480531
0.490881
0.52077
0.561013
0.589466
0.609564
0.596726
0.564208
0.561253
0.535113
0.504379
0.481145
0.481309
0.488238
0.519071
0.685278
0.811638
0.816727
0.803245
0.684271
0.560011
0.499447
0.461439
0.455585
0.461073
0.525089
0.546813
0.546919
0.528144
0.484227
0.481005
0.490326
0.498607
0.515496
0.531417
0.550914
0.592406
0.592209
0.572322
0.516369
0.482881
0.477369
0.485953
0.500352
0.505572
0.65066
0.808619
0.812302
0.710724
0.514127
0.517574
0.517087
0.501506
0.460719
0.487148
0.525575
0.518402
0.495165
0.478026
0.463632
0.48348
0.489657
0.487238
0.491518
0.496476
0.517182
0.584534
0.592013
0.564758
0.502249
0.476016
0.477419
0.492146
0.501635
0.521629
0.6709
0.80215
0.778127
0.559819
0.463331
0.469687
0.485897
0.500297
0.493197
0.491931
0.495205
0.476538
0.464062
0.457008
0.452353
0.484542
0.485833
0.481574
0.481606
0.481663
0.509041
0.57324
0.574849
0.529904
0.482305
0.471401
0.477286
0.486995
0.495093
0.563631
0.701987
0.785444
0.711124
0.483367
0.457362
0.45711
0.457362
0.470321
0.493193
0.48579
0.471316
0.46066
0.454502
0.451312
0.450032
0.483581
0.481574
0.481609
0.481578
0.481607
0.505182
0.54936
0.527007
0.484398
0.466378
0.466339
0.471532
0.474883
0.491305
0.613403
0.713948
0.732578
0.607244
0.49908
0.458261
0.457316
0.456845
0.457351
0.473593
0.473472
0.462149
0.454691
0.451176
0.450026
0.45002
0.483628
0.489951
0.518247
0.542467
0.481587
0.500507
0.507962
0.479564
0.462151
0.459341
0.461072
0.463619
0.466877
0.498892
0.623454
0.687582
0.624374
0.507777
0.506509
0.474262
0.456508
0.457311
0.456856
0.460676
0.463971
0.4566
0.451531
0.450024
0.45002
0.450015
0.485835
0.529294
0.580672
0.579541
0.509693
0.495445
0.474756
0.460239
0.457086
0.457152
0.457876
0.460444
0.46923
0.507654
0.592872
0.603044
0.51105
0.470196
0.493007
0.487596
0.457373
0.456462
0.457315
0.460662
0.459586
0.452885
0.450049
0.450027
0.45001
0.45003
0.512233
0.576031
0.579542
0.581224
0.57117
0.488012
0.461425
0.457958
0.457984
0.457081
0.457977
0.465221
0.497412
0.522629
0.534964
0.506468
0.464745
0.458192
0.467369
0.477954
0.461798
0.457309
0.456565
0.460739
0.458952
0.45137
0.450041
0.450009
0.450074
0.457771
0.525596
0.579542
0.580281
0.579542
0.57961
0.473315
0.460699
0.460691
0.465431
0.461321
0.463422
0.487954
0.614876
0.603472
0.516137
0.47169
0.461559
0.457236
0.457335
0.460908
0.459143
0.456418
0.457306
0.460011
0.459292
0.451425
0.450014
0.450078
0.460271
0.52632
0.516889
0.574617
0.579542
0.580116
0.575184
0.482394
0.462996
0.503064
0.554838
0.546522
0.526929
0.637992
0.793692
0.758434
0.554992
0.475254
0.463903
0.457329
0.456795
0.45731
0.457258
0.4573
0.456093
0.457203
0.458862
0.452857
0.450093
0.45529
0.543101
0.706592
0.497714
0.546753
0.575659
0.579542
0.566563
0.564192
0.629598
0.745757
0.78909
0.772902
0.732793
0.81528
0.847654
0.850503
0.696696
0.532173
0.480595
0.45913
0.457337
0.456494
0.457307
0.456119
0.457271
0.456806
0.456941
0.455547
0.453029
0.465222
0.676952
0.806622
0.478766
0.516854
0.552355
0.575464
0.55662
0.660011
0.829301
0.847652
0.84976
0.847654
0.838468
0.847654
0.851632
0.847654
0.835801
0.68844
0.569072
0.530816
0.478594
0.457375
0.459485
0.473085
0.535405
0.502182
0.468615
0.462079
0.45962
0.48526
0.756269
0.803457
0.463622
0.490127
0.530226
0.567087
0.556779
0.73454
0.847653
0.850451
0.847654
0.84783
0.847654
0.849405
0.847654
0.851205
0.847654
0.789607
0.691537
0.663816
0.614857
0.490113
0.53908
0.692813
0.76054
0.707962
0.59164
0.530202
0.514304
0.642904
0.745555
0.755615
0.453401
0.469198
0.501554
0.55552
0.560252
0.787053
0.849097
0.847654
0.849461
0.847654
0.847748
0.847654
0.850214
0.847654
0.848512
0.791748
0.734423
0.728683
0.66902
0.683946
0.748787
0.78403
0.7854
0.784032
0.727636
0.681635
0.677873
0.695038
0.698189
0.674849
0.447695
0.456574
0.475442
0.514926
0.561868
0.788512
0.847654
0.849233
0.847654
0.84767
0.846961
0.848584
0.847654
0.848659
0.834556
0.774069
0.742524
0.737893
0.697551
0.776695
0.784032
0.785232
0.784032
0.746609
0.714512
0.714416
0.702006
0.665277
0.629393
0.581174
0.445069
0.449729
0.461119
0.486242
0.547984
0.660871
0.817126
0.847654
0.848997
0.846136
0.840907
0.847654
0.848198
0.83808
0.791905
0.742947
0.738981
0.732686
0.74778
0.784032
0.784678
0.775477
0.703039
0.620175
0.581997
0.580765
0.584388
0.567112
0.525891
0.483325
0.444555
0.446174
0.453095
0.467649
0.499776
0.538408
0.685087
0.829825
0.847654
0.8403
0.827192
0.846604
0.841684
0.799686
0.735803
0.70927
0.724345
0.732443
0.782127
0.784034
0.73305
0.639469
0.522607
0.479655
0.472958
0.469203
0.467409
0.463751
0.454901
0.446279
0.445741
0.444741
0.448397
0.458329
0.474065
0.498087
0.544627
0.7441
0.843756
0.82867
0.800729
0.833961
0.821616
0.753064
0.704187
0.700136
0.714648
0.730986
0.749444
0.697569
0.568709
0.477572
0.457214
0.44774
0.443563
0.441087
0.440432
0.440316
0.440282
0.440148
0.448878
0.444812
0.445627
0.452796
0.465183
0.480015
0.509752
0.63225
0.81279
0.816248
0.759174
0.803927
0.796316
0.730742
0.703192
0.699724
0.691367
0.658131
0.635558
0.536318
0.467175
0.45014
0.445551
0.443123
0.441792
0.440846
0.440236
0.440216
0.440115
0.440112
0.451484
0.448067
0.445533
0.449249
0.46147
0.478056
0.503909
0.575171
0.751559
0.806264
0.716357
0.758106
0.773901
0.731758
0.703461
0.674573
0.594011
0.549727
0.536245
0.467667
0.449253
0.44689
0.446802
0.44582
0.44546
0.445177
0.44263
0.441005
0.440204
0.440018
0.451502
0.459542
0.446048
0.447117
0.460318
0.48302
0.50476
0.538797
0.678557
0.797597
0.697299
0.69722
0.749202
0.733716
0.677852
0.568618
0.49473
0.521277
0.481326
0.452413
0.449208
0.451186
0.452109
0.451118
0.45252
0.459047
0.460759
0.463253
0.460637
0.440132
0.451714
0.509669
0.459183
0.447365
0.456801
0.475444
0.489787
0.508059
0.616453
0.784293
0.705852
0.643059
0.715407
0.732682
0.640584
0.47986
0.473581
0.490385
0.46573
0.451107
0.451098
0.456106
0.458175
0.458395
0.462398
0.475937
0.527103
0.571061
0.557536
0.453724
0.55047
0.543263
0.467391
0.446861
0.447424
0.454042
0.463292
0.484571
0.577902
0.752591
0.726449
0.634848
0.678449
0.732245
0.65912
0.478112
0.460221
0.465134
0.45582
0.455898
0.466733
0.497273
0.54792
0.613245
0.692526
0.760981
0.807867
0.829277
0.82565
0.716339
0.573354
0.519315
0.457831
0.441872
0.441083
0.441304
0.444315
0.462596
0.530159
0.690432
0.726486
0.634916
0.660667
0.732105
0.701832
0.508605
0.457591
0.457277
0.457583
0.542503
0.698087
0.75696
0.796285
0.8255
0.856334
0.887426
0.898098
0.898087
0.898594
0.862391
0.506808
0.478045
0.445925
0.440915
0.441257
0.445929
0.44663
0.451573
0.474062
0.594305
0.716134
0.663199
0.66655
0.729513
0.725668
0.537407
0.457347
0.457762
0.568935
0.748594
0.815689
0.830924
0.84298
0.850467
0.857953
0.876832
0.896033
0.898206
0.898088
0.872746
0.468038
0.45202
0.441164
0.441282
0.448846
0.60131
0.529804
0.466269
0.46707
0.516315
0.660282
0.673822
0.674301
0.714672
0.696726
0.466614
0.459659
0.567538
0.711385
0.78573
0.795206
0.799874
0.81401
0.827233
0.839512
0.859323
0.880673
0.895121
0.898268
0.873325
0.467826
0.447412
0.441379
0.451305
0.656512
0.838782
0.788122
0.640172
0.548363
0.532158
0.59039
0.653964
0.658749
0.674633
0.633102
0.512611
0.618365
0.68119
0.726425
0.75201
0.765442
0.771259
0.787184
0.80596
0.823566
0.844164
0.862686
0.879494
0.898067
0.872512
0.467736
0.451953
0.455094
0.548812
0.826365
0.902514
0.910291
0.867876
0.796714
0.678129
0.594252
0.604216
0.616633
0.618726
0.617695
0.655566
0.692941
0.685841
0.689756
0.718415
0.738048
0.745781
0.762139
0.783728
0.80516
0.826617
0.843763
0.858888
0.878697
0.858317
0.458085
0.457125
0.472044
0.74063
0.867726
0.895968
0.921194
0.922964
0.916034
0.867767
0.715502
0.60688
0.606449
0.606058
0.621485
0.746415
0.695384
0.655566
0.654535
0.688439
0.709924
0.718427
0.735158
0.757657
0.779966
0.801255
0.818742
0.829506
0.842725
0.820455
0.471278
0.495537
0.701223
0.855597
0.868139
0.880262
0.920664
0.929049
0.92935
0.928762
0.886273
0.763383
0.694223
0.710253
0.769938
0.802439
0.695373
0.62381
0.620023
0.656531
0.681195
0.692141
0.707342
0.725606
0.744147
0.762008
0.778423
0.781172
0.776794
0.687524
0.674751
0.784395
0.857096
0.866963
0.866995
0.866507
0.919604
0.931532
0.930729
0.934341
0.935836
0.912866
0.883907
0.890957
0.909071
0.84817
0.689222
0.594624
0.585414
0.623904
0.651692
0.664885
0.676537
0.68616
0.693929
0.697471
0.70324
0.68576
0.615605
0.45891
0.77921
0.863413
0.863364
0.866866
0.866957
0.858062
0.915658
0.932817
0.932069
0.935465
0.937077
0.936651
0.937236
0.936683
0.938814
0.885868
0.701149
0.574922
0.556744
0.594057
0.622082
0.634376
0.639565
0.637288
0.630628
0.610447
0.581916
0.51574
0.452213
0.43563
0.784476
0.8632
0.860503
0.866837
0.866866
0.854508
0.905096
0.932959
0.933614
0.936299
0.936651
0.937369
0.936683
0.938735
0.936716
0.91711
0.724581
0.565058
0.536038
0.568499
0.592226
0.599869
0.598681
0.582095
0.557513
0.519712
0.471435
0.444534
0.43559
0.435424
0.782419
0.863535
0.857024
0.866741
0.866834
0.854042
0.891343
0.93072
0.934573
0.936601
0.937396
0.936683
0.937809
0.936716
0.939228
0.935943
0.759097
0.562922
0.522883
0.546724
0.563439
0.566622
0.5543
0.527034
0.491147
0.46215
0.442066
0.435698
0.43543
0.436676
0.782239
0.863038
0.854487
0.865989
0.866741
0.8541
0.881601
0.924683
0.934716
0.936725
0.936683
0.937815
0.936716
0.938696
0.936749
0.938116
0.811458
0.572343
0.515064
0.528867
0.540656
0.535996
0.513264
0.482329
0.458224
0.442345
0.435791
0.435574
0.435908
0.471126
0.785066
0.863303
0.849923
0.862167
0.866231
0.856697
0.876344
0.915347
0.933534
0.936683
0.937688
0.936716
0.938175
0.936749
0.93932
0.936783
0.871117
0.597268
0.511513
0.514838
0.52378
0.508657
0.481171
0.457916
0.442749
0.435878
0.435588
0.435998
0.458829
0.53331
0.785142
0.862873
0.845351
0.857659
0.860329
0.856983
0.8709
0.904081
0.929891
0.936781
0.936716
0.938181
0.936749
0.93882
0.936783
0.938805
0.914529
0.662171
0.510591
0.504062
0.507587
0.484724
0.460218
0.443341
0.435984
0.435798
0.436317
0.467085
0.641992
0.767008
0.785898
0.863219
0.842986
0.853868
0.852499
0.852174
0.861989
0.891211
0.923127
0.936631
0.937896
0.936749
0.938501
0.936783
0.939473
0.936817
0.934286
0.765588
0.527204
0.495629
0.489427
0.46655
0.446381
0.436736
0.436216
0.448066
0.47895
0.643348
0.775371
0.832621
0.788341
0.862707
0.841589
0.850468
0.84498
0.845716
0.850474
0.876112
0.912918
0.935537
0.936749
0.938447
0.936783
0.938978
0.936817
0.939645
0.936853
0.854559
0.589765
0.490916
0.475356
0.455368
0.43973
0.436907
0.464082
0.531129
0.592872
0.691158
0.796549
0.821474
0.788051
0.862922
0.841473
0.845121
0.837105
0.838766
0.838283
0.858742
0.899353
0.932034
0.938059
0.936783
0.938695
0.936817
0.939628
0.936853
0.939098
0.912923
0.722353
0.502
0.469364
0.451953
0.441147
0.446359
0.51082
0.584733
0.626127
0.687578
0.74788
0.790167
0.785192
0.862538
0.841697
0.838042
0.827376
0.829041
0.825955
0.841027
0.88406
0.927142
0.936783
0.938567
0.936817
0.93904
0.936853
0.940218
0.936889
0.938196
0.857896
0.598834
0.472716
0.45423
0.445804
0.451866
0.513779
0.584985
0.580894
0.61753
0.700973
0.76022
0.781896
0.862474
0.841441
0.829363
0.816294
0.816287
0.813587
0.825031
0.870329
0.923095
0.938243
0.936817
0.938699
0.936853
0.939535
0.936889
0.940288
0.936924
0.927206
0.791527
0.51597
0.46137
0.450613
0.450838
0.484069
0.532592
0.5339
0.564375
0.652048
0.723371
0.771966
0.853551
0.82901
0.815748
0.803732
0.802023
0.800288
0.810844
0.861334
0.9222
0.936817
0.938544
0.936853
0.938918
0.936889
0.940107
0.936924
0.940063
0.936924
0.912896
0.713347
0.484857
0.455822
0.451851
0.468831
0.499782
0.509039
0.522803
0.597172
0.677811
0.737299
0.827288
0.803748
0.793602
0.784541
0.784005