/*--------------------------------*- C++ -*----------------------------------*\
| =========                 |                                                 |
| \\      /  F ield         | OpenFOAM: The Open Source CFD Toolbox           |
|  \\    /   O peration     | Version:  2.3.0                                 |
|   \\  /    A nd           | Web:      www.OpenFOAM.org                      |
|    \\/     M anipulation  |                                                 |
\*---------------------------------------------------------------------------*/
FoamFile
{
    version     2.0;
    format      ascii;
    class       volScalarField;
    location    "0.98";
    object      p;
}
// * * * * * * * * * * * * * * * * * * * * * * * * * * * * * * * * * * * * * //

dimensions      [1 -1 -2 0 0 0 0];

internalField   nonuniform List<scalar> 
6000
(
105331
105326
105320
105315
105308
105302
105304
105307
105310
105318
105327
105330
105331
105340
105360
105371
105364
105362
105369
105381
105393
105405
105425
105455
105481
105490
105469
105456
105451
105451
105253
105248
105246
105246
105246
105248
105254
105260
105261
105267
105272
105274
105281
105284
105295
105305
105306
105310
105312
105318
105326
105333
105342
105360
105384
105394
105386
105382
105381
105385
105196
105195
105198
105204
105210
105214
105218
105223
105228
105237
105243
105241
105243
105248
105256
105264
105269
105270
105273
105281
105287
105287
105286
105291
105315
105330
105331
105325
105326
105333
105154
105158
105166
105175
105182
105184
105186
105189
105195
105203
105208
105207
105208
105212
105222
105230
105235
105233
105234
105237
105234
105225
105206
105188
105215
105244
105261
105265
105269
105270
105123
105128
105139
105150
105157
105158
105155
105156
105161
105167
105174
105174
105174
105178
105185
105193
105200
105196
105194
105184
105161
105131
105088
105052
105089
105138
105173
105192
105199
105192
105092
105097
105109
105121
105130
105131
105126
105125
105129
105134
105141
105143
105141
105144
105143
105144
105149
105151
105141
105109
105063
105010
104951
104930
104951
105017
105062
105091
105100
105097
105055
105061
105073
105083
105094
105102
105101
105097
105099
105103
105109
105113
105110
105106
105094
105082
105077
105077
105054
105008
104951
104876
104847
104848
104845
104892
104940
104964
104980
104990
105013
105020
105027
105033
105046
105064
105074
105074
105073
105074
105075
105078
105073
105057
105031
105007
104988
104969
104937
104887
104813
104784
104786
104792
104785
104789
104811
104822
104843
104867
104967
104972
104968
104971
104985
105008
105033
105045
105046
105043
105035
105030
105020
104991
104955
104920
104884
104846
104798
104751
104735
104738
104745
104749
104746
104740
104739
104743
104753
104774
104910
104907
104888
104888
104903
104930
104963
104991
105003
104996
104980
104967
104948
104911
104868
104817
104758
104711
104694
104691
104698
104706
104712
104715
104714
104710
104707
104709
104712
104722
104820
104800
104773
104769
104786
104823
104864
104900
104923
104923
104912
104897
104870
104827
104770
104698
104665
104658
104659
104664
104671
104678
104683
104685
104686
104685
104684
104684
104685
104686
104686
104656
104631
104623
104631
104668
104736
104786
104817
104828
104826
104812
104783
104732
104659
104634
104632
104635
104639
104643
104649
104654
104657
104659
104660
104659
104659
104659
104659
104655
104593
104585
104581
104579
104581
104588
104607
104644
104681
104702
104710
104707
104683
104628
104607
104607
104612
104616
104620
104624
104628
104632
104634
104635
104635
104635
104634
104634
104634
104630
104566
104566
104566
104567
104568
104568
104570
104575
104581
104585
104588
104590
104587
104580
104582
104588
104593
104598
104602
104606
104610
104612
104612
104612
104612
104611
104611
104610
104609
104608
104558
104559
104560
104560
104560
104560
104558
104556
104553
104552
104551
104551
104553
104558
104564
104569
104575
104581
104586
104590
104593
104594
104593
104591
104590
104589
104588
104588
104586
104588
104553
104553
104554
104554
104553
104551
104549
104545
104541
104539
104537
104537
104538
104542
104546
104552
104558
104565
104571
104575
104577
104577
104574
104571
104569
104567
104566
104565
104565
104568
104547
104547
104547
104546
104545
104542
104539
104534
104529
104525
104523
104522
104523
104526
104529
104534
104543
104551
104557
104561
104562
104560
104557
104552
104549
104547
104545
104544
104544
104547
104540
104540
104540
104538
104536
104533
104527
104521
104514
104510
104507
104506
104506
104508
104510
104515
104525
104534
104540
104544
104544
104543
104539
104533
104529
104526
104524
104523
104524
104527
104533
104533
104532
104530
104527
104522
104514
104505
104497
104492
104489
104488
104487
104488
104489
104493
104502
104513
104519
104522
104522
104521
104519
104514
104509
104505
104504
104504
104508
104508
104525
104524
104523
104521
104517
104509
104499
104487
104477
104473
104470
104468
104467
104466
104467
104468
104473
104483
104489
104491
104491
104492
104495
104494
104489
104486
104485
104487
104491
104488
104515
104514
104513
104510
104504
104494
104480
104465
104456
104452
104449
104447
104445
104444
104443
104442
104443
104450
104453
104451
104449
104450
104458
104466
104464
104461
104461
104463
104462
104453
104503
104503
104501
104496
104488
104474
104458
104442
104434
104430
104428
104426
104424
104422
104421
104419
104417
104420
104417
104408
104398
104394
104399
104413
104417
104413
104410
104406
104392
104386
104489
104488
104484
104477
104467
104451
104434
104419
104411
104409
104407
104405
104403
104401
104399
104397
104396
104393
104379
104357
104334
104322
104320
104326
104328
104325
104317
104306
104294
104289
104469
104467
104462
104453
104441
104426
104409
104396
104390
104387
104386
104384
104382
104380
104379
104377
104374
104361
104326
104291
104277
104270
104268
104268
104269
104270
104267
104263
104259
104257
104443
104440
104433
104424
104412
104398
104384
104373
104368
104367
104365
104364
104362
104361
104359
104357
104349
104320
104279
104261
104256
104252
104250
104249
104249
104249
104248
104247
104246
104245
104409
104406
104399
104390
104380
104370
104359
104351
104347
104346
104346
104345
104343
104342
104340
104337
104320
104283
104259
104252
104248
104245
104242
104240
104239
104238
104237
104236
104236
104235
104370
104367
104361
104355
104348
104341
104334
104328
104326
104326
104327
104326
104325
104324
104323
104315
104291
104262
104250
104245
104241
104237
104234
104232
104230
104228
104227
104226
104225
104225
104329
104326
104323
104319
104316
104313
104309
104305
104306
104307
104308
104309
104309
104309
104306
104293
104267
104249
104241
104237
104233
104229
104226
104223
104221
104219
104217
104216
104215
104215
104288
104286
104285
104284
104285
104286
104287
104285
104287
104289
104291
104293
104294
104294
104288
104271
104250
104238
104233
104229
104225
104221
104218
104215
104212
104209
104207
104206
104205
104204
104246
104245
104246
104249
104254
104261
104267
104267
104270
104272
104275
104278
104280
104278
104268
104251
104236
104228
104224
104219
104215
104211
104208
104205
104202
104200
104197
104195
104194
104193
104202
104203
104207
104213
104222
104235
104247
104250
104253
104256
104260
104264
104265
104260
104247
104233
104223
104217
104212
104208
104203
104200
104196
104194
104191
104188
104186
104183
104182
104181
104155
104158
104163
104173
104187
104206
104224
104232
104237
104241
104246
104249
104246
104236
104222
104211
104205
104201
104197
104193
104189
104185
104181
104179
104177
104175
104173
104171
104169
104168
104104
104108
104115
104127
104146
104171
104194
104209
104219
104226
104230
104228
104215
104198
104184
104177
104175
104175
104174
104172
104168
104164
104161
104158
104158
104157
104158
104157
104155
104154
104049
104053
104061
104074
104095
104124
104154
104179
104195
104205
104205
104186
104159
104137
104124
104118
104118
104123
104131
104137
104138
104136
104133
104131
104131
104134
104137
104139
104138
104137
103990
103994
104001
104015
104037
104066
104101
104134
104157
104165
104143
104110
104082
104061
104048
104042
104042
104049
104061
104075
104088
104093
104093
104092
104094
104099
104107
104114
104117
104115
103926
103931
103939
103953
103975
104004
104039
104070
104084
104073
104047
104018
103993
103973
103961
103955
103956
103963
103976
103992
104011
104027
104036
104039
104042
104050
104061
104074
104083
104084
103856
103867
103878
103893
103914
103941
103967
103979
103978
103964
103941
103916
103893
103875
103863
103858
103861
103869
103883
103900
103920
103940
103957
103966
103972
103980
103990
104004
104022
104030
103790
103803
103818
103834
103853
103872
103880
103880
103872
103855
103832
103807
103784
103765
103753
103749
103755
103766
103783
103802
103823
103845
103863
103876
103884
103890
103896
103904
103919
103934
103740
103748
103761
103774
103787
103792
103790
103783
103768
103747
103721
103693
103666
103644
103628
103625
103634
103653
103676
103700
103724
103746
103765
103778
103785
103789
103791
103789
103794
103807
103699
103700
103706
103713
103714
103710
103702
103687
103667
103640
103609
103574
103540
103508
103484
103476
103496
103526
103561
103593
103622
103647
103667
103679
103685
103686
103681
103672
103671
103682
103658
103653
103650
103647
103640
103630
103616
103595
103568
103535
103495
103453
103408
103360
103312
103288
103328
103386
103438
103484
103521
103551
103572
103584
103588
103584
103579
103578
103579
103578
103607
103600
103590
103577
103565
103551
103532
103506
103472
103431
103385
103333
103276
103213
103163
103148
103169
103233
103313
103374
103423
103458
103483
103497
103501
103498
103500
103506
103510
103507
103540
103535
103520
103504
103490
103473
103450
103419
103379
103330
103277
103221
103161
103107
103086
103085
103086
103116
103191
103271
103329
103373
103402
103421
103427
103431
103439
103446
103450
103452
103459
103456
103443
103428
103413
103394
103370
103334
103287
103230
103174
103125
103077
103046
103046
103048
103047
103053
103097
103176
103245
103294
103330
103355
103366
103375
103383
103391
103397
103402
103374
103371
103362
103350
103335
103316
103289
103250
103193
103125
103087
103052
103019
103010
103013
103015
103017
103018
103039
103093
103168
103223
103264
103295
103310
103322
103331
103340
103347
103351
103289
103288
103281
103271
103257
103237
103208
103162
103095
103046
103022
102998
102974
102978
102981
102984
102986
102989
103002
103040
103104
103158
103202
103233
103253
103268
103279
103287
103292
103294
103207
103206
103202
103192
103180
103159
103127
103076
103028
102997
102978
102954
102942
102947
102950
102953
102956
102961
102971
103001
103050
103099
103141
103168
103190
103206
103218
103226
103229
103229
103126
103126
103123
103116
103105
103085
103056
103015
102984
102961
102943
102922
102916
102917
102919
102922
102926
102932
102941
102965
103004
103045
103076
103100
103121
103137
103149
103155
103158
103159
103047
103047
103046
103042
103031
103015
102990
102967
102945
102929
102911
102893
102887
102886
102888
102891
102896
102904
102911
102926
102955
102985
103011
103033
103051
103066
103076
103083
103087
103088
102972
102969
102969
102967
102960
102947
102932
102915
102904
102897
102878
102862
102855
102854
102856
102860
102866
102874
102877
102884
102902
102925
102947
102967
102983
102996
103006
103013
103017
103019
102901
102896
102894
102893
102890
102882
102870
102859
102854
102857
102842
102828
102822
102820
102823
102828
102835
102840
102839
102842
102852
102869
102887
102904
102918
102930
102939
102945
102949
102951
102838
102833
102827
102822
102818
102811
102802
102794
102791
102798
102799
102791
102786
102786
102789
102795
102801
102802
102799
102800
102805
102816
102830
102843
102856
102866
102874
102880
102884
102886
102780
102778
102768
102756
102747
102735
102724
102711
102706
102728
102751
102752
102750
102751
102755
102762
102765
102763
102759
102758
102760
102766
102775
102786
102796
102805
102812
102817
102821
102823
102718
102719
102710
102695
102677
102659
102637
102612
102611
102658
102701
102714
102714
102716
102722
102727
102726
102722
102718
102716
102715
102718
102723
102730
102738
102746
102752
102757
102761
102764
102649
102649
102645
102633
102612
102588
102563
102539
102543
102587
102649
102675
102679
102680
102686
102687
102682
102678
102674
102671
102669
102669
102672
102677
102683
102689
102695
102700
102704
102708
102577
102577
102574
102567
102553
102532
102510
102495
102500
102527
102592
102633
102642
102642
102641
102636
102628
102624
102621
102619
102618
102618
102620
102624
102629
102635
102640
102646
102651
102654
102504
102505
102505
102503
102495
102483
102468
102462
102467
102477
102528
102577
102596
102594
102582
102567
102558
102554
102552
102556
102560
102564
102567
102571
102577
102582
102588
102594
102599
102602
102437
102434
102432
102440
102441
102438
102431
102433
102435
102435
102459
102506
102527
102525
102506
102484
102475
102471
102468
102481
102495
102506
102513
102519
102525
102532
102539
102545
102550
102552
102377
102369
102365
102370
102388
102402
102402
102405
102405
102404
102403
102420
102431
102431
102420
102402
102391
102385
102379
102400
102430
102448
102460
102469
102476
102484
102491
102497
102502
102504
102332
102326
102326
102329
102347
102372
102379
102382
102380
102379
102373
102369
102366
102362
102354
102343
102332
102328
102328
102338
102370
102396
102411
102421
102430
102438
102446
102452
102455
102457
102303
102302
102303
102306
102315
102340
102360
102364
102361
102358
102354
102348
102341
102335
102327
102318
102311
102308
102309
102310
102329
102352
102367
102378
102387
102395
102402
102407
102411
102412
102285
102285
102285
102286
102291
102310
102339
102348
102345
102342
102339
102335
102329
102322
102315
102307
102301
102299
102297
102296
102305
102320
102332
102341
102348
102355
102360
102364
102366
102367
102269
102269
102267
102266
102268
102280
102311
102329
102331
102330
102328
102326
102320
102313
102305
102297
102291
102287
102284
102284
102289
102296
102301
102306
102311
102315
102320
102321
102322
102322
102250
102251
102248
102246
102246
102250
102276
102303
102313
102316
102318
102318
102314
102306
102296
102286
102278
102273
102270
102270
102274
102273
102272
102272
102274
102276
102278
102276
102274
102275
102223
102225
102225
102223
102221
102219
102233
102263
102281
102290
102297
102302
102304
102298
102285
102272
102262
102257
102255
102256
102258
102250
102243
102238
102236
102235
102234
102234
102234
102233
102181
102186
102191
102192
102190
102186
102185
102203
102226
102244
102255
102260
102265
102273
102268
102253
102242
102238
102240
102243
102239
102225
102211
102202
102198
102198
102194
102192
102193
102193
102124
102130
102140
102146
102148
102144
102135
102139
102156
102178
102192
102198
102204
102214
102229
102225
102216
102217
102225
102230
102215
102191
102173
102162
102160
102157
102154
102153
102153
102151
102057
102063
102073
102084
102089
102088
102080
102079
102090
102107
102119
102127
102137
102151
102172
102181
102184
102191
102208
102210
102178
102145
102124
102116
102116
102113
102111
102110
102106
102101
101984
101989
101998
102008
102016
102018
102017
102020
102028
102037
102044
102055
102070
102090
102112
102131
102146
102160
102177
102157
102129
102101
102075
102063
102061
102059
102056
102049
102043
102038
101907
101911
101917
101925
101934
101942
101949
101957
101963
101964
101967
101979
102001
102028
102052
102078
102102
102119
102117
102091
102068
102046
102024
102008
102000
101995
101987
101979
101971
101967
101826
101827
101828
101832
101848
101861
101875
101884
101884
101878
101881
101895
101922
101961
101990
102022
102054
102069
102040
102014
101996
101978
101962
101948
101935
101924
101914
101903
101895
101890
101742
101737
101734
101739
101755
101773
101790
101794
101786
101779
101781
101795
101825
101875
101919
101961
101999
101996
101951
101928
101915
101902
101889
101877
101863
101851
101838
101825
101814
101807
101661
101655
101656
101659
101664
101682
101693
101688
101677
101670
101669
101676
101698
101759
101826
101884
101914
101893
101862
101838
101826
101820
101811
101801
101789
101775
101761
101745
101729
101715
101594
101592
101592
101591
101589
101598
101594
101580
101564
101555
101549
101542
101541
101601
101694
101763
101779
101775
101768
101752
101741
101738
101733
101725
101713
101699
101683
101663
101637
101612
101540
101538
101536
101532
101527
101522
101501
101471
101451
101442
101435
101419
101415
101448
101529
101598
101632
101655
101667
101666
101660
101658
101655
101648
101638
101625
101609
101583
101546
101520
101493
101490
101484
101476
101467
101446
101404
101377
101366
101362
101358
101354
101361
101372
101403
101456
101504
101543
101570
101581
101581
101579
101575
101571
101565
101555
101540
101513
101485
101473
101448
101445
101438
101426
101411
101376
101346
101335
101331
101329
101328
101331
101339
101343
101349
101369
101405
101440
101479
101501
101501
101494
101487
101491
101494
101491
101483
101467
101455
101453
101404
101401
101394
101382
101364
101336
101323
101320
101319
101317
101317
101320
101325
101328
101329
101334
101350
101371
101398
101426
101423
101417
101411
101415
101426
101435
101439
101440
101437
101439
101363
101360
101355
101345
101331
101316
101312
101310
101310
101309
101309
101311
101313
101316
101319
101323
101331
101342
101354
101370
101378
101376
101376
101378
101384
101395
101407
101415
101422
101426
101323
101323
101320
101316
101308
101303
101302
101300
101300
101299
101300
101300
101302
101306
101311
101316
101322
101330
101338
101345
101352
101357
101361
101365
101369
101375
101383
101394
101405
101411
101284
101286
101289
101291
101293
101295
101293
101290
101289
101289
101289
101290
101292
101297
101303
101309
101315
101321
101328
101333
101339
101346
101353
101358
101361
101365
101370
101378
101385
101390
101245
101249
101255
101265
101276
101287
101285
101281
101278
101278
101279
101279
101281
101287
101294
101301
101307
101314
101319
101324
101331
101338
101344
101347
101349
101352
101355
101358
101359
101359
101204
101209
101218
101233
101250
101269
101276
101271
101266
101266
101267
101267
101269
101275
101283
101291
101299
101306
101310
101316
101323
101328
101330
101323
101318
101317
101318
101315
101309
101302
101160
101165
101176
101192
101213
101236
101257
101259
101252
101250
101252
101252
101254
101259
101267
101278
101288
101296
101301
101306
101310
101303
101281
101263
101251
101244
101239
101235
101230
101227
101115
101119
101130
101146
101168
101193
101220
101237
101234
101230
101233
101233
101232
101235
101245
101259
101273
101281
101285
101285
101267
101235
101207
101185
101168
101156
101148
101143
101140
101140
101069
101071
101080
101095
101117
101143
101173
101201
101207
101201
101205
101207
101204
101205
101217
101237
101252
101250
101243
101226
101189
101154
101125
101101
101082
101064
101051
101043
101043
101049
101022
101020
101026
101040
101060
101086
101118
101153
101170
101163
101164
101170
101167
101165
101179
101206
101207
101188
101174
101141
101102
101067
101039
101016
100996
100978
100961
100950
100950
100961
100972
100970
100971
100981
100998
101023
101057
101096
101120
101117
101112
101119
101118
101113
101122
101144
101131
101114
101089
101051
101012
100980
100954
100932
100915
100906
100898
100894
100893
100891
100922
100920
100916
100918
100928
100949
100984
101029
101061
101066
101054
101056
101057
101051
101047
101056
101052
101035
101002
100958
100922
100904
100892
100883
100875
100870
100867
100867
100867
100868
100873
100869
100858
100850
100849
100855
100887
100943
100995
101009
100993
100987
100989
100986
100980
100983
100980
100962
100920
100888
100872
100865
100862
100860
100859
100858
100857
100857
100857
100857
100822
100811
100793
100775
100755
100724
100757
100825
100903
100941
100928
100917
100921
100926
100926
100929
100918
100890
100867
100853
100851
100851
100851
100851
100851
100851
100851
100851
100851
100851
100753
100741
100720
100691
100643
100625
100635
100682
100765
100841
100856
100850
100858
100870
100876
100873
100846
100839
100833
100834
100837
100839
100841
100842
100843
100844
100845
100845
100845
100846
100682
100671
100647
100609
100586
100578
100578
100589
100622
100694
100761
100779
100794
100808
100811
100786
100784
100795
100806
100815
100821
100826
100829
100832
100834
100836
100838
100840
100840
100841
100624
100614
100594
100573
100561
100561
100558
100555
100560
100583
100642
100694
100717
100731
100729
100709
100728
100754
100776
100791
100801
100809
100815
100820
100824
100828
100831
100833
100835
100836
100581
100573
100561
100549
100548
100549
100547
100544
100542
100543
100559
100596
100626
100638
100641
100643
100672
100710
100742
100763
100778
100789
100799
100807
100813
100819
100823
100827
100829
100831
100549
100541
100535
100534
100536
100538
100536
100535
100533
100530
100528
100535
100549
100559
100567
100584
100615
100661
100704
100732
100751
100766
100779
100790
100800
100808
100814
100819
100823
100827
100523
100520
100520
100522
100525
100526
100526
100524
100523
100521
100518
100515
100517
100522
100529
100541
100566
100612
100664
100699
100722
100740
100755
100770
100782
100793
100802
100809
100815
100821
100510
100510
100511
100513
100514
100515
100516
100514
100513
100512
100511
100509
100509
100511
100514
100516
100530
100569
100623
100662
100688
100709
100727
100743
100757
100771
100782
100794
100800
100801
100501
100502
100502
100503
100504
100505
100506
100505
100504
100503
100502
100501
100500
100501
100501
100500
100506
100535
100585
100624
100652
100674
100692
100710
100725
100740
100754
100763
100765
100762
100493
100493
100493
100494
100494
100495
100496
100495
100494
100493
100492
100491
100490
100489
100489
100487
100488
100508
100549
100586
100613
100635
100654
100671
100689
100705
100719
100728
100726
100716
100484
100484
100484
100485
100485
100485
100486
100486
100484
100483
100482
100480
100479
100478
100476
100475
100472
100485
100518
100550
100574
100595
100614
100633
100654
100674
100690
100698
100694
100688
100475
100475
100475
100475
100476
100476
100477
100476
100475
100473
100471
100470
100468
100466
100464
100462
100458
100465
100489
100516
100537
100557
100578
100601
100627
100651
100668
100674
100669
100662
100466
100466
100466
100466
100467
100467
100467
100467
100465
100463
100461
100459
100457
100455
100453
100450
100447
100447
100463
100485
100504
100524
100549
100579
100611
100638
100653
100661
100649
100645
100457
100457
100457
100457
100458
100457
100458
100457
100455
100453
100451
100448
100446
100444
100441
100438
100435
100431
100440
100457
100476
100499
100529
100567
100604
100631
100646
100641
100637
100635
100449
100448
100448
100448
100448
100448
100448
100447
100445
100443
100440
100438
100435
100433
100430
100427
100424
100419
100420
100433
100452
100478
100514
100559
100599
100617
100626
100626
100626
100626
100441
100440
100440
100440
100439
100439
100438
100437
100435
100432
100429
100427
100424
100422
100419
100416
100412
100408
100404
100410
100429
100457
100497
100542
100576
100593
100605
100613
100616
100616
100433
100432
100432
100432
100431
100430
100428
100426
100424
100421
100418
100416
100414
100411
100409
100405
100402
100397
100392
100391
100405
100434
100472
100516
100549
100566
100584
100598
100603
100605
100426
100425
100425
100424
100422
100420
100418
100415
100412
100409
100407
100405
100403
100401
100398
100395
100392
100388
100383
100379
100384
100407
100443
100483
100518
100540
100561
100579
100587
100590
100420
100419
100418
100416
100414
100411
100408
100404
100400
100397
100396
100395
100393
100391
100389
100386
100383
100380
100376
100371
100369
100382
100413
100450
100485
100511
100534
100555
100568
100573
100414
100413
100412
100409
100406
100402
100398
100393
100388
100386
100385
100384
100383
100381
100379
100377
100374
100372
100369
100365
100362
100364
100384
100418
100453
100480
100505
100527
100544
100552
100409
100407
100404
100401
100397
100393
100388
100382
100377
100375
100375
100374
100373
100372
100370
100368
100366
100364
100362
100360
100357
100355
100363
100389
100423
100452
100475
100497
100515
100526
100401
100399
100394
100390
100386
100382
100377
100371
100366
100365
100365
100365
100364
100363
100361
100360
100358
100357
100355
100354
100352
100351
100352
100367
100396
100425
100447
100466
100484
100496
100383
100384
100381
100375
100371
100368
100364
100359
100356
100356
100356
100355
100355
100354
100353
100352
100351
100349
100348
100348
100347
100347
100347
100354
100374
100400
100421
100439
100453
100464
100352
100356
100357
100356
100354
100353
100351
100349
100347
100347
100347
100347
100346
100345
100344
100343
100343
100342
100341
100341
100342
100343
100343
100346
100359
100380
100399
100415
100427
100436
100308
100322
100330
100334
100335
100336
100338
100340
100339
100339
100339
100338
100337
100337
100336
100335
100334
100334
100334
100334
100335
100337
100338
100340
100347
100363
100380
100394
100405
100411
100267
100284
100301
100312
100318
100322
100328
100332
100332
100332
100331
100330
100329
100328
100327
100327
100326
100326
100326
100326
100327
100329
100331
100333
100338
100349
100362
100375
100384
100388
100256
100262
100271
100289
100301
100311
100320
100326
100326
100325
100323
100322
100321
100319
100319
100318
100317
100317
100317
100318
100319
100321
100323
100324
100328
100335
100345
100355
100362
100365
100252
100252
100257
100267
100284
100300
100313
100321
100321
100318
100315
100313
100312
100311
100310
100309
100308
100308
100308
100309
100310
100311
100313
100313
100316
100320
100326
100333
100340
100342
100250
100250
100251
100256
100267
100287
100306
100316
100315
100311
100307
100305
100303
100301
100300
100299
100299
100299
100299
100299
100300
100302
100302
100301
100302
100303
100306
100309
100312
100316
100249
100249
100248
100249
100255
100270
100298
100310
100307
100303
100299
100295
100293
100292
100291
100290
100289
100289
100289
100289
100290
100291
100290
100288
100286
100285
100284
100283
100280
100287
100247
100247
100247
100247
100248
100256
100280
100293
100296
100293
100288
100285
100283
100282
100281
100280
100279
100279
100278
100279
100279
100280
100277
100273
100269
100265
100261
100256
100251
100255
100245
100245
100245
100245
100245
100248
100256
100270
100280
100279
100275
100273
100272
100271
100270
100270
100269
100269
100268
100268
100268
100268
100265
100258
100251
100245
100238
100233
100232
100231
100243
100243
100243
100243
100243
100243
100246
100254
100263
100263
100261
100261
100260
100260
100260
100259
100259
100258
100258
100258
100257
100256
100252
100243
100234
100225
100218
100215
100217
100216
100241
100241
100241
100241
100240
100240
100241
100243
100247
100246
100247
100248
100249
100249
100249
100249
100249
100248
100248
100247
100246
100245
100240
100229
100218
100209
100204
100204
100205
100205
100239
100238
100238
100238
100238
100237
100236
100234
100232
100231
100234
100237
100238
100239
100239
100239
100239
100239
100238
100237
100236
100235
100228
100217
100206
100198
100195
100195
100195
100196
100236
100236
100236
100235
100235
100234
100231
100225
100217
100218
100223
100226
100228
100229
100230
100230
100230
100229
100229
100228
100227
100225
100219
100207
100196
100190
100188
100188
100187
100189
100233
100233
100233
100232
100231
100228
100223
100213
100206
100209
100214
100217
100218
100220
100221
100221
100221
100221
100220
100219
100218
100217
100211
100199
100189
100184
100182
100181
100181
100183
100230
100230
100229
100228
100226
100221
100212
100200
100198
100202
100206
100208
100210
100211
100212
100212
100212
100212
100212
100211
100210
100210
100204
100192
100183
100179
100177
100176
100176
100179
100226
100226
100225
100223
100220
100212
100200
100192
100194
100196
100199
100201
100202
100204
100204
100205
100205
100204
100204
100204
100203
100204
100199
100186
100178
100173
100171
100171
100172
100175
100222
100221
100220
100217
100210
100200
100189
100187
100189
100191
100193
100194
100195
100196
100197
100197
100197
100197
100197
100197
100197
100198
100194
100180
100173
100167
100165
100166
100168
100173
100216
100215
100213
100208
100199
100188
100183
100184
100186
100186
100187
100188
100189
100189
100190
100190
100190
100190
100190
100190
100190
100193
100187
100174
100167
100162
100161
100163
100168
100167
100209
100208
100204
100197
100187
100181
100181
100182
100182
100182
100182
100182
100183
100183
100183
100183
100183
100183
100183
100183
100184
100185
100180
100169
100164
100161
100161
100165
100167
100163
100200
100198
100194
100186
100180
100179
100180
100180
100179
100178
100177
100177
100176
100176
100176
100176
100176
100176
100176
100177
100177
100176
100174
100166
100163
100163
100164
100165
100163
100159
100190
100187
100183
100178
100176
100177
100178
100178
100176
100174
100172
100170
100170
100170
100169
100169
100170
100170
100170
100170
100170
100169
100169
100165
100165
100165
100163
100161
100153
100149
100178
100176
100174
100172
100173
100174
100174
100174
100172
100169
100165
100164
100163
100163
100163
100163
100163
100163
100164
100165
100165
100164
100165
100164
100164
100160
100153
100145
100137
100135
100166
100166
100166
100167
100168
100169
100169
100168
100165
100161
100158
100156
100156
100155
100155
100156
100156
100157
100158
100159
100161
100161
100160
100162
100158
100148
100138
100127
100119
100127
100155
100156
100158
100160
100161
100161
100161
100158
100155
100151
100148
100148
100148
100148
100148
100148
100149
100150
100152
100154
100157
100158
100157
100158
100153
100138
100125
100116
100116
100123
100145
100147
100149
100150
100151
100151
100149
100146
100142
100139
100139
100139
100139
100140
100140
100141
100142
100143
100145
100148
100152
100154
100154
100153
100147
100132
100121
100116
100117
100123
100138
100138
100139
100139
100139
100138
100136
100133
100130
100129
100130
100130
100131
100132
100132
100133
100134
100135
100137
100140
100145
100148
100148