/*--------------------------------*- C++ -*----------------------------------*\
| =========                 |                                                 |
| \\      /  F ield         | OpenFOAM: The Open Source CFD Toolbox           |
|  \\    /   O peration     | Version:  2.3.0                                 |
|   \\  /    A nd           | Web:      www.OpenFOAM.org                      |
|    \\/     M anipulation  |                                                 |
\*---------------------------------------------------------------------------*/
FoamFile
{
    version     2.0;
    format      ascii;
    class       volScalarField;
    location    "0.98";
    object      Theta.particles;
}
// * * * * * * * * * * * * * * * * * * * * * * * * * * * * * * * * * * * * * //

dimensions      [0 2 -2 0 0 0 0];

internalField   nonuniform List<scalar> 
6000
(
0.0010783
0.000570784
0.000474034
0.000469132
0.000496146
0.000675355
0.0020563
0.00353077
0.00133681
0.000411867
0.000380315
0.00070953
0.00137538
0.00039968
0.000309294
0.000345917
0.00030605
0.000756635
0.000856433
0.000665614
0.000559295
0.000553071
0.000505753
0.000215518
4.47735e-05
1.06312e-06
0.000146279
0.000683607
0.000367399
0.000153544
3.41014e-05
2.53057e-05
1.45088e-05
9.106e-06
6.70908e-06
1.47408e-05
4.419e-05
4.50474e-05
7.98963e-05
5.508e-05
4.13275e-05
4.01401e-05
1.7646e-05
6.88905e-06
4.39928e-06
1.93437e-06
5.76055e-06
1.63497e-05
2.96227e-05
1.96326e-05
1.77884e-05
1.83901e-05
2.94153e-05
5.62804e-05
6.28569e-05
9.43998e-05
0.000113543
7.7763e-05
2.70185e-05
4.56361e-06
9.19879e-05
4.87271e-05
1.13142e-05
4.31332e-06
3.84425e-06
8.00897e-06
1.39223e-06
1.65497e-05
3.88798e-05
7.56813e-05
3.58779e-05
2.43931e-06
4.77959e-06
7.22146e-06
2.48814e-06
4.00084e-06
3.24791e-06
1.15498e-06
1.54897e-06
1.68491e-05
3.64979e-05
1.67492e-05
6.51796e-06
0.000109875
0.000158773
0.000132918
6.94073e-05
1.05113e-05
8.78993e-06
9.8378e-06
6.08384e-05
5.68606e-06
2.84648e-06
1.65293e-06
1.71434e-06
2.8665e-06
3.19604e-06
3.08651e-06
3.45775e-05
6.31815e-05
1.5094e-05
4.48872e-06
5.14114e-06
4.9577e-06
5.51529e-07
4.76033e-06
7.5094e-06
6.20245e-06
3.72358e-06
4.69284e-06
7.82205e-06
2.78598e-06
8.21066e-08
5.95963e-05
0.00017841
0.000145447
2.29394e-05
4.78835e-06
9.70497e-06
1.05277e-06
4.25282e-05
6.55362e-06
2.63005e-06
2.16776e-06
1.59568e-06
1.72981e-06
6.05485e-06
4.15617e-06
1.35945e-05
6.16435e-05
1.8933e-05
3.67397e-06
6.92185e-06
6.5795e-06
5.87737e-07
6.96596e-06
1.90085e-05
6.74759e-06
3.96266e-06
4.40517e-06
1.08838e-06
1.99875e-05
6.23152e-05
6.44115e-05
7.43535e-05
6.84185e-05
3.70827e-06
6.98397e-06
1.25808e-05
4.5134e-07
4.80699e-05
8.40601e-06
5.91836e-06
5.35935e-06
2.8711e-06
1.76279e-06
7.61669e-06
1.19171e-05
9.03847e-06
3.61595e-05
1.52673e-05
2.65052e-06
7.39662e-06
8.81159e-06
4.88467e-07
4.89135e-06
1.96644e-05
1.14856e-05
1.08378e-05
3.43958e-05
5.49541e-05
0.000137847
0.000275281
0.000195714
6.45503e-05
6.92883e-05
1.77769e-05
1.35773e-05
1.81095e-05
2.87485e-06
6.99271e-05
1.10901e-05
1.37111e-05
9.29601e-06
2.69157e-06
7.36977e-07
6.02138e-06
1.4174e-05
6.40064e-06
9.65526e-06
9.53181e-06
2.19265e-06
7.32541e-06
1.4316e-05
5.49609e-07
8.72507e-06
1.25182e-05
5.04266e-05
0.000140741
0.000175998
0.000219982
0.000340646
0.000316084
0.000315741
0.00034918
0.000203916
0.000118274
0.00011091
0.000116607
8.64153e-05
0.000116502
1.81065e-05
2.44177e-05
1.5411e-05
5.10637e-06
6.29426e-07
7.21642e-06
8.69961e-06
4.72732e-06
2.09153e-06
4.32027e-06
6.677e-07
1.20538e-05
2.28418e-05
1.76407e-06
1.33677e-05
2.49264e-05
0.000118411
0.000263213
0.000363284
0.000370776
0.000198596
4.19091e-05
0.000119592
0.000553534
0.000724599
0.000374758
0.000508357
0.000265033
0.000206179
0.000195401
2.50721e-05
2.96486e-05
2.62646e-05
1.60386e-05
1.57176e-05
1.81267e-05
2.61186e-05
6.31172e-06
1.37621e-06
8.61622e-07
4.9857e-07
3.54318e-05
3.42661e-05
9.02093e-06
2.41021e-05
5.88599e-05
0.000276697
0.000454272
0.000454493
0.000160088
1.48891e-05
7.72426e-06
2.68238e-05
0.000184568
0.000435509
0.000606395
0.000407688
0.000103291
0.000231194
0.000290146
2.30967e-05
4.99338e-05
5.60814e-05
6.00324e-05
6.72627e-05
8.15997e-05
8.15658e-05
4.27822e-05
1.56051e-05
1.05247e-05
3.38487e-05
0.000101295
5.41038e-05
3.95047e-05
8.73769e-05
0.0003326
0.00059737
0.000419257
7.56419e-05
6.46276e-06
1.18493e-05
4.17939e-06
4.77353e-06
2.5876e-05
3.23066e-05
7.78969e-05
1.28882e-05
5.65889e-06
0.000183851
0.000425988
0.000109669
0.000303422
0.000432087
0.000321614
0.000243729
0.000176181
0.000213419
0.000198476
0.000146261
0.000115041
0.000162949
0.000168532
0.000103784
0.000128831
0.000390832
0.000591752
0.000140686
9.028e-06
7.84008e-07
5.43129e-06
9.1876e-06
3.14918e-06
7.58314e-07
1.88239e-06
1.79372e-06
5.89028e-07
1.58195e-06
2.96758e-06
0.000183561
0.00132636
0.00159084
0.0015914
0.00113203
0.000899122
0.000549251
0.000542189
0.000341166
0.000403763
0.000320452
0.000307407
0.000266346
0.000197109
0.000179031
0.000362037
0.000483208
3.05654e-05
6.15632e-07
3.8505e-07
3.64544e-07
4.24628e-06
9.12358e-06
2.58738e-06
3.84673e-07
3.64764e-07
2.52038e-07
3.97194e-07
2.47759e-06
8.67256e-06
0.000204853
0.00249606
0.00226058
0.0011119
0.000321846
0.000217413
0.000443248
0.000673181
0.000544078
0.00047605
0.000541131
0.000400019
0.000307417
0.000189152
0.000279706
0.000339946
6.07687e-06
5.4798e-07
6.08906e-07
8.90987e-07
4.89826e-07
2.47467e-06
7.41293e-06
3.32256e-06
6.4239e-07
4.63435e-07
4.0246e-07
4.87329e-07
6.63744e-06
3.52771e-05
0.000149277
0.00115983
0.000186719
6.12456e-06
7.15563e-07
5.15114e-07
1.35629e-06
5.26926e-05
0.000272859
0.000344714
0.000511745
0.000474602
0.000364948
0.000265338
0.000161318
3.15551e-06
1.03133e-06
5.05134e-07
1.21183e-06
1.40125e-06
6.58436e-07
2.31388e-06
5.37205e-06
3.6183e-06
1.19518e-06
1.06368e-06
9.6283e-07
1.14556e-06
1.0575e-05
6.59135e-05
0.000114786
0.00019789
5.28577e-07
6.86932e-07
8.06899e-07
1.00965e-06
1.03755e-06
1.70552e-06
1.03359e-05
1.89726e-05
4.54537e-05
9.09258e-05
0.000152634
0.000176303
3.60671e-05
1.95422e-06
1.72085e-06
9.62688e-07
1.85552e-06
1.57773e-06
1.18604e-06
2.42725e-06
4.97286e-06
3.46912e-06
1.83259e-06
2.09456e-06
1.77045e-06
2.58133e-06
1.13113e-05
2.26483e-05
0.000113456
0.000135146
7.26527e-07
7.79313e-07
1.01381e-06
1.10379e-06
1.17062e-06
1.41327e-06
6.22902e-06
6.63801e-06
7.65143e-06
1.54428e-05
5.29564e-05
0.000154996
5.45735e-05
2.87959e-06
2.70867e-06
1.66688e-06
1.89833e-06
1.55874e-06
2.05278e-06
3.29961e-06
5.49471e-06
3.85068e-06
2.49641e-06
3.25342e-06
4.24791e-06
6.6453e-06
5.69708e-06
2.78676e-06
0.000122598
0.000116766
8.68726e-07
1.01734e-06
1.20026e-06
1.39846e-06
1.46605e-06
1.52847e-06
5.75447e-06
7.10419e-06
7.80079e-06
1.32427e-05
2.43678e-05
0.000110168
6.97108e-05
4.87387e-06
3.15349e-06
2.14209e-06
2.4025e-06
2.34395e-06
3.21311e-06
5.12227e-06
6.55407e-06
4.08068e-06
3.1e-06
5.39452e-06
1.05146e-05
7.29984e-06
4.04286e-06
6.28283e-06
8.92671e-05
9.69436e-05
1.06196e-06
1.28756e-06
1.53345e-06
1.67751e-06
1.61171e-06
1.50104e-06
3.9938e-06
6.67103e-06
7.17312e-06
9.94988e-06
1.52993e-05
5.67548e-05
5.56817e-05
6.16221e-06
3.05589e-06
1.9251e-06
2.46784e-06
3.06961e-06
3.83663e-06
6.07072e-06
8.15151e-06
5.61582e-06
3.72191e-06
7.9103e-06
1.55818e-05
1.04419e-05
1.09487e-05
8.62221e-06
6.71968e-05
7.59247e-05
1.37142e-06
1.55341e-06
1.88943e-06
1.91989e-06
1.67021e-06
1.46754e-06
2.388e-06
4.63812e-06
6.18764e-06
6.69347e-06
6.67813e-06
2.44622e-05
4.47873e-05
5.15842e-06
2.44268e-06
1.87721e-06
1.3601e-06
2.78939e-06
4.24571e-06
6.71806e-06
1.01847e-05
7.97079e-06
4.27864e-06
8.25185e-06
1.66717e-05
1.66375e-05
1.70939e-05
1.34319e-05
4.90799e-05
5.53917e-05
1.70331e-06
1.91884e-06
2.05823e-06
1.96086e-06
1.48266e-06
1.24144e-06
1.93555e-06
3.21092e-06
4.39285e-06
3.52724e-06
2.7522e-06
7.76146e-06
1.20632e-05
3.6086e-06
1.20963e-06
1.17791e-05
6.02615e-07
2.16649e-06
3.72058e-06
5.64012e-06
8.67393e-06
1.05507e-05
5.19148e-06
7.38649e-06
1.18898e-05
1.0883e-05
9.38416e-06
2.70627e-05
5.06609e-05
3.86054e-05
2.01738e-06
2.167e-06
2.06653e-06
1.76297e-06
1.37826e-06
1.48251e-06
2.0757e-06
1.4924e-06
2.60638e-06
2.35116e-06
1.44037e-06
2.343e-06
2.03825e-06
1.02514e-06
1.4225e-06
3.40074e-05
2.66607e-06
1.96726e-06
3.31798e-06
4.21013e-06
4.36321e-06
8.36565e-06
8.69312e-06
5.44888e-06
4.29146e-06
1.70844e-06
5.45385e-06
0.000122567
0.000111199
2.59945e-05
2.19766e-06
2.09688e-06
1.81583e-06
1.49535e-06
1.6676e-06
3.00216e-06
1.98894e-06
5.98334e-07
1.41203e-06
1.68476e-06
9.82868e-07
6.55942e-07
4.79882e-07
7.23617e-07
8.14798e-07
3.16631e-05
1.86369e-05
7.32414e-06
1.91851e-05
1.81978e-05
8.28335e-06
4.18311e-06
9.32039e-06
0.00015183
0.000333554
0.000430397
0.00050979
0.000709366
0.00029576
1.73875e-05
2.02189e-06
1.72052e-06
1.36728e-06
1.36154e-06
2.37781e-06
4.9616e-06
1.70533e-06
5.4547e-07
1.23436e-06
1.31421e-06
8.07255e-07
2.8776e-07
3.47799e-07
8.27333e-07
2.40509e-06
4.03119e-06
8.41712e-05
5.19901e-05
5.96532e-05
0.000104483
0.000193811
0.000268067
0.000579576
0.00115327
0.0013108
0.00126134
0.0012356
0.000707634
0.000457819
1.19309e-05
1.51657e-06
1.1458e-06
9.77431e-07
1.37976e-06
3.01516e-06
4.86987e-06
1.71074e-06
6.94517e-07
1.18603e-06
1.45492e-06
1.86375e-06
3.60969e-07
4.11279e-07
1.20771e-06
3.10838e-06
5.1436e-06
0.000107686
0.000123263
0.000537814
0.000942696
0.000951239
0.00102044
0.00109048
0.000630291
0.000388539
0.000319929
0.000227367
4.0158e-05
0.000327479
8.7131e-06
9.12051e-07
6.56907e-07
7.53485e-07
1.38324e-06
2.8605e-06
3.44469e-06
2.22059e-06
1.03572e-06
1.45278e-06
4.81902e-06
2.52737e-06
1.25436e-06
1.08448e-06
2.54224e-06
4.51296e-06
2.87321e-05
0.00034282
0.000729522
0.000502365
0.000209554
0.000136612
9.09084e-05
7.20695e-06
1.97927e-07
4.11529e-07
4.53431e-07
3.41848e-07
6.57492e-07
0.000198812
7.27512e-06
4.60413e-07
3.68732e-07
5.88919e-07
1.22065e-06
2.2618e-06
2.61757e-06
4.03017e-06
1.11101e-06
2.14408e-06
1.34786e-05
4.61696e-06
2.86225e-06
1.50029e-06
3.86782e-06
4.55762e-06
0.000201576
0.000567471
0.000155639
2.35941e-06
1.42213e-06
1.49768e-06
1.51359e-06
1.3875e-06
1.29993e-06
1.15812e-06
1.34427e-06
1.13554e-06
1.06527e-06
0.00015444
6.53072e-06
2.34407e-07
2.23982e-07
4.59166e-07
1.06744e-06
1.76121e-06
2.84528e-06
6.96833e-06
6.76268e-07
3.49998e-06
1.20184e-05
3.72809e-06
1.69474e-06
2.3452e-06
3.03915e-06
1.66751e-05
0.000288567
0.000204355
1.05924e-05
2.73484e-06
1.78015e-06
1.56569e-06
1.55447e-06
1.49297e-06
1.32399e-06
1.4975e-06
1.29049e-06
1.22903e-06
1.16777e-06
0.00011136
5.13775e-06
1.86051e-07
2.22857e-07
4.62247e-07
1.10622e-06
1.8325e-06
4.86581e-06
1.33197e-05
5.86031e-07
3.37976e-06
5.79677e-06
1.70317e-06
1.57788e-06
2.57806e-06
2.80683e-06
5.33896e-05
0.000172896
3.93111e-05
5.09361e-06
3.29656e-06
2.28497e-06
1.62205e-06
1.52707e-06
1.5497e-06
1.33363e-06
1.53249e-06
1.18048e-06
1.26014e-06
1.26695e-06
7.45395e-05
3.18362e-06
2.6489e-07
3.4466e-07
6.17595e-07
1.34682e-06
2.66112e-06
1.11492e-05
2.17728e-05
1.20235e-06
2.67737e-06
2.21067e-06
1.22161e-06
2.15895e-06
2.70439e-06
5.68734e-06
5.66769e-05
6.36634e-05
1.17002e-05
5.00331e-06
3.96605e-06
3.11593e-06
2.21527e-06
1.68738e-06
1.78419e-06
1.7074e-06
1.47448e-06
1.22789e-06
1.28224e-06
1.41153e-06
4.41788e-05
1.4323e-06
3.42906e-07
4.61153e-07
7.74226e-07
1.56768e-06
4.13321e-06
2.81251e-05
2.70033e-05
2.34407e-06
3.38079e-06
1.73869e-06
1.55769e-06
3.13755e-06
3.90495e-06
1.04951e-05
3.30191e-05
2.21038e-05
8.4118e-06
6.06578e-06
5.04127e-06
4.05937e-06
3.27193e-06
2.47454e-06
2.20631e-06
2.2049e-06
1.71277e-06
1.70116e-06
1.38514e-06
1.51286e-06
2.22668e-05
4.41981e-07
3.08652e-07
4.5369e-07
7.80741e-07
1.58215e-06
5.02515e-06
5.14199e-05
2.9874e-05
3.45669e-06
3.5754e-06
1.97741e-06
2.86049e-06
4.17791e-06
5.08843e-06
1.02061e-05
1.65819e-05
1.32533e-05
9.36333e-06
7.73552e-06
6.21284e-06
5.04928e-06
4.17648e-06
3.26819e-06
2.54206e-06
2.61583e-06
2.14638e-06
2.48713e-06
1.87928e-06
1.7952e-06
9.29096e-06
1.11814e-07
2.47234e-07
4.45576e-07
8.34709e-07
1.82513e-06
8.22585e-06
6.70092e-05
2.34312e-05
3.83063e-06
3.10559e-06
2.12302e-06
4.15429e-06
3.84442e-06
3.91521e-06
5.85802e-06
8.55638e-06
9.28217e-06
9.19086e-06
8.96638e-06
7.53695e-06
5.92573e-06
4.81884e-06
3.91453e-06
2.88036e-06
2.51372e-06
2.53081e-06
2.68066e-06
2.75872e-06
2.51852e-06
3.81722e-06
6.44545e-08
3.50968e-07
7.15752e-07
1.55644e-06
4.25861e-06
2.64121e-05
4.88487e-05
5.10659e-06
7.17738e-06
3.64843e-06
2.36462e-06
4.14884e-06
2.67157e-06
1.37696e-06
1.61625e-06
3.16959e-06
5.08609e-06
6.22613e-06
6.99251e-06
7.04139e-06
6.23158e-06
5.03284e-06
4.2031e-06
3.40873e-06
2.58902e-06
2.68596e-06
2.96689e-06
3.35118e-06
3.58284e-06
3.61128e-06
2.6247e-07
8.69219e-07
2.32168e-06
5.85752e-06
1.93801e-05
3.56418e-05
1.11122e-05
1.26037e-05
1.45744e-05
2.40849e-06
1.45991e-05
2.98878e-06
7.84993e-07
6.97067e-07
7.74135e-07
8.54366e-07
9.37183e-07
1.31309e-06
2.9741e-06
4.81738e-06
4.54753e-06
4.19619e-06
3.65686e-06
3.16854e-06
2.56748e-06
2.61379e-06
3.31822e-06
3.40341e-06
4.16534e-06
9.16684e-06
5.22017e-07
1.61257e-06
9.09006e-06
2.38253e-05
1.89992e-05
1.21477e-05
2.01434e-05
2.12712e-05
7.32699e-06
3.15772e-05
4.32449e-06
1.26346e-06
1.80823e-06
1.90962e-06
1.88773e-06
1.84418e-06
1.34033e-06
8.93472e-07
7.40189e-07
9.59425e-07
2.14807e-06
2.36571e-06
2.32008e-06
2.33787e-06
2.0035e-06
2.11886e-06
2.87315e-06
3.01156e-06
3.15207e-06
2.2248e-05
1.19472e-06
1.8219e-06
2.04217e-05
8.98155e-06
6.93196e-06
1.55486e-05
1.81634e-05
1.00273e-05
3.89632e-06
1.80403e-06
5.45289e-06
4.39976e-06
3.06235e-06
2.58614e-06
2.73651e-06
2.54185e-06
2.48832e-06
1.99737e-06
1.18862e-06
6.19807e-07
4.37235e-07
6.52583e-07
9.10324e-07
1.10855e-06
1.20223e-06
1.3647e-06
1.9546e-06
2.18187e-06
1.19885e-06
3.69576e-05
2.91568e-05
2.13631e-05
1.78295e-06
3.90926e-06
8.52712e-06
9.51235e-06
6.1431e-06
1.37718e-06
2.67449e-06
5.80128e-06
4.15628e-06
3.58334e-06
2.78095e-06
3.28327e-06
3.12243e-06
3.66458e-06
3.10747e-06
2.79262e-06
2.06439e-06
1.25024e-06
5.09788e-07
2.36322e-07
1.84069e-07
2.96301e-07
5.34116e-07
7.22842e-07
1.02546e-06
1.49354e-06
1.3029e-06
4.52448e-05
0.000155215
2.47394e-05
6.46639e-06
5.19942e-06
5.29121e-06
3.54781e-06
1.49835e-06
3.22243e-06
4.38466e-06
3.30729e-06
3.56211e-06
2.6325e-06
3.37229e-06
3.17946e-06
4.75506e-06
4.73333e-06
5.44533e-06
3.90805e-06
3.19103e-06
2.02841e-06
1.02113e-06
3.96589e-07
1.85521e-07
2.07337e-07
3.4593e-07
4.62491e-07
7.90762e-07
1.63064e-06
2.3788e-06
3.82923e-05
7.83189e-06
3.11948e-05
8.29363e-06
3.9436e-06
2.32944e-06
1.42634e-06
2.9839e-06
3.83703e-06
3.33419e-06
3.62417e-06
2.57626e-06
3.1346e-06
2.5637e-06
4.35969e-06
5.10478e-06
1.02633e-05
7.82824e-06
7.48381e-06
4.60013e-06
3.38826e-06
2.02112e-06
7.19965e-07
5.24231e-07
6.11408e-07
6.89246e-07
9.55987e-07
7.19419e-06
1.21435e-05
3.70544e-05
3.06189e-05
9.6969e-07
1.03516e-05
5.55391e-06
1.86734e-06
1.2011e-06
2.09486e-06
3.68388e-06
3.57502e-06
4.12425e-06
3.00503e-06
3.1664e-06
2.0652e-06
3.09835e-06
3.33825e-06
1.06437e-05
1.68219e-05
2.12558e-05
1.04302e-05
8.35015e-06
4.73825e-06
3.43607e-06
1.67969e-06
9.8695e-07
1.41442e-06
2.06e-06
6.13232e-06
2.49891e-05
0.000119629
9.26573e-05
4.41308e-05
1.18957e-06
4.33267e-06
2.62157e-06
9.02926e-07
1.20276e-06
3.14995e-06
3.67477e-06
4.80417e-06
3.89836e-06
3.85183e-06
2.11271e-06
2.30562e-06
1.96028e-06
3.61968e-06
3.74836e-06
4.97678e-05
2.23837e-05
2.35036e-05
1.00968e-05
7.92672e-06
4.49615e-06
3.16078e-06
1.39028e-06
2.52881e-06
6.29591e-06
4.26226e-05
0.000126956
6.35392e-05
2.46062e-05
4.9239e-05
1.81472e-06
2.43186e-06
1.31571e-06
7.26323e-07
1.9758e-06
3.40198e-06
5.20279e-06
5.14133e-06
5.7475e-06
2.96045e-06
2.12483e-06
1.11755e-06
1.03786e-06
9.43712e-07
0.000406306
0.00078839
0.000446203
3.94162e-06
1.69184e-05
8.53161e-06
6.72181e-06
3.97813e-06
1.83736e-06
4.64231e-06
2.96043e-05
0.00010504
2.87211e-05
1.19399e-06
1.54696e-06
6.81105e-06
2.69826e-06
2.95094e-06
1.04489e-06
7.58938e-07
2.64433e-06
4.71857e-06
5.93805e-06
9.15097e-06
6.00603e-06
4.09153e-06
1.01022e-06
6.29923e-07
9.31957e-07
0.000250992
0.00112866
0.000709172
0.000499477
0.00040798
4.32281e-06
1.69236e-05
7.01412e-06
5.32225e-06
2.37741e-06
9.85137e-06
6.61269e-05
5.18372e-06
3.81486e-07
4.8646e-07
6.09572e-07
2.96883e-06
2.78563e-06
3.39684e-06
1.13321e-06
1.20249e-06
3.49658e-06
5.23705e-06
1.09864e-05
1.23472e-05
1.56772e-05
5.17292e-06
3.93307e-07
8.20661e-07
2.42434e-05
0.000986982
0.000573134
1.54601e-05
9.28109e-05
0.000435295
0.000149941
1.34906e-05
1.1535e-05
5.29536e-06
3.22865e-06
2.08963e-05
2.31205e-05
2.9174e-07
5.93764e-07
6.31719e-07
7.28513e-07
2.21787e-06
2.55529e-06
2.99997e-06
1.51717e-06
1.63506e-06
3.62025e-06
8.4603e-06
1.28252e-05
3.64954e-05
3.00657e-05
7.26505e-05
4.18489e-05
5.41063e-06
0.000388198
0.000858303
9.32356e-06
7.03915e-07
7.23404e-07
7.99111e-05
0.000392752
3.11541e-06
8.78053e-06
5.32085e-06
4.76449e-06
4.57467e-05
1.82128e-06
6.7735e-07
7.77109e-07
8.02809e-07
7.50771e-07
1.11756e-06
1.8491e-06
3.34493e-06
2.3914e-06
1.58526e-06
4.88488e-06
7.04825e-06
2.16425e-05
4.46305e-05
0.00011108
0.000271547
8.49027e-05
0.000194368
0.000655074
5.9176e-05
3.66873e-07
9.57007e-07
1.98989e-06
1.27502e-06
0.000241073
2.53381e-05
4.98159e-06
2.97039e-06
9.01451e-06
3.93432e-05
2.83146e-07
6.82932e-07
7.25028e-07
6.75164e-07
4.924e-07
3.71422e-07
9.82227e-07
3.03133e-06
4.7401e-06
2.41934e-06
3.81941e-06
7.81248e-06
1.13947e-05
5.97176e-06
0.000303044
2.33954e-05
0.000104904
0.000273209
9.20016e-05
1.41962e-06
9.72367e-07
7.44695e-07
2.63774e-06
1.89201e-06
6.06021e-05
0.000138999
2.3525e-06
3.47975e-06
4.55347e-05
3.6793e-06
4.52594e-07
5.76675e-07
5.65768e-07
4.6768e-07
2.97572e-07
1.3255e-07
4.56732e-07
1.85475e-06
6.05841e-06
5.01913e-06
4.43668e-06
4.71685e-06
7.23969e-06
2.14673e-05
0.000126298
4.15149e-05
9.53162e-05
0.00010471
6.76677e-06
2.2529e-06
1.37932e-06
6.78374e-07
2.9946e-06
3.71913e-06
5.33571e-06
0.000141916
2.36768e-05
3.62359e-05
2.53892e-05
1.57667e-07
5.37308e-07
6.52974e-07
6.35197e-07
5.26305e-07
3.85392e-07
1.92674e-07
3.19367e-07
8.80515e-07
4.21246e-06
7.63432e-06
3.36149e-06
6.85682e-06
3.91736e-06
6.9248e-05
5.20282e-05
0.00010178
9.50548e-05
3.88858e-05
6.30569e-06
3.33477e-06
1.30758e-06
1.18385e-06
2.73651e-06
4.3836e-06
4.71854e-06
2.79594e-05
5.46368e-05
2.27448e-05
7.68275e-07
2.49036e-07
5.06362e-07
6.87362e-07
7.39747e-07
6.74069e-07
5.8189e-07
3.92832e-07
7.64787e-07
6.94468e-06
4.61263e-06
8.87963e-06
1.01143e-05
8.34197e-06
2.8817e-05
8.6553e-07
8.07817e-05
0.000263778
0.000112604
4.70929e-05
8.07618e-06
4.83077e-06
1.53736e-06
1.93256e-06
3.26234e-06
4.54012e-06
6.30334e-06
8.10848e-06
1.13147e-05
2.58539e-06
5.04866e-08
2.12599e-07
4.21313e-07
5.94695e-07
6.88465e-07
7.07387e-07
7.15015e-07
6.47181e-07
3.55389e-06
2.8781e-05
6.26203e-05
1.41439e-05
1.49483e-05
1.81122e-05
9.05629e-06
2.27937e-06
3.43799e-05
0.000338921
0.000183628
8.19566e-05
1.19464e-05
8.37665e-06
2.66596e-06
2.76759e-06
4.23443e-06
5.32849e-06
7.62129e-06
5.89974e-06
2.57726e-06
8.43489e-07
5.0747e-08
1.62758e-07
3.42319e-07
4.95651e-07
6.0605e-07
6.90668e-07
7.91078e-07
9.2419e-07
7.44097e-06
8.19271e-06
3.16288e-05
7.61981e-05
1.54322e-05
1.05909e-05
4.67986e-06
1.44134e-05
3.34242e-05
0.000101768
0.000177889
0.000114321
1.51195e-05
1.35218e-05
5.54487e-06
3.93427e-06
5.44936e-06
6.46805e-06
6.82001e-06
3.58465e-06
1.52594e-06
5.39335e-07
5.63127e-08
1.18188e-07
2.76333e-07
4.14284e-07
5.32292e-07
6.64666e-07
8.41211e-07
1.20559e-06
3.85118e-06
7.64628e-06
4.39771e-06
1.42847e-05
6.98496e-05
1.57661e-05
4.13813e-05
0.000117935
0.000253886
8.49395e-05
8.80427e-05
8.63108e-05
1.38594e-05
1.4559e-05
9.47463e-06
6.21469e-06
6.53831e-06
6.9282e-06
5.29536e-06
2.75347e-06
1.43383e-06
6.49662e-07
1.31522e-07
8.86183e-08
2.20827e-07
3.48324e-07
4.73002e-07
6.47692e-07
8.85718e-07
1.46524e-06
3.75754e-06
6.15668e-06
4.85954e-06
4.22882e-06
1.31445e-05
7.51458e-05
0.00014729
0.000345843
0.000598861
0.000272714
4.99111e-05
4.34936e-05
1.62989e-05
1.26965e-05
8.74317e-06
9.49036e-06
7.15616e-06
6.71781e-06
4.7663e-06
2.86821e-06
1.72753e-06
9.23967e-07
2.9586e-07
9.41707e-08
1.72901e-07
2.91444e-07
4.27924e-07
6.51636e-07
9.39416e-07
1.65375e-06
4.89038e-06
3.31361e-06
2.11854e-06
2.95895e-06
4.13816e-06
1.17243e-05
5.1824e-05
0.000168593
0.000772607
0.000596748
4.98149e-05
1.96922e-05
2.20734e-05
1.95772e-05
7.4958e-06
8.04577e-06
7.38569e-06
5.9691e-06
5.08331e-06
3.54424e-06
2.1896e-06
1.21002e-06
4.98832e-07
1.38707e-07
1.33122e-07
2.40706e-07
4.0059e-07
6.89634e-07
1.01316e-06
1.70358e-06
2.6444e-06
3.4717e-06
2.81619e-06
1.49437e-06
1.88538e-06
2.84492e-06
5.83887e-06
3.0721e-05
0.00111957
0.00133024
0.000133115
7.00282e-06
1.79277e-05
3.0051e-05
1.27611e-05
4.82373e-06
6.01351e-06
4.53952e-06
4.69046e-06
3.62886e-06
2.33652e-06
1.36049e-06
6.43301e-07
1.98457e-07
1.08213e-07
1.97908e-07
3.98169e-07
7.64739e-07
1.08096e-06
1.60026e-06
1.95941e-06
2.1545e-06
4.74894e-06
4.81002e-06
1.29339e-06
1.54258e-06
1.3675e-05
2.0417e-06
0.000611924
0.00357974
0.000735438
3.3876e-05
6.55992e-06
1.71225e-05
1.61619e-05
6.32353e-06
2.64553e-06
2.4594e-06
2.7315e-06
2.43471e-06
1.71866e-06
1.20651e-06
6.67968e-07
2.37267e-07
9.42767e-08
1.71429e-07
4.33722e-07
8.28666e-07
1.06534e-06
1.4328e-06
2.56082e-06
1.66241e-06
5.9118e-06
2.31012e-05
4.60349e-06
2.28516e-06
5.82872e-05
3.49067e-06
2.1503e-05
0.00307156
0.00364463
0.000756843
0.000128327
1.53488e-05
5.65104e-06
9.16964e-06
7.1352e-07
1.51e-06
1.19609e-05
4.16798e-06
1.13342e-06
9.2302e-07
6.04024e-07
2.53765e-07
7.85795e-08
1.86172e-07
4.96076e-07
7.91869e-07
9.57428e-07
1.31494e-06
1.84287e-05
0.000274528
0.000504011
8.0703e-05
1.09195e-05
5.36255e-05
0.000164144
4.50686e-06
1.37008e-05
0.00019197
0.0034123
0.00269402
0.00119617
0.000462976
5.04642e-05
5.61776e-06
1.90411e-05
0.000144051
0.000224003
1.98332e-05
7.1841e-06
1.62833e-06
1.75326e-06
3.36951e-07
8.59287e-08
2.83608e-07
5.19768e-07
6.87819e-07
9.02103e-07
1.27033e-06
0.000432101
0.000530333
0.000247931
0.000334511
0.000350734
0.000303304
9.36484e-07
1.11448e-05
1.56391e-05
7.85121e-06
0.000302781
0.00156672
0.00135671
0.000699621
0.000159292
2.6585e-05
9.0251e-05
0.000356824
0.000305668
0.000134326
2.47298e-05
1.23175e-05
2.79323e-06
1.17762e-07
2.46105e-07
3.8893e-07
4.90883e-07
6.7028e-07
9.63973e-07
1.37774e-06
0.000411531
2.25877e-06
3.23786e-06
1.3529e-05
0.000191485
0.000112173
2.1953e-05
1.131e-05
1.22401e-05
1.35924e-05
1.55671e-06
8.15306e-05
0.00018143
0.000232713
0.00012688
2.50798e-05
8.16493e-05
0.0002221
1.07998e-05
3.40453e-05
7.92274e-05
3.39092e-06
4.11207e-07
4.22323e-07
4.0778e-07
4.05043e-07
5.32878e-07
7.8751e-07
1.23201e-06
1.5914e-06
9.22134e-05
4.37603e-06
3.6781e-06
4.01551e-06
2.1128e-05
0.000129262
5.98119e-05
1.93833e-05
7.43673e-06
1.58051e-05
1.3562e-05
5.03861e-06
8.80827e-06
2.05217e-05
3.44161e-05
7.26845e-06
6.14186e-05
6.12534e-05
1.28217e-06
5.62728e-06
3.39251e-05
3.39132e-06
8.53332e-07
5.65769e-07
4.10424e-07
4.81237e-07
7.3877e-07
1.45001e-06
1.70811e-06
1.6892e-06
4.84065e-05
6.12599e-06
5.04865e-06
3.91332e-06
3.32279e-06
7.01711e-05
0.000113022
1.27246e-05
9.18028e-06
2.50007e-06
6.15496e-06
3.70762e-06
1.10606e-05
1.29993e-05
2.81755e-06
4.02273e-06
5.7284e-05
3.26644e-05
3.13159e-06
8.34784e-06
5.79447e-05
2.87762e-06
6.20139e-07
4.62946e-07
4.56803e-07
7.89377e-07
2.40855e-06
3.47957e-06
2.41523e-06
1.33812e-06
2.01857e-05
8.476e-06
6.03709e-06
4.62036e-06
3.17056e-06
1.90122e-05
0.000160557
3.30665e-05
4.96902e-06
6.36882e-06
2.28549e-05
6.00961e-05
0.000119044
1.37952e-05
7.9205e-07
5.08512e-06
5.9053e-05
1.57714e-05
4.68849e-06
1.48545e-05
0.000103773
1.65939e-06
3.47645e-07
4.29226e-07
6.0583e-07
3.19314e-06
6.12702e-06
2.85588e-06
1.39572e-05
1.94855e-07
6.64984e-06
8.91106e-06
6.60389e-06
4.40487e-06
3.5147e-06
2.72548e-06
0.000111601
0.000144641
1.23947e-05
1.04087e-05
1.41179e-05
1.73948e-05
0.000159686
0.000521716
0.000118366
4.78239e-06
4.0444e-05
8.32235e-06
7.64358e-06
1.6689e-05
0.000142221
1.22469e-06
1.86001e-07
4.26304e-07
7.60877e-07
1.54765e-06
4.10562e-05
0.000108109
9.21804e-05
1.45042e-05
4.05816e-06
6.54819e-06
4.62129e-06
3.89305e-06
3.69327e-06
2.23389e-06
1.09117e-05
0.00010774
4.14243e-05
1.38294e-05
4.98059e-06
2.21915e-06
7.40403e-06
0.00018489
0.000428716
7.46789e-05
1.62211e-05
9.4007e-06
1.08421e-05
2.30455e-05
0.000112434
1.0545e-05
2.17757e-07
1.26788e-07
5.66623e-07
8.45024e-05
8.75232e-05
1.26226e-05
2.98474e-06
3.19375e-05
7.80173e-06
5.69444e-06
1.87552e-06
2.00731e-06
2.78393e-06
2.01896e-06
7.41318e-07
1.68782e-05
3.01236e-05
1.29773e-05
2.60977e-06
1.04928e-06
3.38131e-06
2.00917e-05
0.000139585
9.3299e-05
1.21762e-06
1.19609e-05
6.06641e-06
0.000158708
6.40591e-05
4.44099e-05
1.54917e-05
1.40162e-06
3.41944e-05
8.54298e-05
1.11061e-06
1.72255e-06
1.70153e-06
6.33094e-06
1.49562e-05
3.74728e-06
5.33176e-07
7.51287e-07
1.47243e-06
1.4507e-06
9.00437e-07
5.65339e-06
1.27341e-05
9.44372e-06
1.97511e-06
1.88634e-06
3.37015e-06
7.33572e-06
3.75835e-05
3.08515e-05
3.34536e-06
9.43661e-06
0.000588702
0.000277061
4.03788e-05
3.39059e-05
2.23417e-05
1.50596e-05
8.35626e-05
5.30866e-06
6.42629e-07
8.3377e-07
8.10131e-07
1.16771e-06
1.94819e-05
2.2408e-06
1.21508e-07
2.58439e-07
7.70881e-07
1.36796e-06
2.72468e-06
6.88978e-06
6.72177e-06
4.23718e-06
1.66448e-06
1.93752e-06
3.15349e-06
4.57504e-06
1.70329e-05
1.48811e-05
7.96029e-06
0.000165971
0.000643697
7.961e-06
1.32859e-05
2.33979e-05
2.43376e-05
2.36642e-05
1.24026e-05
1.44446e-07
1.78344e-07
2.18049e-07
3.19716e-07
5.2559e-07
1.8462e-05
4.42663e-06
3.31709e-06
1.89514e-06
2.06748e-06
2.10724e-06
4.94464e-06
7.25161e-06
3.40049e-06
1.46662e-06
1.3052e-06
2.30239e-06
3.3765e-06
4.96711e-06
1.78849e-05
2.12291e-05
1.50541e-05
0.000363979
0.000214927
1.03583e-05
1.3722e-05
1.04948e-05
1.09046e-05
1.12945e-05
1.46066e-06
6.7246e-08
9.72037e-08
1.97965e-07
3.41072e-07
4.79184e-07
1.45285e-05
1.76901e-05
7.18934e-05
6.5584e-05
1.71333e-05
4.56383e-06
5.65022e-06
4.30732e-06
1.1455e-06
6.00668e-07
1.00582e-06
2.03612e-06
2.86658e-06
9.91497e-06
2.03708e-05
5.46758e-05
1.55664e-05
0.000453421
0.000105576
1.94538e-05
2.14368e-05
1.52945e-05
1.04797e-05
8.93837e-06
1.37766e-06
5.83142e-08
1.2838e-07
2.90593e-07
4.62916e-07
4.62117e-07
1.24904e-05
3.06687e-05
0.000131751
0.00014779
5.10095e-05
8.16761e-06
4.59493e-06
1.49725e-06
4.2733e-07
4.50218e-07
8.16237e-07
1.68103e-06
3.32319e-06
3.00927e-05
8.10173e-05
5.13088e-05
0.000378934
0.000232338
7.04086e-05
4.7974e-05
1.57508e-05
1.19083e-05
1.09511e-05
7.85454e-06
1.27721e-06
7.96042e-08
2.30943e-07
5.41794e-07
7.52884e-07
4.9869e-07
1.5113e-05
2.25018e-05
7.22663e-06
1.72552e-05
4.95528e-05
8.32023e-06
3.12756e-06
8.04099e-07
5.05125e-07
4.17609e-07
7.31896e-07
2.76096e-06
1.5298e-05
0.00012635
0.000122658
4.31085e-05
0.000248477
4.00247e-05
5.62599e-05
3.84994e-05
6.81021e-06
9.43728e-06
1.04989e-05
8.90471e-06
1.6354e-06
1.80115e-07
5.15892e-07
1.28893e-06
1.53839e-06
5.86879e-07
1.08974e-05
6.08056e-06
8.12367e-07
2.83934e-06
5.63473e-07
9.16031e-06
2.83404e-06
2.12359e-06
9.49971e-07
3.77711e-07
5.23779e-07
2.48373e-06
9.47494e-05
0.000423149
0.000156701
5.55691e-05
2.51002e-05
1.92552e-05
3.1321e-05
2.10328e-05
8.93093e-06
8.70012e-06
9.57684e-06
9.0191e-06
1.93515e-06
4.11785e-07
1.37241e-06
3.52908e-06
3.17727e-06
1.02301e-05
7.45016e-06
3.74965e-06
1.84927e-06
1.40372e-06
4.32252e-07
3.00289e-05
1.87295e-05
4.95777e-06
2.80696e-05
1.65504e-05
8.09505e-06
0.00010087
0.000205273
0.000768018
0.000378536
1.03455e-05
1.08702e-05
1.90886e-05
2.60333e-05
1.24073e-05
7.85709e-06
7.1899e-06
1.1259e-05
7.43632e-06
1.92627e-06
7.3622e-07
2.55143e-06
6.71053e-06
2.93727e-05
0.000378811
7.06488e-06
2.38514e-06
3.72454e-06
2.97443e-06
1.52758e-06
0.000206718
0.000158829
0.000915407
0.001374
0.00124499
0.000443972
0.000170138
1.71294e-05
0.000820923
0.000977508
4.08284e-05
9.24899e-06
1.85314e-05
2.73376e-05
1.92166e-05
8.4228e-06
8.74004e-06
1.11514e-05
5.87639e-06
1.98399e-06
1.15714e-06
2.27536e-06
5.68417e-06
0.000331759
0.000333104
5.20755e-06
2.19461e-06
3.7914e-06
1.01587e-05
4.09569e-05
0.00030358
0.00152773
0.00234798
0.00190048
0.000808367
0.000267996
2.85581e-06
9.46905e-06
0.00017095
0.00160467
0.000346403
5.65945e-05
2.20409e-05
5.77783e-05
4.31574e-05
8.00651e-06
2.54263e-06
3.75854e-05
3.09864e-05
7.12269e-06
2.55486e-06
2.9838e-06
5.59087e-05
0.000330426
8.41262e-05
3.04046e-06
2.57812e-06
3.31758e-06
1.63309e-05
0.000134508
0.000492479
0.000964822
3.9305e-06
1.57217e-05
6.92292e-05
0.0001049
7.31676e-06
1.20637e-05
8.41238e-06
0.000425278
0.000398956
0.000170532
0.00012436
0.000191235
8.93238e-05
2.44421e-06
0.000546891
0.000913174
0.000433101
8.01052e-05
1.98649e-05
1.23107e-05
0.000354953
5.92652e-06
8.17074e-05
1.72069e-06
2.33091e-06
4.31914e-06
1.40542e-05
0.00011468
0.00046788
9.60111e-06
5.19768e-06
1.42954e-05
0.000126721
0.000119068
8.90931e-06
1.24212e-05
1.17935e-05
3.92053e-06
0.000124909
0.000246006
0.000236946
0.000129628
0.000549754
0.00124943
0.00139208
0.000271007
0.000145451
0.000253996
0.000181456
0.000237621
0.000123712
8.45864e-06
5.62727e-05
1.17727e-06
1.38153e-06
4.22153e-06
1.05447e-05
7.26207e-05
9.52132e-05
9.69116e-06
2.92899e-06
2.40848e-05
0.000163577
9.10368e-05
8.34936e-06
1.42522e-05
9.58828e-06
1.9126e-06
0.000107077
0.000181727
8.08048e-05
0.000387833
0.000856229
0.000713511
2.94551e-06
1.00097e-05
4.97612e-06
1.78169e-05
4.6325e-05
1.84264e-05
1.93038e-05
9.56357e-06
3.81626e-05
9.44133e-07
8.34204e-07
1.94706e-06
6.20391e-06
2.35326e-05
3.38719e-05
1.2499e-05
8.56058e-06
2.4521e-05
0.000217872
9.58576e-05
9.17606e-06
1.19436e-05
4.16429e-06
3.7818e-06
0.000100444
6.63739e-05
8.7796e-05
0.000509867
2.53706e-05
8.50595e-06
1.38177e-05
3.94865e-06
2.55163e-06
8.97066e-06
1.48687e-05
2.03222e-05
2.26223e-05
1.27968e-05
1.72994e-05
8.18781e-07
6.28136e-07
8.09817e-07
2.41736e-06
5.0747e-06
3.43492e-05
1.97954e-05
1.66128e-05
1.932e-05
0.000198393
0.000126899
7.59839e-06
5.47545e-06
2.41781e-06
7.78425e-06
6.53604e-05
4.76927e-05
0.000329566
0.000182663
4.97122e-06
1.17831e-05
2.55422e-06
2.39035e-07
2.85627e-06