/*--------------------------------*- C++ -*----------------------------------*\
| =========                 |                                                 |
| \\      /  F ield         | OpenFOAM: The Open Source CFD Toolbox           |
|  \\    /   O peration     | Version:  2.3.0                                 |
|   \\  /    A nd           | Web:      www.OpenFOAM.org                      |
|    \\/     M anipulation  |                                                 |
\*---------------------------------------------------------------------------*/
FoamFile
{
    version     2.0;
    format      ascii;
    class       volVectorField;
    location    "0.98";
    object      Ur;
}
// * * * * * * * * * * * * * * * * * * * * * * * * * * * * * * * * * * * * * //

dimensions      [0 1 -1 0 0 0 0];

internalField   nonuniform List<vector> 
6000
(
(-0.0322344 -0.611715 0)
(-0.0783997 -0.622199 0)
(-0.0817218 -0.607848 0)
(-0.087696 -0.581703 0)
(-0.0888659 -0.572139 0)
(-0.0190462 -0.607136 0)
(0.0642998 -0.723701 0)
(0.0748706 -0.809665 0)
(0.0972626 -0.648612 0)
(0.117751 -0.520298 0)
(0.0780774 -0.501648 0)
(0.0357325 -0.556569 0)
(0.107572 -0.744502 0)
(0.208758 -0.551852 0)
(0.191394 -0.48008 0)
(0.0278629 -0.459099 0)
(-0.0545829 -0.533892 0)
(0.0610889 -0.699155 0)
(0.16151 -0.632953 0)
(0.166653 -0.557029 0)
(0.15629 -0.566448 0)
(0.196268 -0.5922 0)
(0.263101 -0.584836 0)
(0.250141 -0.501308 0)
(0.141413 -0.425185 0)
(-0.0520858 -0.39109 0)
(-0.170832 -0.528476 0)
(-0.135019 -0.681911 0)
(-0.0483408 -0.630516 0)
(-0.00432841 -0.480146 0)
(-0.0388212 -0.998318 0)
(-0.0529519 -1.03211 0)
(-0.0125558 -1.01589 0)
(0.00295586 -0.968096 0)
(0.0224968 -1.00258 0)
(0.101478 -1.14531 0)
(0.170852 -1.23399 0)
(0.120855 -1.27641 0)
(0.111265 -1.15087 0)
(0.139729 -0.884663 0)
(0.0883783 -0.827327 0)
(0.108444 -1.0463 0)
(0.139145 -1.18322 0)
(0.164733 -1.04876 0)
(0.18034 -0.814561 0)
(0.0828682 -0.735211 0)
(0.0515794 -0.986578 0)
(0.0738054 -1.10695 0)
(0.0999332 -1.07445 0)
(0.16417 -0.998441 0)
(0.164366 -0.965272 0)
(0.165357 -1.05755 0)
(0.228354 -1.07485 0)
(0.257019 -0.879217 0)
(0.167422 -0.676506 0)
(0.0010198 -0.614072 0)
(-0.0881308 -0.907911 0)
(-0.0442008 -1.0967 0)
(0.02537 -1.04721 0)
(0.0284345 -0.847068 0)
(-0.0117244 -0.861492 0)
(0.0239048 -1.00966 0)
(0.108873 -0.984593 0)
(0.147394 -0.902693 0)
(0.147762 -0.924094 0)
(0.1292 -1.02594 0)
(0.135952 -1.07434 0)
(0.168558 -1.11995 0)
(0.211634 -1.0465 0)
(0.165643 -0.720368 0)
(0.0408419 -0.613117 0)
(0.00965658 -0.9479 0)
(0.0881967 -1.03 0)
(0.165308 -1.00727 0)
(0.16902 -0.693083 0)
(0.117376 -0.59748 0)
(0.0703138 -0.880681 0)
(0.0589613 -0.979672 0)
(0.120196 -0.987206 0)
(0.13287 -0.831681 0)
(0.0531885 -0.753931 0)
(-0.00252943 -0.896725 0)
(0.0349491 -1.02224 0)
(0.136777 -0.89448 0)
(0.141879 -0.585159 0)
(0.0532586 -0.514774 0)
(-0.0364778 -0.773937 0)
(-0.0327588 -0.978958 0)
(0.0621836 -0.946463 0)
(0.0451659 -0.700872 0)
(0.0620021 -0.959749 0)
(0.196619 -1.10713 0)
(0.280446 -0.987666 0)
(0.256217 -0.817141 0)
(0.149242 -0.77956 0)
(0.0669887 -0.916218 0)
(0.0833561 -1.01793 0)
(0.153434 -1.05522 0)
(0.199602 -1.06608 0)
(0.140758 -0.702748 0)
(0.0382895 -0.549559 0)
(-0.00190095 -0.940878 0)
(0.0646359 -0.99144 0)
(0.174601 -0.96736 0)
(0.166668 -0.590005 0)
(0.106271 -0.495047 0)
(0.0228918 -0.758316 0)
(-0.0114959 -0.927537 0)
(0.0423808 -0.960396 0)
(0.00797938 -0.742403 0)
(-0.0666907 -0.672412 0)
(-0.144846 -0.822638 0)
(-0.192192 -1.08101 0)
(0.0206402 -1.22103 0)
(0.199127 -0.721224 0)
(0.157734 -0.618607 0)
(0.0916361 -0.77711 0)
(0.053195 -0.97082 0)
(0.0367698 -0.88773 0)
(0.00869673 -0.641205 0)
(0.0981135 -1.132 0)
(0.282375 -1.1509 0)
(0.342354 -0.905043 0)
(0.242863 -0.63536 0)
(0.0912543 -0.560035 0)
(-0.0307571 -0.803223 0)
(-0.0153277 -0.956914 0)
(0.101622 -1.03791 0)
(0.161347 -1.04599 0)
(0.130553 -0.688013 0)
(0.0542087 -0.471511 0)
(0.00208349 -0.896205 0)
(0.052338 -0.947592 0)
(0.134954 -0.905081 0)
(0.101714 -0.486449 0)
(0.0776638 -0.432336 0)
(0.0117624 -0.619816 0)
(-0.0601519 -0.873596 0)
(-0.100044 -0.858425 0)
(-0.163722 -0.660055 0)
(-0.201126 -0.652472 0)
(-0.261696 -0.801748 0)
(-0.333733 -1.15536 0)
(-0.0122817 -1.65594 0)
(0.308015 -0.84373 0)
(0.273513 -0.72188 0)
(0.210078 -0.779582 0)
(0.123172 -0.899384 0)
(0.00596299 -0.793526 0)
(-0.0256603 -0.634028 0)
(0.0935957 -1.27846 0)
(0.285152 -1.23306 0)
(0.291698 -0.777045 0)
(0.165814 -0.466371 0)
(0.064822 -0.399971 0)
(-0.0507689 -0.630754 0)
(-0.0879452 -0.880844 0)
(0.0393453 -0.959039 0)
(0.129671 -0.991189 0)
(0.127001 -0.676685 0)
(0.073057 -0.406146 0)
(-0.00257555 -0.803657 0)
(0.00596086 -0.900558 0)
(0.03086 -0.771631 0)
(-0.00206938 -0.435196 0)
(0.0234484 -0.436461 0)
(0.0273948 -0.565178 0)
(-0.0548268 -0.774217 0)
(-0.197299 -0.75042 0)
(-0.287289 -0.660157 0)
(-0.337257 -0.720535 0)
(-0.411187 -0.85522 0)
(-0.385236 -1.29853 0)
(-0.022386 -2.09487 0)
(0.332365 -0.932189 0)
(0.350462 -0.773474 0)
(0.235366 -0.773979 0)
(0.125733 -0.83234 0)
(0.0230142 -0.759064 0)
(-0.00823748 -0.665805 0)
(0.108281 -1.43253 0)
(0.255433 -1.267 0)
(0.184285 -0.621392 0)
(0.101082 -0.389935 0)
(0.0829081 -0.353857 0)
(0.0302732 -0.470604 0)
(-0.0657778 -0.767419 0)
(-0.0192587 -0.843497 0)
(0.0819908 -0.890305 0)
(0.0996639 -0.653155 0)
(0.0703249 -0.357375 0)
(-0.00518325 -0.649806 0)
(-0.0824728 -0.826632 0)
(-0.104192 -0.652306 0)
(-0.105135 -0.449649 0)
(-0.0608825 -0.487744 0)
(-0.0220301 -0.588559 0)
(-0.0804025 -0.724114 0)
(-0.232213 -0.756279 0)
(-0.348502 -0.753698 0)
(-0.43831 -0.838292 0)
(-0.408634 -0.966707 0)
(-0.194936 -1.55813 0)
(-0.0381002 -2.3768 0)
(0.210225 -1.15007 0)
(0.358907 -0.785269 0)
(0.225013 -0.791303 0)
(0.126831 -0.872937 0)
(0.0806951 -0.824231 0)
(0.0300855 -0.733024 0)
(0.114122 -1.54901 0)
(0.171844 -1.18985 0)
(0.0795785 -0.521871 0)
(0.0722043 -0.411019 0)
(0.114272 -0.394689 0)
(0.126588 -0.418591 0)
(0.0601663 -0.591609 0)
(-0.00680384 -0.732188 0)
(0.0157764 -0.816477 0)
(0.0216025 -0.60565 0)
(0.018803 -0.342031 0)
(-0.019451 -0.514432 0)
(-0.145202 -0.687731 0)
(-0.2109 -0.594672 0)
(-0.191811 -0.505503 0)
(-0.151354 -0.565587 0)
(-0.134424 -0.665018 0)
(-0.173552 -0.784389 0)
(-0.273607 -0.85952 0)
(-0.408434 -0.878839 0)
(-0.405801 -0.958738 0)
(-0.175879 -1.24412 0)
(0.116825 -1.81986 0)
(-0.0141971 -2.17774 0)
(-0.058178 -1.61089 0)
(0.124457 -0.865395 0)
(0.11795 -0.812096 0)
(0.107404 -0.98883 0)
(0.149947 -0.92684 0)
(0.0784741 -0.763553 0)
(0.0681187 -1.62573 0)
(0.0296393 -1.04438 0)
(-0.0135668 -0.527327 0)
(0.0600833 -0.508878 0)
(0.131178 -0.499392 0)
(0.177705 -0.485678 0)
(0.16339 -0.525625 0)
(0.0781846 -0.617941 0)
(-0.0160996 -0.722335 0)
(-0.0702839 -0.548399 0)
(-0.0620956 -0.376568 0)
(-0.0586568 -0.462905 0)
(-0.157226 -0.573422 0)
(-0.242656 -0.571629 0)
(-0.249159 -0.570522 0)
(-0.243796 -0.651569 0)
(-0.249833 -0.774983 0)
(-0.284218 -0.912761 0)
(-0.316903 -0.986659 0)
(-0.267729 -0.949432 0)
(-0.0943119 -1.23693 0)
(0.191155 -1.54532 0)
(0.252163 -1.74644 0)
(0.030561 -1.83721 0)
(-0.20015 -1.69504 0)
(-0.128859 -1.2645 0)
(0.0361991 -0.966863 0)
(0.153395 -1.22499 0)
(0.246488 -1.0284 0)
(0.132413 -0.669334 0)
(-0.0262085 -1.60188 0)
(-0.106968 -0.956264 0)
(-0.0807226 -0.673407 0)
(0.0510495 -0.687249 0)
(0.145095 -0.676536 0)
(0.203192 -0.633397 0)
(0.212858 -0.606809 0)
(0.145521 -0.603019 0)
(0.018189 -0.642831 0)
(-0.0858779 -0.525116 0)
(-0.10281 -0.440508 0)
(-0.113753 -0.475462 0)
(-0.194151 -0.541712 0)
(-0.275877 -0.574993 0)
(-0.321793 -0.632437 0)
(-0.367832 -0.747344 0)
(-0.368314 -0.902215 0)
(-0.27482 -1.00598 0)
(-0.137013 -1.09401 0)
(0.0829254 -1.24274 0)
(0.311849 -1.42928 0)
(0.341012 -1.49225 0)
(0.230978 -1.56907 0)
(0.0630913 -1.62142 0)
(-0.113906 -1.54801 0)
(-0.168433 -1.39996 0)
(-0.0416882 -1.29667 0)
(0.112476 -1.39214 0)
(0.183873 -1.06045 0)
(0.0868086 -0.463949 0)
(-0.100899 -1.54677 0)
(-0.185953 -1.0226 0)
(-0.104465 -0.955689 0)
(0.0441664 -0.99594 0)
(0.179102 -0.972033 0)
(0.259253 -0.872375 0)
(0.259323 -0.760727 0)
(0.201369 -0.704628 0)
(0.0775569 -0.680835 0)
(-0.0379897 -0.594231 0)
(-0.091341 -0.534703 0)
(-0.147642 -0.536132 0)
(-0.239239 -0.569345 0)
(-0.338526 -0.613564 0)
(-0.430788 -0.703018 0)
(-0.410202 -0.831464 0)
(-0.282789 -1.04544 0)
(-0.0944126 -1.36746 0)
(0.164005 -1.45097 0)
(0.35437 -1.38222 0)
(0.383762 -1.3418 0)
(0.30035 -1.36628 0)
(0.188505 -1.42859 0)
(0.0775476 -1.46056 0)
(-0.0181138 -1.45092 0)
(-0.058494 -1.36519 0)
(-0.0222284 -1.31612 0)
(0.0336361 -1.3243 0)
(0.0408579 -1.01127 0)
(0.0113445 -0.377759 0)
(-0.146727 -1.52196 0)
(-0.253159 -1.20146 0)
(-0.151526 -1.17065 0)
(-0.0017111 -1.17433 0)
(0.182205 -1.15136 0)
(0.360034 -1.0657 0)
(0.383791 -0.940229 0)
(0.267784 -0.854647 0)
(0.140788 -0.816983 0)
(0.0293354 -0.745369 0)
(-0.0538862 -0.689462 0)
(-0.147635 -0.645569 0)
(-0.270037 -0.638822 0)
(-0.409944 -0.6698 0)
(-0.408522 -0.751962 0)
(-0.26655 -1.0992 0)
(0.018542 -1.42687 0)
(0.212075 -1.39823 0)
(0.282016 -1.35801 0)
(0.331212 -1.35471 0)
(0.307637 -1.24722 0)
(0.226865 -1.24056 0)
(0.136316 -1.31242 0)
(0.0643885 -1.3645 0)
(0.0122715 -1.36364 0)
(-0.0125714 -1.35275 0)
(-0.00828771 -1.32584 0)
(0.00692948 -1.33394 0)
(-0.0484766 -0.94526 0)
(-0.0425226 -0.455609 0)
(-0.112712 -1.46567 0)
(-0.23018 -1.46899 0)
(-0.156645 -1.61502 0)
(0.0416464 -1.629 0)
(0.259063 -1.56615 0)
(0.331929 -1.21908 0)
(0.306005 -0.954178 0)
(0.268567 -0.928974 0)
(0.191724 -0.944633 0)
(0.0953058 -0.927799 0)
(0.0148325 -0.870396 0)
(-0.0912709 -0.776784 0)
(-0.2623 -0.680179 0)
(-0.330119 -0.68707 0)
(-0.195289 -1.04233 0)
(0.122324 -1.38125 0)
(0.266462 -1.37152 0)
(0.281248 -1.32671 0)
(0.29287 -1.31605 0)
(0.288918 -1.29777 0)
(0.238048 -1.15806 0)
(0.152019 -1.12302 0)
(0.0720158 -1.22165 0)
(0.0271209 -1.27204 0)
(0.0024941 -1.31067 0)
(-0.00854285 -1.30536 0)
(-0.00743425 -1.32059 0)
(-0.0172718 -1.30281 0)
(-0.0757052 -0.889481 0)
(-0.053035 -0.588486 0)
(-0.0173247 -1.75103 0)
(0.000722719 -1.81058 0)
(0.0698532 -1.73772 0)
(0.111307 -1.60689 0)
(0.118668 -1.4607 0)
(0.122287 -1.28295 0)
(0.173992 -1.15134 0)
(0.150778 -0.989838 0)
(0.0860171 -0.947917 0)
(0.0402889 -0.960106 0)
(0.0192903 -0.906418 0)
(1.59361e-05 -0.783199 0)
(-0.0611709 -0.640643 0)
(-0.0234649 -0.879227 0)
(0.209567 -1.31013 0)
(0.340007 -1.34871 0)
(0.340634 -1.30523 0)
(0.32349 -1.27513 0)
(0.314064 -1.2397 0)
(0.270535 -1.21685 0)
(0.18176 -1.04656 0)
(0.0752177 -0.993274 0)
(0.00128772 -1.14102 0)
(-0.0233946 -1.2069 0)
(-0.0270491 -1.23866 0)
(-0.0239907 -1.26116 0)
(-0.0163932 -1.26371 0)
(-0.042759 -1.28216 0)
(-0.0473412 -0.92222 0)
(-0.00773764 -0.637218 0)
(0.0605823 -1.56635 0)
(0.123714 -1.54958 0)
(0.11491 -1.46952 0)
(0.051547 -1.33075 0)
(-0.0325443 -1.17031 0)
(-0.100628 -1.01299 0)
(-0.140921 -0.965431 0)
(-0.153046 -0.991674 0)
(-0.127409 -1.09125 0)
(-0.0809006 -1.20964 0)
(-0.0297162 -1.17253 0)
(0.0505979 -1.01903 0)
(0.142441 -0.8184 0)
(0.280701 -1.06389 0)
(0.369702 -1.27415 0)
(0.390933 -1.27873 0)
(0.397986 -1.24186 0)
(0.37672 -1.18097 0)
(0.342703 -1.13713 0)
(0.247379 -1.0733 0)
(0.117461 -0.896492 0)
(0.00108501 -0.849767 0)
(-0.0740415 -1.06571 0)
(-0.0822886 -1.13826 0)
(-0.0649071 -1.19116 0)
(-0.0434407 -1.20509 0)
(-0.0313287 -1.22785 0)
(-0.0504284 -1.23173 0)
(0.00874955 -1.07625 0)
(0.0393198 -0.566399 0)
(0.0626102 -1.45308 0)
(0.102778 -1.43206 0)
(0.0385339 -1.31518 0)
(-0.0493231 -1.16916 0)
(-0.134628 -1.02032 0)
(-0.198407 -0.885383 0)
(-0.244782 -0.839989 0)
(-0.267136 -0.868622 0)
(-0.234431 -0.966258 0)
(-0.154741 -1.05434 0)
(-0.0782634 -1.06962 0)
(0.0312761 -1.05476 0)
(0.171861 -0.983715 0)
(0.284488 -1.13613 0)
(0.34953 -1.24618 0)
(0.427514 -1.24688 0)
(0.466797 -1.1636 0)
(0.436136 -1.08057 0)
(0.339972 -0.995244 0)
(0.191985 -0.871462 0)
(0.0521099 -0.72836 0)
(-0.0566707 -0.703679 0)
(-0.148093 -0.985856 0)
(-0.15176 -1.09824 0)
(-0.107111 -1.14219 0)
(-0.0706539 -1.17588 0)
(-0.0558421 -1.18872 0)
(-0.0408799 -1.21667 0)
(0.0594092 -1.14636 0)
(0.0535532 -0.438045 0)
(0.0415853 -1.48182 0)
(0.0263756 -1.34399 0)
(-0.0562226 -1.18368 0)
(-0.134329 -1.0374 0)
(-0.201512 -0.898596 0)
(-0.263956 -0.801359 0)
(-0.306883 -0.766027 0)
(-0.33459 -0.848207 0)
(-0.310983 -1.02263 0)
(-0.201493 -1.10335 0)
(-0.0983743 -1.14415 0)
(0.0106662 -1.14727 0)
(0.130819 -1.15727 0)
(0.210498 -1.21965 0)
(0.312826 -1.28706 0)
(0.459099 -1.25657 0)
(0.505979 -1.09043 0)
(0.405972 -0.908773 0)
(0.261712 -0.782685 0)
(0.118144 -0.658144 0)
(0.00638997 -0.56572 0)
(-0.082852 -0.554281 0)
(-0.195792 -0.857934 0)
(-0.218679 -1.06516 0)
(-0.150977 -1.12726 0)
(-0.105559 -1.15263 0)
(-0.080867 -1.18176 0)
(-0.0303011 -1.17698 0)
(0.0744333 -1.1275 0)
(0.0433351 -0.311194 0)
(-0.00646498 -1.41658 0)
(-0.0581483 -1.2287 0)
(-0.12293 -1.06518 0)
(-0.181168 -0.922057 0)
(-0.245437 -0.807499 0)
(-0.302502 -0.683495 0)
(-0.352963 -0.689194 0)
(-0.379238 -0.820509 0)
(-0.368247 -1.09388 0)
(-0.248919 -1.21005 0)
(-0.12933 -1.23842 0)
(-0.0209712 -1.26953 0)
(0.0728083 -1.28782 0)
(0.143486 -1.33124 0)
(0.260632 -1.36738 0)
(0.440054 -1.30003 0)
(0.419618 -0.915892 0)
(0.278947 -0.671024 0)
(0.154061 -0.581562 0)
(0.0610974 -0.489192 0)
(-0.00713451 -0.431777 0)
(-0.0679103 -0.418998 0)
(-0.180781 -0.6807 0)
(-0.259541 -1.03296 0)
(-0.191718 -1.10674 0)
(-0.135275 -1.14762 0)
(-0.0827406 -1.1438 0)
(0.0133163 -1.11768 0)
(0.0852234 -1.01373 0)
(0.0237254 -0.213864 0)
(-0.0387974 -1.27551 0)
(-0.104104 -1.11504 0)
(-0.15156 -0.958477 0)
(-0.198653 -0.815057 0)
(-0.261122 -0.678166 0)
(-0.318862 -0.574097 0)
(-0.371709 -0.611458 0)
(-0.39913 -0.784644 0)
(-0.393189 -1.15606 0)
(-0.270709 -1.2994 0)
(-0.159122 -1.33995 0)
(-0.0600438 -1.3551 0)
(0.019167 -1.39558 0)
(0.0756618 -1.42671 0)
(0.170198 -1.45798 0)
(0.320245 -1.31913 0)
(0.27524 -0.739499 0)
(0.163314 -0.476736 0)
(0.0771832 -0.435001 0)
(0.0288645 -0.375553 0)
(0.000126349 -0.342665 0)
(-0.0245365 -0.325676 0)
(-0.0981445 -0.494992 0)
(-0.234088 -0.940063 0)
(-0.228211 -1.08544 0)
(-0.139998 -1.11481 0)
(-0.0384583 -1.0885 0)
(0.10795 -1.02279 0)
(0.102877 -0.816005 0)
(0.00098489 -0.171869 0)
(-0.0410494 -1.14263 0)
(-0.101393 -1.00491 0)
(-0.157866 -0.888089 0)
(-0.212157 -0.711916 0)
(-0.265455 -0.561211 0)
(-0.312954 -0.478119 0)
(-0.363529 -0.534005 0)
(-0.394658 -0.74312 0)
(-0.389491 -1.21363 0)
(-0.27199 -1.39423 0)
(-0.173805 -1.39953 0)
(-0.0970105 -1.42634 0)
(-0.0375745 -1.44689 0)
(0.00356255 -1.49141 0)
(0.0535511 -1.51295 0)
(0.159967 -1.3479 0)
(0.155101 -0.655413 0)
(0.0964013 -0.349984 0)
(0.0371461 -0.338897 0)
(0.010926 -0.313468 0)
(0.00604971 -0.309716 0)
(0.0168366 -0.305496 0)
(0.00353936 -0.380899 0)
(-0.109259 -0.763843 0)
(-0.193204 -1.06632 0)
(-0.110388 -1.13393 0)
(0.0177298 -1.09158 0)
(0.129377 -0.977593 0)
(0.0465182 -0.532556 0)
(-0.0196728 -0.225473 0)
(-0.0283047 -1.01944 0)
(-0.0862541 -0.927839 0)
(-0.150057 -0.754598 0)
(-0.210838 -0.595581 0)
(-0.253744 -0.468588 0)
(-0.288189 -0.403577 0)
(-0.333621 -0.45957 0)
(-0.366937 -0.697883 0)
(-0.359504 -1.26604 0)
(-0.244704 -1.42992 0)
(-0.174479 -1.44978 0)
(-0.12356 -1.44937 0)
(-0.0839021 -1.47453 0)
(-0.0630743 -1.49663 0)
(-0.0479979 -1.5279 0)
(0.00896479 -1.38828 0)
(0.0639485 -0.681164 0)
(0.0534718 -0.271862 0)
(0.00587399 -0.275794 0)
(-0.0140007 -0.289244 0)
(-0.00545147 -0.318161 0)
(0.0337129 -0.341755 0)
(0.0717375 -0.387336 0)
(0.0269203 -0.631756 0)
(-0.0698572 -0.975914 0)
(-0.0515497 -1.13821 0)
(0.0178431 -1.08188 0)
(0.0156283 -0.910914 0)
(-0.0403469 -0.488284 0)
(-0.035058 -0.406967 0)
(-0.0245122 -0.924343 0)
(-0.0840774 -0.794359 0)
(-0.147967 -0.634456 0)
(-0.196691 -0.500344 0)
(-0.228769 -0.400795 0)
(-0.253571 -0.348454 0)
(-0.290651 -0.39156 0)
(-0.324077 -0.653968 0)
(-0.314023 -1.3066 0)
(-0.210773 -1.46763 0)
(-0.165449 -1.45515 0)
(-0.133923 -1.45964 0)
(-0.111207 -1.45732 0)
(-0.107513 -1.4846 0)
(-0.107127 -1.48579 0)
(-0.0779964 -1.41944 0)
(-0.00401299 -0.781563 0)
(0.00374431 -0.237115 0)
(-0.0388058 -0.249032 0)
(-0.0594942 -0.308651 0)
(-0.0474372 -0.371616 0)
(0.00200379 -0.412359 0)
(0.0642288 -0.459737 0)
(0.0688897 -0.617215 0)
(-0.00619108 -0.961217 0)
(-0.049596 -1.23515 0)
(-0.0490321 -1.20186 0)
(-0.0836253 -1.01881 0)
(-0.0810095 -0.75076 0)
(-0.0232804 -0.67825 0)
(-0.029424 -0.799366 0)
(-0.0875911 -0.678817 0)
(-0.138379 -0.536833 0)
(-0.173899 -0.427738 0)
(-0.195985 -0.352653 0)
(-0.2136 -0.307379 0)
(-0.241915 -0.333343 0)
(-0.273895 -0.607077 0)
(-0.270326 -1.33353 0)
(-0.173879 -1.45572 0)
(-0.147957 -1.45746 0)
(-0.128267 -1.43784 0)
(-0.12882 -1.44953 0)
(-0.127681 -1.4408 0)
(-0.124161 -1.44449 0)
(-0.115613 -1.37762 0)
(-0.0691694 -0.866691 0)
(-0.0782397 -0.279901 0)
(-0.125932 -0.296421 0)
(-0.143561 -0.390235 0)
(-0.110017 -0.481494 0)
(-0.044749 -0.520846 0)
(0.0115152 -0.563328 0)
(0.0258771 -0.693306 0)
(-0.0136367 -1.09956 0)
(-0.0887931 -1.42606 0)
(-0.154318 -1.41025 0)
(-0.167867 -1.21822 0)
(-0.107444 -0.962552 0)
(-0.0281536 -0.785858 0)
(-0.0289651 -0.694156 0)
(-0.0823215 -0.583454 0)
(-0.122538 -0.462611 0)
(-0.146652 -0.377109 0)
(-0.159987 -0.319418 0)
(-0.170989 -0.277441 0)
(-0.189216 -0.285518 0)
(-0.219563 -0.550068 0)
(-0.231549 -1.3388 0)
(-0.144501 -1.45906 0)
(-0.120326 -1.42579 0)
(-0.126939 -1.42234 0)
(-0.128336 -1.41418 0)
(-0.129003 -1.4115 0)
(-0.128155 -1.40187 0)
(-0.161615 -1.31985 0)
(-0.224231 -0.851109 0)
(-0.262436 -0.400363 0)
(-0.259869 -0.410997 0)
(-0.19837 -0.501307 0)
(-0.152039 -0.62482 0)
(-0.100104 -0.692847 0)
(-0.0389829 -0.747084 0)
(0.014671 -0.890771 0)
(0.0200203 -1.29409 0)
(-0.0618838 -1.57759 0)
(-0.177974 -1.61042 0)
(-0.238349 -1.50158 0)
(-0.178079 -1.29175 0)
(-0.0513977 -1.00806 0)
(-0.0264086 -0.603954 0)
(-0.0725813 -0.507198 0)
(-0.102818 -0.409766 0)
(-0.117302 -0.343726 0)
(-0.123756 -0.296765 0)
(-0.128759 -0.257665 0)
(-0.137109 -0.249328 0)
(-0.162065 -0.47928 0)
(-0.186454 -1.32552 0)
(-0.100179 -1.41891 0)
(-0.0902162 -1.4041 0)
(-0.117059 -1.38648 0)
(-0.115882 -1.37405 0)
(-0.134001 -1.36078 0)
(-0.148225 -1.33369 0)
(-0.251484 -1.17244 0)
(-0.428391 -0.750567 0)
(-0.52689 -0.535965 0)
(-0.534266 -0.562 0)
(-0.528072 -0.833536 0)
(-0.393095 -1.0114 0)
(-0.280319 -1.06291 0)
(-0.178721 -1.10518 0)
(-0.0639368 -1.1874 0)
(-0.00215373 -1.35765 0)
(-0.0439409 -1.45918 0)
(-0.114149 -1.45081 0)
(-0.148302 -1.34815 0)
(-0.110598 -1.22157 0)
(-0.031572 -0.95566 0)
(-0.0228366 -0.527443 0)
(-0.0597416 -0.448743 0)
(-0.0797951 -0.372986 0)
(-0.0870933 -0.32098 0)
(-0.089542 -0.280257 0)
(-0.0904901 -0.245412 0)
(-0.0929822 -0.224591 0)
(-0.104592 -0.413571 0)
(-0.125053 -1.30012 0)
(-0.0459443 -1.39707 0)
(-0.0556541 -1.37342 0)
(-0.0939144 -1.33975 0)
(-0.109952 -1.31279 0)
(-0.129259 -1.292 0)
(-0.187091 -1.22099 0)
(-0.371547 -0.934791 0)
(-0.596371 -0.640121 0)
(-0.771203 -0.639011 0)
(-0.828169 -0.798779 0)
(-0.620031 -0.883238 0)
(-0.440165 -0.903798 0)
(-0.344572 -0.93186 0)
(-0.25274 -0.966173 0)
(-0.16175 -1.02569 0)
(-0.105214 -1.11764 0)
(-0.105727 -1.19531 0)
(-0.109947 -1.20728 0)
(-0.099677 -1.18929 0)
(-0.0660234 -1.14001 0)
(-0.0211087 -0.945961 0)
(-0.0180513 -0.462611 0)
(-0.0440778 -0.404247 0)
(-0.0547387 -0.345345 0)
(-0.0573593 -0.30258 0)
(-0.0578834 -0.265561 0)
(-0.0579408 -0.235282 0)
(-0.0608504 -0.207483 0)
(-0.0517006 -0.388776 0)
(-0.0410765 -1.26901 0)
(0.00670285 -1.35431 0)
(-0.0134317 -1.33838 0)
(-0.0529214 -1.2801 0)
(-0.0808402 -1.24176 0)
(-0.108136 -1.18334 0)
(-0.244561 -1.0217 0)
(-0.454073 -0.707642 0)
(-0.636235 -0.567192 0)
(-0.75849 -0.646838 0)
(-0.734689 -0.813464 0)
(-0.556784 -0.866682 0)
(-0.453648 -0.891189 0)
(-0.379874 -0.914561 0)
(-0.309123 -0.948799 0)
(-0.241012 -0.997065 0)
(-0.190738 -1.06225 0)
(-0.161323 -1.11742 0)
(-0.129501 -1.14924 0)
(-0.0869814 -1.1546 0)
(-0.0486088 -1.12852 0)
(-0.015955 -0.945489 0)
(-0.012332 -0.40748 0)
(-0.0274213 -0.368248 0)
(-0.0300528 -0.321601 0)
(-0.0284613 -0.284685 0)
(-0.0266359 -0.250092 0)
(-0.0270115 -0.220956 0)
(-0.0362177 -0.193573 0)
(-0.00982184 -0.4306 0)
(0.0414015 -1.22762 0)
(0.0652639 -1.31939 0)
(0.0463731 -1.27616 0)
(0.0133895 -1.21272 0)
(-0.027558 -1.14356 0)
(-0.114518 -1.03264 0)
(-0.29611 -0.778572 0)
(-0.469002 -0.550239 0)
(-0.59634 -0.523912 0)
(-0.654063 -0.655494 0)
(-0.574237 -0.803012 0)
(-0.483097 -0.8643 0)
(-0.433394 -0.893057 0)
(-0.386576 -0.912844 0)
(-0.341476 -0.942397 0)
(-0.295534 -0.9844 0)
(-0.25201 -1.03239 0)
(-0.210524 -1.0781 0)
(-0.162027 -1.11757 0)
(-0.0983864 -1.13973 0)
(-0.0547228 -1.09926 0)
(-0.021997 -0.955163 0)
(-0.00669126 -0.360541 0)
(-0.0117493 -0.336715 0)
(-0.00689296 -0.299658 0)
(8.89005e-05 -0.267038 0)
(0.00638889 -0.23463 0)
(0.00718352 -0.202284 0)
(-0.00677298 -0.182221 0)
(0.0263056 -0.517954 0)
(0.104239 -1.20081 0)
(0.12876 -1.26025 0)
(0.126294 -1.21102 0)
(0.0943444 -1.12402 0)
(0.0107784 -0.999687 0)
(-0.153728 -0.807567 0)
(-0.325953 -0.582986 0)
(-0.440337 -0.461343 0)
(-0.506466 -0.490378 0)
(-0.515181 -0.650481 0)
(-0.456145 -0.790405 0)
(-0.407337 -0.828839 0)
(-0.377605 -0.85973 0)
(-0.341746 -0.87632 0)
(-0.315932 -0.895542 0)
(-0.298393 -0.937379 0)
(-0.273397 -0.995381 0)
(-0.244746 -1.05108 0)
(-0.202916 -1.11112 0)
(-0.134646 -1.14269 0)
(-0.0796531 -1.07907 0)
(-0.0307761 -0.971616 0)
(-0.00155772 -0.324042 0)
(0.00211226 -0.309768 0)
(0.0138047 -0.281552 0)
(0.0272567 -0.253611 0)
(0.0404243 -0.22387 0)
(0.0472464 -0.188862 0)
(0.0318743 -0.18863 0)
(0.0617834 -0.615762 0)
(0.148253 -1.1729 0)
(0.193002 -1.20093 0)
(0.210797 -1.13146 0)
(0.14832 -1.00255 0)
(-0.00364927 -0.771012 0)
(-0.179887 -0.571067 0)
(-0.303017 -0.445922 0)
(-0.362514 -0.403077 0)
(-0.375616 -0.461973 0)
(-0.35903 -0.606208 0)
(-0.339776 -0.717973 0)
(-0.337471 -0.7906 0)
(-0.318017 -0.835862 0)
(-0.286391 -0.850161 0)
(-0.260155 -0.855033 0)
(-0.250813 -0.884786 0)
(-0.252862 -0.951362 0)
(-0.242128 -0.994595 0)
(-0.222675 -1.09014 0)
(-0.170545 -1.13781 0)
(-0.10758 -1.07552 0)
(-0.0382378 -0.997454 0)
(0.00311892 -0.302495 0)
(0.013773 -0.292899 0)
(0.0309689 -0.272474 0)
(0.0514477 -0.250174 0)
(0.0736191 -0.224116 0)
(0.0916373 -0.191127 0)
(0.085794 -0.228449 0)
(0.116803 -0.697373 0)
(0.200383 -1.13837 0)
(0.260047 -1.12639 0)
(0.260017 -1.04085 0)
(0.12087 -0.795037 0)
(-0.0521862 -0.527246 0)
(-0.167698 -0.399474 0)
(-0.22408 -0.349121 0)
(-0.236873 -0.352917 0)
(-0.222412 -0.422114 0)
(-0.213485 -0.525105 0)
(-0.230076 -0.623208 0)
(-0.248417 -0.717057 0)
(-0.243557 -0.780941 0)
(-0.21918 -0.804173 0)
(-0.189047 -0.802633 0)
(-0.170933 -0.807468 0)
(-0.178113 -0.851933 0)
(-0.196681 -0.927393 0)
(-0.207021 -1.03896 0)
(-0.181573 -1.10965 0)
(-0.118992 -1.08151 0)
(-0.0389602 -1.02437 0)
(0.00661204 -0.296196 0)
(0.0230005 -0.2897 0)
(0.0451843 -0.276388 0)
(0.072705 -0.261147 0)
(0.106153 -0.24162 0)
(0.138479 -0.219051 0)
(0.162916 -0.317706 0)
(0.221564 -0.775614 0)
(0.290394 -1.10724 0)
(0.309258 -1.06562 0)
(0.209482 -0.867389 0)
(0.0221103 -0.545354 0)
(-0.0891802 -0.370464 0)
(-0.126953 -0.323008 0)
(-0.125434 -0.306399 0)
(-0.10423 -0.318723 0)
(-0.0858252 -0.363475 0)
(-0.0911159 -0.422598 0)
(-0.119933 -0.510471 0)
(-0.153085 -0.620237 0)
(-0.170796 -0.711294 0)
(-0.162354 -0.758794 0)
(-0.133309 -0.76836 0)
(-0.101958 -0.759647 0)
(-0.0911506 -0.769687 0)
(-0.105618 -0.826169 0)
(-0.138687 -0.953036 0)
(-0.160497 -1.07754 0)
(-0.123737 -1.11155 0)
(-0.0418755 -1.0489 0)
(0.00898674 -0.302562 0)
(0.0293801 -0.299655 0)
(0.0558277 -0.294469 0)
(0.090568 -0.28999 0)
(0.137122 -0.284494 0)
(0.192351 -0.296621 0)
(0.268009 -0.471119 0)
(0.372045 -0.86379 0)
(0.379985 -1.02885 0)
(0.271966 -0.928267 0)
(0.0660132 -0.620904 0)
(-0.0785002 -0.397369 0)
(-0.120509 -0.345261 0)
(-0.10609 -0.338327 0)
(-0.0682225 -0.333391 0)
(-0.0308116 -0.340828 0)
(-0.010411 -0.357988 0)
(-0.00936103 -0.37758 0)
(-0.0245122 -0.424227 0)
(-0.0559644 -0.509812 0)
(-0.0915044 -0.614427 0)
(-0.107224 -0.696147 0)
(-0.0910708 -0.733397 0)
(-0.0527617 -0.732402 0)
(-0.0177834 -0.718856 0)
(-0.00425748 -0.745043 0)
(-0.0253184 -0.831627 0)
(-0.0832467 -0.953093 0)
(-0.10809 -1.07764 0)
(-0.047309 -1.07134 0)
(0.0100943 -0.319101 0)
(0.0324408 -0.320938 0)
(0.0620276 -0.327659 0)
(0.103454 -0.339483 0)
(0.166218 -0.363522 0)
(0.260161 -0.441731 0)
(0.388944 -0.651 0)
(0.45569 -0.871665 0)
(0.357901 -0.862847 0)
(0.133564 -0.703565 0)
(-0.0766966 -0.480595 0)
(-0.155473 -0.406758 0)
(-0.140234 -0.392356 0)
(-0.0982235 -0.386953 0)
(-0.0544364 -0.384734 0)
(-0.0146319 -0.389851 0)
(0.0166411 -0.398047 0)
(0.0397459 -0.404039 0)
(0.0472603 -0.418616 0)
(0.0274977 -0.454499 0)
(-0.0103946 -0.525308 0)
(-0.0440049 -0.616049 0)
(-0.0512329 -0.688566 0)
(-0.020408 -0.716995 0)
(0.0317407 -0.702426 0)
(0.0727726 -0.696638 0)
(0.0753074 -0.726109 0)
(0.0175156 -0.794182 0)
(-0.0623718 -0.985204 0)
(-0.0446325 -1.08301 0)
(0.0109209 -0.341572 0)
(0.0335946 -0.348547 0)
(0.0678155 -0.377466 0)
(0.122568 -0.416969 0)
(0.210527 -0.484296 0)
(0.338857 -0.602512 0)
(0.427217 -0.726215 0)
(0.385554 -0.764814 0)
(0.197147 -0.681694 0)
(-0.0333408 -0.592323 0)
(-0.162446 -0.503859 0)
(-0.165112 -0.461719 0)
(-0.130089 -0.445591 0)
(-0.0913162 -0.43831 0)
(-0.0514715 -0.43482 0)
(-0.0140043 -0.434949 0)
(0.0194781 -0.436209 0)
(0.050083 -0.438813 0)
(0.0741387 -0.447438 0)
(0.082231 -0.463934 0)
(0.0637788 -0.495356 0)
(0.0253231 -0.554891 0)
(-0.00449194 -0.636893 0)
(0.00488039 -0.703793 0)
(0.0561576 -0.709572 0)
(0.109687 -0.678847 0)
(0.130343 -0.657855 0)
(0.0948787 -0.658798 0)
(0.0102532 -0.845286 0)
(-0.0234058 -1.05832 0)
(0.0152583 -0.372793 0)
(0.0429914 -0.378523 0)
(0.0834188 -0.450878 0)
(0.151797 -0.50646 0)
(0.250814 -0.586272 0)
(0.332001 -0.6405 0)
(0.320826 -0.659967 0)
(0.182996 -0.627703 0)
(0.0179336 -0.608785 0)
(-0.0960154 -0.589964 0)
(-0.144255 -0.541162 0)
(-0.143132 -0.510436 0)
(-0.118516 -0.498122 0)
(-0.0847114 -0.491568 0)
(-0.0477232 -0.488004 0)
(-0.0113492 -0.484299 0)
(0.0223125 -0.479974 0)
(0.0518813 -0.475836 0)
(0.0769588 -0.475373 0)
(0.0954252 -0.482417 0)
(0.100308 -0.501331 0)
(0.0831967 -0.536192 0)
(0.0492847 -0.599819 0)
(0.0326978 -0.686487 0)
(0.0619439 -0.720627 0)
(0.105624 -0.673073 0)
(0.130354 -0.629802 0)
(0.124897 -0.605055 0)
(0.073468 -0.747732 0)
(0.0147554 -0.991299 0)
(0.0346552 -0.446592 0)
(0.0740388 -0.431555 0)
(0.11018 -0.520637 0)
(0.174709 -0.557271 0)
(0.231454 -0.589458 0)
(0.229559 -0.576003 0)
(0.13886 -0.556116 0)
(0.0344147 -0.559563 0)
(-0.0392075 -0.574762 0)
(-0.0952425 -0.574347 0)
(-0.124692 -0.561824 0)
(-0.126816 -0.551558 0)
(-0.109194 -0.546183 0)
(-0.0793744 -0.545696 0)
(-0.043006 -0.544284 0)
(-0.00524171 -0.539807 0)
(0.0293061 -0.529955 0)
(0.0586284 -0.518593 0)
(0.0814307 -0.507941 0)
(0.0983705 -0.503028 0)
(0.1081 -0.509171 0)
(0.105822 -0.533508 0)
(0.0854166 -0.584471 0)
(0.0598468 -0.67021 0)
(0.0591442 -0.721464 0)
(0.0753581 -0.668654 0)
(0.0919078 -0.632597 0)
(0.116037 -0.629955 0)
(0.110253 -0.742837 0)
(0.0456721 -0.930235 0)
(0.0590899 -0.612493 0)
(0.121065 -0.49667 0)
(0.137922 -0.530854 0)
(0.159993 -0.542777 0)
(0.155977 -0.525778 0)
(0.0946347 -0.497636 0)
(0.0258429 -0.500603 0)
(-0.0225241 -0.523836 0)
(-0.0663217 -0.55072 0)
(-0.102175 -0.567286 0)
(-0.123367 -0.575044 0)
(-0.12578 -0.581013 0)
(-0.110989 -0.590992 0)
(-0.0813689 -0.601882 0)
(-0.0408469 -0.610448 0)
(0.00397502 -0.607167 0)
(0.0443737 -0.590416 0)
(0.0745944 -0.566134 0)
(0.0949542 -0.543737 0)
(0.10619 -0.526363 0)
(0.111593 -0.518706 0)
(0.109323 -0.530412 0)
(0.0938315 -0.572742 0)
(0.0690112 -0.653613 0)
(0.0505396 -0.707086 0)
(0.040894 -0.659864 0)
(0.044074 -0.646104 0)
(0.0712164 -0.6809 0)
(0.0984685 -0.787054 0)
(0.0529863 -0.888877 0)
(0.0610918 -0.798282 0)
(0.117839 -0.53209 0)
(0.120575 -0.48957 0)
(0.104231 -0.482503 0)
(0.0609016 -0.458487 0)
(0.011031 -0.45484 0)
(-0.0247766 -0.474322 0)
(-0.0592879 -0.506742 0)
(-0.0931896 -0.536314 0)
(-0.12206 -0.56143 0)
(-0.139407 -0.582816 0)
(-0.142671 -0.606103 0)
(-0.129563 -0.632409 0)
(-0.0986637 -0.664536 0)
(-0.0479698 -0.693148 0)
(0.0158069 -0.704555 0)
(0.0722047 -0.669115 0)
(0.107209 -0.623641 0)
(0.12281 -0.580658 0)
(0.126166 -0.548604 0)
(0.120752 -0.527976 0)
(0.110641 -0.524272 0)
(0.0905279 -0.555247 0)
(0.0620538 -0.629007 0)
(0.0368985 -0.679781 0)
(0.01745 -0.644503 0)
(-0.0012123 -0.661695 0)
(0.0100152 -0.73626 0)
(0.0606192 -0.856199 0)
(0.0446982 -0.843629 0)
(0.0052488 -0.815522 0)
(0.034647 -0.550007 0)
(0.0527968 -0.43378 0)
(0.0287073 -0.426274 0)
(-0.00545763 -0.420942 0)
(-0.0323743 -0.4329 0)
(-0.0602833 -0.461497 0)
(-0.0923285 -0.492063 0)
(-0.124776 -0.52349 0)
(-0.151946 -0.554442 0)
(-0.170362 -0.587048 0)
(-0.177109 -0.622194 0)
(-0.171077 -0.667614 0)
(-0.144355 -0.728002 0)
(-0.0827516 -0.807487 0)
(0.0290011 -0.862983 0)
(0.128932 -0.784119 0)
(0.167373 -0.688867 0)
(0.173278 -0.61739 0)
(0.161744 -0.564836 0)
(0.142115 -0.531583 0)
(0.118001 -0.513987 0)
(0.088179 -0.530753 0)
(0.0527715 -0.595423 0)
(0.0220939 -0.645842 0)
(-0.0103709 -0.631154 0)
(-0.0443335 -0.679497 0)
(-0.0321214 -0.829712 0)
(0.0386438 -0.957557 0)
(0.0396137 -0.802154 0)
(-0.0337354 -0.753334 0)
(-0.0448182 -0.566282 0)
(-0.0240743 -0.405179 0)
(-0.0314654 -0.398661 0)
(-0.0450139 -0.402851 0)
(-0.0633737 -0.423034 0)
(-0.0911391 -0.449077 0)
(-0.125206 -0.47771 0)
(-0.15957 -0.509441 0)
(-0.189377 -0.54536 0)
(-0.210702 -0.58208 0)
(-0.226608 -0.623898 0)
(-0.239614 -0.679857 0)
(-0.244144 -0.764393 0)
(-0.180761 -0.889632 0)
(0.040762 -1.05172 0)
(0.245672 -0.894466 0)
(0.280755 -0.751256 0)
(0.252902 -0.640952 0)
(0.216651 -0.569863 0)
(0.175811 -0.523756 0)
(0.134787 -0.497193 0)
(0.0920285 -0.497972 0)
(0.0473256 -0.551715 0)
(0.000171231 -0.602333 0)
(-0.0291182 -0.637242 0)
(-0.0237255 -0.743264 0)
(0.000882375 -0.952841 0)
(0.0043875 -1.02429 0)
(-0.00305518 -0.802808 0)
(-0.0378269 -0.672973 0)
(-0.0806098 -0.571168 0)
(-0.0768655 -0.4113 0)
(-0.0688184 -0.393206 0)
(-0.0711296 -0.398944 0)
(-0.0877916 -0.41699 0)
(-0.118445 -0.43789 0)
(-0.156555 -0.462776 0)