/*--------------------------------*- C++ -*----------------------------------*\
| =========                 |                                                 |
| \\      /  F ield         | OpenFOAM: The Open Source CFD Toolbox           |
|  \\    /   O peration     | Version:  2.3.0                                 |
|   \\  /    A nd           | Web:      www.OpenFOAM.org                      |
|    \\/     M anipulation  |                                                 |
\*---------------------------------------------------------------------------*/
FoamFile
{
    version     2.0;
    format      ascii;
    class       surfaceScalarField;
    location    "1.69999";
    object      phi.water;
}
// * * * * * * * * * * * * * * * * * * * * * * * * * * * * * * * * * * * * * //

dimensions      [0 3 -1 0 0 0 0];

internalField   nonuniform List<scalar> 
23061
(
-2.1421e-08
-1.87836e-07
-1.78919e-06
9.96859e-09
-2.11448e-07
-1.95599e-06
2.68919e-08
-1.552e-07
-1.85532e-06
3.19365e-08
-8.45048e-08
-1.15423e-06
2.92082e-08
-6.34755e-08
-6.5398e-07
2.76387e-08
-2.58361e-08
-8.88655e-07
1.57127e-08
-2.30678e-08
-6.98784e-07
4.50552e-09
-1.90384e-08
-6.43549e-07
-2.56546e-10
-2.12981e-08
-5.85208e-07
-3.35698e-09
-1.79974e-08
-6.53347e-07
-1.47621e-08
-1.55651e-08
-7.03977e-07
-2.86288e-08
-1.2402e-08
-3.60978e-07
-3.58051e-08
-1.6907e-08
-3.54113e-07
-3.90793e-08
-2.13059e-08
-3.93472e-07
-3.6424e-08
-3.75807e-08
-4.57403e-07
-2.61607e-08
-7.25898e-08
-6.92346e-07
-8.30477e-09
-9.09575e-08
-1.26526e-06
1.80791e-08
-1.60483e-07
-1.60455e-06
2.86992e-08
-3.77698e-08
-4.70676e-07
-3.18959e-08
-8.07608e-07
-8.44587e-11
-1.98217e-07
-2.71056e-07
-2.12037e-09
-2.18875e-07
-2.85944e-07
-1.1681e-09
-1.44252e-07
-1.79588e-07
5.64995e-10
-8.09616e-08
-4.33697e-08
1.64695e-09
-6.1885e-08
-2.59909e-07
2.7295e-09
-1.76924e-08
-1.86266e-06
7.7277e-10
-1.66056e-08
-1.06472e-06
1.65598e-10
-1.65603e-08
-1.04847e-06
-3.85433e-11
-1.81772e-08
-9.05265e-07
8.80711e-09
-1.7865e-08
-1.07816e-06
1.04878e-08
-1.46982e-08
-1.27503e-06
2.55438e-09
-1.75049e-08
-7.90241e-07
-1.29953e-10
-1.80997e-08
-5.57701e-07
-1.03844e-09
-1.756e-08
-6.33759e-07
-2.93375e-09
-2.49094e-08
-5.67331e-07
-7.15535e-10
-6.8076e-08
-2.45003e-07
-9.89604e-10
-7.56437e-08
1.13949e-08
-2.51389e-09
-1.53488e-07
-8.88419e-08
-2.68395e-10
-1.73192e-09
8.44034e-07
-1.74403e-09
2.11374e-07
-6.79311e-10
-1.93845e-07
-9.26008e-08
-1.5477e-09
-2.11024e-07
-1.3151e-07
-1.45121e-09
-1.28925e-07
-3.51332e-08
-7.14092e-11
-9.62705e-08
-9.58097e-08
5.88349e-10
-5.97316e-08
-2.51221e-07
-4.07334e-11
-2.60827e-08
-4.71657e-07
5.28727e-11
-1.93257e-08
-6.74649e-07
-3.09917e-11
-1.93532e-08
-6.79421e-07
2.13113e-11
-2.06578e-08
-6.55292e-07
7.55439e-11
-2.01241e-08
-6.63478e-07
1.94252e-10
-1.83504e-08
-6.95763e-07
1.30559e-10
-1.84742e-08
-5.94705e-07
8.56981e-12
-1.75925e-08
-6.4034e-07
-1.40476e-10
-1.80973e-08
-6.08705e-07
-1.21554e-09
-2.45443e-08
-5.28821e-07
-2.09611e-10
-6.9686e-08
-2.48245e-07
-3.68109e-10
-1.11245e-07
-1.86912e-08
-1.59707e-09
-1.50897e-07
3.47029e-08
-1.44381e-11
-2.41087e-08
2.25737e-07
-9.51657e-10
2.45134e-07
8.96211e-10
-1.83973e-07
-2.15519e-08
-1.72641e-09
-1.99127e-07
-1.07888e-07
-1.471e-09
-1.14707e-07
-5.05093e-09
1.08288e-10
-1.07797e-07
-4.94355e-08
4.21123e-10
-5.37964e-08
-2.68e-07
-2.15213e-10
-2.43816e-08
-5.88346e-07
2.84501e-11
-1.78304e-08
-8.19516e-07
2.243e-11
-1.83457e-08
-7.81001e-07
3.6787e-11
-1.93311e-08
-7.32662e-07
6.81731e-11
-1.87268e-08
-7.61457e-07
5.48587e-11
-1.7036e-08
-8.2768e-07
-8.65776e-11
-1.75256e-08
-7.9388e-07
-2.2449e-10
-1.83906e-08
-7.4839e-07
-1.45716e-10
-1.78782e-08
-7.81072e-07
-5.84728e-10
-2.35044e-08
-6.37995e-07
-1.76276e-09
-6.84947e-08
-2.39364e-07
-4.56007e-09
-1.36755e-07
-1.89131e-08
-3.4852e-09
-1.57873e-07
9.64372e-08
1.2458e-11
-8.22322e-08
-3.69312e-07
-7.0856e-10
3.17077e-07
5.6175e-09
-1.87549e-07
8.18127e-09
3.21037e-09
-1.88653e-07
-9.05599e-08
-1.03041e-09
-9.91558e-08
1.72102e-08
1.67357e-10
-1.1511e-07
-5.42914e-08
5.19505e-10
-4.99878e-08
-2.96429e-07
-2.13437e-10
-2.31291e-08
-5.78293e-07
6.49795e-12
-1.80546e-08
-7.77204e-07
2.09706e-11
-1.7986e-08
-7.63717e-07
4.99228e-11
-1.88694e-08
-7.23104e-07
3.34052e-11
-1.81169e-08
-7.53106e-07
-3.90991e-11
-1.62592e-08
-8.30903e-07
-2.05486e-11
-1.67994e-08
-8.48664e-07
-2.32776e-11
-1.70544e-08
-8.34716e-07
1.02187e-10
-1.7188e-08
-8.07609e-07
-1.81475e-10
-2.25757e-08
-6.21818e-07
-1.43073e-09
-6.46385e-08
-2.06509e-07
-3.5029e-09
-1.43393e-07
-1.10789e-08
-3.1124e-09
-1.59889e-07
5.61442e-08
-7.32118e-10
-1.16772e-07
-4.0885e-07
-6.39216e-10
4.46718e-07
6.88572e-09
-1.94373e-07
-4.73665e-08
4.27378e-09
-1.75913e-07
-8.50233e-08
-1.31566e-09
-8.84707e-08
1.0902e-07
-8.48865e-10
-1.05129e-07
-3.01342e-08
3.70136e-10
-4.6997e-08
-3.13364e-07
-2.44644e-10
-2.14179e-08
-6.50238e-07
-2.27851e-11
-1.7592e-08
-8.02439e-07
3.39739e-12
-1.70164e-08
-8.22683e-07
1.41615e-11
-1.84904e-08
-7.72431e-07
3.24e-11
-1.75247e-08
-8.11783e-07
-2.78647e-11
-1.55845e-08
-9.20202e-07
-4.43483e-11
-1.62409e-08
-8.68846e-07
-4.74482e-11
-1.66608e-08
-8.31289e-07
3.04294e-10
-1.68883e-08
-8.34397e-07
2.8776e-11
-2.21371e-08
-6.39659e-07
-1.27794e-09
-5.68336e-08
-2.30526e-07
-1.18042e-09
-1.43594e-07
-2.93341e-08
-1.08447e-09
-1.56475e-07
6.95081e-08
-1.07931e-09
-1.1361e-07
1.6967e-08
-4.7995e-10
6.22816e-07
3.00684e-09
-1.91199e-07
-1.19802e-07
4.16176e-11
-1.64839e-07
-2.4103e-08
-1.27425e-09
-9.55681e-08
1.13574e-07
-4.51769e-10
-8.74306e-08
-1.18595e-09
6.3544e-10
-4.36538e-08
-3.14434e-07
-1.42806e-10
-2.00854e-08
-6.72212e-07
1.97729e-11
-1.71422e-08
-8.06226e-07
-1.41706e-12
-1.62774e-08
-8.38638e-07
-5.53706e-12
-1.71339e-08
-7.92165e-07
8.7326e-12
-1.64053e-08
-8.33254e-07
-1.46236e-11
-1.44238e-08
-9.47794e-07
-3.49054e-11
-1.5218e-08
-8.99158e-07
-6.36177e-11
-1.60636e-08
-8.66477e-07
2.5586e-10
-1.66753e-08
-8.45965e-07
-3.4861e-10
-2.13155e-08
-6.46371e-07
-2.06084e-09
-4.67136e-08
-2.90589e-07
-2.44671e-09
-1.42688e-07
-5.25625e-08
-1.80037e-09
-1.66951e-07
6.98828e-08
-1.08414e-09
-1.39614e-07
-4.96956e-11
-1.02434e-09
6.78359e-07
1.10252e-09
-1.78167e-07
-5.90413e-08
4.49804e-10
-1.77656e-07
3.20958e-08
1.10423e-10
-1.25388e-07
7.67948e-08
1.57365e-10
-7.74055e-08
2.43012e-08
8.28089e-10
-3.52137e-08
-2.92242e-07
1.37115e-10
-1.67256e-08
-6.87994e-07
7.11214e-11
-1.38509e-08
-8.10099e-07
2.44687e-12
-1.28881e-08
-8.57109e-07
-9.19219e-12
-1.44274e-08
-7.77384e-07
-3.02431e-12
-1.39458e-08
-8.20198e-07
-2.43701e-11
-1.2359e-08
-9.26141e-07
-2.9752e-11
-1.31075e-08
-8.81709e-07
-8.44643e-11
-1.32168e-08
-8.63699e-07
-2.18953e-10
-1.38092e-08
-8.33449e-07
-8.66481e-10
-1.8345e-08
-6.39316e-07
-2.82552e-09
-3.6582e-08
-3.16483e-07
-5.1609e-09
-1.38347e-07
-3.6369e-08
-5.23899e-09
-1.85784e-07
5.70134e-09
-3.07238e-09
-1.73631e-07
-1.47721e-07
-1.95846e-08
2.25285e-07
-4.63671e-09
-1.56265e-07
-9.31897e-09
-5.75197e-10
-2.02111e-07
-2.12687e-08
3.65581e-09
-1.74457e-07
4.13481e-08
7.68295e-10
-6.79639e-08
4.32363e-08
-7.25318e-12
-1.95809e-08
-1.42737e-07
-4.86352e-11
-9.50976e-09
-5.77136e-07
4.47748e-13
-8.38605e-09
-6.53592e-07
-8.10495e-11
-7.04193e-09
-7.07589e-07
3.12182e-11
-8.62908e-09
-6.3265e-07
1.52497e-10
-8.5572e-09
-6.4217e-07
-4.51802e-11
-6.89464e-09
-7.60462e-07
-8.62925e-11
-7.88545e-09
-6.98885e-07
-6.07219e-11
-7.90429e-09
-6.65618e-07
-2.15574e-10
-8.31964e-09
-6.51713e-07
-3.43655e-10
-1.15642e-08
-4.79525e-07
-1.62458e-09
-2.25398e-08
-1.68387e-07
-3.53385e-09
-1.33249e-07
-8.99353e-10
-4.69837e-09
-1.82918e-07
-2.48767e-07
5.48562e-10
-1.67875e-07
-1.77284e-07
-5.89365e-08
-5.26561e-07
-4.26238e-09
-1.41584e-07
4.2249e-08
-2.12073e-09
-2.06062e-07
-6.94539e-08
2.42137e-09
-2.04048e-07
-8.73489e-08
9.42099e-10
-4.84445e-08
1.02514e-07
-5.68807e-11
-1.50009e-08
2.95493e-08
5.12018e-11
-6.74877e-09
1.38327e-08
2.8198e-11
-5.36902e-09
1.28081e-08
2.44106e-11
-4.26936e-09
1.17688e-08
4.76822e-13
-5.09616e-09
1.42527e-08
-9.22034e-12
-5.09414e-09
1.40571e-08
1.97622e-11
-4.13944e-09
1.17325e-08
4.09247e-12
-4.56542e-09
1.33619e-08
-4.59216e-11
-4.6528e-09
1.31071e-08
-4.71718e-11
-5.15237e-09
1.32806e-08
-1.75291e-10
-8.18831e-09
1.52567e-08
1.46015e-10
-1.40318e-08
4.08865e-08
-1.92848e-10
-1.25582e-07
-2.66281e-08
-1.90157e-09
-1.59009e-07
-4.30081e-07
3.37702e-09
-1.01894e-07
-3.78695e-08
-4.19463e-08
-2.13406e-07
-1.9421e-09
-1.44526e-07
7.04404e-08
-2.933e-09
-1.91917e-07
-3.80624e-08
-1.28939e-09
-2.05372e-07
-1.90176e-07
-1.01e-10
-3.30655e-08
1.70956e-07
-4.36449e-10
-1.77274e-08
-4.89662e-09
-3.40393e-11
-8.78039e-09
-1.79786e-09
3.23853e-12
-7.00012e-09
-1.35487e-09
-4.71576e-12
-5.35665e-09
-8.17739e-10
-1.25949e-12
-6.27897e-09
-2.18722e-10
8.27136e-12
-6.34034e-09
-3.59182e-10
-6.30041e-12
-5.38826e-09
-1.15899e-09
-1.15545e-11
-5.78497e-09
-3.11313e-10
-1.20357e-11
-5.97706e-09
-6.7504e-10
3.98959e-11
-6.79282e-09
-1.39421e-09
8.90274e-11
-1.08565e-08
-3.90512e-09
1.22629e-09
-1.51152e-08
4.68146e-09
7.26376e-10
-9.67978e-08
-3.33003e-08
4.4458e-12
-8.3399e-08
-2.02534e-07
3.45896e-10
-2.56684e-08
3.00861e-07
-2.06533e-09
5.16455e-07
-6.47659e-11
-1.556e-07
4.00954e-08
-3.66247e-09
-1.65901e-07
-3.49902e-08
-2.99027e-09
-1.94093e-07
-2.41821e-07
-5.3196e-11
-3.73167e-08
1.46378e-07
-4.86073e-10
-1.45995e-08
-7.79256e-10
-9.86822e-11
-9.87754e-09
-1.71078e-09
-1.77921e-11
-9.28066e-09
-7.7038e-09
-2.4781e-11
-5.75548e-09
-9.45944e-10
-1.71368e-12
-8.21898e-09
-6.72793e-09
2.40065e-11
-8.32104e-09
-6.8455e-09
-1.57138e-11
-5.93231e-09
-1.38303e-09
-1.35383e-11
-7.24568e-09
-5.33714e-09
5.53212e-11
-7.93295e-09
-6.59574e-09
1.49007e-10
-9.02968e-09
-7.51413e-09
4.33786e-10
-1.1125e-08
-4.76904e-09
1.93304e-09
-1.40296e-08
2.5884e-09
1.67641e-09
-6.58011e-08
3.09896e-08
-5.26934e-12
-1.12279e-08
4.94944e-07
-9.61046e-11
-1.59183e-09
5.71312e-07
-2.41889e-09
5.68607e-07
3.26967e-10
-1.57619e-07
1.59758e-08
-2.41636e-09
-1.48399e-07
1.17194e-08
-2.27922e-09
-1.59682e-07
-1.84496e-07
3.17593e-10
-6.0468e-08
4.68306e-08
-1.97428e-10
-1.33592e-08
-4.60098e-11
-7.38705e-11
-9.53035e-09
-7.73263e-10
-4.05872e-11
-1.11674e-08
-5.46571e-09
-1.27518e-11
-6.59931e-09
-1.93735e-09
2.1307e-12
-1.0325e-08
-6.05684e-09
5.10069e-12
-1.03818e-08
-5.96771e-09
2.48972e-11
-6.74802e-09
-1.88764e-09
7.17747e-11
-8.6282e-09
-3.83529e-09
8.5965e-11
-8.75412e-09
-3.30033e-09
9.08399e-11
-9.76519e-09
-3.0406e-09
3.61881e-10
-9.46806e-09
3.57342e-09
2.92769e-09
-1.28209e-08
1.19942e-08
2.63603e-09
-5.47504e-08
6.9909e-08
-4.49837e-11
-3.12377e-10
1.18268e-06
1.45667e-10
-1.42531e-09
5.02111e-07
-3.04334e-08
-5.51343e-08
1.10468e-09
-1.54243e-07
6.56214e-08
1.05314e-09
-1.46633e-07
4.71276e-08
-8.29956e-10
-1.24015e-07
-1.05695e-09
-2.37508e-10
-8.36987e-08
-7.16932e-08
1.32744e-10
-1.24349e-08
2.93638e-09
-1.28163e-11
-8.39707e-09
5.54271e-10
-3.52115e-11
-1.05953e-08
-5.82193e-10
4.51022e-11
-7.16402e-09
-1.13346e-09
3.93456e-12
-1.02373e-08
-1.58208e-09
-7.83177e-11
-1.02029e-08
-1.50135e-09
-5.55498e-12
-7.11729e-09
-6.75271e-10
8.28658e-11
-9.87242e-09
-3.33301e-09
4.05163e-11
-8.40276e-09
-1.64466e-10
-1.79006e-11
-9.6575e-09
-3.36306e-10
3.01158e-10
-9.19314e-09
3.80916e-09
3.35845e-09
-1.50817e-08
8.09493e-09
3.05243e-09
-5.1772e-08
6.52305e-08
-1.76371e-10
-3.79597e-10
1.34751e-06
1.2364e-09
-2.91488e-08
1.92648e-07
-7.35485e-08
-2.87292e-07
8.16899e-10
-1.60259e-07
6.02277e-08
1.54968e-09
-1.47027e-07
3.40784e-08
-3.61461e-10
-1.25722e-07
5.1656e-08
-3.99673e-10
-9.04923e-08
-1.09443e-07
2.82509e-10
-1.15605e-08
4.65644e-09
8.19459e-12
-8.02518e-09
2.8076e-10
-1.71282e-11
-9.32437e-09
1.50262e-09
2.35335e-11
-7.40552e-09
-4.62871e-10
-3.30246e-14
-9.61152e-09
1.82781e-13
-4.60018e-11
-9.92246e-09
2.87795e-10
-5.20812e-11
-7.3247e-09
-5.03629e-10
-1.74279e-11
-1.08533e-08
-2.78903e-09
8.65039e-12
-8.54073e-09
6.63346e-10
-6.60333e-11
-9.40897e-09
-1.07123e-10
4.08844e-10
-1.02117e-08
4.50184e-10
1.8733e-09
-2.01476e-08
-9.02778e-09
1.25507e-09
-5.01031e-08
5.12074e-08
-1.66392e-10
-5.49735e-09
7.93359e-07
1.81774e-09
-7.73487e-08
-1.55338e-07
-8.99207e-08
-1.36496e-07
-1.16875e-09
-1.65043e-07
-8.66814e-09
1.28865e-09
-1.38423e-07
3.16026e-08
8.01028e-10
-1.39588e-07
-7.69092e-09
8.42239e-11
-7.4931e-08
-6.11366e-08
2.40435e-10
-1.07031e-08
5.14071e-09
-3.14613e-11
-7.30962e-09
1.61266e-09
-9.99461e-12
-9.29002e-09
1.2256e-10
8.00004e-12
-7.56091e-09
-3.23414e-10
-2.73335e-12
-9.51205e-09
-1.12783e-11
1.2963e-11
-9.89061e-09
-7.70001e-11
-1.66674e-12
-7.62768e-09
-7.72411e-10
-5.14662e-11
-1.03904e-08
-9.1185e-10
-2.19251e-11
-9.61656e-09
-1.95783e-09
-7.4428e-11
-8.85986e-09
1.69992e-10
4.80716e-10
-1.19387e-08
-2.84595e-09
-9.19234e-10
-2.42478e-08
-1.95712e-08
-1.88652e-09
-4.89297e-08
3.3396e-08
4.27071e-09
-3.8297e-08
-3.87153e-07
6.13605e-09
-9.97765e-08
-2.31955e-07
-7.60498e-08
-7.17006e-08
-1.8792e-09
-1.44726e-07
-4.23622e-08
6.7814e-10
-1.19455e-07
3.1891e-08
8.12894e-10
-1.25905e-07
-2.67597e-08
8.11473e-11
-5.44057e-08
2.8093e-08
7.93941e-12
-9.695e-09
5.73898e-09
-9.91575e-13
-7.48908e-09
9.54905e-10
3.37296e-11
-9.05939e-09
5.97818e-10
3.85497e-11
-7.72722e-09
-3.96535e-10
-5.57957e-13
-8.84909e-09
1.33108e-09
-1.95605e-11
-8.8906e-09
9.95597e-10
3.83681e-11
-7.90964e-09
-4.96014e-10
-1.10583e-11
-9.42358e-09
8.12529e-11
-7.4811e-11
-9.57612e-09
-2.36958e-09
-4.95183e-11
-8.64992e-09
4.93427e-10
1.99926e-10
-1.39687e-08
-4.97618e-09
-1.75834e-09
-2.52214e-08
-1.06149e-08
-2.30474e-09
-4.81165e-08
2.78652e-08
3.92593e-09
-7.25772e-08
-5.85007e-07
4.73879e-09
-8.19888e-08
-7.25298e-08
-5.12008e-08
-6.16381e-09
-2.30015e-10
-9.91504e-08
-5.34557e-09
5.13101e-10
-9.15943e-08
2.74315e-09
7.09276e-11
-9.82257e-08
-3.88226e-09
-2.00188e-10
-5.17072e-08
3.88738e-08
4.15111e-12
-1.04691e-08
2.42174e-09
6.87827e-11
-8.96193e-09
-2.28243e-09
3.15973e-11
-8.11236e-09
5.31039e-09
3.15695e-11
-8.17591e-09
-1.04408e-09
2.06904e-12
-7.87887e-09
5.05877e-09
-3.07952e-11
-7.88759e-09
5.15984e-09
5.24423e-11
-8.39434e-09
-8.57296e-10
2.54518e-11
-8.67271e-09
4.63055e-09
-1.36352e-10
-8.00541e-09
4.44353e-09
-5.32468e-11
-8.70177e-09
4.05378e-09
-1.44638e-10
-1.78467e-08
-5.28669e-09
-7.3052e-10
-2.75089e-08
3.14524e-09
-2.28074e-10
-4.4514e-08
1.66854e-08
8.88077e-10
-6.09078e-08
-1.15886e-07
9.93051e-10
-5.55335e-08
2.36242e-08
-3.67365e-08
1.70214e-08
-2.88912e-10
-5.64235e-08
7.30376e-09
2.30911e-10
-5.86601e-08
-9.43438e-09
-2.05459e-10
-6.21163e-08
-1.61639e-09
-1.57413e-10
-4.51007e-08
-1.39059e-08
-5.12552e-11
-1.39512e-08
-6.40168e-09
5.66212e-11
-1.40772e-08
-1.15674e-08
7.00808e-11
-8.03985e-09
4.68044e-09
8.05256e-11
-9.69875e-09
-3.56176e-09
-1.81896e-12
-6.62955e-09
6.30813e-09
-8.56825e-11
-6.58572e-09
6.49743e-09
6.89801e-12
-1.01552e-08
-3.93296e-09
2.20339e-11
-9.17091e-09
3.75851e-09
-3.46356e-11
-6.9127e-09
6.13215e-09
6.91326e-11
-1.07308e-08
-7.85618e-10
-1.35453e-10
-2.90439e-08
-1.69871e-08
5.28183e-11
-4.04665e-08
-1.36566e-08
4.59268e-10
-3.37331e-08
-7.78003e-09
-7.11419e-11
-3.94867e-08
5.66954e-08
1.18389e-10
-4.05678e-08
1.02477e-09
-2.91195e-08
-3.81823e-09
-1.91106e-10
-1.53332e-08
-2.54215e-11
-6.50941e-09
1.10512e-10
-8.52448e-09
-3.08645e-10
-3.13114e-08
-4.47756e-10
-6.18605e-09
-9.8262e-11
-8.90301e-09
-5.71049e-11
-4.72699e-10
-5.38856e-11
-2.92615e-09
3.04216e-13
1.39269e-09
5.65227e-11
1.54332e-09
-1.72118e-11
-3.61676e-09
-2.46093e-11
-1.53953e-09
1.95083e-10
1.8569e-09
2.36823e-10
-4.43624e-09
-8.72404e-11
-1.58612e-08
-1.49601e-10
-1.70965e-08
2.37824e-11
-4.43173e-09
2.93715e-11
2.35135e-08
1.4505e-10
-7.22258e-09
-8.10812e-09
-2.25306e-08
-1.86677e-07
-1.6276e-06
1.08564e-08
-2.10636e-07
-1.77804e-06
2.86263e-08
-1.55691e-07
-1.71666e-06
3.35104e-08
-8.6538e-08
-1.07186e-06
3.03001e-08
-6.17055e-08
-5.88514e-07
2.80493e-08
-2.59743e-08
-8.60173e-07
1.5954e-08
-2.22965e-08
-6.64523e-07
4.47668e-09
-1.82278e-08
-6.13726e-07
-2.84372e-10
-2.05164e-08
-5.59862e-07
-3.6507e-09
-1.7234e-08
-6.32409e-07
-1.56293e-08
-1.5109e-08
-6.76924e-07
-2.90959e-08
-1.142e-08
-3.35689e-07
-3.66054e-08
-1.54681e-08
-3.32188e-07
-4.02185e-08
-1.99758e-08
-3.70714e-07
-3.79887e-08
-3.56413e-08
-4.24329e-07
-2.757e-08
-7.18186e-08
-6.30422e-07
-8.87646e-09
-1.00164e-07
-1.18299e-06
1.99467e-08
-1.60812e-07
-1.47184e-06
2.97369e-08
-3.85346e-08
-4.41123e-07
-3.61357e-08
-7.67929e-07
-1.23685e-10
-1.98223e-07
-2.58942e-07
-1.85181e-09
-2.20229e-07
-2.74622e-07
-7.86641e-10
-1.47973e-07
-1.8837e-07
7.74705e-10
-8.37897e-08
-4.76768e-08
1.6843e-09
-5.96959e-08
-2.62835e-07
2.84957e-09
-1.67848e-08
-1.87301e-06
7.51021e-10
-1.53198e-08
-1.06997e-06
1.50483e-10
-1.53969e-08
-1.05079e-06
-2.78971e-11
-1.67127e-08
-9.08898e-07
8.70473e-09
-1.66966e-08
-1.08738e-06
9.94814e-09
-1.36115e-08
-1.27918e-06
2.29464e-09
-1.59668e-08
-7.85732e-07
-1.48387e-10
-1.68785e-08
-5.5453e-07
-1.16701e-09
-1.60912e-08
-6.35861e-07
-3.24025e-09
-2.3064e-08
-5.71669e-07
-8.31333e-10
-6.70743e-08
-2.52128e-07
-1.04009e-09
-8.57431e-08
-2.81386e-09
-2.94064e-09
-1.57869e-07
-8.98819e-08
-1.15397e-09
-4.30528e-09
8.08018e-07
-8.91641e-09
1.85383e-07
-6.10924e-10
-1.95232e-07
-9.40997e-08
-1.5613e-09
-2.14008e-07
-1.3678e-07
-1.46537e-09
-1.36954e-07
-4.62477e-08
5.07378e-11
-9.81747e-08
-8.29407e-08
6.55627e-10
-5.77959e-08
-2.53722e-07
-2.44038e-11
-2.45652e-08
-4.6343e-07
4.94612e-11
-1.80974e-08
-6.7207e-07
-3.54147e-11
-1.81385e-08
-6.76618e-07
2.22682e-11
-1.93497e-08
-6.52775e-07
7.28893e-11
-1.8832e-08
-6.61389e-07
1.93444e-10
-1.71829e-08
-6.92409e-07
1.34591e-10
-1.70849e-08
-5.93256e-07
1.86844e-11
-1.62057e-08
-6.40474e-07
-1.34629e-10
-1.67419e-08
-6.07598e-07
-1.29177e-09
-2.27231e-08
-5.27921e-07
-3.0926e-10
-6.87524e-08
-2.47545e-07
-6.14187e-10
-1.14374e-07
1.02447e-08
-2.23774e-09
-1.59416e-07
3.78733e-08
-3.84973e-10
-2.93614e-08
2.4894e-07
-4.91421e-09
2.41278e-07
9.20815e-10
-1.88368e-07
-2.48978e-08
-1.71921e-09
-2.02532e-07
-1.16725e-07
-1.48438e-09
-1.26795e-07
-1.54452e-08
1.3936e-10
-1.09051e-07
-4.01832e-08
4.08785e-10
-5.19113e-08
-2.74149e-07
-2.1342e-10
-2.27122e-08
-5.8955e-07
2.71236e-11
-1.66575e-08
-8.21198e-07
2.18746e-11
-1.71427e-08
-7.81975e-07
3.58194e-11
-1.80649e-08
-7.33956e-07
6.4989e-11
-1.74988e-08
-7.62836e-07
5.34578e-11
-1.59144e-08
-8.2891e-07
-8.50877e-11
-1.63606e-08
-7.94398e-07
-2.27504e-10
-1.71943e-08
-7.47208e-07
-1.62224e-10
-1.67122e-08
-7.81091e-07
-6.06189e-10
-2.19095e-08
-6.38321e-07
-1.7551e-09
-6.74529e-08
-2.3951e-07
-4.55766e-09
-1.37448e-07
6.96356e-09
-3.49568e-09
-1.6672e-07
1.02679e-07
5.36545e-10
-8.85081e-08
-3.14198e-07
-2.28468e-09
3.14427e-07
5.69335e-09
-1.91879e-07
9.87645e-09
3.23007e-09
-1.91783e-07
-9.88453e-08
-9.55375e-10
-1.1359e-07
8.19104e-09
2.05852e-10
-1.16506e-07
-4.79978e-08
4.96475e-10
-4.85441e-08
-3.00086e-07
-2.32725e-10
-2.16107e-08
-5.78663e-07
7.2215e-12
-1.68859e-08
-7.77215e-07
1.93418e-11
-1.68214e-08
-7.64033e-07
4.92426e-11
-1.76643e-08
-7.23489e-07
3.39423e-11
-1.69308e-08
-7.53599e-07
-3.96481e-11
-1.5215e-08
-8.31486e-07
-1.77153e-11
-1.56984e-08
-8.49312e-07
-2.02103e-11
-1.59381e-08
-8.35954e-07
1.38248e-10
-1.60765e-08
-8.08379e-07
-1.45612e-10
-2.10722e-08
-6.22385e-07
-1.38626e-09
-6.3556e-08
-2.09164e-07
-3.30401e-09
-1.42944e-07
-3.66532e-09
-3.14285e-09
-1.68556e-07
5.78188e-08
-8.45229e-10
-1.25231e-07
-3.74424e-07
-1.80224e-09
4.454e-07
6.66864e-09
-1.96303e-07
-4.57483e-08
4.32494e-09
-1.78976e-07
-9.54872e-08
-1.39609e-09
-1.02798e-07
1.03949e-07
-9.4755e-10
-1.14348e-07
-3.27399e-08
3.62e-10
-4.60096e-08
-3.17207e-07
-2.63588e-10
-1.99506e-08
-6.51265e-07
-2.0932e-11
-1.6445e-08
-8.03107e-07
3.4726e-12
-1.59102e-08
-8.23584e-07
1.47743e-11
-1.72583e-08
-7.72834e-07
3.2002e-11
-1.63359e-08
-8.12385e-07
-2.88664e-11
-1.45521e-08
-9.20779e-07
-4.21426e-11
-1.5167e-08
-8.69355e-07
-4.28951e-11
-1.55822e-08
-8.31618e-07
3.43655e-10
-1.57905e-08
-8.3505e-07
8.58782e-11
-2.06568e-08
-6.39818e-07
-1.18846e-09
-5.56285e-08
-2.37179e-07
-1.17457e-09
-1.42586e-07
-2.97063e-08
-1.4804e-09
-1.65854e-07
6.71121e-08
-1.60485e-09
-1.22273e-07
1.41328e-08
-1.55678e-09
6.2114e-07
3.025e-09
-1.93706e-07
-1.20641e-07
-1.41076e-11
-1.70128e-07
-2.99118e-08
-1.53287e-09
-1.06924e-07
1.19219e-07
-6.53618e-10
-1.02878e-07
-1.3536e-08
6.38741e-10
-4.2787e-08
-3.18949e-07
-1.54354e-10
-1.87367e-08
-6.72636e-07
1.90605e-11
-1.59885e-08
-8.06861e-07
-3.23576e-12
-1.51778e-08
-8.39346e-07
-6.55213e-12
-1.58688e-08
-7.93516e-07
8.86651e-12
-1.51885e-08
-8.34378e-07
-1.39535e-11
-1.33352e-08
-9.48961e-07
-3.54717e-11
-1.40776e-08
-9.00201e-07
-6.31932e-11
-1.49798e-08
-8.67062e-07
2.56929e-10
-1.55421e-08
-8.46537e-07
-3.29889e-10
-1.98966e-08
-6.46547e-07
-1.92286e-09
-4.55764e-08
-2.99048e-07
-2.50745e-09
-1.41414e-07
-5.31498e-08
-2.10611e-09
-1.73347e-07
7.69739e-08
-1.30062e-09
-1.4455e-07
2.14227e-08
-3.06606e-09
6.78401e-07
1.07921e-09
-1.8549e-07
-6.54525e-08
4.47777e-10
-1.82537e-07
4.51369e-08
2.74974e-10
-1.32747e-07
1.02791e-07
2.32199e-10
-9.09073e-08
1.23737e-08
8.86259e-10
-3.46827e-08
-3.01e-07
1.36575e-10
-1.5633e-08
-6.90348e-07
6.84913e-11
-1.27051e-08
-8.13253e-07
4.08217e-12
-1.17656e-08
-8.60399e-07
-1.04923e-11
-1.35495e-08
-7.79721e-07
-5.06606e-12
-1.30962e-08
-8.22343e-07
-2.44673e-11
-1.15616e-08
-9.27921e-07
-3.02481e-11
-1.22949e-08
-8.83515e-07
-8.40025e-11
-1.21386e-08
-8.66446e-07
-2.36267e-10
-1.265e-08
-8.36141e-07
-9.51636e-10
-1.7196e-08
-6.413e-07
-2.6417e-09
-3.59376e-08
-3.24432e-07
-5.06059e-09
-1.3913e-07
-3.62335e-08
-5.5063e-09
-1.86578e-07
1.93789e-08
-3.08338e-09
-1.77794e-07
-1.169e-07
-2.55813e-08
2.43646e-07
-4.68734e-09
-1.67032e-07
-2.46979e-08
-4.16425e-10
-2.0501e-07
-3.06708e-09
3.9534e-09
-1.77609e-07
8.18399e-08
9.86224e-10
-8.23205e-08
3.76166e-08
8.10657e-11
-2.13299e-08
-1.55184e-07
-5.29027e-11
-9.217e-09
-5.83418e-07
-1.83412e-12
-8.29658e-09
-6.581e-07
-8.18934e-11
-6.87436e-09
-7.12448e-07
3.10399e-11
-8.53587e-09
-6.37777e-07
1.53144e-10
-8.47133e-09
-6.46917e-07
-4.8701e-11
-6.74215e-09
-7.65079e-07
-8.59988e-11
-7.81544e-09
-7.03327e-07
-5.88563e-11
-7.83014e-09
-6.69995e-07
-2.04179e-10
-8.22287e-09
-6.56039e-07
-3.99111e-10
-1.13764e-08
-4.8515e-07
-1.66559e-09
-2.38859e-08
-1.79172e-07
-3.51111e-09
-1.34324e-07
-3.86056e-09
-4.80555e-09
-1.81548e-07
-2.52503e-07
1.4732e-09
-1.77585e-07
-1.83773e-07
-6.83856e-08
-4.92023e-07
-4.27445e-09
-1.51489e-07
2.91995e-08
-2.04932e-09
-2.10173e-07
-6.65154e-08
2.69674e-09
-2.05546e-07
-6.41579e-08
1.03255e-09
-6.51555e-08
8.70136e-08
-9.49438e-11
-1.58477e-08
2.51946e-08
6.24229e-11
-6.68497e-09
1.11433e-08
2.91565e-11
-5.51809e-09
1.00629e-08
2.2423e-11
-4.34663e-09
9.24781e-09
7.41385e-13
-5.25694e-09
1.09954e-08
-7.33783e-12
-5.25865e-09
1.08525e-08
1.98513e-11
-4.24119e-09
9.20439e-09
3.5643e-12
-4.75973e-09
1.03224e-08
-4.82724e-11
-4.8294e-09
1.01582e-08
-6.295e-11
-5.30474e-09
1.03771e-08
-2.12295e-10
-8.21172e-09
1.22413e-08
-7.28133e-13
-1.56166e-08
3.24057e-08
-2.69539e-10
-1.26343e-07
-3.43398e-08
-1.94371e-09
-1.61243e-07
-4.48712e-07
3.65605e-09
-1.28354e-07
-9.26998e-08
-5.75002e-08
-2.30029e-07
-1.95209e-09
-1.5291e-07
7.2499e-08
-3.21689e-09
-1.96709e-07
-5.02621e-08
-1.46975e-09
-2.0811e-07
-1.89359e-07
-2.74913e-11
-4.90485e-08
1.53407e-07
-4.23959e-10
-1.74839e-08
-2.86391e-09
-3.24573e-11
-8.07519e-09
-7.99146e-10
2.91222e-12
-6.53784e-09
-3.70492e-10
-3.90363e-12
-4.93213e-09
-2.25424e-10
-1.29571e-12
-5.8666e-09
3.88332e-10
7.26382e-12
-5.92389e-09
2.97497e-10
-5.44824e-12
-4.96133e-09
-4.26132e-10
-1.09657e-11
-5.40569e-09
3.40164e-10
-1.08699e-11
-5.58498e-09
8.04348e-11
3.86644e-11
-6.34503e-09
-4.03459e-10
1.07609e-10
-1.01269e-08
-2.05891e-09
1.12153e-09
-1.56733e-08
3.72425e-09
6.49532e-10
-1.05032e-07
-5.41391e-08
-1.55329e-10
-1.00087e-07
-2.62885e-07
4.69971e-10
-5.37775e-08
2.25659e-07
-1.33239e-08
4.72294e-07
-1.59555e-11
-1.62412e-07
4.92943e-08
-3.73691e-09
-1.73151e-07
-5.48271e-08
-3.00625e-09
-1.99384e-07
-2.51277e-07
-3.69767e-11
-4.90273e-08
1.43387e-07
-4.82112e-10
-1.64046e-08
-1.41342e-09
-9.03837e-11
-9.0896e-09
-1.0881e-09
-1.68353e-11
-8.74707e-09
-5.56812e-09
-2.31799e-11
-5.29103e-09
-5.80694e-10
-1.57355e-12
-7.74855e-09
-4.86759e-09
2.24514e-11
-7.8447e-09
-4.94871e-09
-1.50019e-11
-5.45281e-09
-8.541e-10
-1.29005e-11
-6.83433e-09
-3.9106e-09
5.26556e-11
-7.48146e-09
-4.76481e-09
1.38496e-10
-8.51645e-09
-5.42855e-09
4.33372e-10
-1.10241e-08
-4.16673e-09
1.8857e-09
-1.53518e-08
8.14529e-10
1.55003e-09
-7.90425e-08
5.33557e-09
-8.7209e-10
-2.58285e-08
4.23107e-07
-8.59972e-10
-1.23081e-08
5.29831e-07
-4.99187e-09
5.5929e-07
4.73559e-10
-1.65591e-07
1.83995e-08
-2.35211e-09
-1.58125e-07
-4.81134e-10
-2.43224e-09
-1.70999e-07
-2.12801e-07
3.00711e-10
-6.564e-08
6.07104e-08
-1.70496e-10
-1.55967e-08
-3.82719e-10
-6.7758e-11
-9.2055e-09
-7.60095e-10
-3.83996e-11
-1.05325e-08
-3.70959e-09
-1.15167e-11
-6.06544e-09
-1.18982e-09
1.96386e-12
-9.73624e-09
-4.08263e-09
4.77964e-12
-9.79143e-09
-4.0238e-09
2.38726e-11
-6.20145e-09
-1.1581e-09
6.81034e-11
-8.1366e-09
-2.57726e-09
7.96899e-11
-8.4638e-09
-2.32958e-09
7.86289e-11
-9.32725e-09
-2.22874e-09
3.74932e-10
-9.86946e-09
2.12251e-09
2.77315e-09
-1.43963e-08
8.64046e-09
2.54627e-09
-6.60077e-08
5.71011e-08
-7.64574e-10
-1.13857e-09
1.1613e-06
-1.44354e-10
-7.37833e-09
4.96561e-07
-3.68125e-08
-2.4483e-08
1.2763e-09
-1.6383e-07
6.259e-08
1.26386e-09
-1.56259e-07
4.52737e-08
-7.16241e-10
-1.38637e-07
-3.14385e-08
-1.71992e-10
-8.50889e-08
-5.27886e-08
1.89574e-10
-1.47869e-08
1.76508e-09
-7.72252e-12
-8.54118e-09
8.72471e-11
-3.28127e-11
-1.04149e-08
-6.74715e-10
4.31084e-11
-6.5857e-09
-6.8912e-10
3.63954e-12
-1.00013e-08
-1.2776e-09
-7.38802e-11
-9.97263e-09
-1.24262e-09
-4.01961e-12
-6.5421e-09
-4.04473e-10
7.91069e-11
-9.30919e-09
-2.24354e-09
3.68128e-11
-8.34482e-09
-2.41151e-10
-2.69218e-11
-9.30649e-09
-2.9333e-10
3.09131e-10
-9.17722e-09
2.78086e-09
3.06595e-09
-1.53608e-08
6.30268e-09
2.81351e-09
-6.119e-08
6.06652e-08
-1.58424e-09
-1.49997e-09
1.35227e-06
4.24205e-10
-3.63671e-08
2.19628e-07
-8.01904e-08
-2.47113e-07
8.94363e-10
-1.6732e-07
6.15223e-08
1.76814e-09
-1.56957e-07
3.39026e-08
-8.90605e-11
-1.34874e-07
4.97496e-08
-2.40512e-10
-9.22252e-08
-1.02156e-07
3.48639e-10
-1.35842e-08
2.86455e-09
1.27958e-11
-8.09738e-09
1.72797e-10
-1.59846e-11
-9.63499e-09
7.51449e-10
2.41335e-11
-6.80938e-09
-2.79309e-10
-1.44736e-12
-9.77361e-09
-2.01881e-10
-4.44351e-11
-9.75296e-09
1.1111e-10
-4.82502e-11
-6.73309e-09
-3.08828e-10
-1.84557e-11
-1.02386e-08
-1.88944e-09
8.25739e-12
-8.26639e-09
5.582e-10
-6.54685e-11
-9.26376e-09
-7.61259e-11
3.76886e-10
-9.73375e-09
5.64363e-10
1.34189e-09
-1.8918e-08
-6.43557e-09
5.77433e-10
-5.83921e-08
4.91739e-08
1.176e-10
-8.62123e-09
8.0094e-07
2.37682e-09
-8.2283e-08
-1.11681e-07
-9.44298e-08
-1.24035e-07
-1.21731e-09
-1.70333e-07
-8.70917e-09
1.4175e-09
-1.50806e-07
2.28169e-08
9.50108e-10
-1.45032e-07
2.93478e-09
1.56877e-10
-8.44564e-08
-6.81123e-08
2.58816e-10
-1.19385e-08
3.39309e-09
-2.85657e-11
-7.27448e-09
1.07715e-09
-9.36957e-12
-9.60479e-09
7.31677e-11
7.2943e-12
-6.95238e-09
-1.97083e-10
-2.30057e-12
-9.71605e-09
-5.92421e-11
1.24399e-11
-9.76074e-09
-8.39575e-11
-2.11228e-12
-7.01169e-09
-4.79261e-10
-4.98533e-11
-1.0217e-08
-8.85704e-10
-1.99769e-11
-9.07074e-09
-1.18336e-09
-6.89585e-11
-8.99497e-09
-4.98161e-11
4.18392e-10
-1.12495e-08
-1.81756e-09
-1.14846e-09
-2.26214e-08
-1.4301e-08
-2.49106e-09
-5.69302e-08
3.32767e-08
4.62934e-09
-4.44712e-08
-3.58424e-07
6.8243e-09
-1.04416e-07
-2.12017e-07
-8.54734e-08
-7.75422e-08
-1.97658e-09
-1.55799e-07
-5.79886e-08
7.74939e-10
-1.35657e-07
1.39909e-08
7.87378e-10
-1.37203e-07
-3.46011e-08
6.74801e-11
-7.1108e-08
1.54646e-08
1.61112e-11
-1.01527e-08
4.00453e-09
3.96427e-12
-7.10759e-09
8.00158e-10
3.44088e-11
-9.41451e-09
3.77091e-10
3.58949e-11
-7.10484e-09
-2.45557e-10
1.17053e-12
-9.16285e-09
8.12607e-10
-1.93336e-11
-9.21221e-09
4.67569e-10
3.85966e-11
-7.27153e-09
-2.94102e-10
-5.83931e-12
-9.81731e-09
-2.73984e-10
-7.33064e-11
-9.47082e-09
-1.90202e-09
-4.73903e-11
-8.81627e-09
2.88808e-10
1.64013e-10
-1.31271e-08
-3.30994e-09
-1.74249e-09
-2.36377e-08
-7.69209e-09
-2.26794e-09
-5.70431e-08
2.85036e-08
4.16512e-09
-7.924e-08
-5.56671e-07
4.95158e-09
-9.28408e-08
-8.48911e-08
-6.56934e-08
-2.3032e-08
-3.10063e-10
-1.2384e-07
-3.74809e-08
6.45398e-10
-1.15556e-07
-1.83129e-08
9.25167e-11
-1.18524e-07
-2.20083e-08
-2.13243e-10
-6.77026e-08
3.57742e-08
1.65881e-11
-1.00481e-08
2.08731e-09
6.74361e-11
-8.21383e-09
-1.22703e-09
3.30075e-11
-8.30889e-09
4.2392e-09
2.85895e-11
-7.51193e-09
-6.32573e-10
1.94966e-12
-8.08709e-09
4.00965e-09
-2.79224e-11
-8.10182e-09
4.07932e-09
5.2842e-11
-7.71123e-09
-4.98356e-10
2.54553e-11
-8.95583e-09
3.79646e-09
-1.32259e-10
-8.22097e-09
3.3514e-09
-4.4373e-11
-8.41867e-09
3.5683e-09
-1.55974e-10
-1.63007e-08
-2.00151e-09
-6.48021e-10
-2.49221e-08
4.92163e-09
-8.65931e-11
-5.6671e-08
1.57518e-08
6.45936e-10
-7.26409e-08
-1.23218e-07
1.02152e-09
-7.21309e-08
2.53876e-09
-5.26397e-08
3.86197e-09
-3.83541e-10
-1.0089e-07
-1.68214e-08
2.34378e-10
-9.7912e-08
-2.76966e-08
1.18878e-11
-1.02615e-07
-1.73032e-08
-2.50907e-11
-7.40992e-08
-7.47244e-09
-3.35461e-11
-1.27704e-08
-3.6709e-09
4.91098e-11
-1.28197e-08
-7.0441e-09
6.4852e-11
-7.68534e-09
4.04115e-09
7.2515e-11
-8.90106e-09
-2.18029e-09
-1.63418e-12
-6.59825e-09
4.89343e-09
-7.72156e-11
-6.55029e-09
5.02148e-09
4.21383e-12
-9.3162e-09
-2.40942e-09
2.12144e-11
-8.78165e-09
3.56732e-09
-2.94136e-11
-6.85794e-09
4.81975e-09
7.26806e-11
-9.84377e-09
5.37382e-10
-1.22521e-10
-2.47776e-08
-8.31495e-09
5.10726e-11
-3.3841e-08
-4.91125e-09
5.31892e-10
-5.52216e-08
-9.7102e-09
-2.86732e-12
-5.58229e-08
4.04121e-08
3.61249e-10
-6.4342e-08
-7.12827e-09
-5.22286e-08
-4.85192e-09
-3.27276e-10
-2.01936e-08
-4.55004e-11
-1.34159e-08
2.66825e-10
-1.64868e-08
-1.39681e-10
-2.63538e-08
-4.2667e-10
-3.8439e-09
-9.18164e-11
-5.40967e-09
-5.2309e-11
-1.32436e-10
-5.76358e-11
-1.82343e-09
5.90026e-13
9.2558e-10
6.04716e-11
1.02543e-09
-1.65426e-11
-2.24677e-09
-2.31893e-11
-7.63956e-10
1.82625e-10
1.23036e-09