/*--------------------------------*- C++ -*----------------------------------*\
| =========                 |                                                 |
| \\      /  F ield         | OpenFOAM: The Open Source CFD Toolbox           |
|  \\    /   O peration     | Version:  2.3.0                                 |
|   \\  /    A nd           | Web:      www.OpenFOAM.org                      |
|    \\/     M anipulation  |                                                 |
\*---------------------------------------------------------------------------*/
FoamFile
{
    version     2.0;
    format      ascii;
    class       volScalarField;
    location    "100";
    object      alpha.air;
}
// * * * * * * * * * * * * * * * * * * * * * * * * * * * * * * * * * * * * * //

dimensions      [0 0 0 0 0 0 0];

internalField   nonuniform List<scalar> 
1875
(
0.299401
0.254723
0.229346
0.230006
0.232909
0.237302
0.242671
0.248726
0.255015
0.261132
0.266744
0.270693
0.272459
0.273349
0.272805
0.269829
0.263908
0.255623
0.246365
0.235818
0.227679
0.229554
0.255098
0.299104
0.289096
0.254032
0.224346
0.195676
0.185002
0.180826
0.18164
0.184126
0.188274
0.194094
0.201577
0.210918
0.222517
0.234247
0.245039
0.25362
0.261477
0.261192
0.257942
0.250291
0.239055
0.227679
0.216317
0.211332
0.228603
0.199356
0.186262
0.172882
0.159943
0.155424
0.154934
0.155884
0.157958
0.160871
0.165051
0.170583
0.177305
0.186046
0.199169
0.215579
0.23229
0.249053
0.259351
0.264518
0.258182
0.245935
0.230987
0.217028
0.211332
0.215129
0.194725
0.102764
0.110664
0.124566
0.131613
0.135554
0.139884
0.145323
0.151399
0.157973
0.165201
0.173562
0.183191
0.194017
0.207465
0.223942
0.243623
0.26084
0.26657
0.264083
0.251951
0.233984
0.217671
0.211552
0.213668
0.194725
0.0502789
0.0771912
0.111798
0.120175
0.125399
0.132262
0.141134
0.151855
0.160734
0.16897
0.177816
0.188009
0.199434
0.213371
0.230256
0.24994
0.266139
0.266616
0.262907
0.249409
0.231357
0.216072
0.210338
0.211527
0.194725
0.0355871
0.0756805
0.119037
0.119038
0.125988
0.137027
0.148381
0.160432
0.171469
0.18122
0.191364
0.202874
0.215949
0.23117
0.24751
0.261091
0.266141
0.265038
0.257225
0.241769
0.225043
0.212613
0.207475
0.207898
0.196193
0.0355871
0.0904155
0.133609
0.12471
0.138796
0.15569
0.169582
0.182712
0.195058
0.206553
0.218363
0.230749
0.243385
0.254772
0.261924
0.263886
0.263904
0.257342
0.245221
0.230101
0.216839
0.207794
0.203183
0.203461
0.201657
0.0355871
0.121147
0.155233
0.14618
0.170648
0.189554
0.20455
0.218256
0.230322
0.241154
0.250599
0.257208
0.260374
0.261307
0.261307
0.259784
0.253646
0.242539
0.229871
0.218005
0.208849
0.202328
0.198053
0.199429
0.208779
0.0451671
0.158268
0.183037
0.180587
0.210278
0.227108
0.240665
0.250744
0.256975
0.259058
0.260148
0.260148
0.260148
0.258039
0.253841
0.246715
0.23654
0.225581
0.215836
0.20799
0.201986
0.196967
0.193072
0.196685
0.216009
0.0658219
0.192982
0.210923
0.213856
0.23927
0.250764
0.258658
0.261961
0.261829
0.261852
0.260026
0.257694
0.25297
0.246273
0.238134
0.228533
0.219207
0.211333
0.205166
0.200384
0.196329
0.192226
0.18884
0.196716
0.221843
0.087505
0.220195
0.231096
0.232783
0.250601
0.257269
0.260962
0.261829
0.261989
0.260123
0.254276
0.247251
0.238517
0.229127
0.220073
0.211884
0.205462
0.200665
0.197082
0.194179
0.191335
0.188137
0.185554
0.197089
0.226246
0.104278
0.237468
0.242512
0.24067
0.254308
0.259094
0.261532
0.261881
0.259529
0.252477
0.242395
0.231856
0.221412
0.212117
0.204459
0.198637
0.194534
0.19175
0.189865
0.188332
0.186656
0.185173
0.185178
0.197952
0.238241
0.114784
0.247918
0.251092
0.245089
0.256093
0.259911
0.261522
0.260226
0.252569
0.240744
0.228105
0.216248
0.206094
0.198253
0.192663
0.188996
0.186751
0.185554
0.185166
0.185178
0.185127
0.185178
0.184948
0.203718
0.275836
0.120315
0.257091
0.262654
0.248347
0.257653
0.260651
0.26118
0.255756
0.243149
0.228679
0.215071
0.203707
0.195281
0.189734
0.186694
0.185452
0.185178
0.185138
0.185178
0.185052
0.185178
0.184875
0.185178
0.221508
0.279573
0.124598
0.263189
0.263186
0.250958
0.259072
0.261095
0.26003
0.249882
0.234423
0.219041
0.20599
0.196985
0.191699
0.18859
0.186694
0.18554
0.185132
0.185178
0.18501
0.185178
0.184874
0.185178
0.192111
0.239836
0.279573
0.125803
0.263186
0.263187
0.252894
0.260176
0.261097
0.258908
0.245246
0.229126
0.215114
0.204648
0.197303
0.19239
0.189401
0.187447
0.186123
0.185288
0.185058
0.185178
0.184956
0.18636
0.190931
0.204351
0.233692
0.266561
0.124639
0.262456
0.263184
0.253163
0.260163
0.261095
0.259676
0.24636
0.230355
0.216447
0.206097
0.199068
0.194441
0.191405
0.189154
0.187457
0.186392
0.186115
0.187919
0.191906
0.198665
0.205621
0.209305
0.202296
0.208629
0.126125
0.256683
0.26228
0.253966
0.259391
0.261014
0.26115
0.250531
0.23492
0.220626
0.20981
0.202539
0.197803
0.194509
0.191779
0.189676
0.188782
0.190527
0.196537
0.202375
0.207532
0.211217
0.211759
0.168405
0.135604
0.132227
0.242651
0.258962
0.254944
0.257881
0.260374
0.261156
0.256162
0.24359
0.228843
0.216492
0.207814
0.202197
0.1984
0.195264
0.192804
0.191981
0.195104
0.202343
0.206606
0.206784
0.207549
0.211562
0.161631
0.093146
0.142594
0.221843
0.251171
0.254168
0.256381
0.258847
0.260821
0.260108
0.25358
0.241352
0.227475
0.216028
0.208126
0.202935
0.199156
0.196301
0.195119
0.197094
0.201704
0.205769
0.204909
0.201088
0.211781
0.176075
0.0845123
0.155493
0.199613
0.235552
0.250451
0.254628
0.257023
0.259598
0.260113
0.259381
0.25342
0.242442
0.229777
0.218311
0.209749
0.203855
0.199786
0.197434
0.197793
0.199896
0.203057
0.202389
0.197089
0.211562
0.197595
0.0845123
0.170723
0.182064
0.212399
0.239286
0.250587
0.254772
0.257737
0.259724
0.259728
0.258443
0.25737
0.251245
0.237085
0.223136
0.212351
0.204917
0.200119
0.198116
0.198113
0.19915
0.199191
0.195309
0.210144
0.212488
0.0863045
0.187307
0.170387
0.187423
0.218372
0.239957
0.249985
0.254993
0.258416
0.259671
0.261334
0.262249
0.261341
0.257421
0.243893
0.228226
0.215123
0.205687
0.19987
0.197189
0.19568
0.195631
0.193761
0.207354
0.220204
0.0964676
0.204876
0.162922
0.167146
0.192872
0.220362
0.238876
0.24916
0.255537
0.258817
0.261411
0.261341
0.262288
0.261341
0.25755
0.246518
0.231335
0.216714
0.205343
0.198571
0.19403
0.192941
0.19273
0.206047
0.224098
0.107258
0.230144
0.162792
0.162262
0.17335
0.196441
0.219954
0.237426
0.249141
0.25614
0.261286
0.262161
0.261341
0.261811
0.261341
0.257477
0.247071
0.231792
0.215815
0.203422
0.194948
0.19273
0.192682
0.20643
0.226606
0.1138
0.251028
0.165587
0.161671
0.163277
0.176657
0.198181
0.220129
0.238054
0.250386
0.260127
0.261341
0.262128
0.261341
0.261426
0.260294
0.255661
0.244828
0.228758
0.212212
0.198515
0.19264
0.19273
0.207138
0.228503
0.116661
0.251028
0.172417
0.162262
0.16221
0.167196
0.181508
0.2024
0.224106
0.241717
0.256833
0.261745
0.261341
0.261645
0.261341
0.260571
0.258345
0.252121
0.239581
0.222571
0.205052
0.19273
0.192623
0.207894
0.2297
0.117355
0.251028
0.185296
0.161653
0.162262
0.164125
0.172929
0.189347
0.210931
0.231881
0.251597
0.261341
0.261739
0.261341
0.261377
0.260527
0.258312
0.254549
0.246048
0.231416
0.212814
0.194275
0.19273
0.210189
0.230242
0.116775
0.244068
0.203686
0.163868
0.162144
0.162693
0.169005
0.182065
0.201999
0.224133
0.246654
0.26151
0.261341
0.261436
0.261341
0.260397
0.258079
0.254371
0.248531
0.237191
0.219643
0.196969
0.192623
0.222932
0.231379
0.115415
0.221588
0.215188
0.19391
0.168438
0.162693
0.167461
0.182346
0.202596
0.224759
0.247199
0.261341
0.261421
0.261341
0.261285
0.260081
0.257548
0.253821
0.248299
0.23979
0.224395
0.200029
0.192924
0.250971
0.234876
0.11541
0.186534
0.218387
0.233788
0.182161
0.162695
0.168226
0.184591
0.205698
0.228104
0.249673
0.26137
0.261341
0.261345
0.26105
0.259512
0.256725
0.252956
0.247675
0.239638
0.226721
0.20275
0.194003
0.25293
0.238774
0.11541
0.148527
0.223632
0.23402
0.19057
0.164571
0.171211
0.189774
0.212182
0.234646
0.253413
0.26122
0.261226
0.261166
0.260542
0.258684
0.2557
0.251904
0.246804
0.239081
0.226327
0.203749
0.195832
0.250971
0.238163
0.115408
0.117003
0.229497
0.233788
0.189027
0.167781
0.177182
0.198498
0.221869
0.242755
0.256611
0.260805
0.260901
0.260751
0.259796
0.257677
0.254563
0.250788
0.245795
0.237987
0.224781
0.20412
0.199314
0.253032
0.233663
0.118412
0.099177
0.232871
0.233819
0.185967
0.172132
0.186742
0.210579
0.232957
0.249706
0.258249
0.260222
0.260362
0.260152
0.258887
0.256531
0.253398
0.249706
0.244659
0.236207
0.221956
0.204757
0.204991
0.250971
0.225468
0.124424
0.0945429
0.232996
0.229802
0.184329
0.178872
0.200097
0.224027
0.242528
0.253737
0.258188
0.25953
0.259692
0.259369
0.257827
0.255339
0.252295
0.248685
0.243288
0.233656
0.218589
0.205673
0.212526
0.253254
0.21551
0.1322
0.0951647
0.232996
0.22223
0.185438
0.189538
0.215355
0.23551
0.248585
0.255344
0.257787
0.258817
0.259086
0.25844
0.25671
0.254202
0.251313
0.247666
0.241542
0.230475
0.215528
0.206973
0.220674
0.250971
0.205138
0.139718
0.0959722
0.232955
0.216486
0.18875
0.20414
0.228723
0.242911
0.251223
0.255296
0.257254
0.258184
0.258379
0.257478
0.2556
0.253195
0.250456
0.246562
0.239395
0.227108
0.213408
0.208557
0.227468
0.253568
0.19754
0.143927
0.0963632
0.234435
0.216337
0.195178
0.219172
0.237681
0.246755
0.252346
0.255341
0.256981
0.257406
0.257455
0.25653
0.254574
0.252361
0.249687
0.245317
0.236995
0.224105
0.212375
0.209856
0.23064
0.250971
0.199881
0.142888
0.0970165
0.244638
0.218182
0.204261
0.230545
0.242384
0.248549
0.252855
0.255257
0.256519
0.256695
0.256702
0.255602
0.253702
0.251672
0.248935
0.243903
0.234542
0.22169
0.211894
0.210457
0.229759
0.253713
0.215612
0.139319
0.0985926
0.255014
0.222758
0.214186
0.237174
0.244444
0.249406
0.252972
0.254994
0.255843
0.255997
0.256026
0.254731
0.252976
0.251086
0.248144
0.242342
0.232178
0.219786
0.211682
0.211053
0.229069
0.250971
0.250199
0.13554
0.100481
0.256235
0.23025
0.222978
0.240259
0.245359
0.2499
0.252902
0.254566
0.255183
0.255362
0.255377
0.25397
0.252394
0.250588
0.247317
0.240723
0.230063
0.218427
0.211851
0.211916
0.229961
0.253722
0.250971
0.133613
0.102038
0.255014
0.243785
0.229614
0.241504
0.245878
0.25016
0.252719
0.254071
0.254588
0.254804
0.25478
0.253342
0.251951
0.250166
0.246482
0.239164
0.228304
0.217709
0.212349
0.212889
0.231763
0.250971
0.252055
0.132085
0.103529
0.256232
0.255014
0.234326
0.242498
0.246288
0.250178
0.252447
0.253584
0.254076
0.254325
0.254246
0.252852
0.251624
0.249795
0.245672
0.237757
0.226903
0.217231
0.21289
0.214308
0.233453
0.253666
0.250971
0.130709
0.105138
0.255014
0.255627
0.237503
0.243589
0.246691
0.250172
0.25216
0.253148
0.253644
0.253916
0.253783
0.252481
0.25139
0.249465
0.244903
0.23663
0.225795
0.216836
0.213257
0.216072
0.235263
0.250971
0.252059
0.129305
0.106553
0.256028
0.255014
0.239754
0.244575
0.247046
0.250151
0.251878
0.252782
0.25332
0.253525
0.253392
0.252198
0.251218
0.249177
0.244197
0.235721
0.225122
0.217011
0.213891
0.217341
0.237327
0.253537
0.250971
0.127456
0.107747
0.255014
0.25546
0.241432
0.245363
0.247377
0.250122
0.251606
0.252521
0.25306
0.25315
0.253082
0.251962
0.251046
0.248983
0.243561
0.234876
0.225295
0.217475
0.214758
0.21838
0.238636
0.250971
0.251968
0.125235
0.108719
0.25572
0.255014
0.242791
0.24602
0.247662
0.250085
0.251416
0.25229
0.252708
0.253042
0.252863
0.251748
0.250883
0.248735
0.24314
0.234477
0.225557
0.217896
0.215456
0.219592
0.239497
0.253371
0.250971
0.122789
0.109534
0.255014
0.255301
0.24384
0.246533
0.247625
0.249984
0.251322
0.251887
0.25246
0.25291
0.252654
0.251629
0.250787
0.248291
0.242968
0.234649
0.22561
0.218463
0.216159
0.220537
0.240414
0.250971
0.251885
0.120055
0.110228
0.25546
0.255014
0.244488
0.246768
0.247636
0.249843
0.251033
0.251608
0.252373
0.252454
0.25244
0.25157
0.250611
0.247976
0.242706
0.234862
0.225933
0.219208
0.21705
0.221277
0.241064
0.253183
0.250971
0.1171
0.110902
0.255014
0.255191
0.245119
0.246976
0.247758
0.249755
0.25068
0.251616
0.252035
0.25213
0.252209
0.251306
0.250301
0.248082
0.242723
0.235191
0.226552
0.219851
0.217904
0.222065
0.24125
0.250971
0.251721
0.113971
0.111501
0.255265
0.255014
0.245848
0.247254
0.247652
0.249674
0.250807
0.251446
0.251848
0.252129
0.252114
0.250981
0.250028
0.247949
0.243007
0.235748
0.227219
0.220523
0.218659
0.222868
0.241308
0.252951
0.250971
0.110776
0.112038
0.255014
0.255108
0.246241
0.247471
0.247674
0.249526
0.250692
0.251319
0.251903
0.251957
0.252024
0.251089
0.249966
0.247674
0.243201
0.236323
0.22809
0.221211
0.219392
0.223623
0.24144
0.250971
0.251597
0.107685
0.112584
0.255101
0.255014
0.246703
0.247623
0.247764
0.249536
0.250468
0.251381
0.251709
0.251866
0.251853
0.250971
0.249772
0.247541
0.243425
0.236855
0.229075
0.221979
0.220132
0.224332
0.241663
0.25269
0.250971
0.10484
0.113452
0.255014
0.255058
0.247266
0.247895
0.247679
0.249475
0.250643
0.251237
0.251592
0.251866
0.251832
0.250761
0.249477
0.247426
0.243741
0.23751
0.230048
0.22291
0.220918
0.225064
0.241998
0.250971
0.251462
0.102261
0.114637
0.255018
0.255014
0.24764
0.248071
0.247594
0.249364
0.250535
0.251154
0.251704
0.251744
0.251755
0.250872
0.249381
0.247452
0.243723
0.238235
0.231072
0.22399
0.221741
0.225849
0.242519
0.252438
0.250971
0.099913
0.115743
0.254833
0.255018
0.248296
0.248151
0.247557
0.249329
0.250324
0.251257
0.251569
0.251681
0.251606
0.250756
0.249285
0.247368
0.243861
0.238763
0.232108
0.225191
0.22257
0.226672
0.243262
0.250971
0.251355
0.0977767
0.11719
0.254223
0.255014
0.249912
0.248389
0.247406
0.249179
0.250489
0.251141
0.251621
0.25168
0.251539
0.250551
0.24914
0.247222
0.244141
0.239175
0.233139
0.226478
0.22342
0.227496
0.244269
0.252179
0.250971
0.0958499
0.119012
0.253011
0.255019
0.25312
0.2487
0.247407
0.248982
0.250387
0.251076
0.25162
0.251538
0.251403
0.250658
0.24917
0.247328
0.244253
0.239728
0.234133
0.227781
0.224294
0.228316
0.245519
0.250971
0.251268
0.0941067
0.12093
0.251636
0.254877
0.25511
0.249125
0.247423
0.248999
0.250216
0.251165
0.251498
0.25139
0.251204
0.250543
0.249196
0.247393
0.24455
0.240354
0.235067
0.229053
0.225215
0.229095
0.246746
0.251911
0.250971
0.0925174
0.123366
0.250097
0.254585
0.255014
0.249805
0.247472
0.248946
0.250408
0.251029
0.251564
0.251485
0.251209
0.250363
0.249161
0.247417
0.245017
0.241011
0.235942
0.230252
0.226213
0.229798
0.247391
0.250971
0.251188
0.0910168
0.126351
0.248037
0.254359
0.25509
0.250472
0.2476
0.248816
0.250302
0.250842
0.251618
0.251618
0.251192
0.250541
0.249215
0.247549
0.245194
0.241669
0.236906
0.231383
0.227274
0.230413
0.247195
0.251609
0.250971
0.0896652
0.129211
0.245894
0.253778
0.255014
0.251058
0.247965
0.248909
0.250032
0.250905
0.251518
0.251864
0.251328
0.250552
0.249311
0.247759
0.245559
0.242351
0.23792
0.232677
0.22864
0.231176
0.246579
0.250971
0.251102
0.0891793
0.132105
0.244276
0.253277
0.255064
0.252127
0.248778
0.249298
0.250285
0.251138
0.251702
0.252358
0.252022
0.250801
0.249685
0.248264
0.246449
0.243535
0.239526
0.234931
0.231098
0.232673
0.24569
0.251277
0.250971
0.0891795
0.134947
0.243665
0.253659
0.255014
0.253496
0.24993
0.249948
0.250816
0.251471
0.252329
0.252403
0.252414
0.25164
0.250566
0.249193
0.247584
0.245269
0.241848
0.237923
0.234263
0.234602
0.24436
0.250971
0.251001
0.0891793
0.134948
0.242959
0.253239
0.254293
0.252921
0.249291
0.249072
0.249787
0.250388
0.251286
0.251399
0.25129
0.250694
0.24967
0.248348
0.246678
0.244286
0.240981
0.237169
0.233156
0.232853
0.239621
0.249425
0.248547
0.0894369
0.134949
0.238969
0.247774
0.24788
0.247129
0.243615
0.242977
0.243342
0.243747
0.244349
0.244396
0.244152
0.243678
0.242634
0.241181
0.239235
0.236536
0.233358
0.229674
0.225448
0.224614
0.227236
0.23757
0.236999
0.0894398
0.138355
0.239144
0.239146
0.239503
0.241153
0.238413
0.238012
0.238012
0.238012
0.238012
0.238045
0.237863
0.23751
0.236705
0.23544
0.233707
0.23158
0.228802
0.225486
0.224614
0.224614
0.224614
0.225236
0.229439
0.102919
0.267827
0.319672
0.314859
0.321672
0.326958
0.324993
0.322926
0.322079
0.322291
0.323093
0.323847
0.324579
0.325484
0.326429
0.327343
0.328216
0.329136
0.329975
0.330659
0.331853
0.334214
0.333804
0.330746
0.335706
0.279837
0.769234
0.716281
0.702877
0.708374
0.711039
0.708591
0.704557
0.701699
0.700588
0.700918
0.70201
0.703997
0.707049
0.711153
0.716241
0.722227
0.729096
0.736773
0.74502
0.752792
0.760389
0.765241
0.765295
0.774862
0.821307
0.987357
0.976857
0.970688
0.969477
0.968968
0.968372
0.967684
0.967118
0.966781
0.966702
0.96685
0.967246
0.967902
0.968806
0.969931
0.97124
0.972689
0.974237
0.975793
0.977196
0.978412
0.979351
0.980272
0.984582
0.992222
0.999962
0.999767
0.999328
0.99914
0.999127
0.999137
0.999142
0.999141
0.999138
0.999137
0.999141
0.999152
0.999171
0.999198
0.999231
0.999269
0.999311
0.999353
0.999391
0.999421
0.999439
0.999451
0.999533
0.999819
0.999965
1
1
0.999996
0.999994
0.999994
0.999995
0.999995
0.999996
0.999996
0.999996
0.999996
0.999996
0.999996
0.999996
0.999996
0.999996
0.999996
0.999996
0.999996
0.999996
0.999996
0.999996
0.999997
1
1
1
1
1
1
1
1
1
1
1
1
1
1
1
1
1
1
1
1
1
1
1
1
1
1
1
1
1
1
1
1
1
1
1
1
1
1
1
1
1
1
1
1
1
1
1
1
1
1
1
1
1
1
1
1
1
1
1
1
1
1
1
1
1
1
1
1
1
1
1
1
1
1
1
1
1
)
;

boundaryField
{
    inlet
    {
        type            fixedValue;
        value           uniform 0.5;
    }
    outlet
    {
        type            inletOutlet;
        phi             phi.air;
        inletValue      uniform 1;
        value           nonuniform List<scalar> 
25
(
1
1
1
1
1
1
1
1
1
1
1
1
1
1
1
1
1
1
1
1
1
1
1
1
1
)
;
    }
    walls
    {
        type            zeroGradient;
    }
    defaultFaces
    {
        type            empty;
    }
}


// ************************************************************************* //
