/*--------------------------------*- C++ -*----------------------------------*\
| =========                 |                                                 |
| \\      /  F ield         | OpenFOAM: The Open Source CFD Toolbox           |
|  \\    /   O peration     | Version:  2.3.0                                 |
|   \\  /    A nd           | Web:      www.OpenFOAM.org                      |
|    \\/     M anipulation  |                                                 |
\*---------------------------------------------------------------------------*/
FoamFile
{
    version     2.0;
    format      ascii;
    class       volScalarField;
    location    "100";
    object      epsilon.air;
}
// * * * * * * * * * * * * * * * * * * * * * * * * * * * * * * * * * * * * * //

dimensions      [0 2 -3 0 0 0 0];

internalField   nonuniform List<scalar> 
1875
(
0.277153
0.287325
0.294796
0.302046
0.309917
0.318872
0.32885
0.339719
0.350979
0.361991
0.37205
0.3808
0.387212
0.389607
0.387888
0.381675
0.367801
0.344824
0.313847
0.27792
0.241497
0.208638
0.181674
0.163713
0.164737
0.464209
0.412184
0.380368
0.360365
0.347103
0.337915
0.33138
0.326961
0.324814
0.32512
0.32728
0.332148
0.339945
0.350384
0.362556
0.373874
0.381582
0.383623
0.379567
0.36817
0.350739
0.331824
0.319234
0.322817
0.362277
0.42455
0.373594
0.343453
0.325558
0.31468
0.307951
0.303897
0.301749
0.301135
0.301731
0.303595
0.307189
0.312799
0.321001
0.331865
0.344987
0.357499
0.365346
0.366864
0.361936
0.350503
0.338363
0.332192
0.337076
0.363461
0.345768
0.304844
0.289307
0.282723
0.28003
0.279681
0.280788
0.283178
0.286408
0.290397
0.295288
0.301221
0.308228
0.316692
0.326826
0.338212
0.34913
0.356772
0.359516
0.356303
0.347755
0.338249
0.33475
0.344128
0.375535
0.373229
0.276509
0.269535
0.268695
0.269452
0.271565
0.27474
0.278738
0.283221
0.288237
0.294032
0.300687
0.308262
0.316778
0.326
0.335281
0.343699
0.349216
0.350379
0.346873
0.340461
0.334771
0.334604
0.346762
0.378275
0.378825
0.274034
0.270395
0.272416
0.275615
0.279301
0.282945
0.28666
0.290627
0.295017
0.300027
0.305854
0.312535
0.319945
0.327722
0.335298
0.341247
0.344454
0.344918
0.342041
0.337296
0.334165
0.335874
0.347382
0.374815
0.385744
0.280208
0.286764
0.291402
0.295859
0.298809
0.300248
0.301179
0.302513
0.304767
0.308185
0.312692
0.31819
0.324514
0.331248
0.337565
0.342436
0.344485
0.34391
0.340649
0.336428
0.333998
0.335455
0.344089
0.36533
0.38811
0.29344
0.306932
0.315198
0.31952
0.319703
0.317055
0.313896
0.312232
0.312059
0.314141
0.31862
0.324732
0.331564
0.337934
0.342882
0.345126
0.345197
0.342767
0.338628
0.334299
0.331927
0.332973
0.340993
0.361701
0.382608
0.305815
0.324327
0.333888
0.336453
0.332895
0.326345
0.320272
0.317362
0.317179
0.321083
0.326574
0.332361
0.338114
0.342415
0.344362
0.344519
0.342432
0.338394
0.333443
0.32887
0.326368
0.327444
0.336067
0.357099
0.316375
0.312192
0.333158
0.342813
0.34408
0.338799
0.331505
0.32698
0.325912
0.327346
0.329007
0.331657
0.335353
0.337921
0.339417
0.339517
0.337673
0.33423
0.329925
0.325503
0.321758
0.320003
0.322154
0.332445
0.354809
0.283849
0.311998
0.334592
0.344275
0.345112
0.339563
0.332218
0.326754
0.324324
0.323944
0.325278
0.327174
0.32868
0.329393
0.32904
0.327768
0.325804
0.323404
0.320828
0.318434
0.316973
0.317295
0.321773
0.334562
0.359617
0.278894
0.309485
0.332561
0.34245
0.343759
0.339148
0.332614
0.327038
0.323219
0.320784
0.319604
0.318941
0.318077
0.317059
0.316017
0.315065
0.314297
0.313853
0.313771
0.314303
0.315973
0.319892
0.328409
0.346319
0.380418
0.290314
0.314612
0.33308
0.340756
0.341843
0.338163
0.332511
0.32688
0.321893
0.317653
0.314035
0.31094
0.308418
0.306608
0.305677
0.305452
0.305959
0.307253
0.309442
0.312801
0.317916
0.325978
0.339556
0.364505
0.405337
0.310123
0.324565
0.335527
0.339884
0.340243
0.33715
0.332231
0.326528
0.320681
0.315055
0.30991
0.305593
0.302352
0.300339
0.299536
0.299669
0.300875
0.303223
0.306905
0.312335
0.32037
0.332533
0.351349
0.381376
0.418785
0.326138
0.332645
0.337419
0.339024
0.338663
0.33602
0.33174
0.326181
0.320043
0.313839
0.308087
0.303278
0.299671
0.297322
0.296258
0.296232
0.297489
0.30015
0.304501
0.311164
0.321091
0.33578
0.35809
0.391208
0.433101
0.330353
0.334563
0.33745
0.337946
0.337286
0.334963
0.331309
0.326156
0.320155
0.313921
0.308031
0.30292
0.298872
0.296031
0.294507
0.2942
0.295323
0.298078
0.302751
0.309732
0.319821
0.334345
0.355578
0.386584
0.434063
0.333117
0.336257
0.337642
0.337107
0.335969
0.333754
0.330601
0.326185
0.320597
0.314531
0.308645
0.30344
0.299193
0.296017
0.294015
0.293275
0.293909
0.296272
0.300582
0.306735
0.314951
0.325986
0.34136
0.364366
0.409346
0.334108
0.336996
0.338352
0.337636
0.336205
0.334017
0.330885
0.326647
0.321545
0.315893
0.310251
0.305111
0.300757
0.2973
0.294791
0.293409
0.29334
0.294812
0.297766
0.301823
0.306912
0.313475
0.322386
0.334482
0.362963
0.330675
0.335104
0.338786
0.339107
0.3377
0.335141
0.331839
0.327972
0.323505
0.318483
0.313288
0.308342
0.303945
0.300231
0.297261
0.295161
0.29416
0.29449
0.296076
0.298414
0.301321
0.305201
0.310689
0.316442
0.328051
0.327285
0.332654
0.338973
0.341521
0.340943
0.33844
0.334764
0.330508
0.326187
0.322031
0.317656
0.313263
0.309065
0.305226
0.301859
0.299085
0.297112
0.296175
0.296332
0.297488
0.299402
0.302238
0.306953
0.312216
0.321183
0.328145
0.332226
0.339188
0.343939
0.344974
0.34333
0.339763
0.335481
0.330758
0.326214
0.322814
0.319594
0.316077
0.312413
0.3088
0.305438
0.302552
0.300422
0.299228
0.299061
0.299868
0.301921
0.306178
0.311527
0.318615
0.330046
0.33178
0.33786
0.344019
0.347265
0.347131
0.344739
0.340535
0.336252
0.331786
0.327565
0.32515
0.323152
0.320551
0.317346
0.313792
0.310212
0.306979
0.304434
0.302829
0.302446
0.30353
0.306876
0.311636
0.316487
0.343489
0.335635
0.336571
0.341561
0.346221
0.348086
0.347256
0.344389
0.340114
0.336544
0.333316
0.330304
0.328676
0.327525
0.325698
0.322872
0.319213
0.31518
0.311359
0.308258
0.306491
0.306581
0.309199
0.314059
0.319492
0.367837
0.343463
0.335263
0.336374
0.340984
0.344982
0.346312
0.345335
0.342729
0.339611
0.337006
0.334436
0.33236
0.331883
0.331792
0.330746
0.328039
0.323854
0.319017
0.314415
0.311046
0.309671
0.311004
0.314796
0.31962
0.39007
0.349472
0.332484
0.328306
0.331212
0.336632
0.340964
0.342736
0.342127
0.340068
0.33766
0.336146
0.335411
0.335238
0.335841
0.336247
0.335052
0.331555
0.326177
0.320222
0.315145
0.312016
0.311567
0.313263
0.315663
0.39827
0.350822
0.328221
0.319729
0.320172
0.325105
0.331447
0.336365
0.338798
0.338905
0.337489
0.336024
0.335736
0.336512
0.338004
0.339421
0.339373
0.33695
0.331646
0.32472
0.318033
0.313225
0.310936
0.310281
0.309691
0.402785
0.353342
0.326596
0.314666
0.311999
0.315317
0.3219
0.328667
0.333657
0.336326
0.336868
0.336509
0.336742
0.337743
0.339264
0.34087
0.341419
0.339676
0.334805
0.327467
0.319618
0.313517
0.309703
0.306764
0.303242
0.407139
0.357497
0.327625
0.313103
0.308074
0.309679
0.315393
0.322741
0.329233
0.333641
0.335694
0.336158
0.336488
0.337638
0.339544
0.341231
0.341802
0.340314
0.33582
0.328526
0.320164
0.313345
0.30871
0.303643
0.297485
0.405566
0.359439
0.330186
0.314002
0.307293
0.30776
0.312898
0.320259
0.327288
0.332415
0.335082
0.33593
0.33658
0.337743
0.339386
0.340849
0.341236
0.339674
0.335341
0.328258
0.319859
0.312865
0.308236
0.301215
0.292958
0.393574
0.355487
0.33194
0.315344
0.307845
0.30798
0.313179
0.320543
0.327509
0.332493
0.334968
0.335801
0.336435
0.337476
0.338827
0.3399
0.339903
0.338061
0.333711
0.326831
0.318543
0.311496
0.306744
0.298698
0.289238
0.370657
0.344842
0.327823
0.314363
0.308002
0.30895
0.31458
0.321919
0.328517
0.332935
0.334919
0.33553
0.335985
0.336744
0.337697
0.338332
0.337913
0.335734
0.331285
0.324611
0.316652
0.309731
0.304628
0.296509
0.28654
0.346549
0.330813
0.319303
0.310874
0.307636
0.310339
0.316723
0.323973
0.329903
0.333415
0.334757
0.335115
0.335414
0.335905
0.336417
0.33655
0.335698
0.333266
0.32886
0.322561
0.315323
0.30912
0.304336
0.296166
0.286152
0.322333
0.316521
0.311642
0.307651
0.307707
0.312252
0.319188
0.32598
0.330904
0.333412
0.334224
0.334361
0.334492
0.334728
0.334886
0.334648
0.333509
0.330993
0.32682
0.321187
0.315132
0.310327
0.306849
0.300489
0.292962
0.305365
0.306883
0.306857
0.306338
0.308892
0.314704
0.321611
0.327481
0.331209
0.332878
0.33328
0.333222
0.333181
0.333232
0.333214
0.332759
0.33148
0.329009
0.325188
0.320382
0.315757
0.312684
0.310845
0.306859
0.303007
0.302152
0.304242
0.305563
0.306891
0.310946
0.317232
0.323466
0.328118
0.330687
0.33156
0.331732
0.331891
0.331878
0.331815
0.33161
0.330993
0.329632
0.327241
0.323783
0.319802
0.316521
0.314963
0.314266
0.311616
0.310481
0.300476
0.303176
0.305381
0.308053
0.313025
0.319129
0.324393
0.327988
0.329879
0.330562
0.33078
0.330738
0.330606
0.330407
0.33006
0.329321
0.327902
0.325584
0.322464
0.319247
0.317134
0.316854
0.31715
0.315872
0.317678
0.297968
0.301872
0.305193
0.308917
0.314393
0.319966
0.324365
0.327327
0.329054
0.329999
0.330075
0.329573
0.329262
0.328981
0.328537
0.327703
0.326227
0.323963
0.321138
0.318568
0.317333
0.317991
0.319166
0.319125
0.322277
0.295072
0.300369
0.304694
0.309164
0.314718
0.319684
0.323435
0.32592
0.32738
0.328117
0.328167
0.328022
0.327829
0.327539
0.327041
0.326132
0.324599
0.322374
0.319799
0.31773
0.317072
0.31827
0.32005
0.320797
0.322873
0.291917
0.298451
0.303578
0.308565
0.313962
0.318467
0.321801
0.324011
0.325265
0.325799
0.326191
0.32641
0.326316
0.326056
0.325533
0.324565
0.322979
0.320792
0.318432
0.316738
0.316468
0.318021
0.320351
0.322103
0.323963
0.288296
0.295733
0.301766
0.307145
0.312371
0.316631
0.319817
0.321993
0.323337
0.324077
0.324483
0.324703
0.324728
0.324515
0.323978
0.322958
0.321327
0.319177
0.316991
0.315555
0.3155
0.317157
0.319619
0.321674
0.323251
0.284542
0.292671
0.299614
0.305234
0.310337
0.314498
0.317667
0.31991
0.321391
0.322316
0.322869
0.323159
0.323214
0.323013
0.322457
0.321394
0.319741
0.317654
0.31564
0.314391
0.314389
0.316089
0.318289
0.319683
0.319838
0.280915
0.28962
0.297247
0.303028
0.308085
0.312235
0.315457
0.317811
0.319442
0.32054
0.32125
0.321649
0.321768
0.321602
0.321051
0.319988
0.318377
0.316437
0.314694
0.313771
0.314082
0.315772
0.318037
0.319911
0.321064
0.277418
0.28649
0.294489
0.300565
0.305722
0.30995
0.313277
0.315774
0.31758
0.318852
0.319706
0.320219
0.320423
0.320316
0.319803
0.31878
0.317252
0.315469
0.313936
0.313439
0.314411
0.316454
0.319114
0.321625
0.324292
0.274702
0.283864
0.291957
0.298258
0.303521
0.307828
0.311251
0.313871
0.315816
0.317235
0.318239
0.318889
0.3192
0.319177
0.318737
0.317803
0.31643
0.314893
0.313713
0.313419
0.314361
0.316764
0.319342
0.321427
0.32276
0.2728
0.281925
0.290023
0.29637
0.301654
0.305988
0.30947
0.312187
0.314269
0.31582
0.316933
0.317702
0.318118
0.318181
0.31782
0.316972
0.315713
0.314516
0.313748
0.313587
0.314329
0.316436
0.318914
0.32109
0.322743
0.271445
0.280453
0.28849
0.294829
0.300094
0.304425
0.307933
0.310707
0.312851
0.31447
0.315747
0.316644
0.317171
0.317329
0.317065
0.316322
0.315205
0.314069
0.313244
0.313285
0.314504
0.316633
0.319262
0.321981
0.324753
0.270581
0.279428
0.287337
0.293612
0.29881
0.303071
0.306576
0.309417
0.311601
0.313342
0.314765
0.315751
0.316349
0.31657
0.316351
0.315834
0.314991
0.313808
0.31307
0.3132
0.314472
0.316791
0.319294
0.321493
0.323281
0.270177
0.278801
0.286533
0.292676
0.297793
0.302026
0.305542
0.308416
0.31075
0.312688
0.313946
0.314931
0.315655
0.315971
0.315836
0.315298
0.314533
0.313728
0.313319
0.313445
0.314401
0.316389
0.318559
0.320594
0.322322
0.270187
0.278549
0.286084
0.292168
0.297312
0.30171
0.305235
0.307977
0.310348
0.312053
0.31337
0.31439
0.315068
0.315484
0.315659
0.315138
0.314367
0.313696
0.313126
0.313215
0.314143
0.315913
0.317929
0.319766
0.321211
0.270409
0.27857
0.286019
0.29214
0.297151
0.301214
0.304666
0.307579
0.309781
0.311593
0.313233
0.314348
0.314935
0.315285
0.315332
0.315121
0.314453
0.313534
0.312913
0.312959
0.313836
0.315421
0.31718
0.318701
0.319852
0.27069
0.278878
0.286207
0.29197
0.296773
0.300747
0.304121
0.306982
0.309302
0.311352
0.312761
0.313896
0.314793
0.315171
0.314973
0.314594
0.313945
0.31325
0.312763
0.312791
0.313505
0.314884
0.316315
0.317459
0.318272
0.27228
0.279809
0.28665
0.292201
0.296925
0.301028
0.304328
0.306904
0.309224
0.310877
0.312225
0.313316
0.314141
0.314605
0.314737
0.314356
0.313788
0.313207
0.312696
0.31267
0.313197
0.314326
0.315437
0.316226
0.316492
0.273638
0.280977
0.287549
0.293032
0.297493
0.301086
0.30422
0.306947
0.308996
0.310755
0.312357
0.313441
0.313994
0.314394
0.314613
0.314524
0.314001
0.313266
0.312716
0.312563
0.312987
0.313898
0.314796
0.315346
0.315492
0.276403
0.282855
0.288917
0.293731
0.297833
0.301298
0.304278
0.306828
0.308956
0.310836
0.312132
0.313215
0.314121
0.314575
0.314597
0.31426
0.31378
0.313156
0.312637
0.312459
0.31278
0.313518
0.31416
0.314416
0.314215
0.27723
0.283835
0.289778
0.294584
0.29864
0.302172
0.305028
0.307279
0.309338
0.31082
0.312028
0.313006
0.313737
0.314147
0.314246
0.314062
0.313695
0.313173
0.3127
0.312492
0.312698
0.313248
0.313671
0.313708
0.313302
0.279136
0.285805
0.291509
0.296224
0.299975
0.30297
0.305606
0.30793
0.309679
0.311191
0.312581
0.313515
0.313978
0.314299
0.314438
0.314424
0.313969
0.313443
0.312955
0.312657
0.312732
0.313109
0.313308
0.313115
0.3125
0.284641
0.289444
0.294218
0.298081
0.301319
0.30407
0.306472
0.308564
0.310328
0.311908
0.312983
0.313892
0.314671
0.315067
0.315117
0.314795
0.314373
0.313842
0.313323
0.312986
0.312946
0.313151
0.31313
0.312688
0.311847
0.285892
0.291258
0.296087
0.299994
0.303171
0.305948
0.308195
0.309964
0.311615
0.312783
0.313745
0.314534
0.315129
0.315467
0.31555
0.31539
0.315066
0.314557
0.313992
0.313579
0.313423
0.313444
0.31318
0.312481
0.311407
0.289455
0.294704
0.29918
0.302917
0.305786
0.308034
0.31005
0.311865
0.31322
0.314412
0.315528
0.316254
0.316583
0.316818
0.316924
0.316921
0.316536
0.315939
0.315295
0.314744
0.314396
0.314167
0.313595
0.312586
0.311226
0.297002
0.300219
0.303668
0.306498
0.308895
0.310922
0.312728
0.314335
0.315716
0.316997
0.31788
0.318545
0.319152
0.31945
0.319453
0.319131
0.318705
0.318145
0.317453
0.316769
0.316195
0.315653
0.314721
0.313285
0.311516
0.300366
0.304222
0.307829
0.310791
0.313249
0.315404
0.317133
0.31848
0.319776
0.320674
0.321413
0.322053
0.322547
0.322835
0.322903
0.322739
0.322378
0.321851
0.321109
0.320275
0.319422
0.318478
0.317075
0.315092
0.312826
0.306215
0.310352
0.314025
0.317192
0.31966
0.321586
0.323249
0.324697
0.325797
0.326684
0.327534
0.328305
0.328677
0.328964
0.329145
0.329228
0.328929
0.328248
0.32737
0.326294
0.325046
0.323536
0.321451
0.318683
0.315695
0.315957
0.319497
0.323229
0.326257
0.328763
0.330754
0.33245
0.333949
0.33518
0.336368
0.33726
0.337978
0.338628
0.339076
0.339307
0.339264
0.339016
0.338479
0.337612
0.336346
0.334627
0.332314
0.329113
0.32488
0.320328
0.325218
0.331133
0.336416
0.340513
0.343554
0.345795
0.347521
0.348889
0.350086
0.351141
0.352049
0.352778
0.353535
0.3542
0.354747
0.35512
0.355318
0.355224
0.354656
0.35344
0.351362
0.348086
0.343147
0.336125
0.327988
0.342082
0.352835
0.36088
0.366313
0.369777
0.371947
0.373351
0.374325
0.375081
0.375731
0.376454
0.377287
0.378196
0.379223
0.380345
0.381531
0.38265
0.38356
0.384044
0.383769
0.382259
0.378746
0.372176
0.361214
0.346497
0.387695
0.40355
0.412163
0.416001
0.417365
0.417462
0.416999
0.416441
0.416067
0.415999
0.416326
0.417083
0.418329
0.42003
0.422185
0.424769
0.427783
0.431126
0.43456
0.437743
0.440016
0.440217
0.436397
0.425271
0.404035
0.533985
0.530091
0.519385
0.508794
0.499613
0.491931
0.485895
0.481417
0.478335
0.47656
0.475985
0.476548
0.478172
0.48094
0.484883
0.49008
0.496583
0.504534
0.514125
0.525582
0.539065
0.554521
0.571506
0.588097
0.595716
0.977188
0.779911
0.683776
0.63232
0.600759
0.579399
0.564354
0.553798
0.546693
0.542329
0.540248
0.540213
0.54208
0.545923
0.551826
0.560008
0.570822
0.584855
0.603015
0.626757
0.658736
0.703846
0.773231
0.896272
1.14151
0.603598
0.611673
0.598011
0.580428
0.56293
0.547569
0.535143
0.525745
0.519122
0.514926
0.512855
0.512718
0.51438
0.517923
0.523418
0.531055
0.541161
0.554233
0.570937
0.591956
0.617821
0.648001
0.679313
0.704831
0.700121
0.237389
0.38256
0.440165
0.458557
0.458744
0.452506
0.444987
0.438473
0.433696
0.430639
0.429109
0.428954
0.429951
0.432248
0.435848
0.440802
0.447275
0.455769
0.466847
0.480672
0.495608
0.505561
0.49716
0.439256
0.260855
0.0588797
0.161696
0.247501
0.272124
0.274397
0.270079
0.264691
0.259963
0.25616
0.253791
0.252859
0.253138
0.25417
0.25611
0.258714
0.262058
0.266781
0.273505
0.282906
0.294851
0.308757
0.317448
0.308754
0.245705
0.11585
0.0465479
0.102941
0.163372
0.179282
0.177431
0.150796
0.120813
0.0998002
0.088933
0.0846666
0.0838089
0.0858382
0.0905858
0.0978672
0.105978
0.114442
0.12318
0.133282
0.148683
0.169025
0.191891
0.209899
0.208272
0.162895
0.0805974
0.092081
0.105565
0.124296
0.101129
0.0419052
0.0168073
0.00660927
0.00358931
0.00304152
0.00289204
0.00291561
0.00328265
0.00409047
0.00586968
0.00988374
0.0152185
0.0208993
0.028375
0.0432077
0.066971
0.105721
0.146305
0.157635
0.141029
0.11913
0.130729
0.0964708
0.0758276
0.0294049
0.00771588
0.00179838
0.000650501
0.00030746
0.000178474
0.000121987
9.29207e-05
8.03319e-05
7.98967e-05
8.89414e-05
0.000121992
0.000258564
0.000616842
0.00165489
0.00539604
0.0153835
0.038106
0.0871544
0.130713
0.134741
0.155559
0.235341
0.0931069
0.0551929
0.0237946
0.00911548
0.00348327
0.00101867
0.000350563
0.000188004
0.000136273
0.000108861
9.19185e-05
8.01056e-05
6.88901e-05
5.72129e-05
4.88352e-05
4.61098e-05
5.22887e-05
0.000137316
0.00159761
0.00976022
0.0372839
0.080185
0.119816
0.236528
)
;

boundaryField
{
    inlet
    {
        type            fixedValue;
        value           uniform 0.00015;
    }
    outlet
    {
        type            inletOutlet;
        phi             phi.air;
        inletValue      uniform 0.00015;
        value           nonuniform List<scalar> 
25
(
0.235341
0.0931069
0.0551929
0.0237946
0.00911548
0.00015
0.00015
0.00015
0.00015
0.00015
0.00015
0.00015
0.00015
0.00015
0.00015
0.00015
0.00015
0.00015
0.00015
0.00159761
0.00976022
0.0372839
0.080185
0.119816
0.236528
)
;
    }
    walls
    {
        type            epsilonWallFunction;
        value           nonuniform List<scalar> 
150
(
1.79614
2.72633
3.06376
3.1858
4.95556
5.75773
6.10961
6.42935
6.34643
4.75593
4.10902
4.05048
3.99458
3.93768
3.87504
3.8129
3.77275
3.75201
3.73929
3.72633
3.68728
3.58331
3.40675
3.20073
3.03645
2.97687
3.03544
3.19947
3.41817
3.66027
3.90758
4.14782
4.37359
4.57411
4.74918
4.90885
5.06085
5.20892
5.35018
5.48091
5.60568
5.72864
5.8487
5.9693
6.0934
6.22034
6.3496
6.48034
6.61202
6.74402
6.87486
7.00207
7.12796
7.25066
7.36997
7.49121
7.61073
7.73063
7.85973
7.99837
8.1539
8.34156
8.56931
8.85747
9.24056
9.77886
10.6034
11.8592
11.958
11.3134
9.27774
7.64608
6.80987
6.06523
5.61407
1.05278
1.81425
2.16023
2.33426
2.40965
2.43762
2.42945
2.40138
2.34537
2.2943
2.28604
2.34208
2.4791
2.67907
2.90495
3.09707
3.2761
3.4607
3.62462
3.76049
3.84081
3.89629
3.94623
4.00228
4.0583
4.11558
4.17578
4.24006
4.30396
4.35549
4.39182
4.41957
4.44595
4.47138
4.49921
4.54464
4.61919
4.72046
4.83877
4.95716
5.07282
5.19655
5.33435
5.47868
5.6217
5.77423
5.93297
6.09076
6.2507
6.4125
6.57498
6.73684
6.89837
7.0595
7.22102
7.38376
7.54924
7.71983
7.89882
8.09129
8.30447
8.54658
8.83136
9.18137
9.63738
10.286
11.2985
12.8743
13.1234
12.585
10.9119
9.09474
8.02223
7.63471
6.82574
)
;
        Cmu             0.09;
        kappa           0.41;
        E               9.8;
        value           nonuniform List<scalar> 
150
(
1.79614
2.72633
3.06376
3.1858
4.95556
5.75773
6.10961
6.42935
6.34643
4.75593
4.10902
4.05048
3.99458
3.93768
3.87504
3.8129
3.77275
3.75201
3.73929
3.72633
3.68728
3.58331
3.40675
3.20073
3.03645
2.97687
3.03544
3.19947
3.41817
3.66027
3.90758
4.14782
4.37359
4.57411
4.74918
4.90885
5.06085
5.20892
5.35018
5.48091
5.60568
5.72864
5.8487
5.9693
6.0934
6.22034
6.3496
6.48034
6.61202
6.74402
6.87486
7.00207
7.12796
7.25066
7.36997
7.49121
7.61073
7.73063
7.85973
7.99837
8.1539
8.34156
8.56931
8.85747
9.24056
9.77886
10.6034
11.8592
11.958
11.3134
9.27774
7.64608
6.80987
6.06523
5.61407
1.05278
1.81425
2.16023
2.33426
2.40965
2.43762
2.42945
2.40138
2.34537
2.2943
2.28604
2.34208
2.4791
2.67907
2.90495
3.09707
3.2761
3.4607
3.62462
3.76049
3.84081
3.89629
3.94623
4.00228
4.0583
4.11558
4.17578
4.24006
4.30396
4.35549
4.39182
4.41957
4.44595
4.47138
4.49921
4.54464
4.61919
4.72046
4.83877
4.95716
5.07282
5.19655
5.33435
5.47868
5.6217
5.77423
5.93297
6.09076
6.2507
6.4125
6.57498
6.73684
6.89837
7.0595
7.22102
7.38376
7.54924
7.71983
7.89882
8.09129
8.30447
8.54658
8.83136
9.18137
9.63738
10.286
11.2985
12.8743
13.1234
12.585
10.9119
9.09474
8.02223
7.63471
6.82574
)
;
    }
    defaultFaces
    {
        type            empty;
    }
}


// ************************************************************************* //
