/*--------------------------------*- C++ -*----------------------------------*\
| =========                 |                                                 |
| \\      /  F ield         | OpenFOAM: The Open Source CFD Toolbox           |
|  \\    /   O peration     | Version:  2.3.0                                 |
|   \\  /    A nd           | Web:      www.OpenFOAM.org                      |
|    \\/     M anipulation  |                                                 |
\*---------------------------------------------------------------------------*/
FoamFile
{
    version     2.0;
    format      ascii;
    class       volScalarField;
    location    "1.89";
    object      alpha.air;
}
// * * * * * * * * * * * * * * * * * * * * * * * * * * * * * * * * * * * * * //

dimensions      [0 0 0 0 0 0 0];

internalField   nonuniform List<scalar> 
6000
(
0.550152
0.546757
0.554017
0.538819
0.538859
0.543491
0.553323
0.559965
0.536385
0.518704
0.518702
0.518703
0.52271
0.552745
0.568432
0.584607
0.60132
0.615617
0.615627
0.602659
0.575312
0.559338
0.546936
0.535326
0.518235
0.519463
0.529858
0.539345
0.552841
0.608074
0.558619
0.558956
0.558955
0.559292
0.559292
0.559629
0.559629
0.559966
0.559628
0.53921
0.518534
0.526295
0.561149
0.579904
0.596378
0.611212
0.615436
0.61549
0.615618
0.615448
0.578584
0.539258
0.516773
0.50722
0.521879
0.560914
0.59491
0.602548
0.628343
0.630002
0.517758
0.517813
0.518554
0.517844
0.518048
0.51851
0.518457
0.520471
0.519058
0.518003
0.51859
0.540037
0.560375
0.560772
0.56248
0.564645
0.576715
0.595559
0.601878
0.573596
0.514359
0.476653
0.467831
0.467589
0.468537
0.501012
0.56594
0.569939
0.611842
0.629875
0.517632
0.517757
0.517518
0.517895
0.51761
0.518048
0.517731
0.518214
0.517858
0.518399
0.577421
0.621954
0.622075
0.586709
0.554563
0.526667
0.526713
0.556779
0.561244
0.506306
0.467783
0.467813
0.467324
0.467807
0.46723
0.50664
0.571821
0.572262
0.607005
0.629751
0.567642
0.520738
0.517886
0.517497
0.51804
0.51761
0.518208
0.517726
0.522421
0.619575
0.69267
0.703576
0.696131
0.658479
0.610927
0.548596
0.509836
0.508822
0.497255
0.467844
0.467808
0.466694
0.467805
0.465824
0.467832
0.53985
0.592545
0.568232
0.584035
0.629633
0.717529
0.654304
0.591972
0.557333
0.527431
0.521313
0.532855
0.566014
0.650283
0.706761
0.70501
0.706757
0.70501
0.703291
0.676138
0.612548
0.525987
0.479294
0.468071
0.46781
0.466987
0.467806
0.465725
0.467818
0.465805
0.585134
0.620224
0.5649
0.549469
0.604009
0.782511
0.756613
0.714936
0.68083
0.652268
0.636725
0.653157
0.691584
0.707273
0.70501
0.70764
0.70501
0.705914
0.70501
0.68088
0.629713
0.520736
0.469164
0.467818
0.467569
0.467822
0.466607
0.501043
0.498651
0.535388
0.605177
0.628542
0.577098
0.52515
0.542829
0.782268
0.77258
0.741854
0.722195
0.707499
0.695571
0.703188
0.706734
0.70501
0.70787
0.70501
0.706465
0.70501
0.688008
0.658037
0.619377
0.510101
0.469234
0.47283
0.484482
0.504794
0.584057
0.673061
0.666364
0.623755
0.607473
0.628558
0.60921
0.52441
0.498197
0.782149
0.769998
0.74242
0.727044
0.709295
0.690588
0.701851
0.70501
0.707808
0.70501
0.707015
0.70501
0.695217
0.657454
0.641145
0.641555
0.610032
0.518486
0.540079
0.60074
0.673291
0.730176
0.734188
0.730178
0.638524
0.592646
0.621859
0.621793
0.539118
0.506855
0.782149
0.760418
0.737774
0.72716
0.711676
0.67613
0.693226
0.70674
0.70501
0.707278
0.70501
0.705163
0.657266
0.648915
0.665738
0.724068
0.730177
0.701224
0.708117
0.732338
0.730178
0.735694
0.730178
0.733646
0.634096
0.55537
0.592102
0.610533
0.539297
0.534425
0.782149
0.743321
0.723937
0.723137
0.712192
0.668053
0.685143
0.70501
0.707233
0.70501
0.705498
0.671997
0.631879
0.649121
0.730451
0.730178
0.734462
0.730178
0.733069
0.730178
0.735086
0.730178
0.735908
0.730178
0.633952
0.523369
0.537711
0.564897
0.524276
0.534363
0.780395
0.7212
0.701379
0.709935
0.70621
0.667227
0.681749
0.70651
0.70501
0.706174
0.70501
0.627772
0.632052
0.69093
0.730178
0.732193
0.730178
0.734952
0.730168
0.734222
0.730178
0.735395
0.730178
0.732585
0.634884
0.505059
0.501945
0.517244
0.517049
0.534315
0.7601
0.694121
0.670767
0.688008
0.695762
0.668053
0.678171
0.70501
0.706691
0.70501
0.682084
0.621873
0.651084
0.707481
0.730585
0.730178
0.734268
0.730178
0.73494
0.730178
0.734965
0.730178
0.735068
0.730178
0.6215
0.493651
0.500633
0.503655
0.519108
0.529995
0.71741
0.656925
0.632668
0.660351
0.685697
0.666162
0.674513
0.70604
0.70501
0.704605
0.649689
0.622046
0.653578
0.672695
0.714895
0.730807
0.730178
0.735706
0.730178
0.735323
0.730178
0.734942
0.730178
0.731372
0.598113
0.493691
0.506579
0.507528
0.518947
0.516939
0.664658
0.609498
0.588854
0.629558
0.678925
0.668053
0.673404
0.70501
0.705409
0.681565
0.632412
0.628091
0.626448
0.618407
0.668009
0.72764
0.733681
0.730178
0.735717
0.730178
0.73517
0.730178
0.734155
0.730178
0.57667
0.494017
0.509654
0.511416
0.517592
0.493475
0.61058
0.55878
0.544386
0.599311
0.676605
0.665644
0.679518
0.70311
0.685127
0.642428
0.617241
0.609212
0.587349
0.579587
0.62008
0.691719
0.730178
0.735397
0.730178
0.73569
0.730178
0.734494
0.730178
0.730882
0.563399
0.492014
0.503172
0.497498
0.488978
0.468365
0.557914
0.513236
0.507769
0.57483
0.677188
0.668053
0.701669
0.681181
0.632152
0.594998
0.587214
0.573526
0.560945
0.565845
0.592922
0.649526
0.73243
0.730178
0.735624
0.730178
0.734671
0.730178
0.732898
0.730178
0.551261
0.489924
0.484182
0.472351
0.461367
0.451874
0.509397
0.481496
0.484485
0.561379
0.680153
0.674156
0.711817
0.661728
0.571158
0.541918
0.546608
0.543001
0.548829
0.558278
0.576932
0.64212
0.730178
0.734427
0.730178
0.734831
0.730178
0.733368
0.730178
0.721661
0.529026
0.478819
0.464657
0.454417
0.447902
0.445206
0.474947
0.465973
0.472495
0.557435
0.682897
0.705944
0.71011
0.671797
0.532101
0.504441
0.519653
0.531052
0.544595
0.551763
0.573036
0.658346
0.731581
0.730178
0.734633
0.730178
0.733426
0.730178
0.731018
0.679599
0.497296
0.463535
0.451937
0.446115
0.445185
0.445165
0.459808
0.45965
0.471457
0.551068
0.668233
0.709028
0.711802
0.699411
0.534755
0.504223
0.526948
0.539549
0.546919
0.549148
0.576397
0.669038
0.730178
0.733402
0.730178
0.733398
0.730178
0.7313
0.718476
0.594299
0.473033
0.452171
0.44646
0.445184
0.445164
0.445166
0.459518
0.459534
0.473517
0.531222
0.617333
0.685939
0.71011
0.709375
0.598799
0.515996
0.542687
0.546317
0.546618
0.545432
0.558164
0.649789
0.730412
0.730178
0.733003
0.730178
0.731387
0.729558
0.659623
0.498538
0.455156
0.447476
0.446319
0.445186
0.445246
0.445465
0.459563
0.460954
0.477512
0.500148
0.543639
0.622689
0.708268
0.702871
0.673469
0.569886
0.543307
0.534929
0.529845
0.522289
0.514336
0.591227
0.716358
0.73164
0.730178
0.731226
0.722848
0.673134
0.552102
0.465139
0.450379
0.449791
0.450946
0.448322
0.469908
0.641012
0.513453
0.481264
0.475379
0.475192
0.489902
0.562004
0.684426
0.688488
0.688047
0.586521
0.509993
0.49494
0.489468
0.486854
0.481515
0.525129
0.682916
0.730178
0.730772
0.713223
0.657737
0.575107
0.483913
0.456974
0.453029
0.456994
0.462586
0.463971
0.585182
0.822268
0.668861
0.564411
0.472396
0.471226
0.481837
0.537658
0.611851
0.666486
0.664034
0.544463
0.467645
0.458133
0.457172
0.459883
0.463522
0.493768
0.633053
0.706462
0.700856
0.64351
0.558153
0.502499
0.471337
0.459315
0.458882
0.465245
0.474248
0.470934
0.700601
0.875151
0.714937
0.665533
0.522533
0.471342
0.494822
0.511981
0.515105
0.601636
0.586019
0.4781
0.456025
0.45645
0.455655
0.456454
0.456303
0.482024
0.575699
0.641081
0.623466
0.547686
0.492306
0.477074
0.468742
0.462039
0.46171
0.468718
0.480869
0.511861
0.755639
0.877342
0.656484
0.647297
0.578491
0.489653
0.495002
0.492445
0.49263
0.496984
0.500627
0.487356
0.483866
0.455748
0.45652
0.45563
0.456482
0.483904
0.534117
0.567651
0.53746
0.487904
0.471164
0.466311
0.463042
0.459415
0.458491
0.46309
0.479592
0.545565
0.719258
0.852414
0.53646
0.561319
0.54701
0.491898
0.492081
0.492272
0.492471
0.503985
0.576218
0.659336
0.695151
0.653001
0.517219
0.456685
0.455776
0.501223
0.523051
0.521458
0.489742
0.469441
0.461918
0.45783
0.45463
0.451587
0.449718
0.451038
0.458746
0.490733
0.622628
0.754296
0.50443
0.504433
0.504353
0.500854
0.508411
0.535883
0.56434
0.709803
0.798638
0.857023
0.871781
0.852316
0.75349
0.603903
0.537968
0.531461
0.526061
0.501016
0.473486
0.460472
0.454002
0.449448
0.445391
0.44171
0.439381
0.438962
0.441158
0.44932
0.496123
0.583029
0.647175
0.649051
0.660109
0.701647
0.750287
0.800959
0.833896
0.880723
0.897612
0.902636
0.902661
0.885485
0.823613
0.714791
0.613647
0.559049
0.524999
0.4861
0.462455
0.451992
0.446179
0.441655
0.437888
0.435288
0.435247
0.435272
0.435185
0.435199
0.440366
0.455044
0.859862
0.862922
0.868156
0.883575
0.895551
0.902121
0.902636
0.903034
0.902636
0.902904
0.900484
0.876126
0.811185
0.710829
0.614928
0.55663
0.506666
0.468685
0.451799
0.444299
0.439867
0.436848
0.435425
0.435501
0.446869
0.451799
0.438727
0.435162
0.435066
0.435101
0.900913
0.902636
0.902892
0.902636
0.903084
0.902636
0.903107
0.902636
0.902821
0.900625
0.890062
0.85467
0.787497
0.698299
0.600859
0.530176
0.47854
0.453892
0.443746
0.439161
0.436838
0.43681
0.437332
0.456107
0.484522
0.485729
0.475029
0.447479
0.437263
0.435062
0.897658
0.902404
0.902636
0.90279
0.902636
0.902825
0.902636
0.902424
0.898613
0.892749
0.873969
0.827617
0.760398
0.678644
0.577144
0.496489
0.459349
0.444972
0.43937
0.437357
0.437349
0.439286
0.45078
0.484547
0.485562
0.484621
0.485039
0.478389
0.456718
0.441071
0.891715
0.898466
0.902142
0.902592
0.902304
0.901758
0.900179
0.896637
0.891921
0.882914
0.854542
0.798297
0.732237
0.646323
0.537189
0.471177
0.448569
0.440583
0.43857
0.438566
0.441816
0.451375
0.483712
0.485518
0.484604
0.47334
0.471223
0.481034
0.488326
0.459715
0.886423
0.892964
0.897477
0.898005
0.897127
0.896124
0.893186
0.88881
0.885465
0.871832
0.831133
0.767464
0.698871
0.596406
0.494901
0.455178
0.442749
0.438848
0.438591
0.441887
0.450236
0.467388
0.483648
0.478329
0.461092
0.452707
0.456947
0.464564
0.488274
0.476223
0.881964
0.887799
0.890949
0.890743
0.889166
0.887884
0.884796
0.881901
0.878079
0.856588
0.803238
0.734259
0.652266
0.53484
0.466055
0.445527
0.439205
0.437682
0.438627
0.442018
0.448475
0.456914
0.460808
0.451099
0.443093
0.442549
0.445374
0.449211
0.485357
0.483955
0.877593
0.882729
0.884409
0.883298
0.881076
0.878776
0.876098
0.874776
0.867523
0.835272
0.770051
0.694112
0.585111
0.483866
0.449128
0.439345
0.43618
0.435427
0.435754
0.437086
0.439495
0.441235
0.440767
0.438254
0.438316
0.43847
0.438572
0.438778
0.446159
0.483577
0.87278
0.877151
0.877574
0.875433
0.872625
0.868182
0.866327
0.864951
0.851781
0.80633
0.72987
0.635421
0.512409
0.454869
0.439742
0.435375
0.433844
0.433703
0.433742
0.433768
0.434715
0.436413
0.436452
0.437588
0.4381
0.438303
0.438582
0.438736
0.438967
0.453862
0.867113
0.870475
0.869577
0.866084
0.862493
0.855362
0.854078
0.85078
0.828112
0.766136
0.675868
0.553445
0.465652
0.441009
0.435136
0.433664
0.433662
0.433738
0.434805
0.438902
0.438535
0.441526
0.439019
0.442146
0.447617
0.443681
0.438667
0.438579
0.438792
0.439002
0.860052
0.862072
0.859647
0.854446
0.84933
0.839847
0.837248
0.829421
0.79198
0.709145
0.596885
0.483695
0.444225
0.435482
0.433731
0.433706
0.436149
0.446037
0.454083
0.46228
0.448908
0.446101
0.443136
0.447163
0.458742
0.46132
0.443569
0.438458
0.438609
0.438838
0.850747
0.851227
0.846875
0.839623
0.831937
0.820148
0.813707
0.796059
0.736045
0.631733
0.509882
0.45081
0.436737
0.434739
0.434763
0.438405
0.456857
0.487597
0.483427
0.471357
0.449109
0.443873
0.443214
0.443365
0.457096
0.461614
0.457744
0.450399
0.442606
0.446182
0.837786
0.836765
0.830086
0.820158
0.808679
0.793788
0.780293
0.744244
0.656922
0.5399
0.461772
0.439537
0.435502
0.43552
0.43928
0.45492
0.487909
0.488316
0.482817
0.458529
0.44619
0.443298
0.44329
0.443426
0.446209
0.455142
0.48918
0.503448
0.566416
0.619687
0.818973
0.816669
0.80736
0.793604
0.776723
0.756916
0.732158
0.671542
0.565932
0.4771
0.444969
0.436729
0.436307
0.439319
0.45083
0.485961
0.488316
0.487954
0.468006
0.448337
0.443547
0.443329
0.443416
0.452399
0.510552
0.579751
0.641642
0.664181
0.721639
0.743
0.791307
0.788041
0.775693
0.756252
0.731565
0.704504
0.666791
0.588271
0.495453
0.453528
0.440203
0.437205
0.438968
0.446393
0.467094
0.486149
0.485861
0.467605
0.446246
0.440407
0.442891
0.443185
0.472094
0.601231
0.666514
0.708321
0.718789
0.719902
0.727246
0.730725
0.750517
0.74659
0.730707
0.703398
0.668373
0.63352
0.59003
0.519332
0.465976
0.446184
0.438838
0.438463
0.441913
0.451978
0.467687
0.473816
0.457877
0.441164
0.439296
0.439444
0.441715
0.443272
0.556429
0.667535
0.675244
0.675286
0.664314
0.663934
0.680752
0.689752
0.692895
0.688514
0.668651
0.632423
0.58885
0.551907
0.522325
0.48715
0.458844
0.444215
0.438243
0.438767
0.442661
0.450721
0.457675
0.449855
0.439318
0.439114
0.439299
0.439279
0.440424
0.441901
0.556616
0.639523
0.618515
0.584656
0.571758
0.587844
0.622972
0.632995
0.620697
0.615535
0.592486
0.552901
0.515247
0.492034
0.486292
0.480278
0.461259
0.444954
0.438164
0.438165
0.441222
0.445938
0.444919
0.439135
0.438971
0.439174
0.43921
0.444408
0.451168
0.464522
0.552633
0.571928
0.528502
0.507498
0.508217
0.536563
0.574515
0.556591
0.54907
0.542756
0.521575
0.494403
0.479691
0.476698
0.477195
0.47994
0.466172
0.447633
0.438191
0.437186
0.438909
0.440881
0.439523
0.438833
0.439027
0.440918
0.459383
0.529882
0.57199
0.578838
0.559543
0.504472
0.479662
0.476436
0.486585
0.509658
0.533175
0.484503
0.505156
0.499747
0.486855
0.476823
0.476693
0.476602
0.476481
0.479641
0.469601
0.451505
0.439905
0.436603
0.437056
0.437818
0.437967
0.438837
0.444418
0.471432
0.584282
0.747113
0.811793
0.757048
0.599229
0.491771
0.469198
0.469085
0.477803
0.490452
0.486839
0.463396
0.500411
0.500216
0.489636
0.478418
0.476604
0.476477
0.476384
0.476281
0.471434
0.456879
0.443087
0.436565
0.436486
0.436542
0.438731
0.444534
0.459912
0.57052
0.798088
0.897327
0.896117
0.893698
0.776031
0.622676
0.50934
0.469109
0.466892
0.469066
0.463402
0.463343
0.500615
0.521491
0.510208
0.49944
0.484416
0.476555
0.476431
0.478598
0.489306
0.469984
0.449109
0.4368
0.436514
0.436516
0.441144
0.453165
0.506895
0.729873
0.898343
0.896117
0.900848
0.896117
0.898571
0.83171
0.704826
0.541819
0.466742
0.463365
0.463316
0.463348
0.510093
0.544289
0.537367
0.532509
0.522241
0.50643
0.500514
0.514839
0.529189
0.501476
0.461926
0.438993
0.436502
0.436594
0.4461
0.460032
0.587872
0.848475
0.896078
0.900846
0.896117
0.900848
0.896078
0.881823
0.813823
0.685997
0.537529
0.463414
0.463397
0.468976
0.538991
0.543988
0.544211
0.543958
0.543986
0.543321
0.542931
0.54288
0.542976
0.524452
0.472019
0.441609
0.436568
0.438224
0.453148
0.478057
0.672176
0.894679
0.900114
0.896078
0.900641
0.896078
0.900456
0.881373
0.800856
0.709366
0.617631
0.548222
0.526603
0.522879
0.544134
0.544187
0.543984
0.544144
0.543958
0.544002
0.543826
0.53995
0.527321
0.511395
0.469248
0.443394
0.436573
0.43951
0.45637
0.513031
0.752352
0.897767
0.896078
0.900123
0.896078
0.900617
0.896078
0.878678
0.764933
0.64662
0.589371
0.582431
0.601817
0.538193
0.53685
0.543988
0.544125
0.543958
0.542864
0.53857
0.530422
0.51362
0.494479
0.487195
0.466341
0.445848
0.437371
0.439028
0.454414
0.573805
0.821133
0.896077
0.899414
0.896078
0.899758
0.896078
0.900569
0.877194
0.750543
0.611326
0.542678
0.544933
0.609132
0.543144
0.514213
0.538295
0.536151
0.531464
0.52404
0.514619
0.503088
0.489612
0.478771
0.474327
0.466116
0.449602
0.440523
0.442792
0.476103
0.658263
0.859851
0.897385
0.896077
0.899244
0.896078
0.900274
0.896077
0.87868
0.753794
0.608764
0.527258
0.525277
0.609091
0.55454
0.493426
0.519706
0.516754
0.509014
0.500667
0.49354
0.487766
0.482919
0.476338
0.469713
0.46562
0.456898
0.451933
0.473743
0.598475
0.738386
0.873209
0.896077
0.898461
0.896077
0.898972
0.896077
0.900098
0.882179
0.782536
0.63776
0.528116
0.524077
0.608355
0.560597
0.481051
0.503692
0.508076
0.500825
0.492718
0.487356
0.484237
0.482583
0.479328
0.471492
0.465371
0.464085
0.471823
0.577939
0.749244
0.807048
0.879824
0.897023
0.896077
0.898447
0.896077
0.899971
0.896077
0.885136
0.811116
0.693446
0.556919
0.524113
0.619621
0.565272
0.46965
0.491227
0.50794
0.505988
0.496982
0.490549
0.489453
0.495682
0.496553
0.486904
0.471604
0.465161
0.491686
0.694283
0.8441
0.854649
0.885808
0.896069
0.89768
0.896077
0.898365
0.896077
0.899575
0.885835
0.821057
0.722226
0.61079
0.556076
0.6455
0.571628
0.459455
0.474792
0.500864
0.505887
0.504796
0.504035
0.515309
0.517712
0.517143
0.511893
0.489529
0.467681
0.545477
0.76686
0.870532
0.878995
0.890844
0.896602
0.896069
0.89771
0.896077
0.899541
0.896069
0.884168
0.819767
0.725816
0.643064
0.619941
0.653715
0.582125
0.454005
0.460287
0.477978
0.499364
0.509348
0.517143
0.517766
0.517143
0.517763
0.517143
0.501113
0.492316
0.610717
0.786278
0.867666
0.886332
0.893346
0.896055
0.896996
0.896069
0.898079
0.896069
0.898926
0.879282
0.799351
0.709156
0.653533
0.650507
0.653742
0.589097
0.45333
0.453897
0.460345
0.475572
0.4924
0.507457
0.517143
0.517621
0.517143
0.517401
0.507272
0.526784
0.657394
0.791125
0.855157
0.884715
0.893182
0.896161
0.896055
0.897228
0.896069
0.899053
0.896055
0.870744
0.76417
0.673567
0.6544
0.654182
0.653962
0.587201
0.453325
0.45333
0.453842
0.458909
0.467882
0.477897
0.489614
0.504491
0.517367
0.517142
0.517135
0.554926
0.712607
0.805867
0.839344
0.875171
0.888705
0.89512
0.896638
0.896055
0.897819
0.896055
0.89839
0.858309
0.730042
0.645518
0.645549
0.653963
0.653742
0.56005
0.453333
0.453322
0.453333
0.453342
0.455753
0.459041
0.462683
0.46718
0.473169
0.485371
0.517046
0.600591
0.766919
0.834354
0.835604
0.861608
0.876891
0.890538
0.896041
0.897207
0.896055
0.898374
0.896041
0.844076
0.704223
0.630183
0.624416
0.622541
0.616212
0.508628
0.456835
0.453346
0.453321
0.453335
0.453329
0.45335
0.45335
0.453384
0.454722
0.458259
0.477375
0.617291
0.789936
0.863173
0.855758
0.859236
0.867676
0.886239
0.896683
0.896041
0.897398
0.896041
0.897556
0.829919
0.682998
0.619052
0.5965
0.573926
0.527698
0.471901
0.466035
0.455695
0.453357
0.453335
0.453352
0.453354
0.453383
0.454722
0.458469
0.458278
0.465823
0.583409
0.761607
0.876405
0.889049
0.878405
0.8782
0.892481
0.896025
0.897126
0.896041
0.897634
0.896025
0.815685
0.661868
0.599762
0.563455
0.518819
0.47458
0.45388
0.473119
0.47313
0.461264
0.461594
0.461906
0.466014
0.46984
0.477943
0.482902
0.479898
0.480319
0.516051
0.684299
0.874122
0.896983
0.895981
0.896551
0.896005
0.896942
0.896025
0.896907
0.896025
0.896761
0.79575
0.63245
0.56612
0.518604
0.475921
0.455111
0.450201
0.470831
0.478775
0.478732
0.481472
0.486735
0.48942
0.489319
0.489428
0.488946
0.488334
0.489425
0.500838
0.634853
0.861338
0.895958
0.897013
0.895981
0.897022
0.896005
0.896623
0.896025
0.896651
0.896005
0.75913
0.582313
0.512877
0.475356
0.456674
0.450214
0.45017
0.462385
0.474661
0.479698
0.485563
0.489415
0.48932
0.487576
0.481783
0.483597
0.491586
0.497484
0.505933
0.636125
0.839888
0.896628
0.895958
0.897013
0.895981
0.896415
0.896005
0.893667
0.896005
0.883587
0.683937
0.506468
0.468903
0.455265
0.450224
0.450176
0.450184
0.454898
0.461917
0.467006
0.469882
0.471721
0.472608
0.473193
0.476923
0.489812
0.504931
0.506305
0.507506
0.612765
0.808569
0.895933
0.896971
0.895958
0.896388
0.891993
0.872983
0.85549
0.859254
0.80905
0.577662
0.469424
0.452631
0.450253
0.450205
0.450199
0.453006
0.451874
0.454733
0.456927
0.457861
0.458294
0.459014
0.461298
0.467041
0.479861
0.497827
0.504405
0.502512
0.570377
0.764641
0.890643
0.895933
0.89618
0.890209
0.860186
0.800547
0.759269
0.744798
0.679572
0.518879
0.461783
0.460799
0.459161
0.458904
0.450312
0.465366
0.452706
0.454259
0.45531
0.455738
0.456208
0.45661
0.457935
0.459717
0.465144
0.476779
0.489321
0.499445
0.548423
0.721373
0.869824
0.893094
0.888601
0.863081
0.795316
0.702608
0.661096
0.632
0.595213
0.588821
0.585501
0.613531
0.639668
0.554419
0.464081
0.463285
0.45573
0.457392
0.459042
0.461097
0.467006
0.47262
0.478561
0.47619
0.468257
0.468741
0.479989
0.498138
0.544413
0.686554
0.835633
0.876835
0.866296
0.81521
0.730167
0.649998
0.636402
0.636563
0.655165
0.704612
0.7145
0.714027
0.714331
0.692934
0.577709
0.474674
0.460494
0.463916
0.466566
0.473998
0.499508
0.506044
0.506715
0.506042
0.499108
0.480129
0.485399
0.50281
0.539714
0.654634
0.798928
0.849048
0.835222
0.771029
0.704891
0.674295
0.672134
0.692615
0.71451
0.714488
0.714235
0.714332
0.713903
0.713946
0.673977
0.549253
0.46564
0.473166
0.471969
0.488922
0.506048
0.506663
0.506037
0.504784
0.473102
0.476089
0.499216
0.499294
0.492595
0.60373
0.767685
0.82303
0.812784
0.757672
0.725586
0.719042
0.715571
0.714747
0.714601
0.71443
0.71428
0.714102
0.714051
0.699726
0.641836
0.562284
0.470814
0.483913
0.494023
0.494124
0.481178
0.472492
0.466183
0.457333
0.451643
0.462055
0.463456
0.452828
0.450117
0.53146
0.739857
0.807639
0.805971
0.764178
0.752832
0.723535
0.667759
0.644087
0.654532
0.677959
0.696322
0.701278
0.687809
0.639428
0.567201
0.523171
0.475998
0.483974
0.475544
0.461618
0.447224
0.441463
0.437993
0.435794
0.436391
0.438802
0.437813
0.43887
0.448656
0.495008
0.717606
0.797942
0.800838
0.766364
0.728807
0.650416
0.54935
0.524794
0.539401
0.587355
0.627246
0.63851
0.610741
0.551718
0.503034
0.487645
0.472814
0.466308
0.447903
0.438195
0.433756
0.43229
0.432208
0.432263
0.432485
0.432934
0.434956
0.440867
0.451919
0.489132
0.694581
0.775247
0.768808
0.733337
0.631303
0.528282
0.471003
0.466832
0.471842
0.496771
0.529101
0.543375
0.521591
0.491086
0.477452
0.473969
0.457315
0.442946
0.434138
0.430997
0.430825
0.431513
0.432406
0.432628
0.432735
0.433384
0.43594
0.441195
0.448989
0.46603
0.64562
0.718012
0.685232
0.639052
0.537181
0.482741
0.466593
0.46678
0.466559
0.466777
0.471738
0.477775
0.475177
0.470554
0.470271
0.47113
0.437602
0.431792
0.429331
0.429634
0.430798
0.432302
0.432576
0.432623
0.432784
0.433821
0.435997
0.438823
0.441557
0.450185
0.569205
0.640753
0.609453
0.564774
0.563187
0.570661
0.557075
0.518234
0.495789
0.478181
0.46723
0.46518
0.465268
0.465136
0.465253
0.468822
0.42779
0.426991
0.427469
0.429013
0.430708
0.43177
0.431748
0.431981
0.432931
0.43495
0.437427
0.4394
0.439948
0.447723
0.516898
0.612979
0.638756
0.624343
0.672065
0.708384
0.713914
0.695015
0.676325
0.64477
0.598134
0.542029
0.491567
0.467013
0.465304
0.465474
0.423418
0.424167
0.425484
0.427048
0.428475
0.429155
0.429879
0.431703
0.434698
0.439185
0.444428
0.448177
0.446334
0.44844
0.519799
0.667918
0.724505
0.726368
0.747054
0.748242
0.748094
0.748448
0.748094
0.748448
0.746305
0.720093
0.674626
0.618648
0.596661
0.490684
0.420614
0.421671
0.422863
0.423794
0.424692
0.425982
0.428283
0.432156
0.437724
0.445896
0.456625
0.467371
0.467928
0.460028
0.604644
0.742815
0.749548
0.74911
0.74928
0.737552
0.732413
0.738718
0.744778
0.748094
0.74849
0.748094
0.748408
0.745356
0.737103
0.606296
0.418682
0.419551
0.420287
0.420753
0.421916
0.425024
0.429067
0.433835
0.439982
0.448042
0.458426
0.470499
0.485715
0.533093
0.685258
0.749404
0.749054
0.749548
0.732308
0.698548
0.684734
0.688986
0.696238
0.704687
0.714857
0.724448
0.730482
0.725104
0.713501
0.603657
0.417649
0.418137
0.418649
0.419598
0.422862
0.428978
0.434785
0.441819
0.44704
0.450007
0.454968
0.462027
0.47946
0.546954
0.683861
0.747191
0.749406
0.745632
0.695086
0.644308
0.622017
0.617025
0.619453
0.622364
0.632345
0.651232
0.666846
0.657585
0.622802
0.529447
0.41771
0.418113
0.419582
0.423258
0.429739
0.445619
0.449773
0.462485
0.470501
0.465186
0.460034
0.460296
0.465525
0.51856
0.638232
0.719417
0.737709
0.716782
0.649557
0.594926
0.559014
0.544543
0.544421
0.541332
0.545892
0.563615
0.582162
0.565335
0.520556
0.480121
0.420098
0.42065
0.425493
0.440332
0.441335
0.457192
0.458298
0.461352
0.486807
0.492607
0.472334
0.463776
0.463596
0.478209
0.554037
0.646844
0.67979
0.653042
0.597565
0.551068
0.507169
0.49009
0.490507
0.490379
0.490912
0.49853
0.511757
0.497639
0.476796
0.475338
0.425995
0.426507
0.441486
0.519715
0.681434
0.728258
0.707156
0.605025
0.535655
0.544241
0.523275
0.481051
0.465821
0.466804
0.485991
0.548532
0.585632
0.573054
0.542071
0.511298
0.482449
0.472608
0.470423
0.468311
0.469024
0.475922
0.481766
0.473655
0.472295
0.478629
0.434769
0.444102
0.527932
0.739601
0.841192
0.874897
0.88326
0.861612
0.774185
0.690481
0.662076
0.593581
0.510141
0.476782
0.477838
0.4871
0.520758
0.541876
0.510439
0.486558
0.476961
0.464424
0.459718
0.457764
0.461968
0.472456
0.474079
0.468493
0.468563
0.477286
0.438868
0.506481
0.708997
0.810759
0.83045
0.858708
0.895662
0.921491
0.924231
0.89135
0.84325
0.793858
0.696431
0.591905
0.543873
0.546286
0.604794
0.650856
0.570762
0.487183
0.467989
0.456541
0.454673
0.455018
0.47171
0.489049
0.469423
0.468577
0.468517
0.47154
0.561048
0.703237
0.779177
0.789945
0.799927
0.827279
0.870723
0.91361
0.945283
0.958675
0.951446
0.93211
0.898838
0.838724
0.782956
0.777458
0.834316
0.870435
0.771616
0.554474
0.464577
0.454454
0.454827
0.478307
0.560535
0.609044
0.575084
0.514931
0.543007
0.471661
0.673557
0.778022
0.761833
0.764761
0.770212
0.795226
0.840643
0.892552
0.937201
0.966986
0.980243
0.978772
0.975563
0.967038
0.955002
0.953554
0.967142
0.973436
0.933699
0.712535
0.482907
0.454875
0.47102
0.571666
0.673892
0.699679
0.70062
0.68582
0.699472
0.548587
0.695397
0.777363
0.740804
0.73785
0.736152
0.757438
0.806644
0.868651
0.925495
0.966406
0.984971
0.985898
0.984968
0.985569
0.984955
0.985355
0.984945
0.985371
0.979065
0.873497
0.600363
0.484469
0.54026
0.645322
0.697553
0.70067
0.699989
0.701005
0.7003
0.682712
0.694314
0.779299
0.72152
0.707881
0.698951
0.715486
0.763944
0.840979
0.915587
0.965688
0.985654
0.984986
0.986117
0.984971
0.985711
0.984958
0.98553
0.984945
0.985081
0.942738
0.735941
0.580094
0.583391
0.656032
0.698873
0.699989
0.700785
0.7003
0.700898
0.700608
0.69579
0.777364
0.707467
0.68413
0.663345
0.672555
0.712873
0.809197
0.909564
0.965875
0.984986
0.986196
0.984986
0.98598
0.984971
0.985671
0.984958
0.985383
0.984945
0.963209
0.801183
0.614403
0.587
0.646923
0.694666
0.700213
0.699989
0.700704
0.7003
0.624079
0.70943
0.779374
0.701679
0.671359
0.635675
0.635329
0.659787
0.776836
0.908321
0.966937
0.985764
0.985002
0.986159
0.984986
0.985816
0.984971
0.985586
0.984958
0.985082
0.970404
0.826278
0.597975
0.553219
0.627068
0.68358
0.69968
0.700093
0.692759
0.626191
0.474666
0.725453
0.777365
0.701331
0.667997
0.620458
0.607415
0.614778
0.750593
0.914056
0.969346
0.985002
0.986107
0.985002
0.985938
0.984986
0.985762
0.984967
0.985359
0.984949
0.97232
0.836036
0.576904
0.540423
0.617201
0.667521
0.678802
0.648559
0.565549
0.471137
0.439343
0.740895
0.779203
0.706945
0.670171
0.616569
0.590123
0.584161
0.736217
0.923347
0.972419
0.985639
0.985002
0.986013
0.984986
0.985864
0.984967
0.98561
0.984949
0.984991
0.964411
0.820173
0.566864
0.540359
0.606868
0.643919
0.615561
0.534166
0.464336
0.439728
0.439075
0.754165
0.777365
0.717345
0.679465
0.619123
0.582859
0.566501
0.733127
0.92857
0.97595
0.984986
0.985973
0.984986
0.985926
0.984967
0.985789
0.984949
0.985287
0.98473
0.941389
0.713251
0.554241
0.550801
0.591548
0.589173
0.523894
0.464798
0.441423
0.439137
0.458323
0.760337
0.778371
0.723719
0.686408
0.627146
0.581996
0.55686
0.739829
0.931989
0.979541
0.985639
0.984986
0.985985
0.984967
0.985859
0.984949
0.985553
0.984934
0.984372
0.923562
0.616198
0.5406
0.563434
0.563498
0.517699
0.469958
0.446761
0.439041
0.439125
0.464444
0.70589
0.777365
0.722806
0.687197
0.631167
0.583824
0.552521
0.764785
0.939802
0.98381
0.984967
0.985938
0.984967
0.985886
0.984949
0.985735
0.984934
0.985165
0.984065
0.921096
0.561843
0.521116
0.552013
0.516548
0.478171
0.453959
0.441171
0.438894
0.444967
0.464494
0.516507
0.687048
0.666883
0.658946
0.629728
0.584105
0.551125
0.79704
0.95319
0.984949
0.985721
0.984967
0.985912
0.984949
0.98579
0.984934
0.985436
0.984922
0.983796
0.9247
0.541172
0.509207
0.513464
0.489074
0.463433
0.44774
0.439179
0.439106
0.463566
0.464509
0.449516
0.478542
0.547862
0.594832
0.598591
0.567753
0.550999
0.831153
0.965487
0.985331
0.984949
0.98588
0.984949
0.985796
0.984934
0.985614
0.984922
0.985049
0.983414
0.928762
0.538421
0.503113
0.49727
0.47655
0.457147
0.444615
0.439176
0.441654
0.464406
0.464553
0.449327
0.449416
0.456009
0.499221
0.549431
0.540618
0.551978
0.865196
0.973648
0.984934
0.985721
0.984949
0.985803
0.984934
0.985675
0.984922
0.985304
0.98491
0.982815
0.932977
0.557099
0.496418
0.496944
0.471249
0.453035
0.442673
0.439387
0.448588
0.464515
0.46446
0.45501
0.449302
0.449456
0.452587
0.488381
0.510889
0.589009
0.900273
0.978342
0.985362
0.984934
0.985789
0.984934
0.98567
0.984922
0.985475
0.98491
0.984948
0.981276
0.936921
0.624764
0.486109
0.496783
0.465054
0.449276
0.442076
0.441827
0.452861
0.464347
0.46446
0.471447
0.449512
0.449275
0.449507
0.461202
0.487673
0.687765
0.936764
0.98136
0.984922
0.98569
0.984934
0.98566
0.984922
0.985544
0.98491
0.985173
0.984674
0.977699
0.938304
0.695558
0.478829
0.493409
0.458146
0.446427
0.442643
0.444831
0.455073
0.464395
0.464366
0.521847
0.46409
0.449569
0.449302
0.454008
0.481391
0.809479
0.963997
0.984165
0.985413
0.984922
0.985666
0.984922
0.985524
0.98491
0.985348
0.984899
0.983831
0.97208
0.93741
0.760507
0.472096
0.471915
0.451194
0.444806
0.444261
0.447426
0.454825
0.463469
0.462179
0.53649
0.544814
0.475295
0.449866
0.455974
0.572114
0.91639
0.975108
0.985187
0.98491
0.985611
0.984922
0.985484
0.98491
0.985411
0.984899
0.985064
0.982829
0.966323
0.923504
0.782312
0.471839
0.459704
0.447088
0.445206
0.448024
0.449186
0.450077
0.45307
0.458429
0.537836
0.575708
0.548845
0.491999
0.497411
0.770542
0.9502
0.977385
0.984899
0.985432
0.98491
0.985505
0.98491
0.985374
0.984899
0.985225
0.98489
0.982201
0.961714
0.898318
0.759251
0.483831
0.452575
0.447593
0.457511
0.463681
0.461853
0.459228
0.462621
0.469388
0.546406
0.576507
0.565978
0.547967
0.617782
0.839962
0.952156
0.978471
0.985187
0.984899
0.985473
0.98491
0.985301
0.984899
0.985277
0.98489
0.984993
0.981667
0.957494
0.87683
0.736075
0.52949
0.455709
0.471138
0.507647
0.528541
0.532994
0.538091
0.565376
0.518797
0.546185
0.57585
0.573158
0.564726
0.644411
0.840584