/*--------------------------------*- C++ -*----------------------------------*\
| =========                 |                                                 |
| \\      /  F ield         | OpenFOAM: The Open Source CFD Toolbox           |
|  \\    /   O peration     | Version:  2.3.0                                 |
|   \\  /    A nd           | Web:      www.OpenFOAM.org                      |
|    \\/     M anipulation  |                                                 |
\*---------------------------------------------------------------------------*/
FoamFile
{
    version     2.0;
    format      ascii;
    class       surfaceScalarField;
    location    "1.89";
    object      phi;
}
// * * * * * * * * * * * * * * * * * * * * * * * * * * * * * * * * * * * * * //

dimensions      [0 3 -1 0 0 0 0];

internalField   nonuniform List<scalar> 
11770
(
-4.88118e-06
5.33207e-05
-7.43552e-06
5.10638e-05
-9.35627e-06
5.03852e-05
-7.32192e-06
4.62533e-05
-4.98373e-06
4.57323e-05
-3.38133e-06
4.64182e-05
-3.62521e-06
4.83561e-05
-7.31879e-06
5.18539e-05
-1.16499e-05
5.28931e-05
-1.27065e-05
4.96993e-05
-1.30128e-05
4.89745e-05
-1.73343e-05
5.31477e-05
-2.50508e-05
5.66305e-05
-3.24942e-05
5.63342e-05
-3.60052e-05
5.23082e-05
-3.75074e-05
5.02185e-05
-3.83061e-05
4.94373e-05
-4.04247e-05
5.07104e-05
-4.27628e-05
5.07083e-05
-4.37318e-05
4.95108e-05
-3.74419e-05
4.2223e-05
-2.65289e-05
3.75415e-05
-1.35846e-05
3.53601e-05
3.50781e-07
3.42279e-05
1.39337e-05
3.46299e-05
1.94322e-05
4.29344e-05
1.72873e-05
5.07316e-05
1.59074e-05
4.99409e-05
1.12743e-05
5.32591e-05
5.99687e-05
-2.14951e-06
5.69378e-05
-2.86059e-06
5.31516e-05
-3.85888e-06
5.26861e-05
-6.65851e-06
5.02258e-05
-8.73061e-06
4.89129e-05
-8.64685e-06
4.74518e-05
-6.253e-06
4.71467e-05
-4.88431e-06
5.17392e-05
-7.60229e-06
5.69103e-05
-1.29964e-05
5.62763e-05
-1.98493e-05
5.69379e-05
-3.05326e-05
6.50158e-05
-4.27017e-05
7.00947e-05
-4.86773e-05
6.3717e-05
-4.95876e-05
5.46126e-05
-4.52102e-05
4.72362e-05
-3.91829e-05
4.48126e-05
-3.64757e-05
4.94027e-05
-3.47822e-05
5.03697e-05
-3.09764e-05
4.6968e-05
-2.40471e-05
3.63662e-05
-1.68177e-05
3.12987e-05
-9.91685e-06
2.9455e-05
-8.46218e-07
2.61759e-05
1.18289e-05
2.29758e-05
2.06137e-05
3.52854e-05
1.40785e-05
5.8554e-05
1.00114e-05
5.53228e-05
1.29479e-06
6.34131e-05
6.29128e-05
-6.02689e-06
6.30994e-05
-6.71899e-06
5.39344e-05
-7.62964e-06
5.37292e-05
-8.67369e-06
5.14433e-05
-9.45429e-06
4.99018e-05
-8.53865e-06
4.674e-05
-5.90406e-06
4.46987e-05
-3.49553e-06
4.94821e-05
-1.56456e-06
5.50839e-05
-4.27374e-06
5.91006e-05
-1.69712e-05
6.97457e-05
-3.15517e-05
7.96876e-05
-4.11444e-05
7.97557e-05
-4.39932e-05
6.66337e-05
-4.23683e-05
5.30532e-05
-3.51579e-05
4.00878e-05
-2.659e-05
3.63169e-05
-2.17019e-05
4.46099e-05
-1.7999e-05
4.67693e-05
-9.20073e-06
3.82601e-05
-4.47058e-06
3.17044e-05
-4.23161e-06
3.11187e-05
-4.44256e-06
2.97237e-05
-3.21809e-06
2.5002e-05
6.34051e-07
1.91655e-05
8.81586e-06
2.71682e-05
5.8724e-06
6.16545e-05
5.10677e-06
5.62384e-05
5.04713e-06
6.36352e-05
6.81315e-05
-1.13019e-05
7.44859e-05
-1.30228e-05
5.56994e-05
-1.30898e-05
5.38527e-05
-1.1972e-05
5.04222e-05
-9.03875e-06
4.71326e-05
-6.32679e-06
4.4193e-05
-4.03393e-06
4.25356e-05
-1.23728e-07
4.5652e-05
4.35332e-06
5.0645e-05
-1.81958e-06
6.52706e-05
-1.50803e-05
8.29928e-05
-2.33341e-05
8.79288e-05
-2.79944e-05
8.44173e-05
-2.97834e-05
6.84356e-05
-2.9586e-05
5.28733e-05
-2.57965e-05
3.6306e-05
-1.84439e-05
2.89626e-05
-9.30295e-06
3.54744e-05
5.47923e-07
3.69368e-05
7.042e-06
3.17869e-05
6.56682e-06
3.22017e-05
3.10971e-06
3.46e-05
-6.43409e-07
3.35002e-05
-2.21215e-06
2.65874e-05
-3.25011e-07
1.7289e-05
-2.04778e-06
2.8909e-05
-5.70194e-06
6.53572e-05
-6.33067e-06
5.69136e-05
-9.78988e-07
5.83307e-05
6.72159e-05
-1.1954e-05
8.65191e-05
-1.66679e-05
6.04621e-05
-1.63949e-05
5.36273e-05
-1.48731e-05
4.89716e-05
-9.82187e-06
4.21931e-05
-5.10102e-06
3.95925e-05
-2.12986e-06
3.96576e-05
3.1341e-07
4.32704e-05
-3.51367e-06
5.45066e-05
-1.55076e-05
7.72468e-05
-2.14215e-05
8.88807e-05
-1.99905e-05
8.65096e-05
-1.6746e-05
8.12283e-05
-1.73675e-05
6.91379e-05
-1.81084e-05
5.36859e-05
-1.6291e-05
3.45378e-05
-8.61054e-06
2.13017e-05
3.3018e-06
2.35695e-05
1.26372e-05
2.76126e-05
1.46168e-05
2.98236e-05
1.22711e-05
3.4568e-05
8.22643e-06
3.86675e-05
2.32754e-06
3.94206e-05
-1.72191e-06
3.06489e-05
-1.25847e-06
1.68314e-05
-1.09888e-05
3.86584e-05
-1.70759e-05
7.14812e-05
-1.63517e-05
5.6221e-05
-7.48842e-06
4.9493e-05
5.97714e-05
-6.23911e-06
9.28177e-05
-1.33061e-05
6.75738e-05
-1.28797e-05
5.32427e-05
-1.27687e-05
4.8921e-05
-1.11876e-05
4.06894e-05
-8.7609e-06
3.72422e-05
-9.11397e-06
4.00676e-05
-1.49738e-05
4.91929e-05
-2.68349e-05
6.64432e-05
-3.07232e-05
8.12033e-05
-2.3867e-05
8.2104e-05
-1.58653e-05
7.86171e-05
-9.17183e-06
7.46485e-05
-7.75179e-06
6.78195e-05
-8.07626e-06
5.40977e-05
-8.21903e-06
3.47559e-05
2.97644e-07
1.28245e-05
1.04956e-05
1.33932e-05
1.6384e-05
2.17435e-05
1.73872e-05
2.88414e-05
1.68513e-05
3.51272e-05
1.3665e-05
4.18794e-05
3.28784e-06
4.98208e-05
-4.4879e-06
3.84327e-05
-1.1752e-05
2.40962e-05
-2.11262e-05
4.80546e-05
-2.26536e-05
7.30467e-05
-2.21108e-05
5.57109e-05
-1.45954e-05
4.20055e-05
4.52114e-05
3.92433e-07
9.24665e-05
-7.43286e-06
7.54331e-05
-1.06841e-05
5.65247e-05
-1.30481e-05
5.13323e-05
-1.64472e-05
4.41533e-05
-1.84968e-05
3.93542e-05
-2.47493e-05
4.63931e-05
-3.40948e-05
5.8647e-05
-3.58974e-05
6.83801e-05
-2.90263e-05
7.44911e-05
-2.12073e-05
7.44099e-05
-1.43471e-05
7.18582e-05
-7.79579e-06
6.81735e-05
8.39934e-07
5.92392e-05
6.5276e-06
4.846e-05
5.85221e-06
3.54794e-05
9.8486e-06
8.86318e-06
1.491e-05
8.35405e-06
1.79708e-05
1.87058e-05
1.94723e-05
2.73646e-05
2.0801e-05
3.38251e-05
1.55757e-05
4.7133e-05
-2.70109e-06
6.81293e-05
-2.22509e-05
5.80079e-05
-3.65088e-05
3.83722e-05
-3.22354e-05
4.38074e-05
-2.25938e-05
6.34393e-05
-2.24371e-05
5.55866e-05
-1.6006e-05
3.56035e-05
2.92338e-05
9.58772e-07
9.154e-05
-1.7509e-06
7.81718e-05
-5.09838e-06
5.98979e-05
-1.05941e-05
5.68605e-05
-1.75042e-05
5.11162e-05
-2.18943e-05
4.3801e-05
-2.77769e-05
5.23701e-05
-3.03363e-05
6.13272e-05
-2.93496e-05
6.75304e-05
-2.44392e-05
6.96989e-05
-1.77944e-05
6.78325e-05
-1.12929e-05
6.54052e-05
-8.62196e-07
5.77827e-05
1.3368e-05
4.50444e-05
2.11573e-05
4.0707e-05
1.8934e-05
3.774e-05
1.3756e-05
1.40694e-05
1.5967e-05
6.16239e-06
1.76635e-05
1.70303e-05
1.67833e-05
2.82684e-05
9.05521e-06
4.15782e-05
-1.33438e-05
6.95635e-05
-3.48446e-05
8.96699e-05
-5.5905e-05
7.91129e-05
-5.59649e-05
3.84718e-05
-3.95049e-05
2.7374e-05
-2.29028e-05
4.68623e-05
-1.79553e-05
5.06641e-05
-1.10126e-05
2.86835e-05
1.8241e-05
-1.37063e-06
9.29419e-05
8.81247e-07
7.59478e-05
-1.61842e-07
6.09653e-05
-5.42527e-06
6.21503e-05
-1.26599e-05
5.83916e-05
-1.55679e-05
4.67536e-05
-1.93702e-05
5.62428e-05
-2.27218e-05
6.47684e-05
-2.27065e-05
6.75965e-05
-1.9212e-05
6.62531e-05
-1.44541e-05
6.31119e-05
-6.18972e-06
5.7174e-05
1.12066e-05
4.04161e-05
2.44496e-05
3.18309e-05
2.90904e-05
3.60987e-05
2.35386e-05
4.33245e-05
1.2085e-05
2.55423e-05
9.01084e-06
9.24863e-06
4.98579e-06
2.10715e-05
-9.07839e-06
4.23581e-05
-3.20825e-05
6.46039e-05
-5.06746e-05
8.81867e-05
-5.16105e-05
9.06453e-05
-5.89524e-05
8.6496e-05
-5.33598e-05
3.29102e-05
-3.90486e-05
1.30836e-05
-2.24444e-05
3.02741e-05
-1.17676e-05
3.99988e-05
-4.42885e-06
2.13555e-05
1.38239e-05
-2.22253e-06
9.5196e-05
3.80255e-06
6.99487e-05
5.32186e-06
5.94689e-05
1.34762e-06
6.61487e-05
-6.12326e-06
6.58952e-05
-9.13272e-06
4.97964e-05
-1.25733e-05
5.97292e-05
-1.71507e-05
6.94023e-05
-1.76334e-05
6.81209e-05
-1.5175e-05
6.3827e-05
-1.20454e-05
6.00131e-05
1.98652e-06
4.31688e-05
2.01031e-05
2.23232e-05
2.88236e-05
2.31352e-05
2.43256e-05
4.06221e-05
2.24596e-05
4.52119e-05
1.22756e-05
3.57371e-05
-3.63722e-06
2.51745e-05
-2.30988e-05
4.05501e-05
-3.92917e-05
5.85728e-05
-4.80254e-05
7.3364e-05
-4.58332e-05
8.60229e-05
-4.30423e-05
8.78851e-05
-4.21931e-05
8.5683e-05
-3.9163e-05
2.99012e-05
-3.05495e-05
4.48547e-06
-1.8412e-05
1.81491e-05
-6.66784e-06
2.82623e-05
-6.25773e-07
1.5318e-05
1.32073e-05
-6.4043e-07
9.58668e-05
6.91273e-06
6.24195e-05
1.06334e-05
5.577e-05
8.19549e-06
6.861e-05
6.70353e-07
7.3448e-05
-5.27383e-06
5.57695e-05
-9.53103e-06
6.40259e-05
-1.42838e-05
7.41975e-05
-1.46998e-05
6.85701e-05
-1.25765e-05
6.1734e-05
-9.36687e-06
5.68319e-05
8.74323e-06
2.50809e-05
1.80674e-05
1.30179e-05
1.85366e-05
2.2685e-05
1.20555e-05
4.71229e-05
9.92643e-06
4.73571e-05
3.07776e-06
4.2598e-05
-1.12553e-05
3.95217e-05
-2.60179e-05
5.5328e-05
-3.44785e-05
6.70458e-05
-3.79407e-05
7.68418e-05
-3.52493e-05
8.33492e-05
-3.13428e-05
8.40013e-05
-2.76204e-05
8.19984e-05
-2.44618e-05
2.67594e-05
-2.03093e-05
3.43403e-07
-1.2948e-05
1.07983e-05
-3.02907e-06
1.83545e-05
7.90945e-08
1.22183e-05
1.32995e-05
3.75579e-06
9.21399e-05
1.06014e-05
5.55954e-05
1.50023e-05
5.13893e-05
1.39505e-05
6.96851e-05
5.79646e-06
8.16291e-05
-3.10489e-06
6.46994e-05
-8.89953e-06
6.98595e-05
-1.3496e-05
7.88343e-05
-1.38172e-05
6.89253e-05
-1.34274e-05
6.13755e-05
-4.59687e-06
4.80282e-05
7.38647e-06
1.31154e-05
9.87099e-06
1.05481e-05
6.05547e-06
2.65161e-05
7.59995e-06
4.55966e-05
4.87172e-06
5.01024e-05
-3.65869e-06
5.1143e-05
-1.3307e-05
4.91885e-05
-2.12046e-05
6.32387e-05
-2.66816e-05
7.25247e-05
-2.83882e-05
7.85554e-05
-2.51097e-05
8.00816e-05
-2.17891e-05
8.06989e-05
-1.9175e-05
7.94169e-05
-1.47782e-05
2.23772e-05
-1.34116e-05
-1.01657e-06
-9.60882e-06
7.00377e-06
-2.453e-06
1.12085e-05
-9.04819e-07
1.06797e-05
1.24075e-05
9.61373e-06
8.25541e-05
1.46279e-05
5.06013e-05
1.84708e-05
4.75657e-05
1.82945e-05
6.98853e-05
8.88889e-06
9.10651e-05
-2.50006e-06
7.61193e-05
-1.01881e-05
7.75887e-05
-1.42055e-05
8.28932e-05
-1.53482e-05
7.01019e-05
-1.52568e-05
6.13148e-05
-2.91342e-06
3.57091e-05
2.68073e-07
9.94805e-06
-5.82647e-07
1.14113e-05
4.16039e-06
2.17872e-05
9.07883e-06
4.06964e-05
6.18007e-06
5.30204e-05
-2.38004e-06
5.97204e-05
-1.17203e-05
5.85527e-05
-1.57606e-05
6.7306e-05
-1.91405e-05
7.59131e-05
-1.94621e-05
7.88851e-05
-1.70523e-05
7.76838e-05
-1.4958e-05
7.8626e-05
-1.32355e-05
7.77215e-05
-9.16794e-06
1.83216e-05
-9.59175e-06
-5.87559e-07
-7.66825e-06
5.08697e-06
-3.76879e-06
7.31675e-06
-2.13121e-06
9.05027e-06
1.02857e-05
1.26391e-05
6.99416e-05
1.707e-05
4.61895e-05
2.01796e-05
4.44744e-05
2.06631e-05
6.94272e-05
9.4877e-06
0.000102277
-3.73752e-06
8.93806e-05
-1.32984e-05
8.71955e-05
-1.82762e-05
8.79126e-05
-2.03189e-05
7.21779e-05
-1.57063e-05
5.67313e-05
-6.94813e-06
2.6971e-05
-9.36759e-06
1.23798e-05
-9.36593e-06
1.14212e-05
2.45857e-07
1.2188e-05
9.8262e-06
3.11337e-05
7.7287e-06
5.51397e-05
4.31162e-07
6.70389e-05
-7.74447e-06
6.67526e-05
-1.05349e-05
7.01336e-05
-1.16878e-05
7.70911e-05
-1.16388e-05
7.88582e-05
-1.10838e-05
7.71542e-05
-9.66255e-06
7.72332e-05
-9.37912e-06
7.74651e-05
-5.92073e-06
1.48736e-05
-6.59998e-06
9.65359e-08
-5.76059e-06
4.25358e-06
-3.99879e-06
5.56172e-06
-2.35971e-06
7.41868e-06
7.93347e-06
1.22031e-05
5.77633e-05
1.68999e-05
4.15106e-05
1.95159e-05
4.1876e-05
2.06252e-05
6.83447e-05
7.6456e-06
0.0001153
-6.53623e-06
0.000103605
-2.04129e-05
0.000101124
-2.67901e-05
9.43328e-05
-2.5321e-05
7.07427e-05
-1.4897e-05
4.63334e-05
-1.21746e-05
2.42654e-05
-1.49541e-05
1.51716e-05
-1.24249e-05
8.90311e-06
-5.62565e-06
5.3995e-06
6.04769e-06
1.9476e-05
1.03162e-05
5.08945e-05
2.60501e-06
7.47747e-05
-4.97817e-06
7.43593e-05
-7.98994e-06
7.31828e-05
-8.09229e-06
7.72333e-05
-7.89816e-06
7.87023e-05
-7.52299e-06
7.68149e-05
-6.4859e-06
7.62278e-05
-4.7801e-06
7.57864e-05
-2.50791e-06
1.26107e-05
-3.94047e-06
1.53379e-06
-3.81881e-06
4.13757e-06
-2.91212e-06
4.66108e-06
-1.28938e-06
5.80251e-06
6.65028e-06
1.08102e-05
4.69752e-05
1.50453e-05
3.72918e-05
1.70501e-05
3.98879e-05
1.85165e-05
6.69061e-05
5.23489e-06
0.000128633
-9.26813e-06
0.000118156
-2.97311e-05
0.000121641
-3.50435e-05
9.96903e-05
-2.62654e-05
6.19973e-05
-1.58918e-05
3.5982e-05
-1.50058e-05
2.33949e-05
-1.47275e-05
1.49058e-05
-1.24176e-05
6.60373e-06
-1.02755e-05
3.26708e-06
-2.69542e-06
1.19093e-05
7.95934e-06
4.02621e-05
1.67683e-06
8.1085e-05
-4.79626e-06
8.08572e-05
-8.48101e-06
7.68974e-05
-8.99509e-06
7.7788e-05
-8.26772e-06
7.80157e-05
-7.22603e-06
7.58108e-05
-5.29363e-06
7.43248e-05
-1.33004e-06
7.18477e-05
2.45023e-07
1.10436e-05
-1.58328e-06
3.36689e-06
-1.77572e-06
4.33528e-06
-1.35917e-06
4.24988e-06
-3.54397e-07
4.80333e-06
6.30144e-06
9.30965e-06
3.76843e-05
1.236e-05
3.4256e-05
1.35778e-05
3.86857e-05
1.47769e-05
6.5735e-05
5.07834e-06
0.00013839
-1.11213e-05
0.000134407
-3.27057e-05
0.000143282
-3.59145e-05
0.000102948
-2.407e-05
5.01827e-05
-1.6932e-05
2.88629e-05
-1.56296e-05
2.21075e-05
-1.44084e-05
1.36969e-05
-1.43223e-05
6.52782e-06
-1.40813e-05
3.03536e-06
-9.32274e-06
7.16224e-06
-1.44529e-06
3.24043e-05
-4.51172e-06
8.41811e-05
-8.8685e-06
8.52401e-05
-1.20222e-05
8.00775e-05
-1.26057e-05
7.8404e-05
-1.20029e-05
7.74455e-05
-1.07888e-05
7.46259e-05
-8.56818e-06
7.21286e-05
-2.59721e-07
6.35602e-05
1.05315e-06
9.73752e-06
-1.48184e-07
4.57299e-06
-2.00184e-07
4.39209e-06
-1.0841e-07
4.16294e-06
3.84646e-08
4.66165e-06
6.3457e-06
7.13678e-06
3.05626e-05
8.50363e-06
3.29024e-05
9.07013e-06
3.81341e-05
9.71645e-06
6.51168e-05
8.71177e-06
0.000139458
-1.05462e-05
0.000153724
-2.32537e-05
0.00015605
-3.13567e-05
0.000111104
-2.2343e-05
4.11957e-05
-1.76132e-05
2.41502e-05
-1.63939e-05
2.09029e-05
-1.67755e-05
1.40906e-05
-1.81898e-05
7.95217e-06
-1.78251e-05
2.67945e-06
-1.44488e-05
3.79584e-06
-1.28577e-05
3.08306e-05
-1.25974e-05
8.39511e-05
-1.4707e-05
8.73767e-05
-1.71394e-05
8.25349e-05
-1.88174e-05
8.01082e-05
-1.86686e-05
7.7322e-05
-1.73722e-05
7.33528e-05
-1.32399e-05
6.80175e-05
1.2817e-06
4.90552e-05
2.54015e-06
8.48487e-06
1.85174e-06
5.26583e-06
1.52468e-06
4.72332e-06
1.13741e-06
4.5547e-06
6.08759e-07
5.19587e-06
6.96164e-06
3.25862e-06
2.73164e-05
2.91318e-06
3.32606e-05
1.73072e-06
3.93317e-05
2.50316e-06
6.43725e-05
1.35506e-05
0.000128473
2.50693e-06
0.000164834
-6.84823e-06
0.000165466
-2.31178e-05
0.00012743
-2.04766e-05
3.85778e-05
-1.85458e-05
2.2235e-05
-1.91705e-05
2.15422e-05
-2.14685e-05
1.64009e-05
-2.34461e-05
9.94008e-06
-2.35642e-05
2.80591e-06
-2.20726e-05
2.31273e-06
-2.24736e-05
3.12474e-05
-2.08354e-05
8.23414e-05
-2.20629e-05
8.86313e-05
-2.50054e-05
8.5502e-05
-2.66667e-05
8.17939e-05
-2.61911e-05
7.68697e-05
-2.26019e-05
6.97856e-05
-1.46375e-05
6.00732e-05
4.32947e-06
3.01011e-05
5.04877e-06
7.77054e-06
4.54539e-06
5.77306e-06
3.87763e-06
5.39456e-06
3.04163e-06
5.39479e-06
1.82855e-06
6.41514e-06
8.79955e-06
-1.19945e-06
2.85285e-05
-3.98511e-06
3.60607e-05
-8.30271e-06
4.36661e-05
-7.47341e-06
6.35718e-05
1.39058e-05
0.00010715
2.20062e-05
0.000156803
1.35001e-05
0.000174037
-6.40018e-06
0.000147385
-1.81351e-05
5.0335e-05
-1.99772e-05
2.40904e-05
-2.33566e-05
2.49356e-05
-2.6598e-05
1.96546e-05
-2.88112e-05
1.21637e-05
-3.06783e-05
4.68159e-06
-3.05869e-05
2.22956e-06
-2.82793e-05
2.8954e-05
-2.76885e-05
8.1776e-05
-2.95371e-05
9.0506e-05
-3.1929e-05
8.79191e-05
-3.16344e-05
8.15238e-05
-2.81417e-05
7.34005e-05
-2.29554e-05
6.46213e-05
-7.01643e-06
4.41522e-05
7.62912e-06
1.54649e-05
8.23516e-06
7.16896e-06
7.64001e-06
6.37149e-06
6.79079e-06
6.24632e-06
5.85396e-06
6.33435e-06
4.21662e-06
8.05794e-06
1.30284e-05
-5.95228e-06
3.44961e-05
-1.18345e-05
4.1961e-05
-1.85043e-05
5.03571e-05
-1.66095e-05
6.17066e-05
7.20074e-06
8.33848e-05
3.1769e-05
0.000132303
2.66594e-05
0.000179218
1.52955e-05
0.000158805
-1.18638e-05
7.75226e-05
-2.0511e-05
3.27494e-05
-2.55407e-05
2.9978e-05
-2.87869e-05
2.29123e-05
-3.14226e-05
1.48096e-05
-3.46812e-05
7.94974e-06
-3.60286e-05
3.58586e-06
-3.04418e-05
2.33796e-05
-2.99398e-05
8.12975e-05
-3.33709e-05
9.39627e-05
-3.46719e-05
8.92457e-05
-3.23803e-05
7.9257e-05
-2.75549e-05
6.85985e-05
-1.43401e-05
5.14269e-05
5.59024e-06
2.4235e-05
1.14362e-05
9.62517e-06
1.13316e-05
7.27772e-06
1.07054e-05
7.0005e-06
1.01253e-05
6.82785e-06
1.01529e-05
6.30644e-06
9.9182e-06
8.29248e-06
2.29577e-05
-1.2747e-05
4.7262e-05
-2.0464e-05
4.97037e-05
-2.41568e-05
5.40773e-05
-1.98851e-05
5.74645e-05
-3.61073e-06
6.71458e-05
2.48872e-05
0.000103861
2.85345e-05
0.000175642
2.62777e-05
0.000161121
-3.00998e-06
0.000106844
-1.76206e-05
4.73721e-05
-2.28286e-05
3.51966e-05
-2.59401e-05
2.60332e-05
-2.83255e-05
1.72037e-05
-3.10259e-05
1.06593e-05
-3.43243e-05
6.89367e-06
-2.96087e-05
1.86753e-05
-2.75941e-05
7.93058e-05
-3.30677e-05
9.9463e-05
-3.41364e-05
9.03408e-05
-3.07104e-05
7.58559e-05
-1.76547e-05
5.55641e-05
1.60822e-06
3.21794e-05
1.24744e-05
1.33771e-05
1.39337e-05
8.17084e-06
1.36757e-05
7.53967e-06
1.35031e-05
7.17591e-06
1.39987e-05
6.3339e-06
1.62887e-05
4.01721e-06
1.98923e-05
4.69153e-06
4.28519e-05
-2.2446e-05
6.97382e-05
-2.71218e-05
5.44119e-05
-2.41153e-05
5.11021e-05
-1.96377e-05
5.30147e-05
-1.28513e-05
6.03875e-05
2.39254e-06
8.86606e-05
2.21247e-05
0.000155975
2.43609e-05
0.000158946
5.03616e-06
0.000126204
-9.29422e-06
6.17158e-05
-1.51251e-05
4.10368e-05
-1.89394e-05
2.98555e-05
-2.19414e-05
2.02127e-05
-2.4831e-05
1.35565e-05
-2.88873e-05
1.09592e-05
-2.94193e-05
1.92186e-05
-2.72904e-05
7.72016e-05
-3.06873e-05
0.00010289
-2.99703e-05
8.96519e-05
-1.78892e-05
6.37979e-05
1.006e-06
3.66851e-05
1.31948e-05
2.00007e-05
1.56001e-05
1.09775e-05
1.51539e-05
8.62137e-06
1.49091e-05
7.78808e-06
1.53773e-05
6.71059e-06
1.77103e-05
4.00355e-06
2.54125e-05
-3.68208e-06
2.51971e-05
4.91223e-06
6.8064e-05
-1.31477e-05
8.29267e-05
-2.35787e-05
6.4878e-05
-2.14683e-05
4.9021e-05
-1.84566e-05
5.00292e-05
-1.91238e-05
6.10818e-05
-1.69381e-05
8.65152e-05
1.10254e-05
0.000128077
2.19451e-05
0.000148093
1.70953e-05
0.000131102
5.5833e-06
7.32529e-05
-4.2099e-06
5.08456e-05
-1.13528e-05
3.701e-05
-1.67025e-05
2.55714e-05
-2.11643e-05
1.80264e-05
-2.60896e-05
1.58948e-05
-3.26271e-05
2.57698e-05
-3.04536e-05
7.5058e-05
-2.64733e-05
9.89453e-05
-1.69034e-05
8.01111e-05
4.19602e-07
4.6494e-05
1.21557e-05
2.49602e-05
1.57616e-05
1.64019e-05
1.50652e-05
1.16788e-05
1.43329e-05
9.35734e-06
1.4213e-05
7.91099e-06
1.49033e-05
6.02332e-06
1.73769e-05
1.53286e-06
2.13077e-05
-7.60883e-06
1.11391e-05
1.50883e-05
7.92173e-05
3.77853e-06
7.91872e-05
-8.01908e-06
7.67105e-05
-1.42469e-05
5.5276e-05
-1.47827e-05
5.05904e-05
-1.91607e-05
6.5492e-05
-1.6999e-05
8.4397e-05
2.87526e-06
0.000108268
2.83344e-05
0.000122719
3.78245e-05
0.000121707
2.51259e-05
8.60166e-05
5.26395e-06
7.07453e-05
-7.95888e-06
5.02576e-05
-1.68979e-05
3.45275e-05
-2.21312e-05
2.32732e-05
-2.69174e-05
2.06954e-05
-3.52722e-05
3.4145e-05
-3.20776e-05
7.19022e-05
-1.93247e-05
8.62345e-05
-2.46087e-06
6.3276e-05
9.78242e-06
3.42656e-05
1.3311e-05
2.14396e-05
1.34169e-05
1.63018e-05
1.22877e-05
1.28122e-05
1.12688e-05
1.03793e-05
1.05335e-05
8.64911e-06
9.82605e-06
6.73393e-06
8.24458e-06
3.11833e-06
2.84571e-06
-2.20513e-06
-3.04414e-06
2.09873e-05
7.6187e-05
1.28068e-05
6.64206e-05
1.19267e-05
7.76329e-05
-8.46987e-07
6.80839e-05
-5.89608e-06
5.56676e-05
-6.88925e-06
6.65239e-05
5.50735e-07
7.70057e-05
1.7201e-05
9.16849e-05
4.46131e-05
9.54225e-05
5.75963e-05
0.000108865
4.00491e-05
0.000103658
1.23688e-05
9.84833e-05
-1.15137e-05
7.41737e-05
-2.1557e-05
4.45937e-05
-2.54586e-05
2.71984e-05
-2.92405e-05
2.44991e-05
-3.60954e-05
4.10304e-05
-2.97955e-05
6.56498e-05
-1.21726e-05
6.86559e-05
4.3665e-06
4.67622e-05
1.01563e-05
2.84873e-05
1.07365e-05
2.08662e-05
1.02404e-05
1.68028e-05
9.11921e-06
1.3937e-05
7.6858e-06
1.18157e-05
5.94014e-06
1.0398e-05
3.20596e-06
9.47257e-06
-2.34081e-06
8.67165e-06
-1.22724e-05
7.73538e-06
-1.28582e-05
2.15839e-05
6.33424e-05
5.3849e-06
6.10838e-05
1.23259e-05
7.07461e-05
1.11783e-05
6.92811e-05
7.52428e-06
5.93629e-05
1.21831e-05
6.19118e-05
2.22338e-05
6.70054e-05
4.1179e-05
7.27999e-05
4.327e-05
9.34272e-05
4.13021e-05
0.000110947
2.32505e-05
0.000121792
2.23486e-07
0.000121573
-1.92847e-05
9.37279e-05
-2.55648e-05
5.09092e-05
-2.86392e-05
3.02982e-05
-3.29047e-05
2.87986e-05
-3.50578e-05
4.32285e-05
-2.47278e-05
5.53703e-05
-7.03425e-06
5.1001e-05
4.59135e-06
3.51561e-05
7.90102e-06
2.51871e-05
8.58345e-06
2.01898e-05
8.29798e-06
1.70927e-05
7.35609e-06
1.48823e-05
5.88e-06
1.3295e-05
3.8312e-06
1.2451e-05
7.81674e-07
1.25286e-05
-4.06814e-06
1.35319e-05
-1.22728e-05
1.59544e-05
-1.61611e-05
2.54875e-05
4.71971e-05
-3.1838e-07
6.14449e-05
7.02907e-06
6.34476e-05
1.41206e-05
6.22393e-05
1.4888e-05
5.86378e-05
1.55952e-05
6.12473e-05
1.57111e-05
6.69353e-05
1.8409e-05
7.01472e-05
9.17936e-06
0.000102712
-7.66242e-06
0.000127843
-2.70496e-05
0.00014123
-4.15189e-05
0.00013609
-5.25166e-05
0.000104771
-5.37144e-05
5.21491e-05
-4.42518e-05
2.08736e-05
-3.96719e-05
2.42586e-05
-3.21909e-05
3.57965e-05
-1.90916e-05
4.23149e-05
-4.19928e-06
3.61372e-05
3.89308e-06
2.70778e-05
7.06788e-06
2.202e-05
8.16668e-06
1.90961e-05
8.15163e-06
1.71116e-05
7.38313e-06
1.56541e-05
5.95886e-06
1.47228e-05
3.73612e-06
1.46786e-05
6.12315e-07
1.56607e-05
-3.3848e-06
1.75428e-05
-7.80952e-06
2.04003e-05
-9.14652e-06
2.68513e-05
3.80782e-05
4.07929e-07
6.10749e-05
3.27156e-06
6.06233e-05
6.26959e-06
5.92792e-05
2.37936e-06
6.25612e-05
-7.09476e-06
7.07534e-05
-2.15247e-05
8.13985e-05
-4.35698e-05
9.2226e-05
-5.82634e-05
0.000117445
-6.44426e-05
0.000134061
-6.39517e-05
0.000140779
-6.14808e-05
0.000133658
-5.77551e-05
0.000101081
-5.56215e-05
5.0049e-05
-4.96767e-05
1.49623e-05
-3.827e-05
1.28882e-05
-2.57418e-05
2.33046e-05
-1.17875e-05
2.83906e-05
-3.47154e-07
2.47145e-05
5.59525e-06
2.11446e-05
8.38824e-06
1.92324e-05
9.51245e-06
1.79757e-05
9.59126e-06
1.70358e-05
8.87145e-06
1.63766e-05
7.39453e-06
1.62025e-05
4.45839e-06
1.76191e-05
4.67035e-07
1.96608e-05
-3.05731e-06
2.10824e-05
-5.88359e-06
2.325e-05
-6.13396e-06
2.71356e-05
3.19868e-05
-3.3215e-06
6.44236e-05
-1.04245e-05
6.77537e-05
-2.13413e-05
7.02232e-05
-3.55391e-05
7.67866e-05
-5.00856e-05
8.53287e-05
-6.30937e-05
9.44369e-05
-7.53694e-05
0.000104534
-7.72255e-05
0.000119336
-7.35441e-05
0.000130416
-6.6115e-05
0.000133387
-5.4043e-05
0.000121623
-3.89045e-05
8.59745e-05
-2.96056e-05
4.07762e-05
-2.49671e-05
1.03459e-05
-1.95632e-05
7.50536e-06
-1.15137e-05
1.52754e-05
-1.67176e-06
1.85645e-05
5.33803e-06
1.7714e-05
9.14857e-06
1.73391e-05
1.11761e-05
1.7208e-05
1.20975e-05
1.70564e-05
1.21734e-05
1.69614e-05
1.16601e-05
1.68907e-05
9.74604e-06
1.81168e-05
5.01619e-06
2.2348e-05
-1.33181e-07
2.48126e-05
-3.88565e-06
2.4846e-05
-5.26687e-06
2.46503e-05
-4.44071e-06
2.63367e-05
2.75809e-05
-8.40529e-06
7.28531e-05
-2.00744e-05
7.94475e-05
-3.32874e-05
8.34613e-05
-4.5079e-05
8.86042e-05
-5.4807e-05
9.5084e-05
-6.27103e-05
0.000102369
-6.87149e-05
0.000110569
-6.91457e-05
0.0001198
-6.403e-05
0.000125335
-5.34537e-05
0.000122846
-3.62357e-05
0.000104438
-1.76448e-05
6.74117e-05
-6.64913e-06
2.98024e-05
-3.91736e-06
7.63067e-06
-2.04418e-06
5.64562e-06
2.32182e-06
1.09207e-05
7.62897e-06
1.3265e-05
1.11145e-05
1.42325e-05
1.3292e-05
1.51636e-05
1.46159e-05
1.5885e-05
1.52753e-05
1.63971e-05
1.53421e-05
1.68937e-05
1.43235e-05
1.79072e-05
1.06176e-05
2.18183e-05
4.81423e-06
2.81452e-05
-1.06091e-06
3.06825e-05
-4.91021e-06
2.86944e-05
-5.10035e-06
2.48459e-05
-3.71661e-06
2.49645e-05
2.38796e-05
-8.60645e-06
8.14842e-05
-1.90353e-05
8.99016e-05
-3.01166e-05
9.45685e-05
-3.97507e-05
9.8265e-05
-4.7194e-05
0.000102555
-5.26715e-05
0.000107876
-5.53515e-05
0.00011328
-5.37732e-05
0.000118253
-4.72834e-05
0.000118878
-3.52705e-05
0.000110865
-1.69359e-05
8.61335e-05
-2.86586e-07
5.07871e-05
9.23779e-06
2.02968e-05
1.03924e-05
6.49001e-06
1.0547e-05
5.50091e-06
1.23934e-05
9.08107e-06
1.46544e-05
1.10077e-05
1.6256e-05
1.26324e-05
1.74083e-05
1.40113e-05
1.82175e-05
1.50746e-05
1.86463e-05
1.59658e-05
1.85832e-05
1.69528e-05
1.63245e-05
2.01601e-05
1.30451e-05
2.50879e-05
9.89967e-06
3.12798e-05
5.73609e-06
3.48357e-05
3.01313e-07
3.41184e-05
-3.08637e-06
2.82234e-05
-2.68863e-06
2.45593e-05
2.11856e-05
-7.64338e-06
8.91531e-05
-1.57825e-05
9.8067e-05
-2.4489e-05
0.000103302
-3.17319e-05
0.000105536
-3.68786e-05
0.00010773
-3.9871e-05
0.000110897
-3.99181e-05
0.000113357
-3.64642e-05
0.00011483
-3.00092e-05
0.000112454
-1.81451e-05
9.90317e-05
-1.13438e-06
6.91496e-05
1.31783e-05
3.64962e-05
2.00776e-05
1.34141e-05
2.03593e-05
6.22061e-06
1.92677e-05
6.60056e-06
1.97116e-05
8.64158e-06
2.02911e-05
1.04299e-05
2.08464e-05
1.20768e-05
2.13723e-05
1.34836e-05
2.17712e-05
1.46721e-05
2.18153e-05
1.59161e-05
2.09811e-05
1.77788e-05
1.9209e-05
2.19202e-05
1.78958e-05
2.6387e-05
1.68083e-05
3.2352e-05
1.63082e-05
3.53199e-05
1.362e-05
3.67897e-05
5.85124e-06
3.59726e-05
1.17389e-07
3.02717e-05
2.12812e-05
-6.88769e-06
9.60672e-05
-1.33554e-05
0.000104562
-1.92138e-05
0.000109188
-2.37313e-05
0.000110081
-2.62564e-05
0.000110284
-2.66989e-05
0.000111369
-2.48758e-05
0.000111563
-2.12108e-05
0.000111195
-1.50359e-05
0.000106309
-2.91288e-06
8.69367e-05
1.23916e-05
5.38693e-05
2.43538e-05
2.45533e-05
2.79217e-05
9.86127e-06
2.71566e-05
6.99672e-06
2.57397e-05
8.02408e-06
2.51975e-05
9.18717e-06
2.49058e-05
1.07224e-05
2.48656e-05
1.21155e-05
2.50486e-05
1.3297e-05
2.52643e-05
1.44503e-05
2.5254e-05
1.59172e-05
2.45377e-05
1.84821e-05
2.30741e-05
2.33673e-05
2.0716e-05
2.87269e-05
2.00998e-05
3.29502e-05
1.92595e-05
3.6141e-05
1.74255e-05
3.86027e-05
1.35015e-05
3.98742e-05
5.01217e-06
3.87334e-05
2.62625e-05
-5.99748e-06
0.000102092
-1.11596e-05
0.000109752
-1.47069e-05
0.000112764
-1.68031e-05
0.000112206
-1.72406e-05
0.00011075
-1.56319e-05
0.000109789
-1.27724e-05
0.000108733
-9.18973e-06
0.000107641
-2.08589e-06
9.92334e-05
1.06882e-05
7.41886e-05
2.39011e-05
4.06781e-05
3.23658e-05
1.61059e-05
3.33758e-05
8.86495e-06
3.16676e-05
8.71488e-06
3.04278e-05
9.27003e-06
2.92754e-05
1.03427e-05
2.84288e-05
1.15691e-05
2.78954e-05
1.26463e-05
2.76177e-05
1.35695e-05
2.7323e-05
1.47367e-05
2.64877e-05
1.67403e-05
2.47391e-05
2.02145e-05
2.2666e-05
2.5422e-05
2.0972e-05
3.04024e-05
1.91265e-05
3.47787e-05
1.67199e-05
3.85306e-05
1.42689e-05
4.10351e-05
1.26067e-05
4.15135e-05
8.90688e-06
4.24028e-05
3.51373e-05
-5.06287e-06
0.000107183
-8.95177e-06
0.00011367
-1.09351e-05
0.000114776
-1.13823e-05
0.000112682
-1.04754e-05
0.000109872
-7.35869e-06
0.000106701
-3.86506e-06
0.000105268
3.63169e-07
0.000103442
9.16402e-06
9.04598e-05
2.22163e-05
6.11603e-05
3.38007e-05
2.91132e-05
3.81413e-05
1.1781e-05
3.71982e-05
9.82083e-06
3.55018e-05
1.04208e-05
3.3863e-05
1.09154e-05
3.22469e-05
1.19618e-05
3.08041e-05
1.30116e-05
2.95184e-05
1.39285e-05
2.83871e-05
1.46941e-05
2.7185e-05
1.59291e-05
2.5505e-05
1.84072e-05
2.34772e-05
2.22261e-05
2.16855e-05
2.71967e-05
1.96223e-05
3.24496e-05
1.67657e-05
3.76202e-05
1.32865e-05
4.19962e-05
9.58636e-06
4.47221e-05
5.79007e-06
4.52944e-05
4.2574e-06
4.39189e-05
3.93588e-05
-4.1444e-06
0.000111356
-6.8902e-06
0.000116445
-7.7769e-06
0.000115692
-7.08461e-06
0.000112019
-5.29106e-06
0.000108107
-1.22065e-06
0.000102659
2.69115e-06
0.000101384
8.55925e-06
9.76014e-05
1.92143e-05
7.98308e-05
3.22763e-05
4.81203e-05
4.16531e-05
1.97541e-05
4.21993e-05
1.12493e-05
4.01871e-05
1.18461e-05
3.86246e-05
1.19939e-05
3.66469e-05
1.29003e-05
3.45977e-05
1.40143e-05
3.24885e-05
1.51203e-05
3.03262e-05
1.60869e-05
2.83793e-05
1.66338e-05
2.6346e-05
1.79527e-05
2.41945e-05
2.05472e-05
2.19575e-05
2.44497e-05
2.01944e-05
2.89452e-05
1.80499e-05
3.45801e-05
1.47148e-05
4.09434e-05
1.07054e-05
4.59968e-05
6.66154e-06
4.87591e-05
2.64295e-06
4.93057e-05
4.70025e-09
4.65476e-05
3.93392e-05
-3.26773e-06
0.000114653
-4.96441e-06
0.000118171
-4.90465e-06
0.000115662
-3.30226e-06
0.000110446
-6.17587e-07
0.000105452
3.83612e-06
9.82332e-05
8.6477e-06
9.66003e-05
1.64367e-05
8.98396e-05
2.83894e-05
6.79026e-05
4.16396e-05
3.48901e-05
4.64099e-05
1.50002e-05
4.47573e-05
1.29173e-05
4.33753e-05
1.32423e-05
4.14576e-05
1.39242e-05
3.92863e-05
1.50802e-05
3.69334e-05
1.63716e-05
3.42405e-05
1.78134e-05
3.09966e-05
1.93271e-05
2.80474e-05
1.95764e-05
2.48077e-05
2.11848e-05
2.20253e-05
2.33219e-05
1.97215e-05
2.67458e-05
1.83404e-05
3.03154e-05
1.68627e-05
3.6045e-05
1.36454e-05
4.4149e-05
9.35215e-06
5.0284e-05
6.00661e-06
5.21035e-05
2.91503e-06
5.23975e-05
5.21671e-07
4.89379e-05
3.98511e-05
-2.27733e-06
0.00011696
-2.93093e-06
0.000118855
-1.92721e-06
0.000114689
4.62166e-07
0.000108086
4.08456e-06
0.000101858
8.5408e-06
9.38049e-05
1.44248e-05
9.07437e-05
2.33789e-05
8.09117e-05
3.7653e-05
5.36511e-05
4.86013e-05
2.39603e-05
4.91963e-05
1.4422e-05
4.76584e-05
1.44729e-05
4.61828e-05
1.4736e-05
4.42427e-05
1.58793e-05
4.2098e-05
1.72356e-05
3.96637e-05
1.88121e-05
3.64542e-05
2.10242e-05
3.12409e-05
2.45373e-05
2.67476e-05
2.40648e-05
2.18241e-05
2.61052e-05
1.82658e-05
2.68792e-05
1.63214e-05
2.86886e-05
1.56094e-05
3.10206e-05
1.54395e-05
3.62041e-05
1.39198e-05
4.56555e-05
1.135e-05
5.28442e-05
8.46653e-06
5.49887e-05
6.00342e-06
5.48665e-05
3.42974e-06
5.15164e-05
4.32749e-05
-9.9705e-07
0.000117988
-5.39043e-07
0.000118428
1.50112e-06
0.000112679
4.60035e-06
0.000105017
9.3802e-06
9.71067e-05
1.35039e-05
8.97087e-05
1.98382e-05
8.44363e-05
3.17422e-05
6.90325e-05
4.69406e-05
3.84735e-05
5.22938e-05
1.86252e-05
5.11509e-05
1.55851e-05
5.03401e-05
1.53058e-05
4.88821e-05
1.62154e-05
4.71841e-05
1.75949e-05
4.5186e-05
1.92468e-05
4.24664e-05
2.1539e-05
3.76927e-05
2.57978e-05
3.32836e-05
2.89411e-05
2.69238e-05
3.04208e-05
1.93768e-05
3.36552e-05
1.51264e-05
3.1135e-05
1.31474e-05
3.06708e-05
1.25188e-05
3.16446e-05
1.27134e-05
3.59976e-05
1.3188e-05
4.51692e-05
1.52405e-05
5.07787e-05
1.4782e-05
5.544e-05
1.45128e-05
5.5132e-05
9.56818e-06
5.64669e-05
5.28675e-05
6.65082e-07
0.000117354
2.24962e-06
0.000116875
5.50611e-06
0.000109453
9.04137e-06
0.00010151
1.4615e-05
9.15612e-05
2.0232e-05
8.41187e-05
2.78778e-05
7.68168e-05
4.1821e-05
5.51127e-05
5.26053e-05
2.77091e-05
5.3833e-05
1.74186e-05
5.35006e-05
1.59421e-05
5.26338e-05
1.61993e-05
5.14888e-05
1.73846e-05
5.01867e-05
1.89171e-05
4.84358e-05
2.10121e-05
4.46822e-05
2.5299e-05
4.07952e-05
2.9682e-05
3.66504e-05
3.30804e-05
2.71741e-05