/*--------------------------------*- C++ -*----------------------------------*\
| =========                 |                                                 |
| \\      /  F ield         | OpenFOAM: The Open Source CFD Toolbox           |
|  \\    /   O peration     | Version:  2.3.0                                 |
|   \\  /    A nd           | Web:      www.OpenFOAM.org                      |
|    \\/     M anipulation  |                                                 |
\*---------------------------------------------------------------------------*/
FoamFile
{
    version     2.0;
    format      ascii;
    class       volScalarField;
    location    "1.89";
    object      pMean;
}
// * * * * * * * * * * * * * * * * * * * * * * * * * * * * * * * * * * * * * //

dimensions      [1 -1 -2 0 0 0 0];

internalField   nonuniform List<scalar> 
6000
(
106289
106289
106288
106287
106286
106286
106286
106286
106286
106287
106287
106286
106286
106286
106287
106291
106293
106295
106297
106298
106298
106299
106300
106301
106301
106302
106303
106304
106304
106305
106219
106218
106217
106215
106215
106215
106215
106214
106214
106215
106214
106213
106212
106212
106214
106217
106220
106222
106223
106224
106225
106225
106226
106226
106227
106229
106231
106232
106233
106235
106168
106168
106166
106166
106167
106167
106167
106167
106167
106167
106166
106164
106163
106163
106165
106168
106171
106173
106174
106175
106175
106174
106174
106174
106177
106179
106182
106183
106183
106184
106114
106113
106112
106113
106115
106115
106115
106116
106117
106117
106116
106114
106112
106112
106113
106116
106119
106121
106122
106122
106121
106120
106119
106120
106123
106125
106127
106128
106128
106129
106061
106060
106060
106061
106062
106063
106064
106065
106066
106066
106066
106064
106062
106062
106063
106065
106068
106070
106070
106070
106068
106067
106066
106066
106068
106070
106072
106073
106072
106073
106008
106008
106008
106008
106010
106012
106013
106015
106016
106016
106016
106015
106015
106016
106016
106017
106018
106018
106018
106017
106016
106015
106013
106012
106013
106014
106015
106016
106016
106018
105955
105955
105955
105956
105958
105961
105964
105965
105966
105967
105967
105968
105969
105970
105971
105970
105967
105966
105966
105965
105964
105962
105960
105959
105958
105958
105959
105960
105962
105964
105903
105903
105902
105904
105907
105912
105915
105917
105918
105918
105919
105921
105923
105924
105924
105921
105918
105916
105914
105913
105912
105911
105908
105907
105906
105905
105906
105907
105910
105912
105851
105850
105850
105852
105858
105864
105868
105870
105871
105871
105872
105875
105877
105877
105875
105871
105868
105866
105864
105863
105862
105860
105858
105857
105855
105855
105855
105857
105861
105863
105800
105799
105799
105803
105809
105815
105821
105824
105825
105824
105825
105828
105829
105828
105825
105822
105819
105817
105816
105815
105814
105812
105811
105809
105807
105807
105808
105811
105815
105817
105751
105750
105751
105755
105760
105767
105774
105778
105778
105777
105778
105780
105780
105779
105777
105774
105772
105771
105769
105768
105767
105765
105763
105762
105761
105760
105763
105766
105771
105773
105703
105703
105704
105708
105713
105719
105726
105731
105732
105731
105730
105731
105731
105731
105730
105728
105727
105725
105724
105722
105720
105718
105716
105715
105714
105715
105718
105722
105727
105730
105658
105658
105659
105662
105666
105672
105679
105684
105686
105685
105683
105682
105683
105684
105684
105683
105682
105680
105677
105676
105674
105671
105669
105667
105667
105669
105673
105677
105683
105686
105614
105614
105615
105617
105621
105626
105632
105636
105640
105639
105637
105635
105636
105637
105638
105638
105636
105634
105631
105629
105626
105623
105620
105618
105619
105622
105626
105632
105637
105640
105570
105570
105571
105573
105576
105581
105585
105589
105593
105593
105591
105589
105589
105591
105592
105592
105590
105587
105584
105581
105577
105573
105569
105567
105569
105573
105578
105584
105588
105591
105527
105527
105528
105530
105532
105535
105539
105542
105545
105546
105545
105543
105543
105544
105545
105544
105543
105540
105537
105533
105529
105524
105520
105519
105520
105524
105529
105533
105537
105539
105484
105484
105485
105487
105489
105491
105493
105496
105498
105498
105498
105496
105496
105497
105497
105497
105496
105494
105490
105486
105482
105477
105474
105473
105474
105477
105481
105484
105487
105488
105441
105442
105443
105445
105446
105448
105449
105450
105451
105451
105450
105449
105449
105450
105449
105449
105448
105447
105444
105439
105435
105431
105429
105428
105429
105431
105434
105437
105438
105440
105399
105399
105401
105403
105403
105404
105405
105405
105405
105405
105404
105403
105402
105402
105402
105401
105400
105399
105396
105392
105388
105385
105384
105384
105384
105386
105388
105390
105391
105392
105356
105357
105358
105359
105360
105360
105360
105360
105358
105358
105358
105357
105357
105356
105354
105353
105352
105351
105348
105345
105342
105340
105339
105339
105340
105341
105342
105344
105345
105346
105313
105314
105315
105316
105316
105316
105316
105315
105313
105312
105313
105312
105312
105310
105308
105306
105303
105302
105300
105298
105296
105296
105295
105295
105296
105296
105298
105300
105301
105301
105270
105270
105271
105272
105272
105272
105271
105270
105268
105268
105268
105268
105267
105265
105262
105259
105256
105255
105254
105252
105251
105251
105252
105252
105252
105253
105254
105256
105257
105258
105227
105227
105227
105228
105229
105228
105227
105225
105224
105223
105223
105223
105222
105221
105217
105213
105211
105210
105208
105206
105206
105206
105207
105208
105208
105209
105211
105213
105214
105214
105183
105183
105183
105184
105185
105185
105183
105181
105180
105179
105178
105178
105178
105176
105172
105169
105167
105165
105162
105160
105159
105160
105161
105163
105164
105165
105167
105169
105169
105169
105139
105139
105139
105140
105141
105140
105138
105136
105135
105134
105134
105134
105133
105131
105128
105125
105122
105119
105116
105113
105112
105112
105113
105116
105118
105120
105122
105123
105123
105122
105096
105095
105095
105096
105096
105094
105092
105091
105090
105090
105090
105090
105089
105087
105084
105082
105078
105074
105069
105066
105065
105065
105066
105068
105070
105073
105075
105076
105075
105074
105052
105051
105051
105051
105050
105048
105047
105046
105046
105046
105047
105047
105046
105043
105040
105037
105033
105029
105025
105022
105020
105020
105020
105022
105023
105025
105027
105028
105027
105026
105007
105006
105006
105005
105004
105003
105002
105001
105002
105003
105004
105004
105002
104999
104996
104993
104989
104985
104982
104978
104976
104975
104976
104976
104977
104978
104980
104981
104981
104980
104962
104961
104960
104959
104958
104957
104956
104957
104957
104959
104960
104960
104959
104956
104952
104949
104946
104943
104939
104935
104932
104931
104931
104930
104930
104931
104932
104933
104934
104934
104916
104914
104913
104911
104911
104911
104911
104911
104913
104914
104915
104916
104915
104912
104908
104906
104903
104901
104897
104892
104889
104887
104886
104884
104883
104883
104884
104884
104885
104885
104868
104866
104864
104863
104863
104864
104864
104865
104867
104869
104871
104872
104871
104868
104865
104862
104860
104858
104854
104849
104845
104842
104840
104838
104837
104836
104835
104835
104835
104835
104819
104817
104815
104814
104814
104815
104816
104817
104820
104824
104826
104827
104826
104823
104820
104818
104816
104814
104810
104804
104800
104797
104794
104792
104791
104789
104788
104787
104786
104786
104769
104768
104766
104765
104765
104766
104767
104769
104773
104777
104780
104782
104781
104778
104775
104773
104771
104768
104763
104758
104754
104751
104749
104746
104745
104744
104742
104740
104738
104738
104719
104718
104717
104716
104717
104718
104719
104721
104725
104729
104733
104736
104735
104733
104729
104726
104724
104720
104716
104712
104708
104705
104703
104701
104701
104700
104698
104695
104692
104691
104669
104668
104669
104669
104670
104672
104673
104675
104677
104681
104685
104688
104688
104686
104683
104679
104676
104672
104668
104664
104662
104660
104658
104657
104657
104656
104654
104650
104647
104647
104621
104621
104622
104624
104625
104627
104629
104630
104631
104633
104636
104639
104639
104638
104635
104631
104628
104624
104620
104617
104616
104614
104613
104614
104615
104613
104610
104606
104604
104603
104574
104575
104576
104578
104581
104583
104585
104585
104585
104585
104587
104588
104589
104588
104586
104583
104580
104576
104573
104571
104570
104569
104570
104572
104572
104570
104566
104562
104560
104560
104529
104530
104531
104533
104536
104539
104540
104540
104538
104538
104538
104539
104539
104538
104536
104534
104532
104529
104527
104525
104525
104526
104528
104529
104529
104525
104521
104518
104517
104517
104485
104486
104487
104488
104490
104493
104494
104493
104492
104490
104489
104489
104489
104488
104486
104485
104484
104482
104481
104480
104481
104483
104486
104487
104485
104481
104477
104475
104475
104475
104441
104441
104441
104441
104443
104445
104447
104446
104444
104442
104441
104441
104440
104440
104438
104437
104436
104436
104436
104436
104438
104441
104444
104444
104442
104438
104435
104434
104433
104434
104395
104395
104394
104394
104395
104396
104398
104398
104396
104394
104393
104392
104392
104391
104390
104389
104389
104390
104391
104393
104395
104399
104401
104402
104399
104397
104395
104394
104393
104394
104348
104347
104346
104346
104346
104348
104349
104349
104347
104346
104345
104345
104344
104344
104343
104342
104343
104344
104347
104349
104352
104356
104359
104359
104358
104356
104355
104354
104354
104354
104300
104299
104298
104298
104299
104300
104301
104300
104299
104297
104297
104297
104296
104296
104296
104296
104297
104299
104302
104305
104309
104313
104316
104317
104317
104316
104315
104314
104314
104314
104252
104251
104251
104251
104253
104254
104255
104253
104252
104250
104249
104249
104249
104249
104249
104250
104251
104254
104257
104261
104265
104269
104272
104274
104275
104275
104275
104274
104274
104273
104205
104204
104205
104206
104208
104209
104209
104207
104205
104203
104202
104202
104201
104202
104203
104204
104206
104209
104212
104216
104221
104225
104228
104231
104232
104233
104233
104233
104232
104232
104160
104160
104161
104162
104164
104164
104163
104162
104160
104157
104156
104155
104155
104155
104157
104158
104161
104163
104167
104171
104176
104179
104182
104185
104187
104189
104189
104189
104189
104190
104116
104116
104118
104119
104119
104119
104118
104116
104114
104112
104110
104109
104109
104109
104111
104113
104116
104118
104122
104125
104129
104132
104135
104139
104141
104143
104144
104145
104146
104147
104073
104074
104075
104075
104075
104074
104073
104071
104068
104066
104063
104062
104062
104063
104065
104068
104071
104074
104077
104080
104083
104086
104088
104091
104094
104096
104098
104100
104101
104101
104030
104031
104031
104031
104030
104028
104026
104024
104021
104018
104015
104014
104015
104016
104019
104023
104027
104030
104033
104036
104038
104040
104042
104044
104046
104049
104052
104054
104054
104054
103987
103987
103987
103985
103984
103981
103979
103975
103971
103968
103966
103965
103966
103969
103973
103978
103982
103986
103990
103993
103995
103996
103997
103998
103999
104001
104004
104006
104007
104006
103943
103942
103940
103938
103936
103933
103929
103924
103920
103917
103916
103916
103918
103921
103926
103932
103937
103942
103947
103950
103951
103951
103952
103952
103952
103953
103956
103958
103958
103958
103895
103894
103892
103890
103887
103883
103879
103873
103868
103866
103866
103868
103870
103874
103879
103885
103892
103898
103903
103906
103907
103906
103906
103906
103905
103906
103907
103909
103910
103910
103845
103843
103841
103839
103836
103833
103828
103822
103817
103816
103817
103820
103824
103827
103831
103838
103845
103853
103859
103862
103861
103860
103859
103859
103859
103859
103860
103861
103861
103861
103794
103792
103790
103788
103787
103784
103780
103774
103770
103769
103771
103774
103777
103780
103784
103790
103797
103806
103812
103815
103815
103813
103812
103812
103812
103812
103812
103812
103812
103812
103744
103742
103741
103740
103739
103737
103733
103729
103726
103726
103727
103729
103731
103734
103737
103743
103750
103756
103763
103767
103767
103766
103765
103765
103765
103765
103764
103764
103763
103763
103696
103695
103695
103694
103693
103692
103689
103687
103686
103685
103685
103686
103687
103689
103692
103697
103702
103707
103713
103717
103719
103718
103718
103718
103718
103718
103717
103716
103715
103715
103651
103651
103650
103650
103650
103649
103648
103647
103646
103645
103644
103644
103644
103645
103648
103652
103655
103659
103664
103669
103671
103672
103672
103672
103672
103671
103670
103668
103667
103667
103609
103608
103608
103608
103608
103608
103608
103607
103606
103605
103604
103603
103603
103604
103606
103608
103610
103613
103617
103622
103625
103627
103627
103627
103627
103625
103623
103621
103620
103620
103568
103568
103567
103567
103567
103568
103568
103567
103566
103564
103564
103563
103563
103563
103564
103565
103567
103570
103574
103578
103581
103583
103584
103583
103582
103580
103577
103574
103574
103574
103528
103527
103526
103526
103526
103527
103527
103526
103525
103524
103523
103523
103523
103523
103523
103524
103526
103529
103533
103536
103539
103541
103541
103540
103538
103535
103531
103529
103528
103529
103486
103485
103484
103484
103484
103485
103485
103485
103485
103484
103483
103483
103482
103482
103483
103484
103486
103489
103492
103494
103497
103499
103499
103498
103495
103492
103488
103485
103484
103485
103442
103442
103441
103441
103441
103442
103443
103443
103443
103443
103442
103442
103442
103443
103443
103444
103446
103448
103451
103453
103455
103458
103457
103455
103452
103449
103445
103443
103442
103443
103398
103398
103397
103397
103398
103399
103401
103402
103403
103402
103401
103401
103402
103403
103404
103405
103407
103408
103410
103412
103414
103415
103415
103412
103409
103406
103403
103402
103401
103400
103352
103353
103353
103354
103355
103357
103360
103361
103362
103362
103361
103360
103361
103362
103364
103366
103368
103369
103370
103372
103373
103373
103372
103369
103365
103361
103358
103358
103357
103357
103308
103308
103309
103311
103313
103315
103318
103320
103321
103321
103320
103320
103320
103322
103324
103326
103328
103329
103331
103332
103333
103332
103329
103325
103320
103315
103312
103311
103311
103311
103265
103265
103266
103268
103271
103273
103276
103278
103279
103279
103278
103278
103278
103280
103282
103285
103287
103289
103291
103292
103293
103290
103285
103280
103274
103269
103266
103264
103263
103263
103223
103223
103224
103226
103228
103230
103233
103234
103235
103236
103236
103235
103235
103236
103239
103242
103245
103248
103250
103251
103250
103247
103241
103235
103229
103224
103220
103218
103217
103217
103182
103181
103182
103183
103184
103186
103188
103189
103190
103190
103191
103191
103190
103191
103194
103198
103202
103205
103207
103208
103206
103202
103196
103189
103184
103179
103175
103173
103171
103171
103140
103139
103139
103139
103140
103141
103142
103142
103143
103143
103144
103144
103145
103146
103148
103152
103157
103160
103162
103162
103159
103155
103150
103144
103138
103134
103130
103128
103126
103126
103097
103096
103096
103095
103095
103095
103096
103096
103095
103096
103096
103096
103097
103099
103101
103105
103110
103114
103115
103114
103111
103106
103102
103097
103093
103089
103085
103082
103080
103080
103054
103053
103052
103051
103050
103050
103049
103048
103047
103047
103047
103047
103048
103050
103053
103057
103062
103065
103066
103064
103061
103056
103053
103049
103047
103043
103040
103036
103033
103032
103009
103009
103008
103007
103006
103005
103003
103001
102999
102997
102997
102997
102998
103001
103005
103009
103013
103016
103016
103014
103010
103006
103004
103002
103000
102997
102993
102989
102985
102984
102963
102963
102963
102962
102961
102960
102958
102955
102951
102948
102946
102947
102949
102952
102956
102960
102964
102966
102965
102963
102959
102956
102955
102954
102953
102950
102946
102942
102937
102936
102915
102916
102916
102916
102916
102915
102913
102909
102904
102900
102899
102899
102901
102905
102909
102913
102915
102916
102915
102912
102908
102906
102906
102906
102905
102903
102899
102894
102890
102888
102868
102869
102869
102869
102870
102869
102866
102862
102858
102855
102854
102855
102856
102860
102863
102866
102868
102868
102866
102862
102857
102855
102855
102856
102856
102854
102851
102847
102843
102841
102821
102822
102822
102823
102823
102822
102819
102816
102813
102812
102811
102812
102813
102816
102819
102821
102821
102820
102817
102812
102806
102803
102803
102805
102806
102805
102803
102799
102796
102794
102774
102774
102775
102775
102775
102774
102772
102770
102769
102768
102769
102769
102771
102773
102775
102777
102776
102773
102768
102762
102754
102750
102751
102753
102755
102755
102753
102751
102749
102748
102728
102728
102729
102728
102728
102728
102727
102726
102726
102726
102726
102728
102729
102731
102733
102733
102731
102727
102720
102712
102705
102701
102700
102702
102704
102704
102703
102703
102702
102700
102683
102683
102683
102683
102683
102683
102683
102683
102683
102684
102685
102686
102688
102689
102690
102689
102686
102681
102673
102665
102660
102656
102654
102654
102654
102654
102654
102653
102653
102652
102639
102639
102639
102639
102638
102638
102639
102640
102641
102643
102644
102645
102646
102647
102647
102645
102641
102635
102628
102621
102616
102613
102610
102607
102606
102606
102605
102604
102603
102603
102595
102595
102595
102595
102595
102595
102595
102597
102599
102601
102602
102603
102603
102603
102602
102599
102595
102590
102583
102577
102572
102569
102565
102561
102559
102558
102557
102555
102554
102554
102551
102551
102551
102551
102551
102551
102551
102553
102556
102558
102559
102558
102558
102558
102556
102553
102549
102543
102537
102531
102527
102524
102520
102516
102513
102511
102510
102508
102507
102506
102507
102506
102506
102507
102508
102508
102508
102510
102512
102513
102514
102514
102514
102513
102511
102507
102502
102496
102490
102485
102481
102477
102473
102469
102465
102463
102462
102461
102459
102458
102462
102461
102461
102462
102463
102464
102465
102466
102468
102468
102469
102469
102468
102468
102465
102460
102454
102448
102442
102437
102433
102429
102425
102421
102417
102414
102412
102411
102410
102409
102416
102416
102417
102418
102419
102420
102421
102423
102424
102424
102423
102423
102423
102421
102418
102411
102404
102399
102393
102388
102383
102379
102374
102370
102367
102365
102362
102360
102359
102358
102372
102372
102373
102373
102374
102374
102376
102378
102379
102378
102378
102377
102376
102373
102368
102361
102354
102348
102343
102337
102332
102327
102324
102321
102318
102316
102313
102310
102308
102307
102327
102327
102328
102328
102328
102329
102330
102331
102333
102333
102332
102331
102329
102324
102318
102310
102302
102296
102291
102285
102281
102277
102275
102273
102271
102268
102265
102262
102260
102258
102281
102282
102282
102283
102282
102282
102283
102285
102287
102287
102286
102285
102281
102276
102268
102260
102250
102242
102237
102234
102230
102229
102228
102226
102224
102221
102218
102214
102212
102210
102235
102236
102236
102236
102235
102235
102237
102239
102241
102241
102240
102237
102233
102227
102219
102210
102200
102192
102186
102183
102182
102182
102182
102180
102177
102174
102170
102167
102164
102163
102188
102188
102188
102188
102187
102188
102190
102192
102194
102194
102193
102189
102184
102177
102169
102160
102150
102143
102138
102136
102137
102138
102137
102134
102131
102127
102123
102120
102118
102116
102140
102140
102139
102139
102139
102141
102143
102146
102147
102147
102145
102141
102134
102127
102118
102109
102101
102095
102092
102092
102093
102093
102092
102089
102085
102081
102077
102074
102072
102071
102091
102091
102091
102091
102092
102095
102098
102099
102100
102099
102096
102091
102084
102076
102068
102060
102053
102049
102047
102047
102048
102048
102046
102042
102038
102033
102030
102028
102027
102027
102043
102043
102043
102043
102046
102049
102052
102053
102053
102051
102047
102041
102034
102026
102018
102011
102006
102003
102002
102002
102002
102001
101999
101995
101990
101986
101983
101981
101981
101982
101996
101995
101995
101996
101999
102003
102005
102006
102005
102003
101998
101991
101984
101977
101969
101963
101958
101956
101956
101955
101955
101953
101950
101946
101942
101938
101936
101935
101935
101936
101949
101948
101948
101949
101952
101955
101958
101958
101957
101954
101948
101941
101934
101927
101920
101914
101911
101909
101909
101908
101907
101905
101902
101898
101894
101891
101888
101888
101888
101889
101902
101901
101900
101901
101904
101907
101909
101910
101909
101905
101899
101891
101883
101876
101869
101864
101862
101861
101861
101861
101859
101857
101854
101850
101847
101843
101841
101840
101841
101841
101854
101853
101853
101854
101856
101859
101861
101862
101860
101856
101850
101842
101834
101825
101818
101814
101813
101813
101814
101813
101812
101809
101806
101803
101800
101796
101793
101792
101792
101792
101806
101805
101805
101806
101809
101811
101813
101814
101812
101808
101802
101795
101786
101776
101769
101765
101764
101764
101766
101766
101765
101762
101759
101756
101752
101749
101745
101743
101741
101740
101758
101757
101758
101760
101762
101764
101766
101766
101765
101761
101755
101748
101739
101730
101722
101717
101715
101716
101718
101719
101718
101715
101712
101709
101705
101701
101696
101692
101690
101688
101711
101711
101713
101715
101717
101719
101720
101721
101720
101716
101711
101703
101694
101686
101678
101673
101670
101670
101672
101673
101672
101670
101666
101662
101657
101653
101647
101643
101639
101636
101666
101667
101669
101672
101674
101676
101677
101678
101676
101673
101668
101660
101652
101644
101637
101632
101628
101627
101628
101628
101627
101624
101620
101616
101611
101606
101600
101595
101590
101587
101622
101624
101626
101629
101632
101634
101635
101635
101633
101630
101624
101618
101610
101603
101597
101592
101589
101586
101584
101584
101581
101578
101574
101569
101564
101559
101553
101547
101543
101540
101578
101579
101582
101586
101589
101591
101592
101591
101589
101586
101581
101575
101568
101562
101557
101553
101549
101545
101542
101539
101536
101532
101527
101523
101518
101512
101506
101500
101497
101495
101533
101534
101537
101541
101545
101547
101548
101547
101545
101542
101537
101531
101525
101520
101516
101513
101509
101504
101500
101495
101490
101486
101481
101477
101471
101465
101458
101454
101452
101451
101487
101488
101491
101495
101498
101501
101503
101502
101501
101497
101493
101487
101481
101477
101474
101470
101466
101462
101457
101451
101445
101440
101435
101430
101425
101418
101413
101409
101408
101408
101441
101442
101445
101448
101451
101454
101455
101456
101455
101452
101447
101441
101436
101431
101428
101426
101421
101417
101412
101406
101399
101394
101390
101385
101379
101374
101369
101367
101365
101364
101394
101395
101398
101400
101403
101405
101407
101409
101408
101405
101400
101394
101388
101384
101381
101378
101374
101369
101364
101359
101353
101348
101344
101340
101335
101330
101327
101325
101323
101322
101347
101348
101350
101352
101355
101357
101358
101360
101359
101356
101351
101345
101340
101336
101333
101329
101324
101319
101315
101310
101306
101302
101298
101295
101291
101288
101285
101283
101281
101280
101301
101301
101302
101304
101307
101308
101309
101309
101308
101305
101301
101297
101293
101289
101285
101280
101275
101270
101265
101261
101258
101255
101252
101249
101247
101245
101243
101241
101240
101239
101255
101254
101255
101256
101257
101258
101257
101256
101256
101254
101252
101249
101247
101244
101239
101233
101227
101222
101217
101213
101210
101208
101206
101203
101201
101200
101200
101199
101198
101198
101208
101207
101207
101207
101207
101206
101205
101204
101205
101205
101204
101203
101202
101199
101193
101187
101182
101176
101171
101167
101164
101161
101159
101157
101155
101154
101155
101155
101155
101156
101161
101160
101159
101158
101157
101156
101155
101155
101157
101158
101158
101158
101157
101154
101149
101143
101137
101131
101126
101121
101118
101115
101114
101112
101110
101108
101109
101110
101111
101112
101112
101111
101111
101109
101109
101108
101108
101110
101111
101113
101114
101115
101113
101109
101104
101099
101093
101087
101081
101077
101073
101071
101070
101068
101067
101065
101064
101064
101065
101067
101064
101063
101063
101062
101062
101064
101065
101066
101068
101070
101071
101071
101069
101065
101060
101054
101049
101043
101038
101034
101031
101029
101028
101027
101026
101024
101022
101021
101021
101022
101016
101016
101016
101017
101018
101021
101023
101024
101026
101028
101028
101027
101025
101020
101015
101010
101005
101000
100996
100993
100990
100988
100987
100987
100986
100984
100982
100981
100980
100980
100970
100972
100972
100973
100976
100980
100982
100984
100985
100986
100985
100983
100980
100976
100971
100966
100962
100959
100956
100953
100950
100948
100947
100947
100946
100945
100943
100941
100940
100939
100929
100929
100930
100931
100935
100939
100942
100944
100945
100944
100942
100939
100935
100931
100926
100922
100919
100917
100915
100913
100910
100908
100907
100906
100906
100905
100903
100901
100899
100898
100888
100889
100889
100891
100895
100899
100902
100904
100904
100902
100899
100895
100891
100886
100882
100879
100877
100875
100873
100871
100868
100866
100865
100864
100863
100862
100861
100860
100858
100856
100848
100848
100849
100851
100855
100859
100862
100863
100862
100860
100856
100851
100846
100843
100839
100836
100834
100832
100829
100827
100825
100823
100821
100819
100818
100818
100817
100816
100814
100813
100808
100808
100809
100811
100814
100818
100821
100822
100820
100817
100812
100807
100803
100800
100797
100794
100791
100787
100784
100782
100780
100778
100776
100775
100774
100773
100772
100771
100770
100770
100767
100768
100769
100770
100772
100776
100779
100779
100777
100773
100768
100763
100760
100757
100754
100751
100747
100743
100740
100737
100736
100734
100732
100730
100729
100729
100728
100727
100726
100727
100727
100728
100728
100729
100730
100733
100735
100735
100733
100728
100724
100720
100718
100715
100712
100708
100703
100699
100696
100694
100693
100691
100689
100687
100686
100686
100686
100685
100685
100685
100689
100688
100688
100688
100689
100690
100692
100691
100688
100684
100681
100678
100675
100672
100669
100665
100660
100657
100654
100653
100652
100650
100648
100646
100645
100645
100645
100645
100645
100645
100651
100650
100649
100648
100648
100648
100649
100648
100645
100642
100639
100637
100634
100631
100627
100623
100620
100617
100615
100615
100614
100612
100610
100608
100606
100606
100605
100606
100606
100607
100613
100612
100611
100610
100608
100608
100607
100606
100603
100601
100599
100596
100593
100590
100587
100584
100581
100580
100579
100579
100578
100577
100574
100571
100569
100568
100568
100568
100568
100570
100575
100574
100573
100571
100569
100568
100567
100565
100563
100561
100559
100556
100554
100551
100549
100547
100545
100545
100544
100544
100544
100543
100540
100537
100534
100533
100532
100531
100532
100533
100536
100535
100534
100532
100531
100529
100527
100526
100525
100523
100520
100518
100516
100514
100512
100511
100510
100510
100511
100510
100510
100509
100507
100504
100500
100498
100497
100497
100497
100498
100497
100496
100495
100493
100492
100490
100489
100489
100487
100485
100483
100481
100480
100478
100477
100477
100477
100477
100477
100477
100476
100476
100474
100471
100467
100465
100463
100463
100463
100464
100459
100458
100456
100455
100454
100453
100453
100452
100452
100450
100448
100447
100446
100445
100445
100445
100445
100445
100445
100445
100444
100443
100442
100439
100435
100433
100431
100431
100431
100431
100421
100421
100420
100418
100418
100417
100417
100417
100417
100416
100415
100415
100414
100414
100414
100414
100415
100415
100414
100413
100412
100411
100410
100408
100405
100402
100401
100400
100400
100400
100386
100385
100385
100384
100384
100383
100383
100384
100384
100385
100384
100385
100385
100385
100385
100386
100386
100386
100385
100383
100381
100379
100378
100377
100376
100374
100372
100371
100370
100369
100353
100352
100352
100351
100351
100351
100351
100352
100353
100354
100355
100355
100356
100357
100357
100358
100358
100358
100357
100355
100353
100350
100349
100348
100347
100346
100344
100342
100340
100338
100322
100321
100321
100321
100320
100320
100320
100321
100323
100324
100326
100327
100328
100330
100331
100332
100332
100331
100330
100328
100326
100323
100320
100319
100318
100317
100315
100313
100311
100309
100292
100291
100291
100291
100291
100291
100292
100293
100295
100296
100298
100300
100302
100303
100305
100307
100307
100306
100305
100302
100300
100297
100294
100292
100290
100288
100286
100284
100283
100282
100262
100262
100262
100262
100263
100264
100266
100267
100268
100270
100272
100274
100277
100279
100281
100282
100282
100282
100280
100278
100275
100272
100269
100266
100263
100260
100258
100257
100256
100256
100234
100235
100235
100236
100238
100239
100241
100242
100243
100245
100248
100251
100253
100255
100257
100259
100259
100258
100257
100255
100252
100249
100245
100242
100238
100234
100232
100232
100232
100233
100209
100210
100211
100213
100215
100216
100218
100219
100220
100223
100226
100229
100232
100234
100236
100237
100237
100236
100235
100233
100230
100227
100223
100219
100215
100211
100209
100209
100210
100210
100187
100188
100189
100191
100193
100195
100196
100197
100200
100203
100207
100210
100213
100215
100216
100217
100217
100216
100215
100213
100210
100206
100202
100198
100194
100190
100188
100188
100188
100188
100167
100167
100169
100171
100173
100175
100176
100177
100181
100185
100189
100193
100196
100197
100198
100198
100197
100197
100195
100194
100191
100187