/*--------------------------------*- C++ -*----------------------------------*\
| =========                 |                                                 |
| \\      /  F ield         | OpenFOAM: The Open Source CFD Toolbox           |
|  \\    /   O peration     | Version:  2.3.0                                 |
|   \\  /    A nd           | Web:      www.OpenFOAM.org                      |
|    \\/     M anipulation  |                                                 |
\*---------------------------------------------------------------------------*/
FoamFile
{
    version     2.0;
    format      ascii;
    class       volScalarField;
    location    "0.144";
    object      k;
}
// * * * * * * * * * * * * * * * * * * * * * * * * * * * * * * * * * * * * * //

dimensions      [0 2 -2 0 0 0 0];

internalField   nonuniform List<scalar> 
545
(
119804
114086
104961
97088
91700.4
122124
114349
104681
96607.3
90800.3
126111
114563
104012
95610.2
89190.2
132141
114389
102937
94182.9
86728.7
141079
113407
101700
92653.2
83260.7
88946.4
87442.1
86963.4
86812.3
86764.4
86748.8
86743.2
86740.8
86739.3
86738.2
86737.2
86736.3
86735.4
86734.5
86733.7
86732.9
86732.1
86731.3
86730.6
86729.9
86729.2
86728.6
86728
86727.4
86726.8
86726.3
86725.8
86725.3
86724.9
86724.4
86724
86723.7
86723.3
86723
86722.7
86722.5
86722.2
86722
86721.8
86721.7
86721.5
86721.4
86721.4
86721.3
86721.3
88257.5
87231.3
86896.7
86791.4
86757.9
86746.7
86742.6
86740.6
86739.2
86738.2
86737.2
86736.2
86735.3
86734.5
86733.6
86732.8
86732
86731.3
86730.6
86729.9
86729.2
86728.6
86727.9
86727.3
86726.8
86726.3
86725.7
86725.3
86724.8
86724.4
86724
86723.6
86723.3
86723
86722.7
86722.4
86722.2
86722
86721.8
86721.6
86721.5
86721.4
86721.3
86721.3
86721.3
87255.1
86878
86783.4
86755.8
86746.8
86743.3
86741.5
86740.2
86739.1
86738.1
86737.2
86736.2
86735.3
86734.5
86733.6
86732.8
86732
86731.3
86730.5
86729.8
86729.2
86728.5
86727.9
86727.3
86726.8
86726.2
86725.7
86725.2
86724.8
86724.4
86724
86723.6
86723.3
86722.9
86722.7
86722.4
86722.2
86722
86721.8
86721.6
86721.5
86721.4
86721.3
86721.3
86721.2
85951.2
86465.7
86656.4
86716.6
86734.6
86739.5
86740.3
86739.8
86739
86738.1
86737.1
86736.2
86735.3
86734.4
86733.6
86732.8
86732
86731.3
86730.5
86729.8
86729.2
86728.5
86727.9
86727.3
86726.7
86726.2
86725.7
86725.2
86724.8
86724.4
86724
86723.6
86723.2
86722.9
86722.6
86722.4
86722.1
86721.9
86721.8
86721.6
86721.5
86721.4
86721.3
86721.2
86721.2
84431.2
86117
86555.5
86685.8
86725.1
86736.6
86739.4
86739.5
86738.9
86738
86737.1
86736.2
86735.3
86734.4
86733.6
86732.8
86732
86731.2
86730.5
86729.8
86729.1
86728.5
86727.9
86727.3
86726.7
86726.2
86725.7
86725.2
86724.8
86724.3
86724
86723.6
86723.2
86722.9
86722.6
86722.4
86722.1
86721.9
86721.7
86721.6
86721.5
86721.4
86721.3
86721.2
86721.2
84600.2
86010.9
86514.7
86672.8
86721.1
86735.3
86739
86739.4
86738.9
86738
86737.1
86736.2
86735.3
86734.4
86733.6
86732.8
86732
86731.2
86730.5
86729.8
86729.1
86728.5
86727.9
86727.3
86726.7
86726.2
86725.7
86725.2
86724.8
86724.3
86723.9
86723.6
86723.2
86722.9
86722.6
86722.4
86722.1
86721.9
86721.7
86721.6
86721.5
86721.4
86721.3
86721.2
86721.2
141079
113407
101700
92653.2
83260.7
132141
114389
102937
94182.9
86728.7
126111
114563
104012
95610.2
89190.2
122124
114349
104681
96607.3
90800.3
119804
114086
104961
97088
91700.3
84431.2
86117
86555.5
86685.8
86725.1
86736.6
86739.4
86739.5
86738.9
86738
86737.1
86736.2
86735.3
86734.4
86733.6
86732.8
86732
86731.2
86730.5
86729.8
86729.1
86728.5
86727.9
86727.3
86726.7
86726.2
86725.7
86725.2
86724.8
86724.3
86724
86723.6
86723.2
86722.9
86722.6
86722.4
86722.1
86721.9
86721.7
86721.6
86721.5
86721.4
86721.3
86721.2
86721.2
85951.2
86465.7
86656.4
86716.6
86734.6
86739.5
86740.3
86739.8
86739
86738.1
86737.1
86736.2
86735.3
86734.4
86733.6
86732.8
86732
86731.3
86730.5
86729.8
86729.2
86728.5
86727.9
86727.3
86726.7
86726.2
86725.7
86725.2
86724.8
86724.4
86724
86723.6
86723.2
86722.9
86722.6
86722.4
86722.1
86721.9
86721.8
86721.6
86721.5
86721.4
86721.3
86721.2
86721.2
87255.1
86878
86783.4
86755.8
86746.8
86743.3
86741.5
86740.2
86739.1
86738.1
86737.2
86736.2
86735.3
86734.5
86733.6
86732.8
86732
86731.3
86730.5
86729.8
86729.2
86728.5
86727.9
86727.3
86726.8
86726.2
86725.7
86725.2
86724.8
86724.4
86724
86723.6
86723.3
86722.9
86722.7
86722.4
86722.2
86722
86721.8
86721.6
86721.5
86721.4
86721.3
86721.3
86721.2
88257.5
87231.3
86896.7
86791.4
86757.9
86746.7
86742.6
86740.6
86739.2
86738.2
86737.2
86736.2
86735.3
86734.5
86733.6
86732.8
86732
86731.3
86730.6
86729.9
86729.2
86728.6
86727.9
86727.3
86726.8
86726.3
86725.7
86725.3
86724.8
86724.4
86724
86723.6
86723.3
86723
86722.7
86722.4
86722.2
86722
86721.8
86721.6
86721.5
86721.4
86721.3
86721.3
86721.3
88946.4
87442.1
86963.4
86812.3
86764.4
86748.8
86743.2
86740.8
86739.3
86738.2
86737.2
86736.3
86735.4
86734.5
86733.7
86732.9
86732.1
86731.3
86730.6
86729.9
86729.2
86728.6
86728
86727.4
86726.8
86726.3
86725.8
86725.3
86724.9
86724.4
86724
86723.7
86723.3
86723
86722.7
86722.5
86722.2
86722
86721.8
86721.7
86721.5
86721.4
86721.4
86721.3
86721.3
)
;

boundaryField
{
    AirInlet
    {
        type            fixedValue;
        value           uniform 0.1;
    }
    WaterInlet
    {
        type            fixedValue;
        value           uniform 0.1;
    }
    ChannelWall
    {
        type            fixedValue;
        value           uniform 0.1;
    }
    Outlet
    {
        type            inletOutlet;
        inletValue      uniform 0.1;
        value           nonuniform List<scalar> 
11
(
86721.3
86721.3
86721.2
86721.2
86721.2
86721.2
86721.2
86721.2
86721.2
86721.3
86721.3
)
;
    }
    FrontAndBack
    {
        type            empty;
    }
}


// ************************************************************************* //
