/*--------------------------------*- C++ -*----------------------------------*\
| =========                 |                                                 |
| \\      /  F ield         | OpenFOAM: The Open Source CFD Toolbox           |
|  \\    /   O peration     | Version:  2.3.0                                 |
|   \\  /    A nd           | Web:      www.OpenFOAM.org                      |
|    \\/     M anipulation  |                                                 |
\*---------------------------------------------------------------------------*/
FoamFile
{
    version     2.0;
    format      ascii;
    class       volScalarField;
    location    "0.299995";
    object      epsilon.air;
}
// * * * * * * * * * * * * * * * * * * * * * * * * * * * * * * * * * * * * * //

dimensions      [0 2 -3 0 0 0 0];

internalField   nonuniform List<scalar> 
10000
(
248.452
167.99
123.391
40.4893
10.6439
2.11444
0.686215
0.156757
0.0307927
0.00912228
0.00940525
0.0149721
0.129679
0.679209
2.03234
6.13344
33.8907
101.928
112.589
217.121
875.463
253.179
310.509
70.7707
6.00925
0.223059
0.0329579
0.00958591
0.0034395
0.00290188
0.00482253
0.0031365
0.006072
0.0265828
0.0844172
1.43278
26.063
398.109
80.3191
234.281
4832.02
505.632
289.128
385.268
13.3557
0.136049
0.0273693
0.00672091
0.00626794
0.00483703
0.00569409
0.00495175
0.006349
0.0175951
0.075037
1.26564
76.7337
1895.21
178.715
907.387
27497.6
1814.32
91.4362
2117.58
21.2487
0.0989166
0.00241078
0.00237376
0.00194679
0.00208609
0.00255078
0.00207505
0.00186913
0.00179153
0.00784376
2.26121
180.406
11255.3
433.852
6525.34
3658.52
9349.06
137.64
963.271
10.3243
0.0763088
0.00265304
0.00244129
0.0021188
0.00226969
0.00259374
0.00225623
0.00212465
0.00208807
0.010586
4.0144
206.008
14268.7
1267.17
40804.2
29070.7
31189.2
249.043
554.241
8.06321
0.0709265
0.0023902
0.00217865
0.00194117
0.00211704
0.00230024
0.00211185
0.00203127
0.00196568
0.0112591
4.33842
186.52
797.604
5415.23
1361.03
31552
28597.6
165.072
769.68
17.495
0.104874
0.00426492
0.00382939
0.00318507
0.00396895
0.00439516
0.00408049
0.00390622
0.00350819
0.0218537
7.93629
1558.95
223.459
31193.3
6402.78
33671
571.855
1036.19
1327.11
15.6331
0.18823
0.0297484
0.025813
0.0227103
0.0299265
0.0300886
0.0312692
0.030522
0.0268459
0.0557324
9.69374
2137.61
269.548
29258.7
34986.9
39117.6
1474.9
15046.5
651.284
4.03768
0.875737
0.35754
0.258082
0.293824
0.343125
0.272735
0.347864
0.343504
0.325898
0.456161
11.8958
2198.75
414.634
27454.8
32858.5
37471.8
8557.09
20154.4
5404.98
41.2715
4.55449
3.36316
2.36856
2.69614
2.73105
2.21992
2.65558
2.55148
2.67334
3.81941
14.345
1976.06
630.566
27231.7
6367.22
38006
39695.9
468.163
148.729
18.658
3.40696
4.18724
3.89118
3.29955
3.24751
3.5807
3.15381
3.02543
3.30206
4.90837
20.271
321.17
2369.39
27967.5
34794.1
43818.1
40290.9
358.05
260.162
22.1229
4.9518
2.25017
2.70941
1.86616
1.83913
2.45388
1.81001
1.79109
1.97799
2.87025
16.371
1628.69
13601.1
25173.6
31083.8
43769.5
40171.8
342.721
892.345
37.9199
6.20146
2.28708
1.7793
1.85765
1.8405
1.68821
1.82378
1.87949
2.05646
2.83985
12.2927
1627.01
14424.4
26937.8
34295
39805
31274.7
232.664
4119.53
69.6019
7.11316
2.68372
2.05611
2.58041
2.58767
2.06606
2.55034
2.58498
2.686
3.27654
14.3945
1811.99
16579
31204
6089.67
36910.6
27866.2
166.688
2724.4
48.809
6.1185
3.38764
2.76487
3.56904
3.58548
2.84366
3.55022
3.51497
3.55957
4.01124
25.7676
1755
11074.1
33460.5
33270.3
34311.3
27358.1
136.61
1676.29
37.9168
6.17547
7.28967
5.38801
8.91038
9.0485
5.66408
8.87037
8.64216
9.04003
9.92003
29.743
1648.5
489.996
31984.5
24503.4
21119.9
20606.9
68.9856
511.507
26.7945
5.54923
6.77106
5.02179
8.40589
8.64414
5.34021
8.40373
8.74804
6.55351
6.3957
25.6242
1309.11
1659.11
21065.7
16433.2
8532.2
8219.76
19.2841
158.69
16.6934
4.90598
5.17618
4.09941
6.80014
6.93864
4.38553
6.39664
8.07575
4.21374
4.18153
12.8219
957.488
8792.21
11151.8
11545.8
1547.42
1874.24
2.43164
66.2605
11.3328
4.14783
2.2038
2.03677
5.49876
5.48084
2.07654
4.32094
3.18986
4.26727
5.05633
9.96576
520.409
3985.32
450.758
2128.69
140.019
171.483
0.0826952
9.63964
6.83154
2.34567
1.60324
1.49702
1.65229
1.65439
1.43587
1.47106
1.44441
0.750232
0.624778
0.808661
64.7144
481.119
6.94318
191.306
244.25
168.205
121.03
40.1836
10.818
2.163
0.693976
0.15771
0.0307912
0.00845767
0.00881914
0.0141743
0.129055
0.682571
2.06334
6.2312
34.0278
100.774
113.943
218.168
758.162
240.77
291.561
54.744
5.6999
0.222516
0.0342439
0.00894273
0.00317255
0.0026476
0.00438334
0.00286891
0.00560055
0.0245044
0.0764162
1.43571
24.8469
361.216
78.255
214.356
3514.33
451.331
275.302
225.273
12.0892
0.137568
0.0274995
0.00674989
0.0061983
0.00476011
0.00565323
0.00487641
0.00628311
0.0176499
0.0770976
1.24221
69.0292
1605.7
169.708
679.635
12565.3
1500.42
79.7647
912.127
16.589
0.0902695
0.00227576
0.00228474
0.00189708
0.00202884
0.00245717
0.00201774
0.00182571
0.00174693
0.00721087
1.85251
149.695
6229.95
381.739
4100.46
2327.16
7284.72
99.3231
595.349
9.67106
0.0796765
0.00256432
0.00239038
0.00208636
0.00222707
0.00253424
0.00221344
0.00209087
0.00205452
0.00972112
3.21606
166.591
6996.04
1038.25
17940.2
13512.4
21479.8
145.868
379.751
8.56796
0.0723072
0.00226257
0.00209128
0.00188496
0.00203589
0.00219306
0.00202963
0.00195986
0.00190289
0.00986929
3.42634
133.658
670.101
4070.46
1207.63
17752.8
8458.99
68.6606
466.655
12.9761
0.103353
0.00366401
0.00331617
0.00279864
0.00342187
0.00377162
0.00351755
0.00338112
0.00306564
0.0171525
4.30179
433.649
152.843
16259.6
5091.84
19256.6
459.819
283.436
807.342
11.6864
0.168181
0.024552
0.0219468
0.0187351
0.0249656
0.0258878
0.0263179
0.0257381
0.0224592
0.0425773
4.84005
937.991
191.503
16008.6
19105
22204.3
1243.06
2940.49
443.124
8.93385
0.728716
0.296516
0.228484
0.246184
0.289393
0.243608
0.295798
0.293701
0.277974
0.371675
7.65043
1044.22
323.876
15457.9
16526.3
21637.3
5572.83
5347.25
2564.97
22.026
3.9729
3.16192
2.41994
2.63104
2.64633
2.27933
2.58196
2.50126
2.61981
3.54609
11.8226
909.965
506.752
15433.6
5059.49
21834.9
21680.3
325.898
139.319
13.7231
3.60753
3.76811
3.49397
3.07083
3.02812
3.26194
2.95238
2.85278
3.09378
4.3985
13.2743
254.449
1769.35
15836
19365.3
24474.4
22354.4
246.249
247.1
18.951
3.99539
2.27202
2.57477
1.87747
1.84994
2.35312
1.81996
1.8004
1.9902
2.90085
11.1731
813.015
7266.11
14412.4
17410.1
24344.8
22164.5
233.265
752.337
35.7408
5.75105
2.3064
1.79055
1.86939
1.85184
1.69746
1.83448
1.89017
2.07041
2.87662
9.72939
820.2
7771.4
15097
17345.5
21872.2
17158.2
154.596
2394.96
63.2062
6.80583
2.7123
2.07618
2.61734
2.62505
2.08723
2.58529
2.61817
2.7229
3.34548
11.1871
893.574
8267.88
16789.5
4496.86
19383.8
14439
101.3
1440.34
45.3392
6.16528
3.41936
2.81715
3.62336
3.63911
2.90847
3.60275
3.56227
3.60595
4.06191
14.375
849.113
3935.15
17534.4
15532
16581.6
13290.6
77.6948
853.492
35.7558
6.21502
5.94719
4.31618
6.03678
6.06987
4.36856
6.0467
6.14945
6.46881
7.30282
19.8147
796.678
373.6
16100.4
12956.3
9515.15
9536.85
37.8991
319.672
26.3841
5.60173
5.6794
4.18636
5.88986
5.9355
4.26234
5.90918
6.70474
6.22123
6.19567
18.0675
632.541
1149.7
9586.69
7417.73
3476.27
3435.38
10.3599
104.427
16.1964
4.96992
4.56882
3.6466
5.31881
5.23758
3.78829
4.95003
6.42955
4.32586
4.2891
12.2041
448.47
3902.53
4316.12
4529.04
642.418
729.817
1.49142
37.2977
10.6846
4.21559
2.23495
2.06669
4.7283
4.55941
2.11165
3.74906
3.33685
4.56562
5.51961
10.846
231.454
1333.55
399.621
829.604
66.0743
70.8214
0.0522072
5.56387
6.19265
2.43483
1.68192
1.56767
1.81416
1.78897
1.49227
1.53847
2.20031
2.30308
2.36096
3.08058
28.0872
102.381
23.8815
76.631
237.997
167.306
116.005
39.1852
10.7728
2.1741
0.693603
0.156023
0.0303584
0.00805286
0.00836557
0.0135029
0.12603
0.67642
2.07112
6.25246
33.5447
96.865
113.261
217.609
628.649
222.675
260.718
43.0797
5.29437
0.217494
0.0357549
0.00858673
0.00304838
0.00252595
0.0041489
0.00274196
0.00539162
0.0236176
0.0722882
1.40984
23.2033
313.163
75.4814
192.71
2431.73
379.82
251.323
120.709
9.80348
0.138626
0.0263302
0.00644331
0.00592857
0.00455664
0.005404
0.00467137
0.00602221
0.0169937
0.0771123
1.23562
58.9635
1273.05
157.88
474.628
6025.36
1131.27
66.8251
374.518
12.2699
0.0873641
0.00220154
0.00218705
0.00184145
0.00196426
0.0023473
0.00195488
0.00177722
0.00170397
0.00692033
1.67242
119.019
3550.98
325.399
2197.54
1589.35
4999.13
70.0375
363.824
8.39854
0.0812869
0.00247749
0.00230917
0.00203197
0.00216315
0.00244202
0.00215109
0.00203772
0.00200534
0.0093441
2.83492
130.91
3617.39
809.169
7650.79
6453.8
12237.6
85.8071
269.394
7.61854
0.0725743
0.00220046
0.00203379
0.00184288
0.00198674
0.0021301
0.0019817
0.0019163
0.00186382
0.00927142
3.01591
99.6333
487.565
2820.02
1047.8
10302.5
2465.16
36.7946
305.837
9.42844
0.101129
0.00343585
0.00311694
0.00265098
0.00321333
0.00352932
0.00330236
0.00318019
0.00289613
0.0154774
3.27867
150.618
106.36
8774.15
3828.39
11369.6
375.585
76.2253
458.831
8.50995
0.161222
0.0226763
0.0204846
0.0172916
0.0231552
0.0242904
0.0245025
0.0239773
0.0208458
0.0382917
3.18911
427.147
139.325
9017.25
10804.4
13014.7
1014.8
443.806
282.253
9.94523
0.63931
0.266522
0.213955
0.222532
0.261257
0.229044
0.267856
0.265915
0.251832
0.329679
5.73387
518.752
245.722
8979.08
8710.6
12898
3935.13
1099.95
1105.96
16.8175
3.94006
3.13757
2.56649
2.66861
2.66736
2.41589
2.60572
2.53403
2.65695
3.48113
10.4586
450.828
388.093
9035.25
3793.81
12960.5
12250.8
201.468
130.25
13.4982
3.98795
3.56193
3.29874
2.95437
2.91619
3.10229
2.84915
2.76378
2.98667
4.14885
11.9793
192.645
1228.24
9254.38
11136.2
14142.3
12774.7
166.32
227.909
18.5734
3.73883
2.31421
2.50732
1.89873
1.87022
2.30215
1.83864
1.81765
2.01278
2.96362
9.54767
431.362
4023.05
8506.64
10051.7
13908.1
12566.3
154.378
602.966
34.574
5.58776
2.34216
1.81056
1.89062
1.87232
1.7139
1.85382
1.90944
2.09558
2.94618
8.72373
439.108
4318.69
8740.21
9157.76
12349.6
9682.85
99.2373
1450.99
57.5931
6.69752
2.76434
2.1108
2.68278
2.69122
2.12349
2.64716
2.67699
2.78852
3.47266
9.8293
466.685
4202.05
9320.66
3073.38
10440.8
7701.89
61.3408
795.254
42.1366
6.25006
3.49321
2.92187
3.78746
3.80592
3.04077
3.76079
3.7074
3.7404
4.22257
11.5435
434.911
1388.42
9443
7400.96
8151.47
6624.02
44.3967
456.241
33.7434
6.2884
5.20846
3.87781
4.85412
4.86079
3.87748
4.86724
5.03518
5.29466
6.01935
15.2736
409.08
273.457
8290.06
7045.05
4343.95
4507.43
21.1596
211.061
26.022
5.69767
5.06129
3.82604
4.8017
4.79544
3.83342
4.81735
5.65359
5.82852
5.95282
14.8469
328.768
731.159
4413.4
3446.94
1538.33
1550.48
6.2676
73.5027
16.1724
5.08549
4.21267
3.43154
4.5751
4.43208
3.51808
4.2408
5.53764
4.53129
4.47772
12.1313
229.469
1748.54
1711.77
1860.98
426.292
443.771
1.06808
23.8583
10.6293
4.33592
2.29056
2.12093
4.36632
4.15568
2.17681
3.48998
3.58175
5.02388
6.19258
12.2658
112.77
433.826
288.391
464.906
16.1838
16.9362
0.0443973
2.4637
6.12135
2.59413
1.82034
1.69192
2.09864
2.02505
1.59166
1.65692
3.38534
4.34329
4.6763
6.30144
11.5303
25.8482
8.5603
12.9439
236.108
169.342
113.237
39.0185
10.8586
2.20182
0.697548
0.155911
0.0302905
0.00767699
0.00814424
0.0130995
0.125028
0.674474
2.08856
6.31353
33.4399
95.171
114.114
220.235
525.617
203.104
225.921
36.6127
4.99923
0.215539
0.0379275
0.00822603
0.0028872
0.00238137
0.00392359
0.002587
0.00506303
0.0219635
0.0661821
1.40065
21.692
265.545
72.659
174.822
1688.24
308.007
222.362
72.6485
7.62363
0.143275
0.025932
0.00635825
0.00583377
0.0044811
0.00532923
0.00459578
0.00593109
0.0167855
0.0778045
1.2472
49.3425
977.362
145.737
345.467
3119.47
797.375
55.412
170.924
8.98757
0.0846445
0.00212585
0.00214328
0.00181693
0.00193563
0.00229906
0.00192666
0.00175587
0.00168383
0.00645946
1.52581
93.0806
2121.6
276.237
1115.21
1155.79
3168.92
51.1938
224.912
7.23143
0.0835133
0.00243444
0.00227706
0.00201084
0.0021372
0.00240509
0.00212549
0.00201656
0.00198518
0.00877194
2.42898
102.26
1975.15
623.489
3056.95
3346.04
6232.95
54.3501
199.886
6.77827
0.0726611
0.00212646
0.00199261
0.00181845
0.0019465
0.00207656
0.0019401
0.00188096
0.00183269
0.00822226
2.6186
77.4129
306.321
1896.87
916.96
6204.61
806.928
27.6822
218.169
7.74085
0.0995804
0.00310542
0.00282508
0.00243922
0.00290784
0.00316902
0.00298307
0.00288153
0.00264706
0.0126344
2.84002
80.5151
77.4823
4896.47
2850.86
6960.52
315.423
33.8171
283.071
7.18889
0.15285
0.0200656
0.018305
0.0152579
0.0206189
0.0218884
0.0219408
0.0214836
0.0185445
0.0328819
2.44005
205.786
105.551
5247.78
6362.65
7912.81
819.714
84.4926
190.689
9.75016
0.538148
0.216212
0.181489
0.181505
0.216772
0.197535
0.224598
0.224211
0.21065
0.26364
4.62705
274.535
187.44
5410.87
4899.97
7982.39
2808.94
189.728
453.253
17.8624
4.20255
3.2343
2.76344
2.77677
2.76154
2.59166
2.69693
2.6243
2.75662
3.5586
10.5424
246.603
295.536
5495.57
2807.98
7987.75
7176.49
121.699
123.352
15.4123
4.45266
3.49926
3.2395
2.91718
2.88035
3.05181
2.81578
2.73476
2.95152
4.07306
12.6985
146.064
835.467
5613.55
6631.29
8477.54
7545.98
113.944
207.514
19.4001
3.8513
2.36897
2.48736
1.92587
1.89608
2.28678
1.86243
1.83941
2.0412
3.04695
9.64396
247.278
2312.94
5211.18
6046.14
8188.27
7345.99
101.573
477.322
34.0365
5.59541
2.38725
1.83367
1.91703
1.8978
1.73283
1.87787
1.93336
2.1268
3.03527
8.92909
253.611
2493
5249.86
5100.16
7192.26
5652.17
63.457
916.131
53.9864
6.70839
2.82937
2.15007
2.76413
2.77348
2.16444
2.724
2.74983
2.86968
3.63318
9.71211
262.586
2152.01
5367.25
2047.54
5773.21
4260.5
38.2674
462.448
40.1075
6.35242
3.5997
3.05164
4.04169
4.06581
3.20599
4.00577
3.93401
3.95842
4.4738
10.9385
242.511
537.637
5224.08
3688.06
4046.36
3393.94
26.2113
262.275
32.4334
6.37751
4.86523
3.80119
4.53683
4.54447
3.82288
4.53812
4.67203
4.87389
5.51941
13.6683
230.306
196.478
4349.69
3948.65
2017.56
2204.27
13.4034
150.071
25.8602
5.81298
4.76573
3.75594
4.48844
4.48401
3.78002
4.49119
5.21528
5.59119
5.81157
13.815
191.052
442.227
2022.68
1667.35
724.584
753.288
3.88988
54.9407
16.4124
5.22238
4.03785
3.37329
4.29679
4.16613
3.4555
3.9911
5.13579
4.78944
4.70215
12.5218
135.294
774.773
667.997
806.04
156.847
173.544
0.729989
16.0705
10.8956
4.47564
2.35482
2.1841
4.26077
4.06487
2.25409
3.43015
3.84537
5.50362
6.87658
13.7994
64.8435
126.466
85.8237
159.391
1.01236
1.0179
0.060391
1.83956
6.35764
2.78147
1.98103
1.83585
2.43056
2.29954
1.70668
1.79412
4.70503
6.44056
7.04056
9.76766
5.78236
6.22
3.01807
0.891593
233.333
170.698
110.468
38.9276
10.9459
2.22868
0.698951
0.154862
0.0300771
0.00718537
0.00770017
0.0123458
0.122738
0.670959
2.10329
6.37651
33.3207
93.2116
114.889
222.85
450.562
184.106
192.237
32.8715
4.88084
0.209953
0.0401582
0.00787437
0.00277014
0.00226917
0.00370035
0.00246858
0.00484777
0.0209928
0.0615196
1.37286
20.5269
223.298
69.9258
159.797
1214.31
243.441
191.767
54.0814
6.21506
0.146718
0.0248777
0.00612768
0.00560916
0.0043056
0.00514568
0.00441979
0.00571438
0.0162099
0.0775313
1.26471
41.4171
740.486
133.938
271.11
1789.65
525.069
47.4684
92.2969
6.96563
0.0817099
0.00204833
0.00205685
0.00176841
0.00187834
0.00220227
0.00187036
0.00171376
0.00164494
0.00616172
1.45001
72.1732
1321.1
234.997
632.546
877.772
1867.8
40.0496
144.678
6.43882
0.0842577
0.00234547
0.002208
0.00196499
0.00208161
0.00232615
0.00207086
0.001971
0.00194197
0.00844362
2.16695
79.4085
1112.37
480.794
1279.61
1960.96
2934.89
39.2623
153.027
6.34175
0.071947
0.00206486
0.0019358
0.00177777
0.00189791
0.00201445
0.0018928
0.00183814
0.00179413
0.0076741
2.32318
62.0167
173.311
1265.89
816.595
3877.5
361.423
24.9818
165.429
7.13649
0.0967144
0.00294072
0.00267837
0.00233342
0.00275544
0.00298827
0.00282393
0.00273272
0.00252286
0.0112071
2.51847
57.4745
59.5218
2831.72
2140.37
4410.59
271.046
25.123
195.094
6.90195
0.14834
0.0188516
0.0172781
0.0143105
0.0194253
0.0207503
0.020732
0.0203029
0.0174587
0.0303319
2.07563
112.174
83.0656
3155.42
3919.25
4991.61
659.56
35.9557
144.193
9.27757
0.454
0.176887
0.156023
0.149688
0.180499
0.17236
0.188866
0.189131
0.176482
0.210685
3.90066
159.458
145.302
3377.93
2969.71
5125.07
2014.04
65.1784
214.252
20.6173
4.5035
3.38765
2.92938
2.91245
2.8866
2.73725
2.81603
2.73665
2.87983
3.70325
11.1924
151.636
227.145
3465.01
2084.11
5105.4
4353.05
78.8461
118.254
17.5959
4.82579
3.50983
3.24937
2.92212
2.88502
3.05802
2.81982
2.73804
2.95508
4.08533
13.8234
113.18
570.635
3528.97
4085.25
5262.7
4597.68
80.0173
188.414
20.455
4.06721
2.42286
2.49174
1.95223
1.92115
2.28983
1.88549
1.86031
2.06837
3.1293
10.4659
156.255
1378
3301.18
3754.41
4947.99
4416.78
66.3655
379.314
33.934
5.66585
2.43065
1.85113
1.94232
1.92218
1.74712
1.90088
1.95618
2.15647
3.12188
9.75657
160.88
1487.34
3261.91
3000.51
4301.68
3397.32
40.4554
603.533
52.3294
6.76158
2.89174
2.17937
2.84226
2.85233
2.19491
2.79798
2.82009
2.94755
3.78877
10.2928
163.211
1108.29
3194.26
1387.43
3254.52
2437.72
24.9561
287.483
39.2229
6.4346
3.71272
3.15454
4.32394
4.35496
3.33769
4.27738
4.18156
4.19963
4.75399
11.2778
152.035
245.073
2949.18
1952.3
2005.62
1782.54
16.8468
167.75
31.8461
6.4488
4.76412
3.87535
4.63281
4.64965
3.93675
4.61926
4.69553
4.8526
5.43855
13.4731
146.788
137.301
2292.3
2263.37
916.186
1083.07
8.19998
113.184
25.8658
5.90452
4.67366
3.81319
4.56227
4.5769
3.87804
4.54943
5.12732
5.54183
5.80481
13.8076
127.057
250.657
878.715
800.395
251.102
285.516
2.37125
43.067
16.6869
5.32927
3.98198
3.39144
4.28047
4.18901
3.48877
3.99608
5.02223
5.04669
4.90655
13.1264
92.8696
333.886
201.453
244.3
9.58441
12.5625
0.637734
11.9016
11.2041
4.58236
2.4034
2.23196
4.27838
4.11203
2.3135
3.46096
4.03104
5.83325
7.35018
14.9435
44.3434
41.2539
11.4659
11.1316
0.149197
0.143587
0.0763823
2.01898
6.63729
2.92727
2.10449
1.94599
2.68734
2.5106
1.79441
1.89888
5.7852
8.2495
9.10123
12.8315
4.13012
3.06919
0.431243
0.241381
231.88
172.867
108.488
38.9608
11.0295
2.25358
0.699854
0.154362
0.0299467
0.00684738
0.00748425
0.0118968
0.12136
0.667192
2.1163
6.43158
33.2438
91.4042
116.034
226.845
396.132
166.536
162.475
30.3673
4.88579
0.206282
0.0424349
0.00758571
0.00263861
0.00215764
0.00353147
0.0023469
0.00455219
0.0193767
0.0555898
1.33787
19.7551
188.882
67.2993
154.269
903.247
190.386
162.581
44.8358
5.50875
0.153724
0.0243209
0.00602205
0.00550187
0.00422198
0.00506039
0.00433599
0.00561098
0.0159231
0.0766706
1.28472
35.5921
558.369
122.663
240.931
1145.54
326.425
42.4396
60.7235
5.91457
0.0789528
0.0019903
0.00201628
0.0017457
0.00185143
0.00215681
0.00184388
0.00169406
0.00162659
0.00576676
1.40965
56.4757
850.051
200.493
442.042
685.751
1002.18
34.0943
98.9938
5.95582
0.0844893
0.00230217
0.00217583
0.00194365
0.00205554
0.00228927
0.00204519
0.00194966
0.00192163
0.00798653
1.97661
61.9209
634.608
373.121
703.91
1285.69
1291.78
32.7127
120.182
6.1742
0.0702051
0.002009
0.00190519
0.00175791
0.00186751
0.00197453
0.00186132
0.00181144
0.00177037
0.00685412
2.09336
51.6115
98.4229
849.53
741.44
2515.66
221.454
24.1249
130.985
7.03658
0.0938562
0.00267635
0.00244316
0.00216427
0.00250902
0.00269493
0.00256476
0.00249017
0.00232183
0.00929575
2.23828
47.0792
48.4936
1703.06
1634.17
2890.95
238.304
22.8536
147.285
7.14278
0.142601
0.0173158
0.0158599
0.0130839
0.0178793
0.0191541
0.0191507
0.018746
0.0160242
0.027146
1.84851
72.9556
67.8198
1966.48
2537.77
3265.85
529.993
27.2334
119.929
8.86067
0.403552
0.147312
0.136599
0.12462
0.153404
0.153471
0.162499
0.163275
0.150409
0.171192
3.30439
104.617
114.268
2183.06
1941.87
3413.48
1453.3
42.3227
135.156
5.35434
0.000284949
3.48242
0.000284949
2.98999
2.96109
0.000284949
2.88668
2.80137
2.94891
3.79089
11.8099
105.072
177.053
2258.72
1561.11
3379.41
2730.1
55.0978
114.26
6.8337
0.000284949
0.000284949
0.000284949
0.000284949
0.000284949
0.000284949
0.000284949
0.000284949
0.000284949
0.000284949
7.80147
90.8069
397.075
2292.36
2604.47
3363.31
2885.13
56.032
171.573
12.2777
0.000284949
2.45769
0.000284949
1.96888
1.93698
0.000284949
1.89997
1.87326
2.08501
3.18097
11.3809
109.976
849.144
2158.28
2413.34
3057.88
2724.92
43.1905
304.988
38.688
0.000284949
2.45772
0.000284949
1.95835
1.93764
0.000284949
1.9154
1.9704
2.17477
3.17601
10.6551
113.237
913.088
2090.05
1856.73
2627.89
2091.8
26.1048
416.284
72.5142
0.000284949
2.93085
0.000284949
2.89315
2.90363
0.000284949
2.84618
2.86575
2.99811
3.88905
11.0483
113.808
574.719
1951.14
950.071
1848.89
1432.57
17.3669
194.481
58.1983
0.000284949
3.79162
0.000284949
4.53825
4.57453
0.000284949
4.48329
4.36469
4.37644
4.95773
11.9205
108.322
132.835
1682.98
1110.81
960.537
940.303
11.024
120.206
50.4345
0.000284949
4.7784
0.000284949
4.84045
4.86583
0.000284949
4.81528
4.84355
4.97324
5.51393
13.8174
106.423
94.6475
1168.6
1292.89
345.315
468.712
4.85627
89.759
45.2789
0.000284949
4.68185
0.000284949
4.7492
4.7818
0.000284949
4.72282
5.18584
5.5962
5.85989
14.1548
95.6302
134.495
324.487
323.644
37.4789
50.6383
1.86854
35.6493
37.2297
0.000284949
3.98673
0.000284949
4.36208
4.30703
0.000284949
4.09054
5.04201
5.22564
5.0323
13.6636
72.0428
145.311
39.4394
32.1569
0.21791
0.288347
0.604028
10.3065
28.9392
0.000284949
0.000284949
0.000284949
0.000284949
0.000284949
0.000284949
0.000284949
0.000284949
0.000284949
0.000284949
17.7153
34.607
19.4633
2.704
0.644118
0.0159843
0.0189156
0.0651974
2.54504
20.9219
0.000420701
0.000420701
0.000420701
0.000420701
0.000420701
0.000420701
0.000420701
0.000420701
0.000420701
0.000420701
17.7276
3.66904
2.19757
0.196242
0.0440807
231.235
175.629
107.046
39.0327
11.0915
2.27525
0.699897
0.153273
0.029659
0.00631174
0.00711151
0.0111249
0.11905
0.662302
2.12628
6.48197
33.1699
89.8594
117.216
231.495
354.967
150.397
137.537
28.5296
4.99116
0.198788
0.0440846
0.00724481
0.00252912
0.00205738
0.00331933
0.00223913
0.00433412
0.0183522
0.0508653
1.28574
19.3446
161.238
64.7618
153.479
691.406
150.574
136.661
39.3161
5.23307
0.157419
0.0232339
0.00579083
0.00527443
0.00404531
0.00487375
0.00415842
0.0053892
0.0153012
0.0742929
1.29652
31.6905
418.8
111.961
231.896
806.451
202.918
39.3842
47.0351
5.42582
0.0757642
0.00191557
0.00194054
0.00170262
0.00179994
0.0020708
0.00179329
0.00165658
0.001592
0.00547676
1.38001
45.7518
560.867
171.627
378.399
546.784
480.748
31.5592
72.3936
5.72402
0.0839865
0.00221615
0.00211021
0.00189931
0.00200199
0.00221451
0.00199257
0.0019055
0.00188
0.00767408
1.84913
49.722
363.309
292.878
511.219
912.732
543.9
30.4969
96.5633
6.10653
0.0671753
0.00195386
0.00185302
0.00172112
0.00182206
0.00191729
0.0018171
0.00177132
0.00173409
0.00633367
1.92291
44.5651
63.0359
581.669
681.336
1695.15
161.086
24.0895
107.136
7.14286
0.0900212
0.00254438
0.00232603
0.00208008
0.00238646
0.00254898
0.00243582
0.00236955
0.00222189
0.00835504
1.99669
41.5273
42.4435
1069.75
1274.58
1960.57
212.515
21.8446
118.581
7.54015
0.130773
0.0148169
0.0135106
0.0111309
0.0152779
0.0164123
0.0164331
0.0160689
0.0136424
0.0232072
1.63357
55.5243
57.4872
1275.77
1733.37
2213.25
425.911
23.5971
105.889
9.22983
0.393791
0.141477
0.131341
0.118964
0.14742
0.148479
0.156749
0.157369
0.144141
0.162326
3.00175
77.6547
90.8229
1459.27
1359.09
2356.7
1057.28
32.7468
108.305
6.97283
0.000284949
0.000284949
0.000284949
0.000284949
0.000284949
0.000284949
0.000284949
0.000284949
0.000284949
0.000284949
17.6233
80.8998
139.742
1517.25
1181.93
2313.88
1767.05
39.8829
110.99
9.92249
0.000284949
0.000284949
0.000284949
0.000284949
0.000284949
0.000284949
0.000284949
0.000284949
0.000284949
0.000284949
16.2797
76.022
283.326
1533.01
1717.16
2176.46
1862.16
39.5019
157.351
17.9336
0.000284949
0.000284949
0.000284949
0.000284949
0.000284949
0.000284949
0.000284949
0.000284949
0.000284949
0.000284949
13.814
85.4016
539.868
1453.01
1601.61
1924.78
1719.01
28.2876
249.396
43.5094
0.000284949
0.000284949
0.000284949
0.000284949
0.000284949
0.000284949
0.000284949
0.000284949
0.000284949
0.000284949
13.207
87.8889
574.685
1373.44
1200.63
1625.64
1308.96
17.89
302.19
67.5397
0.000284949
0.000284949
0.000284949
0.000284949
0.000284949
0.000284949
0.000284949
0.000284949
0.000284949
0.000284949
14.1965
88.2782
301.81
1211.56
646.192
1031.17
848.832
12.3426
144.177
55.3773
0.000284949
0.000284949
0.000284949
0.000284949
0.000284949
0.000284949
0.000284949
0.000284949
0.000284949
0.000284949
15.1113
85.9607
82.5445
952.759
663.738
397.287
463.916
6.82262
94.8793
48.8828
0.000284949
0.000284949
0.000284949
0.000284949
0.000284949
0.000284949
0.000284949
0.000284949
0.000284949
0.000284949
16.3836
85.6386
65.5812
535.034
702.978
81.8131
132.2
3.6014
74.4328
44.2693
0.000284949
0.000284949
0.000284949
0.000284949
0.000284949
0.000284949
0.000284949
0.000284949
0.000284949
0.000284949
18.4723
78.9572
76.6372
87.0544
92.057
1.76241
3.33743
1.87163
31.0664
37.3116
0.000284949
0.000284949
0.000284949
0.000284949
0.000284949
0.000284949
0.000284949
0.000284949
0.000284949
0.000284949
20.9177
60.7388
70.8323
8.77732
2.42484
0.0278676
0.0174337
0.547904
9.82455
29.6816
0.000284949
0.000284949
0.000284949
0.000284949
0.000284949
0.000284949
0.000284949
0.000284949
0.000284949
0.000284949
19.9505
29.4565
12.5419
1.40582
0.169476
0.00514244
0.00453043
0.0395896
3.08136
20.8617
0.000420701
0.000420701
0.000420701
0.000420701
0.000420701
0.000420701
0.000420701
0.000420701
0.000420701
0.000420701
18.3416
3.50127
1.8544
0.155364
0.0221704
231.39
179.382
106.19
39.1371
11.1404
2.29386
0.699376
0.152316
0.0294415
0.00597381
0.00693119
0.0106358
0.11712
0.65664
2.13375
6.52822
33.1114
88.6301
118.51
236.821
318.323
135.774
117.33
27.1549
5.15731
0.193085
0.0446057
0.00699146
0.00241809
0.0019682
0.00318554
0.00213961
0.0040641
0.016781
0.0453026
1.22572
19.2129
139.882
62.303
155.336
546.437
122.163
114.787
35.6222
5.19817
0.160243
0.0224187
0.00566093
0.00514763
0.00395116
0.00476483
0.00406363
0.00526596
0.0148414
0.0715953
1.30007
29.3026
310.634
101.888
232.29
610.642
129.278
37.76
40.0031
5.24657
0.0734278
0.00186883
0.00190375
0.00168187
0.00177502
0.00202889
0.00176879
0.00163853
0.00157529
0.00513619
1.34887
38.9955
377.043
147.528
359.731
444.084
229.642
31.0867
56.9878
5.64425
0.0821871
0.00217327
0.00207825
0.00187782
0.00197591
0.00217796
0.00196691
0.00188406
0.00185979
0.00726143
1.76717
41.9188
208.156
233.52
441.901
683.615
245.049
30.3376
79.4814
6.09204
0.0636196
0.00191107
0.00182717
0.00170319
0.00179712
0.00188489
0.00179143
0.00174956
0.00171469
0.00561174
1.79653
39.8273
47.9349
413.603
626.981
1186.45
131.778
24.6465
90.1005
7.2859
0.0859577
0.00235606
0.00216297
0.00196294
0.00221438
0.0023439
0.00225346
0.00219913
0.00208158
0.00708463
1.77962
38.3152
40.2216
702.127
1016.95
1376.37
187.948
21.1179
99.9165
7.94236
0.12411
0.0135732
0.012346
0.0101595
0.0139913
0.0150584
0.0150941
0.0147508
0.0124645
0.0207223
1.48139
47.2354
50.9975
863.921
1248.88
1550.67
342.44
21.3059
96.8938
10.0068
0.379713
0.133721
0.123236
0.110942
0.139186
0.140813
0.148862
0.149138
0.13524
0.150887
2.75933
63.6878
72.8746
1006.5
1003.79
1683.62
775.997
26.3639
98.5238
12.0844
0.000284949
0.000284949
0.000284949
0.000284949
0.000284949
0.000284949
0.000284949
0.000284949
0.000284949
0.000284949
22.4673
67.7907
111.069
1047.35
901.616
1633.46
1176.91
29.7592
108.185
16.0004
0.000284949
0.000284949
0.000284949
0.000284949
0.000284949
0.000284949
0.000284949
0.000284949
0.000284949
0.000284949
21.8301
66.5272
207.058
1052.4
1163.48
1435.91
1233.41
28.0128
145.886
24.7445
0.000284949
0.000284949
0.000284949
0.000284949
0.000284949
0.000284949
0.000284949
0.000284949
0.000284949
0.000284949
20.4679
71.6942
352.836
1001.41
1094.62
1224.73
1102
19.2433
207.879
47.5291
0.000284949
0.000284949
0.000284949
0.000284949
0.000284949
0.000284949
0.000284949
0.000284949
0.000284949
0.000284949
20.0043
73.8539
369.345
918.215
806.964
1002.39
820.108
12.6985
231.227
63.2458
0.000284949
0.000284949
0.000284949
0.000284949
0.000284949
0.000284949
0.000284949
0.000284949
0.000284949
0.000284949
20.3849
74.4671
163.107
752.456
429.887
525.983
485.424
8.80368
115.851
53.1823
0.000284949
0.000284949
0.000284949
0.000284949
0.000284949
0.000284949
0.000284949
0.000284949
0.000284949
0.000284949
21.0775
73.7692
57.4133
514.429
390.156
118.201
173.578
5.0789
80.4201
47.5904
0.000284949
0.000284949
0.000284949
0.000284949
0.000284949
0.000284949
0.000284949
0.000284949
0.000284949
0.000284949
22.351
74.1733
48.096
189.666
334.379
7.6277
19.4214
3.47656
64.0855
43.3735
0.000284949
0.000284949
0.000284949
0.000284949
0.000284949
0.000284949
0.000284949
0.000284949
0.000284949
0.000284949
24.063
69.4777
50.0533
19.7793
16.3377
0.134772
0.149462
1.94243
28.2233
37.2292
0.000284949
0.000284949
0.000284949
0.000284949
0.000284949
0.000284949
0.000284949
0.000284949
0.000284949
0.000284949
24.6576
54.0571
41.3845
3.70604
0.466458
0.0274492
0.00717806
0.477094
9.82034
30.0291
0.000284949
0.000284949
0.000284949
0.000284949
0.000284949
0.000284949
0.000284949
0.000284949
0.000284949
0.000284949
21.6434
26.4683
9.7001
1.08323
0.126221
0.00509169
0.00320415
0.0244322
3.55947
20.6959
0.000420701
0.000420701
0.000420701
0.000420701
0.000420701
0.000420701
0.000420701
0.000420701
0.000420701
0.000420701
18.8727
3.43343
1.69493
0.149173
0.0200736
232.279
183.789
105.86
39.2587
11.1707
2.30917
0.697849
0.15107
0.0290504
0.00543155
0.00673197
0.00987775
0.114711
0.649955
2.13828
6.57077
33.0628
87.5872
119.891
242.659
285.8
124.395
101.207
26.1314
5.35765
0.184517
0.0446778
0.00666267
0.00231619
0.00187984
0.00299664
0.00204242
0.0038477
0.0157334
0.0408061
1.17251
19.3062
121.273
59.9607
158.473
444.99
101.953
96.9884
33.0334
5.30832
0.161227
0.0212984
0.00542933
0.0049194
0.00377518
0.00457127
0.00388607
0.00503975
0.0141421
0.0682304
1.29369
28.082
228.411
92.5395
236.783
487.971
92.4151
37.1974
35.9414
5.23689
0.0707619
0.00180076
0.00183718
0.00164357
0.00172865
0.00195214
0.00172321
0.00160492
0.00154507
0.00489283
1.30769
35.038
256.75
127.48
355.74
367.877
129.036
31.9678
47.9564
5.64465
0.0795264
0.00209165
0.00201519
0.00183455
0.00192384
0.00210634
0.00191573
0.00184103
0.00181895
0.00690918
1.72442
37.2564
121.086
189.305
414.327
532.693
139.337
31.5418
66.9999
6.10175
0.0589276
0.00186061
0.00178017
0.00166988
0.00175515
0.00183299
0.00175063
0.00171247
0.00168088
0.00516526