/*--------------------------------*- C++ -*----------------------------------*\
| =========                 |                                                 |
| \\      /  F ield         | OpenFOAM: The Open Source CFD Toolbox           |
|  \\    /   O peration     | Version:  2.3.0                                 |
|   \\  /    A nd           | Web:      www.OpenFOAM.org                      |
|    \\/     M anipulation  |                                                 |
\*---------------------------------------------------------------------------*/
FoamFile
{
    version     2.0;
    format      ascii;
    class       volScalarField;
    location    "0.799972";
    object      epsilon.air;
}
// * * * * * * * * * * * * * * * * * * * * * * * * * * * * * * * * * * * * * //

dimensions      [0 2 -3 0 0 0 0];

internalField   nonuniform List<scalar> 
10000
(
330.663
142.692
96.3816
44.6905
7.40107
1.90154
0.929812
0.208669
0.0140811
0.00365955
0.00595339
0.00483869
0.024175
0.224009
1.0729
6.19243
35.6944
85.3475
83.4443
95.9655
3286.44
176.786
287.156
131.255
1.32353
0.0961279
0.216986
0.0148683
0.000745947
0.000311277
0.000270326
0.000300164
0.000879553
0.000977754
0.0154496
2.65012
236.361
76.883
180.683
413.261
18579.2
659.822
2484.95
54.4875
2.23605
0.0103135
0.00770834
0.000683583
0.000640375
0.00117655
0.00196548
0.00282229
0.00452246
0.00408481
0.0976733
2.01358
29.5001
103.95
755.275
906.821
11149.7
4408.97
16213.2
475.109
2.44231
0.0167361
0.00140379
0.00172346
0.00222846
0.0022904
0.00211728
0.00230147
0.00217602
0.00185863
0.0132271
1.77701
28.9851
148.329
4754.45
390.37
9140.48
16973.1
3120.71
2358.88
5.02337
0.016559
0.00174129
0.00193776
0.00234085
0.00241574
0.00222092
0.00249137
0.00243533
0.00215446
0.0105991
2.00117
86.5227
238.073
20390.7
2746.32
4563.48
8083.73
17538.2
3469.25
10.428
0.0128872
0.00163377
0.00184884
0.00229517
0.00239548
0.0021371
0.00244358
0.00238275
0.00211556
0.0106893
4.47206
622.351
251.176
14919.5
20851
2514.69
3050.42
15166.7
4162.58
15.7009
0.0203968
0.00222165
0.00267144
0.00463544
0.00540619
0.00435315
0.00563252
0.00536837
0.00430111
0.0259004
19.2731
5000.88
681.339
357.478
22867.5
1215.88
1292.55
10840.3
4451.73
21.0201
0.0390028
0.0137917
0.0166941
0.0351758
0.0429675
0.0330049
0.0444843
0.0429398
0.0345574
0.0760656
23.7627
5322.31
1868.02
722.986
158.831
1380.78
446.103
5761.1
4812.6
31.1615
0.28444
0.211689
0.191512
0.355096
0.422854
0.301039
0.432277
0.433968
0.379491
0.542743
29.95
5023.89
2349.24
3894.75
93.0274
486.975
576.242
4047.29
4934.72
34.3575
2.31379
1.89127
1.28401
1.96767
2.31096
1.56459
2.36222
2.4911
2.82053
3.8175
34.2703
4372.59
1552.2
22136.9
201.937
65.2985
157.448
2138.64
4206.4
42.4447
3.01949
2.0369
1.65246
1.77967
2.05322
1.86761
2.02699
2.0828
3.49404
3.29457
41.16
3267.32
198.041
19009.2
195.252
5.26814
25.2907
1476.59
2400.07
42.3066
3.32129
2.68361
1.93382
2.2332
3.03767
2.30767
2.86646
2.64767
2.51178
3.16383
14.3489
108.182
824.754
4293.64
108.645
0.430557
3.72121
366.257
1032.48
34.6636
3.50939
3.56877
2.34746
2.75735
7.2166
2.84136
6.56795
5.46337
4.39904
3.69219
50.4511
141.063
11586.9
26051
261.363
0.110657
0.397844
38.2134
592.323
30.8691
8.24972
9.42524
2.76205
2.91434
6.82777
4.5741
6.33037
4.91494
2.4101
4.11897
46.4722
170.122
11356
24043.7
328.237
0.0548541
0.0601615
11.011
714.35
30.8835
9.33752
9.71741
3.15511
2.8215
2.80022
3.67443
5.36292
2.37407
2.28256
4.40088
41.0069
67.1523
127.446
24959.5
585.248
0.0205536
0.0117073
4.979
571.32
32.5015
8.99302
9.20978
5.79597
3.5406
3.39373
3.12924
2.49372
2.33903
2.61629
4.67134
32.9852
38.7676
62.971
18357
2175.84
0.00436321
0.00512245
0.474604
30.1699
28.4708
7.67027
9.11309
5.54586
8.56549
8.26645
4.50141
2.98978
3.1015
3.24683
8.75113
23.091
29.3916
38.8078
12069.3
11463.8
0.00169338
0.00404534
0.224993
4.0297
27.2071
8.4272
8.39247
5.24621
7.58758
7.12279
4.12163
6.234
6.43226
6.40985
7.60847
18.856
23.1618
21.086
8537
6285.87
0.00137356
0.00271235
0.175871
0.611759
23.5586
7.8877
3.14664
2.64526
6.06656
5.29406
1.99037
4.36485
2.50194
2.50437
5.3294
12.6111
13.6818
1.88454
1531.32
2302.88
0.0013464
0.00156103
0.0242247
0.0741939
11.1624
1.56273
1.84292
1.80757
1.7037
1.60173
1.36474
1.46892
1.78
1.78786
4.3623
11.6267
6.46495
0.0533946
56.2427
59.8845
306.819
142.044
93.5917
43.3519
7.29901
1.9713
0.993709
0.226349
0.014917
0.00359265
0.00531351
0.00453373
0.022714
0.220646
1.08782
6.22054
34.7151
84.7603
82.3497
94.0122
2561.52
157.158
168.435
108.203
0.954335
0.127796
0.345655
0.024009
0.000746242
0.000288106
0.0002516
0.000277204
0.000776901
0.000859043
0.0141753
2.18705
104.339
74.0105
163.821
334.011
10413.9
501.505
1304.9
40.5557
2.21688
0.0106461
0.00991952
0.000684679
0.000616231
0.00104889
0.00184071
0.00264758
0.00444457
0.00388822
0.0894349
2.09047
29.0141
96.7782
652.851
704.423
6973.16
2216.55
6116.54
116.914
2.26706
0.0136267
0.00135637
0.0016741
0.0021689
0.00223041
0.00207092
0.00223903
0.00211489
0.00181486
0.0115894
1.8411
27.1376
121.111
2893.78
301.639
5924.98
8381.17
2355.89
654.044
3.02239
0.0132
0.00172225
0.00190777
0.00228942
0.00235978
0.00217903
0.00243274
0.00238088
0.00211616
0.00983512
1.95294
59.549
174.976
10250.6
1641.4
3172.83
5120.98
9190.33
1484.1
5.04481
0.0110821
0.00161057
0.00180683
0.00219166
0.00227111
0.00205016
0.00231232
0.00226159
0.00203506
0.0105796
2.91943
305.469
205.722
5710
8649.31
1890.69
2255.03
8007.7
1999.56
7.88264
0.0170928
0.00204411
0.00241852
0.00395234
0.00453763
0.0037435
0.00471938
0.00451813
0.00369172
0.0207861
8.75133
2145.47
622.107
289.281
8688.94
1002.94
1075.18
6029.99
2310.68
11.7307
0.0313661
0.0115539
0.0143726
0.0296069
0.035962
0.0285649
0.0372052
0.035829
0.0289015
0.0561957
12.1587
2658.97
1732.89
641.976
124.803
956.841
456.516
3563.26
2720.63
21.3461
0.244088
0.179412
0.171979
0.306393
0.365225
0.271511
0.372376
0.370128
0.324784
0.426259
19.2361
2621.01
2167.8
2958.24
77.8682
462.625
395.295
2471.25
2841.56
28.0376
2.4079
1.94185
1.38383
1.9695
2.27125
1.64245
2.31639
2.43786
2.73854
3.58949
28.6272
2221.59
1311.89
11263
136.371
64.1241
154.953
1366.48
2487.72
34.396
3.06516
2.05761
1.66521
1.79324
2.07486
1.88753
2.04726
2.10123
3.26152
3.32092
27.7893
1121.8
105.403
8521.41
137.552
5.28291
23.335
924.957
1543.81
32.149
3.39424
2.72824
1.95092
2.25559
3.06275
2.35067
2.88725
2.66336
2.5259
3.21209
14.234
103.702
269.514
3201.44
100.905
0.525023
3.40462
336.279
745.287
28.5741
3.65226
3.61339
2.38291
2.79821
5.96832
2.92226
5.55309
4.88117
4.04867
3.70877
35.8078
130.077
2188.5
13453.3
206.872
0.188326
0.386804
35.5999
457.243
27.6013
5.19613
6.42589
2.82282
2.96599
5.79706
3.99424
5.492
4.4622
2.42589
4.15525
38.1416
145.959
4677.88
12679.4
265.55
0.108278
0.0546769
8.91799
490.156
29.0291
6.68419
6.62178
3.22497
2.87191
2.84188
3.52432
4.79793
2.38964
2.30111
4.46918
35.2785
67.0152
67.9829
12741.5
489.083
0.0429192
0.0112065
3.47205
462.653
31.2923
6.95289
6.44292
4.8241
3.58411
3.42714
3.12799
2.52221
2.36273
2.64998
4.72651
29.4004
38.8287
34.9884
8904.34
1594.74
0.00777104
0.00534445
0.479209
30.6439
28.3759
7.7727
6.62249
4.57504
6.07473
6.09342
3.93398
3.02304
3.13798
3.28945
6.66034
19.8185
29.5963
19.4172
5334.55
5456.04
0.00203199
0.00403655
0.238007
5.65286
26.9926
8.62634
6.42321
4.40883
5.5931
5.42236
3.64385
5.02355
5.23275
5.17388
5.95546
16.4955
23.4419
10.996
3606.33
2549
0.00139394
0.00270195
0.18274
0.956605
23.6705
8.22136
3.28841
2.73379
4.89606
4.43466
2.02055
3.82406
2.56649
2.57025
4.46956
11.5361
13.9017
1.14495
638.527
849.255
0.00134674
0.00156841
0.0262942
0.0768952
11.3789
2.56534
2.11972
2.0257
1.88423
1.73552
1.41268
1.54433
2.02305
2.02667
3.43791
10.2767
6.48947
0.0503024
39.5436
37.6848
282.466
140.151
89.612
41.369
7.17716
2.02235
1.03633
0.234414
0.0153263
0.003583
0.0048922
0.00435771
0.0219908
0.215052
1.09178
6.16972
34.0183
80.3512
78.1628
90.7385
1877.83
138.12
101.947
77.6799
0.823778
0.155465
0.491181
0.034938
0.000722773
0.000276609
0.00024233
0.000265884
0.000726994
0.0008101
0.0136414
1.90953
62.1554
69.5962
143.236
254.264
6042.88
374.03
576.52
34.5611
2.12716
0.0107056
0.0109165
0.000676617
0.000597538
0.000951068
0.00172535
0.00247703
0.00425617
0.00378628
0.0834109
2.16655
28.2782
86.7864
540.67
485.666
4478.28
1321.17
2277.23
59.0615
2.16193
0.0124348
0.00131864
0.00162704
0.00209581
0.00215333
0.00200853
0.00216109
0.00204528
0.00176899
0.0108973
1.87507
25.9479
98.337
1961.87
229.453
3945.14
4227.34
1669.17
200.609
2.50495
0.0120848
0.0016926
0.00186653
0.0022205
0.00228391
0.00211737
0.00235257
0.00230698
0.00206264
0.00953626
1.9424
44.0555
123.668
5285.76
877.257
2255.43
3300.48
4959.2
648.873
3.28615
0.0103965
0.00158838
0.00177347
0.00213552
0.00220914
0.00200074
0.0022472
0.00220129
0.00198928
0.0106691
2.4395
153.392
161.24
2185.85
3557.23
1449.9
1674.74
4348.16
1003.44
5.06748
0.0158287
0.00197485
0.00231834
0.00369076
0.00420835
0.00350694
0.00437333
0.00419621
0.00345979
0.0193476
5.1528
918.613
520.523
237.028
3339.92
838.293
885.16
3449.93
1255.46
7.98116
0.0285293
0.0107413
0.013491
0.0275206
0.0333177
0.0268593
0.0344609
0.0331747
0.0268065
0.0501981
7.56061
1379.09
1484.7
540.37
101.03
724.631
443.817
2279.22
1602.8
15.7328
0.224934
0.163969
0.160912
0.274368
0.322707
0.250495
0.328561
0.326635
0.290716
0.369797
13.4982
1412
1837.55
2101.76
66.399
416.703
326.85
1566.92
1702.8
23.3707
2.57225
2.03367
1.49315
2.01502
2.2965
1.74267
2.33951
2.46128
2.75269
3.53982
23.5264
1156.11
918.741
5903.12
95.9192
60.0607
145.896
905.691
1528.87
29.706
3.15486
2.09415
1.68771
1.81739
2.1132
1.92258
2.08329
2.13455
3.14017
3.38802
21.656
420.962
53.5624
3998.33
101.556
4.96165
20.6429
616.393
1023.39
28.4406
3.53236
2.80752
1.98079
2.29596
3.12232
2.42514
2.93469
2.69601
2.55412
3.29988
14.7403
99.8005
81.3553
2236.8
93.8151
0.551483
2.89831
285.946
549.805
27.2285
3.96375
3.75745
2.44474
2.87444
5.25942
3.07752
4.96506
4.5216
3.82965
3.76379
28.2491
121.003
437.222
7186.7
166.58
0.212379
0.363167
32.0879
360.133
26.9313
4.4338
5.14714
2.93265
3.06245
5.19775
3.72591
4.98962
4.18199
2.45597
4.23326
33.541
126.62
995.719
6878.35
212.981
0.120677
0.0508148
7.31754
354.04
28.3168
5.75471
5.29588
3.36587
2.96329
2.91964
3.39641
4.45234
2.41966
2.33467
4.60061
32.2718
66.9089
36.9183
6674.42
392.662
0.0503594
0.0114868
2.55801
333.613
30.4011
6.33073
5.22006
4.39604
3.71283
3.52252
3.14534
2.57494
2.40551
2.7107
4.87153
27.4025
39.0041
19.8933
4404.37
1093.59
0.0106281
0.00589013
0.488975
31.623
28.6051
7.98541
5.44825
4.25675
4.96162
5.05341
3.66278
3.09938
3.21914
3.38775
5.62416
17.9693
30.0254
9.92692
2429.99
2681.94
0.00289926
0.00399385
0.260724
7.96384
27.0284
8.97909
5.43857
4.04087
4.6645
4.59022
3.41596
4.38435
4.58128
4.51326
5.11396
15.1617
23.9891
5.65873
1594.56
1065.96
0.00159107
0.00265322
0.19604
1.77143
23.8704
8.77019
3.53971
2.88995
4.39721
4.04814
2.07661
3.57013
2.68055
2.68732
4.10037
11.0495
14.3231
0.749223
340.109
362.289
0.00138508
0.00157341
0.0308792
0.0821894
11.7564
4.14843
2.61045
2.41034
2.20111
1.97035
1.49707
1.67667
2.44914
2.44726
3.07675
9.70439
6.55836
0.0289828
7.48291
4.50279
266.996
140.239
88.5129
40.5046
7.10089
2.10405
1.10598
0.251838
0.016183
0.00361703
0.00457126
0.00421474
0.0210232
0.212434
1.09955
6.15664
33.7331
77.5712
76.4926
89.4892
1354.95
124.079
72.6963
54.3271
0.742783
0.215474
0.822481
0.0598293
0.00071402
0.000264272
0.000232104
0.000253168
0.000665719
0.0007321
0.0126109
1.67827
45.3343
64.5135
122.908
199.157
3654.67
287.444
251.443
31.9351
2.03509
0.010969
0.0131734
0.000672558
0.000588114
0.000884962
0.00165934
0.00238455
0.00417987
0.00376507
0.0782464
2.24496
27.6442
75.6505
436.228
336.31
3004.5
810.739
925.577
41.298
2.05516
0.010648
0.00129189
0.0015998
0.00206359
0.00212058
0.00198261
0.00212763
0.00201425
0.00174799
0.00965565
1.91395
25.3971
79.4403
1339.54
184.024
2748.65
2266.78
1175.11
92.6231
2.31937
0.0107213
0.00168103
0.00184932
0.00219124
0.00225201
0.00209225
0.00231886
0.00227575
0.00204036
0.00914476
1.96072
36.3327
87.7716
2789.16
471.424
1680.44
2191.53
2754.68
292.474
2.6063
0.00924502
0.00157816
0.00175474
0.002081
0.00214325
0.0019565
0.00217759
0.0021365
0.00194814
0.0107825
2.26674
90.2201
121.337
889.127
1466.68
1159.34
1287.38
2441.19
528.541
3.83071
0.01356
0.00187626
0.00217144
0.00330233
0.00371965
0.00314811
0.0038594
0.00371826
0.00311609
0.0166525
3.61167
400.927
398.911
199.523
1331.36
720.686
738.383
2051.6
718.583
6.13363
0.0242593
0.00955178
0.0121345
0.0246121
0.0297626
0.0243435
0.0307888
0.0296177
0.0238996
0.0425371
5.26855
740.757
1158.41
444.393
83.7045
592.454
416.285
1529.03
989.634
12.2376
0.1892
0.136505
0.142678
0.237169
0.277833
0.224875
0.28201
0.277805
0.245113
0.289246
9.98175
786.228
1407.26
1464.26
58.4443
364.94
294.862
1046.45
1067.85
21.9005
2.76641
2.14951
1.59707
2.08941
2.36599
1.8468
2.40977
2.53745
2.83365
3.60685
21.1695
622.625
471.371
3192.05
69.8609
55.4212
133.908
635.187
983.565
28.0805
3.26704
2.13658
1.71368
1.84548
2.15777
1.96293
2.12523
2.17373
3.09727
3.4794
19.6944
207.606
31.3865
2033.67
80.0367
4.58893
18.2693
440.887
709.376
28.2613
3.69884
2.90562
2.01489
2.34632
3.20967
2.50985
3.00303
2.74068
2.59149
3.40872
15.7722
96.8737
31.6184
1537.92
86.3287
0.517719
2.46672
230.765
423.424
28.0576
4.34894
3.98549
2.51536
2.97209
4.91566
3.26717
4.67186
4.3284
3.71104
3.84875
25.056
114.248
80.589
3962.02
137.319
0.188443
0.342179
28.849
293.867
27.5378
4.64232
4.75677
3.06078
3.18636
4.89954
3.65772
4.72963
4.03295
2.49441
4.33717
31.4574
114.528
123.022
3862.7
174.459
0.0943048
0.0492085
6.26905
271.288
28.336
5.73565
4.8901
3.54128
3.07743
3.01879
3.35841
4.27027
2.45848
2.37622
4.76767
31.0344
66.7942
22.1912
3583.41
312.283
0.0387302
0.0128491
2.04711
235.803
30.0143
6.4081
4.82745
4.29294
3.91265
3.66996
3.18848
2.64175
2.45879
2.78626
5.08635
26.5183
39.2464
11.8339
2223.34
734.993
0.0107809
0.00696057
0.511186
33.0483
28.9703
8.28139
5.02356
4.26729
4.59642
4.66314
3.58338
3.20908
3.3343
3.52934
5.21345
17.0973
30.588
5.2472
1153.37
1359.39
0.00363821
0.00434132
0.290163
10.5831
27.197
9.386
5.04526
3.96148
4.35639
4.28532
3.35152
4.11542
4.29255
4.22968
4.77782
14.5496
24.68
3.00102
755.11
463.484
0.00201838
0.002756
0.214291
3.02859
24.1049
9.36476
3.82833
3.06771
4.28971
3.95163
2.14317
3.50134
2.81011
2.82084
4.028
10.9451
14.8477
0.422546
179.643
138.187
0.0014978
0.00165357
0.0387933
0.102284
12.1863
5.87103
3.18733
2.85993
2.57064
2.24354
1.5946
1.8299
2.94699
2.94037
3.11581
9.61909
6.66008
0.0318045
0.868388
0.463265
253.913
140.466
88.1471
39.6316
7.00103
2.20944
1.18348
0.263067
0.0166917
0.00362687
0.00408055
0.00397228
0.0200391
0.206289
1.10431
6.1458
33.3418
74.9224
74.7378
88.2894
974.345
114.674
61.9287
42.2396
0.703668
0.315774
1.47523
0.114022
0.000683393
0.000253807
0.000223327
0.000242593
0.000618034
0.000688634
0.0120126
1.51095
37.0622
58.504
104.326
165.236
2313.68
232.798
158.007
30.78
1.91626
0.0110382
0.0147806
0.000664496
0.000576262
0.000807537
0.00156479
0.00224778
0.00401917
0.00363357
0.0709923
2.31824
27.1057
65.1646
345.791
251.458
2098.54
525.165
454.145
34.6376
1.92965
0.00979134
0.00125471
0.00155639
0.00199863
0.00205326
0.001929
0.00205921
0.00195194
0.00170726
0.00899765
1.94703
25.1893
63.9485
907.937
157.956
1993.27
1338.91
825.237
59.8604
2.19541
0.0101795
0.00165687
0.00181304
0.00212959
0.00218517
0.00203886
0.00224804
0.00221003
0.00199305
0.00893414
1.98121
32.4573
63.6896
1498.78
279.043
1305.38
1486.59
1573.11
148.613
2.33251
0.00853222
0.0015585
0.00172201
0.00202531
0.00208245
0.00190812
0.00211393
0.00207727
0.00190302
0.0107514
2.21862
61.4864
88.5148
419.769
632.962
957.809
1014.24
1423.16
296.201
3.28022
0.0121957
0.00182587
0.00209542
0.00310864
0.00347661
0.00296907
0.00360377
0.00348052
0.002945
0.0153424
2.96512
196.513
283.391
170.658
568.084
632.057
621.476
1274.6
436.93
5.18177
0.0222631
0.00899591
0.011481
0.0231981
0.0280245
0.0231121
0.0289956
0.027893
0.0225122
0.0388779
4.08613
413.678
805.154
361.949
73.0405
506.806
383.968
1066.66
641.994
9.98966
0.164932
0.116747
0.128391
0.203912
0.236308
0.201234
0.238997
0.233543
0.20422
0.228142
7.61145
454.099
934.17
1014.81
53.2535
317.362
272.96
731.86
703.304
22.2708
2.92072
2.26429
1.66946
2.17066
2.4518
1.92335
2.49796
2.63415
2.94288
3.72392
20.3402
355.962
181.637
1774.6
52.5098
50.683
121.243
467.798
664.192
28.3313
3.35797
2.16926
1.73337
1.8671
2.19207
1.99348
2.15753
2.20413
3.09754
3.55563
19.473
133.535
22.7605
1152.78
64.8665
4.12587
16.1441
331.583
513.646
29.399
3.82913
3.00015
2.04045
2.39497
3.30423
2.57335
3.07597
2.78638
2.62833
3.50985
17.0306
94.3986
22.0497
1056.47
76.3949
0.395027
2.12803
182.641
339.069
29.4317
4.65493
4.23952
2.56838
3.06903
4.80437
3.41718
4.56993
4.25153
3.66378
3.93445
24.249
109.165
32.0867
2254.23
108.556
0.0945225
0.316505
26.0078
247.241
28.4266
5.05221
4.79715
3.15839
3.3098
4.79819
3.68392
4.63285
3.97655
2.53119
4.43421
30.9097
106.732
33.319
2237.97
144.825
0.0323779
0.0465664
5.57355
218.715
28.6383
6.03677
4.93283
3.68109
3.18773
3.11591
3.37936
4.20203
2.49625
2.41537
4.92386
30.8584
66.3672
15.2127
1961.75
245.385
0.0140953
0.0138896
1.7563
173.889
29.9862
6.70469
4.85058
4.33556
4.133
3.83214
3.23753
2.70676
2.50993
2.85882
5.31126
26.3509
39.4681
6.68929
1143.82
483.186
0.00706138
0.00805776
0.539441
34.7776
29.2807
8.55357
4.99313
4.37199
4.6117
4.62263
3.59853
3.32597
3.45658
3.68082
5.14222
16.8494
31.1518
2.66294
561.376
696.514
0.00392846
0.00496062
0.321658
13.2708
27.3667
9.69437
4.97754
4.00265
4.37262
4.26951
3.36732
4.06513
4.22405
4.17111
4.72263
14.4026
25.3567
1.31835
336.802
176.122
0.00247661
0.00293035
0.233165
4.53385
24.2877
9.79013
4.04418
3.1994
4.34973
3.98716
2.19445
3.52097
2.90606
2.92
4.08333
11.0175
15.348
0.198722
36.7744
22.5321
0.00167035
0.00177316
0.0506236
0.198543
12.5087
7.2206
3.64061
3.21041
2.85587
2.45373
1.66884
1.94705
3.33817
3.32911
3.28894
9.74333
6.76815
0.039356
0.143372
0.0883915
244.719
141.493
88.3788
39.2971
6.91612
2.35283
1.27048
0.27817
0.0174279
0.00365989
0.0037827
0.00384446
0.0191129
0.201784
1.10729
6.1344
33.0637
72.6159
73.3942
87.7317
713.787
108.831
57.6159
36.1513
0.728857
0.520069
3.0259
0.252863
0.000658186
0.000244854
0.000215813
0.000233138
0.000568004
0.000621423
0.0109622
1.36144
31.9999
51.9766
88.1562
143.548
1541.36
198.649
122.724
30.2897
1.78362
0.0113646
0.0170468
0.000656885
0.000566674
0.000755043
0.00150642
0.00217
0.00393603
0.00361952
0.0650357
2.38235
26.5915
56.0583
271.441
205.699
1521.26
377.148
281.652
31.9291
1.78854
0.0087308
0.00123097
0.00153056
0.00196754
0.00202168
0.00190393
0.00202708
0.00192253
0.00168787
0.00779698
1.9674
25.1425
51.4954
609.052
143.971
1497.19
867.638
577.746
47.0143
2.0997
0.0096472
0.00164563
0.00179599
0.00210047
0.00215366
0.00201382
0.00221463
0.00217897
0.00197073
0.00848529
1.99582
30.4537
47.9977
824.036
192.182
1052.22
1035.76
931.537
92.4325
2.22208
0.00761004
0.00154925
0.00170606
0.00198381
0.00203312
0.00187483
0.00206175
0.00202839
0.00187133
0.0103922
2.20494
47.736
64.3149
238.04
314.119
811.943
811.78
871.904
181.933
3.0301
0.00997964
0.00174661
0.0019754
0.00279518
0.0030837
0.00267601
0.00318985
0.00309494
0.0026669
0.0131612
2.69759
114.577
190.484
146.87
280.671
563.288
526.07
834.59
285.614
4.67344
0.0193156
0.00821663
0.0104857
0.0212672
0.0257387
0.0213149
0.0266604
0.0256742
0.0207282
0.0340261
3.45213
244.937
492.789
294.029
71.4715
445.84
350.878
768.368
439.535
8.40701
0.143474
0.099644
0.115457
0.179417
0.206706
0.183557
0.208616
0.202566
0.174875
0.185234
5.81869
276.493
538.214
704.406
50.8636
277.285
253.379
533.691
488.841
19.0437
7.6819e-05
2.32012
7.6819e-05
2.21572
2.50278
7.6819e-05
2.55081
2.69222
3.00642
3.78452
20.3154
221.754
65.7488
1025.77
42.1365
45.9385
108.684
359.017
472.351
19.927
7.6819e-05
7.6819e-05
7.6819e-05
7.6819e-05
7.6819e-05
7.6819e-05
7.6819e-05
7.6819e-05
7.6819e-05
7.6819e-05
10.9486
102.636
18.2434
716.939
52.0728
3.59842
14.206
258.741
388.661
29.4507
7.6819e-05
3.06308
7.6819e-05
2.42701
3.37437
7.6819e-05
3.12857
2.81714
2.65093
3.56549
18.0663
92.0989
17.9452
728.729
63.2433
0.258867
1.85115
145.19
281.011
30.5958
7.6819e-05
4.43138
7.6819e-05
3.13516
4.81351
7.6819e-05
4.56976
4.24267
3.65879
3.97697
24.4365
104.864
22.2346
1324.02
85.6036
0.0360226
0.288097
23.5126
213.982
30.8263
7.6819e-05
4.96994
7.6819e-05
3.39425
4.80233
7.6819e-05
4.62611
3.97419
2.55236
4.47716
31.0968
101.097
21.1803
1331.67
118.805
0.010734
0.0430818
5.09852
184.103
33.841
7.6819e-05
5.11172
7.6819e-05
3.25991
3.17927
7.6819e-05
4.20003
2.51929
2.43852
5.00487
31.1529
65.5627
10.6503
1084.44
188.1
0.0065031
0.0141796
1.59955
137.067
39.1853
7.6819e-05
5.00396
7.6819e-05
4.29559
3.95073
7.6819e-05
2.74853
2.54251
2.90516
5.45236
26.5306
39.568
4.04704
588.82
296.015
0.0050936
0.00865836
0.568413
36.6635
47.1555
7.6819e-05
5.10245
7.6819e-05
4.75294
4.71594
7.6819e-05
3.40966
3.54447
3.78996
5.19391
16.9132
31.5801
1.31571
249.432
335.382
0.00403856
0.00524501
0.349229
15.8885
55.5041
7.6819e-05
5.038
7.6819e-05
4.4957
4.36003
7.6819e-05
4.10953
4.2565
4.21092
4.76857
14.4857
25.8662
0.517625
84.5316
36.2867
0.00278721
0.00305754
0.247939
6.2482
52.8218
7.6819e-05
7.6819e-05
7.6819e-05
7.6819e-05
7.6819e-05
7.6819e-05
7.6819e-05
7.6819e-05
7.6819e-05
7.6819e-05
25.3434
15.6927
0.158902
1.86766
0.905501
0.00167722
0.00187184
0.0635196
0.548447
28.6374
0.000263065
0.000263065
0.000263065
0.000263065
0.000263065
0.000263065
0.000263065
0.000263065
0.000263065
0.000263065
22.2511
6.84046
0.050016
0.0098582
0.0121119
237.958
142.993
88.8674
39.2617
6.83477
2.54894
1.34887
0.2885
0.0179513
0.00365858
0.00334473
0.00358626
0.0180007
0.195318
1.10837
6.11575
32.8399
70.4706
72.24
87.5758
535.719
105.896
56.059
33.0097
0.820504
0.996016
5.5233
0.484813
0.000611844
0.000235573
0.000207881
0.000223696
0.000524615
0.00058345
0.0103043
1.21716
28.4878
45.8173
74.6222
127.274
1085.35
176.671
105.967
30.1461
1.6451
0.0116374
0.017981
0.000636955
0.000554049
0.000691664
0.00141944
0.00205016
0.00377317
0.00350248
0.0573693
2.43637
26.0674
48.2164
214.348
180.9
1140.16
296.173
204.821
30.9053
1.64455
0.00822623
0.00120052
0.00149078
0.00190785
0.00195989
0.00185438
0.00196446
0.00186604
0.00165167
0.0070741
1.97306
25.1732
42.2478
401.256
137.33
1158.44
608.155
409.599
41.2732
2.02966
0.00937426
0.00162269
0.00176125
0.00204155
0.00209026
0.00196268
0.00214723
0.00211603
0.00192485
0.00812105
2.00264
29.3623
37.8891
466.93
154.589
876.074
746.486
584.494
69.1806
2.18384
0.00709787
0.00153164
0.00167583
0.00193172
0.00197699
0.00182994
0.00200322
0.00197352
0.00182861
0.00968852
2.18093
40.6215
48.0464
158.299
197.182
702.469
655.713
571.224
125.81
2.90584
0.00863662
0.00170708
0.00191539
0.00263951
0.00288865
0.00253067
0.00298419
0.00290325
0.00252856
0.0118498
2.52101
78.4138
125.123
126.535
183.24
509.485
447.337
580.35
202.779
4.19069
0.0169718
0.00698808
0.00888856
0.0180124
0.0217937
0.0181595
0.0226109
0.021818
0.0176792
0.0290094
2.97076
157.615
269.14
239.512
78.2866
399.746
318.563
569.81
319.261
7.4903
0.136869
0.0948567
0.110307
0.171825
0.197754
0.17701
0.199704
0.194054
0.167787
0.176283
4.96704
181.103
273.733
490.727
55.9401
244.549
234.047
405.013
360.201
32.4239
7.6819e-05
7.6819e-05
7.6819e-05
7.6819e-05
7.6819e-05
7.6819e-05
7.6819e-05
7.6819e-05
7.6819e-05
7.6819e-05
25.0527
152.252
33.3788
623.711
36.8696
41.2474
96.5753
284.831
354.742
30.0301
7.6819e-05
7.6819e-05
7.6819e-05
7.6819e-05
7.6819e-05
7.6819e-05
7.6819e-05
7.6819e-05
7.6819e-05
7.6819e-05
18.5967
86.9
15.6866
474.035
40.2637
3.0917
12.422
207.7
307.647
41.403
7.6819e-05
7.6819e-05
7.6819e-05
7.6819e-05
7.6819e-05
7.6819e-05
7.6819e-05
7.6819e-05
7.6819e-05
7.6819e-05
15.6448
89.7326
15.508
506.245
48.132
0.175212
1.61265
117.364
240.152
41.0504
7.6819e-05
7.6819e-05
7.6819e-05
7.6819e-05
7.6819e-05
7.6819e-05
7.6819e-05
7.6819e-05
7.6819e-05
7.6819e-05
16.9837
100.752
17.6749
799.573
66.1694
0.0151928
0.258824
21.3406
190.367
40.4055
7.6819e-05
7.6819e-05
7.6819e-05
7.6819e-05
7.6819e-05
7.6819e-05
7.6819e-05
7.6819e-05
7.6819e-05
7.6819e-05
20.2313
96.4251
16.2264
807.204
92.3284
0.00438968
0.0390114
4.79705
160.781
41.9238
7.6819e-05
7.6819e-05
7.6819e-05
7.6819e-05
7.6819e-05
7.6819e-05
7.6819e-05
7.6819e-05
7.6819e-05
7.6819e-05
21.143
64.3785
7.84439
589.745
131.21
0.00318341
0.0138259
1.53174
115.293
46.0712
7.6819e-05
7.6819e-05
7.6819e-05
7.6819e-05
7.6819e-05
7.6819e-05
7.6819e-05
7.6819e-05
7.6819e-05
7.6819e-05
20.303
39.4417
2.93334
271.749
162.046
0.00303033
0.00875768
0.599954
38.5718
52.6109
7.6819e-05
7.6819e-05
7.6819e-05
7.6819e-05
7.6819e-05
7.6819e-05
7.6819e-05
7.6819e-05
7.6819e-05
7.6819e-05
22.8833
31.7463
0.91161
66.0852
130.538
0.00303076
0.00512756
0.365045
18.2621
59.1042
7.6819e-05
7.6819e-05
7.6819e-05
7.6819e-05
7.6819e-05
7.6819e-05
7.6819e-05
7.6819e-05
7.6819e-05
7.6819e-05
25.6618
26.0817
0.389045
7.35647
2.70496
0.00239061
0.00307824
0.253354
7.74443
55.7433
7.6819e-05
7.6819e-05
7.6819e-05
7.6819e-05
7.6819e-05
7.6819e-05
7.6819e-05
7.6819e-05
7.6819e-05
7.6819e-05
23.5628
15.747
0.164033
0.0576494
0.0296602
0.00152492
0.00194552
0.0734911
0.647433
30.5011
0.000263065
0.000263065
0.000263065
0.000263065
0.000263065
0.000263065
0.000263065
0.000263065
0.000263065
0.000263065
20.5029
6.78104
0.0489631
0.00264601
0.00315898
232.815
145.028
89.5561
39.3753
6.74855
2.82176
1.39336
0.293526
0.0185618
0.00365593
0.00304136
0.00343611
0.0170345
0.189115
1.10756
6.0904
32.6534
68.5583
71.2907
87.7763
419.646
105.222
56.0492
31.319
0.959036
2.36769
5.94456
0.532989
0.000578059
0.000228564
0.000202092
0.000216353
0.000482564
0.000525118
0.00924425
1.07969
25.8652
40.5165
63.2745
116.435
802.455
162.473
97.4402
30.2168
1.51589
0.0122956
0.010971
0.000614183
0.000543284
0.00064937
0.00136497
0.00198259
0.0036816
0.00348449
0.050482
2.47986
25.5331
41.9176
167.912
167.343
880.573
247.671
163.865
30.7043
1.53995
0.00768855
0.00118545
0.00146634
0.00187832
0.00192985
0.0018304
0.00193403
0.00183857
0.001634
0.0059156
1.95628
25.2551
36.0151
261.384
135.135
918.109
454.209
300.72
38.6939
1.98864
0.00895655
0.00161167
0.00174441
0.00201273
0.00205924
0.00193779
0.00211421
0.00208518
0.00190247
0.00753947
1.98944
28.7331
31.6235
275.131
140.004
749.832
558.87
399.163
58.7878
2.17592
0.00630816
0.00152316
0.00166106
0.00189769
0.00193738
0.00180298
0.00196132
0.00193407
0.00180241
0.00890296
2.12016
36.6263
37.4574
117.301
156.181
618.772
532.469
405.759
98.0716
2.82188
0.00677993
0.00165231
0.00183127
0.00242297
0.00261898
0.00232762
0.00269893
0.00263606
0.00233385
0.0101119
2.37346
60.5398
82.0091
108.872
150.343
466.419
382.184
430.392
156.808
3.81717
0.0147796
0.00637711
0.00809608
0.0164086
0.0198589
0.0166126
0.020626
0.0199281
0.0161802
0.0251596
2.63501
111.345
140.426
196.584
92.6971
363.588
287.482
435.959
246.921
6.75594
0.126419
0.0872337
0.101515
0.160908
0.185771
0.16642
0.187958
0.182934
0.158272
0.164607
4.39084
128.834
132.044
342.362
70.9897
217.759
214.673
319.631
282.084
42.3757
7.6819e-05
7.6819e-05
7.6819e-05
7.6819e-05
7.6819e-05
7.6819e-05
7.6819e-05
7.6819e-05
7.6819e-05
7.6819e-05
28.4589
114.504
23.4759
398.915
35.8487
36.6986
85.1091
232.197
281.72
41.3712
7.6819e-05
7.6819e-05
7.6819e-05
7.6819e-05
7.6819e-05
7.6819e-05
7.6819e-05
7.6819e-05
7.6819e-05
7.6819e-05
23.396
77.3246
14.475
326.43
30.2626
2.64527
10.785
170.441
254.79
49.9598
7.6819e-05
7.6819e-05
7.6819e-05
7.6819e-05
7.6819e-05
7.6819e-05
7.6819e-05
7.6819e-05
7.6819e-05
7.6819e-05
21.1771
87.194
14.0467
351.434
35.9415
0.132565
1.40256
96.7588
211.413
48.9965
7.6819e-05
7.6819e-05
7.6819e-05
7.6819e-05
7.6819e-05
7.6819e-05
7.6819e-05
7.6819e-05
7.6819e-05
7.6819e-05
22.2161
96.6044
14.9238
491.418
47.7419
0.011611
0.229031
19.4568
173.766
48.0919
7.6819e-05
7.6819e-05
7.6819e-05
7.6819e-05
7.6819e-05
7.6819e-05
7.6819e-05
7.6819e-05
7.6819e-05
7.6819e-05
24.1499
92.1702
13.2461
489.669
64.0626
0.00463977
0.0346905
4.61605
144.937
48.7375
7.6819e-05
7.6819e-05
7.6819e-05
7.6819e-05
7.6819e-05
7.6819e-05
7.6819e-05
7.6819e-05
7.6819e-05
7.6819e-05
24.1829
62.8995
6.56397
294.592
73.9358
0.00229683
0.0130016
1.51812
102.241
51.9317
7.6819e-05
7.6819e-05
7.6819e-05
7.6819e-05
7.6819e-05
7.6819e-05
7.6819e-05
7.6819e-05
7.6819e-05
7.6819e-05
22.4993
39.0628
2.66849
86.7707
72.1675
0.00195164
0.00825009
0.626144
40.48
57.262
7.6819e-05
7.6819e-05
7.6819e-05
7.6819e-05
7.6819e-05
7.6819e-05
7.6819e-05
7.6819e-05
7.6819e-05
7.6819e-05
24.2918
31.595
0.919157
6.26797
24.235
0.00184936
0.00472406
0.366605
20.5162
62.2405
7.6819e-05
7.6819e-05
7.6819e-05
7.6819e-05
7.6819e-05
7.6819e-05
7.6819e-05
7.6819e-05
7.6819e-05
7.6819e-05
24.929
25.9372
0.406766
0.189333
0.13049
0.0017506
0.0030117
0.245967
9.20825
58.5147
7.6819e-05
7.6819e-05
7.6819e-05
7.6819e-05
7.6819e-05
7.6819e-05
7.6819e-05
7.6819e-05
7.6819e-05
7.6819e-05
22.2019
15.5349
0.170988
0.00770749
0.0111192
0.00141504
0.00198642
0.0790034
0.776165
32.6192
0.000263065
0.000263065
0.000263065
0.000263065
0.000263065
0.000263065
0.000263065
0.000263065
0.000263065
0.000263065
19.2021
6.61294
0.045533
0.00216051
0.00282677
229.615
147.595
90.4078
39.5649
6.65268
3.23768
1.44805
0.299051
0.0190173
0.00359125
0.00267419
0.00317116
0.0158423
0.181863
1.10395
6.05893
32.4968
66.8677
70.5115
88.2384
342.499
106.925
57.4568
30.347
1.16413
7.45136
6.14262
0.561002
0.000536442
0.000220308
0.000195054
0.000208065
0.000443917
0.000492448
0.00856042
0.954222
23.7998
36.3967
53.8695
110.077
618.651
154.313
94.106
30.4522
1.4008
0.0131201
0.00865789
0.000591082
0.000525833
0.000597168
0.00128369
0.00187427
0.00351716
0.00337793
0.0425989
2.51193
25.007
37.4556
128.776
160.016
697.331
216.532
141.06
30.9689
1.5
0.00740106
0.00116198
0.00142943
0.00182331
0.00187279
0.00178434
0.00187637
0.00178722
0.00160182
0.00524118
1.90405
25.3942
32.4804
171.859
135.697
740.361
357.709
234.519
37.7765
1.9686
0.00847151
0.00158953
0.00171093
0.00195589
0.00199835
0.0018883
0.00204925