/*--------------------------------*- C++ -*----------------------------------*\
| =========                 |                                                 |
| \\      /  F ield         | OpenFOAM: The Open Source CFD Toolbox           |
|  \\    /   O peration     | Version:  2.3.0                                 |
|   \\  /    A nd           | Web:      www.OpenFOAM.org                      |
|    \\/     M anipulation  |                                                 |
\*---------------------------------------------------------------------------*/
FoamFile
{
    version     2.0;
    format      ascii;
    class       volVectorField;
    location    "0.799972";
    object      U;
}
// * * * * * * * * * * * * * * * * * * * * * * * * * * * * * * * * * * * * * //

dimensions      [0 1 -1 0 0 0 0];

internalField   nonuniform List<vector> 
10000
(
(-0.270669 -0.940257 -0.620725)
(0.00149733 -1.10302 -0.632153)
(0.0865498 -1.03231 -0.621503)
(0.183522 -0.66475 -0.404184)
(0.24456 -0.394949 -0.258417)
(0.264204 -0.297665 -0.231355)
(0.186722 -0.117534 -0.174903)
(0.0334586 -0.125716 -0.209092)
(0.0196328 -0.148253 -0.180951)
(0.000881541 -0.159438 -0.171162)
(-0.00151438 -0.152811 -0.166903)
(-0.00644754 -0.156034 -0.169496)
(-0.0187205 -0.157561 -0.18848)
(-0.072247 -0.165795 -0.243561)
(-0.178462 -0.23795 -0.267414)
(-0.171155 -0.427313 -0.243163)
(-0.1985 -0.627744 -0.363826)
(-0.0645193 -1.10312 -0.602428)
(0.023411 -1.0657 -0.637203)
(0.25188 -0.851323 -0.537226)
(0.00704333 -0.884138 -0.065639)
(-0.00470087 -1.18465 -0.0886932)
(-0.0108047 -1.14199 -0.081157)
(0.000297094 -0.527817 -0.00636207)
(0.0459876 -0.176763 -0.2223)
(0.0231451 -0.0730256 -0.342729)
(-0.0463658 -0.0744512 -0.288428)
(-0.159673 -0.0780257 -0.300907)
(0.00555276 -0.104761 -0.224658)
(-0.00500744 -0.113259 -0.214527)
(4.88253e-07 -0.110417 -0.219915)
(-0.00218519 -0.110193 -0.218834)
(-0.00151454 -0.0953473 -0.246634)
(-0.00721441 -0.071246 -0.329743)
(0.004923 -0.0642553 -0.452856)
(-0.0127761 -0.381321 -0.0433517)
(-0.0111747 -0.260631 0.0074271)
(0.0233515 -1.27092 -0.0783232)
(0.00547709 -1.11873 -0.0949617)
(-0.021548 -0.716373 -0.0277167)
(-0.00715348 -0.812197 0.0134659)
(0.0114764 -1.1856 -0.025122)
(0.00116717 -1.10898 -0.0233935)
(-0.0141032 -0.711057 -0.0336428)
(0.0107354 -0.283659 -0.118377)
(0.00647259 -0.135698 -0.172977)
(-0.000619575 -0.098903 -0.206893)
(0.000603139 -0.110072 -0.204274)
(0.000614421 -0.130625 -0.184237)
(0.000179356 -0.129638 -0.178278)
(8.23908e-05 -0.124877 -0.186288)
(-0.00041372 -0.130246 -0.180111)
(-0.000167122 -0.129132 -0.184134)
(-0.000556627 -0.116718 -0.195196)
(0.00496746 -0.144736 -0.162189)
(-0.0118918 -0.396737 -0.0463426)
(0.000541722 -0.641352 -0.0457488)
(0.0131738 -1.33547 -0.0371732)
(-0.00549408 -1.04414 -0.00867038)
(-0.0117659 -0.640947 -0.0148218)
(-0.00973364 -0.658533 0.0670318)
(0.0278965 -1.06474 -0.00487356)
(0.00540989 -0.952761 0.00142867)
(-0.0158008 -0.693839 -0.000685959)
(0.0042757 -0.299009 -0.0968386)
(0.00227944 -0.110514 -0.221189)
(0.000151067 -0.0965033 -0.248671)
(0.00066211 -0.103193 -0.232741)
(0.000137376 -0.116669 -0.207431)
(-0.000191095 -0.1204 -0.202239)
(-0.000181954 -0.115465 -0.211311)
(-0.000118732 -0.119702 -0.204125)
(0.000148039 -0.115572 -0.210974)
(0.000278016 -0.106456 -0.2294)
(0.00655304 -0.124552 -0.195036)
(0.00431419 -0.323446 -0.0788249)
(-0.00288383 -0.746551 -0.0209358)
(-0.00509211 -1.35882 -0.0249098)
(-0.0109342 -0.977788 -0.0040482)
(-0.018731 -0.965543 -0.0498264)
(0.0185261 -0.604502 0.0766011)
(0.021742 -0.840309 0.0267136)
(0.00122587 -0.973203 -0.00565361)
(-0.0165334 -0.542068 0.0053426)
(0.00285819 -0.304062 -0.0857884)
(-0.00120648 -0.109755 -0.223056)
(0.000115976 -0.0963963 -0.251411)
(-8.23096e-05 -0.102651 -0.23733)
(-6.50138e-05 -0.115266 -0.211875)
(4.44649e-05 -0.118286 -0.20619)
(-0.000100448 -0.113668 -0.214294)
(-0.000256476 -0.118748 -0.205293)
(-1.71051e-07 -0.115662 -0.211154)
(5.53647e-05 -0.107002 -0.228981)
(0.00289828 -0.125638 -0.19568)
(-0.00129804 -0.291541 -0.10605)
(-0.011031 -0.76761 -0.00899766)
(-0.0205317 -1.37569 -0.019727)
(-0.00218234 -0.891552 0.013068)
(-0.00586331 -1.05801 -0.0247653)
(0.0334647 -0.466746 0.0932378)
(0.0132238 -0.592692 0.0799266)
(-0.000253313 -0.822395 0.0099409)
(-0.0161604 -0.528308 0.00200574)
(-0.00181686 -0.2885 -0.091119)
(-0.0015473 -0.100496 -0.24281)
(0.000264746 -0.0899088 -0.270809)
(-0.000261224 -0.0959052 -0.25386)
(-0.000243303 -0.108942 -0.224077)
(1.53651e-05 -0.112316 -0.217434)
(-6.95031e-05 -0.107016 -0.228144)
(-0.000215871 -0.112963 -0.216196)
(-0.000185432 -0.110445 -0.221239)
(-2.91064e-06 -0.102905 -0.238318)
(0.000327477 -0.118333 -0.207581)
(0.00189864 -0.259848 -0.114239)
(-0.0173882 -0.739558 -0.00299771)
(-0.0198694 -1.38148 -0.0151634)
(0.0048599 -0.938044 0.0138058)
(-0.00124562 -0.979328 0.0067048)
(0.0222252 -0.370521 0.101719)
(0.0015477 -0.396277 0.106926)
(0.00561962 -0.783784 0.0181834)
(-0.0109149 -0.532044 0.0012294)
(0.000624667 -0.264364 -0.0981379)
(-0.00127587 -0.0982807 -0.244959)
(0.000209889 -0.087071 -0.277975)
(-0.00029772 -0.0925484 -0.26042)
(-0.000318633 -0.106178 -0.227352)
(3.17414e-05 -0.1096 -0.220097)
(-6.07032e-05 -0.104136 -0.231649)
(-0.000217793 -0.110563 -0.218222)
(-0.000182747 -0.108542 -0.222604)
(-0.00016456 -0.101819 -0.238011)
(2.92087e-05 -0.116313 -0.208269)
(-0.000577072 -0.248412 -0.108188)
(-0.00607899 -0.596288 0.00105373)
(-0.0027244 -1.37767 -0.00795575)
(-0.0105215 -1.09319 -0.00178659)
(0.00212013 -1.08868 0.00709742)
(0.0189345 -0.280066 0.101967)
(0.00337871 -0.279883 0.110838)
(0.00132552 -0.683847 0.0291045)
(-0.0172648 -0.5236 0.00320743)
(-0.0025584 -0.214178 -0.0989442)
(-0.000337132 -0.0915829 -0.249402)
(8.23217e-05 -0.0818012 -0.283098)
(-0.000186776 -0.0864479 -0.264452)
(-0.000426574 -0.0999905 -0.224773)
(0.000137972 -0.103263 -0.216202)
(-6.784e-05 -0.0974856 -0.229727)
(-0.000390588 -0.104355 -0.213722)
(-0.00031175 -0.103073 -0.216999)
(-0.00017673 -0.0976844 -0.231332)
(-0.000946009 -0.108848 -0.206755)
(-0.00116215 -0.216856 -0.102798)
(0.00691202 -0.566508 0.00436855)
(0.00652178 -1.37775 -0.00206577)
(-0.0249053 -1.05792 -0.00527076)
(-0.00463204 -1.26095 -0.00362701)
(0.0195894 -0.333194 0.0531415)
(0.00206397 -0.173217 0.116365)
(-0.00710597 -0.529832 0.0491355)
(-0.00894963 -0.513734 0.00877085)
(-0.00728904 -0.171562 -0.0474655)
(-0.00160112 -0.0691296 -0.20838)
(-3.57373e-05 -0.0621395 -0.237354)
(-0.000255268 -0.0641024 -0.218032)
(-0.00123604 -0.0763272 -0.167266)
(0.000881315 -0.0794508 -0.156645)
(-9.39984e-05 -0.0748218 -0.171514)
(-0.0011647 -0.0805168 -0.154144)
(1.96282e-06 -0.0808466 -0.156095)
(-0.000764158 -0.079043 -0.170535)
(-0.00039074 -0.083359 -0.160773)
(0.00545486 -0.176454 -0.0534442)
(0.00389665 -0.545256 0.0101475)
(0.00862677 -1.41293 -9.1451e-05)
(-0.00393022 -0.988489 -0.0112018)
(-0.00541379 -1.26469 -0.0283347)
(0.00959026 -0.649905 -0.0703372)
(0.00890941 -0.272944 0.0212371)
(0.000639569 -0.475185 0.0409916)
(-0.0020412 -0.511439 0.00855867)
(-0.00258931 -0.0727791 0.00796403)
(0.000707014 -0.0265685 0.00403761)
(0.000469186 -0.0234146 0.00406481)
(0.000323616 -0.0148482 0.00477772)
(6.91415e-05 -0.0257102 0.00611513)
(-0.000191243 -0.0288299 0.00602732)
(1.61603e-05 -0.0200759 0.00564867)
(8.59659e-05 -0.0293776 0.0062552)
(0.000115471 -0.0302008 0.00634926)
(-0.000441275 -0.0321585 0.00586278)
(-0.0010489 -0.0378092 0.00517898)
(-0.00210999 -0.0696808 0.0104027)
(-0.00469252 -0.531608 0.0133349)
(0.00040368 -1.50617 -0.00891065)
(0.00375959 -0.909936 0.00831308)
(0.0217268 -1.24779 -0.0314812)
(-0.0224729 -1.21851 -0.119531)
(0.00930453 -0.830064 -0.114876)
(0.019639 -0.380617 0.0476824)
(-0.00488201 -0.478573 0.0137494)
(-0.00636866 -0.159177 -2.17668e-05)
(-0.000572274 -0.0496602 -0.00130382)
(-1.60143e-05 -0.0336399 -0.00186629)
(8.3101e-05 -0.028397 -0.000828727)
(-0.000148995 -0.0289744 -0.000716052)
(1.73941e-05 -0.034718 -0.00186036)
(4.68678e-05 -0.0334761 -0.00149025)
(6.08741e-05 -0.033751 -0.00133732)
(9.42488e-05 -0.0325073 -0.000421416)
(-0.000212696 -0.0316821 0.000236699)
(-0.000393142 -0.0460811 -0.00151607)
(-0.0119605 -0.129676 -0.00573136)
(-0.0188164 -0.596804 0.0076478)
(-0.000574954 -1.53097 -0.0175941)
(0.0133344 -0.946287 0.0144966)
(0.0217728 -1.19716 -0.021061)
(-0.0201169 -1.54454 -0.0406685)
(-0.014143 -1.38239 -0.0897435)
(0.020854 -0.355687 0.0419391)
(-0.00130872 -0.384508 0.0365796)
(-0.00292049 -0.090784 0.00484238)
(-0.00126754 -0.0556739 -0.00209782)
(-0.000248712 -0.0540838 -0.00494523)
(9.27778e-05 -0.0309287 -0.000972564)
(0.000287755 -0.0421338 -0.00272133)
(0.000252148 -0.0568811 -0.00269519)
(1.66271e-05 -0.0435815 -0.00227166)
(0.000380108 -0.0522122 -0.00238521)
(-0.000126871 -0.0440691 -0.00166142)
(-0.000369842 -0.0404151 -0.000828772)
(2.17346e-05 -0.0549683 -0.00232262)
(-0.00655778 -0.140661 -0.00410449)
(-0.0189175 -0.731633 -0.00263526)
(0.0033714 -1.50268 -0.0174491)
(0.00585262 -1.05707 -0.0118869)
(-0.0117866 -1.17308 -0.0249751)
(-0.00853335 -1.58179 -0.00577764)
(-0.0162952 -1.49937 -0.0194873)
(0.00287037 -0.642136 -0.0351864)
(0.00587431 -0.276854 0.0564324)
(-0.00435568 -0.0822119 0.00306603)
(-0.000681429 -0.0761266 -0.00224841)
(-0.000553998 -0.0793507 -0.00249207)
(-0.00026484 -0.0399931 -0.00155906)
(0.000712997 -0.0523617 -0.00132586)
(0.00054679 -0.0495474 0.000320776)
(3.43625e-05 -0.0592091 -0.000294067)
(0.000200901 -0.0466181 0.000224944)
(-0.000357465 -0.0397604 0.000204828)
(-0.00049394 -0.0349471 0.000263735)
(0.000726897 -0.0571475 -0.000608788)
(-0.00197849 -0.10589 0.00393657)
(-0.00213544 -0.70444 -0.00426361)
(-0.000253264 -1.38712 -0.00118594)
(-0.00216022 -0.946607 0.000364654)
(-0.0041216 -1.13381 -0.0190238)
(-0.00144984 -1.58958 -0.0167894)
(-0.00497975 -1.51943 -0.0232941)
(-0.0259298 -1.0489 -0.068785)
(0.00739299 -0.224821 0.0592461)
(-0.00458427 -0.0681795 0.00288639)
(-0.000434855 -0.0721184 0.000198868)
(-0.000496243 -0.0645838 -2.11767e-05)
(-0.000442904 -0.050136 -0.00154348)
(-0.000222292 -0.0559911 -0.000261249)
(0.000552177 -0.0473492 0.000300929)
(0.000447443 -0.0411449 0.00115547)
(-0.000663881 -0.0442327 0.000798627)
(-0.000477633 -0.0375547 0.000588025)
(0.00012961 -0.0388166 7.19426e-05)
(0.00126831 -0.0594995 -0.00102435)
(-0.000424591 -0.0853578 0.00406098)
(0.00485128 -0.679125 -0.00495329)
(-0.00264932 -1.39833 0.00223466)
(-0.000380607 -0.918063 0.0179599)
(0.0149771 -1.08128 -0.00962344)
(-0.000970289 -1.58785 -0.0277163)
(0.000388975 -1.52255 -0.0260903)
(-0.0199207 -1.17913 -0.0322173)
(0.00370553 -0.2566 0.0323381)
(-0.0011306 -0.0552019 0.00229487)
(-0.000649716 -0.0627993 0.00124349)
(4.81931e-05 -0.0652159 0.00024433)
(-0.000292374 -0.0578518 -0.000385459)
(-0.000670812 -0.0560597 -0.00193883)
(1.74321e-05 -0.0544114 -0.00149215)
(0.000191903 -0.0433333 1.32824e-05)
(-0.000269726 -0.0399786 0.000229702)
(0.000177315 -0.0391272 -0.000131707)
(0.000322943 -0.0391167 -0.000859663)
(0.00139944 -0.0667868 -0.00185127)
(-0.00109579 -0.0768127 0.00281931)
(0.00462647 -0.666731 -0.00603402)
(-0.00156486 -1.6001 -0.00403326)
(0.00107074 -0.941652 0.0101111)
(0.00692724 -1.02022 -0.00767343)
(-0.0016322 -1.58253 -0.0282815)
(0.000979397 -1.5224 -0.0260884)
(-0.00504181 -1.20656 -0.022049)
(-0.00541545 -0.400036 -0.00221694)
(0.00397841 -0.0457259 0.00220088)
(-0.000611714 -0.0590837 0.000280145)
(0.000228372 -0.0630322 0.00067821)
(-0.000111341 -0.0469413 9.75074e-05)
(-3.7012e-05 -0.0756777 -0.00186059)
(-0.000299088 -0.0683828 -0.0015924)
(-0.000640871 -0.045925 -7.0651e-05)
(-0.000296621 -0.0473144 -0.00154715)
(0.000245805 -0.0430492 -0.0020288)
(0.000752907 -0.048539 -0.00244546)
(0.00165059 -0.0761639 -0.000420652)
(-0.00157469 -0.0670553 0.0018474)
(0.00664998 -0.665818 -0.00640658)
(-0.00180621 -1.61416 -0.0204577)
(0.000341305 -0.871596 0.0116271)
(-7.82377e-05 -0.936179 -0.00399534)
(-0.00085984 -1.57748 -0.0186423)
(0.000301764 -1.51944 -0.0194244)
(0.00267042 -1.21326 -0.0212636)
(-0.0135043 -0.580311 -0.0283838)
(0.00628395 -0.0397535 0.00199904)
(-0.000659804 -0.0694374 3.37326e-05)
(0.00021627 -0.0610193 0.00100008)
(0.000238048 -0.0503125 0.000219932)
(0.000527384 -0.0611143 0.00044329)
(-0.00033326 -0.0583725 0.000108192)
(-0.000207817 -0.0404219 0.000269088)
(7.84545e-05 -0.059936 -0.00110721)
(5.18396e-05 -0.0602017 -0.0014128)
(0.000580845 -0.0646902 -0.000987595)
(0.000396363 -0.0578707 0.000964835)
(-0.00147135 -0.0664596 0.000887664)
(0.00344338 -0.676191 -0.00443211)
(-0.00104647 -1.6247 -0.0202761)
(-0.00548047 -0.790751 0.00288959)
(0.00778035 -0.746595 0.00544568)
(-9.1028e-05 -1.58118 -0.00903612)
(-0.00112038 -1.51706 -0.00867805)
(0.00371681 -1.21396 -0.0138481)
(-0.00672045 -0.651136 -0.0319967)
(0.00497253 -0.0366707 0.000703473)
(-9.12443e-05 -0.0656249 -0.000967133)
(0.000198097 -0.0577156 0.00179545)
(0.000379757 -0.0464847 0.000122795)
(0.000479484 -0.0579894 0.00237202)
(-0.000426765 -0.0553072 0.00243715)
(0.000242539 -0.0388263 0.000640259)
(0.000464193 -0.0499288 0.00202485)
(-0.000247171 -0.0499745 0.00171354)
(6.05827e-05 -0.0506559 0.00222195)
(0.000278191 -0.0546598 0.00229506)
(-0.000539992 -0.0614473 0.00291718)
(0.00323127 -0.676742 -0.0026537)
(0.00048329 -1.63358 -0.0107259)
(-0.00997044 -0.717145 0.0085227)
(0.0108977 -0.656201 0.00749799)
(-0.000275296 -1.58192 -0.0035395)
(0.000122418 -1.51768 -0.00408421)
(-0.00193698 -1.21217 -0.00499971)
(0.000999174 -0.684566 -0.0253016)
(-0.000945146 -0.0420103 -0.000916753)
(0.000322439 -0.0780555 -0.00634431)
(-5.83557e-05 -0.0647854 -0.000917091)
(1.0139e-05 -0.0556886 -0.00251106)
(0.000280943 -0.0504095 0.000711199)
(-2.90991e-05 -0.0461766 0.000924767)
(2.2882e-05 -0.0396857 -0.000234782)
(-0.000253858 -0.0407459 0.00123934)
(-7.24056e-05 -0.0499849 -0.00151477)
(0.000253987 -0.0506287 -0.00136344)
(0.000674296 -0.0460031 0.00119142)
(0.000990572 -0.0498092 0.00218982)
(0.00550587 -0.669108 -0.00342853)
(-0.000714342 -1.63322 -0.00356288)
(-0.00562272 -0.411633 0.0187345)
(0.00331304 -0.484119 0.00818082)
(-1.61792e-05 -1.58023 -0.000578725)
(0.000345139 -1.51753 -0.001082)
(-0.00267125 -1.21159 -0.00209129)
(0.00151229 -0.694342 -0.00873513)
(-0.00931864 -0.0516097 -0.00090576)
(9.74085e-05 -0.145543 -0.00481831)
(-0.000594783 -0.0888831 -0.00219507)
(-0.000515185 -0.0808878 -0.00224998)
(-0.000430106 -0.0728565 -0.00133293)
(2.24915e-05 -0.0655072 -0.00117448)
(-0.000130703 -0.0460084 -0.000545944)
(0.000316735 -0.0531577 -0.000635901)
(0.000485975 -0.0846846 -0.00318859)
(-0.000586785 -0.0846181 -0.00311429)
(-0.000142499 -0.0535064 2.30047e-05)
(0.00725331 -0.0534981 0.00179622)
(0.0174242 -0.661696 -0.00406192)
(-3.55978e-05 -1.62915 -0.00281469)
(-0.00448847 -0.16389 0.00550206)
(0.00261026 -0.165978 0.00881282)
(-0.282908 -0.941288 -0.571093)
(0.00243069 -1.09673 -0.569665)
(0.0936542 -1.02113 -0.551956)
(0.192819 -0.667742 -0.368709)
(0.25548 -0.395969 -0.241066)
(0.270817 -0.296599 -0.213983)
(0.189954 -0.106064 -0.157055)
(0.0393619 -0.119262 -0.191182)
(0.0210676 -0.144018 -0.167251)
(0.0012699 -0.156127 -0.157176)
(-0.00152097 -0.149422 -0.154236)
(-0.00657157 -0.152641 -0.155988)
(-0.0190417 -0.155471 -0.173989)
(-0.0728159 -0.163471 -0.224772)
(-0.183718 -0.236874 -0.250854)
(-0.179087 -0.42452 -0.214097)
(-0.206716 -0.636441 -0.334605)
(-0.0714203 -1.08961 -0.527384)
(0.0242967 -1.05804 -0.567517)
(0.266606 -0.853481 -0.49229)
(0.00572839 -0.892779 -0.0607191)
(-0.00489724 -1.18263 -0.0847838)
(-0.00728451 -1.13472 -0.0756347)
(0.0020356 -0.541641 -0.00609279)
(0.0559998 -0.159391 -0.228474)
(0.0254103 -0.0657332 -0.345818)
(-0.0472077 -0.0685939 -0.280332)
(-0.173677 -0.0699912 -0.304011)
(0.00607505 -0.0947203 -0.232544)
(-0.00538312 -0.1045 -0.215438)
(2.54884e-05 -0.102176 -0.221242)
(-0.0022282 -0.101794 -0.219817)
(-0.00150138 -0.0877044 -0.247397)
(-0.00739538 -0.0645464 -0.331903)
(0.00507367 -0.0575067 -0.456727)
(-0.0139376 -0.373577 -0.0436945)
(-0.0164118 -0.345375 0.00713273)
(0.022645 -1.26492 -0.0710599)
(0.0051607 -1.11718 -0.0944735)
(-0.0184153 -0.740014 -0.0333917)
(-0.00656084 -0.859761 0.0117725)
(0.0110024 -1.19554 -0.0307385)
(0.000151959 -1.13343 -0.0196098)
(-0.0144053 -0.723128 -0.027281)
(0.0114002 -0.270535 -0.114171)
(0.00696433 -0.127332 -0.171146)
(-0.000718058 -0.089756 -0.205677)
(0.00055509 -0.102472 -0.203401)
(0.000651007 -0.123055 -0.183907)
(0.000213588 -0.121415 -0.178076)
(9.84187e-05 -0.116879 -0.186152)
(-0.000411929 -0.122017 -0.179796)
(-0.000146688 -0.121408 -0.18321)
(-0.000481962 -0.109663 -0.194217)
(0.00540282 -0.137027 -0.159553)
(-0.0129679 -0.392931 -0.0485445)
(0.000494369 -0.64677 -0.0312075)
(0.0130176 -1.33553 -0.0342404)
(-0.00572016 -1.05631 -0.0124324)
(-0.0118234 -0.676002 -0.0064281)
(-0.00928201 -0.7415 0.0592701)
(0.0287148 -1.08568 -0.00775921)
(0.00603896 -1.00138 -0.00108079)
(-0.0171474 -0.735219 -0.00401902)
(0.00388696 -0.287735 -0.0968632)
(0.00203967 -0.102775 -0.222097)
(0.000131199 -0.0901194 -0.248688)
(0.000699378 -0.0963271 -0.23307)
(0.000152037 -0.108985 -0.208117)
(-0.000198107 -0.112535 -0.202779)
(-0.0001836 -0.107908 -0.211864)
(-0.000113504 -0.111864 -0.204698)
(0.000136292 -0.10793 -0.211634)
(0.00026541 -0.0993599 -0.230191)
(0.00605604 -0.116014 -0.19619)
(0.00406142 -0.313574 -0.0827489)
(-0.00329767 -0.745586 -0.0159676)
(-0.00391465 -1.3586 -0.0233206)
(-0.0108142 -0.995432 -0.000555138)
(-0.019611 -0.988808 -0.0340064)
(0.0184382 -0.693948 0.0698659)
(0.0256029 -0.919452 0.0196097)
(0.00130688 -0.986464 -0.00671068)
(-0.0191065 -0.649892 0.0024295)
(0.00210017 -0.293158 -0.0871242)
(-0.00144736 -0.102374 -0.223378)
(4.66664e-05 -0.0900797 -0.251787)
(-9.00097e-05 -0.0959924 -0.237675)
(-6.09862e-05 -0.107885 -0.21225)
(4.14596e-05 -0.110718 -0.206572)
(-0.000101157 -0.106381 -0.21468)
(-0.000254579 -0.11116 -0.205616)
(-1.31243e-05 -0.108268 -0.21141)
(2.86679e-05 -0.100116 -0.229287)
(0.00258227 -0.117459 -0.195918)
(-0.00203703 -0.28024 -0.108183)
(-0.0109445 -0.76685 -0.00817083)
(-0.0206223 -1.37668 -0.0192176)
(-0.00178764 -0.944518 0.015868)
(-0.00764135 -1.09449 -0.0129291)
(0.0355839 -0.568888 0.0852005)
(0.0172894 -0.695285 0.067145)
(0.00170557 -0.869586 0.011054)
(-0.0161434 -0.585141 0.00242005)
(-0.00327668 -0.274378 -0.0938564)
(-0.00166631 -0.0937628 -0.24343)
(0.000192392 -0.0840431 -0.271316)
(-0.000265169 -0.0896699 -0.254317)
(-0.000245049 -0.101885 -0.224522)
(1.42019e-05 -0.105049 -0.217856)
(-6.97298e-05 -0.100075 -0.228587)
(-0.000215788 -0.105651 -0.216581)
(-0.000197659 -0.103287 -0.221588)
(-1.98631e-05 -0.0961984 -0.238591)
(5.11226e-05 -0.110537 -0.208097)
(0.00147338 -0.247692 -0.11554)
(-0.016409 -0.751167 -0.00285082)
(-0.0214522 -1.38235 -0.0159319)
(0.00530971 -1.00145 0.0102404)
(-0.000988098 -1.0494 0.0139584)
(0.0229675 -0.479621 0.0953807)
(0.00391511 -0.508627 0.096207)
(0.00889082 -0.835484 0.0139515)
(-0.0086099 -0.572573 0.00210698)
(1.45887e-05 -0.253565 -0.102217)
(-0.00127408 -0.0918311 -0.245356)
(0.00016981 -0.0814032 -0.278421)
(-0.00030039 -0.0865415 -0.260858)
(-0.000321207 -0.0992282 -0.227798)
(2.84394e-05 -0.102435 -0.22054)
(-5.98722e-05 -0.09732 -0.232095)
(-0.000211052 -0.103345 -0.218625)
(-0.000176954 -0.101456 -0.222957)
(-0.000125566 -0.0951609 -0.238274)
(0.000107553 -0.108601 -0.208697)
(-6.31817e-05 -0.236434 -0.10982)
(-0.00788576 -0.643048 -0.000145991)
(-0.00365076 -1.38018 -0.00791668)
(-0.0105192 -1.10409 -0.00435106)
(0.00273167 -1.14145 0.00744682)
(0.0206319 -0.388348 0.100252)
(0.00616883 -0.391623 0.103053)
(0.00428164 -0.743533 0.0217063)
(-0.0156142 -0.558503 0.00364179)
(-0.00213329 -0.208238 -0.104283)
(-0.000261867 -0.0853081 -0.250775)
(5.79099e-05 -0.0762388 -0.284221)
(-0.000177517 -0.0805557 -0.265719)
(-0.000403095 -0.0933786 -0.226137)
(0.000119974 -0.0964641 -0.217585)
(-6.51817e-05 -0.0909741 -0.231033)
(-0.000362168 -0.0974867 -0.215071)
(-0.000307298 -0.0962652 -0.218256)
(-9.84223e-05 -0.091159 -0.232311)
(-0.000763027 -0.101658 -0.208204)
(-0.000672025 -0.206495 -0.106495)
(0.00534375 -0.603153 0.00317308)
(0.00714584 -1.38131 -2.64514e-06)
(-0.0250897 -1.06981 -0.00800407)
(-0.00383889 -1.2839 -0.00822828)
(0.0203314 -0.413454 0.0615792)
(0.00322572 -0.283943 0.116126)
(-0.00528806 -0.599132 0.0423324)
(-0.00722952 -0.546927 0.00899886)
(-0.00668803 -0.170783 -0.0531657)
(-0.00158079 -0.0633206 -0.21078)
(-7.86267e-05 -0.0569699 -0.239266)
(-0.000260617 -0.0587376 -0.22064)
(-0.00123141 -0.070693 -0.169954)
(0.000904396 -0.0738859 -0.159288)
(-9.08475e-05 -0.0689692 -0.174332)
(-0.00116844 -0.0748781 -0.156764)
(7.17384e-06 -0.0750629 -0.158651)
(-0.000696396 -0.0730422 -0.172756)
(-0.000193738 -0.0766553 -0.163468)
(0.00484266 -0.172468 -0.0590734)
(0.00317782 -0.584587 0.00891925)
(0.00868327 -1.41682 0.00392476)
(-0.00399736 -1.00666 -0.00704055)
(-0.00590361 -1.29374 -0.0286434)
(0.00867677 -0.666845 -0.0449032)
(0.00954781 -0.344079 0.0392331)
(0.00190687 -0.542528 0.0357485)
(-0.00107158 -0.542362 0.00772697)
(-0.0046605 -0.110232 0.00720691)
(0.000791146 -0.0302113 0.00334666)
(0.000467397 -0.0282267 0.00330253)
(0.000285803 -0.018138 0.00378823)
(4.8643e-05 -0.0292932 0.0048128)
(-0.000190194 -0.0323504 0.00476628)
(1.10402e-05 -0.0226665 0.00445785)
(7.54299e-05 -0.0329398 0.00492322)
(0.00012799 -0.0339393 0.0049806)
(-0.000447985 -0.0365085 0.00472138)
(-0.00120448 -0.0425766 0.00413063)
(-0.0033061 -0.102223 0.00878352)
(-0.00482926 -0.577036 0.0135613)
(0.000348898 -1.5091 -0.00564421)
(0.0045895 -0.957501 0.0118306)
(0.019507 -1.27774 -0.0348026)
(-0.0251935 -1.22476 -0.0888551)
(0.00962977 -0.841075 -0.0817147)
(0.0208281 -0.448708 0.0436175)
(-0.00384376 -0.512377 0.0104133)
(-0.00575513 -0.146231 0.000379435)
(-0.000543047 -0.0456482 -0.000712766)
(-1.71873e-05 -0.0309837 -0.00110784)
(7.41387e-05 -0.0261656 -0.000448985)
(-0.000136761 -0.026706 -0.000356423)
(1.73167e-05 -0.0319685 -0.00117128)
(4.28291e-05 -0.0308199 -0.000896814)
(5.44064e-05 -0.0310851 -0.000800124)
(8.63933e-05 -0.0299522 -0.00012566)
(-0.000184306 -0.0305672 0.000311815)
(-0.000340475 -0.0423382 -0.000794999)
(-0.0110184 -0.112609 -0.00240479)
(-0.0198705 -0.65456 0.00899635)
(-0.00190226 -1.53567 -0.0203347)
(0.0140386 -1.0012 0.0104652)
(0.0239424 -1.22472 -0.0239805)
(-0.0220168 -1.54892 -0.0257876)
(-0.0154724 -1.38521 -0.0657193)
(0.0218689 -0.423451 0.0461545)
(-0.000512554 -0.432514 0.0305736)
(-0.00323243 -0.113133 0.00212344)
(-0.00115671 -0.0510228 -0.0013298)
(-0.000234188 -0.050896 -0.00357888)
(8.28616e-05 -0.0284369 -0.000634895)
(0.000272878 -0.0397259 -0.00202235)
(0.000244974 -0.0536117 -0.00200876)
(1.4567e-05 -0.0400008 -0.00147294)
(0.00035761 -0.0492278 -0.00178616)
(-0.000124692 -0.0415806 -0.00124668)
(-0.00035383 -0.0381711 -0.000693697)
(3.24747e-05 -0.0518232 -0.00179706)
(-0.00622778 -0.132381 -0.0034864)
(-0.0182052 -0.729531 -0.00162181)
(0.00305751 -1.52341 -0.018905)
(0.00569787 -1.07217 -0.00870854)
(-0.0110802 -1.19677 -0.026789)
(-0.00839924 -1.58924 -0.00316254)
(-0.0191731 -1.50001 -0.0136744)
(0.00223824 -0.65234 -0.0152419)
(0.0061753 -0.333203 0.0509945)
(-0.00431792 -0.0949964 0.00235911)
(-0.00061458 -0.0699746 -0.00152533)
(-0.000522888 -0.0747418 -0.00189714)
(-0.000244541 -0.036737 -0.00100615)
(0.000672355 -0.0493716 -0.000927443)
(0.000545575 -0.0508705 0.000252858)
(3.02233e-05 -0.0544352 -0.000196522)
(0.000202888 -0.0475909 0.000167618)
(-0.000359303 -0.0398502 0.000217836)
(-0.000477359 -0.0345203 0.000190638)
(0.000703698 -0.0538574 -0.000421266)
(-0.00198621 -0.109864 0.00277194)
(-0.0021843 -0.703124 -0.00592278)
(-0.000442684 -1.47086 0.00119241)
(-0.00180722 -0.988147 0.00257284)
(-0.0045805 -1.15927 -0.0224912)
(-0.00205904 -1.59795 -0.0162288)
(-0.00641236 -1.52156 -0.0212617)
(-0.0263653 -1.05155 -0.0495313)
(0.00723049 -0.281268 0.0575852)
(-0.0040446 -0.0736074 0.0021811)
(-0.000410841 -0.0761148 -0.000227947)
(-0.00050186 -0.0709681 -0.000279902)
(-0.000405065 -0.0460245 -0.000993237)
(-0.00021874 -0.0528147 -0.000176355)
(0.000531332 -0.0478504 0.000213744)
(0.000457012 -0.0413991 0.000706269)
(-0.00066792 -0.0448172 0.000658821)
(-0.000471352 -0.0372961 0.000358954)
(0.000130427 -0.0366498 1.54151e-07)
(0.00119734 -0.0560509 -0.000704775)
(-0.000393299 -0.0879637 0.00293822)
(0.00474034 -0.678058 -0.00606851)
(-0.00382625 -1.46039 0.00467527)
(-0.000359096 -0.971241 0.017144)
(0.0146541 -1.10357 -0.0143493)
(-0.00222921 -1.59319 -0.0281314)
(0.000661612 -1.52382 -0.0252621)
(-0.0204354 -1.17889 -0.0258119)
(0.00311939 -0.300139 0.0352822)
(-0.000440973 -0.0570578 0.0017023)
(-0.0006685 -0.0688896 0.000638065)
(9.98819e-05 -0.0717813 0.000165073)
(-0.000270003 -0.0531788 -0.000286911)
(-0.000641406 -0.0528146 -0.00134941)
(1.24057e-05 -0.0512847 -0.00105406)
(0.000174867 -0.040595 2.52345e-05)
(-0.000271087 -0.039735 0.000139992)
(0.000170484 -0.0369429 -0.000119759)
(0.000310989 -0.0368978 -0.000604263)
(0.00130519 -0.0628692 -0.0012792)
(-0.00106338 -0.0781873 0.0021597)
(0.00455497 -0.665529 -0.00635695)
(-0.00405626 -1.58939 -0.00256074)
(0.00095476 -0.989834 0.00760683)
(0.00651945 -1.04279 -0.0128943)
(-0.00314594 -1.58209 -0.0292005)
(0.00134119 -1.52312 -0.026021)
(-0.00585639 -1.20605 -0.0203521)
(-0.00526367 -0.410606 0.00607655)
(0.0041605 -0.0458852 0.00159915)
(-0.000634885 -0.0637489 0.000382452)
(0.000274545 -0.0692652 0.00051453)
(-7.506e-05 -0.0477368 4.37818e-05)
(-3.07555e-05 -0.0712985 -0.00145172)
(-0.000279948 -0.0644404 -0.00122231)
(-0.000605816 -0.0423157 -1.56825e-05)
(-0.000283123 -0.0446199 -0.00114536)
(0.000238371 -0.0405864 -0.00142976)
(0.000707923 -0.0457433 -0.00171892)
(0.00154637 -0.0718184 -0.000407572)
(-0.00146862 -0.0669233 0.00140556)
(0.00626015 -0.664184 -0.00609206)
(-0.00513727 -1.59605 -0.0184649)
(-7.73265e-05 -0.930368 0.0049186)
(0.00107312 -0.962852 -0.00674057)
(-0.00153719 -1.57629 -0.018761)
(0.000489765 -1.51863 -0.0198514)
(0.00242676 -1.21223 -0.0204192)
(-0.0116938 -0.5742 -0.0200537)
(0.00574486 -0.0390107 0.00144823)
(-0.000613 -0.0640586 0.000286659)
(0.000234302 -0.0661143 0.000803513)
(0.000238937 -0.050336 0.000225747)
(0.000563753 -0.0667134 3.80425e-05)
(-0.000336094 -0.0625879 -0.000118981)
(-0.000181639 -0.0404305 0.000182681)
(7.74126e-05 -0.056515 -0.000840204)
(5.00823e-05 -0.0568009 -0.00101624)
(0.000538017 -0.0610594 -0.000734633)
(0.000363563 -0.0616795 0.000540511)
(-0.00136516 -0.0665706 0.000591123)
(0.00320624 -0.673572 -0.00410524)
(-0.00356954 -1.6048 -0.0185205)
(-0.00641858 -0.855575 -0.00428655)
(0.00923877 -0.814737 0.00068957)
(-0.000604894 -1.58013 -0.00884008)
(-0.00109396 -1.51542 -0.00889458)
(0.0038222 -1.21358 -0.0137673)
(-0.00556933 -0.634969 -0.0281148)
(0.00423846 -0.0353438 0.000423485)
(-7.61561e-05 -0.0602334 -0.000497933)
(0.00016678 -0.0611815 0.00162356)
(0.000370692 -0.0460498 8.40261e-05)
(0.000507765 -0.0634655 0.00201461)
(-0.000455841 -0.0597266 0.00200993)
(0.000254133 -0.0386618 0.000396168)
(0.000484835 -0.0526196 0.00163247)
(-0.000267794 -0.0518181 0.00140331)
(5.10623e-05 -0.0528468 0.00175717)
(0.000284779 -0.0583031 0.00187601)
(-0.000460156 -0.0617574 0.00225401)
(0.00298971 -0.673647 -0.00286109)
(-0.00214339 -1.61248 -0.00982747)
(-0.0109441 -0.804219 -0.00523283)
(0.0126381 -0.743687 -0.00432282)
(-0.000469024 -1.58081 -0.00368209)
(3.09168e-06 -1.51553 -0.00403355)
(-0.00190416 -1.21183 -0.00511828)
(0.00029462 -0.670636 -0.0236862)
(-0.000829558 -0.0386775 -0.000613037)
(0.000310513 -0.0710297 -0.00384992)
(-7.3889e-05 -0.0594392 -7.79443e-05)
(5.57563e-06 -0.0510902 -0.00161698)
(0.000252506 -0.0514272 0.000955787)
(-2.92922e-05 -0.0465794 0.00101914)
(1.91976e-05 -0.0365288 -0.000119618)
(-0.000219454 -0.0405416 0.00111556)
(-6.24351e-05 -0.0459255 -0.000606337)
(0.000230151 -0.0465231 -0.000472663)
(0.0006318 -0.0469557 0.000990876)
(0.00102509 -0.0488243 0.00172458)
(0.00513509 -0.665965 -0.0037929)
(-0.0025066 -1.61147 -0.0031819)
(-0.00672206 -0.585056 -0.00406874)
(0.0055804 -0.626833 -0.00959466)
(-4.44156e-05 -1.57896 -0.000655298)
(0.000329062 -1.51503 -0.00100321)
(-0.00281424 -1.21105 -0.00215073)
(0.00109125 -0.686758 -0.00764644)
(-0.00852884 -0.0473877 -0.000562075)
(6.63476e-05 -0.128781 -0.00260946)
(-0.000540062 -0.0811912 -0.00134878)
(-0.000476018 -0.0739432 -0.00140051)
(-0.000404125 -0.0669543 -0.000796858)
(2.80698e-05 -0.0602096 -0.000731681)
(-0.000120291 -0.0422551 -0.000357064)
(0.00029111 -0.0488783 -0.000419398)
(0.000455865 -0.0773134 -0.00196073)
(-0.000563786 -0.0772557 -0.00191798)
(-0.000237158 -0.0553616 -0.000191491)
(0.0072394 -0.0526105 0.000973202)
(0.0168375 -0.659197 -0.00406372)
(-5.73332e-05 -1.60791 -0.00208161)
(-0.00519667 -0.48439 -0.00822643)
(0.00516526 -0.51495 -0.00914588)
(-0.296538 -0.944123 -0.52424)
(0.00367454 -1.0904 -0.512229)
(0.100142 -1.01059 -0.495714)
(0.202641 -0.672154 -0.336736)
(0.268245 -0.397518 -0.226277)
(0.27757 -0.295142 -0.201762)
(0.192395 -0.0934156 -0.14729)
(0.0433388 -0.115197 -0.184789)
(0.0218992 -0.141488 -0.162833)
(0.0016187 -0.153935 -0.152515)
(-0.00145588 -0.147173 -0.149197)
(-0.0065433 -0.150562 -0.151155)
(-0.0191064 -0.154249 -0.168507)
(-0.0728387 -0.161766 -0.216216)
(-0.187878 -0.235634 -0.239718)
(-0.188652 -0.42144 -0.189421)
(-0.215504 -0.646222 -0.307232)
(-0.0783834 -1.07597 -0.46658)
(0.0245401 -1.05246 -0.517209)
(0.282354 -0.856799 -0.451648)
(0.00371054 -0.90994 -0.0662875)
(-0.00487006 -1.18441 -0.0808757)
(-0.00445037 -1.13298 -0.0731662)
(0.00461054 -0.567444 -0.00585337)
(0.0620987 -0.151802 -0.232062)
(0.0263077 -0.0627769 -0.346708)
(-0.0460796 -0.0665275 -0.276717)
(-0.17981 -0.0673127 -0.304657)
(0.00612482 -0.0902666 -0.235343)
(-0.00548696 -0.100687 -0.215797)
(3.56021e-05 -0.0986148 -0.221773)
(-0.00219864 -0.0981629 -0.220256)
(-0.00146118 -0.0844484 -0.24783)
(-0.00740394 -0.0617957 -0.33267)
(0.00497356 -0.0548446 -0.458329)
(-0.0158248 -0.366894 -0.0438193)
(-0.0219988 -0.418813 0.00652728)
(0.0216588 -1.25766 -0.0631928)
(0.00393735 -1.11968 -0.0919349)