/*--------------------------------*- C++ -*----------------------------------*\
| =========                 |                                                 |
| \\      /  F ield         | OpenFOAM: The Open Source CFD Toolbox           |
|  \\    /   O peration     | Version:  2.3.0                                 |
|   \\  /    A nd           | Web:      www.OpenFOAM.org                      |
|    \\/     M anipulation  |                                                 |
\*---------------------------------------------------------------------------*/
FoamFile
{
    version     2.0;
    format      ascii;
    class       volScalarField;
    location    "1.49";
    object      p;
}
// * * * * * * * * * * * * * * * * * * * * * * * * * * * * * * * * * * * * * //

dimensions      [1 -1 -2 0 0 0 0];

internalField   nonuniform List<scalar> 
6000
(
106000
106005
106013
106021
106027
106033
106040
106042
106035
106022
106013
106009
106016
106016
106013
106011
106015
106017
106017
106014
106008
105998
105979
105947
105912
105922
105932
105936
105937
105934
105880
105887
105899
105915
105932
105945
105956
105961
105959
105949
105937
105926
105925
105924
105921
105919
105916
105915
105912
105908
105900
105887
105866
105839
105832
105840
105861
105870
105874
105876
105777
105786
105800
105822
105856
105885
105902
105912
105914
105907
105891
105875
105868
105865
105860
105852
105843
105836
105830
105823
105812
105797
105780
105773
105777
105778
105808
105827
105833
105833
105711
105714
105719
105730
105755
105798
105830
105847
105852
105846
105830
105821
105812
105804
105797
105791
105785
105778
105771
105760
105745
105730
105721
105723
105725
105725
105742
105761
105771
105776
105682
105682
105684
105688
105695
105720
105762
105787
105795
105788
105772
105771
105765
105758
105753
105750
105747
105743
105735
105723
105706
105690
105679
105675
105674
105674
105679
105692
105701
105708
105663
105663
105664
105666
105667
105674
105701
105733
105743
105735
105725
105725
105722
105719
105718
105717
105717
105714
105706
105691
105672
105653
105636
105626
105620
105618
105611
105622
105631
105636
105645
105646
105647
105648
105649
105650
105659
105685
105698
105691
105683
105682
105681
105682
105686
105687
105687
105681
105668
105649
105629
105607
105589
105574
105565
105561
105552
105557
105566
105570
105628
105629
105631
105632
105632
105632
105632
105644
105655
105648
105641
105639
105640
105647
105654
105654
105648
105633
105614
105593
105570
105550
105535
105519
105510
105505
105499
105498
105507
105510
105610
105612
105615
105615
105615
105613
105610
105610
105616
105605
105598
105595
105597
105610
105615
105610
105595
105574
105551
105529
105507
105489
105476
105464
105455
105450
105446
105440
105449
105454
105592
105595
105597
105598
105596
105592
105585
105579
105577
105562
105553
105549
105551
105563
105563
105551
105532
105510
105488
105467
105448
105433
105421
105410
105401
105395
105390
105383
105389
105399
105573
105574
105576
105575
105572
105565
105554
105545
105536
105516
105508
105504
105505
105508
105501
105488
105469
105448
105427
105409
105394
105382
105371
105361
105349
105341
105337
105333
105332
105342
105550
105549
105548
105546
105540
105529
105515
105501
105488
105472
105466
105461
105461
105454
105443
105427
105407
105387
105368
105352
105340
105332
105323
105314
105300
105290
105287
105285
105282
105290
105519
105517
105513
105507
105498
105485
105467
105452
105440
105432
105426
105422
105418
105403
105388
105368
105347
105326
105308
105293
105282
105276
105273
105267
105253
105242
105238
105240
105242
105246
105479
105476
105467
105457
105446
105433
105417
105407
105401
105397
105390
105384
105375
105353
105333
105310
105286
105263
105244
105228
105218
105213
105214
105219
105211
105199
105194
105196
105203
105202
105425
105421
105410
105398
105387
105377
105368
105366
105365
105361
105352
105343
105327
105300
105274
105248
105222
105198
105176
105159
105145
105139
105144
105160
105169
105159
105152
105154
105160
105152
105359
105353
105341
105330
105324
105320
105319
105323
105328
105322
105308
105295
105272
105241
105211
105183
105155
105127
105102
105080
105062
105051
105055
105079
105109
105113
105107
105107
105106
105091
105279
105272
105263
105257
105256
105260
105265
105275
105285
105274
105256
105237
105208
105176
105143
105113
105081
105049
105016
104985
104956
104938
104944
104969
105010
105040
105042
105039
105020
105004
105188
105182
105178
105178
105183
105192
105200
105211
105221
105210
105197
105169
105136
105103
105068
105035
104999
104959
104914
104860
104804
104795
104810
104834
104865
104903
104919
104907
104875
104880
105090
105088
105088
105094
105106
105119
105125
105131
105137
105132
105122
105098
105063
105026
104991
104955
104912
104863
104798
104739
104721
104720
104725
104734
104744
104753
104760
104756
104748
104748
104988
104988
104994
105008
105028
105045
105049
105051
105055
105049
105038
105018
104988
104952
104914
104874
104827
104768
104713
104695
104693
104693
104693
104695
104698
104701
104704
104705
104704
104703
104883
104890
104903
104924
104951
104975
104980
104979
104980
104970
104956
104936
104910
104877
104840
104798
104749
104701
104680
104678
104679
104679
104679
104680
104681
104683
104685
104687
104687
104687
104773
104791
104815
104843
104877
104909
104917
104914
104907
104893
104877
104857
104834
104805
104770
104729
104688
104667
104663
104664
104665
104666
104666
104667
104669
104670
104672
104673
104674
104675
104667
104695
104726
104758
104796
104839
104856
104850
104833
104812
104796
104780
104760
104738
104708
104674
104651
104645
104647
104650
104651
104653
104654
104655
104656
104658
104659
104661
104662
104663
104579
104605
104635
104666
104700
104746
104783
104778
104746
104724
104712
104701
104690
104676
104655
104635
104626
104627
104630
104633
104637
104639
104641
104643
104644
104646
104647
104649
104650
104652
104509
104522
104544
104566
104584
104613
104659
104672
104642
104625
104621
104622
104622
104621
104614
104605
104605
104607
104612
104616
104621
104625
104629
104631
104633
104635
104637
104638
104640
104641
104444
104444
104451
104451
104442
104429
104474
104512
104518
104520
104529
104542
104557
104570
104574
104577
104582
104587
104593
104598
104605
104610
104615
104619
104622
104624
104626
104627
104628
104630
104373
104364
104349
104317
104260
104229
104269
104334
104380
104410
104435
104462
104493
104518
104532
104547
104558
104566
104573
104580
104587
104594
104600
104605
104609
104612
104614
104616
104616
104617
104292
104278
104243
104188
104127
104109
104115
104160
104236
104293
104338
104380
104424
104455
104485
104512
104531
104543
104552
104559
104567
104575
104582
104589
104594
104598
104600
104601
104602
104601
104202
104188
104149
104099
104064
104051
104042
104046
104093
104171
104240
104300
104340
104383
104429
104470
104500
104518
104529
104538
104546
104555
104562
104569
104574
104578
104581
104582
104582
104580
104103
104091
104067
104043
104026
104013
104001
103992
104000
104059
104143
104202
104251
104306
104362
104417
104461
104487
104501
104513
104523
104532
104539
104544
104549
104552
104554
104554
104553
104550
103985
103979
103976
103983
103989
103978
103965
103955
103949
103976
104043
104105
104161
104220
104282
104349
104408
104445
104466
104481
104493
104502
104508
104511
104513
104514
104514
104513
104510
104507
103854
103855
103865
103890
103930
103931
103920
103911
103904
103913
103955
104011
104066
104123
104188
104260
104332
104384
104415
104436
104450
104458
104462
104463
104462
104460
104457
104454
104450
104449
103708
103710
103729
103758
103805
103834
103840
103845
103847
103848
103865
103898
103946
104010
104081
104156
104229
104292
104336
104366
104382
104389
104391
104391
104389
104387
104384
104381
104379
104380
103606
103610
103622
103639
103661
103690
103716
103741
103760
103763
103760
103758
103787
103873
103961
104042
104115
104178
104230
104264
104284
104295
104301
104303
104304
104303
104302
104303
104306
104308
103575
103577
103582
103590
103599
103611
103624
103638
103653
103657
103647
103637
103646
103703
103819
103920
104000
104066
104119
104158
104184
104199
104208
104213
104218
104221
104224
104228
104233
104236
103567
103568
103570
103575
103580
103585
103588
103591
103592
103592
103589
103589
103593
103610
103679
103794
103889
103962
104019
104061
104090
104107
104118
104128
104137
104145
104153
104159
104164
104165
103562
103563
103565
103568
103571
103574
103575
103575
103573
103572
103572
103575
103577
103581
103610
103693
103793
103871
103930
103974
104004
104022
104037
104052
104066
104079
104088
104095
104099
104100
103557
103558
103559
103561
103564
103566
103567
103567
103566
103566
103566
103568
103568
103568
103580
103633
103721
103796
103853
103896
103924
103948
103968
103988
104004
104018
104028
104035
104040
104044
103552
103552
103553
103554
103556
103558
103559
103560
103559
103559
103560
103560
103560
103559
103561
103592
103664
103733
103786
103825
103858
103885
103910
103930
103947
103961
103972
103981
103988
103995
103546
103546
103546
103547
103549
103550
103552
103552
103552
103552
103552
103553
103553
103552
103550
103565
103615
103679
103729
103769
103802
103832
103857
103878
103896
103910
103923
103933
103940
103943
103540
103540
103540
103540
103541
103543
103544
103545
103545
103545
103545
103546
103546
103546
103545
103551
103580
103636
103684
103724
103758
103786
103811
103832
103850
103866
103878
103886
103888
103886
103534
103534
103533
103533
103534
103535
103536
103537
103538
103538
103539
103539
103540
103541
103542
103544
103560
103603
103650
103689
103720
103747
103770
103791
103809
103822
103830
103832
103831
103829
103528
103528
103527
103527
103526
103527
103528
103530
103531
103531
103532
103533
103534
103536
103538
103540
103549
103580
103623
103658
103686
103712
103734
103753
103766
103773
103778
103779
103780
103778
103522
103521
103520
103520
103519
103519
103520
103522
103523
103524
103525
103527
103528
103531
103533
103536
103544
103567
103600
103630
103656
103679
103696
103710
103719
103725
103730
103732
103733
103734
103515
103514
103513
103513
103512
103512
103513
103514
103516
103517
103518
103520
103522
103525
103528
103531
103539
103557
103581
103604
103625
103643
103657
103667
103675
103682
103686
103688
103690
103696
103508
103507
103506
103505
103505
103505
103505
103506
103508
103509
103511
103513
103515
103518
103521
103524
103532
103546
103562
103579
103595
103608
103619
103628
103635
103640
103644
103648
103655
103661
103500
103499
103498
103497
103497
103497
103497
103498
103500
103501
103503
103505
103508
103511
103514
103516
103522
103532
103543
103555
103566
103576
103585
103591
103598
103603
103609
103617
103623
103626
103492
103491
103490
103489
103489
103489
103489
103490
103492
103493
103495
103498
103501
103504
103505
103506
103510
103516
103523
103531
103539
103546
103553
103560
103567
103574
103580
103587
103589
103591
103483
103482
103481
103481
103481
103481
103481
103482
103483
103485
103487
103490
103493
103495
103495
103494
103495
103498
103502
103508
103515
103522
103528
103535
103541
103546
103550
103553
103554
103554
103474
103473
103472
103472
103472
103473
103473
103474
103475
103477
103479
103482
103485
103485
103483
103480
103479
103481
103484
103488
103494
103499
103505
103509
103513
103516
103518
103519
103519
103518
103465
103464
103463
103463
103464
103464
103465
103466
103467
103469
103471
103473
103475
103473
103469
103466
103465
103465
103467
103470
103473
103477
103480
103483
103484
103486
103486
103486
103486
103485
103456
103454
103454
103455
103455
103456
103457
103458
103459
103460
103463
103465
103465
103461
103456
103452
103449
103449
103449
103451
103453
103455
103455
103455
103456
103456
103456
103455
103455
103455
103447
103445
103445
103446
103446
103447
103448
103449
103450
103452
103455
103458
103455
103446
103439
103435
103432
103431
103431
103432
103432
103431
103430
103429
103429
103428
103428
103427
103426
103426
103438
103435
103437
103437
103438
103439
103439
103440
103441
103443
103446
103449
103439
103426
103419
103417
103415
103414
103413
103411
103411
103408
103406
103405
103404
103403
103400
103398
103396
103395
103429
103427
103428
103429
103430
103430
103431
103431
103432
103433
103434
103431
103412
103398
103393
103396
103397
103396
103394
103392
103389
103387
103385
103383
103380
103375
103371
103368
103365
103364
103421
103420
103420
103421
103422
103422
103423
103423
103423
103421
103413
103396
103380
103371
103370
103374
103377
103379
103377
103375
103372
103368
103365
103360
103354
103347
103341
103337
103334
103333
103413
103412
103413
103413
103414
103415
103415
103415
103412
103404
103388
103370
103361
103357
103357
103358
103365
103366
103364
103360
103356
103351
103345
103337
103328
103319
103312
103307
103305
103304
103406
103405
103405
103406
103407
103408
103408
103406
103399
103385
103369
103358
103354
103352
103352
103352
103354
103357
103351
103349
103343
103334
103324
103315
103304
103294
103285
103280
103279
103279
103398
103397
103397
103398
103399
103400
103397
103391
103379
103364
103354
103350
103349
103348
103347
103347
103347
103351
103346
103340
103332
103319
103308
103293
103281
103270
103262
103258
103256
103256
103389
103389
103388
103387
103386
103382
103375
103365
103353
103345
103343
103343
103342
103342
103342
103341
103341
103343
103343
103334
103321
103306
103287
103273
103261
103250
103243
103238
103235
103234
103378
103379
103376
103371
103363
103353
103345
103338
103334
103334
103335
103335
103335
103335
103335
103335
103335
103335
103340
103330
103314
103293
103278
103264
103248
103234
103225
103218
103214
103213
103360
103363
103359
103347
103336
103328
103325
103323
103324
103326
103327
103328
103328
103328
103329
103329
103329
103328
103330
103331
103314
103296
103278
103257
103237
103220
103207
103198
103194
103192
103330
103338
103333
103322
103316
103315
103314
103315
103317
103318
103319
103320
103321
103321
103322
103322
103322
103322
103322
103326
103321
103292
103266
103242
103221
103202
103187
103178
103172
103170
103296
103304
103305
103304
103304
103305
103307
103308
103309
103310
103311
103312
103313
103313
103314
103315
103315
103316
103316
103319
103319
103283
103251
103225
103201
103181
103166
103156
103151
103149
103283
103286
103289
103292
103295
103297
103299
103300
103301
103302
103303
103304
103305
103305
103306
103307
103308
103308
103309
103310
103312
103278
103242
103211
103183
103159
103143
103132
103126
103124
103279
103280
103282
103285
103288
103290
103291
103292
103293
103294
103295
103295
103296
103297
103298
103298
103299
103299
103299
103300
103300
103282
103237
103196
103161
103135
103115
103103
103097
103094
103276
103277
103278
103280
103281
103283
103284
103285
103285
103286
103286
103287
103287
103287
103288
103289
103289
103289
103289
103290
103289
103274
103222
103173
103133
103102
103081
103067
103058
103053
103272
103273
103273
103274
103275
103276
103277
103277
103278
103278
103278
103278
103278
103278
103278
103278
103278
103277
103276
103277
103276
103255
103194
103137
103094
103060
103036
103017
103006
102999
103268
103268
103268
103269
103269
103270
103270
103270
103270
103270
103269
103269
103268
103267
103266
103265
103263
103261
103260
103260
103260
103218
103147
103084
103036
103002
102971
102946
102930
102922
103262
103262
103262
103263
103263
103263
103263
103263
103262
103262
103261
103260
103258
103256
103254
103250
103245
103241
103240
103240
103227
103155
103075
103007
102953
102916
102881
102850
102829
102820
103256
103256
103256
103256
103256
103256
103256
103255
103255
103254
103252
103250
103247
103244
103239
103232
103223
103217
103215
103210
103153
103064
102977
102905
102856
102816
102771
102733
102707
102693
103249
103249
103249
103249
103249
103249
103248
103248
103247
103246
103243
103240
103236
103230
103221
103209
103197
103188
103179
103141
103049
102949
102860
102797
102747
102707
102650
102599
102557
102525
103242
103242
103242
103242
103241
103241
103241
103240
103239
103237
103234
103229
103222
103213
103199
103181
103164
103148
103114
103026
102921
102817
102733
102680
102643
102592
102515
102439
102360
102275
103234
103234
103234
103234
103233
103233
103232
103231
103230
103227
103223
103215
103204
103188
103167
103143
103117
103076
102995
102892
102783
102682
102604
102559
102534
102466
102362
102247
102124
102052
103225
103225
103225
103225
103225
103224
103223
103222
103219
103215
103207
103193
103174
103149
103119
103085
103037
102961
102863
102755
102648
102551
102478
102434
102405
102332
102207
102075
102001
101983
103216
103216
103216
103216
103215
103215
103213
103210
103205
103196
103179
103154
103124
103089
103050
103000
102928
102836
102732
102624
102519
102426
102356
102308
102264
102190
102072
101984
101961
101959
103206
103206
103206
103206
103205
103204
103201
103195
103184
103164
103132
103093
103052
103011
102964
102898
102812
102713
102607
102498
102395
102307
102242
102189
102132
102053
101974
101948
101945
101947
103195
103195
103194
103194
103193
103190
103183
103170
103147
103111
103065
103018
102972
102926
102870
102793
102699
102595
102486
102378
102279
102198
102135
102079
102014
101955
101935
101932
101934
101936
103181
103181
103181
103180
103177
103170
103156
103130
103091
103041
102989
102939
102890
102838
102774
102689
102590
102482
102372
102265
102171
102096
102034
101975
101931
101919
101918
101921
101924
101926
103165
103165
103164
103161
103153
103137
103109
103068
103017
102963
102911
102859
102807
102749
102678
102588
102485
102375
102264
102160
102072
102001
101943
101911
101904
101904
101908
101912
101915
101916
103144
103143
103139
103130
103112
103080
103038
102990
102939
102885
102831
102779
102724
102662
102586
102492
102385
102273
102163
102063
101981
101922
101897
101892
101893
101896
101899
101903
101906
101907
103111
103107
103097
103076
103043
103000
102955
102909
102859
102807
102752
102700
102643
102578
102499
102402
102292
102179
102070
101977
101912
101890
101886
101887
101888
101890
101893
101895
101898
101899
103054
103045
103025
102993
102954
102913
102871
102827
102779
102728
102675
102622
102566
102500
102418
102317
102206
102092
101988
101913
101887
101883
101883
101884
101885
101886
101887
101889
101891
101892
102964
102950
102926
102895
102861
102826
102787
102746
102701
102651
102600
102547
102492
102427
102343
102240
102126
102015
101926
101889
101881
101881
101882
101883
101883
101883
101883
101884
101886
101887
102855
102843
102824
102800
102773
102742
102707
102667
102624
102577
102527
102475
102422
102358
102272
102167
102055
101951
101895
101881
101880
101881
101881
101881
101881
101881
101880
101881
101882
101883
102755
102747
102733
102714
102692
102663
102629
102591
102549
102504
102457
102408
102356
102291
102205
102102
101995
101913
101884
101879
101879
101879
101879
101879
101879
101879
101879
101879
101879
101880
102667
102663
102653
102637
102614
102586
102552
102515
102476
102434
102388
102341
102290
102226
102142
102046
101951
101893
101878
101877
101878
101878
101878
101878
101878
101878
101877
101877
101877
101878
102588
102585
102577
102560
102536
102507
102475
102441
102404
102364
102321
102274
102223
102163
102087
101999
101918
101882
101875
101876
101877
101877
101877
101876
101876
101876
101876
101876
101876
101876
102511
102506
102497
102480
102456
102428
102398
102366
102333
102296
102253
102205
102156
102105
102039
101959
101895
101876
101874
101875
101875
101875
101875
101875
101875
101875
101875
101875
101875
101875
102429
102420
102412
102397
102376
102350
102322
102293
102264
102231
102189
102141
102093
102044
101986
101915
101881
101873
101874
101874
101874
101874
101874
101874
101874
101874
101874
101873
101873
101873
102347
102336
102329
102317
102298
102275
102251
102228
102204
102174
102133
102086
102039
101987
101927
101885
101874
101873
101874
101874
101873
101873
101873
101873
101873
101873
101872
101872
101872
101872
102272
102268
102258
102246
102230
102213
102195
102177
102156
102126
102086
102040
101989
101933
101887
101875
101873
101873
101873
101873
101873
101872
101872
101872
101872
101871
101871
101871
101871
101871
102213
102212
102202
102190
102178
102165
102151
102135
102113
102083
102041
101992
101937
101890
101876
101874
101873
101873
101872
101872
101872
101871
101871
101871
101871
101870
101870
101870
101870
101870
102168
102164
102157
102148
102138
102127
102114
102097
102074
102042
101998
101947
101896
101879
101875
101873
101873
101872
101871
101871
101870
101870
101870
101870
101869
101869
101869
101869
101869
101869
102134
102125
102119
102111
102102
102090
102077
102059
102034
101999
101956
101906
101882
101876
101875
101873
101872
101871
101870
101870
101869
101869
101869
101868
101868
101868
101868
101868
101868
101868
102098
102093
102086
102077
102065
102052
102036
102016
101990
101957
101919
101888
101878
101876
101874
101873
101871
101870
101869
101868
101868
101868
101867
101867
101867
101867
101867
101867
101867
101867
102049
102050
102046
102037
102024
102010
101993
101974
101951
101925
101896
101881
101876
101875
101873
101872
101870
101869
101867
101867
101866
101866
101866
101866
101866
101866
101866
101866
101866
101866
101996
101997
101995
101988
101979
101967
101953
101937
101919
101899
101883
101876
101874
101873
101871
101870
101868
101867
101866
101865
101865
101865
101865
101865
101865
101865
101865
101865
101865
101865
101944
101946
101946
101942
101935
101926
101917
101906
101893
101881
101874
101872
101871
101870
101868
101866
101866
101865
101864
101864
101864
101864
101864
101864
101864
101864
101864
101864
101864
101864
101901
101902
101902
101900
101896
101891
101885
101879
101873
101868
101867
101867
101867
101865
101863
101863
101863
101862
101862
101862
101862
101863
101863
101863
101863
101863
101863
101863
101863
101863
101862
101863
101865
101864
101862
101860
101859
101855
101853
101856
101858
101860
101860
101859
101859
101860
101861
101861
101861
101861
101861
101861
101862
101862
101862
101862
101862
101862
101862
101862
101827
101829
101831
101832
101832
101834
101833
101834
101837
101841
101845
101848
101850
101852
101855
101859
101860
101860
101860
101860
101860
101860
101861
101861
101861
101861
101861
101861
101861
101861
101795
101797
101800
101802
101806
101807
101810
101813
101818
101822
101827
101832
101837
101844
101851
101858
101858
101859
101859
101859
101859
101859
101859
101860
101860
101860
101860
101860
101860
101860
101764
101766
101770
101775
101777
101781
101785
101790
101794
101799
101805
101812
101823
101835
101848
101855
101857
101858
101859
101859
101858
101858
101858
101859
101859
101859
101859
101859
101859
101859
101734
101737
101739
101743
101748
101753
101757
101761
101766
101772
101780
101790
101804
101822
101839
101849
101854
101857
101858
101858
101857
101857
101857
101857
101858
101858
101858
101858
101858
101858
101702
101704
101706
101711
101717
101721
101725
101730
101736
101744
101755
101767
101783
101803
101823
101840
101850
101855
101857
101857
101856
101856
101856
101856
101856
101856
101856
101856
101856
101856
101669
101671
101675
101679
101683
101687
101691
101697
101705
101716
101728
101744
101761
101782
101805
101827
101842
101851
101855
101855
101855
101854
101854
101854
101854
101854
101854
101854
101854
101854
101638
101639
101642
101644
101648
101652
101657
101665
101675
101687
101702
101719
101738
101760
101784
101808
101829
101844
101851
101853
101853
101852
101852
101852
101852
101852
101852
101852
101852
101852
101606
101607
101608
101610
101613
101618
101625
101634
101645
101659
101675
101694
101714
101737
101761
101787
101813
101835
101846
101850
101851
101850
101850
101849
101849
101849
101849
101849
101849
101850
101572
101573
101573
101575
101579
101585
101592
101602
101615
101630
101647
101666
101687
101710
101736
101764
101795
101822
101839
101846
101847
101847
101847
101846
101846
101846
101846
101846
101847
101847
101537
101538
101539
101541
101545
101552
101560
101571
101584
101599
101616
101636
101657
101682
101709
101739
101773
101807
101831
101841
101844
101844
101844
101843
101843
101843
101843
101843
101844
101843
101502
101502
101504
101507
101511
101518
101527
101537
101550
101565
101583
101603
101625
101651
101681
101714
101750
101788
101820
101835
101839
101840
101840
101839
101839
101839
101839
101839
101840
101837
101465
101466
101468
101471
101476
101482
101491
101501
101514
101529
101547
101567
101591
101618
101649
101683
101721
101761
101801
101826
101834
101835
101835
101834
101834
101834
101834
101835
101835
101830
101427
101428
101430
101434
101438
101445
101453
101463
101475
101490
101507
101527
101550
101578
101609
101644
101684
101727
101773
101811
101825
101829
101829
101829
101829
101828
101828
101828
101827
101821
101388
101389
101391
101394
101398
101405
101412
101422
101433
101446
101463
101482
101504
101530
101561
101597
101638
101685
101736
101786
101813
101820
101821
101821
101821
101820
101819
101818
101814
101806
101346
101347
101349
101352
101357
101362
101370
101378
101388
101400
101415
101432
101452
101477
101506
101542
101583
101632
101688
101747
101792
101807
101810
101810
101810
101807
101805
101800
101789
101781
101303
101304
101306
101309
101313
101319
101326
101333
101341
101351
101364
101379
101397
101419
101446
101480
101520
101570
101628
101692
101754
101784
101791
101793
101791
101785
101778
101766
101746
101738
101259
101260
101261
101264
101268
101273
101278
101283
101290
101300
101312
101326
101342
101362
101387
101418
101455
101500
101558
101625
101693
101742
101759
101762
101755
101744
101732
101714
101694
101688
101213
101214
101215
101218
101221
101225
101228
101231
101239
101250
101261
101274
101289
101308
101330
101357
101389
101431
101485
101549
101617
101674
101702
101707
101699
101687
101673
101658
101646
101640
101166
101167
101169
101171
101175
101180
101184
101182
101190
101200
101210
101219
101232
101250
101272
101297
101327
101366
101414
101474
101537
101593
101625
101634
101633
101626
101617
101607
101601
101596
101120
101121
101123
101125
101129
101134
101138
101141
101146
101154
101157
101158
101165
101182
101205
101231
101262
101299
101344
101399
101459
101512
101546
101562
101570
101569
101565
101560
101555
101550
101073
101075
101077
101080
101084
101092
101096
101101
101105
101109
101102
101086
101087
101104
101130
101159
101192
101230
101274
101325
101380
101430
101467
101490
101506
101513
101512
101510
101504
101498
101026
101028
101031
101036
101042
101048
101057
101062
101060
101050
101033
101008
101001
101022
101052
101085
101121
101160
101203
101250
101299
101346
101382
101408
101429
101443
101449
101448
101444
101438
100985
100985
100987
100991
100998
101007
101016
101018
101011
100992
100968
100945
100936
100944
100975
101011
101050
101091
101133
101175
101218
101259
101291
101316
101337
101354
101366
101372
101374
101373
100944
100944
100946
100950
100956
100963
100968
100966
100957
100941
100921
100905
100899
100896
100907
100940
100981
101023
101065
101103
101140
101173
101199
101219
101238
101259
101277
101291
101302
101305
100905
100907
100910
100913
100916
100918
100918
100916
100910
100898
100885
100876
100873
100867
100865
100880
100915
100957
100998
101034
101066
101092
101113
101132
101150
101171
101193
101211
101225
101233
100869
100870
100872
100873
100873
100874
100874
100874
100871
100864
100855
100851
100849
100845
100841
100843
100863
100900
100938
100971
100999
101022
101041
101059
101077
101094
101113
101132
101145
101151
100832
100832
100831
100831
100831
100833
100835
100838
100838
100835
100830
100828
100826
100825
100823
100823
100830
100852
100884
100915
100941
100962
100981
100997
101011
101025
101039
101053
101064
101067
100789
100787
100787
100787
100790
100794
100799
100804
100807
100808
100806
100806
100805
100805
100806
100807
100811
100823
100844
100870
100892
100910
100925
100938
100950
100961
100970
100979
100987
100987
100738
100738
100739
100742
100747
100754
100761
100769
100777
100783
100783
100785
100786
100787
100790
100792
100794
100800
100813
100831
100848
100861
100872
100883
100892
100900
100907
100911
100916
100917
100682
100684
100688
100694
100701
100710
100721
100734
100748
100759
100763
100766
100768
100771
100774
100777
100778
100779
100785
100795
100807
100815
100822
100829
100836
100842
100848
100852
100853
100853
100622
100627
100634
100643
100653
100665
100679
100698
100720
100735
100743
100749
100752
100756
100759
100760
100759
100757
100757
100761
100767
100771
100775
100780
100784
100788
100794
100796
100794
100790
100553
100565
100578
100590
100603
100616
100632
100657
100686
100708
100722
100731
100736
100740
100742
100740
100735
100730
100726
100725
100727
100730
100731
100733
100736
100739
100742
100741
100736
100731
100490
100503
100521
100536
100553
100566
100582
100608
100641
100672
100694
100707
100715
100718
100716
100710
100702
100694
100688
100685
100685
100687
100688
100690
100691
100691
100688
100683
100676
100675
100451
100461
100479
100492
100505
100518
100533
100555
100588
100623
100652
100670
100680
100681
100676
100667
100658
100649
100642
100639
100638
100641
100645
100646
100646
100643
100635
100627
100620
100621
100428
100432
100444
100456
100466
100480
100494
100510
100534
100563
100592
100613
100623
100624
100619
100611
100603
100595
100589
100586
100587
100591
100596
100597
100597
100593
100586
100578
100574
100571
100408
100411
100419
100429
100436
100447
100457
100470
100486
100505
100526
100543
100552
100554
100552
100547
100541
100535
100530
100528
100530
100534
100536
100537
100536
100534
100532
100530
100529
100524
100389
100391
100398
100405
100409
100415
100422
100431
100442
100454
100466
100476
100482
100484
100483
100481
100477
100472
100468
100466
100467
100469
100469
100467
100465
100463
100463
100466
100472
100472
100370
100372
100375
100380
100381
100383
100387
100392
100399
100405
100409
100413
100416
100417
100416
100414
100411
100408
100404
100402
100402
100402
100398