/*--------------------------------*- C++ -*----------------------------------*\
| =========                 |                                                 |
| \\      /  F ield         | OpenFOAM: The Open Source CFD Toolbox           |
|  \\    /   O peration     | Version:  2.3.0                                 |
|   \\  /    A nd           | Web:      www.OpenFOAM.org                      |
|    \\/     M anipulation  |                                                 |
\*---------------------------------------------------------------------------*/
FoamFile
{
    version     2.0;
    format      ascii;
    class       volScalarField;
    location    "1.49";
    object      Theta.particles;
}
// * * * * * * * * * * * * * * * * * * * * * * * * * * * * * * * * * * * * * //

dimensions      [0 2 -2 0 0 0 0];

internalField   nonuniform List<scalar> 
6000
(
0.000639386
0.000436074
0.000387441
0.000249506
0.000173508
0.000232667
0.000305442
0.000294695
0.000244753
0.000301891
0.00038402
0.000395029
0.000422984
0.000381684
0.000304161
0.000211898
0.000210734
0.0002147
0.000267527
0.000293506
0.00032745
0.000435545
0.000578924
0.00055628
0.000319771
5.20589e-05
7.38863e-05
9.9074e-05
9.33105e-05
0.000280847
2.05243e-05
2.37401e-05
3.04392e-05
3.6083e-05
3.56361e-05
4.5215e-05
5.30032e-05
3.45318e-05
2.91481e-05
4.13636e-05
5.93328e-05
8.30246e-05
6.51292e-05
4.39851e-05
3.10873e-05
1.7812e-05
7.47931e-06
3.44765e-06
3.18976e-06
4.27288e-06
6.9428e-06
9.67654e-06
1.03696e-05
3.33023e-05
5.17211e-05
3.25739e-05
6.89073e-06
2.24847e-05
3.01438e-05
3.43961e-05
0.000348648
0.000374061
0.000428086
0.000468678
0.000353008
0.000165118
5.78814e-05
3.7396e-05
5.77919e-05
4.89203e-05
5.91081e-05
0.000203547
0.000355373
0.000272178
0.000270837
0.000311974
0.000262387
0.000244631
0.0002181
0.000204422
0.000223419
0.000243537
0.000216888
0.000276807
0.000103711
0.000243571
0.000114359
1.0951e-05
6.69041e-06
2.17247e-06
0.000198816
7.15764e-05
8.28981e-05
0.000132081
0.00016879
0.000121818
3.86611e-05
1.06578e-05
1.15981e-05
7.0807e-06
2.31777e-05
0.000163899
0.000181745
8.43335e-05
6.90159e-05
5.60845e-05
3.21573e-05
2.09884e-05
1.19902e-05
1.0528e-05
1.30453e-05
1.75382e-05
2.05725e-05
3.64679e-05
6.93656e-05
0.000171941
0.000132582
1.18975e-06
4.42756e-07
2.14294e-06
7.46455e-05
5.43962e-07
5.35885e-07
2.90299e-06
4.9687e-05
0.000129484
7.6828e-05
3.32482e-05
4.0074e-05
3.71057e-05
1.80137e-05
5.91089e-05
2.89309e-05
8.73269e-06
1.04201e-05
6.41462e-06
3.30195e-06
2.93827e-06
2.45466e-06
1.97149e-06
1.49008e-06
2.24124e-06
3.10486e-06
3.53016e-06
1.07068e-05
0.000134735
0.000207759
5.07653e-06
1.85116e-07
3.08446e-06
3.09814e-05
1.13205e-06
1.52797e-06
1.56842e-06
2.56164e-06
5.6512e-05
0.000108831
7.32418e-05
7.97228e-05
3.37654e-05
7.50758e-06
1.51035e-05
2.86407e-06
4.6826e-06
4.81601e-06
3.00952e-06
2.78669e-06
2.45438e-06
1.74105e-06
1.39252e-06
1.5117e-06
2.23828e-06
2.38515e-06
2.46883e-06
3.15472e-06
0.000119933
0.000275026
4.83618e-06
1.26224e-07
3.6709e-06
1.88296e-05
1.03449e-06
1.4741e-06
2.46799e-06
2.30599e-06
7.38852e-06
8.37524e-05
0.00012927
0.000127031
5.38987e-05
9.04758e-06
3.83013e-06
3.16943e-06
6.39298e-06
4.60573e-06
3.16525e-06
2.94004e-06
1.45788e-06
8.60051e-07
7.67606e-07
8.01464e-07
1.29606e-06
2.21028e-06
2.04495e-06
3.06366e-06
7.53911e-05
0.000440631
1.04284e-05
1.17838e-06
3.44655e-06
9.59911e-06
1.35767e-06
1.71052e-06
1.977e-06
2.18976e-06
3.66114e-06
4.02027e-05
0.000118237
0.000156286
6.65074e-05
8.33589e-06
2.74027e-06
5.08093e-06
7.56353e-06
5.90584e-06
5.07168e-06
2.46213e-06
1.17165e-06
5.83416e-07
4.63513e-07
7.72271e-07
1.65584e-06
2.02426e-06
2.49548e-06
4.4956e-06
6.58662e-06
0.000308463
0.000125859
6.53565e-06
4.04895e-06
4.68114e-06
1.46276e-06
2.25215e-06
2.76598e-06
2.70463e-06
3.5977e-06
2.14973e-05
0.0001242
0.000183095
5.75588e-05
6.52958e-06
3.40537e-06
6.57418e-06
4.82283e-06
4.67072e-06
8.10528e-06
5.15452e-06
3.31469e-06
1.56163e-06
9.76746e-07
1.06112e-06
1.51244e-06
2.0242e-06
3.04284e-06
4.87145e-06
3.7658e-06
0.00012241
0.000218437
2.78851e-05
5.24337e-06
3.11272e-06
1.73568e-06
2.76445e-06
3.20974e-06
3.28968e-06
3.72751e-06
1.60084e-05
0.000112458
0.000169662
5.54768e-05
3.60816e-06
5.8881e-06
9.00155e-06
7.55667e-06
2.03246e-06
6.07518e-06
6.69114e-06
3.74717e-06
1.34928e-06
5.77847e-07
1.15563e-06
1.74907e-06
1.65983e-06
2.63704e-06
4.78545e-06
4.98686e-06
1.64778e-05
0.000302276
0.000117199
3.14777e-05
3.59324e-06
1.98013e-06
3.02644e-06
3.36284e-06
3.41332e-06
4.40637e-06
1.62105e-05
0.000102057
0.000132884
4.83339e-05
2.37353e-06
7.99789e-06
1.03832e-05
1.39909e-05
1.64438e-06
2.1577e-06
2.56212e-06
1.78933e-06
8.62598e-07
1.11243e-06
3.10005e-06
4.28429e-06
2.84467e-06
2.68843e-06
5.09835e-06
7.6047e-06
5.96263e-06
0.000197604
0.000279904
4.88717e-05
5.3611e-06
2.08216e-06
2.73012e-06
3.06476e-06
2.42278e-06
5.1098e-06
1.76965e-05
8.35768e-05
0.000100618
2.88574e-05
1.97245e-06
8.78619e-06
1.47015e-05
2.54583e-05
2.21192e-06
1.10807e-06
8.768e-07
7.43405e-07
8.07162e-07
1.96565e-06
4.58642e-06
7.79406e-06
7.47403e-06
3.78485e-06
7.31131e-06
1.30391e-05
6.30488e-06
2.02268e-05
0.000159028
0.00015185
7.71853e-06
1.94457e-06
2.09311e-06
2.29176e-06
1.45248e-06
8.87738e-06
2.29299e-05
4.20181e-05
6.16492e-05
1.44881e-05
1.49412e-06
9.99447e-06
2.93741e-05
3.11981e-05
4.10095e-06
1.14481e-06
3.95634e-07
3.3983e-07
7.63268e-07
2.03989e-06
4.30797e-06
7.46448e-06
1.26738e-05
8.17544e-06
9.19766e-06
2.64027e-05
1.86903e-05
6.09538e-06
8.02528e-05
0.000350281
1.006e-05
1.66887e-06
1.38541e-06
1.50274e-06
1.29798e-06
1.88746e-05
2.71137e-05
1.27657e-05
3.64603e-05
1.72233e-05
6.63795e-06
1.82163e-05
5.64343e-05
3.19634e-05
1.65394e-05
2.69288e-06
3.57808e-07
1.37692e-07
6.38064e-07
1.8835e-06
3.59087e-06
5.78801e-06
9.36291e-06
1.75529e-05
8.45451e-06
2.19964e-05
3.00076e-05
2.89334e-05
0.00010271
0.000283262
1.1724e-05
1.35046e-06
8.13853e-07
1.14934e-06
1.68914e-06
1.69142e-05
3.34543e-05
1.77948e-05
2.93257e-05
1.87808e-05
1.50056e-05
2.87299e-05
6.47085e-05
3.64906e-05
2.81896e-05
1.07168e-06
1.69597e-06
8.67563e-07
2.39671e-06
5.75479e-06
6.97477e-06
5.64805e-06
5.76464e-06
1.28739e-05
1.13084e-05
5.91699e-06
1.78587e-05
1.67568e-05
7.51171e-05
0.000114161
1.15166e-05
9.44763e-07
5.96321e-07
1.29333e-06
3.22844e-06
1.76456e-05
3.12103e-05
1.85544e-05
4.49927e-05
4.45535e-05
2.04529e-05
3.11583e-05
5.31959e-05
4.16134e-05
1.45152e-05
2.24236e-06
3.89978e-06
4.85124e-06
1.31466e-05
2.38742e-05
3.53327e-05
1.99261e-05
6.21038e-06
2.64572e-06
2.12212e-05
6.80673e-07
7.82925e-06
9.15917e-06
4.36388e-05
3.90816e-05
7.52259e-06
6.47389e-07
6.53805e-07
1.69991e-06
4.96914e-06
2.52877e-05
2.98119e-05
4.00868e-05
0.000164826
4.00902e-05
3.34768e-05
6.09622e-05
5.68098e-05
3.87808e-05
1.77373e-05
9.05056e-06
5.45551e-06
1.20714e-05
2.48764e-05
7.20872e-05
0.000119897
6.00302e-05
9.32008e-06
4.24821e-06
1.08688e-05
3.9452e-05
3.98674e-05
7.71928e-05
4.67137e-05
4.92873e-05
3.08191e-06
7.58079e-07
8.62601e-07
2.52017e-06
4.806e-06
2.63401e-05
4.85917e-05
0.000118401
0.000116536
1.80583e-05
4.43086e-05
5.67077e-05
4.82865e-05
3.62919e-05
2.08331e-05
1.1732e-05
4.54066e-06
1.18315e-05
5.01488e-05
0.000113303
0.000427212
0.0012972
0.000606695
0.00010052
0.000124789
0.00064862
0.00135507
0.00159647
0.0011484
0.00054492
2.45772e-06
3.72085e-06
3.33653e-06
4.29065e-06
3.4736e-06
2.64185e-05
3.63503e-05
8.00101e-05
5.74306e-05
1.30405e-05
1.40793e-05
3.06855e-05
3.42366e-05
2.8633e-05
1.86885e-05
8.7493e-06
1.78071e-06
1.71795e-05
2.7083e-05
0.000879731
0.00132675
0.00161133
0.00306873
0.00290319
0.00239179
0.00269335
0.00311697
0.00288751
0.0025703
0.00183883
8.4452e-06
1.21334e-05
1.44352e-05
6.98203e-06
1.75074e-06
2.7197e-05
8.66587e-06
3.05669e-05
4.6813e-05
9.81202e-06
1.72229e-05
1.50168e-05
1.43038e-05
2.10933e-05
1.74804e-05
7.06208e-06
2.19938e-06
2.23555e-05
0.000822624
0.000633902
5.31045e-05
3.4219e-05
0.000495032
0.00200758
0.00234122
0.00120396
0.000577088
0.000399638
0.000329137
0.00142892
5.51583e-06
6.26421e-05
3.18561e-05
1.32761e-06
1.68307e-06
4.1216e-05
3.07779e-06
1.66577e-05
5.05106e-05
1.13413e-05
1.44237e-05
1.93312e-05
1.89219e-05
1.39553e-05
1.40364e-05
6.57369e-06
1.78323e-05
0.000578406
0.000448671
5.18582e-07
1.88946e-06
1.16445e-06
8.98219e-07
1.02171e-06
1.27202e-06
7.73668e-07
5.02184e-07
3.69174e-07
1.35315e-06
0.000553768
8.97669e-05
2.87655e-05
6.76536e-06
2.03512e-06
5.77178e-06
8.03718e-05
3.85063e-06
1.81504e-05
5.91239e-05
1.27379e-05
1.96554e-05
2.28786e-05
2.48028e-05
2.2007e-05
1.45879e-05
1.75811e-05
0.000455395
0.000406405
2.97215e-06
1.67787e-06
1.59489e-06
9.49038e-07
9.69642e-07
1.08405e-06
8.35598e-07
8.4513e-07
1.02221e-06
8.59432e-07
1.49506e-06
0.000466612
0.000446246
1.21908e-05
3.34858e-06
2.84713e-06
7.04528e-06
0.000100809
1.82071e-05
3.33392e-05
5.88097e-05
1.44837e-05
2.57075e-05
3.08596e-05
3.05197e-05
2.78232e-05
2.39738e-05
0.000339379
0.000456015
2.66169e-06
3.49874e-06
9.05084e-07
1.22101e-06
5.6686e-07
9.62119e-07
1.38721e-06
1.06792e-06
9.3656e-07
1.01077e-06
1.01447e-06
1.61032e-06
0.000423779
0.000309897
0.000112499
3.3025e-06
7.4837e-06
8.50574e-06
5.31416e-05
0.000147838
6.16292e-05
5.80041e-05
2.32207e-05
3.08971e-05
3.17689e-05
3.5391e-05
3.16353e-05
0.000138921
0.000729689
6.75475e-06
1.95208e-06
1.95806e-06
8.14906e-07
8.41269e-07
5.86726e-07
1.19986e-06
1.23738e-06
8.06267e-07
1.27046e-06
1.31502e-06
1.10391e-06
1.5136e-06
0.00034763
9.65294e-05
0.000261586
1.61878e-05
3.59985e-05
4.36253e-05
4.57047e-05
0.00010537
9.24562e-05
4.31253e-05
2.37155e-05
2.25235e-05
3.22287e-05
3.36952e-05
6.18973e-05
0.000714527
0.00013904
1.06006e-06
1.45225e-06
1.43454e-06
9.35733e-07
9.13566e-07
8.22328e-07
1.3808e-06
1.21839e-06
1.17244e-06
1.42717e-06
1.12058e-06
1.13639e-06
1.76033e-06
0.000282358
2.36406e-05
0.000314069
7.917e-05
7.99376e-05
0.000179925
0.00012154
4.54157e-05
5.60926e-05
2.40495e-05
2.18082e-05
2.48724e-05
2.99682e-05
4.28834e-05
0.000307877
0.000501555
2.83541e-06
1.73413e-06
1.87722e-06
1.53801e-06
1.37949e-06
1.09691e-06
8.66391e-07
1.30491e-06
1.29651e-06
1.68155e-06
1.64569e-06
1.74873e-06
1.72917e-06
2.24049e-06
0.000212973
1.57706e-05
6.80206e-05
0.000233129
0.00013499
0.000313611
0.000958109
0.00020762
6.16257e-05
5.15745e-05
3.16691e-05
2.67474e-05
3.06112e-05
0.000130985
0.000761123
3.91152e-05
2.5272e-06
2.3971e-06
1.93976e-06
1.63913e-06
1.64654e-06
1.3096e-06
1.04718e-06
1.64355e-06
1.91339e-06
2.11002e-06
1.90923e-06
2.3305e-06
2.34088e-06
2.82154e-06
0.000163393
1.80189e-05
2.04526e-06
4.09984e-05
0.000263954
0.00025308
0.000579171
0.00130066
0.000403819
7.39674e-05
4.91296e-05
2.82736e-05
5.22818e-05
0.00077375
0.000175479
4.34462e-06
2.58125e-06
2.74159e-06
2.81751e-06
2.60565e-06
2.23965e-06
1.1849e-06
1.31057e-06
2.14615e-06
2.33446e-06
2.46229e-06
2.77136e-06
3.06132e-06
3.58775e-06
4.06554e-06
0.000109146
1.77693e-05
1.01282e-06
2.49288e-06
9.60712e-05
1.32958e-05
2.82241e-06
0.000205965
0.000811394
0.000278537
3.34451e-05
4.77166e-05
0.00062807
0.000276537
6.66253e-06
3.81495e-06
3.02401e-06
2.64413e-06
3.35555e-06
3.19504e-06
2.64942e-06
1.63271e-06
2.33077e-06
3.04772e-06
2.99417e-06
2.98518e-06
3.49632e-06
3.73301e-06
4.34553e-06
4.36012e-06
6.17868e-05
1.13114e-05
1.02117e-06
2.2647e-06
7.9887e-05
3.37081e-05
1.67546e-05
1.50361e-05
4.1205e-05
0.000430894
0.000262618
0.000349318
0.000189161
1.30811e-05
9.22876e-06
2.23876e-06
2.9527e-06
2.75969e-06
3.92872e-06
4.10425e-06
3.43999e-06
2.33941e-06
2.8644e-06
3.26527e-06
3.30388e-06
3.52312e-06
3.62513e-06
3.58086e-06
3.90334e-06
3.72828e-06
2.68386e-05
5.42082e-06
1.76582e-06
1.39026e-06
2.19749e-05
0.00011009
2.38191e-06
1.88378e-05
1.62971e-05
9.06119e-05
0.000463031
0.000182067
1.31133e-05
1.22507e-05
8.94171e-06
2.20303e-06
1.13112e-06
2.34535e-06
5.5406e-06
5.62609e-06
4.01429e-06
2.94946e-06
3.85299e-06
3.18749e-06
2.87286e-06
2.74744e-06
2.49958e-06
2.23486e-06
2.26052e-06
2.03506e-06
1.02802e-05
3.21375e-05
1.66714e-05
5.72086e-06
2.91702e-06
0.000115415
0.000100834
1.91195e-05
3.61122e-06
1.51097e-05
0.000165274
0.000149463
1.29263e-05
8.85773e-06
4.43077e-06
1.51891e-06
4.79811e-07
2.69945e-06
1.29481e-05
1.1846e-05
9.79648e-06
5.41487e-06
3.85468e-06
2.11039e-06
1.65059e-06
1.31416e-06
1.09672e-06
8.5622e-07
9.31172e-07
1.24281e-06
4.9495e-06
7.62912e-05
2.70685e-05
1.42086e-05
2.47464e-05
0.000427024
0.00118036
0.000708447
0.000286735
6.92917e-06
9.43965e-06
6.99325e-05
2.37116e-05
5.21129e-06
6.05875e-06
3.33239e-06
1.10321e-06
3.39873e-06
3.18348e-05
3.97998e-05
2.28184e-05
7.67899e-06
3.03444e-06
1.46077e-06
8.31323e-07
4.67339e-07
2.90916e-07
5.30955e-07
1.42448e-06
1.99042e-06
5.15391e-06
0.00200694
0.00207047
0.00167497
0.00154428
0.00249004
0.00207941
0.00169419
0.00179656
0.00129513
0.000412558
8.82651e-05
0.000109307
0.000245961
0.000139239
7.35936e-05
2.09902e-05
8.19256e-06
2.63122e-05
3.73132e-05
6.41405e-06
2.54961e-06
1.9281e-06
1.3628e-06
1.14972e-06
9.25202e-07
2.49333e-06
4.37276e-06
4.74817e-06
3.75511e-06
7.97533e-06
0.00324904
0.00334538
0.00368434
0.00329072
0.00195574
0.000916902
0.000926873
0.00151283
0.0031311
0.00277731
0.00184355
0.00171565
0.00257751
0.00116265
0.000159214
4.55778e-05
1.02463e-05
1.40607e-05
1.15661e-05
5.74948e-06
3.24862e-06
2.36946e-06
2.73492e-06
3.88847e-06
5.78637e-06
7.00764e-06
4.18022e-06
4.87396e-06
4.92111e-06
1.33217e-05
0.00149637
9.26044e-05
0.000535737
0.000531172
0.000242569
0.000139056
0.000109219
0.000252073
0.00109396
0.00257293
0.00349805
0.00355157
0.00195494
0.00137591
0.000811947
4.47806e-05
1.05103e-05
6.70731e-06
8.3294e-06
9.91836e-06
7.86368e-06
4.66563e-06
7.99764e-06
8.84573e-06
8.38966e-06
4.73785e-06
2.96331e-06
3.40039e-06
2.85821e-06
2.45509e-05
0.000395763
5.68155e-07
1.14154e-05
7.84106e-05
0.000121712
3.62823e-05
2.76885e-07
3.16775e-06
6.76871e-05
0.000354973
0.000945084
0.000405772
1.80416e-06
9.56598e-05
0.000564723
0.000105496
1.10127e-05
7.67735e-06
1.18212e-05
1.23555e-05
1.12058e-05
9.67638e-06
9.37874e-06
7.20864e-06
4.68095e-06
2.94032e-06
2.30303e-06
2.36805e-06
1.56338e-06
2.77059e-05
0.000258662
9.95458e-07
2.20794e-06
0.000119143
0.000171384
5.1994e-05
8.74967e-07
2.78802e-06
3.21458e-06
3.56607e-07
1.21868e-07
1.10058e-06
1.45899e-06
1.97017e-05
0.000167815
5.81107e-05
1.08459e-05
1.06422e-05
1.24737e-05
1.45838e-05
6.40782e-06
1.19713e-05
4.31285e-06
3.29942e-06
2.67926e-06
2.11384e-06
2.0088e-06
2.34824e-06
2.48031e-06
1.89542e-05
0.000150531
1.37342e-06
3.45094e-07
0.000103488
0.000189536
9.19004e-05
3.64457e-06
3.234e-06
2.09145e-06
2.12965e-07
1.28659e-07
8.84668e-07
2.83941e-06
3.11064e-06
0.000274032
4.31455e-05
8.26198e-06
1.01574e-05
1.42231e-05
6.3147e-06
1.18417e-05
3.96507e-06
3.28331e-06
2.27591e-06
2.02819e-06
2.20592e-06
2.82638e-06
3.30684e-06
4.07594e-06
1.18357e-05
9.9437e-05
3.2024e-06
7.43756e-08
0.000115883
0.000209202
0.000109239
1.04303e-05
3.03909e-06
2.25289e-06
3.7991e-07
1.48559e-07
6.83335e-07
3.52944e-06
2.71713e-06
0.00028024
0.000477501
1.9047e-05
7.41132e-06
8.88664e-06
1.04795e-05
5.13491e-06
3.52358e-06
2.13711e-06
2.20916e-06
2.5177e-06
3.21826e-06
3.38989e-06
3.65366e-06
4.62576e-06
3.65648e-06
0.00010694
8.2526e-06
6.08776e-08
8.33299e-05
0.000199636
0.000154895
3.3733e-05
3.6928e-06
3.02426e-06
8.49538e-07
2.36047e-07
7.99868e-07
3.14649e-06
6.07512e-06
1.27165e-05
0.000595919
0.000289783
1.91891e-05
1.05419e-05
8.41297e-06
3.64685e-06
2.14903e-06
2.6314e-06
2.76699e-06
3.36335e-06
3.25605e-06
3.42032e-06
3.84367e-06
2.23995e-06
1.86023e-06
0.000206011
2.59809e-05
5.76587e-08
4.66545e-05
0.000155296
0.000135052
7.48698e-05
7.5673e-06
4.44753e-06
1.80466e-06
4.61944e-07
1.13596e-06
2.33281e-06
7.85985e-06
1.91948e-05
9.93538e-05
0.000254461
7.38402e-05
1.43301e-05
7.94832e-06
2.77037e-06
2.84378e-06
3.02562e-06
3.04588e-06
3.37653e-06
3.33495e-06
1.80431e-06
1.02708e-06
2.29474e-06
2.05065e-06
0.000466436
2.03608e-05
1.48328e-08
9.9794e-06
0.000113932
7.65357e-05
9.40998e-05
3.96661e-05
5.25291e-06
2.17861e-06
4.96253e-07
9.63956e-07
1.98539e-06
1.83461e-05
2.18833e-05
1.30682e-05
6.89381e-05
6.60911e-05
1.98185e-05
2.74147e-06
3.10626e-06
2.94906e-06
3.45123e-06
3.64078e-06
2.05266e-06
1.0994e-06
1.60649e-06
1.6309e-06
3.29858e-06
6.02608e-06
0.00049238
2.31645e-06
5.22412e-08
2.09907e-06
5.08271e-05
4.20733e-05
6.14084e-05
8.45139e-05
6.95279e-06
2.70541e-06
5.01476e-07
6.50532e-07
3.54199e-06
3.50077e-05
8.33623e-06
4.83476e-06
5.17428e-05
4.73454e-05
6.02917e-06
3.58492e-06
3.04934e-06
2.941e-06
1.67558e-06
1.46082e-06
2.53897e-06
2.03232e-06
6.21281e-06
5.51132e-06
3.26494e-06
1.04098e-05
0.000398748
9.47159e-07
1.5874e-07
1.40112e-06
2.15758e-05
1.85531e-05
3.3012e-05
8.9456e-05
1.32382e-05
3.27944e-06
8.14606e-07
8.33627e-07
9.10882e-06
1.78732e-05
1.4038e-06
1.57044e-05
4.35889e-05
1.31389e-05
4.66139e-06
2.39683e-06
1.78371e-06
1.66743e-06
2.61072e-06
2.20239e-06
3.7715e-06
6.46149e-06
4.28849e-06
5.34592e-06
4.68157e-06
1.00215e-05
0.000391691
8.82523e-07
4.49065e-07
8.07354e-07
9.29335e-06
6.82806e-06
1.48729e-05
6.88578e-05
3.24979e-05
3.52327e-06
1.39488e-06
1.48076e-06
2.59062e-05
6.39888e-06
1.32268e-06
1.68108e-05
3.19896e-05
7.73028e-06
3.38248e-06
2.83051e-06
2.78777e-06
3.03065e-06
2.52054e-06
7.00379e-06
6.26995e-06
4.47026e-06
5.00703e-06
6.0145e-06
5.41209e-06
4.43493e-06
0.000392658
7.68646e-07
1.1571e-06
1.06115e-06
4.83364e-06
3.64548e-06
3.78435e-06
5.41209e-05
5.48459e-05
3.8841e-06
3.07587e-06
5.64227e-06
2.3474e-05
2.02656e-06
2.39972e-06
1.09527e-05
1.70012e-05
5.32213e-06
3.63076e-06
3.83547e-06
4.0834e-06
4.88385e-06
6.34495e-06
4.5955e-06
5.0508e-06
5.03896e-06
5.75676e-06
6.6019e-06
3.84849e-06
2.6504e-06
0.000369087
8.77537e-07
1.4251e-06
1.30411e-06
4.1252e-06
2.54972e-06
1.71824e-06
3.48256e-05
4.39125e-05
8.95013e-06
3.73161e-06
1.2467e-05
1.11685e-05
1.99131e-06
3.66041e-06
4.38309e-06
3.6903e-06
4.25697e-06
3.6022e-06
3.64827e-06
4.07285e-06
3.89888e-06
3.47627e-06
3.59316e-06
3.95558e-06
5.37656e-06
4.44748e-06
2.67925e-06
2.12865e-06
3.60698e-06
0.000341199
2.08602e-06
1.61588e-06
1.45522e-06
2.46788e-06
1.79759e-06
1.79279e-06
2.52449e-05
2.17637e-05
3.58607e-06
3.70001e-06
2.78766e-05
4.69069e-06
2.08567e-06
3.15709e-06
1.4383e-06
1.1205e-06
8.56836e-07
7.6278e-07
8.36981e-07
1.10832e-06
1.6827e-06
2.55954e-06
3.068e-06
3.06104e-06
2.43322e-06
1.82991e-06
1.72466e-06
2.31862e-06
2.09034e-06
0.000294219
3.86057e-06
1.90196e-06
1.59692e-06
2.28486e-06
1.99778e-06
2.31013e-06
1.7714e-05
1.69802e-05
2.36946e-06
6.3086e-06
3.00038e-05
3.5592e-06
2.68844e-06
2.12188e-06
1.49931e-06
6.10149e-07
3.33169e-07
3.42833e-07
4.71855e-07
6.76893e-07
9.78567e-07
1.32629e-06
1.51514e-06
1.637e-06
1.70671e-06
1.7037e-06
1.82393e-06
1.34038e-06
1.83893e-06
0.000254858
4.7286e-06
1.97539e-06
2.01091e-06
3.02072e-06
1.40258e-06
1.83708e-06
1.63634e-05
3.93827e-05
3.40332e-06
1.04181e-05
1.8198e-05
3.14035e-06
2.18427e-06
1.156e-06
8.40846e-07
5.21065e-07
4.18224e-07
4.55804e-07
4.92554e-07
5.97289e-07
9.55552e-07
1.40804e-06
1.7175e-06
1.78942e-06
1.79063e-06
1.81647e-06
2.03998e-06
2.19269e-06
2.03135e-06
0.000219025
5.28003e-06
2.35821e-06
2.85446e-06
2.36683e-06
8.97813e-07
2.17815e-06
2.22277e-05
6.02678e-05
3.00797e-06
4.17967e-06
1.15784e-05
3.32014e-06
1.86511e-06
1.49697e-06
5.73592e-07
4.13614e-07
4.54942e-07
5.18665e-07
7.16317e-07
1.16881e-06
2.29851e-06
2.16923e-06
2.29907e-06
2.48923e-06
2.47129e-06
2.53103e-06
2.46684e-06
2.42529e-06
2.55612e-06
0.000185638
5.92112e-06
2.89297e-06
3.71734e-06
1.67399e-06
1.85258e-06
9.02701e-06
2.28393e-05
3.6887e-06
4.64844e-06
5.22306e-06
2.01004e-05
3.85192e-06
1.87651e-06
5.21347e-07
2.39666e-07
2.28828e-07
3.94895e-07
6.92394e-07
1.76415e-06
2.0135e-06
2.6986e-06
4.63199e-06
3.2917e-06
2.8627e-06
2.98917e-06
3.1074e-06
2.99754e-06
2.47426e-06
2.35463e-06
0.000148029
9.85549e-06
3.00844e-06
4.76677e-06
2.92325e-06
6.80939e-06
9.64371e-06
3.51994e-06
2.5318e-06
6.44974e-06
1.59936e-05
2.48783e-05
1.45274e-06
1.59084e-06
1.23463e-06
6.65539e-07
2.69904e-07
4.13948e-07
7.64409e-07
1.04202e-06
5.22082e-06
3.9098e-06
2.25198e-06
2.80384e-06
2.66602e-06
2.43313e-06
2.38856e-06
2.32629e-06
1.9125e-06
1.74118e-06
9.64321e-05
1.08981e-05
2.2373e-06
6.02165e-06
6.48356e-06
5.39239e-06
1.86335e-06
1.39671e-06
5.59793e-06
8.02355e-05
0.000521367
0.000312585
1.52014e-05
9.6828e-06
1.16308e-05
7.93844e-06
2.17696e-06
9.03533e-08
7.43072e-07
3.33127e-06
2.04106e-06
1.79353e-06
1.42488e-06
1.13152e-06
1.20401e-06
1.30835e-06
1.64918e-06
1.54487e-06
1.24161e-06
1.18393e-06
7.35976e-05
1.65961e-05
1.44673e-06
9.1095e-06
3.61058e-06
5.9646e-07
1.03629e-06
2.77656e-06
1.30139e-05
0.000146923
0.000518222
0.00138321
0.00144871
0.00132381
0.00150085
0.000659476
5.68594e-07
3.88819e-08
1.47091e-06
3.28642e-06
1.92253e-06
5.45107e-07
5.14375e-07
7.4641e-07
1.12773e-06
1.03362e-06
1.01447e-06
1.04353e-06
8.09375e-07
8.83869e-07
6.24629e-05
2.21263e-05
3.50062e-06
1.09423e-05
3.39095e-06
2.83867e-06
5.32158e-06
1.23418e-05
4.54886e-05
0.000251603
0.00070152
0.000633566
0.00185831
0.00246297
0.00342594
0.00387093
0.000749923
1.39982e-06
4.83769e-06
2.80213e-06
6.97318e-07
4.45452e-07
1.23189e-06
2.18753e-06
7.32233e-07
5.83088e-07
8.12388e-07
7.64584e-07
6.52681e-07
7.7037e-07
6.08796e-05
6.19029e-05
1.05402e-05
6.04894e-06
6.21718e-06
7.3799e-06
1.59932e-05
5.27091e-05
0.000999169
0.00156962
0.000746252
7.41993e-05
1.59304e-05
1.01003e-06
3.50982e-08
0.00227852
0.00371249
7.79587e-05
3.91859e-06
4.16551e-06
8.03695e-07
9.65413e-07
1.23175e-06
7.28626e-06
6.74489e-06
2.12266e-06
8.39543e-07
7.90307e-07
6.29929e-07
6.96906e-07
6.38608e-05
7.94649e-05
1.0797e-05
7.64711e-06
1.73444e-05
0.000339167
0.000681726
0.00218617
0.00255513
0.00105867
0.000141441
4.85465e-06
3.60187e-07
3.53493e-07
3.22768e-07
1.19914e-07
0.00370458
0.000816737
1.13249e-05
1.67541e-06
4.15656e-06
3.38177e-06
2.27918e-05
9.88256e-06
5.39145e-06
1.71415e-06
1.28285e-06
7.60767e-07
5.24639e-07
6.44818e-07
7.05229e-05
0.000122767
5.35153e-06
0.000146826
0.00108679
0.00186993
0.00292331
0.00262084
0.000947474
0.000155313
3.75192e-06
5.98345e-07
3.82949e-07
4.28441e-07
3.92732e-07
4.00388e-07
0.000713415
0.00247983
3.6155e-05
4.55604e-06
3.50151e-06
2.30914e-05
1.34283e-05
1.48156e-05
6.29294e-06
1.3634e-06
8.09364e-07
4.42402e-07
3.88219e-07
6.1018e-07
6.05439e-05
0.000131882
6.70198e-06
0.00122821
0.00196663
0.00144139
0.0013674
0.000470028
5.1406e-05
1.83558e-06
6.78297e-07
6.16245e-07
3.86916e-07
5.15989e-07
6.09643e-07
6.72927e-07
2.52382e-06
0.00370572
0.000963508
1.05713e-05
1.18708e-05
2.10831e-05
4.21185e-05
1.73098e-05
2.94809e-06
9.4225e-07
3.666e-07
2.327e-07
2.93319e-07
5.68875e-07
5.80759e-05
0.00011125
0.000152048
0.000966889
0.000833947
0.000263566
6.72023e-05
5.24637e-06
6.49451e-07
4.01864e-07
6.68039e-07
5.51775e-07
4.15632e-07
6.9996e-07
7.70673e-07
9.01657e-07
5.61688e-07
0.000346943
0.00282747
0.00031542
2.04022e-05
6.48628e-05
2.70876e-05
9.63951e-06
2.87617e-06
5.27309e-07
1.89698e-07
1.69291e-07
2.73261e-07
5.46492e-07
0.000346558
0.000283588
0.0026052
0.00137725
0.00019852
8.39343e-06
1.17247e-06
4.90214e-07
5.53247e-07
4.09944e-07
5.26459e-07
5.87625e-07
4.30492e-07
7.60273e-07
1.0862e-06
8.547e-07
6.91103e-07
1.24231e-06
0.00146234
0.00187506
0.000102191
4.85746e-06
5.22531e-06
3.03339e-06
1.12042e-06
2.56736e-07
1.86277e-07
2.73134e-07
4.13202e-07
4.61008e-07
0.00122321
0.00171485
0.00283309
0.000602229
3.18718e-06
9.93248e-07
6.06336e-07
4.48653e-07
4.72151e-07
5.21677e-07
5.15132e-07
6.38927e-07
6.27225e-07
1.09232e-06
1.03592e-06
8.15093e-07
1.06703e-06
2.11741e-06
0.000184224
0.00305526
0.00027025
1.51135e-05
5.89907e-06
1.47825e-06
3.60756e-07
2.37717e-07
3.83926e-07
6.66067e-07
1.07867e-06
9.00573e-07
0.000922516
0.00203831
0.00020774
9.53793e-07
8.97929e-07
6.67943e-07
5.97703e-07
5.29843e-07
4.74517e-07
4.99531e-07
6.5615e-07
7.64491e-07
7.58222e-07
1.22895e-06
1.17173e-06
1.31646e-06
1.81672e-06
2.33228e-06
1.95361e-06
0.00195947
0.00133592
5.65879e-05
5.49516e-06
7.67468e-07
3.25552e-07
5.18675e-07
1.18595e-06
2.74787e-06
2.88359e-06
2.75263e-06
0.000380974
1.79854e-05
2.0505e-07
2.64502e-07
3.77029e-07
5.38506e-07
4.95421e-07
5.05613e-07
5.81135e-07
6.01395e-07
7.73393e-07
7.78844e-07
1.08979e-06
1.56958e-06
1.42639e-06
2.02894e-06
2.14491e-06
2.39484e-06
4.30339e-06
0.000244304
0.000950003
0.000140965
1.10497e-06
4.12287e-07
7.39312e-07
1.85843e-06
3.11515e-06
3.90833e-06
1.19305e-05
1.54079e-05
0.00033026
2.07788e-07
1.88328e-07
2.76915e-07
3.77329e-07
4.50328e-07
5.04678e-07
6.00395e-07
5.7172e-07
7.2438e-07
9.22279e-07
8.77839e-07
1.60502e-06
1.72011e-06
2.1147e-06
2.46176e-06
2.40046e-06
3.23364e-06
6.19254e-06
0.000259485
0.00056342
8.70667e-05
2.12186e-07
7.65564e-07
1.81314e-06
2.92426e-06
1.01706e-05
1.89857e-05
1.95893e-05
1.07125e-05
0.000307009
3.13292e-07
2.56653e-07
3.3836e-07
4.14788e-07
5.05846e-07
5.85649e-07
6.0013e-07
7.03658e-07
9.9132e-07
9.26753e-07
1.20831e-06
1.87552e-06
2.20461e-06
2.44959e-06
2.72495e-06
2.94612e-06
4.16973e-06
9.89114e-06
0.000225806
0.000389966
4.12863e-05
6.18293e-07
2.22763e-06
6.68937e-06
1.09488e-05
2.76083e-05
2.81697e-05
2.01185e-05
9.32207e-06
0.000274228
4.03827e-07
3.95371e-07
4.51209e-07
5.43422e-07
5.69141e-07
6.63824e-07
7.34281e-07
8.38502e-07
1.04489e-06
1.15352e-06
1.70325e-06
2.23057e-06
2.32384e-06
2.94755e-06
3.39396e-06
3.58053e-06
6.03511e-06
2.92784e-05
0.000156044
0.000368751
1.2565e-05
6.05029e-06
6.41269e-06
1.63081e-05
0.000100723
4.95824e-05
2.21518e-05
1.22866e-05
8.53087e-06
0.000230867
4.82816e-07
5.2958e-07
5.69005e-07
6.49287e-07
6.93601e-07
7.68435e-07
8.8966e-07
1.05648e-06
1.24653e-06
1.5544e-06
2.0397e-06
2.23601e-06
2.9431e-06
3.9361e-06
3.45164e-06
4.32112e-06
1.17689e-05
8.18535e-05
8.16464e-05
0.00020391
7.78243e-06
1.21753e-05
1.15358e-05
3.17099e-05
0.000104045
6.52471e-05
1.16107e-05
9.11875e-06
1.30888e-05
0.000191224
5.79861e-07
6.05157e-07
7.0303e-07
7.84725e-07
8.176e-07
9.39684e-07
1.14152e-06
1.27747e-06
1.5388e-06
1.92963e-06
2.25262e-06
3.02481e-06
3.87253e-06
3.6791e-06
3.16945e-06
5.99997e-06
3.22109e-05
7.78161e-05
0.000176615
9.7904e-06
1.28524e-05
6.54829e-06
3.95623e-06
0.000161464
0.000132672
1.76945e-05
3.66955e-06
1.42431e-05
3.26437e-05
0.0001516
6.5089e-07
7.34146e-07
7.85972e-07
9.15961e-07
1.06177e-06
1.14763e-06
1.36906e-06
1.61735e-06
1.94784e-06
2.28761e-06
3.18461e-06
3.89611e-06
3.88908e-06
3.31318e-06
3.67614e-06
1.47833e-05
4.81483e-05
3.86136e-05
5.02649e-05
1.27947e-05
8.43638e-06
2.42639e-06
9.7727e-05
0.00012498
6.45397e-05
5.23215e-06
1.16032e-05
6.16162e-05
0.000113222
0.000117091
7.36365e-07
8.4827e-07
1.0002e-06
1.03532e-06
1.28671e-06
1.52416e-06
1.67402e-06
2.09337e-06
2.4769e-06
3.0281e-06
4.20179e-06
4.34145e-06
3.66471e-06
3.20212e-06
8.1932e-06
2.42346e-05
1.83392e-05
4.43943e-05
6.64703e-06
8.05383e-06
1.47798e-06
2.93451e-06
0.000133179
0.000146793
3.38684e-05
7.51336e-06
5.18199e-05
0.000188665
0.000274138
8.54581e-05
9.08838e-07
9.90435e-07
1.17822e-06
1.42753e-06
1.49946e-06
1.84762e-06
2.35862e-06
2.85163e-06
3.24837e-06
3.59447e-06
4.38131e-06
3.8766e-06
2.77914e-06
4.54818e-06
1.21852e-05
9.98224e-06
1.02055e-05
2.57115e-06
4.14786e-06
1.3897e-06
5.1848e-07
1.35259e-06
5.08574e-05
0.000419408
6.03729e-05
1.19831e-05
1.85285e-05
0.000349241
0.00224322
5.8237e-05
1.12233e-06
1.27232e-06
1.47456e-06
1.7019e-06
2.02586e-06
2.5444e-06
3.19379e-06
3.69313e-06
3.25515e-06
3.2521e-06
3.49113e-06
2.03957e-06
1.4983e-06
5.03844e-06
4.52374e-06
1.58105e-06
1.44594e-06
2.14091e-06
1.73124e-06
6.89206e-07
3.85489e-07
1.02202e-06
4.94431e-06
0.000389665
0.000275624
1.17519e-05
0.000149082
0.00329665
0.00510004
3.54814e-05
1.458e-06
1.60665e-06
1.89572e-06
2.22834e-06
2.72506e-06
3.55938e-06
4.13201e-06
3.73254e-06
2.53747e-06
1.61287e-06
1.44489e-06
9.2112e-07
7.25511e-07
1.9284e-06
8.12476e-07
7.32182e-07
1.00294e-06
1.40612e-06
1.05269e-06
5.60563e-07
5.02599e-07
1.33493e-06
3.41533e-06
6.62487e-05
0.000271011
0.000286413
0.00450273
0.010002
0.00285405
1.92551e-05
1.89232e-06
2.09956e-06
2.52035e-06
3.09474e-06
3.68408e-06
4.3628e-06
4.31467e-06
2.73884e-06
1.16653e-06
5.92154e-07
5.07959e-07
5.23747e-07
6.97438e-07
1.73914e-06
7.89574e-07
6.18356e-07
9.36276e-07
1.00534e-06
7.17761e-07
5.39693e-07
8.87588e-07
2.47869e-06
4.96313e-06
1.12823e-05
0.000154572
0.00409649
0.012267
0.00381463
0.00119252
9.3815e-06
2.57428e-06
2.84119e-06
3.51164e-06
4.09172e-06
4.16153e-06
3.92024e-06
3.03746e-06
1.60551e-06
9.67151e-07
5.07746e-07
3.38993e-07
3.14865e-07
9.06102e-07
2.25238e-06
7.49281e-07
5.51097e-07
7.47049e-07
7.08068e-07
5.83073e-07
6.45412e-07
1.78119e-06
3.57633e-06
1.30237e-05
6.87677e-05
0.00214921
0.0112591
0.00559444
5.10028e-05
0.00148364
4.81335e-06
3.5921e-06
3.95232e-06
4.50559e-06
4.40043e-06
3.49114e-06
2.42336e-06
1.77174e-06
2.83447e-06
3.13929e-06
1.28582e-06
3.9786e-07
1.54136e-07
9.24837e-07
1.8487e-06
6.83414e-07
5.29773e-07
6.71676e-07
5.43231e-07
5.20969e-07
1.02356e-06
3.09234e-06
1.10084e-05
0.00010856
0.00106863
0.00825805
0.00771364
4.08958e-05
2.20997e-05
0.00143315
4.28368e-06
4.73847e-06
4.9915e-06
4.71035e-06
3.49026e-06
2.16616e-06
1.80504e-06
3.23767e-06
6.39176e-06
6.16349e-06
3.46801e-06
8.07103e-07
8.24739e-08
6.70306e-07
1.16625e-06
6.16854e-07
5.66157e-07
5.57449e-07
4.66741e-07
5.98321e-07
1.83939e-06
1.02662e-05
0.000171793
0.00067435
0.00492693
0.0096826
7.50873e-05
7.8795e-06
1.28106e-05
0.00139725
6.66891e-06
5.10839e-06
5.05269e-06
3.99322e-06
3.53545e-06
3.78343e-06
3.33071e-06
4.37625e-06
7.21403e-06
7.74551e-06
5.62244e-06
1.87674e-06
2.09063e-07
5.59737e-07
7.36378e-07
5.66166e-07
5.40791e-07
4.77608e-07
4.29596e-07
1.00209e-06
8.97406e-06
0.000225328
0.00052977
0.002942
0.0110494
0.000103409
1.22179e-05
4.99862e-06
3.68357e-06
0.00141036
1.02973e-05
4.17284e-06
5.58707e-06
6.50122e-06
8.36914e-06
7.03929e-06
5.32122e-06
6.4247e-06
6.77466e-06
8.07158e-06
6.11955e-06
3.23494e-06
1.00731e-06
7.83577e-07
6.40911e-07
5.3375e-07
5.81874e-07
4.26626e-07
5.14872e-07
4.15851e-06
0.000253606
0.000507208
0.00210489
0.012332
0.000916115
1.19224e-05
1.47031e-05
5.51204e-06
7.87409e-07