/*--------------------------------*- C++ -*----------------------------------*\
| =========                 |                                                 |
| \\      /  F ield         | OpenFOAM: The Open Source CFD Toolbox           |
|  \\    /   O peration     | Version:  2.3.0                                 |
|   \\  /    A nd           | Web:      www.OpenFOAM.org                      |
|    \\/     M anipulation  |                                                 |
\*---------------------------------------------------------------------------*/
FoamFile
{
    version     2.0;
    format      ascii;
    class       volScalarField;
    location    "0.9";
    object      rho;
}
// * * * * * * * * * * * * * * * * * * * * * * * * * * * * * * * * * * * * * //

dimensions      [1 -3 0 0 0 0 0];

internalField   nonuniform List<scalar> 
6000
(
953.124
1083.68
1103.49
1130.83
1101.99
1026.41
1078.05
1182.93
1206.02
1206.03
1206.03
1206.03
1206.03
1190.47
1176.58
1200.7
1165.37
997.831
989.638
1038.45
1111.7
1137.43
1144.8
1148.71
1107.73
1121.75
1121.79
1121.79
1121.79
1121.77
953.1
981.309
1014.29
1052.98
1030.09
1026.39
1027.17
1041.54
1066.3
1135.82
1150.52
1156.72
1174.91
1152.2
1152.14
1153.68
1079.05
989.841
989.617
989.843
1019.12
1061.63
1098.15
1073.32
854.603
875.04
1121.77
1121.8
1121.75
1121.75
955.547
1076.35
1115
1156.71
1163.97
1161.62
1155.5
1166.86
1171.8
1210.57
1211.55
1210.34
1211.23
1210.09
1210.31
1209.81
1158.13
1094.36
1099.28
1149.6
1193.45
1200.93
1187.32
926.782
706.696
718.845
985.222
1121.75
978.452
1121.73
1037.55
1179.91
1211.05
1212.2
1211.47
1212.83
1210.83
1213.49
1210.76
1213.89
1210.57
1214.01
1210.33
1151.75
1147.1
1210.01
1204.05
1197.11
1202.53
1202.13
1201.75
1201.33
1009.56
711.148
718.841
704.287
718.961
761.493
721.449
1094.31
1188.49
1211.98
1212.71
1211.79
1212.85
1211.46
1210.01
1108.46
1207.25
1210.56
1214
1210.31
1087.78
897.419
1016.84
1197.02
1203.68
1203.3
1202.91
1202.52
1202.13
1033.94
715.929
718.841
704.615
718.841
706.517
718.842
712.539
984.615
1212.46
1212.7
1211.97
1212.85
1211.78
1061.71
879.544
753.854
822
1010.89
1045.09
907.401
689.238
695.831
927.704
1173.19
1203.3
1137.73
1098.73
1098.41
938.023
740.937
718.841
707.326
718.873
703.968
718.842
705.493
718.842
1030.51
1088.28
1018.94
991.778
979.17
862.942
735.912
662.317
636.571
629.299
636.793
631.728
637.006
627.322
651.47
965.444
1172.8
1104.8
763.227
732.468
780.058
738.333
718.84
712.154
718.84
704.313
718.84
704.276
718.841
712.626
1127.72
557.566
527.767
543.148
592.786
639.825
658.587
636.435
631.326
636.571
626.192
636.787
625.699
637.004
684.69
1089.73
1172.41
803.459
714.257
722.651
735.199
771.907
717.364
718.84
708.371
718.84
703.874
718.84
705.391
718.843
1179.98
344.118
367.692
430.739
520.004
610.475
656.472
634.939
636.355
627.283
636.572
625.816
636.786
627.74
721.772
1149.73
1120.97
718.631
722.651
717.86
827.229
878.921
718.84
714.627
718.84
706.194
718.84
704.655
718.84
713.139
1180.45
343.852
358.842
440.387
531.329
607.593
646.501
636.153
630.039
636.355
626.284
636.57
625.935
636.786
715.277
1149.41
975.129
722.651
714.335
722.651
914.936
948.772
744.949
718.84
711.361
718.84
705.684
718.84
706.584
718.843
1180.3
343.852
361.256
461.207
560.225
618.383
635.926
633.33
636.14
628.172
636.355
626.502
636.57
629.6
685.981
1149.72
850.334
720.134
722.65
718.914
944.214
962.988
801.63
717.711
718.84
709.548
718.84
706.989
718.84
714.034
1180.48
343.852
366.452
484.857
605.842
653.13
635.962
636.14
629.848
636.354
627.607
636.57
627.99
636.786
652.431
994.515
782.979
722.65
718.493
722.65
949.625
965.201
853.729
721.233
714.695
718.84
709.064
718.84
709.637
718.841
1140.85
344.613
379.697
510.067
650.578
692.796
653.277
633.693
636.354
628.506
636.57
627.69
636.786
631.113
637.003
780.836
764.125
722.173
722.65
719.832
922.787
985.937
908.784
806.748
718.84
713.338
718.839
711.331
718.84
716.885
1025.47
345.597
406.142
545.411
689.13
733.613
690.381
636.354
629.64
636.57
627.933
636.786
629.039
637.002
635.874
741.644
789.833
725.974
721.878
722.65
883.108
1029.84
985.662
957.423
761.233
718.84
713.737
718.84
714.253
718.842
993.968
361.203
452.299
599.02
739.314
782.166
735.016
635.251
636.57
628.707
636.786
628.245
637.002
631.577
637.22
776.014
858.665
798.514
728.852
722.126
863.988
1095.8
1098.6
1118.17
954.111
741.894
718.839
716.942
718.842
777.341
1109.94
424.12
531.001
682.653
815.774
850.498
785.554
636.57
631.205
636.786
628.323
637.002
629.616
637.22
634.912
837.57
957.22
933.934
820.711
773.209
925.656
1183.84
1238.29
1254.09
1194.08
918.881
752.526
718.861
757.973
1002.96
1237.7
542.987
659.416
812.477
934.609
962.421
878.792
672.038
636.786
630.061
637.002
628.696
637.219
631.644
637.438
873.79
1066.43
1054.5
982.007
909.802
1077.23
1284.8
1326.05
1328.79
1310.78
1182.09
954.268
878.773
971.8
1237.68
1237.7
713.483
850.069
998.637
1095.42
1113.83
1034.97
783.037
635.203
637.002
629.485
637.219
630.413
637.438
633.584
842.034
1139.05
1138.46
1137.2
1088.51
1237.92
1330.78
1331.74
1330.83
1331.32
1327.08
1237.4
1149.12
1222.37
1237.67
1237.69
926.475
1074.87
1192.75
1241.73
1245.97
1199.85
977.668
696.232
634.437
637.219
629.568
637.437
633.069
637.657
780.545
1129.59
1195.12
1243.78
1248.19
1317.34
1331.7
1330.71
1327.68
1314.72
1295.29
1189.5
1066.99
1033.04
1020.74
1204.83
1137.33
1253.3
1304.7
1316.45
1312.51
1290.55
1184.44
870.296
652.536
632.992
637.437
631.866
637.656
634.499
738.509
1048.72
1216.22
1296.61
1316.91
1317.09
1246.28
984.749
823.343
839.106
845.636
739.349
653.827
589.206
579.245
737.049
1277.42
1332.37
1349.19
1349.98
1343.7
1329.55
1289.36
1102.41
765.38
637.437
632.411
637.656
635.877
637.876
739.154
998.312
1190.31
1272.17
1292
1148.07
759.891
503.11
424.136
434.844
443.782
422.579
416.915
416.896
461.041
628.004
1341.18
1365.35
1370.46
1367.41
1360.7
1350.03
1330.04
1255.75
966.879
664.68
637.656
634.47
637.876
646.45
854.535
1077.76
1137.9
1137.5
1062.44
838.832
583.549
432.864
416.329
416.177
416.329
416.177
416.329
417.029
492.136
672.696
1373.85
1383.14
1381.95
1376.71
1370.31
1361.89
1348.69
1314.82
1154.15
760.399
636.863
637.876
640.822
818.572
1124.87
1210
1164.92
1077.32
935.868
791.502
646.367
496.057
437.104
440.928
457.388
443.937
445.432
464.196
560.314
719.361
1390.45
1391.4
1386.97
1380.31
1374.58
1368.17
1358.73
1338.52
1239.82
881.027
656.917
641.906
761.493
1142.42
1303.09
1322.06
1289.32
1207.71
1056.05
890.584
774.755
629.074
526.453
518.266
546.292
524.881
525.194
550.44
636.261
765.266
1391.89
1391.87
1387.58
1379.44
1374.66
1370.83
1365.27
1349.7
1265.37
957.008
746.499
760.985
1043.97
1318.24
1362.4
1371.78
1369.88
1348.74
1287.13
1144.19
964.266
806.681
670.217
634.838
654.957
634.212
630.926
649.944
712.914
820.057
1391.89
1391.83
1384.97
1373.58
1371.27
1371.1
1370.4
1352.95
1258.04
1021.07
909.909
1022.76
1296.55
1371.28
1377.39
1377.71
1377.56
1377.93
1376.66
1338.45
1220.84
1033.17
870.636
790.275
779.041
763.946
751.815
758.866
797.671
885.361
1391.34
1387.89
1378.81
1362.55
1363.51
1371.01
1374.08
1348.76
1233.05
1092.47
1116.11
1284.32
1375.84
1377.52
1377.87
1377.59
1378.96
1377.61
1378.37
1377.43
1359.66
1269.86
1116.4
983.843
929.273
918.281
890.586
880.539
894.013
959.743
1194.14
1297.14
1356.62
1346.12
1354.76
1370.83
1374.63
1339.39
1219.54
1174.92
1294.83
1375.63
1377.52
1378.4
1377.58
1379.05
1377.62
1380.34
1377.62
1379.06
1377.49
1366.91
1302.58
1181.52
1099.28
1081.43
1040.07
1009.54
997.335
1039.78
695.468
868.536
1278.45
1334.28
1351.08
1370.82
1374.57
1333.88
1239.56
1278.16
1366.66
1377.44
1378.42
1377.5
1374.17
1374.55
1380.38
1377.64
1380.34
1377.61
1378.88
1377.48
1361.57
1300.09
1233.38
1207.88
1169.3
1125.65
1097.81
1117.52
505.615
527.283
965.774
1329.4
1347.46
1372.64
1374.62
1341.42
1294.28
1338.96
1377.27
1378.34
1377.46
1370.14
1310.48
1270.79
1359.8
1380.37
1377.53
1380.31
1377.59
1378.37
1376.48
1335.06
1282.94
1266.34
1242.44
1206.49
1179.72
1183.45
548.33
525.745
709.422
1329.41
1362.76
1372.37
1366.53
1313.93
1328.77
1352.98
1374.96
1377.42
1378.49
1318.23
1047.4
913.777
1003.95
1138.16
1338.79
1377.32
1380.31
1377.57
1377.64
1346.04
1292.53
1276.84
1264.01
1246.57
1227.61
1230.4
657.122
570.324
639.501
1099.77
1371
1371.39
1235.09
926.407
1058.31
1340.77
1364.62
1378.62
1376.15
1155.61
648.564
600.161
605.844
662.51
915.71
1296.47
1377.24
1379.48
1377.47
1352.43
1300.34
1280.45
1267.78
1258.56
1242.98
1253.5
784.4
684.605
700.587
872.199
1127.57
1059.17
802.396
541.218
577.698
1012.38
1347.26
1377.22
1361.88
837.708
599.958
589.948
599.955
593.581
604.974
900.848
1304.36
1377.26
1378.09
1355.55
1305.21
1283.78
1269.23
1258.4
1231.85
1255.11
905.16
809.469
821.422
838.092
832.34
709.436
544.494
527.201
519.991
564.225
1108.22
1372.32
1210
611.598
589.332
599.955
591.462
599.955
595.944
649.135
1017.04
1322.95
1359.52
1333.54
1293.79
1273.81
1262.32
1246.23
1185.82
1255.11
1019.93
911.071
925.026
895.493
809.301
667.143
539.872
523.212
527.201
520.432
624.39
1306.05
976.41
598.164
599.955
589.332
599.955
593.553
599.955
647.991
883.365
1095.58
1196.64
1229.33
1237.7
1233.91
1232.34
1218.87
1166.21
1237.15
1126.16
996.279
1001.43
958.748
857.777
730.239
589.03
527.201
521.822
527.201
520.896
998.882
914.647
599.956
590.924
599.955
591.772
599.955
598.408
728.521
933.273
1002.81
1045.19
1114.3
1167.38
1185.15
1189.74
1185.14
1164.91
1210.24
1227.81
1096.61
1082.5
1027.64
950.547
847.22
692.918
551.583
527.201
520.169
527.203
837.395
901.369
604.24
599.954
591.259
599.954
595.973
625.597
859.116
1008.61
1014.59
1036.63
1096.5
1145.57
1164.01
1165.53
1165.32
1165.87
1199.59
1303.06
1221.02
1180.6
1129.05
1072.46
977.061
831.642
636.167
525.972
527.201
517.475
795.51
898.923
623.34
594.358
599.954
594.522
599.954
711.61
979.01
1063.81
1056.01
1081.66
1130.84
1159.81
1166.88
1165.64
1165.87
1165.26
1206.99
1346.87
1309.2
1272.37
1234.47
1192.14
1113.85
984.372
769.874
567.627
523.151
527.202
738.064
907.206
666.181
599.954
595.147
599.954
615.372
824.004
1052.38
1109.35
1124.61
1159.05
1187.8
1193.06
1185.92
1173.57
1165.88
1166.21
1241.32
1368.5
1350.21
1327.27
1301.62
1273.43
1227.39
1131.84
941.079
669.705
527.2
515.88
640.116
925.627
754.218
598.978
599.954
598.659
685.794
919.216
1089.63
1158.59
1196.09
1223.36
1231.57
1225.9
1214.81
1200.27
1191.15
1205.95
1290.77
1377.54
1369.14
1355.37
1337.45
1316.64
1290.09
1240.32
1107.74
805.943
529.937
527.2
532.077
925.455
912.538
676.336
613.956
623.849
794.629
990.571
1133.03
1213.68
1246.64
1258.59
1258.59
1252.86
1245.57
1238.67
1246.98
1281.29
1330.09
1380.2
1377.46
1370.52
1357.93
1341.72
1321.51
1291.62
1218.29
947.107
555.486
517.168
527.204
877.664
1057.77
883.183
745.999
742.303
912.887
1067.85
1198.73
1259.79
1273.46
1278.54
1279.23
1277.56
1276.55
1280.1
1299.41
1328.31
1353.17
1379.08
1379.13
1377.79
1370.28
1357.71
1340.89
1316.83
1273.14
1082.82
594.516
527.2
519.716
695.555
1091.13
1150.63
995.281
956.135
1040.63
1158.54
1259.15
1285.66
1290.91
1294.75
1297.83
1300.43
1304.59
1314.41
1332.88
1351.52
1364.64
1373.35
1379.05
1379.12
1376.57
1367.73
1353.85
1333.45
1305.04
1196.08
631.364
522.736
527.199
537.79
999.701
1250.22
1231.52
1179.37
1174.35
1235.93
1289.2
1301.59
1306.3
1309.96
1314.57
1320.05
1327.35
1338.61
1352.39
1363.67
1370.23
1358.08
1363.74
1378.96
1378.66
1372.6
1361.78
1344.26
1325.77
1249.38
672.225
527.199
524.893
527.2
732.836
1251.29
1325.72
1309.69
1282.6
1286.31
1306.35
1316.19
1320.9
1324.41
1329.35
1336.08
1344.44
1354.32
1363.73
1369.43
1372.54
1326.57
1230.93
1355.49
1371.58
1371.93
1365.23
1351.21
1332.44
1178.29
745.38
564.1
536.46
525.924
552.555
974.803
1332.98
1340.54
1331.49
1322.61
1326.94
1332.56
1335.82
1338.45
1342.6
1348.87
1356.37
1363.91
1369.57
1371.35
1373.71
1098.79
917.186
1197.15
1340.42
1363.33
1364.71
1355.86
1324.8
1092.84
826.656
669.301
603.23
536.351
524.326
677.26
1156.46
1340.55
1347
1347.99
1349.32
1350.78
1351.71
1352.66
1354.95
1359.21
1364.49
1369.3
1372.12
1372.55
1375.78
976.783
916.144
920.173
1211.86
1341.41
1357.8
1347.14
1231.13
1056.56
923.822
832.677
742.994
591.425
527.2
554.569
868.127
1336.81
1357.87
1364.98
1368.21
1368
1367.32
1366.54
1366.56
1368.04
1370.46
1372.72
1374
1374.64
1379.52
1142.61
961.664
919.509
991.691
1248.9
1333.61
1302.05
1118.71
1051.47
1035.29
1025.01
918.189
661.965
524.409
527.2
778.577
1318.99
1362.16
1372.72
1380.17
1379.98
1379.14
1377.66
1376.3
1375.64
1375.73
1376.11
1376.84
1378.72
1382.69
1299.11
1182.45
1042.26
1006.85
1072.82
1177.86
1138.26
1101.97
1093.43
1152.85
1179.85
1039.01
681.542
527.199
526.895
825.987
1259.93
1354.28
1371.16
1382.76
1383.02
1382.87
1382.88
1382.08
1380.88
1380.08
1379.74
1380.36
1382.09
1382.82
1341.52
1322.21
1246.7
1159.79
1096.57
1097.01
1097.46
1123.49
1185.68
1245.64
1231.01
997.746
630.373
525.491
557.217
935.656
1235.78
1343.75
1357.2
1371.4
1382.75
1383.33
1382.89
1382.96
1382.87
1382.4
1382.14
1382.45
1382.82
1382.82
1341.7
1351.45
1333.63
1294.71
1224.48
1141.87
1147.91
1202.03
1254.8
1254.91
1144.09
780.088
541.228
527.199
650.93
1060.33
1251.17
1334.19
1233.67
1236.97
1355.8
1382.77
1383.34
1382.89
1382.93
1382.87
1382.76
1382.8
1382.82
1382.4
1330.95
1352.32
1352.35
1343.1
1321.21
1272.08
1262.95
1272.55
1260.77
1189.62
817.571
543.973
532.523
544.079
796.545
1150.46
1251.36
1194.55
943.931
1037.12
1226.06
1375.61
1382.86
1383.34
1382.89
1382.8
1382.72
1382.81
1382.79
1376.35
1328.62
1351.59
1352.35
1352.57
1352.3
1341.76
1331.5
1314.69
1246.75
960.519
542.006
531.938
541.512
590.517
925.53
1188.79
1207.56
933.997
932.673
1033.29
1209.39
1336.45
1383.34
1382.89
1382.93
1382.25
1382.42
1382.79
1381.78
1366.69
1343.13
1341.91
1352.49
1352.33
1352.61
1352.31
1352.56
1351.47
1254.26
728.055
534.478
541.809
534.294
640.24
974.247
1179.02
1088.54
912.613
936.262
1156.53
1278.14
1339.71
1375.86
1383.19
1381.93
1380.79
1381.84
1382.49
1377.23
1359.21
1324.12
1147.81
1258.3
1332.71
1352.08
1352.43
1352.12
1352.34
1244.34
666.021
542.122
536.578
541.809
664.252
953.967
1138.68
1047.43
912.663
1040.95
1282.25
1336.72
1356.67
1373.06
1381.59
1378.78
1378.51
1380.97
1381.98
1372.42
1355.99
1045.53
771.334
857.882
895.268
1051.36
1128.49
1114.84
1245.26
1222.05
762.928
541.094
542.122
540.257
667.827
926.249
1125.89
1092.47
944.402
1131.58
1334.28
1353.09
1353.29
1375.52
1375.72
1373.98
1375.5
1380.12
1381.01
1363.16
1355.02
847.103
709.136
708.793
708.457
738.808
743.771
726.897
892.317
1169.49
983.132
627.166
551.286
546.341
706.909
984.263
1196.81
1199.81
999.894
1064.19
1314.84
1301.92
1228.64
1356.08
1367.84
1368.04
1371.56
1376.61
1369.91
1317.9
1354.87
898.921
709.497
722.665
707.005
696.574
691.158
691.558
725.217
1100.03
1144.06
878.286
676.455
665.586
877.365
1171.46
1266.74
1265.94
1007.84
889.898
973.12
812.133
705.581
961.513
1311.77
1352.42
1362.88
1358.36
1312.03
1019.56
1274.74
1027.77
764.017
793.436
748.895
729.39
721.482
730.077
723.81
910.616
1145.64
1144.09
996.918
973.374
1126.94
1266.7
1265.94
1206.32
878.242
749.791
618.12
518.098
520.021
544.033
791.854
1119.35
1262.37
1230.58
1009.26
874.591
1037.63
1185.55
951.143
933.334
854.496
806.127
795.253
804.242
730.538
679.193
1135.09
1145.69
1144.12
1145.67
1144.12
1120.82
1083.83
858.256
722.006
695.636
523.896
520.019
517.914
520.019
557.12
736.996
893.33
925.36
874.588
874.322
961.949
1302.16
1197.37
1120.71
1014.42
935.292
898.984
885.91
786.722
677.447
754.014
1110.3
1145.65
1100.06
920.573
731.517
688.317
605.432
704.403
653.717
520.019
517.689
520.019
556.873
638.498
697.187
758.051
836.111
892.088
874.587
1042.54
1355.25
1324.99
1283.67
1212.97
1116.86
1040.01
977.273
868.912
690.697
660.163
715.746
770.656
726.629
592.669
531.067
536.944
576.412
703.494
575.059
518.484
520.019
544.687
663.205
756.725
810.86
869.781
940.417
1011.3
1007.56
1219.96
1372.54
1362.72
1347.75
1322.9
1278.97
1205.12
1099.7
981.258
818.672
660.404
556.896
531.612
522.831
520.019
519.229
524.808
600.181
702.597
523.135
520.019
530.632
646.637
802.852
900.062
991.818
1070.05
1141.62
1221.57
1267.79
1349.78
1372.8
1371.25
1366.15
1356.92
1341.19
1312.2
1250.58
1134.28
1026.66
796.14
603.322
527.827
520.019
518.828
520.019
527.424
658.875
701.354
521.173
521.112
621.868
824.136
991.309
1115.16
1220.88
1281.97
1316.03
1348.01
1373.35
1393.3
1368.5
1369.76
1369.01
1365.62
1359.3
1347.69
1324.8
1278.24
1224.06
1018.28
746.425
590.691
527.829
520.018
519.869
537.433
710.977
693.632
524.437
579.374
818.847
1052.04
1212.37
1285.18
1325.11
1352.28
1371.57
1386.58
1395.64
1396.98
1362.68
1365.32
1367.96
1366.6
1363.95
1358.33
1347.94
1329.75
1304.9
1204.3
943.159
736.044
586.843
525.221
523.738
555.341
724.759
642.77
535.985
722.33
1070.27
1244.92
1306.46
1336.77
1358.88
1376.33
1388.67
1395.55
1396.97
1396.99
1358.47
1359
1367.11
1366.28
1365.55
1362.2
1355.89
1346.34
1328.62
1266.7
1108.96
913.333
700.903
561.584
534.584
579.994
724.696
578.455
557.073
911.478
1243.94
1305.28
1334.87
1356.85
1374.12
1386.78
1393.91
1395.59
1393.27
1392.53
1355.35
1346.44
1366.92
1365.34
1366.12
1364.93
1359.81
1351.71
1329.21
1253.73
1175.36
1068.83
841.81
629.445
552.217
619.102
724.055
545.675
581.147
1040.28
1291.8
1325.5
1349
1368.11
1382.78
1391.96
1393.96
1392.43
1381.15
1373.33
1349.76
1291.36
1353.37
1360.27
1366.1
1366.14
1362.58
1353.7
1326.62
1248.7
1176.24
1169.84
995.82
713.041
575.629
682.251
732.901
537.662
621.28
1028.86
1306.02
1340.51
1360.2
1376.63
1388.68
1394.59
1393.56
1383.78
1359.94
1354.92
1305
975.79
1131.64
1317.09
1365.96
1366.12
1366.12
1355.84
1326.66
1270.58
1207.99
1230.4
1121.99
800.133
617.331
765.469
753.264
537.498
679.129
1036.98
1314.88
1352.7
1369.89
1383.81
1392.85
1394.93
1388.57
1372.82
1329.92
1347.97
1174.17
896.832
898.292
1096.07
1291.1
1365.84
1365.78
1350.4
1318.88
1298.48
1261.54
1261.18
1184.98
870.023
691.221
848.794
786.536
540.938
774.073
1098.27
1275.57
1347.5
1373.97
1388.8
1394.99
1394.89
1375.01
1349.21
1239.21
1333.83
1199.53
988.373
1001.58
1073.92
1165.93
1221.36
1228.95
1212.12
1202.69
1233.22
1187.48
1252.74
1185.03
917.631
788.851
932.159
834.486
605.23
915.034
1170.32
1197.38
1309.13
1368.81
1390.63
1394.97
1394.91
1320.4
1094.42
783.003
1087.42
1307.16
1238.59
1222.94
1239.39
1238.08
1207.99
1144.85
1077.92
1063.76
1040.18
840.466
974.055
1071.35
937.009
899.92
1023.93
911.046
772.141
1067.88
1175.86
1146.23
1237.97
1351.73
1388.62
1395.2
1387.72
1257.37
751.684
443.522
591.798
1297.56
1338.48
1326.82
1327.01
1320.94
1292.49
1238.27
1160.92
1070.36
802.861
525.617
538.645
780.47
912.118
1010.67
1100.95
987.684
974.476
1165.25
1175.86
1089.28
1148.03
1322.26
1380.75
1394.91
1393.71
1305.72
691.481
441.946
441.946
1297.91
1344.77
1348.24
1348.46
1347.73
1336.25
1304.62
1240.88
1056
549.486
507.882
525.616
537.669
872.936
1078.62
1103.33
987.3
1075.73
1156.25
1125.96
1046.51
1085.7
1270.21
1362.95
1395.25
1394.69
1331.89
926.589
494.555
466.704
1298.02
1347.92
1348.68
1349.77
1348.86
1349.18
1325.18
1248.88
926.353
513.751
525.615
505.339
525.62
846.473
1100.86
1103.25
871.619
964.252
1038.16
1021.52
1037.22
1084.94
1206.58
1329.66
1385.97
1393.09
1355.62
1175.59
744.884
565.715
1298.35
1325.96
1352.66
1348.88
1351.8
1348.84
1323.3
1174.33
738.349
525.615
505.393
525.615
513.025
800.282
1096.07
1033.94
617.44
657.556
774.22
911.745
1047.08
1133.53
1215.57
1305.15
1366.08
1386.55
1378.21
1333.68
1094.06
783.175
1298.18
1053.8
1220.73
1353.4
1349.05
1350.98
1291.33
1085.96
645.775
515.704
525.615
507.371
525.616
715.806
1056.24
871.426
540.916
540.372
571.447
833.37
1085.49
1225.01
1296.04
1345.65
1376.36
1389.11
1387.77
1361.87
1256.29
1087
1054.49
804.886
984.84
1248.74
1353.74
1348.98
1259.39
997.087
621.063
525.615
515.036
525.615
518.492
648.987
949.945
684.951
540.372
540.916
564.173
857.549
1194.92
1315.07
1366.75
1391.94
1393.65
1393.74
1385.73
1328.46
1181.28
1261.93
848.917
804.288
1069.94
1327.68
1349.38
1349.81
1217.4
893.789
612.607
523.489
525.615
521.796
525.615
648.968
813.34
594.215
558.181
602.838
709.857
1039.89
1313.65
1362.12
1368.42
1368.68
1393.43
1393.67
1379.33
1242.84
984.661
1261.92
896.055
859.999
1095.12
1313.12
1353.85
1313.37
1182.51
902.376
673.345
581.724
578.828
584.222
593.17
714.351
804.751
649.766
738.641
896.692
1063.25
1284.93
1356.22
1356.39
1280.86
1022.79
1325.15
1392.96
1393.34
1315.96
938.859
1159.12
1056.18
901.067
820.317
984.952
978.292
949.362
1173.11
1084.11
936.642
867.315
864.216
856.84
866.166
942.954
944.716
906.731
1062.48
1252.65
1279.75
1282.08
1264.97
1084.48
601.375
379.838
636.841
1229.11
1384.89
1382.5
941.49
1023.87
1146.4
707.096
598.332
742.249
543.218
441.43
911.352
1202.71
1203.01
1202.98
1203.06
1202.97
1203.06
1202.97
1203.09
1202.9
1202.79
1082.97
889.977
742.201
592.263
372.727
221.427
204.351
272.621
592.373
1167.89
1294.3
1079.69
1063.51
1011.21
596.574
605.164
735.169
490.32
286.478
387.151
821.468
1116.51
1202.92
1202.89
1202.96
1202.85
1202.95
1202.67
1067.24
776.529
458.011
310.415
254.961
224.275
201.536
197.797
198.073
242.797
307.143
554.254
1028.11
1210.01
1174.45
796.441
605.166
596.358
842.056
547.956
280.062
251.674
329.719
486.236
614.385
741.267
829.746
826.685
770.188
604.916
419.532
247.821
198.63
196.586
197.393
197.496
197.594
197.677
202.618
257.013
293.247
305.339
611.653
1208.89
1266.38
708.094
596.373
605.164
941.756
611.259
281.767
244.371
255.613
267.306
265.495
264.87
278.183
271.991
249.179
211.624
193.611
196.988
193.935
197.192
197.103
197.392
197.475
198.205
219.877
271.774
293.832
293.957
344.509
795.901
1262.68
681.027
605.164
601.745
976.612
636.336
279.076
243.516
252.885
254.699
233.724
211.859
203.433
199.277
197.192
194.119
196.987
189.564
196.987
196.478
197.195
198.642
198.076
209.809
253.199
283.155
293.463
293.592
311.053
412.326
845.46
756.999
602.025
605.164
975.9
647.416
276.771
241.554
249.696
249.961
229.096
211.561
204.364
199.989
196.764
196.987
190.19
196.779
194.974
203.031
213.475
215.06
212.387
239.402
290.808
294.206
293.672
293.916
305.43
323.066
518.058
910.835
605.165
604.979
969.875
661.977
277.451
238.062
243.222
242.917
226.418
212.649
206.602
201.18
196.987
193.006
196.779
187.753
196.972
248.401
272.327
265.119
252.357
280.198
320.201
303.411
293.979
293.867
301.777
309.641
451.098
1064.31
624.53
671.272
968.808
675.63
278.005
234.487
235.514
235.434
225.049
214.825
209.25
202.424
196.575
196.779
188.322
196.573
215.544
326.451
372.963
348.309
310.715
319.053
339.601
312.29
298.739
294.268
299.635
303.094
436.633
1243.48
930.662
895.082
1055.36
678.952
274.919
232.25
229.165
229.49
224.363
217.159
212.032
203.75
196.779
191.864
196.573
185.974
229.461
405.723
491.07
451.897
373.291
351.342
355.019
326.337
315.441
294.365
300.698
300.978
420.127
1316.46
1226.82
1115.44
1133.67
618.286
271.775
231.482
224.956
225.088
223.576
218.886
214.799
205.504
196.319
196.573
187.358
196.372
215.767
456.512
603.3
568.834
437.79
381.981
374.051
351.544
338.328
295.412
303.652
301.257
402.926
1331.04
1308.88
1266.69
1169.83
518.851
268.399
231.452
222.187
221.63
222.527
219.957
217.325
207.54
196.573
191.156
196.372
185.88
196.372
470.643
694.964
691.898
506.817
417.338
403.943
388.909
367.844
323.822
316.721
303.243
399.68
1312.44
1308.51
1305.32
1174.8
419.141
261.067
231.698
219.896
218.335
221.239
220.676
219.279
209.348
195.924
196.372
187.384
196.173
191.933
438.155
754.495
797.019
574.318
460.47
446.627
435.671
406.694
363.083
351.64
327.894
424.75
1310.93
1308.67
1311.66
959.613
333.734
249.758
231.707
217.285
214.688
219.648
220.987
220.464
210.698
196.372
190.838
196.172
186.132
196.172
386.089
776.184
868.494
641.388
517.057
502.028
488.11
456.225
412.458
396.902
392.826
534.865
1321.94
1308.83
1311.34
636.558
277.96
237.908
229.51
213.735
210.792
217.43
220.998
220.987
211.923
195.551
196.372
187.894
196.172
191.882
357.665
785.948
916.465
713.845
592.116
568.96
548.003
517.818
488.084
486.474
489.376
771.424
1330.47
1330.44
1085.65
420.912
257.674
227.852
223.693
209.17
206.86
214.769
220.655
221.04
212.902
196.573
191.043
196.372
187.323
196.372
356.211
811.93
965.055
792.441
682.454
648.821
628.118
610.354
601.906
676.297
795.829
1245.64
1315.17
1199.45
708.236
378.192
261.397
219.211
215.862
203.696
202.75
212.106
219.249
220.987
213.506
195.295
196.573
188.516
196.371
193.216
390.273
881.249
1023.74
865.621
776.209
742.553
743.492
768.658
838.731
1048.3
1330.26
1412.02
1056.32
702.943
562.233
407.458
277.774
212.217
208.746
199.195
199.223
209.531
217.036
221.162
213.017
196.778
191.161
196.573
188.394
196.573
431.209
959.931
1068.25
914.998
867.281
852.889
912.741
1025.46
1231.99
1368.81
1412.89
1413.66
829.654
569.473
570.781
442.38
299.279
209.287
203.749
198.334
198.706
206.567
214.082
220.987
212.479
195.006
196.778
189.111
196.573
193.777
447.194
1009.67
1096.15
940.441
951.936
1001.75
1141.18
1307.72
1386.7
1413.05
1413.66
1413.53
785.865
567.594
573.66
470.005
324.221
210.664
200.626
198.706
198.116
203.398
210.916
221.194
211.08
196.986
191.205
196.778
189.785
196.778
433.696
1034.71
1131.56
960.312
1051.28
1187.11
1325.42
1392.33
1412.94
1413.66
1413.28
1390.95
770.823
568.742
573.3
496.616
359.724
220.96
199.067
197.261
198.488
200.379
207.573
216.225
207.989
194.78
196.986
189.659
196.778
194.43
397.598
1049.94
1173.88
1023.9
1189.75
1325.37
1390.69
1412.73
1413.66
1413.04
1403.16
1325.14
758.428
566.64
571.144
523.449
405.426
244.308
198.579
198.488
197.544
198.309
204.452
208.726
203.256
197.191
191.315
196.986
190.902
196.986
354.79
1060.7
1215.69
1133.55
1306.76
1382.14
1412.5
1413.61
1412.71
1390.53
1287.07
907.463
748.949
567.974
567.555
544.411
452.441
276.993
199.181
196.484
198.253
197.806
201.799
203.616
198.512
194.643
197.191
190.044
196.986
194.887
317.069
1063.94
1249.34
1254.46
1360.04
1408.12
1413.55
1412.67
1388.21
1036.71
488.949
318.868
741.919
567.414
572.284
554.78
491.383
312.442
202.889
198.253
196.797
198.031
199.175
199.997
196.928
197.391
191.444
197.191
191.792
197.191
286.124
1028.72
1279.5
1329.54
1387.64
1413.25
1412.66
1401.71
1260.01
550.838
274.201
228.599
740.986
568.741
588.684
561.861
517.588
345.19
210.176
196.48
198.022
197.054
197.808
197.518
197.592
194.49
197.391
190.308
197.191
194.972
266.147
959.012
1303.34
1349.32
1396.49
1412.56
1412.98
1316.09
1116.43
477.237
266.297
259.624
761
567.813
614.134
573.694
535.712
375.118
219.177
198.228
196.548
198.023
197.448
197.798
196.729
197.592
191.556
197.391
192.099
197.391
250.969
806.85
1313.35
1353.56
1396.36
1412.7
1405.31
1283.02
1009.27
530.981
312.575
290.263
808.165
569.467
647.607
599.83
557.749
405.913
230.238
196.648
198.228
196.765
198.016
197.377
197.797
194.446
197.592
190.569
197.391
194.662
221.672
597.616
1317.88
1355.03
1394.47
1408.54
1394.79
1290.91
995.757
571.873
350.48
321.067
903.328
591.683
698.253
646.636
591.826
441.578
242.895
198.428
196.666
198.224
197.248
198.01
196.751
197.797
191.633
197.592
192.22
197.592
198.567
381.034
1261.72
1353.63
1391.25
1400.92
1385.35
1313.83
1013.89
598.427
393.613
360.461
1140.55
768.048
780.972
718.93
647.308
485.945
257.846
197.404
198.428
196.536
198.225
197.292
197.999
194.54
197.796
190.796
197.592
194.402
197.797
265.476
992.886
1342.47
1384.62
1392.1
1373.02
1322.28
1022.81
631.116
447.599
405.968
1335.69
1116.41
941.354
834.33
733.856
547.306
277.365
198.633
196.624
198.427
197.034
198.215
196.85
197.999
191.807
197.796
192.467
197.796
197.562
234.8
671.677
1328.43
1376.41
1383.34
1365.34
1327.06
1024.16
671.669
514.742
465.109
1389.96
1347.26
1229.81
1021.11
869.674
652.951
309.136
198.416
198.633
196.285
198.427
197.114
198.203
194.735
197.999
190.975
197.796
194.505
197.999
232.968
500.906
1202.07
1364.52
1373.58
1359.43
1314.29
1019.24
745.128
594.223
535.01
1390.3
1389.98
1361.91
1267.66
1066.34
830.48
364.033
202.008
197.022
198.624
196.79
198.417
196.967
198.203
191.952
197.999
192.795
197.999
197.919
257.646
463.35
1018.9
1353.98
1359.77
1346.59
1270.36
1052.69
837.418
690.799
625.477
1390.14
1390.27
1389.89
1363.73
1269.29
1055.5
460.789
225.894
198.829
196.354
198.624
196.939
198.416
194.857
198.203
191.192
197.999
194.478
201.359
306.729
558.5
942.938
1298.56
1336.61
1316.91
1248.21
1092.53
944.619
804.816
728.422
1345.58
1389.77
1390.24
1388.98
1351.62
1224.59
626.062
284.405
197.572
198.828
196.61
198.623
197.053
198.408
191.99
198.203
192.865
198.203
210.821
362.173
673.287
1014
1242.72
1301.23
1286.82
1250.8
1154.27
1043.55
917.483
845.679
1105.45
1333.19
1389.41
1389.99
1380.91
1300.05
842.762
353.318
199.028
196.398
198.824
196.8
198.619
194.938
198.408
191.284
198.203
194.945
224.373
411.781
764.334
1115.57
1261.51
1281.74
1283.22
1275.93
1213.38
1130.21
1014.57
958.805
325.723
747.956
1301.21
1388.77
1389.11
1346.09
1063.18
386.219
197.381
199.028
196.722
198.824
197.078
198.614
192.042
198.408
193.186
198.408
238.756
449.555
810.788
1161.19
1283.57
1285.31
1285.41
1285.31
1256.24
1202.23
1076.08
1054.62
77.3399
177.8
632.763
1274.33
1388.18
1374.96
1207.76
370.973
199.235
196.738
199.028
196.885
198.824
195.108
198.614
191.584
198.408
196.045
253.372
472.255
823.313
1171.55
1285.3
1285.68
1285.31
1285.43
1279.24
1251.09
1104.05
1119.36
75.2056
86.3006
245.324
837.236
1340.1
1374.56
1225.85
349.998
198.151
199.234
197.092
199.026
197.025
198.82
192.286
198.614
193.773
198.614
266.489
486.119
819.151
1159.54
1285.62
1285.31
1285.79
1285.31
1285.4
1273.5
1111.16
1151.07
75.2056
83.1737
150.981
490.171
1155.74
1358.98
1051
375.32
199.435
197.446
199.231
196.851
199.024
195.23
198.82
191.778
198.614
197.268
278.835
497.425
806.153
1115.65
1285.3
1286.06
1285.31
1285.83
1285.31
1277.28
1095.24
1159.13
75.2056
98.8126
146.756
339.269
909.035
1300.8
965.812
447.556
199.34
199.435
197.544
199.231
196.992
199.024
192.509
198.82
194.607
198.82
292.408
513.964
801.088
1079.48
1265.72
1285.31
1286.06
1285.31
1276.21
1257.97
1080.4
1155.74
78.1525
119.613
180.072
316.063
785.331
1204.54
1052.07
535.676
203.194
198.443
199.435
196.88
199.231
195.294
199.024
192.082
198.82
198.492
311.531
550.17
831.813
1075.57
1222.53
1285.91
1283.97
1249.28
1213.21
1203.75
1081.04
1131.25
95.3779
143.879
212.815
353.768
769.891
1167.55