/*--------------------------------*- C++ -*----------------------------------*\
| =========                 |                                                 |
| \\      /  F ield         | OpenFOAM: The Open Source CFD Toolbox           |
|  \\    /   O peration     | Version:  2.3.0                                 |
|   \\  /    A nd           | Web:      www.OpenFOAM.org                      |
|    \\/     M anipulation  |                                                 |
\*---------------------------------------------------------------------------*/
FoamFile
{
    version     2.0;
    format      ascii;
    class       volScalarField;
    location    "98";
    object      nut.water;
}
// * * * * * * * * * * * * * * * * * * * * * * * * * * * * * * * * * * * * * //

dimensions      [0 2 -1 0 0 0 0];

internalField   nonuniform List<scalar> 
1875
(
0.00102549
0.00107797
0.00116595
0.00124783
0.00132214
0.0013871
0.00144331
0.0014919
0.00153375
0.00157024
0.00160247
0.00163023
0.00165297
0.00167133
0.00167729
0.00167815
0.00166649
0.00163311
0.00158091
0.00150985
0.00142069
0.00131288
0.00118247
0.00101852
0.000823073
0.00107509
0.00124339
0.00138328
0.00148233
0.00155207
0.00159955
0.0016313
0.00165192
0.00166511
0.00167026
0.00167635
0.0016821
0.00168666
0.00169171
0.00169582
0.00169893
0.00169739
0.00168161
0.00165119
0.00159105
0.00150347
0.0013851
0.00122657
0.00101954
0.00078272
0.00136429
0.00156471
0.0017146
0.0018084
0.00186284
0.00188806
0.00189439
0.00188815
0.00187357
0.00185416
0.00183439
0.00181556
0.00179569
0.0017773
0.00176088
0.00174325
0.00172318
0.00169858
0.0016669
0.00161175
0.00153335
0.0014273
0.0012907
0.00113421
0.000991874
0.00175645
0.00196831
0.00207278
0.00211298
0.00211689
0.00209981
0.0020722
0.00203783
0.00200113
0.00196434
0.00192839
0.00189339
0.0018592
0.00182753
0.00179825
0.00176969
0.00173991
0.00170485
0.00166335
0.00160546
0.00152733
0.00143025
0.00131464
0.0011867
0.00106548
0.0022364
0.00230944
0.00230892
0.0022817
0.00223935
0.0021889
0.00213586
0.00208377
0.00203459
0.00198867
0.00194533
0.00190437
0.00186552
0.0018291
0.00179495
0.00176083
0.00172285
0.00168163
0.00163425
0.00157639
0.00150391
0.00141616
0.00131492
0.00120798
0.00110478
0.00254017
0.00252955
0.00246586
0.00238442
0.00229763
0.00221277
0.00213466
0.00206563
0.00200548
0.00195397
0.00190936
0.00186937
0.00183136
0.00179434
0.00175604
0.00171615
0.00167645
0.00163607
0.00158838
0.00153223
0.00146673
0.00139012
0.00130661
0.00121934
0.00113362
0.00268819
0.00263528
0.00252474
0.00240668
0.00229088
0.00218325
0.00208756
0.00200552
0.00193845
0.00188371
0.00183832
0.00179879
0.00176238
0.00172704
0.00169201
0.00165729
0.00162117
0.00158387
0.00153889
0.0014885
0.00143175
0.00136706
0.00129823
0.0012276
0.00115945
0.00284197
0.00271756
0.00255725
0.00240459
0.00226387
0.00213255
0.00202002
0.00192807
0.0018528
0.00179613
0.00175225
0.00171604
0.00168306
0.0016533
0.0016247
0.00159687
0.0015688
0.00153441
0.00149428
0.00144916
0.00139896
0.00134245
0.00128357
0.00122184
0.001155
0.00289051
0.00273762
0.0025507
0.00237883
0.00221822
0.00207193
0.00194748
0.00184696
0.00176582
0.00171267
0.00167206
0.00164024
0.0016142
0.00159095
0.0015699
0.00154907
0.00152203
0.00148956
0.00145336
0.00141325
0.00136843
0.00131759
0.00126345
0.001204
0.00113664
0.00292641
0.00274197
0.00253824
0.00235286
0.00217581
0.00201551
0.00188105
0.00177213
0.00169448
0.00164409
0.00161261
0.00159049
0.00157035
0.00155301
0.00153556
0.00151451
0.00149045
0.00146328
0.0014314
0.00139406
0.0013512
0.00130219
0.00124776
0.0011857
0.00111454
0.00297751
0.00275202
0.00252781
0.00233012
0.00214435
0.00197905
0.00184314
0.00173885
0.00166492
0.00162013
0.00159192
0.00157294
0.00155918
0.00154833
0.00153549
0.00151966
0.00149913
0.00147286
0.00144058
0.0014021
0.00135645
0.00130476
0.00124543
0.00117698
0.00109872
0.00300151
0.00274803
0.00251305
0.00231212
0.00212879
0.00196885
0.00183994
0.00174371
0.00167964
0.00164182
0.0016213
0.00161022
0.00160339
0.00159673
0.00158717
0.00157275
0.00155205
0.00152414
0.00148832
0.00144479
0.00139268
0.00133183
0.00126082
0.00117734
0.00107951
0.00287863
0.00267219
0.00246935
0.0022892
0.00212306
0.00197706
0.00185924
0.00177495
0.0017225
0.00169548
0.00168535
0.00168412
0.00168551
0.00168482
0.00167869
0.00166528
0.00164413
0.00161369
0.00157344
0.00152295
0.00146204
0.00139005
0.0013063
0.00120755
0.00109265
0.00266073
0.00254543
0.00240366
0.00226119
0.00212328
0.0019997
0.00190192
0.00183417
0.00179574
0.00178037
0.00177975
0.00178612
0.00179345
0.00179733
0.00179401
0.00178315
0.00176261
0.00173119
0.0016881
0.00163266
0.00156433
0.00148309
0.00139064
0.00128386
0.00117184
0.00249223
0.00243278
0.00234137
0.00223791
0.00213176
0.0020341
0.00195647
0.00190483
0.001879
0.00187339
0.00188048
0.00189322
0.0019061
0.0019152
0.00191698
0.00191095
0.00189469
0.00186672
0.00182572
0.00177042
0.00169988
0.00161388
0.00151094
0.0013892
0.00126226
0.0024241
0.00237601
0.00230701
0.00222924
0.00214805
0.00207333
0.00201404
0.00197647
0.0019606
0.00196197
0.00197452
0.00199236
0.00201072
0.00202597
0.00203493
0.00203659
0.00202875
0.00200919
0.00197607
0.00192734
0.00186056
0.00177301
0.00166189
0.00152451
0.00136872
0.00237837
0.00234279
0.0022926
0.00223532
0.0021733
0.00211637
0.00207134
0.00204392
0.00203514
0.00204125
0.00205734
0.00207873
0.00210169
0.0021231
0.00214002
0.00215084
0.00215414
0.00214745
0.00212864
0.00209547
0.00204492
0.00197241
0.00187146
0.00173371
0.00155042
0.00235492
0.00232968
0.00229358
0.00225031
0.00220437
0.00216087
0.00212631
0.00210583
0.00210073
0.00210898
0.00212691
0.00215065
0.00217689
0.00220294
0.00222672
0.0022462
0.00226009
0.00226677
0.00226512
0.00225331
0.00222909
0.00218839
0.00212467
0.00202738
0.00187132
0.00236763
0.00234109
0.00231149
0.00227951
0.00224448
0.0022099
0.00218175
0.00216408
0.00215921
0.00216681
0.0021843
0.00220846
0.00223633
0.00226546
0.00229372
0.00231952
0.0023413
0.00235778
0.00236859
0.00237409
0.00237262
0.00236164
0.00233773
0.00229901
0.00223259
0.00237456
0.00235178
0.00232946
0.00230498
0.00228067
0.00225395
0.0022312
0.00221544
0.00221007
0.00221543
0.00223095
0.00225415
0.00228227
0.00231291
0.00234392
0.00237387
0.00240119
0.00242482
0.00244434
0.00245951
0.00246967
0.00247354
0.00246867
0.00245531
0.00242681
0.00232374
0.00231898
0.00231175
0.00229992
0.00228747
0.00227447
0.00225978
0.00224889
0.00224468
0.00224989
0.00226395
0.00228622
0.00231433
0.00234628
0.00237974
0.00241299
0.00244456
0.00247339
0.00249876
0.00252016
0.00253696
0.00254692
0.00254734
0.00253859
0.00251487
0.00220322
0.00222007
0.00223675
0.00224733
0.00225172
0.0022519
0.00225081
0.00225074
0.00225302
0.00226172
0.00227874
0.00230122
0.00233074
0.0023651
0.00240184
0.00243897
0.00247488
0.00250831
0.00253828
0.00256381
0.0025838
0.00259686
0.00260032
0.00259575
0.00258457
0.00195514
0.00202393
0.00207918
0.00212649
0.00216315
0.00219009
0.00220686
0.0022183
0.00223122
0.00224626
0.00226673
0.00229386
0.00232749
0.00236705
0.00240957
0.00245263
0.00249434
0.0025332
0.00256797
0.00259724
0.00261931
0.00263198
0.00263271
0.00262031
0.00259763
0.00169061
0.0018055
0.00189982
0.00197685
0.00204001
0.00209047
0.00213175
0.00216383
0.00218966
0.0022133
0.00223901
0.00227133
0.00231152
0.00235724
0.00240672
0.00245667
0.00250577
0.00255155
0.00259246
0.0026271
0.00265319
0.00266821
0.00266955
0.00265517
0.00262636
0.00150017
0.00164933
0.00177188
0.00187104
0.00195108
0.00201379
0.00206435
0.0021069
0.00214405
0.00217831
0.00221327
0.00225069
0.00229362
0.00234397
0.00239986
0.00245757
0.00251343
0.00256694
0.00261535
0.00265713
0.00268975
0.00271116
0.00271851
0.00271137
0.00269072
0.00143496
0.00160114
0.0017394
0.00185116
0.00193671
0.00200312
0.00205314
0.00209368
0.00212955
0.00216502
0.0022015
0.0022425
0.0022886
0.00234105
0.00239916
0.00246154
0.00252429
0.00258415
0.00264036
0.00269007
0.00273084
0.00276112
0.00277874
0.00278433
0.00277919
0.00146805
0.00163999
0.00178615
0.00190395
0.00199382
0.00205905
0.00210384
0.00213674
0.00216338
0.00218903
0.00221862
0.00225448
0.00229808
0.00235068
0.00241046
0.00247538
0.00254266
0.00260794
0.00267083
0.00272811
0.00277754
0.00281727
0.00284652
0.00286701
0.00287965
0.00156072
0.00174285
0.0018975
0.00201859
0.00210795
0.00216813
0.0022046
0.00222429
0.00223691
0.0022496
0.0022684
0.00229656
0.00233517
0.00238401
0.00244117
0.00250538
0.00257385
0.00264234
0.00270981
0.00277317
0.00283022
0.00287876
0.00291909
0.00295416
0.00298426
0.00171262
0.00190134
0.00205925
0.00217935
0.00226382
0.00231574
0.00234206
0.00234966
0.00234845
0.00234674
0.00235201
0.00236875
0.00239811
0.00243961
0.00249167
0.00255238
0.0026191
0.00268824
0.00275807
0.00282536
0.00288772
0.00294321
0.0029928
0.00304113
0.00308724
0.00193288
0.00211623
0.0022642
0.00237547
0.00244863
0.00248748
0.00249964
0.00249325
0.00247789
0.0024624
0.00245481
0.00246015
0.00247962
0.00251294
0.00255862
0.00261441
0.00267735
0.00274432
0.00281326
0.00288137
0.00294611
0.00300542
0.00306153
0.00312201
0.0031836
0.00223981
0.00239318
0.00251098
0.00259777
0.00265014
0.00267019
0.0026652
0.00264379
0.00261482
0.00258687
0.00256796
0.00256298
0.00257334
0.00259877
0.00263767
0.00268737
0.00274496
0.00280747
0.00287239
0.00293715
0.00299937
0.0030571
0.00311401
0.00318013
0.00324994
0.00260575
0.00271231
0.00278633
0.00283541
0.00285766
0.00285367
0.00282936
0.00279228
0.00275039
0.00271204
0.00268406
0.00267081
0.00267319
0.00269101
0.00272261
0.00276517
0.00281566
0.00287108
0.00292868
0.00298601
0.00304064
0.003091
0.00314128
0.00320299
0.00327167
0.00301571
0.00304788
0.00306304
0.00306718
0.00305617
0.00302756
0.0029846
0.00293308
0.00288051
0.00283387
0.0027986
0.00277853
0.00277398
0.00278463
0.00280875
0.00284331
0.00288523
0.00293132
0.00297885
0.003025
0.00306703
0.00310306
0.00313605
0.00317533
0.00321696
0.00334395
0.00331694
0.00329082
0.00326507
0.00323043
0.00318318
0.00312557
0.00306343
0.00300287
0.00295014
0.00290969
0.00288408
0.00287387
0.00287775
0.00289409
0.00292013
0.00295271
0.00298849
0.00302471
0.00305801
0.00308521
0.00310389
0.0031157
0.00312695
0.00313282
0.00351423
0.00349427
0.003463
0.00342679
0.00337958
0.00332054
0.00325343
0.00318407
0.00311867
0.00306227
0.00301799
0.00298741
0.00297189
0.00296966
0.00297884
0.00299679
0.00302025
0.00304639
0.00307186
0.00309319
0.00310681
0.0031106
0.00310613
0.0030989
0.00308308
0.00369093
0.0036621
0.00362137
0.00357453
0.0035166
0.00344799
0.00337358
0.00329924
0.00323049
0.00317137
0.00312405
0.00309011
0.00307003
0.00306274
0.00306574
0.00307663
0.00309262
0.0031106
0.00312724
0.00313881
0.00314154
0.00313351
0.00311638
0.00309428
0.0030581
0.00387376
0.00383197
0.00377859
0.00371941
0.00365008
0.00357231
0.00349156
0.00341311
0.00334146
0.00327997
0.00323077
0.00319505
0.00317177
0.00316017
0.00315838
0.00316404
0.00317444
0.00318662
0.00319716
0.00320212
0.00319811
0.0031831
0.00315909
0.00312919
0.00308171
0.0040699
0.00400912
0.00393927
0.0038659
0.00378463
0.00369818
0.00361178
0.00353006
0.00345638
0.00339331
0.00334286
0.00330527
0.00327958
0.00326507
0.00325997
0.0032621
0.00326894
0.00327762
0.00328471
0.00328634
0.00327971
0.00326304
0.00323882
0.00321037
0.00316794
0.0042687
0.00418832
0.00410167
0.00401454
0.00392235
0.00382857
0.00373814
0.00365424
0.00357948
0.00351573
0.00346352
0.00342367
0.00339613
0.00337954
0.00337221
0.00337211
0.00337686
0.00338365
0.00338912
0.00338974
0.00338328
0.00336841
0.00334749
0.00332247
0.00328412
0.00446417
0.00436591
0.00426397
0.00416504
0.00406417
0.00396501
0.00387133
0.00378552
0.00370952
0.00364474
0.00359187
0.00355111
0.00352209
0.00350393
0.00349496
0.00349325
0.0034965
0.00350192
0.00350624
0.00350623
0.00350002
0.00348654
0.00346766
0.00344544
0.00341366
0.0046557
0.00454179
0.00442619
0.0043174
0.00421014
0.0041071
0.00401107
0.00392385
0.00384696
0.00378147
0.00372793
0.00368647
0.00365651
0.00363709
0.00362667
0.00362343
0.00362508
0.00362883
0.00363153
0.0036303
0.00362368
0.00361051
0.00359383
0.00357798
0.00356489
0.00484133
0.00471524
0.00458809
0.00447127
0.00435964
0.00425411
0.00415661
0.00406858
0.00399123
0.00392534
0.00387131
0.00382916
0.00379826
0.00377756
0.00376558
0.00376053
0.00376011
0.00376151
0.0037616
0.00375775
0.00374851
0.00373325
0.00371389
0.00369364
0.0036748
0.00502074
0.00488515
0.00474924
0.00462656
0.00451203
0.00440505
0.00430684
0.00421853
0.00414105
0.00407501
0.00402065
0.00397786
0.003946
0.00392394
0.00391026
0.00390317
0.0039004
0.00389912
0.00389635
0.00388903
0.00387545
0.00385585
0.00383035
0.00379984
0.00376241
0.00518984
0.00504903
0.00490859
0.00478256
0.00466631
0.00455874
0.00446052
0.00437244
0.00429525
0.00422933
0.00417474
0.0041313
0.00409845
0.00407499
0.00405952
0.0040503
0.00404501
0.00404094
0.0040352
0.00402542
0.00401024
0.00398879
0.00396381
0.00393757
0.00391243
0.00535173
0.00520845
0.00506603
0.0049385
0.00482163
0.00471419
0.00461646
0.00452898
0.00445224
0.00438657
0.00433199
0.00428812
0.0042544
0.00422962
0.00421246
0.0042012
0.00419362
0.00418656
0.00417764
0.00416541
0.00414854
0.0041253
0.00409808
0.00406914
0.00404093
0.00550978
0.00536522
0.00522211
0.00509406
0.00497736
0.00487061
0.0047738
0.00468728
0.0046114
0.00454631
0.00449168
0.00444743
0.00441291
0.00438695
0.00436823
0.0043551
0.00434537
0.00433634
0.00432565
0.00431078
0.00429022
0.0042639
0.00423196
0.00419454
0.00415183
0.0056633
0.00551867
0.00537599
0.00524848
0.0051327
0.00502727
0.00493177
0.00484638
0.00477161
0.00470714
0.00465265
0.00460825
0.00457323
0.00454642
0.00452656
0.00451156
0.00449976
0.0044896
0.00447739
0.00446112
0.00443952
0.00441236
0.00438102
0.00434732
0.00431267
0.0058111
0.00566792
0.00552691
0.00540092
0.0052867
0.00518289
0.00508897
0.00500502
0.00493115
0.00486716
0.00481398
0.00476999
0.00473452
0.00470703
0.00468628
0.00467054
0.00465763
0.00464546
0.00463163
0.00461468
0.00459341
0.00456666
0.0045363
0.0045035
0.00447063
0.00595304
0.00581258
0.00567408
0.00554996
0.00543736
0.00533484
0.00524283
0.00516117
0.00508882
0.00502696
0.00497459
0.00493116
0.00489614
0.00486827
0.00484624
0.00483005
0.0048167
0.00480363
0.00478992
0.00477293
0.0047514
0.00472487
0.00469455
0.00466092
0.00462597
0.00609266
0.00595417
0.00581753
0.00569497
0.00558479
0.00548551
0.00539582
0.00531564
0.00524576
0.00518517
0.00513306
0.00509031
0.00505615
0.00502881
0.00500732
0.00499023
0.00497665
0.00496455
0.00495097
0.00493436
0.00491344
0.00488792
0.00485923
0.00482746
0.00479257
0.00623159
0.00609113
0.00595605
0.00583682
0.0057297
0.00563328
0.00554635
0.00546868
0.0054005
0.00534089
0.00529106
0.00524943
0.00521537
0.00518875
0.00516861
0.00515244
0.00513924
0.00512702
0.00511356
0.00509751
0.00507762
0.00505363
0.00502686
0.00499775
0.00496699
0.00633939
0.00621165
0.00608493
0.00597115
0.00586813
0.00577462
0.00569109
0.00561722
0.00555155
0.00549556
0.00544789
0.00540801
0.00537535
0.00534949
0.00532931
0.00531409
0.00530137
0.00528935
0.00527705
0.00526212
0.00524364
0.0052213
0.00519678
0.00517054
0.00514533
0.00645673
0.00633101
0.00620839
0.00609844
0.00600025
0.00591239
0.00583294
0.00576185
0.00570016
0.00564654
0.00560043
0.00556272
0.00553279
0.00550863
0.00548944
0.00547454
0.00546301
0.0054528
0.00544183
0.00542842
0.00541162
0.00539105
0.00536858
0.00534424
0.00531965
0.00653777
0.00643016
0.00631974
0.00621932
0.00612785
0.00604503
0.0059702
0.0059034
0.00584484
0.00579382
0.00575149
0.00571626
0.00568747
0.00566521
0.00564854
0.00563618
0.00562628
0.00561746
0.00560801
0.00559654
0.00558177
0.00556346
0.00554321
0.00552078
0.00549683
0.006663
0.00654792
0.00643728
0.00633891
0.00625103
0.00617196
0.00610174
0.00603998
0.00598517
0.00593879
0.00589982
0.00586773
0.00584203
0.00582234
0.0058078
0.0057973
0.00578928
0.00578252
0.00577526
0.00576619
0.0057539
0.00573821
0.00572075
0.00570114
0.00568042
0.0067645
0.00664779
0.00654091
0.00644714
0.00636523
0.00629312
0.00622841
0.00617086
0.00612161
0.00607928
0.00604334
0.00601482
0.00599322
0.00597671
0.00596478
0.00595633
0.00595132
0.00594757
0.00594341
0.00593739
0.00592837
0.00591606
0.00590207
0.0058857
0.00586724
0.00677394
0.00670025
0.00661831
0.00654131
0.00647046
0.0064063
0.00634843
0.00629704
0.00625251
0.00621426
0.00618361
0.00615904
0.00613997
0.00612679
0.00611862
0.00611472
0.00611307
0.00611275
0.00611239
0.00611033
0.0061055
0.00609764
0.00608815
0.00607592
0.00606046
0.00688677
0.00679696
0.00671228
0.0066378
0.00657177
0.00651271
0.00646093
0.00641619
0.00637702
0.00634506
0.0063192
0.00629919
0.00628477
0.0062757
0.00627135
0.0062709
0.00627302
0.00627691
0.00628113
0.00628418
0.00628487
0.00628285
0.00627959
0.00627404
0.00626579
0.00695098
0.00686513
0.00678817
0.00672109
0.00666307
0.00661263
0.0065678
0.0065285
0.00649592
0.00646892
0.00644721
0.00643202
0.00642302
0.00641852
0.00641821
0.00642138
0.00642844
0.00643755
0.0064475
0.00645698
0.00646484
0.00647072
0.00647582
0.00647879
0.00647784
0.00692761
0.00688848
0.00683921
0.00679068
0.00674497
0.00670343
0.00666621
0.00663372
0.00660643
0.00658405
0.00656796
0.00655737
0.00655144
0.00655088
0.00655526
0.00656421
0.00657633
0.0065912
0.00660784
0.00662518
0.00664216
0.00665867
0.00667555
0.00669132
0.00670242
0.00702034
0.0069652
0.00691236
0.00686519
0.00682317
0.00678582
0.00675402
0.00672774
0.00670572
0.00668965
0.00667853
0.00667215
0.00667052
0.00667382
0.00668183
0.00669433
0.00671077
0.00673114
0.00675485
0.00678123
0.00680963
0.00684013
0.00687365
0.00690846
0.00693882
0.00708339
0.00702604
0.00697367
0.00692759
0.00688863
0.00685617
0.00682908
0.00680713
0.00679076
0.00677937
0.00677209
0.00676885
0.00677107
0.00677726
0.00678755
0.006802
0.00682197
0.00684693
0.00687711
0.00691271
0.00695402
0.0070019
0.00705756
0.0071196
0.00717855
0.00709751
0.00705795
0.00701121
0.00696865
0.00693253
0.00690375
0.00688147
0.00686482
0.00685357
0.00684625
0.00684337
0.00684398
0.00684758
0.00685456
0.00686517
0.00688003
0.00689957
0.00692495
0.00695774
0.00699973
0.00705298
0.00712023
0.00720413
0.00730403
0.00740407
0.00720319
0.00711276
0.00703434
0.00697581
0.00693547
0.00690971
0.00689477
0.00688758
0.00688538
0.00688649
0.00688976
0.0068946
0.00689971
0.00690547
0.00691219
0.00692073
0.00693214
0.00694901
0.00697449
0.007013
0.00707009
0.00715313
0.00727074
0.00742866
0.0076065
0.00726365
0.00707571
0.00695107
0.00688087
0.00684828
0.00683985
0.0068458
0.00685941
0.00687607
0.00689285
0.00690734
0.00691832
0.00692521
0.00692764
0.00692576
0.00692031
0.006913
0.00690665
0.00690572
0.00691708
0.00695086
0.00702253
0.00715478
0.00737632
0.00768643
0.00692953
0.00669608
0.00660161
0.00659068
0.00662254
0.00667382
0.00673127
0.00678727
0.00683732
0.00687902
0.0069109
0.00693201
0.00694165
0.0069396
0.0069256
0.00689969
0.00686232
0.00681502
0.00676088
0.00670578
0.00666014
0.00664241
0.00668541
0.00684913
0.00720308
0.00563662
0.00572467
0.00591009
0.00611108
0.00629922
0.00646487
0.00660543
0.00672176
0.00681553
0.00688816
0.00694073
0.00697402
0.00698826
0.0069829
0.00695726
0.00691008
0.00683984
0.00674444
0.00662166
0.00646957
0.00628718
0.00607693
0.00585021
0.00563977
0.00553929
0.00359676
0.0045245
0.00521989
0.0057154
0.00608019
0.00635662
0.00656978
0.00673548
0.00686355
0.00696022
0.00702933
0.0070731
0.0070928
0.00708757
0.00705656
0.00699743
0.0069065
0.00677831
0.00660507
0.00637554
0.00607265
0.00567087
0.00513063
0.00438997
0.00344246
0.00592796
0.00583278
0.00597252
0.00618152
0.00640927
0.00662527
0.00681503
0.00697435
0.00710353
0.00720435
0.00727867
0.00732781
0.0073531
0.00735292
0.00732675
0.00727245
0.00718663
0.00706482
0.00690197
0.00669425
0.00644266
0.00616154
0.00589178
0.00570639
0.00578737
0.0139612
0.00855434
0.00723177
0.00683972
0.00681626
0.00692286
0.00706773
0.00720924
0.00733274
0.00743289
0.00750937
0.00756239
0.00759473
0.00760175
0.00758416
0.00754234
0.00747249
0.00736991
0.00723085
0.00705832
0.00687935
0.0067854
0.00701639
0.00835325
0.0147212
0.0450998
0.0156841
0.0090535
0.00756006
0.00728372
0.00734129
0.00745999
0.00756263
0.00765002
0.00772445
0.00778978
0.00784828
0.00789684
0.00792326
0.00792988
0.00790453
0.0078433
0.00774104
0.00758882
0.00738453
0.00716003
0.00710738
0.00777661
0.0114627
0.0271299
0.0446442
0.0185389
0.0100578
0.00765791
0.00677427
0.00613219
0.00581121
0.00568616
0.00564707
0.00568808
0.00579114
0.00601771
0.0063306
0.00666632
0.00698989
0.00727829
0.007528
0.00771851
0.00781962
0.00774415
0.00743301
0.00723882
0.00824517
0.0139805
0.0331704
0.0191713
0.0133406
0.00733553
0.00374798
0.00177796
0.00103404
0.000797246
0.000763825
0.00076868
0.000831051
0.00094714
0.00120232
0.00176142
0.00242894
0.00312834
0.00378239
0.00450173
0.00533677
0.0062331
0.00713632
0.0074555
0.00731781
0.00852894
0.0129579
0.0198108
0.0111457
0.00974736
0.00418948
0.00114492
0.000157939
1.78063e-05
6.45491e-06
5.68414e-06
6.29145e-06
8.74735e-06
1.48577e-05
3.12536e-05
6.97968e-05
0.000120752
0.000256133
0.00051347
0.00107365
0.00186604
0.00295979
0.00447416
0.00643224
0.00704153
0.00810486
0.0116559
0.014327
0.00603843
0.00637754
0.00325532
0.000692285
2.05614e-05
9.087e-07
7.03154e-07
6.78577e-07
6.52845e-07
6.29803e-07
6.08799e-07
5.94949e-07
5.97462e-07
6.34497e-07
8.39788e-07
1.8858e-06
1.1907e-05
0.00016697
0.000608571
0.00153816
0.00331516
0.00503631
0.00682172
0.00877083
0.00804428
)
;

boundaryField
{
    inlet
    {
        type            calculated;
        value           uniform 8.4375e-07;
    }
    outlet
    {
        type            calculated;
        value           nonuniform List<scalar> 
25
(
0.00603843
0.00637754
0.00325532
0.000692285
8.4375e-07
8.4375e-07
8.4375e-07
8.4375e-07
8.4375e-07
8.4375e-07
8.4375e-07
8.4375e-07
8.4375e-07
8.4375e-07
8.4375e-07
8.4375e-07
8.4375e-07
8.4375e-07
0.000608571
0.00153816
0.00331516
0.00503631
0.00682172
0.00877083
0.00804428
)
;
    }
    walls
    {
        type            nutkWallFunction;
        Cmu             0.09;
        kappa           0.41;
        E               9.8;
        value           nonuniform List<scalar> 
150
(
1.68259e-05
1.91517e-05
1.98419e-05
2.00719e-05
2.02526e-05
2.0613e-05
2.09664e-05
2.12776e-05
2.14648e-05
2.15968e-05
2.16085e-05
2.15336e-05
2.14458e-05
2.1364e-05
2.12803e-05
2.11968e-05
2.11483e-05
2.11302e-05
2.11212e-05
2.11011e-05
2.10264e-05
2.08313e-05
2.05095e-05
2.01297e-05
1.98431e-05
1.97594e-05
1.99025e-05
2.02341e-05
2.0642e-05
2.10604e-05
2.14669e-05
2.18508e-05
2.21967e-05
2.2488e-05
2.2731e-05
2.29479e-05
2.31519e-05
2.3349e-05
2.35396e-05
2.37149e-05
2.38712e-05
2.40157e-05
2.41523e-05
2.42871e-05
2.44245e-05
2.45638e-05
2.47047e-05
2.48464e-05
2.49883e-05
2.51299e-05
2.52696e-05
2.54052e-05
2.55387e-05
2.56673e-05
2.57912e-05
2.59163e-05
2.60386e-05
2.61603e-05
2.62906e-05
2.64287e-05
2.65818e-05
2.67648e-05
2.69846e-05
2.72588e-05
2.76156e-05
2.81015e-05
2.88107e-05
2.98199e-05
2.98939e-05
2.93973e-05
2.77083e-05
2.62812e-05
2.48909e-05
2.40345e-05
2.30979e-05
1.42293e-05
1.68459e-05
1.77688e-05
1.82041e-05
1.83871e-05
1.84607e-05
1.84467e-05
1.83906e-05
1.8271e-05
1.81588e-05
1.8145e-05
1.82789e-05
1.85985e-05
1.90476e-05
1.9523e-05
1.99125e-05
2.02487e-05
2.0591e-05
2.08963e-05
2.11248e-05
2.12682e-05
2.13695e-05
2.14565e-05
2.15342e-05
2.16097e-05
2.1689e-05
2.1774e-05
2.18655e-05
2.19611e-05
2.2049e-05
2.21143e-05
2.21552e-05
2.21901e-05
2.22248e-05
2.2263e-05
2.23276e-05
2.2435e-05
2.25836e-05
2.27647e-05
2.29465e-05
2.31077e-05
2.32689e-05
2.34466e-05
2.36286e-05
2.38056e-05
2.39906e-05
2.41802e-05
2.43654e-05
2.45505e-05
2.47353e-05
2.49184e-05
2.50995e-05
2.52786e-05
2.54564e-05
2.56329e-05
2.58091e-05
2.59868e-05
2.61683e-05
2.63569e-05
2.65565e-05
2.67727e-05
2.70138e-05
2.72915e-05
2.76237e-05
2.8043e-05
2.86144e-05
2.94643e-05
3.06756e-05
3.08567e-05
3.04643e-05
2.91493e-05
2.75636e-05
2.65172e-05
2.60937e-05
2.5163e-05
)
;
    }
    defaultFaces
    {
        type            empty;
    }
}


// ************************************************************************* //
