/*--------------------------------*- C++ -*----------------------------------*\
| =========                 |                                                 |
| \\      /  F ield         | OpenFOAM: The Open Source CFD Toolbox           |
|  \\    /   O peration     | Version:  2.3.0                                 |
|   \\  /    A nd           | Web:      www.OpenFOAM.org                      |
|    \\/     M anipulation  |                                                 |
\*---------------------------------------------------------------------------*/
FoamFile
{
    version     2.0;
    format      ascii;
    class       volVectorField;
    location    "98";
    object      U.water;
}
// * * * * * * * * * * * * * * * * * * * * * * * * * * * * * * * * * * * * * //

dimensions      [0 1 -1 0 0 0 0];

internalField   nonuniform List<vector> 
1875
(
(0.0224258 -0.103327 0)
(0.041688 -0.110375 0)
(0.0755531 -0.113333 0)
(0.11007 -0.111899 0)
(0.143354 -0.107687 0)
(0.173965 -0.101911 0)
(0.201109 -0.0953405 0)
(0.224298 -0.0884244 0)
(0.243175 -0.0813694 0)
(0.257476 -0.0742126 0)
(0.266992 -0.066902 0)
(0.27158 -0.0594638 0)
(0.270778 -0.0519749 0)
(0.264072 -0.0445758 0)
(0.251422 -0.0372241 0)
(0.233248 -0.0301635 0)
(0.210402 -0.0242877 0)
(0.184236 -0.0204632 0)
(0.156424 -0.0196511 0)
(0.128951 -0.0221473 0)
(0.103534 -0.0271892 0)
(0.0809046 -0.0329726 0)
(0.0602797 -0.0371264 0)
(0.0366556 -0.0385716 0)
(0.0225328 -0.0411404 0)
(0.0302467 -0.0707132 0)
(0.0548915 -0.0766044 0)
(0.0850981 -0.0797493 0)
(0.111946 -0.0769261 0)
(0.136568 -0.0697746 0)
(0.158808 -0.0595749 0)
(0.17849 -0.047492 0)
(0.195426 -0.0342129 0)
(0.209348 -0.0201515 0)
(0.219962 -0.0054088 0)
(0.226889 0.0100956 0)
(0.229449 0.0263137 0)
(0.227874 0.04242 0)
(0.222885 0.0579695 0)
(0.214196 0.0727249 0)
(0.201057 0.0860963 0)
(0.183255 0.0963787 0)
(0.161653 0.102793 0)
(0.137884 0.105249 0)
(0.113569 0.104274 0)
(0.0895925 0.101229 0)
(0.066768 0.0981645 0)
(0.0458269 0.097906 0)
(0.0261029 0.101421 0)
(0.0116867 0.0997834 0)
(0.0217863 -0.187651 0)
(0.0495599 -0.18247 0)
(0.0759269 -0.172852 0)
(0.0969548 -0.160133 0)
(0.114616 -0.145142 0)
(0.129524 -0.128358 0)
(0.141861 -0.110165 0)
(0.151645 -0.0908576 0)
(0.158983 -0.0706034 0)
(0.164007 -0.0495688 0)
(0.166957 -0.0278406 0)
(0.168173 -0.00529929 0)
(0.167076 0.0182122 0)
(0.162927 0.0422549 0)
(0.155705 0.06591 0)
(0.14545 0.0878844 0)
(0.132163 0.105727 0)
(0.115972 0.11754 0)
(0.0976482 0.122287 0)
(0.0786379 0.120757 0)
(0.060298 0.115129 0)
(0.0434725 0.108629 0)
(0.0284559 0.104496 0)
(0.0157537 0.102426 0)
(0.00772472 0.0975819 0)
(0.00826687 -0.223261 0)
(0.0325883 -0.213315 0)
(0.049163 -0.197331 0)
(0.0624117 -0.179054 0)
(0.0736833 -0.158929 0)
(0.0829847 -0.137013 0)
(0.0901269 -0.113561 0)
(0.0950174 -0.088949 0)
(0.0977464 -0.0635006 0)
(0.0984897 -0.0373746 0)
(0.0973135 -0.0106124 0)
(0.0942712 0.0166973 0)
(0.0897424 0.0442737 0)
(0.0840408 0.0720082 0)
(0.0771867 0.0992713 0)
(0.0691979 0.124711 0)
(0.0601504 0.145835 0)
(0.0504208 0.159834 0)
(0.0403674 0.16504 0)
(0.0305786 0.162148 0)
(0.0217911 0.15383 0)
(0.0143984 0.143807 0)
(0.00869897 0.134853 0)
(0.00462536 0.127558 0)
(0.00163402 0.119342 0)
(-0.000525032 -0.245855 0)
(0.0139599 -0.236211 0)
(0.0193304 -0.21906 0)
(0.0238062 -0.198837 0)
(0.027652 -0.175947 0)
(0.0300314 -0.150636 0)
(0.0306876 -0.123406 0)
(0.0296985 -0.0948721 0)
(0.0272427 -0.0656835 0)
(0.0235591 -0.036114 0)
(0.0188833 -0.00620074 0)
(0.0134076 0.0240591 0)
(0.00735948 0.054483 0)
(0.00105757 0.0846089 0)
(-0.00510692 0.113544 0)
(-0.0105895 0.139629 0)
(-0.0147777 0.160131 0)
(-0.0172124 0.171952 0)
(-0.0179689 0.174343 0)
(-0.0172312 0.168363 0)
(-0.0153246 0.157239 0)
(-0.0126439 0.144908 0)
(-0.00935211 0.134276 0)
(-0.0054075 0.125792 0)
(-0.00340581 0.117665 0)
(-0.00557501 -0.249577 0)
(-0.00155487 -0.23902 0)
(-0.00659722 -0.220352 0)
(-0.0110451 -0.198678 0)
(-0.015664 -0.17348 0)
(-0.0215683 -0.145352 0)
(-0.028598 -0.115308 0)
(-0.0363346 -0.0842136 0)
(-0.0444748 -0.0528362 0)
(-0.0527511 -0.0215804 0)
(-0.0608841 0.00946211 0)
(-0.0685133 0.0401865 0)
(-0.0752057 0.0702445 0)
(-0.0804533 0.0989709 0)
(-0.0836032 0.125119 0)
(-0.0839097 0.14668 0)
(-0.0808832 0.16113 0)
(-0.0746961 0.167048 0)
(-0.0660113 0.164462 0)
(-0.0556899 0.155055 0)
(-0.044814 0.142148 0)
(-0.0341055 0.129135 0)
(-0.0237222 0.118233 0)
(-0.0132061 0.109958 0)
(-0.00798682 0.103108 0)
(-0.0135168 -0.236787 0)
(-0.0152213 -0.225125 0)
(-0.0288542 -0.205551 0)
(-0.0417155 -0.183008 0)
(-0.0548806 -0.156199 0)
(-0.0690439 -0.126382 0)
(-0.0834237 -0.0951754 0)
(-0.0973907 -0.0636661 0)
(-0.110446 -0.0326269 0)
(-0.12213 -0.00245966 0)
(-0.131966 0.0266828 0)
(-0.139425 0.0544994 0)
(-0.143935 0.0803965 0)
(-0.144933 0.103421 0)
(-0.141963 0.122224 0)
(-0.13488 0.13535 0)
(-0.123925 0.141795 0)
(-0.109777 0.141143 0)
(-0.0935305 0.134173 0)
(-0.0765502 0.123058 0)
(-0.0600474 0.110529 0)
(-0.0445975 0.0988543 0)
(-0.0302217 0.0894148 0)
(-0.0165344 0.0826209 0)
(-0.00986345 0.0778662 0)
(-0.0196611 -0.208207 0)
(-0.0257826 -0.195032 0)
(-0.0464855 -0.174721 0)
(-0.0663771 -0.151415 0)
(-0.0867269 -0.123547 0)
(-0.107322 -0.0934437 0)
(-0.126915 -0.0630891 0)
(-0.144716 -0.033698 0)
(-0.159952 -0.00606412 0)
(-0.171903 0.0193585 0)
(-0.180046 0.0422525 0)
(-0.183991 0.0625425 0)
(-0.183439 0.0797222 0)
(-0.178311 0.0933881 0)
(-0.16871 0.10276 0)
(-0.155066 0.107325 0)
(-0.138102 0.1066 0)
(-0.118888 0.101201 0)
(-0.0988009 0.0924354 0)
(-0.0791613 0.0821252 0)
(-0.0608259 0.0719825 0)
(-0.0441063 0.0633302 0)
(-0.029005 0.057121 0)
(-0.0154258 0.0539563 0)
(-0.00888098 0.0527927 0)
(-0.0236226 -0.167835 0)
(-0.0331874 -0.153089 0)
(-0.0582759 -0.132122 0)
(-0.0824898 -0.108377 0)
(-0.106815 -0.080625 0)
(-0.130249 -0.0522366 0)
(-0.151397 -0.0253684 0)
(-0.169333 -0.0013573 0)
(-0.183231 0.0191284 0)
(-0.192518 0.0358902 0)
(-0.196836 0.0494031 0)
(-0.196133 0.0596867 0)
(-0.190623 0.0669951 0)
(-0.180527 0.0710554 0)
(-0.16636 0.0716514 0)
(-0.148978 0.0690624 0)
(-0.12939 0.0636222 0)
(-0.108886 0.0563218 0)
(-0.0886733 0.0482262 0)
(-0.0696613 0.040412 0)
(-0.0523448 0.0337685 0)
(-0.0369074 0.029043 0)
(-0.0234334 0.0269917 0)
(-0.0119973 0.0282765 0)
(-0.00676969 0.0312695 0)
(-0.0260922 -0.11974 0)
(-0.036628 -0.103677 0)
(-0.0631682 -0.0824114 0)
(-0.0885052 -0.0590517 0)
(-0.11326 -0.033065 0)
(-0.136091 -0.00844394 0)
(-0.155697 0.0126469 0)
(-0.171214 0.0290062 0)
(-0.182144 0.0403662 0)
(-0.187757 0.0468129 0)
(-0.188586 0.0495641 0)
(-0.184248 0.0497747 0)
(-0.175394 0.0470684 0)
(-0.162677 0.0419465 0)
(-0.146937 0.0355535 0)
(-0.129022 0.0283254 0)
(-0.110093 0.0208081 0)
(-0.0911944 0.0136979 0)
(-0.0731025 0.00757165 0)
(-0.0563414 0.00293538 0)
(-0.0412344 0.000218285 0)
(-0.0280017 -0.000111365 0)
(-0.016877 0.00261131 0)
(-0.00809989 0.00909673 0)
(-0.00435241 0.0164786 0)
(-0.0257243 -0.0691372 0)
(-0.0357009 -0.0522407 0)
(-0.0610631 -0.0312406 0)
(-0.0848906 -0.00939516 0)
(-0.107564 0.0131905 0)
(-0.127806 0.0324102 0)
(-0.144596 0.0461544 0)
(-0.157298 0.0534819 0)
(-0.164897 0.0548485 0)
(-0.168162 0.0513657 0)
(-0.166532 0.0439674 0)
(-0.160585 0.0341165 0)
(-0.150948 0.0230555 0)
(-0.138382 0.0119268 0)
(-0.12384 0.00121136 0)
(-0.108151 -0.00850009 0)
(-0.0920802 -0.0166979 0)
(-0.0761997 -0.0230274 0)
(-0.0609218 -0.0272263 0)
(-0.0465751 -0.0290398 0)
(-0.0334527 -0.0281846 0)
(-0.0218741 -0.0242574 0)
(-0.0122433 -0.0166429 0)
(-0.0049968 -0.00470862 0)
(-0.00207747 0.0074384 0)
(-0.0231949 -0.0215242 0)
(-0.0317626 -0.00387537 0)
(-0.0541705 0.0165026 0)
(-0.0749456 0.0361046 0)
(-0.0943686 0.0546954 0)
(-0.111407 0.0683849 0)
(-0.125304 0.0752607 0)
(-0.135559 0.074668 0)
(-0.141676 0.06705 0)
(-0.143493 0.0538128 0)
(-0.141273 0.0374305 0)
(-0.135661 0.0200305 0)
(-0.127402 0.00296127 0)
(-0.117243 -0.0127984 0)
(-0.105858 -0.0265622 0)
(-0.0937839 -0.0379815 0)
(-0.0813872 -0.0468737 0)
(-0.0688904 -0.0531153 0)
(-0.0564515 -0.0565414 0)
(-0.0442405 -0.0568985 0)
(-0.0324902 -0.0538242 0)
(-0.0215243 -0.0467717 0)
(-0.0117978 -0.0349473 0)
(-0.0040634 -0.0175564 0)
(-0.000956771 0.000775591 0)
(-0.0200564 0.0199962 0)
(-0.026792 0.0385622 0)
(-0.0454937 0.0581211 0)
(-0.0626589 0.0751748 0)
(-0.0785621 0.0897634 0)
(-0.092427 0.0983355 0)
(-0.103712 0.0991143 0)
(-0.111952 0.0915162 0)
(-0.116712 0.0762383 0)
(-0.118032 0.0556686 0)
(-0.116449 0.0327562 0)
(-0.112597 0.00989173 0)
(-0.107104 -0.0113615 0)
(-0.100502 -0.0301426 0)
(-0.0931443 -0.046089 0)
(-0.0852408 -0.0591131 0)
(-0.0768938 -0.0692231 0)
(-0.0681322 -0.0764052 0)
(-0.0589351 -0.0805088 0)
(-0.049283 -0.0811893 0)
(-0.0392227 -0.0778823 0)
(-0.0288913 -0.0697384 0)
(-0.0186595 -0.0555344 0)
(-0.00964825 -0.0335035 0)
(-0.00529297 -0.00776246 0)
(-0.0164898 0.0543789 0)
(-0.0212133 0.0736958 0)
(-0.0358014 0.0923014 0)
(-0.0490527 0.106893 0)
(-0.0612788 0.118039 0)
(-0.0719659 0.12251 0)
(-0.0807632 0.118573 0)
(-0.0872278 0.105551 0)
(-0.0910889 0.0846212 0)
(-0.0926491 0.0589691 0)
(-0.0924587 0.0318167 0)
(-0.0910223 0.00557939 0)
(-0.0887512 -0.0183111 0)
(-0.0858872 -0.039216 0)
(-0.0825133 -0.0569648 0)
(-0.0786232 -0.0716156 0)
(-0.0741664 -0.0833 0)
(-0.0690763 -0.0921134 0)
(-0.0632566 -0.0980112 0)
(-0.0565712 -0.100536 0)
(-0.0488244 -0.0990066 0)
(-0.0399 -0.0924831 0)
(-0.0300411 -0.0792775 0)
(-0.0196075 -0.0570101 0)
(-0.0131815 -0.0326567 0)
(-0.0115617 0.0803605 0)
(-0.0145079 0.100106 0)
(-0.0245448 0.117921 0)
(-0.0336729 0.130501 0)
(-0.0421303 0.139069 0)
(-0.0496262 0.140702 0)
(-0.0559832 0.133652 0)
(-0.0608894 0.117074 0)
(-0.0642778 0.0928129 0)
(-0.0665514 0.0643508 0)
(-0.0681048 0.0349018 0)
(-0.0691982 0.00680476 0)
(-0.0699131 -0.018668 0)
(-0.07022 -0.0410654 0)
(-0.0700634 -0.0603338 0)
(-0.0693607 -0.0765953 0)
(-0.0680311 -0.090002 0)
(-0.0660065 -0.100672 0)
(-0.0632135 -0.10863 0)
(-0.0594864 -0.113756 0)
(-0.0545833 -0.115557 0)
(-0.0481446 -0.112989 0)
(-0.039867 -0.104372 0)
(-0.0279379 -0.0880713 0)
(-0.0185152 -0.0714081 0)
(-0.00594432 0.0959462 0)
(-0.00708305 0.116003 0)
(-0.0120802 0.133807 0)
(-0.0167701 0.145442 0)
(-0.021252 0.152633 0)
(-0.0254581 0.152909 0)
(-0.029329 0.144518 0)
(-0.0328582 0.126502 0)
(-0.0361097 0.10116 0)
(-0.0392553 0.0719021 0)
(-0.0423915 0.0417461 0)
(-0.0454971 0.0127912 0)
(-0.0484186 -0.0138091 0)
(-0.0509821 -0.0374936 0)
(-0.0530684 -0.0581526 0)
(-0.0546017 -0.0758685 0)
(-0.0555619 -0.0907903 0)
(-0.055966 -0.103098 0)
(-0.0558436 -0.11299 0)
(-0.0550985 -0.120668 0)
(-0.053407 -0.126042 0)
(-0.0501644 -0.1287 0)
(-0.0441321 -0.127941 0)
(-0.0321242 -0.123462 0)
(-0.0188016 -0.117255 0)
(-0.000662751 0.100572 0)
(0.000200736 0.121152 0)
(0.000469478 0.139179 0)
(0.000403448 0.150856 0)
(-4.49475e-06 0.158095 0)
(-0.000724101 0.158659 0)
(-0.00197071 0.150935 0)
(-0.00401158 0.133939 0)
(-0.00696452 0.109574 0)
(-0.0106581 0.0809921 0)
(-0.0148501 0.051068 0)
(-0.0192711 0.0218651 0)
(-0.023663 -0.0054022 0)
(-0.0278001 -0.0300881 0)
(-0.031498 -0.0519647 0)
(-0.0346574 -0.0709862 0)
(-0.0372762 -0.0872107 0)
(-0.0394558 -0.100808 0)
(-0.0412953 -0.112109 0)
(-0.0426523 -0.121763 0)
(-0.0430384 -0.130359 0)
(-0.0416983 -0.138405 0)
(-0.0375493 -0.14646 0)
(-0.0278736 -0.154522 0)
(-0.0122898 -0.159435 0)
(0.00358837 0.0954181 0)
(0.00677258 0.115478 0)
(0.0124254 0.133957 0)
(0.0168089 0.146721 0)
(0.0203803 0.155147 0)
(0.023166 0.157531 0)
(0.0247045 0.15238 0)
(0.0245613 0.138488 0)
(0.022478 0.116982 0)
(0.0187889 0.0905838 0)
(0.0139961 0.0619825 0)
(0.00859891 0.0332569 0)
(0.00301036 0.00574987 0)
(-0.00244405 -0.0197329 0)
(-0.00751324 -0.0427701 0)
(-0.0120477 -0.0631119 0)
(-0.0159974 -0.0806657 0)
(-0.0194295 -0.0955312 0)
(-0.0223486 -0.108337 0)
(-0.0244562 -0.120144 0)
(-0.0252994 -0.13177 0)
(-0.0245364 -0.143913 0)
(-0.0221273 -0.157267 0)
(-0.0169164 -0.172556 0)
(-0.00361873 -0.183119 0)
(0.00731837 0.0805129 0)
(0.0124379 0.0988027 0)
(0.0227268 0.11832 0)
(0.0312576 0.133283 0)
(0.0385057 0.143971 0)
(0.0445342 0.149343 0)
(0.0489434 0.148054 0)
(0.0510896 0.13921 0)
(0.0506093 0.122444 0)
(0.0475664 0.0998227 0)
(0.0426036 0.073768 0)
(0.0364786 0.0463968 0)
(0.0298247 0.0192374 0)
(0.0231159 -0.00668846 0)
(0.0166965 -0.0307323 0)
(0.0108039 -0.0524279 0)
(0.00558928 -0.0715168 0)
(0.00117014 -0.0880356 0)
(-0.00234723 -0.102762 0)
(-0.00487437 -0.116876 0)
(-0.00630114 -0.131094 0)
(-0.00656011 -0.145771 0)
(-0.00611981 -0.161364 0)
(-0.00569593 -0.179076 0)
(0.00120421 -0.191425 0)
(0.00960013 0.058665 0)
(0.0161136 0.0744363 0)
(0.0297588 0.0943265 0)
(0.0419685 0.111771 0)
(0.0525256 0.125445 0)
(0.0614864 0.134491 0)
(0.0685514 0.137853 0)
(0.0732027 0.134388 0)
(0.0748424 0.124061 0)
(0.0733063 0.107165 0)
(0.0689483 0.0853373 0)
(0.0625515 0.0606066 0)
(0.0550272 0.0346932 0)
(0.047133 0.00889915 0)
(0.0393886 -0.0158479 0)
(0.0321507 -0.0388485 0)
(0.0256697 -0.0596615 0)
(0.0201742 -0.078249 0)
(0.0157947 -0.0951183 0)
(0.012384 -0.111232 0)
(0.00972973 -0.127295 0)
(0.00774456 -0.143469 0)
(0.00591276 -0.159613 0)
(0.00261888 -0.177589 0)
(0.00414087 -0.191359 0)
(0.0104453 0.0329076 0)
(0.0175488 0.045396 0)
(0.0330062 0.0642547 0)
(0.0480479 0.0837557 0)
(0.0613985 0.100708 0)
(0.0728451 0.113816 0)
(0.0822218 0.122248 0)
(0.0891446 0.125107 0)
(0.0931338 0.121344 0)
(0.0937598 0.111228 0)
(0.0909353 0.0953106 0)
(0.0850443 0.0748134 0)
(0.077083 0.0513516 0)
(0.0681856 0.0265058 0)
(0.0591795 0.00155016 0)
(0.0506102 -0.022525 0)
(0.0428339 -0.0450194 0)
(0.0360729 -0.0656696 0)
(0.0304248 -0.0846383 0)
(0.0257277 -0.102485 0)
(0.0216041 -0.119785 0)
(0.0177265 -0.136555 0)
(0.0136871 -0.152314 0)
(0.00798628 -0.169386 0)
(0.00684203 -0.184209 0)
(0.0102573 0.00614769 0)
(0.0169439 0.0147224 0)
(0.0325894 0.0310423 0)
(0.0491859 0.051352 0)
(0.0646497 0.0712985 0)
(0.0781071 0.0885037 0)
(0.0893456 0.101834 0)
(0.098116 0.110394 0)
(0.104124 0.113593 0)
(0.106862 0.110595 0)
(0.106047 0.101959 0)
(0.101664 0.087559 0)
(0.0943328 0.0681155 0)
(0.0850966 0.0453023 0)
(0.0751231 0.0208398 0)
(0.0653016 -0.00388113 0)
(0.0562066 -0.0278069 0)
(0.0481274 -0.0503133 0)
(0.0411403 -0.0711967 0)
(0.0351036 -0.0905367 0)
(0.0296007 -0.108613 0)
(0.0241526 -0.125421 0)
(0.0184768 -0.140486 0)
(0.0112832 -0.156255 0)
(0.00863015 -0.17157 0)
(0.00912775 -0.0184778 0)
(0.0146414 -0.0144643 0)
(0.0290259 -0.00197866 0)
(0.0455932 0.0173586 0)
(0.0621506 0.0392477 0)
(0.0770936 0.060226 0)
(0.0897503 0.0783885 0)
(0.0998329 0.0926239 0)
(0.107101 0.101965 0)
(0.111322 0.106127 0)
(0.11214 0.104683 0)
(0.109987 0.0974055 0)
(0.104535 0.0835457 0)
(0.0963508 0.064272 0)
(0.0863737 0.0413262 0)
(0.0757854 0.0165741 0)
(0.0655548 -0.00842497 0)
(0.0562519 -0.0325524 0)
(0.0480373 -0.0551533 0)
(0.0408039 -0.0758592 0)
(0.0341981 -0.0945766 0)
(0.0277016 -0.111263 0)
(0.0210584 -0.1256 0)
(0.0131545 -0.139899 0)
(0.00964207 -0.155043 0)
(0.00713254 -0.038895 0)
(0.0111756 -0.0402322 0)
(0.0230468 -0.0324789 0)
(0.0377967 -0.0158547 0)
(0.0539802 0.00630766 0)
(0.0696206 0.0302423 0)
(0.0833161 0.0530648 0)
(0.0944091 0.0729866 0)
(0.102577 0.0887687 0)
(0.10779 0.0996829 0)
(0.11005 0.104437 0)
(0.109523 0.102907 0)
(0.106325 0.0953437 0)
(0.100039 0.0811224 0)
(0.0913077 0.061375 0)
(0.0810375 0.0377635 0)
(0.0703742 0.0123352 0)
(0.0602596 -0.0130987 0)
(0.0511408 -0.0372451 0)
(0.0430285 -0.0593156 0)
(0.0356611 -0.0787573 0)
(0.028574 -0.0954265 0)
(0.0214634 -0.10919 0)
(0.0134193 -0.122258 0)
(0.0102119 -0.136765 0)
(0.0048582 -0.0540661 0)
(0.00776621 -0.0612062 0)
(0.0168639 -0.0580769 0)
(0.0287085 -0.0454645 0)
(0.0427892 -0.0250455 0)
(0.0575882 0.000118058 0)
(0.0713935 0.0267003 0)
(0.083033 0.0519295 0)
(0.0919098 0.0736786 0)
(0.0978326 0.0905125 0)
(0.101084 0.101455 0)
(0.10165 0.10582 0)
(0.0998091 0.103768 0)
(0.0954918 0.0949742 0)
(0.0886325 0.0792403 0)
(0.0798404 0.0580014 0)
(0.0699077 0.0331234 0)
(0.0598592 0.0069131 0)
(0.050479 -0.0185633 0)
(0.0420368 -0.0419034 0)
(0.0343874 -0.0621998 0)
(0.0271615 -0.0790441 0)
(0.020062 -0.092474 0)
(0.0123776 -0.104789 0)
(0.0097961 -0.118505 0)
(0.00409806 -0.0649209 0)
(0.00665491 -0.0771893 0)
(0.0131779 -0.0781756 0)
(0.021673 -0.0693904 0)
(0.0322622 -0.0516229 0)
(0.0443156 -0.0269998 0)
(0.0565355 0.00159103 0)
(0.0675485 0.0309691 0)
(0.0763845 0.0581512 0)
(0.082541 0.0808884 0)
(0.0860664 0.0971387 0)
(0.0872595 0.106613 0)
(0.0863009 0.109043 0)
(0.0835666 0.10486 0)
(0.078741 0.0934056 0)
(0.0720558 0.0752198 0)
(0.0639344 0.0519391 0)
(0.0550717 0.025822 0)
(0.0463236 -0.000523521 0)
(0.0382621 -0.0249564 0)
(0.0309711 -0.0460667 0)
(0.0241666 -0.0632423 0)
(0.017587 -0.0766209 0)
(0.0106839 -0.0886335 0)
(0.00863355 -0.101776 0)
(0.00422494 -0.076065 0)
(0.00671801 -0.0890955 0)
(0.0108944 -0.0923249 0)
(0.0164334 -0.0860459 0)
(0.0234055 -0.0708618 0)
(0.0318256 -0.0478869 0)
(0.0411026 -0.0191287 0)
(0.0501579 0.0125224 0)
(0.0579306 0.043676 0)
(0.063716 0.0713205 0)
(0.0672719 0.092483 0)
(0.0688095 0.106195 0)
(0.0686196 0.112494 0)
(0.067007 0.111452 0)
(0.0639788 0.103416 0)
(0.0594238 0.0881576 0)
(0.0535739 0.0670257 0)
(0.0467188 0.0418684 0)
(0.0394746 0.0153542 0)
(0.0324981 -0.00981593 0)
(0.0261379 -0.0316457 0)
(0.0202562 -0.049142 0)
(0.0145885 -0.0625971 0)
(0.00874145 -0.0746087 0)
(0.00713744 -0.0874662 0)
(0.00421385 -0.086842 0)
(0.00685266 -0.0977079 0)
(0.00890544 -0.101728 0)
(0.0117793 -0.0966652 0)
(0.0157363 -0.0832298 0)
(0.0208176 -0.0618732 0)
(0.0268202 -0.033856 0)
(0.033137 -0.00148749 0)
(0.03897 0.0319185 0)
(0.0436578 0.0628745 0)
(0.0468167 0.0876493 0)
(0.0485059 0.104577 0)
(0.0489926 0.113653 0)
(0.0483846 0.115156 0)
(0.046846 0.109563 0)
(0.0442688 0.0966827 0)
(0.040699 0.0775781 0)
(0.0361894 0.0538373 0)
(0.0310186 0.0278359 0)
(0.0257035 0.00245866 0)
(0.0207027 -0.0198019 0)
(0.0160297 -0.037489 0)
(0.0114087 -0.050984 0)
(0.00668833 -0.0631903 0)
(0.00551436 -0.0759706 0)
(0.00440582 -0.0987502 0)
(0.00821483 -0.104313 0)
(0.00829571 -0.10653 0)
(0.00805797 -0.101832 0)
(0.00922168 -0.0896392 0)
(0.0115267 -0.0696405 0)
(0.0145765 -0.0425748 0)
(0.0180332 -0.0103698 0)
(0.0214702 0.0238744 0)
(0.0244876 0.0565148 0)
(0.0268191 0.0834682 0)
(0.0284299 0.102348 0)
(0.0293845 0.113233 0)
(0.0297031 0.116337 0)
(0.0294674 0.112095 0)
(0.0286487 0.100824 0)
(0.0271606 0.0833726 0)
(0.0249422 0.061136 0)
(0.0220303 0.0361232 0)
(0.0187033 0.0110936 0)
(0.0153646 -0.011166 0)
(0.0120712 -0.0287464 0)
(0.00833457 -0.0420615 0)
(0.00454112 -0.0546736 0)
(0.0038316 -0.067523 0)
(0.00333177 -0.111372 0)
(0.00860131 -0.11003 0)
(0.00766693 -0.107126 0)
(0.00518399 -0.102152 0)
(0.00409951 -0.0910912 0)
(0.00408119 -0.072191 0)
(0.0045557 -0.0459786 0)
(0.00535445 -0.0142836 0)
(0.00638188 0.0198827 0)
(0.00757545 0.0528084 0)
(0.00890937 0.080263 0)
(0.0102721 0.0997354 0)
(0.0115376 0.111249 0)
(0.0126456 0.115055 0)
(0.0135431 0.111518 0)
(0.01417 0.101162 0)
(0.0143981 0.0848559 0)
(0.0141172 0.0638922 0)
(0.0132609 0.0400252 0)
(0.0118891 0.0157386 0)
(0.0102258 -0.00607719 0)
(0.00831049 -0.0230688 0)
(0.00546234 -0.0357431 0)
(0.00256441 -0.049297 0)
(0.00225383 -0.0623698 0)
(0.000792549 -0.120052 0)
(0.00639383 -0.112896 0)
(0.00530921 -0.10504 0)
(0.00275121 -0.0989158 0)
(0.000365481 -0.0884048 0)
(-0.00155983 -0.0701648 0)
(-0.00329458 -0.0446097 0)
(-0.00478932 -0.0136462 0)
(-0.00586763 0.0196908 0)
(-0.00628023 0.0516706 0)
(-0.00587735 0.0782239 0)
(-0.00483668 0.0970761 0)
(-0.00341985 0.108214 0)
(-0.00177009 0.111882 0)
(-1.48952e-05 0.108428 0)
(0.00169203 0.098476 0)
(0.00318773 0.082933 0)
(0.00432472 0.062984 0)
(0.00499975 0.040247 0)
(0.00516437 0.0170046 0)
(0.00484439 -0.00393436 0)
(0.00406189 -0.019943 0)
(0.00262348 -0.0316716 0)
(0.00122592 -0.0463389 0)
(0.00113423 -0.0597166 0)
(-0.00170799 -0.122673 0)
(0.00303099 -0.112381 0)
(0.00137295 -0.102026 0)
(-0.000665822 -0.0939827 0)
(-0.00346352 -0.0827808 0)
(-0.00664363 -0.0645208 0)
(-0.00999266 -0.03937 0)
(-0.0131994 -0.00928448 0)
(-0.015813 0.0226438 0)
(-0.0173343 0.0526971 0)
(-0.0175418 0.0772403 0)
(-0.0166982 0.0945323 0)
(-0.0151462 0.104504 0)
(-0.0130996 0.107407 0)
(-0.0107183 0.103609 0)
(-0.00823342 0.0937324 0)
(-0.00583275 0.0786834 0)
(-0.00368418 0.0595711 0)
(-0.00191363 0.0378927 0)
(-0.000613326 0.0157836 0)
(0.000102924 -0.00408595 0)
(0.000207264 -0.0192827 0)
(5.72715e-05 -0.030686 0)
(0.000170418 -0.0455721 0)
(0.000221804 -0.0588275 0)
(-0.0037021 -0.12103 0)
(-0.000370747 -0.109154 0)
(-0.00286171 -0.0972856 0)
(-0.00506086 -0.0878951 0)
(-0.00804727 -0.0754781 0)
(-0.0119639 -0.0566601 0)
(-0.0163556 -0.03166 0)
(-0.0206244 -0.00256695 0)
(-0.0240434 0.0274431 0)
(-0.0260057 0.0548199 0)
(-0.0263819 0.0766611 0)
(-0.0255076 0.0918184 0)
(-0.0237418 0.100146 0)
(-0.0213399 0.101927 0)
(-0.0184764 0.0974998 0)
(-0.0154256 0.0874896 0)
(-0.0123748 0.0727518 0)
(-0.00948602 0.0543225 0)
(-0.00689048 0.0336174 0)
(-0.00473008 0.012688 0)
(-0.00323067 -0.00593962 0)
(-0.00248255 -0.0202118 0)
(-0.00190506 -0.0313551 0)
(-0.000799182 -0.0463551 0)
(-0.000571667 -0.0592904 0)
(-0.00485553 -0.116503 0)
(-0.00340773 -0.103804 0)
(-0.00627883 -0.0913208 0)
(-0.00892573 -0.081056 0)
(-0.0123834 -0.0672621 0)
(-0.0169538 -0.0476179 0)
(-0.0220594 -0.0226859 0)
(-0.0268285 0.00517336 0)
(-0.0303946 0.0327739 0)
(-0.0322535 0.0570304 0)
(-0.0324585 0.0758938 0)
(-0.0313949 0.088659 0)
(-0.029418 0.0951367 0)
(-0.0266999 0.095666 0)
(-0.0235169 0.0904859 0)
(-0.0200896 0.0802153 0)
(-0.0166101 0.0656468 0)
(-0.0132253 0.0477504 0)
(-0.010072 0.0279043 0)
(-0.00735209 0.00813182 0)
(-0.00537494 -0.00920749 0)
(-0.00426337 -0.0226059 0)
(-0.00327802 -0.0338336 0)
(-0.00150783 -0.0488679 0)
(-0.000952889 -0.0612531 0)
(-0.00557467 -0.109655 0)
(-0.00532943 -0.0967697 0)
(-0.00857789 -0.0841424 0)
(-0.0118052 -0.0730726 0)
(-0.0159718 -0.058062 0)
(-0.0211635 -0.037682 0)
(-0.0266405 -0.0131125 0)
(-0.031357 0.0129978 0)
(-0.0345704 0.0376936 0)
(-0.0360442 0.0585822 0)
(-0.03598 0.0744576 0)
(-0.0347029 0.0849583 0)
(-0.0325226 0.0896468 0)
(-0.0295834 0.0888703 0)
(-0.0261755 0.082893 0)
(-0.0225088 0.0723058 0)
(-0.0187616 0.0578287 0)
(-0.0150678 0.0403848 0)
(-0.011583 0.0213667 0)
(-0.00857595 0.00280357 0)
(-0.00638111 -0.0131662 0)
(-0.00508614 -0.0256307 0)
(-0.00389519 -0.0370714 0)
(-0.00185088 -0.0525393 0)
(-0.00104084 -0.064112 0)
(-0.00628393 -0.101006 0)
(-0.00644528 -0.0883006 0)
(-0.0101836 -0.0758082 0)
(-0.0139818 -0.063924 0)
(-0.0188168 -0.0479846 0)
(-0.0244179 -0.0272789 0)
(-0.0298039 -0.0036859 0)
(-0.0340005 0.0201081 0)
(-0.0365863 0.0417101 0)
(-0.0376124 0.0594753 0)
(-0.0373039 0.0726771 0)
(-0.0358191 0.080766 0)
(-0.0334307 0.0836852 0)
(-0.0303211 0.0816399 0)
(-0.026776 0.0749048 0)
(-0.0229857 0.064005 0)
(-0.0191042 0.0495918 0)
(-0.0152604 0.0325749 0)
(-0.0116448 0.014403 0)
(-0.00857878 -0.00290185 0)
(-0.00634452 -0.0175056 0)
(-0.00492723 -0.0290565 0)
(-0.00365673 -0.0407177 0)
(-0.00180875 -0.0562481 0)
(-0.00093331 -0.066932 0)
(-0.00666914 -0.0910107 0)
(-0.00712654 -0.078689 0)
(-0.0113962 -0.0664668 0)
(-0.0157284 -0.0539695 0)
(-0.0210109 -0.0373933 0)
(-0.0266525 -0.0169774 0)
(-0.0315246 0.00493808 0)
(-0.0349842 0.0260503 0)
(-0.0368989 0.0446737 0)
(-0.0374076 0.059789 0)
(-0.0366945 0.0704881 0)
(-0.0349396 0.0762063 0)
(-0.0323718 0.0774739 0)
(-0.0292144 0.074242 0)
(-0.0256597 0.0668039 0)
(-0.021881 0.0556096 0)
(-0.0180108 0.041259 0)
(-0.0141871 0.0246867 0)
(-0.0106387 0.00741605 0)
(-0.0076943 -0.0085966 0)
(-0.00552573 -0.0218821 0)
(-0.00399118 -0.0324519 0)
(-0.0026892 -0.0438689 0)
(-0.00143739 -0.0591724 0)
(-0.000633316 -0.0692438 0)
(-0.00683928 -0.0803071 0)
(-0.00758236 -0.0683216 0)
(-0.0123561 -0.0563288 0)
(-0.0171106 -0.0435013 0)
(-0.0224912 -0.0267595 0)
(-0.0276996 -0.00737962 0)
(-0.0317779 0.0123179 0)
(-0.0344606 0.030615 0)
(-0.0357481 0.0463145 0)
(-0.0357372 0.0586314 0)
(-0.0345909 0.0669322 0)
(-0.0326566 0.0710654 0)
(-0.030041 0.0710453 0)
(-0.0269049 0.0668576 0)
(-0.0234279 0.0588365 0)
(-0.0197555 0.0474011 0)
(-0.0160069 0.0331444 0)
(-0.0123335 0.0170602 0)
(-0.00898037 0.000723818 0)
(-0.00622145 -0.0140571 0)
(-0.00412123 -0.026188 0)
(-0.00247643 -0.0358761 0)
(-0.00116426 -0.0466476 0)
(-0.000725406 -0.0610681 0)
(-0.000193025 -0.0709843 0)
(-0.0067978 -0.0695382 0)
(-0.00790049 -0.0577467 0)
(-0.0130627 -0.0459811 0)
(-0.0179454 -0.0331663 0)
(-0.0229911 -0.0168715 0)
(-0.0273896 0.000877333 0)
(-0.03058 0.0181885 0)
(-0.0325258 0.0338532 0)
(-0.0332766 0.0469552 0)
(-0.032931 0.0568351 0)
(-0.0316407 0.0632556 0)
(-0.0296357 0.0659579 0)
(-0.0270176 0.0647096 0)
(-0.0239656 0.0596733 0)
(-0.0206309 0.051153 0)
(-0.017137 0.0395294 0)
(-0.0135953 0.0254046 0)
(-0.0101646 0.00983194 0)
(-0.00707523 -0.00561481 0)
(-0.00451738 -0.0193241 0)
(-0.00249371 -0.0304849 0)
(-0.000854231 -0.0393287 0)
(0.00041416 -0.0489922 0)
(-1.04797e-05 -0.0621542 0)
(2.36236e-05 -0.0722983 0)
(-0.0065575 -0.0590377 0)
(-0.00780778 -0.0471797 0)
(-0.0129794 -0.0358105 0)
(-0.0177476 -0.0234465 0)
(-0.0222263 -0.00824501 0)
(-0.0257787 0.00755785 0)
(-0.0282236 0.0225836 0)
(-0.0295954 0.0359253 0)
(-0.0299519 0.046847 0)
(-0.0294057 0.0548249 0)
(-0.0280845 0.059503 0)
(-0.0261066 0.0607828 0)
(-0.0236041 0.0585308 0)
(-0.0207446 0.0528185 0)
(-0.0176669 0.0439214 0)
(-0.0144796 0.0321959 0)
(-0.0112939 0.0182674 0)
(-0.00827232 0.00323263 0)
(-0.00561976 -0.0113859 0)
(-0.00345604 -0.0241755 0)
(-0.00174522 -0.0344981 0)
(-0.00040395 -0.042515 0)
(0.000588501 -0.050746 0)
(0.000152583 -0.0620883 0)
(0.000311257 -0.0731065 0)
(-0.00604298 -0.0490953 0)
(-0.00712174 -0.0373039 0)
(-0.0118867 -0.0261849 0)
(-0.0163973 -0.0145573 0)
(-0.0202567 -0.000878493 0)
(-0.0231345 0.0129356 0)
(-0.0250412 0.02588 0)
(-0.0260186 0.0371802 0)
(-0.0261246 0.046212 0)
(-0.0254559 0.0525314 0)
(-0.0241459 0.0558253 0)
(-0.0222903 0.0559801 0)
(-0.0200165 0.0528659 0)
(-0.0174583 0.0466197 0)
(-0.0147453 0.0374739 0)
(-0.0119796 0.025766 0)
(-0.00927583 0.0121464 0)
(-0.00679261 -0.00227 0)
(-0.00470611 -0.0160519 0)
(-0.00309423 -0.0279882 0)
(-0.00190313 -0.0375721 0)
(-0.00103649 -0.0448265 0)
(-0.000352406 -0.0520978 0)
(-0.000172982 -0.0623383 0)
(0.000467757 -0.0736977 0)
(-0.00531464 -0.040029 0)
(-0.00622564 -0.0285047 0)
(-0.010349 -0.0173517 0)
(-0.0142928 -0.0066595 0)
(-0.0175126 0.00534912 0)
(-0.019863 0.0173008 0)
(-0.0213742 0.0283955 0)
(-0.0220835 0.0379215 0)
(-0.022049 0.0453272 0)
(-0.021358 0.0502264 0)
(-0.0201319 0.0523556 0)
(-0.018453 0.0515972 0)
(-0.0164459 0.0478391 0)
(-0.0142285 0.0412252 0)
(-0.0119114 0.0319649 0)
(-0.0095885 0.0203921 0)
(-0.00737079 0.00718084 0)
(-0.00539929 -0.00656135 0)
(-0.0037986 -0.0195056 0)
(-0.00261545 -0.0306212 0)
(-0.00183094 -0.039512 0)
(-0.00130241 -0.046412 0)
(-0.00082428 -0.0533996 0)
(-0.000419762 -0.0629475 0)
(0.000306591 -0.0739953 0)
(-0.00456569 -0.0320048 0)
(-0.00536112 -0.0207867 0)
(-0.00862136 -0.00976318 0)
(-0.0117148 2.75076e-05 0)
(-0.0143407 0.0105507 0)
(-0.0162762 0.0208832 0)
(-0.0175057 0.0303747 0)
(-0.0180494 0.0383778 0)
(-0.0179598 0.0444078 0)
(-0.0173167 0.0481136 0)
(-0.016225 0.0492814 0)
(-0.0147627 0.0477786 0)
(-0.0130421 0.0435202 0)
(-0.011168 0.0366528 0)
(-0.00923536 0.0273639 0)
(-0.00732976 0.0159868 0)
(-0.00555816 0.00320406 0)
(-0.00404349 -0.00991543 0)
(-0.00286566 -0.022176 0)
(-0.00202667 -0.0325671 0)
(-0.0014816 -0.040744 0)
(-0.00113766 -0.0472734 0)
(-0.000809993 -0.0539907 0)
(-0.000465529 -0.0634112 0)
(0.000334499 -0.0742519 0)
(-0.00379132 -0.0251059 0)
(-0.00446029 -0.0143133 0)
(-0.00692903 -0.00367754 0)
(-0.00925022 0.00547006 0)
(-0.0113317 0.0148543 0)
(-0.0128841 0.0238546 0)
(-0.0138638 0.0319856 0)
(-0.014273 0.0386859 0)
(-0.0141558 0.0435363 0)
(-0.0135855 0.0462371 0)
(-0.0126371 0.0466188 0)
(-0.0113927 0.0445226 0)
(-0.00994758 0.0398885 0)
(-0.0083961 0.0328609 0)
(-0.00682058 0.0236117 0)
(-0.00529812 0.0124778 0)
(-0.00392077 0.000147669 0)
(-0.00280194 -0.0123655 0)
(-0.00201395 -0.02397 0)
(-0.00151973 -0.0338803 0)
(-0.00120323 -0.041854 0)
(-0.00098816 -0.0480626 0)
(-0.000732585 -0.0547018 0)
(-0.000412601 -0.0639249 0)
(0.000458114 -0.0747917 0)
(-0.0030332 -0.0193801 0)
(-0.00356673 -0.00897982 0)
(-0.00547492 0.00116073 0)
(-0.00724199 0.00977104 0)
(-0.00883209 0.0182603 0)
(-0.0100129 0.0261893 0)
(-0.0107402 0.0332093 0)
(-0.0110083 0.0388444 0)
(-0.0108511 0.0427482 0)
(-0.0103265 0.0446442 0)
(-0.00949799 0.0443674 0)
(-0.00844421 0.0417984 0)
(-0.00724279 0.0368913 0)
(-0.00597535 0.029781 0)
(-0.00471739 0.0206231 0)
(-0.00353893 0.00975257 0)
(-0.0025138 -0.00216505 0)
(-0.00171955 -0.0140662 0)
(-0.00117791 -0.0250232 0)
(-0.000862888 -0.0345203 0)
(-0.000733483 -0.0423509 0)
(-0.000673046 -0.0485961 0)
(-0.000510806 -0.0553804 0)
(-0.000272327 -0.064587 0)
(0.000475745 -0.075089 0)
(-0.00238467 -0.0148593 0)
(-0.00279703 -0.00485851 0)
(-0.00425357 0.00485311 0)
(-0.00558956 0.0130194 0)
(-0.00677854 0.0208054 0)
(-0.00764035 0.0278935 0)
(-0.00813871 0.0340295 0)
(-0.00827513 0.0388083 0)
(-0.00807296 0.0419211 0)
(-0.00757409 0.0431476 0)
(-0.00684543 0.0423995 0)
(-0.00595103 0.0394998 0)
(-0.00494833 0.0344232 0)
(-0.00391098 0.0273039 0)
(-0.00290059 0.0182936 0)
(-0.00199737 0.00771453 0)
(-0.00128048 -0.0037801 0)
(-0.000752674 -0.0153086 0)
(-0.000391655 -0.0260106 0)
(-0.000203238 -0.0351296 0)
(-0.000181916 -0.042508 0)
(-0.000235782 -0.0487956 0)
(-0.000203304 -0.0556393 0)
(-0.000124029 -0.0646381 0)
(0.000614297 -0.0749399 0)
(-0.00184665 -0.0112816 0)
(-0.00216551 -0.0016167 0)
(-0.00326114 0.00767473 0)
(-0.0042464 0.0154553 0)
(-0.00510589 0.0226674 0)
(-0.00570197 0.0290613 0)
(-0.00601075 0.034489 0)
(-0.00603554 0.0386077 0)
(-0.00579989 0.0410951 0)
(-0.00535861 0.0418355 0)
(-0.00472943 0.0407173 0)
(-0.00394214 0.0375603 0)
(-0.00308775 0.0323679 0)
(-0.00223716 0.0252761 0)
(-0.00143418 0.0164182 0)
(-0.00073606 0.00621593 0)
(-0.00020404 -0.00479966 0)
(0.000132737 -0.0160403 0)
(0.000267365 -0.0263836 0)