/*--------------------------------*- C++ -*----------------------------------*\
| =========                 |                                                 |
| \\      /  F ield         | OpenFOAM: The Open Source CFD Toolbox           |
|  \\    /   O peration     | Version:  2.3.0                                 |
|   \\  /    A nd           | Web:      www.OpenFOAM.org                      |
|    \\/     M anipulation  |                                                 |
\*---------------------------------------------------------------------------*/
FoamFile
{
    version     2.0;
    format      ascii;
    class       volScalarField;
    location    "81";
    object      nut.water;
}
// * * * * * * * * * * * * * * * * * * * * * * * * * * * * * * * * * * * * * //

dimensions      [0 2 -1 0 0 0 0];

internalField   nonuniform List<scalar> 
1875
(
0.00104729
0.00109993
0.00118831
0.00127112
0.00134646
0.00141238
0.00146934
0.00151858
0.00156086
0.00159763
0.00162996
0.00165757
0.00167986
0.00169728
0.00170215
0.0017006
0.001686
0.00165037
0.00159603
0.00152321
0.00143294
0.00132439
0.00119231
0.00102757
0.000834204
0.00109189
0.00126306
0.00140527
0.00150619
0.00157752
0.00162628
0.00165894
0.00168031
0.00169394
0.00169954
0.00170601
0.00171195
0.00171641
0.00172111
0.00172471
0.0017281
0.0017228
0.00170523
0.00166957
0.00160469
0.00151387
0.00139321
0.00123406
0.00102835
0.000796734
0.00138843
0.00159066
0.00174251
0.00183818
0.00189426
0.00192045
0.00192719
0.00192089
0.00190602
0.00188625
0.00186613
0.0018469
0.00182642
0.00180748
0.00178994
0.00177
0.00174877
0.00172185
0.00168769
0.00162678
0.00154548
0.00143628
0.00129707
0.00113812
0.000992943
0.00178558
0.00200244
0.00211077
0.00215335
0.00215809
0.00214076
0.00211223
0.00207668
0.00203849
0.00200017
0.00196274
0.00192642
0.00189098
0.00185804
0.0018273
0.00179697
0.00176549
0.00172855
0.00168442
0.00162248
0.00154057
0.00143952
0.00132039
0.00118932
0.0010663
0.00228134
0.00235925
0.0023609
0.00233359
0.00229022
0.00223793
0.0021825
0.00212771
0.00207576
0.0020272
0.00198144
0.00193836
0.00189768
0.00185952
0.00182381
0.00178789
0.00174789
0.0017049
0.00165508
0.00159442
0.00151893
0.00142793
0.00132261
0.00121157
0.00110546
0.0026009
0.00259252
0.00252957
0.00244667
0.0023568
0.00226795
0.00218556
0.00211235
0.00204835
0.00199344
0.00194578
0.00190322
0.00186318
0.0018242
0.00178427
0.00174272
0.0017016
0.00165999
0.00160974
0.00155154
0.00148363
0.0014045
0.00131725
0.00122501
0.00113244
0.00276172
0.00271278
0.00260065
0.00247794
0.00235607
0.00224204
0.00214018
0.00205268
0.001981
0.00192257
0.00187432
0.00183242
0.00179378
0.00175665
0.00172027
0.00168413
0.00164732
0.0016081
0.00156215
0.00151034
0.00145163
0.00138494
0.0013127
0.00123678
0.0011616
0.00294133
0.00281476
0.00264613
0.00248364
0.00233285
0.00219301
0.00207239
0.00197396
0.00189385
0.00183374
0.00178706
0.00174888
0.00171487
0.00168386
0.0016549
0.00162676
0.00159754
0.00156135
0.00152034
0.00147428
0.00142281
0.00136505
0.00130383
0.00123809
0.00116516
0.00303258
0.00285834
0.00265191
0.00246327
0.0022898
0.00213181
0.00199803
0.00189046
0.00180427
0.00174762
0.00170488
0.00167196
0.00164517
0.00162129
0.00160072
0.0015794
0.0015514
0.00151875
0.00148226
0.00144167
0.00139632
0.00134492
0.00128966
0.00122799
0.00115682
0.00306939
0.00286579
0.00263904
0.00243583
0.00224508
0.00207235
0.00192794
0.00181165
0.00172873
0.00167529
0.00164178
0.00161841
0.00159773
0.00157991
0.00156226
0.00154113
0.00151688
0.00148949
0.00145748
0.00142015
0.00137761
0.00132897
0.00127493
0.0012131
0.00114132
0.00311656
0.0028692
0.00262399
0.00240932
0.00220957
0.00203146
0.00188488
0.00177255
0.00169266
0.00164399
0.00161384
0.00159405
0.00157963
0.00156839
0.00155521
0.00153906
0.00151835
0.00149208
0.00145994
0.00142176
0.00137685
0.00132612
0.00126823
0.00120186
0.00112573
0.00312886
0.0028552
0.00260208
0.00238613
0.00218932
0.00201707
0.00187808
0.00177454
0.00170481
0.00166297
0.00163919
0.00162606
0.00161797
0.00161053
0.0016005
0.00158593
0.00156505
0.00153747
0.00150228
0.00145913
0.00140766
0.0013474
0.00127707
0.00119412
0.00109622
0.00297696
0.00276121
0.00254625
0.00235482
0.00217732
0.00202053
0.00189337
0.00180094
0.00174266
0.00171156
0.00169887
0.00169586
0.0016959
0.00169422
0.00168775
0.00167561
0.00165541
0.00162628
0.00158747
0.00153828
0.00147803
0.00140643
0.00132376
0.00122581
0.00111379
0.00273497
0.00261588
0.00246808
0.00231788
0.00217097
0.00203832
0.00193157
0.00185647
0.00181226
0.00179251
0.00178878
0.00179326
0.00179987
0.0018036
0.00180181
0.00179348
0.0017761
0.00174834
0.00170898
0.00165702
0.00159182
0.00151291
0.00141944
0.00131062
0.00119877
0.00255283
0.00249167
0.00239628
0.002287
0.00217344
0.00206818
0.00198301
0.00192445
0.00189261
0.00188215
0.00188568
0.00189627
0.00190874
0.00191884
0.00192338
0.00192183
0.00191118
0.0018897
0.00185556
0.00180664
0.00174082
0.00165709
0.0015523
0.00142553
0.00128913
0.00248188
0.00242977
0.00235634
0.00227373
0.00218694
0.00210511
0.00203857
0.0019939
0.00197151
0.00196726
0.00197541
0.00199067
0.00200864
0.00202544
0.00203814
0.00204573
0.0020458
0.00203598
0.00201416
0.00197734
0.00192183
0.0018439
0.0017384
0.0015994
0.00142705
0.00243176
0.00239232
0.00233799
0.00227627
0.00220904
0.00214577
0.00209376
0.00205904
0.002043
0.0020426
0.00205361
0.00207175
0.00209347
0.00211565
0.00213607
0.00215274
0.00216459
0.00216934
0.00216439
0.00214742
0.00211516
0.0020624
0.00198268
0.00186499
0.00168776
0.00241229
0.00238085
0.00233925
0.00229079
0.00223924
0.00219003
0.00214885
0.00212102
0.00210813
0.00210897
0.00212057
0.0021396
0.00216304
0.00218842
0.00221383
0.00223757
0.00225801
0.0022738
0.00228394
0.00228691
0.00228019
0.00226051
0.00222349
0.00216517
0.00206438
0.00242953
0.00239397
0.00235779
0.00232018
0.00228019
0.00223978
0.0022052
0.00218032
0.00216743
0.00216675
0.00217677
0.00219483
0.00221838
0.0022452
0.00227315
0.00230116
0.00232744
0.00235067
0.00236979
0.00238382
0.00239155
0.00239122
0.00238021
0.00236028
0.00232685
0.00242561
0.00239629
0.00236879
0.00234009
0.00231221
0.00228131
0.00225351
0.00223112
0.00221795
0.00221543
0.00222275
0.00223887
0.00226149
0.00228852
0.00231772
0.00234833
0.00237847
0.00240686
0.00243242
0.00245391
0.00246954
0.00247663
0.00247215
0.00245591
0.00241762
0.00235403
0.00234363
0.00233426
0.00231995
0.00230533
0.00229103
0.00227349
0.00225885
0.00224864
0.0022465
0.00225361
0.00226864
0.00229095
0.00231827
0.00234922
0.00238218
0.00241556
0.002448
0.00247826
0.00250487
0.00252597
0.00253953
0.0025419
0.00253391
0.00251356
0.00217842
0.00220201
0.00222435
0.00224068
0.00224938
0.00225132
0.00224937
0.00224708
0.00224705
0.00225018
0.00226054
0.0022787
0.00230205
0.00233218
0.00236649
0.00240317
0.00244065
0.00247745
0.0025122
0.00254326
0.00256861
0.00258585
0.00259238
0.00258784
0.00257412
0.00188354
0.00196666
0.00203256
0.00208771
0.00213138
0.00216513
0.00218794
0.00219967
0.00221199
0.00222458
0.00224057
0.00226293
0.00229219
0.00232803
0.00236841
0.00241132
0.00245489
0.00249755
0.00253781
0.00257401
0.00260395
0.00262494
0.00263371
0.0026294
0.00261066
0.00161542
0.00173869
0.00184135
0.00192523
0.00199477
0.00204904
0.00209365
0.00212991
0.00215729
0.00218207
0.00220617
0.00223363
0.00226709
0.00230931
0.00235761
0.00240888
0.00246037
0.00251082
0.00255829
0.00260124
0.00263775
0.00266524
0.00268036
0.0026823
0.00267045
0.0014415
0.00159563
0.0017233
0.00182699
0.00190955
0.00197543
0.00202676
0.00206871
0.00210527
0.00213793
0.00217094
0.00220641
0.00224683
0.00229329
0.00234696
0.00240467
0.00246405
0.00252142
0.00257693
0.00262771
0.00267228
0.00270821
0.00273316
0.00274715
0.00275028
0.00139477
0.00156275
0.0017038
0.00181981
0.00190927
0.0019772
0.00202673
0.00206501
0.0020969
0.00212703
0.00215949
0.00219568
0.00223706
0.00228545
0.0023421
0.00240456
0.00247024
0.00253484
0.00259728
0.00265606
0.00270912
0.00275423
0.00279007
0.0028181
0.00283869
0.00144247
0.00161576
0.00176507
0.00188565
0.00197901
0.00204597
0.00209136
0.00212084
0.00214222
0.0021612
0.00218295
0.00221218
0.00225029
0.00229805
0.00235386
0.0024172
0.00248569
0.00255532
0.00262335
0.0026889
0.00274942
0.00280285
0.00284884
0.00289015
0.00292708
0.00154967
0.00173345
0.00188905
0.00201217
0.00210411
0.00216613
0.00220347
0.0022205
0.00222709
0.00223139
0.00224018
0.00225892
0.00228934
0.00233186
0.00238518
0.00244726
0.00251567
0.00258695
0.00265814
0.00272794
0.00279369
0.00285344
0.00290726
0.00295916
0.00300943
0.00171475
0.00190328
0.00206146
0.00218233
0.00226765
0.00232022
0.00234599
0.00235094
0.00234402
0.00233393
0.00232857
0.00233504
0.00235532
0.00238963
0.00243651
0.0024938
0.0025588
0.00262829
0.00269969
0.00277089
0.00283911
0.0029024
0.00296079
0.00301951
0.00307935
0.00196055
0.00213644
0.00227661
0.00238257
0.00245366
0.0024917
0.00250265
0.00249326
0.00247241
0.00244903
0.00243112
0.00242636
0.00243679
0.00246256
0.00250239
0.00255396
0.00261426
0.00267986
0.002748
0.0028163
0.00288237
0.00294431
0.00300215
0.00306151
0.00312303
0.00228273
0.00242682
0.00253263
0.00260662
0.00265181
0.00266814
0.0026604
0.00263531
0.00260093
0.00256573
0.00253799
0.00252432
0.00252649
0.00254465
0.00257737
0.00262216
0.00267561
0.00273454
0.00279592
0.00285729
0.00291644
0.00297192
0.00302415
0.00307986
0.00314201
0.00267515
0.00275651
0.00280859
0.00283858
0.00284826
0.0028382
0.00281006
0.00276905
0.00272204
0.00267759
0.00264246
0.00262206
0.00261756
0.00262884
0.00265429
0.00269131
0.00273629
0.002786
0.00283723
0.0028876
0.0029346
0.0029763
0.00301276
0.00304861
0.00308518
0.00305997
0.00306081
0.00305623
0.00304547
0.003025
0.00299117
0.00294481
0.00288971
0.00283293
0.0027815
0.00274092
0.00271524
0.00270525
0.00271005
0.00272818
0.00275658
0.00279175
0.00283032
0.00286925
0.00290594
0.00293757
0.00296205
0.00297953
0.00299442
0.00300424
0.00328164
0.00326715
0.00324279
0.003213
0.00317332
0.00312265
0.00306219
0.00299692
0.00293304
0.00287677
0.00283213
0.00280218
0.00278756
0.00278623
0.0027968
0.00281606
0.00284079
0.00286745
0.00289349
0.00291578
0.00293158
0.00293909
0.00293887
0.00293734
0.00293086
0.00345419
0.00343328
0.00339815
0.00335549
0.00330181
0.00323785
0.00316672
0.00309372
0.00302529
0.00296569
0.00291835
0.0028843
0.00286481
0.00285783
0.002861
0.00287151
0.002886
0.0029017
0.00291535
0.00292387
0.00292403
0.00291398
0.00289405
0.00286946
0.00283103
0.00363377
0.00359663
0.00354576
0.00348805
0.00342031
0.00334416
0.00326381
0.00318501
0.00311298
0.00305114
0.00300109
0.00296421
0.00294032
0.00292812
0.00292485
0.00292782
0.00293409
0.00294067
0.00294443
0.00294198
0.0029302
0.00290704
0.00287309
0.00283193
0.00276965
0.00381933
0.00376103
0.00369109
0.00361658
0.00353436
0.00344667
0.00335865
0.0032751
0.00319996
0.00313583
0.00308408
0.00304539
0.00301845
0.00300197
0.00299379
0.00299133
0.00299182
0.00299237
0.00298985
0.00298065
0.00296236
0.00293297
0.00289367
0.00284718
0.00277797
0.00400789
0.00392438
0.0038336
0.00374244
0.00364657
0.00354921
0.00345519
0.00336843
0.00329125
0.00322561
0.00317284
0.00313247
0.00310324
0.00308402
0.00307273
0.003067
0.00306426
0.0030617
0.00305617
0.00304433
0.00302405
0.00299399
0.00295532
0.00290994
0.00284176
0.00418208
0.00407746
0.00396906
0.00386449
0.00375855
0.00365485
0.00355764
0.00346915
0.0033913
0.0033252
0.0032708
0.00322864
0.00319812
0.00317735
0.00316443
0.00315716
0.00315311
0.00314946
0.00314307
0.00313121
0.00311223
0.00308543
0.00305247
0.00301536
0.00296509
0.00434006
0.0042201
0.00409795
0.00398384
0.00387211
0.00376535
0.00366649
0.00357726
0.00349904
0.00343269
0.00337838
0.0033359
0.00330449
0.00328288
0.00326919
0.00326129
0.00325672
0.00325262
0.00324596
0.00323447
0.00321682
0.0031924
0.00316249
0.00312896
0.00308577
0.00448819
0.00435652
0.00422364
0.00410272
0.00398827
0.00388055
0.00378151
0.00369251
0.00361465
0.00354859
0.00349473
0.00345264
0.0034213
0.00339946
0.00338538
0.003377
0.00337179
0.00336688
0.00335949
0.00334777
0.00333077
0.00330778
0.00328036
0.00325182
0.00322077
0.00462217
0.00448496
0.00434738
0.00422327
0.0041078
0.00400052
0.00390248
0.00381476
0.00373826
0.00367344
0.00362029
0.00357858
0.00354738
0.00352537
0.0035108
0.00350157
0.00349506
0.00348841
0.00347899
0.00346521
0.00344608
0.00342158
0.00339374
0.00336461
0.00333871
0.00475161
0.00461143
0.00447187
0.00434648
0.00423115
0.00412509
0.00402873
0.00394281
0.00386798
0.00380464
0.00375275
0.00371186
0.00368098
0.00365877
0.0036435
0.003633
0.00362463
0.00361558
0.00360344
0.00358617
0.00356231
0.00353269
0.00349818
0.00345866
0.00341425
0.00488201
0.00473937
0.00459868
0.00447278
0.00435821
0.00425384
0.00415956
0.00407582
0.00400308
0.00394155
0.00389106
0.00385109
0.00382058
0.00379813
0.003782
0.00377
0.00375949
0.00374787
0.00373285
0.00371257
0.00368609
0.003653
0.00361487
0.00357446
0.00353217
0.00501113
0.00486704
0.00472622
0.0046008
0.00448764
0.00438544
0.00429367
0.00421252
0.00414224
0.00408275
0.00403378
0.00399482
0.00396476
0.00394213
0.00392523
0.00391187
0.0038996
0.00388546
0.00386713
0.003844
0.00381502
0.00377897
0.00373791
0.00369396
0.00365057
0.00513582
0.00499166
0.00485193
0.00472807
0.00461723
0.00451785
0.00442912
0.00435096
0.00428345
0.0042265
0.0041794
0.00414182
0.00411261
0.00409003
0.00407226
0.00405759
0.00404363
0.00402778
0.00400797
0.00398231
0.0039494
0.00391022
0.00386651
0.00381878
0.00377186
0.00525134
0.00510854
0.00497181
0.00485135
0.00474424
0.00464888
0.00456403
0.00448949
0.00442545
0.00437121
0.00432621
0.00429023
0.00426204
0.00423981
0.00422204
0.00420672
0.00419101
0.0041738
0.00415298
0.00412555
0.00409041
0.00404769
0.0039995
0.00394606
0.00388761
0.00534498
0.00521096
0.00508163
0.00496737
0.00486592
0.00477576
0.00469581
0.0046258
0.00456543
0.00451424
0.00447285
0.00443907
0.00441166
0.00439043
0.00437383
0.00435869
0.00434327
0.00432515
0.00430206
0.0042729
0.00423646
0.00419218
0.0041432
0.00408902
0.00403376
0.00542614
0.00530174
0.00518177
0.00507558
0.00498105
0.00489671
0.00482261
0.00475839
0.00470267
0.00465641
0.00461832
0.00458753
0.00456303
0.00454367
0.00452771
0.00451332
0.00449894
0.00448109
0.00445774
0.0044275
0.00438909
0.00434362
0.00429288
0.00423713
0.00418159
0.00549828
0.00538046
0.00527041
0.00517325
0.00508771
0.00501238
0.00494559
0.00488717
0.00483787
0.00479651
0.00476208
0.00473515
0.00471471
0.00469819
0.00468419
0.00467176
0.0046581
0.00464135
0.0046192
0.00458927
0.00455016
0.00450238
0.0044466
0.00438106
0.0043057
0.00551575
0.00543215
0.00534412
0.00526313
0.00518949
0.00512355
0.00506486
0.00501368
0.00497043
0.0049341
0.00490564
0.00488323
0.00486574
0.00485273
0.00484264
0.00483353
0.00482272
0.00480824
0.00478795
0.00475988
0.00472275
0.00467688
0.00462375
0.00456365
0.0045018
0.00560829
0.00551821
0.00543238
0.00535698
0.00529019
0.00523092
0.00517993
0.00513689
0.00510004
0.00507099
0.00504836
0.00503134
0.00501899
0.00501056
0.00500452
0.00499895
0.00499205
0.00498129
0.00496437
0.00493955
0.00490522
0.00486134
0.00480962
0.00474921
0.00468526
0.00568244
0.0055918
0.00551191
0.00544338
0.00538509
0.00533553
0.00529266
0.00525636
0.00522775
0.00520527
0.00518811
0.00517709
0.00517132
0.00516858
0.00516779
0.00516729
0.00516557
0.00516012
0.00514834
0.0051285
0.00509859
0.00505774
0.00500572
0.00493962
0.00485999
0.00566959
0.00562274
0.00556904
0.00551912
0.00547401
0.00543465
0.00540103
0.00537341
0.00535206
0.0053362
0.00532703
0.0053226
0.005322
0.00532523
0.00533083
0.00533741
0.00534249
0.00534397
0.00533967
0.00532766
0.00530605
0.0052737
0.00523055
0.00517484
0.00510962
0.0057619
0.00569995
0.00564503
0.00559939
0.00556113
0.00552908
0.00550406
0.00548575
0.00547232
0.00546546
0.00546372
0.00546653
0.00547336
0.00548359
0.00549605
0.00550933
0.00552185
0.00553155
0.00553646
0.00553471
0.00552452
0.00550443
0.00547462
0.00543336
0.0053822
0.00580808
0.00575063
0.00570454
0.00566795
0.00563997
0.00561921
0.0056039
0.0055938
0.00558999
0.00559105
0.00559633
0.00560679
0.00562184
0.00563957
0.00565938
0.0056801
0.00570088
0.00571984
0.0057353
0.00574558
0.00574905
0.00574449
0.00573157
0.00570884
0.00567465
0.00576615
0.00575529
0.00573848
0.00572336
0.00571114
0.00570288
0.00569872
0.00569887
0.00570366
0.0057125
0.00572671
0.00574469
0.00576583
0.0057906
0.00581803
0.00584729
0.00587657
0.00590495
0.00593112
0.0059539
0.00597205
0.00598494
0.00599314
0.00599702
0.00599441
0.0058271
0.00580529
0.00579116
0.0057838
0.00578132
0.00578265
0.00578873
0.00579944
0.00581325
0.00583184
0.00585404
0.00587952
0.00590815
0.00593983
0.00597395
0.00600976
0.00604632
0.00608297
0.00611869
0.0061525
0.00618362
0.00621213
0.00623968
0.00626912
0.00629762
0.00584234
0.00583088
0.00583063
0.00583624
0.0058469
0.00586147
0.00587858
0.00589822
0.0059217
0.0059479
0.00597648
0.00600884
0.00604484
0.00608296
0.00612301
0.00616459
0.00620724
0.00625059
0.00629382
0.00633598
0.00637625
0.00641475
0.00645308
0.00649359
0.00653106
0.00577595
0.00581955
0.00585389
0.00588423
0.00591243
0.00594021
0.00596836
0.00599756
0.00602855
0.00606108
0.00609669
0.00613476
0.00617455
0.00621697
0.00626172
0.00630841
0.00635669
0.00640567
0.00645494
0.00650374
0.00655108
0.00659668
0.00664103
0.0066847
0.00671935
0.00584117
0.00587752
0.00591527
0.00595251
0.0059886
0.00602358
0.0060593
0.0060963
0.00613354
0.00617293
0.00621377
0.006256
0.00629971
0.00634539
0.00639292
0.00644224
0.00649334
0.00654609
0.00660027
0.0066554
0.0067107
0.00676588
0.00682122
0.0068768
0.00692257
0.00589952
0.00594198
0.00598628
0.00602877
0.00607058
0.00611196
0.00615299
0.00619417
0.00623647
0.00627963
0.00632303
0.00636691
0.00641291
0.00645989
0.00650819
0.00655811
0.00660998
0.00666461
0.00672241
0.00678367
0.00684847
0.00691716
0.00699031
0.00706767
0.00713578
0.00593411
0.00600486
0.00606031
0.00610885
0.00615415
0.00619865
0.00624275
0.00628676
0.00633142
0.0063757
0.00642056
0.00646532
0.00650976
0.00655451
0.00660001
0.00664689
0.00669628
0.00674895
0.00680669
0.00687151
0.00694544
0.00703081
0.00713
0.00724349
0.00735203
0.00611872
0.00613711
0.00615971
0.00618985
0.00622688
0.00626895
0.00631475
0.00636265
0.00641063
0.00645788
0.00650379
0.00654817
0.00658986
0.00662948
0.00666744
0.00670468
0.00674276
0.00678394
0.00683152
0.00689006
0.00696519
0.00706405
0.00719522
0.00736561
0.00755226
0.00628914
0.00621825
0.00619337
0.00620414
0.00623885
0.0062878
0.00634418
0.00640315
0.00646125
0.0065163
0.00656648
0.00661081
0.00664892
0.00668044
0.00670566
0.00672538
0.00674112
0.00675589
0.00677412
0.00680269
0.0068518
0.00693686
0.00708028
0.00731132
0.00762667
0.00616843
0.00603616
0.00601675
0.00606167
0.00613793
0.00622719
0.00631875
0.00640645
0.00648663
0.00655721
0.00661681
0.00666455
0.00669958
0.00672155
0.00673019
0.00672545
0.00670778
0.00667852
0.00664069
0.00660015
0.00656749
0.00656154
0.00661529
0.00678952
0.0071524
0.00521706
0.00533208
0.00553131
0.00574351
0.00594308
0.00612156
0.00627716
0.00641049
0.0065227
0.00661475
0.00668723
0.00674054
0.0067748
0.00678893
0.006782
0.00675256
0.00669874
0.00661845
0.00650931
0.00636931
0.00619791
0.00599805
0.00578176
0.00558397
0.00550316
0.00346983
0.00435317
0.00500478
0.00547067
0.00581856
0.00608816
0.00630187
0.00647345
0.00661129
0.00672038
0.00680362
0.0068628
0.00689859
0.00690975
0.00689451
0.00685051
0.00677381
0.00665878
0.00649735
0.00627791
0.00598323
0.00558762
0.00505181
0.00431461
0.00337589
0.00584574
0.00570321
0.00580802
0.00598616
0.00619125
0.00639518
0.00658116
0.00674261
0.00687814
0.0069883
0.00707394
0.00713568
0.00717399
0.00718777
0.00717498
0.00713364
0.00706027
0.00695024
0.00679822
0.00659966
0.00635417
0.00607387
0.00579641
0.00558847
0.00561005
0.0134335
0.00841864
0.00711105
0.00668615
0.00663141
0.00672075
0.00686167
0.00700567
0.00713569
0.00724454
0.00733081
0.00739431
0.00743569
0.00745516
0.00744874
0.00741668
0.00735778
0.0072659
0.00713665
0.00697288
0.00679786
0.0066947
0.00689337
0.00813053
0.0141491
0.050388
0.0167996
0.00937135
0.00755092
0.00711573
0.00710612
0.00723526
0.00737727
0.00749728
0.00759583
0.00767374
0.00773349
0.00777685
0.00781167
0.00783415
0.00783463
0.00779329
0.00770082
0.00755019
0.0073509
0.00712732
0.00704533
0.00762462
0.010866
0.0249458
0.0621597
0.0241665
0.01133
0.00809382
0.00735156
0.00725462
0.00716601
0.00701392
0.00682912
0.00663999
0.00647415
0.00635814
0.00631416
0.00632095
0.00637244
0.00652275
0.00687019
0.00734855
0.0077519
0.00783494
0.00759606
0.00733391
0.00821728
0.0132897
0.0304687
0.0279157
0.0180216
0.0107495
0.00752191
0.00642843
0.00567182
0.00492507
0.00414744
0.00337321
0.00263165
0.00206769
0.00168613
0.00150359
0.00143714
0.00144556
0.00154588
0.00189485
0.00281552
0.00447221
0.00610432
0.00687971
0.0069802
0.00822489
0.0124709
0.0186308
0.01539
0.0134487
0.00762149
0.00402086
0.002617
0.00180541
0.00119837
0.000625155
0.000287437
0.000157658
8.89755e-05
5.40075e-05
4.06501e-05
3.62416e-05
3.818e-05
5.39146e-05
0.000123178
0.000438933
0.00142181
0.00367669
0.00604571
0.00680296
0.00785094
0.0113696
0.013712
0.0068854
0.00700966
0.00400501
0.00115005
0.000263145
5.55352e-05
1.28916e-05
2.04188e-06
8.66353e-07
6.55308e-07
6.19667e-07
6.51331e-07
7.55344e-07
8.25694e-07
9.03619e-07
1.07017e-06
1.82384e-06
2.38408e-05
0.000341831
0.00149159
0.00381812
0.00532026
0.00689081
0.00877858
0.00781819
)
;

boundaryField
{
    inlet
    {
        type            calculated;
        value           uniform 8.4375e-07;
    }
    outlet
    {
        type            calculated;
        value           nonuniform List<scalar> 
25
(
0.0068854
0.00700966
0.00400501
0.00115005
0.000263145
8.4375e-07
8.4375e-07
8.4375e-07
8.4375e-07
8.4375e-07
8.4375e-07
8.4375e-07
8.4375e-07
8.4375e-07
8.4375e-07
8.4375e-07
8.4375e-07
8.4375e-07
8.4375e-07
0.00149159
0.00381812
0.00532026
0.00689081
0.00877858
0.00781819
)
;
    }
    walls
    {
        type            nutkWallFunction;
        Cmu             0.09;
        kappa           0.41;
        E               9.8;
        value           nonuniform List<scalar> 
150
(
1.69086e-05
1.92269e-05
1.99262e-05
2.01652e-05
2.03536e-05
2.07215e-05
2.10862e-05
2.14102e-05
2.16152e-05
2.17366e-05
2.17784e-05
2.17062e-05
2.16137e-05
2.15197e-05
2.142e-05
2.13204e-05
2.12573e-05
2.12276e-05
2.12081e-05
2.11706e-05
2.10582e-05
2.08056e-05
2.04272e-05
2.00101e-05
1.97354e-05
1.96915e-05
1.98977e-05
2.02715e-05
2.06809e-05
2.10769e-05
2.14656e-05
2.1833e-05
2.21472e-05
2.2406e-05
2.26263e-05
2.2828e-05
2.30212e-05
2.32061e-05
2.33704e-05
2.35017e-05
2.3607e-05
2.37065e-05
2.3811e-05
2.39217e-05
2.40387e-05
2.41605e-05
2.42853e-05
2.4412e-05
2.45402e-05
2.46697e-05
2.4794e-05
2.49124e-05
2.50313e-05
2.5144e-05
2.52509e-05
2.53604e-05
2.54669e-05
2.55736e-05
2.5693e-05
2.58251e-05
2.59783e-05
2.61715e-05
2.64116e-05
2.67143e-05
2.71097e-05
2.76471e-05
2.841e-05
2.94849e-05
2.95994e-05
2.91372e-05
2.74661e-05
2.60727e-05
2.51757e-05
2.43705e-05
2.25618e-05
1.42593e-05
1.68778e-05
1.78017e-05
1.82282e-05
1.84226e-05
1.85156e-05
1.85087e-05
1.84612e-05
1.83526e-05
1.82536e-05
1.82588e-05
1.84244e-05
1.87888e-05
1.92441e-05
1.9679e-05
2.00241e-05
2.03762e-05
2.07101e-05
2.09725e-05
2.11424e-05
2.12611e-05
2.13644e-05
2.14608e-05
2.15466e-05
2.1622e-05
2.16898e-05
2.17541e-05
2.18161e-05
2.18745e-05
2.19256e-05
2.19636e-05
2.19893e-05
2.19913e-05
2.19725e-05
2.1968e-05
2.19934e-05
2.20629e-05
2.21886e-05
2.23609e-05
2.25365e-05
2.26932e-05
2.28555e-05
2.30293e-05
2.32115e-05
2.34027e-05
2.35952e-05
2.37948e-05
2.39958e-05
2.41959e-05
2.44047e-05
2.46135e-05
2.48206e-05
2.50307e-05
2.52402e-05
2.54496e-05
2.56577e-05
2.58633e-05
2.60663e-05
2.62679e-05
2.64763e-05
2.66961e-05
2.6937e-05
2.72111e-05
2.7537e-05
2.79479e-05
2.85082e-05
2.93465e-05
3.05657e-05
3.07647e-05
3.04029e-05
2.91991e-05
2.77134e-05
2.66299e-05
2.62138e-05
2.53104e-05
)
;
    }
    defaultFaces
    {
        type            empty;
    }
}


// ************************************************************************* //
