/*--------------------------------*- C++ -*----------------------------------*\
| =========                 |                                                 |
| \\      /  F ield         | OpenFOAM: The Open Source CFD Toolbox           |
|  \\    /   O peration     | Version:  2.3.0                                 |
|   \\  /    A nd           | Web:      www.OpenFOAM.org                      |
|    \\/     M anipulation  |                                                 |
\*---------------------------------------------------------------------------*/
FoamFile
{
    version     2.0;
    format      ascii;
    class       surfaceScalarField;
    location    "81";
    object      phi.water;
}
// * * * * * * * * * * * * * * * * * * * * * * * * * * * * * * * * * * * * * //

dimensions      [0 3 -1 0 0 0 0];

internalField   nonuniform List<scalar> 
3650
(
3.78987e-05
-3.96226e-05
7.77199e-05
-4.48806e-05
0.000122047
-4.6672e-05
0.000166558
-4.5596e-05
0.00020862
-4.2528e-05
0.000246575
-3.81746e-05
0.000279628
-3.30845e-05
0.000307199
-2.75906e-05
0.000328863
-2.18845e-05
0.000344304
-1.60617e-05
0.000353224
-1.02125e-05
0.000355452
-4.59433e-06
0.000350149
2.33167e-06
0.000336765
1.05107e-05
0.000316097
1.79357e-05
0.000288761
2.43326e-05
0.000256512
2.91919e-05
0.000221331
3.21235e-05
0.000185559
3.29921e-05
0.000151493
3.19642e-05
0.000120596
2.9662e-05
9.2713e-05
2.72536e-05
6.5626e-05
2.66238e-05
3.46357e-05
2.77224e-05
2.74634e-05
5.35605e-05
-8.4821e-05
9.39001e-05
-8.30712e-05
0.000129791
-8.08952e-05
0.000163541
-7.59368e-05
0.000194267
-6.91158e-05
0.000221727
-6.08927e-05
0.000245702
-5.16923e-05
0.000265894
-4.17861e-05
0.000281914
-3.13186e-05
0.000293323
-2.03094e-05
0.000299425
-8.43143e-06
0.000299453
3.89104e-06
0.000294921
1.45693e-05
0.000285642
2.60111e-05
0.00027085
3.71899e-05
0.000250241
4.74355e-05
0.000224098
5.54553e-05
0.000194311
6.03652e-05
0.000163225
6.20976e-05
0.000132164
6.11171e-05
0.000101963
5.84686e-05
7.35576e-05
5.55181e-05
4.76966e-05
5.45478e-05
2.35651e-05
5.52358e-05
5.20642e-05
4.56689e-05
-0.000119306
8.39732e-05
-0.000115156
0.00011413
-0.000107501
0.000139464
-9.83617e-05
0.000160818
-8.80002e-05
0.000178703
-7.65124e-05
0.000193182
-6.40917e-05
0.000204324
-5.09516e-05
0.000212286
-3.72708e-05
0.000217227
-2.317e-05
0.000219693
-8.84884e-06
0.000219814
5.9361e-06
0.000215729
2.15262e-05
0.000207891
3.69176e-05
0.000195998
5.18749e-05
0.000180145
6.55669e-05
0.000160409
7.65344e-05
0.000137791
8.33197e-05
0.000113648
8.55304e-05
8.98023e-05
8.38454e-05
6.76238e-05
7.97609e-05
4.74332e-05
7.51025e-05
3.00184e-05
7.19223e-05
1.58784e-05
6.98134e-05
6.68414e-05
2.8726e-05
-0.000138882
5.39251e-05
-0.000133169
7.34768e-05
-0.000123397
8.98585e-05
-0.000112082
0.000103464
-9.93911e-05
0.000114249
-8.54011e-05
0.000122088
-7.03459e-05
0.000126892
-5.45114e-05
0.000128922
-3.82064e-05
0.00012841
-2.15785e-05
0.000125314
-4.62888e-06
0.000119916
1.24948e-05
0.000112953
2.98167e-05
0.000104443
4.7038e-05
9.43834e-05
6.36104e-05
8.29544e-05
7.85502e-05
7.037e-05
9.02806e-05
5.75301e-05
9.69802e-05
4.48402e-05
9.83492e-05
3.32495e-05
9.52142e-05
2.33452e-05
8.94805e-05
1.51185e-05
8.32342e-05
9.08771e-06
7.83603e-05
4.25439e-06
7.46763e-05
7.04757e-05
1.14246e-05
-0.000146097
2.1136e-05
-0.000140347
2.81399e-05
-0.000129803
3.42853e-05
-0.000117387
3.84815e-05
-0.000103088
4.04033e-05
-8.71529e-05
4.00757e-05
-7.0048e-05
3.76187e-05
-5.21954e-05
3.33293e-05
-3.40369e-05
2.75343e-05
-1.58129e-05
2.05726e-05
2.39816e-06
1.26829e-05
2.05877e-05
4.28954e-06
3.85076e-05
-4.12806e-06
5.58176e-05
-1.19314e-05
7.18274e-05
-1.82769e-05
8.53988e-05
-2.22947e-05
9.49443e-05
-2.41075e-05
9.91911e-05
-2.37551e-05
9.82352e-05
-2.16754e-05
9.32424e-05
-1.83871e-05
8.62326e-05
-1.44673e-05
7.91793e-05
-9.88542e-06
7.36013e-05
-4.90269e-06
6.95677e-05
6.56811e-05
-2.62568e-06
-0.000143943
-6.8545e-06
-0.000137334
-1.18145e-05
-0.000125996
-1.69432e-05
-0.000112909
-2.38723e-05
-9.74626e-05
-3.24727e-05
-8.01833e-05
-4.22954e-05
-6.18583e-05
-5.28766e-05
-4.3081e-05
-6.38776e-05
-2.43537e-05
-7.48805e-05
-5.96671e-06
-8.54703e-05
1.19695e-05
-9.50639e-05
2.93335e-05
-0.000103037
4.58206e-05
-0.000108573
6.09237e-05
-0.000110694
7.3828e-05
-0.000108553
8.34924e-05
-0.000101978
8.88767e-05
-9.19487e-05
8.95951e-05
-7.9285e-05
8.60759e-05
-6.54357e-05
7.97839e-05
-5.14105e-05
7.24571e-05
-3.78425e-05
6.56048e-05
-2.48673e-05
6.02633e-05
-1.22013e-05
5.67135e-05
5.39107e-05
-1.47623e-05
-0.000131586
-3.12038e-05
-0.000124191
-4.63269e-05
-0.000112496
-6.26191e-05
-9.89729e-05
-8.07986e-05
-8.2752e-05
-9.95921e-05
-6.48625e-05
-0.000118321
-4.64149e-05
-0.000136221
-2.81427e-05
-0.000152597
-1.05571e-05
-0.000166843
6.04568e-06
-0.000178224
2.15174e-05
-0.000186034
3.57397e-05
-0.000189464
4.83748e-05
-0.000187872
5.89597e-05
-0.00018087
6.6861e-05
-0.000168629
7.15313e-05
-0.000151915
7.26083e-05
-0.000131885
7.02347e-05
-0.000110313
6.52055e-05
-8.88232e-05
5.88376e-05
-6.83728e-05
5.23321e-05
-4.93023e-05
4.66487e-05
-3.18747e-05
4.24702e-05
-1.55968e-05
4.01874e-05
3.902e-05
-2.46495e-05
-0.000110898
-5.00395e-05
-0.000102961
-7.35918e-05
-9.08764e-05
-9.98022e-05
-7.70253e-05
-0.000127041
-6.04877e-05
-0.000153456
-4.29626e-05
-0.000178161
-2.57656e-05
-0.000199969
-9.70628e-06
-0.000217865
4.72498e-06
-0.000230944
1.72866e-05
-0.0002387
2.80923e-05
-0.000240598
3.70802e-05
-0.000236452
4.41103e-05
-0.000226339
4.90395e-05
-0.000210649
5.16446e-05
-0.000190351
5.18131e-05
-0.000166549
4.96178e-05
-0.000140964
4.55791e-05
-0.000115466
4.04833e-05
-9.12606e-05
3.51777e-05
-6.89298e-05
3.03442e-05
-4.85994e-05
2.65433e-05
-3.06626e-05
2.42897e-05
-1.47799e-05
2.40667e-05
2.50045e-05
-3.19908e-05
-8.48782e-05
-6.25767e-05
-7.59522e-05
-9.19358e-05
-6.35263e-05
-0.000124258
-4.96055e-05
-0.000155926
-3.35559e-05
-0.000185358
-1.76417e-05
-0.000211252
-3.20324e-06
-0.000232237
8.91217e-06
-0.000247426
1.84864e-05
-0.000256207
2.53952e-05
-0.000258302
3.00412e-05
-0.000253799
3.2896e-05
-0.000243064
3.40401e-05
-0.000226619
3.3487e-05
-0.000205631
3.15283e-05
-0.000181148
2.84075e-05
-0.000154852
2.44335e-05
-0.000128429
2.01099e-05
-0.000103211
1.59375e-05
-7.99372e-05
1.23454e-05
-5.89588e-05
9.67134e-06
-4.04075e-05
8.23939e-06
-2.47154e-05
8.4674e-06
-1.17109e-05
1.08232e-05
1.4037e-05
-3.64138e-05
-5.5671e-05
-6.8394e-05
-4.59456e-05
-9.9927e-05
-3.34016e-05
-0.000133659
-1.99361e-05
-0.000165241
-5.34911e-06
-0.000193524
7.85162e-06
-0.000216956
1.83511e-05
-0.000234427
2.54663e-05
-0.000245309
2.91689e-05
-0.00024953
2.98561e-05
-0.000246877
2.83395e-05
-0.000237834
2.51939e-05
-0.000223437
2.08144e-05
-0.000204498
1.579e-05
-0.000182121
1.05726e-05
-0.000157779
5.43096e-06
-0.00013292
6.99507e-07
-0.00010869
-3.31552e-06
-8.58696e-05
-6.36067e-06
-6.49622e-05
-8.229e-06
-4.6335e-05
-8.72647e-06
-3.03193e-05
-7.61493e-06
-1.7468e-05
-4.53477e-06
-7.82813e-06
8.72459e-07
6.68176e-06
-3.65847e-05
-2.61852e-05
-6.68965e-05
-1.59309e-05
-9.72659e-05
-3.54694e-06
-0.000128863
8.89707e-06
-0.000157591
2.13221e-05
-0.000182596
3.12662e-05
-0.000202466
3.74718e-05
-0.000216235
3.94172e-05
-0.000223572
3.73671e-05
-0.000224583
3.21129e-05
-0.000219652
2.48123e-05
-0.000209463
1.65312e-05
-0.000194848
8.02114e-06
-0.000177128
-1.41388e-07
-0.000157319
-7.57608e-06
-0.000136484
-1.40368e-05
-0.000115438
-1.93167e-05
-9.47443e-05
-2.32699e-05
-7.48322e-05
-2.57509e-05
-5.61003e-05
-2.65884e-05
-3.90092e-05
-2.55534e-05
-2.41458e-05
-2.23277e-05
-1.23228e-05
-1.64705e-05
-4.26164e-06
-7.56074e-06
1.91605e-06
-3.32767e-05
7.94979e-07
-6.00191e-05
1.16215e-05
-8.70181e-05
2.36459e-05
-0.000114576
3.47077e-05
-0.000139232
4.47373e-05
-0.000160321
5.14573e-05
-0.000176793
5.37101e-05
-0.000188088
5.10861e-05
-0.000193668
4.40202e-05
-0.000193751
3.37936e-05
-0.000188988
2.20021e-05
-0.000180333
9.95343e-06
-0.000168766
-1.51086e-06
-0.000155185
-1.18811e-05
-0.000140327
-2.09051e-05
-0.000124692
-2.84839e-05
-0.000108541
-3.45724e-05
-9.20214e-05
-3.91184e-05
-7.5274e-05
-4.19864e-05
-5.85069e-05
-4.29621e-05
-4.21038e-05
-4.16847e-05
-2.67386e-05
-3.76271e-05
-1.34248e-05
-3.00582e-05
-4.0307e-06
-1.80785e-05
-4.5623e-06
-2.85435e-05
2.3967e-05
-5.09372e-05
3.53189e-05
-7.3446e-05
4.68466e-05
-9.62221e-05
5.64247e-05
-0.000116435
6.42136e-05
-0.000133623
6.81557e-05
-0.000147053
6.71618e-05
-0.000156115
6.08474e-05
-0.000160581
4.99194e-05
-0.000161039
3.61284e-05
-0.000158241
2.12822e-05
-0.000153015
6.75902e-06
-0.000146096
-6.62732e-06
-0.000138012
-1.85054e-05
-0.000129045
-2.87837e-05
-0.000119284
-3.74943e-05
-0.000108692
-4.4686e-05
-9.71775e-05
-5.03548e-05
-8.46325e-05
-5.43939e-05
-7.10037e-05
-5.655e-05
-5.6395e-05
-5.63613e-05
-4.11792e-05
-5.31228e-05
-2.64566e-05
-4.57946e-05
-1.42244e-05
-3.32861e-05
-1.9311e-05
-2.28499e-05
4.23719e-05
-4.02312e-05
5.40463e-05
-5.75283e-05
6.50714e-05
-7.49981e-05
7.33198e-05
-9.04673e-05
7.92969e-05
-0.000103668
8.11538e-05
-0.000114136
7.78373e-05
-0.000121287
6.89345e-05
-0.000125382
5.5517e-05
-0.000127045
3.95895e-05
-0.000126983
2.30047e-05
-0.000125794
7.073e-06
-0.000123791
-7.51074e-06
-0.000121055
-2.04891e-05
-0.000117523
-3.18503e-05
-0.000113101
-4.16704e-05
-0.000107667
-5.00373e-05
-0.000101084
-5.69927e-05
-9.31262e-05
-6.24985e-05
-8.35764e-05
-6.63388e-05
-7.21672e-05
-6.81264e-05
-5.86129e-05
-6.72249e-05
-4.41197e-05
-6.25759e-05
-2.73922e-05
-5.35849e-05
-4.39918e-05
-1.53758e-05
5.47359e-05
-2.697e-05
6.66658e-05
-3.86271e-05
7.74603e-05
-5.04025e-05
8.48322e-05
-6.09246e-05
8.96314e-05
-7.00819e-05
9.02538e-05
-7.76765e-05
8.56831e-05
-8.33555e-05
7.54735e-05
-8.76438e-05
6.09698e-05
-9.10108e-05
4.41759e-05
-9.38043e-05
2.68493e-05
-9.61394e-05
1.01998e-05
-9.79987e-05
-5.14581e-06
-9.9244e-05
-1.89662e-05
-9.97147e-05
-3.12505e-05
-9.92957e-05
-4.20646e-05
-9.78739e-05
-5.14919e-05
-9.5299e-05
-5.96048e-05
-9.14327e-05
-6.6437e-05
-8.60527e-05
-7.19374e-05
-7.88123e-05
-7.59446e-05
-6.88338e-05
-7.82248e-05
-5.53951e-05
-7.83284e-05
-3.40584e-05
-7.62088e-05
-7.34391e-05
-7.05731e-06
6.02854e-05
-1.21611e-05
7.24055e-05
-1.75199e-05
8.33149e-05
-2.32273e-05
9.04512e-05
-2.85271e-05
9.48844e-05
-3.35053e-05
9.52611e-05
-3.82846e-05
9.06407e-05
-4.28172e-05
8.05024e-05
-4.74047e-05
6.61876e-05
-5.21595e-05
4.95475e-05
-5.7013e-05
3.21981e-05
-6.17155e-05
1.52826e-05
-6.60464e-05
-5.50148e-07
-6.98086e-05
-1.5035e-05
-7.28652e-05
-2.81124e-05
-7.50962e-05
-3.98051e-05
-7.64444e-05
-5.01727e-05
-7.68832e-05
-5.92908e-05
-7.64201e-05
-6.72393e-05
-7.47204e-05
-7.41466e-05
-7.12808e-05
-8.01093e-05
-6.50504e-05
-8.53445e-05
-5.38974e-05
-9.01818e-05
-3.23434e-05
-9.50726e-05
-9.83498e-05
8.01411e-07
5.898e-05
2.59067e-06
7.10661e-05
3.88596e-06
8.22917e-05
4.35103e-06
8.9867e-05
4.52133e-06
9.47577e-05
3.92625e-06
9.58857e-05
2.31691e-06
9.24165e-05
-7.58967e-07
8.37182e-05
-5.10728e-06
7.07416e-05
-1.04268e-05
5.51324e-05
-1.63643e-05
3.83898e-05
-2.25224e-05
2.16377e-05
-2.85278e-05
5.5837e-06
-3.40872e-05
-9.41798e-06
-3.89879e-05
-2.32171e-05
-4.30932e-05
-3.57618e-05
-4.63644e-05
-4.70485e-05
-4.88155e-05
-5.71301e-05
-5.03776e-05
-6.61567e-05
-5.06133e-05
-7.44171e-05
-4.88783e-05
-8.21288e-05
-4.45967e-05
-8.9595e-05
-3.72773e-05
-9.74103e-05
-2.2047e-05
-0.000106418
-0.000112581
7.46462e-06
5.15509e-05
1.64353e-05
6.2808e-05
2.40864e-05
7.45021e-05
3.0591e-05
8.32036e-05
3.61293e-05
8.92556e-05
4.00541e-05
9.19509e-05
4.20525e-05
9.05515e-05
4.12533e-05
8.44611e-05
3.79218e-05
7.39445e-05
3.26191e-05
6.03074e-05
2.60303e-05
4.48978e-05
1.87741e-05
2.88445e-05
1.13779e-05
1.29447e-05
4.2338e-06
-2.32721e-06
-2.36119e-06
-1.67083e-05
-8.20085e-06
-3.00471e-05
-1.31626e-05
-4.22613e-05
-1.71877e-05
-5.33728e-05
-2.00546e-05
-6.3581e-05
-2.14664e-05
-7.32039e-05
-2.11328e-05
-8.24188e-05
-1.87704e-05
-9.13768e-05
-1.52758e-05
-0.00010051
-9.83095e-06
-0.000110986
-0.000118263
1.29283e-05
3.90155e-05
2.78701e-05
4.88675e-05
4.12111e-05
6.08826e-05
5.32993e-05
7.10661e-05
6.37535e-05
7.88083e-05
7.21135e-05
8.35945e-05
7.78599e-05
8.48483e-05
8.01606e-05
8.20497e-05
7.87603e-05
7.50137e-05
7.42376e-05
6.43657e-05
6.74498e-05
5.12028e-05
5.93311e-05
3.65838e-05
5.06198e-05
2.13866e-05
4.18663e-05
6.23324e-06
3.34687e-05
-8.47079e-06
2.57285e-05
-2.24562e-05
1.88829e-05
-3.55483e-05
1.31022e-05
-4.77042e-05
8.6103e-06
-5.90786e-05
5.32696e-06
-6.98813e-05
3.13648e-06
-8.02238e-05
2.13589e-06
-9.01113e-05
1.58292e-06
-9.95854e-05
-1.49123e-07
-0.000110401
-0.000118725
1.60939e-05
2.34008e-05
3.46241e-05
3.13433e-05
5.27424e-05
4.28751e-05
6.96893e-05
5.43525e-05
8.45155e-05
6.40402e-05
9.68899e-05
7.12318e-05
0.000106311
7.54404e-05
0.000112147
7.61834e-05
0.000113679
7.31957e-05
0.000111001
6.6481e-05
0.00010492
5.65529e-05
9.63923e-05
4.43306e-05
8.65377e-05
3.05949e-05
7.61966e-05
1.61049e-05
6.59556e-05
1.44881e-06
5.62263e-05
-1.29454e-05
4.73229e-05
-2.67737e-05
3.94519e-05
-3.98756e-05
3.26915e-05
-5.22694e-05
2.68476e-05
-6.40009e-05
2.16626e-05
-7.50954e-05
1.69531e-05
-8.54768e-05
1.29063e-05
-9.49326e-05
6.17292e-06
-0.000105234
-0.000114373
1.69161e-05
6.75472e-06
3.65555e-05
1.23462e-05
5.7864e-05
2.24029e-05
7.85786e-05
3.44307e-05
9.70623e-05
4.59274e-05
0.000112828
5.56009e-05
0.000125498
6.28457e-05
0.000134534
6.71801e-05
0.000139438
6.8242e-05
0.000139664
6.58847e-05
0.000135452
6.01241e-05
0.000127405
5.13054e-05
0.000116859
3.99905e-05
0.000105096
2.68823e-05
9.30648e-05
1.27632e-05
8.13661e-05
-1.71602e-06
7.03874e-05
-1.60628e-05
6.03423e-05
-2.99357e-05
5.12014e-05
-4.31599e-05
4.28331e-05
-5.56148e-05
3.49062e-05
-6.72015e-05
2.70051e-05
-7.77915e-05
2.00067e-05
-8.70845e-05
1.07676e-05
-9.67428e-05
-0.000105866
1.58325e-05
-8.97075e-06
3.44738e-05
-6.13823e-06
5.65626e-05
1.59476e-06
7.95815e-05
1.30307e-05
0.000100867
2.56618e-05
0.000119407
3.75893e-05
0.00013476
4.77892e-05
0.000146436
5.56457e-05
0.00015416
6.06389e-05
0.000157449
6.25018e-05
0.000155759
6.12423e-05
0.000149498
5.6654e-05
0.000139348
4.86922e-05
0.000126875
3.78238e-05
0.000113416
2.48878e-05
9.99664e-05
1.07478e-05
8.71101e-05
-3.84208e-06
7.51366e-05
-1.82977e-05
6.40261e-05
-3.2209e-05
5.36557e-05
-4.52735e-05
4.37124e-05
-5.72389e-05
3.36859e-05
-6.79182e-05
2.45277e-05
-7.70222e-05
1.37584e-05
-8.6038e-05
-9.50424e-05
1.32488e-05
-2.22829e-05
2.90584e-05
-2.2606e-05
4.92621e-05
-1.77416e-05
7.25299e-05
-8.08195e-06
9.54395e-05
4.54784e-06
0.000116103
1.81002e-05
0.000133586
3.10293e-05
0.000147342
4.23372e-05
0.00015693
5.12597e-05
0.000162289
5.73165e-05
0.0001631
6.02603e-05
0.000159554
5.98018e-05
0.000151724
5.57903e-05
0.000140123
4.80424e-05
0.00012631
3.70546e-05
0.000111719
2.38135e-05
9.73863e-05
9.3165e-06
8.3878e-05
-5.54729e-06
7.13275e-05
-2.00751e-05
5.95962e-05
-3.37329e-05
4.84473e-05
-4.60909e-05
3.72705e-05
-5.68644e-05
2.68791e-05
-6.58023e-05
1.5413e-05
-7.42566e-05
-8.2981e-05
9.46977e-06
-3.23542e-05
2.201e-05
-3.62649e-05
3.83429e-05
-3.43853e-05
5.93095e-05
-2.72187e-05
8.1831e-05
-1.57438e-05
0.000103394
-1.60465e-06
0.000122298
1.34624e-05
0.000137558
2.79887e-05
0.000148633
4.07809e-05
0.000155326
5.09628e-05
0.000158007
5.793e-05
0.000156846
6.1203e-05
0.000151805
6.07842e-05
0.000142758
5.65343e-05
0.000130378
4.82447e-05
0.000115997
3.66126e-05
0.00010107
2.2693e-05
8.66351e-05
7.66334e-06
7.31833e-05
-7.41564e-06
6.07176e-05
-2.16987e-05
4.90305e-05
-3.4529e-05
3.75191e-05
-4.54779e-05
2.68314e-05
-5.43214e-05
1.54549e-05
-6.23611e-05
-7.07224e-05
6.23732e-06
-3.97727e-05
1.59938e-05
-4.69751e-05
2.85807e-05
-4.77368e-05
4.51794e-05
-4.29807e-05
6.45964e-05
-3.32292e-05
8.46996e-05
-1.95483e-05
0.000103414
-3.38882e-06
0.000119226
1.36083e-05
0.000131196
2.98235e-05
0.000138937
4.38342e-05
0.000142749
5.45844e-05
0.000142885
6.14195e-05
0.000139668
6.41668e-05
0.000133282
6.29022e-05
0.000123512
5.7471e-05
0.000111097
4.78949e-05
9.71867e-05
3.51168e-05
8.30503e-05
2.03337e-05
6.95946e-05
4.90011e-06
5.71792e-05
-9.97722e-06
4.57196e-05
-2.33392e-05
3.46808e-05
-3.45637e-05
2.45449e-05
-4.3421e-05
1.41323e-05
-5.12344e-05
-5.93395e-05
6.36057e-06
-4.63438e-05
1.3202e-05
-5.50446e-05
2.2573e-05
-5.75917e-05
3.42204e-05
-5.4571e-05
4.8543e-05
-4.6456e-05
6.46089e-05
-3.37981e-05
8.07492e-05
-1.75638e-05
9.52853e-05
8.0865e-07
0.000106915
1.95443e-05
0.000114899
3.67948e-05
0.00011906
5.0951e-05
0.000120086
6.08265e-05
0.000118205
6.63035e-05
0.000113754
6.73985e-05
0.000106706
6.42953e-05
9.71982e-05
5.67583e-05
8.58122e-05
4.54121e-05
7.34773e-05
3.13175e-05
6.12333e-05
1.58717e-05
4.9787e-05
5.59517e-07
3.9373e-05
-1.33216e-05
2.96015e-05
-2.48897e-05
2.07126e-05
-3.38583e-05
1.1971e-05
-4.16234e-05
-4.95701e-05
8.0679e-06
-5.36186e-05
1.21441e-05
-6.12443e-05
1.85497e-05
-6.43226e-05
2.59155e-05
-6.21539e-05
3.50633e-05
-5.52051e-05
4.59983e-05
-4.35893e-05
5.78493e-05
-2.78238e-05
6.93012e-05
-8.99245e-06
7.90881e-05
1.12129e-05
8.626e-05
3.0758e-05
9.01962e-05
4.76108e-05
9.1648e-05
5.98727e-05
9.08118e-05
6.74079e-05
8.80214e-05
7.03136e-05
8.34047e-05
6.8795e-05
7.69112e-05
6.2901e-05
6.87543e-05
5.28998e-05
5.9336e-05
3.97307e-05
4.94401e-05
2.4627e-05
3.99032e-05
9.14472e-06
3.1228e-05
-5.14121e-06
2.33249e-05
-1.70562e-05
1.61878e-05
-2.6177e-05
9.37667e-06
-3.39963e-05
-4.18535e-05
9.90355e-06
-6.23645e-05
1.27124e-05
-6.66323e-05
1.52416e-05
-6.83144e-05
1.86539e-05
-6.61847e-05
2.34536e-05
-5.99647e-05
2.96615e-05
-4.91851e-05
3.69219e-05
-3.4003e-05
4.44069e-05
-1.52028e-05
5.12256e-05
5.65684e-06
5.65397e-05
2.64998e-05
5.96366e-05
4.50742e-05
6.11041e-05
5.88813e-05
6.10261e-05
6.77565e-05
5.9609e-05
7.18279e-05
5.70546e-05
7.12814e-05
5.33296e-05
6.64049e-05
4.84387e-05
5.74074e-05
4.24472e-05
4.5126e-05
3.56643e-05
3.05921e-05
2.87829e-05
1.52438e-05
2.23719e-05
7.79316e-07
1.66511e-05
-1.13835e-05
1.15043e-05
-2.06288e-05
6.66875e-06
-2.85265e-05
-3.63364e-05
1.16346e-05
-7.17749e-05
1.50872e-05
-7.14588e-05
1.35691e-05
-7.00947e-05
1.30009e-05
-6.72346e-05
1.39807e-05
-6.13649e-05
1.60893e-05
-5.1168e-05
1.91252e-05
-3.64685e-05
2.24922e-05
-1.78659e-05
2.5609e-05
3.15609e-06
2.82325e-05
2.44504e-05
3.0031e-05
4.36576e-05
3.12648e-05
5.80371e-05
3.17989e-05
6.74362e-05
3.17162e-05
7.20017e-05
3.10269e-05
7.19279e-05
2.97303e-05
6.7539e-05
2.77436e-05
5.91671e-05
2.50125e-05
4.75672e-05
2.15691e-05
3.36528e-05
1.76598e-05
1.86953e-05
1.37462e-05
4.33929e-06
1.01956e-05
-7.87904e-06
6.9925e-06
-1.71808e-05
4.07283e-06
-2.51773e-05
-3.29632e-05
1.01367e-05
-7.86077e-05
1.3194e-05
-7.4513e-05
1.17297e-05
-7.01023e-05
8.67408e-06
-6.59449e-05
6.61647e-06
-5.9969e-05
5.35572e-06
-5.00171e-05
4.57419e-06
-3.55884e-05
4.02845e-06
-1.72123e-05
3.57128e-06
3.61342e-06
3.42044e-06
2.46278e-05
3.93134e-06
4.34005e-05
4.77204e-06
5.74148e-05
5.78449e-06
6.65672e-05
6.84696e-06
7.0981e-05
7.84188e-06
7.08984e-05
8.67477e-06
6.66014e-05
9.15524e-06
5.85514e-05
9.16718e-06
4.74279e-05
8.64508e-06
3.40816e-05
7.55106e-06
1.96682e-05
6.05657e-06
5.70001e-06
4.44826e-06
-6.31875e-06
2.86984e-06
-1.55775e-05
1.83178e-06
-2.37687e-05
-3.14846e-05
6.00446e-06
-8.12954e-05
7.15121e-06
-7.49646e-05
6.74871e-06
-6.87092e-05
3.61382e-06
-6.31674e-05
-1.70712e-07
-5.65323e-05
-3.94307e-06
-4.63531e-05
-7.83301e-06
-3.19192e-05
-1.16507e-05
-1.37622e-05
-1.4921e-05
6.51373e-06
-1.71678e-05
2.65717e-05
-1.76065e-05
4.40147e-05
-1.70036e-05
5.6904e-05
-1.55441e-05
6.51737e-05
-1.34699e-05
6.89097e-05
-1.10129e-05
6.84101e-05
-8.38524e-06
6.39237e-05
-5.84696e-06
5.59656e-05
-3.60793e-06
4.51726e-05
-1.84599e-06
3.23393e-05
-6.55139e-07
1.85422e-05
-1.23947e-07
5.18817e-06
-2.05054e-07
-6.3447e-06
-7.77659e-07
-1.54364e-05
-6.28001e-08
-2.40365e-05
-3.1655e-05
1.08298e-06
-8.06967e-05
9.16101e-07
-7.3496e-05
-6.82528e-07
-6.61017e-05
-3.67681e-06
-5.961e-05
-8.14266e-06
-5.19588e-05
-1.35482e-05
-4.11294e-05
-1.96046e-05
-2.64215e-05
-2.57121e-05
-8.49515e-06
-3.0811e-05
1.08829e-05
-3.40655e-05
2.9388e-05
-3.48838e-05
4.48963e-05
-3.41381e-05
5.61616e-05
-3.20785e-05
6.31217e-05
-2.90387e-05
6.58567e-05
-2.52964e-05
6.46654e-05
-2.11788e-05
5.9812e-05
-1.69916e-05
5.18073e-05
-1.30029e-05
4.12548e-05
-9.44744e-06
2.89011e-05
-6.55877e-06
1.57705e-05
-4.56619e-06
3.19777e-06
-3.54364e-06
-7.61994e-06
-4.08585e-06
-1.64763e-05
-1.59401e-06
-2.58603e-05
-3.33559e-05
-2.91707e-06
-7.8036e-05
-5.24844e-06
-7.02822e-05
-7.91171e-06
-6.23829e-05
-1.13822e-05
-5.52778e-05
-1.66528e-05
-4.65875e-05
-2.33276e-05
-3.49058e-05
-3.09976e-05
-1.98279e-05
-3.84118e-05
-2.29788e-06
-4.41411e-05
1.57588e-05
-4.73532e-05
3.22179e-05
-4.79763e-05
4.54909e-05
-4.67382e-05
5.48975e-05
-4.39716e-05
6.03386e-05
-4.00656e-05
6.19529e-05
-3.53175e-05
5.99567e-05
-3.01059e-05
5.46614e-05
-2.47693e-05
4.65585e-05
-1.95957e-05
3.62133e-05
-1.48592e-05
2.43412e-05
-1.08811e-05
1.1947e-05
-8.06491e-06
2.81284e-07
-6.44687e-06
-9.72634e-06
-6.18733e-06
-1.84464e-05
-2.47449e-06
-2.87567e-05
-3.59659e-05
-5.83845e-06
-7.36401e-05
-9.68275e-06
-6.56095e-05
-1.352e-05
-5.75196e-05
-1.80809e-05
-4.99548e-05
-2.44868e-05
-4.03491e-05
-3.24748e-05
-2.78711e-05
-4.12152e-05
-1.26088e-05
-4.88805e-05
4.11171e-06
-5.4211e-05
2.03662e-05
-5.67409e-05
3.44809e-05
-5.67819e-05
4.54817e-05
-5.49457e-05
5.30213e-05
-5.15397e-05
5.69234e-05
-4.69379e-05
5.73914e-05
-4.14871e-05
5.45853e-05
-3.55723e-05
4.88467e-05
-2.95276e-05
4.06426e-05
-2.36397e-05
3.05041e-05
-1.82173e-05
1.91446e-05
-1.36833e-05
7.57249e-06
-1.04407e-05
-3.09441e-06
-8.55853e-06
-1.23003e-05
-6.75242e-06
-2.10801e-05
-2.69029e-06
-3.20327e-05
-3.88188e-05
-7.83966e-06
-6.75811e-05
-1.27549e-05
-5.9677e-05
-1.74173e-05
-5.15933e-05
-2.35849e-05
-4.35908e-05
-3.12465e-05
-3.32543e-05
-4.03732e-05
-2.02618e-05
-4.92254e-05
-5.29063e-06
-5.61648e-05
1.00646e-05
-6.04863e-05
2.4188e-05
-6.21336e-05
3.59615e-05
-6.15562e-05
4.48395e-05
-5.91491e-05
5.05653e-05
-5.524e-05
5.3022e-05
-5.01538e-05
5.23695e-05
-4.42619e-05
4.87941e-05
-3.79396e-05
4.26406e-05
-3.14815e-05
3.43373e-05
-2.51631e-05
2.44012e-05
-1.93359e-05
1.35807e-05
-1.45543e-05
2.88911e-06
-1.10767e-05
-6.7556e-06
-8.93232e-06
-1.52004e-05
-6.30214e-06
-2.40932e-05
-2.50667e-06
-3.52786e-05
-4.16179e-05
-9.13091e-06
-6.04002e-05
-1.49559e-05
-5.27351e-05
-2.0573e-05
-4.47444e-05
-2.80687e-05
-3.63658e-05
-3.69127e-05
-2.55537e-05
-4.62895e-05
-1.25319e-05
-5.42372e-05
1.5047e-06
-5.98839e-05
1.50589e-05
-6.30153e-05
2.70199e-05
-6.39085e-05
3.67006e-05
-6.28068e-05
4.36677e-05
-5.99029e-05
4.76477e-05
-5.56133e-05
4.8761e-05
-5.02446e-05
4.70823e-05
-4.41673e-05
4.28164e-05
-3.76933e-05
3.62838e-05
-3.10649e-05
2.78802e-05
-2.45594e-05
1.81439e-05
-1.85946e-05
7.8839e-06
-1.37711e-05
-1.91477e-06
-1.02152e-05
-1.05792e-05
-7.73508e-06
-1.83015e-05
-5.07499e-06
-2.70904e-05
-2.14254e-06
-3.8144e-05
-4.40874e-05
-9.97639e-06
-5.25604e-05
-1.67723e-05
-4.50784e-05
-2.35187e-05
-3.72107e-05
-3.18418e-05
-2.86406e-05
-4.11818e-05
-1.77091e-05
-4.96996e-05
-5.26855e-06
-5.62414e-05
7.30263e-06
-6.05106e-05
1.89035e-05
-6.25402e-05
2.88226e-05
-6.26033e-05
3.66036e-05
-6.08224e-05
4.18524e-05
-5.75508e-05
4.43841e-05
-5.30855e-05
4.43424e-05
-4.77096e-05
4.17803e-05
-4.17203e-05
3.69115e-05
-3.53488e-05
3.00332e-05
-2.88083e-05
2.15389e-05
-2.24072e-05
1.20248e-05
-1.66385e-05
2.3551e-06
-1.19734e-05
-6.5729e-06
-8.47631e-06
-1.43259e-05
-5.69434e-06
-2.13226e-05
-3.29337e-06
-2.95997e-05
-1.70813e-06
-4.00852e-05
-4.58321e-05
-1.04156e-05
-4.45691e-05
-1.84031e-05
-3.71069e-05
-2.59194e-05
-2.93783e-05
-3.46523e-05
-2.09028e-05
-4.32887e-05
-1.03345e-05
-5.03091e-05
9.88955e-07
-5.53708e-05
1.18929e-05
-5.83965e-05
2.16445e-05
-5.94561e-05
2.97286e-05
-5.86459e-05
3.5773e-05
-5.64034e-05
3.95314e-05
-5.30237e-05
4.09371e-05
-4.85652e-05
3.99355e-05
-4.33622e-05
3.66289e-05
-3.76153e-05
3.1244e-05
-3.15031e-05
2.40624e-05
-2.52351e-05
1.55101e-05
-1.91614e-05
6.25802e-06
-1.37852e-05
-2.81278e-06
-9.37756e-06
-1.09455e-05
-5.89939e-06
-1.78921e-05
-3.09517e-06
-2.41352e-05
-1.08857e-06
-3.15212e-05
-1.27692e-06
-4.09646e-05
-4.68541e-05
-1.05155e-05
-3.68345e-05
-1.89004e-05
-2.92537e-05
-2.68501e-05
-2.16488e-05
-3.53002e-05
-1.35948e-05
-4.24965e-05
-3.8978e-06
-4.79939e-05
6.02507e-06
-5.17391e-05
1.53218e-05
-5.37345e-05
2.34437e-05
-5.40903e-05
2.99623e-05
-5.29408e-05
3.45741e-05
-5.05502e-05
3.71089e-05
-4.71329e-05
3.75105e-05
-4.28451e-05
3.56755e-05
-3.79154e-05
3.17456e-05
-3.25057e-05
2.59251e-05
-2.6766e-05
1.84978e-05
-2.09228e-05
9.94166e-06
-1.53519e-05
9.88319e-07
-1.04704e-05
-7.51928e-06
-6.39482e-06
-1.49828e-05
-3.00657e-06
-2.12609e-05
-5.11262e-07
-2.67683e-05
1.15166e-06
-3.30364e-05
-8.31369e-07
-4.13127e-05
-4.76377e-05
-1.0177e-05
-2.95173e-05
-1.73665e-05
-2.18986e-05
-2.54678e-05
-1.43681e-05
-3.29913e-05
-6.96091e-06
-3.88999e-05
1.55187e-06
-4.32502e-05
1.00418e-05
-4.60495e-05
1.78852e-05
-4.73583e-05
2.45972e-05
-4.72956e-05
2.98018e-05
-4.60449e-05
3.32334e-05
-4.37103e-05
3.47234e-05
-4.04414e-05
3.42367e-05
-3.64615e-05
3.17147e-05
-3.19438e-05
2.7282e-05
-2.7025e-05
2.11231e-05
-2.18598e-05
1.3543e-05
-1.67074e-05
5.0759e-06
-1.19374e-05
-3.52212e-06
-7.83863e-06
-1.1493e-05
-4.40449e-06
-1.83827e-05
-1.56008e-06
-2.40945e-05
4.6924e-07
-2.89288e-05
1.77097e-06
-3.41781e-05
-2.69133e-07
-4.12836e-05
-4.808e-05
-9.31255e-06
-2.26719e-05
-1.50526e-05
-1.52491e-05
-2.17818e-05
-7.82985e-06
-2.82112e-05
-1.09449e-06
-3.31574e-05
6.23861e-06
-3.67699e-05
1.34093e-05
-3.90188e-05
1.99521e-05
-3.99694e-05
2.5421e-05
-3.97326e-05
2.94815e-05
-3.84606e-05
3.18894e-05
-3.63074e-05
3.25242e-05
-3.33791e-05
3.13067e-05
-2.9843e-05
2.82143e-05
-2.58681e-05
2.33825e-05
-2.15882e-05
1.69908e-05
-1.71876e-05
9.37252e-06
-1.29507e-05
1.10255e-06
-9.19967e-06
-7.0824e-06
-6.09262e-06
-1.45321e-05
-3.56012e-06
-2.0889e-05
-1.57993e-06
-2.60635e-05
-2.9383e-07
-3.03463e-05
6.43878e-07
-3.48911e-05
1.94819e-07
-4.11128e-05
-4.80303e-05
-8.0004e-06
-1.6641e-05
-1.27818e-05
-9.52517e-06
-1.75741e-05
-2.40598e-06
-2.28327e-05
3.81516e-06
-2.6877e-05
1.01895e-05
-2.98672e-05
1.62442e-05
-3.17057e-05
2.16653e-05
-3.24314e-05
2.60574e-05
-3.2145e-05
2.91283e-05
-3.09643e-05
3.06621e-05
-2.90269e-05
3.05672e-05
-2.64496e-05
2.87495e-05
-2.33902e-05
2.52105e-05
-1.99984e-05
2.00909e-05
-1.64193e-05
1.35758e-05
-1.28572e-05
6.02564e-06
-9.58244e-06
-1.9729e-06
-6.81927e-06
-9.74503e-06
-4.56813e-06
-1.67375e-05
-2.78988e-06
-2.26196e-05
-1.57845e-06
-2.72944e-05
-8.65268e-07
-3.11486e-05
-1.97309e-07
-3.53435e-05
1.67894e-07
-4.11546e-05
-4.79585e-05
-6.52091e-06
-1.16955e-05
-1.03149e-05
-4.8817e-06
-1.40506e-05
1.85672e-06
-1.81318e-05
7.68058e-06
-2.12982e-05
1.33118e-05
-2.36303e-05
1.84767e-05
-2.50273e-05
2.29802e-05
-2.55103e-05
2.64811e-05
-2.51599e-05
2.87294e-05
-2.40778e-05
2.95521e-05
-2.23611e-05
2.8847e-05
-2.01112e-05
2.65436e-05
-1.75025e-05
2.26736e-05
-1.46749e-05
1.73748e-05
-1.17903e-05
1.08399e-05
-9.04589e-06
3.44355e-06
-6.67022e-06
-4.2525e-06
-4.72434e-06
-1.16479e-05
-3.15703e-06
-1.82555e-05
-1.96983e-06
-2.37755e-05
-1.17828e-06
-2.81214e-05
-7.1449e-07
-3.16838e-05
-2.71623e-07
-3.56695e-05
1.77788e-07
-4.13055e-05
-4.79531e-05
-5.18455e-06
-7.73975e-06
-8.12326e-06
-1.21395e-06
-1.10151e-05
5.17926e-06
-1.41304e-05
1.06545e-05
-1.65452e-05
1.56964e-05
-1.82925e-05
2.01571e-05
-1.92837e-05
2.39211e-05
-1.95337e-05
2.66962e-05
-1.90938e-05
2.82704e-05
-1.80574e-05
2.85141e-05
-1.65176e-05
2.73282e-05
-1.45694e-05
2.46573e-05
-1.23837e-05
2.05611e-05
-1.00899e-05
1.51749e-05
-7.83832e-06
8.69987e-06
-5.81999e-06
1.50099e-06
-4.12641e-06
-5.90778e-06
-2.77363e-06
-1.29682e-05
-1.79143e-06
-1.9227e-05
-1.10952e-06
-2.4459e-05
-6.36146e-07
-2.86055e-05
-4.2174e-07
-3.201e-05
-5.44018e-08
-3.59029e-05
2.95312e-07
-4.13802e-05
-4.78776e-05
-4.04619e-06
-4.64217e-06
-6.30319e-06
1.6357e-06
-8.49506e-06
7.72588e-06
-1.08318e-05
1.28986e-05
-1.2624e-05
1.74687e-05
-1.38853e-05
2.13691e-05
-1.45324e-05
2.45401e-05
-1.45785e-05
2.67324e-05
-1.40787e-05
2.77694e-05
-1.30853e-05
2.75464e-05
-1.17101e-05
2.59933e-05
-1.00423e-05
2.30576e-05
-8.23365e-06
1.88188e-05
-6.39782e-06
1.34129e-05
-4.69058e-06
7.05666e-06
-3.24123e-06
7.20878e-08
-2.04317e-06
-7.07297e-06
-1.13587e-06
-1.3865e-05
-4.79809e-07
-1.98814e-05
-8.86225e-08
-2.48611e-05
-3.65779e-08
-2.87511e-05
-2.08608e-07
-3.20421e-05
4.78472e-08
-3.6007e-05
3.58011e-07
-4.14236e-05
-4.77716e-05
-3.1195e-06
-2.24438e-06
-4.80971e-06
3.81676e-06
-6.45634e-06
9.64705e-06
-8.17444e-06
1.4559e-05
-9.47132e-06
1.87489e-05
-1.03395e-05
2.22009e-05
-1.07098e-05
2.48991e-05
-1.0607e-05
2.66298e-05
-1.00613e-05
2.72448e-05
-9.13037e-06
2.66659e-05
-7.93324e-06
2.4836e-05
-6.54281e-06
2.17216e-05
-5.07206e-06
1.74108e-05
-3.65546e-06
1.20455e-05
-2.3861e-06
5.80788e-06
-1.30573e-06
-9.74936e-07
-5.25882e-07
-7.85808e-06
3.15683e-08
-1.44265e-05
4.69326e-07
-2.02865e-05
6.57791e-07
-2.50763e-05
5.02537e-07
-2.87481e-05
7.22784e-08
-3.19252e-05
1.40527e-07
-3.5983e-05
4.06503e-07
-4.14176e-05
-4.7646e-05
-2.37969e-06
-4.15173e-07
-3.63096e-06
5.46098e-06
-4.83351e-06
1.107e-05
-6.05684e-06
1.57559e-05
-6.9594e-06
1.96438e-05
-7.52766e-06
2.27514e-05
-7.70642e-06
2.50766e-05
-7.51422e-06
2.64405e-05
-6.97226e-06
2.67436e-05
-6.19993e-06
2.59096e-05
-5.1499e-06
2.38475e-05
-4.00207e-06
2.0619e-05
-2.88993e-06
1.63247e-05
-1.85712e-06
1.10351e-05
-8.86084e-07
4.87612e-06
-7.5758e-08
-1.75448e-06
5.134e-07
-8.44754e-06
8.95582e-07
-1.48069e-05
1.0393e-06
-2.04412e-05
9.34905e-07
-2.50503e-05
6.53731e-07
-2.86167e-05
2.05696e-07
-3.17723e-05
2.91891e-07
-3.59323e-05
4.58753e-07
-4.13345e-05
-4.74855e-05
-1.78975e-06
9.60142e-07
-2.67767e-06
6.6759e-06
-3.53338e-06
1.20933e-05
-4.37694e-06
1.65987e-05
-4.99005e-06
2.02635e-05
-5.40563e-06
2.3133e-05
-5.51583e-06
2.51742e-05
-5.28955e-06
2.62371e-05
-4.85809e-06
2.62934e-05
-4.17558e-06
2.52334e-05
-3.29447e-06
2.30201e-05
-2.368e-06
1.97208e-05
-1.48064e-06
1.54311e-05
-6.46869e-07
1.02052e-05
5.50123e-08
4.19574e-06
5.65266e-07
-2.27014e-06
1.00195e-06
-8.83423e-06
1.25471e-06
-1.50188e-05
1.21354e-06
-2.04315e-05
9.63353e-07
-2.48662e-05