/*--------------------------------*- C++ -*----------------------------------*\
| =========                 |                                                 |
| \\      /  F ield         | OpenFOAM: The Open Source CFD Toolbox           |
|  \\    /   O peration     | Version:  2.3.0                                 |
|   \\  /    A nd           | Web:      www.OpenFOAM.org                      |
|    \\/     M anipulation  |                                                 |
\*---------------------------------------------------------------------------*/
FoamFile
{
    version     2.0;
    format      ascii;
    class       volScalarField;
    location    "1.85";
    object      nut.air;
}
// * * * * * * * * * * * * * * * * * * * * * * * * * * * * * * * * * * * * * //

dimensions      [0 2 -1 0 0 0 0];

internalField   nonuniform List<scalar> 
6000
(
0.000510197
0.00437172
0.00742853
0.00831281
0.00867516
0.00887408
0.00898619
0.00906343
0.00913241
0.00917852
0.00926877
0.00941154
0.00951059
0.00953996
0.00953462
0.00949751
0.00943212
0.00934656
0.00922917
0.00906998
0.00890197
0.00874448
0.00881256
0.00876329
0.0087574
0.00865086
0.00828543
0.0072854
0.00431783
0.000509551
0.000430822
0.00307044
0.00587329
0.00763822
0.00853527
0.00901798
0.00930581
0.00949412
0.00965812
0.00984471
0.010033
0.0101784
0.0102984
0.0103412
0.0102951
0.0101842
0.0100704
0.00990735
0.00969967
0.00946927
0.00930717
0.00936292
0.00949983
0.00924835
0.00883424
0.00833331
0.00740486
0.00551346
0.0026497
0.000427919
0.000377761
0.00271894
0.00534891
0.00717439
0.00825973
0.00893047
0.00938513
0.00971072
0.00996045
0.010156
0.0102869
0.0104237
0.0105742
0.0107211
0.0108096
0.0107967
0.0107168
0.0105754
0.010378
0.0102072
0.0101802
0.0103682
0.0102996
0.0101069
0.00936268
0.00850175
0.0071942
0.00513417
0.00233916
0.000358861
0.000354772
0.00266896
0.00504295
0.00678928
0.00799024
0.00882927
0.00944739
0.00992561
0.0102669
0.0104943
0.0106801
0.0108591
0.0110483
0.0111957
0.0113546
0.0114104
0.0113723
0.0112583
0.0110988
0.0109901
0.01104
0.0112021
0.0110165
0.010836
0.00995053
0.00880489
0.00732713
0.00513915
0.00239982
0.000328216
0.000338009
0.00263566
0.00491987
0.00663786
0.00790687
0.00886049
0.00959835
0.0101609
0.0105853
0.0108908
0.0111321
0.0113585
0.0115676
0.0117777
0.0119622
0.0120492
0.0120317
0.0119324
0.0117982
0.0117225
0.011807
0.0118935
0.0116237
0.0113707
0.0105088
0.00917238
0.00760799
0.00545419
0.00263879
0.00032903
0.000323405
0.00257949
0.00483738
0.00659471
0.00796332
0.00903397
0.00986639
0.0105039
0.0109991
0.0113706
0.0116718
0.0119667
0.0122583
0.0125067
0.0126579
0.012724
0.012692
0.0125904
0.0124634
0.0123961
0.0124766
0.0124507
0.0121121
0.0117905
0.0109848
0.00953358
0.00789429
0.00578834
0.003017
0.000347634
0.000314374
0.00254946
0.00481998
0.00665491
0.00811925
0.00928467
0.0102217
0.0109695
0.0115582
0.0120244
0.0124156
0.0127641
0.0130585
0.0132693
0.0133938
0.0134257
0.0133652
0.0132391
0.0130985
0.0130172
0.0130441
0.0128434
0.0124908
0.0121299
0.0113355
0.0098413
0.0081249
0.00598231
0.00318956
0.000370432
0.000309558
0.00257121
0.00488119
0.00681075
0.00842582
0.00974739
0.0107999
0.0116304
0.0122735
0.012776
0.0131883
0.0135391
0.0138337
0.0140422
0.0141315
0.0141414
0.0140474
0.0138762
0.0136973
0.0135794
0.0135045
0.0131199
0.0127582
0.0123119
0.0115531
0.0100824
0.00828572
0.00607535
0.00328854
0.000383369
0.000303676
0.00263435
0.00509738
0.00717019
0.00893074
0.0103679
0.0114871
0.0123419
0.0129934
0.0135071
0.0139332
0.0142989
0.0146008
0.0147873
0.0148554
0.0148705
0.0147387
0.0145042
0.0142552
0.0140384
0.0137388
0.0133349
0.0128939
0.0124113
0.0116373
0.0102648
0.0084353
0.00614028
0.00334218
0.000389301
0.00030293
0.00274715
0.00552695
0.00772963
0.00956419
0.0110639
0.0122187
0.0130861
0.0137391
0.0142528
0.0146812
0.0150522
0.0153314
0.0154945
0.015563
0.0155532
0.0153832
0.0150892
0.0147562
0.0143632
0.0139626
0.0135405
0.0130337
0.0124895
0.0117318
0.0104356
0.00860771
0.0062359
0.00337754
0.000389076
0.000308488
0.00299518
0.00615415
0.00849437
0.0103539
0.0118707
0.0130241
0.0138712
0.0144962
0.0149912
0.0154109
0.0157654
0.0160132
0.0161611
0.0161941
0.0160891
0.0158789
0.0155615
0.0151325
0.0146508
0.0141897
0.0137101
0.0131737
0.0126046
0.0118697
0.0106325
0.00884662
0.00645432
0.00347633
0.000384738
0.00032752
0.00338575
0.00691667
0.0094064
0.0112547
0.0127507
0.0138767
0.0146683
0.0152375
0.0156994
0.0160899
0.0164118
0.0166391
0.0167488
0.0167086
0.0165363
0.0162678
0.0159063
0.0154478
0.0149438
0.0144361
0.0139149
0.0133689
0.0128005
0.0120788
0.0108633
0.0090957
0.00669876
0.00358027
0.000379996
0.000362312
0.00380454
0.00770001
0.0103578
0.0122016
0.0136481
0.0147302
0.0154418
0.0159464
0.0163461
0.0166994
0.0169949
0.0171935
0.0172508
0.01718
0.0169945
0.0167066
0.0163109
0.0158087
0.0152669
0.0147202
0.0141783
0.0136268
0.0130668
0.0123341
0.0111125
0.0093352
0.00690239
0.00366609
0.000383205
0.000400646
0.00425059
0.00841726
0.0112611
0.0131331
0.0145161
0.0155403
0.0161941
0.0165915
0.0169217
0.0172344
0.0175023
0.0176748
0.0177123
0.01764
0.0174578
0.0171578
0.016741
0.0162161
0.0156464
0.0150754
0.0145152
0.013952
0.0133844
0.0126198
0.0113618
0.0095518
0.00707606
0.00376544
0.000390547
0.000437847
0.00464844
0.00902197
0.0120485
0.0139958
0.0153336
0.0162971
0.0169157
0.0172059
0.0174379
0.0176936
0.0179347
0.0181026
0.018155
0.018092
0.0179127
0.0176125
0.0171894
0.0166614
0.0160832
0.0155004
0.0149248
0.014348
0.0137482
0.0129154
0.0116099
0.00975314
0.00722782
0.00385321
0.000398908
0.000469051
0.00496613
0.00950524
0.0126676
0.0147475
0.0160986
0.0170015
0.0176526
0.0178241
0.0179222
0.0181068
0.0183235
0.0185029
0.0185862
0.0185414
0.0183644
0.0180797
0.0176434
0.0171297
0.0165622
0.0159778
0.0153937
0.0148012
0.0141524
0.0132169
0.0118392
0.00993138
0.00736248
0.00394487
0.000408618
0.000499226
0.00520848
0.00984312
0.0131001
0.0153247
0.0167902
0.0176442
0.018403
0.0185107
0.0184406
0.0185254
0.0187055
0.0188901
0.0190029
0.0189807
0.0188131
0.0185302
0.0180861
0.0175954
0.0170505
0.0164726
0.0158839
0.0152686
0.0145422
0.0135025
0.0120314
0.0100554
0.00745519
0.00400491
0.000429354
0.000542475
0.00536827
0.010031
0.0133716
0.0157344
0.0173616
0.0182646
0.0190632
0.0192467
0.0190198
0.0189851
0.0191095
0.0192784
0.0194021
0.0194118
0.019262
0.0189816
0.0185266
0.0180417
0.0175095
0.0169312
0.0163387
0.0156794
0.0148476
0.0137123
0.0121404
0.0100914
0.00748536
0.00405335
0.000443883
0.000557831
0.00532123
0.0100298
0.0135122
0.0160316
0.0177952
0.0187994
0.0195653
0.019874
0.0196078
0.0194813
0.0195419
0.0196741
0.0197922
0.0198249
0.0197203
0.0194752
0.0190103
0.0185035
0.0179927
0.017426
0.0167836
0.0160189
0.0150555
0.0137935
0.012102
0.00995999
0.00725023
0.00389564
0.000462036
0.00054884
0.004938
0.00969987
0.0134854
0.016254
0.0181233
0.0191851
0.0198993
0.0202764
0.0201151
0.0199821
0.0199853
0.0200678
0.020172
0.0202248
0.0201737
0.0199723
0.0195129
0.0190362
0.0185207
0.0178712
0.0171043
0.0162255
0.0151473
0.0137514
0.0119162
0.00964711
0.00704933
0.00383659
0.000459698
0.000522882
0.00447348
0.00927688
0.0133537
0.0163772
0.0182868
0.0193666
0.0200169
0.0204103
0.0204899
0.0204472
0.0204078
0.0204366
0.0205247
0.0205988
0.0205954
0.0203996
0.0199546
0.0195128
0.0189263
0.0181804
0.017333
0.0163519
0.0151569
0.0136284
0.0116158
0.00939048
0.00694244
0.00378989
0.000446544
0.000495528
0.00424012
0.00910846
0.0133291
0.0163483
0.0182566
0.0194142
0.0201248
0.0205728
0.0208494
0.0209064
0.0208063
0.0207659
0.0208299
0.0209204
0.0209387
0.0207165
0.0203437
0.0198609
0.0191949
0.0183969
0.017484
0.0164128
0.0151095
0.0134606
0.011328
0.00914006
0.00675781
0.003689
0.000434866
0.000482186
0.00438305
0.00930458
0.0133889
0.0162476
0.0181194
0.0193785
0.0202168
0.020782
0.0213112
0.0213836
0.0212109
0.0210637
0.0210845
0.021175
0.0211805
0.0209688
0.0206129
0.0200693
0.0193601
0.0185334
0.0175709
0.0164266
0.0150353
0.0132958
0.0110858
0.00885226
0.00653161
0.00355769
0.00042551
0.000485807
0.0046514
0.00961426
0.0134923
0.0161752
0.0180217
0.0193452
0.0203276
0.0211149
0.0216462
0.0217362
0.0215543
0.0213415
0.0213145
0.0213832
0.0213563
0.0211592
0.0207721
0.0201913
0.0194689
0.0186199
0.0176226
0.0164314
0.0149795
0.0131816
0.010901
0.00856083
0.00627238
0.00340775
0.000415465
0.000506526
0.00500607
0.00983582
0.0135107
0.0161228
0.0179895
0.0193736
0.0204379
0.021198
0.02162
0.0217279
0.0216766
0.021545
0.0215119
0.0215618
0.0215103
0.0212847
0.0208579
0.0202724
0.0195529
0.0186968
0.0176831
0.0164697
0.0149941
0.0131758
0.0108619
0.00833123
0.00598212
0.003245
0.000402372
0.000527199
0.00520613
0.00992931
0.013512
0.0161012
0.0179512
0.0193105
0.0203107
0.0209573
0.0213021
0.0214611
0.0215068
0.0215343
0.0216126
0.021674
0.0216007
0.0213378
0.020908
0.0203381
0.0196292
0.0187773
0.0177668
0.016561
0.0150982
0.0132934
0.0110242
0.00829465
0.0056921
0.00304098
0.000387942
0.000554281
0.00516072
0.00987818
0.0134478
0.0159783
0.0177442
0.0189954
0.0198991
0.0205066
0.0208935
0.0211397
0.0212928
0.0214088
0.0215616
0.0216539
0.0215888
0.0213531
0.0209583
0.0204118
0.0197187
0.0188817
0.0178913
0.0167162
0.0152981
0.0135439
0.0113228
0.0085209
0.00551383
0.00280284
0.000369202
0.000564838
0.00521675
0.00984883
0.0132921
0.0156793
0.0173496
0.0185495
0.0194342
0.0200486
0.020482
0.0208016
0.0210319
0.0212146
0.0214186
0.0215565
0.0215512
0.0213771
0.0210283
0.0205137
0.0198479
0.0190408
0.0180874
0.0169579
0.0155951
0.0139032
0.011744
0.00895726
0.00550778
0.00243
0.000346598
0.000554417
0.00516717
0.00965148
0.0129328
0.0152423
0.0168676
0.0180394
0.0189199
0.019562
0.0200473
0.0204333
0.0207308
0.0209856
0.021258
0.0214724
0.0215399
0.0214281
0.0211285
0.0206589
0.0200403
0.0192836
0.0183853
0.0173142
0.0160166
0.0143858
0.0122534
0.00948651
0.00577312
0.00205368
0.000316707
0.000538644
0.00500589
0.00929753
0.0124364
0.0146734
0.0162718
0.0174439
0.0183406
0.0190354
0.0195867
0.0200383
0.0204067
0.0207556
0.0211218
0.0214236
0.0215576
0.0215116
0.0212714
0.0208687
0.0203231
0.0196519
0.0188291
0.0178172
0.0165703
0.0149823
0.0128925
0.0100934
0.00635313
0.00206477
0.000295448
0.000519689
0.00475203
0.00882261
0.0118237
0.0140032
0.0155963
0.0167944
0.0177325
0.0184928
0.0191219
0.0196364
0.0200856
0.0205472
0.0210216
0.0214071
0.0216135
0.0216295
0.0214746
0.0211752
0.0207482
0.0201883
0.0194783
0.0185146
0.0172783
0.0156592
0.0135977
0.0108696
0.00724335
0.00255827
0.000305666
0.000498334
0.00446435
0.0083016
0.0111714
0.0133012
0.0148999
0.0161369
0.017133
0.0179635
0.0186676
0.0192513
0.0198012
0.0203745
0.020965
0.0214206
0.0216936
0.0217979
0.0217611
0.0216105
0.0213604
0.0209915
0.0204206
0.0194669
0.0181244
0.0164562
0.0143809
0.011708
0.00818928
0.00355315
0.000344602
0.000475724
0.00417855
0.00778678
0.0105318
0.012615
0.0142221
0.0155014
0.0165593
0.0174613
0.0182369
0.0188938
0.0195605
0.0202652
0.0209451
0.0214527
0.0218062
0.0220275
0.0221474
0.0221947
0.022189
0.0221104
0.0217155
0.0206385
0.019164
0.0174057
0.0152556
0.0125497
0.00901966
0.00432329
0.00041438
0.000452986
0.00391049
0.00730257
0.0099286
0.0119662
0.0135806
0.0149005
0.016019
0.0169904
0.0178323
0.0185819
0.0193802
0.0202129
0.0209233
0.0214988
0.0219547
0.0223232
0.0226344
0.0229163
0.0231896
0.0233586
0.0230437
0.0219694
0.0204179
0.0185175
0.0162098
0.0133506
0.00971381
0.00491488
0.000485232
0.000430754
0.00366304
0.00685589
0.00937005
0.011364
0.0129839
0.0143404
0.0155156
0.0165492
0.0174642
0.0183426
0.019267
0.0201416
0.0209032
0.0215585
0.0221409
0.0226808
0.0232021
0.0237213
0.0242014
0.0244373
0.0240375
0.0232068
0.0217577
0.0197417
0.017218
0.0141182
0.0102524
0.00535287
0.000554167
0.000409127
0.00343503
0.00644723
0.0088586
0.0108142
0.012438
0.013828
0.0150529
0.0161473
0.0171619
0.0181674
0.0191597
0.020069
0.0208856
0.0216427
0.022372
0.0230928
0.0238145
0.0245222
0.0251143
0.025289
0.0247782
0.0240679
0.0228254
0.0208601
0.018169
0.0147841
0.0106583
0.00562277
0.000613095
0.000388094
0.00322609
0.00607928
0.00840061
0.0103249
0.0119533
0.0133765
0.014652
0.0158226
0.0169416
0.0180289
0.0190562
0.0199987
0.0208931
0.0217738
0.0226625
0.0235637
0.0244683
0.0253345
0.0260046
0.0260348
0.0254627
0.0246765
0.023473
0.0215952
0.0188537
0.0151831
0.0108039
0.00566133
0.000625702
0.000367513
0.00301805
0.00573853
0.00799203
0.00990498
0.0115513
0.0130188
0.0143613
0.0156114
0.016795
0.0179228
0.0189659
0.0199651
0.0209607
0.0219831
0.0230422
0.0241286
0.0252191
0.0262523
0.0269307
0.0266984
0.0260819
0.0252059
0.0239023
0.0219368
0.0190594
0.0151291
0.01046
0.00529387
0.000619257
0.000346608
0.00280031
0.00542135
0.00764735
0.00958003
0.0112736
0.0128077
0.0142233
0.0155261
0.0167302
0.0178551
0.018934
0.0200119
0.0211284
0.0223064
0.0235449
0.0248245
0.0261178
0.0272871
0.0277393
0.0272866
0.026627
0.0256569
0.0241773
0.0219586
0.0188111
0.0147716
0.0101486
0.00488346
0.00059659
0.00032535
0.00258215
0.00516352
0.00742281
0.00940815
0.0111752
0.0127827
0.0142452
0.0155631
0.0167457
0.0178756
0.0190057
0.0201795
0.0214295
0.0227703
0.0241949
0.025679
0.027176
0.0282871
0.0282999
0.0277908
0.0270926
0.0259774
0.0242181
0.0216916
0.018493
0.0146848
0.0100681
0.00467455
0.000569213
0.000304228
0.00240494
0.00502848
0.00738416
0.00944429
0.0112853
0.0129269
0.0143961
0.015691
0.0168703
0.0180208
0.0192147
0.0204933
0.0218814
0.0233886
0.0250067
0.0267057
0.0283013
0.0290015
0.0287114
0.0282056
0.0274198
0.0260752
0.0240607
0.0214067
0.0182708
0.0146073
0.010067
0.00481217
0.00055529
0.00028652
0.00233008
0.00508044
0.00756594
0.00968366
0.0115458
0.0131939
0.0146247
0.0159071
0.0171111
0.0183105
0.0195764
0.0209588
0.0224834
0.0241598
0.0259807
0.0278764
0.0292469
0.0293788
0.0290206
0.0285147
0.027566
0.0260047
0.023832
0.0211822
0.0181497
0.0146658
0.0103601
0.00520384
0.00055957
0.000281279
0.00238543
0.0052676
0.00785741
0.0100438
0.0119122
0.0135053
0.0149111
0.0162056
0.0174585
0.0187312
0.0200809
0.0215627
0.0232165
0.0250614
0.0270885
0.028991
0.0297821
0.0295637
0.0292589
0.0286811
0.0275734
0.0259385
0.0237887
0.0212263
0.0183402
0.0150071
0.010875
0.00572611
0.000573659
0.000284202
0.00252082
0.00558687
0.00829141
0.0104626
0.0122827
0.0138445
0.0152469
0.0165744
0.0178908
0.0192467
0.0206872
0.0222641
0.0240337
0.0260324
0.0281726
0.0297407
0.0299583
0.0297401
0.0294553
0.0288042
0.0276731
0.0260583
0.0240102
0.0215957
0.0187917
0.0154928
0.0113735
0.00604736
0.000587383
0.000295836
0.00279112
0.00596803
0.00869832
0.0108631
0.0126582
0.0142078
0.0156263
0.0169981
0.0183801
0.0198162
0.0213441
0.0230081
0.0248698
0.0269751
0.0290496
0.030133
0.030112
0.0299412
0.0296877
0.0290556
0.0279546
0.0264173
0.024481
0.022141
0.0193502
0.0159629
0.0116811
0.00614023
0.000595005
0.000312668
0.00301068
0.00630373
0.00908128
0.0112516
0.013043
0.0146026
0.0160506
0.0174657
0.0189024
0.0204038
0.0220046
0.0237422
0.025672
0.027796
0.0296298
0.0302819
0.0302437
0.0301768
0.0299487
0.0293727
0.0283555
0.0269191
0.0250619
0.0227419
0.0198891
0.0163585
0.0118634
0.0061479
0.00060014
0.00032716
0.00318771
0.00661027
0.00944387
0.0116463
0.0134592
0.0150425
0.0165183
0.0179656
0.0194391
0.0209835
0.0226315
0.0244156
0.0263786
0.0284365
0.0299818
0.0304089
0.030394
0.0304063
0.0303083
0.0298367
0.0289308
0.0275316
0.0256587
0.0233123
0.0203872
0.0167125
0.012017
0.00613944
0.000606502
0.000340386
0.00334029
0.00689144
0.00980385
0.0120644
0.0139176
0.0155273
0.01702
0.0184825
0.0199753
0.0215409
0.0232097
0.0250089
0.026959
0.0288811
0.0301318
0.0304596
0.0304979
0.0305917
0.0305805
0.0302592
0.0294821
0.0281557
0.0262907
0.023905
0.0208924
0.0170779
0.0122043
0.00618153
0.000614999
0.000354334
0.00349565
0.00717005
0.0101783
0.0125131
0.0144125
0.0160423
0.0175372
0.0190014
0.0205012
0.022072
0.0237376
0.0255154
0.0274058
0.0291789
0.0302383
0.0304693
0.0305496
0.030683
0.0307601
0.0305987
0.0299992
0.0288306
0.0270393
0.0246121
0.0214919
0.0175156
0.0124439
0.00623501
0.000624015
0.000368601
0.00365634
0.00747391
0.0105764
0.0129792
0.0149198
0.0165687
0.0180623
0.0195157
0.0210114
0.022579
0.0242229
0.0259471
0.0277428
0.0293943
0.0303135
0.0304907
0.0306277
0.0308339
0.0309667
0.0308538
0.0303487
0.0293326
0.0277331
0.0254287
0.0222322
0.0180571
0.0126954
0.0062492
0.000628409
0.000382961
0.00380914
0.00778189
0.0109779
0.0134458
0.0154253
0.0170998
0.0186027
0.020044
0.0215179
0.0230654
0.0246714
0.0263256
0.0280199
0.0295765
0.0304168
0.0305697
0.0307455
0.0309986
0.0311687
0.0310598
0.0305353
0.0295449
0.0280624
0.0259834
0.0230005
0.0187202
0.0130156
0.00633233
0.000640776
0.000398951
0.00398192
0.00809091
0.0113737
0.0139045
0.0159242
0.017625
0.0191422
0.0205806
0.0220339
0.0235445
0.0250972
0.0266736
0.0282749
0.0297641
0.0305539
0.0306869
0.0308754
0.0311297
0.0312752
0.0311699
0.0306441
0.0296553
0.0281773
0.0261537
0.0233695
0.0193369
0.0135954
0.00660157
0.000655865
0.000413211
0.00419778
0.008413
0.0117634
0.0143505
0.0164117
0.0181408
0.0196759
0.0211223
0.0225632
0.0240319
0.0255229
0.0270264
0.0285462
0.0299717
0.0307097
0.0308202
0.0309935
0.0312148
0.0313257
0.0311731
0.0306571
0.0297082
0.0282596
0.0262244
0.0234783
0.0196493
0.0141497
0.0069443
0.000685996
0.000423287
0.00438016
0.00870948
0.0121366
0.0147864
0.0168949
0.0186582
0.0202177
0.0216774
0.0231076
0.0245382
0.0259729
0.027409
0.0288498
0.0302046
0.0308696
0.030954
0.0310903
0.0312574
0.0313134
0.0311387
0.0306383
0.0297377
0.0283391
0.0263186
0.0235464
0.0197451
0.014362
0.00716735
0.00071411
0.000431712
0.00449073
0.00895184
0.0124808
0.0152089
0.0173744
0.0191782
0.0207644
0.0222341
0.0236521
0.0250529
0.0264469
0.0278338
0.0292149
0.0304681
0.031026
0.031089
0.0311762
0.0312802
0.0312841
0.0310872
0.0306121
0.0297749
0.0284431
0.0264466
0.0236323
0.0197352
0.0143273
0.00727579
0.000727608
0.00043956
0.00457421
0.00915883
0.0127958
0.0156092
0.017837
0.0196836
0.0212951
0.0227723
0.0241805
0.0255593
0.0269286
0.028295
0.0296493
0.0307582
0.031187
0.0312318
0.0312664
0.0313104
0.031269
0.0310594
0.0306132
0.0298389
0.0285699
0.0265855
0.0237138
0.0196865
0.0141909
0.00723756
0.000728135
0.000447357
0.00466348
0.00935599
0.0130915
0.015987
0.0182764
0.0201653
0.0218009
0.0232847
0.0246846
0.0260455
0.0274044
0.0287838
0.0300819
0.0310071
0.0313446
0.0313804
0.0313712
0.0313655
0.0312916
0.0310743
0.0306536
0.0299382
0.0287161
0.0267233
0.0237728
0.0196165
0.0140459
0.00714601
0.000725271
0.000455102
0.00476378
0.0095524
0.0133752
0.0163452
0.0186925
0.0206216
0.0222791
0.023768
0.025158
0.0265016
0.0278488
0.0292275
0.0304269
0.0311874
0.0314891
0.0315215
0.0314885
0.0314513
0.0313558
0.031135
0.0307315
0.030056
0.028861
0.0268512
0.0238317
0.0195816
0.0139642
0.0070804
0.000722636
0.000462411
0.00486024
0.00973581
0.0136397
0.0166799
0.0190828
0.0210497
0.0227273
0.0242193
0.0255948
0.0269162
0.028242
0.0295696
0.0306754
0.031352
0.0316209
0.0316468
0.03161
0.0315589
0.0314521
0.0312279
0.0308331
0.0301796
0.0289939
0.026968
0.0239113
0.0196125
0.0139698
0.00708327
0.00072166
0.000469156
0.0049424
0.00989415
0.0138743
0.016982
0.0194387
0.0214428
0.0231409
0.0246346
0.0260006
0.0273002
0.0285815
0.0298418
0.0308877
0.0315091
0.031736
0.031757
0.0317284
0.0316754
0.0315617
0.0313326
0.0309408
0.0302861
0.0290994
0.0270655
0.0240135
0.0196917
0.0140148
0.00710853
0.000725736
0.000475508
0.00501131
0.0100293
0.0140811
0.0172539
0.0197633
0.0218032
0.0235211
0.0250226
0.0263835
0.0276592
0.0288902
0.0300798
0.0310745
0.0316545
0.0318422
0.0318631
0.0318434
0.0317892
0.0316664
0.0314248
0.0310272
0.0303659
0.0291656
0.0271228
0.0240949
0.0197977
0.0141233
0.00718055
0.000734347
0.000481822
0.00506927
0.0101488
0.01427
0.017507
0.0200681
0.0221427
0.0238781
0.0253837
0.0267393
0.0279971
0.0291853
0.0303053
0.0312467
0.0317967
0.0319612
0.031979
0.0319573
0.031892
0.0317485
0.031487
0.0310692
0.0304022
0.0291892
0.0271303
0.0241126
0.0198917
0.0143252
0.00734133
0.000732562
0.000488155
0.00512341
0.010263
0.0144529
0.0177534
0.0203653
0.0224733
0.0242218
0.0257214
0.0270615
0.0283013
0.0294594
0.0305238
0.0314152
0.0319485
0.0320986
0.0321057
0.0320674
0.0319754
0.031799
0.0315029
0.0310558
0.0303841
0.0291628
0.0270756
0.0240512
0.0199192
0.0144561
0.00743721
0.000722201
0.000494681
0.00517839
0.0103807
0.0146403
0.0180011
0.0206609
0.0228014
0.0245567
0.0260319
0.0273447
0.0285616
0.0296965
0.0307258
0.0315812
0.0321058
0.0322464
0.0322337
0.0321644
0.0320352
0.0318146
0.0314728
0.0309886
0.0303045
0.0290759
0.0269557
0.0239098
0.0198106
0.014364
0.00735363
0.000708068
0.00050165
0.00523827
0.0105094
0.0148395
0.0182458
0.0209428
0.0231119
0.0248542
0.0263064
0.0275923
0.0287781
0.0298896
0.0308976
0.0317349
0.0322573
0.0323879
0.0323485
0.0322419
0.0320691
0.031799
0.0314052
0.0308759
0.0301625
0.0289165
0.0267641
0.0236804
0.0195616
0.0141166
0.00720597
0.000696421
0.000509374
0.00530129
0.010642
0.0150335
0.018462
0.0211506
0.023305
0.0250533
0.0265355
0.0278311
0.028988
0.0300499
0.0310314
0.0318608
0.0323827
0.0325052
0.0324403
0.0322973
0.032079
0.031758
0.0313109
0.0307276
0.0299616
0.0286866
0.0265031
0.0233637
0.0192219
0.0138226
0.00704826
0.000685499
0.000517194
0.00532924
0.0106961
0.0151057
0.0185691
0.021287
0.0234705
0.0252671
0.0267816
0.0280762
0.0292091
0.0302297
0.0311502
0.0319315
0.0324567
0.0325856
0.0325061
0.0323323
0.0320667
0.0316981
0.0312001
0.0305576
0.0297222
0.028386
0.0261531
0.022969
0.0188417
0.0135254
0.00689537
0.000673587
0.000515638
0.00536392
0.0107324
0.0151722
0.0186987
0.0214797
0.0237085
0.0255349
0.0270621
0.0283548
0.0294661
0.0304344
0.0312735
0.0319721
0.0324852
0.0326423
0.0325558
0.0323513
0.03204
0.0316309
0.0310897
0.0303917
0.0294644
0.0280067
0.0256968
0.0225145
0.0184656
0.0132633
0.00674979
0.000657681
0.000513713
0.00541962
0.0108467
0.0153271
0.0188924
0.0217185
0.0239864
0.0258373
0.0273665
0.0286469
0.0297292
0.0306385
0.0313972
0.0320158
0.0325019
0.0327011
0.0326053
0.0323652
0.0320216
0.0315786
0.0309927
0.030235
0.0291686
0.0275263
0.025122
0.0220235
0.0181568
0.0131068
0.00658952
0.000653116
0.000521401
0.00547987
0.0109877
0.0155136
0.0191159
0.0219803
0.0242799
0.0261499
0.0276866
0.0289488
0.029989
0.0308369
0.0315215
0.0320697
0.0325145
0.0327594
0.0326698
0.0324024
0.0320482
0.0315742
0.0309243
0.0300608
0.028793
0.0269652
0.0245889
0.0216384
0.0179007
0.0130127
0.00661784
0.000668348
0.000532025
0.00554535
0.0111368
0.0157255
0.0193767
0.0222789
0.0246019
0.0264826
0.028016
0.0292564
0.0302381
0.0310277
0.031644
0.0321257
0.0325127
0.0327957
0.0327442
0.0324759
0.032125
0.0316267
0.0309032
0.0298869
0.0284403
0.0265725
0.0242532
0.021324
0.0175682
0.0127166
0.0065035
0.00067461
0.000544002
0.00563609
0.0113237
0.0159918
0.0197029
0.0226363
0.0249602
0.0268337
0.0283479
0.0295392
0.0304748
0.0311977
0.0317558
0.0321782
0.0325098
0.0327836
0.0327755
0.0325299
0.0321886
0.0316744
0.0308836
0.0297305
0.028186
0.0262808
0.0239401
0.0210097
0.0172802
0.0124995
0.0064411
0.000669686
0.000558436
0.00576364
0.0115836
0.0163323
0.0200971
0.0230342
0.0253156
0.027154
0.0286239
0.0297602
0.0306481
0.0313356
0.0318482
0.0322193
0.032499
0.0327139
0.0327307
0.0325067
0.0321541
0.0316093
0.0307657
0.0295333
0.0279337
0.025991
0.0236371
0.0207362
0.0170835
0.0124011
0.00641813
0.000654833
0.000576673
0.00594105
0.0119028
0.0166777
0.0204431
0.023361
0.025608
0.0273978
0.0288069
0.0299135
0.0307819
0.0314404
0.0319105
0.0322391
0.0324632
0.0326088
0.0326229
0.032386
0.0320067
0.031428
0.0305468
0.0292738
0.0276412
0.0256793
0.0233254
0.0204583
0.0168636
0.0122268
0.00629829
0.000634099
0.00059886
0.00608957
0.0120497
0.0168445
0.020676
0.0235962
0.0258226
0.0275674
0.0289459
0.0300284
0.0308652
0.031497
0.0319374
0.0322317
0.0324129
0.0325048
0.0325049
0.0322499
0.0318121
0.0311771
0.0302615
0.0289793
0.0273223
0.0253407
0.0229761
0.0201017
0.0164982
0.0118754
0.00607626
0.000613505
0.000611773
0.00611113
0.0120594
0.0168922
0.0207605
0.0237269
0.025965
0.0276788
0.0290376
0.0300997
0.0309105
0.0315078
0.0319227
0.0321967
0.0323523
0.0324209
0.032409
0.032151
0.0316831
0.0309914
0.0299986
0.0286984
0.0270146
0.0249957
0.0225927
0.0196749
0.0160409
0.0114572
0.00582505
0.000591907
0.000615753
0.0061425
0.0121136
0.0169532
0.0207864
0.023777
0.0260062
0.0276952
0.029036
0.0300888
0.0308874
0.0314672
0.0318672
0.0321327
0.0322823
0.0323499
0.0323237
0.032082
0.0315876
0.0307878
0.0297236
0.0284354
0.0267414
0.0246772
0.0222297
0.0192721
0.0156114
0.0110652
0.00556102
0.000568666
0.000616845
0.00621261
0.0121725
0.0169607
0.0207381
0.0236716
0.0258692
0.0275612
0.0289187
0.0299874
0.0307946
0.0313741
0.0317718
0.0320283
0.0321672
0.0322181
0.0321622
0.0318795
0.0313275
0.030465
0.0294032
0.0281247
0.0264622
0.0243952
0.0219388
0.0189767
0.0152939
0.0107358
0.00523939
0.000545396
0.00062103
0.00627186
0.0121711
0.0168384
0.0204928
0.0233558
0.0255771
0.0273522
0.0287601
0.0298449
0.030658
0.0312563
0.0316505
0.031895
0.0320119
0.03202
0.0319159
0.031539
0.0309103
0.030054
0.0290151
0.0277173
0.0260746
0.0240574
0.021642
0.0187288
0.0150987
0.0105321
0.00503053
0.000539921
0.000630925
0.00633278
0.0120499
0.0164978
0.0200118
0.022864
0.0252076
0.0271061
0.0285917
0.0297184
0.030564
0.0311415
0.0315398
0.0317659
0.0318468
0.0317822
0.031574
0.0311316
0.0305003
0.0296828
0.0286607
0.0273552
0.0256968
0.0236947
0.0213062
0.0184078
0.0148132
0.0103376
0.00501183
0.000535313
0.000621031
0.00601606
0.01156
0.0158756
0.019311
0.0222349
0.0247877
0.0268837
0.028508
0.0297272
0.0305753
0.0311437
0.0315036
0.0316816
0.0317
0.0315636
0.0312652
0.0308013
0.0301754
0.0293641
0.0283266
0.0269957
0.0253405
0.0233628
0.0210048
0.0181435
0.0145995
0.0102195
0.00501358
0.000517631
0.000611541
0.00489874
0.0106297
0.015206
0.0187572
0.0216982
0.0244006
0.0267461
0.028564
0.0299012
0.0308085
0.0313596
0.0316456
0.0317227
0.0316427
0.031413
0.0310478
0.0305761
0.029959
0.0291503
0.0280905
0.0267316
0.0250747
0.0231114
0.0207784
0.0179647
0.0144952
0.0102082
0.00506594
0.000520186
0.000575517
0.00442789
0.010173
0.014778
0.018404
0.0214321
0.0241823
0.0266658
0.0286565
0.0301389
0.0311708
0.0317732
0.0320236
0.0319864
0.0317578
0.0314082
0.0309605
0.0304724
0.0298593
0.0290412
0.0279673
0.0266
0.02495
0.0230064
0.0207123
0.0179628
0.0145888
0.0104002
0.00522985
0.000532338
0.000569889
0.00473307
0.010276
0.014665
0.0181668
0.0211777
0.0239684
0.0265359
0.028623
0.0302215
0.0313926
0.0321794
0.0325396
0.0324882
0.0321343
0.0316319
0.0310686
0.0304876
0.0298562
0.0290349
0.0279503
0.0265846
0.0249563
0.0230484
0.0208064
0.0181228
0.014829
0.0106839
0.00541882
0.000529703
0.000590421
0.00513641
0.0106584
0.0150467
0.0184317
0.0213118
0.0239459
0.0263692
0.0284293
0.0300795
0.0313711
0.0323578
0.0329563
0.0330793
0.0327624
0.0321502
0.031446
0.0307316
0.030008
0.0291451
0.0280414
0.0266814
0.0250842
0.0232219
0.021025
0.0183692
0.015061
0.0108469
0.00550758
0.0005247
0.000614383
0.00551129
0.0111758
0.0156262
0.0189911
0.0217825
0.0242535
0.0264714
0.0283801
0.0299597
0.0312515
0.0323115
0.0331339
0.03356
0.0334789
0.0329394
0.0321352
0.0312761
0.030398
0.0294473
0.0282966
0.0269232
0.0253348
0.0234875
0.0212855
0.0185922
0.0152209
0.0109155
0.00551529
0.000524084
0.000634936
0.00585058
0.0117098
0.0162572
0.0196772
0.0224373
0.0247848
0.0268147
0.0285416
0.0299868
0.0312002
0.0322315
0.0331015
0.0337774
0.0340484
0.0337955
0.0330903
0.0321191
0.0310807
0.029994
0.0287659
0.0273508
0.0257329
0.0238443
0.0215793
0.0188079
0.0153451
0.0109419
0.00546204
0.000526681
0.00065109
0.00613914
0.0121852
0.0168544
0.0203563
0.023114
0.0253776
0.0272962
0.0288918
0.0301931
0.0312876
0.0322325
0.0330689
0.0337944
0.0343441
0.0344727
0.0340638
0.0331856
0.0320276
0.0307922
0.0294563
0.027969
0.0262735
0.0242915
0.0219269
0.0190531
0.0154786
0.010948
0.00531796
0.00052932
0.000663379
0.006372
0.0125889
0.017386
0.0209954
0.0238006
0.0260522
0.0278715
0.0293454
0.0305513
0.0315272
0.0323686
0.0331293
0.0338361
0.0344463
0.0348595
0.0348166
0.0342256
0.0331352
0.031787
0.0303369
0.0287422
0.0269322
0.0248249
0.0223391
0.0193398
0.0156377
0.0109712
0.0052384
0.000540673
0.000672579
0.00655075
0.0129181
0.0178466
0.0215634
0.0244314
0.026697
0.0284956
0.0299085
0.0310092
0.0318986
0.0326461
0.0333241
0.0339764
0.0345928
0.0350818
0.0353111
0.0350571
0.0342075
0.0328716
0.0313352
0.0296304
0.0276859
0.0254336
0.0228007
0.0196489
0.0158485
0.011167
0.00552569
0.000576429
0.00068038
0.00666527
0.0131739
0.0182396
0.0220645
0.0250065
0.0273093
0.0291144
0.0305043
0.0315509
0.032384
0.0330501
0.0336546
0.0342456
0.0348332
0.0353556
0.0356809
0.0356733
0.0351051
0.0339056
0.0323314
0.0305402
0.0284832
0.0260819
0.0232941
0.0200597
0.0162353
0.0115507
0.0058413
0.000590135
0.000687033
0.00674842
0.0133797
0.0185814
0.0225166
0.0255416
0.0278957
0.029728
0.031125
0.0321579
0.0329091
0.0335515
0.0341003
0.0346324
0.0351725
0.0356851
0.0360703
0.0361701
0.0358004
0.0348015
0.0332673
0.031393
0.0292412
0.0267449
0.0238649
0.0205676
0.0166443
0.0117938
0.00587866
0.000592926
0.000692954
0.00681756
0.0135556
0.0188845
0.0229369
0.0260556
0.028472
0.0303447
0.0317656
0.032804
0.0335483
0.0341166
0.0346435
0.0351166
0.0355983
0.0360692
0.0364476
0.0365951
0.0363824
0.0355981
0.0341673
0.0322366
0.029974
0.0273873
0.0244535
0.0211038
0.0170726
0.0120581
0.0059484
0.000613749
0.000698423
0.00688114
0.0137157
0.0191666
0.0233437
0.0265655
0.0290567
0.0309777
0.0324317
0.0334885
0.0342267
0.0347476
0.0352529
0.0356818
0.0361052
0.0365272
0.0368879
0.0370784
0.0369561
0.0363504
0.0350418
0.0330844
0.0307373
0.0280857
0.0251129
0.0217292
0.0176317
0.0125392
0.00627401
0.000648962
0.000703658
0.00694397
0.0138675
0.0194378
0.0237448
0.0270816
0.0296581
0.0316374
0.0331304
0.0342126
0.034957
0.0354677
0.0358975
0.0363061
0.0366851
0.0370613
0.0374007
0.0376091
0.0375448
0.0370634
0.0358784
0.0339188
0.0315093
0.0288343
0.0258594
0.0224756
0.0183788
0.0132407
0.00675075
0.00065628
0.000708645
0.0070054
0.0140093
0.0196998
0.0241434
0.0276041
0.0302772
0.0323253
0.0338648
0.0349761
0.035731
0.036227
0.0366169
0.036955