/*--------------------------------*- C++ -*----------------------------------*\
| =========                 |                                                 |
| \\      /  F ield         | OpenFOAM: The Open Source CFD Toolbox           |
|  \\    /   O peration     | Version:  2.3.0                                 |
|   \\  /    A nd           | Web:      www.OpenFOAM.org                      |
|    \\/     M anipulation  |                                                 |
\*---------------------------------------------------------------------------*/
FoamFile
{
    version     2.0;
    format      ascii;
    class       volScalarField;
    location    "0.246";
    object      p;
}
// * * * * * * * * * * * * * * * * * * * * * * * * * * * * * * * * * * * * * //

dimensions      [1 -1 -2 0 0 0 0];

internalField   nonuniform List<scalar> 
545
(
-8.13991e+07
-1.49043e+07
-1.8978e+06
-2.5255e+06
-8.63293e+06
5.8772e+07
-2.93748e+06
-2.26529e+06
-2.42417e+06
-6.99399e+06
1.02107e+08
3.78383e+06
-254411
-310670
-7.34312e+06
5.9285e+07
-3.12304e+06
-1.78836e+06
-30327.2
-6.54471e+06
-9.3683e+07
-2.27239e+06
-351920
4.41369e+06
1.20476e+07
-7.12331e+06
-1.77471e+06
-654010
13529.5
154093
172921
153258
138806
130688
124827
120105
114599
109802
104475
100265
95683.7
92155.7
88001.7
84834
80747.9
77541.9
73400.7
69994
65637.9
62257.8
57930.2
54815.2
50821.8
48039.7
44362.6
41924
38241.2
35897.7
32324.4
30016.9
26510.4
24283.8
20923.4
18870.8
15525.3
13738.6
10347.7
8542.3
5277.84
3553.12
-6.2556e+06
-1.07245e+06
-621645
-117169
40938.6
113109
127437
130081
128137
124515
119972
114824
109659
104723
100098
95957.1
91999.9
88291.6
84640.7
81057.2
77340.1
73717.3
69778.3
65964.5
62024.8
58228.1
54529.4
51140.1
47746.5
44660.2
41673
38563.9
35636.9
32672.5
29733.9
26849.4
23952.3
21233.3
18545.1
15795.7
13413.4
10658.3
8113.28
5247.45
1583.51
-7.36115e+06
-478575
-335245
-2706.08
74704.4
121744
127765
128723
127574
123914
119988
114496
109836
104497
100329
95769.7
92282.9
88064.8
84896.9
80808
77587.7
73492.6
70050.8
65729.1
62320.4
57935.1
54786
50859.3
48023.7
44364.1
42029.4
38256.5
35976.3
32375.7
30061.1
26513
24237.6
20872.7
18859.7
15425.6
13777.4
10270
8331.95
4969.92
2843.65
-7.78546e+06
718381
254001
220147
155120
150690
135124
129434
127446
123382
119910
114192
109910
104375
100443
95724.6
92449.4
87959.2
84983.4
80697.5
77636.6
73456.5
70123
65683.6
62436.7
57815.1
54822.5
50803.2
48050.4
44309.5
42171.5
38167.8
36085
32304.1
30148.6
26405.7
24227.5
20789.1
18894.9
15297.3
13917
10090.4
8329.97
4486.69
1328.26
-1.63573e+06
3.49073e+06
1.28917e+06
474734
207359
155395
133198
126479
126860
122452
120150
113526
110365
103934
100892
95368
93024
87445.5
85479.3
80169.8
78028.8
73093.8
70570.3
65230.6
63048.4
57203.1
55327.4
50308.5
48527.5
43727.9
42934.2
37467.6
36795.6
31662
30843.1
25713.6
24750.2
20148.6
19529.1
14448.1
14803.9
9239.61
8943.57
4104.23
3242.29
-1.35098e+07
4.9551e+06
2.14023e+06
654703
223416
155944
132001
129904
128767
123919
119074
116479
112380
107944
104234
99493.6
93566.2
88621.8
87208.1
84330.3
81410.2
75983.9
74053.1
69332.9
62492.5
58395.9
55454.8
55291.1
52661.9
47817.3
43865.8
43095.9
38975.3
33423.5
29698
26906.1
24514.8
24898.7
23743.3
22138.9
16894
17026.6
13047.9
8852.29
1070.29
-9.36801e+07
-2.26984e+06
-350552
4.41366e+06
1.20468e+07
5.92878e+07
-3.12058e+06
-1.7868e+06
-30145.3
-6.54551e+06
1.0211e+08
3.78608e+06
-252692
-310119
-7.34363e+06
5.87746e+07
-2.93545e+06
-2.26344e+06
-2.4231e+06
-6.99406e+06
-8.13966e+07
-1.49024e+07
-1.8959e+06
-2.52395e+06
-8.63277e+06
-1.63741e+06
3.49175e+06
1.28771e+06
475972
205507
156554
131663
127924
125316
123872
118300
114976
108773
105532
99366.4
97026.9
91428.6
89261.8
83878.9
81804.3
76374.2
74739.4
68896.6
66894.8
61255.5
59061
53574.4
51995.4
46869.2
45477.6
41238.4
39204
35080.2
33527.1
28949.7
27637
22925.6
21887.2
17879
16121.5
13127
10924.9
7289.14
5967.62
1538.53
-7.78687e+06
718586
252897
220328
153528
150937
134135
130183
126430
123894
118607
114810
108983
105310
99695.6
96753.4
91673.3
89047.3
84147.8
81604.6
76697.7
74346.3
69171.7
66589.8
61454.4
58864.9
53894
51773.5
47173.1
45327.2
41261.5
39156.4
35157.1
33344.9
29122.3
27482.1
23257
21784.6
17993.7
16241.7
12973.6
11039
7413.71
5531.38
371.135
-7.36203e+06
-479158
-336226
-3573.99
73334.1
121267
127291
128831
126973
123604
119129
114399
109481
104861
100265
96263.1
92217.5
88532.5
84711.8
81085.8
77270.5
73722.8
69728.2
65982.2
62033.5
58305.2
54562.5
51218.7
47832.8
44743.3
41806.8
38594.1
35728.3
32712.1
29765.9
26880.6
23990.9
21231.1
18627.5
15733.2
13488
10551
8037.71
5315.74
2624.13
-6.25624e+06
-1.07341e+06
-622981
-118687
39476.3
112360
127165
129943
127586
123796
119164
114411
109479
104899
100303
96305.5
92219.4
88564
84695.7
81120
77235.4
73708.6
69667.7
65991.9
61985.3
58364.1
54568.6
51306.4
47810.3
44828
41701.4
38684
35625.5
32765.9
29702.3
26973
23972.2
21377.3
18561.2
15892.7
13358.3
10682.1
8016.02
5336.23
1586.15
-7.12394e+06
-1.77588e+06
-655663
11673.3
152562
172121
153054
138575
130101
123934
119252
114060
109640
104597
100550
96015.9
92472.6
88239.1
84961.7
80765
77492.2
73327.9
69934.9
65605.8
62285.5
58005.6
54927
50950.5
48176.6
44482.4
42022.8
38311.4
35950.1
32357.4
30061.4
26575.3
24373.1
21021.8
18951.4
15582.8
13735.5
10301.4
8471.05
5302.27
3654.53
)
;

boundaryField
{
    AirInlet
    {
        type            calculated;
        value           uniform -1.35063e+07;
    }
    WaterInlet
    {
        type            calculated;
        value           nonuniform List<scalar> 10(-8.13991e+07 5.8772e+07 1.02107e+08 5.9285e+07 -9.3683e+07 -9.36801e+07 5.92878e+07 1.0211e+08 5.87746e+07 -8.13966e+07);
    }
    ChannelWall
    {
        type            calculated;
        value           nonuniform List<scalar> 
110
(
-9.3683e+07
-2.27239e+06
-351920
4.41369e+06
1.20476e+07
-9.36801e+07
-2.26984e+06
-350552
4.41366e+06
1.20468e+07
-8.13966e+07
-1.49024e+07
-1.8959e+06
-2.52395e+06
-8.63277e+06
-7.12394e+06
-1.77588e+06
-655663
11673.2
152562
172121
153054
138575
130101
123934
119252
114060
109639
104597
100550
96015.8
92472.5
88239
84961.6
80764.9
77492.2
73327.8
69934.9
65605.8
62285.5
58005.6
54926.9
50950.4
48176.6
44482.4
42022.8
38311.3
35950.1
32357.3
30061.3
26575.3
24373.1
21021.8
18951.3
15582.8
13735.5
10301.3
8471.01
5302.23
3654.49
-8.13991e+07
-1.49043e+07
-1.8978e+06
-2.5255e+06
-8.63293e+06
-7.12331e+06
-1.77471e+06
-654010
13529.5
154093
172921
153259
138806
130688
124827
120105
114599
109802
104475
100265
95683.7
92155.7
88001.8
84834.1
80747.9
77541.9
73400.7
69994.1
65638
62257.8
57930.2
54815.3
50821.8
48039.8
44362.7
41924.1
38241.2
35897.8
32324.4
30016.9
26510.4
24283.9
20923.4
18870.8
15525.3
13738.7
10347.8
8542.35
5277.88
3553.16
)
;
    }
    Outlet
    {
        type            calculated;
        value           nonuniform List<scalar> 
11
(
-0.044145
-0.132435
-0.220725
-0.308996
-0.395466
-0.436436
-0.580973
-0.671943
-0.760274
-0.848565
-0.936855
)
;
    }
    FrontAndBack
    {
        type            empty;
    }
}


// ************************************************************************* //
