/*--------------------------------*- C++ -*----------------------------------*\
| =========                 |                                                 |
| \\      /  F ield         | OpenFOAM: The Open Source CFD Toolbox           |
|  \\    /   O peration     | Version:  2.3.0                                 |
|   \\  /    A nd           | Web:      www.OpenFOAM.org                      |
|    \\/     M anipulation  |                                                 |
\*---------------------------------------------------------------------------*/
FoamFile
{
    version     2.0;
    format      ascii;
    class       surfaceScalarField;
    location    "0.246";
    object      phi;
}
// * * * * * * * * * * * * * * * * * * * * * * * * * * * * * * * * * * * * * //

dimensions      [0 3 -1 0 0 0 0];

internalField   nonuniform List<scalar> 
1024
(
2.4436e-12
5.64049e-14
2.54307e-12
-9.94755e-14
2.57773e-12
-3.46552e-14
2.61659e-12
-3.88642e-14
4.06293e-14
2.57596e-12
2.57498e-12
-1.85767e-14
2.55788e-12
-8.23704e-14
2.56175e-12
-3.85334e-14
2.58246e-12
-5.95648e-14
6.84678e-14
2.55462e-12
2.59533e-12
-1.13911e-13
2.53626e-12
-2.32959e-14
2.52363e-12
-2.59083e-14
2.53771e-12
-7.36438e-14
9.26434e-14
2.51354e-12
2.52427e-12
-1.38181e-13
2.46625e-12
3.47205e-14
2.46024e-12
-1.98927e-14
2.46269e-12
-7.60931e-14
1.00772e-13
2.45456e-12
2.36182e-12
2.39654e-12
2.37665e-12
2.30055e-12
2.40133e-12
2.36943e-12
2.06533e-13
2.32346e-12
4.5967e-14
2.32279e-12
6.68741e-16
2.33093e-12
-8.14012e-15
2.33622e-12
-5.2882e-15
2.33877e-12
-2.55328e-15
2.33969e-12
-9.16422e-16
2.33996e-12
-2.71836e-16
2.34001e-12
-5.07372e-17
2.34002e-12
-5.85104e-18
2.34001e-12
8.81892e-18
2.34001e-12
-9.77307e-19
2.34e-12
6.54649e-18
2.34001e-12
-3.55185e-18
2.34e-12
6.38742e-18
2.34001e-12
-5.2556e-18
2.34e-12
6.04776e-18
2.34001e-12
-5.83819e-18
2.34e-12
5.54609e-18
2.34001e-12
-6.12635e-18
2.34e-12
6.65965e-18
2.34001e-12
-7.56988e-18
2.34e-12
6.921e-18
2.34001e-12
-6.59522e-18
2.34e-12
7.14586e-18
2.34001e-12
-6.55111e-18
2.34e-12
7.3824e-18
2.34001e-12
-7.18505e-18
2.34e-12
7.75168e-18
2.34001e-12
-7.97982e-18
2.34e-12
6.63345e-18
2.34001e-12
-6.59946e-18
2.34e-12
7.64461e-18
2.34001e-12
-6.927e-18
2.34e-12
8.30719e-18
2.34001e-12
-7.49247e-18
2.34e-12
8.73621e-18
2.34e-12
-8.31783e-18
2.34e-12
7.39508e-18
2.34001e-12
-8.21091e-18
2.34e-12
6.08782e-18
2.34001e-12
-6.51286e-18
2.34e-12
9.04481e-18
2.34e-12
-3.03527e-18
4.57363e-17
2.36404e-12
3.97107e-13
2.32448e-12
8.55257e-14
2.32692e-12
-1.76386e-15
2.33294e-12
-1.41622e-14
2.337e-12
-9.34993e-15
2.33895e-12
-4.50577e-15
2.33972e-12
-1.68181e-15
2.33994e-12
-4.94312e-16
2.34e-12
-1.11058e-16
2.34e-12
-3.73474e-18
2.34e-12
4.22335e-18
2.33999e-12
9.60904e-18
2.34e-12
-1.40749e-18
2.33999e-12
5.77483e-18
2.34e-12
-2.64194e-18
2.33999e-12
4.02607e-18
2.34e-12
-4.02092e-18
2.33999e-12
4.36856e-18
2.34e-12
-5.35998e-18
2.33999e-12
5.05795e-18
2.34e-12
-3.87546e-18
2.33999e-12
3.09027e-18
2.34e-12
-4.3121e-18
2.33999e-12
5.31703e-18
2.34e-12
-4.86763e-18
2.33999e-12
5.81403e-18
2.34e-12
-5.32241e-18
2.33999e-12
5.20008e-18
2.34e-12
-5.42244e-18
2.33999e-12
4.98057e-18
2.34e-12
-8.10871e-18
2.33999e-12
7.89373e-18
2.34e-12
-6.22468e-18
2.33999e-12
7.68274e-18
2.34e-12
-5.59635e-18
2.33999e-12
7.34283e-18
2.34e-12
-5.56478e-18
2.33999e-12
6.38824e-18
2.34e-12
-8.49204e-18
2.33999e-12
6.89806e-18
2.34001e-12
-1.14402e-17
2.33999e-12
1.04764e-17
2.34001e-12
-7.58412e-18
2.33999e-12
8.94226e-18
-2.93136e-17
2.34396e-12
5.6668e-13
2.32806e-12
1.01427e-13
2.33405e-12
-7.75148e-15
2.33743e-12
-1.75385e-14
2.33897e-12
-1.08932e-14
2.33967e-12
-5.20352e-15
2.33991e-12
-1.92263e-15
2.33998e-12
-5.68475e-16
2.34e-12
-1.23639e-16
2.34e-12
-1.00258e-17
2.34e-12
9.29547e-18
2.34e-12
4.83406e-18
2.34e-12
4.54063e-18
2.34e-12
-7.49556e-19
2.33999e-12
4.6151e-18
2.34e-12
-3.41073e-18
2.34e-12
3.0851e-18
2.34e-12
-3.35211e-18
2.34e-12
2.36677e-18
2.34e-12
-3.02537e-18
2.33999e-12
5.07768e-18
2.34e-12
-6.56042e-18
2.33999e-12
4.87629e-18
2.34e-12
-3.71639e-18
2.33999e-12
4.25221e-18
2.34e-12
-3.17701e-18
2.33999e-12
4.39471e-18
2.34e-12
-5.19146e-18
2.33999e-12
5.14796e-18
2.34e-12
-5.09492e-18
2.34e-12
5.33565e-19
2.34e-12
-1.23669e-18
2.33999e-12
3.77774e-18
2.34e-12
-2.25823e-18
2.33999e-12
5.01498e-18
2.34e-12
-3.13679e-18
2.33999e-12
6.07105e-18
2.34e-12
-4.8633e-18
2.33999e-12
1.65649e-18
2.34e-12
-3.06072e-18
2.33999e-12
-2.40394e-18
2.34e-12
2.57084e-19
2.33999e-12
4.77128e-18
2.34e-12
7.67467e-19
3.77718e-17
2.32081e-12
7.00427e-13
2.3364e-12
8.58413e-14
2.34444e-12
-1.57883e-14
2.34322e-12
-1.6322e-14
2.3415e-12
-9.17151e-15
2.34055e-12
-4.25778e-15
2.34017e-12
-1.54597e-15
2.34003e-12
-4.21877e-16
2.34001e-12
-1.0179e-16
2.33999e-12
6.64185e-18
2.34e-12
-4.11056e-18
2.33999e-12
1.7059e-17
2.34001e-12
-9.56734e-18
2.33999e-12
1.20697e-17
2.34001e-12
-8.69586e-18
2.33999e-12
9.86599e-18
2.34001e-12
-1.16681e-17
2.33999e-12
1.15491e-17
2.34001e-12
-1.26476e-17
2.33999e-12
1.23942e-17
2.34001e-12
-9.40056e-18
2.33999e-12
7.78683e-18
2.34001e-12
-1.04588e-17
2.33999e-12
1.20421e-17
2.34001e-12
-1.26483e-17
2.33999e-12
1.39563e-17
2.34001e-12
-1.22098e-17
2.33999e-12
1.16275e-17
2.34001e-12
-1.18289e-17
2.33999e-12
1.33547e-17
2.34001e-12
-1.94257e-17
2.33999e-12
1.85462e-17
2.34001e-12
-1.58542e-17
2.33999e-12
1.66463e-17
2.34001e-12
-1.44022e-17
2.33999e-12
1.6356e-17
2.34001e-12
-1.2725e-17
2.33999e-12
1.49959e-17
2.34001e-12
-1.86379e-17
2.33999e-12
1.91086e-17
2.34001e-12
-2.56688e-17
2.33999e-12
2.29354e-17
2.34001e-12
-1.75643e-17
2.34e-12
1.41317e-17
-4.09329e-17
2.31101e-12
7.90745e-13
2.35726e-12
3.95907e-14
2.35685e-12
-1.53783e-14
2.34886e-12
-8.33285e-15
2.34366e-12
-3.97479e-15
2.34123e-12
-1.82919e-15
2.34034e-12
-6.4901e-16
2.34006e-12
-1.41563e-16
2.34e-12
-4.648e-17
2.33999e-12
1.83632e-17
2.34e-12
-1.19858e-17
2.34e-12
1.86437e-17
2.34e-12
-1.38801e-17
2.34e-12
1.26505e-17
2.34e-12
-9.75822e-18
2.34e-12
1.02081e-17
2.34e-12
-1.29923e-17
2.34e-12
1.31674e-17
2.34e-12
-1.30073e-17
2.34e-12
1.23469e-17
2.34e-12
-7.80192e-18
2.34e-12
5.51772e-18
2.34e-12
-8.4366e-18
2.34e-12
1.0546e-17
2.34e-12
-1.30285e-17
2.34e-12
1.41306e-17
2.34e-12
-1.09347e-17
2.34e-12
8.89326e-18
2.34e-12
-9.31071e-18
2.34e-12
1.44919e-17
2.34e-12
-2.22279e-17
2.34e-12
2.10699e-17
2.34e-12
-1.77832e-17
2.34e-12
1.65501e-17
2.34e-12
-1.48992e-17
2.34e-12
1.49813e-17
2.34e-12
-1.06014e-17
2.34e-12
1.42182e-17
2.34e-12
-2.02602e-17
2.34e-12
2.58417e-17
2.34e-12
-3.14152e-17
2.34e-12
2.61389e-17
2.34e-12
-1.8472e-17
2.34e-12
1.45416e-17
1.58243e-17
2.58151e-12
-7.90766e-13
2.66066e-12
-3.95549e-14
2.62993e-12
1.53466e-14
2.61323e-12
8.36543e-15
2.60532e-12
3.94059e-15
2.60163e-12
1.86402e-15
2.60036e-12
6.15774e-16
2.60004e-12
1.76649e-16
2.59998e-12
1.09879e-17
2.59999e-12
1.7179e-17
2.6e-12
-2.51891e-17
2.6e-12
1.84793e-17
2.60001e-12
-2.2763e-17
2.6e-12
2.46502e-17
2.60001e-12
-2.76517e-17
2.6e-12
2.75239e-17
2.60001e-12
-2.52675e-17
2.6e-12
2.58307e-17
2.60001e-12
-2.58879e-17
2.6e-12
2.63011e-17
2.60002e-12
-3.13235e-17
2.59999e-12
3.37023e-17
2.60001e-12
-3.10055e-17
2.59999e-12
2.92219e-17
2.60001e-12
-2.73364e-17
2.6e-12
2.68589e-17
2.60002e-12
-2.99223e-17
2.59999e-12
3.14081e-17
2.60001e-12
-3.1073e-17
2.6e-12
2.62716e-17
2.6e-12
-1.86754e-17
2.6e-12
1.99012e-17
2.60001e-12
-2.34017e-17
2.6e-12
2.53225e-17
2.60001e-12
-2.7439e-17
2.6e-12
2.73672e-17
2.60002e-12
-3.16576e-17
2.60001e-12
2.73629e-17
2.60001e-12
-2.0935e-17
2.60002e-12
1.54101e-17
2.59999e-12
-1.01062e-17
2.60001e-12
1.4878e-17
2.60001e-12
-2.42522e-17
2.6e-12
2.22478e-17
-6.40677e-17
2.36182e-12
1.38181e-13
2.39654e-12
-3.47215e-14
2.37665e-12
1.98928e-14
2.30055e-12
7.60942e-14
-1.00775e-13
2.40133e-12
2.52427e-12
1.13911e-13
2.46625e-12
2.3295e-14
2.46024e-12
2.59094e-14
2.46268e-12
7.36477e-14
-9.2648e-14
2.45456e-12
2.59533e-12
1.85769e-14
2.53626e-12
8.23696e-14
2.52363e-12
3.85341e-14
2.53771e-12
5.95685e-14
-6.84717e-14
2.51354e-12
2.57498e-12
-5.64045e-14
2.55788e-12
9.94748e-14
2.56175e-12
3.46556e-14
2.58246e-12
3.88674e-14
-4.06309e-14
2.55461e-12
2.4436e-12
2.54307e-12
2.57773e-12
2.61659e-12
2.57596e-12
2.311e-12
-7.00432e-13
2.35727e-12
-8.58273e-14
2.35684e-12
1.5776e-14
2.34887e-12
1.63348e-14
2.34365e-12
9.15786e-15
2.34124e-12
4.27199e-15
2.34033e-12
1.53354e-15
2.34007e-12
4.35921e-16
2.33999e-12
8.74513e-17
2.34e-12
7.64854e-18
2.33999e-12
-1.13729e-17
2.34001e-12
-1.86793e-18
2.33999e-12
-5.09333e-18
2.34001e-12
3.05604e-18
2.33999e-12
-6.38251e-18
2.34001e-12
5.39626e-18
2.33999e-12
-4.00194e-18
2.34001e-12
4.53855e-18
2.33999e-12
-3.13293e-18
2.34001e-12
3.11357e-18
2.33999e-12
-6.42172e-18
2.34001e-12
7.98297e-18
2.33999e-12
-5.41047e-18
2.34001e-12
4.08256e-18
2.33999e-12
-3.97059e-18
2.34001e-12
3.0962e-18
2.33999e-12
-4.52897e-18
2.34001e-12
4.49783e-18
2.33999e-12
-4.30399e-18
2.34001e-12
3.03055e-18
2.33999e-12
2.98193e-18
2.34001e-12
-2.08982e-18
2.33999e-12
-7.79109e-19
2.34001e-12
6.25694e-19
2.33999e-12
-3.27883e-18
2.34001e-12
1.26013e-18
2.33999e-12
-4.67066e-18
2.34001e-12
1.66428e-18
2.33999e-12
2.39852e-18
2.34001e-12
-2.87266e-18
2.33999e-12
9.22442e-18
2.34001e-12
-6.79847e-18
2.33999e-12
6.12606e-19
2.34001e-12
2.11938e-18
2.39484e-17
2.32081e-12
-5.66684e-13
2.3364e-12
-1.01422e-13
2.34443e-12
7.74767e-15
2.34322e-12
1.7542e-14
2.34149e-12
1.08896e-14
2.34056e-12
5.20777e-15
2.34017e-12
1.92032e-15
2.34003e-12
5.72203e-16
2.34e-12
1.19761e-16
2.34e-12
1.35301e-17
2.34e-12
-1.36406e-17
2.34e-12
-7.55053e-19
2.34e-12
-8.25901e-18
2.34e-12
4.83601e-18
2.34e-12
-8.56574e-18
2.34e-12
7.40325e-18
2.34e-12
-7.2313e-18
2.34e-12
7.73714e-18
2.34e-12
-6.52512e-18
2.34e-12
7.04285e-18
2.34e-12
-9.32502e-18
2.34e-12
1.06926e-17
2.34e-12
-9.03507e-18
2.34e-12
7.95204e-18
2.34e-12
-8.67546e-18
2.34e-12
7.81169e-18
2.34e-12
-8.86437e-18
2.34e-12
9.3527e-18
2.34e-12
-9.35595e-18
2.34e-12
9.44403e-18
2.34e-12
-4.88559e-18
2.34e-12
5.55667e-18
2.34e-12
-8.11824e-18
2.34e-12
6.87206e-18
2.34e-12
-9.76544e-18
2.34e-12
7.81911e-18
2.34e-12
-1.07276e-17
2.34e-12
9.18228e-18
2.34e-12
-5.83961e-18
2.33999e-12
7.27872e-18
2.34e-12
-1.89517e-18
2.33999e-12
3.83207e-18
2.34e-12
-9.10608e-18
2.34e-12
3.95898e-18
-4.17169e-17
2.34396e-12
-3.97109e-13
2.32806e-12
-8.55248e-14
2.33405e-12
1.76317e-15
2.33743e-12
1.41624e-14
2.33897e-12
9.34962e-15
2.33967e-12
4.50714e-15
2.33991e-12
1.68253e-15
2.33998e-12
4.94931e-16
2.33999e-12
1.10344e-16
2.34e-12
3.87084e-18
2.34e-12
-5.09467e-18
2.34e-12
-8.91489e-18
2.33999e-12
9.40078e-19
2.34e-12
-5.00842e-18
2.33999e-12
2.02719e-18
2.34e-12
-3.3883e-18
2.33999e-12
3.42759e-18
2.34e-12
-3.63244e-18
2.33999e-12
4.71377e-18
2.34001e-12
-4.44386e-18
2.33999e-12
3.11226e-18
2.34001e-12
-2.44397e-18
2.33999e-12
3.65762e-18
2.34001e-12
-4.68553e-18
2.33999e-12
4.21574e-18
2.34001e-12
-5.06144e-18
2.33999e-12
4.58089e-18
2.34001e-12
-4.55777e-18
2.33999e-12
4.76726e-18
2.34001e-12
-4.26819e-18
2.33999e-12
7.39324e-18
2.34001e-12
-7.20262e-18
2.33999e-12
5.58285e-18
2.34001e-12
-6.97554e-18
2.33999e-12
4.85712e-18
2.34001e-12
-6.62634e-18
2.33999e-12
4.74315e-18
2.34001e-12
-5.62348e-18
2.33999e-12
7.73148e-18
2.34001e-12
-6.07225e-18
2.33999e-12
1.05738e-17
2.34001e-12
-9.67723e-18
2.33999e-12
6.62196e-18
2.34e-12
-7.54081e-18
3.0822e-17
2.36404e-12
-2.06534e-13
2.32448e-12
-4.59661e-14
2.32692e-12
-6.70574e-16
2.33294e-12
8.13976e-15
2.337e-12
5.28721e-15
2.33895e-12
2.55398e-15
2.33972e-12
9.18094e-16
2.33994e-12
2.72349e-16
2.34e-12
5.05881e-17
2.34e-12
5.11364e-18
2.34e-12
-9.35082e-18
2.33999e-12
9.11725e-19
2.34e-12
-6.28168e-18
2.33999e-12
3.76662e-18
2.34e-12
-6.21969e-18
2.33999e-12
5.29682e-18
2.34e-12
-5.90567e-18
2.33999e-12
5.89911e-18
2.34e-12
-5.5106e-18
2.33999e-12
6.00397e-18
2.34e-12
-6.73584e-18
2.33999e-12
7.46562e-18
2.34e-12
-6.90943e-18
2.33999e-12
6.52952e-18
2.34e-12
-7.08946e-18
2.33999e-12
6.5687e-18
2.34e-12
-7.32605e-18
2.33999e-12
7.12036e-18
2.34e-12
-7.67175e-18
2.33999e-12
7.97005e-18
2.34e-12
-6.59666e-18
2.33999e-12
6.56083e-18
2.34e-12
-7.62366e-18
2.33999e-12
6.86882e-18
2.34e-12
-8.28078e-18
2.33999e-12
7.41835e-18
2.34e-12
-8.63767e-18
2.33999e-12
8.21691e-18
2.34e-12
-7.28599e-18
2.33999e-12
8.12324e-18
2.34001e-12
-5.90899e-18
2.33999e-12
6.25976e-18
2.34001e-12
-9.23551e-18
2.33999e-12
3.38779e-18
-4.52722e-17
2.36943e-12
2.32346e-12
2.32279e-12
2.33093e-12
2.33622e-12
2.33877e-12
2.33969e-12
2.33996e-12
2.34001e-12
2.34002e-12
2.34001e-12
2.34001e-12
2.34e-12
2.34001e-12
2.34e-12
2.34001e-12
2.34e-12
2.34001e-12
2.34e-12
2.34001e-12
2.34e-12
2.34001e-12
2.34e-12
2.34001e-12
2.34e-12
2.34001e-12
2.34e-12
2.34001e-12
2.34e-12
2.34001e-12
2.34e-12
2.34001e-12
2.34e-12
2.34001e-12
2.34e-12
2.34001e-12
2.34e-12
2.34e-12
2.34e-12
2.34001e-12
2.34e-12
2.34001e-12
2.34e-12
2.34e-12
)
;

boundaryField
{
    AirInlet
    {
        type            calculated;
        value           uniform -1e-12;
    }
    WaterInlet
    {
        type            calculated;
        value           nonuniform List<scalar> 10(-2.5e-12 -2.5e-12 -2.5e-12 -2.5e-12 -2.5e-12 -2.5e-12 -2.5e-12 -2.5e-12 -2.5e-12 -2.5e-12);
    }
    ChannelWall
    {
        type            calculated;
        value           uniform 0;
    }
    Outlet
    {
        type            calculated;
        value           nonuniform List<scalar> 
11
(
2.33995e-12
2.34007e-12
2.33993e-12
2.34008e-12
2.33994e-12
2.60008e-12
2.33992e-12
2.34007e-12
2.33993e-12
2.34007e-12
2.33995e-12
)
;
    }
    FrontAndBack
    {
        type            empty;
        value           nonuniform 0();
    }
}


// ************************************************************************* //
