/*--------------------------------*- C++ -*----------------------------------*\
| =========                 |                                                 |
| \\      /  F ield         | OpenFOAM: The Open Source CFD Toolbox           |
|  \\    /   O peration     | Version:  2.3.0                                 |
|   \\  /    A nd           | Web:      www.OpenFOAM.org                      |
|    \\/     M anipulation  |                                                 |
\*---------------------------------------------------------------------------*/
FoamFile
{
    version     2.0;
    format      ascii;
    class       volScalarField;
    location    "0.900363";
    object      k.air;
}
// * * * * * * * * * * * * * * * * * * * * * * * * * * * * * * * * * * * * * //

dimensions      [0 2 -2 0 0 0 0];

internalField   nonuniform List<scalar> 
18816
(
0.006523
0.0180939
0.0232327
0.0346986
0.0509304
0.049126
0.0331261
0.0189793
0.0100714
0.00618015
0.00544986
0.00924513
0.0128423
0.0145082
0.0172933
0.0184698
0.0169261
0.010205
0.00555282
0.00534206
0.0137964
0.0246865
0.0323683
0.0360532
0.0363856
0.0337973
0.0175586
0.00519086
1e-15
0.0199888
0.00607519
0.0226211
0.0453128
0.018008
0.00646102
0.00479407
0.00362893
0.00229831
0.00214693
0.00178982
0.00109714
0.00170795
0.00227935
0.00282755
0.00294204
0.00211117
0.00194681
0.00280329
0.0043929
0.00510402
0.00556972
0.00622222
0.00914658
0.0317355
0.0684474
1e-15
1e-15
0.016757
0.0025288
0.00395836
0.00618653
0.00552568
0.0182218
0.0197324
0.0165426
0.00752146
0.00468562
0.00225094
0.00193124
0.00100284
0.00186404
0.00545831
0.00631461
0.00718788
0.00826021
0.0144578
0.0171732
0.0158391
0.010162
0.00560079
0.00315745
0.0168807
0.0681532
1e-15
1e-15
0.0254877
0.00237049
0.00210042
0.00595255
0.0172292
0.0212634
0.0219678
0.0191934
0.0107153
0.00611079
0.00278563
0.00197946
0.00224979
0.00153514
0.00212308
0.00507029
0.00783261
0.0103566
0.0197351
0.021952
0.0196537
0.00999921
0.00494262
0.00207183
0.0145573
0.073992
1e-15
1e-15
0.0325777
0.00231822
0.00202379
0.00654472
0.0147665
0.0209729
0.0240632
0.0213037
0.0105986
0.00619474
0.0022097
0.00116478
0.0017876
0.00186922
0.00264003
0.00646463
0.0102104
0.0129466
0.0239204
0.0261831
0.0215703
0.0100758
0.00500892
0.00184353
0.0166635
0.0807691
1e-15
1e-15
0.0398886
0.00267976
0.00253664
0.00627945
0.0118019
0.0219942
0.0273729
0.0245414
0.0106712
0.00635093
0.00285283
0.00169116
0.00183956
0.00283218
0.00496943
0.00720291
0.0109429
0.0138093
0.025928
0.0281118
0.0209974
0.00883947
0.00469835
0.00167905
0.0222274
0.0875958
1e-15
1e-15
0.0423671
0.0027391
0.00216088
0.00630833
0.00983845
0.0214343
0.0291922
0.026538
0.0115336
0.00815847
0.00657057
0.00593134
0.00494948
0.00481622
0.00448751
0.00579917
0.0105012
0.0138988
0.0274351
0.0288826
0.0200994
0.00837888
0.00371717
0.000693661
0.0282404
0.0897611
1e-15
1e-15
0.0459805
0.00348369
0.00120571
0.00250549
0.00762718
0.0199009
0.0290374
0.0277662
0.0117125
0.00940853
0.00825544
0.00816902
0.00688614
0.0069403
0.00533313
0.00631166
0.0103206
0.0140133
0.027286
0.0271047
0.0189777
0.00870793
0.00211857
0.00233729
0.0357802
0.0857512
1.00003e-15
1e-15
0.0515171
0.00479805
0.00114193
0.00124789
0.003934
0.0193766
0.0267755
0.0286983
0.0127964
0.0108607
0.00942323
0.0100087
0.00873796
0.00928417
0.00556141
0.0064511
0.00948309
0.0156211
0.0250107
0.0241615
0.0193639
0.0109059
0.00237258
0.00355442
0.0422438
0.0756745
1.19021e-15
1e-15
0.0584079
0.0103252
0.00203228
0.00128167
0.00277127
0.018032
0.0214939
0.0275106
0.0166945
0.0147755
0.0120515
0.0134476
0.0110566
0.0126495
0.00923108
0.0103222
0.0150983
0.019551
0.0220203
0.0190628
0.0177871
0.0126587
0.00311576
0.00373052
0.0416573
0.0659147
1.341e-15
1e-15
0.0651399
0.0208592
0.00544221
0.00184588
0.00326874
0.0150959
0.0162735
0.0240718
0.0196241
0.0175991
0.015482
0.0166578
0.0144858
0.0159284
0.0134896
0.0141139
0.0180879
0.0206285
0.0176526
0.012934
0.0119677
0.0130373
0.00442982
0.00295415
0.0216294
0.057193
1.3896e-15
1e-15
0.0630582
0.0322641
0.0119824
0.00300962
0.00380119
0.0109987
0.0121785
0.0194815
0.0197407
0.0180829
0.0160121
0.0173283
0.0151793
0.0165971
0.0141555
0.0143213
0.0172243
0.0186883
0.0137152
0.00872071
0.00728605
0.00849776
0.00698081
0.00272292
0.00296835
0.0393665
2.99231e-14
1.15935e-15
0.0543411
0.0376287
0.0191292
0.00376993
0.00769167
0.00856623
0.00984625
0.0156257
0.0180592
0.0174314
0.0158078
0.017288
0.0153298
0.0164662
0.0143084
0.0138273
0.0150155
0.0153343
0.0116675
0.0068819
0.00585534
0.00537578
0.00909614
0.00307746
0.00128529
0.0132934
1.46055e-15
1.22843e-15
0.0483152
0.03941
0.0197084
0.00374487
0.0126347
0.00705156
0.00839659
0.0130743
0.0154795
0.0168813
0.0149534
0.0177677
0.0147812
0.0168899
0.0134139
0.0122669
0.0130607
0.010862
0.0106102
0.00609744
0.00510915
0.00469321
0.00579598
0.00368959
0.00140286
0.0042888
4.06504e-05
1.00017e-15
0.0430264
0.0398126
0.00884637
0.00365966
0.0070646
0.00584998
0.00757333
0.0112782
0.0141702
0.0164448
0.015978
0.0186309
0.0165434
0.0177656
0.0155461
0.0135621
0.0127636
0.00953862
0.00967808
0.00735338
0.00522876
0.00382219
0.00334498
0.00319221
0.00151532
0.00385511
4.35973e-05
4.41059e-12
0.0320163
0.0341339
0.00227103
0.00441713
0.00424061
0.00456915
0.0083152
0.0113892
0.0121271
0.016643
0.0164082
0.0199143
0.0175388
0.0191056
0.016713
0.0146092
0.0143146
0.00983695
0.0088657
0.0113912
0.00704082
0.00406429
0.00234713
0.00227552
0.00190467
0.00387672
7.83343e-08
0.000291444
0.0139537
0.0164593
0.00222599
0.00325806
0.0031359
0.00431899
0.0121818
0.011683
0.0146881
0.0180402
0.0178542
0.0210184
0.0186356
0.0209555
0.0186375
0.0183371
0.0185633
0.0159274
0.0118079
0.0160806
0.0139665
0.00497683
0.00184368
0.00189158
0.00244369
0.00437099
0.00014774
0.000766
0.00536977
0.00528377
0.00266487
0.00220595
0.00217481
0.00564942
0.0155368
0.0159328
0.0197951
0.0207861
0.0196558
0.0217081
0.0192555
0.0217778
0.0207396
0.0201266
0.022058
0.0233681
0.018906
0.019675
0.020468
0.0134181
0.002308
0.00210591
0.00318159
0.00518406
0.000714366
0.000819413
0.00530551
0.00475555
0.00324562
0.00186022
0.00337149
0.0166413
0.0203119
0.0224354
0.0258163
0.0225792
0.0210775
0.0214174
0.0199982
0.0215388
0.0217522
0.0218536
0.0247186
0.0319324
0.0289106
0.025699
0.025829
0.0216596
0.00680676
0.00313834
0.00427268
0.00637127
0.00119125
0.000897409
0.00560984
0.00544144
0.00422893
0.00339519
0.010698
0.0222689
0.0272579
0.0318241
0.0293222
0.0210477
0.0181873
0.0166979
0.015522
0.0157195
0.016278
0.0195698
0.0230114
0.0335306
0.0377898
0.0333363
0.0307719
0.0245101
0.0105682
0.00494148
0.00538091
0.00738758
0.00165475
0.00108797
0.0063098
0.00648645
0.00559168
0.00768078
0.0144058
0.0238658
0.0283622
0.0296312
0.019228
0.0136247
0.0114115
0.00900891
0.00839199
0.00839017
0.00884472
0.0117542
0.0143674
0.02019
0.0335935
0.0342764
0.0314607
0.0237253
0.0115634
0.00711713
0.00663189
0.00869653
0.0017758
0.000922011
0.00654115
0.00765011
0.0076056
0.0113112
0.0123669
0.0199106
0.0236274
0.0237597
0.0167093
0.0114725
0.0100113
0.00754142
0.00787893
0.00729906
0.00750555
0.0101661
0.0118244
0.0177313
0.0285439
0.0295824
0.0253846
0.0149984
0.00722527
0.00697972
0.00749844
0.00885464
0.0015045
0.000546539
0.00639666
0.00817362
0.00849764
0.0105545
0.00878792
0.0170591
0.0240116
0.0248184
0.0195197
0.0133182
0.0101966
0.00790546
0.00679142
0.00687788
0.00804133
0.0106771
0.0142789
0.0217119
0.0296642
0.029222
0.0215039
0.00849509
0.00366689
0.00580723
0.00745196
0.00842871
0.000564897
0.000422178
0.00458792
0.00787249
0.00801083
0.00767712
0.0051588
0.011333
0.020499
0.0232211
0.0194835
0.0131928
0.00961657
0.0075904
0.00644059
0.00658925
0.00785508
0.0103287
0.0145378
0.0223635
0.0284556
0.0259225
0.0140576
0.00281023
0.00261301
0.00511577
0.00683772
0.00717488
0.000250303
0.000545195
0.00292491
0.0069093
0.00715401
0.00565915
0.00271606
0.00803995
0.0172459
0.0232876
0.0210035
0.0148143
0.0111708
0.00902675
0.00802908
0.00817974
0.00939348
0.0120228
0.0163996
0.0239896
0.0288016
0.0232757
0.00888376
0.00203619
0.00244265
0.0045751
0.00597936
0.00573807
0.000349538
0.000700448
0.00243928
0.00645428
0.00698518
0.0056397
0.00273401
0.00764603
0.0148906
0.0217094
0.019862
0.0145788
0.0109461
0.0089685
0.0080707
0.00820774
0.00938491
0.0118216
0.0161168
0.0225577
0.0265987
0.0201538
0.00791103
0.00204643
0.00270076
0.00439238
0.00541764
0.00483167
0.000808359
0.00133135
0.0024831
0.00712438
0.00789924
0.0059135
0.0028827
0.00879321
0.0144896
0.0192908
0.0172912
0.013054
0.00994509
0.00806355
0.00722786
0.00733091
0.00836047
0.0105992
0.0141324
0.0190985
0.0226201
0.0179817
0.00882898
0.00218879
0.00261063
0.00413869
0.00517605
0.00474759
0.00287937
0.00170358
0.00317682
0.00850165
0.00808324
0.00534085
0.00413049
0.0123194
0.012111
0.0105918
0.00927036
0.00717757
0.00559634
0.00466609
0.00422212
0.00426065
0.0047684
0.00579344
0.00757065
0.00990632
0.0116827
0.0107144
0.0129912
0.00305223
0.00264823
0.00392869
0.00474652
0.0045891
0.00432247
0.00195738
0.00801289
0.0105377
0.0160001
0.0215523
0.0209723
0.0144291
0.00785021
0.004488
0.00327714
0.00308551
0.00459177
0.00579013
0.00624674
0.00690923
0.00698659
0.00585082
0.00282221
0.0014524
0.00203406
0.00492544
0.00963843
0.013426
0.0151984
0.0155481
0.0146665
0.00648202
9.17024e-07
1e-15
0.00857875
0.00338214
0.0103661
0.0195663
0.00963612
0.00416221
0.00470146
0.00427882
0.00211193
0.00152805
0.00122217
0.000894955
0.001064
0.00135002
0.00149022
0.00155912
0.00171163
0.00225513
0.00453254
0.00544929
0.00491453
0.00347194
0.00360743
0.00456204
0.0128538
0.0260983
1e-15
1e-15
0.00780088
0.00155014
0.00235954
0.00341503
0.00457091
0.0118683
0.0121073
0.0106293
0.00673615
0.00438177
0.00205762
0.00112055
0.000698316
0.00106858
0.00293471
0.00380562
0.00489815
0.00650284
0.0110807
0.0119831
0.010931
0.00695911
0.00366553
0.00220301
0.00802823
0.0278512
1e-15
0.000228471
0.0106119
0.001349
0.00140728
0.00471399
0.00980755
0.0114856
0.0125006
0.0114506
0.0069726
0.00454589
0.00283815
0.00129223
0.00122753
0.000937514
0.000930804
0.00292204
0.0050181
0.00714655
0.0129626
0.0139683
0.0121765
0.00650109
0.0031344
0.00175779
0.00698306
0.0303819
1e-15
0.000350769
0.0135
0.00135529
0.00116523
0.00403676
0.00759827
0.0111874
0.0139327
0.0128594
0.00628989
0.00386967
0.00215076
0.000915559
0.000947529
0.000968428
0.000930076
0.00182697
0.00482154
0.0073257
0.0138505
0.013992
0.0117087
0.00590352
0.00277235
0.00137849
0.00777504
0.0336939
1e-15
3.33528e-13
0.0163809
0.00157441
0.00159059
0.00344463
0.00517155
0.0107928
0.0120266
0.0133381
0.00610097
0.00352138
0.00185964
0.000905292
0.000790854
0.000941457
0.00108432
0.00172976
0.00429217
0.00731473
0.0122707
0.0110643
0.0102073
0.00417036
0.00230968
0.0012159
0.0101979
0.0364347
1e-15
1e-15
0.0174477
0.00183172
0.00230845
0.00243591
0.00251779
0.00845032
0.00747555
0.0113487
0.00642274
0.00408064
0.00318708
0.00276728
0.00238353
0.00267653
0.00136789
0.00177484
0.00419227
0.00755885
0.00927901
0.00816458
0.00885567
0.00242881
0.00133552
0.00043151
0.012915
0.0373676
1e-15
1e-15
0.0187834
0.00225498
0.00154475
0.00123119
0.00146143
0.00669426
0.00476751
0.00909744
0.00712675
0.00513214
0.00442627
0.00444364
0.00383422
0.00393836
0.00283919
0.00349488
0.00574557
0.00852937
0.00682602
0.00596068
0.00737787
0.00164215
0.000933858
0.00138957
0.0161818
0.0363982
1e-15
1e-15
0.0210443
0.00347267
0.0011443
0.000849366
0.00110836
0.00543233
0.00354052
0.00695007
0.00886558
0.00687259
0.00590462
0.00625103
0.00540727
0.00555154
0.00313111
0.0041593
0.00708066
0.00909323
0.00523734
0.00431988
0.00511953
0.00153577
0.00106489
0.00208012
0.0191996
0.0326914
1e-15
1e-15
0.023946
0.00562399
0.00183998
0.000822986
0.00120021
0.00338676
0.00308293
0.00538849
0.0116722
0.0102456
0.00831121
0.00931027
0.00752656
0.00868726
0.00630244
0.00706185
0.011481
0.0104301
0.00439467
0.00332251
0.00319541
0.00174993
0.00118712
0.00203927
0.0194018
0.0292757
1e-15
1e-15
0.0266673
0.0104849
0.00357738
0.00116801
0.00140598
0.00242573
0.00291017
0.00432847
0.0140276
0.0133606
0.0114337
0.012728
0.0107408
0.0121352
0.00982297
0.0101834
0.0133212
0.0112982
0.0036085
0.00283028
0.00242477
0.00214489
0.0014027
0.00139079
0.0112324
0.0260719
1.00014e-15
1e-15
0.0264671
0.0152493
0.00630137
0.00184506
0.00154664
0.0021506
0.00273185
0.0035503
0.0141617
0.0136807
0.0122242
0.0132685
0.0116738
0.0126701
0.0107845
0.0107671
0.0128749
0.0109793
0.00335306
0.00248954
0.00224725
0.001899
0.00156008
0.00126252
0.00186307
0.0182396
1.00021e-15
1e-15
0.0239055
0.0174045
0.009425
0.00214158
0.00165898
0.00210236
0.0025964
0.00314751
0.0116472
0.0132706
0.0120068
0.0133943
0.0117545
0.0127613
0.0108938
0.010471
0.0112928
0.00968596
0.00384909
0.00228422
0.0019857
0.00192294
0.00152493
0.00116293
0.000898448
0.00641962
1e-15
1e-15
0.0220131
0.0180278
0.00984559
0.00153762
0.00181722
0.00203629
0.00238437
0.00321352
0.0103251
0.0129986
0.0117416
0.0139103
0.0116944
0.0132369
0.0105783
0.00963963
0.0103245
0.00835838
0.00566346
0.00274173
0.00200278
0.00169097
0.00137244
0.0011081
0.00103421
0.00255305
1e-15
1e-15
0.0199691
0.0179574
0.00508961
0.00134962
0.00171453
0.00178341
0.00244368
0.00482715
0.0103948
0.0129492
0.0126766
0.0148289
0.0131523
0.0141441
0.0123948
0.0109425
0.0104141
0.00818805
0.00725
0.00489456
0.00276125
0.00159591
0.00121169
0.00106608
0.00111174
0.00196813
1.00001e-15
1e-15
0.0148581
0.015859
0.00134682
0.00130235
0.00159865
0.00165569
0.00382468
0.00749159
0.00991109
0.0133395
0.0133076
0.015867
0.0141854
0.0152023
0.0135093
0.0119488
0.0117157
0.00843377
0.00764122
0.00946549
0.00693011
0.00220573
0.00116602
0.00101642
0.00116886
0.00198178
1.00226e-15
1e-15
0.00628143
0.00765042
0.0011357
0.00136391
0.00135801
0.00192138
0.00748992
0.00921841
0.0122763
0.0145036
0.0145107
0.0165901
0.0149028
0.0164839
0.0151255
0.0147188
0.0148515
0.0132744
0.00961132
0.0119845
0.0119491
0.00724606
0.00161536
0.000957573
0.00122633
0.00210325
1.00404e-15
1e-15
0.00277484
0.00264279
0.00118494
0.0011804
0.0020568
0.0061176
0.0115433
0.0123255
0.0157624
0.0161519
0.01535
0.0167878
0.0148155
0.0173373
0.0160368
0.0156392
0.0175301
0.0185153
0.0149718
0.0146668
0.0148128
0.0129093
0.00424875
0.00110487
0.00129291
0.00225221
1.00307e-15
1e-15
0.00220405
0.00190841
0.00123138
0.00121226
0.00603799
0.0125779
0.0147095
0.0166758
0.0198675
0.0165568
0.0157899
0.0155105
0.0148804
0.0157684
0.016376
0.0163574
0.0181621
0.0251767
0.0215699
0.0180585
0.0175649
0.0156806
0.00830462
0.0013497
0.00151916
0.00254168
1.00084e-15
1e-15
0.00221082
0.0019503
0.00140191
0.00157095
0.00973077
0.0151134
0.0172694
0.019502
0.0197243
0.0126118
0.0110883
0.00953215
0.00948251
0.00892004
0.00985497
0.0116476
0.0135729
0.0228285
0.0227568
0.0203167
0.0190091
0.0166342
0.00912184
0.00171545
0.00183609
0.00289993
1.0002e-15
1e-15
0.00234846
0.00217896
0.00169977
0.00245249
0.0107145
0.0146047
0.0148893
0.0127491
0.00776942
0.00669061
0.00606674
0.00569625
0.00556082
0.00559652
0.00569709
0.0062261
0.00698252
0.00813781
0.0137865
0.0174912
0.0179737
0.015317
0.00858583
0.00231709
0.00230107
0.00348136
1.00033e-15
1.0519e-15
0.0023795
0.00270705
0.00219407
0.00408875
0.00839161
0.0122404
0.0134612
0.0123978
0.00817303
0.00620907
0.00539371
0.00459206
0.0045232
0.00442265
0.00465751
0.0057066
0.00663091
0.00893345
0.0147324
0.0165048
0.0150804
0.00956608
0.00521921
0.00253584
0.0030396
0.00365539
1.01106e-15
1.02887e-15
0.00257356
0.00323158
0.0028611
0.00376731
0.00617113
0.0108299
0.0136743
0.0132187
0.0105198
0.00741934
0.00611013
0.00513869
0.00474221
0.00480849
0.00531915
0.0065452
0.00810932
0.0120362
0.0159209
0.016718
0.0128884
0.00540942
0.00236836
0.00241425
0.00345647
0.00354323
1.0248e-15
1e-15
0.00200976
0.00352715
0.00345367
0.00313772
0.003759
0.00695499
0.0117263
0.0126825
0.0109466
0.0077617
0.00611921
0.00520076
0.00475924
0.00486258
0.00544876
0.00667997
0.00868206
0.0128445
0.0157266
0.0150793
0.00573864
0.00206499
0.00167361
0.00267687
0.00346681
0.00305748
1e-15
1e-15
0.00120036
0.00322997
0.00360225
0.0030343
0.00174545
0.00290243
0.00986982
0.0126727
0.0114917
0.00845788
0.00671668
0.00570089
0.00526696
0.0053602
0.00596894
0.00729184
0.00947105
0.0133356
0.0157658
0.0132823
0.00183187
0.00130501
0.00161781
0.0026762
0.00305669
0.00243217
1e-15
1.70561e-13
0.000850386
0.00274656
0.00348417
0.00327919
0.00170757
0.00176703
0.00826123
0.0108997
0.0101007
0.00791016
0.00625486
0.00535488
0.00496872
0.00505472
0.00562098
0.00678941
0.00882183
0.011625
0.0132804
0.0101453
0.00170456
0.00135274
0.00173067
0.00239604
0.0024443
0.00216724
3.36701e-15
3.27121e-08
0.000798119
0.0028541
0.00337875
0.00290732
0.00152571
0.00165723
0.00777937
0.0075065
0.00713584
0.0060339
0.00498976
0.0042931
0.00399321
0.00405189
0.00446181
0.00532408
0.0065332
0.00789923
0.00825475
0.00828653
0.00184601
0.00131843
0.00156543
0.00215553
0.00235236
0.00219292
0.000271269
0.000434437
0.00126548
0.0035593
0.00348678
0.00244645
0.00146484
0.00220588
0.0095737
0.00152321
0.00150108
0.0014267
0.00145009
0.00148169
0.00146433
0.0014686
0.00148432
0.00139113
0.0014933
0.00155467
0.00145123
0.00544303
0.00263789
0.0013979
0.00145426
0.002044
0.00224502
0.00217482
0.00080955
0.000999927
0.00380352
0.00524302
0.00787012
0.00968108
0.0095974
0.00668361
0.00349057
0.0022391
0.00189781
0.00189917
0.0025055
0.00281084
0.0028469
0.00286896
0.00265365
0.00185061
0.000841343
0.000690969
0.00100087
0.00182212
0.00378636
0.00588644
0.00687257
0.00714484
0.00657335
0.00266525
0.00151746
7.47024e-09
0.00397127
0.00203277
0.00529761
0.00906101
0.00647441
0.00444319
0.00469129
0.00418711
0.00234403
0.00132772
0.00087596
0.000717083
0.000717834
0.000952876
0.00121357
0.00160742
0.00228572
0.00353331
0.00600945
0.00619238
0.00550895
0.00340826
0.00215731
0.00277774
0.00568768
0.00969816
2.67371e-12
0.000784297
0.00380068
0.00113594
0.00152249
0.00231279
0.00501188
0.00606917
0.00594971
0.00623935
0.00524237
0.00317279
0.00125688
0.000758405
0.000549942
0.000610214
0.00150646
0.00270696
0.00410428
0.0060472
0.00904619
0.00885012
0.0078812
0.00518506
0.00255468
0.00161418
0.00396423
0.0122102
1e-15
0.00148125
0.00468727
0.0010252
0.00116694
0.00320186
0.00456797
0.00378028
0.00542771
0.00710878
0.00530748
0.00340837
0.00214336
0.000850558
0.0007856
0.000653892
0.000529765
0.00135381
0.00309088
0.0053939
0.00934698
0.00732073
0.00630052
0.00432379
0.0021313
0.00125199
0.00455958
0.0136988
1e-15
0.00172941
0.00591287
0.000968822
0.00092217
0.00180032
0.00252924
0.00323625
0.00450544
0.00776937
0.00462313
0.0027384
0.00180787
0.000804676
0.000639923
0.000631908
0.00057544
0.000583192
0.00168858
0.00462137
0.00723542
0.00434166
0.00426821
0.00323262
0.00168939
0.000995833
0.00495026
0.0153707
1e-15
7.76626e-09
0.00710481
0.00106041
0.000913616
0.00126417
0.00162167
0.0028046
0.00237484
0.00573047
0.00424782
0.00235854
0.00158268
0.000787118
0.000468822
0.000507861
0.000535211
0.000601661
0.00125558
0.00442021
0.00457705
0.00276348
0.00323391
0.00176526
0.00115023
0.000910875
0.00594569
0.0164448
1e-15
6.66834e-15
0.0076039
0.00118513
0.00104909
0.000874463
0.00087973
0.00195885
0.00179178
0.00389636
0.00438958
0.00248036
0.00199982
0.00183607
0.00159585
0.0016524
0.000611315
0.000683215
0.00151287
0.00505956
0.00304382
0.00209798
0.00244402
0.000931262
0.00077722
0.000359665
0.0067694
0.016721
1e-15
1e-15
0.00811168
0.00134646
0.000954126
0.000798776
0.000776493
0.00157764
0.00166364
0.00302676
0.00534305
0.00340411
0.0029236
0.00300307
0.00265271
0.00222595
0.000923887
0.00167157
0.00397163
0.00631672
0.00240514
0.00179184
0.00170083
0.00078301
0.000692248
0.000790254
0.00814312
0.0164366
1e-15
1e-15
0.00908971
0.00187183
0.000930975
0.000728904
0.000745005
0.00133501
0.00156573
0.00255922
0.0070986
0.00514313
0.00435111
0.00465289
0.00394363
0.00280412
0.000780244
0.00244403
0.00624767
0.00589091
0.00215545
0.00158634
0.00123175
0.000785043
0.000622947
0.00118943
0.00972693
0.015037
1e-15
1e-15
0.0104086
0.00311952
0.00123786
0.00064794
0.00069027
0.00111648
0.00144305
0.00231268
0.00932562
0.00834177
0.0066514
0.00755378
0.00595379
0.00693071
0.00457502
0.00557188
0.0101451
0.00665729
0.00206475
0.00146523
0.00121063
0.000852577
0.000689558
0.00115393
0.00991663
0.0139554
1e-15
1.18448e-14
0.0115655
0.00554234
0.00213843
0.000828735
0.000728102
0.00109691
0.00134291
0.00210775
0.0125873
0.0130805
0.0106982
0.0124062
0.00999261
0.0118253
0.00910224
0.00949937
0.0130992
0.00931468
0.00191856
0.00134374
0.00120741
0.00100943
0.000875322
0.000841035
0.00638198
0.012813
1e-15
1e-15
0.0115681
0.00779139
0.00363544
0.00120543
0.000777387
0.00104457
0.00122737
0.00174252
0.0135014
0.0135336
0.0119996
0.0130514
0.0113738
0.0124613
0.010463
0.010496
0.0127431
0.0112771
0.00211116
0.00121259
0.00107581
0.00114412
0.000938208
0.00075835
0.00130637
0.00933797
1e-15
1e-15
0.0108556
0.00877118
0.00516398
0.0013265
0.000802621
0.00100733
0.00116498
0.00161531
0.0107535
0.013126
0.0117591
0.0131426
0.0114595
0.0125167
0.0106444
0.0102797
0.0112153
0.00980434
0.00325082
0.00124282
0.000976831
0.00101156
0.000858421
0.000736024
0.000810384
0.00369969
1e-15
1e-15
0.0105017
0.00901932
0.00540977
0.000976891
0.000942961
0.000978355
0.00119678
0.00191892
0.0102032
0.0127901
0.0113629
0.0135848
0.0112676
0.0129085
0.0101231
0.00919316
0.0101309
0.00803847
0.00550433
0.00234595
0.00119617
0.000911988
0.000776062
0.00073284
0.000873937
0.00194441
1e-15
1e-15
0.00990584
0.00890292
0.00320181
0.000816336
0.00104814
0.00102404
0.00125387
0.00327033
0.0101738
0.0126912
0.0122571
0.0144645
0.0126915
0.0137749
0.0119198
0.0105416
0.0101393
0.00796496
0.00655923
0.00560584
0.00328983
0.00114204
0.000789616
0.000738791
0.000885141
0.00168492
1e-15
1e-15
0.00761348
0.00799074
0.00111333
0.000863253
0.000969396
0.00108605
0.00301223
0.00608649
0.00928264
0.0129446
0.0127528
0.015469
0.0136733
0.0147551
0.0129234
0.0112747
0.0112392
0.00789029
0.00695406
0.00886208
0.008421
0.00330753
0.00101898
0.000769985
0.000900194
0.00160974
1e-15
1e-15
0.00336598
0.00404307
0.00101498
0.000994409
0.00108556
0.00261781
0.00703723
0.00792905
0.0116248
0.0139979
0.0140588
0.0162803
0.0145822
0.0159529
0.0146693
0.0142501
0.0141383
0.0125297
0.00855775
0.010382
0.0108248
0.0102319
0.0030355
0.000810869
0.000931778
0.00156551
1e-15
1e-15
0.00179729
0.00164642
0.00105994
0.00105138
0.00345101
0.00826611
0.00984193
0.0105845
0.0148674
0.0157489
0.0148048
0.0166632
0.0143826
0.0172909
0.0154972
0.0150816
0.0173324
0.0174049
0.013033
0.0125384
0.0122439
0.0118434
0.007852
0.000963624
0.000936842
0.00154152
1e-15
1e-15
0.00158733
0.00137898
0.00105323
0.00114079
0.00809079
0.0103241
0.0114778
0.0138341
0.0198456
0.0166839
0.0158977
0.0159789
0.0150461
0.0164567
0.016759
0.0163842
0.0187571
0.0262063
0.0180617
0.0140545
0.0131692
0.0124073
0.00942532
0.00113312
0.000951635
0.00156396
1e-15
1e-15
0.00159004
0.00138219
0.00103406
0.00152306
0.00923849
0.0110972
0.0116432
0.0149893
0.0236912
0.0142891
0.0126945
0.0104868
0.0107067
0.00980155
0.0113777
0.0135066
0.0159293
0.0290946
0.0175969
0.013252
0.0127478
0.0122425
0.00880375
0.00140494
0.00102576
0.00164442
1e-15
1e-15
0.00164175
0.00144582
0.000997444
0.00218392
0.00855549
0.00968213
0.00882836
0.00736502
0.00592046
0.00514728
0.00484774
0.00474481
0.00473071
0.0047357
0.00479687
0.00497483
0.00535247
0.00649473
0.00819257
0.0103046
0.0112918
0.0104248
0.00724555
0.00140468
0.00113661
0.0018541
1e-15
1.00546e-15
0.00164858
0.0016612
0.0011284
0.00237671
0.00633726
0.00823574
0.00868071
0.00785714
0.00583501
0.00460549
0.0042327
0.00385671
0.00383027
0.00382309
0.00400175
0.00461658
0.00503972
0.00683121
0.00957938
0.0106115
0.00993349
0.00659739
0.0039914
0.00133823
0.00140493
0.00199146
1e-15
1e-15
0.00161232
0.00189097
0.00133086
0.00196982
0.00477099
0.00735965
0.00867731
0.00833622
0.00721522
0.00526998
0.00451617
0.00400891
0.00384026
0.0039025
0.00419709
0.00495226
0.0059071
0.00865457
0.0102143
0.0108358
0.00767751
0.00304365
0.00152039
0.0013584
0.00170072
0.00203433
1e-15
1e-15
0.00140341
0.00201396
0.00172319
0.00154403
0.002614
0.0039494
0.00711911
0.00790355
0.00732547
0.0055689
0.00459393
0.00407693
0.00387646
0.00395161
0.00429467
0.00506309
0.00630085
0.0088487
0.00992369
0.00958669
0.00194957
0.0014018
0.00117237
0.00167929
0.00183633
0.00198299
1e-15
1e-15
0.00115345
0.00203746
0.00195109
0.00190702
0.00128317
0.00139578
0.00503536
0.00755462
0.00713312
0.00569264
0.00467836
0.00410567
0.00388504
0.00395002
0.00431643
0.00511056
0.00643847
0.00842934
0.00931359
0.00737518
0.00116878
0.00112893
0.0012167
0.00166299
0.00182849
0.00181198
1e-15
1e-15
0.00089956
0.00199993
0.00212809
0.00206441
0.00133195
0.00129824
0.0027195
0.00532192
0.00525429
0.00469757
0.00396298
0.00353572
0.00336468
0.00342356
0.00371854
0.00431098
0.00525941
0.00612108
0.00612341
0.00414692
0.00123424
0.00105886
0.00113976
0.0015481
0.00181788
0.00171984
1e-15
1e-15
0.000626805
0.00197995
0.00230603
0.00194102
0.00120716
0.0012158
0.00203626
0.00235066
0.00264337
0.00278682
0.0026305
0.0024631
0.00238859
0.00242479
0.00256579
0.00278674
0.00300241
0.00297842
0.00224164
0.00289849
0.00137742
0.00113382
0.0011822
0.00156663
0.00179947
0.00176277
1.28744e-15
2.15508e-05
0.000854176
0.00219479
0.00233196
0.0018313
0.00131304
0.00143487
0.00235166
0.000652086
0.000747518
0.000761151
0.000765287
0.000768961
0.000805836
0.000810136
0.000785505
0.000778225
0.000812561
0.000822011
0.000649179
0.00458957
0.00167809
0.00127651
0.00125724
0.00157189
0.00181643
0.00187906
1.32431e-13
0.00130414
0.00194503
0.00298318
0.00423067
0.00472817
0.00464807
0.00330401
0.0017816
0.00132838
0.00123684
0.00129793
0.00150908
0.00151254
0.00141432
0.00125278
0.00100054
0.000672872
0.000538357
0.000614314
0.000801472
0.000989646
0.00158376
0.00270432
0.00336777
0.00359771
0.00320752
0.00146942
0.00168422
0.00157161
0.00199887
0.00136506
0.00309418
0.00467859
0.00439703
0.0023466
0.00199849
0.00206412
0.00173176
0.000984494
0.0007014
0.000593339
0.000524444
0.000694206
0.000995574
0.0016575
0.00265955
0.00415128
0.00608815
0.00503812
0.00446888
0.00343048
0.00178499
0.0016807
0.00278933
0.00354427
0.00184894
0.00165008
0.00194514
0.000880951
0.00110926
0.00158156
0.00275734
0.00160581
0.00164373
0.00283573
0.00311418
0.00155423
0.000765699
0.000582674
0.000464843
0.000423249
0.000770457
0.00196718
0.0034225
0.00540422
0.00750956
0.00455094
0.00446463
0.00375693
0.00193219
0.00109443
0.0026755
0.00576214
0.000165949
0.0018946
0.00225524
0.000823756
0.000925511
0.00156998
0.00130931
0.00109194
0.00163176
0.0039061
0.00408551
0.00243582
0.00134012
0.000650025
0.000600919
0.000514635
0.000409674
0.000619917
0.00157253
0.00416359
0.0060239
0.00230474
0.00219728
0.00254119
0.00154728
0.000848649
0.00250137
0.00678794
1e-15
0.00202415
0.00281736
0.000805244
0.000779193
0.000790829
0.000933864
0.00112652
0.00136573
0.00451725
0.00395531
0.00226076
0.0015707
0.000632033
0.000536951
0.00048768
0.000454687
0.000389487
0.000638611
0.00302595
0.0036353
0.00149351
0.00146638
0.00169207
0.00114699
0.000741332
0.00263139
0.00767152
1e-15
0.00175324
0.00335352
0.000794623
0.000746841
0.000703444
0.000822618
0.00108283
0.00116773
0.00309056
0.00356615
0.00191505
0.00146839
0.000843631
0.000388654
0.00041169
0.0004565
0.000469698
0.000568072
0.00283123
0.00231785
0.00124488
0.00120307
0.00101646
0.000833524
0.000714748
0.00304688
0.0080501
1e-15
0.00157607
0.00359531
0.000911339
0.000779914
0.000683073
0.000735779
0.000950986
0.00110437
0.00225459
0.00368223
0.00192993
0.00163259
0.00158783
0.00115418
0.000888821
0.000492276
0.000530788
0.00070665
0.00375715
0.00181786
0.00113487
0.00100803
0.000774057
0.000709125
0.000380267
0.00362288
0.00806921
1e-15
1.05337e-07
0.00378698
0.000987845
0.0008131
0.000724461
0.000707322
0.000905064
0.000976408
0.00199407
0.00473669
0.00269627
0.00234316
0.00247918
0.00215133
0.00110394
0.00045394
0.000582201
0.00225234
0.00558846
0.00163571
0.00104494
0.000881251
0.000683859
0.00063382
0.000557101
0.00440186
0.00789955
1e-15
2.14042e-10
0.00417328
0.00108759
0.000794378
0.000658593
0.000622507
0.000888422
0.000843902
0.0019303
0.00643948
0.00436292
0.00364212
0.00398414
0.00309538
0.00116262
0.000494604
0.000762086
0.00553265
0.00509398
0.00157855
0.000944223
0.000833975
0.00065184
0.000575418
0.000756647
0.00535123
0.00727281
1e-15
1e-15
0.00483196
0.00156951
0.000808301
0.000589707
0.00063148
0.000773864
0.000789801
0.00190852
0.00862126
0.00734414
0.00583313
0.00660682
0.00515305
0.00572295
0.00295987
0.00442431
0.00983398
0.00585514
0.00159309
0.000872751
0.000803707
0.000693629
0.000630957
0.000793011
0.0055859
0.00699947
1e-15
1e-15
0.00531279
0.00296102
0.00119115
0.000652656
0.000620923
0.000740374
0.000763547
0.0018649
0.0135247
0.014456
0.0112636
0.0136481
0.0104492
0.0130371
0.00956952
0.0100942
0.0147702
0.0115156
0.00187315
0.000809933
0.000804368
0.000755534
0.000716738
0.000681612
0.00400401
0.00671823
1e-15
1e-15
0.00533486
0.00414018
0.00217174
0.000843446
0.000638374
0.000771042
0.000731046
0.00147759
0.0152338
0.0150591
0.0128193
0.0144083
0.0120505
0.0137873
0.0110692
0.0112025
0.0142822
0.0143657
0.00247331
0.000837662
0.000807134
0.000872797
0.000768664
0.000648383
0.0010517
0.00534345
1e-15
1e-15
0.00502236
0.00465455
0.00309547
0.000907427
0.000692758
0.000823695
0.000716758
0.00140547
0.012743
0.0145971
0.0129727
0.0144161
0.0125542
0.0137429
0.0117491
0.0114284
0.0126331
0.0121727
0.00449352
0.000986499
0.000787402
0.00089856
0.00077578
0.000696507
0.000773332
0.00252112
1e-15
1e-15
0.0050762
0.00481784
0.00328445
0.000751066
0.000779597
0.00084255
0.00080007
0.00173943
0.0115512
0.0140897
0.0118908
0.0147571
0.0117147
0.014016
0.0104742
0.00949292
0.0110725
0.00845053
0.0061487
0.00295364
0.00104558
0.000835674
0.000754108
0.000731265
0.000865282
0.00160516
1e-15
1e-15
0.00513351
0.00480575
0.00220426
0.000731826
0.000928723
0.000824294
0.000930435
0.00316114
0.011437
0.0138255
0.0131135
0.0155827
0.0135273
0.0148299
0.0126693
0.011207
0.010886
0.00844387
0.0065389
0.00674212
0.00455974