/*--------------------------------*- C++ -*----------------------------------*\
| =========                 |                                                 |
| \\      /  F ield         | OpenFOAM: The Open Source CFD Toolbox           |
|  \\    /   O peration     | Version:  2.3.0                                 |
|   \\  /    A nd           | Web:      www.OpenFOAM.org                      |
|    \\/     M anipulation  |                                                 |
\*---------------------------------------------------------------------------*/
FoamFile
{
    version     2.0;
    format      ascii;
    class       volVectorField;
    location    "0.900363";
    object      U.water;
}
// * * * * * * * * * * * * * * * * * * * * * * * * * * * * * * * * * * * * * //

dimensions      [0 1 -1 0 0 0 0];

internalField   nonuniform List<vector> 
18816
(
(-0.00814252 0.00845665 -0.0025734)
(-0.0256064 -0.00179582 3.67808e-05)
(-0.0373025 -0.00334453 0.00118305)
(-0.0458162 -0.00918276 0.000312858)
(-0.072091 -0.00184974 -0.000761313)
(-0.0827075 0.0036507 -0.000578989)
(-0.0775102 0.00540964 0.000985245)
(-0.0549732 0.00145245 0.00115756)
(-0.0281426 -0.00117135 0.00076476)
(-0.0131306 -0.00161253 0.0011195)
(-0.0101073 -0.000105207 0.00147587)
(-0.0160975 0.00366248 0.00116701)
(-0.0248196 0.00451736 0.000876931)
(-0.0294428 0.00649225 0.000845644)
(-0.0322329 0.00991374 0.000446945)
(-0.0330613 0.0132538 1.08099e-05)
(-0.0328149 0.0141443 -0.000246031)
(-0.0234931 0.013968 -0.000555165)
(-0.0115756 0.0132748 -0.00065523)
(0.0108691 0.00963195 -0.000900233)
(0.0438769 0.00787982 -0.000209231)
(0.0688804 0.0101507 6.37614e-05)
(0.0727397 0.0135416 0.000381342)
(0.0668897 0.0146332 0.000269613)
(0.0556196 0.0119833 -0.000313705)
(0.0444037 0.0106336 -0.00150288)
(0.021177 0.00735093 -0.0012092)
(-0.00208152 0.0111008 -0.00342508)
(-0.00599642 0.0504537 -0.00213803)
(-0.0204058 0.041973 -0.000248793)
(-0.0241239 -0.0017675 0.00104891)
(-0.039701 0.0341041 0.00150227)
(-0.0522615 0.0607244 0.00127937)
(-0.0580188 0.0209679 0.00180428)
(-0.0421181 -0.0245808 0.00148395)
(-0.0308432 -0.0313859 0.000361158)
(-0.0125885 -0.0295761 -0.000209754)
(0.000703489 -0.0188622 0.00010405)
(0.00611467 -0.0164321 0.000349765)
(0.00926312 -0.00644228 0.000828461)
(0.00108015 -0.00306158 0.000946853)
(-0.0104736 -0.00610799 0.000676413)
(-0.0183243 -0.00404983 0.000768474)
(-0.0224368 -0.000744649 0.000668768)
(-0.0245617 0.0010513 0.000571469)
(-0.0217057 -0.000645615 0.000320025)
(-0.0162786 -0.00397101 0.000278634)
(-0.00051034 -0.0125475 -0.000383124)
(0.0214239 -0.0156048 -6.33387e-05)
(0.0364902 -0.0118962 0.000408798)
(0.044521 -0.000932776 0.000885881)
(0.0406849 0.00353346 0.00100458)
(0.0370314 0.0155053 0.0013391)
(0.0337126 0.0579698 0.000300643)
(0.021372 0.0828051 -0.00164378)
(0.0020325 0.0633621 -0.00388914)
(-0.00455758 0.0642779 -0.00161545)
(-0.0032791 0.0371253 -0.000684182)
(-0.011041 -0.0082432 -0.000108402)
(-0.0229586 -0.00377007 0.00094969)
(-0.0300853 0.00215805 0.00136232)
(-0.0354072 -0.022333 0.00128782)
(-0.0376031 -0.0369517 0.000214136)
(-0.0293385 -0.0431435 -0.000170862)
(-0.0143029 -0.0412533 -0.000603999)
(-0.00238457 -0.0257199 -0.000266779)
(0.00278455 -0.0215619 -0.000480695)
(0.0129646 -0.0124489 -0.000263073)
(0.0132775 0.00189234 0.00032145)
(0.00418272 0.00272049 0.000351721)
(-0.0065482 -0.00527503 0.000421725)
(-0.0132133 -0.00576626 0.000290976)
(-0.0163734 -0.00519988 0.000256346)
(-0.0158322 -0.00891694 -3.24772e-05)
(-0.0111153 -0.0146438 -0.000188551)
(0.00174399 -0.0292911 -0.000498461)
(0.0197326 -0.0330937 -0.000211306)
(0.0285468 -0.0288771 2.9402e-05)
(0.033079 -0.0120368 0.000458702)
(0.0276789 -0.00313889 0.000582787)
(0.0195032 0.00507422 0.000808168)
(0.0201285 0.0415439 0.00088717)
(0.0071729 0.0884986 0.00078696)
(-0.00860449 0.108723 -0.00311793)
(0.00107557 0.0927231 0.000220487)
(0.00641792 0.0585863 -5.32196e-05)
(-0.00689064 0.00867713 -9.17703e-05)
(-0.0135495 -0.00211306 0.000901291)
(-0.0220444 -0.0122746 0.00136122)
(-0.0367085 -0.0245262 0.000849757)
(-0.0361213 -0.0384828 -0.000462746)
(-0.0262686 -0.0461189 -0.000471386)
(-0.0134367 -0.044041 -0.000999229)
(-0.00156964 -0.0268739 -0.000128718)
(-0.000190171 -0.0191201 -0.000209281)
(0.00780202 -0.0137639 -0.000261232)
(0.016996 -0.00368068 -6.4387e-06)
(0.0171135 0.000518975 0.000578221)
(0.0114689 -0.00176826 0.000706225)
(0.00394383 -0.00742832 0.00086589)
(-0.00401252 -0.00881537 0.000998848)
(-0.00633856 -0.0149822 0.000792627)
(-0.00432869 -0.0215988 0.000492998)
(0.00476984 -0.041164 0.000243236)
(0.0171923 -0.0433566 0.000263245)
(0.0239132 -0.0372725 0.000262988)
(0.0230715 -0.0158345 0.000790635)
(0.01619 -0.00549461 0.000676777)
(0.0115526 0.00478965 0.00064777)
(0.0119624 0.0416763 0.000471373)
(-0.00171394 0.100203 0.00140259)
(-0.0170118 0.127877 0.000789853)
(0.00342855 0.106717 0.000333512)
(0.00724458 0.068511 0.000109899)
(-0.00455791 0.00908166 -0.000195329)
(-0.00720541 -0.00402426 0.000327409)
(-0.0139764 -0.0143204 0.000593157)
(-0.0281801 -0.0232705 0.000380958)
(-0.0287078 -0.038083 -0.000275265)
(-0.0264386 -0.0483217 -9.05921e-05)
(-0.0156008 -0.0463029 -0.000515278)
(-0.0064482 -0.0252798 -0.000492364)
(-0.002588 -0.0182354 -0.00018399)
(-0.00115237 -0.0126644 -0.0002491)
(0.00754343 -0.0062722 -0.000320535)
(0.0154531 -0.00440898 2.59438e-05)
(0.0154601 -0.00813219 0.000393967)
(0.0135229 -0.0131913 0.000416766)
(0.00629708 -0.0181489 0.000635977)
(0.00349063 -0.0268281 0.000520204)
(0.00383194 -0.0321702 0.000287909)
(0.00953705 -0.0550112 2.9293e-05)
(0.0194156 -0.0560457 0.000214485)
(0.0222094 -0.0442753 5.66991e-05)
(0.0167055 -0.0209588 0.000668349)
(0.00867421 -0.0119777 0.000291821)
(0.00767058 0.00309386 0.000175115)
(0.00525471 0.0476259 0.000144973)
(-0.00444796 0.10492 0.000998194)
(-0.016577 0.116644 0.0015534)
(0.00577762 0.115864 0.000573061)
(0.00899361 0.078664 0.000402844)
(-0.00166141 0.0130011 1.38483e-05)
(-0.0040132 -0.00129593 0.000520176)
(-0.00860054 -0.0132274 0.000723589)
(-0.0173236 -0.0229346 0.000740775)
(-0.0253187 -0.0435742 0.000701354)
(-0.0263977 -0.0573389 0.000295608)
(-0.0151883 -0.0549684 5.20996e-07)
(-0.00989938 -0.0242038 5.91709e-05)
(-0.00762678 -0.0175508 2.80251e-05)
(-0.00570041 -0.0137973 0.000312268)
(-0.0040716 -0.0119955 0.000123189)
(0.00369897 -0.0108578 0.000220294)
(0.00690289 -0.0127459 3.9883e-05)
(0.0107356 -0.0153552 0.000103996)
(0.00683171 -0.020247 0.000266461)
(0.00671248 -0.0302797 0.000117487)
(0.00764611 -0.0352647 0.000207503)
(0.0109963 -0.0618681 -4.33359e-05)
(0.0208162 -0.0620013 0.000267153)
(0.0171451 -0.0447552 0.000415295)
(0.00900175 -0.0208209 0.000691513)
(0.00197231 -0.0112493 0.000246809)
(0.00186906 0.00557536 0.00029348)
(0.0022699 0.0561184 6.84849e-05)
(-0.00682911 0.107881 0.000755624)
(-0.0125637 0.0797239 0.00280508)
(0.00630591 0.123999 0.000345654)
(0.00885438 0.0828897 0.00045843)
(-0.00204244 0.0113497 2.07079e-05)
(-0.00424453 -0.00557562 0.000263853)
(-0.0062817 -0.0172726 0.000214979)
(-0.00814906 -0.0246296 0.000218519)
(-0.0182578 -0.0483319 0.000692673)
(-0.0238762 -0.064908 0.000169708)
(-0.0132798 -0.062307 -0.0002661)
(-0.0104164 -0.0268346 7.51541e-05)
(-0.0101707 -0.021045 -6.03162e-06)
(-0.00859352 -0.0194625 0.000170714)
(-0.0091022 -0.0177622 1.28375e-06)
(-0.00407831 -0.0159527 -0.000154475)
(-0.00133737 -0.0132584 -0.00034309)
(0.00344668 -0.0111432 -0.000305295)
(0.00111036 -0.0159347 -0.000427609)
(0.00744498 -0.0291923 -0.000541631)
(0.00848644 -0.0350829 -0.000172675)
(0.00920717 -0.0673029 -0.000368549)
(0.0192749 -0.0679651 0.000209499)
(0.0111637 -0.046037 0.000787691)
(0.00143895 -0.0221353 0.000490379)
(-0.00193467 -0.013328 0.000256699)
(-0.0020657 -0.00134472 -9.65072e-06)
(-0.00024341 0.0614657 -6.54974e-05)
(-0.0088969 0.11109 0.000709666)
(-0.00669789 0.0476261 0.00149178)
(0.00665192 0.127643 0.000769798)
(0.0108679 0.0895524 0.000461584)
(-0.00280721 0.0145545 -4.82484e-05)
(-0.00553126 -0.00332573 -1.95583e-05)
(-0.00365359 -0.0131633 -0.000383559)
(-0.00337215 -0.0209031 8.62915e-05)
(-0.0109216 -0.0469093 0.000597828)
(-0.0191003 -0.0686555 0.000321112)
(-0.00939621 -0.0658343 -0.00030247)
(-0.00811023 -0.0256011 2.74745e-06)
(-0.0108939 -0.021752 -2.35405e-05)
(-0.00973149 -0.0196837 -0.00015611)
(-0.00887586 -0.0194812 -0.000176382)
(-0.00604874 -0.0164657 -6.23927e-05)
(-0.00620314 -0.0156436 0.000123403)
(-0.0020666 -0.0128426 7.34151e-05)
(-0.00379554 -0.0152828 -9.90896e-05)
(0.00473188 -0.0268439 -0.000469466)
(0.00293297 -0.0322772 9.43288e-05)
(0.00249269 -0.0701834 -0.000252373)
(0.0108655 -0.0712535 0.000364809)
(0.000990617 -0.0467376 0.00109915)
(-0.00661176 -0.0242908 0.000593221)
(-0.0063518 -0.0173167 0.00029599)
(-0.00535343 -0.00102573 -7.80626e-05)
(-0.00430904 0.0691018 -4.76856e-05)
(-0.0114345 0.110349 0.000637107)
(-0.00444998 0.0243576 0.000943608)
(0.00793659 0.129456 0.00152176)
(0.0141575 0.0982812 0.000510275)
(-0.00180975 0.023606 -0.000291785)
(-0.00310258 -0.00141057 -0.000359678)
(-0.000345031 -0.0109117 -0.000185982)
(0.000332233 -0.0226668 0.000355889)
(-0.00534241 -0.0486617 0.000690155)
(-0.0136167 -0.074064 0.00021591)
(-0.00348143 -0.0710023 -0.000293837)
(-0.00437254 -0.0237297 0.00032231)
(-0.010021 -0.0212248 -1.09262e-05)
(-0.00936658 -0.0180087 -2.31358e-05)
(-0.0097965 -0.01924 -0.000128592)
(-0.00810915 -0.0170022 -4.97297e-05)
(-0.00946309 -0.0183068 -4.8097e-05)
(-0.00416367 -0.0100717 -0.00050314)
(-0.00314264 -0.0133734 -0.000333417)
(0.00424762 -0.0172207 -0.000900256)
(-0.00316102 -0.0309887 0.000286604)
(-0.00455833 -0.0708316 -0.000343002)
(-2.3135e-05 -0.0745749 0.000289316)
(-0.00733653 -0.0515981 0.000879001)
(-0.0116131 -0.0303784 0.000288949)
(-0.00950999 -0.0223626 0.000132781)
(-0.00829147 -0.00417971 6.40157e-05)
(-0.00577573 0.0720505 0.000250369)
(-0.0120969 0.106539 0.000376468)
(-0.00324484 0.011198 0.000909505)
(0.00853896 0.125235 0.00222996)
(0.0181119 0.106724 0.00034187)
(0.00384133 0.0401839 -0.000453171)
(0.00116107 0.00534483 -0.000553089)
(0.000546145 -0.00987937 -0.00015018)
(0.0032239 -0.0273992 0.000204485)
(3.1981e-06 -0.0505887 0.000666504)
(-0.00612843 -0.0757532 0.000168804)
(0.000486979 -0.0747566 -6.26037e-05)
(0.000105245 -0.029642 0.00092771)
(-0.00748471 -0.0278068 0.000538058)
(-0.00551203 -0.0217554 0.000338948)
(-0.00670002 -0.0251394 0.000342547)
(-0.00562642 -0.0201323 0.000207704)
(-0.00525195 -0.024217 0.000164052)
(-0.00222048 -0.016628 0.000225291)
(0.0062588 -0.0182262 0.000207826)
(0.00203308 -0.0255406 0.00211703)
(-0.0138559 -0.0379683 0.00109519)
(-0.0124253 -0.0748274 0.000231386)
(-0.0103682 -0.0755628 0.000147281)
(-0.0127266 -0.0569671 0.000688883)
(-0.0141626 -0.0340023 0.000170891)
(-0.0101158 -0.0260963 0.000109973)
(-0.00964494 -0.0119342 0.000350036)
(-0.00595911 0.0658269 0.000943161)
(-0.00912643 0.10155 0.000302991)
(-0.0018617 0.00307991 0.00063127)
(0.00861674 0.0998619 0.00503925)
(0.0226729 0.108335 0.000324161)
(0.0138041 0.0578162 -0.00038667)
(0.00785892 0.0165009 -0.000555581)
(0.00162344 -0.00908945 -9.18651e-05)
(0.00700015 -0.0326938 0.000254358)
(0.00324369 -0.0545035 0.00059305)
(-0.000738797 -0.0781162 0.000139325)
(0.00140033 -0.0769881 -2.40014e-05)
(0.000535068 -0.0374306 0.000810031)
(-0.00208518 -0.0331207 0.000276755)
(-0.00174502 -0.0295085 0.000653727)
(-0.00257435 -0.0305844 0.000249889)
(-0.00258981 -0.0270953 0.000595018)
(-0.00361926 -0.029312 0.000256403)
(-0.00213554 -0.0261405 0.000413411)
(-0.00267394 -0.0280592 0.000509463)
(-0.0021336 -0.0363905 0.000407322)
(-0.0116269 -0.0443104 0.00106005)
(-0.0148863 -0.0757134 -0.000563187)
(-0.0146281 -0.075136 1.21051e-05)
(-0.0150888 -0.0640998 0.000248859)
(-0.0129752 -0.0402746 0.000198803)
(-0.00835691 -0.0314352 0.000154188)
(-0.00913073 -0.0211357 0.00052654)
(-0.00639528 0.0379836 0.00205828)
(-0.00234867 0.0914454 0.000543978)
(-0.000633113 -0.00225285 0.000223332)
(0.00730969 0.0360179 0.0048048)
(0.0239087 0.104034 0.000627645)
(0.019348 0.0687362 -0.000255817)
(0.014129 0.0292001 -0.000338984)
(0.00388679 -0.011255 0.000202319)
(0.0103648 -0.0383902 0.000372376)
(0.00586094 -0.0563653 0.000529944)
(0.00588072 -0.0753173 -6.71107e-05)
(0.00085969 -0.0750098 -6.71419e-05)
(0.000516083 -0.0374228 -9.14256e-05)
(0.000697238 -0.0351277 -1.56233e-05)
(-0.000576292 -0.0299448 -0.000117928)
(-0.0012785 -0.0325907 -2.66696e-05)
(-0.00158196 -0.0275197 -0.000117005)
(-0.00248878 -0.0313783 -2.93267e-05)
(-0.0032572 -0.0258818 -5.42022e-05)
(-0.00339743 -0.0271312 -0.000154114)
(-0.00790464 -0.0332516 6.08149e-05)
(-0.011785 -0.0384539 -0.000243873)
(-0.0160846 -0.062275 -0.000657289)
(-0.0222501 -0.0674815 -0.000417924)
(-0.0163701 -0.0665782 -0.000456184)
(-0.00777579 -0.0488641 6.13439e-05)
(-0.00549043 -0.0373328 0.000192592)
(-0.00590723 -0.0275845 0.000394788)
(-0.00437679 0.00624849 0.000309765)
(0.0005623 0.0718777 0.00123945)
(0.000215737 -0.00514785 0.000121837)
(0.00311436 0.00478247 0.00133451)
(0.020303 0.0958832 -0.000142274)
(0.0177908 0.0732735 -0.000147716)
(0.0146468 0.0376438 0.000221165)
(0.00509119 -0.0197563 0.000485881)
(0.00936661 -0.0441981 0.000205964)
(0.00848471 -0.0593816 0.000180459)
(0.0132916 -0.0716004 -0.000244522)
(0.00714692 -0.0682553 -0.000120819)
(0.0024791 -0.0378996 -0.000158757)
(0.00368592 -0.0331646 2.42716e-05)
(0.000271709 -0.0301952 -2.36879e-05)
(2.3232e-05 -0.0314774 -1.2498e-05)
(-0.00099833 -0.0284141 -9.87338e-06)
(-0.00177744 -0.0298732 -1.63551e-05)
(-0.00296677 -0.0269115 -1.06681e-05)
(-0.00422741 -0.0263816 -5.25333e-05)
(-0.00969625 -0.0280036 2.8712e-05)
(-0.0138211 -0.0325621 -0.000328103)
(-0.0228465 -0.0489812 -0.000743444)
(-0.0301277 -0.0546628 -0.00072588)
(-0.0234931 -0.0604252 -0.00201538)
(-0.00415533 -0.0535871 -0.000323941)
(-0.00126956 -0.0403608 -0.000101791)
(-0.000798768 -0.0298272 8.17316e-05)
(-0.00131661 -0.00565254 0.000412669)
(0.000604952 0.0443713 0.00083504)
(7.20709e-05 -0.00638047 3.14851e-05)
(-0.00132817 -0.00399852 0.000727589)
(0.0092399 0.0892536 -0.000279376)
(0.0126059 0.0744543 -0.000219652)
(0.0113106 0.0366716 0.00117177)
(0.00494795 -0.0277377 0.000289708)
(0.00521174 -0.0475584 5.9481e-05)
(0.0112152 -0.0620373 -0.000441079)
(0.0213822 -0.0640033 -0.000500144)
(0.0111798 -0.0584117 -8.22579e-05)
(0.00378362 -0.0301408 -0.00020565)
(0.00446112 -0.0312977 2.8813e-05)
(0.000567659 -0.025534 -2.74759e-05)
(0.000567071 -0.0313613 -2.48724e-05)
(-9.04591e-05 -0.024564 -1.83392e-05)
(-0.000429721 -0.0296457 -2.51024e-05)
(-0.00119162 -0.0221841 -2.81777e-06)
(-0.00215134 -0.0202485 -4.73902e-05)
(-0.00720942 -0.0217345 2.47919e-05)
(-0.00832468 -0.0163677 -0.000474827)
(-0.0215183 -0.0294993 -0.000330507)
(-0.0338174 -0.0394568 -8.50224e-05)
(-0.0354146 -0.044052 -0.00157983)
(-0.0101664 -0.0520394 -0.00205272)
(0.00550905 -0.0399086 -0.000437695)
(0.00419839 -0.0279111 -0.000167668)
(0.00286596 -0.00827941 0.000136281)
(0.00100701 0.0296999 0.000394419)
(-0.000537069 -0.00594924 -0.000118565)
(-0.00293629 -0.00133096 -0.000135097)
(-0.000969017 0.0792441 9.10918e-05)
(0.00462832 0.0722501 6.28859e-05)
(0.00277406 0.0199409 0.00140684)
(0.00346446 -0.0302903 -2.41338e-06)
(-0.000158258 -0.0503454 -0.000111324)
(0.017421 -0.0593944 -0.00181938)
(0.0299677 -0.053903 -0.000282723)
(0.0152374 -0.0447435 -0.000156851)
(0.00328962 -0.0271615 -0.000478905)
(0.00408393 -0.028439 -3.55927e-05)
(6.79217e-05 -0.0267607 -9.39849e-05)
(0.000606571 -0.0313915 -3.89939e-05)
(0.000762613 -0.0273634 -5.36004e-05)
(0.000939212 -0.029803 -4.31842e-05)
(0.00160783 -0.0253097 -4.80154e-05)
(0.00167631 -0.0214274 -8.36693e-05)
(-0.0013996 -0.0199626 -2.28302e-05)
(0.00121269 -0.0119277 -0.000268096)
(-0.0110419 -0.0158658 0.000592063)
(-0.0326675 -0.0319066 0.00061126)
(-0.0400416 -0.0356168 -0.000251084)
(-0.0257005 -0.0375992 -0.00269759)
(0.00727115 -0.0363263 -0.00156784)
(0.00889711 -0.0220738 -0.000588784)
(0.0078713 -0.00585208 -0.000114709)
(0.00349831 0.0280573 0.000107636)
(0.000560435 -0.00320418 -0.000241882)
(-0.00304823 0.00335937 -0.000314523)
(-0.00676084 0.0647209 0.00076718)
(-0.00283926 0.063756 0.000889187)
(-0.00525956 0.00153657 0.000288173)
(-0.00290503 -0.0268204 -0.00061945)
(9.05416e-05 -0.049442 -0.00119252)
(0.0242043 -0.0452705 -0.00217451)
(0.0335991 -0.0400906 -0.000182231)
(0.0136436 -0.0284713 0.000322404)
(-0.00230319 -0.0165557 0.000111888)
(-0.000283721 -0.0272662 6.13416e-06)
(-0.00237843 -0.0251573 0.000340361)
(-0.000691067 -0.0334236 -1.75141e-05)
(0.00131818 -0.027654 0.000391908)
(0.00212523 -0.0316596 -2.09392e-05)
(0.00468429 -0.0255027 0.000301112)
(0.00460237 -0.0207593 0.00034734)
(0.00609327 -0.0204997 7.12159e-06)
(0.0088675 -0.00707228 0.00017614)
(-7.2642e-05 -0.00914298 0.000978298)
(-0.0220595 -0.0286233 0.00103753)
(-0.0314955 -0.0313095 0.000512452)
(-0.0313244 -0.0293792 -0.00112997)
(0.000367393 -0.0247351 -0.00300034)
(0.0142007 -0.012117 -0.000978851)
(0.0130545 0.00151803 -0.000543612)
(0.00682771 0.0315305 -6.08071e-05)
(0.00247572 0.00263 -0.000285584)
(-0.00248534 0.00875969 -0.000178212)
(-0.00837032 0.0480078 0.000369587)
(-0.0104536 0.0466392 0.000694781)
(-0.00999065 0.00252001 -0.000491238)
(-0.0118513 -0.0221156 -0.00074773)
(0.00736659 -0.0342765 -0.00317195)
(0.0301217 -0.0343609 -0.000686885)
(0.0247711 -0.0300252 0.000741398)
(-0.00525083 -0.0164871 0.00119579)
(-0.0129989 -0.0146694 -0.000332388)
(-0.00864737 -0.0277322 1.91438e-05)
(-0.00614659 -0.0270347 -0.000375849)
(-0.00327862 -0.0360359 -6.65114e-06)
(0.00196144 -0.0307622 -0.000359882)
(0.00312262 -0.0357527 0.000402527)
(0.003946 -0.0288851 -0.000417586)
(0.0131527 -0.0262829 -0.000269933)
(0.015737 -0.025104 0.000368986)
(0.0186394 -0.00988493 -0.000147969)
(0.0149436 -0.00570072 0.00127949)
(-0.00566306 -0.0292528 0.000827292)
(-0.0110339 -0.0330675 0.000617604)
(-0.0200726 -0.0256026 -5.8276e-05)
(-0.00691157 -0.0142883 -0.00244196)
(0.0150205 0.0014083 -0.00204485)
(0.017377 0.0139448 -0.000818701)
(0.0103463 0.0397802 -0.000139038)
(0.00372061 0.0115455 -0.000279744)
(-0.00148552 0.0150573 -6.20867e-05)
(-0.0086868 0.0421883 0.000236664)
(-0.0154162 0.036365 0.000176866)
(-0.017872 0.0121642 -0.00101552)
(-0.0134899 -0.0105854 -0.00277474)
(0.015399 -0.0178848 -0.00209678)
(0.0182496 -0.0285954 0.000365923)
(0.00614174 -0.0298443 0.00121791)
(-0.0191135 -0.0157777 0.00147652)
(-0.024726 -0.0189628 0.000296325)
(-0.017108 -0.031651 0.00019198)
(-0.0115168 -0.031003 0.000186931)
(-0.00650908 -0.0394295 8.05771e-05)
(-0.00185945 -0.0340927 0.000158209)
(0.00330358 -0.0375312 4.32463e-05)
(0.01094 -0.034355 0.000244547)
(0.0151808 -0.0308836 2.59954e-05)
(0.022337 -0.0290385 0.000182339)
(0.0334991 -0.0163358 0.000707257)
(0.0262821 -0.0079306 0.00161423)
(0.010373 -0.0328456 0.000673558)
(0.0110875 -0.037086 0.000366216)
(0.00598073 -0.0266544 8.52654e-05)
(0.000244271 -0.00507283 -0.000884567)
(0.0121509 0.0179987 -0.00220737)
(0.0193083 0.0293576 -0.000929466)
(0.0122605 0.0502145 -0.000224469)
(0.00405664 0.0227592 -0.000218172)
(-6.20435e-05 0.0201108 -0.000176138)
(-0.00870684 0.0453739 0.000180191)
(-0.0169087 0.0404744 -6.27576e-05)
(-0.0225624 0.0257409 -0.00113471)
(-0.0113806 0.00678528 -0.00292937)
(0.00181929 -0.00909433 -0.000489258)
(-0.011144 -0.0287026 0.000302916)
(-0.0166679 -0.0294646 0.000755363)
(-0.0328031 -0.012024 0.0020068)
(-0.0371899 -0.0264355 0.000617685)
(-0.0259058 -0.039556 -9.52422e-05)
(-0.0159842 -0.0380487 0.000463878)
(-0.00992067 -0.045218 -6.21764e-05)
(-0.00471952 -0.039996 0.000521734)
(0.00363282 -0.046846 -0.000429429)
(0.0148574 -0.0411181 0.000348831)
(0.018401 -0.0384818 0.00061306)
(0.0327877 -0.0430791 -0.000443525)
(0.0509051 -0.0297457 0.00105445)
(0.044246 -0.0138973 0.00329977)
(0.027604 -0.03555 0.000211832)
(0.0338727 -0.0376241 0.00036867)
(0.0296502 -0.025616 0.000454661)
(0.014895 -0.00102125 5.25583e-05)
(0.01179 0.0313951 -0.000907264)
(0.0163022 0.0454062 -0.00080027)
(0.010973 0.0641122 -0.000154992)
(0.00301848 0.0346179 -9.92464e-05)
(0.00132689 0.023137 -0.000186336)
(-0.00658647 0.0533142 0.000149266)
(-0.0158413 0.0530025 -0.000369044)
(-0.0184743 0.0433712 -0.00129057)
(-0.0113555 0.0265951 -0.00125663)
(-0.0161145 -0.00340514 0.000284594)
(-0.0324961 -0.027655 0.000575807)
(-0.0374903 -0.0411452 0.00106951)
(-0.0607348 -0.0443015 0.0042217)
(-0.0618111 -0.047456 5.30857e-05)
(-0.034398 -0.0508614 -0.00028301)
(-0.0224158 -0.0469016 -0.000599263)
(-0.0122241 -0.0498443 -0.000236605)
(-0.00445632 -0.0462518 -0.00058856)
(0.0040919 -0.0488727 -0.000244281)
(0.0113353 -0.0480592 -0.00070053)
(0.0273484 -0.0509582 -0.000384856)
(0.0408886 -0.0564471 -0.00028238)
(0.0744509 -0.0571574 0.000402371)
(0.0717348 -0.0576406 0.00539109)
(0.0489644 -0.0522071 0.000744535)
(0.0514363 -0.0434514 0.000382365)
(0.0424785 -0.0240976 0.00093984)
(0.020942 0.00954013 0.000393461)
(0.0110337 0.0418027 -0.000111794)
(0.011114 0.058153 -0.000491112)
(0.0068473 0.0743049 0.000102188)
(-0.000319853 0.0429921 -1.91417e-06)
(0.00119543 0.0247968 -7.65389e-05)
(-0.00314682 0.062583 -3.09456e-07)
(-0.010894 0.0660585 -0.000221757)
(-0.0123236 0.0575867 -0.000689843)
(-0.010482 0.0358005 0.000175576)
(-0.026083 0.00319673 0.000834331)
(-0.0453034 -0.0223837 0.00072167)
(-0.0606078 -0.0374438 0.000288478)
(-0.0777272 -0.0445134 0.000654395)
(-0.0729518 -0.0318723 -0.00407778)
(-0.0382254 -0.0278982 -0.00344581)
(-0.0295867 -0.0224742 -0.00354925)
(-0.013514 -0.0220615 -0.00340279)
(-0.00729722 -0.0203553 -0.00352657)
(0.00391375 -0.021776 -0.00344124)
(0.0105919 -0.0222213 -0.00365164)
(0.0295171 -0.0258777 -0.00384827)
(0.0386042 -0.0343042 -0.0038478)
(0.0793015 -0.0389853 -0.00521007)
(0.0899496 -0.0589061 0.000624535)
(0.0741269 -0.0509072 0.000326259)
(0.0617459 -0.0391437 0.00080895)
(0.0450681 -0.0207512 0.00133715)
(0.0205294 0.0120186 0.00119981)
(0.00679128 0.0469196 0.000812697)
(0.00356117 0.068103 2.36332e-05)
(0.00107169 0.0844857 9.98128e-05)
(-0.00345989 0.0430417 3.0873e-05)
(0.00195432 0.0222691 0.000132972)
(0.00315412 0.0649272 0.000145346)
(-0.000323789 0.0755734 3.77101e-05)
(-0.00282843 0.0643998 0.000171283)
(-0.00764394 0.037643 0.000874232)
(-0.0244938 0.00793108 0.000742195)
(-0.0414277 -0.0121862 0.000693885)
(-0.0522885 -0.0224139 0.000420254)
(-0.0582461 -0.0223957 0.000390428)
(-0.0496159 0.00407526 -0.000523791)
(-0.0292313 0.00684023 -0.000394021)
(-0.0217101 0.0167648 -0.000472897)
(-0.0104773 0.0152485 -0.000353018)
(-0.00502363 0.0199172 -0.000273477)
(0.00327592 0.0181384 -0.000323253)
(0.00895117 0.0161001 -0.000399543)
(0.022012 0.0159519 -0.000589383)
(0.0300807 0.00283315 -0.000548967)
(0.0554957 -0.000188339 -0.000972861)
(0.0696325 -0.0348644 0.000388078)
(0.0637921 -0.0373704 0.00050991)
(0.0502443 -0.029026 0.000862865)
(0.029864 -0.0142625 0.000849463)
(0.0117911 0.0101939 0.0013801)
(-0.00166908 0.0437147 0.00138818)
(-0.00792455 0.070065 0.000657446)
(-0.00769124 0.0837537 0.000426113)
(-0.00501689 0.0350996 0.000282223)
(0.0031828 0.0140531 0.00036522)
(0.00573361 0.0605302 0.000427734)
(0.00918912 0.0789241 -3.35573e-05)
(0.008907 0.0698299 0.000375666)
(-9.56936e-05 0.0391225 0.00090519)
(-0.0149578 0.0094932 0.000923843)
(-0.03299 -0.0156725 0.00139591)
(-0.050926 -0.0299814 0.00109476)
(-0.0549333 -0.0363373 0.000491711)
(-0.0442446 -0.0293024 -5.57614e-05)
(-0.0283525 -0.0206639 -6.28361e-06)
(-0.0190935 -0.0158093 0.000198626)
(-0.01003 -0.0145189 0.000274148)
(-0.00441273 -0.0127128 0.000315573)
(0.00306097 -0.0132834 0.000321983)
(0.00876157 -0.0151406 0.00026907)
(0.0188843 -0.017263 0.000165228)
(0.028938 -0.0239911 -0.000117485)
(0.047841 -0.0353287 -0.000142843)
(0.0609256 -0.0508445 0.000568451)
(0.056656 -0.0456289 0.00126193)
(0.0356461 -0.0319366 0.00161303)
(0.0139192 -0.0097003 0.00061498)
(0.000656832 0.00926075 0.000794055)
(-0.00975781 0.0389778 0.00084151)
(-0.0144928 0.0658004 0.000464107)
(-0.0114306 0.0765079 0.000377861)
(-0.00450791 0.0165625 0.000296152)
(0.00650329 0.00303579 0.000282071)
(0.0117099 0.0430929 0.000949072)
(0.01905 0.0713645 0.000437667)
(0.0224446 0.0662585 0.0008883)
(0.0145639 0.0405234 0.00144131)
(-0.00166008 0.0102635 0.00151821)
(-0.0171114 -0.0161877 0.00123577)
(-0.0393727 -0.0307968 0.00149194)
(-0.0456506 -0.038815 0.000515383)
(-0.0361008 -0.0347706 -9.79433e-05)
(-0.023583 -0.0222623 -0.000135635)
(-0.0145172 -0.0152026 -0.000113645)
(-0.00824837 -0.0122246 -8.6291e-05)
(-0.00326928 -0.0100075 -0.000100479)
(0.0020289 -0.0106256 -8.49238e-05)
(0.00717637 -0.0130749 -0.000104691)
(0.0135612 -0.0176265 -0.00010048)
(0.0237771 -0.0263499 -0.000204582)
(0.0378148 -0.043314 -0.000168255)
(0.0496005 -0.0538661 0.000549968)
(0.0428089 -0.0461951 0.00171685)
(0.0158163 -0.0287906 0.00118629)
(-0.0001241 -0.00317194 0.00136936)
(-0.0109975 0.00951012 0.000914351)
(-0.0179405 0.0360759 0.00097922)
(-0.0196479 0.0565145 0.000654759)
(-0.0151126 0.0619475 0.000651381)
(-0.00568378 0.00422955 0.000282159)
(0.0096006 -0.00836271 -0.000181632)
(0.0185706 0.0208354 0.000996059)
(0.0248853 0.0571827 0.000520303)
(0.0275187 0.0562361 0.000748314)
(0.022465 0.0368086 0.000980851)
(0.00685524 0.00728019 0.000828059)
(0.00219125 -0.0137448 0.000411461)
(-0.0235121 -0.0343499 0.00150644)
(-0.0352441 -0.0494968 0.000620172)
(-0.0292105 -0.0469838 -1.65443e-05)
(-0.0191576 -0.0324274 -0.000153262)
(-0.0116968 -0.0234945 -0.000113933)
(-0.00630512 -0.0186007 -6.78605e-05)
(-0.00246441 -0.0161439 -4.55824e-05)
(0.00151511 -0.0166154 -4.53489e-05)
(0.00542038 -0.0195479 -6.42722e-05)
(0.0108069 -0.0259588 -0.000117366)
(0.0190518 -0.0368678 -0.000186945)
(0.0296023 -0.0558204 -4.38697e-05)
(0.0366265 -0.0657099 0.000676116)
(0.0238723 -0.0507177 0.00198353)
(-0.00637079 -0.0216719 3.97053e-05)
(-0.00685493 -0.00431233 0.000334517)
(-0.0146018 0.00534521 0.000336378)
(-0.0184995 0.0294196 0.000519331)
(-0.0198769 0.0454591 0.000450904)
(-0.0173424 0.0476164 0.000499036)
(-0.00632923 -0.00415951 7.30576e-05)
(0.0113756 -0.0145629 -0.000874768)
(0.0231988 0.00917862 0.000324021)
(0.02777 0.0491692 0.000192475)
(0.028264 0.0510801 0.000521952)
(0.0250757 0.0355722 0.000729971)
(0.0114709 0.00838852 0.000686573)
(0.013588 -0.00506704 0.000278479)
(-0.0107004 -0.0322648 0.00159098)
(-0.0235721 -0.0548035 0.000790192)
(-0.0193096 -0.0509694 -2.72694e-05)
(-0.0127646 -0.0355008 -0.000131589)
(-0.00725646 -0.0253728 -0.000101487)
(-0.00388651 -0.0198408 -7.63884e-05)
(-0.00148716 -0.0172948 -7.45772e-05)
(0.000807123 -0.0176482 -7.33343e-05)
(0.00319422 -0.0208802 -8.33803e-05)
(0.00644588 -0.0277168 -0.000110598)
(0.0121113 -0.0397764 -0.000169776)
(0.018737 -0.0590182 -7.67033e-05)
(0.0228829 -0.0700954 0.000758171)
(0.00914043 -0.0499331 0.00197585)
(-0.0146611 -0.0123036 -6.91331e-05)
(-0.00845484 -0.00220946 0.000250906)
(-0.0163733 0.00734642 0.000262421)
(-0.0175565 0.0270556 0.000375783)
(-0.0179896 0.0393054 0.000130601)
(-0.0155676 0.0376488 0.000182388)
(-0.00526077 -0.0135949 -0.000124731)
(0.0106173 -0.0068697 -0.00131995)
(0.0245204 0.0143249 -0.000627581)
(0.0272473 0.0514215 -0.000310545)
(0.0264296 0.0516211 0.000146777)
(0.023256 0.0352791 0.000362026)
(0.0125449 0.00695771 0.000315944)
(0.015472 -0.00246888 -0.00011396)
(-0.000252842 -0.0315078 0.000896203)
(-0.0100867 -0.0592254 0.000468547)
(-0.00906726 -0.0525762 -1.03456e-05)
(-0.00629735 -0.0370062 -9.97106e-05)
(-0.00371189 -0.02628 -0.00010004)
(-0.00190288 -0.0200639 -8.14791e-05)
(-0.000708383 -0.0172631 -6.58291e-05)
(0.000397761 -0.0175312 -6.65737e-05)
(0.00157292 -0.0208394 -8.47303e-05)
(0.00326177 -0.0281207 -0.00010569)
(0.00583192 -0.0402662 -0.000104136)
(0.00826576 -0.0587623 1.14626e-05)
(0.00868617 -0.0718044 0.000396151)
(0.00107411 -0.0501279 0.000861082)
(-0.0129013 -0.00869087 -0.00038856)
(-0.00753789 -0.00295619 -1.32381e-05)
(-0.0138468 0.00849857 1.85441e-05)
(-0.0149901 0.0249059 0.000123452)
(-0.0153297 0.0379991 -0.000217406)
(-0.00951498 0.0380123 -0.000463783)
(-0.00134276 -0.0232193 0.000127844)
(0.00384627 -0.00348636 -0.000322038)
(0.0128951 0.0244487 -0.000175171)
(0.0134533 0.0608069 -0.00035353)
(0.0145458 0.0551745 -0.000169286)
(0.0139966 0.0369315 -0.000101488)
(0.0108855 0.0111263 7.72988e-05)
(0.0106023 0.00412052 -3.49671e-05)
(0.00330478 -0.0263942 0.000467105)
(-0.0018672 -0.0535744 3.09664e-05)
(-0.00218558 -0.0459059 -8.94716e-05)
(-0.00174972 -0.0314147 -0.000181881)
(-0.00105589 -0.0218283 -0.00018789)
(-0.000580778 -0.016544 -0.000170948)
(-0.00021181 -0.0142099 -0.000157591)
(0.000112288 -0.0143905 -0.000157755)
(0.000483395 -0.0170587 -0.000173762)
(0.000968456 -0.0229997 -0.000188099)
(0.00166445 -0.0339047 -0.000170485)
(0.00206424 -0.0508286 -6.88923e-05)
(0.00186369 -0.0640414 2.56841e-05)
(-0.000697339 -0.0455682 -3.61672e-05)
(-0.00790229 -0.00322204 -1.6061e-06)
(-0.00696538 0.00161239 3.03011e-05)
(-0.00894075 0.0132495 6.73678e-06)
(-0.00929787 0.0255952 -6.16654e-05)
(-0.00927292 0.0351934 -2.99432e-05)
(-0.00476773 0.0339926 -9.86619e-05)
(-0.000245692 -0.0301963 1.35518e-05)
(-0.0113099 0.00778378 -0.00232766)
(-0.0296904 -0.00167075 -0.000191213)
(-0.0421565 -0.00398455 0.00222807)
(-0.0517611 -0.00977471 0.00115324)
(-0.0811803 -0.0017972 -0.000754045)
(-0.0923202 0.00316301 -0.000948695)
(-0.0849076 0.00272086 0.000696625)
(-0.0602083 -0.00301305 0.000446762)
(-0.0311652 -0.00594751 0.000599374)
(-0.0151116 -0.00460095 0.00165958)
(-0.0121704 -0.00182158 0.00257833)
(-0.0196449 0.00334493 0.00210805)
(-0.0294899 0.00404567 0.0015645)
(-0.0344604 0.0059279 0.00134507)
(-0.0374359 0.00959163 0.000662476)
(-0.038279 0.0129676 -4.1856e-05)
(-0.0381348 0.0128654 -0.00076003)
(-0.0282742 0.0102456 -0.00158424)
(-0.0146547 0.00726179 -0.00199217)
(0.0118207 0.00265609 -0.00270585)
(0.0488871 0.00268848 -0.0019644)
(0.076569 0.00654269 -0.000841273)
(0.0822983 0.0125406 0.000292975)
(0.0760303 0.0151233 0.00067313)
(0.0636071 0.0131908 2.62156e-05)
(0.0515174 0.0122737 -0.00195422)
(0.027171 0.00766908 -0.004404)
(0.00725622 0.00950557 -0.00465855)