/*--------------------------------*- C++ -*----------------------------------*\
| =========                 |                                                 |
| \\      /  F ield         | OpenFOAM: The Open Source CFD Toolbox           |
|  \\    /   O peration     | Version:  2.3.0                                 |
|   \\  /    A nd           | Web:      www.OpenFOAM.org                      |
|    \\/     M anipulation  |                                                 |
\*---------------------------------------------------------------------------*/
FoamFile
{
    version     2.0;
    format      ascii;
    class       volScalarField;
    location    "0.74";
    object      nut.particles;
}
// * * * * * * * * * * * * * * * * * * * * * * * * * * * * * * * * * * * * * //

dimensions      [0 2 -1 0 0 0 0];

internalField   nonuniform List<scalar> 
6000
(
1.38126e-05
1.21229e-05
1.35385e-05
1.60276e-05
1.72346e-05
1.35523e-05
1.02048e-05
1.06067e-05
1.20235e-05
1.13589e-05
1.15206e-05
1.31083e-05
1.49669e-05
1.65161e-05
1.46557e-05
1.21013e-05
1.13124e-05
1.37752e-05
1.33958e-05
1.17667e-05
1.06202e-05
1.01856e-05
1.13509e-05
1.11566e-05
1.06079e-05
9.87205e-06
9.28923e-06
1.13598e-05
1.41838e-05
1.51065e-05
1.47266e-06
2.67261e-06
2.61152e-06
1.74239e-06
1.02733e-06
1.11595e-06
1.3036e-06
1.53839e-06
1.40321e-06
1.63164e-06
1.95247e-06
1.67588e-06
1.6726e-06
1.44921e-06
1.56631e-06
2.16155e-06
2.54444e-06
1.95206e-06
1.72191e-06
1.51836e-06
1.56029e-06
1.61171e-06
1.70683e-06
1.71247e-06
1.7039e-06
1.4953e-06
1.34742e-06
1.4204e-06
1.78192e-06
2.21872e-06
2.75065e-06
3.33016e-06
2.58326e-06
1.17707e-06
6.35653e-07
2.79567e-07
1.42336e-07
9.49156e-08
3.13654e-07
5.16284e-07
7.8923e-07
6.46763e-07
3.04541e-07
5.17692e-07
8.96703e-07
3.6221e-06
7.19879e-06
2.52249e-06
7.34011e-07
3.93856e-07
1.75014e-07
2.06257e-07
1.597e-07
2.39542e-07
3.49649e-07
5.06764e-07
3.62543e-07
5.85375e-07
1.52537e-06
3.83914e-06
1.17853e-06
5.54705e-07
2.84751e-07
2.8839e-07
3.39198e-07
3.13215e-07
3.27955e-07
3.23923e-07
3.1281e-07
2.50298e-07
2.38246e-07
2.26937e-07
3.84087e-07
4.55842e-07
4.51357e-07
2.62045e-06
7.70508e-06
1.51112e-06
4.20097e-07
4.06203e-07
4.18819e-07
4.01735e-07
3.38662e-07
3.8283e-07
4.53085e-07
4.48507e-07
4.55847e-07
5.86451e-07
7.10247e-07
3.31076e-06
7.6864e-07
1.32191e-06
4.71933e-07
3.52563e-07
2.64189e-07
2.6973e-07
2.71209e-07
2.48846e-07
2.55788e-07
2.33731e-07
2.21467e-07
2.88455e-07
3.66353e-07
4.72775e-07
5.53505e-07
4.37013e-06
7.88571e-06
8.41247e-07
5.20663e-07
4.2142e-07
4.14243e-07
3.12432e-07
4.64399e-07
9.98906e-07
9.90168e-07
6.96269e-07
5.93109e-07
4.83532e-07
8.24709e-07
3.44589e-06
6.58738e-07
5.38659e-06
1.44038e-06
6.16537e-07
2.88554e-07
3.10253e-07
3.15701e-07
2.89514e-07
3.03034e-07
3.70348e-07
3.86099e-07
5.09237e-07
5.16986e-07
6.18003e-07
1.37526e-06
6.38984e-06
4.97837e-06
4.38551e-07
4.73138e-07
6.32681e-07
1.08914e-06
1.17626e-06
2.14964e-06
1.03884e-05
5.8097e-05
3.30186e-06
1.3926e-06
8.90336e-07
8.10384e-07
4.087e-06
9.44838e-07
0.000146756
6.9703e-06
1.34956e-06
5.38347e-07
3.37896e-07
3.65824e-07
4.16526e-07
5.56886e-07
7.49847e-07
6.99115e-07
6.70122e-07
7.10671e-07
9.66387e-07
3.77385e-06
4.91507e-06
1.26177e-06
4.33505e-07
5.07871e-07
1.83824e-06
1.8435e-05
0.000254435
0.000751597
0.00096795
0.00099283
0.000967596
0.000372163
9.47664e-07
6.25453e-07
4.91591e-06
3.86693e-05
0.00369915
0.0016844
6.53799e-06
1.13878e-06
5.80048e-07
4.77647e-07
5.25747e-07
8.31193e-07
1.16037e-06
1.36134e-06
9.56978e-07
7.58621e-07
1.12708e-06
6.11981e-06
0.000124156
5.91909e-07
5.71261e-07
1.57875e-06
0.000281284
0.000969518
0.000996556
0.000975646
0.00100468
0.000984755
0.00101284
0.000984728
0.000980134
9.41925e-06
9.8528e-06
0.00605612
0.0075447
0.007546
0.00285946
4.99037e-06
9.25697e-07
9.08284e-07
1.15713e-05
0.000917301
0.00105407
0.000745561
3.91697e-05
5.05314e-07
2.58139e-05
0.001063
0.00107616
0.000240031
9.91673e-05
0.000714114
0.000975466
0.00100634
0.000984096
0.00100767
2.82892e-05
1.37007e-05
1.04134e-05
1.7417e-05
3.16689e-05
3.75859e-05
3.19514e-05
0.00760405
0.00763347
0.00756817
0.00756066
0.00374878
1.93138e-06
1.84986e-06
0.000824315
0.00114951
0.00107572
0.00115394
0.00107149
0.00108516
0.00106948
0.00111853
0.00106937
0.00109708
0.00029868
3.12573e-05
2.37884e-05
2.07825e-05
1.72602e-05
9.0261e-06
2.38416e-06
5.42847e-07
3.13767e-07
8.57635e-07
2.57668e-06
6.25905e-06
9.03116e-06
0.00764446
0.00759448
0.00760733
0.00755106
0.00754109
0.00359268
5.36021e-05
0.000211312
0.00108325
0.00116376
0.00108668
0.00116436
0.00107905
0.00115093
0.00107674
0.00114696
5.61882e-05
1.73641e-05
5.48149e-06
2.44432e-06
1.6743e-06
1.18948e-06
1.15392e-07
1.45773e-07
1.49067e-07
9.40167e-08
5.26282e-08
3.25473e-08
3.77431e-08
8.45499e-07
0.00751894
0.00262539
0.0023038
0.00571916
0.00750368
0.00745428
0.000911932
7.12946e-06
1.71095e-05
1.32617e-05
1.2699e-05
1.65981e-05
3.60578e-05
0.00108352
0.000754702
2.67804e-05
7.70441e-06
1.8318e-06
2.64462e-07
8.26755e-08
6.02677e-08
9.43873e-08
2.36904e-07
3.11794e-07
2.52832e-07
1.4866e-07
8.40849e-08
5.53372e-08
4.63746e-08
4.43303e-07
2.98056e-05
1.84444e-05
2.59203e-05
0.000923322
0.00648025
0.00744433
0.00337873
8.65529e-06
1.83755e-06
4.67914e-07
7.14898e-07
1.13688e-06
3.69068e-06
7.78174e-06
6.26991e-06
2.68223e-06
5.08624e-07
8.03953e-08
1.4286e-07
1.18235e-07
6.25089e-08
1.75213e-07
5.90186e-07
6.41559e-07
4.04847e-07
2.43269e-07
1.4424e-07
8.86189e-08
6.58078e-08
4.41162e-07
4.13165e-06
2.87365e-06
6.28532e-06
1.51024e-05
5.11693e-05
0.00723634
0.00730803
1.69272e-05
7.18229e-07
1.52059e-07
7.13198e-08
8.94456e-08
1.37659e-07
4.48376e-07
3.14319e-07
8.96207e-08
7.58709e-08
1.47021e-07
1.45814e-07
1.12784e-07
8.06987e-08
3.13136e-07
1.04159e-06
1.13582e-06
6.94297e-07
3.94418e-07
2.24928e-07
1.45398e-07
1.165e-07
5.10708e-07
6.33673e-07
4.17035e-08
4.03749e-07
1.38916e-06
6.64532e-06
3.48412e-05
0.00690251
8.14219e-05
5.3447e-07
2.59696e-07
1.37299e-07
1.29167e-07
1.88532e-07
2.7436e-07
1.93286e-07
1.17858e-07
1.15465e-07
1.54687e-07
1.52035e-07
8.91961e-08
1.11785e-07
4.56305e-07
1.37827e-06
1.68406e-06
1.17532e-06
6.06041e-07
3.45546e-07
2.29899e-07
2.11408e-07
6.49267e-07
2.91327e-07
2.38965e-08
1.87804e-08
2.06884e-08
2.43041e-07
4.59892e-06
3.02941e-05
7.66512e-05
8.53874e-07
5.28605e-07
2.37702e-07
2.1233e-07
2.44693e-07
3.07297e-07
1.8746e-07
1.1489e-07
1.17513e-07
1.72561e-07
1.42611e-07
8.84872e-08
2.01093e-07
8.0488e-07
1.78543e-06
2.00682e-06
1.69234e-06
9.49871e-07
5.46224e-07
3.81613e-07
3.60486e-07
9.03053e-07
2.47172e-07
2.75184e-08
2.54494e-08
3.25062e-08
3.54517e-08
6.47761e-08
3.97656e-06
2.49359e-05
1.97741e-05
9.22683e-07
3.87287e-07
3.09619e-07
3.52085e-07
3.00279e-07
2.07243e-07
1.31375e-07
1.34234e-07
1.75828e-07
1.26398e-07
1.35092e-07
3.44309e-07
1.17964e-06
1.90847e-06
2.07719e-06
2.0282e-06
1.45946e-06
8.74695e-07
6.42444e-07
6.09868e-07
1.29611e-06
2.03365e-07
3.03127e-08
3.28577e-08
4.29685e-08
4.74945e-08
4.81674e-08
1.33619e-07
6.82295e-06
3.77779e-05
4.62957e-06
7.14346e-07
3.67567e-07
4.88654e-07
2.84919e-07
2.6225e-07
1.39649e-07
1.47777e-07
1.7976e-07
1.33329e-07
1.96511e-07
6.06481e-07
1.54031e-06
1.90678e-06
1.8709e-06
1.85824e-06
1.72355e-06
1.33518e-06
9.95087e-07
8.98585e-07
1.68905e-06
1.62825e-07
3.6165e-08
4.53502e-08
5.20303e-08
6.80482e-08
6.38102e-08
6.40666e-08
4.59152e-07
1.36846e-05
2.00158e-05
2.53916e-06
6.94565e-07
5.97618e-07
2.70929e-07
2.90152e-07
1.673e-07
1.65888e-07
1.70584e-07
1.59741e-07
3.33068e-07
1.00727e-06
1.68439e-06
2.2305e-06
3.14697e-06
3.787e-06
6.36494e-06
1.40364e-05
3.30136e-05
9.34026e-05
0.00104223
1.34841e-07
4.40048e-08
6.16415e-08
6.62202e-08
8.46351e-08
8.92513e-08
9.54824e-08
7.88032e-08
1.65049e-06
2.27237e-05
1.33052e-05
1.35714e-06
1.16722e-06
6.17307e-07
3.29857e-07
2.30503e-07
2.04207e-07
1.78226e-07
2.27887e-07
5.92191e-07
1.38242e-06
2.02205e-05
4.16928e-05
6.52707e-05
0.000101811
0.000191979
0.000414678
0.000870139
0.0018252
0.00431951
1.18472e-07
5.56983e-08
8.06369e-08
8.93433e-08
1.05901e-07
1.26305e-07
1.11032e-07
1.0755e-07
1.49165e-07
5.43956e-06
1.98706e-05
6.44875e-06
1.6087e-06
1.78346e-06
5.30178e-07
2.71525e-07
2.18329e-07
2.25035e-07
4.21823e-07
9.88022e-07
3.77224e-05
0.00012367
0.000208255
0.000322623
0.000516522
0.000891653
0.00159092
0.00279855
0.00483373
0.00770022
1.15879e-07
7.05885e-08
1.06637e-07
1.23107e-07
1.4092e-07
1.51502e-07
1.41527e-07
1.4702e-07
1.2352e-07
6.91354e-07
1.14011e-05
1.28129e-05
3.41396e-06
2.61911e-06
1.49575e-06
3.81243e-07
2.95402e-07
3.28983e-07
8.10311e-07
5.85534e-06
0.000180106
0.000368495
0.000592323
0.000908125
0.00141571
0.00224859
0.00354637
0.00546446
0.0080991
0.0105035
1.33364e-07
9.37194e-08
1.44175e-07
1.69045e-07
1.82223e-07
1.82361e-07
1.82742e-07
1.8806e-07
1.57482e-07
1.817e-07
2.47498e-06
1.25924e-05
6.19385e-06
4.48034e-06
3.61656e-06
7.58943e-07
3.74584e-07
8.26149e-07
1.59444e-06
0.000121892
0.000454868
0.000822782
0.00131092
0.00200122
0.00299744
0.0043868
0.00623052
0.0085744
0.0112649
0.0125372
1.88116e-07
1.4798e-07
1.89335e-07
2.17112e-07
2.28614e-07
2.24545e-07
2.34386e-07
2.24169e-07
2.03743e-07
1.83476e-07
5.88629e-07
5.2692e-06
7.64019e-06
5.29142e-06
7.7172e-06
1.83679e-06
4.603e-07
1.88493e-06
2.36351e-06
0.000356252
0.000885036
0.00160533
0.00266841
0.0041001
0.0057843
0.00763277
0.00964579
0.0118622
0.0140858
0.0133788
3.14185e-07
2.18677e-07
2.33672e-07
2.81399e-07
2.88689e-07
2.87644e-07
3.02621e-07
2.96764e-07
2.67618e-07
2.27368e-07
3.12712e-07
2.11657e-06
6.51445e-06
5.44149e-06
6.63037e-05
4.08198e-06
8.8779e-07
2.63912e-06
2.83226e-06
0.000604121
0.00151903
0.0030207
0.00539052
0.00828089
0.010617
0.0123059
0.0136812
0.0150055
0.0161885
0.0128155
4.24244e-07
3.01061e-07
3.18745e-07
3.85545e-07
3.88023e-07
3.79991e-07
4.11758e-07
4.1575e-07
3.48143e-07
3.14466e-07
3.05888e-07
1.02723e-06
5.07257e-06
5.88503e-06
0.000153428
6.88613e-06
1.46801e-06
3.4047e-06
3.2331e-06
0.000845971
0.00257955
0.00575396
0.010662
0.0148919
0.016767
0.0173077
0.0174287
0.0175658
0.0172889
0.0103153
5.12212e-07
4.8496e-07
5.69018e-07
7.00047e-07
5.31713e-07
5.10158e-07
6.02111e-07
6.0187e-07
5.23942e-07
4.40757e-07
4.03159e-07
6.50138e-07
3.46069e-06
5.89718e-06
0.00015068
9.13309e-06
2.00074e-06
3.74854e-06
3.12013e-06
0.00125697
0.00464277
0.0106138
0.0176555
0.0189118
0.0188125
0.0188856
0.0188171
0.0188064
0.0174547
0.00642547
7.27156e-07
9.6467e-07
1.75768e-06
1.98563e-06
9.76944e-07
7.91673e-07
9.7456e-07
9.90586e-07
8.70207e-07
6.74902e-07
6.00619e-07
5.96735e-07
2.28283e-06
4.65144e-06
0.000161833
9.8037e-06
1.9437e-06
3.87787e-06
4.52302e-06
0.00225277
0.00818834
0.0156109
0.0189157
0.0187589
0.0189571
0.0188302
0.0189884
0.0188157
0.0170119
0.00290412
1.33113e-06
5.7314e-06
7.47415e-06
4.4829e-06
1.88811e-06
1.54652e-06
1.67564e-06
1.66727e-06
1.46474e-06
1.08738e-06
8.60988e-07
8.4197e-07
1.43922e-06
3.33782e-06
0.000149945
9.3666e-06
1.51335e-06
4.56144e-06
4.15298e-05
0.00449533
0.0110058
0.0149204
0.0184737
0.00966809
0.0147632
0.0189485
0.0188318
0.0190785
0.0157414
0.000888262
4.33748e-05
4.38132e-05
7.93996e-06
4.08331e-06
2.63258e-06
1.22803e-05
4.86316e-05
6.49086e-05
1.63247e-05
1.40919e-06
1.15e-06
1.29312e-06
1.2246e-06
1.44761e-06
0.000157731
6.66994e-06
1.25404e-06
6.77013e-06
0.000289621
0.00698618
0.00900789
0.00734586
0.00228124
2.10237e-05
3.4251e-05
0.00779191
0.0189695
0.0188009
0.0145415
0.000216999
4.88649e-05
6.6319e-06
4.61858e-06
1.84094e-05
0.000408392
0.0012959
0.00219848
0.00223119
0.00118989
0.000435994
7.09836e-05
1.90182e-06
1.68273e-06
6.18451e-07
1.8825e-05
2.39179e-06
1.33732e-06
1.15479e-05
0.00115964
0.00696287
0.00504473
0.00172718
2.0969e-05
3.53088e-06
6.52238e-06
9.90615e-05
0.0117833
0.0191495
0.0147342
0.000217713
5.1445e-05
2.19899e-06
3.31817e-06
0.000702548
0.00294465
0.00438665
0.00440768
0.00333496
0.00169725
0.00121942
0.0013977
0.000608483
1.29126e-05
1.57104e-06
2.90696e-06
8.40166e-07
1.73464e-06
1.99925e-05
0.00312828
0.00629609
0.00181686
2.76094e-05
3.295e-06
7.44873e-08
7.07184e-07
1.16833e-05
0.00248811
0.0185238
0.0140118
0.000220236
9.72071e-06
9.99665e-07
8.27378e-05
0.00296902
0.00440279
0.0044289
0.00435598
0.000359862
0.00168393
0.00114818
0.00179064
0.00185617
0.00069169
2.20836e-05
2.64181e-06
4.24108e-07
4.06782e-06
3.02602e-05
0.00299267
0.00167323
2.92776e-05
4.10422e-06
9.06801e-08
6.61903e-08
5.3459e-08
2.91206e-06
0.000155196
0.0105981
0.00933051
0.000220827
4.33159e-06
8.40347e-07
0.000214471
0.00438105
0.00442621
0.0043271
2.70451e-05
1.0945e-05
3.07898e-05
0.00121177
0.0018583
0.00186295
0.00184885
0.000954476
4.67019e-06
1.20443e-07
1.04904e-05
0.000653801
0.000996863
2.32712e-05
3.85495e-06
8.10729e-08
6.73475e-08
9.06235e-08
9.03495e-08
1.16514e-06
1.82089e-05
0.00941283
0.00930078
0.00072076
4.36322e-06
1.38426e-06
7.39516e-06
0.0043871
0.00434704
2.35578e-05
3.96071e-06
7.69236e-07
4.11486e-06
2.19011e-05
7.40176e-05
0.00118843
0.000946113
3.17195e-05
4.6972e-06
3.53249e-07
2.21482e-05
0.000929642
1.94721e-05
2.59578e-06
8.80302e-08
7.65144e-08
8.32347e-08
1.11932e-07
1.075e-07
4.56724e-07
1.35829e-05
0.00678144
0.0035453
0.000889274
5.39225e-06
1.50959e-06
4.08639e-06
0.00387498
0.000109987
4.31092e-06
1.23007e-07
1.18086e-07
1.13891e-07
1.88793e-06
7.51957e-06
1.31808e-05
1.35139e-05
6.22481e-06
3.01242e-06
2.01871e-06
3.12996e-05
0.000911615
3.60766e-06
1.64799e-07
9.48567e-08
7.70958e-08
9.54586e-08
1.26342e-07
1.0678e-07
1.46092e-07
5.73411e-06
1.8737e-05
9.36286e-06
1.37201e-05
6.1174e-06
1.0719e-06
2.61683e-06
0.000471444
7.94826e-06
3.79869e-08
1.3e-07
1.52007e-07
1.07763e-07
5.51931e-08
3.51024e-07
1.20525e-06
1.74425e-06
1.32715e-06
2.53537e-06
3.86371e-06
1.0845e-05
9.3949e-06
9.45487e-07
1.6279e-07
1.18114e-07
9.63511e-08
1.1085e-07
1.2155e-07
1.43309e-07
2.55415e-07
4.04219e-07
3.19986e-06
2.24383e-06
5.71395e-06
5.52354e-06
8.61422e-07
2.40307e-06
5.3234e-06
9.45503e-07
1.55966e-07
1.32069e-07
1.65822e-07
1.12155e-07
7.97985e-08
7.36062e-08
8.28017e-08
1.71095e-07
6.83212e-07
1.70425e-06
3.44449e-06
1.59004e-06
3.76578e-06
1.59389e-06
1.65935e-07
1.50251e-07
1.33525e-07
1.34911e-07
1.37023e-07
2.45834e-07
3.33223e-07
7.86302e-07
1.06273e-06
4.80591e-07
3.70161e-06
4.06348e-06
5.9511e-07
1.36553e-06
1.57469e-06
6.94443e-07
2.53112e-07
1.65402e-07
1.61395e-07
1.32768e-07
8.39882e-08
6.81895e-08
7.86242e-08
9.78274e-08
3.17891e-07
7.95304e-07
1.65285e-06
3.32473e-07
3.71135e-06
2.65746e-06
1.78891e-07
1.96837e-07
1.42021e-07
1.78849e-07
2.26447e-07
3.42423e-07
5.21785e-07
1.07288e-06
7.91075e-07
4.97395e-07
3.17781e-06
3.2243e-06
6.42917e-07
8.67429e-07
9.5509e-07
9.50126e-07
4.08574e-07
2.64276e-07
1.67798e-07
1.30391e-07
9.31442e-08
7.78598e-08
7.78503e-08
6.45512e-08
1.26396e-07
2.84442e-07
6.6564e-07
2.47865e-07
3.60497e-06
3.13913e-06
1.87473e-07
2.14894e-07
1.64864e-07
2.76065e-07
3.89291e-07
3.94698e-07
9.65975e-07
8.52581e-07
5.99175e-07
6.1086e-07
2.86098e-06
2.76945e-06
7.1282e-07
7.52504e-07
7.36341e-07
1.03912e-06
6.94246e-07
4.62621e-07
2.23137e-07
1.342e-07
1.15068e-07
7.8926e-08
6.96276e-08
6.61199e-08
6.92581e-08
9.51523e-08
1.9618e-07
5.76525e-07
3.70494e-06
2.53568e-06
2.40696e-07
2.70519e-07
2.46576e-07
4.77465e-07
4.04503e-07
6.12165e-07
9.86464e-07
6.26767e-07
5.92553e-07
7.52614e-07
3.73874e-06
3.42073e-06
7.81445e-07
6.55329e-07
6.50549e-07
1.08847e-06
1.30735e-06
8.3733e-07
4.11235e-07
1.58133e-07
1.21817e-07
7.96412e-08
7.05037e-08
8.04001e-08
6.13036e-08
7.84949e-08
9.61379e-08
5.84624e-07
3.04526e-06
2.36332e-06
2.71649e-07
3.22593e-07
3.80109e-07
5.67992e-07
2.70155e-07
7.29761e-07
8.23235e-07
7.05847e-07
9.27998e-07
1.32075e-06
3.98344e-05
7.59438e-06
1.13408e-06
7.66102e-07
6.07476e-07
9.69259e-07
1.79284e-06
1.67325e-06
9.34741e-07
2.30462e-07
1.25522e-07
8.96498e-08
8.41814e-08
8.67764e-08
6.29771e-08
5.38473e-08
9.1019e-08
4.70813e-07
1.73144e-06
2.78264e-06
2.27112e-07
4.36705e-07
7.99019e-07
3.03411e-07
5.27742e-07
8.86809e-07
9.61614e-07
1.16009e-06
1.93672e-06
5.87579e-05
0.00305102
0.00171836
2.32202e-06
1.36644e-06
8.9319e-07
8.89227e-07
1.52282e-06
3.42104e-06
1.89177e-06
3.78318e-07
1.47342e-07
1.10745e-07
1.05968e-07
1.0532e-07
6.5123e-08
6.57299e-08
8.71986e-08
2.34489e-07
8.3519e-07
2.97832e-06
7.83743e-07
6.7812e-07
1.80462e-06
4.72366e-07
9.25409e-07
1.16512e-06
1.50293e-06
4.42403e-06
0.000704816
0.00399407
0.00724536
0.00794172
0.00159278
3.57057e-06
1.53178e-06
1.08631e-06
1.19657e-06
3.35162e-06
2.35917e-06
7.03049e-07
1.87548e-07
1.39017e-07
1.24395e-07
9.73267e-08
9.15947e-08
7.37897e-08
8.83227e-08
1.53451e-07
4.03661e-07
2.7684e-06
3.15857e-06
2.19914e-06
2.21728e-06
7.75214e-07
1.20163e-06
1.65198e-06
0.000138481
0.00153072
0.00496503
0.00725236
0.00726456
0.0112397
0.00732196
0.00136973
3.03394e-06
1.4969e-06
1.27498e-06
1.52477e-06
1.72257e-06
1.04873e-06
2.89077e-07
1.74762e-07
1.36119e-07
1.03205e-07
1.1117e-07
1.03977e-07
9.51647e-08
1.07379e-07
2.08958e-07
1.93839e-06
1.18725e-05
9.75791e-06
2.84775e-06
8.75402e-07
4.95811e-06
0.000329613
0.00197802
0.00518646
0.00724572
0.00725653
0.00438989
0.0112669
0.0109466
0.00526095
0.000652086
1.94855e-06
1.33213e-06
1.05554e-06
1.14639e-06
1.24207e-06
5.19105e-07
2.59477e-07
1.72451e-07
1.33627e-07
1.31318e-07
1.18339e-07
1.17508e-07
1.25104e-07
1.53181e-07
1.50279e-06
1.56984e-05
0.00197887
3.93332e-06
1.62851e-05
0.00035885
0.00200355
0.00499636
0.00723856
0.00725084
0.00547657
0.00101147
0.00936555
0.0110682
0.00878485
0.00268513
0.00013197
1.44978e-06
7.03534e-07
8.30961e-07
1.31191e-06
8.53999e-07
4.06058e-07
3.06536e-07
1.90788e-07
1.27012e-07
1.11369e-07
1.19576e-07
9.82765e-08
1.29977e-07
9.54866e-07
1.09224e-05
0.00208466
0.000705743
0.000755214
0.00193946
0.00442974
0.00685603
0.00688582
0.00505798
0.00089509
0.000657002
0.0068455
0.0110873
0.0110146
0.00550706
0.000917797
2.91124e-06
6.51679e-07
7.37417e-07
1.52914e-06
1.18187e-06
7.91974e-07
6.70503e-07
2.86904e-07
1.31611e-07
1.11963e-07
9.38426e-08
1.00829e-07
1.3553e-07
7.65393e-07
8.10081e-06
0.00211439
0.00264201
0.00372707
0.0044135
0.00520283
0.00520628
0.00160335
0.000224416
7.65305e-06
0.000428875
0.00397346
0.0110075
0.0111074
0.00840131
0.00248869
0.000165221
7.97317e-07
9.65182e-07
1.95109e-06
1.14267e-06
1.23439e-06
1.096e-06
6.54789e-07
1.22022e-07
1.1861e-07
1.42134e-07
1.43202e-07
1.65587e-07
9.1235e-07
8.77856e-06
0.000343833
0.000844101
0.00434031
0.00437617
0.00424035
0.000605896
8.97146e-06
3.21227e-06
1.15695e-06
1.22425e-05
0.00135897
0.00449054
0.0109796
0.0107555
0.00472847
0.000736587
6.69226e-06
7.15641e-06
2.15496e-06
1.01329e-06
9.99719e-07
7.87748e-07
4.40054e-07
1.24657e-07
1.54981e-07
1.5261e-07
1.70896e-07
2.50831e-07
1.95904e-06
0.000121466
6.63932e-05
6.69477e-05
0.000983675
0.000416302
0.000120327
5.84294e-06
9.34079e-07
4.9384e-07
7.48792e-07
5.49973e-06
8.68489e-06
8.79179e-06
0.00672901
0.0102978
0.0067015
0.00178473
0.000120351
1.90415e-06
9.94131e-07
1.03526e-06
1.06773e-06
1.29158e-06
1.88834e-07
2.06936e-07
1.45098e-07
1.8558e-07
2.05394e-07
6.00502e-07
8.18625e-06
0.000239519
0.000213074
0.000228082
7.45461e-06
3.8821e-06
3.0021e-06
1.99819e-07
5.71173e-07
6.65176e-07
1.13875e-06
5.04664e-05
0.000383124
1.93849e-06
0.000292839
0.00455941
0.00666424
0.00275065
0.000373792
1.26288e-06
6.22416e-07
9.50825e-07
9.4064e-07
1.11983e-06
2.26908e-07
2.07645e-07
1.24797e-07
2.03651e-07
4.28692e-07
5.8013e-06
0.000196895
0.000218303
0.000281129
0.000213742
1.6474e-06
1.88618e-07
2.89928e-07
5.26644e-07
6.93602e-07
1.36901e-06
5.95383e-06
0.00596031
0.0111796
4.8631e-06
3.16656e-06
0.000264651
0.00326214
0.00268894
0.000654919
1.04251e-06
7.87886e-07
1.03213e-06
1.40797e-06
4.26569e-07
2.28891e-07
2.057e-07
1.55404e-07
3.85879e-07
3.50697e-06
2.1036e-05
0.000218786
0.000293561
0.000213008
6.66333e-06
4.11189e-07
2.52311e-07
4.11085e-07
7.61355e-07
1.57086e-06
6.69629e-05
0.00635008
0.0208685
0.0491492
0.0119862
0.000909137
0.000268917
0.000601765
0.00117985
0.000261207
3.31605e-07
1.15826e-06
2.37446e-06
1.95731e-06
2.91715e-07
1.62741e-07
2.24958e-07
2.95167e-07
1.44232e-06
9.64444e-06
0.000217576
0.000253778
0.000210928
0.000283442
1.84766e-06
2.97569e-07
3.16813e-07
6.07744e-07
1.52391e-06
6.82221e-05
0.00654084
0.0199206
0.0222423
0.050304
0.0492482
0.0216237
0.00322931
0.000711833
0.000329817
7.79521e-06
5.33602e-07
1.73448e-06
3.49317e-06
1.76773e-06
2.25238e-07
1.73619e-07
3.20066e-07
3.97882e-07
1.7612e-06
9.51417e-06
0.000227142
0.000211037
0.000279578
1.68035e-05
5.91329e-07
4.05343e-07
4.67974e-07
1.15003e-06
4.92222e-06
0.00384861
0.017402
0.0222127
0.0223156
0.0503291
0.0502741
0.0470692
0.0201696
0.00413315
0.000571301
3.58241e-06
6.53528e-07
3.20833e-06
4.2982e-06
1.02212e-06
1.75864e-07
2.9347e-07
3.0595e-07
3.7742e-07
1.65838e-06
5.99043e-06
9.44585e-06
0.000245801
0.000204675
1.35246e-06
5.08749e-07
5.22892e-07
7.08148e-07
1.83886e-06
0.00127852
0.0120925
0.0220772
0.0225209
0.0222589
0.0503994
0.0503067
0.0501605
0.040288
0.0155546
0.00262289
0.000139951
1.76132e-05
5.83226e-06
2.76783e-06
6.55588e-07
2.12618e-07
2.93748e-07
1.77288e-07
1.65106e-07
1.08799e-06
2.52841e-06
1.40844e-06
1.37727e-06
2.04962e-06
6.12493e-07
5.99045e-07
5.36965e-07
9.58505e-07
8.90321e-05
0.00580245
0.019539
0.0223918
0.0221554
0.0150746
0.0377718
0.0496235
0.0502076
0.0497615
0.0326392
0.00851418
0.000880708
0.000105507
5.4334e-06
1.5009e-06
4.56891e-07
1.87714e-07
1.86438e-07
4.33479e-08
2.81894e-07
8.02551e-07
8.62951e-07
4.23249e-07
3.73651e-07
1.63741e-06
1.04006e-06
8.14757e-07
6.0326e-07
1.28117e-06
0.00115965
0.012923
0.0221831
0.022143
0.0227505
0.00643866
0.0123687
0.0085336
0.0486881
0.0499599
0.048981
0.0202634
0.00245324
0.00025409
7.14891e-06
1.20854e-06
2.23151e-07
1.85939e-07
1.35104e-07
3.67049e-07
5.28134e-07
6.63058e-07
4.69823e-07
3.38625e-07
3.7683e-07
3.29357e-06
2.02311e-06
1.48115e-06
1.04374e-06
2.44818e-06
0.00471406
0.0209362
0.022095
0.0229045
0.021774
0.00166712
0.000370404
1.98853e-05
0.00825014
0.0455115
0.0488256
0.0388817
0.00903532
0.00132602
1.66618e-05
1.56575e-06
1.637e-07
1.97778e-07
1.6342e-07
3.44397e-07
3.76147e-07
3.14332e-07
1.1356e-07
3.39721e-07
2.94553e-07
6.66322e-06
1.63373e-05
3.39023e-06
4.04067e-06
0.000964293
0.0130158
0.0219883
0.0228048
0.0219135
0.0107487
0.00164385
1.87092e-05
3.6477e-06
1.04609e-05
0.000523079
0.0328487
0.0388342
0.0209743
0.00445421
2.83281e-05
1.70692e-06
1.59948e-07
1.62935e-07
9.61336e-08
1.00602e-07
1.28289e-07
1.36063e-07
1.79232e-07
2.96747e-07
8.25446e-07
9.1962e-06
0.000816275
0.00221311
0.00384532
0.00955131
0.0217632
0.0226947
0.0216139
0.0116783
0.000113517
0.00193336
4.71788e-06
3.24544e-07
1.59998e-06
8.51748e-06
0.00108872
0.0279495
0.0259898
0.00776839
3.1192e-05
1.72037e-06
2.16515e-07
1.36258e-07
9.35002e-08
1.2058e-07
1.50332e-07
2.06104e-07
8.48673e-07
1.24825e-06
5.6959e-06
0.000892947
0.00182988
0.005708
0.0189355
0.0216041
0.022576
0.0214727
0.00037498
1.18536e-05
7.83952e-06
3.23515e-05
2.92553e-06
1.69862e-07
9.26434e-08
1.1769e-06
1.42385e-05
0.00309116
0.0198122
0.0077789
7.07432e-05
4.93884e-06
2.31806e-07
1.57569e-07
1.72134e-07
2.09856e-07
3.23671e-07
1.45305e-06
3.80561e-06
4.08894e-06
0.000689795
0.00145148
0.0012613
0.0049197
0.00473055
0.0222489
0.0216296
0.00918946
1.2788e-05
2.47683e-06
3.17167e-07
6.72621e-06
2.06642e-06
1.35878e-07
1.09134e-07
9.11099e-08
3.48524e-06
4.15967e-05
0.00954542
0.00893032
0.00270862
1.28147e-05
1.58878e-06
2.94986e-07
3.20487e-07
4.7086e-07
3.27693e-06
2.18614e-05
0.00101066
0.00144018
0.00149547
0.00144003
0.000309829
2.22835e-05
1.41753e-05
0.0138957
0.0221784
0.00126708
4.32935e-06
3.82567e-07
1.05736e-07
2.91514e-06
1.70518e-06
2.15578e-07
8.57403e-08
8.42566e-08
3.04557e-08
1.10973e-05
0.000375435
4.92594e-05
6.56147e-05
3.3447e-05
1.9339e-05
1.10218e-05
9.01294e-06
1.30089e-05
3.30633e-05
4.19202e-05
3.95804e-05
3.48469e-05
2.9877e-05
2.50189e-05
1.14221e-05
2.48771e-06
2.42836e-06
3.71506e-05
0.00420967
1.83156e-05
1.42708e-06
4.66746e-08
1.10064e-07
2.66769e-06
1.51199e-06
2.64035e-07
1.41801e-07
1.15797e-07
1.71277e-07
1.55688e-07
1.18279e-05
1.22109e-05
1.21061e-05
3.16713e-05
2.32691e-05
2.18234e-05
2.00091e-05
2.1188e-05
1.86047e-05
8.45225e-06
4.75526e-06
3.63553e-06
3.12432e-06
2.28772e-06
6.08397e-07
2.56271e-07
8.76507e-07
1.09808e-05
2.57038e-05
2.92578e-06
4.30194e-08
5.13699e-08
1.25333e-07
2.46079e-06
1.27624e-06
3.23656e-07
1.97203e-07
1.72779e-07
2.15286e-07
3.38065e-07
6.40527e-07
1.25559e-06
1.12993e-06
3.33821e-06
3.94989e-06
5.45946e-06
5.63272e-06
4.44363e-06
1.85031e-06
5.44732e-07
3.41229e-07
1.99166e-07
3.50139e-08
2.45767e-08
7.76032e-08
3.05218e-07
1.17662e-06
1.21621e-06
3.55819e-06
9.81644e-08
1.01212e-07
5.59966e-08
1.23799e-07
2.09511e-06
1.39531e-06
3.77115e-07
2.54863e-07
2.01045e-07
2.4242e-07
4.0769e-07
8.82275e-07
1.24489e-06
4.32836e-07
2.92104e-07
4.72878e-07
6.97857e-07
7.31986e-07
5.13808e-07
1.66673e-07
7.58531e-08
1.68326e-07
3.77426e-08
1.23625e-08
2.18272e-08
1.06957e-07
4.2616e-07
1.42869e-06
8.07149e-07
1.39747e-07
1.4017e-07
8.18466e-08
6.57964e-08
1.51804e-07
1.85967e-06
6.32105e-06
6.88705e-07
3.24285e-07
2.1935e-07
2.61072e-07
5.08669e-07
1.15669e-06
1.37361e-06
3.83115e-07
4.94316e-08
1.5765e-08
4.35904e-08
5.03052e-08
3.73377e-08
6.36407e-08
1.17607e-07
1.85366e-07
4.83032e-09
1.88536e-08
1.98957e-08
1.32325e-07
5.41597e-07
1.33218e-06
4.90918e-07
1.50023e-07
1.30327e-07
9.3682e-08
8.63537e-08
1.6311e-07
1.69543e-06
0.0125249
3.51355e-06
8.75248e-07
3.98501e-07
3.23813e-07
6.21799e-07
1.27776e-06
1.46063e-06
3.53045e-07
2.65692e-08
1.20051e-08
2.00499e-08
2.08409e-08
2.73937e-08
5.16495e-08
1.6807e-07
1.37678e-07
1.90631e-08
2.22282e-08
2.59417e-08
1.52148e-07
6.65334e-07
1.26147e-06
3.98739e-07
1.46502e-07
1.43837e-07
9.51775e-08
8.99615e-08
1.82886e-07
1.53221e-06
0.0415707
0.0113695
5.45653e-06
1.04133e-06
5.49993e-07
8.65058e-07
1.34521e-06
1.65248e-06
3.49697e-07
1.46932e-08
1.38384e-08
1.87367e-08
1.85314e-08
2.72402e-08
3.63096e-08
2.09354e-07
1.02955e-07
3.82848e-08
2.01008e-08
2.62346e-08
1.42943e-07
6.98604e-07
1.01207e-06
2.73934e-07
1.72396e-07
1.39234e-07
1.08389e-07
1.15727e-07
1.97993e-07
1.39637e-06
0.042127
0.041608
0.0122941
1.857e-05
1.1026e-06
1.11685e-06
1.39207e-06
2.09358e-06
4.09754e-07
1.26808e-08
1.90043e-08
2.02876e-08
1.60046e-08
1.64506e-08
4.521e-08
1.98641e-07
7.85384e-08
5.39514e-08
2.96149e-08
1.89204e-08
1.2123e-07
6.50388e-07
9.34474e-07
3.07955e-07
2.08832e-07
1.55825e-07
1.1729e-07
1.30563e-07
2.25346e-07
1.52264e-06
0.0124315
0.0422923
0.0392974
0.00472381
1.76156e-06
1.28237e-06
1.72974e-06
2.71324e-06
4.88958e-07
1.37327e-08
2.20633e-08
2.14091e-08
1.33286e-08
1.44757e-08
6.74083e-08
1.43146e-07
5.86407e-08
5.41816e-08
5.75475e-08
2.19004e-08
9.59744e-08
5.30407e-07
9.56248e-07
4.04946e-07
2.83266e-07
1.76991e-07
1.3356e-07
1.92773e-07
2.68975e-07
2.40545e-06
9.98689e-05
0.0422848
0.0425461
0.0157544
0.000358814
1.63834e-06
2.85363e-06
3.39829e-06
5.07015e-07
7.3637e-09
2.01872e-08
1.94059e-08
1.25957e-08
1.01603e-08
8.55753e-08
9.55192e-08
4.35132e-08
4.72102e-08
8.88212e-08
5.47126e-08
6.45941e-08
3.79755e-07
1.09541e-06
6.87275e-07
4.32794e-07
2.80941e-07
2.54639e-07
4.37229e-07
6.88141e-07
8.56237e-06
0.00010181
0.0417611
0.0447279
0.0277823
0.00189825
2.48565e-06
4.78876e-06
3.62878e-06
4.52521e-07
9.80711e-09
1.45334e-08
1.39512e-08
9.89469e-09
1.77109e-08
1.10283e-07
7.34877e-08
2.42669e-08
2.59268e-08
5.83853e-08
9.80393e-08
3.97354e-08
2.49126e-07
1.27635e-06
1.17134e-06
6.76241e-07
4.46183e-07
5.5713e-07
1.2201e-06
3.36992e-06
0.00577888
0.000103251
0.027467
0.0427019
0.0374014
0.0040268
6.04122e-06
6.19098e-06
3.00835e-06
4.17377e-07
1.65756e-08
1.87536e-08
1.08978e-08
1.14388e-08
3.35919e-08
1.51927e-07
4.21595e-08
1.72099e-08
1.53703e-08
3.11354e-08
1.04114e-07
7.38386e-08
1.65686e-07
1.24532e-06
2.02483e-06
1.2257e-06
7.26311e-07
1.26049e-06
3.15945e-06
0.00450856
0.0221317
0.000105195
0.0168901
0.045105
0.0422604
0.00573676
5.2613e-05
6.37261e-06
2.09659e-06
3.93457e-07
4.75638e-08
2.74599e-08
1.60643e-08
1.91113e-08
7.08043e-08
1.34873e-07
9.61475e-09
1.60738e-08
8.58068e-09
1.84157e-08
6.57943e-08
1.24082e-07
1.38103e-07
7.85396e-07
2.67683e-06
2.10882e-06
1.30424e-06
2.30648e-06
0.00380636
0.0220669
0.0225911
0.00013541
0.0117526
0.0425031
0.042765
0.00684238
0.000196544
6.10063e-06
1.37637e-06
2.55554e-07
1.00437e-07
7.27965e-08
3.39744e-08
4.68633e-08
1.35584e-07
8.75108e-08
4.58719e-09
1.4683e-08
7.07408e-09
1.04217e-08
2.31257e-08
9.20918e-08
6.43149e-08
4.67201e-07
2.93469e-06
3.23201e-06
2.19651e-06
0.000824775
0.0205209
0.0232354
0.0189593
1.87313e-05
0.00149797
0.0446851
0.0421272
0.00608549
0.000369355
4.68951e-06
9.30291e-07
1.15421e-07
1.18475e-07
1.37537e-07
9.78414e-08
9.87029e-08
1.40792e-07
4.568e-08
9.00699e-09
1.33339e-08
8.47289e-09
8.1941e-09
5.77448e-09
4.90301e-08
1.92673e-08
3.69184e-07
2.26947e-06
4.19816e-06
4.50506e-05
0.00704138
0.0230044
0.0217331
0.000188159
9.72159e-06
0.000226256
0.0415104
0.0412414
0.00312371
1.15326e-05
1.88896e-06
4.54028e-07
6.78145e-08
9.88391e-08
1.39129e-07
1.3031e-07
1.18377e-07
8.47831e-08
3.12505e-08
1.32106e-08
1.2967e-08
9.20506e-09
1.00184e-08
6.50941e-09
3.46571e-08
6.55466e-08
3.37715e-07
1.47896e-06
4.78795e-06
0.000510877
0.0117904
0.0219946
0.0233223
0.000190874
8.17195e-06
0.000595159
0.0415981
0.0285897
0.000715244
2.98653e-06
9.62227e-07
2.62961e-07
7.24614e-08
8.17859e-08
9.06761e-08
9.92474e-08
9.32002e-08
5.30438e-08
1.99472e-08
1.93328e-08
1.37231e-08
1.08628e-08
1.08313e-08
8.68583e-09
1.3896e-08
1.38192e-07
2.94716e-07
1.00295e-06
4.95476e-06
0.0007853
0.0113406
0.023703
0.0212056
0.000194047
1.41755e-05
0.00193678
0.036434
0.0218986
0.000525152
1.21216e-06
6.04216e-07
6.17481e-08
6.18777e-08
5.78459e-08
6.38628e-08
6.59134e-08
6.39127e-08
3.13706e-08
1.57137e-08
2.19406e-08
1.45387e-08
1.35044e-08
1.50424e-08
9.52828e-09
8.326e-09
1.63596e-07
2.68998e-07
7.39487e-07
3.08441e-06
0.000572994
0.00958538
0.0215902
0.00219494
0.000190325
0.000225925
0.00193464
0.026447
0.0137042
0.000320868
9.25702e-07
1.736e-07
3.9846e-08
3.68973e-08
2.98036e-08
4.17339e-08
4.46033e-08
3.60602e-08