/*--------------------------------*- C++ -*----------------------------------*\
| =========                 |                                                 |
| \\      /  F ield         | OpenFOAM: The Open Source CFD Toolbox           |
|  \\    /   O peration     | Version:  2.3.0                                 |
|   \\  /    A nd           | Web:      www.OpenFOAM.org                      |
|    \\/     M anipulation  |                                                 |
\*---------------------------------------------------------------------------*/
FoamFile
{
    version     2.0;
    format      ascii;
    class       surfaceScalarField;
    location    "0.74";
    object      phi;
}
// * * * * * * * * * * * * * * * * * * * * * * * * * * * * * * * * * * * * * //

dimensions      [0 3 -1 0 0 0 0];

internalField   nonuniform List<scalar> 
11770
(
2.46117e-06
4.60266e-05
9.57301e-06
4.12881e-05
1.62334e-05
4.18069e-05
1.96335e-05
4.51822e-05
1.7826e-05
5.04087e-05
1.56433e-05
5.07021e-05
8.31053e-06
5.59678e-05
2.00199e-06
5.4951e-05
-5.09498e-07
5.10886e-05
1.07738e-06
4.68825e-05
4.2103e-06
4.52782e-05
-2.01687e-06
5.48641e-05
-7.18924e-06
5.36654e-05
-1.19493e-05
5.33108e-05
-1.47944e-05
5.1436e-05
-5.1174e-06
3.85871e-05
8.35431e-06
3.46114e-05
1.14312e-05
4.53316e-05
9.27313e-06
5.06863e-05
6.95276e-06
5.08746e-05
4.87312e-06
5.06256e-05
2.17208e-06
5.12261e-05
3.30946e-06
4.73255e-05
4.71778e-06
4.70871e-05
5.79654e-06
4.74556e-05
4.97513e-06
4.94835e-05
1.66326e-06
5.20325e-05
-1.9349e-06
5.23156e-05
-3.20236e-06
4.99442e-05
4.52341e-05
6.89838e-06
4.04256e-05
8.98105e-06
4.03717e-05
9.367e-06
4.2568e-05
8.09908e-06
4.76483e-05
6.40723e-06
5.33823e-05
5.9207e-06
5.24922e-05
9.73965e-06
5.36371e-05
1.07618e-05
5.54232e-05
8.21923e-06
5.50589e-05
6.88208e-06
4.95502e-05
4.52386e-06
4.89398e-05
1.0422e-06
5.98116e-05
-1.42115e-06
5.74518e-05
-4.34221e-06
5.7521e-05
-1.1645e-05
6.00626e-05
-5.89628e-06
3.3952e-05
3.38196e-06
2.63535e-05
8.33198e-07
4.913e-05
-2.65348e-06
5.54913e-05
-4.22593e-06
5.37884e-05
-2.59354e-06
5.03666e-05
2.07064e-06
4.79608e-05
3.60514e-06
4.71501e-05
6.07488e-06
4.59906e-05
8.64521e-06
4.62657e-05
1.18851e-05
4.76757e-05
1.3661e-05
5.17285e-05
1.00778e-05
5.73081e-05
1.0458e-06
6.03183e-05
4.75626e-05
5.04165e-06
3.54562e-05
7.07467e-06
3.84132e-05
4.26649e-06
4.54697e-05
2.8757e-06
4.91452e-05
5.84844e-06
5.05152e-05
6.8013e-06
5.16552e-05
7.49089e-06
5.30793e-05
8.19539e-06
5.48504e-05
9.37633e-06
5.40167e-05
7.53519e-06
5.15294e-05
4.17438e-06
5.24447e-05
5.38547e-06
5.87789e-05
2.94053e-06
6.00675e-05
-9.19088e-07
6.15429e-05
-4.25762e-06
6.35521e-05
-3.06358e-06
3.28588e-05
4.13334e-08
2.33274e-05
-2.97563e-06
5.23081e-05
-7.78983e-06
6.04575e-05
-8.65699e-06
5.47864e-05
-6.9474e-06
4.8786e-05
-4.2783e-06
4.54354e-05
-5.45838e-07
4.35609e-05
6.69765e-06
3.88914e-05
1.39899e-05
3.90951e-05
2.07205e-05
4.10365e-05
2.20344e-05
5.04898e-05
1.69488e-05
6.24636e-05
7.52381e-06
6.98063e-05
5.51597e-05
-6.02611e-07
3.60788e-05
3.98956e-06
3.38406e-05
2.40386e-06
4.70884e-05
3.45198e-06
4.81213e-05
3.40056e-06
5.05836e-05
3.45654e-06
5.1617e-05
3.69401e-06
5.28623e-05
4.36324e-06
5.42042e-05
6.62679e-06
5.17865e-05
8.50556e-06
4.96837e-05
8.12049e-06
5.28647e-05
8.61768e-06
5.83285e-05
7.19763e-06
6.15426e-05
5.01566e-06
6.37817e-05
5.20585e-06
6.34106e-05
3.34771e-06
3.47381e-05
-5.97872e-07
2.72929e-05
-8.72868e-06
6.05076e-05
-1.23329e-05
6.41056e-05
-1.37208e-05
5.62045e-05
-1.17008e-05
4.67912e-05
-8.25449e-06
4.20185e-05
-1.50915e-06
3.68465e-05
8.76871e-06
2.86446e-05
1.86847e-05
2.92013e-05
2.59656e-05
3.37689e-05
2.96495e-05
4.68197e-05
2.33739e-05
6.87557e-05
1.11014e-05
8.20959e-05
6.62855e-05
-5.80722e-06
4.18968e-05
6.01276e-07
2.74407e-05
5.04249e-06
4.2663e-05
2.80148e-06
5.0369e-05
2.95879e-07
5.30935e-05
-1.45887e-06
5.33755e-05
-2.20155e-06
5.36092e-05
-1.294e-07
5.21365e-05
5.0186e-06
4.6646e-05
1.02564e-05
4.44549e-05
1.21366e-05
5.09961e-05
1.31546e-05
5.73282e-05
1.15455e-05
6.31759e-05
9.2584e-06
6.60961e-05
1.10244e-05
6.16638e-05
6.62101e-06
3.91427e-05
-2.67503e-06
3.66005e-05
-1.19338e-05
6.9813e-05
-1.66746e-05
6.88659e-05
-1.54769e-05
5.50178e-05
-1.07047e-05
4.20258e-05
-6.17207e-06
3.74933e-05
7.43337e-07
2.99386e-05
7.09167e-06
2.23029e-05
1.37933e-05
2.25054e-05
1.91805e-05
2.83878e-05
2.50812e-05
4.09285e-05
2.67825e-05
6.70709e-05
1.4499e-05
9.43989e-05
8.08038e-05
-8.34556e-07
4.27412e-05
-4.94335e-07
2.71048e-05
5.4413e-06
3.67316e-05
4.99719e-06
5.08163e-05
3.30857e-07
5.77636e-05
-4.68068e-06
5.83914e-05
-8.21533e-06
5.71487e-05
-4.64917e-06
4.85732e-05
3.60673e-06
3.83916e-05
1.09301e-05
3.71338e-05
1.52451e-05
4.66865e-05
1.45751e-05
5.80079e-05
1.16573e-05
6.61059e-05
8.89775e-06
6.8868e-05
1.27013e-05
5.78615e-05
4.19874e-06
4.76458e-05
-6.953e-06
4.77722e-05
-1.19012e-05
7.47935e-05
-1.36975e-05
7.06768e-05
-1.05059e-05
5.18345e-05
-7.71779e-06
3.92438e-05
-3.34161e-06
3.31238e-05
2.02296e-06
2.45797e-05
3.82649e-06
2.05031e-05
4.65294e-06
2.16826e-05
5.18026e-06
2.78654e-05
7.92909e-06
3.81877e-05
1.50327e-05
5.99822e-05
1.34669e-05
9.59866e-05
9.42973e-05
2.25754e-06
4.04944e-05
-6.77961e-07
3.00438e-05
-1.62643e-07
3.62214e-05
3.04965e-06
4.76076e-05
1.32812e-06
5.94912e-05
-5.63679e-06
6.53646e-05
-1.01075e-05
6.16278e-05
-4.28799e-06
4.27578e-05
1.86348e-06
3.2241e-05
5.66865e-06
3.33291e-05
1.01219e-05
4.22356e-05
1.06415e-05
5.74924e-05
5.90605e-06
7.08458e-05
3.98407e-06
7.07921e-05
4.57253e-06
5.72748e-05
-9.79775e-07
5.32113e-05
-9.4694e-06
5.62889e-05
-8.17459e-06
7.35265e-05
-5.63759e-06
6.8159e-05
-4.22405e-06
5.04353e-05
-3.92915e-06
3.89595e-05
-1.42629e-06
3.06303e-05
9.94676e-08
2.30599e-05
-2.40314e-08
2.06306e-05
-2.68433e-06
2.43487e-05
-6.96335e-06
3.21542e-05
-1.0409e-05
4.16452e-05
-7.0822e-06
5.6673e-05
2.67057e-06
8.62632e-05
9.70081e-05
3.5029e-06
3.70065e-05
-2.94984e-06
3.65061e-05
-6.91805e-06
4.02012e-05
-5.56672e-06
4.62672e-05
-3.18894e-06
5.7123e-05
-5.60825e-06
6.77964e-05
-6.46331e-06
6.24948e-05
-1.30807e-06
3.76068e-05
-8.80668e-08
3.10225e-05
-1.31158e-06
3.45543e-05
-1.67031e-06
4.25982e-05
-6.8632e-07
5.65149e-05
-5.62103e-07
7.07299e-05
2.70205e-06
6.75364e-05
2.19338e-06
5.77952e-05
-1.04966e-06
5.64748e-05
-5.56843e-06
6.08358e-05
-1.72779e-06
6.97175e-05
9.82189e-07
6.54809e-05
-1.48796e-06
5.29303e-05
-3.16197e-06
4.06495e-05
-2.26237e-06
2.97396e-05
3.63009e-10
2.08014e-05
3.81266e-07
2.02503e-05
-6.05379e-06
3.07861e-05
-1.7156e-05
4.32629e-05
-2.44183e-05
4.89205e-05
-2.28702e-05
5.51516e-05
-1.00393e-05
7.34727e-05
8.70186e-05
-4.54771e-07
3.7482e-05
-6.3735e-06
4.24441e-05
-1.22263e-05
4.60761e-05
-1.4524e-05
4.85873e-05
-1.00525e-05
5.26711e-05
-4.74079e-06
6.25034e-05
-1.7041e-06
5.9476e-05
-4.93622e-07
3.64028e-05
-2.41086e-06
3.2944e-05
-5.58177e-06
3.77315e-05
-8.65797e-06
4.56843e-05
-8.45448e-06
5.63259e-05
-2.19606e-06
6.449e-05
2.9288e-06
6.24305e-05
2.4155e-06
5.83285e-05
1.13757e-06
5.77773e-05
1.47206e-06
6.05295e-05
4.50074e-06
6.67261e-05
2.27526e-06
6.77484e-05
-4.03155e-06
5.92672e-05
-6.05083e-06
4.26819e-05
-4.71606e-06
2.84056e-05
-3.55694e-06
1.96376e-05
-3.40779e-06
2.00978e-05
-6.5441e-06
3.39207e-05
-1.48263e-05
5.15466e-05
-2.32729e-05
5.73753e-05
-2.58362e-05
5.77318e-05
-1.51335e-05
6.27956e-05
7.19194e-05
-3.37123e-06
4.08793e-05
-9.34923e-06
4.84518e-05
-1.54752e-05
5.22347e-05
-1.92602e-05
5.24047e-05
-1.72963e-05
5.07361e-05
-6.74758e-06
5.19797e-05
-2.73266e-07
5.30236e-05
-1.52777e-06
3.76674e-05
-3.77625e-06
3.51993e-05
-7.7983e-06
4.17651e-05
-1.20096e-05
4.99128e-05
-1.25715e-05
5.69105e-05
-6.57612e-06
5.85199e-05
-6.12709e-07
5.64896e-05
2.75404e-06
5.49832e-05
5.41228e-06
5.51435e-05
7.12914e-06
5.88403e-05
5.92193e-06
6.79663e-05
-4.08226e-06
7.77853e-05
-1.34799e-05
6.86857e-05
-1.83889e-05
4.75995e-05
-2.01045e-05
3.01201e-05
-2.04983e-05
2.00228e-05
-1.66538e-05
1.62428e-05
-7.95818e-06
2.52147e-05
-2.91893e-06
4.64991e-05
-7.48959e-06
6.19396e-05
-1.39024e-05
6.414e-05
-1.03688e-05
5.92645e-05
6.15609e-05
-4.08179e-06
4.49927e-05
-1.1713e-05
5.61246e-05
-1.85069e-05
5.9072e-05
-2.16222e-05
5.55588e-05
-2.06821e-05
4.98285e-05
-1.25304e-05
4.38525e-05
-1.54918e-06
4.20609e-05
-5.93759e-07
3.67209e-05
-2.67628e-06
3.72838e-05
-8.82642e-06
4.79209e-05
-1.50303e-05
5.61267e-05
-1.84152e-05
6.03144e-05
-1.31105e-05
5.32366e-05
-5.33261e-06
4.87315e-05
1.83449e-06
4.78327e-05
5.35409e-06
5.16405e-05
-1.32599e-07
6.43478e-05
-1.34808e-05
8.13373e-05
-2.54106e-05
8.97297e-05
-3.65887e-05
7.98707e-05
-5.11595e-05
6.21737e-05
-5.5928e-05
3.48884e-05
-4.98766e-05
1.39661e-05
-3.76489e-05
4.00507e-06
-2.14353e-05
8.98859e-06
-4.7851e-06
2.98366e-05
6.26221e-06
5.08804e-05
7.30571e-06
6.30853e-05
8.76067e-07
6.56836e-05
6.24269e-05
-4.29742e-06
4.93179e-05
-1.58431e-05
6.77158e-05
-2.28893e-05
6.61664e-05
-2.48145e-05
5.75264e-05
-2.30137e-05
4.80597e-05
-1.73048e-05
3.8164e-05
-4.84852e-06
2.96144e-05
3.81133e-06
2.8066e-05
-1.12146e-06
4.22222e-05
-8.06412e-06
5.48735e-05
-1.44705e-05
6.25467e-05
-1.9808e-05
6.56696e-05
-1.77917e-05
5.12339e-05
-1.16777e-05
4.26242e-05
-7.87271e-06
4.40377e-05
-1.53536e-05
5.91318e-05
-3.30463e-05
8.20521e-05
-4.79028e-05
9.62066e-05
-4.91466e-05
9.09847e-05
-5.29541e-05
8.36857e-05
-6.2718e-05
7.19435e-05
-5.8536e-05
3.07072e-05
-4.73746e-05
2.79984e-06
-3.83906e-05
-4.98883e-06
-2.89459e-05
-4.68573e-07
-1.53569e-05
1.62343e-05
-3.82552e-06
3.9336e-05
1.84743e-06
5.73997e-05
8.0432e-07
6.67135e-05
6.32175e-05
-1.05927e-05
5.99304e-05
-1.88911e-05
7.6046e-05
-2.37578e-05
7.10681e-05
-2.66156e-05
6.04203e-05
-2.66707e-05
4.81444e-05
-2.27735e-05
3.42865e-05
-1.44545e-05
2.1302e-05
-2.11346e-06
1.57254e-05
-3.71123e-07
4.0484e-05
-3.65658e-06
5.81657e-05
-7.82868e-06
6.67273e-05
-1.1871e-05
6.97217e-05
-1.82928e-05
5.76629e-05
-2.49139e-05
4.9247e-05
-3.69859e-05
5.61133e-05
-5.23747e-05
7.45282e-05
-5.86334e-05
8.83227e-05
-5.55712e-05
9.31555e-05
-5.56908e-05
9.11141e-05
-5.87457e-05
8.67499e-05
-5.5971e-05
6.9176e-05
-4.44513e-05
1.91865e-05
-3.74629e-05
-4.195e-06
-3.46402e-05
-7.82103e-06
-3.13799e-05
-3.74044e-06
-2.42772e-05
9.11911e-06
-1.57044e-05
3.07508e-05
-1.0191e-05
5.18741e-05
-5.78749e-06
6.22974e-05
5.74166e-05
-1.01653e-05
7.01016e-05
-1.93213e-05
8.5212e-05
-2.41638e-05
7.59237e-05
-2.76192e-05
6.38945e-05
-2.98755e-05
5.0422e-05
-3.00873e-05
3.45167e-05
-2.75436e-05
1.87736e-05
-2.2231e-05
1.04154e-05
-1.60313e-05
3.42867e-05
-9.92265e-06
5.20606e-05
-6.81911e-06
6.3628e-05
-7.6639e-06
7.05713e-05
-1.78128e-05
6.78153e-05
-3.4324e-05
6.57606e-05
-4.88183e-05
7.06118e-05
-5.4775e-05
8.0492e-05
-5.52314e-05
8.87878e-05
-5.47033e-05
9.26373e-05
-5.5505e-05
9.19262e-05
-5.64315e-05
8.76879e-05
-4.26594e-05
5.54102e-05
-3.1447e-05
7.97016e-06
-2.92433e-05
-6.40652e-06
-3.00845e-05
-6.98892e-06
-3.04963e-05
-3.33894e-06
-2.82313e-05
6.84312e-06
-2.28635e-05
2.53718e-05
-1.73196e-05
4.63194e-05
-1.06959e-05
5.56628e-05
4.67085e-05
-1.44255e-05
8.45264e-05
-1.96186e-05
9.04057e-05
-2.73111e-05
8.36177e-05
-3.56549e-05
7.22419e-05
-3.84012e-05
5.31776e-05
-3.81452e-05
3.42764e-05
-4.05681e-05
2.12185e-05
-4.16636e-05
1.15251e-05
-3.22189e-05
2.48478e-05
-1.99578e-05
3.98017e-05
-1.17377e-05
5.54101e-05
-1.00289e-05
6.88649e-05
-1.74574e-05
7.5246e-05
-2.86821e-05
7.69874e-05
-3.86952e-05
8.06282e-05
-4.47261e-05
8.65285e-05
-4.80258e-05
9.20951e-05
-5.02938e-05
9.49146e-05
-5.14189e-05
9.30623e-05
-4.81171e-05
8.4398e-05
-2.8789e-05
3.60849e-05
-2.1879e-05
1.0537e-06
-2.23913e-05
-5.90287e-06
-2.49319e-05
-4.45727e-06
-2.74506e-05
-8.29325e-07
-2.82479e-05
7.63122e-06
-2.57493e-05
2.28643e-05
-1.93018e-05
3.98633e-05
-1.15789e-05
4.79311e-05
3.5119e-05
-1.25868e-05
9.71114e-05
-1.84112e-05
9.62288e-05
-2.36172e-05
8.88222e-05
-2.97358e-05
7.83593e-05
-3.81389e-05
6.15812e-05
-4.65312e-05
4.26753e-05
-5.02485e-05
2.49572e-05
-5.20382e-05
1.33418e-05
-4.14722e-05
1.42975e-05
-2.76331e-05
2.59665e-05
-1.72758e-05
4.50544e-05
-9.49739e-06
6.10883e-05
-1.30013e-05
7.87527e-05
-2.16783e-05
8.56683e-05
-2.97245e-05
8.86793e-05
-3.59336e-05
9.27439e-05
-4.07483e-05
9.69174e-05
-4.43974e-05
9.85736e-05
-4.6917e-05
9.55936e-05
-3.45256e-05
7.2016e-05
-1.74486e-05
1.90061e-05
-1.46931e-05
-1.70989e-06
-1.70047e-05
-3.60035e-06
-2.03946e-05
-1.07624e-06
-2.38473e-05
2.61505e-06
-2.57674e-05
9.54398e-06
-2.40837e-05
2.1174e-05
-1.76642e-05
3.34378e-05
-9.07541e-06
3.93359e-05
2.60347e-05
-1.18907e-05
0.000109001
-1.78971e-05
0.000102234
-1.87922e-05
8.97162e-05
-1.87942e-05
7.83597e-05
-2.16827e-05
6.4468e-05
-3.16264e-05
5.26184e-05
-4.47345e-05
3.80728e-05
-4.57842e-05
1.44153e-05
-4.16385e-05
1.01755e-05
-3.18437e-05
1.61809e-05
-2.11727e-05
3.43864e-05
-1.00201e-05
4.99374e-05
-6.91623e-06
7.56518e-05
-1.44132e-05
9.31708e-05
-2.18586e-05
9.61312e-05
-2.87102e-05
9.9603e-05
-3.43381e-05
0.000102554
-3.88443e-05
0.00010309
-3.91343e-05
9.58958e-05
-1.9424e-05
5.23109e-05
-8.73618e-06
8.31268e-06
-9.02617e-06
-1.42891e-06
-1.20183e-05
-6.17663e-07
-1.54811e-05
2.37775e-06
-1.90193e-05
6.14534e-06
-2.11482e-05
1.16666e-05
-1.96459e-05
1.96671e-05
-1.34468e-05
2.72349e-05
-5.04439e-06
3.09295e-05
2.09835e-05
-1.12237e-05
0.000120226
-1.34229e-05
0.000104434
-1.10633e-05
8.73559e-05
-7.61685e-06
7.49121e-05
-5.93101e-06
6.27805e-05
-6.99705e-06
5.36824e-05
-1.80309e-05
4.91058e-05
-3.50391e-05
3.14324e-05
-3.5252e-05
1.04072e-05
-3.29074e-05
1.38517e-05
-2.38669e-05
2.53521e-05
-1.38509e-05
3.99235e-05
-3.39915e-06
6.5203e-05
-7.11331e-06
9.68914e-05
-1.44408e-05
0.000103467
-2.17743e-05
0.000106946
-2.8731e-05
0.000109521
-3.32236e-05
0.000107595
-2.7691e-05
9.03743e-05
-7.06601e-06
3.16861e-05
-2.57278e-06
3.81166e-06
-4.7139e-06
7.02807e-07
-7.91232e-06
2.57134e-06
-1.09912e-05
5.44782e-06
-1.37276e-05
8.87415e-06
-1.51389e-05
1.30719e-05
-1.3458e-05
1.79823e-05
-8.29557e-06
2.20698e-05
-1.46196e-06
2.40935e-05
1.95168e-05
-7.8747e-06
0.000128102
-5.54504e-06
0.000102104
-1.92542e-06
8.37359e-05
2.77823e-06
7.02076e-05
6.93984e-06
5.86175e-05
1.12817e-05
4.93388e-05
6.18572e-06
5.42003e-05
-1.23895e-05
5.00084e-05
-2.67934e-05
2.48221e-05
-2.83587e-05
1.54339e-05
-2.50024e-05
2.20062e-05
-1.89163e-05
3.38416e-05
-4.59767e-06
5.0887e-05
7.19724e-07
9.15799e-05
-6.22161e-06
0.000110418
-1.49594e-05
0.000115695
-2.34697e-05
0.000118043
-2.88317e-05
0.000112971
-1.32344e-05
7.47854e-05
1.04362e-06
1.74041e-05
1.23155e-06
3.61512e-06
-1.57977e-06
3.50478e-06
-4.47912e-06
5.46148e-06
-6.88518e-06
7.84532e-06
-8.58644e-06
1.05679e-05
-9.0421e-06
1.35216e-05
-7.49555e-06
1.64315e-05
-4.21144e-06
1.87829e-05
-2.36023e-07
2.0116e-05
1.92774e-05
-1.68483e-06
0.00012979
2.06766e-06
9.83529e-05
6.29502e-06
7.95086e-05
1.1853e-05
6.4649e-05
1.68354e-05
5.3634e-05
2.21197e-05
4.40532e-05
2.56615e-05
5.0658e-05
1.45278e-05
6.11426e-05
-1.30609e-05
5.24151e-05
-1.84082e-05
2.07936e-05
-2.03501e-05
2.39626e-05
-1.72295e-05
3.07289e-05
-8.7199e-06
4.23813e-05
6.87577e-06
7.59896e-05
3.20159e-06
0.000114103
-7.54632e-06
0.000126457
-1.83184e-05
0.00012883
-2.13317e-05
0.000116
-3.93249e-07
5.38517e-05
5.65954e-06
1.13449e-05
3.54188e-06
5.72405e-06
6.0934e-07
6.42825e-06
-1.893e-06
7.95497e-06
-3.73824e-06
9.68233e-06
-4.76564e-06
1.1588e-05
-4.80979e-06
1.35597e-05
-3.82855e-06
1.54456e-05
-2.14514e-06
1.70961e-05
-3.28021e-07
1.82963e-05
1.89465e-05
4.06526e-06
0.000125729
8.03287e-06
9.43864e-05
1.29402e-05
7.46016e-05
1.89661e-05
5.86227e-05
2.56587e-05
4.69406e-05
3.04265e-05
3.92845e-05
3.62129e-05
4.48723e-05
3.58928e-05
6.14659e-05
1.4689e-05
7.36234e-05
-1.20156e-05
4.75063e-05
-1.38027e-05
2.57636e-05
-1.33536e-05
3.0292e-05
-1.11615e-05
4.01967e-05
5.20898e-06
5.96254e-05
1.28189e-05
0.000106504
-2.83559e-09
0.000139297
-1.40392e-05
0.000142887
-9.56921e-06
0.000111547
7.51109e-06
3.67721e-05
7.7512e-06
1.10976e-05
4.79675e-06
8.67006e-06
1.99952e-06
9.21684e-06
-1.79007e-07
1.01251e-05
-1.6725e-06
1.1168e-05
-2.42726e-06
1.23358e-05
-2.48698e-06
1.36134e-05
-1.997e-06
1.49507e-05
-1.16946e-06
1.62646e-05
-3.21332e-07
1.74449e-05
1.86221e-05
8.58999e-06
0.000117144
1.24662e-05
9.05106e-05
1.78479e-05
6.92208e-05
2.53089e-05
5.11619e-05
3.31626e-05
3.90868e-05
3.73451e-05
3.5102e-05
4.12718e-05
4.09475e-05
4.4715e-05
5.80281e-05
3.6456e-05
8.18914e-05
7.00874e-06
7.69621e-05
-6.52911e-06
3.93123e-05
-8.27977e-06
3.20553e-05
-7.9063e-06
3.98344e-05
1.06083e-06
5.06665e-05
1.91352e-05
8.84405e-05
1.025e-05
0.000148205
-9.10376e-06
0.000162269
3.01113e-06
9.94485e-05
1.09486e-05
2.88326e-05
8.61915e-06
1.34198e-05
5.456e-06
1.18252e-05
2.85779e-06
1.18069e-05
9.31936e-07
1.2043e-05
-3.33043e-07
1.24255e-05
-9.99729e-07
1.29957e-05
-1.1707e-06
1.37783e-05
-9.84089e-07
1.47588e-05
-5.91089e-07
1.58671e-05
-1.79766e-07
1.70296e-05
1.84388e-05
1.10753e-05
0.000106076
1.64591e-05
8.51323e-05
2.26449e-05
6.30382e-05
3.07526e-05
4.30556e-05
3.77163e-05
3.21237e-05
4.11925e-05
3.16271e-05
4.37898e-05
3.83532e-05
4.73257e-05
5.44989e-05
4.61946e-05
8.30347e-05
3.00414e-05
9.31284e-05
3.88595e-06
6.54785e-05
-1.12915e-06
3.70823e-05
-1.59244e-06
4.03098e-05
2.85683e-07
4.87992e-05
1.77844e-05
7.09534e-05
2.13823e-05
0.000144636
5.52027e-07
0.000183141
1.05594e-05
8.94599e-05
1.2018e-05
2.73712e-05
8.84477e-06
1.65863e-05
5.80855e-06
1.4854e-05
3.42963e-06
1.41782e-05
1.71957e-06
1.37456e-05
6.00794e-07
1.35372e-05
-4.57684e-08
1.36356e-05
-3.28795e-07
1.40553e-05
-3.45935e-07
1.47706e-05
-1.9838e-07
1.57147e-05
-7.62565e-09
1.68345e-05
1.84274e-05
1.36983e-05
9.23875e-05
2.09277e-05
7.79138e-05
2.72157e-05
5.67558e-05
3.36864e-05
3.65872e-05
3.91276e-05
2.66838e-05
4.21798e-05
2.85768e-05
4.43643e-05
3.61724e-05
4.6863e-05
5.20077e-05
4.99779e-05
7.99337e-05
4.35132e-05
9.96107e-05
2.14043e-05
8.76014e-05
8.03885e-06
5.04583e-05
6.93389e-06
4.14258e-05
6.70928e-06
4.90351e-05
1.55981e-05
6.20769e-05
2.94949e-05
0.000130773
1.34869e-05
0.000199209
1.35347e-05
8.94345e-05
1.18994e-05
2.90037e-05
8.82337e-06
1.9656e-05
6.07859e-06
1.75919e-05
3.93801e-06
1.63118e-05
2.40111e-06
1.52755e-05
1.34689e-06
1.45847e-05
6.31902e-07
1.43442e-05
2.07945e-07
1.44733e-05
4.15427e-08
1.49313e-05
5.56169e-08
1.56954e-05
1.39814e-07
1.67455e-05
1.85631e-05
1.56758e-05
7.67216e-05
2.42396e-05
6.93592e-05
2.9802e-05
5.1199e-05
3.47784e-05
3.16131e-05
3.85985e-05
2.2865e-05
4.13154e-05
2.58622e-05
4.32476e-05
3.42446e-05
4.55487e-05
4.97147e-05
5.07006e-05
7.47965e-05
5.04658e-05
9.98659e-05
3.87642e-05
9.93219e-05
2.15446e-05
6.76896e-05
1.70453e-05
4.59336e-05
1.59008e-05
5.01888e-05
1.70609e-05
6.09283e-05
3.08386e-05
0.000117033
2.31927e-05
0.000206939
1.54552e-05
9.72007e-05
1.1943e-05
3.25137e-05
9.05095e-06
2.25423e-05
6.62307e-06
2.00136e-05
4.69973e-06
1.82287e-05
3.2193e-06
1.67497e-05
2.02625e-06
1.57717e-05
1.07345e-06
1.52911e-05
4.4066e-07
1.51001e-05
1.57607e-07
1.52086e-05
1.54206e-07
1.56933e-05
2.67083e-07
1.66275e-05
1.88258e-05
1.46488e-05
6.20815e-05
2.46857e-05
5.93302e-05
3.07682e-05
4.51215e-05
3.4898e-05
2.74856e-05
3.72467e-05
2.05178e-05
3.9159e-05
2.39527e-05
4.06824e-05
3.27259e-05
4.32373e-05
4.71681e-05
4.95496e-05
6.84988e-05
5.46327e-05
9.48047e-05
5.12008e-05
0.000102777
3.63431e-05
8.25633e-05
2.77875e-05
5.44977e-05
2.42492e-05
5.37348e-05
2.15825e-05
6.36051e-05
2.88862e-05
0.000109767
2.40976e-05
0.00021183
1.6078e-05
0.000105257
1.24955e-05
3.60953e-05
9.96706e-06
2.50658e-05
7.91279e-06
2.20624e-05
6.10286e-06
2.00334e-05
4.41475e-06
1.84329e-05
2.68188e-06
1.74998e-05
1.18653e-06
1.67812e-05
2.35501e-07
1.60454e-05
-1.157e-07
1.55538e-05
7.88422e-09
1.55637e-05
3.32504e-07
1.62972e-05
1.91537e-05
1.11899e-05
5.08996e-05
2.244e-05
4.80873e-05
3.00243e-05
3.75425e-05
3.37517e-05
2.37612e-05
3.47856e-05
1.94866e-05
3.57634e-05
2.29782e-05
3.69322e-05
3.15623e-05
4.00171e-05
4.40915e-05
4.69669e-05
6.15629e-05
5.6011e-05
8.57826e-05
5.86221e-05
0.000100193
4.93555e-05
9.18517e-05
3.76742e-05
6.61906e-05
3.13078e-05
6.01098e-05
2.69346e-05
6.79891e-05
2.73947e-05
0.000109344
2.00152e-05
0.000219326
1.57011e-05
0.000109613
1.36737e-05
3.81231e-05
1.20624e-05
2.66731e-05
1.04522e-05
2.36685e-05
8.55098e-06
2.19311e-05
6.17786e-06
2.08034e-05
3.19043e-06
2.04855e-05
6.8704e-07
1.9281e-05
-6.81636e-07
1.74088e-05
-9.82406e-07
1.58483e-05
-5.48119e-07
1.51228e-05
2.2789e-07
1.55148e-05
1.93766e-05
7.60319e-06
4.33071e-05
1.80791e-05
3.76208e-05
2.57672e-05
2.98628e-05
2.93813e-05
2.01528e-05
3.06179e-05
1.82542e-05
3.15112e-05
2.20891e-05
3.29388e-05
3.01402e-05
3.61209e-05
4.09177e-05
4.25182e-05
5.51785e-05
5.29116e-05
7.54102e-05
5.98431e-05
9.32896e-05
5.7135e-05
9.45869e-05
4.47099e-05
7.8633e-05
3.56641e-05
6.91677e-05
3.03062e-05
7.33598e-05
2.58167e-05
0.000113872
1.34597e-05
0.000231808
1.5848e-05
0.000107266
1.6266e-05
3.77063e-05
1.58593e-05
2.70771e-05
1.46155e-05
2.49103e-05
1.25109e-05
2.40348e-05
9.21838e-06
2.40974e-05
2.93079e-06
2.67781e-05
-1.32955e-06
2.35402e-05
-2.86154e-06
1.89358e-05
-2.73417e-06
1.57139e-05
-1.6771e-06
1.40582e-05
-2.4178e-07
1.4072e-05
1.91294e-05
5.58482e-06
3.77384e-05
1.20604e-05
3.11605e-05
1.84668e-05
2.34686e-05
2.27314e-05
1.58954e-05
2.5888e-05
1.51022e-05
2.82824e-05
1.9699e-05
3.03335e-05
2.8095e-05
3.22873e-05
3.89728e-05
3.58817e-05
5.15974e-05
4.35278e-05
6.77842e-05
5.28679e-05
8.39764e-05
5.59923e-05
9.14921e-05
4.7466e-05
8.71832e-05
3.7384e-05
7.92672e-05
3.10429e-05
7.97171e-05
2.04204e-05
0.000124538
6.96148e-06
0.000245396
1.79719e-05
9.62925e-05
2.07707e-05
3.49094e-05
2.13396e-05
2.65087e-05
2.05689e-05
2.5683e-05
1.89788e-05
2.56288e-05
1.61668e-05
2.69159e-05
1.70483e-07
4.27877e-05
-6.7967e-06
3.05067e-05
-6.98527e-06
1.91186e-05
-5.56773e-06
1.42884e-05
-3.49867e-06
1.19803e-05
-1.19477e-06
1.17596e-05
1.79286e-05
6.95288e-06
3.08042e-05
6.31052e-06
3.18236e-05
1.17279e-05
1.80632e-05
1.80166e-05
9.6125e-06
2.32216e-05
9.9009e-06
2.64333e-05
1.64918e-05
2.76644e-05
2.68715e-05
2.74444e-05
3.92045e-05
2.70793e-05
5.19786e-05
2.99769e-05
6.49075e-05
3.81814e-05
7.57971e-05
4.55757e-05
8.4126e-05
4.44892e-05
8.82975e-05
3.77814e-05
8.59984e-05
3.04358e-05
8.70841e-05
8.75815e-06
0.000146269
2.75611e-06
0.000251526
2.13777e-05
7.76992e-05
2.62105e-05
3.00804e-05
2.75733e-05
2.51518e-05
2.78855e-05
2.53794e-05
2.82831e-05
2.52431e-05
2.50144e-05
3.01984e-05
-2.33318e-06
7.01522e-05
-1.45755e-05
4.27548e-05
-1.23069e-05
1.68445e-05
-9.04413e-06
1.10174e-05
-5.72458e-06
8.65138e-06
-2.60335e-06
8.62912e-06
1.53184e-05
7.89211e-06
2.29275e-05
-5.95372e-08
3.98013e-05
8.14648e-06
9.8663e-06
1.61551e-05
1.60658e-06
2.08322e-05
5.22601e-06
2.26069e-05
1.47222e-05
2.21026e-05
2.73859e-05
1.95508e-05
4.1773e-05
1.68542e-05
5.46962e-05
1.66548e-05
6.51312e-05
2.12854e-05
7.11909e-05
2.90963e-05
7.63402e-05
3.45827e-05
8.28383e-05
3.48139e-05
8.57941e-05
2.54185e-05
9.65066e-05
-4.29824e-06
0.000176055
4.04562e-06
0.000243303
2.53437e-05
5.6421e-05
3.07894e-05
2.46426e-05
3.28565e-05
2.30973e-05
3.45717e-05
2.36807e-05
3.60975e-05
2.37314e-05
1.60123e-05
5.02944e-05
-3.33411e-06
8.95141e-05
-2.32131e-05
6.26457e-05
-1.68794e-05
1.05094e-05
-1.184e-05
5.97202e-06
-7.56263e-06
4.36484e-06
-3.93195e-06
4.98938e-06
1.13795e-05
2.02033e-06
2.09171e-05
-3.36184e-06
4.52125e-05
7.52521e-06
-1.01644e-06
1.43476e-05
-5.21674e-06
1.78346e-05
1.73956e-06
1.90991e-05
1.34636e-05
1.70343e-05
2.94657e-05
9.32906e-06
4.95039e-05
5.60896e-06
5.84441e-05
5.2729e-06
6.54923e-05
8.24753e-06
6.82413e-05
1.35584e-05
7.10523e-05
2.1399e-05
7.5022e-05
2.72055e-05
8.00136e-05
1.41762e-05
0.000109571
-1.41931e-05
0.00020451
1.02013e-05
0.000219012
2.92105e-05
3.74272e-05
3.35236e-05
2.03432e-05
3.53766e-05
2.12622e-05
3.60605e-05
2.30099e-05
1.95119e-05
4.02873e-05
-7.01578e-06
7.68306e-05
-5.95836e-06
8.84704e-05
-1.82705e-05
7.4968e-05
-2.18476e-05
1.4085e-05
-1.39171e-05
-1.96327e-06
-8.76875e-06
-7.91419e-07
-4.80166e-06
1.01473e-06
6.57191e-06
-5.74254e-06
2.66715e-05
-1.19386e-06
4.06919e-05
7.43879e-06
-9.64992e-06
1.27576e-05
-1.05398e-05
1.67117e-05
-2.2157e-06
1.91617e-05
1.10205e-05
1.39737e-05
3.46709e-05
-2.69979e-06
6.62134e-05
-8.2905e-06
6.40683e-05
-4.9387e-06
6.21664e-05
-9.92448e-07
6.4319e-05
3.22643e-06
6.68552e-05
9.0588e-06
6.92109e-05
1.52941e-05
7.38033e-05
-1.45307e-06
0.000126369
-2.21914e-05
0.000225354
1.7676e-05
0.000179231
2.95525e-05
2.55663e-05
3.39326e-05
1.59798e-05
3.40164e-05
2.11902e-05
1.78621e-05
3.91708e-05
-1.18132e-05
6.99689e-05
-1.82037e-05
8.32319e-05
-1.23211e-05
8.25993e-05
-9.84007e-06
7.24952e-05
-2.16703e-05
2.5915e-05
-1.49276e-05
-8.71059e-06
-8.90269e-06
-6.82116e-06
-4.49039e-06
-3.40215e-06
2.07796e-06
-3.55966e-06
3.0246e-05
2.5617e-06
3.45938e-05
6.92329e-06
-1.40149e-05
1.24541e-05
-1.60765e-05
1.85415e-05
-8.30535e-06
2.18752e-05
7.69105e-06
1.44796e-05
4.20866e-05
-5.94948e-06
8.66792e-05
-1.7333e-05
7.54822e-05
-1.24154e-05
5.72747e-05
-7.61677e-06
5.95413e-05
-2.815e-06
6.20724e-05
1.05183e-06
6.53627e-05
2.45753e-06
7.24233e-05
-1.83574e-05
0.000147256
-2.70773e-05
0.000234203
1.83723e-05
0.000133856
2.64953e-05
1.74566e-05
3.11042e-05
1.13797e-05
1.49895e-05
3.73119e-05
-1.38786e-05
6.80453e-05
-2.45397e-05
8.06404e-05
-2.32923e-05
8.19958e-05
-1.72758e-05
7.6593e-05
-1.17197e-05
6.69466e-05
-1.74852e-05
3.16811e-05
-1.36769e-05
-1.2524e-05
-8.14061e-06
-1.23598e-05
-4.82e-06
-6.72312e-06
-2.7429e-06
3.96689e-06
2.6294e-05
5.7173e-06
3.28629e-05
6.18897e-06
-1.44898e-05
1.23114e-05
-2.22054e-05
2.08684e-05
-1.68669e-05
2.70619e-05
1.50356e-06
1.38787e-05
5.5287e-05
9.04639e-06
9.1536e-05
-4.18764e-06
8.87381e-05
-1.26521e-05
6.57579e-05
-9.7023e-06
5.66086e-05
-5.39252e-06
5.77806e-05
-3.91441e-06
6.39038e-05
-1.46516e-05
8.31874e-05
-3.658e-05
0.000169265
-2.68498e-05
0.000224603
1.28225e-05
9.42415e-05
2.37734e-05
6.51084e-06
1.75107e-05
1.76471e-05
-1.26028e-05
6.74339e-05
-2.59857e-05
8.14393e-05
-2.89387e-05
8.36053e-05
-2.66469e-05
7.97154e-05
-2.21541e-05
7.21096e-05
-1.60604e-05
6.08597e-05
-1.04402e-05
2.60611e-05
-8.07037e-06
-1.49015e-05
-6.36261e-06
-1.40709e-05
-6.33874e-06
-6.74725e-06
-9.08246e-06
5.70359e-06
2.06033e-05
7.43301e-06
3.11505e-05
4.66035e-06
-1.17184e-05
9.90367e-06
-2.74543e-05
2.07808e-05
-2.77462e-05
1.91825e-05
3.10692e-06
1.26683e-05
6.18144e-05
2.1052e-05
8.31698e-05
2.27986e-05
8.70106e-05
6.87013e-06
8.17027e-05
-3.47554e-06
6.69686e-05
-9.8464e-06
6.41682e-05
-2.04839e-05
7.45631e-05
-4.25422e-05
0.00010528
-4.17959e-05
0.000168588
-1.69999e-05
0.000199903
5.27039e-06
7.20077e-05
8.02378e-06
3.75576e-06
-6.49541e-06
3.21701e-05
-2.47093e-05
8.56605e-05
-3.06547e-05
8.73982e-05
-3.2015e-05
8.49787e-05
-3.01282e-05
7.78403e-05
-2.57393e-05
6.773e-05
-1.2953e-05
4.80791e-05
4.79e-06
8.31781e-06
4.56414e-06
-1.46823e-05
3.09943e-06
-1.26126e-05
1.71179e-06
-5.36121e-06
-7.37242e-06
3.30928e-06
1.73044e-05
9.61596e-06
2.48575e-05
5.00867e-06
-7.10979e-06
6.55909e-06
-2.90088e-05
9.06158e-06
-3.02519e-05
1.06365e-05
1.53455e-06
1.69469e-05
5.55147e-05
2.29477e-05
7.71843e-05
2.41375e-05
8.58374e-05
1.92615e-05
8.6595e-05
2.0577e-06
8.41883e-05
-1.85026e-05
8.47453e-05
-3.82266e-05
9.43096e-05
-4.68353e-05
0.000113922
-2.88037e-05
0.000150604
-3.3137e-07
0.000171491
-7.10443e-06
7.88077e-05
-1.71203e-05
1.37723e-05
-2.12501e-05
3.63066e-05
-2.96808e-05
9.41075e-05
-3.44568e-05
9.219e-05
-3.5334e-05
8.58705e-05
-3.30918e-05
7.56104e-05
-2.37187e-05
5.83659e-05
-6.29496e-07
2.49937e-05
1.52668e-05
-7.57983e-06
1.65481e-05
-1.59664e-05
1.32268e-05
-9.29371e-06
8.6602e-06
-7.95936e-07
1.28674e-06
9.3337e-07
1.63789e-05
9.05762e-06
1.6742e-05
4.13621e-06
-2.18615e-06
-1.45756e-06
-2.34188e-05
-4.15629e-06
-2.75572e-05
5.09242e-06
-7.71385e-06
2.0533e-05
4.0083e-05
2.41446e-05
7.35872e-05
2.25723e-05
8.74262e-05
1.67149e-05
9.24692e-05
4.67378e-06
9.62461e-05
-1.06451e-05
0.000100082
-2.37735e-05
0.000107459
-2.96055e-05
0.000119781
-1.62601e-05
0.000137294
5.81129e-06
0.000149461
-1.63217e-05
0.000100966
-2.69329e-05
2.43918e-05
-2.73841e-05
3.67675e-05
-3.31662e-05
9.99093e-05
-3.89204e-05
9.79627e-05
-3.8672e-05
8.56384e-05
-3.20847e-05
6.90359e-05
-1.19104e-05
3.8199e-05
1.04825e-05
2.60207e-06
1.68047e-05
-1.39041e-05
1.48547e-05
-1.40185e-05
8.51668e-06
-2.95628e-06
4.66435e-06
3.05541e-06
5.95101e-06
7.10354e-07
1.56739e-05
6.32484e-06
1.1132e-05
2.58312e-06
1.55708e-06
-7.39162e-06
-1.34466e-05
-1.062e-05
-2.43325e-05
-1.46473e-06
-1.68705e-05
2.10711e-05
1.75531e-05
2.61853e-05
6.84872e-05
2.36529e-05
8.99761e-05
1.75117e-05
9.86292e-05
8.97847e-06
0.000104799
-1.24077e-06
0.000110322
-1.03832e-05
0.000116625
-1.54415e-05
0.000124866
-1.11974e-05
0.000133082
-9.28387e-08
0.000138391
-1.44798e-05
0.000115379
-2.52474e-05
3.51693e-05
-3.09415e-05
4.24732e-05
-3.63233e-05
0.000105314
-4.37964e-05
0.000105458
-4.07922e-05
8.26523e-05
-2.22934e-05
5.05488e-05
1.96961e-06
1.39405e-05
1.42424e-05
-9.67123e-06
1.48296e-05
-1.44932e-05
1.03594e-05
-9.55002e-06
4.48169e-06
2.9209e-06
1.25397e-06
6.28215e-06
7.20464e-06
2.28872e-06
1.33886e-05
3.28569e-06
1.01373e-05
8.11838e-07
4.03207e-06
-7.78154e-06
-4.85458e-06
-1.22495e-05
-1.98675e-05
-6.90888e-06
-2.22134e-05
1.53494e-05
-4.70264e-06
2.96091e-05
5.42404e-05
2.63719e-05
9.32328e-05
2.03849e-05
0.000104637
1.4033e-05
0.000111174
6.54509e-06
0.000117834
-1.44893e-07
0.000123342
-5.28525e-06
0.000130035
-6.39933e-06
0.000134226
-3.59573e-06
0.000135619
-1.10595e-05
0.000122871
-2.6092e-05
5.02139e-05
-3.68445e-05
5.32401e-05
-4.09933e-05
0.000109491
-4.69598e-05
0.000111452
-3.40961e-05
6.98077e-05
-7.45777e-06
2.39194e-05
9.49614e-06
-3.01151e-06
1.31591e-05
-1.33354e-05
1.108e-05
-1.2416e-05
4.76548e-06
-3.23683e-06
1.29832e-06
6.38759e-06
-1.9142e-06
9.49378e-06
5.28937e-06
4.41737e-06
8.9732e-06
2.84654e-06
1.171e-05
2.90208e-07
6.58963e-06
-5.47963e-06
9.15199e-07
-1.0442e-05
-1.49072e-05
-8.94672e-06
-2.37112e-05
5.07981e-06
-1.87295e-05
2.87767e-05
3.05538e-05
2.9055e-05
9.29756e-05
2.41172e-05
0.000109599
1.8667e-05
0.000116649
1.27424e-05
0.000123786
7.19599e-06
0.000128916
2.33239e-06
0.000134928
-1.15647e-06
0.000137746
-2.92808e-06
0.000137422
-9.27416e-06