/*--------------------------------*- C++ -*----------------------------------*\
| =========                 |                                                 |
| \\      /  F ield         | OpenFOAM: The Open Source CFD Toolbox           |
|  \\    /   O peration     | Version:  2.3.0                                 |
|   \\  /    A nd           | Web:      www.OpenFOAM.org                      |
|    \\/     M anipulation  |                                                 |
\*---------------------------------------------------------------------------*/
FoamFile
{
    version     2.0;
    format      ascii;
    class       volScalarField;
    location    "0.74";
    object      Theta.particles;
}
// * * * * * * * * * * * * * * * * * * * * * * * * * * * * * * * * * * * * * //

dimensions      [0 2 -2 0 0 0 0];

internalField   nonuniform List<scalar> 
6000
(
0.000621551
0.000478774
0.000597125
0.000836903
0.000993975
0.00158443
0.0025505
0.00245742
0.00154395
0.00127336
0.00130985
0.00175075
0.00250213
0.00168115
0.00056453
0.000354067
0.000309407
0.000507746
0.00130208
0.0012876
0.00157417
0.00201272
0.00160611
0.00145254
0.00133662
0.00109876
0.000852706
0.000736396
0.000657495
0.000745779
1.41217e-05
3.34144e-05
3.46184e-05
2.88075e-05
2.52428e-05
3.11221e-05
4.07763e-05
5.89288e-05
4.70959e-05
4.01575e-05
4.60852e-05
6.98714e-05
6.66299e-05
5.26713e-05
4.89862e-05
3.31901e-05
3.404e-05
5.47421e-05
5.75453e-05
4.59896e-05
4.72513e-05
5.18073e-05
5.65434e-05
5.8472e-05
5.63487e-05
4.44664e-05
3.52268e-05
3.97906e-05
5.31362e-05
4.56899e-05
4.93396e-05
7.27634e-05
7.69259e-05
3.31236e-05
1.00488e-05
1.86948e-06
5.04457e-07
2.1549e-07
2.41064e-06
6.37207e-06
1.49692e-05
9.96371e-06
2.32528e-06
6.3833e-06
1.95507e-05
6.34501e-05
9.89775e-05
6.38983e-05
1.07475e-05
3.01083e-06
6.07261e-07
8.25713e-07
4.99416e-07
1.11372e-06
2.37703e-06
4.80304e-06
2.55629e-06
6.63779e-06
4.5431e-05
0.000136033
1.06345e-05
4.1302e-06
1.9366e-06
2.04003e-06
2.75071e-06
2.44276e-06
2.57264e-06
2.57997e-06
2.33937e-06
1.52074e-06
1.35569e-06
1.2715e-06
3.5144e-06
5.16309e-06
4.85224e-06
3.85195e-05
0.000113841
2.71433e-05
3.42443e-06
3.26784e-06
3.40458e-06
3.15775e-06
2.2261e-06
1.96794e-06
2.43844e-06
2.41472e-06
3.17297e-06
6.72193e-06
9.77175e-06
0.000101142
5.21541e-06
1.54346e-05
5.33957e-06
2.96882e-06
1.71635e-06
1.73938e-06
1.79944e-06
1.48047e-06
1.57311e-06
1.3048e-06
1.1883e-06
1.98219e-06
3.33478e-06
5.32433e-06
7.318e-06
9.19836e-05
0.000117859
1.13203e-05
5.31602e-06
3.44604e-06
2.56334e-06
1.08144e-06
1.40096e-06
3.05125e-06
2.41566e-06
1.46983e-06
1.92981e-06
3.22459e-06
1.32828e-05
0.000109335
3.82385e-06
4.74999e-05
2.50244e-05
9.15651e-06
1.98868e-06
2.34514e-06
2.38282e-06
2.01447e-06
1.81606e-06
2.50155e-06
3.55132e-06
6.25946e-06
6.36667e-06
9.18492e-06
3.08873e-05
0.000115487
4.74699e-05
3.12131e-06
4.16096e-06
3.97388e-06
4.16101e-06
2.98395e-06
4.76875e-06
1.08213e-06
3.97687e-07
7.66755e-07
2.77492e-06
4.35672e-06
1.12663e-05
0.000153811
3.09656e-06
9.22636e-07
6.30156e-05
2.15523e-05
6.95682e-06
2.72696e-06
3.13199e-06
2.36674e-06
2.08979e-06
3.12392e-06
4.98175e-06
8.77251e-06
1.20752e-05
1.625e-05
5.20765e-05
3.01166e-05
3.02892e-06
1.7075e-06
1.82122e-06
6.10491e-06
3.64812e-06
3.44728e-06
2.81178e-06
2.79447e-06
7.18398e-06
6.5961e-06
2.88607e-07
1.17152e-06
2.41974e-06
0.000179074
5.81051e-06
8.1169e-07
1.86868e-06
5.44402e-05
1.24239e-05
5.80166e-06
2.80459e-06
8.50743e-07
7.53036e-07
1.29846e-06
2.94858e-06
3.90423e-06
4.8796e-06
5.03551e-06
2.48358e-06
1.55172e-06
4.0214e-07
6.99851e-07
3.00261e-06
5.55369e-06
9.82447e-06
1.82846e-05
4.47243e-05
0.000132928
0.000306255
0.000495778
0.000424216
0.00014076
8.31758e-05
0.0002523
3.18994e-06
3.358e-06
1.57529e-06
3.91195e-06
2.6268e-05
4.4534e-06
3.32426e-06
2.53727e-07
1.83199e-08
7.19427e-07
1.30513e-06
1.46728e-06
2.65732e-07
1.73861e-06
2.02684e-06
2.82692e-06
1.04207e-07
8.09484e-08
2.64525e-05
0.000125054
0.000200606
0.000256152
0.000324776
0.000682456
0.000807332
0.00106845
0.00156505
0.00157639
0.00139201
0.00121743
1.26267e-05
7.2269e-06
4.24033e-06
5.72922e-06
4.0058e-06
2.84466e-06
4.51997e-06
2.92045e-06
3.62595e-05
5.00249e-05
4.18279e-05
2.28753e-05
1.24212e-05
1.78729e-05
1.60957e-05
1.74399e-05
1.01999e-05
0.000393813
0.00113254
0.00121329
0.000839555
0.000686553
0.000521194
0.000140683
2.2955e-05
1.72073e-05
0.000155077
0.000773321
0.00136624
0.00162784
2.55863e-05
8.77198e-06
2.17527e-06
3.29879e-06
8.53009e-06
3.41237e-06
8.5627e-06
3.31711e-05
0.00027123
0.000338335
0.000405533
0.000355068
0.000145564
8.78599e-05
9.98355e-05
0.000135535
0.000999076
0.00204912
0.00134971
0.000474097
0.000162653
5.87535e-05
5.21246e-07
8.58957e-07
1.59747e-06
1.66442e-06
1.17473e-06
5.80627e-07
7.75747e-07
0.000336399
1.7092e-05
1.75441e-05
2.17454e-06
8.4091e-07
6.27048e-06
7.68683e-06
1.52505e-05
5.13535e-05
0.000509416
0.000590443
0.000694694
0.000880789
0.000868857
0.000568166
0.000654853
0.00138179
0.00172441
0.000373156
8.46971e-06
7.60273e-07
4.13374e-07
4.92978e-07
1.2463e-06
1.67065e-06
1.96019e-06
2.09112e-06
1.94207e-06
1.56839e-06
1.47293e-06
0.000135171
0.000666122
0.000775296
0.000617862
0.000195199
4.41982e-06
2.00057e-05
8.75051e-06
9.04704e-05
8.59111e-05
1.32696e-05
3.85006e-05
9.37022e-05
0.000403008
0.0007637
0.000814679
0.000516721
2.87737e-05
7.94373e-07
2.27007e-06
1.66871e-06
4.3461e-07
9.42666e-07
3.0691e-06
2.84987e-06
2.15572e-06
2.42405e-06
2.74807e-06
2.49305e-06
2.18679e-06
0.00010389
0.00109718
0.00108763
0.00183135
0.00177411
0.000940578
1.57098e-05
2.62945e-05
0.000177308
1.28252e-05
1.69943e-06
5.36605e-07
8.89885e-07
2.11542e-06
2.18964e-05
1.11849e-05
8.93371e-07
7.03711e-07
2.40422e-06
2.60225e-06
1.41484e-06
5.36805e-07
1.34834e-06
4.56491e-06
4.37791e-06
2.83241e-06
2.80612e-06
3.06704e-06
3.3459e-06
3.50884e-06
6.70281e-05
0.000361394
1.67321e-06
0.000126363
0.000788545
0.00211396
0.00142333
6.35351e-05
0.000189649
2.9225e-06
2.75685e-06
1.52613e-06
1.8569e-06
3.95355e-06
8.45703e-06
4.15543e-06
1.63202e-06
1.48291e-06
2.94626e-06
2.571e-06
9.0567e-07
5.13498e-07
1.34466e-06
4.70387e-06
5.71045e-06
3.6865e-06
2.67202e-06
3.03015e-06
3.54642e-06
4.69507e-06
3.55863e-05
9.03316e-05
6.07724e-07
3.75413e-07
4.28072e-07
3.84444e-05
0.00163283
0.00151346
0.000186816
1.87413e-06
3.95517e-06
2.5338e-06
3.87115e-06
6.66292e-06
1.05035e-05
4.00189e-06
1.46819e-06
1.67924e-06
3.31209e-06
2.39301e-06
7.85394e-07
7.01399e-07
2.10634e-06
5.21239e-06
5.64002e-06
4.39987e-06
2.80312e-06
2.7897e-06
3.36483e-06
4.46854e-06
1.72518e-05
6.50043e-05
8.05983e-07
6.49307e-07
9.4599e-07
9.05644e-07
2.05851e-06
0.000803121
0.000801706
5.74434e-05
3.13011e-06
2.85314e-06
4.54769e-06
1.1987e-05
1.0095e-05
4.77721e-06
2.01214e-06
2.00421e-06
3.6959e-06
1.77704e-06
1.06918e-06
8.11497e-07
2.49592e-06
4.28827e-06
4.6854e-06
4.60625e-06
3.33088e-06
2.48848e-06
2.69934e-06
3.36888e-06
6.99259e-06
4.40045e-05
9.27344e-07
9.02021e-07
1.2789e-06
1.25782e-06
1.0039e-06
4.76196e-06
0.000615691
0.000504524
2.15029e-05
3.16945e-06
3.01654e-06
1.47562e-05
9.02941e-06
7.77827e-06
2.16917e-06
2.62069e-06
3.59419e-06
2.00167e-06
9.0554e-07
1.01345e-06
2.68152e-06
3.30688e-06
3.0874e-06
3.10572e-06
2.94205e-06
2.28626e-06
1.69112e-06
1.58147e-06
2.24144e-06
2.80303e-05
1.11357e-06
1.33359e-06
1.38196e-06
1.8145e-06
1.08204e-06
1.08735e-06
2.54089e-05
0.000562635
0.000357576
1.13017e-05
4.03606e-06
9.93e-06
7.7217e-06
9.36415e-06
3.22265e-06
3.06088e-06
3.34543e-06
2.15362e-06
8.67183e-07
1.33522e-06
2.26562e-06
2.07555e-06
1.73564e-06
1.64495e-06
1.62612e-06
1.33473e-06
8.02832e-07
5.21641e-07
4.79613e-07
1.74728e-05
1.27062e-06
1.86133e-06
1.60913e-06
1.9178e-06
1.29177e-06
1.60436e-06
1.08815e-06
0.000115532
0.000461772
0.000157986
4.59896e-06
1.27344e-05
2.22406e-05
1.21731e-05
5.90973e-06
4.9026e-06
3.53313e-06
1.9244e-06
8.85956e-07
1.5113e-06
1.67943e-06
1.20285e-06
8.60009e-07
6.98203e-07
6.23739e-07
4.96372e-07
3.20971e-07
2.59971e-07
3.33757e-07
1.08896e-05
1.50617e-06
2.28897e-06
1.96506e-06
1.87396e-06
1.68161e-06
1.22203e-06
1.5446e-06
2.83146e-06
0.000271453
0.000352983
3.71262e-05
8.09009e-06
5.22744e-05
2.51153e-05
8.31313e-06
5.30201e-06
5.35859e-06
2.0522e-06
1.11438e-06
1.54766e-06
1.21361e-06
7.15902e-07
4.01359e-07
2.66094e-07
2.31282e-07
2.25148e-07
2.16506e-07
2.32612e-07
3.1576e-07
7.53538e-06
1.71645e-06
2.63899e-06
2.24486e-06
1.88724e-06
1.51952e-06
1.22993e-06
1.82393e-06
1.93898e-06
3.18238e-05
0.000303918
0.000146747
1.59634e-05
2.74546e-05
8.20113e-05
1.61666e-05
9.9864e-06
6.65198e-06
2.52494e-06
1.6228e-06
1.44261e-06
9.11001e-07
4.52912e-07
2.04109e-07
1.21342e-07
1.20058e-07
1.51441e-07
1.90692e-07
2.37834e-07
3.0026e-07
6.40736e-06
1.98502e-06
2.90633e-06
2.32392e-06
1.70701e-06
1.36961e-06
1.38783e-06
1.98309e-06
2.65529e-06
3.42365e-06
0.000112209
0.000190246
4.39545e-05
2.80875e-05
0.000107028
4.51818e-05
1.56068e-05
1.50073e-05
4.08579e-06
1.8815e-06
1.26066e-06
7.0815e-07
3.05297e-07
1.21006e-07
7.22902e-08
7.95155e-08
1.18693e-07
1.7623e-07
2.45666e-07
3.0109e-07
7.07521e-06
3.01083e-06
2.91957e-06
2.09384e-06
1.48771e-06
1.32192e-06
1.55718e-06
1.97831e-06
3.20733e-06
3.31059e-06
1.72657e-05
0.000120748
6.67557e-05
2.73298e-05
9.42725e-05
0.000103958
2.03235e-05
3.87832e-05
4.89981e-06
1.75086e-06
1.03874e-06
5.35305e-07
2.09043e-07
8.7345e-08
5.66606e-08
5.91729e-08
9.13945e-08
1.55838e-07
2.52834e-07
3.26201e-07
9.93961e-06
3.90338e-06
2.71496e-06
2.04969e-06
1.37038e-06
1.35018e-06
1.72428e-06
2.43365e-06
3.7359e-06
4.1761e-06
5.64864e-06
4.89274e-05
6.39699e-05
2.70173e-05
6.03768e-05
0.000146367
4.92796e-05
6.65338e-05
6.03616e-06
1.39757e-06
7.55619e-07
3.61734e-07
1.45513e-07
7.29267e-08
5.22176e-08
4.4178e-08
5.65187e-08
1.15305e-07
2.48817e-07
3.87357e-07
8.95384e-06
4.26173e-06
3.03984e-06
2.16894e-06
1.38998e-06
1.36854e-06
2.0057e-06
3.16686e-06
3.95391e-06
5.54483e-06
4.64643e-06
1.68662e-05
4.95925e-05
2.74642e-05
6.01038e-05
0.000151028
8.67339e-05
0.000105598
7.81392e-06
9.00969e-07
4.6096e-07
2.3526e-07
1.1549e-07
7.4651e-08
6.65054e-08
3.7023e-08
1.77311e-08
5.71623e-08
2.25119e-07
5.31582e-07
5.56709e-06
4.87909e-06
4.26568e-06
3.15699e-06
1.30004e-06
1.32611e-06
2.51865e-06
3.90303e-06
4.93459e-06
6.14099e-06
5.44269e-06
6.67207e-06
2.96083e-05
2.55872e-05
6.15731e-05
0.000152042
0.000133931
0.000127007
7.21675e-06
3.78872e-07
2.69548e-07
2.01281e-07
1.85147e-07
8.03627e-07
6.97378e-07
2.35806e-07
2.22957e-08
4.23225e-08
1.88362e-07
8.76328e-07
3.12344e-06
4.44994e-06
9.63573e-06
8.26622e-06
2.08794e-06
1.69359e-06
3.51273e-06
5.0747e-06
5.91394e-06
6.16774e-06
6.51436e-06
4.27382e-06
1.59708e-05
1.8493e-05
5.53835e-05
0.000149375
0.000139457
0.000133143
5.85414e-06
1.27379e-07
2.73165e-07
3.98082e-07
2.71471e-06
8.34728e-06
4.48033e-06
1.36228e-06
3.98664e-07
3.00088e-07
2.65494e-07
1.81456e-06
2.1572e-06
2.72059e-05
4.57609e-05
1.92934e-05
4.40716e-06
3.46818e-06
4.52403e-06
5.055e-06
5.05907e-06
4.9381e-06
5.21052e-06
4.54448e-06
6.18537e-06
1.17333e-05
5.27694e-05
0.000143314
0.000114422
0.000157195
5.93374e-06
2.90954e-07
9.73598e-07
2.1257e-06
8.0166e-06
6.47922e-05
8.63976e-06
2.70246e-06
1.74245e-06
1.07038e-06
6.51374e-07
4.51427e-06
3.50707e-05
8.52177e-05
5.04384e-05
1.42311e-05
5.30979e-06
3.54591e-06
3.04963e-06
2.7786e-06
2.62785e-06
2.04408e-06
2.49804e-06
4.31577e-06
3.47483e-06
2.6726e-06
4.11613e-05
0.00011522
0.000104329
0.000224129
1.0296e-05
1.49238e-06
2.6171e-06
6.41505e-06
0.000217551
0.00179075
0.000989506
3.34089e-06
2.02724e-06
2.82869e-06
1.32458e-06
7.03575e-06
0.00010974
6.61709e-05
2.23074e-05
7.2359e-06
2.85633e-06
1.75767e-06
1.42708e-06
1.14743e-06
8.80326e-07
6.27432e-07
8.72242e-07
2.99828e-06
3.93614e-06
4.45353e-07
2.80423e-05
4.4704e-05
0.000119852
0.000338563
1.00643e-05
2.94865e-06
4.51108e-06
9.13407e-05
0.00202013
0.00155731
0.00126613
0.000410268
3.75059e-06
4.75914e-06
2.01095e-06
9.27094e-06
0.000159993
2.25623e-05
9.73827e-06
2.59747e-06
1.76593e-06
3.8541e-06
9.41445e-06
6.43217e-06
2.1974e-06
3.44247e-07
8.0141e-07
1.99012e-06
4.52853e-06
2.293e-06
1.36604e-05
1.75105e-05
0.000196115
0.000495392
7.58449e-06
3.76338e-06
3.66478e-05
0.00207344
0.00137611
9.89808e-07
9.05848e-05
0.000912226
3.10395e-05
4.75238e-06
3.62937e-06
1.67949e-05
0.000151702
6.18941e-06
6.10144e-06
1.6427e-06
7.71911e-06
2.5962e-05
3.44911e-05
0.00060716
5.89295e-05
1.36289e-06
1.89051e-06
2.2902e-06
2.42605e-06
4.25268e-06
2.47147e-05
7.41467e-06
0.000643388
0.000463561
9.53061e-06
4.07953e-05
0.00191119
0.00175465
1.46693e-06
8.22351e-07
5.09835e-07
0.000370684
0.000199433
8.94717e-06
6.15849e-06
2.13033e-05
0.000109337
4.57035e-06
1.51467e-05
3.68803e-06
2.19981e-05
2.81658e-05
0.000872832
0.00146458
0.00195363
0.000346403
1.11867e-05
6.34555e-06
4.68722e-06
3.93811e-05
0.000133656
5.99759e-07
0.00118077
0.00025864
9.50183e-05
0.00144207
0.00151252
1.17256e-06
8.49961e-07
1.46511e-06
1.49495e-06
0.000122961
0.000395903
1.09936e-05
7.4412e-06
2.60546e-05
0.000107425
1.29924e-05
2.73427e-05
7.09657e-06
1.75091e-05
0.000736522
0.00069065
0.000110091
0.00159847
0.00268946
0.00126208
0.000568423
0.000530273
0.00119953
0.000409691
4.89958e-06
0.00126994
0.000433374
0.000816283
0.000594835
1.38245e-06
1.09333e-06
1.23594e-06
2.31488e-06
2.06161e-06
2.38385e-05
0.000771206
3.17647e-05
2.94126e-05
0.000144093
0.000131899
2.06707e-05
2.20981e-05
8.07113e-06
0.000312274
0.00038429
2.84065e-06
2.59776e-06
2.55489e-06
0.000607075
0.00210665
0.00211559
0.00201633
0.00159989
0.000953037
0.000200166
0.00174229
0.000427318
0.000297556
4.84499e-06
1.66979e-06
1.06035e-06
1.68183e-06
2.84764e-06
2.04332e-06
1.27997e-06
0.000283657
0.000610009
0.000260917
0.000404699
0.000156626
1.12822e-05
1.66853e-05
9.04369e-05
0.000157013
6.82576e-08
3.14839e-06
4.46076e-06
2.16343e-06
6.00012e-07
2.29542e-05
0.000278201
0.000562867
0.000347682
0.00119752
0.00169154
0.0013759
0.000263518
3.19659e-05
4.75375e-06
2.48881e-06
1.70848e-06
2.19209e-06
2.65735e-06
2.07435e-06
1.09424e-06
9.62571e-07
6.6722e-05
5.94896e-05
0.000316154
0.000170204
7.13946e-06
2.68257e-05
5.03129e-05
4.29124e-06
7.51685e-07
2.82931e-06
5.12255e-06
2.45749e-06
1.1863e-06
1.05969e-06
1.27727e-06
5.8464e-06
8.69595e-05
0.000600988
0.00221029
0.000305518
0.000134497
6.52713e-05
4.88073e-06
4.14096e-06
3.18065e-06
3.27879e-06
2.33971e-06
1.75158e-06
6.63327e-07
2.57548e-06
8.40617e-06
2.76321e-06
0.000162487
0.000149283
3.50582e-06
1.70315e-05
1.26182e-05
2.18001e-06
9.39136e-07
2.28935e-06
4.90252e-06
3.28389e-06
1.38024e-06
8.66243e-07
1.21404e-06
1.7829e-06
2.0734e-05
0.000117834
0.000558538
2.05928e-05
0.000165323
0.000128113
4.91448e-06
6.91202e-06
3.6323e-06
4.59597e-06
2.23062e-06
8.85362e-07
9.04583e-07
4.69159e-06
6.39077e-06
2.9233e-06
0.000119748
0.000101048
3.99719e-06
7.33579e-06
8.15302e-06
3.8725e-06
1.0129e-06
1.89703e-06
4.6249e-06
3.24922e-06
1.61628e-06
1.18063e-06
1.12908e-06
8.27663e-07
2.97629e-06
1.69623e-05
8.25439e-05
1.21611e-05
0.000202973
0.000173889
4.60373e-06
8.33193e-06
3.98473e-06
4.17613e-06
1.64796e-06
4.74249e-07
2.75499e-06
4.0668e-06
4.2158e-06
4.43981e-06
7.55295e-05
6.22415e-05
4.99762e-06
5.4482e-06
5.23998e-06
4.54303e-06
1.28449e-06
1.3632e-06
4.04899e-06
3.35513e-06
2.55548e-06
1.1605e-06
9.4341e-07
8.14459e-07
9.83673e-07
1.68672e-06
8.00816e-06
6.19208e-05
0.000330473
0.000140537
7.07743e-06
1.30552e-05
4.24585e-06
2.8808e-06
5.56558e-07
8.06317e-07
2.88028e-06
3.07791e-06
4.12513e-06
6.65144e-06
4.10532e-05
3.50812e-05
5.87531e-06
4.13659e-06
4.0512e-06
4.94931e-06
2.67382e-06
1.19207e-06
3.82266e-06
4.36195e-06
2.76452e-06
1.22382e-06
9.26038e-07
1.27023e-06
7.00128e-07
1.29191e-06
1.72185e-06
6.94118e-05
0.000516703
0.000168731
8.21269e-06
1.76463e-05
3.71917e-06
1.04762e-06
1.38494e-07
1.14844e-06
2.58945e-06
3.71587e-06
5.54487e-06
7.83322e-06
1.51176e-05
1.38436e-05
7.10946e-06
4.6029e-06
3.4104e-06
4.11324e-06
4.17927e-06
2.33313e-06
4.44663e-06
5.56904e-06
2.96349e-06
1.49728e-06
1.36791e-06
1.40284e-06
8.08817e-07
5.40172e-07
1.72449e-06
4.12953e-05
0.00046034
0.000296694
3.95526e-06
2.61061e-05
6.7697e-06
1.5303e-07
4.63661e-07
1.842e-06
3.20058e-06
4.32064e-06
5.14002e-06
5.77357e-06
3.13291e-06
2.99263e-06
4.97892e-06
5.37629e-06
4.01623e-06
3.10833e-06
3.47983e-06
4.64479e-06
6.7801e-06
5.8172e-06
3.89834e-06
2.32326e-06
2.09195e-06
2.15922e-06
7.90085e-07
9.05063e-07
1.41652e-06
1.1305e-05
0.000129949
0.000353637
1.79117e-05
2.95227e-05
1.7929e-05
3.36826e-07
1.39545e-06
2.53545e-06
3.2435e-06
3.09868e-06
1.76471e-06
1.72912e-06
3.56182e-06
2.03483e-06
1.72313e-06
3.28921e-06
4.65864e-06
3.5395e-06
2.52783e-06
4.49055e-06
8.8156e-06
6.7796e-06
4.12258e-06
3.60029e-06
2.93621e-06
1.76469e-06
1.71023e-06
1.01437e-06
1.61656e-06
4.38678e-06
3.28504e-05
0.000285285
7.88714e-05
5.45442e-05
2.00843e-05
8.40275e-07
1.77648e-06
2.30685e-06
1.63847e-06
9.28501e-07
1.00066e-06
2.36722e-06
2.84364e-06
2.49247e-06
1.32348e-06
1.38151e-06
3.30282e-06
4.18518e-06
2.90243e-06
2.56752e-06
6.04503e-06
8.06878e-06
4.1069e-06
4.33529e-06
3.45176e-06
2.04298e-06
2.30239e-06
2.26608e-06
1.68716e-06
2.35301e-06
8.13435e-06
0.00017327
0.00029728
9.38801e-05
1.82739e-05
8.00756e-07
1.3453e-06
1.03832e-06
6.99884e-07
7.22026e-07
1.28551e-06
2.12406e-06
2.50128e-06
2.38195e-06
1.63089e-06
1.13138e-06
1.64031e-06
3.43899e-06
3.02785e-06
1.68796e-06
3.45266e-06
9.04544e-06
4.89313e-06
4.08344e-06
3.89471e-06
3.32656e-06
3.52308e-06
2.60892e-06
2.84212e-06
2.91573e-06
4.6789e-06
0.000173494
0.000350221
3.27582e-05
1.24637e-05
7.73212e-07
7.0058e-07
6.48569e-07
6.99318e-07
9.13763e-07
1.41288e-06
8.40383e-07
3.56615e-06
2.6142e-06
2.24134e-06
1.16956e-06
1.06016e-06
2.07477e-06
2.47903e-06
8.25601e-07
1.57298e-06
7.21141e-06
6.06371e-06
3.24266e-06
4.44513e-06
5.05411e-06
3.00536e-06
2.60613e-06
2.66375e-06
1.94747e-06
3.14728e-06
0.000116351
0.00024797
4.28114e-05
7.19909e-06
4.20121e-07
4.73483e-07
8.65049e-07
1.14331e-06
1.25747e-06
1.54906e-06
2.89936e-05
4.69642e-06
3.11623e-06
2.13448e-06
1.19599e-06
9.13273e-07
1.162e-06
1.71823e-06
5.57859e-07
6.90005e-07
5.75409e-06
8.30713e-06
5.05882e-06
5.86733e-06
4.66716e-06
3.51768e-06
2.33537e-06
1.8122e-06
1.89399e-06
3.59599e-06
8.91151e-05
0.000193285
2.93555e-05
1.81537e-05
1.76939e-06
7.94153e-07
1.78327e-06
1.73604e-06
2.19749e-05
0.00018171
0.000168993
5.15874e-05
3.36724e-06
1.59635e-06
2.09477e-06
8.63037e-07
8.39581e-07
1.25823e-06
5.83666e-07
6.36961e-07
6.15517e-06
7.74748e-06
8.4452e-06
6.99628e-06
1.13809e-05
2.77384e-06
2.96677e-06
3.76354e-06
4.0933e-06
5.10804e-06
0.000113085
0.000144456
5.92824e-05
8.12392e-05
1.20521e-05
2.37716e-06
1.45278e-06
6.0888e-05
0.000199466
9.27571e-05
1.74638e-05
0.000138193
6.86894e-06
5.91299e-06
2.52346e-06
9.12174e-07
8.30285e-07
1.24978e-06
1.47143e-06
2.12321e-06
8.80537e-06
6.0985e-06
5.25956e-06
3.43837e-06
8.52564e-06
3.21271e-06
4.47469e-06
4.77453e-06
5.44083e-06
1.19587e-05
0.000257151
0.00016077
9.07336e-05
3.62336e-05
9.19493e-05
9.22619e-05
0.000118452
0.000160511
1.15404e-05
3.18204e-06
7.41787e-06
5.15914e-05
1.85886e-05
6.173e-05
6.99008e-07
1.02737e-06
1.11613e-06
1.49894e-06
3.00054e-06
3.45989e-06
3.61724e-06
6.32854e-06
5.77083e-06
1.41765e-05
5.02265e-06
7.97762e-06
4.44736e-06
6.41602e-06
8.12871e-06
4.64358e-05
0.000579266
0.0001912
8.96255e-05
7.49217e-05
0.000127354
9.19407e-05
6.83467e-05
5.26632e-07
4.25665e-06
5.81898e-06
9.72125e-06
1.13049e-05
4.03369e-05
3.04965e-06
4.9509e-06
2.2352e-06
1.63773e-06
2.24781e-06
4.36456e-06
2.68645e-06
2.24757e-06
5.32682e-06
4.49784e-06
3.59624e-05
9.59184e-06
9.29155e-06
2.90144e-06
8.16949e-06
2.95371e-05
0.000767308
0.000407978
0.000184691
0.000115813
0.000109426
2.75359e-05
4.6419e-07
1.10485e-06
3.61882e-06
5.56221e-06
8.05836e-06
6.39061e-06
1.90144e-06
2.23829e-06
1.06967e-05
3.34751e-06
2.73365e-06
1.89346e-06
3.14992e-06
7.78061e-06
2.74357e-06
3.59251e-06
5.35478e-06
1.33531e-05
2.31097e-05
1.1001e-05
7.88262e-06
4.96149e-06
2.77396e-05
0.000565376
0.000760572
0.000202543
0.000125383
8.98712e-05
6.67729e-05
2.20603e-06
8.35083e-07
2.20494e-06
4.44991e-06
7.33767e-06
3.64025e-06
1.43286e-06
2.09823e-06
2.24742e-06
3.28275e-06
4.2233e-06
2.67401e-06
1.90236e-06
3.83868e-06
1.44081e-05
3.36717e-07
5.62849e-06
1.48725e-05
4.15584e-05
1.68723e-05
4.934e-06
1.07807e-05
1.62307e-05
0.00025197
0.000631855
0.000186915
8.69416e-05
5.89462e-05
3.70281e-05
2.00496e-05
1.16027e-06
1.1199e-06
2.79147e-06
5.65393e-06
3.24176e-06
1.0127e-06
1.58753e-06
3.16067e-06
3.73862e-06
1.74281e-06
8.2581e-07
1.49564e-06
1.94486e-06
2.64958e-06
4.4146e-06
6.02456e-07
5.45778e-06
2.25744e-05
6.91176e-05
9.45113e-06
6.4139e-06
1.90845e-05
3.0239e-05
0.000209287
0.000215931
0.000103955
6.05692e-05
2.22371e-05
2.70351e-05
3.2113e-06
1.79712e-06
1.56606e-06
4.01298e-06
3.38348e-06
1.12511e-06
1.25395e-06
2.37961e-06
2.71905e-06
2.2183e-06
2.13392e-06
1.05605e-06
6.66162e-07
9.59031e-07
2.52449e-06
3.02602e-06
4.40109e-07
9.61504e-06
6.61807e-05
5.82768e-05
6.273e-06
1.60447e-05
1.86761e-05
2.65369e-05
0.000139721
0.000158474
0.000146726
3.61296e-05
9.04694e-06
5.8464e-06
2.05816e-06
2.27315e-06
2.37462e-06
3.94736e-06
1.54047e-06
1.01878e-06
1.83445e-06
3.14087e-06
2.58313e-06
1.28449e-06
1.7527e-06
1.81898e-06
8.24579e-07
5.25326e-07
1.23857e-06
4.01209e-06
1.80936e-06
3.19598e-05
0.000124922
5.97885e-05
8.42171e-06
1.73448e-05
5.85543e-06
4.84165e-06
7.62364e-05
0.000168103
8.4814e-05
1.44248e-05
5.98703e-06
1.59834e-06
2.40636e-06
1.98522e-06
2.81584e-06
3.10952e-06
9.32927e-07
1.22464e-06
2.68867e-06
4.24102e-06
4.16235e-06
6.23726e-07
1.43318e-06
4.32313e-06
1.65916e-06
6.33986e-07
6.31096e-07
2.60205e-06
1.22114e-05
0.000108515
0.000148266
3.88889e-05
6.95595e-06
6.47546e-06
3.54551e-07
1.42271e-05
7.83248e-05
0.000124855
3.42499e-05
1.59682e-05
1.54796e-05
4.45279e-06
3.81507e-06
1.84925e-06
2.68522e-06
1.79866e-06
9.96768e-07
2.16223e-06
3.65021e-06
4.08719e-06
9.74529e-06
6.6954e-07
7.46806e-06
7.44688e-06
5.20277e-06
1.12882e-06
5.72659e-07
1.02306e-06
2.6053e-05
0.000318204
0.000176627
9.62305e-06
6.44081e-06
3.4719e-06
2.50987e-05
5.21826e-05
8.19036e-05
4.22023e-05
2.13617e-05
2.65898e-05
5.8083e-05
8.14295e-06
6.31276e-06
2.78224e-06
1.97452e-06
1.28616e-06
1.53058e-06
4.25293e-06
5.98355e-06
1.73338e-06
1.2288e-05
0.000566982
0.00120669
0.000275624
3.51616e-06
5.1055e-06
8.56196e-07
3.96346e-07
1.28687e-05
0.00064405
0.000331377
4.9923e-06
7.48519e-06
4.97524e-06
2.23719e-05
2.63565e-05
1.86241e-05
2.40245e-06
2.18956e-05
9.32228e-06
0.000112985
7.38598e-06
4.19431e-06
2.57172e-06
1.02852e-06
1.41215e-06
5.47878e-06
8.64793e-06
1.67742e-05
2.32435e-06
7.17518e-06
0.00141093
0.000912016
0.00155797
0.000857646
6.70744e-06
4.63293e-06
3.94239e-07
1.97408e-06
0.000697197
0.000390673
4.89455e-06
4.94571e-06
1.73639e-06
1.88543e-06
3.07762e-06
3.44892e-06
5.49979e-06
1.15517e-05
1.59186e-05
6.70744e-05
6.23239e-06
1.39353e-06
4.90164e-07
1.75667e-07
2.7962e-06
1.43381e-05
1.23736e-05
0.000243042
0.00176314
9.14314e-05
0.000539745
1.12745e-05
0.00026291
0.00125796
0.000482111
5.8364e-06
1.55144e-06
2.11999e-07
0.000655902
0.000338728
8.73322e-06
3.48057e-06
1.62864e-06
2.7206e-06
3.94993e-06
5.72118e-06
4.68182e-05
3.66858e-05
7.18259e-05
8.55628e-06
1.33122e-05
1.41629e-05
2.06876e-06
4.2187e-06
1.1034e-05
1.93596e-05
0.000318083
0.00280698
0.00348145
0.00186522
0.000499084
2.98091e-06
9.12129e-07
0.00014038
0.00134018
4.70111e-05
1.42455e-06
7.38932e-07
0.000428753
0.000855126
7.24996e-06
3.39007e-06
4.05436e-06
5.79009e-06
8.07509e-06
4.75579e-05
8.08338e-05
2.64502e-05
9.39371e-06
2.24598e-06
9.92769e-06
0.00018899
0.000274826
3.39458e-05
1.06398e-05
4.11387e-06
0.00142428
0.00116623
2.16749e-05
0.00235819
0.000407886
1.99246e-06
1.23048e-06
8.74322e-07
0.000754128
0.00160119
2.31551e-05
1.11686e-05
0.000117827
0.000662634
7.00439e-05
2.98413e-06
3.75744e-06
6.71336e-06
0.000105293
0.000512061
0.000193955
0.000202571
0.000176289
0.000201818
0.00116812
0.00277963
0.00248977
3.35804e-05
5.4331e-06
0.00014248
0.00154925
3.05567e-05
2.27826e-06
0.000967855
0.000303916
4.82943e-06
7.78342e-07
7.33438e-07
9.7636e-08
0.00191993
0.00253866
0.0018133
0.00127528
0.000826264
0.00110481
0.00058634
0.000471618
0.000719098
0.00162288
0.0018325
0.00182953
0.00200629
0.00213079
0.00302187
0.00397236
0.00154631
0.000712794
0.00145715
4.78059e-05
0.00185622
0.00042237
4.43937e-07
2.63678e-06
0.000882292
0.000237629
7.46865e-06
2.07794e-06
1.41152e-06
3.01401e-06
1.75306e-06
0.0010385
0.00158869
0.00237053
0.00350587
0.0032009
0.00283848
0.00261486
0.00291648
0.00287652
0.00158207
0.0014113
0.00144724
0.00165391
0.00151658
0.000185972
3.32743e-05
0.000120326
0.00100441
0.0014692
0.00130543
3.77127e-07
5.52482e-07
3.21473e-06
0.000867896
0.000163983
1.08254e-05
4.06836e-06
3.06709e-06
4.82505e-06
7.78687e-06
7.58687e-06
4.89016e-05
0.000180712
0.00157178
0.00178721
0.00224156
0.00226602
0.00194894
0.000743324
0.000110447
5.40283e-05
2.1217e-05
7.74916e-07
3.82489e-07
3.80994e-06
4.39547e-05
0.000131697
3.45186e-05
0.000670076
1.96365e-06
2.15405e-06
6.4171e-07
3.3081e-06
0.000767096
7.2339e-05
1.47468e-05
6.67359e-06
4.18332e-06
6.00273e-06
1.05805e-05
1.39067e-05
4.89482e-05
4.47353e-05
5.43301e-05
0.000141972
0.000302515
0.000324172
0.000170591
1.766e-05
3.50717e-06
1.54325e-05
8.36046e-07
9.678e-08
3.04347e-07
7.23538e-06
7.485e-05
0.000130585
1.89134e-05
2.68778e-06
4.12433e-06
1.37094e-06
9.05674e-07
4.73629e-06
0.000691264
4.71964e-05
1.72668e-05
8.88441e-06
4.91456e-06
6.95922e-06
1.41556e-05
2.02861e-05
5.89696e-05
4.09934e-05
1.5514e-06
1.65292e-07
1.20793e-06
1.69121e-06
8.8737e-07
2.64795e-06
8.66238e-06
1.87725e-05
1.40912e-08
2.25518e-07
2.50997e-07
1.10696e-05
0.000104182
0.000100165
8.26062e-06
3.28026e-06
3.47606e-06
1.83673e-06
1.53261e-06
5.70738e-06
0.000593307
4.47447e-06
1.4087e-05
1.0799e-05
7.62072e-06
8.03272e-06
1.59079e-05
2.0717e-05
6.52785e-05
3.78249e-05
4.63039e-07
9.16208e-08
2.69015e-07
2.76467e-07
5.01508e-07
1.69801e-06
1.80639e-05
1.05978e-05
2.24573e-07
3.13557e-07
4.29601e-07
1.46422e-05
0.000135633
8.62707e-05
6.09599e-06
3.23463e-06
4.30619e-06
1.86182e-06
1.68905e-06
6.90367e-06
0.000486637
8.63125e-06
3.68537e-06
5.82378e-06
7.68645e-06
8.31015e-06
1.71708e-05
1.7623e-05
7.41439e-05
3.88572e-05
1.37244e-07
1.27613e-07
2.23457e-07
2.30511e-07
4.72902e-07
8.72241e-07
2.78978e-05
6.18878e-06
9.10778e-07
2.57318e-07
4.36982e-07
1.30169e-05
0.000136838
5.63818e-05
3.0004e-06
4.01543e-06
3.96738e-06
2.43624e-06
2.75259e-06
8.24091e-06
0.000343488
6.11765e-06
6.34979e-06
1.01063e-06
3.12856e-06
6.3085e-06
1.51845e-05
1.20748e-05
8.77564e-05
5.36618e-05
1.05775e-07
2.29886e-07
2.75662e-07
1.63245e-07
1.81948e-07
1.30262e-06
2.55168e-05
3.78267e-06
1.81102e-06
5.57548e-07
2.28998e-07
9.33115e-06
0.00011668
4.46474e-05
3.15897e-06
4.50458e-06
4.97318e-06
2.81541e-06
3.50741e-06
1.04369e-05
0.000229577
1.51122e-05
1.24527e-05
9.53203e-07
6.36347e-07
2.93732e-06
9.92529e-06
1.00057e-05
0.000102527
7.94091e-05
1.20039e-07
3.24143e-07
2.92111e-07
1.19448e-07
1.3371e-07
3.0286e-06
1.30589e-05
2.1866e-06
1.84612e-06
2.11619e-06
3.04905e-07
5.90042e-06
8.56684e-05
4.02597e-05
3.55426e-06
5.22894e-06
5.00101e-06
3.12749e-06
6.27068e-06
1.48512e-05
0.000133564
7.05741e-05
1.14694e-05
3.04829e-06
3.16224e-07
1.43119e-06
6.7476e-06
1.34338e-05
0.000131297
9.83927e-05
3.56695e-08
2.59717e-07
2.52002e-07
1.01235e-07
6.95505e-08
4.67284e-06
5.95135e-06
1.20668e-06
1.42192e-06
5.02159e-06
1.91898e-06
2.65244e-06
5.52896e-05
4.64616e-05
6.22582e-06
6.45246e-06
6.12981e-06
4.67942e-06
1.04528e-05
2.48363e-05
7.74713e-05
8.23337e-05
3.28788e-06
3.35414e-06
2.77148e-07
6.9176e-07
6.6834e-06
2.1625e-05
0.00017107
9.84012e-05
6.12959e-08
1.40364e-07
1.24195e-07
6.5828e-08
2.00388e-07
8.1576e-06
3.44599e-06
3.77966e-07
4.28396e-07
2.18918e-06
6.11799e-06
1.01412e-06
3.16812e-05
6.0199e-05
1.09843e-05
7.23374e-06
7.034e-06
7.44927e-06
1.64587e-05
2.14095e-05
9.4068e-06
7.45784e-05
3.6042e-06
3.2965e-06
2.63257e-07
4.41312e-07
5.78701e-06
2.91067e-05
0.000224464
9.93174e-05
1.80732e-07
2.24415e-07
7.94729e-08
8.35898e-08
7.61247e-07
1.47454e-05
1.16679e-06
1.8899e-07
1.51456e-07
6.17814e-07
6.98391e-06
3.47037e-06
1.71123e-05
7.9124e-05
2.23005e-05
9.58533e-06
7.97739e-06
1.0299e-05
1.09309e-05
7.98946e-06
1.76709e-05
0.000104154
6.28564e-06
2.58705e-06
2.9222e-07
3.79194e-07
5.46432e-06
4.00243e-05
0.000284985
9.86283e-05
1.44352e-06
5.02769e-07
1.64857e-07
2.45866e-07
3.20646e-06
1.22661e-05
5.90562e-08
1.66451e-07
4.69815e-08
2.18626e-07
2.75884e-06
9.93628e-06
1.21395e-05
7.4853e-05
3.24244e-05
1.20445e-05
9.51479e-06
6.44796e-06
2.65758e-06
8.96324e-06
1.42427e-05
0.000251163
5.63057e-06
2.76307e-06
3.66137e-07
4.31129e-07
5.05093e-06
9.4418e-05
0.000320198
4.16591e-05
6.68876e-06
3.38498e-06
7.7553e-07
1.40463e-06
1.24435e-05
4.89813e-06
1.38678e-08
1.37728e-07
3.21792e-08
6.93045e-08
3.46367e-07
5.40495e-06
2.66092e-06
6.29272e-05
4.61919e-05
1.45416e-05
8.14241e-06
2.21219e-06
1.11049e-06
1.99077e-05
1.00525e-05
0.000455832
1.59726e-05
1.15605e-06
4.76868e-07
7.93083e-07
7.33769e-06
0.000314432
0.000327009
8.74606e-06
8.96313e-06
1.26911e-05
6.12211e-06
6.58483e-06
1.26929e-05
1.41351e-06
5.1888e-08
1.14778e-07
4.58621e-08
4.34111e-08
2.1277e-08
1.55974e-06
2.36587e-07
6.46295e-05
6.57361e-05
1.58767e-05
8.10746e-06
4.96373e-07
5.30372e-06
5.02985e-05
0.000134778
0.000336418
1.38189e-05
6.81029e-07
4.8472e-07
2.2757e-06
9.62042e-05
0.000440591
0.000132616
2.93751e-06
6.54001e-06
1.23764e-05
1.14676e-05
8.97263e-06
4.88814e-06
6.25345e-07
1.15388e-07
1.07543e-07
5.45392e-08
6.41186e-08
2.75369e-08
7.66422e-07
2.78452e-06
6.76866e-05
8.28585e-05
1.7418e-05
8.33623e-06
4.70346e-07
4.92736e-06
9.26837e-06
0.000215921
0.000243707
5.91336e-06
5.36139e-07
1.01889e-06
8.49157e-06
0.000179996
0.000416807
4.41745e-05
3.49996e-06
4.27694e-06
5.54969e-06
6.30641e-06
5.89532e-06
1.80371e-06
2.70271e-07
2.39327e-07
1.21808e-07
7.54735e-08
7.58912e-08
4.81962e-08
1.25751e-07
1.21856e-05
5.62428e-05
0.000110844
2.76666e-05
1.01702e-05
9.65359e-07
2.37861e-06
7.42994e-07
0.000142801