/*--------------------------------*- C++ -*----------------------------------*\
| =========                 |                                                 |
| \\      /  F ield         | OpenFOAM: The Open Source CFD Toolbox           |
|  \\    /   O peration     | Version:  2.3.0                                 |
|   \\  /    A nd           | Web:      www.OpenFOAM.org                      |
|    \\/     M anipulation  |                                                 |
\*---------------------------------------------------------------------------*/
FoamFile
{
    version     2.0;
    format      ascii;
    class       volScalarField;
    location    "0.348";
    object      p_rgh;
}
// * * * * * * * * * * * * * * * * * * * * * * * * * * * * * * * * * * * * * //

dimensions      [1 -1 -2 0 0 0 0];

internalField   nonuniform List<scalar> 
545
(
-7.13989e+07
-1.32332e+07
-1.85351e+06
-2.40449e+06
-7.74616e+06
5.12213e+07
-2.76376e+06
-2.17583e+06
-2.31522e+06
-6.31299e+06
8.91309e+07
3.11555e+06
-416428
-466931
-6.61808e+06
5.16703e+07
-2.92589e+06
-1.75887e+06
-221429
-5.92004e+06
-8.21444e+07
-2.18255e+06
-501543
3.66535e+06
1.03447e+07
-6.42578e+06
-1.74574e+06
-764426
-178914
-55001.5
-36371.8
-51444.7
-60463
-63568
-62637.8
-60412
-57382.2
-54653.5
-51811.4
-49663.8
-47375.1
-45764.8
-43992.9
-42788
-41233.2
-40243.4
-38723
-37677.6
-36157.8
-35067.3
-33493.8
-32269.2
-30542
-29247.4
-27456.1
-26229.6
-24348.9
-23046.4
-21357.2
-19965.7
-18087
-16696.5
-14636.6
-13075.8
-10927.1
-9358.67
-7120.34
-5555.12
-3284.19
-1938.09
-5.66644e+06
-1.13114e+06
-735783
-293096
-153831
-88875.4
-74080.9
-68375.4
-65768.6
-63073.5
-60349.1
-57270.5
-54490.1
-51707.8
-49563.1
-47314.8
-45669.2
-43933.4
-42703.5
-41213.9
-40151.2
-38706.8
-37602.3
-36161.8
-34975
-33490.1
-32184.1
-30536.9
-29161.9
-27457.8
-26147.2
-24413
-22947.2
-21405.3
-19883.3
-18137.1
-16630
-14678.5
-12985.8
-10973.5
-9256.49
-7199.98
-5352.82
-3149.02
-1145.31
-6.63381e+06
-610837
-485324
-192258
-124620
-80889.7
-74422.8
-69194.5
-66805.2
-63029.9
-60802.1
-56910.9
-54806.5
-51314.1
-49934.8
-46943.5
-46044.1
-43524.6
-43099.6
-40808.7
-40542.1
-38299.1
-37987.8
-35753.3
-35365.9
-33072.2
-32619.8
-30081.5
-29567
-27014.2
-26561.8
-23981.2
-23321.9
-21016.7
-20293.2
-17717
-17107.3
-14225.2
-13438.6
-10496.9
-9710.27
-6728.5
-5760.9
-2517.89
-1806.44
-7.00526e+06
437633
29596.5
3843.31
-55017.6
-54655.5
-68919.8
-67761.9
-67814
-62517.3
-61718.7
-56174.2
-55578
-50534.7
-50784.3
-46178.9
-46886.3
-42684.6
-43954
-39988.6
-41376.3
-37479.3
-38791.7
-34933.9
-36188.8
-32238.1
-33520.5
-29205.7
-30372.1
-26175.1
-27385
-23158
-24050
-20279.6
-21081.1
-16895.4
-18042.3
-13337.5
-14336.7
-9586.63
-10584.1
-5870.67
-6506.87
-1369.56
-1938.91
-1.62562e+06
2.86467e+06
934171
228078
-10515.4
-49048.7
-71909.7
-68989
-69722.8
-61819.7
-62897.5
-55098.7
-56645.5
-49429.1
-52017.1
-45086.2
-48089.5
-41474.7
-45206.5
-38732
-42633.2
-36281.8
-39946.5
-33754.2
-37370.2
-31039.8
-34826.9
-27909.4
-31559.6
-24900.9
-28665.4
-21960.8
-25031.6
-19306.9
-22174.2
-15669.9
-19438.4
-11969.4
-15712.2
-8178.31
-11931.6
-4531.87
-7739.88
61.2684
-3631.13
-1.20086e+07
4.1443e+06
1.68203e+06
382659
6852.37
-50773.9
-69530.8
-68181
-64682.4
-63717.5
-60308.1
-55178.2
-51317.5
-48644.1
-45373.2
-44356.7
-43201.4
-43998.7
-41919.4
-37769.6
-35627.1
-35386.6
-34440.3
-33017.2
-31942.3
-33325.3
-32016.6
-30519.1
-26372.7
-23009.4
-19424.7
-20096.1
-20126.8
-15866.7
-15229.3
-14632.7
-16092.1
-14852.6
-12818
-11052
-8829.01
-4541.09
-2066.37
-188.172
2102.04
-8.2143e+07
-2.17972e+06
-497374
3.67044e+06
1.03501e+07
5.16715e+07
-2.92297e+06
-1.75439e+06
-216105
-5.91453e+06
8.91321e+07
3.11851e+06
-411766
-461433
-6.61251e+06
5.12225e+07
-2.76081e+06
-2.17111e+06
-2.30953e+06
-6.30728e+06
-7.13976e+07
-1.32302e+07
-1.8488e+06
-2.39866e+06
-7.74042e+06
-1.62023e+06
2.86181e+06
938685
223701
-6272.35
-53133.1
-67634.8
-73100
-65399.8
-66361.9
-58006.9
-59582.7
-52155
-53995.8
-47509.3
-49752.7
-43511.3
-46602.9
-40253.9
-43423.4
-37901.7
-41035.1
-35130.6
-38566.7
-32527
-36274.9
-29501.5
-33250.2
-26578
-29690.1
-23927.8
-26757.7
-20123.2
-24141.7
-17295.7
-20580.6
-13995.1
-17473.5
-10163.2
-13703.9
-6404.36
-9709.38
-2858.11
-6823.32
-173.188
-6.99998e+06
437301
32826.3
1509.1
-52674
-56818.9
-66384.4
-69865.2
-65288.5
-64906.5
-58931.3
-58567.9
-53124.3
-53122.6
-48385
-48867.3
-44491.1
-45609.1
-41289.9
-42570.1
-38767.4
-40109.7
-36119.8
-37595.1
-33542.2
-35132.8
-30627.2
-32140
-27648.3
-28818.4
-24739.4
-25823.6
-21289.2
-22943.9
-18342.3
-19558.5
-14991.7
-16303.6
-11303.9
-12559.1
-7560.27
-8714.75
-4044.52
-5478.17
-79.2529
-6.62933e+06
-608977
-483321
-192761
-123848
-81385.9
-73389.1
-69543.8
-65812.3
-63567.4
-59780.3
-57565.2
-54092.2
-52215.7
-49356.9
-47941
-45509.9
-44584.7
-42361.1
-41621.5
-39758.7
-39103.3
-37163.6
-36564.9
-34588.5
-33982.7
-31744.8
-31006.3
-28739.8
-27808.4
-25745.4
-24775.8
-22441.5
-21789.6
-19417.3
-18450.8
-16093.4
-15086.3
-12470.2
-11382.3
-8743.86
-7668.65
-5157.46
-4463.75
-1948.4
-5.66197e+06
-1.12847e+06
-734104
-292910
-153552
-88778.1
-73514.7
-68062.6
-65226.5
-62918.7
-59926.8
-57320.1
-54386.2
-52049.3
-49651
-47769.1
-45797.4
-44360.9
-42664.5
-41437.4
-40007.5
-38882.7
-37419.8
-36336.8
-34828.7
-33706.8
-32010.3
-30749.7
-28991.1
-27612.5
-25954.5
-24558.1
-22716.8
-21521.5
-19638
-18211.1
-16325.6
-14796.6
-12732.6
-11117.9
-9043.29
-7442.8
-5500.19
-3997.36
-1425.56
-6.42142e+06
-1.74267e+06
-762882
-178415
-54870
-36065.5
-51006.1
-59919.9
-63135.3
-62232
-60168.1
-57246.5
-54736.9
-51992.3
-49971.7
-47678.4
-46113.8
-44227
-42979.2
-41294.6
-40298.7
-38707.7
-37693.9
-36137.1
-35115.1
-33484.8
-32318.1
-30531.9
-29268.4
-27421.9
-26222.6
-24295.4
-23010.7
-21273.6
-19905.3
-17957.1
-16615.8
-14520.9
-13028.7
-10860
-9346.58
-7226.33
-5821.15
-3998.29
-2631.94
)
;

boundaryField
{
    AirInlet
    {
        type            fixedFluxPressure;
        gradient        uniform 3.50549e+08;
        value           uniform -1.20051e+07;
    }
    WaterInlet
    {
        type            fixedFluxPressure;
        gradient        nonuniform List<scalar> 10(0 -0.0342539 0 0 0 0 -0.150661 -0.0355951 0 -0.069939);
        value           nonuniform List<scalar> 10(-7.13989e+07 5.12213e+07 8.91309e+07 5.16703e+07 -8.21444e+07 -8.2143e+07 5.16715e+07 8.91321e+07 5.12225e+07 -7.13976e+07);
    }
    ChannelWall
    {
        type            fixedFluxPressure;
        gradient        uniform 0;
        value           nonuniform List<scalar> 
110
(
-8.21444e+07
-2.18255e+06
-501543
3.66535e+06
1.03447e+07
-8.2143e+07
-2.17972e+06
-497374
3.67044e+06
1.03501e+07
-7.13976e+07
-1.32302e+07
-1.8488e+06
-2.39866e+06
-7.74042e+06
-6.42142e+06
-1.74267e+06
-762882
-178415
-54870
-36065.5
-51006.1
-59919.9
-63135.3
-62232
-60168.1
-57246.5
-54736.9
-51992.3
-49971.7
-47678.4
-46113.8
-44227
-42979.2
-41294.6
-40298.7
-38707.7
-37693.9
-36137.1
-35115.1
-33484.8
-32318.1
-30531.9
-29268.4
-27421.9
-26222.6
-24295.4
-23010.7
-21273.6
-19905.3
-17957.1
-16615.8
-14520.9
-13028.7
-10860
-9346.58
-7226.33
-5821.15
-3998.29
-2631.94
-7.13989e+07
-1.32332e+07
-1.85351e+06
-2.40449e+06
-7.74616e+06
-6.42578e+06
-1.74574e+06
-764426
-178914
-55001.5
-36371.8
-51444.7
-60463
-63568
-62637.8
-60412
-57382.2
-54653.5
-51811.4
-49663.8
-47375.1
-45764.8
-43992.9
-42788
-41233.2
-40243.4
-38723
-37677.6
-36157.8
-35067.3
-33493.8
-32269.2
-30542
-29247.4
-27456.1
-26229.6
-24348.9
-23046.4
-21357.2
-19965.7
-18087
-16696.5
-14636.6
-13075.8
-10927.1
-9358.67
-7120.34
-5555.12
-3284.19
-1938.09
)
;
    }
    Outlet
    {
        type            totalPressure;
        rho             rho;
        psi             none;
        gamma           1;
        p0              uniform 0;
        value           uniform 0;
    }
    FrontAndBack
    {
        type            empty;
    }
}


// ************************************************************************* //
