/*--------------------------------*- C++ -*----------------------------------*\
| =========                 |                                                 |
| \\      /  F ield         | OpenFOAM: The Open Source CFD Toolbox           |
|  \\    /   O peration     | Version:  2.3.0                                 |
|   \\  /    A nd           | Web:      www.OpenFOAM.org                      |
|    \\/     M anipulation  |                                                 |
\*---------------------------------------------------------------------------*/
FoamFile
{
    version     2.0;
    format      ascii;
    class       surfaceScalarField;
    location    "0.348";
    object      phi;
}
// * * * * * * * * * * * * * * * * * * * * * * * * * * * * * * * * * * * * * //

dimensions      [0 3 -1 0 0 0 0];

internalField   nonuniform List<scalar> 
1024
(
2.44359e-12
5.64107e-14
2.54308e-12
-9.9488e-14
2.57772e-12
-3.46418e-14
2.6166e-12
-3.88789e-14
4.06434e-14
2.57595e-12
2.57499e-12
-1.85812e-14
2.55786e-12
-8.23601e-14
2.56177e-12
-3.85436e-14
2.58244e-12
-5.95532e-14
6.84597e-14
2.55462e-12
2.59533e-12
-1.13907e-13
2.53627e-12
-2.33042e-14
2.52362e-12
-2.58987e-14
2.53773e-12
-7.36545e-14
9.2654e-14
2.51353e-12
2.52428e-12
-1.38187e-13
2.46624e-12
3.4735e-14
2.46025e-12
-1.9907e-14
2.46267e-12
-7.60767e-14
1.00757e-13
2.45457e-12
2.36181e-12
2.39655e-12
2.37664e-12
2.30056e-12
2.40132e-12
2.36943e-12
2.06528e-13
2.32346e-12
4.59697e-14
2.32279e-12
6.64959e-16
2.33093e-12
-8.13701e-15
2.33622e-12
-5.29134e-15
2.33877e-12
-2.54727e-15
2.33969e-12
-9.21467e-16
2.33995e-12
-2.63744e-16
2.34001e-12
-5.51835e-17
2.34e-12
2.93429e-18
2.34e-12
2.47909e-18
2.34e-12
6.89266e-18
2.34e-12
-1.33978e-18
2.33999e-12
3.22508e-18
2.34e-12
-2.73741e-18
2.33999e-12
2.43534e-18
2.34e-12
-3.51235e-18
2.33999e-12
3.08591e-18
2.34e-12
-3.48284e-18
2.33999e-12
2.86181e-18
2.34e-12
-2.8205e-18
2.33999e-12
3.23977e-18
2.34e-12
-4.29891e-18
2.34e-12
3.53537e-18
2.34e-12
-3.84223e-18
2.33999e-12
5.11692e-18
2.34e-12
-3.82512e-18
2.33999e-12
4.84787e-18
2.34e-12
-4.50786e-18
2.33999e-12
4.16129e-18
2.34e-12
-3.97814e-18
2.33999e-12
3.03357e-18
2.34e-12
-6.11477e-18
2.33999e-12
6.09396e-18
2.34e-12
-5.16366e-18
2.33999e-12
4.81349e-18
2.34e-12
-3.87226e-18
2.33999e-12
5.48442e-18
2.34e-12
-4.67735e-18
2.33999e-12
5.70152e-18
2.34e-12
-4.96412e-18
2.33999e-12
6.12495e-18
2.34e-12
-5.25332e-18
2.33999e-12
4.46621e-18
-1.79946e-17
2.36404e-12
3.97114e-13
2.32449e-12
8.55214e-14
2.32691e-12
-1.76031e-15
2.33294e-12
-1.41678e-14
2.337e-12
-9.34392e-15
2.33896e-12
-4.51134e-15
2.33971e-12
-1.6764e-15
2.33995e-12
-4.99452e-16
2.34e-12
-1.04733e-16
2.34001e-12
-9.57899e-18
2.34e-12
1.02786e-17
2.34001e-12
3.31492e-18
2.34e-12
6.26652e-18
2.34001e-12
-2.1432e-18
2.34e-12
4.59868e-18
2.34e-12
-3.82724e-18
2.34e-12
3.43873e-18
2.34e-12
-3.47848e-18
2.34e-12
3.81392e-18
2.34e-12
-4.82395e-18
2.34e-12
5.1938e-18
2.34e-12
-4.48347e-18
2.34e-12
2.77597e-18
2.34001e-12
-4.60118e-18
2.34e-12
3.96318e-18
2.34e-12
-2.31791e-18
2.34e-12
4.84203e-18
2.34e-12
-3.32629e-18
2.34e-12
4.05409e-18
2.34e-12
-4.66547e-18
2.34e-12
5.10906e-18
2.34001e-12
-6.9748e-18
2.34e-12
1.20494e-18
2.34001e-12
-1.56831e-18
2.34e-12
3.37439e-18
2.34001e-12
-4.42949e-18
2.34e-12
5.95047e-18
2.34001e-12
-3.54564e-18
2.34e-12
5.23209e-18
2.34001e-12
-3.83821e-18
2.33999e-12
5.86189e-18
2.34001e-12
-4.45606e-18
2.33999e-12
7.55176e-18
2.34e-12
-6.87173e-18
1.75424e-17
2.34396e-12
5.66683e-13
2.32806e-12
1.0142e-13
2.33405e-12
-7.7475e-15
2.33743e-12
-1.75448e-14
2.33897e-12
-1.08883e-14
2.33967e-12
-5.20762e-15
2.33991e-12
-1.91997e-15
2.33998e-12
-5.70851e-16
2.34e-12
-1.20526e-16
2.34e-12
-1.26511e-17
2.34e-12
1.1343e-17
2.34e-12
3.09891e-18
2.34e-12
7.55535e-18
2.34e-12
-3.14505e-18
2.34e-12
6.67108e-18
2.34e-12
-4.89878e-18
2.34e-12
4.46778e-18
2.34e-12
-4.60933e-18
2.34e-12
4.77631e-18
2.34e-12
-5.81148e-18
2.34e-12
6.25189e-18
2.34e-12
-5.13738e-18
2.34e-12
2.67757e-18
2.34e-12
-5.03505e-18
2.34e-12
3.81817e-18
2.34e-12
-1.89338e-18
2.34e-12
5.24313e-18
2.34e-12
-3.02362e-18
2.34e-12
3.87469e-18
2.34e-12
-4.80671e-18
2.34e-12
5.28803e-18
2.34e-12
-6.65752e-18
2.34e-12
-1.58992e-18
2.34e-12
8.13313e-19
2.34e-12
1.97437e-18
2.34e-12
-4.01851e-18
2.34e-12
6.01808e-18
2.34e-12
-2.69783e-18
2.34e-12
4.58908e-18
2.34e-12
-2.60387e-18
2.34e-12
4.72608e-18
2.34e-12
-1.82314e-18
2.34e-12
3.67328e-18
2.34e-12
-2.68774e-18
-2.50817e-18
2.3208e-12
7.00451e-13
2.33641e-12
8.58083e-14
2.34442e-12
-1.57581e-14
2.34323e-12
-1.63568e-14
2.34148e-12
-9.13726e-15
2.34057e-12
-4.29292e-15
2.34016e-12
-1.51272e-15
2.34005e-12
-4.56508e-16
2.33999e-12
-6.58885e-17
2.34001e-12
-2.91469e-17
2.33999e-12
3.21776e-17
2.34001e-12
-2.05984e-17
2.33999e-12
2.91862e-17
2.34001e-12
-2.64588e-17
2.33999e-12
3.06354e-17
2.34001e-12
-2.8512e-17
2.33999e-12
2.85901e-17
2.34001e-12
-2.90237e-17
2.33999e-12
2.97429e-17
2.34001e-12
-3.15477e-17
2.33999e-12
3.1988e-17
2.34001e-12
-3.02191e-17
2.33999e-12
2.77028e-17
2.34001e-12
-3.0521e-17
2.33999e-12
2.92805e-17
2.34001e-12
-2.78544e-17
2.33999e-12
3.21117e-17
2.34001e-12
-2.99914e-17
2.33999e-12
3.04137e-17
2.34002e-12
-3.19809e-17
2.33999e-12
3.3118e-17
2.34001e-12
-3.34051e-17
2.33999e-12
2.28745e-17
2.34001e-12
-2.3362e-17
2.33999e-12
2.78993e-17
2.34002e-12
-3.16262e-17
2.33999e-12
3.47951e-17
2.34002e-12
-3.14504e-17
2.33999e-12
3.35447e-17
2.34002e-12
-3.18418e-17
2.33999e-12
3.42872e-17
2.34002e-12
-3.15838e-17
2.33998e-12
3.55543e-17
2.34001e-12
-2.68416e-17
5.74021e-17
2.31098e-12
7.90788e-13
2.35728e-12
3.95172e-14
2.35683e-12
-1.53122e-14
2.34888e-12
-8.40376e-15
2.34364e-12
-3.90466e-15
2.34125e-12
-1.89984e-15
2.34032e-12
-5.813e-16
2.34007e-12
-2.11539e-16
2.33998e-12
2.38222e-17
2.34001e-12
-5.20123e-17
2.33998e-12
5.87332e-17
2.34001e-12
-5.40851e-17
2.33998e-12
5.87005e-17
2.34002e-12
-6.04509e-17
2.33998e-12
6.49441e-17
2.34002e-12
-6.19955e-17
2.33999e-12
6.16311e-17
2.34002e-12
-6.2522e-17
2.33998e-12
6.3911e-17
2.34002e-12
-6.61978e-17
2.33998e-12
6.69242e-17
2.34002e-12
-6.4589e-17
2.33998e-12
6.18529e-17
2.34002e-12
-6.3185e-17
2.33998e-12
6.14596e-17
2.34002e-12
-6.04541e-17
2.33999e-12
6.40336e-17
2.34002e-12
-6.32693e-17
2.33998e-12
6.46182e-17
2.34002e-12
-6.84428e-17
2.33998e-12
6.94093e-17
2.34002e-12
-6.48108e-17
2.33999e-12
5.25452e-17
2.34002e-12
-5.25508e-17
2.33998e-12
5.92682e-17
2.34002e-12
-6.53561e-17
2.33998e-12
6.89793e-17
2.34002e-12
-6.57144e-17
2.33998e-12
6.66751e-17
2.34002e-12
-6.57116e-17
2.33999e-12
6.76326e-17
2.34002e-12
-6.42865e-17
2.33998e-12
6.89735e-17
2.34e-12
-3.76242e-17
9.44853e-17
2.58151e-12
-7.90722e-13
2.66066e-12
-3.96322e-14
2.62993e-12
1.54192e-14
2.61324e-12
8.28708e-15
2.60531e-12
4.01885e-15
2.60163e-12
1.78611e-15
2.60035e-12
6.96186e-16
2.60004e-12
9.61878e-17
2.59997e-12
9.23733e-17
2.59999e-12
-6.70655e-17
2.59998e-12
6.2906e-17
2.6e-12
-6.73206e-17
2.59999e-12
6.26819e-17
2.6e-12
-6.15757e-17
2.6e-12
5.83096e-17
2.6e-12
-6.20804e-17
2.6e-12
6.36473e-17
2.6e-12
-6.55271e-17
2.6e-12
6.48495e-17
2.6e-12
-6.17054e-17
2.6e-12
6.12855e-17
2.6e-12
-6.42173e-17
2.6e-12
6.80483e-17
2.6e-12
-6.71645e-17
2.59999e-12
6.9899e-17
2.6e-12
-7.31692e-17
2.6e-12
7.11637e-17
2.60001e-12
-7.24277e-17
2.6e-12
6.98041e-17
2.6e-12
-6.47315e-17
2.6e-12
6.33763e-17
2.60001e-12
-6.88311e-17
2.59998e-12
8.20749e-17
2.60001e-12
-8.20871e-17
2.59999e-12
7.57289e-17
2.6e-12
-7.05483e-17
2.6e-12
6.97264e-17
2.6e-12
-7.42582e-17
2.6e-12
7.39416e-17
2.60001e-12
-7.39594e-17
2.6e-12
7.36262e-17
2.60001e-12
-7.12857e-17
2.6e-12
7.81338e-17
2.6e-12
-4.47354e-17
9.96804e-17
2.36181e-12
1.38188e-13
2.39655e-12
-3.47342e-14
2.37664e-12
1.9908e-14
2.30056e-12
7.6079e-14
-1.00757e-13
2.40132e-12
2.52428e-12
1.13907e-13
2.46624e-12
2.33038e-14
2.46025e-12
2.59005e-14
2.46267e-12
7.3658e-14
-9.26516e-14
2.45457e-12
2.59533e-12
1.85811e-14
2.53627e-12
8.23603e-14
2.52362e-12
3.85452e-14
2.53773e-12
5.9557e-14
-6.84573e-14
2.51353e-12
2.57499e-12
-5.64118e-14
2.55787e-12
9.94874e-14
2.56177e-12
3.46425e-14
2.58244e-12
3.88818e-14
-4.06406e-14
2.55463e-12
2.44359e-12
2.54308e-12
2.57772e-12
2.6166e-12
2.57596e-12
2.31102e-12
-7.00427e-13
2.35724e-12
-8.58523e-14
2.35686e-12
1.57984e-14
2.34884e-12
1.63074e-14
2.34368e-12
9.18323e-15
2.34122e-12
4.24762e-15
2.34035e-12
1.55881e-15
2.34004e-12
4.10582e-16
2.34002e-12
1.12333e-16
2.33997e-12
-1.95937e-17
2.34002e-12
1.7901e-17
2.33998e-12
-2.84326e-17
2.34002e-12
1.95653e-17
2.33998e-12
-2.23789e-17
2.34002e-12
1.88054e-17
2.33998e-12
-2.13079e-17
2.34002e-12
2.2045e-17
2.33998e-12
-2.37396e-17
2.34002e-12
2.28103e-17
2.33998e-12
-1.97521e-17
2.34002e-12
1.93612e-17
2.33998e-12
-2.1215e-17
2.34002e-12
2.43627e-17
2.33998e-12
-2.16557e-17
2.34002e-12
2.36795e-17
2.33998e-12
-2.70379e-17
2.34003e-12
2.39256e-17
2.33998e-12
-2.59075e-17
2.34002e-12
2.37103e-17
2.33998e-12
-2.06989e-17
2.34003e-12
1.89099e-17
2.33998e-12
-1.91323e-17
2.34003e-12
3.0355e-17
2.33997e-12
-2.97624e-17
2.34003e-12
2.54874e-17
2.33998e-12
-2.25284e-17
2.34002e-12
2.20816e-17
2.33998e-12
-2.67522e-17
2.34003e-12
2.52752e-17
2.33998e-12
-2.61335e-17
2.34003e-12
2.51272e-17
2.33998e-12
-2.32395e-17
2.34003e-12
2.45471e-17
2.34002e-12
-3.09126e-17
-9.31552e-18
2.32081e-12
-5.66675e-13
2.3364e-12
-1.01436e-13
2.34444e-12
7.75789e-15
2.34322e-12
1.75283e-14
2.3415e-12
1.09011e-14
2.34055e-12
5.1956e-15
2.34018e-12
1.93264e-15
2.34003e-12
5.58857e-16
2.34001e-12
1.32391e-16
2.33999e-12
-3.57828e-19
2.34001e-12
2.11418e-18
2.33999e-12
-1.5783e-17
2.34001e-12
5.13118e-18
2.34e-12
-9.48054e-18
2.34001e-12
6.23731e-18
2.33999e-12
-8.0795e-18
2.34001e-12
8.64076e-18
2.33999e-12
-9.5866e-18
2.34001e-12
9.07613e-18
2.34e-12
-7.38849e-18
2.34001e-12
7.1761e-18
2.33999e-12
-8.23426e-18
2.34001e-12
1.0992e-17
2.33999e-12
-8.47553e-18
2.34001e-12
9.91113e-18
2.33999e-12
-1.26081e-17
2.34001e-12
9.61727e-18
2.33999e-12
-1.18846e-17
2.34001e-12
1.02216e-17
2.34e-12
-8.85893e-18
2.34001e-12
8.17745e-18
2.33999e-12
-7.09192e-18
2.34001e-12
1.56794e-17
2.33999e-12
-1.46627e-17
2.34001e-12
1.1894e-17
2.33999e-12
-9.85085e-18
2.34001e-12
9.00335e-18
2.33999e-12
-1.24899e-17
2.34001e-12
1.07488e-17
2.33999e-12
-1.18367e-17
2.34001e-12
1.08243e-17
2.34e-12
-1.01322e-17
2.34001e-12
7.93837e-18
2.34e-12
-1.63811e-17
1.61582e-17
2.34397e-12
-3.97116e-13
2.32806e-12
-8.55235e-14
2.33406e-12
1.75917e-15
2.33742e-12
1.4164e-14
2.33898e-12
9.34535e-15
2.33966e-12
4.50998e-15
2.33992e-12
1.67872e-15
2.33998e-12
4.97754e-16
2.34001e-12
1.06113e-16
2.34e-12
7.7842e-18
2.34001e-12
-8.3897e-18
2.34e-12
-4.95006e-18
2.34001e-12
-4.4401e-18
2.34e-12
3.62762e-19
2.34001e-12
-2.73302e-18
2.34e-12
1.96826e-18
2.34001e-12
-1.80728e-18
2.33999e-12
1.44338e-18
2.34001e-12
-1.92594e-18
2.34e-12
3.04368e-18
2.34001e-12
-3.15375e-18
2.33999e-12
2.61277e-18
2.34001e-12
-7.43156e-19
2.34e-12
2.72925e-18
2.34001e-12
-2.17023e-18
2.33999e-12
4.05625e-19
2.34001e-12
-2.91636e-18
2.33999e-12
1.1592e-18
2.34001e-12
-2.00415e-18
2.33999e-12
2.58451e-18
2.34001e-12
-3.12832e-18
2.33999e-12
4.90822e-18
2.34001e-12
1.03343e-18
2.33999e-12
-5.32548e-19
2.34001e-12
-1.26806e-18
2.34e-12
2.65637e-18
2.34001e-12
-3.80921e-18
2.33999e-12
1.46174e-18
2.34001e-12
-2.85897e-18
2.33999e-12
1.87719e-18
2.34001e-12
-2.50441e-18
2.33999e-12
2.36461e-18
2.34001e-12
-3.82984e-18
2.34e-12
-7.52777e-18
-3.33896e-17
2.36404e-12
-2.06526e-13
2.32449e-12
-4.59723e-14
2.32691e-12
-6.65735e-16
2.33294e-12
8.13373e-15
2.337e-12
5.29095e-15
2.33896e-12
2.54736e-15
2.33972e-12
9.21723e-16
2.33995e-12
2.64372e-16
2.34e-12
5.464e-17
2.34001e-12
-2.42434e-18
2.34001e-12
-2.86927e-18
2.34001e-12
-6.18294e-18
2.34e-12
7.35472e-19
2.34e-12
-2.67896e-18
2.34e-12
2.09133e-18
2.34e-12
-1.99752e-18
2.34e-12
2.79245e-18
2.34e-12
-2.66183e-18
2.34e-12
2.85975e-18
2.34e-12
-2.11165e-18
2.34e-12
2.30689e-18
2.34e-12
-2.62157e-18
2.34e-12
3.78276e-18
2.34e-12
-2.91783e-18
2.34e-12
3.21936e-18
2.34e-12
-4.5192e-18
2.34e-12
3.17849e-18
2.34e-12
-4.26573e-18
2.34e-12
3.80847e-18
2.34e-12
-3.55253e-18
2.34e-12
3.39252e-18
2.34e-12
-2.50036e-18
2.34e-12
5.65209e-18
2.34e-12
-5.54255e-18
2.34e-12
4.59489e-18
2.34001e-12
-4.05325e-18
2.34e-12
3.21114e-18
2.34e-12
-4.5769e-18
2.34e-12
3.71711e-18
2.34e-12
-4.17602e-18
2.34e-12
3.79879e-18
2.34e-12
-3.31934e-18
2.34e-12
2.93594e-18
2.33999e-12
-4.00005e-18
2.2e-17
2.36943e-12
2.32346e-12
2.32279e-12
2.33093e-12
2.33622e-12
2.33877e-12
2.33969e-12
2.33995e-12
2.34001e-12
2.34001e-12
2.34e-12
2.34e-12
2.34e-12
2.33999e-12
2.34e-12
2.33999e-12
2.34e-12
2.33999e-12
2.34e-12
2.34e-12
2.34e-12
2.33999e-12
2.34e-12
2.34e-12
2.34e-12
2.33999e-12
2.34e-12
2.33999e-12
2.34e-12
2.33999e-12
2.34e-12
2.33999e-12
2.34e-12
2.33999e-12
2.34e-12
2.34e-12
2.34e-12
2.33999e-12
2.34e-12
2.33999e-12
2.34e-12
2.33999e-12
2.34e-12
2.33999e-12
)
;

boundaryField
{
    AirInlet
    {
        type            calculated;
        value           uniform -1e-12;
    }
    WaterInlet
    {
        type            calculated;
        value           nonuniform List<scalar> 10(-2.5e-12 -2.5e-12 -2.5e-12 -2.5e-12 -2.5e-12 -2.5e-12 -2.5e-12 -2.5e-12 -2.5e-12 -2.5e-12);
    }
    ChannelWall
    {
        type            calculated;
        value           uniform 0;
    }
    Outlet
    {
        type            calculated;
        value           nonuniform List<scalar> 
11
(
2.34001e-12
2.33997e-12
2.34002e-12
2.33995e-12
2.33996e-12
2.6e-12
2.34013e-12
2.33997e-12
2.34005e-12
2.33994e-12
2.34001e-12
)
;
    }
    FrontAndBack
    {
        type            empty;
        value           nonuniform 0();
    }
}


// ************************************************************************* //
