/*--------------------------------*- C++ -*----------------------------------*\
| =========                 |                                                 |
| \\      /  F ield         | OpenFOAM: The Open Source CFD Toolbox           |
|  \\    /   O peration     | Version:  2.3.0                                 |
|   \\  /    A nd           | Web:      www.OpenFOAM.org                      |
|    \\/     M anipulation  |                                                 |
\*---------------------------------------------------------------------------*/
FoamFile
{
    version     2.0;
    format      ascii;
    class       surfaceScalarField;
    location    "0.392";
    object      phi;
}
// * * * * * * * * * * * * * * * * * * * * * * * * * * * * * * * * * * * * * //

dimensions      [0 3 -1 0 0 0 0];

internalField   nonuniform List<scalar> 
1024
(
2.44359e-12
5.64135e-14
2.54305e-12
-9.94603e-14
2.57759e-12
-3.45471e-14
2.61635e-12
-3.87595e-14
4.03801e-14
2.57597e-12
2.57499e-12
-1.85747e-14
2.55784e-12
-8.23117e-14
2.56168e-12
-3.83829e-14
2.58228e-12
-5.93608e-14
6.79597e-14
2.5547e-12
2.59533e-12
-1.139e-13
2.53626e-12
-2.32503e-14
2.52361e-12
-2.57295e-14
2.53767e-12
-7.34193e-14
9.21463e-14
2.51348e-12
2.52428e-12
-1.38183e-13
2.46626e-12
3.47694e-14
2.46032e-12
-1.97854e-14
2.46278e-12
-7.58757e-14
1.00519e-13
2.4544e-12
2.36182e-12
2.39659e-12
2.3768e-12
2.30093e-12
2.40144e-12
2.3707e-12
2.05271e-13
2.32484e-12
4.58614e-14
2.3235e-12
1.34132e-15
2.33175e-12
-8.24986e-15
2.33669e-12
-4.94079e-15
2.33885e-12
-2.15575e-15
2.33964e-12
-7.95678e-16
2.33991e-12
-2.73549e-16
2.34e-12
-8.20544e-17
2.34001e-12
-1.13999e-17
2.34001e-12
5.24941e-19
2.34e-12
5.12354e-18
2.34e-12
1.29917e-19
2.34e-12
3.58386e-18
2.34e-12
-1.41566e-18
2.34e-12
3.40162e-18
2.34e-12
-1.19998e-18
2.33999e-12
3.29267e-18
2.34e-12
-2.47098e-18
2.33999e-12
3.51182e-18
2.34e-12
-1.54654e-18
2.33999e-12
3.72147e-18
2.33999e-12
-2.13306e-18
2.33999e-12
3.59677e-18
2.33999e-12
-2.99171e-18
2.33999e-12
4.08662e-18
2.33999e-12
-4.61481e-18
2.33999e-12
2.26822e-18
2.33999e-12
-2.68798e-18
2.33999e-12
4.79765e-18
2.33999e-12
-3.42433e-18
2.33999e-12
4.82171e-18
2.33999e-12
-2.43847e-18
2.33999e-12
4.62901e-18
2.33999e-12
-3.51355e-18
2.33999e-12
4.01825e-18
2.33999e-12
-4.26503e-18
2.33999e-12
3.01096e-18
2.33999e-12
-4.30288e-18
2.33999e-12
1.74144e-18
2.33999e-12
-4.63889e-18
2.33999e-12
4.71796e-18
2.33999e-12
-5.50127e-18
2.33999e-12
4.84764e-18
-1.02332e-17
2.36498e-12
3.94991e-13
2.32549e-12
8.53464e-14
2.32746e-12
-6.25541e-16
2.33356e-12
-1.43553e-14
2.33739e-12
-8.76899e-15
2.33904e-12
-3.80231e-15
2.33967e-12
-1.42496e-15
2.33991e-12
-5.14564e-16
2.33998e-12
-1.5171e-16
2.34e-12
-3.42625e-17
2.34e-12
4.90469e-18
2.34e-12
6.54076e-19
2.34e-12
5.95903e-18
2.34e-12
-2.10476e-18
2.34e-12
4.09548e-18
2.34e-12
-3.45493e-18
2.34e-12
5.00093e-18
2.34e-12
-3.53917e-18
2.34e-12
2.97298e-18
2.34e-12
-3.24222e-18
2.34e-12
5.18582e-18
2.34001e-12
-3.06067e-18
2.34e-12
4.81124e-18
2.34001e-12
-3.70631e-18
2.34e-12
3.61238e-18
2.34001e-12
-3.25735e-18
2.34e-12
1.07493e-18
2.34001e-12
-6.85186e-18
2.34e-12
4.38795e-18
2.34001e-12
-2.05449e-18
2.34e-12
3.23452e-18
2.34001e-12
-2.74215e-18
2.34e-12
5.59469e-18
2.34001e-12
-3.17452e-18
2.34e-12
4.67562e-18
2.34001e-12
-4.01705e-18
2.34e-12
4.57577e-18
2.34001e-12
-5.64299e-18
2.34e-12
5.64339e-18
2.34001e-12
-8.39078e-18
2.34e-12
6.60979e-18
2.34001e-12
-5.19904e-18
2.34e-12
8.04249e-18
2.34001e-12
-8.06505e-18
8.30062e-18
2.34441e-12
5.64068e-13
2.32843e-12
1.01317e-13
2.33407e-12
-6.25799e-15
2.33775e-12
-1.80423e-14
2.33924e-12
-1.02524e-14
2.33971e-12
-4.27428e-15
2.33988e-12
-1.59672e-15
2.33996e-12
-5.96323e-16
2.33999e-12
-1.77198e-16
2.34e-12
-4.76186e-17
2.34e-12
1.01893e-17
2.34e-12
-5.79217e-18
2.34e-12
1.23029e-17
2.34e-12
-8.51338e-18
2.34e-12
1.01361e-17
2.34e-12
-9.75361e-18
2.34e-12
1.07613e-17
2.34e-12
-9.01458e-18
2.34e-12
7.72927e-18
2.34e-12
-8.73985e-18
2.34e-12
1.11717e-17
2.34e-12
-8.9112e-18
2.34e-12
1.06335e-17
2.34e-12
-8.84228e-18
2.34e-12
7.36814e-18
2.34e-12
-6.88557e-18
2.34e-12
4.78235e-18
2.34001e-12
-1.3253e-17
2.34e-12
8.70875e-18
2.34e-12
-5.40914e-18
2.34e-12
7.11264e-18
2.34001e-12
-7.42758e-18
2.34e-12
1.1327e-17
2.34e-12
-8.34432e-18
2.34e-12
9.98762e-18
2.34e-12
-8.95484e-18
2.34e-12
9.23003e-18
2.34e-12
-1.03296e-17
2.34e-12
1.0776e-17
2.34e-12
-1.35554e-17
2.34e-12
1.10699e-17
2.34e-12
-7.53356e-18
2.34e-12
1.01048e-17
2.34e-12
-8.23494e-18
4.09764e-18
2.32059e-12
6.97877e-13
2.33594e-12
8.59715e-14
2.34379e-12
-1.41089e-14
2.34313e-12
-1.7378e-14
2.34147e-12
-8.59848e-15
2.34055e-12
-3.35073e-15
2.34014e-12
-1.19012e-15
2.34006e-12
-5.10488e-16
2.33999e-12
-1.10492e-16
2.34001e-12
-7.25983e-17
2.33998e-12
4.39984e-17
2.34002e-12
-4.05426e-17
2.33998e-12
4.53286e-17
2.34002e-12
-4.3593e-17
2.33998e-12
4.52481e-17
2.34002e-12
-4.56308e-17
2.33998e-12
4.60573e-17
2.34002e-12
-4.42172e-17
2.33998e-12
4.26159e-17
2.34002e-12
-4.48083e-17
2.33998e-12
4.8254e-17
2.34002e-12
-4.65352e-17
2.33998e-12
4.82672e-17
2.34002e-12
-4.63293e-17
2.33998e-12
4.27791e-17
2.34002e-12
-4.22551e-17
2.33998e-12
4.14645e-17
2.34002e-12
-5.17766e-17
2.33998e-12
4.58119e-17
2.34002e-12
-4.15117e-17
2.33998e-12
4.41066e-17
2.34002e-12
-4.55621e-17
2.33998e-12
5.18338e-17
2.34002e-12
-4.90515e-17
2.33998e-12
5.07031e-17
2.34002e-12
-5.01147e-17
2.33998e-12
4.90372e-17
2.34002e-12
-5.12784e-17
2.33998e-12
5.27151e-17
2.34002e-12
-5.56128e-17
2.33998e-12
5.36229e-17
2.34002e-12
-4.90755e-17
2.33998e-12
5.63003e-17
2.34002e-12
-4.79206e-17
6.3914e-17
2.30975e-12
7.89571e-13
2.35595e-12
3.9767e-14
2.35588e-12
-1.40291e-14
2.34798e-12
-9.48045e-15
2.34315e-12
-3.77369e-15
2.34118e-12
-1.37355e-15
2.34036e-12
-3.71618e-16
2.34013e-12
-2.82143e-16
2.33999e-12
2.98962e-17
2.34003e-12
-1.10482e-16
2.33997e-12
1.03517e-16
2.34003e-12
-1.01458e-16
2.33997e-12
1.02101e-16
2.34003e-12
-1.02356e-16
2.33997e-12
1.04741e-16
2.34003e-12
-1.06868e-16
2.33997e-12
1.06041e-16
2.34003e-12
-1.0351e-16
2.33997e-12
1.01835e-16
2.34003e-12
-1.04704e-16
2.33997e-12
1.0835e-16
2.34003e-12
-1.07941e-16
2.33997e-12
1.08849e-16
2.34003e-12
-1.0679e-16
2.33997e-12
1.00459e-16
2.34003e-12
-1.00279e-16
2.33997e-12
1.03873e-16
2.34003e-12
-1.13904e-16
2.33997e-12
1.06331e-16
2.34003e-12
-1.00308e-16
2.33997e-12
1.03621e-16
2.34003e-12
-1.06566e-16
2.33997e-12
1.13443e-16
2.34003e-12
-1.11392e-16
2.33997e-12
1.12254e-16
2.34003e-12
-1.12919e-16
2.33997e-12
1.1214e-16
2.34004e-12
-1.1693e-16
2.33997e-12
1.20433e-16
2.34004e-12
-1.22634e-16
2.33997e-12
1.20768e-16
2.34003e-12
-1.13336e-16
2.33997e-12
1.21843e-16
2.34001e-12
-8.61013e-17
1.3776e-16
2.57903e-12
-7.89454e-13
2.65876e-12
-3.99628e-14
2.63052e-12
1.42052e-14
2.61175e-12
9.29498e-15
2.60401e-12
3.95737e-15
2.60146e-12
1.18228e-15
2.60052e-12
5.65265e-16
2.60015e-12
8.81691e-17
2.60002e-12
1.63488e-16
2.59999e-12
-8.45739e-17
2.6e-12
9.33097e-17
2.6e-12
-9.70959e-17
2.6e-12
9.94269e-17
2.6e-12
-1.03866e-16
2.6e-12
1.02665e-16
2.6e-12
-9.81898e-17
2.6e-12
1.00047e-16
2.6e-12
-1.05034e-16
2.6e-12
1.08139e-16
2.6e-12
-1.06329e-16
2.6e-12
1.05375e-16
2.6e-12
-1.09644e-16
2.6e-12
1.10425e-16
2.60001e-12
-1.11031e-16
2.59999e-12
1.1567e-16
2.60001e-12
-1.15655e-16
2.6e-12
1.13539e-16
2.59999e-12
-1.05705e-16
2.59998e-12
1.13888e-16
2.6e-12
-1.20412e-16
2.59999e-12
1.17939e-16
2.6e-12
-1.17776e-16
2.6e-12
1.14945e-16
2.6e-12
-1.18158e-16
2.6e-12
1.17916e-16
2.6e-12
-1.17518e-16
2.6e-12
1.16564e-16
2.59999e-12
-1.08597e-16
2.6e-12
1.06037e-16
2.59998e-12
-1.03342e-16
2.6e-12
1.076e-16
2.59999e-12
-1.10483e-16
2.6e-12
1.18924e-16
2.6e-12
-9.29041e-17
1.5006e-16
2.36182e-12
1.38183e-13
2.39659e-12
-3.47684e-14
2.3768e-12
1.97859e-14
2.30092e-12
7.58793e-14
-1.00513e-13
2.40143e-12
2.52428e-12
1.139e-13
2.46626e-12
2.32497e-14
2.46032e-12
2.57304e-14
2.46278e-12
7.34217e-14
-9.21392e-14
2.4544e-12
2.59533e-12
1.85748e-14
2.53626e-12
8.23122e-14
2.52361e-12
3.83839e-14
2.53767e-12
5.93637e-14
-6.79531e-14
2.51348e-12
2.57499e-12
-5.64137e-14
2.55784e-12
9.94597e-14
2.56168e-12
3.45478e-14
2.58228e-12
3.87621e-14
-4.03772e-14
2.5547e-12
2.44359e-12
2.54305e-12
2.57759e-12
2.61636e-12
2.57598e-12
2.30981e-12
-6.97836e-13
2.3559e-12
-8.60476e-14
2.35593e-12
1.41734e-14
2.34792e-12
1.73039e-14
2.34321e-12
8.67057e-15
2.34112e-12
3.27219e-15
2.34042e-12
1.269e-15
2.34007e-12
4.32633e-16
2.34005e-12
1.8724e-16
2.33997e-12
-4.90124e-18
2.34003e-12
3.42264e-17
2.33997e-12
-3.86409e-17
2.34003e-12
3.61293e-17
2.33997e-12
-4.10561e-17
2.34003e-12
3.88298e-17
2.33997e-12
-3.55741e-17
2.34003e-12
3.57386e-17
2.33997e-12
-3.89812e-17
2.34003e-12
4.11595e-17
2.33997e-12
-3.94642e-17
2.34004e-12
3.81786e-17
2.33997e-12
-4.28628e-17
2.34004e-12
4.1507e-17
2.33997e-12
-4.10903e-17
2.34004e-12
4.24477e-17
2.33997e-12
-4.22098e-17
2.34004e-12
4.39348e-17
2.33997e-12
-3.51142e-17
2.34004e-12
4.11568e-17
2.33996e-12
-4.56334e-17
2.34004e-12
4.36242e-17
2.33997e-12
-4.4703e-17
2.34004e-12
4.21555e-17
2.33997e-12
-4.58472e-17
2.34004e-12
4.45109e-17
2.33997e-12
-4.48283e-17
2.34004e-12
4.36128e-17
2.33997e-12
-3.81148e-17
2.34004e-12
3.74596e-17
2.33997e-12
-3.41147e-17
2.34004e-12
3.85864e-17
2.33997e-12
-4.0185e-17
2.34004e-12
4.26273e-17
2.34e-12
-5.34105e-17
1.5874e-17
2.32062e-12
-5.64051e-13
2.33592e-12
-1.01346e-13
2.34382e-12
6.27418e-15
2.3431e-12
1.80204e-14
2.3415e-12
1.02704e-14
2.34052e-12
4.25261e-15
2.34017e-12
1.61745e-15
2.34003e-12
5.76228e-16
2.34002e-12
1.96692e-16
2.33999e-12
2.7734e-17
2.34001e-12
9.80818e-18
2.33999e-12
-1.4301e-17
2.34001e-12
8.60384e-18
2.33999e-12
-1.39841e-17
2.34001e-12
1.18036e-17
2.33999e-12
-1.05035e-17
2.34001e-12
1.00989e-17
2.33999e-12
-1.24436e-17
2.34001e-12
1.37584e-17
2.33999e-12
-1.26058e-17
2.34002e-12
1.09821e-17
2.33999e-12
-1.45869e-17
2.34002e-12
1.29365e-17
2.33999e-12
-1.36209e-17
2.34002e-12
1.42462e-17
2.33999e-12
-1.45141e-17
2.34002e-12
1.71085e-17
2.33999e-12
-9.34347e-18
2.34002e-12
1.36524e-17
2.33999e-12
-1.68819e-17
2.34002e-12
1.50501e-17
2.33999e-12
-1.55433e-17
2.34002e-12
1.32115e-17
2.33999e-12
-1.6097e-17
2.34002e-12
1.45362e-17
2.33999e-12
-1.56648e-17
2.34002e-12
1.45063e-17
2.33999e-12
-1.17055e-17
2.34002e-12
1.20849e-17
2.33999e-12
-8.3411e-18
2.34002e-12
1.18449e-17
2.33999e-12
-1.17117e-17
2.34002e-12
1.02052e-17
2.33999e-12
-2.11774e-17
2.02967e-17
2.34442e-12
-3.94991e-13
2.32843e-12
-8.53506e-14
2.33408e-12
6.23542e-16
2.33775e-12
1.43516e-14
2.33925e-12
8.7696e-15
2.3397e-12
3.7991e-15
2.33989e-12
1.42719e-15
2.33995e-12
5.11923e-16
2.34e-12
1.54346e-16
2.33999e-12
3.13944e-17
2.34001e-12
-2.04079e-18
2.33999e-12
-3.31459e-18
2.34001e-12
-3.36971e-18
2.33999e-12
-1.16951e-18
2.34001e-12
-8.78214e-19
2.33999e-12
9.02532e-19
2.34001e-12
-1.99733e-18
2.33999e-12
4.03099e-19
2.34001e-12
1.07323e-19
2.33999e-12
4.6681e-19
2.34001e-12
-2.40409e-18
2.33999e-12
-1.50274e-19
2.34001e-12
-1.41306e-18
2.33999e-12
4.64163e-19
2.34001e-12
-5.19399e-19
2.33999e-12
2.42889e-19
2.34001e-12
2.07496e-18
2.34e-12
3.41768e-18
2.34001e-12
-1.14953e-18
2.33999e-12
-1.14506e-18
2.34001e-12
-3.12646e-19
2.33999e-12
-1.91873e-19
2.34001e-12
-2.17945e-18
2.33999e-12
4.62183e-20
2.34001e-12
-1.42374e-18
2.33999e-12
4.45428e-19
2.34001e-12
-8.58551e-19
2.34e-12
2.48001e-18
2.34001e-12
-1.56701e-18
2.34e-12
4.69478e-18
2.34001e-12
-1.37354e-18
2.34e-12
1.32471e-18
2.34001e-12
-1.86626e-18
2.34e-12
-1.01408e-17
-3.10631e-17
2.36498e-12
-2.05267e-13
2.32549e-12
-4.58669e-14
2.32746e-12
-1.34173e-15
2.33356e-12
8.24739e-15
2.33739e-12
4.94014e-15
2.33904e-12
2.15509e-15
2.33967e-12
7.95179e-16
2.33991e-12
2.74015e-16
2.33998e-12
8.14096e-17
2.34e-12
1.19195e-17
2.34e-12
-1.05161e-18
2.34e-12
-4.41753e-18
2.34e-12
-8.16959e-19
2.34e-12
-3.19854e-18
2.34e-12
8.72927e-19
2.34e-12
-2.39624e-18
2.34e-12
5.88626e-19
2.34e-12
-2.68138e-18
2.34e-12
1.87988e-18
2.34e-12
-2.74634e-18
2.34e-12
7.92619e-19
2.34e-12
-3.20415e-18
2.34e-12
1.51821e-18
2.34e-12
-2.84374e-18
2.34e-12
2.23021e-18
2.34e-12
-3.35662e-18
2.34e-12
3.97301e-18
2.34001e-12
-1.77676e-18
2.34e-12
2.05705e-18
2.34001e-12
-4.18627e-18
2.34e-12
2.61462e-18
2.34001e-12
-3.97171e-18
2.34e-12
1.82696e-18
2.34001e-12
-3.70971e-18
2.34e-12
2.60076e-18
2.34001e-12
-3.15365e-18
2.34e-12
3.34726e-18
2.34001e-12
-1.57063e-18
2.34e-12
3.17653e-18
2.34001e-12
2.3588e-19
2.34e-12
2.58945e-18
2.34e-12
-3.45612e-19
2.34e-12
1.4444e-18
2.33999e-12
-2.62813e-18
1.9742e-17
2.37071e-12
2.32485e-12
2.3235e-12
2.33175e-12
2.33669e-12
2.33885e-12
2.33964e-12
2.33992e-12
2.34e-12
2.34001e-12
2.34001e-12
2.34e-12
2.34e-12
2.34e-12
2.34e-12
2.34e-12
2.34e-12
2.34e-12
2.34e-12
2.33999e-12
2.34e-12
2.33999e-12
2.33999e-12
2.33999e-12
2.33999e-12
2.33999e-12
2.33999e-12
2.33999e-12
2.33999e-12
2.33999e-12
2.33999e-12
2.33999e-12
2.33999e-12
2.33999e-12
2.33999e-12
2.33999e-12
2.33999e-12
2.33999e-12
2.33999e-12
2.33999e-12
2.33999e-12
2.33999e-12
2.33999e-12
2.33999e-12
)
;

boundaryField
{
    AirInlet
    {
        type            calculated;
        value           uniform -1e-12;
    }
    WaterInlet
    {
        type            calculated;
        value           nonuniform List<scalar> 10(-2.5e-12 -2.5e-12 -2.5e-12 -2.5e-12 -2.5e-12 -2.5e-12 -2.5e-12 -2.5e-12 -2.5e-12 -2.5e-12);
    }
    ChannelWall
    {
        type            calculated;
        value           uniform 0;
    }
    Outlet
    {
        type            calculated;
        value           nonuniform List<scalar> 
11
(
2.34e-12
2.33999e-12
2.34e-12
2.33996e-12
2.33993e-12
2.59999e-12
2.34014e-12
2.33998e-12
2.34005e-12
2.33994e-12
2.34001e-12
)
;
    }
    FrontAndBack
    {
        type            empty;
        value           nonuniform 0();
    }
}


// ************************************************************************* //
