/*--------------------------------*- C++ -*----------------------------------*\
| =========                 |                                                 |
| \\      /  F ield         | OpenFOAM: The Open Source CFD Toolbox           |
|  \\    /   O peration     | Version:  2.3.0                                 |
|   \\  /    A nd           | Web:      www.OpenFOAM.org                      |
|    \\/     M anipulation  |                                                 |
\*---------------------------------------------------------------------------*/
FoamFile
{
    version     2.0;
    format      ascii;
    class       volScalarField;
    location    "7";
    object      pMean;
}
// * * * * * * * * * * * * * * * * * * * * * * * * * * * * * * * * * * * * * //

dimensions      [1 -1 -2 0 0 0 0];

internalField   nonuniform List<scalar> 
1875
(
107108
107101
107083
107070
107062
107059
107061
107066
107072
107076
107076
107074
107069
107062
107054
107046
107039
107034
107033
107038
107049
107065
107088
107113
107124
106924
106912
106897
106885
106880
106880
106886
106893
106901
106906
106907
106905
106900
106893
106885
106876
106868
106861
106857
106857
106862
106873
106890
106910
106926
106804
106799
106794
106789
106786
106787
106791
106796
106800
106803
106804
106802
106799
106794
106788
106781
106775
106770
106767
106766
106768
106772
106779
106787
106794
106696
106693
106690
106686
106684
106683
106685
106687
106689
106690
106690
106688
106684
106680
106676
106671
106667
106665
106664
106664
106667
106670
106675
106679
106683
106599
106599
106596
106594
106592
106591
106592
106592
106593
106593
106593
106591
106589
106586
106583
106580
106578
106576
106576
106577
106580
106583
106586
106588
106589
106492
106492
106490
106488
106486
106484
106484
106485
106485
106486
106486
106486
106484
106482
106480
106477
106476
106475
106476
106478
106481
106483
106486
106487
106487
106388
106388
106386
106384
106381
106380
106379
106379
106380
106381
106382
106383
106383
106382
106381
106380
106378
106378
106379
106381
106383
106385
106387
106388
106388
106277
106276
106275
106272
106270
106268
106266
106266
106266
106267
106269
106270
106271
106272
106272
106273
106273
106274
106274
106275
106276
106278
106280
106281
106281
106166
106165
106163
106161
106159
106156
106155
106154
106154
106155
106157
106158
106160
106162
106163
106165
106166
106167
106167
106168
106169
106171
106172
106173
106173
106050
106049
106047
106045
106044
106043
106042
106043
106043
106044
106045
106046
106047
106048
106050
106051
106052
106053
106054
106054
106055
106056
106058
106059
106060
105936
105935
105932
105931
105931
105932
105933
105934
105935
105936
105936
105935
105936
105936
105938
105938
105938
105939
105940
105940
105941
105942
105943
105944
105945
105823
105822
105820
105819
105819
105820
105822
105823
105824
105824
105822
105821
105819
105819
105820
105822
105823
105825
105826
105827
105827
105826
105827
105829
105829
105715
105714
105712
105711
105711
105711
105712
105713
105713
105713
105711
105708
105706
105705
105706
105708
105710
105713
105714
105715
105714
105714
105715
105716
105717
105606
105606
105604
105603
105603
105602
105602
105602
105602
105601
105600
105598
105597
105596
105596
105597
105599
105600
105602
105602
105602
105602
105602
105604
105605
105498
105497
105496
105495
105495
105494
105494
105494
105493
105492
105492
105491
105491
105490
105490
105490
105491
105492
105492
105492
105492
105492
105493
105495
105495
105390
105389
105388
105387
105387
105387
105388
105388
105387
105385
105384
105384
105383
105384
105383
105383
105383
105383
105383
105383
105383
105384
105385
105386
105387
105282
105282
105281
105280
105280
105280
105282
105282
105282
105280
105278
105276
105276
105276
105275
105275
105275
105275
105275
105275
105276
105277
105278
105279
105280
105175
105174
105173
105172
105172
105172
105174
105175
105174
105173
105171
105168
105167
105167
105166
105166
105167
105168
105169
105169
105170
105171
105172
105172
105173
105067
105066
105065
105064
105064
105064
105065
105065
105065
105063
105062
105060
105059
105059
105058
105059
105060
105062
105063
105064
105064
105064
105065
105065
105066
104959
104958
104957
104956
104955
104955
104955
104955
104954
104953
104952
104951
104950
104950
104951
104951
104953
104955
104956
104957
104957
104957
104957
104958
104959
104850
104849
104849
104848
104848
104847
104846
104845
104844
104843
104843
104842
104842
104842
104843
104843
104845
104847
104849
104850
104851
104851
104851
104852
104852
104741
104741
104740
104740
104739
104738
104738
104736
104735
104735
104734
104733
104733
104733
104734
104735
104737
104739
104741
104742
104743
104744
104745
104745
104746
104633
104632
104632
104631
104631
104630
104630
104629
104628
104627
104626
104625
104624
104625
104626
104627
104629
104631
104632
104634
104635
104636
104636
104637
104637
104524
104523
104523
104523
104523
104522
104522
104521
104520
104519
104518
104517
104517
104517
104518
104519
104521
104522
104523
104524
104525
104525
104525
104526
104526
104415
104415
104414
104414
104413
104413
104412
104412
104411
104410
104409
104408
104408
104408
104409
104410
104412
104412
104413
104414
104415
104415
104415
104416
104416
104306
104306
104305
104304
104303
104303
104302
104302
104301
104300
104300
104299
104299
104299
104300
104302
104303
104304
104305
104305
104305
104305
104306
104306
104307
104197
104196
104196
104195
104195
104194
104193
104192
104191
104191
104190
104190
104190
104191
104192
104193
104194
104195
104196
104196
104196
104196
104196
104197
104197
104088
104088
104088
104087
104087
104086
104085
104084
104083
104083
104082
104082
104082
104082
104083
104083
104085
104086
104086
104086
104086
104087
104087
104088
104088
103980
103980
103980
103980
103979
103979
103978
103977
103976
103976
103975
103974
103973
103973
103973
103973
103974
103975
103975
103976
103976
103977
103978
103978
103978
103873
103873
103873
103873
103872
103872
103871
103870
103870
103869
103867
103866
103865
103863
103863
103863
103863
103864
103865
103865
103866
103867
103868
103869
103869
103765
103765
103765
103765
103765
103765
103765
103764
103763
103762
103760
103758
103756
103754
103753
103753
103753
103754
103755
103756
103757
103758
103759
103759
103759
103657
103657
103657
103657
103657
103657
103657
103657
103656
103654
103652
103650
103647
103646
103645
103645
103645
103645
103646
103647
103648
103649
103650
103650
103651
103548
103548
103548
103547
103547
103547
103547
103547
103546
103544
103542
103540
103539
103538
103537
103537
103537
103538
103539
103540
103541
103541
103542
103543
103543
103436
103436
103436
103436
103435
103435
103434
103434
103433
103432
103430
103429
103428
103428
103428
103428
103429
103430
103431
103432
103433
103434
103435
103435
103435
103324
103323
103323
103323
103322
103321
103321
103320
103319
103318
103317
103316
103316
103316
103317
103317
103318
103319
103321
103322
103324
103325
103325
103325
103325
103210
103210
103209
103209
103208
103208
103206
103205
103204
103203
103202
103202
103203
103204
103204
103205
103206
103208
103209
103211
103212
103213
103213
103213
103213
103095
103095
103095
103094
103093
103092
103091
103090
103088
103087
103087
103087
103089
103090
103091
103092
103093
103095
103096
103098
103099
103100
103100
103100
103100
102982
102982
102981
102981
102980
102979
102978
102977
102975
102975
102974
102975
102976
102977
102978
102979
102980
102982
102983
102984
102985
102986
102986
102986
102986
102869
102869
102869
102868
102867
102866
102866
102865
102865
102864
102864
102864
102865
102866
102867
102868
102869
102870
102870
102871
102871
102871
102872
102872
102872
102758
102757
102757
102756
102756
102755
102755
102754
102754
102753
102753
102753
102754
102755
102757
102758
102759
102759
102759
102758
102758
102757
102758
102758
102758
102647
102647
102646
102646
102645
102644
102644
102643
102643
102643
102643
102643
102644
102645
102647
102648
102648
102648
102647
102647
102646
102646
102646
102647
102647
102537
102537
102536
102536
102535
102535
102534
102534
102534
102534
102534
102534
102534
102535
102535
102536
102536
102536
102535
102535
102535
102535
102535
102536
102536
102427
102427
102426
102425
102425
102424
102424
102423
102424
102424
102424
102424
102424
102424
102424
102424
102423
102423
102422
102422
102422
102423
102423
102424
102424
102315
102315
102314
102314
102313
102313
102312
102312
102312
102312
102312
102312
102312
102311
102312
102311
102311
102311
102310
102310
102311
102312
102312
102313
102313
102202
102202
102201
102201
102201
102200
102200
102199
102199
102199
102199
102199
102199
102198
102198
102198
102198
102198
102197
102198
102198
102199
102200
102200
102200
102089
102088
102089
102088
102088
102087
102087
102087
102086
102086
102086
102086
102086
102085
102085
102085
102085
102085
102084
102084
102085
102085
102086
102086
102086
101976
101976
101976
101975
101975
101974
101974
101973
101973
101972
101972
101972
101972
101972
101972
101972
101972
101972
101971
101971
101971
101972
101972
101972
101972
101863
101863
101863
101862
101862
101861
101860
101860
101859
101858
101858
101858
101858
101858
101858
101858
101858
101858
101858
101858
101858
101858
101858
101858
101858
101749
101749
101749
101749
101749
101748
101747
101747
101746
101745
101744
101744
101743
101743
101743
101743
101743
101743
101744
101744
101744
101744
101745
101745
101745
101635
101635
101635
101635
101634
101634
101633
101633
101632
101632
101631
101631
101630
101630
101629
101629
101629
101629
101629
101630
101631
101631
101632
101631
101632
101520
101519
101519
101519
101519
101518
101518
101518
101518
101518
101517
101517
101516
101516
101515
101515
101515
101515
101516
101517
101517
101518
101518
101518
101518
101405
101404
101404
101404
101404
101404
101404
101404
101404
101404
101403
101403
101403
101402
101402
101402
101402
101403
101404
101404
101405
101405
101405
101405
101405
101289
101289
101288
101288
101288
101288
101288
101288
101288
101288
101288
101288
101288
101288
101288
101288
101289
101290
101290
101291
101291
101291
101291
101291
101291
101174
101174
101174
101174
101174
101174
101174
101174
101174
101173
101173
101173
101174
101174
101175
101176
101176
101177
101177
101177
101177
101178
101178
101178
101178
101064
101064
101064
101064
101064
101063
101063
101063
101063
101063
101063
101063
101063
101064
101065
101066
101067
101068
101068
101068
101068
101068
101068
101068
101068
100959
100959
100958
100958
100958
100957
100957
100957
100957
100957
100957
100957
100958
100958
100959
100960
100961
100962
100962
100962
100962
100962
100962
100962
100962
100858
100858
100857
100857
100857
100856
100856
100856
100856
100855
100855
100856
100856
100857
100857
100858
100859
100859
100860
100860
100860
100860
100860
100860
100860
100761
100761
100761
100761
100760
100760
100760
100759
100759
100759
100758
100758
100758
100758
100758
100758
100759
100759
100760
100760
100761
100761
100761
100762
100762
100669
100669
100669
100669
100668
100668
100667
100667
100667
100666
100666
100665
100665
100664
100664
100664
100664
100664
100664
100665
100666
100666
100667
100667
100668
100580
100580
100580
100580
100580
100579
100579
100579
100579
100579
100578
100578
100577
100577
100576
100575
100575
100575
100575
100575
100576
100577
100578
100578
100579
100494
100494
100494
100494
100494
100494
100494
100494
100494
100494
100494
100494
100493
100492
100491
100491
100490
100490
100490
100491
100492
100493
100494
100494
100494
100413
100412
100412
100412
100413
100413
100412
100412
100412
100412
100411
100411
100410
100409
100409
100408
100409
100409
100409
100410
100411
100412
100413
100413
100413
100335
100334
100334
100334
100334
100334
100333
100332
100331
100330
100330
100329
100329
100329
100329
100329
100330
100331
100332
100334
100335
100336
100337
100337
100337
100261
100261
100260
100259
100259
100258
100257
100257
100256
100255
100254
100254
100253
100253
100254
100254
100255
100257
100258
100260
100261
100262
100263
100263
100263
100191
100191
100191
100190
100189
100187
100187
100186
100186
100185
100186
100186
100186
100186
100187
100187
100188
100188
100189
100189
100190
100190
100191
100191
100191
100128
100128
100127
100127
100126
100125
100125
100124
100124
100125
100126
100126
100126
100127
100127
100127
100127
100126
100126
100125
100125
100125
100125
100125
100126
100070
100069
100069
100069
100068
100068
100067
100067
100067
100068
100069
100070
100071
100071
100071
100071
100070
100070
100069
100068
100068
100067
100067
100068
100069
100024
100023
100023
100023
100023
100022
100022
100021
100021
100021
100022
100023
100024
100024
100024
100024
100024
100024
100024
100024
100023
100023
100022
100023
100024
100003
100003
100003
100003
100003
100003
100003
100003
100003
100003
100003
100003
100003
100003
100003
100003
100003
100003
100003
100003
100003
100003
100003
100003
100003
100001
100001
100001
100001
100001
100001
100001
100001
100001
100001
100001
100001
100001
100001
100001
100001
100001
100001
100001
100001
100001
100001
100001
100001
100001
100001
100001
100001
100001
100001
100001
100001
100001
100001
100001
100001
100001
100001
100001
100001
100001
100001
100001
100001
100001
100001
100001
100001
100001
100001
100001
100001
100001
100001
100001
100001
100001
100001
100001
100001
100001
100001
100001
100001
100001
100001
100001
100001
100001
100001
100001
100001
100001
100001
100001
100000
100000
100000
100000
100000
100000
100000
100000
100000
100000
100000
100000
100000
100000
100000
100000
100000
100000
100000
100000
100000
100000
100000
100000
100000
100000
100000
100000
100000
100000
100000
100000
100000
100000
100000
100000
100000
100000
100000
100000
100000
100000
100000
100000
100000
100000
100000
100000
100000
100000
100000
100000
100000
100000
100000
100000
100000
100000
100000
100000
100000
100000
100000
100000
100000
100000
100000
100000
100000
100000
100000
100000
100000
100000
100000
)
;

boundaryField
{
    inlet
    {
        type            calculated;
        value           nonuniform List<scalar> 
25
(
107116
107108
107092
107079
107071
107068
107071
107076
107082
107085
107086
107084
107079
107072
107064
107056
107049
107044
107043
107047
107057
107074
107096
107120
107131
)
;
    }
    outlet
    {
        type            calculated;
        value           uniform 100000;
    }
    walls
    {
        type            calculated;
        value           nonuniform List<scalar> 
150
(
107108
106924
106804
106696
106599
106492
106388
106277
106166
106050
105936
105823
105715
105606
105498
105390
105282
105175
105067
104959
104850
104741
104633
104524
104415
104306
104197
104088
103980
103873
103765
103657
103548
103436
103324
103210
103095
102982
102869
102758
102647
102537
102427
102315
102202
102089
101976
101863
101749
101635
101520
101405
101289
101174
101064
100959
100858
100761
100669
100580
100494
100413
100335
100261
100191
100128
100070
100024
100003
100001
100001
100001
100000
100000
100000
107124
106926
106794
106683
106589
106487
106388
106281
106173
106060
105945
105829
105717
105605
105495
105387
105280
105173
105066
104959
104852
104746
104637
104526
104416
104307
104197
104088
103978
103869
103759
103651
103543
103435
103325
103213
103100
102986
102872
102758
102647
102536
102424
102313
102200
102086
101972
101858
101745
101632
101518
101405
101291
101178
101068
100962
100860
100762
100668
100579
100494
100413
100337
100263
100191
100126
100069
100024
100003
100001
100001
100001
100000
100000
100000
)
;
    }
    defaultFaces
    {
        type            empty;
    }
}


// ************************************************************************* //
