/*--------------------------------*- C++ -*----------------------------------*\
| =========                 |                                                 |
| \\      /  F ield         | OpenFOAM: The Open Source CFD Toolbox           |
|  \\    /   O peration     | Version:  2.3.0                                 |
|   \\  /    A nd           | Web:      www.OpenFOAM.org                      |
|    \\/     M anipulation  |                                                 |
\*---------------------------------------------------------------------------*/
FoamFile
{
    version     2.0;
    format      ascii;
    class       volScalarField;
    location    "4.80023";
    object      epsilon.water;
}
// * * * * * * * * * * * * * * * * * * * * * * * * * * * * * * * * * * * * * //

dimensions      [0 2 -3 0 0 0 0];

internalField   nonuniform List<scalar> 
18816
(
1.20031
5.66041
9.82081
12.7238
17.5954
20.5315
25.1607
28.6388
33.2513
36.6378
40.3958
43.2959
45.6153
46.2522
45.684
43.4375
39.1811
32.995
25.5704
17.1108
9.89598
4.60394
3.68979
6.59425
13.0773
16.7333
15.6249
3.30668
12.162
44.7572
37.3043
36.9883
36.0536
37.2592
39.4621
41.0037
41.9778
42.2051
42.7063
42.5036
40.4169
37.7699
34.4518
30.6552
26.3676
21.6186
16.8805
12.6697
9.35305
7.12501
7.09083
7.4701
10.3412
14.5225
23.6408
8.11681
9.73411
30.2218
25.6738
24.9223
24.3654
25.2585
26.7113
27.5212
27.8751
28.3149
27.4275
30.3305
28.3962
25.1834
22.7201
20.1618
17.7072
15.2401
12.5689
9.42004
6.40452
3.8421
2.93339
2.68719
4.56573
9.11691
18.389
9.08927
9.83791
26.9135
23.8432
24.1961
24.1314
24.9204
26.4828
27.33
26.1249
26.1823
22.8346
16.5192
19.8246
18.1354
16.395
14.4812
12.8397
10.9207
8.54225
5.67597
3.47417
1.83201
1.10844
1.5447
3.29614
7.40721
17.9182
9.61653
6.41603
75.8394
21.9828
21.9853
21.6235
23.8655
24.3423
24.498
25.7197
24.8914
19.5473
12.2436
13.8828
11.196
7.70271
4.48476
2.40379
1.2583
0.809506
0.613371
0.57125
0.58579
0.465195
0.202798
1.54264
5.59887
16.1196
9.86261
11.0952
84.8865
58.6306
20.9537
21.3955
23.3056
23.9057
25.7144
23.9908
23.9484
18.1228
10.1465
7.89882
3.93991
1.10296
0.27628
0.15932
0.2253
0.331985
0.351195
0.340691
0.416683
0.625483
0.635542
0.676587
5.15437
15.7253
10.0176
11.6945
82.8418
67.7605
52.7752
44.2269
37.9072
31.6524
23.0087
23.1091
20.9786
17.3678
4.89358
3.75158
0.897849
0.0694553
0.0107292
0.00864545
0.0798262
0.344809
0.399567
0.338206
0.369319
0.565169
1.00022
0.312876
4.2101
14.7687
9.9488
15.954
81.4152
67.9056
57.9004
46.4668
37.7564
31.5919
27.0755
24.5964
19.9963
14.4066
3.89554
2.0405
0.3491
0.0200124
0.028768
0.0141125
0.126725
0.218244
0.489118
0.353394
0.353939
0.466031
0.901842
0.816653
3.46929
14.3112
9.87797
16.3294
80.1626
66.8825
55.9964
43.9286
35.0691
28.8806
25.7463
23.7939
18.1841
14.3708
3.10692
1.47103
0.176843
0.0308443
0.0490037
0.0987056
0.0637541
0.206667
0.434324
0.364877
0.3558
0.408062
0.711075
1.21885
2.63632
13.6467
9.93261
19.5015
79.498
65.8528
54.632
42.6178
33.6896
27.7603
24.5362
23.904
14.1941
12.6851
2.64134
0.493323
0.21142
0.167657
0.124677
0.27945
0.168592
0.0287797
0.332157
0.374864
0.352072
0.383617
0.549627
1.23662
2.46736
13.4834
9.60816
20.8145
79.0097
65.0263
53.7767
41.855
33.0852
27.8682
25.2574
23.9297
10.3679
10.5509
1.72934
0.37369
0.323478
0.192699
0.155318
0.165956
0.194323
0.148019
0.310497
0.400383
0.351827
0.378793
0.473004
1.0361
1.64226
13.5199
9.56489
21.1335
78.9109
64.7721
53.4474
41.3334
32.7848
27.7881
26.7797
23.1281
9.12005
5.9538
3.05223
0.187882
0.412199
0.212319
0.226868
0.240401
0.209436
0.260903
0.392646
0.411395
0.342616
0.369986
0.421651
0.769501
0.152036
13.0122
9.27917
23.7856
78.9373
64.948
53.2417
41.01
32.6248
28.1531
28.2131
22.6594
7.30831
4.22114
2.1994
0.139106
0.348427
0.230049
0.283553
0.275999
0.300474
0.45216
0.488422
0.386264
0.340867
0.368551
0.405325
0.679152
0.375896
12.4574
9.26436
23.9563
78.7492
65.4894
53.1518
40.7488
32.5293
28.558
30.0825
22.4583
5.90631
3.24571
1.86709
0.188351
0.194557
0.142128
0.321533
0.378403
0.401087
0.528531
0.410965
0.335185
0.330162
0.356403
0.391165
0.641324
0.708529
11.7461
9.16911
26.2302
77.8478
65.653
52.8838
40.4694
32.4136
29.0218
31.4182
21.0943
4.89284
2.08958
0.978486
0.144667
0.0407694
0.113037
0.208835
0.319002
0.31673
0.275145
0.243315
0.300448
0.316396
0.342715
0.384203
0.600295
1.06265
10.7907
9.03832
26.3839
76.2211
65.3031
52.6708
40.2962
32.4193
30.0315
33.016
18.6827
2.90182
0.829313
0.564708
0.154103
0.0533626
0.155491
0.143796
0.124922
0.136677
0.106769
0.183902
0.272904
0.287995
0.315165
0.36213
0.54587
1.22668
10.4263
9.217
28.3584
75.8512
64.4653
52.2427
40.0351
32.4158
30.9436
33.2064
15.11
1.39798
0.286169
0.274846
0.156863
0.0830858
0.103882
0.0720245
0.0863269
0.108286
0.0885009
0.168649
0.238414
0.256898
0.286461
0.335604
0.461373
1.19123
10.3224
8.92212
28.3953
78.8737
63.9177
52.1455
40.0187
32.9423
33.2333
33.0348
7.75039
0.197725
0.123271
0.0252967
0.101832
0.0612442
0.0761798
0.0741468
0.0818928
0.105326
0.108391
0.152798
0.20328
0.221176
0.250931
0.301313
0.372128
0.924527
10.7684
8.68302
30.4338
83.2606
63.8975
52.3019
40.0488
34.1398
35.0546
28.7651
1.88903
0.0904276
0.0928009
0.0594865
0.0869435
0.0624217
0.0970807
0.0859093
0.0908258
0.138253
0.161024
0.167959
0.176778
0.197183
0.223433
0.272309
0.305604
0.640912
11.3068
8.70245
30.3595
85.2967
64.6121
52.8631
40.7631
36.724
39.6137
23.3673
0.433922
0.0678552
0.0749763
0.0531842
0.0796676
0.0624631
0.0865553
0.0781606
0.100836
0.139571
0.204115
0.2176
0.160957
0.171186
0.196898
0.243348
0.265091
0.40509
11.6737
8.29733
32.5094
85.8656
66.125
54.2314
43.7948
43.7617
43.2044
11.5375
0.165096
0.0773261
0.0519318
0.0417626
0.0383995
0.0318469
0.0367342
0.0369373
0.0498167
0.0623606
0.113594
0.145289
0.109338
0.129711
0.169637
0.218847
0.237147
0.279197
11.4373
8.37794
32.5184
89.4302
69.0055
56.8583
48.4963
49.9275
40.8839
8.17735
0.0410747
0.0257798
0.0223003
0.0228367
0.0164753
0.0185046
0.0156316
0.0175483
0.0217089
0.0130531
0.014249
0.0528579
0.0734669
0.109844
0.154195
0.20244
0.200595
0.211807
11.0335
8.02841
34.8567
94.5089
71.4745
59.6845
53.5597
53.9341
35.554
7.70516
0.133369
0.0406819
0.0359225
0.032643
0.0312318
0.0280335
0.0268403
0.0274686
0.0301577
0.0378694
0.0479843
0.062974
0.0712
0.0982688
0.142477
0.191395
0.130586
0.17003
10.5599
7.85382
34.9047
99.4927
74.8057
63.703
58.0739
56.0084
30.2714
8.29942
0.0777667
0.00912637
0.00514138
0.00595475
0.00690182
0.0050525
0.00399403
0.00478758
0.0065304
0.0138322
0.0216086
0.042514
0.0602771
0.0911511
0.135046
0.182857
0.0394028
0.156589
9.90171
7.90866
37.2821
101.355
75.9024
66.734
61.5315
56.3532
24.3298
7.90371
0.121531
0.00811268
0.0088478
0.013649
0.0170856
0.0154482
0.014317
0.0152468
0.0170345
0.0226408
0.0289181
0.0425855
0.0583405
0.0854115
0.128139
0.175238
0.0455121
0.145872
9.01683
7.54658
37.2951
103.87
78.5788
70.6773
64.2337
54.8198
18.3339
8.0002
0.0636136
0.00887124
0.00326883
0.00491422
0.0115297
0.0108445
0.00990193
0.0109864
0.0131744
0.0186978
0.0248954
0.0375584
0.0541707
0.0798605
0.117482
0.160562
0.0647071
0.13182
7.76943
7.37071
39.7206
102.396
79.7553
72.5096
65.7684
51.9968
13.6558
8.56022
0.0473531
0.0231129
0.00311409
0.00353222
0.013092
0.0130304
0.0120627
0.0127226
0.0147782
0.0191843
0.024745
0.0352383
0.0491461
0.0696865
0.0990444
0.133528
0.0878536
0.116866
6.14055
7.37732
40.8225
104.124
84.6622
76.0499
66.5029
46.172
10.7125
5.3758
0.0109628
0.00373603
0.0178828
0.00622213
0.0100138
0.0101234
0.00929964
0.0096963
0.0112416
0.0143183
0.0181484
0.0252015
0.0345151
0.0471848
0.061564
0.0809394
0.1061
0.0868602
4.74492
7.01524
0.492706
0.763771
2.23568
3.10003
4.45789
5.27879
6.5173
7.43919
8.61379
9.44031
10.3361
10.9428
11.308
11.3001
10.9465
10.1491
8.86849
7.18258
5.29695
3.30367
1.72235
0.760462
0.606852
1.1153
2.68681
3.92733
3.74958
2.34861
1.27963
10.5174
9.23943
9.26518
9.17967
9.53105
10.077
10.3881
10.5672
10.597
10.7123
10.7531
10.3206
9.69251
8.89898
7.97155
6.87328
5.62202
4.35668
3.21281
2.30617
1.79351
1.7603
1.89027
2.65045
3.74114
5.87369
2.07353
0.289465
1.92839
1.61428
1.53487
1.43424
1.41292
1.38956
1.33879
1.30357
1.33163
2.23611
8.25061
7.60466
6.82084
6.23089
5.57173
4.90456
4.20104
3.43396
2.57366
1.7711
1.15211
0.943806
0.878184
1.31882
2.50719
4.95953
1.95792
0.265344
0.346113
0.277797
0.247405
0.205964
0.181212
0.154584
0.135066
0.123118
0.13607
0.321186
1.52623
5.57737
5.18335
4.78398
4.2963
3.83988
3.25511
2.48037
1.59688
0.979769
0.553149
0.387485
0.483098
0.912987
2.03045
4.7824
2.55818
0.688051
12.7909
0.126666
0.0780872
0.0629812
0.0460884
0.0342482
0.0306514
0.0301035
0.0329132
0.101289
0.778524
4.06941
3.35236
2.40351
1.48616
0.847361
0.439849
0.272792
0.214763
0.201251
0.206996
0.189015
0.121484
0.454982
1.54424
4.32452
2.66018
1.1477
21.212
9.7936
0.0784841
0.0517208
0.0415051
0.0322117
0.0214904
0.0209507
0.0214965
0.0453559
0.418125
2.41615
1.2429
0.396875
0.123958
0.0726842
0.0927117
0.130638
0.138883
0.137802
0.16189
0.22499
0.245574
0.253478
1.42725
4.22043
2.90964
1.58681
21.7474
16.8637
9.42444
7.95579
6.8152
5.069
0.029048
0.0284117
0.0233289
0.0256403
0.164371
1.18113
0.301366
0.0342378
0.00671143
0.00646608
0.0388007
0.12384
0.148315
0.136192
0.147299
0.211307
0.31768
0.158453
1.2102
3.9908
3.01988
2.5191
21.5048
17.8295
14.7531
11.8871
9.62247
7.8277
4.9162
4.43334
3.32393
0.0227016
0.0584773
0.642716
0.121178
0.00986803
0.0105324
0.00740721
0.0393243
0.0778697
0.159791
0.137512
0.14037
0.175376
0.295122
0.312423
1.02033
3.87182
2.99608
2.79739
21.1378
17.6346
14.8014
11.6543
9.25412
7.58262
6.59221
6.08002
4.62468
0.0342403
0.020535
0.466861
0.0685798
0.0161176
0.0173757
0.034183
0.0277521
0.0572963
0.137041
0.138129
0.138558
0.156417
0.242951
0.41015
0.786586
3.68912
3.11027
3.61561
20.917
17.3771
14.4668
11.2864
8.85771
7.25751
6.46635
6.33166
3.93599
0.0315915
0.0088988
0.169752
0.0716407
0.0575446
0.0394928
0.0740824
0.0693106
0.017549
0.115033
0.141325
0.135803
0.148116
0.19824
0.407459
0.749747
3.62166
2.94297
3.6729
20.7587
17.2297
14.2235
11.0494
8.65984
7.26333
6.64556
6.52096
2.72697
0.0313393
0.0114662
0.113035
0.100332
0.0695364
0.0514602
0.0517853
0.0672721
0.0506521
0.113124
0.147915
0.133872
0.144562
0.175928
0.328804
0.539023
3.63772
2.87085
4.20346
20.6872
17.2023
14.1254
10.8952
8.56733
7.24846
7.0585
6.32123
2.5168
1.18066
0.683752
0.0771086
0.117511
0.0754768
0.0701153
0.0727773
0.0726825
0.0806871
0.143223
0.149667
0.1294
0.139378
0.161207
0.254498
0.115482
3.53191
2.8537
4.43763
20.6305
17.2249
14.0597
10.8057
8.52344
7.33027
7.45086
6.19306
2.07869
1.1703
0.635047
0.0608352
0.108531
0.0797391
0.0906319
0.0899963
0.0992493
0.139038
0.172592
0.139656
0.126454
0.136284
0.154074
0.234933
0.181125
3.39294
2.81984
4.46728
20.5347
17.2636
14.0168
10.7353
8.49964
7.4457
7.98339
6.16239
1.6811
0.930733
0.54714
0.071574
0.0686501
0.056196
0.0942701
0.111416
0.123352
0.156819
0.143233
0.119026
0.118853
0.12837
0.145725
0.222374
0.283537
3.25238
2.84382
4.88202
20.3961
17.2073
13.9268
10.6614
8.47343
7.58096
8.40465
5.91244
1.37967
0.600368
0.307558
0.0582529
0.0242696
0.0455801
0.070182
0.0997141
0.0996184
0.089415
0.0859362
0.102638
0.109825
0.120573
0.140405
0.205608
0.379511
3.04034
2.87601
4.90407
20.3568
17.0757
13.8533
10.6118
8.47739
7.85272
8.90482
5.31929
0.822831
0.25448
0.175455
0.0582083
0.0205669
0.0529687
0.0471548
0.0438885
0.0519778
0.0449951
0.066402
0.0899881
0.0967823
0.108418
0.129484
0.184066
0.420015
2.92914
2.91874
5.28541
20.5734
16.9223
13.7456
10.5375
8.49017
8.13464
9.08993
4.38306
0.388124
0.0959591
0.0788494
0.0560832
0.0306054
0.0405044
0.0299656
0.0345492
0.0468199
0.0409598
0.0613579
0.0771874
0.0851005
0.097526
0.118675
0.156399
0.414898
2.83442
2.89104
5.30213
21.1986
16.8542
13.7221
10.5189
8.61874
8.77488
9.09384
2.39352
0.0838983
0.0465114
0.0175777
0.0427752
0.028543
0.0347571
0.0340272
0.0366788
0.0483423
0.0524979
0.0601093
0.0663184
0.0730369
0.0854241
0.106421
0.128923
0.334926
2.877
2.92376
5.64703
21.8265
16.8878
13.7552
10.5343
8.94436
9.22991
8.04864
0.69517
0.0422867
0.0406037
0.024489
0.0405004
0.0280018
0.0439685
0.0371428
0.0395417
0.0593661
0.0744002
0.0706354
0.059299
0.0649114
0.0767213
0.0968902
0.109718
0.249307
2.9849
2.77863
5.70431
22.2353
17.0786
13.8662
10.6577
9.53906
10.2446
6.47382
0.183789
0.0343404
0.0369269
0.0273634
0.0386331
0.0304805
0.0408544
0.0350604
0.0419276
0.0565032
0.0809658
0.0790522
0.0516346
0.0540265
0.0675639
0.0874253
0.0958359
0.167951
3.08764
2.81306
6.0819
22.6555
17.4205
14.1247
11.3116
11.1445
11.1639
3.64318
0.079528
0.0400172
0.0323929
0.0288616
0.02652
0.0243042
0.0249704
0.0252825
0.0282426
0.0266848
0.0299228
0.0363023
0.0328928
0.0423241
0.0601489
0.080433
0.0839148
0.121741
3.05955
2.6597
6.10077
23.6187
18.0343
14.7132
12.4673
12.698
10.5053
0.494416
0.0153193
0.0106344
0.00944037
0.00957231
0.00725842
0.00783548
0.00645466
0.00699928
0.00789977
0.00617899
0.00720102
0.0186901
0.0254681
0.038604
0.0565347
0.0758353
0.0642714
0.0945688
2.97393
2.60688
6.47483
24.5265
18.4706
15.3708
13.7231
13.7612
9.20914
0.0919961
0.00280121
0.0115987
0.0103729
0.00948799
0.00906481
0.00807207
0.0076773
0.00796963
0.00880291
0.0111764
0.0141822
0.0199043
0.0243879
0.0350546
0.0527837
0.072213
0.0342444
0.0789123
2.85554
2.61045
6.47749
25.5127
19.1761
16.3712
14.877
14.3989
8.05132
0.0441625
0.00214614
0.0027198
0.00224401
0.00262717
0.00306286
0.00246206
0.00210672
0.00242157
0.00308955
0.00555754
0.00825135
0.0150363
0.0216463
0.0333339
0.0505625
0.0691754
0.0207265
0.0721966
2.69136
2.49855
6.92168
25.8236
19.521
17.1414
15.7725
14.5769
6.67236
0.0348184
0.00252563
0.00324876
0.00307028
0.00434619
0.00546782
0.00501594
0.00465683
0.00499643
0.00568112
0.00766657
0.00994219
0.0148709
0.0209223
0.0310582
0.0472804
0.0653105
0.0198289
0.0662342
2.47606
2.52184
6.88912
26.438
20.3653
18.1565
16.5234
14.3915
5.1685
0.027911
0.00240081
0.00402383
0.00179633
0.00212484
0.00405305
0.00391164
0.00360544
0.00394544
0.00471945
0.00655353
0.00871566
0.013071
0.0190094
0.0282431
0.0417538
0.0573695
0.018989
0.0580402
2.14717
2.40509
7.46045
26.5916
20.8068
18.6394
16.9853
13.8473
4.02549
0.023466
0.00255201
0.00865662
0.00204904
0.00188815
0.0042306
0.00425213
0.00395482
0.00415973
0.0048543
0.00625049
0.00804296
0.0113528
0.0157665
0.0221718
0.0313224
0.0419795
0.020435
0.0473749
1.72163
2.37978
7.60698
27.4365
22.0415
19.5754
17.2345
12.2096
0.632232
0.00320457
0.00299228
0.00160502
0.00645068
0.00299525
0.00249038
0.00249173
0.00232581
0.00240752
0.00274239
0.00335944
0.0041022
0.00535631
0.00687118
0.00859657
0.00988639
0.0111601
0.027305
0.0232471
1.36732
2.36444
0.168253
0.122201
0.467767
0.701105
1.05843
1.28732
1.61934
1.87683
2.19801
2.41946
2.64356
2.76745
2.82166
2.75836
2.58955
2.28251
1.86507
1.3903
0.935002
0.528422
0.269905
0.145649
0.125201
0.190589
0.469427
0.87165
0.85453
0.234077
0.466803
2.31582
2.17864
2.24677
2.30427
2.4439
2.63774
2.76206
2.86258
2.93292
3.04335
3.13368
3.03919
2.86782
2.63395
2.3361
1.98967
1.60449
1.22296
0.890731
0.641077
0.524568
0.512726
0.553745
0.765923
1.08977
1.64639
0.35038
0.294905
0.569384
0.503172
0.484735
0.467636
0.466953
0.460099
0.444879
0.439604
0.482983
0.891987
2.60215
2.40312
2.1625
1.98425
1.77817
1.56506
1.33471
1.08618
0.821788
0.587017
0.427497
0.373149
0.346538
0.455802
0.798583
1.53678
0.45202
0.214338
0.144002
0.118215
0.117831
0.101952
0.091913
0.0793521
0.0720079
0.0700982
0.0865329
0.176655
0.652463
1.81124
1.71179
1.59776
1.45051
1.30455
1.10143
0.811248
0.511231
0.323986
0.214892
0.178106
0.19985
0.312478
0.63965
1.47245
0.638863
0.175072
1.8109
0.0785291
0.0629062
0.0562137
0.0472331
0.0373149
0.0331765
0.0322524
0.0401363
0.0821748
0.347065
1.344
1.13831
0.84798
0.555968
0.324147
0.166261
0.110031
0.0943157
0.0914258
0.0981687
0.102744
0.0896354
0.179425
0.492612
1.33121
0.631452
0.343958
5.5027
1.35493
0.0615924
0.048475
0.03827
0.0289085
0.0239557
0.0233235
0.0266907
0.0470012
0.187564
0.818556
0.433956
0.153256
0.0562751
0.0352298
0.0433532
0.0607755
0.0676659
0.0698711
0.0798427
0.105466
0.122721
0.129605
0.458459
1.29453
0.77357
0.662925
6.25427
4.37521
1.50596
1.31193
1.16272
0.730135
0.0284195
0.0263581
0.0262507
0.0295408
0.0821915
0.409773
0.109302
0.0163885
0.00472608
0.00502558
0.0200283
0.052459
0.0664111
0.0673519
0.0732627
0.0971369
0.133017
0.103307
0.406934
1.2314
0.773344
0.830994
6.27206
5.2026
4.05739
3.31243
2.72165
2.13299
0.894714
0.777109
0.498137
0.0241812
0.0334954
0.224195
0.0469865
0.00589045
0.00523631
0.00467152
0.0158238
0.0320778
0.063929
0.0649314
0.0683478
0.0811535
0.123573
0.152086
0.356041
1.1946
0.777739
1.05247
6.17423
5.21443
4.37442
3.46393
2.77278
2.28144
1.90033
1.72632
1.28918
0.0252527
0.0167733
0.167085
0.0304571
0.0100842
0.00814824
0.0145179
0.0178575
0.0212044
0.055942
0.0639549
0.0661916
0.0742811
0.104334
0.173228
0.284557
1.13791
0.751704
1.11403
6.09304
5.15042
4.29967
3.37474
2.66991
2.1959
1.95721
1.90673
1.21536
0.0292691
0.00961709
0.0711573
0.0294318
0.0266893
0.015893
0.0225971
0.0404602
0.0123196
0.0527136
0.0648508
0.0636662
0.0698482
0.0892459
0.16438
0.281612
1.11144
0.775759
1.27793
6.04325
5.1146
4.22255
3.29044
2.59518
2.18407
2.01277
2.01512
0.821398
0.0359425
0.0131333
0.0495046
0.0391664
0.0367089
0.0232048
0.0214385
0.0350323
0.0234957
0.0546191
0.0663843
0.0615924
0.0671585
0.0809512
0.130478
0.219445
1.1203
0.730371
1.29204
6.01682
5.10469
4.18482
3.23815
2.56138
2.18069
2.12762
1.95331
0.834987
0.277858
0.178568
0.0427248
0.0424039
0.0389342
0.029072
0.0291488
0.0376048
0.033996
0.0665507
0.0661426
0.0585394
0.0633193
0.0748523
0.10644
0.0848887
1.09701
0.702737
1.43811
5.99074
5.09541
4.15824
3.20988
2.54775
2.20031
2.23832
1.9025
0.686634
0.373381
0.212588
0.0373104
0.0469966
0.0406881
0.0420718
0.0421432
0.047703
0.0585232
0.0753375
0.0606714
0.0555623
0.0602334
0.0706924
0.100429
0.103104
1.05386
0.697733
1.4962
5.96655
5.07564
4.13777
3.18837
2.54182
2.23615
2.40058
1.89314
0.577523
0.308748
0.191055
0.0407027
0.0308624
0.0327879
0.0363883
0.0416801
0.0537937
0.0616322
0.0624898
0.0503589
0.0499947
0.0547785
0.0653183
0.0932756
0.136532
1.02316
0.729539
1.50795
5.97449
5.03699
4.1059
3.16702
2.53605
2.27905
2.54012
1.8437
0.449367
0.2026
0.116127
0.0362794
0.0191859
0.0285663
0.0348449
0.0435604
0.0474839
0.0452856
0.0407306
0.0412034
0.0441719
0.0500183
0.0615461
0.0850261
0.161677
0.9717
0.778632
1.63204
6.04981
4.99796
4.08102
3.15126
2.53795
2.35798
2.70482
1.68892
0.278772
0.0945314
0.0634175
0.0353315
0.0114833
0.02952
0.0231057
0.022757
0.0326438
0.0294239
0.0323904
0.0346583
0.037509
0.0439328
0.0556768
0.0749253
0.171042
0.926843
0.826932
1.61628
6.15249
4.97367
4.05241
3.12825
2.54523
2.44661
2.79058
1.42353
0.13216
0.0436437
0.0279822
0.0329783
0.0181048
0.0260346
0.0196287
0.0230632
0.032294
0.0291981
0.0303981
0.0293346
0.0325878
0.0394375
0.0509994
0.0649322
0.166736
0.866957
0.819087
1.72157
6.24572
4.97066
4.04255
3.11957
2.58037
2.64356
2.80834
0.826661
0.0442023
0.0283736
0.0150867
0.0291755
0.0207857
0.0243292
0.0243559
0.0263132
0.0350149
0.0370162
0.0312174
0.0255125
0.0279209
0.0348573
0.0461526
0.0552227
0.137049
0.848602
0.836262
1.70225
6.32164
4.98943
4.05172
3.12794
2.67401
2.75263
2.50606
0.278527
0.0271022
0.0285044
0.0149016
0.0295419
0.0188835
0.032018
0.0254337
0.0271128
0.0429464
0.0549539
0.0365712
0.0233162
0.0247849
0.0318638
0.0427957
0.0489946
0.104821
0.871031
0.775584
1.81473
6.42925
5.04063
4.07524
3.1464
2.81532
2.98841
1.96031
0.0818292
0.0251456
0.0279201
0.0202773
0.0289515
0.0222261
0.0303639
0.0251965
0.0302049
0.0415135
0.0635694
0.0362389
0.0184852
0.0200363
0.0286387
0.03946
0.0429905
0.074467
0.920633
0.771242
1.80511
6.59081
5.11139
4.11944
3.29636
3.21062
3.21387
1.23122
0.0407798
0.0283304
0.0252366
0.023977
0.0217459
0.0212286
0.0201183
0.0205023
0.0201658
0.0162282
0.0146828
0.0123692
0.0122136
0.0172097
0.0268966
0.0375099
0.0367797
0.0572711
0.938306
0.720507
1.90407
6.82861
5.23519
4.25478
3.60625
3.63848
2.98804
0.202335
0.00695715
0.00513373
0.00464241
0.00467738
0.00374232
0.00391196
0.00320431
0.0033934
0.00358059
0.00335847
0.00408894
0.00790036
0.0107369
0.0169084
0.0261365
0.0361087
0.0261812
0.0462038
0.926551
0.746543
1.92972
6.97983
5.31593
4.43105
3.96217
3.96554
2.60254
0.0458119
0.00185278
0.00368622
0.00331102
0.00308277
0.0029529
0.00261919
0.00246245
0.0026398
0.00297913
0.00393245
0.00505265
0.00760516
0.0102785
0.0156987
0.0246866
0.0346127
0.016755
0.0405026
0.894724
0.696261
2.01116
7.16908
5.49186
4.71903
4.30802
4.19775
2.34836
0.0230857
0.00165606
0.00145912
0.00128779
0.00141681
0.00159296
0.00138147
0.0012447
0.00140086
0.00172623
0.00273873
0.00388379
0.00654234
0.00968001
0.0152536
0.0237441
0.0329049
0.0138735
0.0367275
0.843968
0.705984
2.06169
7.24362
5.62671
4.95334
4.58285
4.28924
2.02825
0.0177574
0.00173889
0.00190268
0.00150669
0.00178495
0.00212409
0.00199156
0.00185969
0.00201778
0.0023505
0.00320008
0.00420252
0.00635322
0.00921828
0.0139188
0.0215975
0.0300949
0.0136826
0.0332647
0.780835
0.666626
2.15764
7.46343
5.92391
5.26286
4.83575
4.29352
1.62941
0.0138061
0.00188792
0.00250221
0.00128532
0.00127598
0.00171825
0.00169797
0.00158653
0.00171504
0.00206052
0.00279992
0.00372758
0.0055083
0.00802379
0.0120023
0.0178534
0.0241689
0.0125632
0.0279406
0.677716
0.662244
2.17797
7.63764
6.08749
5.41908
5.0008
4.18887
1.31324
0.011895
0.00194142
0.0041564
0.00154397
0.00130425
0.00162049
0.00163204
0.00153696
0.00161066
0.00188701
0.00238597
0.00303986
0.00420191
0.00574198
0.00791307
0.0109266
0.0133826
0.0118158
0.0198124
0.551478
0.645645
2.30623
7.94763
6.43673
5.71414
5.0988
3.66562
0.250872
0.00307589
0.00146864
0.000822315
0.00284809
0.00158895
0.000799016
0.000785392
0.000757755
0.000782532
0.000868686
0.00100165
0.00115382
0.0013667
0.00160235
0.00185476
0.00196423
0.00209631
0.00806483
0.00476817
0.454987
0.648308
0.0754022
0.0423721
0.123303
0.181161
0.273223
0.337089
0.427927
0.501351
0.589462
0.647929
0.695201
0.712514
0.709419
0.663437
0.591922
0.48584
0.372683
0.267208
0.184425
0.119319
0.081375
0.0623839
0.0579852
0.067048
0.105611
0.190451
0.190195
0.0890787
0.198788
0.543534
0.563305
0.611203
0.659551
0.719936
0.79482
0.841861
0.88423
0.921105
0.976224
1.01112
0.978548
0.920619
0.843183
0.742228
0.624329
0.498639
0.38286
0.290352
0.22877
0.204049
0.19993
0.208138
0.261217
0.356582
0.51388
0.159218
0.152576
0.21609
0.197416
0.193025
0.189001
0.189338
0.186353
0.182625
0.187493
0.227228
0.431703
0.921672
0.860161
0.780044
0.721359
0.647828
0.571766
0.490939
0.406777
0.320601
0.247712
0.205081
0.188956
0.171762
0.192955
0.291739
0.536348
0.153201
0.0993806
0.0743407
0.0625782
0.0597138
0.0510675
0.0462051
0.040932
0.0389083
0.0418901
0.0582165
0.116953
0.337769
0.673207
0.646825
0.60835
0.562441
0.512019
0.428076
0.305513
0.196175
0.138153
0.11128
0.105594
0.110746
0.139015
0.23539
0.516919
0.240651
0.06259
0.283095
0.044187
0.0381856
0.0330501
0.0281945
0.0229909
0.0212949
0.0225721
0.0309979
0.0616793
0.195296
0.508976
0.443641
0.343983
0.234777
0.134725
0.0722738
0.0556261
0.0526139
0.0529682
0.0585027
0.0675012
0.0710493
0.0988637
0.185993
0.465167
0.259166
0.13515
1.47415
0.20941
0.0360041
0.029913
0.0242614
0.0189741
0.0171689
0.0174574
0.0216733
0.0377459
0.109928
0.312531
0.169217
0.0641176
0.0271288
0.0191886
0.0233453
0.0333424
0.0393839
0.0421387
0.047266
0.0601877
0.075964
0.0857276
0.176284
0.449465
0.271753
0.248107
2.01744
1.1726
0.258972
0.228637
0.206248
0.111088
0.0190536
0.0190228
0.0212118
0.0255093
0.0513149
0.159024
0.0430696
0.00833787
0.00381646
0.00424001
0.0118654
0.0265801
0.0361401
0.0391092
0.0427336
0.0532175
0.0720046
0.0765855
0.167204
0.431952
0.275135
0.267896
2.08524
1.71286
1.20238
1.00113
0.83802
0.607866
0.169324
0.143279
0.0875267
0.0198156
0.0223826
0.0886404
0.0207285
0.00417238
0.00347236
0.00349232
0.00906393
0.0168082
0.0330102
0.0361635
0.0388077
0.0447667
0.0643808
0.0904305
0.15453
0.420987
0.271735
0.388785
2.05305
1.77183
1.46855
1.17166
0.949705
0.778288
0.602424
0.532611
0.393092
0.0198759
0.0134037
0.0700521
0.0158213
0.00738837
0.00519612
0.00822122
0.0151682
0.0122002
0.031346
0.0351919
0.0367837
0.0413039
0.0552099
0.0925049
0.132228
0.402119
0.278425
0.398462
2.01875
1.75157
1.45962
1.15392
0.925569
0.761032
0.675981
0.650706
0.433954
0.0327941
0.00809024
0.0378804
0.0150877
0.0164818
0.00920577
0.0104279
0.0336185
0.0101107
0.0325733
0.0353034
0.0344861
0.0379928
0.0481247
0.0823961
0.13756
0.391436
0.251349
0.470464
1.99712
1.73478
1.43254
1.12431
0.89673
0.754704
0.70106
0.719471
0.310756
0.0315793
0.0117596
0.0357121
0.0223236
0.0306432
0.0157931
0.0140775
0.0305832
0.0156498
0.0355983
0.0356109
0.0325578
0.0357912
0.0437247
0.0649252
0.117597
0.39907
0.240531
0.476768
1.98549
1.72235
1.41335
1.10338
0.881878
0.753881
0.736139
0.69448
0.427828
0.101542
0.0777773
0.0348998
0.0248585
0.0319795
0.0194727
0.0191758
0.0318398
0.0228535
0.0411149
0.0348964
0.0300962
0.0326535
0.0399288
0.0547146
0.0643375
0.397125
0.232536
0.524509
1.97816
1.70872
1.40033
1.09321
0.876817
0.759739
0.769445
0.672894
0.28179
0.150907
0.0933213
0.0339561
0.033969
0.0333025
0.0326223
0.032719
0.0380576
0.0413427
0.044031
0.0311541
0.027378
0.0300573
0.0370908
0.0511237
0.0678148
0.383903
0.227618
0.540259
1.97946
1.69258
1.39052
1.0861
0.875333
0.772528
0.823968
0.668648
0.299642
0.131215
0.0982249
0.037446
0.0207674
0.0296201
0.0234913
0.0255419
0.0409671
0.0421755
0.0376732
0.0249458
0.0233241
0.0263392
0.0335563
0.0458839
0.0782884
0.378338
0.245788
0.549577
2.00216
1.67706
1.37916
1.07986
0.874583
0.789846
0.876319
0.658454
0.186109
0.0903987
0.0591225
0.0359374
0.02017
0.0279214
0.029752
0.0336523
0.040211
0.0398686
0.0274382
0.0192365
0.0197013
0.0235414
0.0311321
0.0415387
0.0833773
0.366107
0.263996
0.574086
2.04491
1.66793
1.3714
1.07484
0.875661
0.816515
0.93648
0.616131
0.141583
0.0519546
0.0321438
0.0354444
0.00978032
0.0288454
0.0190324
0.0189337
0.0333921
0.0281599
0.0218166
0.0158244
0.0162614
0.0204586
0.0279959
0.0363132
0.0842118
0.344205
0.27378
0.575394
2.07207
1.66725
1.36416
1.06748
0.879862
0.848298
0.980524
0.536332
0.0710506
0.0330405
0.0159114
0.0328412
0.0163921
0.0277616
0.0185351
0.0226724
0.034034
0.0286524
0.0202878
0.0133871
0.0141915
0.0186341
0.0260305
0.0325484
0.0787874
0.310538
0.266262
0.595116
2.07343
1.66994
1.35958
1.06409
0.891694
0.916701
0.990519
0.334844
0.0345847
0.0279537
0.0161107
0.0306954
0.0227399
0.0235761
0.026213
0.0284947
0.0348234
0.0367351
0.0205822
0.0117634
0.0122091
0.0168543
0.0240187
0.0284977
0.0648664
0.291724
0.27047
0.590817
2.08047
1.67726
1.36307
1.06852
0.923146
0.939272
0.883079
0.128794
0.0241577
0.0301101
0.0131696
0.0315233
0.017763
0.0343967
0.0248077
0.0263045
0.0462959
0.0558152
0.0237735
0.0108816
0.0109116
0.0158327
0.0228398
0.0260899
0.0509315
0.297477
0.240812
0.622415
2.11746
1.68792
1.36847
1.06712
0.95284
0.984142
0.657089
0.0440785
0.0244009
0.0298078
0.0193118
0.0308713
0.0213266
0.0325631
0.0248846
0.031326
0.0479641
0.0753283
0.0221612
0.00802757
0.00924493
0.014958
0.0217031
0.0227201
0.0388008
0.323146
0.245529
0.617828
2.16616
1.69714
1.37174
1.10102
1.04694
1.03009
0.442075
0.0242415
0.0232828
0.0213889
0.0213426
0.0190009
0.0193604
0.0173729
0.0178344
0.0163587
0.0125941
0.0111141
0.00616543
0.00579693
0.00870184
0.014711
0.0212157
0.0190356
0.0316206
0.340825
0.214962
0.646758
2.21539
1.71711
1.40087
1.1829
1.16606
0.948764
0.101251
0.00398125
0.00288864
0.0025901
0.00261174
0.00216566
0.00224234
0.00183939
0.00194554
0.00198444
0.00199174
0.00248406
0.00394923
0.00544378
0.00897503
0.014564
0.0206032
0.0136237
0.0265126
0.34141
0.200218
0.646901
2.23457
1.73369
1.4518
1.29214
1.27275
0.805221
0.0301405
0.00152222
0.00154743
0.00133187
0.00125896
0.00119536
0.00109133
0.00100799
0.00111811
0.00129739
0.00176
0.00230735
0.00359613
0.00527143
0.0084898
0.0137968
0.0196426
0.0105952
0.0238844
0.331422
0.192088
0.676124
2.27304
1.7886
1.54408
1.40852
1.36757
0.749253
0.0168765
0.0014435
0.00110041
0.000894434
0.000892277
0.000931649
0.000856496
0.000797701
0.000889687
0.00108431
0.00158075
0.00216781
0.00343842
0.00520029
0.00827861
0.0130396
0.0180686
0.00956859
0.0212645
0.312036
0.160367
0.678293
2.30775
1.84702
1.62495
1.50273
1.41523
0.684614
0.0124388
0.00145509
0.00135717
0.000952192
0.000955568
0.00101031
0.000970068
0.000917486
0.00100142
0.00119274
0.00161606
0.00213299
0.00320447
0.00472815
0.00719676
0.0112315
0.0154006
0.00918987
0.0186578
0.290607
0.156762
0.713974
2.40522
1.95822
1.73251
1.60002
1.44715
0.580403
0.00939693
0.00149732
0.00180317
0.00101738
0.000896851
0.000875448
0.000874896
0.000831473
0.000893876
0.00108499
0.00142995
0.00188648
0.00269512
0.00385116
0.00569084
0.00830203
0.0104621
0.00776211
0.0143482
0.253403
0.135881
0.722723
2.48866
2.01901
1.79003
1.66805
1.43156
0.484957
0.00766253
0.00132148
0.00237593
0.00119017
0.00094956
0.000750281
0.000745003
0.000716685
0.00075055
0.000875927
0.00107334
0.0013297
0.00175437
0.00228859
0.00298775
0.00392061
0.00412343
0.00618151
0.00814212
0.211997
0.124394
0.750973
2.58194
2.12401
1.89549
1.71172
1.25698
0.128902
0.0021716
0.000795925
0.000490043
0.00144363
0.000923781
0.000376052
0.000365365
0.000363299
0.000375891
0.000407799
0.00044612
0.00048814
0.000531258
0.000577928
0.00066267
0.000722878
0.000752145
0.00234129
0.00185002
0.184907
0.120151
0.0559336
0.0288442
0.0592274
0.0771228
0.10582
0.125701
0.153367
0.174965
0.199288
0.213735
0.221356
0.221427
0.214648
0.194966
0.172046
0.141893
0.115342
0.0917628
0.0741609
0.0594411
0.0506339
0.0456606
0.0435118
0.0440878
0.0485736
0.0617803
0.059198
0.046432
0.0874079
0.151809
0.16727
0.19222
0.21683
0.241561
0.270186
0.287236
0.305118
0.322744
0.346998
0.359136
0.346162
0.32274
0.29431
0.258963
0.221287
0.185162
0.1544
0.131084
0.116856
0.111707
0.109389
0.106239
0.113717
0.135329
0.178692
0.0783849
0.0757779
0.0923234
0.0849776
0.0840614
0.0830096
0.0831504
0.082122
0.0819856
0.0899446
0.119583
0.220995
0.362936
0.342393
0.313589
0.293891
0.267437
0.241324
0.214174