/*--------------------------------*- C++ -*----------------------------------*\
| =========                 |                                                 |
| \\      /  F ield         | OpenFOAM: The Open Source CFD Toolbox           |
|  \\    /   O peration     | Version:  2.3.0                                 |
|   \\  /    A nd           | Web:      www.OpenFOAM.org                      |
|    \\/     M anipulation  |                                                 |
\*---------------------------------------------------------------------------*/
FoamFile
{
    version     2.0;
    format      ascii;
    class       volScalarField;
    location    "4.80023";
    object      km;
}
// * * * * * * * * * * * * * * * * * * * * * * * * * * * * * * * * * * * * * //

dimensions      [0 2 -2 0 0 0 0];

internalField   nonuniform List<scalar> 
18816
(
0.00579783
0.0127766
0.0225975
0.0273416
0.0342716
0.0381397
0.0437292
0.0476778
0.0525466
0.0558485
0.0593141
0.061708
0.0632769
0.0633522
0.0622137
0.0594844
0.0548576
0.0482872
0.0401556
0.030215
0.0204662
0.0120389
0.0103571
0.0153706
0.0256454
0.0314137
0.0306491
0.0100453
1e-15
0.0618049
0.0554586
0.0553583
0.0547015
0.055982
0.0580517
0.0592417
0.0597802
0.0596562
0.059811
0.0595859
0.057416
0.0546323
0.0511995
0.0472196
0.0425491
0.03712
0.0313436
0.0257256
0.0207247
0.0173635
0.0172511
0.0180487
0.0227146
0.0287533
0.0397596
1e-15
1e-15
1e-15
1e-15
1e-15
1e-15
1e-15
1e-15
1e-15
1e-15
1e-15
1e-15
0.048279
0.0454926
0.0419061
0.039054
0.0359702
0.0328786
0.0296203
0.0259288
0.0213725
0.0166304
0.0122002
0.0105243
0.00999182
0.0134994
0.0212222
0.0341979
1e-15
1e-15
1e-15
1e-15
1e-15
1e-15
1e-15
1e-15
1e-15
1e-15
1e-15
1e-15
1e-15
0.0361357
0.034088
0.0319209
0.0293548
0.0269827
0.0240528
0.0201659
0.0151306
0.0108774
0.00724806
0.00555978
0.0066745
0.0106498
0.0183511
0.0332821
1e-15
1e-15
0.0766428
1e-15
1e-15
1e-15
1e-15
1e-15
1e-15
1e-15
1e-15
1e-15
1e-15
0.0287799
0.0249976
0.0195439
0.0137337
0.00915029
0.00584143
0.00425016
0.00355873
0.00341014
0.00348281
0.00316007
0.00230724
0.00649557
0.0152684
0.031051
1e-15
1e-15
0.0954841
0.0643098
1e-15
1e-15
1e-15
1e-15
1e-15
1e-15
1e-15
1e-15
1e-15
0.0199654
0.0126014
0.00547498
0.00233716
0.00164784
0.00196399
0.00248141
0.00256681
0.00253817
0.00288642
0.00368346
0.00387137
0.00412717
0.0144598
0.0305133
1e-15
1e-15
0.0957592
0.0820229
0.0607928
0.0538787
0.0483651
0.0413828
1e-15
1e-15
1e-15
1e-15
1e-15
0.0122501
0.0047431
0.000980978
0.000331521
0.000330914
0.00108878
0.00247419
0.00274385
0.00250704
0.00266627
0.00349478
0.00480922
0.00279487
0.0128403
0.0293365
1e-15
1e-15
0.0949567
0.083782
0.0741805
0.063854
0.0553438
0.0485472
0.0384122
0.0358451
0.0303556
1e-15
1e-15
0.00810506
0.00255417
0.000423782
0.000469298
0.000345181
0.00121084
0.00184439
0.00301319
0.00255253
0.00257429
0.00307009
0.00455054
0.00463525
0.0113943
0.028741
1e-15
1e-15
0.093973
0.0831278
0.0736941
0.062539
0.0535567
0.0467864
0.0427359
0.0404172
0.0333586
1e-15
1e-15
0.00648696
0.00168344
0.000588803
0.000673771
0.00107973
0.000880613
0.00162762
0.00278298
0.00259291
0.00255722
0.00280504
0.00393275
0.00572099
0.00952875
0.0278595
1e-15
1e-15
0.0934404
0.0823142
0.0726092
0.0613082
0.0521077
0.0455375
0.0419232
0.0410164
0.0292208
1e-15
1e-15
0.00318
0.00181256
0.00153798
0.00123094
0.00198877
0.00161693
0.000641623
0.00240258
0.00264012
0.00252896
0.00269258
0.00337188
0.00569867
0.00917166
0.0275855
1e-15
1e-15
0.0930552
0.0818072
0.0718932
0.0605506
0.0514366
0.0456287
0.0426682
0.0412452
0.0232448
1e-15
1e-15
0.0025139
0.00233518
0.00173357
0.00144485
0.00147682
0.00169116
0.00140641
0.00234878
0.00273192
0.00251377
0.00265139
0.00307349
0.00495284
0.00714208
0.0276216
1e-15
1e-15
0.0929321
0.0817711
0.0716241
0.0600293
0.051094
0.0455771
0.0443893
0.0404753
0.0216977
0.0138953
0.00935627
0.00185233
0.00266592
0.00184245
0.001828
0.00188154
0.00179485
0.00199338
0.0027288
0.0027568
0.00246162
0.00259565
0.00287011
0.00408736
0.00222931
0.026944
1e-15
1e-15
0.0928486
0.081988
0.0714457
0.0597093
0.0509182
0.045939
0.0460029
0.0398229
0.0188418
0.012882
0.00835643
0.00151043
0.002442
0.0019253
0.00213895
0.00211702
0.00225031
0.00287659
0.00307163
0.00262454
0.00243454
0.00256827
0.00277902
0.0038378
0.00307224
0.0261617
1e-15
1e-15
0.0925437
0.0823072
0.0713389
0.0594541
0.0508158
0.046405
0.0480694
0.0395029
0.016316
0.0109132
0.00752537
0.00173094
0.00176249
0.00148232
0.00227624
0.00254478
0.0026598
0.00313045
0.00271065
0.00236049
0.00235609
0.00248638
0.00268612
0.00370309
0.0043322
0.0252424
1e-15
1e-15
0.0917908
0.0822283
0.0710627
0.0591822
0.0507006
0.0469294
0.0495726
0.0380143
0.0142653
0.00811091
0.00499783
0.00148649
0.000823961
0.00124589
0.00175183
0.00226992
0.00225388
0.00207065
0.00190314
0.00216513
0.00226168
0.00239973
0.00263136
0.0035219
0.0054149
0.0240071
1e-15
1e-15
0.0910331
0.0817658
0.0708185
0.0590044
0.0507083
0.0480262
0.051333
0.0350662
0.0100051
0.00447101
0.00341318
0.00149541
0.000727075
0.00142669
0.00134405
0.00125653
0.00138
0.00122632
0.00159561
0.00201491
0.00210237
0.00225052
0.00250565
0.00327574
0.00584578
0.023487
1e-15
1e-15
0.0916126
0.0811023
0.0704227
0.0587357
0.0507243
0.0490653
0.0516934
0.0303295
0.00599989
0.00221899
0.002033
0.0014728
0.000981492
0.00115278
0.000947729
0.00103763
0.0012484
0.00114535
0.00151833
0.00183079
0.00193854
0.00210312
0.00236907
0.0029188
0.00574732
0.0232982
1e-15
1e-15
0.0942
0.0807932
0.0703289
0.0586792
0.0512268
0.0514885
0.0514171
0.0196053
0.00185982
0.00127792
0.000682661
0.00119169
0.000900557
0.00102784
0.00100938
0.00106315
0.00127263
0.00134692
0.00148275
0.00165504
0.00175431
0.001926
0.00220265
0.00253325
0.00488669
0.0238128
1e-15
1e-15
0.096726
0.0808763
0.0704556
0.058704
0.0524534
0.0533592
0.0469871
0.00809978
0.00116764
0.00115013
0.00082866
0.00114039
0.000889339
0.00120149
0.00106873
0.00110959
0.0014627
0.00166134
0.00160931
0.00152574
0.0016231
0.0017882
0.00206372
0.00223825
0.00387094
0.0245153
1e-15
1e-15
0.0977274
0.0815026
0.0708869
0.0592648
0.0549523
0.0574791
0.0404242
0.00313706
0.00102813
0.00108244
0.000901388
0.00111597
0.000962104
0.00115517
0.00104316
0.00116461
0.00141167
0.00177161
0.00175815
0.00141348
0.00145614
0.00164267
0.00192113
0.00203039
0.0028486
0.0249662
1e-15
1e-15
0.098531
0.0827237
0.0719058
0.0618577
0.0613026
0.0605805
0.0264806
0.00170442
0.00112213
0.00102109
0.00098119
0.000959176
0.000945932
0.000924962
0.0009184
0.000929417
0.000849795
0.000978438
0.00118633
0.00105704
0.00121961
0.00150472
0.00180473
0.00185463
0.00224978
0.0246638
1e-15
1e-15
0.101635
0.0849394
0.0740342
0.0660707
0.0668691
0.0578492
1e-15
0.000570562
0.000472267
0.000434232
0.000444721
0.000363312
0.000390972
0.000340747
0.000362932
0.000398635
0.000316485
0.000341337
0.000691795
0.000858988
0.00112446
0.00143058
0.00172447
0.00156806
0.00188932
0.0241054
1e-15
1e-15
0.10489
0.0865705
0.0762943
0.0704658
0.0703849
0.0525999
1e-15
1e-15
0.000551656
0.000509479
0.000476029
0.00045984
0.000426613
0.000413337
0.000421217
0.000448759
0.00052258
0.000611358
0.000748787
0.000836463
0.00105015
0.00136183
0.00166234
0.00093757
0.00165908
0.0234126
1e-15
1e-15
0.107928
0.0888361
0.0795688
0.0743225
0.0722444
0.047427
1e-15
1e-15
0.000193349
0.000164037
0.000181755
0.000199699
0.000169637
0.000151331
0.000166673
0.00019807
0.000301473
0.000396435
0.000601853
0.000762054
0.00100773
0.00131766
0.00161022
1e-15
0.00154957
0.0224153
1e-15
1e-15
0.108867
0.0896413
0.0820158
0.077219
0.072524
0.0412304
1e-15
1e-15
0.000204161
0.000208867
0.000274099
0.000318071
0.000298353
0.000283858
0.000296507
0.000321027
0.00038948
0.000460719
0.0005987
0.000744227
0.000961448
0.00126083
0.00155033
1e-15
0.0014598
0.0210563
1e-15
1e-15
0.110278
0.0918914
0.0851805
0.0794924
0.0714158
0.0342782
1e-15
1e-15
0.000236328
0.00013689
0.000155884
0.00025364
0.000245764
0.000232332
0.000247382
0.000278584
0.000348079
0.000419902
0.000548783
0.0007005
0.000905669
0.00116497
0.00142883
1e-15
0.00133912
0.0190202
1e-15
1e-15
0.109673
0.093122
0.0866386
0.080817
0.0691436
0.0285884
1e-15
1e-15
0.000415713
0.000149198
0.000137707
0.000266609
0.00026676
0.000253966
0.000262683
0.000290193
0.000343355
0.000405314
0.000509053
0.000631076
0.000788428
0.000982945
0.00119073
1e-15
0.00118204
0.0162266
1e-15
1e-15
0.11174
0.0969263
0.0894404
0.081477
0.063391
1e-15
1e-15
0.00015074
0.000129425
0.000348702
0.00019764
0.000200392
0.000201184
0.000191096
0.000195822
0.00021442
0.0002482
0.000286511
0.000348761
0.000420261
0.000503462
0.000580738
0.00068156
0.000884887
0.000809736
0.0137376
1e-15
0.00227598
0.00300943
0.00855407
0.0108564
0.0140093
0.0157793
0.0182125
0.0199157
0.021922
0.0232111
0.0245163
0.0252261
0.0255129
0.0252105
0.0243426
0.0227475
0.0203695
0.0172789
0.0137083
0.00963614
0.00597328
0.00344591
0.00299961
0.00441936
0.00864687
0.0120219
0.0119606
1e-15
1e-15
0.023787
0.0222638
0.0224611
0.022504
0.0231407
0.0240005
0.0243828
0.0245369
0.0244865
0.0246004
0.0247294
0.0239874
0.0229111
0.0215717
0.0199781
0.0180073
0.0156504
0.0131045
0.0106189
0.00840853
0.00717088
0.00705463
0.00747777
0.00948883
0.0120712
0.0162568
1e-15
0.000660913
0.00443261
0.00392631
0.00377075
0.0035474
0.00344488
0.00329899
0.00311624
0.00300013
0.00305034
0.00521594
0.0210901
0.0197564
0.018368
0.0172791
0.0160045
0.0146522
0.0131558
0.0114573
0.0094543
0.00744097
0.00582647
0.00526802
0.00504823
0.00624823
0.00942042
0.0148457
1e-15
0.000544892
0.000793385
0.00066786
0.000599271
0.000500933
0.000404765
0.000346808
0.000309504
0.000284828
0.000252541
0.000516996
0.00397807
0.0162647
0.0155547
0.0147838
0.0137422
0.0127012
0.011285
0.00927728
0.00681159
0.00493537
0.00352735
0.00302621
0.00336254
0.00481008
0.00811527
0.0143877
1e-15
1e-15
0.0221617
0.000304953
0.000192089
0.00016212
0.00011761
8.95516e-05
7.79901e-05
7.75202e-05
7.4234e-05
0.000102001
0.00198408
0.0133598
0.0118235
0.00953346
0.00699374
0.00481855
0.00304128
0.00221266
0.00193647
0.00188156
0.00194498
0.00195111
0.00180755
0.00313189
0.00678933
0.0134683
1e-15
1e-15
0.0387067
0.0183969
0.00019232
6.50009e-05
2.07286e-05
1.20737e-05
1.4419e-05
1.62483e-05
1.4168e-05
2.31508e-05
0.00102446
0.00955299
0.0061779
0.00286906
0.00138568
0.00102348
0.00116824
0.00144952
0.00152776
0.00154165
0.0017049
0.00206586
0.00225704
0.00240717
0.00645754
0.0132489
1e-15
1e-15
0.0407459
0.033128
0.0184938
0.0164959
0.0148287
0.0114749
7.10662e-05
2.36522e-05
2.98504e-05
2.10617e-05
0.00054909
0.00599201
0.00239013
0.000605809
0.000261363
0.000277964
0.000697682
0.00135085
0.0015465
0.00151252
0.00160618
0.00198793
0.00246894
0.00198419
0.00590528
0.0128075
1e-15
1e-15
0.0406851
0.0356741
0.0306399
0.0264848
0.0229048
0.0195726
0.0119569
0.0110692
0.00872642
7.11504e-05
0.000208029
0.00397296
0.00133735
0.000284282
0.000266895
0.000245219
0.000609895
0.000994367
0.00156317
0.00150077
0.00153933
0.00175554
0.00237784
0.0026708
0.00534255
0.0125639
1e-15
1e-15
0.0402817
0.0356069
0.0315964
0.0268626
0.0229001
0.0199147
0.017773
0.0167733
0.0137552
5.34162e-05
3.61221e-05
0.00320439
0.000946522
0.000407674
0.00037148
0.00057682
0.000607667
0.00076513
0.00142757
0.00149694
0.00151168
0.00164301
0.00211597
0.00301276
0.00453041
0.0121772
1e-15
1e-15
0.0399926
0.0353401
0.0312378
0.0263948
0.022316
0.0194179
0.0179385
0.0176244
0.012909
5.00214e-05
3.17202e-05
0.00167462
0.000948501
0.000839481
0.000621275
0.000860056
0.00100511
0.000504686
0.00133197
0.00151396
0.00148056
0.00158123
0.00188926
0.00294312
0.00443536
0.0120051
1e-15
1e-15
0.0397969
0.0352569
0.0309291
0.0259992
0.0219427
0.0194005
0.018287
0.0181088
0.0099708
0.000127531
7.88408e-05
0.00126892
0.00116002
0.0010166
0.00077254
0.000747237
0.000965543
0.000770244
0.00134449
0.00153979
0.00145523
0.0015439
0.0017572
0.00250943
0.00365365
0.0120357
1e-15
1e-15
0.039686
0.0353063
0.0307985
0.0257444
0.0217653
0.0193898
0.0190426
0.0178483
0.00968079
0.00475378
0.00351669
0.00117098
0.00124415
0.00106422
0.000918188
0.00092544
0.00102677
0.00100835
0.00152518
0.00153708
0.00141311
0.00149376
0.00166778
0.00215677
0.00182484
0.0118069
1e-15
1e-15
0.0395604
0.0353545
0.0306971
0.0255974
0.0216851
0.0195186
0.0197639
0.0175653
0.00859916
0.00574695
0.00384667
0.00102742
0.0012522
0.00109919
0.00113377
0.00113476
0.00122453
0.0014492
0.00167162
0.00145458
0.00137567
0.00145515
0.00160885
0.00208115
0.00204398
0.0114899
1e-15
1e-15
0.0393763
0.0353106
0.0306117
0.0254828
0.0216437
0.0197346
0.0207277
0.0174766
0.00749192
0.00501572
0.00353817
0.00107408
0.000974441
0.000951147
0.00109665
0.00121417
0.00135678
0.00151593
0.00146687
0.00129544
0.00130024
0.0013801
0.00153314
0.00200032
0.00255314
0.0112229
1e-15
1e-15
0.039264
0.0351084
0.030455
0.0253651
0.021604
0.019986
0.0215089
0.0170666
0.00646573
0.00373996
0.00248206
0.000977908
0.000687359
0.000834893
0.000973958
0.00116428
0.00119935
0.00113625
0.00108529
0.00115803
0.00121599
0.00130874
0.00148086
0.00188395
0.00294363
0.0108213
1e-15
1e-15
0.0395413
0.0348595
0.0303204
0.0252804
0.021613
0.0204691
0.0224142
0.0159437
0.00455913
0.00217874
0.00167046
0.000946684
0.000450666
0.000833202
0.000727837
0.000714232
0.000887935
0.000819448
0.00093642
0.00105171
0.00110507
0.00120853
0.00139019
0.00173242
0.00308487
0.0105663
1e-15
1e-15
0.0402853
0.0346938
0.030164
0.0251553
0.0216446
0.0209927
0.0228256
0.0139614
0.0027007
0.00119334
0.000950928
0.000904762
0.000606734
0.000755522
0.000636858
0.000690599
0.000876662
0.000826347
0.000902801
0.000943298
0.00100956
0.00112354
0.00130825
0.00155508
0.00302652
0.0102813
1e-15
1e-15
0.0410373
0.0346887
0.0301264
0.0251049
0.0218466
0.0221166
0.0228355
0.00943142
0.00113723
0.000822941
0.000605754
0.000839003
0.000665262
0.000735546
0.000734224
0.00077038
0.000921492
0.00100136
0.000916942
0.000858858
0.000911433
0.00103156
0.00121937
0.00137733
0.00260979
0.0102707
1e-15
1e-15
0.0413424
0.0347924
0.0301707
0.025129
0.0223884
0.0228843
0.0211158
0.00433378
0.000803478
0.000831859
0.0005429
0.000859837
0.00062256
0.000895684
0.000739725
0.000765992
0.00106051
0.00119009
0.000997514
0.00080219
0.000841287
0.000965434
0.00115195
0.00125291
0.00211082
0.010464
1e-15
1e-15
0.0416223
0.0350735
0.0302971
0.0252603
0.0233115
0.0243502
0.0180025
0.00180828
0.000788366
0.00085901
0.000716885
0.000879307
0.000755633
0.000898797
0.00077638
0.000826547
0.00101386
0.00122818
0.000989096
0.00070436
0.000733148
0.00089129
0.00108342
0.0011407
0.00160072
0.0107032
1e-15
1e-15
0.0423357
0.0354879
0.0305641
0.0261255
0.0256355
0.0256271
0.0129655
0.00108439
0.000908987
0.000901632
0.000899529
0.000885569
0.000894194
0.000853505
0.000843702
0.00080121
0.00064768
0.000544155
0.000525058
0.000521865
0.000639849
0.000840956
0.00103677
0.0010221
0.0013176
0.0106822
1e-15
1e-15
0.0436557
0.0361709
0.0312889
0.0277905
0.0279044
0.0243017
0.00169974
0.000316367
0.000283692
0.000266525
0.000271797
0.00023053
0.000242778
0.000208913
0.000217372
0.00022427
0.000205531
0.00022918
0.000378279
0.000466259
0.000622181
0.000818393
0.00100323
0.000801906
0.00113996
0.010517
1e-15
1e-15
0.0444154
0.0365339
0.0321247
0.029561
0.0294466
0.0221569
0.000312774
4.9079e-05
0.000252745
0.000236318
0.000222299
0.000215366
0.000198548
0.000191763
0.000198158
0.000212904
0.000251559
0.000295022
0.000380291
0.000451955
0.000587443
0.000783738
0.000970263
0.000466385
0.001032
0.0102382
1e-15
1e-15
0.0452269
0.0372462
0.0334476
0.0311809
0.0304121
0.0204108
0.000144329
3.60722e-05
0.00010176
0.000106596
0.00011567
0.000125684
0.000112897
0.000104941
0.000113468
0.000130809
0.000181128
0.00023045
0.000331901
0.000426212
0.000572585
0.000761505
0.000937397
0.000317125
0.000953534
0.00983087
1e-15
1e-15
0.0454142
0.0377052
0.0344685
0.0324169
0.0306874
0.0182027
0.000116421
3.97931e-05
0.000131162
0.000119101
0.000141479
0.000162377
0.000154473
0.000147354
0.000154926
0.000170277
0.000208472
0.00024872
0.000326307
0.000413888
0.000540541
0.000716467
0.000885846
0.000291894
0.000887372
0.00929925
1e-15
1e-15
0.0460351
0.0389235
0.0358073
0.0334695
0.0305365
0.0154722
9.4951e-05
3.98365e-05
0.00015756
0.000105502
0.000104998
0.000138149
0.000136483
0.000130058
0.000137199
0.000154329
0.000189832
0.000229197
0.000297375
0.000380771
0.000494477
0.000637714
0.000779955
0.000257741
0.000792028
0.00842922
1e-15
1e-15
0.0465159
0.0396437
0.0364435
0.0341361
0.0299065
0.0132893
8.02014e-05
4.42835e-05
0.000236951
0.000117833
0.000104484
0.000136097
0.000137054
0.000131199
0.000135347
0.000149803
0.000175516
0.000206223
0.000256348
0.000315614
0.000390429
0.000483041
0.000572758
0.000254312
0.000647789
0.00726902
1e-15
1e-15
0.0479764
0.0411968
0.037664
0.0345165
0.0272873
0.00201317
2.29943e-06
8.93086e-05
8.64999e-05
0.000191128
0.000129228
8.71303e-05
8.65126e-05
8.36988e-05
8.52957e-05
9.15813e-05
0.000101751
0.000112929
0.000129095
0.000145768
0.000160275
0.000160812
0.000158709
0.000365688
0.000303982
0.00631716
1e-15
0.00157897
0.00112668
0.00320413
0.00416157
0.00550126
0.00630186
0.00736333
0.0081371
0.00902639
0.00958518
0.0100743
0.0102542
0.0102674
0.00993641
0.00933291
0.00834566
0.00706819
0.00562184
0.00420365
0.00287279
0.00198975
0.00156744
0.00148505
0.00167345
0.00269837
0.00437296
0.00445728
0.000840199
0.00152189
0.00868498
0.00858681
0.00888421
0.00916219
0.00958647
0.010114
0.010411
0.0106447
0.0108151
0.0111053
0.0113718
0.0111133
0.0106483
0.0100355
0.00925206
0.00826747
0.00710725
0.00589293
0.00476541
0.00385399
0.00344947
0.00339206
0.00357145
0.0043972
0.00557303
0.0072467
0.000812309
0.00108169
0.00288536
0.00268997
0.00262354
0.00256016
0.00253716
0.00246343
0.00237514
0.00235216
0.00259
0.00431254
0.0102712
0.00969541
0.00906179
0.0085645
0.00794759
0.00727672
0.00652312
0.00567784
0.0047518
0.00389595
0.00334095
0.00316198
0.0030157
0.0033674
0.00468138
0.00713406
1e-15
1e-15
0.00106096
0.000931918
0.000931065
0.000821972
0.000741325
0.00065975
0.000626133
0.000637188
0.000780295
0.00129822
0.00355844
0.00814068
0.007888
0.00754244
0.00706268
0.00655438
0.00579822
0.004653
0.00339691
0.00257351
0.00213899
0.00206854
0.00217491
0.0026219
0.00401468
0.00691207
1e-15
1e-15
0.00544905
0.00075618
0.000703447
0.000642696
0.000569363
0.000489075
0.000461292
0.000464432
0.000533259
0.000791793
0.00221776
0.00676518
0.00612103
0.00507926
0.00386158
0.00267646
0.00169187
0.00134187
0.00126831
0.00126945
0.00135576
0.00148123
0.00160038
0.00197205
0.00339243
0.00646898
1e-15
1e-15
0.0157785
0.00440942
0.000646519
0.000546104
0.000454256
0.000417966
0.000411883
0.000408821
0.000427875
0.00054702
0.00142574
0.00491116
0.00324374
0.00158142
0.000852646
0.000676971
0.000761106
0.000958973
0.00105712
0.00109664
0.00119658
0.00140011
0.00160878
0.00181258
0.0032497
0.00634761
1e-15
1e-15
0.0183504
0.0134791
0.0050205
0.00460755
0.00427655
0.00287967
0.000437589
0.000425847
0.000436967
0.000443097
0.000841457
0.00313305
0.00126752
0.000386734
0.000231736
0.000250858
0.000479178
0.000836993
0.00101519
0.00105384
0.00112725
0.00131647
0.00158677
0.00166591
0.00308521
0.00616824
1e-15
1e-15
0.0186409
0.0162623
0.0131982
0.0115498
0.0101261
0.00834129
0.00369359
0.00330365
0.00227521
0.0004278
0.000458531
0.00209227
0.000757
0.000219502
0.000193544
0.000203403
0.000390954
0.000618073
0.000973335
0.00101395
0.00106032
0.00117795
0.00149647
0.00184933
0.0028908
0.00605568
1e-15
1e-15
0.018503
0.0165257
0.0146074
0.012485
0.0107264
0.00935025
0.00800873
0.00746254
0.00601281
0.000368814
0.00028558
0.00172448
0.000585621
0.000324629
0.000255248
0.00036905
0.000555591
0.00049831
0.000944531
0.000999204
0.00102744
0.00111911
0.0013594
0.00190637
0.00255677
0.00587543
1e-15
1e-15
0.0183487
0.0164586
0.0145554
0.01236
0.0105301
0.0091964
0.00848287
0.00829293
0.00615351
0.000389414
0.000208652
0.00102694
0.000574291
0.000586435
0.000394674
0.000444918
0.000824546
0.000451757
0.000962198
0.000999861
0.000989045
0.00106522
0.00124278
0.00178587
0.00257659
0.00577612
1e-15
1e-15
0.018254
0.0164435
0.0144222
0.0121553
0.0103226
0.0091557
0.0086733
0.00870243
0.00479993
0.000554104
0.000294001
0.000918871
0.000717522
0.000825626
0.000548044
0.000498866
0.000791376
0.000552605
0.000999411
0.00100432
0.000957277
0.00102743
0.00116917
0.00152175
0.00227438
0.00581151
1e-15
1e-15
0.0181947
0.0164469
0.0143353
0.0120181
0.0102199
0.0091539
0.00899926
0.00858897
0.0051263
0.0019435
0.00155441
0.000958788
0.000733612
0.000852516
0.000607993
0.000594226
0.000835114
0.000672759
0.00106577
0.000990292
0.000914401
0.000974828
0.00110824
0.00136454
0.00158503
0.00573793
1e-15
1e-15
0.0181279
0.0164159
0.014265
0.011944
0.0101803
0.00920075
0.00931297
0.00842828
0.0044266
0.00288734
0.0020234
0.000910199
0.000885059
0.000882473
0.00085024
0.000851781
0.00094259
0.000997711
0.00111366
0.000926303
0.000869353
0.000930127
0.00106079
0.0013182
0.00157596
0.0055866
1e-15
1e-15
0.0180896
0.0163175
0.0142022
0.0118882
0.0101646
0.00930365
0.00976931
0.0083893
0.00407359
0.00260928
0.00194519
0.000925064
0.000668922
0.000828966
0.000692582
0.000732752
0.00097924
0.000967913
0.00100313
0.000816973
0.000796624
0.000860968
0.000996928
0.00124051
0.00174968
0.00550561
1e-15
1e-15
0.0181791
0.0161841
0.0141164
0.0118353
0.010153
0.00942915
0.0101748
0.00826182
0.00330826
0.00199508
0.00145636
0.000896251
0.000677111
0.00077019
0.000774009
0.000838712
0.000942317
0.000928295
0.00084281
0.00070795
0.00072434
0.000802923
0.000950106
0.00115884
0.00185124
0.00537033
1e-15
1e-15
0.0185005
0.0160868
0.0140499
0.0117934
0.0101595
0.00964648
0.0106413
0.00782813
0.00244687
0.00129121
0.000937952
0.00086397
0.000375855
0.00073031
0.000556788
0.000554763
0.000826113
0.000740238
0.000729985
0.000630563
0.000644683
0.000733224
0.000884991
0.00105836
0.00187194
0.00520143
1e-15
1e-15
0.0188478
0.0160701
0.0139893
0.0117336
0.0101837
0.00990043
0.0109214
0.00696706
0.00148938
0.000875145
0.000558719
0.000823231
0.000526327
0.000709814
0.000579707
0.000645443
0.000849242
0.000782784
0.000698329
0.000558326
0.000586721
0.000684586
0.000837644
0.000970518
0.00178783
0.00492404
1e-15
1e-15
0.0189327
0.0160992
0.0139628
0.0117019
0.0102706
0.0104448
0.0109884
0.00492959
0.00087884
0.000756675
0.000607737
0.00081299
0.00065345
0.000690693
0.000715899
0.000756858
0.000885347
0.000953708
0.000695114
0.000509495
0.000529882
0.000636013
0.000789523
0.000881929
0.00153954
0.00478189
1e-15
1e-15
0.0188915
0.0161687
0.0139814
0.0117237
0.0105113
0.0107304
0.0102161
0.00248254
0.000692532
0.00081464
0.000471165
0.000853067
0.000570335
0.000892006
0.000691985
0.000715795
0.00106618
0.00115244
0.000732846
0.000476341
0.000487865
0.000604352
0.000757811
0.000824401
0.00126223
0.0048471
1e-15
1e-15
0.0190317
0.0162737
0.0140174
0.0117375
0.0108404
0.0112407
0.0085142
0.00114705
0.000751313
0.00086048
0.000690175
0.000880851
0.000732673
0.000902277
0.000752783
0.000812612
0.00104994
0.00129363
0.000674692
0.000392446
0.000426676
0.000573128
0.000725672
0.000750582
0.00100492
0.00504937
1e-15
1e-15
0.0194117
0.0163751
0.0140604
0.0120275
0.0117108
0.0116956
0.00656821
0.000785697
0.000864433
0.000878336
0.000889923
0.000872032
0.000889398
0.000839101
0.000828531
0.000768376
0.000600811
0.000490331
0.000316063
0.000310718
0.000400278
0.000560324
0.000709523
0.000664142
0.000875444
0.0051563
1e-15
1e-15
0.0198494
0.0165345
0.0142909
0.0127028
0.0126752
0.0109876
0.00159625
0.000204639
0.000190925
0.000181893
0.000185078
0.00016338
0.000169145
0.00014679
0.000150919
0.00015087
0.00014963
0.000170512
0.0002376
0.000295085
0.000406705
0.000554863
0.000692901
0.000514233
0.000784752
0.00513517
1e-15
1e-15
0.0199649
0.0166082
0.0146373
0.0134923
0.0134251
0.00990334
0.000479775
8.42475e-05
0.000131312
0.000121892
0.000116368
0.000112638
0.000105415
0.000100603
0.000106499
0.000116802
0.000142248
0.000168945
0.000226157
0.000286812
0.000388951
0.000533292
0.00066992
0.00038023
0.000722399
0.00502233
1e-15
1e-15
0.0201434
0.0168872
0.015238
0.0142671
0.0139918
0.00933569
0.000259178
8.70866e-05
8.99932e-05
8.52384e-05
8.63046e-05
8.94378e-05
8.40212e-05
8.02452e-05
8.60377e-05
9.80828e-05
0.000126607
0.000156893
0.000214482
0.000281318
0.000382325
0.000515177
0.000637659
0.000331513
0.000658096
0.0048207
1e-15
1e-15
0.0202498
0.0171982
0.0157356
0.014875
0.0142255
0.00861228
0.00020176
8.65599e-05
0.000109442
9.01232e-05
9.25553e-05
9.77801e-05
9.45648e-05
9.08956e-05
9.6017e-05
0.000107153
0.000131077
0.000157448
0.000206538
0.000266563
0.000352003
0.000471434
0.000582421
0.000317879
0.000600404
0.00457678
1e-15
1e-15
0.0207057
0.0178798
0.0163885
0.0154474
0.0143075
0.00754517
0.000162013
8.85821e-05
0.000129942
9.49844e-05
8.80796e-05
8.79728e-05
8.78457e-05
8.46809e-05
8.89731e-05
0.000100635
0.000121273
0.00014587
0.000185948
0.000236794
0.000308032
0.000398146
0.000474128
0.000279387
0.000508814
0.00415018
1e-15
1e-15
0.0211917
0.0182735
0.0167214
0.0158324
0.0141492
0.006641
0.000149491
8.61365e-05
0.000163362
0.000102506
9.19639e-05
8.13845e-05
8.14248e-05
7.89664e-05
8.13898e-05
9.00374e-05
0.000103606
0.000120215
0.000146378
0.000177586
0.000217271
0.000269472
0.000291132
0.000247692
0.000357174
0.00363028
1e-15
1e-15
0.021898
0.0189267
0.0173354
0.0160759
0.0128727
0.00176995
8.42202e-05
8.00154e-05
6.83625e-05
0.000121543
9.27802e-05
5.47763e-05
5.41102e-05
5.36665e-05
5.48081e-05
5.79924e-05
6.22299e-05
6.71633e-05
7.4153e-05
8.31469e-05
9.32323e-05
9.00795e-05
8.67878e-05
0.00017191
9.7098e-05
0.00327813
1e-15
0.00158221
0.00101791
0.0017234
0.00203241
0.00253896
0.00286549
0.00330324
0.00362945
0.0039911
0.00420431
0.00432626
0.00433531
0.00425255
0.00398636
0.00363208
0.0031369
0.00264157
0.00218891
0.00184567
0.00157175
0.00141773
0.00133849
0.00130527
0.00129443
0.00138329
0.0017399
0.00175345
0.000961276
0.00162683
0.00341329
0.00359162
0.00386918
0.00414512
0.00442837
0.00475034
0.00493296
0.00509994
0.00525111
0.00548125
0.00564134
0.0055122
0.00526537
0.00494604
0.00452488
0.00402271
0.00347239
0.00295246
0.00253045
0.00225874
0.0021708
0.00214856
0.00216815
0.00237683
0.00282821
0.00350421
0.000956024
0.0012744
0.00179437
0.00170336
0.00168064
0.00165926
0.00165055
0.00160711
0.00157879
0.00163085
0.00193654
0.00314998
0.00545741
0.00519749
0.00487822
0.00463387
0.00431274
0.0039703
0.00360292
0.00320759
0.0027978
0.00247273
0.00232731
0.00229159
0.00216338
0.0021514
0.00258386
0.00375181
0.000740656
0.000687459
0.000874047
0.000773293
0.00074137
0.000652559
0.000597467
0.000559309
0.000554164
0.000618709
0.00080001
0.00128241
0.00273625
0.00451047
0.00441953
0.00423636
0.00401037
0.0037468
0.0032875
0.00258325
0.00195647
0.00166107
0.00158175
0.00167926
0.001754
0.00179834
0.00224614
0.00365985
1e-15
0.000650028
0.00159424
0.000669909
0.000632485
0.000564287
0.000509463
0.000459653
0.000447185
0.00047907
0.000575686
0.000861023
0.00188101
0.00378018
0.00348972
0.00296886
0.00230388
0.00156102
0.00106339
0.000959083
0.000967341
0.000993895
0.00107854
0.00123394
0.00145778
0.00159558
0.00195956
0.00342052
1e-15
0.000565226
0.00643187
0.00129081
0.00059363
0.000528401
0.00046951
0.000436537
0.000430385
0.000435333
0.000475306
0.000625206
0.00126632
0.00274347
0.00182982
0.000928533
0.000563941
0.000489743
0.000552559
0.000716974
0.000821835
0.000861263
0.00093245
0.00107094
0.00130363
0.00159414
0.00191547
0.00334503
1e-15
1e-15
0.00889996
0.00549145
0.00154642
0.00143412
0.00134455
0.000849512
0.000450136
0.000459939
0.000490771
0.00051766
0.000770474
0.00176842
0.000715591
0.000277484
0.000226999
0.000244736
0.000376997
0.000606898
0.000773682
0.000806435
0.000865777
0.000978304
0.00120014
0.00149036
0.00192251
0.00328297
1e-15
1e-15
0.00936034
0.00801907
0.00590772
0.00527
0.00471376
0.00364032
0.00124338
0.001101
0.000793057
0.000473284
0.000447768
0.00120374
0.000470985
0.000189574
0.000170601
0.00018972
0.000328407
0.000488113
0.000761049
0.000759921
0.000797368
0.000878949
0.00109225
0.00147103
0.00189959
0.00324264
1e-15
1e-15
0.00932332
0.00846456
0.00736935
0.00634908
0.00552322
0.00480221
0.00383892
0.00348762
0.00277748
0.000418716
0.000324409
0.00103509
0.000403042
0.000285794
0.000215473
0.00029749
0.000563703
0.000448076
0.00080477
0.000744883
0.000760589
0.000835269
0.00100005
0.00141204
0.00180382
0.00316436
1e-15
1e-15
0.00924095
0.00845899
0.00746042
0.00636948
0.00549449
0.00481053
0.00440388
0.00425363
0.00326733
0.000540405
0.000231338
0.00073931
0.000408467
0.000488579
0.000319686
0.000322461
0.00082493
0.000444665
0.000875309
0.000741655
0.000716888
0.000777922
0.000914091
0.00126785
0.00186532
0.00311634
1e-15
1e-15
0.00918072
0.00843935
0.00740455
0.00628412
0.00539092
0.00478983
0.00454623
0.00462746
0.00280276
0.00064835
0.000331869
0.000893178
0.00058747
0.00085269
0.000500178
0.000451023
0.000844474
0.000498366
0.000928803
0.000740587
0.000681253
0.000739418
0.000859685
0.00109227
0.00176881
0.00317145
1e-15
1e-15
0.00914702
0.00839751
0.00733615
0.0061999
0.00532311
0.00479064
0.00469509
0.00456514
0.00374155
0.00116309
0.00104903
0.000955343
0.000598151
0.000874356
0.000534416
0.00051842
0.000872848
0.000593114
0.000947998
0.000725617
0.000635983
0.000684313
0.000804562
0.000984007
0.00143104
0.00317294
1e-15
1e-15
0.00913267
0.0083366
0.00728235
0.0061592
0.00530108
0.00481211
0.00483426
0.00446958
0.00273598
0.00177621
0.0013376
0.000965258
0.0008551
0.00090444
0.00085407
0.000854392
0.000958732
0.000957109
0.000949962
0.000670769
0.000587668
0.000639921
0.000761544
0.000936136
0.00134942
0.00311021
1e-15
1e-15
0.00916007
0.00825838
0.00723891
0.00613141
0.00529622
0.00486586
0.00506054
0.00444233
0.00299996
0.00167786
0.00142074
0.00099731
0.000584209
0.000877826
0.000600357
0.000615004
0.000981603
0.000871683
0.000904293
0.000592494
0.000521893
0.000580409
0.000707391
0.000860945
0.00136412
0.00309124
1e-15
1e-15
0.00928225
0.00819504
0.00719536
0.00610912
0.00529642
0.00494063
0.00528686
0.00440518
0.00209156
0.00135983
0.00108737
0.000999347
0.000745295
0.000851097
0.000816504
0.000849261
0.000999451
0.00099912
0.000834751
0.000499833
0.000464836
0.000537661