/*--------------------------------*- C++ -*----------------------------------*\
| =========                 |                                                 |
| \\      /  F ield         | OpenFOAM: The Open Source CFD Toolbox           |
|  \\    /   O peration     | Version:  2.3.0                                 |
|   \\  /    A nd           | Web:      www.OpenFOAM.org                      |
|    \\/     M anipulation  |                                                 |
\*---------------------------------------------------------------------------*/
FoamFile
{
    version     2.0;
    format      ascii;
    class       volScalarField;
    location    "4.80023";
    object      nut.water;
}
// * * * * * * * * * * * * * * * * * * * * * * * * * * * * * * * * * * * * * //

dimensions      [0 2 -1 0 0 0 0];

internalField   nonuniform List<scalar> 
18816
(
2.52046e-06
2.59552e-06
4.67967e-06
5.2878e-06
6.00776e-06
6.37642e-06
6.84013e-06
7.14366e-06
7.47348e-06
7.66189e-06
7.83831e-06
7.91552e-06
7.89991e-06
7.80968e-06
7.62519e-06
7.33133e-06
6.91257e-06
6.36001e-06
5.67543e-06
4.80192e-06
3.80941e-06
2.83326e-06
2.61649e-06
3.22447e-06
4.52631e-06
5.30761e-06
5.4108e-06
2.74648e-06
7.40013e-33
7.68113e-06
7.4203e-06
7.45665e-06
7.46951e-06
7.57016e-06
7.68585e-06
7.70326e-06
7.66192e-06
7.58907e-06
7.539e-06
7.51802e-06
7.34084e-06
7.11206e-06
6.84798e-06
6.5461e-06
6.17949e-06
5.73631e-06
5.23786e-06
4.70121e-06
4.13301e-06
3.80831e-06
3.77728e-06
3.92472e-06
4.49034e-06
5.12361e-06
6.01816e-06
1.10881e-32
9.24583e-33
2.97798e-33
3.50551e-33
3.61122e-33
3.69376e-33
3.56316e-33
3.36936e-33
3.27021e-33
3.22869e-33
3.17854e-33
3.28138e-33
6.91638e-06
6.5594e-06
6.276e-06
6.04177e-06
5.7756e-06
5.49439e-06
5.18124e-06
4.81403e-06
4.36417e-06
3.88653e-06
3.48665e-06
3.3983e-06
3.34375e-06
3.59221e-06
4.44606e-06
5.72377e-06
9.90179e-33
9.14829e-33
3.34405e-33
3.77466e-33
3.71961e-33
3.72958e-33
3.6115e-33
3.39843e-33
3.29309e-33
3.44499e-33
3.43744e-33
3.94139e-33
5.44822e-33
5.92804e-06
5.76659e-06
5.59348e-06
5.35546e-06
5.1034e-06
4.76788e-06
4.28455e-06
3.63005e-06
3.06511e-06
2.58082e-06
2.50984e-06
2.59558e-06
3.09686e-06
4.09177e-06
5.56378e-06
9.35888e-33
1.40274e-32
6.97092e-06
4.09411e-33
4.09365e-33
4.16214e-33
3.77113e-33
3.69726e-33
3.67376e-33
3.49927e-33
3.61571e-33
4.60423e-33
7.35078e-33
5.36961e-06
5.02319e-06
4.46295e-06
3.78512e-06
3.13484e-06
2.42749e-06
1.9812e-06
1.83735e-06
1.80921e-06
1.84233e-06
1.93197e-06
2.36246e-06
2.46157e-06
3.7474e-06
5.38317e-06
9.12538e-33
8.11161e-33
9.66644e-06
6.34853e-06
4.29518e-33
4.20649e-33
3.86173e-33
3.76479e-33
3.49998e-33
3.75143e-33
3.75808e-33
4.96612e-33
8.87002e-33
4.54186e-06
3.6274e-06
2.44595e-06
1.76787e-06
1.51719e-06
1.52402e-06
1.6478e-06
1.66989e-06
1.68624e-06
1.77819e-06
1.9233e-06
2.1224e-06
2.26581e-06
3.65085e-06
5.32869e-06
8.9842e-33
7.69594e-33
9.96218e-06
8.93587e-06
6.30255e-06
5.90731e-06
5.55373e-06
4.8694e-06
3.91157e-33
3.89458e-33
4.29008e-33
5.18201e-33
1.83915e-32
3.60006e-06
2.25509e-06
1.24696e-06
9.19465e-07
1.13501e-06
1.33428e-06
1.57494e-06
1.67505e-06
1.66541e-06
1.71732e-06
1.92374e-06
2.08112e-06
2.24695e-06
3.52452e-06
5.24465e-06
9.04632e-33
5.64122e-33
9.96754e-06
9.30331e-06
8.55344e-06
7.89725e-06
7.30112e-06
6.7142e-06
4.90462e-06
4.70144e-06
4.14736e-06
6.24712e-33
2.31033e-32
2.89746e-06
1.68187e-06
8.0766e-07
6.89015e-07
7.5986e-07
1.04124e-06
1.40283e-06
1.64987e-06
1.64977e-06
1.6831e-06
1.7965e-06
2.04015e-06
2.36783e-06
3.36804e-06
5.19482e-06
9.11118e-33
5.51154e-33
9.91464e-06
9.2987e-06
8.72866e-06
8.01303e-06
7.36116e-06
6.82144e-06
6.38431e-06
6.17889e-06
5.50765e-06
6.2627e-33
2.89676e-32
2.57455e-06
1.44228e-06
1.0116e-06
8.33754e-07
1.06299e-06
1.09472e-06
1.15365e-06
1.58936e-06
1.64108e-06
1.65396e-06
1.72176e-06
1.93444e-06
2.41678e-06
3.09967e-06
5.11871e-06
9.06106e-33
4.61504e-33
9.88453e-06
9.26015e-06
8.68517e-06
7.93759e-06
7.25353e-06
6.72291e-06
6.44682e-06
6.33414e-06
5.41401e-06
7.09494e-33
3.40736e-32
1.84487e-06
1.39855e-06
1.26977e-06
1.09379e-06
1.27382e-06
1.39569e-06
1.28741e-06
1.56388e-06
1.6523e-06
1.6349e-06
1.69768e-06
1.83967e-06
2.36349e-06
3.06835e-06
5.07928e-06
9.36703e-33
4.32392e-33
9.86377e-06
9.26266e-06
8.65015e-06
7.88373e-06
7.19705e-06
6.72371e-06
6.48728e-06
6.39811e-06
4.69034e-06
8.53004e-33
5.2043e-32
1.52204e-06
1.51718e-06
1.40361e-06
1.20966e-06
1.18278e-06
1.32461e-06
1.20268e-06
1.59908e-06
1.65576e-06
1.61645e-06
1.66975e-06
1.77512e-06
2.12298e-06
2.79544e-06
5.07885e-06
9.40941e-33
4.25865e-33
9.85003e-06
9.29082e-06
8.63843e-06
7.84637e-06
7.16655e-06
6.72787e-06
6.62207e-06
6.37506e-06
4.64593e-06
2.91868e-06
2.58125e-06
1.64359e-06
1.55178e-06
1.43895e-06
1.32563e-06
1.32536e-06
1.38435e-06
1.37071e-06
1.7068e-06
1.64125e-06
1.59175e-06
1.6388e-06
1.74549e-06
1.92719e-06
2.94197e-06
5.02129e-06
9.69915e-33
3.78381e-33
9.82904e-06
9.31488e-06
8.62865e-06
7.82414e-06
7.15221e-06
6.74652e-06
6.75092e-06
6.29884e-06
4.37192e-06
3.53817e-06
2.85746e-06
1.47604e-06
1.54036e-06
1.45018e-06
1.45215e-06
1.46146e-06
1.51677e-06
1.64705e-06
1.7385e-06
1.58483e-06
1.56492e-06
1.61073e-06
1.70896e-06
1.93033e-06
2.25987e-06
4.94478e-06
9.71464e-33
3.75684e-33
9.78792e-06
9.30995e-06
8.61742e-06
7.80713e-06
7.14441e-06
6.7865e-06
6.913e-06
6.25351e-06
4.05654e-06
3.30245e-06
2.72981e-06
1.4163e-06
1.43697e-06
1.39138e-06
1.45029e-06
1.54024e-06
1.58746e-06
1.66873e-06
1.5858e-06
1.48693e-06
1.51321e-06
1.56112e-06
1.65761e-06
1.90354e-06
2.38397e-06
4.88212e-06
9.81557e-33
3.43116e-33
9.74079e-06
9.26895e-06
8.59417e-06
7.78928e-06
7.13742e-06
6.82982e-06
7.03953e-06
6.16553e-06
3.74321e-06
2.83349e-06
2.29747e-06
1.36021e-06
1.49872e-06
1.23589e-06
1.32258e-06
1.45368e-06
1.44343e-06
1.38221e-06
1.32265e-06
1.40331e-06
1.45503e-06
1.51228e-06
1.62086e-06
1.83848e-06
2.48331e-06
4.80696e-06
9.9576e-33
3.41117e-33
9.78511e-06
9.21408e-06
8.56971e-06
7.77582e-06
7.13835e-06
6.91231e-06
7.18309e-06
5.92353e-06
3.10464e-06
2.16938e-06
1.85668e-06
1.29183e-06
8.91587e-07
1.17758e-06
1.11627e-06
1.12367e-06
1.2404e-06
1.25169e-06
1.24258e-06
1.33886e-06
1.38126e-06
1.44634e-06
1.55986e-06
1.74737e-06
2.50723e-06
4.76176e-06
9.76456e-33
3.17366e-33
9.95842e-06
9.18295e-06
8.54363e-06
7.75543e-06
7.1436e-06
7.00196e-06
7.24254e-06
5.47909e-06
2.31754e-06
1.54856e-06
1.35341e-06
1.22882e-06
1.0325e-06
1.13906e-06
1.10844e-06
1.11122e-06
1.28974e-06
1.33253e-06
1.23016e-06
1.26528e-06
1.31654e-06
1.38965e-06
1.50497e-06
1.64038e-06
2.49562e-06
4.73267e-06
1.00873e-32
3.16954e-33
1.01254e-05
9.19118e-06
8.53676e-06
7.74368e-06
7.16939e-06
7.17941e-06
7.20254e-06
4.46341e-06
1.57353e-06
1.17856e-06
1.65798e-06
1.2408e-06
1.17929e-06
1.24304e-06
1.23473e-06
1.24165e-06
1.38384e-06
1.50635e-06
1.29498e-06
1.21273e-06
1.25232e-06
1.33046e-06
1.44913e-06
1.53611e-06
2.3246e-06
4.73928e-06
1.03651e-32
2.95724e-33
1.01132e-05
9.21302e-06
8.54193e-06
7.74441e-06
7.25319e-06
7.30999e-06
6.90769e-06
3.12572e-06
1.34046e-06
1.26712e-06
1.02711e-06
1.34123e-06
1.13992e-06
1.33825e-06
1.19656e-06
1.21998e-06
1.39277e-06
1.54266e-06
1.38777e-06
1.18515e-06
1.20244e-06
1.28803e-06
1.4076e-06
1.46933e-06
2.08002e-06
4.78383e-06
1.03419e-32
2.96448e-33
1.00773e-05
9.25278e-06
8.55504e-06
7.75476e-06
7.40056e-06
7.50614e-06
6.29384e-06
2.04021e-06
1.39648e-06
1.40317e-06
1.37137e-06
1.40681e-06
1.33371e-06
1.38753e-06
1.25301e-06
1.21056e-06
1.28503e-06
1.38391e-06
1.27848e-06
1.11715e-06
1.11476e-06
1.23338e-06
1.36499e-06
1.39867e-06
1.78167e-06
4.80553e-06
1.08469e-32
2.76843e-33
1.01758e-05
9.31403e-06
8.58064e-06
7.86335e-06
7.72871e-06
7.64505e-06
5.46998e-06
1.56561e-06
1.46132e-06
1.80525e-06
2.07435e-06
2.15625e-06
2.52868e-06
2.09613e-06
2.05514e-06
1.56059e-06
1.04222e-06
7.58498e-07
8.71811e-07
9.19719e-07
1.03206e-06
1.20125e-06
1.33945e-06
1.30533e-06
1.61173e-06
4.78671e-06
1.07425e-32
2.76767e-33
1.03954e-05
9.40972e-06
8.67587e-06
8.10124e-06
8.06035e-06
7.36691e-06
1.1006e-32
7.06196e-07
7.69297e-07
7.54493e-07
7.78041e-07
7.20603e-07
7.43447e-07
6.68499e-07
6.75548e-07
6.58803e-07
6.90612e-07
7.35913e-07
8.14867e-07
9.03909e-07
1.03598e-06
1.19453e-06
1.32208e-06
1.10319e-06
1.49912e-06
4.73979e-06
1.12102e-32
2.582e-33
1.04769e-05
9.43694e-06
8.77737e-06
8.34375e-06
8.2668e-06
7.00365e-06
1.16805e-32
6.66975e-31
6.65868e-07
6.42146e-07
6.19937e-07
6.07198e-07
5.84277e-07
5.72879e-07
5.81323e-07
6.00994e-07
6.49022e-07
7.01027e-07
8.01305e-07
8.84414e-07
1.01002e-06
1.1715e-06
1.29942e-06
6.05833e-07
1.45397e-06
4.67174e-06
1.14594e-32
2.57845e-33
1.05372e-05
9.49481e-06
8.94476e-06
8.56056e-06
8.38681e-06
6.68747e-06
1.08441e-32
1.14267e-30
3.65206e-07
4.65876e-07
4.93805e-07
5.16853e-07
5.12563e-07
5.16041e-07
5.22225e-07
5.40679e-07
5.91357e-07
6.54575e-07
7.66814e-07
8.67084e-07
1.0027e-06
1.15709e-06
1.27615e-06
2.2841e-30
1.37833e-06
4.56688e-06
1.13799e-32
2.41403e-33
1.05243e-05
9.52802e-06
9.07174e-06
8.72154e-06
8.40016e-06
6.28838e-06
1.13871e-32
7.29661e-31
4.58132e-07
4.39145e-07
4.89309e-07
5.2923e-07
5.18552e-07
5.06515e-07
5.18962e-07
5.44499e-07
6.03004e-07
6.60609e-07
7.57528e-07
8.54443e-07
9.74042e-07
1.11654e-06
1.23441e-06
1.9775e-30
1.31394e-06
4.42541e-06
1.19259e-32
2.41318e-33
1.05373e-05
9.67136e-06
9.2394e-06
8.85382e-06
8.37323e-06
5.768e-06
1.12497e-32
1.39218e-30
5.61303e-07
5.11494e-07
4.39854e-07
4.98944e-07
5.01237e-07
4.90615e-07
5.0133e-07
5.30183e-07
5.83186e-07
6.37411e-07
7.21666e-07
8.15256e-07
9.24377e-07
1.03968e-06
1.14435e-06
1.39088e-30
1.22411e-06
4.19068e-06
1.22105e-32
2.26583e-33
1.0572e-05
9.78559e-06
9.31687e-06
8.93781e-06
8.27504e-06
5.38647e-06
1.05137e-32
1.8701e-30
6.64892e-07
6.38426e-07
4.78745e-07
4.86859e-07
4.91494e-07
4.81227e-07
4.88124e-07
5.12857e-07
5.53075e-07
5.97502e-07
6.61839e-07
7.29317e-07
8.02819e-07
8.77953e-07
9.5565e-07
1.02443e-30
1.07594e-06
3.85915e-06
1.21996e-32
2.20467e-33
1.07922e-05
9.98702e-06
9.46698e-06
8.98406e-06
7.83283e-06
8.40141e-33
1.67414e-32
1.85056e-07
3.99673e-07
6.05371e-07
5.60144e-07
3.60717e-07
3.59835e-07
3.53411e-07
3.55926e-07
3.6808e-07
3.8722e-07
4.07087e-07
4.34381e-07
4.60545e-07
4.83474e-07
4.93034e-07
5.16524e-07
6.64204e-07
6.79367e-07
3.57959e-06
1.28292e-32
9.46217e-07
1.0672e-06
2.94563e-06
3.42172e-06
3.96229e-06
4.24504e-06
4.58049e-06
4.79852e-06
5.02122e-06
5.13626e-06
5.23355e-06
5.23376e-06
5.18055e-06
5.06201e-06
4.8719e-06
4.58862e-06
4.21068e-06
3.74105e-06
3.19287e-06
2.5296e-06
1.86443e-06
1.40531e-06
1.33441e-06
1.57605e-06
2.50451e-06
3.31199e-06
3.43371e-06
3.83206e-32
7.03329e-32
4.8419e-06
4.82832e-06
4.90062e-06
4.9652e-06
5.05655e-06
5.14459e-06
5.15078e-06
5.1277e-06
5.09229e-06
5.08448e-06
5.11846e-06
5.01767e-06
4.87412e-06
4.70621e-06
4.50617e-06
4.24594e-06
3.92105e-06
3.54749e-06
3.158e-06
2.75785e-06
2.58001e-06
2.54448e-06
2.66233e-06
3.05737e-06
3.5054e-06
4.04952e-06
4.34043e-32
1.35811e-07
9.16994e-07
8.59473e-07
8.3373e-07
7.89662e-07
7.55917e-07
7.04898e-07
6.52817e-07
6.21424e-07
6.28865e-07
1.095e-06
4.85191e-06
4.61934e-06
4.45174e-06
4.31254e-06
4.13748e-06
3.93956e-06
3.70784e-06
3.44042e-06
3.12568e-06
2.8131e-06
2.64933e-06
2.64029e-06
2.60056e-06
2.66044e-06
3.18564e-06
3.99946e-06
4.59671e-32
1.00706e-07
1.63679e-07
1.44506e-07
1.30642e-07
1.09651e-07
8.13694e-08
7.00254e-08
6.38302e-08
5.93047e-08
4.21837e-08
7.48963e-08
9.33187e-07
4.26877e-06
4.20104e-06
4.11175e-06
3.95602e-06
3.78109e-06
3.52114e-06
3.12297e-06
2.61498e-06
2.23748e-06
2.02441e-06
2.12709e-06
2.10641e-06
2.28077e-06
2.91915e-06
3.89565e-06
3.51812e-32
1.30804e-31
3.45581e-06
6.60763e-08
4.25274e-08
3.75584e-08
2.70108e-08
2.10742e-08
1.78596e-08
1.79662e-08
1.50688e-08
9.24467e-09
4.55083e-07
3.94742e-06
3.75303e-06
3.40327e-06
2.96208e-06
2.46607e-06
1.86466e-06
1.59806e-06
1.55463e-06
1.56645e-06
1.62376e-06
1.81128e-06
2.4205e-06
1.94026e-06
2.68646e-06
3.7751e-06
3.38323e-32
7.84178e-32
6.35671e-06
3.11021e-06
4.24139e-08
7.35217e-09
9.31713e-10
4.07294e-10
8.70699e-10
1.13412e-09
8.4041e-10
1.06351e-09
2.25904e-07
3.39936e-06
2.76368e-06
1.86667e-06
1.38017e-06
1.28372e-06
1.31114e-06
1.42975e-06
1.49603e-06
1.54221e-06
1.59521e-06
1.68704e-06
1.86697e-06
2.05739e-06
2.62953e-06
3.74323e-06
3.09317e-32
5.67175e-32
6.87075e-06
5.85708e-06
3.26618e-06
3.07831e-06
2.90383e-06
2.33785e-06
1.56478e-08
1.77211e-09
3.43756e-09
1.55707e-09
1.65084e-07
2.73583e-06
1.70606e-06
9.64712e-07
9.14674e-07
1.07312e-06
1.12854e-06
1.30823e-06
1.43506e-06
1.50508e-06
1.56959e-06
1.66361e-06
1.71594e-06
2.23618e-06
2.59339e-06
3.69924e-06
2.98025e-32
3.57271e-32
6.92753e-06
6.42404e-06
5.72708e-06
5.31079e-06
4.90692e-06
4.40458e-06
2.61727e-06
2.48737e-06
2.06188e-06
2.00697e-08
6.66042e-08
2.21031e-06
1.32833e-06
7.37071e-07
6.08692e-07
7.3063e-07
8.51318e-07
1.14279e-06
1.35835e-06
1.46415e-06
1.51851e-06
1.56339e-06
1.70248e-06
2.05485e-06
2.51769e-06
3.66922e-06
3.00393e-32
3.21728e-32
6.90871e-06
6.47059e-06
6.07034e-06
5.57254e-06
5.10012e-06
4.70728e-06
4.31252e-06
4.1646e-06
3.68211e-06
7.49983e-09
5.71864e-09
1.97946e-06
1.17573e-06
9.28047e-07
7.14776e-07
8.76019e-07
1.1975e-06
9.19575e-07
1.33107e-06
1.44396e-06
1.48429e-06
1.54673e-06
1.64064e-06
1.99168e-06
2.3484e-06
3.61755e-06
2.89364e-32
2.48921e-32
6.88183e-06
6.46847e-06
6.07057e-06
5.55549e-06
5.06004e-06
4.67586e-06
4.47874e-06
4.41523e-06
3.81041e-06
7.12827e-09
1.01761e-08
1.48683e-06
1.13021e-06
1.1022e-06
8.79615e-07
8.98631e-07
1.3118e-06
1.30627e-06
1.38798e-06
1.44116e-06
1.45272e-06
1.51836e-06
1.59958e-06
1.90505e-06
2.36148e-06
3.58151e-06
3.05814e-32
2.45038e-32
6.86657e-06
6.4931e-06
6.05303e-06
5.50588e-06
5.00396e-06
4.66372e-06
4.52893e-06
4.52597e-06
3.28113e-06
4.6707e-08
4.87892e-08
1.28204e-06
1.20708e-06
1.3376e-06
1.04379e-06
9.70404e-07
1.24724e-06
1.05415e-06
1.43814e-06
1.42405e-06
1.42369e-06
1.4839e-06
1.56755e-06
1.69861e-06
2.22889e-06
3.5839e-06
3.13496e-32
2.14109e-32
6.85198e-06
6.52171e-06
6.04368e-06
5.47486e-06
4.97651e-06
4.66815e-06
4.62363e-06
4.53559e-06
3.35132e-06
1.72265e-06
1.62784e-06
1.60044e-06
1.18553e-06
1.3505e-06
1.08216e-06
1.05911e-06
1.30544e-06
1.13412e-06
1.46174e-06
1.40268e-06
1.38887e-06
1.44081e-06
1.54972e-06
1.62734e-06
2.59524e-06
3.55225e-06
3.1538e-32
2.02811e-32
6.82738e-06
6.53093e-06
6.03199e-06
5.45735e-06
4.96537e-06
4.67756e-06
4.71823e-06
4.48383e-06
3.20158e-06
2.53992e-06
2.09704e-06
1.56164e-06
1.30028e-06
1.3637e-06
1.27647e-06
1.28774e-06
1.35974e-06
1.35947e-06
1.45635e-06
1.34723e-06
1.34691e-06
1.39834e-06
1.51096e-06
1.6392e-06
2.07594e-06
3.50186e-06
3.19167e-32
2.01465e-32
6.79555e-06
6.50013e-06
6.01685e-06
5.44404e-06
4.96025e-06
4.70754e-06
4.8435e-06
4.46074e-06
3.00494e-06
2.43267e-06
2.05921e-06
1.43637e-06
1.24484e-06
1.44888e-06
1.14817e-06
1.19085e-06
1.34312e-06
1.31887e-06
1.33617e-06
1.26256e-06
1.2802e-06
1.33536e-06
1.45131e-06
1.5989e-06
2.0691e-06
3.4854e-06
3.16476e-32
1.8435e-32
6.80274e-06
6.4469e-06
5.99388e-06
5.43129e-06
4.95736e-06
4.74211e-06
4.95406e-06
4.43372e-06
2.72711e-06
2.09681e-06
1.80277e-06
1.46181e-06
1.75205e-06
1.37635e-06
1.21646e-06
1.22348e-06
1.28884e-06
1.28479e-06
1.21799e-06
1.17541e-06
1.21172e-06
1.2785e-06
1.40553e-06
1.53415e-06
2.05487e-06
3.46644e-06
3.12934e-32
1.83521e-32
6.91248e-06
6.40482e-06
5.97257e-06
5.42027e-06
4.95918e-06
4.80199e-06
5.07768e-06
4.30096e-06
2.27351e-06
1.67881e-06
1.43136e-06
1.3718e-06
8.88115e-07
1.16568e-06
1.0006e-06
1.03594e-06
1.3489e-06
1.32799e-06
1.18645e-06
1.10623e-06
1.1356e-06
1.21242e-06
1.34324e-06
1.45051e-06
2.0389e-06
3.4304e-06
3.08352e-32
1.7028e-32
7.09954e-06
6.40159e-06
5.9574e-06
5.40462e-06
4.96623e-06
4.87576e-06
5.15852e-06
4.00241e-06
1.69132e-06
1.33563e-06
1.03214e-06
1.30026e-06
1.07005e-06
1.25296e-06
1.20721e-06
1.23622e-06
1.47436e-06
1.49958e-06
1.19548e-06
1.03751e-06
1.0779e-06
1.16493e-06
1.29795e-06
1.37936e-06
1.97942e-06
3.35643e-06
3.11307e-32
1.69743e-32
7.14978e-06
6.42556e-06
5.95274e-06
5.39249e-06
4.98385e-06
5.01691e-06
5.1608e-06
3.34472e-06
1.36988e-06
1.29766e-06
1.8679e-06
1.46305e-06
1.39034e-06
1.39936e-06
1.42523e-06
1.45611e-06
1.58085e-06
1.71901e-06
1.25888e-06
1.00104e-06
1.02365e-06
1.12112e-06
1.25743e-06
1.31847e-06
1.80365e-06
3.29991e-06
3.07822e-32
1.59376e-32
7.04772e-06
6.45116e-06
5.95589e-06
5.39494e-06
5.0436e-06
5.10645e-06
4.98582e-06
2.43156e-06
1.35811e-06
1.52036e-06
1.0703e-06
1.63962e-06
1.24552e-06
1.64214e-06
1.32589e-06
1.33547e-06
1.70504e-06
1.71327e-06
1.26782e-06
9.76674e-07
9.81318e-07
1.09338e-06
1.23261e-06
1.28622e-06
1.59043e-06
3.30149e-06
3.23901e-32
1.57775e-32
7.01213e-06
6.48259e-06
5.95782e-06
5.38832e-06
5.12716e-06
5.20896e-06
4.50555e-06
1.58864e-06
1.62182e-06
1.79453e-06
1.68794e-06
1.80109e-06
1.68594e-06
1.77962e-06
1.5473e-06
1.46648e-06
1.63729e-06
1.67673e-06
1.1138e-06
8.64751e-07
8.95404e-07
1.0582e-06
1.20837e-06
1.22181e-06
1.3568e-06
3.3392e-06
3.19936e-32
1.4798e-32
7.12006e-06
6.50643e-06
5.95233e-06
5.43057e-06
5.30718e-06
5.29453e-06
4.15281e-06
1.31431e-06
1.84593e-06
2.25406e-06
2.52239e-06
2.66128e-06
2.9609e-06
2.6256e-06
2.53396e-06
2.04564e-06
1.41482e-06
8.90606e-07
6.83475e-07
7.45175e-07
8.7058e-07
1.05819e-06
1.20275e-06
1.12044e-06
1.26749e-06
3.35662e-06
3.38385e-32
1.47522e-32
7.2622e-06
6.52923e-06
5.98848e-06
5.57524e-06
5.51889e-06
5.05953e-06
5.25917e-07
5.81841e-07
6.73037e-07
6.71997e-07
6.93248e-07
6.58578e-07
6.77009e-07
6.08555e-07
6.07572e-07
5.73021e-07
6.15287e-07
6.5645e-07
6.89057e-07
7.68245e-07
9.02491e-07
1.06623e-06
1.19447e-06
9.00475e-07
1.22989e-06
3.34733e-06
3.45241e-32
1.39e-32
7.23891e-06
6.50359e-06
6.04257e-06
5.73097e-06
5.67096e-06
4.79778e-06
9.57049e-08
7.65149e-08
4.89625e-07
4.79121e-07
4.65907e-07
4.59989e-07
4.39526e-07
4.31085e-07
4.43434e-07
4.6343e-07
5.0959e-07
5.52341e-07
6.53925e-07
7.53804e-07
8.85992e-07
1.04733e-06
1.17329e-06
5.71665e-07
1.21386e-06
3.30373e-06
3.44768e-32
1.38943e-32
7.21572e-06
6.51097e-06
6.15022e-06
5.88171e-06
5.78106e-06
4.6569e-06
4.24517e-08
5.39611e-08
3.39035e-07
4.50522e-07
4.53951e-07
4.63584e-07
4.65914e-07
4.7046e-07
4.78511e-07
4.98448e-07
5.31289e-07
5.79257e-07
6.59355e-07
7.55282e-07
8.8519e-07
1.03219e-06
1.14324e-06
4.36695e-07
1.133e-06
3.23187e-06
3.60209e-32
1.30026e-32
7.18803e-06
6.55456e-06
6.23793e-06
5.99632e-06
5.81428e-06
4.46927e-06
3.50143e-08
5.58399e-08
4.72042e-07
4.11376e-07
4.09585e-07
4.33635e-07
4.28149e-07
4.19641e-07
4.32348e-07
4.59326e-07
5.10197e-07
5.59994e-07
6.44407e-07
7.36884e-07
8.46686e-07
9.77133e-07
1.08137e-06
3.86719e-07
1.06977e-06
3.14324e-06
3.56882e-32
1.30641e-32
7.21426e-06
6.69539e-06
6.35556e-06
6.10156e-06
5.83144e-06
4.16854e-06
2.88669e-08
5.89042e-08
5.50482e-07
5.52933e-07
4.62015e-07
4.23657e-07
4.2859e-07
4.22238e-07
4.2939e-07
4.542e-07
4.94889e-07
5.4245e-07
6.08896e-07
6.86439e-07
7.79153e-07
8.76593e-07
9.54334e-07
3.14851e-07
9.72681e-07
2.97817e-06
3.74206e-32
1.20636e-32
7.32319e-06
6.79807e-06
6.41286e-06
6.17441e-06
5.81315e-06
3.94843e-06
2.43398e-08
6.84611e-08
5.78043e-07
6.05194e-07
5.16138e-07
3.94005e-07
3.97574e-07
3.91721e-07
3.96346e-07
4.16063e-07
4.43569e-07
4.75885e-07
5.20953e-07
5.68615e-07
6.18766e-07
6.70434e-07
7.03311e-07
2.8484e-07
7.97167e-07
2.7622e-06
3.78185e-32
1.18312e-32
7.55038e-06
6.92993e-06
6.52208e-06
6.22155e-06
5.4886e-06
5.76932e-07
1.45987e-10
2.37757e-07
4.16524e-07
5.05219e-07
4.97877e-07
2.7435e-07
2.70334e-07
2.71086e-07
2.71973e-07
2.7525e-07
2.77364e-07
2.79792e-07
2.80026e-07
2.78315e-07
2.68936e-07
2.3542e-07
2.03132e-07
4.4078e-07
3.57738e-07
2.62673e-06
3.8064e-32
1.3336e-06
9.34903e-07
1.9753e-06
2.22318e-06
2.57337e-06
2.77647e-06
3.01338e-06
3.17509e-06
3.33612e-06
3.41763e-06
3.45525e-06
3.41952e-06
3.36248e-06
3.22145e-06
3.02728e-06
2.74632e-06
2.41081e-06
2.04593e-06
1.70092e-06
1.40563e-06
1.32017e-06
1.51815e-06
1.58532e-06
1.32242e-06
1.39598e-06
1.97448e-06
2.09245e-06
2.71423e-07
4.46557e-07
2.9314e-06
3.04594e-06
3.16171e-06
3.27875e-06
3.38436e-06
3.49023e-06
3.53179e-06
3.56248e-06
3.58923e-06
3.64712e-06
3.71404e-06
3.6574e-06
3.55824e-06
3.43073e-06
3.25542e-06
3.04369e-06
2.79525e-06
2.52543e-06
2.2691e-06
2.06257e-06
2.01945e-06
1.99781e-06
2.05048e-06
2.24392e-06
2.54917e-06
2.87073e-06
1.69491e-07
3.57082e-07
1.31594e-06
1.29426e-06
1.27795e-06
1.26145e-06
1.24069e-06
1.18706e-06
1.14124e-06
1.1327e-06
1.24998e-06
1.87644e-06
3.64733e-06
3.50532e-06
3.37994e-06
3.27758e-06
3.14742e-06
3.00123e-06
2.83199e-06
2.63891e-06
2.44381e-06
2.29958e-06
2.32144e-06
2.38197e-06
2.33156e-06
2.21114e-06
2.43496e-06
2.98041e-06
1.99106e-31
4.19898e-31
7.03509e-07
6.61188e-07
6.62131e-07
5.96429e-07
5.38124e-07
4.93676e-07
4.89991e-07
5.21257e-07
6.33242e-07
8.5863e-07
1.74659e-06
3.29263e-06
3.27098e-06
3.20445e-06
3.09501e-06
2.96376e-06
2.74705e-06
2.39813e-06
2.01756e-06
1.82239e-06
1.89826e-06
2.15726e-06
2.12961e-06
1.97256e-06
2.23417e-06
2.91953e-06
1.40875e-31
5.14076e-31
1.47567e-06
6.55333e-07
7.07965e-07
6.61321e-07
6.17696e-07
5.76897e-07
5.77177e-07
6.01817e-07
6.37644e-07
6.86638e-07
1.27544e-06
3.0648e-06
2.9623e-06
2.73816e-06
2.41392e-06
1.96677e-06
1.53295e-06
1.45623e-06
1.51583e-06
1.56632e-06
1.66636e-06
1.90022e-06
2.5624e-06
1.95072e-06
2.09015e-06
2.82878e-06
1.42529e-31
2.6166e-31
4.07189e-06
1.29148e-06
6.1077e-07
5.53702e-07
4.85272e-07
5.43875e-07
6.37332e-07
6.44918e-07
6.17327e-07
5.7298e-07
9.75375e-07
2.65193e-06
2.18217e-06
1.46865e-06
1.14805e-06
1.15935e-06
1.19086e-06
1.34715e-06
1.46883e-06
1.54306e-06
1.60306e-06
1.65377e-06
1.87393e-06
2.28145e-06
2.07226e-06
2.80111e-06
1.16344e-31
1.35762e-31
4.8457e-06
3.73736e-06
1.50634e-06
1.45637e-06
1.41564e-06
1.02218e-06
6.064e-07
6.19206e-07
6.54635e-07
5.98162e-07
7.75317e-07
2.15593e-06
1.32289e-06
8.21107e-07
1.02176e-06
1.12612e-06
1.03175e-06
1.19068e-06
1.38255e-06
1.47866e-06
1.55934e-06
1.58613e-06
1.68492e-06
2.41437e-06
2.10489e-06
2.78075e-06
1.16378e-31
1.08304e-31
4.98615e-06
4.57497e-06
3.86388e-06
3.6245e-06
3.39074e-06
2.93575e-06
1.37232e-06
1.264e-06
9.35272e-07
6.81155e-07
5.6493e-07
1.75733e-06
1.09764e-06
7.3616e-07
6.43836e-07
7.97078e-07
8.69328e-07
1.0718e-06
1.31708e-06
1.41337e-06
1.48031e-06
1.53028e-06
1.61348e-06
2.00726e-06
2.11202e-06
2.76277e-06
1.1572e-31
8.55131e-32
4.99049e-06
4.71361e-06
4.39005e-06
4.04994e-06
3.73452e-06
3.44889e-06
3.03767e-06
2.90332e-06
2.52397e-06
4.84785e-07
4.37603e-07
1.60185e-06
1.01342e-06
9.40541e-07
7.19621e-07
8.44324e-07
1.55572e-06
1.05394e-06
1.42691e-06
1.38898e-06
1.43533e-06
1.51581e-06
1.57384e-06
1.8631e-06
2.06675e-06
2.73032e-06
1.19728e-31
8.07876e-32
4.97301e-06
4.73355e-06
4.43459e-06
4.07418e-06
3.73775e-06
3.46629e-06
3.30895e-06
3.24615e-06
2.80402e-06
4.66291e-07
4.07421e-07
1.33388e-06
1.00853e-06
1.1597e-06
8.82079e-07
7.884e-07
1.51232e-06
1.48876e-06
1.57983e-06
1.36999e-06
1.38282e-06
1.46193e-06
1.54367e-06
1.72421e-06
2.12168e-06
2.70162e-06
1.16015e-31
7.04266e-32
4.96235e-06
4.75796e-06
4.43336e-06
4.04128e-06
3.69533e-06
3.45429e-06
3.3637e-06
3.38238e-06
2.5244e-06
7.68808e-07
5.92336e-07
1.53499e-06
1.18304e-06
1.67124e-06
1.16482e-06
1.04192e-06
1.60752e-06
1.16963e-06
1.64578e-06
1.35012e-06
1.33903e-06
1.41462e-06
1.51641e-06
1.58079e-06
2.1215e-06
2.71321e-06
1.23225e-31
6.9657e-32
4.95184e-06
4.76915e-06
4.41956e-06
4.01438e-06
3.67e-06
3.45829e-06
3.4258e-06
3.39902e-06
2.8325e-06
1.22346e-06
1.21778e-06
1.91679e-06
1.13387e-06
1.67886e-06
1.14236e-06
1.08646e-06
1.66419e-06
1.19645e-06
1.53604e-06
1.31761e-06
1.28548e-06
1.35071e-06
1.4762e-06
1.55441e-06
2.65556e-06
2.70111e-06
1.28071e-31
6.2582e-32
4.93695e-06
4.75985e-06
4.40427e-06
3.99994e-06
3.66107e-06
3.46262e-06
3.48737e-06
3.36044e-06
2.56837e-06
2.00949e-06
1.73328e-06
1.98022e-06
1.48491e-06
1.72048e-06
1.5457e-06
1.54901e-06
1.67367e-06
1.53032e-06
1.4653e-06
1.25917e-06
1.2242e-06
1.29268e-06
1.43244e-06
1.53997e-06
2.14212e-06
2.66536e-06
1.28989e-31
6.01524e-32
4.936e-06
4.72129e-06
4.38723e-06
3.98942e-06
3.65833e-06
3.48377e-06
3.57811e-06
3.34587e-06
2.586e-06
1.98464e-06
1.78241e-06
1.86881e-06
1.2999e-06
1.87314e-06
1.18069e-06
1.15905e-06
1.59194e-06
1.35156e-06
1.43472e-06
1.18898e-06
1.14241e-06
1.21788e-06
1.36935e-06
1.47097e-06
1.9922e-06
2.6663e-06
1.23366e-31
5.96836e-32
4.97838e-06
4.68e-06
4.36802e-06
3.98063e-06
3.65826e-06
3.51102e-06
3.66811e-06
3.33199e-06
2.192e-06
1.76817e-06
1.64378e-06
1.96789e-06
2.14961e-06
1.85098e-06
1.5302e-06
1.43708e-06
1.66662e-06
1.69541e-06
1.55394e-06
1.09456e-06
1.06901e-06
1.16001e-06
1.32001e-06
1.41061e-06
1.88211e-06
2.67123e-06
1.15587e-31
5.51458e-32
5.09174e-06
4.66005e-06
4.35333e-06
3.97221e-06
3.66021e-06
3.55173e-06
3.76788e-06
3.2655e-06
1.93292e-06
1.57941e-06
1.24852e-06
1.87951e-06
1.09657e-06
1.60908e-06
1.19503e-06
1.20424e-06
1.85934e-06
1.66186e-06
1.47945e-06
1.0325e-06
9.9724e-07
1.10136e-06
1.26603e-06
1.33783e-06
1.81995e-06
2.62713e-06
1.08836e-31
5.56834e-32
5.19653e-06
4.67305e-06
4.34631e-06
3.96097e-06
3.6671e-06
3.60567e-06
3.84687e-06
3.06885e-06
1.49184e-06
1.56382e-06
9.96538e-07
1.82947e-06
1.36088e-06
1.72727e-06
1.53462e-06
1.62117e-06
2.00791e-06
1.88815e-06
1.44381e-06
9.56396e-07
9.50715e-07
1.06952e-06
1.23821e-06
1.30131e-06
1.70578e-06
2.51703e-06
1.09878e-31
5.22777e-32
5.16519e-06
4.69283e-06
4.3404e-06
3.95055e-06
3.67921e-06
3.7141e-06
3.86954e-06
2.64568e-06
1.55637e-06
1.79535e-06
2.18541e-06
2.01597e-06
1.84682e-06
1.76416e-06
1.89361e-06
1.95922e-06
2.01472e-06
2.21147e-06
1.39302e-06
9.15734e-07
9.05047e-07
1.04443e-06
1.21556e-06
1.26612e-06
1.54023e-06
2.42514e-06
1.07622e-31
5.28713e-32
5.08097e-06
4.71566e-06
4.34212e-06
3.95472e-06
3.71872e-06
3.76469e-06
3.74822e-06
1.99144e-06
1.57868e-06
2.08289e-06
1.32504e-06
2.21448e-06
1.55024e-06
2.23657e-06
1.69444e-06
1.70077e-06
2.38221e-06
2.17512e-06
1.32169e-06
8.75832e-07
8.64282e-07
1.03163e-06
1.20771e-06
1.24816e-06
1.35126e-06
2.42758e-06
1.16042e-31
4.95941e-32
5.07032e-06
4.72859e-06
4.33933e-06
3.94078e-06
3.75669e-06
3.80529e-06
3.32817e-06
1.42922e-06
2.00991e-06
2.3799e-06
2.11083e-06
2.41186e-06
2.1737e-06
2.41304e-06
2.02414e-06
1.96758e-06
2.3899e-06
2.36925e-06
1.13052e-06
7.49855e-07
8.17754e-07
1.03227e-06
1.20106e-06
1.17939e-06
1.20567e-06
2.49247e-06
1.16695e-31
4.98585e-32
5.14554e-06
4.7214e-06
4.31915e-06
3.94962e-06
3.84437e-06
3.83056e-06
3.15358e-06
1.34611e-06
2.35415e-06
2.74337e-06
2.97125e-06
3.14708e-06
3.35361e-06
3.14978e-06
3.0134e-06
2.63496e-06
2.00193e-06
1.47371e-06
7.26859e-07
7.11428e-07
8.37901e-07
1.05057e-06
1.20789e-06
1.07933e-06
1.19683e-06
2.5502e-06
1.24912e-31
4.72672e-32
5.19284e-06
4.69994e-06
4.31997e-06
4.02701e-06
3.97405e-06
3.63634e-06
1.13337e-06
5.3559e-07
6.31605e-07
6.36693e-07
6.57837e-07
6.41754e-07
6.5821e-07
6.05199e-07
6.04084e-07
5.72126e-07
5.99986e-07
6.39941e-07
6.43114e-07
7.29891e-07
8.80436e-07
1.06015e-06
1.19667e-06
9.09017e-07
1.19812e-06
2.56143e-06
1.20556e-31
4.66388e-32
5.13964e-06
4.66991e-06
4.35168e-06
4.13503e-06
4.09048e-06
3.39163e-06
4.52205e-07
3.41093e-07
4.16131e-07
3.99285e-07
3.92921e-07
3.8663e-07
3.81838e-07
3.6991e-07
3.86691e-07
4.12151e-07
4.63096e-07
5.08412e-07
6.05276e-07
7.20285e-07
8.67297e-07
1.03684e-06
1.16695e-06
7.76588e-07
1.15937e-06
2.53725e-06
1.29262e-31
4.47503e-32
5.09384e-06
4.67347e-06
4.42839e-06
4.25241e-06
4.19733e-06
3.34018e-06
2.60428e-07
4.08279e-07
4.95134e-07
5.02514e-07
4.68324e-07
4.51892e-07
4.59917e-07
4.65604e-07
4.75581e-07
5.01566e-07
5.26758e-07
5.70415e-07
6.32834e-07
7.35803e-07
8.62455e-07
1.00601e-06
1.11214e-06
7.1295e-07
1.06115e-06
2.47821e-06
1.27482e-31
4.36535e-32
5.09483e-06
4.73104e-06
4.49894e-06
4.34529e-06
4.24617e-06
3.29122e-06
2.0354e-07
3.84167e-07
5.61975e-07
4.80713e-07
4.27077e-07
4.05086e-07
4.04118e-07
3.99842e-07
4.11212e-07
4.39634e-07
4.83206e-07
5.30894e-07
6.04296e-07
6.93735e-07
8.01183e-07
9.26149e-07
1.01443e-06
6.64655e-07
9.75251e-07
2.41436e-06
1.35008e-31
4.17122e-32
5.16994e-06
4.85691e-06
4.59301e-06
4.44109e-06
4.291e-06
3.14448e-06
1.69073e-07
3.69909e-07
6.02481e-07
6.26933e-07
5.42134e-07
4.05359e-07
4.09029e-07
4.06785e-07
4.15419e-07
4.42346e-07
4.72744e-07
5.13743e-07
5.64947e-07
6.28932e-07
7.11492e-07
7.99109e-07
8.37097e-07
5.59186e-07
8.3391e-07
2.28733e-06
1.35902e-31
4.13229e-32
5.29195e-06
4.9368e-06
4.64369e-06
4.51126e-06
4.30141e-06
3.02249e-06
1.67357e-07
3.40839e-07
5.73125e-07
6.08152e-07
5.79173e-07
3.67845e-07
3.65617e-07
3.65146e-07
3.70149e-07
3.86647e-07
4.04899e-07
4.27866e-07
4.58934e-07
4.94311e-07
5.36911e-07
5.98118e-07
5.70009e-07
4.67305e-07
5.79514e-07
2.15077e-06
1.39396e-31
3.90247e-32
5.43019e-06
5.00873e-06
4.73325e-06
4.56168e-06
4.06848e-06
1.12386e-06
2.05113e-07
3.91874e-07
5.06134e-07
4.63113e-07
4.83856e-07
3.37954e-07
3.35517e-07
3.42074e-07
3.45485e-07
3.48435e-07
3.47956e-07
3.5186e-07
3.62099e-07
3.88308e-07
4.21781e-07
3.71795e-07
3.23373e-07
3.29799e-07
1.77956e-07
2.12552e-06
1.38823e-31
2.98804e-06
2.20081e-06
2.16791e-06
2.05212e-06
2.12343e-06
2.19227e-06
2.29485e-06
2.36473e-06
2.43204e-06
2.4553e-06
2.42302e-06
2.37405e-06
2.29424e-06
2.15573e-06
2.00581e-06
1.82285e-06
1.6851e-06
1.61379e-06
1.66238e-06
1.86336e-06
2.223e-06
2.58464e-06
2.6444e-06
2.24914e-06
1.63065e-06
1.43057e-06
1.4549e-06
9.33609e-07
1.19823e-06
1.92913e-06
2.061e-06
2.20443e-06
2.3446e-06
2.45153e-06
2.55519e-06
2.60146e-06
2.64733e-06
2.69417e-06
2.76587e-06
2.80508e-06
2.75213e-06
2.67517e-06
2.58196e-06
2.45568e-06
2.30621e-06
2.14989e-06
2.02317e-06
1.95931e-06
1.98146e-06
2.05194e-06
2.05165e-06
2.00713e-06
1.92311e-06
1.99723e-06
2.13607e-06
5.16638e-07
9.58004e-07
1.34101e-06
1.32273e-06
1.31567e-06
1.29989e-06
1.27775e-06
1.22967e-06
1.21229e-06
1.26113e-06
1.46779e-06
2.04398e-06
2.874e-06
2.79471e-06
2.71566e-06
2.65005e-06
2.55608e-06
2.45447e-06
2.35422e-06
2.25199e-06
2.17389e-06
2.19797e-06
2.35219e-06
2.4745e-06
2.42442e-06
2.13411e-06
2.03699e-06
2.33044e-06
3.22266e-07
4.27991e-07
9.24844e-07
8.5566e-07
8.1802e-07
7.40612e-07
6.86642e-07
6.79902e-07
7.02553e-07
8.13565e-07
9.78458e-07
1.25063e-06