/*--------------------------------*- C++ -*----------------------------------*\
| =========                 |                                                 |
| \\      /  F ield         | OpenFOAM: The Open Source CFD Toolbox           |
|  \\    /   O peration     | Version:  2.3.0                                 |
|   \\  /    A nd           | Web:      www.OpenFOAM.org                      |
|    \\/     M anipulation  |                                                 |
\*---------------------------------------------------------------------------*/
FoamFile
{
    version     2.0;
    format      ascii;
    class       surfaceScalarField;
    location    "4.80023";
    object      phi;
}
// * * * * * * * * * * * * * * * * * * * * * * * * * * * * * * * * * * * * * //

dimensions      [0 3 -1 0 0 0 0];

internalField   nonuniform List<scalar> 
49938
(
-1.20445e-09
4.44767e-09
-2.74311e-09
-2.34555e-09
5.45206e-09
-3.81082e-09
-3.25901e-09
4.75538e-09
-3.3418e-09
-4.15104e-09
4.56046e-09
-3.16832e-09
-4.8783e-09
4.38136e-09
-3.154e-09
-5.58909e-09
4.27863e-09
-3.06774e-09
-6.24464e-09
4.26568e-09
-3.11002e-09
-6.87582e-09
4.22224e-09
-3.09095e-09
-7.45886e-09
4.16041e-09
-3.07727e-09
-8.01705e-09
4.11608e-09
-3.05778e-09
-8.5451e-09
4.10499e-09
-3.07682e-09
-9.03211e-09
4.10589e-09
-3.11876e-09
-9.43716e-09
4.03297e-09
-3.12779e-09
-9.70994e-09
4.06769e-09
-3.29478e-09
-9.85059e-09
4.13706e-09
-3.49627e-09
-9.74676e-09
4.25078e-09
-3.85444e-09
-9.31423e-09
4.38754e-09
-4.31989e-09
-8.4659e-09
4.53014e-09
-4.87829e-09
-7.17035e-09
4.63426e-09
-5.42965e-09
-5.34529e-09
4.70755e-09
-6.03245e-09
-3.07628e-09
4.72441e-09
-6.49329e-09
-4.44509e-10
4.68145e-09
-6.81311e-09
1.91851e-09
4.60654e-09
-6.46945e-09
4.34906e-09
4.19851e-09
-6.12894e-09
5.35008e-09
3.90382e-09
-4.40472e-09
4.67224e-09
4.13362e-09
-2.95566e-09
2.89068e-09
4.91939e-09
-2.6377e-09
6.00934e-09
-2.6185e-09
-1.75109e-09
8.52982e-09
-2.33078e-09
-2.57378e-09
8.55454e-09
-2.27946e-09
-3.20435e-09
7.84658e-09
-2.46035e-09
-3.89083e-09
7.52653e-09
-2.27931e-09
-4.52622e-09
7.17561e-09
-2.15861e-09
-5.1963e-09
7.01151e-09
-2.06255e-09
-5.83164e-09
6.83442e-09
-1.93316e-09
-6.42891e-09
6.61177e-09
-1.79202e-09
-6.97172e-09
6.33683e-09
-1.63338e-09
-7.45882e-09
6.06029e-09
-1.45689e-09
-7.84208e-09
5.64705e-09
-1.15859e-09
-8.19366e-09
5.1116e-09
-6.53913e-10
-8.5024e-09
4.98743e-09
-6.45517e-10
-8.67038e-09
4.85771e-09
-6.21835e-10
-8.72837e-09
4.78323e-09
-5.87972e-10
-8.62176e-09
4.72162e-09
-5.77246e-10
-8.26083e-09
4.63518e-09
-6.0836e-10
-7.54623e-09
4.50122e-09
-6.85482e-10
-6.4317e-09
4.32586e-09
-8.05921e-10
-4.89205e-09
4.17576e-09
-1.00767e-09
-3.01913e-09
3.94225e-09
-1.09059e-09
-9.91466e-10
3.71896e-09
-1.06502e-09
9.81642e-10
3.6793e-09
-1.04572e-09
2.85316e-09
3.2193e-09
-8.92178e-10
3.69541e-09
3.48338e-09
-4.21668e-10
3.3832e-09
4.5117e-09
-6.5695e-11
2.12055e-09
6.12448e-09
5.7809e-11
9.98646e-09
-1.8562e-09
-1.66326e-10
1.21777e-08
-3.48104e-09
-1.21534e-09
1.10411e-08
-1.43714e-09
-1.86092e-09
9.57584e-09
-1.0833e-09
-2.51469e-09
9.34495e-09
-1.1643e-09
-3.07896e-09
8.96294e-09
-1.22271e-09
-3.67165e-09
8.70742e-09
-1.10289e-09
-4.10961e-09
8.36601e-09
-1.09332e-09
-4.4621e-09
7.99891e-09
-1.03434e-09
-4.77929e-09
7.62769e-09
-9.73393e-10
-5.43159e-09
7.22957e-09
-5.16705e-10
-6.53028e-09
6.52132e-09
2.24664e-10
-7.07764e-09
5.29105e-09
3.68118e-10
-7.38332e-09
4.86588e-09
4.2742e-10
-7.6025e-09
4.67584e-09
4.01223e-10
-7.78014e-09
4.48585e-09
4.75191e-10
-7.80754e-09
4.2089e-09
5.40277e-10
-7.65218e-09
3.89107e-09
5.88895e-10
-7.20187e-09
3.47309e-09
5.77955e-10
-6.31458e-09
2.94038e-09
4.9833e-10
-4.93283e-09
2.3949e-09
3.99219e-10
-3.21518e-09
1.98635e-09
2.38351e-10
-1.33644e-09
1.7939e-09
4.64045e-11
4.54914e-10
1.98976e-09
-1.01736e-10
1.96474e-09
1.93736e-09
-2.27812e-10
2.75279e-09
2.75672e-09
-6.12836e-11
2.44871e-09
4.41716e-09
3.98754e-10
1.29616e-09
6.4552e-09
8.22088e-10
1.18643e-08
-5.81171e-10
2.91123e-10
1.32538e-08
-1.36666e-09
-5.42709e-10
1.29321e-08
-1.05658e-09
-1.01254e-09
1.05949e-08
-5.48812e-10
-1.4178e-09
9.87409e-09
-1.23478e-10
-1.79952e-09
9.38802e-09
-4.29822e-11
-2.22146e-09
9.0384e-09
9.13248e-11
-2.51012e-09
8.60501e-09
5.00065e-11
-2.72287e-09
8.19744e-09
1.45523e-11
-2.84803e-09
7.75634e-09
-3.17673e-12
-3.13049e-09
7.31451e-09
1.978e-10
-4.16566e-09
6.57513e-09
9.81607e-10
-5.52035e-09
5.4809e-09
1.16503e-09
-6.21374e-09
4.63707e-09
9.22366e-10
-6.60289e-09
4.23588e-09
8.29247e-10
-6.84571e-09
3.69724e-09
1.03155e-09
-6.9623e-09
2.92106e-09
1.40454e-09
-6.94422e-09
2.09025e-09
1.78284e-09
-6.6419e-09
1.15061e-09
2.02025e-09
-5.87752e-09
4.00074e-10
1.77599e-09
-4.62078e-09
-3.49345e-10
1.48756e-09
-3.13147e-09
-8.12953e-10
1.31004e-09
-1.40311e-09
-9.60731e-10
1.02629e-09
2.78108e-10
-3.60113e-10
6.68689e-10
1.56996e-09
3.1038e-10
3.35167e-10
2.06567e-09
2.04343e-09
2.17639e-10
1.71304e-09
4.19183e-09
5.78102e-10
7.79822e-10
6.60408e-09
7.84586e-10
1.21084e-08
5.36292e-10
7.75596e-12
1.38146e-08
-5.67948e-10
-3.47748e-10
1.27591e-08
5.2905e-10
-6.28342e-10
1.16692e-08
-7.93248e-10
-9.8429e-10
1.06089e-08
-3.7845e-10
-1.30013e-09
9.96363e-09
-2.59375e-10
-1.65863e-09
9.48393e-09
-8.66512e-11
-1.86814e-09
8.89678e-09
-8.18992e-11
-1.96769e-09
8.32465e-09
-2.73279e-11
-2.02702e-09
7.88975e-09
-7.37819e-11
-2.14697e-09
7.41592e-09
1.88296e-11
-2.9167e-09
6.56985e-09
7.7523e-10
-4.47137e-09
5.33615e-09
1.69959e-09
-5.15008e-09
4.36526e-09
9.50655e-10
-5.19676e-09
3.46813e-09
8.14534e-10
-4.95667e-09
2.22484e-09
1.23239e-09
-4.7076e-09
1.03487e-09
1.63717e-09
-4.66192e-09
3.58676e-10
1.68593e-09
-4.78042e-09
-3.63549e-10
1.63268e-09
-4.70513e-09
-1.23543e-09
1.56022e-09
-4.1461e-09
-2.08088e-09
1.17251e-09
-3.24828e-09
-2.53742e-09
8.26642e-10
-2.01715e-09
-2.82925e-09
6.37392e-10
-5.84312e-10
-2.49232e-09
6.99353e-10
6.93107e-10
-1.28181e-09
3.14768e-10
1.27587e-09
1.30234e-09
1.58383e-10
1.10821e-09
4.04917e-09
3.10435e-10
5.6737e-10
6.66003e-09
4.85133e-10
1.23352e-08
3.41069e-10
-2.0332e-10
1.38247e-08
1.93845e-10
-6.95198e-10
1.22431e-08
1.00855e-09
-8.81247e-10
1.15247e-08
3.31127e-10
-7.16938e-10
1.0968e-08
-5.22932e-10
-9.21175e-10
1.007e-08
9.83122e-11
-1.17317e-09
9.29282e-09
4.43495e-10
-1.33494e-09
8.54592e-09
5.12988e-10
-1.40724e-09
8.21356e-09
1.83722e-10
-1.47282e-09
7.78947e-09
1.66149e-10
-1.475e-09
7.21968e-09
1.98687e-10
-1.88423e-09
6.19891e-09
7.80382e-10
-2.9342e-09
4.78796e-09
1.59831e-09
-3.05189e-09
3.63697e-09
8.46088e-10
-2.33139e-09
2.16797e-09
5.79723e-10
-1.65444e-09
7.06937e-10
8.40976e-10
-1.52699e-09
4.90589e-12
9.02522e-10
-2.08316e-09
-2.92345e-10
1.20719e-09
-3.10821e-09
-7.77969e-10
1.43947e-09
-3.84237e-09
-1.8251e-09
1.32382e-09
-3.77108e-09
-3.08672e-09
9.34556e-10
-3.25733e-09
-3.6232e-09
5.72026e-10
-2.41927e-09
-3.895e-09
2.27684e-10
-1.39595e-09
-3.81859e-09
3.02951e-10
-2.41464e-10
-2.67363e-09
2.37308e-10
5.78039e-10
1.24193e-10
3.58666e-10
6.36976e-10
3.75476e-09
2.35583e-10
3.19813e-10
6.59781e-09
3.79611e-10
1.22381e-08
4.17492e-10
-2.83061e-10
1.37837e-08
3.24681e-10
-7.82809e-10
1.20205e-08
7.2295e-10
-1.10253e-09
1.1159e-08
6.85987e-10
-1.44322e-09
1.06873e-08
6.21874e-10
-1.74487e-09
9.68496e-09
6.87082e-10
-1.89825e-09
8.71729e-09
7.29295e-10
-1.65688e-09
7.95753e-09
3.47361e-10
-1.06075e-09
7.92147e-09
-3.03725e-10
-1.08996e-09
7.63767e-09
1.81307e-10
-1.08955e-09
7.14041e-09
7.91175e-11
-1.15832e-09
6.01029e-09
2.57594e-10
-1.46067e-09
4.37098e-09
7.19457e-10
-1.1724e-09
2.91349e-09
4.35284e-10
-5.16184e-10
1.31375e-09
1.98043e-10
-1.19198e-10
1.20074e-10
1.89883e-10
3.57987e-11
-2.2823e-10
7.8139e-11
-2.36983e-10
-2.10479e-10
1.90916e-10
-1.20148e-09
-6.188e-10
8.05319e-10
-2.44383e-09
-1.70057e-09
1.11782e-09
-2.84672e-09
-3.4998e-09
8.15966e-10
-2.79163e-09
-4.38266e-09
7.04376e-10
-2.35595e-09
-4.57692e-09
2.46241e-10
-1.76148e-09
-4.63872e-09
2.25655e-10
-9.43805e-10
-3.83905e-09
3.47719e-10
2.19193e-11
-1.15259e-09
3.11056e-10
3.83682e-10
3.32253e-09
7.05659e-11
2.06376e-10
6.50362e-09
2.71706e-10
1.22837e-08
1.61235e-10
-2.63996e-10
1.3674e-08
3.74304e-10
-6.58686e-10
1.18867e-08
5.29135e-10
-1.00809e-09
1.08723e-08
6.3661e-10
-1.30159e-09
1.01619e-08
8.19419e-10
-1.46798e-09
9.10082e-09
7.50939e-10
-1.5347e-09
8.07164e-09
7.12721e-10
-1.51876e-09
7.34605e-09
5.95856e-10
-1.44701e-09
7.26802e-09
5.81999e-10
-1.46466e-09
7.10776e-09
5.47852e-10
-1.18373e-09
6.6339e-09
2.25827e-10
-6.20076e-10
5.59492e-09
-1.48112e-10
-4.27194e-10
3.85551e-09
3.22695e-10
-1.94219e-10
2.32303e-09
3.57545e-10
4.46476e-11
7.58023e-10
3.16871e-10
1.57941e-10
-1.27539e-10
1.34322e-10
1.9606e-10
-2.74467e-10
8.11855e-12
1.73029e-10
-2.44727e-10
5.7279e-11
7.28532e-11
-7.59231e-10
2.40601e-10
-1.11841e-09
-1.20367e-09
6.94348e-10
-1.94211e-09
-3.22911e-09
5.52999e-10
-2.19468e-09
-4.76242e-09
6.32325e-10
-2.04825e-09
-4.99267e-09
2.69329e-10
-1.70082e-09
-5.11187e-09
1.25709e-10
-1.16592e-09
-4.64572e-09
2.71744e-10
-3.82677e-10
-2.21305e-09
2.77188e-10
2.09414e-10
2.8401e-09
-1.09587e-10
1.31995e-10
6.36784e-09
2.13417e-10
1.22901e-08
1.26144e-10
-2.28827e-10
1.36249e-08
2.78468e-10
-5.02616e-10
1.18228e-08
3.38182e-10
-7.48072e-10
1.07263e-08
3.91945e-10
-8.97623e-10
9.84865e-09
4.63222e-10
-9.27304e-10
8.78101e-09
3.49894e-10
-8.99133e-10
7.75386e-09
2.89951e-10
-9.06442e-10
7.03169e-09
3.2197e-10
-8.8946e-10
6.77492e-09
4.76401e-10
-9.61709e-10
6.79372e-09
3.86557e-10
-6.76357e-10
5.73478e-09
6.13991e-10
-2.49517e-10
4.9703e-09
1.97942e-10
-2.40778e-11
3.1379e-09
4.92259e-10
1.95614e-10
1.46601e-09
6.37362e-10
1.93326e-10
4.22703e-10
3.37619e-10
2.12229e-10
-3.06384e-10
1.59941e-10
-4.37684e-11
9.10339e-12
-2.75721e-11
-1.7898e-10
-2.67167e-10
1.57651e-10
6.04391e-10
-1.39363e-10
-1.40324e-09
-4.19618e-12
-5.6436e-10
-3.07278e-11
-1.06518e-09
-2.28625e-09
1.18105e-10
-1.59846e-09
-4.73419e-09
5.05048e-10
-1.70455e-09
-5.14777e-09
2.61185e-10
-1.55141e-09
-5.33545e-09
7.04404e-11
-1.23327e-09
-5.13105e-09
1.67185e-10
-6.09537e-10
-3.15513e-09
3.18311e-10
5.83883e-11
2.51673e-09
-3.4448e-10
7.65294e-11
6.27724e-09
7.26669e-11
1.23628e-08
4.3663e-12
-1.85926e-10
1.36174e-08
1.93987e-10
-3.74346e-10
1.17845e-08
2.27356e-10
-5.20411e-10
1.06432e-08
2.29672e-10
-5.87704e-10
9.71531e-09
2.01075e-10
-5.76512e-10
8.65723e-09
1.12971e-10
-5.33248e-10
7.63407e-09
7.68586e-11
-5.65882e-10
6.98988e-09
7.47479e-11
-7.06041e-10
6.74357e-09
1.71778e-10
-1.16017e-09
6.76517e-09
4.8295e-10
-6.99956e-10
4.70449e-09
5.7024e-10
-2.00655e-10
4.27574e-09
1.95382e-10
1.72399e-10
2.71579e-09
4.91315e-11
4.45403e-10
5.96317e-10
5.96712e-10
5.53458e-10
3.67927e-10
-5.32713e-11
5.73256e-10
-2.20018e-10
-1.06165e-10
7.86523e-10
9.31355e-11
-2.97296e-10
1.11547e-09
-3.92537e-11
-5.56858e-10
3.26365e-10
-4.2254e-10
1.07228e-09
1.7515e-10
1.23737e-10
-5.36881e-10
-6.5325e-10
-1.68047e-09
2.22604e-10
-1.21707e-09
-4.7207e-09
5.50333e-10
-1.40937e-09
-5.25345e-09
2.97983e-10
-1.32942e-09
-5.47679e-09
6.13952e-11
-1.14408e-09
-5.43832e-09
1.2192e-10
-6.85185e-10
-3.98881e-09
3.74745e-10
-6.46705e-11
2.0002e-09
-1.03927e-10
-2.32004e-11
6.25019e-09
-1.42199e-11
1.24823e-08
-1.42249e-10
-1.5165e-10
1.36317e-08
1.37951e-10
-2.75554e-10
1.17678e-08
1.41142e-10
-3.46575e-10
1.05876e-08
1.2715e-10
-3.52978e-10
9.65349e-09
6.86671e-11
-3.09451e-10
8.57914e-09
3.49374e-11
-2.59524e-10
7.5832e-09
1.27031e-12
-3.13455e-10
6.9817e-09
6.24012e-11
-7.5785e-10
6.9713e-09
2.16947e-10
-1.81456e-09
6.64077e-09
1.18138e-09
-7.3812e-10
4.39925e-09
-7.71034e-10
2.71204e-11
4.00154e-09
-4.90918e-10
3.29025e-10
2.87086e-09
-4.5691e-10
7.21419e-10
3.23876e-10
-1.1994e-10
6.87127e-10
3.93276e-10
8.95275e-12
6.42374e-10
-1.89503e-10
1.42379e-11
6.44294e-10
6.64793e-11
2.474e-11
7.41668e-10
1.85807e-11
-1.55206e-10
5.96242e-10
-4.79124e-10
2.02007e-10
4.56567e-10
1.61469e-10
1.01947e-10
-2.75266e-10
-1.40903e-09
4.60379e-10
-8.44668e-10
-4.79655e-09
6.45251e-10
-1.09133e-09
-5.278e-09
2.71204e-10
-1.09833e-09
-5.5201e-09
5.03064e-11
-1.02181e-09
-5.57501e-09
6.01643e-11
-7.80571e-10
-4.62966e-09
3.99597e-10
2.30011e-11
4.81694e-10
7.14975e-10
-1.37895e-11
6.19219e-09
9.49882e-11
1.27027e-08
-2.33636e-10
-1.26578e-10
1.36712e-08
8.76377e-11
-2.10811e-10
1.17712e-08
8.14002e-11
-2.32147e-10
1.05626e-08
4.68327e-11
-2.07417e-10
9.62067e-09
8.53101e-12
-1.51643e-10
8.5324e-09
-8.65527e-12
-1.04537e-10
7.56047e-09
-2.40499e-11
-1.57949e-10
7.01765e-09
1.77562e-11
-6.87769e-10
7.22314e-09
2.78265e-10
-1.4677e-09
6.6957e-09
7.2526e-10
-9.2439e-10
3.83635e-09
1.97382e-11
-3.52734e-10
3.30702e-09
1.22977e-10
4.54546e-13
2.53853e-09
-2.07896e-11
5.53195e-10
-2.43786e-10
1.49257e-11
6.77102e-10
4.2543e-10
-1.56049e-10
6.59215e-10
-1.13084e-10
-5.85314e-11
7.49972e-10
1.15129e-10
-1.39403e-10
8.16804e-10
3.48518e-11
-8.30995e-11
7.56717e-10
-3.81307e-10
-3.77332e-11
9.68316e-10
-3.47378e-11
-1.53875e-11
1.95325e-10
-1.68387e-09
1.04783e-09
-4.74294e-10
-4.88563e-09
7.58693e-10
-7.68458e-10
-5.28131e-09
2.97481e-10
-8.002e-10
-5.53578e-09
4.74255e-11
-7.32117e-10
-5.65945e-09
1.63539e-11
-5.43464e-10
-5.06405e-09
2.45716e-10
2.48265e-10
-7.3125e-10
4.21218e-10
9.29751e-11
6.0801e-09
2.67591e-10
1.29267e-08
-1.30536e-10
-1.06172e-10
1.37247e-08
5.32155e-11
-1.61605e-10
1.17753e-08
5.19225e-11
-1.53679e-10
1.05608e-08
-5.61125e-12
-1.11399e-10
9.59475e-09
-1.59123e-11
-5.67143e-11
8.49331e-09
-1.52225e-11
-1.87898e-11
7.5477e-09
-2.48343e-11
-1.14536e-10
7.07148e-09
4.22097e-11
-6.74578e-10
7.50395e-09
2.7953e-10
-1.59443e-09
6.78164e-09
8.34166e-10
-1.23513e-09
3.30229e-09
1.74882e-10
-5.38881e-10
2.62037e-09
-9.51215e-12
-1.64844e-10
2.07389e-09
9.06661e-11
5.7407e-10
-1.28311e-09
3.00403e-10
6.85551e-10
2.04192e-10
1.09766e-10
7.74466e-10
-1.59769e-10
-4.22281e-11
8.44803e-10
6.53342e-11
-2.05373e-11
8.86533e-10
4.23737e-11
-4.92488e-11
1.0561e-09
-5.42915e-10
-7.95945e-12
1.29935e-09
-4.68198e-10
1.9021e-10
4.45346e-10
-2.39748e-09
1.5676e-09
-1.97357e-10
-5.02824e-09
7.85307e-10
-4.88436e-10
-5.25825e-09
2.68021e-10
-5.36325e-10
-5.52291e-09
3.50206e-11
-4.68131e-10
-5.71687e-09
-1.07769e-11
-2.66841e-10
-5.3857e-09
1.2035e-10
3.79525e-10
-1.3928e-09
1.51702e-11
1.22121e-10
5.97935e-09
3.5835e-10
1.2998e-08
5.13478e-11
-9.26744e-11
1.38001e-08
1.78812e-11
-1.34594e-10
1.17798e-08
3.79635e-11
-1.10033e-10
1.05712e-08
-3.44654e-11
-5.8459e-11
9.57206e-09
-2.84522e-11
1.55583e-12
8.46043e-09
-2.67597e-11
3.32035e-11
7.53708e-09
-2.07054e-11
-8.30732e-11
7.13536e-09
5.26932e-11
-7.20537e-10
7.76911e-09
3.72615e-10
-1.68382e-09
6.78481e-09
9.60364e-10
-1.24782e-09
2.88667e-09
-2.02797e-11
-5.04803e-10
2.13541e-09
-2.57992e-10
-6.58509e-11
1.69148e-09
-5.64987e-11
3.04938e-10
-1.75598e-09
1.02078e-10
4.46599e-10
-6.60915e-11
1.28628e-10
6.46912e-10
-3.51924e-10
-8.15959e-12
8.61506e-10
-1.08618e-10
-4.06386e-11
1.00014e-09
-1.41084e-10
4.48274e-11
1.35452e-09
-9.6943e-10
7.21312e-11
1.6209e-09
-1.06137e-09
3.26786e-10
6.16243e-10
-3.06501e-09
1.67218e-09
3.59009e-11
-5.0235e-09
5.75609e-10
-2.43566e-10
-5.18393e-09
2.05143e-10
-3.18275e-10
-5.44202e-09
-6.1771e-12
-2.83937e-10
-5.72566e-09
-2.55405e-11
-1.17769e-10
-5.59093e-09
3.90565e-11
4.10943e-10
-2.05818e-09
1.36642e-10
9.33257e-11
5.78343e-09
5.13718e-10
1.28991e-08
1.92785e-10
-8.48317e-11
1.38844e-08
1.08877e-12
-1.16851e-10
1.17251e-08
8.72515e-11
-8.666e-11
1.05613e-08
-1.98147e-11
-3.3172e-11
9.54717e-09
-2.81532e-11
1.95143e-11
8.42949e-09
-2.13792e-11
3.58296e-11
7.52986e-09
-8.76283e-12
-1.74132e-10
7.23707e-09
1.08556e-10
-9.30923e-10
8.00922e-09
5.17002e-10
-1.95454e-09
6.60565e-09
1.20302e-09
-1.43306e-09
2.19462e-09
1.70657e-10
-4.56661e-10
1.32772e-09
-1.68657e-10
-9.12753e-11
1.23979e-09
8.63413e-11
1.70596e-11
-1.89787e-09
3.35564e-11
1.99786e-10
-3.52806e-10
1.03988e-10
5.65101e-10
-8.73813e-10
1.56569e-10
9.29006e-10
-8.24329e-10
3.51806e-10
1.27123e-09
-8.41535e-10
3.58231e-10
1.55068e-09
-1.46707e-09
2.1819e-10
1.55538e-09
-1.34377e-09
2.77689e-10
6.36553e-10
-3.33024e-09
1.18406e-09
2.1654e-10
-4.82691e-09
2.23416e-10
-5.62102e-11
-4.98959e-09
7.8408e-11
-1.78422e-10
-5.26618e-09
-5.36284e-11
-2.22263e-10
-5.64924e-09
-3.25848e-11
-1.31536e-10
-5.68266e-09
9.88142e-13
3.117e-10
-2.64907e-09
1.47619e-10
1.91696e-11
5.52632e-09
5.49824e-10
1.25834e-08
3.35374e-10
-9.18255e-11
1.39869e-08
-1.01728e-11
-1.16623e-10
1.16392e-08
1.1128e-10
-8.9824e-11
1.05347e-08
3.13386e-13
-4.022e-11
9.52796e-09
-2.99562e-11
1.08696e-11
8.40664e-09
-2.78641e-11
3.66815e-12
7.53386e-09
3.52044e-12
-2.80918e-10
7.38507e-09
1.36899e-10
-1.09227e-09
8.17613e-09
6.44762e-10
-1.98274e-09
6.16008e-09
1.33626e-09
-1.26865e-09
1.24939e-09
2.31191e-10
-2.35996e-10
4.25913e-10
-1.30824e-10
2.95648e-11
6.84007e-10
2.90243e-10
2.8502e-11
-1.88966e-09
-7.15976e-12
3.54471e-10
-1.10673e-09
4.27952e-10
7.50896e-10
-1.46905e-09
1.9881e-10
9.45111e-10
-1.42325e-09
4.04699e-10
1.12288e-09
-1.47492e-09
4.5562e-10
1.36363e-09
-1.78012e-09
7.22933e-11
1.20221e-09
-1.68394e-09
5.01581e-10
5.63462e-10
-3.32062e-09
6.29139e-10
3.14517e-10
-4.51181e-09
-6.61571e-11
6.47772e-11
-4.68455e-09
-5.52968e-11
-9.95018e-11
-4.99144e-09
-1.10463e-10
-2.50909e-10
-5.45182e-09
-4.60148e-11
-2.70307e-10
-5.58246e-09
-8.08012e-11
-7.20171e-12
-3.00712e-09
9.49169e-11
-1.70694e-10
5.31442e-09
3.75552e-10
1.20914e-08
3.21838e-10
-9.10175e-11
1.4106e-08
-2.74604e-11
-1.292e-10
1.16788e-08
-9.13619e-13
-1.1356e-10
1.04989e-08
2.06211e-11
-7.2857e-11
9.51133e-09
-2.36464e-11
-2.81812e-11
8.38961e-09
-2.72815e-11
-9.97273e-11
7.56478e-09
4.09547e-11
-5.76018e-10
7.58185e-09
2.79821e-10
-1.55609e-09
8.26627e-09
8.90256e-10
-2.20492e-09
5.13394e-09
1.67515e-09
-1.07256e-09
1.22483e-10
-5.42884e-12
-2.25794e-10
-6.79542e-10
2.58697e-10
3.92337e-10
9.23834e-11
-2.6497e-11
2.26301e-10
-1.74526e-09
2.16338e-11
6.2067e-10
-1.28647e-09
-2.14631e-10
4.66082e-10
-1.72952e-09
4.15057e-10
8.53899e-10
-1.49814e-09
-3.12925e-10
1.25974e-09
-1.65464e-09
-2.26125e-10
1.11371e-09
-2.01689e-09
3.82806e-10
1.23179e-09
-1.7195e-09
-8.25254e-11
6.79276e-10
-3.08725e-09
3.19142e-10
4.41963e-10
-4.10105e-09
-1.73441e-10
1.58394e-10
-4.29655e-09
-1.04432e-10
-5.30566e-11
-4.64421e-09
-1.35784e-10
-2.97383e-10
-5.15393e-09
-5.35577e-11
-4.13898e-10
-5.33618e-09
-1.29767e-10
-3.37848e-10
-3.1045e-09
2.12976e-11
-2.0827e-10
5.23606e-09
-5.10609e-11
1.18416e-08
4.19083e-11
-9.24055e-11
1.42364e-08
-3.74045e-11
-1.65728e-10
1.19181e-08
-1.65319e-10
-1.59062e-10
1.05058e-08
-1.30339e-11
-1.37406e-10
9.54116e-09
-5.10458e-11
-1.34252e-10
8.40653e-09
-1.96991e-11
-3.62336e-10
7.70616e-09
8.70323e-11
-1.05997e-09
7.87405e-09
4.05762e-10
-2.0372e-09
8.15732e-09
1.0865e-09
-1.5355e-09
3.11221e-09
1.52014e-09
-8.62693e-10
-1.12721e-09
5.76888e-10
-3.4009e-10
-1.47629e-09
2.74139e-10
2.83915e-10
-8.61922e-10
3.30302e-10
2.66128e-10
-1.82696e-09
9.94935e-11
3.82738e-10
-1.43206e-09
2.89829e-11
5.65356e-10
-1.97283e-09
6.06924e-11
7.06862e-10
-1.72358e-09
8.39328e-11
9.15426e-10
-1.83313e-09
-3.00791e-11
1.26227e-09
-2.34921e-09
-1.45286e-11
1.22974e-09
-2.0924e-09
4.05434e-10
6.67608e-10
-2.79778e-09
2.72667e-10
4.88362e-10
-3.66264e-09
-2.59163e-10
2.11428e-10
-3.89272e-09
-1.26897e-10
-3.36095e-11
-4.25814e-09
-1.41035e-10
-3.35005e-10
-4.80484e-09
-4.76939e-11
-4.86316e-10
-4.99924e-09
-1.85633e-10
-5.18788e-10
-3.04178e-09
-3.02748e-11
-9.68791e-11
5.35597e-09
-5.4165e-10
1.19265e-08
-1.81232e-10
-1.00577e-10
1.43847e-08
-4.71061e-11
-2.16192e-10
1.21676e-08
-1.33334e-10
-2.24389e-10
1.05509e-08
-3.63989e-11
-2.38104e-10
9.58009e-09
-2.47723e-11
-3.19461e-10
8.44317e-09
4.50845e-11
-7.57337e-10
7.92722e-09
2.17148e-10
-1.47337e-09
8.29044e-09
2.99972e-10
-1.83476e-09
7.80843e-09
7.10584e-10
-6.99974e-10
1.38544e-09
5.92032e-10
-6.05024e-10
-1.71794e-09
4.95783e-10
-2.75921e-10
-1.83296e-09
2.75671e-11
3.76888e-11
-1.47293e-09
2.97396e-10
1.52743e-10
-1.98782e-09
4.58031e-11
1.16046e-10
-1.77417e-09
3.78809e-10
5.84637e-10
-2.11815e-09
-3.23276e-10
6.07221e-10
-2.07904e-09
3.32882e-10
6.62329e-10
-2.29441e-09
4.06174e-10
1.52475e-09
-2.71124e-09
-5.00391e-10
1.67835e-09
-2.89997e-09
6.5398e-10
7.78537e-10
-3.01683e-09
1.11886e-09
5.3971e-10
-3.32043e-09
-1.03388e-10
2.59354e-10
-3.58226e-09
-3.0106e-11
1.43366e-11
-3.9211e-09
-9.20224e-11
-2.79262e-10
-4.4717e-09
-3.95468e-11
-4.49759e-10
-4.67592e-09
-1.52824e-10
-5.23964e-10
-2.94169e-09
-2.58934e-11
2.4342e-11
5.57136e-09
-7.63528e-10
1.21564e-08
-2.05129e-10
-1.29826e-10
1.45453e-08
-3.01902e-11
-2.58078e-10
1.22597e-08
3.67046e-11
-3.12027e-10
1.0669e-08
-6.36564e-11
-4.14247e-10
9.7157e-09
-3.29445e-11
-6.67029e-10
8.73818e-09
-4.1836e-11
-1.42859e-09
8.62163e-09
6.75136e-11
-2.35296e-09
9.11161e-09
1.03581e-10
-1.82824e-09
7.17241e-09
1.11555e-10
-7.11924e-10
5.426e-10
-2.7347e-10
-4.41714e-10
-1.26547e-09
-7.22681e-10
-3.99413e-10
-1.39789e-09
-4.7737e-10
-9.41721e-11
-1.09091e-09
-6.8726e-10
-1.26169e-10
-1.55713e-09
-3.98697e-10
5.97277e-11
-1.29832e-09
-6.61745e-10
6.46017e-11
-1.72745e-09
-3.95571e-10
3.97325e-10
-1.63475e-09
-7.77018e-10
8.72921e-10
-1.95628e-09
-8.1372e-10
1.4595e-09
-2.55277e-09
-7.45058e-10
2.45115e-09
-2.89903e-09
-9.92595e-10
1.0841e-09
-3.29747e-09
1.6477e-09
7.41799e-10
-2.94752e-09
-3.06116e-11
3.68433e-10
-3.19885e-09
-1.00365e-11
1.22324e-10
-3.59761e-09
-7.73786e-11
-1.7219e-10
-4.15951e-09
-1.767e-11
-3.14624e-10
-4.39496e-09
-1.3853e-10
-3.46079e-10
-2.87753e-09
-3.27171e-11
1.14969e-10
5.64848e-09
-5.37979e-10
1.2428e-08
-1.5614e-10
-1.80675e-10
1.48049e-08
-7.82722e-11
-3.46909e-10
1.24118e-08
1.47958e-11
-4.80364e-10
1.08967e-08
-9.37301e-11
-6.66958e-10
9.98333e-09
-8.05698e-11
-1.19437e-09
9.27968e-09
-1.36764e-11
-2.09262e-09
9.52675e-09
-6.44916e-12
-2.79711e-09
9.70875e-09
1.0777e-10
-1.97287e-09
6.32702e-09
2.13307e-11
-1.82543e-09
5.15031e-10
-1.19864e-10
-1.24594e-09
1.14435e-10
-1.9594e-09
-1.00904e-09
8.39633e-11
-1.71875e-09
-6.94091e-10
3.14497e-10
-1.72036e-09
-5.11513e-10
6.39905e-11
-1.8037e-09
-2.67278e-10
1.88135e-10
-1.73069e-09
-1.10469e-10
3.78863e-11
-1.92215e-09
2.41175e-10
6.86236e-11
-2.05502e-09
7.32714e-10
2.52319e-11
-2.47305e-09
1.32913e-09
-3.79311e-10
-2.76988e-09
2.65743e-09
-5.2569e-10
-3.70164e-09
1.42682e-09
-1.76664e-09
-3.00215e-10
8.93009e-10
-2.04961e-09
-3.64107e-10
4.64583e-10
-2.60864e-09
-1.61785e-10
1.96581e-10
-3.23834e-09
-9.12697e-11
-5.61173e-11
-3.8645e-09
-4.23128e-11
-1.65493e-10
-4.08911e-09
-1.96468e-10
-1.73237e-10
-2.80843e-09
-6.13563e-11
1.13775e-10
5.58816e-09
-2.26504e-10
1.27058e-08
-1.63472e-10
-1.61815e-10
1.50169e-08
-4.95606e-11
-3.66326e-10
1.27561e-08
-1.39128e-10
-5.04321e-10
1.11636e-08
-1.28394e-10
-7.62139e-10
1.03172e-08
-7.55761e-11
-1.32432e-09
9.90694e-09
-6.46451e-11
-1.9016e-09
1.02458e-08
-1.41348e-10
-1.9173e-09
9.77613e-09
-5.12875e-11
-3.6284e-10
4.57554e-09
1.97143e-10
2.66946e-11
4.21094e-12
1.21286e-10
-2.69658e-10
-2.87363e-10
6.98151e-10
-4.06937e-10
-4.1309e-10
6.34333e-10
-3.61819e-10
-3.98147e-10
6.67526e-10
-2.79572e-10
-5.06212e-10
4.87956e-10
-1.61429e-10
-4.16131e-10
4.86123e-10
-2.93706e-11
-4.29593e-10
3.35421e-10
1.25871e-10
-3.96519e-10
3.09901e-10
3.40331e-10
-3.66841e-10
1.77614e-10
4.28745e-10
-7.00336e-10
2.32611e-10
4.35091e-10
-8.46719e-10
3.14682e-10
2.76556e-10
-1.71926e-09
1.11159e-10
3.09565e-10
-1.95169e-09
-1.30924e-10
2.12474e-10
-2.44551e-09
-6.60448e-11
9.4129e-11
-3.07522e-09
-4.47711e-11
-3.70341e-11
-3.70237e-09
-3.0971e-11
-9.14819e-11
-3.68112e-09
-3.53547e-10
-6.77165e-11
-2.71826e-09
-1.13932e-10
8.88428e-11
5.48289e-09
-5.11134e-11
1.29453e-08
-1.50203e-10
-1.9115e-10
1.52832e-08
-7.45315e-11
-4.30708e-10
1.31599e-08
-1.63563e-10
-6.2464e-10
1.15005e-08
-1.42316e-10
-9.83457e-10
1.07555e-08
-7.89155e-11
-1.53195e-09
1.05291e-08
-7.32274e-11
-1.95586e-09
1.07468e-08
-7.66113e-11
-1.62012e-09
9.6503e-09
-2.09524e-10
-5.00204e-10
3.69344e-09
-2.37749e-10
-3.90978e-10
-8.82699e-11
-1.67444e-11
-3.30453e-10
-2.73634e-10
-7.42536e-11
-3.34851e-10
-3.78407e-10
-3.02858e-11
-2.72772e-10
-4.60592e-10
3.65704e-13
-2.20134e-10
-5.28021e-10
-3.08301e-11
-1.056e-10
-4.89327e-10
-4.13377e-11
3.98504e-12
-4.72721e-10
-6.64562e-11
1.2736e-10
-5.00728e-10
-1.91667e-11
3.38856e-10
-5.49339e-10
-2.89973e-11
4.43429e-10
-7.64066e-10
-4.08432e-11
6.6409e-10
-9.53315e-10
-1.14064e-10
4.56896e-10
-1.43038e-09
-8.16918e-11
3.48562e-10
-1.74541e-09
-9.79456e-11
2.23439e-10
-2.25918e-09
-6.12051e-11
1.27317e-10
-2.91595e-09
-6.31445e-11
4.54211e-11
-3.56385e-09
-5.66191e-11
1.35278e-13
-3.12519e-09
-5.10638e-10
1.3801e-11
-2.59792e-09
-1.34013e-10
6.94163e-11
5.38281e-09
4.46465e-11
1.31619e-08
-1.46627e-10
-1.81696e-10
1.5497e-08
-3.13933e-11
-4.13142e-10
1.34442e-08
-5.21654e-11
-6.17869e-10
1.17885e-08
-8.27081e-11
-9.79298e-10
1.11764e-08
-5.89716e-11
-1.43231e-09
1.10265e-08
-4.38391e-11
-1.76348e-09
1.10227e-08
5.57948e-11
-1.2221e-09
9.18893e-09
-7.96806e-11
-2.42252e-10
2.8172e-09
-1.03567e-10
-1.06007e-10
1.64528e-12
-2.26159e-10
-1.7749e-10
-5.79741e-11
-1.44177e-10
-2.21775e-10
-2.75035e-10
-5.9087e-11
-2.12062e-10
-4.52626e-10
-1.76785e-11
-1.5792e-10
-5.90468e-10
8.30533e-12
-8.75435e-11
-5.65279e-10
5.57534e-12
-2.06581e-11
-5.35451e-10
-4.15616e-12
3.79157e-11
-5.67007e-10
7.706e-12
1.29106e-10
-6.16273e-10
-2.42567e-11
1.68868e-10
-8.06789e-10
2.96184e-12
2.30065e-10
-9.78203e-10
-3.63098e-11
1.82394e-10
-1.35181e-09
-3.08981e-11
1.62188e-10
-1.66882e-09
-5.63835e-11
1.11266e-10
-2.16854e-09
-3.97222e-11
7.87319e-11
-2.82896e-09
-5.44582e-11
5.48909e-11
-3.47405e-09
-6.59588e-11
2.97868e-11
-2.74396e-09
-3.56133e-10
7.01639e-11
-2.49891e-09
-1.39386e-10
5.03584e-11
5.24972e-09
1.53068e-10
1.33265e-08
-1.13696e-10
-2.00825e-10
1.57296e-08
-3.10866e-11
-4.38547e-10
1.37443e-08
-6.17519e-11
-6.76742e-10
1.20722e-08
-4.49693e-11
-1.05965e-09
1.15861e-08
-2.62987e-11
-1.42803e-09
1.14256e-08
-3.01585e-11
-1.67206e-09
1.11197e-08
1.4753e-10
-9.53421e-10
8.50814e-09
-3.75494e-11
-2.44396e-10
2.29795e-09
-1.89744e-10
-1.79668e-10
1.18265e-11
-7.49081e-11
-1.44827e-10
-3.17287e-11
-6.10858e-11
-1.43592e-10
-1.61225e-10
-1.15046e-10
-1.44867e-10
-3.41568e-10
-1.09783e-10
-1.08706e-10
-5.60076e-10
-6.6553e-11
-5.37667e-11
-5.55407e-10
-6.48115e-11
6.85918e-12
-5.27132e-10
-6.89445e-11
5.66509e-11
-5.63765e-10
-5.30342e-11
1.24843e-10
-6.25001e-10
-5.94638e-11
1.45642e-10
-7.90683e-10
-3.69059e-11
1.87342e-10
-9.53687e-10
-6.62155e-11
1.47012e-10
-1.26911e-09
-4.23712e-11
1.17082e-10
-1.6085e-09
-3.03922e-11
7.76814e-11
-2.08499e-09
-4.41452e-11
6.75622e-11
-2.72228e-09
-9.65572e-11
7.79867e-11
-3.35375e-09
-1.30727e-10
6.25854e-11
-2.54106e-09
-1.87499e-10
9.89444e-11
-2.41302e-09
-1.22245e-10
2.87801e-11
5.0528e-09
2.67245e-10
1.34591e-08
-1.03246e-10
-1.92052e-10
1.59351e-08
-1.27827e-11
-4.09547e-10
1.3918e-08
4.45605e-11
-6.28873e-10
1.23316e-08
-3.94578e-11
-9.40374e-10
1.19134e-08
-1.51508e-11
-1.2626e-09
1.16909e-08
5.74632e-11
-1.51115e-09
1.09983e-08
3.70408e-10
-8.16022e-10
7.59324e-09
2.20017e-10
-2.04333e-10
1.71224e-09
-2.59568e-11
-9.46398e-11
9.9593e-11
-1.97458e-10
-9.7055e-11
1.43433e-10
-1.72745e-10
-1.07151e-10
-1.85507e-11
-1.32578e-10
-1.19955e-10
-2.32503e-10
-9.62611e-11
-7.75706e-11
-5.95964e-10
-6.49555e-12
-4.22266e-11
-5.98478e-10
7.72695e-12
-1.1752e-11
-5.66656e-10
9.04969e-12
1.27611e-11
-5.94418e-10
6.14003e-12
4.4067e-11
-6.57516e-10
1.20843e-12
5.7204e-11
-7.98428e-10
-5.39194e-12
7.70163e-11
-9.51831e-10
-2.16682e-11
6.06606e-11
-1.22471e-09
-2.80421e-11
5.24303e-11
-1.54176e-09
-5.85121e-11
4.29733e-11
-1.97689e-09
-9.86454e-11
5.27768e-11
-2.54781e-09
-1.8428e-10
7.33883e-11
-3.12191e-09
-2.52457e-10
6.23497e-11
-2.39909e-09
-1.30929e-10
9.38367e-11
-2.28983e-09
-1.54681e-10
5.39634e-11
4.79744e-09
2.95379e-10
1.36328e-08
-1.19147e-10
-2.06656e-10
1.60796e-08
6.28509e-11
-4.16295e-10
1.39761e-08
1.52272e-10
-6.57123e-10
1.26209e-08
-4.78296e-11
-9.57807e-10
1.22001e-08
1.45298e-11
-1.22978e-09
1.18475e-08
1.1585e-10
-1.43192e-09
1.07466e-08
4.54392e-10
-6.47519e-10
6.62231e-09
1.86727e-10
-1.35243e-10
1.30651e-09
-1.06536e-10
-5.55834e-11
1.08022e-10
-8.80861e-11
-1.54976e-11
7.68079e-11
2.65405e-11
-2.40064e-11
1.49524e-10
-1.59566e-10
-5.59183e-11
-4.44507e-11
-1.56141e-10
-3.66396e-11
-5.60322e-10
-5.49213e-11
-1.92053e-11
-5.72918e-10
-4.29939e-11
-2.6617e-12
-5.43753e-10
-3.94466e-11
1.06828e-11
-5.64927e-10
-4.2836e-11
2.34266e-11
-6.28651e-10
-4.16082e-11
2.52885e-11
-7.51949e-10
-4.83406e-11
3.28345e-11
-8.93518e-10
-6.58596e-11
3.01686e-11
-1.13601e-09
-8.60325e-11
3.26843e-11
-1.42703e-09
-1.17243e-10
3.13453e-11
-1.80278e-09
-1.7277e-10
3.90932e-11
-2.25656e-09
-2.98997e-10
5.16879e-11
-2.749e-09
-3.85503e-10
9.46385e-11
-2.61022e-09
1.68183e-10
1.13665e-10
-2.14983e-09
-1.59027e-10
8.02972e-11
4.49517e-09
3.3577e-10
1.3668e-08
4.56517e-11
-2.0609e-10
-1.09615e-10
-3.77923e-10
-3.67987e-11
-5.74474e-10
-9.47436e-11
-8.08434e-10
3.70167e-11
-9.89841e-10
1.27146e-10
-1.06895e-09
3.71127e-10
-3.82029e-10
2.53494e-10
-1.31814e-10
1.01926e-10
-5.9649e-11
5.23922e-11
1.70797e-11
1.6157e-10
-3.01369e-12
-8.79309e-11
-3.6117e-11
-7.94992e-11
-2.11671e-11
-1.68508e-11
-1.19348e-11
-1.83702e-11
-6.13449e-12
-1.83516e-11
-2.83746e-12
-2.11702e-11
3.43943e-13
-2.61869e-11
1.62202e-12
-3.62565e-11
2.80697e-12
-4.8241e-11
2.97182e-12
-6.89196e-11
6.8277e-12
-9.5623e-11
1.00031e-11
-1.29557e-10
1.09604e-11
-2.01773e-10
2.44824e-11
-2.66824e-10
7.34452e-11
1.76642e-10
9.06809e-11
-9.64387e-11
5.69103e-11
1.92843e-10
8.0881e-11
-1.72893e-09
6.95506e-09
-7.46906e-09
-3.29114e-09
6.2129e-09
-7.96136e-09
-4.01957e-09
5.22178e-09
-7.33501e-09
-4.97843e-09
5.00731e-09
-6.71665e-09
-5.77072e-09
4.71403e-09
-6.57563e-09
-6.54264e-09
4.4727e-09
-6.26841e-09
-7.26436e-09
4.23987e-09
-6.12806e-09
-7.94068e-09
3.97034e-09
-5.88488e-09
-8.58882e-09
3.78845e-09
-5.71749e-09
-9.19214e-09
3.69766e-09
-5.65205e-09
-9.76755e-09
3.69269e-09
-5.69401e-09
-1.02863e-08
3.73821e-09
-5.83814e-09
-1.07187e-08
3.81413e-09
-6.00943e-09
-1.09954e-08
3.92603e-09
-6.44399e-09
-1.11159e-08
4.05685e-09
-6.93253e-09
-1.0968e-08
4.20801e-09
-7.7103e-09
-1.04345e-08
4.34473e-09