/*--------------------------------*- C++ -*----------------------------------*\
| =========                 |                                                 |
| \\      /  F ield         | OpenFOAM: The Open Source CFD Toolbox           |
|  \\    /   O peration     | Version:  2.3.0                                 |
|   \\  /    A nd           | Web:      www.OpenFOAM.org                      |
|    \\/     M anipulation  |                                                 |
\*---------------------------------------------------------------------------*/
FoamFile
{
    version     2.0;
    format      ascii;
    class       volScalarField;
    location    "0.3";
    object      k;
}
// * * * * * * * * * * * * * * * * * * * * * * * * * * * * * * * * * * * * * //

dimensions      [0 2 -2 0 0 0 0];

internalField   nonuniform List<scalar> 
2268
(
0.00614419
0.0110076
0.0172092
0.0225399
0.0271358
0.0314783
0.0357836
0.0401242
0.0444759
0.0487514
0.0528223
0.0565316
0.0596992
0.0621216
0.0635652
0.0636865
0.062621
0.0605075
0.0571376
0.0526247
0.0471183
0.037716
0.0284288
0.00943283
0.0234165
0.0359417
0.0462413
0.0552979
0.063779
0.0720451
0.080231
0.0882998
0.0961029
0.103426
0.11002
0.115622
0.119983
0.122911
0.124287
0.123786
0.121974
0.119793
0.118531
0.117701
0.105563
0.0568808
0.0111965
0.0297427
0.0442779
0.0568109
0.068071
0.0786575
0.0889285
0.0990146
0.108871
0.118339
0.127191
0.135165
0.141999
0.147474
0.151478
0.154081
0.155401
0.155971
0.156364
0.157229
0.157696
0.145952
0.0838518
0.0130075
0.033927
0.049734
0.0635765
0.076239
0.0882367
0.0998691
0.111233
0.122271
0.132822
0.142665
0.151553
0.159254
0.165597
0.170563
0.174375
0.177465
0.180562
0.184034
0.187556
0.188806
0.178553
0.109636
0.0144973
0.0372006
0.0538139
0.0684875
0.0821366
0.0951956
0.10788
0.120237
0.132189
0.143576
0.154194
0.163822
0.172267
0.179419
0.185344
0.190384
0.195163
0.200585
0.206998
0.213516
0.216458
0.208495
0.130405
0.0156501
0.039787
0.0569688
0.072225
0.0866178
0.100518
0.114057
0.127229
0.139935
0.152021
0.1633
0.173585
0.182729
0.190683
0.197587
0.203869
0.210272
0.217813
0.226944
0.236633
0.242533
0.238388
0.150876
0.0165303
0.041743
0.0593797
0.075113
0.0901167
0.104714
0.118967
0.132823
0.146171
0.15886
0.170725
0.181616
0.191435
0.200195
0.208093
0.215615
0.223568
0.233029
0.244623
0.257487
0.267596
0.269719
0.172905
0.0171722
0.0431526
0.0611709
0.0773485
0.0928969
0.108096
0.122958
0.1374
0.151298
0.164515
0.176909
0.188367
0.198842
0.208405
0.217301
0.226039
0.235446
0.246623
0.260374
0.276152
0.291242
0.302296
0.200564
0.00710036
0.0159336
0.020433
0.0232232
0.0249967
0.0258246
0.0255125
0.024456
0.0229158
0.0211244
0.0193408
0.017795
0.0164195
0.0151325
0.0138756
0.0124643
0.0106349
0.00805188
0.00543207
0.019088
0.0372267
0.0444535
0.0491728
0.0520561
0.0530375
0.0524443
0.0506281
0.0479379
0.0447467
0.0413952
0.0382012
0.0353304
0.032694
0.0300508
0.0270844
0.0232857
0.0178453
0.00901544
0.027894
0.0520283
0.0603624
0.0653021
0.0678712
0.0684159
0.0672552
0.0647235
0.0612108
0.0571394
0.0528928
0.0488149
0.0451336
0.0417661
0.0384405
0.034748
0.0300541
0.0233022
0.0112719
0.0361958
0.0652275
0.0741475
0.0789611
0.0810016
0.0808448
0.0789074
0.075563
0.0712382
0.0663741
0.0613625
0.0565642
0.0522226
0.0482623
0.0444063
0.0401963
0.0349156
0.0273092
0.0130475
0.0446472
0.0785581
0.0879147
0.0924746
0.0938518
0.0927186
0.0897227
0.0853542
0.0800911
0.0743752
0.0685813
0.0630875
0.0581114
0.0535819
0.0492275
0.0445619
0.0388048
0.0305253
0.0145022
0.0537902
0.0929926
0.103144
0.107329
0.107713
0.105164
0.100679
0.0949548
0.0885335
0.0818311
0.0751824
0.0689705
0.0633434
0.0582309
0.0533713
0.0482616
0.0420696
0.033207
0.0157299
0.0645089
0.10998
0.122252
0.125578
0.12412
0.119267
0.112532
0.104914
0.0969914
0.0890908
0.0814879
0.0745016
0.068185
0.062459
0.0570722
0.0515092
0.0448928
0.0354977
0.016793
0.0814911
0.136216
0.150655
0.151179
0.145613
0.136581
0.126182
0.11575
0.10578
0.0963725
0.0876924
0.0798443
0.0727861
0.0664083
0.0604702
0.0544376
0.0473941
0.0374966
0.0177317
0.01779
0.0443755
0.0628534
0.0796809
0.095996
0.112013
0.127686
0.142904
0.157542
0.171481
0.184619
0.196902
0.208366
0.219176
0.229654
0.240338
0.25203
0.265644
0.282174
0.301556
0.322849
0.341914
0.280557
0.0184742
0.0452038
0.0641865
0.0818537
0.0990932
0.116018
0.132539
0.148539
0.163919
0.178601
0.192534
0.205736
0.218338
0.230607
0.242913
0.255715
0.269575
0.284988
0.302543
0.322032
0.342056
0.358003
0.344142
0.0192541
0.0457955
0.0652604
0.0837669
0.101896
0.11963
0.136845
0.153445
0.169378
0.184623
0.199179
0.213116
0.226634
0.240076
0.253835
0.268238
0.283581
0.300048
0.317578
0.335877
0.353429
0.367425
0.369613
0.0204367
0.0463716
0.0663817
0.0859642
0.105151
0.123705
0.141511
0.15856
0.174896
0.190577
0.205666
0.220269
0.234618
0.249091
0.264097
0.279876
0.296544
0.314047
0.331957
0.349871
0.366446
0.379705
0.386081
0.022796
0.0468071
0.0677017
0.0891197
0.109752
0.129158
0.147442
0.164816
0.181471
0.197562
0.213227
0.228621
0.24397
0.259606
0.275955
0.293332
0.311867
0.331406
0.351326
0.370631
0.388135
0.401758
0.409115
0.0281925
0.0482245
0.0710045
0.0951434
0.117321
0.13738
0.155963
0.173583
0.190562
0.207128
0.223515
0.239975
0.256738
0.274009
0.292129
0.311833
0.333475
0.356918
0.381482
0.405432
0.426312
0.440627
0.44559
0.0379532
0.0550931
0.0812414
0.107094
0.129776
0.149843
0.168397
0.186092
0.203283
0.220234
0.237323
0.254973
0.273441
0.292691
0.313332
0.33641
0.362391
0.391355
0.422868
0.455395
0.484114
0.501232
0.49834
0.0481761
0.075851
0.102417
0.125573
0.144314
0.162686
0.180342
0.197429
0.214245
0.231021
0.247982
0.265514
0.284202
0.304131
0.326001
0.350038
0.376203
0.404646
0.435022
0.466178
0.496152
0.522278
0.536702
0.0555027
0.103258
0.128368
0.1422
0.155945
0.171553
0.187586
0.203395
0.218929
0.234297
0.249632
0.265203
0.281595
0.299482
0.319156
0.340441
0.363148
0.387429
0.413576
0.441764
0.471649
0.500999
0.527195
0.0548083
0.105857
0.134215
0.148933
0.16291
0.177963
0.193415
0.208635
0.223396
0.237709
0.251717
0.265709
0.280188
0.295763
0.312809
0.331337
0.351263
0.372674
0.395919
0.421649
0.450742
0.483023
0.513871
0.0516165
0.0991757
0.1288
0.148372
0.165091
0.181124
0.196781
0.211882
0.226282
0.239984
0.253142
0.266062
0.279206
0.293117
0.308239
0.32481
0.342949
0.362816
0.384737
0.40932
0.437441
0.469212
0.501105
0.0513784
0.0954095
0.124703
0.146306
0.164697
0.18162
0.197623
0.212761
0.226984
0.240312
0.252897
0.265037
0.277166
0.289797
0.303429
0.318467
0.335234
0.354047
0.375293
0.399484
0.427185
0.458178
0.489396
0.0523208
0.0948418
0.123046
0.144727
0.163444
0.180549
0.196516
0.211439
0.225304
0.238137
0.250074
0.261389
0.272484
0.283855
0.296031
0.309519
0.324794
0.342308
0.362512
0.385822
0.41248
0.441931
0.471463
0.0535878
0.0957363
0.122767
0.143687
0.161909
0.178575
0.194047
0.208386
0.22157
0.233614
0.244635
0.25488
0.264722
0.27464
0.285178
0.296901
0.310362
0.32608
0.344504
0.365913
0.390242
0.416728
0.443205
0.0546933
0.0969981
0.122957
0.142882
0.16025
0.176111
0.190752
0.204194
0.216398
0.227367
0.237197
0.246115
0.254474
0.262744
0.271475
0.281256
0.292667
0.30623
0.322336
0.341117
0.362279
0.38499
0.407926
0.0554013
0.0979545
0.123024
0.142002
0.15844
0.173349
0.186984
0.199349
0.210392
0.220106
0.228579
0.236024
0.242787
0.249337
0.25623
0.264063
0.273411
0.284771
0.298484
0.314608
0.332804
0.352408
0.373177
0.0556256
0.0982306
0.122605
0.140793
0.156359
0.170313
0.182908
0.194146
0.203978
0.212396
0.219485
0.225459
0.230666
0.235578
0.240759
0.246806
0.254287
0.263681
0.27533
0.289361
0.305636
0.323906
0.344945
0.055319
0.0976731
0.121513
0.139045
0.153845
0.166919
0.178531
0.188696
0.197381
0.204579
0.210384
0.215016
0.21883
0.222305
0.226012
0.230546
0.236474
0.244288
0.254393
0.267108
0.282667
0.301331
0.324422
0.0543539
0.0962324
0.119609
0.136612
0.150767
0.163074
0.173813
0.183023
0.190685
0.196814
0.201516
0.205018
0.207679
0.209982
0.212502
0.215835
0.220555
0.227191
0.236254
0.2483
0.263969
0.283974
0.309688
0.0528187
0.0939352
0.116843
0.133389
0.146998
0.158657
0.16866
0.177069
0.183888
0.189152
0.192976
0.195594
0.19737
0.198785
0.200406
0.202833
0.206656
0.212456
0.220851
0.232609
0.248706
0.270207
0.298343
0.0508262
0.0908735
0.113259
0.129374
0.142506
0.153616
0.163013
0.17078
0.176944
0.181553
0.184734
0.186722
0.187874
0.188666
0.189659
0.191455
0.19466
0.199888
0.207841
0.219442
0.23591
0.25856
0.288434
0.0485036
0.0871915
0.108974
0.124646
0.137336
0.147972
0.15687
0.164136
0.169813
0.173965
0.17672
0.17831
0.17908
0.179489
0.180087
0.181472
0.184261
0.189096
0.196724
0.208141
0.224685
0.247841
0.27853
0.0459849
0.0830715
0.104156
0.119349
0.131602
0.141806
0.150285
0.157159
0.16249
0.166349
0.168865
0.170257
0.170852
0.171086
0.171487
0.17264
0.175161
0.1797
0.187009
0.198086
0.214282
0.237187
0.267824
0.0434029
0.078717
0.0990106
0.113671
0.125469
0.135258
0.143364
0.149923
0.155011
0.158703
0.161124
0.162478
0.163066
0.163294
0.16366
0.164724
0.167088
0.171386
0.178342
0.188895
0.204331
0.226261
0.255942
0.0408793
0.0743352
0.0937587
0.107828
0.119138
0.128505
0.136258
0.142547
0.147456
0.151066
0.153494
0.154925
0.15563
0.15598
0.156434
0.157518
0.159805
0.163893
0.170454
0.180328
0.194661
0.214987
0.242762
0.0385167
0.0701201
0.0886187
0.102043
0.112825
0.12175
0.129148
0.135182
0.139946
0.14352
0.146013
0.147589
0.148491
0.149047
0.149673
0.150853
0.153115
0.157014
0.163149
0.172236
0.185236
0.203486
0.228492
0.0363928
0.0662389
0.0837906
0.0965286
0.106744
0.115199
0.122227
0.128001
0.132623
0.136174
0.138753
0.140505
0.141639
0.142445
0.143288
0.144605
0.146874
0.150593
0.156285
0.164534
0.176088
0.192006
0.213635
0.0345602
0.0628236
0.0794439
0.0914732
0.101093
0.109049
0.115685
0.12118
0.125644
0.129159
0.131816
0.133739
0.135106
0.136166
0.137238
0.138703
0.140986
0.144529
0.149774
0.15718
0.167286
0.180834
0.198849
0.0330516
0.0599692
0.0757115
0.0870319
0.0960382
0.103474
0.109691
0.114882
0.119162
0.122613
0.125317
0.12738
0.128953
0.130244
0.131525
0.133125
0.135414
0.138774
0.143576
0.15017
0.158906
0.170222
0.184753
0.0318888
0.05774
0.0726896
0.0833217
0.0917108
0.0986114
0.10439
0.10925
0.113312
0.116661
0.119369
0.121527
0.123258
0.124737
0.126189
0.127893
0.130166
0.133334
0.137705
0.143536
0.151028
0.160359
0.17179
0.0310971
0.0561814
0.0704441
0.0804234
0.0882024
0.0945612
0.0998856
0.104391
0.108204
0.111409
0.114073
0.116272
0.118107
0.119718
0.121292
0.12306
0.125288
0.128252
0.132206
0.137338
0.143736
0.151377
0.160209
0.0307183
0.055336
0.0690208
0.078387
0.0855681
0.091384
0.0962438
0.100375
0.10391
0.106933
0.109506
0.111692
0.113572
0.115259
0.116902
0.11869
0.120844
0.123594
0.12715
0.131651
0.137108
0.14336
0.150112
0.0308234
0.0552584
0.0684578
0.0772402
0.0838323
0.0891048
0.0934922
0.0972335
0.100466
0.103273
0.105713
0.107837
0.109709
0.111419
0.113082
0.11485
0.116903
0.119432
0.122611
0.126547
0.131207
0.136347
0.141503
0.0315223
0.0560246
0.0687934
0.0769958
0.0829943
0.0877177
0.0916243
0.0949623
0.0978718
0.100435
0.102704
0.104724
0.106544
0.108231
0.109874
0.11159
0.113523
0.115829
0.118654
0.122084
0.126071
0.130332
0.134304
0.032971
0.0577345
0.0700665
0.0776528
0.0830317
0.0871897
0.0906034
0.0935247
0.096093
0.0983879
0.100458
0.10234
0.104072
0.105701
0.107294
0.108937
0.110742
0.112832
0.115328
0.118304
0.121714
0.125274
0.128378
0.0353816
0.0605035
0.0723044
0.079188
0.0838962
0.0874613
0.0903656
0.0928565
0.0950683
0.0970756
0.0989226
0.10064
0.102254
0.103801
0.105324
0.106886
0.108567
0.11046
0.112661
0.115233
0.118137
0.121114
0.123566
0.0390386
0.0644429
0.0754984
0.0815388
0.0855048
0.0884431
0.0908209
0.0928699
0.0947127
0.0964168
0.098021
0.0995503
0.101025
0.102469
0.10391
0.105391
0.106963
0.108693
0.110648
0.112875
0.115338
0.117811
0.119731
0.0442939
0.0696298
0.0795707
0.0845824
0.087728
0.0900108
0.0918529
0.0934554
0.0949229
0.0963125
0.097657
0.0989771
0.100289
0.101608
0.102954
0.104353
0.105838
0.107447
0.109223
0.111188
0.113297
0.115338
0.116789
0.051519
0.0760649
0.0843383
0.0881194
0.0903853
0.0920063
0.0933219
0.0944875
0.0955829
0.0966521
0.0977217
0.0988089
0.0999275
0.101091
0.102314
0.103615
0.105015
0.106539
0.108206
0.110015
0.111901
0.113641
0.114711
0.0611106
0.0836036
0.0894732
0.0918687
0.0932526
0.0942487
0.0950772
0.0958359
0.0965758
0.0973268
0.0981083
0.0989349
0.0998196
0.100776
0.101819
0.102967
0.104239
0.105659
0.107241
0.108979
0.110799
0.112462
0.113399
0.073777
0.0917239
0.0944504
0.09547
0.0960767
0.0965463
0.0969647
0.0973712
0.0977892
0.0982344
0.0987192
0.0992551
0.0998536
0.100528
0.101295
0.102175
0.103192
0.104374
0.105752
0.107344
0.109119
0.110894
0.112122
0.091449
0.0987105
0.0985396
0.0985388
0.0986167
0.0987211
0.098838
0.0989661
0.099109
0.099271
0.0994572
0.0996732
0.0999257
0.100223
0.100577
0.101
0.101513
0.102141
0.102918
0.103888
0.105098
0.106554
0.108057
0.253594
0.220348
0.180877
0.144469
0.318009
0.293648
0.27594
0.264091
0.359548
0.34479
0.327408
0.310993
0.383672
0.37775
0.367773
0.354278
0.408741
0.405784
0.399894
0.390672
0.443633
0.440282
0.435117
0.427728
0.491862
0.486571
0.480892
0.474094
0.536274
0.534332
0.532313
0.529033
0.537151
0.542411
0.547501
0.553628
0.528067
0.53675
0.54437
0.55145
0.518097
0.529228
0.538497
0.546241
0.50696
0.519017
0.529271
0.537807
0.488961
0.501672
0.513312
0.523948
0.460162
0.473613
0.487655
0.502761
0.424713
0.439658
0.457684
0.480055
0.391418
0.409323
0.433179
0.465218
0.366302
0.387808
0.417461
0.458447
0.349019
0.372648
0.404921
0.449835
0.336561
0.360078
0.39108
0.434064
0.326678
0.348851
0.37638
0.413386
0.317731
0.338664
0.362579
0.392294
0.308397
0.328708
0.350162
0.374616
0.297952
0.317901
0.337685
0.357961
0.285847
0.305629
0.324723
0.342708
0.271609
0.291079
0.310154
0.327812
0.255165
0.273733
0.292704
0.311003
0.237044
0.253844
0.271873
0.290372
0.218294
0.232565
0.248561
0.265932
0.2001
0.211498
0.224712
0.239713
0.183376
0.192003
0.202275
0.21436
0.16862
0.174849
0.182453
0.191708
0.155996
0.16029
0.165675
0.172495
0.145467
0.148273
0.151908
0.156752
0.136876
0.138586
0.140893
0.144194
0.129981
0.130919
0.13226
0.134395
0.124505
0.124916
0.125576
0.12686
0.120189
0.120231
0.120411
0.121077
0.116847
0.116596
0.116404
0.116597
0.114397
0.113869
0.113333
0.113099
0.11283
0.112055
0.111169
0.110488
0.111767
0.111025
0.110008
0.108994
0.108572
0.108477
0.108059
0.107525
0.150761
0.198009
0.221485
0.209537
0.190092
0.169238
0.149946
0.133425
0.119451
0.107413
0.0969943
0.0877969
0.0796096
0.0722464
0.0654511
0.0586614
0.0509384
0.0402892
0.0190532
0.245379
0.253447
0.298493
0.32784
0.302941
0.250598
0.203525
0.168112
0.142961
0.124764
0.110612
0.0988845
0.0887811
0.0798432
0.0716851
0.0636949
0.0549297
0.0432718
0.0204919
0.286796
0.28282
0.30102
0.345394
0.386976
0.373554
0.301077
0.229963
0.179828
0.148074
0.126909
0.111227
0.0985601
0.087748
0.0779989
0.0686367
0.0586881
0.0459583
0.021806
0.326108
0.307183
0.307325
0.330492
0.373343
0.415469
0.408311
0.329287
0.242824
0.184056
0.148723
0.126027
0.109556
0.0963474
0.0847394
0.0738119
0.0625043
0.048562
0.0230603
0.368052
0.342462
0.327212
0.330768
0.355711
0.396083
0.430357
0.4158
0.331514
0.240428
0.180556
0.14515
0.122538
0.105968
0.0921132
0.0794196
0.0665801
0.0512483
0.0243228
0.410222
0.385088
0.361652
0.349363
0.355556
0.380786
0.416392
0.436998
0.403046
0.312505
0.226104
0.171187
0.13866
0.116951
0.100215
0.0855251
0.0710085
0.0541151
0.0256359
0.459053
0.435236
0.407893
0.384288
0.373661
0.381565
0.405326
0.431701
0.43033
0.372452
0.281465
0.206306
0.158894
0.129567
0.109024
0.0920606
0.0757644
0.0571832
0.0270084
0.51706
0.494455
0.464593
0.431751
0.406464
0.397276
0.406157
0.425764
0.435589
0.404383
0.328719
0.244953
0.182732
0.143762
0.118377
0.098836
0.0807114
0.0603953
0.028429
0.560295
0.551253
0.527114
0.485185
0.447101
0.422694
0.416815
0.425841
0.435706
0.419094
0.360153
0.278993
0.207239
0.158716
0.127883
0.105552
0.0856256
0.0636276
0.0298668
0.562085
0.569183
0.568201
0.533094
0.486746
0.450625
0.432348
0.431061
0.436596
0.425802
0.378975
0.304933
0.22934
0.173128
0.136961
0.111839
0.0902347
0.0667129
0.031279
0.557304
0.569052
0.585288
0.565763
0.517557
0.474776
0.447753
0.438113
0.438289
0.428996
0.390304
0.323541
0.247511
0.185825
0.144996
0.117321
0.0942683
0.0694743
0.0326142
0.550038
0.563092
0.586469
0.581255
0.536918
0.491987
0.459891
0.444406
0.439965
0.430482
0.397339
0.33664
0.261382
0.195975
0.15145
0.12168
0.0975046
0.0717616
0.033824
0.54119
0.55892
0.581376
0.5846
0.547135
0.50242
0.467827
0.448847
0.441271
0.431378
0.402207
0.345744
0.27096
0.203035
0.155942
0.124709
0.0998088
0.0734765
0.034873
0.531386
0.559999
0.580757
0.584253
0.551616
0.507225
0.471825
0.451331
0.442324
0.432742
0.406387
0.351602
0.276212
0.206764
0.158332
0.126367
0.101161
0.0745886
0.0357404
0.527336
0.572788
0.589213
0.584431
0.551746
0.507938
0.47299
0.452484
0.443751
0.435684
0.410298
0.353913
0.277147
0.207358
0.158821
0.126816
0.101664
0.0751365
0.0364195
0.536591
0.605506
0.612725
0.589551
0.551083
0.507786
0.473799
0.453788
0.446104
0.44008
0.412295
0.352016
0.274469
0.205687
0.158008
0.12642
0.101522
0.0752082
0.0369148
0.55161
0.654896
0.656895
0.607285
0.556093
0.511319
0.478133
0.457806
0.448828
0.441624
0.409273
0.346639
0.270114
0.203284
0.156789
0.125651
0.100972
0.0749035
0.037235
0.553498
0.709227
0.725702
0.645534
0.574061
0.521278
0.487691
0.467771
0.452486
0.436892
0.401427
0.340557
0.26676
0.201893
0.156071
0.124933
0.100203
0.0742918
0.0373829
0.535571
0.744896
0.818503
0.70914
0.608433
0.538713
0.498455
0.480972
0.459404
0.433354
0.395653
0.338095
0.267122
0.202941
0.156453
0.124474
0.0992725
0.0733804
0.0373495
0.501433
0.731064
0.896778
0.788471
0.656594
0.564556
0.50911
0.483567
0.465838
0.436991
0.398098
0.343171
0.273134
0.207031
0.157963
0.124154
0.0980694
0.0721073
0.0371133
0.459411
0.665234
0.93113
0.882919
0.718377
0.600421
0.52598
0.486644
0.467885
0.444392
0.407851
0.355961
0.284283
0.213298
0.159867
0.123502
0.0963378
0.070365
0.0366478
0.423603
0.578563
0.845051
0.963358
0.795325
0.646723
0.551541
0.497442
0.470684
0.45184
0.421463
0.37262
0.29706
0.219271
0.160759
0.121821
0.0937718
0.0680565
0.0359356
0.393489
0.503197
0.70538
0.946584
0.871397
0.699622
0.584006
0.515174
0.479137
0.461466
0.436926
0.387821
0.306116
0.221591
0.159031
0.118467
0.0901661
0.0651655
0.0349829
0.369438
0.441001
0.58111
0.779841
0.885588
0.75927
0.621486
0.537441
0.491507
0.472442
0.452255
0.398064
0.307663
0.217871
0.153709
0.113188
0.0855562
0.0618086
0.033827
0.351115
0.397621
0.482988
0.624865
0.78825
0.789145
0.66025
0.561205
0.504447
0.479836
0.461668
0.401037
0.300393
0.207691
0.144939
0.106288
0.0802556
0.0582278
0.0325314
0.334849
0.371386
0.419913
0.500743
0.616459
0.706055
0.68257
0.584268
0.515906
0.482589
0.460828
0.392913
0.283869
0.192074
0.133793
0.098519
0.0747806
0.0547322
0.0311707
0.315806
0.352827
0.388158
0.429052
0.490049
0.568309
0.608114
0.572511
0.513601
0.478186
0.449728
0.372519
0.259778
0.173884
0.122117
0.0909181
0.0697132
0.0515694
0.0299359
0.291405
0.330846
0.367342
0.398029
0.428174
0.466501
0.504857
0.511851
0.488665
0.461795
0.424899
0.337247
0.229991
0.155551
0.111406
0.0843569
0.0655326
0.0489946
0.0289037
0.262914
0.301027
0.338926
0.37203
0.398678
0.421009
0.443273
0.456575
0.451834
0.429189
0.378611
0.287667
0.197777
0.138205
0.102056
0.0790292
0.0623285
0.0470308
0.0280466
0.233844
0.266822
0.300764
0.332238
0.358876
0.379425
0.39502
0.402639
0.396251
0.368857
0.312601
0.235051
0.167895
0.123025
0.0942999
0.0749193
0.0600321
0.0456201
0.0273355
0.207184
0.233693
0.2608
0.285912
0.307156
0.323948
0.334656
0.336316
0.32471
0.295214
0.246623
0.190174
0.143469
0.110679
0.0881429
0.0718586
0.0584665
0.044652
0.0267428
0.184341
0.20481
0.225214
0.243416
0.25809
0.268926
0.273836
0.270689
0.257007
0.23113
0.195113
0.156979
0.125093
0.101134
0.0833899
0.0696075
0.057418
0.0440012
0.0262443
0.165559
0.181016
0.195988
0.208636
0.218258
0.224016
0.224556
0.218717
0.205567
0.185158
0.159806
0.134064
0.111799
0.0939319
0.0797538
0.0679288
0.0566936
0.0435583
0.0258214
0.150559
0.162037
0.172892
0.181573
0.187664
0.190184
0.188387
0.181787
0.170312
0.15464
0.136529
0.118431
0.102237
0.0885223
0.0769551
0.0666308
0.0561507
0.0432433
0.0254604
0.138858
0.147241
0.15501
0.160957
0.16459
0.16523
0.162456
0.156136
0.146529
0.134387
0.120939
0.107572
0.0952928
0.0844385
0.074769
0.0655805
0.0557013
0.0430064
0.0251525
0.129884
0.135908
0.141347
0.14532
0.147283
0.146837
0.143761
0.138078
0.13012
0.120527
0.110158
0.0998558
0.0901933
0.0813316
0.073033
0.0646982
0.0553029
0.0428223
0.0248919
0.12303
0.127288
0.131025
0.133506
0.134322
0.13324
0.130155
0.125148
0.118522
0.110779
0.102521
0.0942895
0.0864175
0.0789491
0.0716361
0.0639432
0.0549428
0.0426815
0.0246749
0.117715
0.120625
0.123082
0.124462
0.124507
0.123082
0.120134
0.115751
0.110178
0.103794
0.0970264
0.0902313
0.0836003
0.0771086
0.0705053
0.0632982
0.0546239
0.0425821
0.0244985
0.113471
0.115237
0.116647
0.117205
0.116764
0.115217
0.112516
0.108718
0.104009
0.0986651
0.0929894
0.087222
0.0814712
0.0756761
0.0695917
0.0627579
0.0543546
0.0425245
0.02436
0.110042
0.110566
0.110948
0.110843
0.110127
0.108641
0.10629
0.103084
0.0991449
0.0946664
0.0898602
0.084888
0.079808
0.0745423
0.0688568
0.0623182
0.0541393
0.0425033
0.0242545
0.107666
0.106257
0.105464
0.104805
0.103962
0.102647
0.100701
0.0980888
0.0948747
0.0911829
0.0871517
0.0828814
0.0783923
0.0735948
0.0682631
0.0619845
0.0539987
0.042526
0.0241794
0.106772
0.102506
0.100764
0.099764
0.0988492
0.0976338
0.0959496
0.0937515
0.0910727
0.0879896
0.0845848
0.0809086
0.0769462
0.0725905
0.0676132
0.0616077
0.0538258
0.0425277
0.024112
)
;

boundaryField
{
    leftWall
    {
        type            kqRWallFunction;
        value           nonuniform List<scalar> 
50
(
0.00614419
0.00943283
0.0111965
0.0130075
0.0144973
0.0156501
0.0165303
0.0171722
0.01779
0.0184742
0.0192541
0.0204367
0.022796
0.0281925
0.0379532
0.0481761
0.0555027
0.0548083
0.0516165
0.0513784
0.0523208
0.0535878
0.0546933
0.0554013
0.0556256
0.055319
0.0543539
0.0528187
0.0508262
0.0485036
0.0459849
0.0434029
0.0408793
0.0385167
0.0363928
0.0345602
0.0330516
0.0318888
0.0310971
0.0307183
0.0308234
0.0315223
0.032971
0.0353816
0.0390386
0.0442939
0.051519
0.0611106
0.073777
0.091449
)
;
    }
    rightWall
    {
        type            kqRWallFunction;
        value           nonuniform List<scalar> 
50
(
0.00543207
0.00901544
0.0112719
0.0130475
0.0145022
0.0157299
0.016793
0.0177317
0.0190532
0.0204919
0.021806
0.0230603
0.0243228
0.0256359
0.0270084
0.028429
0.0298668
0.031279
0.0326142
0.033824
0.034873
0.0357404
0.0364195
0.0369148
0.037235
0.0373829
0.0373495
0.0371133
0.0366478
0.0359356
0.0349829
0.033827
0.0325314
0.0311707
0.0299359
0.0289037
0.0280466
0.0273355
0.0267428
0.0262443
0.0258214
0.0254604
0.0251525
0.0248919
0.0246749
0.0244985
0.02436
0.0242545
0.0241794
0.024112
)
;
    }
    lowerWall
    {
        type            kqRWallFunction;
        value           nonuniform List<scalar> 
62
(
0.00614419
0.0110076
0.0172092
0.0225399
0.0271358
0.0314783
0.0357836
0.0401242
0.0444759
0.0487514
0.0528223
0.0565316
0.0596992
0.0621216
0.0635652
0.0636865
0.062621
0.0605075
0.0571376
0.0526247
0.0471183
0.037716
0.0284288
0.0284288
0.0568808
0.0838518
0.109636
0.130405
0.150876
0.172905
0.200564
0.253594
0.220348
0.180877
0.144469
0.00710036
0.019088
0.027894
0.0361958
0.0446472
0.0537902
0.0645089
0.0814911
0.00710036
0.0159336
0.020433
0.0232232
0.0249967
0.0258246
0.0255125
0.024456
0.0229158
0.0211244
0.0193408
0.017795
0.0164195
0.0151325
0.0138756
0.0124643
0.0106349
0.00805188
0.00543207
)
;
    }
    atmosphere
    {
        type            inletOutlet;
        inletValue      uniform 0.1;
        value           nonuniform List<scalar> 
46
(
0.1
0.1
0.1
0.1
0.1
0.1
0.1
0.1
0.1
0.1
0.1
0.1
0.1
0.1
0.1
0.1
0.1
0.1
0.1
0.1
0.1
0.1
0.1
0.1
0.1
0.1
0.1
0.1
0.102506
0.100764
0.099764
0.0988492
0.0976338
0.0959496
0.0937515
0.0910727
0.0879896
0.0845848
0.0809086
0.0769462
0.0725905
0.0676132
0.0616077
0.0538258
0.0425277
0.024112
)
;
    }
    defaultFaces
    {
        type            empty;
    }
}


// ************************************************************************* //
