/*--------------------------------*- C++ -*----------------------------------*\
| =========                 |                                                 |
| \\      /  F ield         | OpenFOAM: The Open Source CFD Toolbox           |
|  \\    /   O peration     | Version:  2.3.0                                 |
|   \\  /    A nd           | Web:      www.OpenFOAM.org                      |
|    \\/     M anipulation  |                                                 |
\*---------------------------------------------------------------------------*/
FoamFile
{
    version     2.0;
    format      ascii;
    class       volScalarField;
    location    "0.3";
    object      p;
}
// * * * * * * * * * * * * * * * * * * * * * * * * * * * * * * * * * * * * * //

dimensions      [1 -1 -2 0 0 0 0];

internalField   nonuniform List<scalar> 
2268
(
1230.28
1235.14
1247.32
1262.83
1276.93
1288.7
1297.95
1304.95
1310.07
1313.7
1316.38
1318.87
1322.33
1328.52
1340.19
1361.84
1398.76
1455.61
1532.73
1619.31
1695.65
1719.77
1773.67
1170.32
1173.36
1183.9
1197.33
1209.92
1220.56
1228.94
1235.21
1239.67
1242.77
1245.1
1247.52
1251.3
1258.32
1271.37
1294.34
1333.19
1393.19
1476.25
1571.51
1654.33
1668.59
1718.7
1109.53
1112.8
1121.28
1132.16
1142.52
1151.29
1158.11
1163.01
1166.28
1168.39
1170.02
1172.15
1176.15
1184.06
1198.71
1223.93
1265
1326.98
1412.04
1510.18
1599.1
1622.87
1678.61
1048.12
1052.27
1059.55
1068.35
1076.56
1083.36
1088.41
1091.72
1093.56
1094.45
1095.13
1096.66
1100.53
1108.81
1124.34
1150.71
1192.44
1253.93
1337.01
1433.1
1524.72
1570.33
1652.27
986.1
991.345
997.997
1005.21
1011.64
1016.66
1020.03
1021.77
1022.18
1021.8
1021.4
1022.12
1025.46
1033.49
1048.98
1075.19
1115.92
1174.77
1253.1
1344.29
1434.73
1503.51
1611.26
923.469
929.706
935.955
941.878
946.794
950.247
952.075
952.349
951.38
949.723
948.194
947.922
950.432
957.75
972.452
997.47
1035.92
1090.57
1162.25
1245.93
1329.89
1416.94
1536.89
860.258
867.302
873.166
877.923
881.475
883.505
883.918
882.819
880.532
877.625
874.922
873.546
874.999
881.23
894.619
917.702
952.909
1002.18
1065.53
1138.42
1208.36
1300.69
1395.43
796.512
804.131
809.548
813.171
815.451
816.192
815.327
812.977
809.476
805.388
801.528
798.994
799.234
804.102
815.756
836.283
867.417
910.207
963.498
1021.57
1068.64
1131.38
1142.55
10.0706
10.0755
10.0889
10.1008
10.1129
10.1245
10.132
10.1329
10.1258
10.1114
10.0907
10.0666
10.041
10.016
9.99316
9.97406
9.95967
9.95054
9.94655
10.0114
10.0187
10.0326
10.0418
10.0519
10.0622
10.069
10.0698
10.0631
10.0493
10.0295
10.0061
9.98105
9.95639
9.93386
9.91485
9.90042
9.89118
9.88704
9.94779
9.95689
9.97424
9.98247
9.9908
9.99984
10.0059
10.0067
10.0003
9.98698
9.96802
9.94525
9.92073
9.89637
9.87392
9.85484
9.84027
9.83086
9.8266
9.87675
9.88905
9.91364
9.9226
9.93033
9.93897
9.9447
9.94544
9.93912
9.92594
9.90724
9.8847
9.86025
9.83582
9.81316
9.79382
9.77899
9.76943
9.76518
9.79407
9.81474
9.85265
9.86307
9.87092
9.87996
9.88593
9.88672
9.88027
9.86667
9.84753
9.82457
9.79966
9.77473
9.75157
9.73179
9.71663
9.70692
9.70272
9.69438
9.73189
9.79359
9.80507
9.81277
9.82265
9.8294
9.83043
9.82365
9.80916
9.78889
9.76484
9.73892
9.71308
9.68915
9.66879
9.6532
9.64332
9.6392
9.56895
9.63873
9.74118
9.74961
9.75518
9.76638
9.77469
9.77632
9.76913
9.7534
9.73136
9.70553
9.67803
9.65087
9.62592
9.6048
9.58869
9.57861
9.57455
9.42376
9.55374
9.7108
9.69561
9.69413
9.70869
9.72045
9.72348
9.71596
9.69881
9.67468
9.64655
9.61698
9.58815
9.56191
9.53982
9.52307
9.51273
9.50871
696.034
704.001
708.587
710.506
710.937
709.887
707.276
703.221
698.051
692.308
686.755
682.405
680.59
682.992
691.414
707.189
730.99
762.385
798.08
828.731
831.108
760.049
409.819
557.391
565.179
567.799
567.273
565.376
562.125
557.388
551.25
543.993
536.095
528.191
521.103
515.997
514.484
518.169
527.396
541.604
559.265
576.4
583.243
557.682
464.494
308.628
417.771
424.26
423.819
420.372
415.898
410.248
403.236
394.871
385.366
375.124
364.578
354.221
345.04
339.066
338.503
342.398
348.905
356.495
362.886
363.061
346.803
303.607
255.191
277.672
280.975
276.189
268.955
261.147
252.68
243.272
232.751
221.275
209.248
196.815
183.768
170.588
160.39
157.806
159.253
160.724
160.834
159.825
157.397
150.345
132.699
106.638
143.006
138.245
126.031
116.092
107.146
98.6775
90.0383
80.8382
71.3465
62.2048
53.4394
44.3731
35.073
28.1376
27.4268
28.3097
27.2048
22.8002
14.7553
6.13359
-1.93646
-9.97108
-19.5886
45.5832
32.5596
21.261
18.7867
16.6295
14.4982
12.1925
9.64499
7.06562
4.75541
2.64486
0.413714
-1.68756
-2.71246
-2.5914
-2.31743
-2.49744
-3.41888
-5.67638
-10.0968
-15.358
-21.2351
-32.1209
-1.36472
-1.70472
-2.01117
-2.51396
-2.59828
-2.60274
-2.62487
-2.65427
-2.68214
-2.70669
-2.73902
-2.81535
-2.91912
-2.89749
-2.89114
-2.96605
-3.17421
-3.51137
-3.93889
-4.39012
-4.81996
-5.27363
-7.5511
-2.89562
-2.57167
-2.52307
-2.56394
-2.55907
-2.54853
-2.55509
-2.57701
-2.61107
-2.65662
-2.71612
-2.7946
-2.89061
-2.98326
-3.05464
-3.14709
-3.27351
-3.42145
-3.57593
-3.71996
-3.84195
-3.94803
-4.34873
-2.90129
-2.82477
-2.74555
-2.73987
-2.74888
-2.7588
-2.77764
-2.808
-2.84941
-2.90204
-2.96696
-3.04492
-3.13405
-3.22806
-3.32153
-3.43085
-3.56496
-3.72207
-3.89671
-4.081
-4.26122
-4.39805
-4.4589
-3.02255
-2.96498
-2.92586
-2.91767
-2.92927
-2.94813
-2.97514
-3.01208
-3.05931
-3.11718
-3.18629
-3.26671
-3.35683
-3.45354
-3.55715
-3.67467
-3.81164
-3.96834
-4.14117
-4.32386
-4.50824
-4.6831
-4.86186
-3.15038
-3.11784
-3.09897
-3.09699
-3.10995
-3.1325
-3.16398
-3.2052
-3.25663
-3.31858
-3.39128
-3.47454
-3.56726
-3.66796
-3.77734
-3.8988
-4.03554
-4.18828
-4.35522
-4.53291
-4.71804
-4.90826
-5.10993
-3.30204
-3.28342
-3.2731
-3.27562
-3.29057
-3.31561
-3.35009
-3.39439
-3.44892
-3.51392
-3.58935
-3.67482
-3.76957
-3.87292
-3.98529
-4.10851
-4.24455
-4.39436
-4.55767
-4.73333
-4.92058
-5.11836
-5.32933
-3.45374
-3.44789
-3.44401
-3.45038
-3.4676
-3.49475
-3.53151
-3.57815
-3.63499
-3.70214
-3.77939
-3.86625
-3.96212
-4.06662
-4.18013
-4.30386
-4.43931
-4.58769
-4.74964
-4.92552
-5.11611
-5.32119
-5.54238
-3.60448
-3.60683
-3.60832
-3.61834
-3.63788
-3.66692
-3.70546
-3.75381
-3.81223
-3.88073
-3.95896
-4.04641
-4.14257
-4.24726
-4.36093
-4.48466
-4.61986
-4.76797
-4.93038
-5.10861
-5.30487
-5.52053
-5.75783
-3.75119
-3.75855
-3.76443
-3.7777
-3.79943
-3.83012
-3.87007
-3.91965
-3.97909
-4.0483
-4.12687
-4.2143
-4.31018
-4.41454
-4.52801
-4.65176
-4.78734
-4.93654
-5.1014
-5.28454
-5.48958
-5.71984
-5.97913
-3.89201
-3.90192
-3.91149
-3.92761
-3.95131
-3.98342
-4.02447
-4.0749
-4.1349
-4.20434
-4.28279
-4.36978
-4.46507
-4.56893
-4.6822
-4.80626
-4.94295
-5.09446
-5.26353
-5.45376
-5.67008
-5.91771
-6.20253
-4.02576
-4.03677
-4.04941
-4.06796
-4.09334
-4.12659
-4.16842
-4.21935
-4.27955
-4.34885
-4.42685
-4.51316
-4.60772
-4.71104
-4.82421
-4.94887
-5.08713
-5.24161
-5.4157
-5.6138
-5.84189
-6.10673
-6.41624
-4.15211
-4.16317
-4.17859
-4.19913
-4.2258
-4.25985
-4.30214
-4.35323
-4.41329
-4.48214
-4.55941
-4.64483
-4.73855
-4.84129
-4.95438
-5.07963
-5.21941
-5.37667
-5.55526
-5.76018
-5.99802
-6.27638
-6.6046
-4.2707
-4.28242
-4.29965
-4.32163
-4.34919
-4.38369
-4.4261
-4.47701
-4.53659
-4.60467
-4.68094
-4.76523
-4.85789
-4.95985
-5.07259
-5.19802
-5.33865
-5.49759
-5.67895
-5.88797
-6.13141
-6.41693
-6.75435
-4.38244
-4.39473
-4.41311
-4.43601
-4.46406
-4.49869
-4.54088
-4.59125
-4.65
-4.71696
-4.79187
-4.87468
-4.96589
-5.06659
-5.17837
-5.30319
-5.44345
-5.60228
-5.7838
-5.99309
-6.23677
-6.52166
-6.85734
-4.488
-4.50055
-4.51954
-4.54289
-4.57108
-4.60548
-4.64712
-4.6966
-4.75413
-4.81958
-4.89272
-4.97359
-5.06279
-5.16151
-5.27137
-5.39428
-5.53249
-5.68895
-5.86756
-6.07317
-6.31149
-6.58807
-6.91152
-4.58794
-4.60042
-4.61953
-4.64292
-4.67089
-4.70475
-4.74549
-4.79371
-4.84964
-4.91315
-4.98406
-5.06244
-5.14893
-5.24478
-5.35156
-5.47104
-5.60525
-5.75685
-5.92941
-6.12731
-6.35526
-6.61729
-6.9209
-4.68272
-4.69485
-4.71365
-4.73671
-4.76415
-4.79716
-4.83666
-4.88326
-4.93716
-4.99829
-5.06646
-5.14175
-5.2248
-5.3168
-5.41925
-5.53372
-5.66197
-5.80629
-5.96984
-6.15642
-6.36978
-6.61253
-6.89142
-4.77271
-4.78427
-4.80243
-4.82485
-4.85148
-4.88334
-4.92129
-4.96588
-5.01736
-5.07564
-5.14055
-5.21216
-5.29102
-5.37823
-5.47513
-5.5831
-5.70357
-5.83846
-5.99041
-6.16263
-6.35797
-6.57788
-6.82848
-4.85824
-4.86909
-4.88635
-4.90788
-4.93345
-4.96392
-5.00002
-5.04226
-5.09089
-5.14588
-5.20704
-5.27438
-5.34836
-5.42991
-5.52021
-5.62037
-5.73154
-5.8552
-5.9935
-6.14898
-6.32364
-6.51803
-6.73734
-4.93961
-4.94968
-4.96588
-4.98631
-5.01063
-5.03949
-5.07347
-5.11306
-5.15849
-5.20976
-5.2667
-5.32926
-5.39775
-5.47293
-5.55573
-5.64705
-5.74771
-5.85882
-5.98199
-6.11909
-6.27134
-6.43843
-6.62421
-5.01715
-5.0264
-5.04143
-5.06063
-5.08354
-5.1106
-5.14228
-5.17896
-5.2209
-5.2681
-5.32042
-5.37776
-5.4403
-5.50856
-5.58323
-5.66496
-5.75428
-5.85194
-5.95906
-6.07689
-6.20597
-6.34521
-6.49676
-5.09115
-5.0996
-5.11343
-5.13129
-5.15267
-5.17782
-5.20704
-5.24065
-5.27887
-5.32175
-5.36914
-5.42092
-5.47715
-5.53815
-5.60434
-5.6761
-5.75368
-5.83748
-5.92819
-6.02656
-6.13257
-6.24461
-6.36307
-5.16195
-5.16963
-5.18224
-5.19872
-5.21848
-5.24163
-5.26831
-5.29876
-5.33315
-5.37153
-5.4138
-5.4598
-5.50951
-5.56307
-5.62066
-5.68241
-5.74828
-5.81836
-5.89292
-5.97229
-6.0561
-6.14251
-6.23056
-5.22986
-5.23681
-5.24823
-5.26329
-5.28139
-5.30247
-5.32659
-5.35385
-5.38437
-5.41822
-5.45528
-5.49542
-5.53853
-5.58461
-5.63367
-5.68562
-5.74019
-5.79713
-5.85639
-5.91789
-5.98106
-6.04408
-6.10524
-5.29519
-5.30146
-5.31173
-5.32537
-5.34175
-5.36075
-5.38229
-5.40639
-5.43312
-5.46249
-5.49442
-5.52873
-5.5653
-5.60402
-5.64477
-5.68731
-5.73118
-5.77592
-5.82113
-5.86643
-5.91109
-5.95349
-5.99163
-5.35824
-5.36391
-5.37306
-5.38529
-5.39994
-5.41682
-5.4358
-5.45681
-5.47986
-5.50491
-5.53187
-5.56057
-5.59082
-5.62246
-5.65528
-5.68894
-5.72289
-5.7565
-5.78916
-5.82024
-5.84891
-5.87377
-5.89284
-5.4193
-5.42448
-5.43255
-5.4434
-5.45629
-5.47104
-5.48747
-5.50548
-5.52499
-5.54594
-5.56821
-5.5916
-5.61591
-5.64091
-5.66634
-5.69182
-5.71675
-5.74043
-5.76214
-5.78111
-5.79645
-5.80696
-5.81083
-5.4787
-5.48354
-5.49056
-5.50004
-5.51116
-5.52377
-5.53768
-5.55276
-5.5689
-5.58598
-5.60386
-5.62233
-5.64115
-5.66007
-5.67879
-5.6969
-5.71382
-5.72886
-5.74126
-5.75021
-5.75483
-5.75412
-5.74646
-5.53681
-5.54148
-5.5474
-5.55557
-5.5649
-5.57536
-5.58678
-5.59903
-5.61194
-5.62538
-5.63918
-5.65312
-5.66696
-5.68041
-5.69316
-5.7048
-5.71478
-5.72248
-5.72717
-5.72809
-5.72444
-5.71539
-5.69958
-5.59358
-5.59863
-5.60341
-5.61032
-5.61786
-5.62617
-5.63514
-5.64463
-5.65447
-5.66449
-5.67451
-5.6843
-5.69363
-5.70222
-5.70976
-5.71584
-5.71997
-5.72159
-5.72009
-5.7148
-5.70505
-5.69022
-5.6692
-5.64839
-5.65537
-5.65887
-5.6646
-5.67032
-5.67648
-5.68304
-5.68987
-5.69679
-5.70359
-5.7101
-5.7161
-5.72138
-5.72569
-5.72873
-5.73013
-5.72946
-5.72622
-5.71991
-5.71002
-5.69605
-5.67758
-5.65377
-5.70148
-5.71232
-5.71395
-5.71855
-5.72243
-5.72646
-5.73066
-5.73493
-5.73907
-5.74287
-5.74614
-5.74869
-5.75034
-5.75089
-5.75009
-5.74763
-5.74312
-5.73614
-5.72629
-5.71321
-5.69659
-5.67623
-5.65158
-5.75492
-5.77152
-5.76936
-5.77273
-5.77476
-5.77665
-5.77853
-5.78032
-5.78181
-5.7828
-5.78309
-5.78252
-5.78095
-5.77824
-5.77419
-5.76856
-5.76103
-5.75127
-5.73896
-5.72387
-5.70587
-5.68501
-5.66097
-5.80663
-5.83901
-5.8283
-5.82913
-5.82903
-5.82871
-5.82825
-5.82761
-5.82659
-5.82495
-5.82254
-5.8192
-5.81482
-5.80931
-5.80253
-5.79431
-5.78442
-5.77259
-5.75862
-5.74236
-5.72386
-5.70337
-5.68083
-5.84184
-5.92099
-5.89353
-5.88749
-5.8843
-5.8816
-5.87881
-5.87583
-5.87244
-5.86844
-5.86365
-5.85795
-5.85125
-5.84346
-5.83449
-5.82425
-5.81258
-5.79933
-5.78439
-5.76771
-5.74944
-5.72991
-5.70969
-5.85137
-5.99549
-5.94916
-5.93341
-5.92644
-5.92127
-5.91627
-5.91109
-5.90547
-5.89924
-5.89225
-5.88441
-5.87564
-5.8659
-5.85515
-5.84335
-5.83049
-5.81657
-5.80162
-5.7857
-5.76893
-5.75148
-5.7333
-290.177
-208.208
-63.3305
-22.3
156.199
114.879
57.4875
-12.1097
197.38
142.407
89.4823
50.4582
74.2323
54.5599
41.0289
30.0043
-29.1631
-28.4752
-24.5093
-22.3046
-45.8559
-49.8872
-52.6118
-53.0349
-10.0185
-11.2385
-12.6059
-14.63
-4.96861
-5.50455
-6.10072
-6.61778
-4.58996
-4.69544
-4.80065
-4.90472
-5.06543
-5.19728
-5.31046
-5.3804
-5.27911
-5.39635
-5.52172
-5.6375
-5.50146
-5.6231
-5.7562
-5.88366
-5.72465
-5.85579
-6.00084
-6.14097
-5.95768
-6.10325
-6.26448
-6.42222
-6.20288
-6.36679
-6.54769
-6.72675
-6.45268
-6.63576
-6.8367
-7.03775
-6.69073
-6.891
-7.1099
-7.33191
-6.89704
-7.11047
-7.34406
-7.58484
-7.05503
-7.27494
-7.51689
-7.76993
-7.15582
-7.37413
-7.61494
-7.86887
-7.19802
-7.40736
-7.63786
-7.882
-7.18922
-7.38527
-7.60165
-7.83362
-7.13787
-7.31811
-7.51768
-7.73314
-7.05004
-7.21226
-7.39224
-7.58606
-6.93073
-7.07218
-7.22872
-7.39553
-6.78633
-6.90411
-7.03332
-7.16871
-6.62615
-6.71875
-6.8188
-6.92155
-6.46064
-6.52861
-6.60037
-6.67245
-6.29922
-6.34495
-6.39147
-6.43698
-6.14908
-6.17595
-6.20132
-6.22506
-6.01506
-6.02683
-6.03556
-6.04237
-5.9001
-5.90038
-5.89684
-5.89135
-5.80576
-5.79766
-5.7856
-5.77179
-5.73248
-5.71863
-5.70104
-5.68208
-5.67976
-5.6624
-5.64166
-5.61993
-5.64622
-5.62722
-5.60523
-5.58251
-5.62975
-5.61058
-5.5888
-5.56646
-5.62806
-5.6098
-5.58932
-5.5684
-5.63907
-5.62252
-5.60415
-5.58535
-5.66114
-5.64683
-5.63109
-5.61466
-5.69461
-5.68354
-5.67063
-5.65493
-5.71819
-5.70744
-5.69551
-5.6831
8.89407
9.62279
9.73076
9.60779
9.58931
9.61459
9.6354
9.6425
9.6348
9.61517
9.58725
9.55489
9.52141
9.48933
9.46056
9.43657
9.41861
9.40781
9.40379
-31.3614
4.62024
9.68138
9.5709
9.48941
9.51271
9.53356
9.54231
9.53247
9.5077
9.47241
9.43186
9.39065
9.35206
9.31825
9.2906
9.27036
9.25864
9.25468
-6.25046
-28.0991
-8.21148
9.13605
9.55295
9.51781
9.47314
9.45849
9.43839
9.40647
9.36167
9.30997
9.25798
9.21032
9.16958
9.13719
9.11417
9.10148
9.09772
1.71059
-25.1455
-31.4704
-17.5896
7.82829
9.47968
9.50499
9.41841
9.35524
9.30871
9.25333
9.1882
9.12231
9.06262
9.01284
8.9745
8.94825
8.93461
8.93125
-24.6532
-34.2048
-37.0922
-35.1277
-16.9048
6.84984
9.27149
9.38683
9.28529
9.21077
9.14264
9.06347
8.98147
8.90705
8.84597
8.80035
8.77041
8.7559
8.7532
-49.3736
-55.0298
-54.831
-46.9484
-35.9976
-11.2035
7.46243
9.13454
9.19676
9.11039
9.02413
8.92998
8.83149
8.74059
8.66632
8.61212
8.57805
8.56284
8.56111
-19.4632
-38.4263
-60.7394
-64.1709
-51.6013
-32.394
-1.65952
8.05944
9.03888
9.00142
8.89224
8.77981
8.66554
8.55855
8.4704
8.40678
8.36825
8.35257
8.35218
-7.60468
-11.4001
-24.3945
-59.6815
-67.9126
-49.1061
-17.6629
5.25351
8.583
8.86092
8.73754
8.60119
8.47402
8.35435
8.2537
8.1809
8.13797
8.12212
8.12343
-5.28624
-6.38548
-8.50571
-24.9555
-68.621
-63.6799
-34.1473
-0.389606
7.65791
8.63801
8.53916
8.382
8.24694
8.12033
8.01099
7.93079
7.88417
7.86857
7.87189
-5.47222
-5.78413
-6.25037
-9.16172
-40.9447
-71.152
-47.5238
-6.752
6.68151
8.2942
8.26979
8.11153
7.9764
7.84977
7.73716
7.65286
7.60407
7.58934
7.59496
-5.80891
-6.05765
-6.1807
-6.67764
-17.7835
-65.9169
-55.8317
-13.9083
5.33848
7.79125
7.92996
7.78852
7.65971
7.53898
7.42868
7.34434
7.29556
7.28253
7.29066
-6.07651
-6.3038
-6.32855
-6.4267
-9.31257
-49.9025
-56.7808
-18.6541
3.86058
7.21615
7.52268
7.41041
7.29658
7.18705
7.08402
7.00379
6.95749
6.9471
6.95791
-6.35166
-6.59318
-6.66265
-6.55053
-6.81715
-33.5445
-53.6308
-19.4063
2.92232
6.67439
7.05489
6.97867
6.88925
6.7951
6.70366
6.63133
6.58994
6.58314
6.59668
-6.66047
-6.93181
-7.03423
-6.90345
-7.31018
-26.3956
-47.8703
-16.7011
2.65134
6.15134
6.52932
6.50276
6.44241
6.36637
6.29003
6.22871
6.19428
6.19186
6.2081
-7.00055
-7.31365
-7.45705
-7.35858
-7.96005
-25.1688
-39.1075
-10.6461
2.86696
5.56347
5.96146
5.99342
5.96148
5.9058
5.84729
5.7991
5.77306
5.77551
5.79428
-7.35223
-7.71713
-7.89319
-7.84977
-8.39602
-23.8943
-26.0619
-2.4436
3.23973
4.9532
5.37778
5.45826
5.45387
5.4208
5.38125
5.34689
5.32977
5.3371
5.35805
-7.68886
-8.11123
-8.29918
-8.36979
-9.22914
-25.0679
-17.9537
0.599617
3.71849
4.52343
4.82643
4.9162
4.93385
4.92151
4.89896
4.87724
4.86839
4.88006
4.90265
-7.97961
-8.46652
-8.73749
-8.97176
-10.2951
-26.5957
-16.7811
-0.85444
3.44801
4.10596
4.3126
4.38867
4.41615
4.41717
4.40697
4.395
4.39279
4.4078
4.43135
-8.1903
-8.72706
-9.09094
-9.62472
-9.80186
-23.8376
-13.0859
0.363903
3.26895
3.72915
3.83082
3.88038
3.90639
3.91297
3.90944
3.90363
3.90604
3.92321
3.94709
-8.29812
-8.86167
-9.26095
-9.61346
-7.74526
-16.95
-18.5252
-0.476365
2.93479
3.465
3.41136
3.39508
3.40585
3.40979
3.40761
3.40483
3.41016
3.42855
3.45224
-8.30157
-8.87236
-9.2645
-8.97433
-7.76827
-10.6018
-15.496
-4.25876
2.3894
3.16125
3.00542
2.91687
2.90491
2.90229
2.89943
2.89858
2.90633
2.9256
2.94883
-8.2369
-8.76008
-9.13107
-9.08397
-9.56936
-5.62257
-11.421
-10.9583
0.231328
2.45153
2.50494
2.41075
2.3843
2.38011
2.38066
2.38406
2.39552
2.41617
2.43891
-8.10858
-8.60189
-9.00367
-9.24685
-8.96591
-5.43939
-4.83055
-9.72147
-4.08837
0.931338
1.70806
1.82119
1.82132
1.83318
1.84777
1.86124
1.87943
1.9027
1.9252
-7.92619
-8.40488
-8.84169
-9.18518
-9.20452
-8.93318
-2.9863
-3.33554
-4.86034
-0.948494
0.637706
1.13565
1.21144
1.26229
1.30294
1.33304
1.36134
1.38866
1.41151
-7.68939
-8.13463
-8.59131
-9.00482
-9.41101
-9.46128
-9.45016
-5.71378
-3.2282
-2.12555
-0.304619
0.44054
0.585832
0.684797
0.755994
0.806033
0.846332
0.878433
0.902567
-7.40565
-7.77799
-8.19396
-8.61301
-9.01611
-9.40017
-9.92178
-10.272
-7.25577
-2.81825
-0.911032
-0.204873
-0.0223705
0.119363
0.218326
0.2881
0.34016
0.376217
0.404088
-7.09845
-7.37233
-7.6825
-8.01048
-8.31642
-8.56459
-8.66986
-8.48216
-6.98966
-3.76217
-1.49152
-0.864571
-0.612444
-0.427702
-0.302069
-0.214001
-0.15163
-0.112916
-0.0803152
-6.79368
-6.96882
-7.15114
-7.328
-7.45679
-7.46606
-7.29563
-6.81771
-5.69892
-3.74115
-2.1404
-1.50547
-1.16738
-0.946086
-0.797862
-0.695087
-0.624989
-0.583904
-0.549925
-6.51136
-6.60497
-6.6807
-6.72392
-6.69951
-6.55214
-6.22788
-5.65301
-4.73456
-3.55683
-2.5611
-2.01102
-1.65716
-1.42289
-1.26255
-1.15163
-1.07736
-1.03475
-1.00336
-6.26258
-6.29579
-6.29751
-6.25258
-6.13652
-5.91764
-5.559
-5.02369
-4.30766
-3.5198
-2.84882
-2.39825
-2.07871
-1.85382
-1.69419
-1.58261
-1.50808
-1.46533
-1.43863
-6.05228
-6.04406
-6.0001
-5.90706
-5.7488
-5.50585
-5.16273
-4.71006
-4.16466
-3.59613
-3.10223
-2.73204
-2.4532
-2.24696
-2.09643
-1.98964
-1.91787
-1.87647
-1.85502
-5.88149
-5.84656
-5.77726
-5.66299
-5.49296
-5.25634
-4.94826
-4.57271
-4.15004
-3.7227
-3.34261
-3.03682
-2.79597
-2.61181
-2.47447
-2.37549
-2.30841
-2.26961
-2.25326
-5.7487
-5.69778
-5.61659
-5.49771
-5.33288
-5.11738
-4.85115
-4.54178
-4.20701
-3.8746
-3.57391
-3.32111
-3.11587
-2.95495
-2.83255
-2.74295
-2.6818
-2.6465
-2.63474
-5.65096
-5.59172
-5.50699
-5.39166
-5.24076
-5.05199
-4.82731
-4.57416
-4.30629
-4.04234
-3.80063
-3.59217
-3.41937
-3.28112
-3.17405
-3.09465
-3.04017
-3.00893
-3.00106
-5.58467
-5.52268
-5.43991
-5.33298
-5.1992
-5.03784
-4.85125
-4.64558
-4.43099
-4.22023
-4.02551
-3.85477
-3.71092
-3.59386
-3.50187
-3.43296
-3.38556
-3.35862
-3.35394
-5.54594
-5.48522
-5.40811
-5.31248
-5.19706
-5.06195
-4.9093
-4.74388
-4.57302
-4.40555
-4.24979
-4.11152
-3.99342
-3.89598
-3.81852
-3.76008
-3.71985
-3.69722
-3.69507
-5.53071
-5.47421
-5.40544
-5.32303
-5.22643
-5.11601
-4.99355
-4.86262
-4.72845
-4.5971
-4.47431
-4.36425
-4.26916
-4.18984
-4.12623
-4.07797
-4.04477
-4.02631
-4.02612
-5.5351
-5.48495
-5.42652
-5.35872
-5.28107
-5.19388
-5.09852
-4.99762
-4.8948
-4.79423
-4.6998
-4.6145
-4.54012
-4.47752
-4.42696
-4.38843
-4.36196
-4.3474
-4.34866
-5.55548
-5.51296
-5.46666
-5.41459
-5.35589
-5.2907
-5.22004
-5.14574
-5.07031
-4.99649
-4.92692
-4.86364
-4.80802
-4.76086
-4.7225
-4.69313
-4.67297
-4.66194
-4.66414
-5.58748
-5.5522
-5.52113
-5.48638
-5.44679
-5.40271
-5.35494
-5.30476
-5.25381
-5.20383
-5.15646
-5.11306
-5.07459
-5.04166
-5.01463
-4.99377
-4.97938
-4.97145
-4.97404
-5.62433
-5.5936
-5.58529
-5.57045
-5.5503
-5.52676
-5.50068
-5.47295
-5.44451
-5.41632
-5.38927
-5.36411
-5.34142
-5.32162
-5.30501
-5.29184
-5.28246
-5.27685
-5.27893
-5.6595
-5.65096
-5.66582
-5.66794
-5.6649
-5.65981
-5.65347
-5.64628
-5.63856
-5.6306
-5.62261
-5.61484
-5.60747
-5.60069
-5.59462
-5.58944
-5.58537
-5.5824
-5.58257
)
;

boundaryField
{
    leftWall
    {
        type            calculated;
        value           nonuniform List<scalar> 
50
(
1230.28
1170.32
1109.53
1048.12
986.1
923.469
860.258
796.512
696.034
557.391
417.771
277.672
143.006
45.5832
-1.36472
-2.89562
-2.90129
-3.02255
-3.15038
-3.30204
-3.45374
-3.60448
-3.75119
-3.89201
-4.02576
-4.15211
-4.2707
-4.38244
-4.488
-4.58794
-4.68272
-4.77271
-4.85824
-4.93961
-5.01715
-5.09115
-5.16195
-5.22986
-5.29519
-5.35824
-5.4193
-5.4787
-5.53681
-5.59358
-5.64839
-5.70148
-5.75492
-5.80663
-5.84184
-5.85137
)
;
    }
    rightWall
    {
        type            calculated;
        value           nonuniform List<scalar> 
50
(
9.94655
9.88704
9.8266
9.76518
9.70272
9.6392
9.57455
9.50871
9.40379
9.25468
9.09772
8.93125
8.7532
8.56111
8.35218
8.12343
7.87189
7.59496
7.29066
6.95791
6.59668
6.2081
5.79428
5.35805
4.90265
4.43135
3.94709
3.45224
2.94883
2.43891
1.9252
1.41151
0.902567
0.404088
-0.0803152
-0.549925
-1.00336
-1.43863
-1.85502
-2.25326
-2.63474
-3.00106
-3.35394
-3.69507
-4.02612
-4.34866
-4.66414
-4.97404
-5.27893
-5.58257
)
;
    }
    lowerWall
    {
        type            calculated;
        value           nonuniform List<scalar> 
62
(
1259.71
1264.57
1276.75
1292.26
1306.36
1318.13
1327.38
1334.38
1339.5
1343.13
1345.81
1348.3
1351.75
1357.95
1369.62
1391.27
1428.19
1485.04
1562.16
1648.74
1725.07
1746.85
1800.7
1773.67
1718.7
1678.61
1652.27
1611.26
1536.89
1395.43
1142.55
-227.828
-145.714
-0.782931
17.8959
10.0706
10.0114
9.94779
9.87675
9.79407
9.69438
9.56895
9.42376
10.1
10.1049
10.1184
10.1302
10.1424
10.1539
10.1614
10.1623
10.1552
10.1409
10.1201
10.0961
10.0705
10.0454
10.0226
10.0035
9.9891
9.97997
9.97598
)
;
    }
    atmosphere
    {
        type            calculated;
        value           nonuniform List<scalar> 
46
(
-5.88085
-5.97463
-5.95394
-5.94407
-5.93718
-5.93128
-5.92544
-5.9193
-5.91264
-5.90533
-5.89726
-5.88838
-5.87863
-5.86799
-5.85647
-5.84408
-5.83092
-5.8171
-5.80279
-5.7882
-5.7736
-5.7594
-5.74627
-5.73808
-5.73434
-5.73186
-5.73037
-5.72915
-5.72904
-5.72904
-5.72904
-5.72904
-5.72904
-5.72904
-5.72904
-5.72904
-5.72904
-5.72904
-5.72904
-5.72904
-5.72904
-5.72904
-5.72904
-5.72904
-5.72904
-5.72904
)
;
    }
    defaultFaces
    {
        type            empty;
    }
}


// ************************************************************************* //
