/*--------------------------------*- C++ -*----------------------------------*\
| =========                 |                                                 |
| \\      /  F ield         | OpenFOAM: The Open Source CFD Toolbox           |
|  \\    /   O peration     | Version:  2.3.0                                 |
|   \\  /    A nd           | Web:      www.OpenFOAM.org                      |
|    \\/     M anipulation  |                                                 |
\*---------------------------------------------------------------------------*/
FoamFile
{
    version     2.0;
    format      ascii;
    class       volScalarField;
    location    "1.23";
    object      pMean;
}
// * * * * * * * * * * * * * * * * * * * * * * * * * * * * * * * * * * * * * //

dimensions      [1 -1 -2 0 0 0 0];

internalField   nonuniform List<scalar> 
6000
(
106401
106400
106399
106396
106394
106393
106393
106392
106392
106393
106394
106394
106394
106393
106395
106398
106399
106398
106398
106398
106398
106398
106397
106397
106396
106397
106399
106400
106400
106402
106332
106331
106328
106326
106325
106324
106323
106321
106321
106322
106323
106323
106324
106324
106325
106327
106328
106329
106329
106328
106327
106326
106325
106323
106324
106326
106329
106331
106331
106333
106281
106280
106278
106276
106276
106276
106274
106273
106273
106275
106276
106276
106275
106275
106276
106278
106280
106282
106282
106281
106280
106278
106275
106273
106276
106279
106281
106282
106281
106282
106226
106225
106224
106224
106224
106224
106222
106222
106223
106224
106225
106225
106224
106224
106225
106228
106230
106231
106231
106229
106227
106224
106222
106222
106224
106227
106229
106229
106228
106229
106172
106171
106170
106170
106171
106171
106171
106171
106172
106173
106174
106174
106173
106175
106177
106179
106181
106181
106179
106177
106175
106172
106171
106171
106172
106173
106175
106176
106175
106176
106119
106118
106117
106116
106117
106118
106119
106120
106121
106122
106123
106124
106125
106128
106130
106132
106131
106129
106127
106125
106123
106122
106121
106120
106119
106119
106121
106122
106123
106124
106066
106065
106064
106062
106064
106067
106069
106070
106070
106071
106073
106075
106079
106082
106083
106083
106080
106079
106077
106075
106073
106072
106071
106069
106067
106066
106067
106070
106072
106074
106015
106013
106011
106010
106014
106018
106020
106021
106021
106022
106025
106028
106032
106034
106035
106033
106030
106028
106026
106024
106023
106022
106021
106020
106018
106017
106018
106021
106024
106027
105965
105962
105959
105960
105965
105970
105973
105974
105974
105975
105978
105982
105985
105986
105986
105982
105979
105977
105975
105974
105973
105973
105973
105973
105972
105971
105972
105975
105978
105981
105915
105912
105910
105912
105917
105922
105927
105929
105929
105930
105932
105936
105938
105938
105937
105933
105931
105929
105927
105926
105926
105927
105927
105927
105927
105927
105928
105931
105935
105938
105867
105864
105863
105864
105869
105875
105881
105884
105885
105885
105887
105890
105891
105890
105888
105886
105884
105882
105881
105880
105881
105881
105882
105882
105883
105883
105885
105888
105893
105896
105821
105819
105817
105818
105822
105827
105834
105839
105840
105840
105840
105842
105843
105843
105841
105840
105839
105838
105836
105836
105836
105836
105836
105837
105838
105839
105842
105846
105852
105855
105777
105775
105774
105774
105777
105782
105787
105793
105795
105794
105794
105795
105797
105797
105796
105796
105795
105794
105792
105792
105792
105791
105790
105790
105792
105795
105799
105804
105810
105813
105735
105734
105733
105732
105734
105737
105742
105747
105750
105749
105748
105748
105751
105752
105753
105752
105752
105751
105749
105748
105746
105744
105742
105742
105744
105749
105754
105760
105765
105768
105694
105693
105692
105691
105692
105694
105698
105702
105705
105705
105703
105702
105705
105708
105709
105709
105708
105707
105705
105702
105699
105696
105694
105693
105696
105701
105707
105713
105718
105720
105653
105652
105651
105651
105650
105652
105654
105657
105660
105661
105659
105658
105660
105663
105664
105665
105664
105662
105660
105656
105652
105648
105645
105644
105646
105652
105658
105663
105667
105669
105612
105611
105611
105610
105609
105609
105611
105613
105616
105617
105616
105615
105615
105618
105619
105620
105619
105617
105615
105610
105605
105599
105595
105595
105597
105601
105607
105611
105614
105616
105571
105571
105571
105570
105568
105568
105569
105570
105572
105573
105573
105572
105571
105572
105574
105574
105573
105571
105568
105563
105556
105550
105546
105545
105547
105550
105554
105557
105559
105561
105529
105530
105530
105529
105527
105526
105526
105527
105528
105530
105529
105528
105527
105527
105528
105527
105526
105525
105521
105515
105507
105501
105497
105495
105496
105499
105501
105503
105504
105506
105488
105488
105489
105488
105486
105485
105484
105484
105484
105485
105485
105484
105483
105482
105482
105481
105479
105477
105472
105465
105458
105452
105449
105447
105447
105448
105449
105450
105451
105453
105445
105446
105446
105446
105444
105442
105442
105441
105439
105439
105440
105440
105439
105437
105436
105434
105431
105428
105423
105416
105410
105405
105401
105399
105398
105398
105399
105400
105401
105402
105402
105403
105403
105402
105401
105400
105398
105397
105395
105394
105394
105395
105394
105392
105390
105387
105384
105380
105374
105367
105362
105358
105355
105352
105350
105350
105351
105353
105353
105354
105358
105359
105359
105359
105358
105356
105354
105352
105350
105349
105349
105349
105348
105347
105345
105341
105337
105333
105326
105319
105314
105311
105308
105306
105304
105303
105304
105306
105306
105306
105313
105313
105314
105315
105314
105312
105309
105306
105305
105304
105303
105303
105303
105302
105299
105295
105290
105285
105278
105271
105266
105263
105261
105260
105258
105257
105257
105259
105258
105257
105267
105267
105268
105270
105270
105267
105263
105261
105260
105259
105258
105258
105257
105256
105253
105249
105244
105237
105229
105222
105217
105214
105212
105212
105211
105210
105210
105210
105209
105207
105222
105221
105222
105224
105224
105221
105217
105215
105214
105214
105213
105213
105212
105210
105207
105203
105197
105189
105181
105174
105170
105168
105165
105164
105163
105162
105161
105160
105157
105156
105176
105175
105175
105176
105177
105174
105171
105169
105169
105168
105168
105168
105166
105163
105161
105156
105149
105142
105135
105129
105125
105123
105121
105119
105116
105114
105112
105109
105107
105106
105129
105128
105128
105128
105128
105126
105124
105123
105122
105123
105123
105122
105120
105116
105113
105109
105102
105097
105091
105086
105082
105080
105078
105076
105072
105070
105067
105064
105061
105060
105082
105081
105081
105080
105079
105078
105077
105076
105076
105076
105077
105076
105073
105069
105066
105062
105057
105053
105048
105043
105039
105037
105036
105033
105030
105027
105024
105021
105019
105018
105034
105033
105032
105031
105030
105030
105029
105028
105028
105029
105030
105029
105026
105022
105018
105015
105012
105010
105005
105000
104996
104994
104993
104990
104987
104985
104982
104979
104977
104976
104987
104985
104984
104982
104982
104982
104981
104981
104981
104982
104983
104982
104980
104976
104972
104969
104968
104966
104962
104957
104954
104952
104950
104947
104945
104944
104941
104939
104937
104936
104940
104938
104936
104935
104934
104935
104934
104934
104934
104935
104936
104935
104934
104931
104927
104925
104924
104923
104919
104914
104911
104909
104907
104905
104905
104903
104901
104899
104897
104897
104892
104891
104889
104888
104888
104888
104887
104887
104888
104889
104889
104889
104888
104885
104882
104880
104879
104879
104875
104871
104869
104867
104866
104865
104864
104863
104861
104859
104857
104857
104844
104843
104843
104842
104842
104842
104842
104842
104843
104844
104844
104843
104842
104840
104838
104836
104835
104834
104831
104829
104827
104827
104826
104825
104825
104823
104821
104818
104817
104817
104796
104796
104796
104796
104797
104797
104798
104798
104799
104799
104799
104798
104797
104796
104793
104792
104791
104790
104788
104786
104786
104787
104786
104785
104785
104783
104780
104777
104775
104775
104748
104748
104749
104751
104752
104754
104754
104755
104755
104755
104754
104753
104752
104751
104749
104748
104747
104746
104745
104745
104746
104746
104746
104746
104745
104742
104738
104735
104734
104734
104701
104701
104703
104705
104708
104711
104712
104712
104711
104711
104710
104709
104708
104706
104704
104703
104703
104702
104703
104703
104704
104705
104706
104706
104704
104700
104696
104693
104692
104692
104655
104656
104658
104661
104664
104668
104669
104669
104668
104667
104666
104665
104663
104661
104660
104659
104659
104659
104660
104661
104662
104664
104665
104665
104663
104658
104654
104651
104650
104650
104611
104612
104614
104616
104620
104624
104626
104626
104624
104622
104621
104620
104619
104617
104615
104615
104615
104615
104618
104619
104620
104622
104624
104624
104620
104616
104612
104610
104608
104608
104568
104569
104571
104573
104576
104580
104582
104582
104580
104578
104577
104575
104574
104572
104571
104571
104571
104572
104574
104576
104578
104580
104582
104581
104577
104573
104570
104568
104568
104568
104526
104526
104527
104529
104532
104535
104538
104537
104535
104533
104532
104531
104529
104527
104526
104526
104528
104529
104531
104533
104535
104537
104539
104538
104535
104531
104528
104527
104527
104528
104482
104482
104483
104485
104488
104491
104493
104493
104491
104489
104487
104486
104484
104482
104482
104482
104484
104485
104487
104490
104491
104494
104495
104494
104492
104489
104488
104487
104487
104488
104438
104437
104438
104441
104443
104446
104448
104448
104446
104444
104442
104440
104438
104437
104436
104437
104439
104441
104443
104446
104448
104449
104450
104450
104449
104448
104447
104447
104447
104448
104393
104393
104394
104397
104399
104401
104402
104402
104401
104399
104397
104395
104393
104391
104391
104391
104393
104395
104398
104401
104403
104405
104406
104407
104407
104406
104406
104406
104406
104407
104349
104349
104350
104352
104354
104355
104356
104355
104354
104352
104351
104349
104346
104344
104344
104345
104347
104349
104352
104356
104359
104360
104362
104363
104364
104364
104364
104364
104364
104365
104305
104305
104307
104308
104309
104309
104309
104308
104307
104305
104303
104301
104298
104296
104296
104297
104299
104302
104305
104309
104313
104315
104317
104319
104320
104321
104321
104322
104322
104322
104261
104262
104263
104263
104263
104263
104262
104260
104259
104257
104254
104251
104248
104247
104247
104249
104251
104254
104258
104262
104266
104269
104272
104274
104276
104276
104277
104277
104278
104278
104217
104217
104218
104218
104217
104216
104214
104212
104209
104206
104203
104199
104197
104196
104197
104199
104202
104205
104209
104214
104218
104222
104225
104228
104229
104230
104231
104231
104232
104232
104171
104172
104172
104171
104170
104167
104165
104161
104157
104153
104149
104146
104144
104144
104146
104149
104152
104156
104160
104165
104170
104173
104177
104180
104181
104182
104182
104183
104184
104184
104125
104125
104124
104123
104120
104117
104113
104108
104103
104097
104093
104091
104090
104092
104095
104098
104102
104106
104111
104117
104120
104123
104127
104130
104131
104132
104133
104135
104135
104135
104077
104076
104075
104072
104069
104065
104060
104053
104045
104040
104037
104036
104037
104040
104043
104047
104051
104056
104062
104067
104070
104072
104075
104078
104079
104081
104083
104085
104085
104085
104025
104024
104022
104019
104015
104011
104004
103996
103987
103983
103982
103982
103984
103988
103991
103996
104000
104006
104012
104016
104018
104019
104021
104025
104027
104029
104032
104034
104035
104034
103970
103968
103965
103962
103959
103955
103948
103939
103931
103928
103929
103930
103933
103937
103940
103944
103949
103955
103960
103963
103965
103966
103968
103971
103975
103978
103980
103983
103984
103983
103912
103910
103908
103905
103903
103899
103893
103884
103879
103877
103879
103881
103884
103886
103889
103893
103897
103903
103906
103909
103910
103912
103915
103918
103923
103926
103929
103932
103932
103932
103856
103854
103852
103850
103848
103844
103839
103833
103830
103830
103831
103833
103835
103837
103839
103842
103845
103848
103851
103854
103856
103858
103861
103866
103871
103875
103878
103880
103881
103881
103801
103800
103799
103797
103795
103792
103788
103785
103784
103784
103785
103787
103787
103788
103789
103791
103792
103793
103796
103799
103800
103804
103808
103814
103819
103824
103827
103829
103830
103831
103749
103748
103747
103746
103744
103742
103740
103738
103738
103738
103739
103740
103740
103740
103740
103740
103739
103739
103741
103744
103747
103751
103757
103763
103769
103773
103776
103778
103780
103781
103700
103698
103697
103696
103695
103694
103694
103693
103693
103692
103693
103693
103692
103692
103692
103690
103689
103688
103689
103692
103696
103701
103707
103713
103719
103723
103726
103728
103730
103731
103651
103649
103648
103647
103646
103648
103649
103649
103648
103647
103647
103646
103645
103644
103644
103642
103641
103641
103642
103645
103649
103653
103659
103665
103670
103674
103676
103678
103680
103681
103602
103600
103599
103598
103599
103601
103603
103604
103603
103602
103601
103600
103598
103597
103596
103595
103595
103596
103597
103599
103602
103607
103613
103618
103622
103625
103627
103628
103630
103631
103552
103551
103550
103550
103551
103555
103558
103559
103558
103557
103555
103554
103552
103551
103550
103550
103550
103551
103552
103554
103557
103562
103567
103572
103576
103578
103578
103579
103580
103581
103501
103501
103501
103501
103504
103508
103511
103513
103513
103512
103510
103508
103506
103505
103504
103504
103505
103506
103507
103509
103511
103516
103521
103526
103529
103531
103530
103531
103531
103531
103449
103449
103450
103452
103455
103459
103463
103466
103467
103466
103464
103462
103460
103459
103458
103458
103459
103460
103462
103463
103466
103470
103475
103480
103483
103483
103482
103483
103483
103482
103396
103397
103398
103401
103405
103409
103414
103417
103419
103419
103418
103416
103414
103413
103412
103412
103413
103414
103416
103418
103420
103424
103428
103432
103434
103434
103433
103434
103433
103433
103343
103344
103346
103350
103353
103358
103363
103366
103369
103370
103369
103367
103366
103365
103365
103365
103366
103368
103370
103372
103373
103377
103380
103383
103384
103384
103383
103382
103382
103382
103290
103291
103293
103297
103301
103305
103310
103313
103316
103317
103317
103316
103315
103316
103316
103317
103318
103320
103322
103324
103326
103328
103330
103332
103332
103331
103329
103328
103328
103328
103239
103239
103241
103243
103247
103251
103255
103258
103261
103263
103263
103263
103262
103263
103265
103267
103269
103271
103273
103275
103277
103278
103279
103279
103278
103276
103274
103273
103272
103272
103187
103187
103188
103190
103193
103197
103200
103203
103205
103207
103208
103208
103208
103209
103212
103215
103218
103221
103223
103225
103226
103226
103225
103225
103224
103221
103218
103216
103215
103215
103137
103136
103136
103138
103140
103143
103146
103147
103148
103150
103151
103151
103152
103154
103157
103161
103165
103169
103171
103172
103172
103172
103171
103170
103169
103166
103162
103159
103158
103158
103087
103086
103086
103086
103088
103089
103091
103091
103092
103092
103093
103094
103095
103097
103101
103106
103111
103115
103117
103117
103117
103117
103117
103116
103114
103111
103107
103104
103101
103101
103037
103036
103036
103036
103036
103037
103037
103036
103035
103035
103035
103035
103037
103040
103044
103050
103055
103059
103060
103061
103061
103062
103062
103062
103061
103058
103054
103050
103046
103046
102985
102986
102985
102985
102985
102984
102983
102980
102978
102976
102975
102976
102978
102982
102987
102993
102999
103002
103003
103004
103005
103007
103008
103009
103008
103005
103001
102997
102994
102993
102931
102932
102933
102933
102932
102931
102929
102925
102920
102916
102916
102917
102921
102925
102931
102937
102942
102945
102946
102947
102949
102951
102954
102956
102956
102954
102951
102947
102944
102943
102875
102877
102878
102878
102877
102876
102874
102870
102864
102859
102859
102861
102865
102871
102877
102882
102886
102889
102890
102891
102893
102896
102900
102903
102904
102903
102901
102898
102895
102894
102819
102820
102821
102821
102821
102821
102818
102813
102809
102806
102807
102810
102814
102819
102825
102829
102832
102835
102835
102836
102838
102840
102845
102850
102852
102853
102852
102850
102848
102846
102762
102763
102764
102764
102765
102764
102762
102758
102756
102756
102758
102762
102766
102771
102776
102779
102781
102782
102782
102782
102783
102785
102790
102795
102800
102802
102803
102802
102800
102798
102707
102707
102708
102708
102709
102709
102707
102706
102706
102708
102711
102715
102720
102724
102728
102731
102732
102732
102731
102730
102730
102731
102735
102741
102746
102749
102751
102752
102751
102749
102653
102654
102655
102655
102656
102657
102657
102657
102659
102662
102666
102670
102675
102679
102682
102684
102685
102684
102682
102681
102680
102680
102682
102686
102691
102695
102697
102698
102699
102698
102602
102603
102604
102605
102606
102607
102609
102611
102614
102618
102622
102627
102631
102634
102637
102638
102639
102637
102635
102634
102632
102632
102632
102634
102637
102640
102642
102643
102644
102645
102553
102554
102555
102556
102558
102560
102563
102567
102571
102576
102580
102584
102588
102590
102592
102592
102592
102590
102589
102588
102586
102585
102584
102583
102585
102587
102588
102588
102589
102590
102505
102505
102507
102509
102512
102514
102518
102523
102529
102534
102538
102541
102544
102545
102545
102545
102544
102543
102542
102542
102540
102539
102537
102535
102534
102535
102535
102534
102534
102534
102457
102457
102459
102462
102466
102469
102473
102479
102485
102491
102495
102497
102498
102499
102498
102497
102496
102496
102495
102495
102494
102492
102490
102487
102484
102483
102482
102481
102480
102480
102408
102408
102410
102414
102419
102423
102427
102434
102440
102446
102449
102451
102452
102453
102452
102451
102449
102448
102448
102447
102446
102445
102443
102438
102434
102431
102430
102428
102426
102426
102358
102358
102361
102366
102371
102376
102382
102388
102394
102398
102402
102405
102406
102407
102406
102404
102403
102401
102400
102399
102399
102396
102393
102388
102383
102379
102375
102374
102372
102372
102307
102309
102312
102316
102322
102328
102334
102340
102346
102350
102353
102356
102358
102359
102359
102357
102355
102354
102353
102351
102349
102346
102342
102337
102331
102326
102322
102319
102318
102317
102257
102259
102262
102266
102271
102276
102283
102290
102295
102300
102303
102306
102308
102309
102310
102309
102307
102305
102303
102301
102297
102294
102290
102285
102279
102274
102269
102266
102264
102263
102206
102208
102211
102215
102220
102224
102230
102237
102243
102248
102251
102254
102256
102258
102259
102259
102257
102255
102252
102249
102246
102242
102238
102233
102227
102222
102217
102213
102211
102209
102154
102157
102159
102163
102167
102171
102177
102184
102190
102195
102199
102202
102203
102205
102207
102207
102206
102203
102199
102196
102193
102190
102186
102181
102176
102170
102165
102161
102158
102157
102101
102103
102106
102108
102112
102116
102122
102130
102137
102142
102146
102149
102150
102152
102154
102154
102152
102149
102146
102143
102141
102138
102134
102129
102124
102118
102113
102108
102105
102104
102047
102048
102050
102053
102055
102060
102067
102075
102082
102088
102092
102095
102097
102098
102099
102098
102097
102094
102092
102091
102090
102087
102084
102078
102073
102067
102061
102056
102053
102051
101991
101992
101994
101996
102000
102006
102013
102021
102027
102033
102037
102040
102042
102043
102043
102043
102042
102041
102040
102040
102040
102038
102034
102028
102023
102016
102009
102004
102001
102000
101935
101936
101938
101940
101946
101953
101961
101967
101973
101979
101982
101985
101987
101988
101988
101988
101988
101988
101989
101990
101990
101988
101984
101978
101972
101964
101958
101954
101951
101950
101880
101880
101882
101885
101892
101901
101908
101914
101919
101924
101927
101929
101931
101933
101933
101934
101934
101935
101936
101937
101937
101935
101932
101927
101920
101913
101907
101904
101902
101901
101824
101825
101827
101831
101838
101846
101854
101859
101864
101868
101870
101872
101875
101877
101878
101878
101880
101881
101883
101884
101883
101882
101878
101874
101868
101862
101857
101854
101852
101852
101770
101771
101772
101776
101782
101791
101798
101804
101808
101812
101813
101815
101817
101819
101820
101822
101824
101826
101828
101829
101829
101828
101824
101821
101816
101811
101806
101803
101802
101803
101716
101716
101717
101721
101727
101735
101742
101748
101752
101755
101756
101757
101757
101758
101760
101763
101766
101770
101773
101775
101775
101773
101771
101768
101764
101760
101755
101753
101752
101751
101661
101661
101662
101666
101672
101679
101687
101693
101697
101699
101699
101699
101698
101698
101699
101703
101707
101712
101716
101719
101720
101719
101717
101715
101712
101708
101703
101701
101699
101698
101607
101607
101608
101612
101619
101626
101632
101638
101642
101643
101644
101643
101642
101640
101640
101643
101647
101653
101658
101662
101664
101664
101662
101661
101658
101654
101650
101646
101643
101641
101554
101554
101556
101561
101568
101574
101580
101585
101588
101589
101590
101589
101588
101586
101585
101585
101588
101593
101599
101605
101608
101608
101607
101606
101603
101599
101593
101588
101584
101581
101505
101505
101509
101513
101519
101525
101530
101535
101538
101539
101539
101538
101537
101535
101534
101533
101533
101536
101542
101548
101552
101553
101553
101551
101548
101543
101537
101531
101526
101522
101460
101461
101464
101469
101475
101479
101484
101488
101490
101491
101491
101491
101490
101489
101487
101485
101484
101485
101489
101495
101499
101501
101500
101498
101494
101489
101482
101476
101470
101466
101417
101418
101422
101426
101432
101436
101439
101442
101444
101445
101445
101445
101445
101444
101443
101441
101438
101437
101440
101443
101446
101448
101447
101445
101441
101435
101428
101422
101417
101413
101375
101376
101379
101384
101389
101392
101395
101398
101398
101399
101400
101399
101399
101399
101399
101397
101395
101392
101392
101394
101395
101396
101395
101392
101388
101381
101374
101369
101365
101363
101333
101334
101337
101342
101346
101350
101352
101354
101354
101354
101354
101354
101354
101354
101354
101352
101350
101348
101346
101346
101346
101345
101344
101341
101336
101328
101321
101317
101315
101315
101292
101293
101296
101300
101304
101307
101309
101310
101310
101310
101309
101307
101306
101307
101307
101306
101304
101303
101301
101299
101298
101296
101294
101290
101285
101277
101272
101269
101268
101269
101251
101252
101254
101258
101262
101263
101265
101266
101266
101265
101262
101260
101258
101257
101257
101257
101256
101255
101254
101252
101250
101247
101244
101241
101236
101230
101227
101225
101224
101224
101210
101211
101213
101216
101219
101220
101221
101222
101222
101219
101215
101211
101208
101206
101205
101206
101205
101205
101205
101204
101202
101199
101197
101194
101190
101187
101184
101183
101182
101181
101169
101169
101171
101173
101176
101176
101177
101178
101176
101172
101167
101162
101158
101156
101155
101154
101154
101155
101155
101154
101154
101152
101150
101149
101147
101145
101144
101143
101141
101140
101129
101128
101129
101131
101133
101133
101132
101131
101128
101124
101119
101114
101111
101109
101107
101106
101106
101106
101105
101104
101106
101106
101105
101105
101105
101105
101104
101104
101102
101101
101088
101087
101088
101088
101089
101088
101085
101083
101080
101076
101072
101069
101067
101066
101064
101062
101061
101061
101059
101059
101059
101060
101061
101061
101062
101063
101065
101064
101063
101063
101047
101046
101045
101045
101044
101041
101038
101035
101034
101031
101029
101028
101027
101026
101024
101022
101021
101020
101018
101017
101016
101017
101018
101019
101019
101020
101022
101024
101024
101024
101004
101003
101001
101000
100999
100996
100993
100992
100991
100990
100990
100989
100989
100988
100987
100985
100984
100982
100980
100978
100976
100976
100977
100977
100977
100977
100978
100980
100982
100984
100959
100959
100957
100956
100954
100952
100951
100951
100952
100952
100953
100953
100953
100952
100951
100950
100948
100946
100943
100940
100937
100937
100937
100938
100937
100936
100935
100936
100938
100940
100913
100913
100912
100911
100911
100911
100912
100913
100914
100916
100917
100917
100917
100917
100916
100915
100913
100910
100906
100903
100900
100898
100899
100899
100898
100897
100895
100895
100895
100897
100868
100869
100869
100869
100871
100872
100874
100876
100878
100880
100881
100881
100882
100881
100881
100880
100878
100875
100871
100867
100863
100861
100861
100861
100861
100860
100858
100857
100857
100857
100826
100829
100829
100830
100831
100835
100838
100840
100843
100844
100845
100846
100846
100846
100845
100844
100842
100839
100835
100831
100827
100824
100823
100823
100824
100823
100821
100820
100819
100818
100789
100790
100790
100791
100793
100798
100801
100804
100807
100808
100809
100810
100810
100810
100809
100807
100805
100802
100799
100795
100791
100788
100786
100785
100785
100785
100784
100782
100781
100779
100752
100752
100751
100752
100756
100761
100765
100768
100771
100772
100773
100773
100773
100773
100772
100770
100768
100765
100761
100758
100754
100750
100747
100746
100745
100745
100744
100743
100741
100739
100715
100714
100714
100714
100717
100723
100728
100731
100734
100735
100736
100736
100736
100736
100735
100733
100730
100727
100723
100719
100716
100712
100708
100706
100704
100703
100702
100701
100699
100698
100678
100677
100676
100676
100679
100685
100690
100694
100697
100698
100699
100699
100699
100698
100697
100695
100692
100688
100684
100681
100677
100673
100669
100665
100662
100660
100659
100658
100657
100657
100640
100639
100639
100639
100641
100646
100652
100656
100659
100661
100661
100661
100661
100661
100660
100657
100653
100649
100646
100642
100639
100635
100630
100625
100622
100619
100618
100616
100615
100616
100604
100603
100603
100603
100605
100609
100615
100619
100622
100623
100624
100624
100624
100624
100622
100619
100616
100611
100607
100604
100601
100597
100592
100587
100583
100581
100579
100577
100576
100576
100571
100570
100569
100569
100570
100573
100578
100582
100585
100586
100587
100587
100587
100587
100585
100583
100579
100575
100571
100567
100564
100560
100555
100550
100546
100544
100542
100540
100539
100539
100539
100538
100537
100536
100537
100539
100543
100547
100550
100551
100552
100552
100552
100551
100550
100547
100544
100540
100536
100532
100528
100525
100520
100515
100511
100509
100506
100505
100503
100503
100507
100506
100505
100504
100505
100506
100510
100513
100516
100518
100519
100519
100519
100518
100516
100514
100511
100507
100503
100499
100495
100492
100487
100482
100478
100475
100473
100471
100470
100470
100476
100475
100474
100473
100473
100474
100477
100481
100484
100486
100487
100487
100487
100486
100484
100482
100479
100475
100472
100467
100464
100460
100455
100450
100446
100443
100441
100439
100438
100438
100445
100444
100442
100442
100442
100443
100446
100449
100453
100455
100457
100457
100456
100455
100454
100452
100449
100445
100441
100437
100433
100429
100424
100419
100414
100411
100409
100408
100407
100407
100414
100413
100412
100411
100411
100413
100416
100419
100423
100425
100427
100427
100427
100426
100424
100422
100420
100416
100412
100408
100403
100399
100394
100388
100383
100380
100378
100377
100377
100378
100384
100383
100381
100381
100381
100383
100386
100391
100394
100397
100399
100400
100399
100398
100397
100395
100392
100389
100384
100380
100375
100370
100365
100359
100354
100351
100349
100348
100348
100349
100355
100354
100353
100353
100354
100356
100359
100363
100367
100370
100372
100374
100373
100372
100371
100369
100367
100363
100358
100353
100348
100343
100338
100332
100327
100324
100322
100322
100321
100321
100327
100327
100327
100327
100328
100330
100332
100336
100341
100345
100347
100348
100348
100347
100346
100344
100342
100338
100333
100328
100322
100317
100312
100307
100302
100300
100298
100297
100296
100295
100301
100302
100302
100302
100303
100304
100307
100311
100315
100320
100323
100324
100324
100323
100322
100321
100318
100313
100308
100303
100298
100293
100288
100283
100280
100278
100276
100274
100272
100271
100277
100277
100277
100277
100278
100279
100282
100286
100291
100296
100299
100301
100301
100300
100299
100298
100295
100290
100285
100280
100275
100270
100265
100261
100258
100255
100253
100252
100250
100249
100253
100252
100252
100252
100253
100255
100258
100263
100268
100273
100276
100278
100279
100279
100277
100276
100273
100268
100263
100258
100252
100247
100242
100238
100235
100232
100230
100229
100228
100227
100228
100227
100227
100228
100229
100232
100236
100241
100246
100251
100254
100257
100257
100257
100256
100255
100251
100247
100242
100236
100230
100225
100220
100216
100212
100208
100206
100206
100206
100206
100203
100202
100203
100205
100207
100210
100214
100220
100225
100229
100233
100235
100236
100236
100236
100234
100231
100226
100221
100215
100210
100204
100199
100194
100190
100185
100183
100183
100184
100185
100181
100181
100182
100184
100187
100190
100195
100200
100205
100209
100213
100215
100216
100216
100216
100214
100211
100206
100201
100196
100190
100185
100179
100174
100169
100164
100162
100163
100164
100165
100161
100161
100163
100165
100168
100172
100176
100182
100187
100191
100194
100197
100198
100198
100197
100195
100192
100188
100183
100178
100173
100167
100162
100156
100151
100146
100144
100144
100146
100146
100144
100144
100146
100148
100151
100155
100159
100165
100170
100174
100177
100179
100180
100180
100179
100177
100174
100171
100167
100162
100156
100151