/*--------------------------------*- C++ -*----------------------------------*\
| =========                 |                                                 |
| \\      /  F ield         | OpenFOAM: The Open Source CFD Toolbox           |
|  \\    /   O peration     | Version:  2.3.0                                 |
|   \\  /    A nd           | Web:      www.OpenFOAM.org                      |
|    \\/     M anipulation  |                                                 |
\*---------------------------------------------------------------------------*/
FoamFile
{
    version     2.0;
    format      ascii;
    class       volScalarField;
    location    "0.44";
    object      nut.particles;
}
// * * * * * * * * * * * * * * * * * * * * * * * * * * * * * * * * * * * * * //

dimensions      [0 2 -1 0 0 0 0];

internalField   nonuniform List<scalar> 
6000
(
8.48446e-06
5.73742e-06
4.582e-06
1.07883e-05
2.04859e-05
1.97827e-05
1.5003e-05
9.49821e-06
7.49711e-06
7.38039e-06
8.29937e-06
9.82092e-06
8.57016e-06
7.51171e-06
6.68664e-06
7.13456e-06
8.43261e-06
9.86242e-06
9.64487e-06
7.70342e-06
7.00358e-06
8.28071e-06
1.37666e-05
1.66977e-05
1.9329e-05
1.65083e-05
8.60338e-06
4.69793e-06
5.70509e-06
9.15168e-06
1.66775e-06
1.58882e-06
1.11396e-06
3.61969e-06
4.63979e-06
5.47177e-06
6.06611e-06
5.56402e-06
3.47664e-06
2.18588e-06
1.51238e-06
1.59286e-06
2.00206e-06
2.62087e-06
2.40714e-06
2.65228e-06
2.29558e-06
1.69909e-06
1.50641e-06
1.78525e-06
2.72787e-06
4.63489e-06
5.53838e-06
5.28073e-06
4.69351e-06
3.59053e-06
2.56544e-06
8.87063e-07
1.51367e-06
1.8291e-06
1.28366e-05
1.48699e-05
1.9884e-05
1.87784e-05
1.68531e-05
1.81e-05
2.10984e-05
2.15931e-05
1.55473e-05
7.63547e-06
3.15412e-06
3.23908e-06
3.65728e-06
1.23151e-06
3.56456e-06
1.57822e-06
2.12014e-06
4.12195e-06
2.78782e-06
4.72979e-06
1.16944e-05
1.8399e-05
2.04113e-05
1.98366e-05
1.81012e-05
1.7922e-05
1.97766e-05
2.0499e-05
1.46794e-05
1.3162e-05
1.44916e-05
4.52933e-06
3.32911e-06
4.00546e-06
4.72458e-06
4.66824e-06
6.88886e-06
9.82706e-06
1.08013e-05
9.32687e-06
5.12868e-06
2.78422e-06
2.03831e-06
1.43096e-06
4.16405e-06
2.04367e-06
1.61863e-06
2.51558e-06
4.03047e-06
7.47817e-06
8.26574e-06
8.48875e-06
8.11511e-06
5.77973e-06
4.30147e-06
4.65313e-06
3.68431e-06
3.54569e-06
3.56099e-06
1.43601e-05
4.71906e-06
4.86595e-07
3.55517e-07
3.60605e-07
5.11029e-07
4.2026e-07
4.80977e-07
8.03345e-07
1.77481e-06
5.62194e-06
9.66741e-06
6.48059e-06
5.75508e-06
3.77301e-06
4.70407e-06
3.33498e-06
4.89927e-06
6.15461e-06
8.13946e-06
6.25895e-06
2.05204e-06
9.47234e-07
6.09086e-07
4.08317e-07
4.00772e-07
3.96146e-07
3.89751e-07
4.03926e-07
4.0267e-07
4.19812e-06
1.63908e-06
7.66297e-08
5.33859e-08
7.72121e-08
1.27052e-07
1.33608e-07
1.04635e-07
1.88899e-07
6.13482e-08
5.65866e-07
2.53407e-06
5.29328e-06
5.74114e-06
4.91021e-06
4.57173e-06
4.06432e-06
5.43261e-06
5.3194e-06
3.30037e-06
7.33084e-07
3.08245e-08
1.67509e-07
2.04017e-07
1.12671e-07
1.10642e-07
1.14907e-07
1.11939e-07
5.02714e-08
8.17856e-08
1.74072e-06
1.39467e-06
9.56377e-08
8.97732e-08
5.86002e-08
8.42127e-08
1.58431e-07
2.24414e-07
3.09265e-07
1.65132e-07
2.12909e-07
2.44374e-07
3.05646e-06
5.32958e-06
5.33765e-06
4.1896e-06
4.60782e-06
5.491e-06
3.57319e-06
2.53567e-07
2.15481e-07
1.41215e-07
2.2795e-07
3.14794e-07
2.17865e-07
1.52842e-07
9.96163e-08
7.10471e-08
9.89461e-08
1.235e-07
1.54047e-06
1.38247e-06
1.06851e-07
7.15824e-08
6.53162e-08
7.30945e-08
2.12521e-07
4.33817e-07
3.99964e-07
1.46015e-07
2.42687e-07
8.9227e-08
2.28892e-06
4.56419e-06
6.54894e-06
5.80782e-06
6.31664e-06
5.10761e-06
2.63163e-06
5.04869e-07
2.57389e-07
1.36735e-07
3.04906e-07
5.02078e-07
3.65832e-07
1.57642e-07
7.83704e-08
6.71738e-08
1.03637e-07
1.25679e-07
1.51491e-06
1.37569e-06
1.24182e-07
7.32596e-08
6.69977e-08
8.99597e-08
2.77231e-07
8.30392e-07
4.05797e-07
1.0562e-07
3.11513e-07
2.00033e-06
4.43391e-06
6.8605e-06
9.04891e-06
9.68799e-06
9.17881e-06
7.3461e-06
4.94249e-06
3.20347e-06
3.79995e-07
1.29844e-07
2.70266e-07
7.88194e-07
5.15202e-07
1.55507e-07
8.96774e-08
8.1631e-08
7.75986e-08
1.68395e-07
1.50698e-06
1.46798e-06
1.31764e-07
8.94146e-08
8.72148e-08
9.83208e-08
2.05605e-07
7.88347e-07
6.67742e-07
1.26411e-07
4.85001e-07
3.47145e-06
5.31116e-06
7.35246e-06
9.89609e-06
1.07402e-05
1.06493e-05
7.71003e-06
5.58608e-06
4.51469e-06
1.02904e-06
1.26142e-07
4.1501e-07
9.02511e-07
4.80558e-07
1.76404e-07
1.11655e-07
1.00484e-07
1.04231e-07
2.00999e-07
1.61444e-06
1.73023e-06
1.54248e-07
1.02048e-07
1.02944e-07
9.79605e-08
2.32902e-07
6.47776e-07
5.86331e-07
1.96993e-07
2.22489e-07
4.81089e-06
5.71832e-06
2.5944e-06
3.99583e-06
3.85431e-06
3.81831e-06
4.08605e-06
6.91082e-06
6.20708e-06
5.8431e-07
2.22487e-07
5.04498e-07
8.97116e-07
5.10768e-07
1.83958e-07
1.12792e-07
1.34143e-07
1.57929e-07
2.70552e-07
1.90094e-06
2.00132e-06
1.69446e-07
1.06586e-07
1.0707e-07
8.3231e-08
1.68848e-07
5.94348e-07
7.8619e-07
3.97518e-07
1.00989e-07
2.72222e-06
4.83447e-06
1.47735e-06
5.06474e-07
3.20399e-07
4.61014e-07
1.57766e-06
7.13267e-06
4.76778e-06
2.9534e-07
3.71296e-07
7.08797e-07
8.8643e-07
3.53649e-07
1.30577e-07
1.27466e-07
1.61105e-07
1.939e-07
3.47156e-07
2.53662e-06
2.33494e-06
1.8929e-07
1.29633e-07
1.00809e-07
1.08485e-07
1.29217e-07
3.46579e-07
6.05007e-07
3.93197e-07
2.16297e-07
1.34911e-06
5.78145e-06
2.59652e-06
6.37489e-07
4.0715e-07
5.53847e-07
1.93958e-06
7.18778e-06
2.84476e-06
2.69251e-07
2.16051e-07
5.05762e-07
3.92173e-07
1.85951e-07
1.28821e-07
1.60013e-07
1.87683e-07
2.50617e-07
4.65026e-07
3.865e-06
2.87709e-06
2.37877e-07
1.42761e-07
1.1628e-07
1.30407e-07
1.36428e-07
2.35802e-07
3.42362e-07
2.27729e-07
1.99264e-07
8.8121e-07
5.52181e-06
5.14938e-06
1.14743e-06
4.8345e-07
7.17391e-07
3.47748e-06
9.21331e-06
1.8258e-06
2.74564e-07
1.7834e-07
2.6399e-07
2.38266e-07
1.6333e-07
1.5801e-07
1.67253e-07
2.41554e-07
4.85039e-07
9.09122e-07
4.98194e-06
3.67216e-06
3.95846e-07
1.86034e-07
1.50776e-07
1.53533e-07
1.62267e-07
2.12392e-07
2.59817e-07
2.21708e-07
2.52051e-07
7.82548e-07
3.88842e-06
8.3224e-06
2.05313e-06
4.98396e-07
9.42032e-07
5.81842e-06
8.72396e-05
1.47359e-06
3.69606e-07
2.5076e-07
2.63903e-07
2.49487e-07
1.91957e-07
2.24019e-07
1.7154e-07
3.60093e-07
1.11289e-06
2.3504e-06
0.000950656
4.13797e-06
7.54786e-07
3.25277e-07
1.78862e-07
1.91224e-07
2.04947e-07
2.21465e-07
2.78806e-07
2.55868e-07
3.2118e-07
9.32867e-07
3.61187e-06
2.039e-05
2.56339e-06
3.32436e-07
9.97962e-07
7.57116e-06
0.00018284
1.77958e-06
5.23075e-07
2.92482e-07
3.27574e-07
3.01783e-07
2.74049e-07
2.70243e-07
2.45589e-07
7.71519e-07
2.09911e-06
0.000364144
0.00465011
0.000169282
1.38992e-06
6.35998e-07
2.47587e-07
2.26148e-07
2.4223e-07
2.61817e-07
3.07029e-07
2.88961e-07
4.74064e-07
1.47327e-06
2.20448e-05
3.28486e-05
2.23874e-06
1.90042e-07
6.4837e-07
7.84775e-06
0.000213957
2.84842e-06
9.65899e-07
3.6536e-07
3.50866e-07
3.78362e-07
3.47574e-07
3.27281e-07
4.11893e-07
1.28707e-06
4.05664e-05
0.00291702
0.00515667
0.00137008
8.69075e-05
1.13589e-06
3.85437e-07
2.44601e-07
2.73305e-07
2.82264e-07
3.58668e-07
3.77873e-07
9.55235e-07
2.9112e-06
0.000236792
1.71301e-05
1.1756e-06
2.0479e-07
2.15097e-07
4.82574e-06
0.000213982
7.9378e-05
2.46567e-06
7.03652e-07
3.69023e-07
4.17784e-07
4.19782e-07
4.43484e-07
6.90707e-07
1.45506e-06
0.000931432
0.00487938
0.00516255
0.00299566
0.00107739
8.19335e-06
6.18365e-07
3.06564e-07
2.7858e-07
3.43355e-07
4.13428e-07
6.94753e-07
2.6778e-06
0.000107351
0.000241504
7.84164e-06
2.61836e-07
2.67547e-07
2.51435e-07
1.00895e-06
3.02071e-05
0.000124542
1.75601e-05
2.40728e-06
5.49182e-07
4.26073e-07
5.68173e-07
8.09085e-07
1.0818e-06
6.32287e-05
0.00297946
0.00494491
0.00465704
0.00366961
0.00259384
0.000387435
8.70446e-07
4.89589e-07
3.71311e-07
4.63922e-07
5.31973e-07
1.83317e-06
1.13163e-05
0.000120506
1.74354e-05
1.04714e-06
2.62802e-07
2.92435e-07
3.00365e-07
2.4805e-07
3.02382e-06
0.000131655
0.000124709
1.02054e-05
1.92877e-06
5.39914e-07
8.63631e-07
1.65385e-06
1.61977e-06
0.000420099
0.00490162
0.0048695
0.00194253
0.0038694
0.00380453
0.00143711
1.03658e-06
7.82931e-07
6.68681e-07
8.26007e-07
1.33507e-06
5.94563e-06
2.6977e-05
3.50049e-05
1.80917e-06
2.67347e-07
3.14018e-07
3.43471e-07
3.38148e-07
3.15872e-07
2.85646e-07
3.36221e-06
5.39748e-05
4.59969e-05
7.82837e-06
1.05712e-06
1.15472e-06
3.64586e-06
8.96591e-06
0.000621543
0.00483525
0.00100335
0.000247502
0.00400258
0.00459404
0.00298456
0.000146137
1.05905e-06
1.34194e-06
1.98768e-06
5.67202e-06
1.51241e-05
1.01415e-05
1.9585e-06
3.35994e-07
4.02702e-07
4.43322e-07
5.56008e-07
5.28106e-07
4.43319e-07
4.20606e-07
3.8044e-07
2.11341e-06
8.73478e-06
8.93012e-06
2.31183e-06
1.79119e-06
1.12066e-05
0.000168466
0.000307664
0.00110295
0.000968722
0.00154947
0.00448172
0.00470418
0.00464505
0.00131753
1.73711e-06
2.52444e-06
3.4611e-06
0.00110035
1.2894e-05
3.91631e-06
4.72153e-07
5.56044e-07
5.33262e-07
6.62102e-07
7.42156e-07
6.73953e-07
5.91224e-07
5.57842e-07
6.31257e-07
5.41654e-07
1.14683e-06
3.05221e-06
2.54041e-06
2.63395e-06
2.05638e-05
0.0010071
0.000694714
0.00138504
0.00179601
0.00632485
0.00470591
0.00470315
0.00470663
0.00451637
0.000900964
0.000200701
0.00196107
0.0019997
4.31881e-06
5.67814e-07
7.6194e-07
4.43693e-07
3.24302e-07
0.000265097
0.000432661
0.000437574
0.000363799
1.47994e-05
6.21417e-07
1.04741e-06
1.38594e-06
1.21723e-06
1.16396e-06
4.07821e-06
1.42623e-05
0.00394542
0.00451195
0.0052852
0.00633752
0.00636229
0.00469771
0.00464036
0.00467411
0.00470834
0.00463042
0.00465148
0.00457
0.000748573
2.3501e-06
1.541e-06
1.72077e-06
0.000334566
0.000461722
0.00043937
0.000489799
0.000440514
0.000483251
0.000440572
0.000466832
0.000427876
7.32972e-06
1.57363e-06
1.25765e-06
7.52293e-06
1.85053e-05
0.00599103
0.00619875
0.00632122
0.00624428
0.00631055
0.00141114
2.25453e-05
0.000118921
0.00453373
0.00467856
0.0045921
0.00459621
7.68158e-05
2.82977e-05
0.000445828
0.000453254
0.000525565
0.000456064
0.000527655
0.000457882
0.000529389
0.00045996
0.000532048
0.000463829
0.000537878
0.000244565
2.64081e-05
1.7311e-05
2.99828e-05
2.1354e-05
2.22684e-05
0.00606585
0.00599898
2.78812e-05
3.02297e-05
1.4075e-05
2.99217e-06
6.37343e-06
1.55601e-05
4.47431e-05
0.000999934
3.59485e-05
2.70934e-05
4.85628e-05
4.41501e-05
4.69821e-05
4.58532e-05
4.75457e-05
4.4601e-05
4.33032e-05
3.91436e-05
3.50944e-05
3.06645e-05
2.79637e-05
2.20508e-05
1.71368e-05
3.09412e-05
3.1419e-05
3.15852e-05
5.30452e-06
3.73828e-06
1.74668e-05
1.80774e-05
5.13734e-06
1.53657e-05
3.11965e-06
1.91166e-07
7.89125e-08
1.90772e-06
4.68165e-06
7.90677e-06
4.75081e-06
5.14116e-06
7.3064e-06
5.1945e-06
4.68608e-06
4.45002e-06
3.94928e-06
3.47398e-06
3.07882e-06
2.80146e-06
2.49687e-06
2.33409e-06
2.19025e-06
1.91407e-06
1.6113e-06
4.11155e-06
5.27448e-06
3.70508e-06
6.91971e-07
4.52851e-07
2.92928e-06
4.40944e-06
9.11365e-07
7.87514e-06
2.19108e-06
2.4746e-07
1.79436e-07
1.83929e-07
1.44888e-07
1.81421e-07
3.71688e-07
2.59346e-07
8.28115e-07
4.98825e-07
3.71639e-07
3.1917e-07
2.40565e-07
1.87015e-07
1.55682e-07
1.32771e-07
1.04879e-07
8.21341e-08
6.25832e-08
4.22208e-08
4.49365e-08
5.055e-07
7.0486e-07
3.61563e-07
2.42281e-07
4.77115e-07
4.50715e-07
5.41047e-07
7.6672e-07
7.41476e-06
1.93958e-06
2.91057e-07
2.02282e-07
2.31747e-07
2.44455e-07
2.76468e-07
4.35287e-07
1.09155e-07
1.50358e-08
2.72023e-08
3.20211e-08
3.80637e-08
4.98499e-08
5.72249e-08
6.60516e-08
6.55521e-08
6.44963e-08
5.62681e-08
5.18478e-08
4.3127e-08
3.32966e-08
3.01662e-08
3.78537e-08
9.84023e-08
2.38503e-07
7.12686e-07
6.8851e-07
5.72513e-07
6.25628e-07
6.89267e-06
1.8282e-06
2.68641e-07
2.21113e-07
2.5399e-07
3.00701e-07
3.00456e-07
5.87077e-07
1.39375e-07
2.25196e-08
3.2712e-08
3.41489e-08
4.076e-08
4.58206e-08
5.41303e-08
5.51091e-08
5.67757e-08
5.36742e-08
5.06083e-08
4.52904e-08
4.4934e-08
3.21363e-08
3.05299e-08
3.97055e-08
1.04267e-07
2.67913e-07
9.89905e-07
8.38261e-07
6.32853e-07
5.67953e-07
6.32489e-06
2.29016e-06
2.28432e-07
2.03021e-07
2.677e-07
3.37226e-07
2.98364e-07
6.5232e-07
1.7256e-07
3.61895e-08
3.54482e-08
3.80129e-08
3.96315e-08
4.52334e-08
4.69548e-08
4.94076e-08
4.7341e-08
4.68275e-08
4.36266e-08
4.34631e-08
4.29234e-08
3.69995e-08
2.85795e-08
5.26307e-08
1.00344e-07
3.04316e-07
1.27011e-06
8.86497e-07
6.67289e-07
5.38048e-07
5.93348e-06
3.6145e-06
2.51685e-07
1.99668e-07
2.60303e-07
4.21356e-07
3.21557e-07
5.7226e-07
1.68933e-07
4.34776e-08
4.54478e-08
3.92799e-08
4.06108e-08
4.19248e-08
4.42598e-08
4.22993e-08
4.20304e-08
4.04543e-08
3.92861e-08
3.82588e-08
4.29416e-08
3.66366e-08
3.39309e-08
5.96824e-08
1.02589e-07
3.88863e-07
1.47252e-06
1.00366e-06
6.36265e-07
5.15086e-07
5.67029e-06
5.04342e-06
3.61162e-07
3.06976e-07
3.72076e-07
6.52026e-07
4.03162e-07
5.17417e-07
1.08737e-07
4.237e-08
4.24274e-08
4.01051e-08
3.84413e-08
4.03457e-08
3.94119e-08
3.88576e-08
3.6895e-08
3.59552e-08
3.43588e-08
3.46834e-08
3.70923e-08
3.83721e-08
2.88034e-08
6.41464e-08
9.57739e-08
5.71523e-07
1.5488e-06
1.04813e-06
6.85263e-07
4.82898e-07
5.63991e-06
5.03335e-06
5.37659e-07
6.17339e-07
7.16599e-07
1.07072e-06
7.07022e-07
4.88418e-07
5.80131e-08
3.17872e-08
4.43224e-08
3.92853e-08
3.71461e-08
3.72824e-08
3.68069e-08
3.45467e-08
3.30914e-08
3.18682e-08
3.09273e-08
2.99679e-08
3.2853e-08
3.2964e-08
2.60426e-08
6.29118e-08
1.12728e-07
7.78409e-07
1.58668e-06
9.88748e-07
6.82623e-07
4.90638e-07
5.85132e-06
5.27399e-06
6.43011e-07
1.00074e-06
1.25089e-06
1.42611e-06
1.67648e-06
4.55835e-07
4.46594e-08
2.89417e-08
4.25676e-08
3.87595e-08
3.53558e-08
3.51718e-08
3.33538e-08
3.16607e-08
2.98556e-08
2.89365e-08
2.76314e-08
2.69653e-08
2.77847e-08
2.80356e-08
2.26516e-08
6.33517e-08
1.16164e-07
9.93439e-07
1.53735e-06
9.39655e-07
6.46238e-07
4.67921e-07
5.97958e-06
5.36906e-06
8.39134e-07
1.39279e-06
1.4476e-06
1.37786e-06
3.86215e-06
3.26924e-07
5.865e-08
2.93744e-08
4.26035e-08
3.5891e-08
3.40369e-08
3.23633e-08
3.06166e-08
2.8505e-08
2.74905e-08
2.70068e-08
2.61561e-08
2.51003e-08
2.6422e-08
2.45517e-08
1.95533e-08
5.79018e-08
1.25989e-07
1.15389e-06
1.39223e-06
9.54965e-07
6.36561e-07
4.63024e-07
5.93673e-06
4.80466e-06
1.14818e-06
1.59324e-06
1.33658e-06
1.13107e-06
5.49047e-06
3.03483e-07
7.20387e-08
2.79053e-08
4.16564e-08
3.62351e-08
3.12326e-08
2.99888e-08
2.80972e-08
2.69285e-08
2.59777e-08
2.60075e-08
2.57394e-08
2.52875e-08
2.67143e-08
2.69847e-08
1.84039e-08
5.50385e-08
1.31192e-07
1.35531e-06
1.30038e-06
8.87099e-07
6.39106e-07
4.54772e-07
5.75793e-06
0.000176485
1.79471e-06
1.29615e-06
1.34831e-06
9.17343e-07
5.21336e-06
4.45415e-07
7.71534e-08
2.55702e-08
4.89932e-08
3.45706e-08
2.89275e-08
2.84986e-08
2.68398e-08
2.59038e-08
2.59211e-08
2.58474e-08
2.62034e-08
2.63999e-08
2.99571e-08
3.05995e-08
1.92613e-08
5.48461e-08
1.50179e-07
1.5856e-06
1.34526e-06
8.57438e-07
6.06781e-07
4.80246e-07
5.45391e-06
0.00219354
1.20811e-05
1.60273e-06
1.57178e-06
1.08436e-06
3.23454e-06
8.07209e-07
6.79166e-08
3.06866e-08
5.10755e-08
3.11193e-08
2.81795e-08
2.7317e-08
2.70965e-08
2.62311e-08
2.68001e-08
2.71494e-08
2.80415e-08
2.81878e-08
3.27095e-08
3.55707e-08
2.08466e-08
5.73238e-08
1.76625e-07
1.92924e-06
1.30741e-06
8.1173e-07
6.16463e-07
5.34746e-07
5.15462e-06
0.00603256
0.00128342
2.54366e-06
1.47382e-06
1.32489e-06
1.52762e-06
1.30725e-06
6.12277e-08
3.47939e-08
4.74172e-08
2.92708e-08
2.78852e-08
2.72912e-08
2.73645e-08
2.83426e-08
2.80851e-08
2.95733e-08
2.9185e-08
3.08975e-08
3.60517e-08
3.87726e-08
2.55192e-08
5.88112e-08
2.24785e-07
2.48717e-06
1.17127e-06
7.87594e-07
6.39894e-07
6.70226e-07
5.23911e-06
0.00740886
0.00415176
0.000398799
2.68199e-06
1.34408e-06
1.27125e-06
1.77742e-06
9.60249e-08
4.31642e-08
4.3201e-08
3.25951e-08
2.87345e-08
2.95393e-08
2.87306e-08
2.97204e-08
3.03816e-08
3.13215e-08
3.11201e-08
3.38504e-08
4.00585e-08
4.35587e-08
3.36134e-08
6.69938e-08
3.64851e-07
2.97086e-06
9.50991e-07
8.06427e-07
8.22632e-07
1.02414e-06
6.62907e-06
0.00724438
0.00598708
0.00171134
8.53246e-06
1.45993e-06
1.48932e-06
1.96626e-06
1.64652e-07
4.2383e-08
4.30022e-08
3.5743e-08
3.29304e-08
3.19526e-08
3.23517e-08
3.14547e-08
3.32463e-08
3.3231e-08
3.60792e-08
3.6803e-08
4.59551e-08
4.45799e-08
4.77859e-08
6.97446e-08
7.79172e-07
2.43768e-06
7.81227e-07
1.00911e-06
1.38982e-06
2.59216e-06
0.00117026
0.00719356
0.00680907
0.00309243
0.000201307
2.32358e-06
1.49031e-06
2.35365e-06
1.97862e-07
4.21397e-08
4.7101e-08
3.8903e-08
3.68093e-08
3.59473e-08
3.52658e-08
3.58743e-08
3.55669e-08
3.81587e-08
3.90193e-08
4.20689e-08
4.77185e-08
4.78576e-08
5.54265e-08
1.06748e-07
1.47987e-06
1.04138e-06
7.9647e-07
1.53101e-06
2.6307e-06
0.000735819
0.0092243
0.00730969
0.00732942
0.00421748
0.000599392
2.95667e-06
1.52526e-06
2.54366e-06
2.09173e-07
5.39536e-08
4.82149e-08
4.23485e-08
4.02362e-08
3.90838e-08
3.89248e-08
3.87815e-08
3.99974e-08
4.10869e-08
4.27263e-08
4.49664e-08
5.07052e-08
5.05801e-08
5.76896e-08
2.21513e-07
1.97687e-06
6.67548e-07
1.0277e-06
2.38432e-06
0.000362268
0.00773816
0.0109508
0.00779979
0.00779263
0.00513743
0.0011245
3.08983e-06
1.32403e-06
2.92315e-06
2.34462e-07
6.49543e-08
5.01375e-08
4.53507e-08
4.35073e-08
4.28149e-08
4.20257e-08
4.25533e-08
4.29665e-08
4.46647e-08
4.57241e-08
4.86838e-08
5.2561e-08
5.59124e-08
6.22428e-08
2.66826e-07
2.48521e-06
8.28567e-07
1.72678e-06
3.14934e-05
0.00433873
0.0109391
0.0109757
0.0089983
0.00856116
0.00599143
0.00170681
7.77662e-06
1.17595e-06
3.37497e-06
2.84219e-07
6.98433e-08
5.16417e-08
4.56668e-08
4.6654e-08
4.49743e-08
4.5004e-08
4.43939e-08
4.56636e-08
4.65879e-08
4.93319e-08
5.04935e-08
5.59659e-08
5.68908e-08
8.00665e-08
2.53457e-07
4.33655e-06
1.15684e-06
2.33119e-06
0.00117631
0.00890724
0.0109656
0.0109871
0.0107166
0.0102421
0.00720425
0.00235063
5.26385e-05
1.00185e-06
3.75227e-06
3.77871e-07
7.43133e-08
4.71952e-08
4.68679e-08
4.66284e-08
4.63634e-08
4.5597e-08
4.60637e-08
4.6384e-08
4.87028e-08
5.03117e-08
5.34108e-08
5.58541e-08
6.29867e-08
8.44688e-08
3.16285e-07
7.28219e-06
1.56929e-06
0.000148144
0.00356409
0.0108264
0.0111063
0.00649842
0.0114445
0.0125832
0.00931969
0.00333013
0.000181805
9.61448e-07
3.97439e-06
5.0306e-07
6.95438e-08
4.97448e-08
4.84312e-08
4.82642e-08
4.69048e-08
4.75457e-08
4.68201e-08
4.86265e-08
4.95678e-08
5.21945e-08
5.41253e-08
5.67083e-08
6.90025e-08
8.50956e-08
3.98251e-07
9.5019e-06
4.24074e-05
0.000775756
0.00667364
0.0110825
0.0108298
0.00239517
0.011476
0.014714
0.0124765
0.00532391
0.00054475
1.03492e-06
4.20029e-06
5.99596e-07
6.83704e-08
5.35594e-08
5.2269e-08
4.8836e-08
4.92881e-08
4.82471e-08
4.86169e-08
4.92706e-08
5.1305e-08
5.28608e-08
5.50499e-08
5.75821e-08
7.39008e-08
8.44982e-08
4.78947e-07
8.45173e-06
0.000222866
0.00203881
0.0101017
0.0108155
0.0110913
0.00185646
0.0114788
0.0163555
0.0162505
0.00931811
0.00160463
4.62979e-05
4.64696e-06
6.80754e-07
6.58512e-08
5.643e-08
5.36055e-08
4.95655e-08
5.01369e-08
4.94075e-08
4.91225e-08
4.93402e-08
5.1317e-08
5.31398e-08
5.4323e-08
5.95666e-08
7.4968e-08
8.16844e-08
6.17955e-07
7.03917e-06
0.000742691
0.00435297
0.0106957
0.0110399
0.00555878
0.00240109
0.0114673
0.0162994
0.0168907
0.016176
0.00431864
0.000438102
5.06486e-06
7.60109e-07
6.17882e-08
5.48591e-08
5.27639e-08
4.77913e-08
4.91759e-08
4.79416e-08
4.78728e-08
4.75829e-08
4.94588e-08
5.07308e-08
5.22269e-08
5.90357e-08
7.76446e-08
7.44401e-08
6.8861e-07
5.1057e-06
0.00182072
0.00684922
0.0107769
0.00840766
1.16181e-05
4.00098e-05
4.83138e-05
0.00744826
0.0161939
0.0166185
0.00939258
0.00181896
4.88537e-06
7.90585e-07
5.25897e-08
5.00344e-08
4.79193e-08
4.23742e-08
4.36639e-08
4.1586e-08
4.18504e-08
4.18821e-08
4.39466e-08
4.54438e-08
4.77804e-08
5.86589e-08
7.89869e-08
7.50167e-08
3.41642e-07
3.78273e-06
0.00156155
0.00630023
0.00109778
1.05381e-05
1.62952e-06
1.06232e-05
1.32833e-05
9.76019e-06
0.00199214
0.0103987
0.00938608
0.00372592
3.79044e-06
3.03374e-07
4.67271e-08
4.82067e-08
4.40363e-08
3.56534e-08
3.55765e-08
3.26221e-08
3.29059e-08
3.49928e-08
3.86157e-08
4.13297e-08
4.75022e-08
6.59606e-08
8.90869e-08
8.14266e-08
3.25853e-07
3.17815e-06
1.1502e-05
0.00238184
7.46402e-06
2.86839e-06
5.72711e-07
6.92123e-06
8.25371e-06
1.93948e-06
6.60002e-06
0.000153438
0.000511919
1.0955e-05
1.72819e-06
3.32429e-07
5.26576e-08
5.48993e-08
5.07323e-08
3.75828e-08
3.48665e-08
3.23535e-08
3.33283e-08
3.77013e-08
4.32288e-08
4.82766e-08
6.27194e-08
9.12387e-08
1.29793e-07
2.80035e-07
9.59417e-07
2.92692e-06
4.2093e-06
8.72189e-05
1.8042e-06
6.39425e-07
6.48416e-07
7.24881e-06
7.63543e-06
9.4354e-07
1.53476e-06
3.58144e-06
3.61765e-06
2.93658e-06
1.70509e-06
4.3487e-07
1.11471e-07
7.50873e-08
7.32332e-08
5.51305e-08
4.80774e-08
4.61794e-08
4.87265e-08
5.52197e-08
6.49386e-08
7.79683e-08
1.10944e-07
1.59825e-07
3.17702e-07
6.69362e-07
8.2979e-07
8.86934e-07
1.914e-06
4.36732e-06
8.28872e-07
7.9025e-07
7.23467e-07
7.16411e-06
6.95751e-06
9.28641e-07
1.52779e-06
1.80848e-06
1.46079e-06
2.05164e-06
1.11398e-06
3.18968e-07
1.23721e-07
8.91665e-08
8.68626e-08
7.39544e-08
6.46429e-08
6.49587e-08
6.95812e-08
7.718e-08
8.99677e-08
1.12969e-07
1.53474e-07
2.21221e-07
3.84382e-07
4.7997e-07
2.42681e-07
1.24862e-07
6.6802e-07
3.85838e-06
2.04369e-06
9.92031e-07
9.00762e-07
6.89869e-06
6.21126e-06
9.04454e-07
1.60872e-06
1.97565e-06
1.56373e-06
1.73166e-06
7.8637e-07
1.62226e-07
4.10927e-08
4.50764e-08
5.46108e-08
5.56229e-08
5.55702e-08
5.81371e-08
6.13615e-08
6.46908e-08
7.12966e-08
8.87723e-08
1.11347e-07
1.38078e-07
1.72832e-07
1.27404e-07
4.99489e-08
8.14516e-08
4.01496e-07
4.21667e-06
3.20767e-06
1.1689e-06
1.1612e-06
6.5969e-06
5.60509e-06
8.60365e-07
1.63628e-06
2.09817e-06
1.71428e-06
1.84328e-06
7.69791e-07
1.13992e-07
4.11704e-08
3.41707e-08
3.92561e-08
4.30727e-08
4.62592e-08
4.73046e-08
4.96867e-08
4.98125e-08
5.03507e-08
5.59881e-08
6.04841e-08
5.9608e-08
5.76221e-08
5.80705e-08
5.3392e-08
8.61489e-08
3.72487e-07
5.00174e-06
6.8527e-06
1.35239e-06
1.66259e-06
1.55501e-05
5.25634e-06
8.24065e-07
1.60055e-06
2.12627e-06
1.9062e-06
2.30798e-06
1.10258e-06
1.26103e-07
6.67183e-08
5.62326e-08
5.57851e-08
5.43977e-08
5.5109e-08
5.48282e-08
5.53006e-08
5.54018e-08
5.55512e-08
5.68165e-08
5.887e-08
5.72055e-08
6.02193e-08
6.562e-08
6.58388e-08
9.1942e-08
3.84454e-07
5.97498e-06
1.91825e-05
1.61613e-06
2.35422e-06
0.000379918
4.86495e-06
8.26527e-07
1.52361e-06
2.07485e-06
2.15234e-06
2.62577e-06
2.04983e-06
1.80343e-07
8.54963e-08
7.63611e-08
7.52058e-08
7.31797e-08
7.27018e-08
7.12897e-08
7.08969e-08
7.11432e-08
7.21262e-08
7.2495e-08
7.41956e-08
7.12205e-08
7.35115e-08
7.86593e-08
7.80227e-08
9.9464e-08
4.1495e-07
7.13437e-06
7.51863e-05
3.77797e-06
0.000223562
0.00191159
4.38727e-06
8.46591e-07
1.45779e-06
2.92658e-06
7.89641e-06
4.83003e-06
3.96116e-06
4.33244e-07
1.01435e-07
9.37553e-08
9.0936e-08
8.97138e-08
8.7864e-08
8.71604e-08
8.73567e-08
8.85223e-08
9.00311e-08
9.179e-08
9.45039e-08
9.0431e-08
8.7479e-08
9.02591e-08
9.02121e-08
1.06393e-07
5.10459e-07
8.17682e-06
0.000304442
0.000296058
0.00155707
0.00415675
6.96245e-06
8.89936e-07
5.60125e-06
2.60265e-05
3.22649e-05
5.09341e-06
5.43196e-06
1.26819e-06
1.26882e-07
1.22558e-07
1.18183e-07
1.17547e-07
1.13282e-07
1.14152e-07
1.16565e-07
1.189e-07
1.20619e-07
1.25185e-07
1.29402e-07
1.23412e-07
1.08773e-07
1.00506e-07
1.01167e-07
1.17847e-07
6.7056e-07
8.13889e-06
0.00107314
0.00177762
0.00374262
0.00515495
7.28465e-05
9.73745e-06
5.36919e-05
0.000104968
9.86488e-05
3.53651e-05
3.26303e-05
2.48751e-06
1.7727e-07
1.57913e-07
1.53237e-07
1.53723e-07
1.47443e-07
1.49327e-07
1.53877e-07
1.57084e-07
1.60148e-07
1.69443e-07
1.78185e-07
1.72436e-07
1.41542e-07
1.16885e-07
1.21143e-07
1.56229e-07
6.93975e-07
7.06873e-06
0.00239716
0.00435432
0.00515426
0.00516213
0.000280953
9.60734e-05
0.000175609
0.000264224
0.000252056
0.000177411
0.00012327
3.09667e-06
2.22825e-07
1.52799e-07
1.50224e-07
1.57936e-07
1.54599e-07
1.5559e-07
1.57742e-07
1.59892e-07
1.65682e-07
1.7892e-07
1.93772e-07
1.97805e-07
1.65801e-07
1.425e-07
1.66151e-07
2.46976e-07
7.90627e-07
7.04016e-06
0.000573273
0.00413262
0.00515613
0.00516125
0.000700359
0.000347961
0.000399355
0.000504874
0.000481258
0.000481914
0.000252135
2.87504e-06
2.19038e-07
1.19574e-07
1.05502e-07
1.26232e-07
1.32416e-07
1.30247e-07
1.23839e-07
1.19297e-07
1.16385e-07
1.11235e-07
1.11847e-07
1.29711e-07
1.3886e-07
1.71381e-07
2.34498e-07
4.21773e-07
2.53573e-06
0.00013348
0.000135747
0.000363993
0.00442302
0.00494039
0.00158969
0.000995456
0.000916287
0.000926209
0.000807817
0.000895752
0.00032927
2.28406e-06
1.64174e-07
1.81945e-07
2.14301e-07
2.25918e-07
2.45067e-07
2.35835e-07
2.19536e-07
2.02649e-07
1.79643e-07
1.24142e-07
6.16127e-08
6.95845e-08
1.15189e-07
2.10926e-07
2.84178e-07
8.08666e-07
1.60458e-05
0.000533804
0.000305937
2.00184e-05
1.17969e-05
2.29473e-05
0.00369426
0.00279305
0.00238382
0.00198724
0.00142287
0.0012214
0.000207627
1.50836e-06
2.14681e-07
1.9076e-07
2.30873e-07
2.69808e-07
2.9466e-07
2.94757e-07
2.8538e-07
2.74374e-07
2.55843e-07
2.15658e-07
1.89579e-07
1.78495e-07
1.96898e-07
2.64927e-07
2.55834e-07
1.17169e-06
0.000103122
0.000806833
0.000963278
0.000171445
2.02054e-06
3.12438e-06
0.00818105
0.00706701
0.00583344
0.00445253
0.00293655
0.00181385
3.96273e-05
1.02742e-06
2.61604e-07
1.58914e-07
1.12195e-07
1.16942e-07
1.29427e-07
1.38919e-07
1.40391e-07
1.37847e-07
1.26078e-07
1.11352e-07
1.20839e-07
1.49989e-07
2.02505e-07
2.37298e-07
2.01387e-07
1.10564e-06
0.000100237
0.000891594
0.00112647
0.000678444
2.3306e-06
1.41334e-06
0.014527
0.0126679
0.0102592
0.00800236
0.0058654
0.0034024
1.29767e-05
6.86496e-07
2.8224e-07
2.24842e-07
1.65959e-07
1.27357e-07
1.18417e-07
1.17422e-07
1.17731e-07
1.17241e-07
1.15834e-07
1.14647e-07
1.28398e-07
1.63e-07
1.99217e-07
2.3588e-07
2.69529e-07
9.31286e-07
0.000105256
0.000729662
0.0011288
0.00104174
0.000131967
3.60984e-06
0.0195244
0.0158579
0.0124589
0.0103628
0.00891497
0.00569425
1.86878e-05
4.69465e-07
3.22939e-07
2.77629e-07
2.51767e-07
2.16694e-07
2.00117e-07
1.92889e-07
1.91352e-07
1.92562e-07
1.94944e-07
1.97964e-07
2.08133e-07
2.2243e-07
2.46322e-07
3.0036e-07
4.19698e-07
1.0127e-06
0.000107774
6.78876e-05
0.00112558
0.00112548
0.000575737
0.000167073
0.0224995
0.018385
0.0144059
0.0121814
0.0104592
0.00604491
0.000175718
1.08052e-06
4.20631e-07
3.54048e-07
3.16971e-07
2.90549e-07
2.78099e-07
2.73116e-07
2.72184e-07
2.753e-07
2.77691e-07
2.76868e-07
2.80856e-07
2.91712e-07
3.31949e-07
4.19873e-07
6.5395e-07
1.56492e-06
7.47044e-06
7.70541e-06
0.00100423
0.00121104
0.00105229
0.000645276
0.0225531
0.0224894
0.0187676
0.0148196
0.0111539
0.00615242
0.00142065
1.75665e-05
7.38083e-07
4.79086e-07
4.34384e-07
4.01304e-07
3.8472e-07
3.78653e-07
3.7767e-07
3.84208e-07
3.8968e-07
3.85969e-07
3.87974e-07
4.1209e-07
4.71884e-07
6.63552e-07
1.26758e-06
1.73153e-05
5.63986e-06
1.2691e-05
0.000825098
0.00132955
0.00162502
0.00157005
0.0226058
0.0225407
0.020993
0.0155845
0.0112104
0.00682357
0.00319304
0.000915295
2.17058e-05
7.78902e-07
5.99687e-07
5.53661e-07
5.30163e-07
5.20122e-07
5.171e-07
5.24214e-07
5.3201e-07
5.32442e-07
5.43504e-07
5.61432e-07
6.61737e-07
1.39807e-06
0.000176805
0.000133375
6.22368e-06
7.47108e-05
0.00107427
0.00177448
0.00248678
0.00297606
0.022518
0.0223865
0.0149331
0.0113366
0.00918409
0.00681334
0.00414329
0.00164603
0.000360333
2.65148e-05
9.95496e-07
7.75455e-07
6.70998e-07
6.19985e-07
5.91844e-07
5.78321e-07
5.79385e-07
6.04098e-07
6.25789e-07
6.43485e-07
1.90024e-05
0.000260631
0.000672249
0.000539465
9.23145e-05
0.000306733
0.0014236
0.00253653
0.00300035
0.00300328
0.0061984
0.00712017
0.00512436
0.00528274
0.00601728
0.00626318
0.00471574
0.00166491
0.000393941
0.000277724
0.000245233
0.000118752
5.43754e-05
3.25307e-05
2.69459e-05
2.86421e-05
3.37988e-05
4.23206e-05
7.37101e-05
0.000173363
0.000399396
0.000668232
0.000899651
0.000899047
0.000488991
0.00070687
0.00168793
0.00299724
0.00300357
0.00301084
1.00015e-05
4.30349e-05
0.00177851
0.00338219
0.0047305
0.00597424
0.00490428
0.00153871
0.000392793
0.000562287
0.000709704
0.000604089
0.000493866
0.000418864
0.000382122
0.000371376
0.000383634
0.000427126
0.00050845
0.000626873
0.00077718
0.00092583
0.00094267
0.000897655
0.000751304
0.00104596
0.00195217
0.00299261
0.00300585
0.00300577
8.84508e-07
8.33304e-06
3.39282e-05
0.00260736
0.00395507
0.00534332
0.00406729
0.000828518
0.000217898
0.000873638
0.000879675
0.000866945
0.00085276
0.000827937
0.000808003
0.000801573
0.000806427
0.000831527
0.000855536
0.000885449
0.00093709
0.00094369
0.000953114
0.000756
0.000687255
0.0012973
0.00213177
0.00241092
0.00178349
3.26192e-05
4.4121e-07
2.52509e-07
5.84598e-06
2.4413e-05
0.0017286
0.00319411
0.00248539
0.000236453
3.01734e-05
0.000278524
0.000907627
0.000910996
0.000912766
0.000917398
0.000919235
0.000923849
0.00092443
0.000929222
0.00093352
0.000938312
0.000943521
0.00098383
0.000952314
0.000557044
0.000224829
0.000991197
0.00211177
0.0013239
1.20805e-05
2.8501e-06
3.75624e-07
5.85048e-08
7.23691e-08
2.52843e-06
1.33936e-05
0.000271427
0.00158149
0.000104169
8.04958e-06
4.3646e-06
6.14457e-05
0.000744917
0.000911025
0.000912946
0.000917704
0.00091954
0.000924231
0.000924827
0.000929534
0.000934062
0.000806576
0.000954481
0.000983484
0.000309321
9.09929e-06
0.000210463
0.00164596
1.37198e-05
2.02311e-06
7.7451e-08
2.90746e-07
7.90391e-08
9.04559e-08
9.3866e-08
5.75149e-07
7.20409e-06
5.41022e-05
0.000127493
3.94115e-05
1.81326e-06
2.50362e-06
6.56994e-06
0.000456496
0.000912554
0.000913217
0.000918507
0.000919904
0.000924986
0.000924631
0.000355427
0.000188131
0.00101039
0.000961102
0.000223643
8.15783e-06
8.89011e-06
4.48444e-05
2.7494e-06
1.21319e-07
1.62833e-07
2.0404e-07
9.63078e-08
1.11674e-07
1.27593e-07
1.54545e-07
2.31721e-07
5.37268e-06
0.000144956
0.000230754
5.95286e-06
8.25233e-07
1.50179e-06
3.87829e-06
0.000193738
0.000752638
0.000914102
0.000922431
0.000876261
0.000104336
3.59199e-06
7.8253e-05
0.000960204
0.000993777
0.000325765
1.87338e-05
4.00176e-06
2.94496e-06
2.43627e-07
1.5628e-07
2.06661e-07
1.46704e-07
1.11227e-07
1.44756e-07
1.89925e-07
2.13093e-07
2.21128e-07
7.53311e-07
8.64016e-06
0.000232857
0.000117309
1.36767e-06
5.50636e-07
7.13005e-07
1.87529e-06
3.44897e-06
7.93918e-06
1.04509e-05
3.41225e-06
1.513e-06