/*--------------------------------*- C++ -*----------------------------------*\
| =========                 |                                                 |
| \\      /  F ield         | OpenFOAM: The Open Source CFD Toolbox           |
|  \\    /   O peration     | Version:  2.3.0                                 |
|   \\  /    A nd           | Web:      www.OpenFOAM.org                      |
|    \\/     M anipulation  |                                                 |
\*---------------------------------------------------------------------------*/
FoamFile
{
    version     2.0;
    format      ascii;
    class       volVectorField;
    location    "0.44";
    object      Ur;
}
// * * * * * * * * * * * * * * * * * * * * * * * * * * * * * * * * * * * * * //

dimensions      [0 1 -1 0 0 0 0];

internalField   nonuniform List<vector> 
6000
(
(0.0110109 -0.525387 0)
(0.039773 -0.544076 0)
(0.105351 -0.572097 0)
(0.158472 -0.615958 0)
(0.124174 -0.654337 0)
(0.0436534 -0.656784 0)
(-0.0150518 -0.621288 0)
(-0.058725 -0.566836 0)
(-0.0558064 -0.542026 0)
(-0.0155313 -0.532211 0)
(0.0189658 -0.523029 0)
(0.0234628 -0.516251 0)
(0.00888452 -0.555162 0)
(0.00284844 -0.614858 0)
(-0.00727544 -0.539234 0)
(-0.0151796 -0.612889 0)
(-0.012138 -0.597093 0)
(-0.0211945 -0.527117 0)
(-0.0325576 -0.518133 0)
(-0.0163257 -0.53016 0)
(0.0322287 -0.54952 0)
(0.0674509 -0.566319 0)
(0.0388782 -0.602744 0)
(-0.0139103 -0.644206 0)
(-0.0668342 -0.656548 0)
(-0.129236 -0.634925 0)
(-0.142166 -0.596137 0)
(-0.0927547 -0.561816 0)
(-0.0303307 -0.546799 0)
(-0.00406669 -0.524151 0)
(-0.0158268 -0.953361 0)
(-0.0192187 -1.01181 0)
(0.0207142 -1.06663 0)
(0.0693067 -1.11801 0)
(0.0860321 -1.15108 0)
(0.0859463 -1.13968 0)
(0.090287 -1.06525 0)
(0.0941779 -0.979256 0)
(0.127383 -0.959578 0)
(0.154923 -0.913433 0)
(0.155378 -0.890132 0)
(0.143756 -0.856383 0)
(0.114127 -0.838453 0)
(0.0742916 -0.851144 0)
(0.00598235 -0.770301 0)
(-0.0789529 -0.833094 0)
(-0.122701 -0.871858 0)
(-0.15151 -0.854274 0)
(-0.172007 -0.885139 0)
(-0.17115 -0.922022 0)
(-0.136839 -0.975472 0)
(-0.0840202 -0.991832 0)
(-0.0698487 -1.02532 0)
(-0.074004 -1.09481 0)
(-0.0656612 -1.1392 0)
(-0.0688446 -1.12249 0)
(-0.0618067 -1.08452 0)
(-0.0344838 -1.04423 0)
(0.00977403 -1.03458 0)
(0.0191723 -0.954983 0)
(-0.0664441 -0.924935 0)
(-0.101029 -1.0764 0)
(-0.0332023 -1.17192 0)
(0.0367184 -1.16514 0)
(0.0848384 -1.12948 0)
(0.137011 -1.14321 0)
(0.182501 -1.10257 0)
(0.211542 -1.05819 0)
(0.246187 -0.995422 0)
(0.256805 -0.868447 0)
(0.230133 -0.76458 0)
(0.179172 -0.694678 0)
(0.123059 -0.660128 0)
(0.0816116 -0.648572 0)
(0.00910477 -0.557341 0)
(-0.0832763 -0.614224 0)
(-0.128684 -0.691617 0)
(-0.176258 -0.681129 0)
(-0.240202 -0.741233 0)
(-0.272001 -0.856016 0)
(-0.253727 -0.997499 0)
(-0.186734 -1.05585 0)
(-0.14988 -1.05811 0)
(-0.141255 -1.1046 0)
(-0.0951229 -1.13712 0)
(-0.058175 -1.11448 0)
(-0.0345698 -1.14012 0)
(0.00284837 -1.13553 0)
(0.0837441 -1.13266 0)
(0.0739194 -0.921828 0)
(-0.0539846 -0.896692 0)
(-0.0637401 -1.20779 0)
(0.0191899 -1.37276 0)
(0.070131 -1.35565 0)
(0.110832 -1.27963 0)
(0.159927 -1.31848 0)
(0.204707 -1.26482 0)
(0.274289 -1.26641 0)
(0.370652 -1.19789 0)
(0.408174 -0.980094 0)
(0.330589 -0.77134 0)
(0.221871 -0.679566 0)
(0.147163 -0.647666 0)
(0.081313 -0.62516 0)
(0.00739289 -0.560303 0)
(-0.0650858 -0.592664 0)
(-0.138657 -0.666515 0)
(-0.210966 -0.663564 0)
(-0.309069 -0.723321 0)
(-0.403926 -0.917166 0)
(-0.39669 -1.18226 0)
(-0.287978 -1.28741 0)
(-0.194934 -1.21023 0)
(-0.157599 -1.26268 0)
(-0.127741 -1.31595 0)
(-0.092596 -1.25619 0)
(-0.0611288 -1.31459 0)
(-0.0235491 -1.31873 0)
(0.0497989 -1.30816 0)
(0.0436631 -0.883203 0)
(0.0462946 -0.947045 0)
(0.128002 -1.33422 0)
(0.146264 -1.41343 0)
(0.145598 -1.40305 0)
(0.170339 -1.38022 0)
(0.205026 -1.41325 0)
(0.259945 -1.43439 0)
(0.342433 -1.47959 0)
(0.427702 -1.36096 0)
(0.471551 -1.02636 0)
(0.421675 -0.738239 0)
(0.305022 -0.64399 0)
(0.186956 -0.605594 0)
(0.0947444 -0.578756 0)
(0.00961584 -0.55209 0)
(-0.0677565 -0.563319 0)
(-0.156411 -0.600656 0)
(-0.27003 -0.621183 0)
(-0.392974 -0.680723 0)
(-0.463227 -0.931599 0)
(-0.43601 -1.31215 0)
(-0.369216 -1.49469 0)
(-0.287124 -1.41368 0)
(-0.209242 -1.39381 0)
(-0.172742 -1.3761 0)
(-0.146739 -1.34942 0)
(-0.115755 -1.35504 0)
(-0.108554 -1.36873 0)
(-0.116592 -1.38391 0)
(-0.0548322 -0.957753 0)
(0.0901642 -1.10134 0)
(0.176765 -1.25003 0)
(0.164555 -1.29366 0)
(0.15821 -1.29706 0)
(0.171372 -1.30849 0)
(0.188542 -1.31753 0)
(0.218914 -1.34554 0)
(0.257988 -1.37284 0)
(0.342087 -1.37527 0)
(0.444195 -1.08947 0)
(0.447621 -0.691287 0)
(0.352082 -0.558887 0)
(0.221029 -0.551258 0)
(0.11615 -0.53651 0)
(0.014669 -0.53166 0)
(-0.0831368 -0.530649 0)
(-0.181805 -0.543216 0)
(-0.3013 -0.546963 0)
(-0.403318 -0.600843 0)
(-0.436989 -0.966229 0)
(-0.353958 -1.3622 0)
(-0.269001 -1.37697 0)
(-0.233381 -1.33713 0)
(-0.188305 -1.30125 0)
(-0.161447 -1.29403 0)
(-0.141704 -1.26521 0)
(-0.124195 -1.2646 0)
(-0.121624 -1.2546 0)
(-0.142371 -1.24877 0)
(-0.0794378 -1.09155 0)
(0.0400768 -1.12675 0)
(0.0995712 -1.20628 0)
(0.121941 -1.24821 0)
(0.13711 -1.2858 0)
(0.150329 -1.29853 0)
(0.167304 -1.32806 0)
(0.190405 -1.33775 0)
(0.240266 -1.3663 0)
(0.32081 -1.35144 0)
(0.386423 -1.06978 0)
(0.364524 -0.600631 0)
(0.29746 -0.447624 0)
(0.213136 -0.487284 0)
(0.115592 -0.500303 0)
(0.0163333 -0.505389 0)
(-0.0797313 -0.499632 0)
(-0.175386 -0.48762 0)
(-0.264094 -0.456488 0)
(-0.324413 -0.498856 0)
(-0.368561 -0.927415 0)
(-0.325158 -1.34033 0)
(-0.244973 -1.36491 0)
(-0.194865 -1.33074 0)
(-0.161895 -1.31418 0)
(-0.13771 -1.28479 0)
(-0.121423 -1.26897 0)
(-0.106479 -1.24315 0)
(-0.0931707 -1.22294 0)
(-0.0706771 -1.182 0)
(-0.0273058 -1.11332 0)
(0.00780206 -1.14224 0)
(0.0388872 -1.19175 0)
(0.0740956 -1.23976 0)
(0.097352 -1.26783 0)
(0.11975 -1.30652 0)
(0.138691 -1.3215 0)
(0.159977 -1.34606 0)
(0.201359 -1.3683 0)
(0.304717 -1.39727 0)
(0.319128 -0.973364 0)
(0.230485 -0.479591 0)
(0.193925 -0.392867 0)
(0.165037 -0.458146 0)
(0.0963562 -0.49161 0)
(0.0157298 -0.505907 0)
(-0.0633126 -0.495734 0)
(-0.136197 -0.465975 0)
(-0.178256 -0.409968 0)
(-0.200266 -0.410576 0)
(-0.278815 -0.796204 0)
(-0.306971 -1.37155 0)
(-0.207273 -1.37743 0)
(-0.156862 -1.34816 0)
(-0.129238 -1.31569 0)
(-0.107699 -1.30091 0)
(-0.0869224 -1.26153 0)
(-0.0697953 -1.23448 0)
(-0.048157 -1.19193 0)
(-0.0196191 -1.1595 0)
(-0.000581673 -1.11333 0)
(-0.0203267 -1.11052 0)
(-0.0148571 -1.19163 0)
(0.0265536 -1.22884 0)
(0.058049 -1.27053 0)
(0.0829009 -1.29507 0)
(0.106924 -1.33489 0)
(0.11457 -1.34914 0)
(0.124019 -1.39177 0)
(0.207353 -1.43179 0)
(0.207716 -0.856596 0)
(0.146705 -0.418616 0)
(0.122349 -0.417688 0)
(0.104939 -0.493193 0)
(0.0644809 -0.542062 0)
(0.0125306 -0.568019 0)
(-0.0365231 -0.554374 0)
(-0.0828105 -0.498888 0)
(-0.116813 -0.429778 0)
(-0.139064 -0.402402 0)
(-0.177964 -0.678715 0)
(-0.209345 -1.37007 0)
(-0.129569 -1.41345 0)
(-0.0986195 -1.35522 0)
(-0.0922322 -1.3345 0)
(-0.0676039 -1.29296 0)
(-0.0429467 -1.25986 0)
(-0.0206101 -1.21417 0)
(0.00227875 -1.17253 0)
(0.0300338 -1.13129 0)
(0.0245711 -1.07421 0)
(-0.0467843 -1.0204 0)
(-0.0678818 -1.18534 0)
(-0.0203687 -1.22481 0)
(0.0151553 -1.2561 0)
(0.041291 -1.29782 0)
(0.0643408 -1.32375 0)
(0.0660885 -1.36906 0)
(0.0388736 -1.39477 0)
(0.0630575 -1.43624 0)
(0.100036 -0.804867 0)
(0.103081 -0.415791 0)
(0.0557632 -0.449534 0)
(0.0291196 -0.571228 0)
(0.0154909 -0.623332 0)
(0.00302269 -0.680196 0)
(0.0110586 -0.655827 0)
(-0.0015028 -0.569685 0)
(-0.0513848 -0.454312 0)
(-0.110993 -0.41805 0)
(-0.0998614 -0.662471 0)
(-0.0587253 -1.34638 0)
(-0.0260217 -1.41437 0)
(-0.0295041 -1.37566 0)
(-0.0405858 -1.3294 0)
(-0.0179885 -1.29573 0)
(0.0083014 -1.24307 0)
(0.034626 -1.19712 0)
(0.0580492 -1.14726 0)
(0.0935192 -1.11072 0)
(0.0604733 -0.97305 0)
(-0.0651468 -0.888559 0)
(-0.10909 -1.17779 0)
(-0.0605658 -1.20527 0)
(-0.0287313 -1.24532 0)
(0.00113386 -1.2762 0)
(0.0177184 -1.31881 0)
(0.0088626 -1.34321 0)
(-0.0266106 -1.37365 0)
(-0.0558063 -1.38484 0)
(0.011748 -0.844111 0)
(0.0568712 -0.408463 0)
(-0.0106452 -0.430047 0)
(-0.0701114 -0.61387 0)
(-0.0464663 -0.662538 0)
(0.00046293 -0.753854 0)
(0.0570272 -0.728971 0)
(0.0942016 -0.602807 0)
(0.0289226 -0.429874 0)
(-0.0813697 -0.404852 0)
(-0.0441111 -0.734712 0)
(0.0626771 -1.3106 0)
(0.0622506 -1.39908 0)
(0.0361498 -1.36158 0)
(0.0202698 -1.3395 0)
(0.0367097 -1.28307 0)
(0.0695287 -1.23449 0)
(0.098552 -1.16814 0)
(0.113524 -1.11732 0)
(0.15818 -1.07714 0)
(0.093964 -0.800613 0)
(-0.070025 -0.733899 0)
(-0.135652 -1.14455 0)
(-0.0988702 -1.18635 0)
(-0.072748 -1.21917 0)
(-0.0437195 -1.26832 0)
(-0.0226964 -1.29438 0)
(-0.0298289 -1.33557 0)
(-0.0629383 -1.33511 0)
(-0.101393 -1.33237 0)
(-0.0516478 -0.928046 0)
(0.0365503 -0.429611 0)
(0.00243015 -0.375668 0)
(-0.118249 -0.597848 0)
(-0.113656 -0.774949 0)
(-0.00501127 -0.870612 0)
(0.0978015 -0.849697 0)
(0.134914 -0.64497 0)
(0.031962 -0.363087 0)
(-0.0510692 -0.384311 0)
(0.0127475 -0.853913 0)
(0.106564 -1.30676 0)
(0.0993021 -1.36204 0)
(0.0766948 -1.37208 0)
(0.0691575 -1.3325 0)
(0.102032 -1.29163 0)
(0.148888 -1.2162 0)
(0.177385 -1.14178 0)
(0.172793 -1.0664 0)
(0.195917 -1.02356 0)
(0.0962486 -0.580988 0)
(-0.0590535 -0.570924 0)
(-0.153685 -1.07537 0)
(-0.148744 -1.15003 0)
(-0.123915 -1.20343 0)
(-0.0935303 -1.24469 0)
(-0.0628189 -1.29108 0)
(-0.0561358 -1.30797 0)
(-0.0683117 -1.31976 0)
(-0.0895484 -1.28516 0)
(-0.0573669 -1.00371 0)
(0.0432575 -0.502282 0)
(0.0505097 -0.312861 0)
(-0.0700218 -0.474044 0)
(-0.127268 -0.797253 0)
(-0.026154 -0.879977 0)
(0.0927229 -0.869887 0)
(0.0923781 -0.574513 0)
(-0.0190688 -0.300682 0)
(-0.0536083 -0.409905 0)
(0.0181407 -0.94682 0)
(0.0779362 -1.28952 0)
(0.0837241 -1.35052 0)
(0.0903902 -1.35799 0)
(0.118917 -1.34543 0)
(0.173046 -1.2883 0)
(0.24421 -1.21498 0)
(0.273944 -1.10821 0)
(0.230171 -0.974219 0)
(0.169634 -0.888418 0)
(0.0545258 -0.384069 0)
(-0.0345544 -0.428311 0)
(-0.144091 -0.92275 0)
(-0.208755 -1.10358 0)
(-0.187951 -1.18168 0)
(-0.146688 -1.23767 0)
(-0.100194 -1.26826 0)
(-0.0729433 -1.29221 0)
(-0.0579698 -1.28127 0)
(-0.0491393 -1.25097 0)
(-0.0236907 -1.03749 0)
(0.0384436 -0.574556 0)
(0.0525422 -0.29036 0)
(-0.0370487 -0.383657 0)
(-0.129999 -0.82733 0)
(-0.0501689 -0.985918 0)
(0.0952377 -0.963125 0)
(0.0776427 -0.517447 0)
(-0.0295827 -0.266969 0)
(-0.0517516 -0.443182 0)
(-0.0174841 -0.970719 0)
(0.0139682 -1.26076 0)
(0.0429019 -1.32312 0)
(0.091098 -1.35475 0)
(0.150646 -1.34178 0)
(0.242494 -1.31259 0)
(0.328937 -1.22595 0)
(0.30837 -1.00758 0)
(0.208716 -0.798289 0)
(0.0878203 -0.631337 0)
(0.00804037 -0.279891 0)
(-0.00935873 -0.330514 0)
(-0.0953047 -0.704383 0)
(-0.237565 -0.999465 0)
(-0.259013 -1.16947 0)
(-0.194144 -1.22169 0)
(-0.131639 -1.2604 0)
(-0.0761774 -1.26343 0)
(-0.0339716 -1.25661 0)
(0.00371885 -1.20352 0)
(0.0180685 -1.01707 0)
(0.0148344 -0.585111 0)
(0.014461 -0.283368 0)
(-0.0422546 -0.334073 0)
(-0.122809 -0.859772 0)
(-0.0513278 -1.09466 0)
(0.0918595 -1.07553 0)
(0.0717863 -0.488033 0)
(-0.00132263 -0.257046 0)
(-0.0207816 -0.442289 0)
(-0.0519411 -0.920611 0)
(-0.0655377 -1.20896 0)
(-0.0122397 -1.30214 0)
(0.0642094 -1.34199 0)
(0.160079 -1.36464 0)
(0.278794 -1.33491 0)
(0.341418 -1.20433 0)
(0.224633 -0.813051 0)
(0.116458 -0.613452 0)
(0.0255848 -0.42719 0)
(-0.013024 -0.2566 0)
(0.00603296 -0.282009 0)
(-0.0360785 -0.504089 0)
(-0.184225 -0.786154 0)
(-0.295736 -1.14825 0)
(-0.237928 -1.22277 0)
(-0.148327 -1.24482 0)
(-0.067632 -1.25488 0)
(0.00440657 -1.21847 0)
(0.0649808 -1.15732 0)
(0.0504663 -0.941388 0)
(-0.0217788 -0.531784 0)
(-0.0435641 -0.280289 0)
(-0.0811611 -0.322677 0)
(-0.123393 -0.935682 0)
(-0.036564 -1.19989 0)
(0.0784622 -1.17687 0)
(0.0784974 -0.515898 0)
(0.0496559 -0.26816 0)
(0.0296675 -0.404577 0)
(-0.0590257 -0.796363 0)
(-0.14424 -1.15165 0)
(-0.0958282 -1.27012 0)
(0.0142991 -1.34817 0)
(0.139691 -1.36616 0)
(0.271849 -1.35733 0)
(0.253941 -1.06833 0)
(0.109336 -0.616963 0)
(0.0358919 -0.464471 0)
(-0.00267649 -0.333382 0)
(-0.0102253 -0.264816 0)
(0.0119818 -0.268215 0)
(0.00629417 -0.376315 0)
(-0.0841849 -0.561697 0)
(-0.244719 -1.02615 0)
(-0.256122 -1.21971 0)
(-0.152242 -1.24233 0)
(-0.0448687 -1.22945 0)
(0.056246 -1.20159 0)
(0.119561 -1.10844 0)
(0.0432464 -0.796713 0)
(-0.0723878 -0.444912 0)
(-0.101557 -0.286072 0)
(-0.123412 -0.351745 0)
(-0.127251 -1.05289 0)
(-0.0252468 -1.24175 0)
(0.0380244 -1.24726 0)
(0.0823989 -0.626045 0)
(0.102524 -0.301608 0)
(0.0817565 -0.362306 0)
(-0.0128962 -0.618102 0)
(-0.177415 -1.02628 0)
(-0.189065 -1.2561 0)
(-0.049767 -1.34937 0)
(0.11447 -1.38051 0)
(0.219416 -1.33286 0)
(0.121916 -0.866095 0)
(0.0225301 -0.47937 0)
(-0.00208867 -0.369357 0)
(-0.0138344 -0.302332 0)
(-0.00739075 -0.285799 0)
(0.0133415 -0.273792 0)
(0.0291836 -0.319972 0)
(0.00246563 -0.416071 0)
(-0.1215 -0.802971 0)
(-0.224916 -1.20045 0)
(-0.144563 -1.22453 0)
(-0.0235938 -1.22518 0)
(0.105246 -1.19004 0)
(0.126695 -1.01363 0)
(-0.0146262 -0.613632 0)
(-0.122568 -0.380909 0)
(-0.146211 -0.315561 0)
(-0.127118 -0.447777 0)
(-0.0992857 -1.17569 0)
(-0.0353544 -1.24021 0)
(-0.0304886 -1.24018 0)
(0.0708907 -0.825707 0)
(0.135062 -0.35428 0)
(0.115519 -0.347496 0)
(0.0565051 -0.479095 0)
(-0.11851 -0.81305 0)
(-0.24332 -1.23107 0)
(-0.112181 -1.40075 0)
(0.0985826 -1.40897 0)
(0.128907 -1.20988 0)
(0.00485165 -0.685378 0)
(-0.0335279 -0.405232 0)
(-0.0254241 -0.328284 0)
(-0.0242925 -0.301006 0)
(-0.0107303 -0.30848 0)
(0.015446 -0.293565 0)
(0.0438797 -0.310499 0)
(0.0587276 -0.357163 0)
(0.00280548 -0.603119 0)
(-0.115533 -1.07823 0)
(-0.11742 -1.22624 0)
(-0.0119992 -1.22848 0)
(0.109248 -1.19051 0)
(0.0571078 -0.847329 0)
(-0.0927959 -0.476275 0)
(-0.162104 -0.362221 0)
(-0.18165 -0.372185 0)
(-0.09736 -0.654566 0)
(-0.00164963 -1.16614 0)
(-0.0332304 -1.1549 0)
(-0.0687149 -1.16227 0)
(0.000863919 -1.04649 0)
(0.107141 -0.476179 0)
(0.130725 -0.38192 0)
(0.097964 -0.420528 0)
(-0.0117567 -0.61303 0)
(-0.202539 -1.11294 0)
(-0.158766 -1.48804 0)
(0.0623573 -1.45133 0)
(0.0390139 -0.99647 0)
(-0.0650453 -0.584302 0)
(-0.0617804 -0.382241 0)
(-0.0409643 -0.32133 0)
(-0.0353033 -0.31417 0)
(-0.0179659 -0.325355 0)
(0.018117 -0.326317 0)
(0.0558036 -0.329775 0)
(0.0901852 -0.35375 0)
(0.0870266 -0.49856 0)
(0.0189386 -0.911988 0)
(-0.0344785 -1.16398 0)
(0.0089036 -1.22018 0)
(0.0464026 -1.1048 0)
(-0.0631875 -0.674421 0)
(-0.15856 -0.425854 0)
(-0.191945 -0.405381 0)
(-0.154373 -0.490311 0)
(-0.0116099 -0.922892 0)
(0.0789559 -1.06069 0)
(-0.00297097 -1.00897 0)
(-0.0920496 -1.01286 0)
(-0.142519 -1.03623 0)
(-0.00397186 -0.727812 0)
(0.117018 -0.470999 0)
(0.109745 -0.441079 0)
(0.056799 -0.516241 0)
(-0.099989 -0.918986 0)
(-0.17321 -1.52645 0)
(0.00478879 -1.48784 0)
(-0.00330621 -0.797935 0)
(-0.0833359 -0.543073 0)
(-0.0676105 -0.394738 0)
(-0.0469847 -0.338748 0)
(-0.0374657 -0.343158 0)
(-0.0174029 -0.348093 0)
(0.0203917 -0.369391 0)
(0.0640851 -0.36675 0)
(0.108566 -0.380195 0)
(0.134684 -0.474409 0)
(0.109084 -0.785336 0)
(0.0622386 -1.05661 0)
(0.0467304 -1.10519 0)
(-0.0379537 -0.888283 0)
(-0.164667 -0.569399 0)
(-0.220392 -0.474915 0)
(-0.186062 -0.503183 0)
(-0.028483 -0.729201 0)
(0.155226 -0.963425 0)
(0.13912 -0.914058 0)
(0.0188917 -0.815061 0)
(-0.122562 -0.827106 0)
(-0.2446 -0.91498 0)
(-0.218123 -0.890787 0)
(-0.0320817 -0.64603 0)
(0.0739184 -0.517639 0)
(0.0750643 -0.531916 0)
(-0.0210211 -0.773275 0)
(-0.147654 -1.47379 0)
(-0.0473513 -1.54905 0)
(-0.0087954 -0.659225 0)
(-0.0673401 -0.518895 0)
(-0.062044 -0.427201 0)
(-0.0439288 -0.369634 0)
(-0.0214278 -0.383782 0)
(-0.00473781 -0.368808 0)
(0.0214242 -0.420168 0)
(0.0681304 -0.415765 0)
(0.1176 -0.423366 0)
(0.154161 -0.488278 0)
(0.149448 -0.702888 0)
(0.113444 -0.941803 0)
(0.0696937 -0.917886 0)
(-0.0786733 -0.667145 0)
(-0.233004 -0.593221 0)
(-0.218404 -0.570691 0)
(-0.061836 -0.690807 0)
(0.158055 -0.879916 0)
(0.228392 -0.884259 0)
(0.134143 -0.723128 0)
(0.0155511 -0.609176 0)
(-0.0961815 -0.622972 0)
(-0.220013 -0.722954 0)
(-0.314082 -0.83936 0)
(-0.253299 -0.793608 0)
(-0.0941609 -0.649726 0)
(0.00501752 -0.59323 0)
(0.0299619 -0.768219 0)
(-0.0573854 -1.31232 0)
(-0.0795605 -1.53797 0)
(-0.0229911 -0.575298 0)
(-0.0518109 -0.488459 0)
(-0.0490813 -0.452603 0)
(-0.0337999 -0.398515 0)
(0.0044202 -0.392289 0)
(0.0172145 -0.372106 0)
(0.0218056 -0.476447 0)
(0.0681969 -0.477004 0)
(0.117223 -0.477408 0)
(0.153705 -0.516271 0)
(0.157342 -0.647987 0)
(0.119314 -0.798268 0)
(0.0162925 -0.722434 0)
(-0.117739 -0.580461 0)
(-0.173298 -0.691407 0)
(-0.0816004 -0.736108 0)
(0.108476 -0.84077 0)
(0.209221 -0.852511 0)
(0.13947 -0.72867 0)
(0.0394159 -0.587635 0)
(-0.0118228 -0.528216 0)
(-0.0426271 -0.537766 0)
(-0.101228 -0.589545 0)
(-0.203899 -0.696091 0)
(-0.282894 -0.756964 0)
(-0.251591 -0.717521 0)
(-0.142953 -0.687598 0)
(0.00931784 -0.831099 0)
(0.0224405 -1.13181 0)
(-0.0733051 -1.39204 0)
(-0.0638652 -0.579962 0)
(-0.049042 -0.4599 0)
(-0.0297202 -0.440615 0)
(-0.00994677 -0.404283 0)
(0.00774162 -0.390156 0)
(0.00812393 -0.38391 0)
(0.0181023 -0.532435 0)
(0.0662606 -0.565896 0)
(0.114718 -0.54579 0)
(0.143088 -0.547151 0)
(0.144764 -0.603387 0)
(0.0872793 -0.660882 0)
(-0.0211045 -0.612928 0)
(-0.0882002 -0.583263 0)
(-0.0232324 -0.807313 0)
(0.104857 -0.867241 0)
(0.16661 -0.848829 0)
(0.103643 -0.746702 0)
(0.00416456 -0.641775 0)
(-0.0332792 -0.577262 0)
(-0.0298358 -0.561039 0)
(-0.020931 -0.566988 0)
(-0.0227138 -0.582949 0)
(-0.0596103 -0.626689 0)
(-0.141084 -0.674912 0)
(-0.210079 -0.687836 0)
(-0.186196 -0.717084 0)
(-0.0486006 -0.893195 0)
(0.0287288 -1.02262 0)
(-0.096668 -1.17479 0)
(-0.141201 -0.708725 0)
(-0.0465415 -0.472948 0)
(-0.00595819 -0.410145 0)
(-0.00485586 -0.390408 0)
(-0.00187469 -0.411406 0)
(0.00117369 -0.40603 0)
(-0.0152478 -0.554886 0)
(0.0515934 -0.707024 0)
(0.14379 -0.621485 0)
(0.155075 -0.60362 0)
(0.137411 -0.580916 0)
(0.0675868 -0.577776 0)
(-0.0222539 -0.611782 0)
(-0.0137406 -0.68032 0)
(0.100631 -0.878018 0)
(0.141851 -0.888252 0)
(0.0718102 -0.808053 0)
(-0.00531046 -0.733344 0)
(-0.0433296 -0.698078 0)
(-0.0434023 -0.672184 0)
(-0.0325638 -0.664451 0)
(-0.025897 -0.672271 0)
(-0.0188192 -0.684138 0)
(-0.0184724 -0.710385 0)
(-0.0425136 -0.725334 0)
(-0.0826635 -0.71604 0)
(-0.087902 -0.747081 0)
(-0.0394688 -0.926585 0)
(-0.0201477 -0.975319 0)
(-0.151504 -1.01382 0)
(-0.189461 -0.922881 0)
(-0.00813456 -0.608378 0)
(0.0479608 -0.430788 0)
(-0.0224705 -0.408068 0)
(-0.0212924 -0.463622 0)
(0.00537331 -0.42737 0)
(-0.0197675 -0.593602 0)
(0.0376748 -0.994505 0)
(0.111529 -0.785063 0)
(0.165613 -0.692879 0)
(0.184654 -0.61147 0)
(0.0373768 -0.592393 0)
(-0.0662497 -0.731084 0)
(0.0338513 -0.865541 0)
(0.108864 -0.919336 0)
(0.0497736 -0.948848 0)
(-0.00572241 -0.93708 0)
(-0.0250969 -0.911649 0)
(-0.0271174 -0.898123 0)
(-0.0308364 -0.890576 0)
(-0.0328669 -0.887471 0)
(-0.0380568 -0.895454 0)
(-0.0398652 -0.912653 0)
(-0.0372075 -0.933602 0)
(-0.0424571 -0.944905 0)
(-0.0349329 -0.956114 0)
(0.0351339 -1.00463 0)
(0.0515956 -0.997483 0)
(-0.0242323 -0.979967 0)
(-0.180408 -0.97106 0)
(-0.159412 -1.28275 0)
(0.081811 -0.994464 0)
(0.0869664 -0.498508 0)
(0.0325393 -0.450177 0)
(0.0165649 -0.712986 0)
(0.00258937 -0.532039 0)
(0.0285464 -0.78861 0)
(0.0700301 -1.46664 0)
(0.103577 -1.20714 0)
(0.161726 -0.952085 0)
(0.14426 -0.758399 0)
(-0.0100631 -0.743562 0)
(-0.123069 -0.983235 0)
(-0.0171088 -1.07994 0)
(0.0111892 -1.0668 0)
(-0.0354612 -1.1628 0)
(-0.0404012 -1.14907 0)
(-0.0426472 -1.12016 0)
(-0.0409739 -1.09393 0)
(-0.0359668 -1.08479 0)
(-0.028445 -1.0724 0)
(-0.01957 -1.0776 0)
(-0.00913496 -1.10313 0)
(0.00508568 -1.13605 0)
(0.0242505 -1.16729 0)
(0.0565014 -1.25673 0)
(0.12721 -1.41409 0)
(0.127329 -1.17693 0)
(0.0607574 -1.10363 0)
(0.0111091 -1.12565 0)
(0.144599 -1.86168 0)
(0.31453 -1.43326 0)
(0.198641 -0.650047 0)
(0.102842 -0.601188 0)
(0.0697979 -1.06869 0)
(0.0204808 -0.721872 0)
(0.058107 -1.05049 0)
(0.0504397 -1.2946 0)
(-0.0157346 -1.2758 0)
(-0.00468824 -1.29696 0)
(0.0241607 -1.11977 0)
(-0.0797569 -0.976202 0)
(-0.227767 -1.41482 0)
(-0.16994 -1.5447 0)
(-0.122266 -1.52927 0)
(-0.157267 -1.70823 0)
(-0.16548 -1.69373 0)
(-0.15628 -1.63918 0)
(-0.132885 -1.60171 0)
(-0.0925289 -1.58429 0)
(-0.0387999 -1.56796 0)
(0.0247687 -1.58521 0)
(0.0910493 -1.63063 0)
(0.156387 -1.69722 0)
(0.220521 -1.75539 0)
(0.274054 -1.83501 0)
(0.305767 -1.92874 0)
(0.293804 -1.73974 0)
(0.294844 -1.62483 0)
(0.390507 -1.81746 0)
(0.513761 -2.08333 0)
(0.390529 -1.31382 0)
(0.22374 -0.719494 0)
(0.170309 -0.82326 0)
(0.0952626 -1.01766 0)
(0.0133902 -0.765835 0)
(-0.008378 -1.01027 0)
(-0.0186067 -1.12015 0)
(-0.046858 -1.12845 0)
(-0.0851349 -1.15898 0)
(-0.0905432 -1.12086 0)
(-0.123122 -0.814519 0)
(-0.246063 -1.35343 0)
(-0.246361 -1.68882 0)
(-0.190259 -1.73269 0)
(-0.183604 -1.72495 0)
(-0.189193 -1.7041 0)
(-0.169361 -1.64356 0)
(-0.128481 -1.60748 0)
(-0.0712352 -1.56036 0)
(-0.00374842 -1.54203 0)
(0.0691647 -1.52941 0)
(0.138018 -1.55039 0)
(0.193489 -1.56671 0)
(0.239169 -1.61311 0)
(0.264778 -1.64723 0)
(0.266179 -1.71984 0)
(0.274667 -1.71969 0)
(0.337788 -1.78068 0)
(0.410923 -1.84413 0)
(0.484763 -1.91272 0)
(0.303556 -1.02351 0)
(0.156507 -0.600679 0)
(0.119775 -0.830552 0)
(0.0721986 -0.903841 0)
(0.018566 -0.717453 0)
(-0.0551784 -0.921356 0)
(-0.0817327 -0.997172 0)
(-0.0758088 -1.02733 0)
(-0.0914236 -1.04105 0)
(-0.100121 -1.01767 0)
(-0.110236 -0.685265 0)
(-0.194645 -1.18255 0)
(-0.223983 -1.59116 0)
(-0.186527 -1.6222 0)
(-0.173771 -1.62949 0)
(-0.159649 -1.59883 0)
(-0.134953 -1.58053 0)
(-0.095784 -1.54468 0)
(-0.0485903 -1.5327 0)
(0.00547827 -1.5144 0)
(0.0615841 -1.52546 0)
(0.113469 -1.5345 0)
(0.159138 -1.57105 0)
(0.191951 -1.59304 0)
(0.217528 -1.64536 0)
(0.223686 -1.66735 0)
(0.238888 -1.71361 0)
(0.265795 -1.73429 0)
(0.308083 -1.81011 0)
(0.37179 -1.79009 0)
(0.209413 -0.791555 0)
(0.106156 -0.521865 0)
(0.0763243 -0.785396 0)
(0.043697 -0.837085 0)
(0.0140672 -0.682649 0)
(-0.0858045 -0.777967 0)
(-0.136672 -0.908272 0)
(-0.106787 -0.934162 0)
(-0.107651 -0.949694 0)
(-0.119049 -0.936607 0)
(-0.111518 -0.639429 0)
(-0.172661 -1.08443 0)
(-0.217484 -1.57543 0)
(-0.184708 -1.63893 0)
(-0.160205 -1.62091 0)
(-0.138259 -1.62119 0)
(-0.107241 -1.59016 0)
(-0.0737786 -1.58489 0)
(-0.0338893 -1.55978 0)
(0.00753389 -1.56472 0)
(0.0491714 -1.55537 0)
(0.0894707 -1.57904 0)
(0.123008 -1.58731 0)
(0.152546 -1.6253 0)
(0.171696 -1.63914 0)
(0.186375 -1.69054 0)
(0.194122 -1.69819 0)
(0.209276 -1.74312 0)
(0.229894 -1.74201 0)
(0.278943 -1.70476 0)
(0.135197 -0.608507 0)
(0.0705231 -0.479166 0)
(0.0475548 -0.748628 0)
(0.0263149 -0.776829 0)
(0.0114743 -0.652463 0)
(-0.0807623 -0.585303 0)
(-0.155812 -0.852908 0)
(-0.127843 -0.860367 0)
(-0.124132 -0.865844 0)
(-0.145468 -0.844726 0)
(-0.146456 -0.617249 0)
(-0.192965 -1.0109 0)
(-0.230591 -1.5964 0)
(-0.18136 -1.63784 0)
(-0.151121 -1.65043 0)
(-0.118776 -1.62159 0)
(-0.0888331 -1.62054 0)
(-0.0568452 -1.5949 0)
(-0.024523 -1.59709 0)
(0.00837729 -1.58202 0)
(0.0406611 -1.59667 0)
(0.07071 -1.59405 0)
(0.0989747 -1.62117 0)
(0.121564 -1.62737 0)
(0.140642 -1.66248 0)
(0.151924 -1.66936 0)
(0.163276 -1.71004 0)
(0.174251 -1.70869 0)
(0.207532 -1.71446 0)
(0.213203 -1.59839 0)
(0.0754068 -0.473818 0)
(0.041143 -0.452765 0)
(0.0260059 -0.715416 0)
(0.0179711 -0.742031 0)
(0.0114386 -0.621722 0)
(-0.0438276 -0.428491 0)
(-0.103366 -0.797693 0)
(-0.111901 -0.802403 0)
(-0.136646 -0.813576 0)
(-0.169094 -0.740971 0)
(-0.192906 -0.573306 0)
(-0.235726 -0.962761 0)
(-0.241992 -1.61927 0)
(-0.175409 -1.68358 0)
(-0.134742 -1.65135 0)
(-0.103161 -1.65171 0)
(-0.0722832 -1.62535 0)
(-0.0446445 -1.6254 0)
(-0.0172641 -1.6066 0)
(0.008854 -1.61363 0)
(0.0341588 -1.60537 0)
(0.0584298 -1.62241 0)
(0.0801851 -1.62215 0)
(0.100737 -1.648 0)
(0.116008 -1.6504 0)
(0.129451 -1.68375 0)
(0.139879 -1.68626 0)
(0.164889 -1.71542 0)
(0.220751 -1.66863 0)
(0.165005 -1.45245 0)
(0.0235965 -0.390421 0)
(0.0147519 -0.437903 0)
(0.00910588 -0.692218 0)
(0.0153983 -0.707151 0)
(0.0140998 -0.58959 0)
(-0.00447752 -0.353691 0)
(-0.0212398 -0.720097 0)
(-0.0616175 -0.691899 0)
(-0.118899 -0.723754 0)
(-0.160462 -0.640428 0)
(-0.199025 -0.499156 0)
(-0.244999 -0.936735 0)
(-0.226416 -1.67279 0)
(-0.14831 -1.68808 0)
(-0.1133 -1.68456 0)
(-0.0825051 -1.65003 0)
(-0.0569395 -1.64908 0)
(-0.032984 -1.62688 0)
(-0.0110824 -1.62968 0)
(0.00986821 -1.61711 0)
(0.0299724 -1.62726 0)
(0.0489294 -1.62256 0)
(0.0675353 -1.64053 0)
(0.0837889 -1.64044 0)
(0.0993545 -1.6648 0)
(0.110319 -1.66427 0)
(0.124226 -1.69973 0)
(0.149862 -1.69035 0)
(0.228282 -1.66556 0)
(0.120665 -1.22081 0)
(-0.0114944 -0.347053 0)
(-0.00681237 -0.435385 0)
(-0.00287028 -0.672617 0)
(0.0149949 -0.690883 0)
(0.0170555 -0.550978 0)
(0.0116079 -0.334856 0)
(0.010632 -0.62342 0)
(-0.0317575 -0.582016 0)
(-0.0845416 -0.630421 0)
(-0.118683 -0.578769 0)
(-0.161322 -0.415987 0)
(-0.206959 -0.935251 0)
(-0.161281 -1.69118 0)
(-0.103968 -1.7283 0)
(-0.0796636 -1.67782 0)
(-0.060111 -1.67071 0)
(-0.0402243 -1.64343 0)
(-0.0223593 -1.64389 0)
(-0.00504684 -1.62794 0)
(0.0112988 -1.63412 0)
(0.0272209 -1.62548 0)
(0.0427863 -1.63792 0)
(0.0573028 -1.63292 0)
(0.0720348 -1.65245 0)
(0.0842201 -1.64923 0)
(0.0961013 -1.68004 0)
(0.104334 -1.67551 0)
(0.125756 -1.70581 0)
(0.197612 -1.64759 0)
(0.082489 -1.01643 0)
(-0.0265701 -0.325411 0)
(-0.0218063 -0.440944 0)
(-0.0111668 -0.662223 0)
(0.0122832 -0.671324 0)
(0.0167316 -0.509805 0)
(0.00437866 -0.320898 0)
(0.00259076 -0.554387 0)
(-0.0208797 -0.511853 0)
(-0.0492676 -0.570901 0)
(-0.0703306 -0.551228 0)
(-0.117582 -0.3324 0)
(-0.142769 -0.960198 0)
(-0.0667724 -1.69627 0)
(-0.0494106 -1.69694 0)
(-0.045584 -1.6884 0)
(-0.0366198 -1.65261 0)
(-0.0253588 -1.65371 0)
(-0.012617 -1.6343 0)
(5.15144e-05 -1.63983 0)
(0.0129875 -1.62732 0)
(0.0258254 -1.6389 0)
(0.0380248 -1.62979 0)
(0.0509033 -1.6477 0)
(0.0618468 -1.63915 0)
(0.0733623 -1.6615 0)
(0.0813902 -1.65587 0)
(0.0860539 -1.68719 0)
(0.0979455 -1.67863 0)
(0.1545 -1.6373 0)
(0.0514473 -0.852123 0)
(-0.0346501 -0.31129 0)
(-0.0321978 -0.448236 0)
(-0.0181095 -0.646581 0)
(0.00744566 -0.661657 0)
(0.014388 -0.471833 0)
(-0.00411912 -0.286256 0)
(-0.00686965 -0.497264 0)
(-0.00967102 -0.478248 0)
(-0.0184246 -0.547329 0)
(-0.0325471 -0.529011 0)
(-0.0820378 -0.260983 0)
(-0.0906952 -1.02487 0)
(0.0123857 -1.64203 0)
(-0.0113381 -1.68688 0)
(-0.021192 -1.65334 0)
(-0.020356 -1.65834 0)
(-0.0142774 -1.63803 0)
(-0.00578717 -1.64624 0)
(0.00398972 -1.62945 0)
(0.0144335 -1.64114 0)
(0.0249732 -1.62849 0)
(0.0359011 -1.64281 0)
(0.0461895 -1.6333 0)
(0.0564311 -1.6497 0)
(0.0646873 -1.64014 0)
(0.0707382 -1.65979 0)
(0.0702896 -1.6534 0)
(0.0788032 -1.67201 0)
(0.118692 -1.60322 0)
(0.0270972 -0.719106 0)
(-0.0419556 -0.298762 0)
(-0.0398883 -0.453112 0)
(-0.0248657 -0.630108 0)
(0.00148138 -0.637628 0)
(0.0115369 -0.436539 0)
(-0.00384588 -0.23222 0)
(-0.0173884 -0.408893 0)
(-0.00631723 -0.447974 0)
(0.0094019 -0.520321 0)
(-0.000472297 -0.501257 0)
(-0.0361891 -0.216543 0)
(-0.0657988 -1.09012 0)
(0.0082299 -1.59216 0)
(-0.00585434 -1.63548 0)
(-0.0146863 -1.64549 0)
(-0.015299 -1.63392 0)
(-0.00990999 -1.64431 0)
(-0.00250421 -1.63066 0)
(0.00613592 -1.6402 0)
(0.0154205 -1.62785 0)
(0.0253003 -1.63842 0)
(0.034876 -1.62704 0)
(0.0448325 -1.63839 0)
(0.0534446 -1.62813 0)
(0.0615121 -1.64127 0)
(0.0648205 -1.63219 0)
(0.0624834 -1.64894 0)
(0.0675831 -1.62885 0)
(0.0976278 -1.56836 0)
(0.0103552 -0.609363 0)
(-0.050206 -0.287472 0)
(-0.0462555 -0.456366 0)
(-0.028794 -0.605104 0)
(-0.0025109 -0.615675 0)
(0.00991259 -0.401734 0)
(-0.000144895 -0.181002 0)
(-0.0145412 -0.28868 0)
(-0.0150179 -0.417748 0)
(0.0114622 -0.481506 0)
(0.0310651 -0.471619 0)
(0.0216365 -0.204734 0)
(-0.0577639 -1.08281 0)
(-0.0660955 -1.54309 0)
(-0.0300836 -1.62079 0)
(-0.0249241 -1.62045 0)
(-0.0190943 -1.63223 0)
(-0.0108222 -1.62382 0)
(-0.00207273 -1.63438 0)
(0.00687671 -1.62377 0)
(0.0163747 -1.63294 0)
(0.0259295 -1.62233 0)
(0.0359852 -1.63215 0)
(0.0454691 -1.62068 0)
(0.0550955 -1.63082 0)
(0.0627192 -1.61593 0)
(0.0666611 -1.62873 0)
(0.0638499 -1.61292 0)
(0.0686124 -1.60663 0)
(0.090046 -1.51994 0)
(-0.00206299 -0.511849 0)
(-0.0574414 -0.279117 0)
(-0.050068 -0.455397 0)
(-0.0313266 -0.575706 0)
(-0.00258292 -0.578834 0)
(0.010832 -0.362426 0)
(0.00256559 -0.148792 0)
(0.00193681 -0.196777 0)
(-0.0149836 -0.312369 0)
(-0.00387891 -0.425833 0)
(0.046998 -0.440219 0)
(0.0687976 -0.220852 0)
(-0.0426336 -0.949602 0)
(-0.141754 -1.52973 0)
(-0.0602568 -1.5991 0)
(-0.0392668 -1.61692 0)
(-0.0264834 -1.61247 0)
(-0.0142078 -1.6274 0)
(-0.00320119 -1.61764 0)
(0.00697505 -1.62787 0)
(0.0169659 -1.61766 0)
(0.0274603 -1.62698 0)
(0.0379562 -1.61639 0)
(0.0491491 -1.62473 0)
(0.0596926 -1.61252 0)
(0.0705641 -1.61661 0)
(0.0759399 -1.60009 0)
(0.0786915 -1.60192 0)
(0.083827 -1.55705 0)
(0.0902893 -1.46347 0)
(-0.0132671 -0.417339 0)
(-0.0608239 -0.277684 0)
(-0.0464551 -0.447624 0)
(-0.0298762 -0.532702 0)
(0.00123745 -0.533666 0)
(0.0146335 -0.309893 0)
(0.00242801 -0.132733 0)
(0.00906375 -0.152114 0)
(0.00329037 -0.211214 0)
(-0.00664013 -0.35378 0)
(0.0370305 -0.415205 0)
(0.086655 -0.241979 0)
(-0.0221851 -0.774144 0)
(-0.163256 -1.5358 0)
(-0.0763714 -1.62068 0)
(-0.047323 -1.60233 0)
(-0.032245 -1.61983 0)
(-0.0170739 -1.61055 0)
(-0.00429475 -1.62187 0)
(0.00674369 -1.61134 0)
(0.0178716 -1.62118 0)
(0.0290688 -1.61031 0)
(0.04128 -1.61852 0)
(0.0539844 -1.60867 0)
(0.0677254 -1.61092 0)
(0.0824422 -1.59577 0)
(0.0946097 -1.59604 0)
(0.108334 -1.56397 0)
(0.127213 -1.51883 0)
(0.0959542 -1.3824 0)
(-0.0275238 -0.330865 0)
(-0.0572846 -0.285283 0)
(-0.0321893 -0.43031 0)
(-0.018527 -0.479395 0)
(0.0042366 -0.463516 0)
(0.0137479 -0.231432 0)
(0.00165336 -0.12543 0)
(0.00754043 -0.133417 0)
(0.0162368 -0.161946 0)
(0.00241105 -0.24881 0)
(0.0273943 -0.385021 0)
(0.0767907 -0.243763 0)
(-0.0071922 -0.624866 0)
(-0.141653 -1.54103 0)
(-0.0740513 -1.60374 0)