/*--------------------------------*- C++ -*----------------------------------*\
| =========                 |                                                 |
| \\      /  F ield         | OpenFOAM: The Open Source CFD Toolbox           |
|  \\    /   O peration     | Version:  2.3.0                                 |
|   \\  /    A nd           | Web:      www.OpenFOAM.org                      |
|    \\/     M anipulation  |                                                 |
\*---------------------------------------------------------------------------*/
FoamFile
{
    version     2.0;
    format      ascii;
    class       surfaceScalarField;
    location    "1.7";
    object      phi;
}
// * * * * * * * * * * * * * * * * * * * * * * * * * * * * * * * * * * * * * //

dimensions      [0 3 -1 0 0 0 0];

internalField   nonuniform List<scalar> 
11770
(
3.49527e-07
4.79031e-05
-4.32258e-07
4.92835e-05
1.3897e-08
4.80557e-05
-1.25279e-06
4.97918e-05
-3.88026e-06
5.10357e-05
-2.52064e-06
4.67634e-05
8.97707e-07
4.45416e-05
-1.37226e-06
5.03667e-05
-4.73209e-06
5.15198e-05
-8.84847e-06
5.23696e-05
-1.254e-05
5.19816e-05
-6.30813e-06
4.19394e-05
1.70139e-06
4.02793e-05
3.66207e-06
4.66674e-05
-7.97975e-06
6.07105e-05
-1.75209e-05
5.86501e-05
-2.10411e-05
5.24812e-05
-2.31124e-05
5.10287e-05
-2.19589e-05
4.77574e-05
-1.7952e-05
4.48357e-05
-1.25058e-05
4.33292e-05
-7.21056e-06
4.3415e-05
-2.48134e-06
4.39205e-05
1.73757e-06
4.43937e-05
2.46222e-06
4.7956e-05
6.9968e-06
4.40066e-05
1.28866e-05
4.26014e-05
1.67061e-05
4.47222e-05
1.10376e-05
5.4373e-05
5.97531e-05
-5.91131e-06
5.51341e-05
-7.97857e-06
5.27188e-05
-5.38513e-06
4.68217e-05
-4.63703e-06
5.04419e-05
-5.53602e-06
5.3349e-05
-6.83678e-06
4.93932e-05
-7.09949e-06
4.60648e-05
-3.61998e-06
4.82979e-05
7.40421e-07
4.85783e-05
1.41972e-06
5.30646e-05
2.16182e-06
5.25936e-05
4.30966e-06
4.09438e-05
5.2844e-06
4.04066e-05
6.4751e-06
4.65814e-05
-1.16448e-05
8.01076e-05
-2.2695e-05
7.09842e-05
-2.46008e-05
5.55942e-05
-2.64309e-05
5.40497e-05
-2.54427e-05
4.79042e-05
-1.99838e-05
4.04652e-05
-1.19091e-05
3.6325e-05
-3.50466e-06
3.60945e-05
1.39944e-06
4.01265e-05
6.13502e-07
4.63129e-05
-5.37829e-06
5.51801e-05
-7.76197e-07
4.05919e-05
8.61466e-06
3.43924e-05
1.49022e-05
3.96882e-05
9.24252e-06
6.15365e-05
7.07147e-05
-1.07964e-05
6.61395e-05
-1.2656e-05
5.46687e-05
-1.36433e-05
4.78954e-05
-1.14296e-05
4.83323e-05
-8.45316e-06
5.05304e-05
-7.01103e-06
4.81693e-05
-4.84322e-06
4.41344e-05
-2.76413e-06
4.64527e-05
1.05502e-06
4.49523e-05
3.18034e-06
5.11254e-05
8.69181e-06
4.72904e-05
1.26663e-05
3.71481e-05
1.45107e-05
3.87073e-05
1.24564e-05
4.87497e-05
-4.12567e-06
9.682e-05
-1.83106e-05
8.52659e-05
-2.54194e-05
6.27844e-05
-2.9695e-05
5.84073e-05
-3.08517e-05
4.91391e-05
-2.46769e-05
3.43605e-05
-1.39228e-05
2.56341e-05
-3.17472e-06
2.54071e-05
2.78211e-06
3.42391e-05
-5.52624e-08
4.92515e-05
-6.49252e-06
6.17477e-05
-4.06623e-06
3.82774e-05
5.16374e-06
2.52583e-05
1.30128e-05
3.19136e-05
1.22087e-05
6.24163e-05
8.31379e-05
-6.83155e-06
7.31135e-05
-1.46158e-05
6.25058e-05
-1.98073e-05
5.3131e-05
-1.76859e-05
4.62556e-05
-1.25275e-05
4.54282e-05
-8.9905e-06
4.47268e-05
-7.05341e-06
4.23366e-05
-3.19708e-06
4.27319e-05
9.83977e-07
4.08734e-05
7.29225e-06
4.49035e-05
1.2488e-05
4.21924e-05
1.37798e-05
3.59446e-05
1.8177e-05
3.43704e-05
4.11948e-07
6.65656e-05
-4.65657e-06
0.00010194
-1.43439e-05
9.49928e-05
-2.41351e-05
7.26096e-05
-2.98372e-05
6.41436e-05
-3.44637e-05
5.38009e-05
-2.84826e-05
2.84097e-05
-1.39687e-05
1.1144e-05
1.61561e-06
9.84343e-06
1.15663e-05
2.43126e-05
9.67273e-06
5.11807e-05
7.64991e-06
6.38161e-05
-3.4318e-06
4.93958e-05
-6.63722e-07
2.2519e-05
5.54697e-06
2.57278e-05
8.21564e-06
5.97874e-05
9.14874e-05
-1.49624e-06
7.46816e-05
-7.75967e-06
6.88169e-05
-1.57214e-05
6.1138e-05
-1.89501e-05
4.95269e-05
-1.54259e-05
4.19541e-05
-1.25649e-05
4.19308e-05
-9.82798e-06
3.96834e-05
-4.82457e-06
3.78116e-05
-2.07806e-07
3.63359e-05
7.37497e-06
3.73728e-05
1.15499e-05
3.80735e-05
1.30969e-05
3.44443e-05
1.57384e-05
3.17586e-05
-6.60809e-06
8.89531e-05
-9.35687e-06
0.00010473
-1.75852e-05
0.000103258
-1.99095e-05
7.49648e-05
-2.12906e-05
6.55548e-05
-2.68423e-05
5.9385e-05
-1.99851e-05
2.15774e-05
-6.46088e-06
-2.36312e-06
6.98615e-06
-3.58893e-06
1.98885e-05
1.14296e-05
2.1562e-05
4.95395e-05
1.89146e-05
6.65018e-05
2.44986e-06
6.58962e-05
-1.72899e-07
2.5162e-05
2.10219e-06
2.3474e-05
5.06177e-06
5.6875e-05
9.66463e-05
5.64124e-06
6.90814e-05
6.2557e-06
6.82424e-05
1.04261e-06
6.63909e-05
-5.48406e-06
5.60915e-05
-1.00574e-05
4.65678e-05
-1.20835e-05
4.40087e-05
-1.08258e-05
3.8485e-05
-7.84531e-06
3.48905e-05
-3.61528e-06
3.21732e-05
3.34193e-06
3.04667e-05
9.28008e-06
3.21582e-05
1.263e-05
3.11167e-05
1.05094e-05
3.38949e-05
6.42168e-07
9.88533e-05
-2.50022e-06
0.000107909
-1.11969e-05
0.000111993
-1.09589e-05
7.47566e-05
-8.35581e-06
6.29801e-05
-1.14116e-05
6.24724e-05
-4.15122e-06
1.43364e-05
5.19825e-06
-1.17014e-05
1.14833e-05
-9.8625e-06
1.99792e-05
2.95176e-06
2.47716e-05
4.47817e-05
1.80007e-05
7.33143e-05
9.12516e-06
7.48106e-05
2.31819e-06
3.19892e-05
9.38069e-07
2.48732e-05
1.60638e-06
5.62495e-05
9.8328e-05
8.73226e-06
6.03826e-05
1.77445e-05
5.92638e-05
2.38453e-05
6.03239e-05
1.79298e-05
6.20406e-05
6.47896e-06
5.80523e-05
-9.60128e-07
5.14839e-05
-8.5519e-06
4.61143e-05
-8.50111e-06
3.48809e-05
-4.49144e-06
2.82191e-05
7.37051e-08
2.59692e-05
6.66836e-06
2.55787e-05
1.35209e-05
2.42687e-05
1.43166e-05
3.30924e-05
1.94726e-05
9.36938e-05
1.89449e-05
0.00010845
1.63173e-05
0.000114642
1.11982e-05
7.98996e-05
8.38983e-06
6.58164e-05
6.2779e-06
6.46137e-05
1.17748e-05
8.85236e-06
1.62218e-05
-1.61422e-05
1.75094e-05
-1.11404e-05
1.3657e-05
6.82306e-06
1.39882e-05
4.44862e-05
9.64577e-06
7.77009e-05
9.70931e-06
7.47861e-05
5.16579e-06
3.65522e-05
-7.3607e-07
3.07922e-05
-1.01952e-06
5.6571e-05
9.73765e-05
7.96376e-06
5.24482e-05
1.90074e-05
4.8249e-05
3.06621e-05
4.86986e-05
3.83816e-05
5.43525e-05
3.35642e-05
6.29027e-05
1.91569e-05
6.59242e-05
3.78022e-06
6.15248e-05
-6.24612e-06
4.49398e-05
-2.87076e-06
2.4878e-05
1.44446e-06
2.17172e-05
6.68819e-06
2.03647e-05
1.23719e-05
1.85891e-05
1.56984e-05
2.97517e-05
3.25369e-05
7.67952e-05
4.46348e-05
9.62967e-05
5.24457e-05
0.000106805
4.08374e-05
9.15127e-05
2.73769e-05
7.93005e-05
2.14977e-05
7.05171e-05
2.11473e-05
9.21053e-06
2.29117e-05
-1.7903e-05
2.10455e-05
-9.26502e-06
3.10622e-06
2.47817e-05
-5.21798e-06
5.28459e-05
-4.03478e-06
7.65624e-05
3.25798e-06
6.75284e-05
1.58378e-06
3.82441e-05
-4.63479e-06
3.70292e-05
-3.49699e-06
5.54709e-05
9.39473e-05
6.583e-06
4.58917e-05
1.83478e-05
3.65097e-05
3.1093e-05
3.59799e-05
4.14628e-05
4.40121e-05
4.51828e-05
5.92153e-05
4.04397e-05
7.07018e-05
2.7527e-05
7.44752e-05
8.02249e-06
6.44792e-05
-9.81167e-07
3.39075e-05
3.90668e-06
1.68626e-05
8.08979e-06
1.62178e-05
9.93721e-06
1.67585e-05
1.24272e-05
2.72695e-05
3.3221e-05
5.59656e-05
5.61743e-05
7.32961e-05
7.44512e-05
8.85134e-05
6.53193e-05
0.000100671
3.60444e-05
0.000108608
2.54364e-05
8.11494e-05
2.63239e-05
8.33075e-06
2.52771e-05
-1.68528e-05
9.31157e-06
6.7102e-06
-8.23512e-06
4.23494e-05
-1.78211e-05
6.24658e-05
-1.51206e-05
7.3904e-05
-4.72581e-06
5.71629e-05
-4.78788e-06
3.83225e-05
-7.34298e-06
3.96052e-05
-5.71872e-06
5.3883e-05
8.8291e-05
6.22919e-06
3.96876e-05
1.46512e-05
2.81105e-05
2.37513e-05
2.69032e-05
3.40711e-05
3.37189e-05
4.23346e-05
5.09833e-05
4.33973e-05
6.96751e-05
4.12639e-05
7.66482e-05
3.20038e-05
7.37792e-05
1.10509e-05
5.48892e-05
4.30148e-06
2.36323e-05
7.92352e-06
1.26206e-05
8.35439e-06
1.63569e-05
1.12927e-05
2.43718e-05
2.79955e-05
3.93052e-05
5.15074e-05
4.98284e-05
7.29083e-05
6.71789e-05
6.69994e-05
0.000106676
3.4828e-05
0.00014084
2.34805e-05
9.25337e-05
3.15195e-05
3.01643e-07
2.08274e-05
-6.15464e-06
-3.38177e-06
3.09319e-05
-1.21235e-05
5.1114e-05
-1.98077e-05
7.01824e-05
-1.87864e-05
7.29199e-05
-1.09611e-05
4.93612e-05
-1.12055e-05
3.85838e-05
-1.03342e-05
3.87552e-05
-7.59365e-06
5.11758e-05
8.07505e-05
5.74038e-06
3.39713e-05
9.17673e-06
2.46948e-05
1.26362e-05
2.34642e-05
1.93802e-05
2.6998e-05
2.99999e-05
4.03923e-05
3.8783e-05
6.09273e-05
4.1924e-05
7.35462e-05
4.15733e-05
7.41695e-05
3.24945e-05
6.40038e-05
1.41064e-05
4.20449e-05
8.88269e-06
1.78624e-05
1.07115e-05
1.4556e-05
1.44763e-05
2.06615e-05
2.44726e-05
2.93757e-05
3.96269e-05
3.47549e-05
5.60089e-05
5.08947e-05
4.66086e-05
0.000116201
2.40104e-05
0.000163531
1.74409e-05
9.91534e-05
2.19517e-05
-4.19964e-06
1.02796e-05
5.5267e-06
-2.90501e-06
4.4133e-05
-1.13037e-05
5.95344e-05
-1.64378e-05
7.53471e-05
-1.69188e-05
7.34343e-05
-1.44892e-05
4.69521e-05
-1.54125e-05
3.95252e-05
-1.4247e-05
3.76107e-05
-9.96528e-06
4.69239e-05
7.08298e-05
4.25939e-06
2.97353e-05
3.90169e-06
2.50722e-05
2.71323e-06
2.46718e-05
4.26002e-06
2.54715e-05
1.28605e-05
3.18167e-05
2.64812e-05
4.73387e-05
3.62058e-05
6.38588e-05
3.84404e-05
7.1975e-05
3.99356e-05
6.25486e-05
3.54055e-05
4.66101e-05
2.19676e-05
3.13259e-05
1.7878e-05
1.86654e-05
1.97426e-05
1.88294e-05
2.45214e-05
2.46438e-05
3.08218e-05
2.85083e-05
3.76129e-05
4.41666e-05
2.37166e-05
0.000130202
1.13886e-05
0.000175968
1.21158e-05
9.84834e-05
1.10599e-05
-3.13458e-06
7.1271e-06
9.47143e-06
2.13769e-06
4.91445e-05
-3.51726e-06
6.52129e-05
-8.1992e-06
8.00589e-05
-1.35567e-05
7.88237e-05
-1.55297e-05
4.89448e-05
-1.73699e-05
4.13846e-05
-1.77073e-05
3.79686e-05
-1.28453e-05
4.20886e-05
5.80221e-05
2.34777e-06
2.7411e-05
3.13783e-07
2.71272e-05
-2.77905e-06
2.77851e-05
-5.31514e-06
2.8028e-05
-2.87471e-06
2.93991e-05
8.56821e-06
3.5924e-05
2.24375e-05
5.00249e-05
2.99509e-05
6.45032e-05
3.4683e-05
5.78599e-05
4.21747e-05
3.91598e-05
4.43319e-05
2.92056e-05
3.31763e-05
2.98537e-05
2.56017e-05
2.64319e-05
2.5623e-05
2.46497e-05
2.6507e-05
2.76533e-05
1.93618e-05
5.13521e-05
4.5394e-06
0.000145112
2.3886e-06
0.000178222
5.60989e-06
9.53235e-05
3.13692e-06
-6.51339e-07
2.21755e-06
1.04042e-05
5.18292e-06
4.62045e-05
5.21011e-06
6.52147e-05
2.64967e-06
8.26527e-05
-6.98788e-06
8.84963e-05
-1.43135e-05
5.62913e-05
-1.66819e-05
4.37731e-05
-1.79465e-05
3.92539e-05
-1.356e-05
3.77258e-05
4.4493e-05
7.7991e-09
2.74276e-05
-2.63864e-06
2.97978e-05
-6.28942e-06
3.14604e-05
-1.02108e-05
3.19741e-05
-1.20038e-05
3.12169e-05
-7.83199e-06
3.17794e-05
3.71094e-06
3.85153e-05
1.57259e-05
5.25301e-05
2.35747e-05
5.00547e-05
3.36064e-05
2.91688e-05
4.49259e-05
1.79284e-05
4.39254e-05
3.09053e-05
2.95731e-05
4.08325e-05
2.23483e-05
3.19072e-05
1.569e-05
3.43413e-05
-2.57193e-06
6.96622e-05
-6.03524e-06
0.000148663
2.21971e-06
0.000170064
1.4961e-06
9.61108e-05
-2.49085e-06
3.34801e-06
-4.21227e-06
1.21404e-05
4.58891e-06
3.74287e-05
1.22956e-05
5.75395e-05
1.17654e-05
8.32218e-05
1.56585e-06
9.87387e-05
-9.18837e-06
6.70721e-05
-1.17579e-05
4.63643e-05
-1.34948e-05
4.10129e-05
-1.10391e-05
3.52923e-05
3.34789e-05
-1.89913e-06
2.93529e-05
-5.31147e-06
3.32377e-05
-9.08836e-06
3.52664e-05
-1.30292e-05
3.59454e-05
-1.56358e-05
3.38539e-05
-1.52506e-05
3.14246e-05
-8.70873e-06
3.20071e-05
4.54025e-06
3.93225e-05
1.42354e-05
4.04029e-05
2.01249e-05
2.33164e-05
2.95495e-05
8.53969e-06
3.62245e-05
2.42804e-05
3.03421e-05
4.67718e-05
1.89165e-05
4.33767e-05
4.04753e-06
4.92509e-05
-1.09245e-05
8.46937e-05
4.83365e-07
0.000137342
1.14955e-05
0.000159141
9.17924e-07
0.000106755
-4.41796e-06
8.69895e-06
-6.6462e-06
1.4385e-05
1.675e-06
2.91312e-05
1.34202e-05
4.58252e-05
1.55634e-05
8.11258e-05
8.75367e-06
0.000105605
2.46353e-07
7.56177e-05
-3.7131e-06
5.03513e-05
-7.16528e-06
4.44927e-05
-6.46254e-06
3.46121e-05
2.70365e-05
-4.47235e-06
3.38538e-05
-8.59643e-06
3.73943e-05
-1.17587e-05
3.84624e-05
-1.44466e-05
3.86681e-05
-1.52725e-05
3.47139e-05
-1.40837e-05
3.02697e-05
-8.98771e-06
2.69455e-05
3.41178e-06
2.69627e-05
1.35105e-05
3.03494e-05
1.33533e-05
2.35139e-05
1.11517e-05
1.07712e-05
1.18809e-05
2.35883e-05
1.67094e-05
4.19868e-05
1.54549e-05
4.46718e-05
1.17816e-05
5.29658e-05
9.87966e-06
8.66507e-05
1.94546e-05
0.000127846
2.83963e-05
0.000150283
6.50279e-06
0.00012872
-3.93497e-06
1.91552e-05
-5.24444e-06
1.57118e-05
4.64177e-07
2.34438e-05
9.94687e-06
3.63715e-05
1.25006e-05
7.86293e-05
1.22956e-05
0.000105885
9.55434e-06
7.84124e-05
3.6493e-06
5.6294e-05
-4.63906e-06
5.28163e-05
-4.62931e-06
3.46246e-05
2.24244e-05
-1.09341e-05
4.48215e-05
-1.53493e-05
4.18446e-05
-1.65644e-05
3.97126e-05
-1.54191e-05
3.75592e-05
-1.17877e-05
3.1117e-05
-7.61408e-06
2.61283e-05
-7.41357e-07
2.01039e-05
1.1548e-05
1.47064e-05
1.87971e-05
2.31426e-05
1.02684e-05
3.20838e-05
-9.50236e-06
3.05755e-05
-1.68057e-05
3.09298e-05
-6.48676e-06
3.17049e-05
9.52605e-06
2.8692e-05
2.82822e-05
3.42449e-05
4.01519e-05
7.48304e-05
4.06443e-05
0.000127428
4.36897e-05
0.000147319
2.40661e-05
0.000148424
-1.39031e-06
4.46402e-05
-2.20328e-06
1.65424e-05
1.29243e-06
1.99678e-05
6.40087e-06
3.12904e-05
6.04398e-06
7.90454e-05
1.17831e-05
0.000100221
1.06307e-05
7.96217e-05
8.93279e-07
6.60722e-05
-8.45882e-06
6.2206e-05
-6.15349e-06
3.23423e-05
1.62804e-05
-1.28066e-05
5.76629e-05
-1.81774e-05
4.72482e-05
-1.7601e-05
3.91686e-05
-1.17076e-05
3.16972e-05
-5.73105e-06
2.51697e-05
-1.60827e-06
2.20322e-05
5.62983e-06
1.28896e-05
1.52796e-05
5.0808e-06
1.57273e-05
2.27289e-05
4.62209e-06
4.32253e-05
-1.49907e-05
5.02251e-05
-2.47295e-05
4.07089e-05
-1.51767e-05
2.21875e-05
5.98453e-06
7.55909e-06
3.33262e-05
6.93177e-06
5.7971e-05
5.02334e-05
5.381e-05
0.000131667
5.45095e-05
0.000146702
5.19698e-05
0.00015105
1.01495e-05
8.65074e-05
2.23736e-06
2.44742e-05
3.28291e-06
1.89416e-05
4.00076e-06
3.05994e-05
2.95118e-06
8.01485e-05
6.66964e-06
9.65653e-05
2.40781e-06
8.39336e-05
-9.05544e-06
7.75762e-05
-1.76015e-05
7.07905e-05
-1.84522e-05
3.32225e-05
-2.15881e-06
-7.65816e-06
6.53589e-05
-1.72157e-05
5.68398e-05
-2.00553e-05
4.20385e-05
-1.63446e-05
2.80156e-05
-1.05563e-05
1.94081e-05
-3.84471e-06
1.53459e-05
-5.22566e-07
9.5902e-06
-3.36649e-06
7.94809e-06
-4.14946e-06
2.35409e-05
-3.90929e-06
4.30175e-05
-6.20665e-06
5.25562e-05
-1.15486e-05
4.60854e-05
-6.0842e-06
1.6752e-05
8.69584e-06
-7.19933e-06
2.75915e-05
-1.19435e-05
5.41432e-05
2.37224e-05
5.47292e-05
0.000131162
5.95104e-05
0.000142
6.5877e-05
0.000144766
2.89144e-05
0.000123533
4.45073e-06
4.8966e-05
1.46803e-06
2.19436e-05
-1.72099e-06
3.38157e-05
-6.87145e-07
7.916e-05
-2.48719e-06
9.84153e-05
-1.00571e-05
9.15477e-05
-1.48825e-05
8.24409e-05
-1.60764e-05
7.20204e-05
-1.27443e-05
2.99187e-05
-1.48866e-05
-8.93814e-06
7.4332e-05
-1.90601e-05
6.69936e-05
-2.80256e-05
5.10334e-05
-3.55258e-05
3.5544e-05
-3.97778e-05
2.36884e-05
-3.76109e-05
1.32078e-05
-3.32175e-05
5.22526e-06
-2.58371e-05
5.95388e-07
-1.20647e-05
9.79608e-06
-9.56119e-08
3.10775e-05
6.69751e-06
4.57937e-05
8.42268e-06
4.43909e-05
7.64929e-06
1.75501e-05
1.43201e-05
-1.38539e-05
2.2744e-05
-2.0353e-05
3.97421e-05
6.75394e-06
4.7869e-05
0.000123111
5.60754e-05
0.000133867
6.57861e-05
0.000135129
6.24107e-05
0.000126977
2.56588e-05
8.57622e-05
1.18662e-06
4.64404e-05
-1.15463e-05
4.65777e-05
-8.77803e-06
7.64328e-05
-6.70037e-06
9.63829e-05
-1.39027e-05
9.87933e-05
-1.97182e-05
8.82967e-05
-1.84327e-05
7.07704e-05
-1.2399e-06
1.27512e-05
-1.61125e-05
-1.04653e-05
8.4829e-05
-1.67525e-05
7.33111e-05
-2.26245e-05
5.69343e-05
-2.83923e-05
4.13396e-05
-3.19082e-05
2.72313e-05
-3.21079e-05
1.34342e-05
-2.65337e-05
-3.23321e-07
-1.60003e-05
-9.91431e-06
-4.60982e-06
-1.57104e-06
7.70482e-06
1.87887e-05
1.6104e-05
3.74233e-05
2.24707e-05
3.80533e-05
2.23044e-05
1.77411e-05
2.12859e-05
-1.28199e-05
2.19368e-05
-2.09911e-05
2.58325e-05
2.88108e-06
3.51704e-05
0.000113838
4.69466e-05
0.000122154
5.92413e-05
0.000122898
6.8576e-05
0.000117703
5.36707e-05
0.000100717
2.06888e-05
7.94583e-05
-4.04438e-06
7.13448e-05
-1.13127e-05
8.37414e-05
-1.10843e-05
9.61992e-05
-1.72304e-05
0.000104985
-2.17144e-05
9.28238e-05
-1.01652e-05
5.92566e-05
3.31118e-06
-7.04988e-07
-1.2788e-05
-5.81413e-06
9.06748e-05
-7.93419e-06
7.54618e-05
-1.06402e-05
5.96698e-05
-1.24851e-05
4.32127e-05
-1.212e-05
2.68926e-05
-1.08531e-05
1.21922e-05
-6.33619e-06
-4.81782e-06
-1.42956e-06
-1.48013e-05
4.05631e-06
-7.03701e-06
1.25725e-05
1.02956e-05
2.18852e-05
2.81378e-05
2.96126e-05
3.0354e-05
3.24611e-05
1.49178e-05
2.84448e-05
-8.78606e-06
2.34472e-05
-1.59794e-05
1.49923e-05
1.1358e-05
2.40101e-05
0.000104876
3.45904e-05
0.00011163
4.61377e-05
0.000111405
5.33173e-05
0.000110577
4.99799e-05
0.000104101
3.35255e-05
9.59539e-05
1.21315e-05
9.27777e-05
-1.29063e-06
9.72062e-05
-9.1423e-06
0.000104097
-1.47196e-05
0.000110612
-1.40113e-05
9.21619e-05
3.52626e-06
4.17518e-05
5.51612e-06
-2.67913e-06
-7.25941e-06
2.57665e-06
8.81311e-05
2.22786e-06
7.58423e-05
1.05672e-06
6.08711e-05
1.674e-06
4.26233e-05
3.546e-06
2.50464e-05
6.1002e-06
9.66156e-06
8.41341e-06
-7.11061e-06
8.74537e-06
-1.51158e-05
1.01088e-05
-8.38253e-06
1.51025e-05
5.32288e-06
2.37612e-05
1.95042e-05
3.22954e-05
2.18464e-05
3.68728e-05
1.03651e-05
3.36888e-05
-5.58195e-06
2.48052e-05
-7.07872e-06
6.73894e-06
2.945e-05
1.68424e-05
9.48221e-05
2.7136e-05
0.000101387
3.50077e-05
0.000103584
4.07675e-05
0.000104866
4.05861e-05
0.00010433
3.37585e-05
0.000102826
2.38176e-05
0.000102762
1.51204e-05
0.000105949
7.36614e-06
0.000111902
3.42478e-07
0.00011769
2.32874e-06
9.02239e-05
1.13863e-05
3.27228e-05
7.47252e-06
1.24888e-06
2.24545e-07
6.78387e-06
8.13803e-05
8.64828e-06
7.401e-05
9.59169e-06
5.99577e-05
1.15903e-05
4.06522e-05
1.41543e-05
2.25075e-05
1.78268e-05
6.01147e-06
1.80659e-05
-7.33068e-06
1.55519e-05
-1.25856e-05
1.43244e-05
-7.13833e-06
1.69691e-05
2.69749e-06
2.38615e-05
1.26345e-05
3.21024e-05
1.36297e-05
3.73283e-05
5.16291e-06
3.57726e-05
-4.00411e-06
2.59865e-05
2.7294e-06
7.71395e-06
4.77534e-05
1.73699e-05
8.52098e-05
2.59041e-05
9.28988e-05
3.2166e-05
9.73689e-05
3.5409e-05
0.00010167
3.59632e-05
0.000103822
3.37709e-05
0.000105065
2.97776e-05
0.000106802
2.61359e-05
0.00010964
2.39855e-05
0.000114105
2.17752e-05
0.000119957
2.02746e-05
9.17735e-05
1.60203e-05
3.70054e-05
1.00132e-05
7.2701e-06
1.02482e-05
7.80607e-06
7.36063e-05
1.12058e-05
7.06417e-05
1.44782e-05
5.67149e-05
1.78609e-05
3.72966e-05
2.203e-05
1.83625e-05
2.43873e-05
3.67524e-06
2.27286e-05
-5.65406e-06
1.90012e-05
-8.84268e-06
1.68685e-05
-4.98974e-06
1.81339e-05
1.45017e-06
2.29074e-05
7.88161e-06
2.85499e-05
8.00925e-06
3.20853e-05
1.64931e-06
3.0875e-05
-2.77268e-06
2.25074e-05
1.1121e-05
1.49249e-05
5.5369e-05
2.31527e-05
7.70216e-05
3.04738e-05
8.56206e-05
3.52161e-05
9.26719e-05
3.7219e-05
9.97142e-05
3.68973e-05
0.000104191
3.52455e-05
0.000106764
3.38455e-05
0.000108251
3.30147e-05
0.000110521
3.39729e-05
0.0001132
3.75349e-05
0.000116452
3.69857e-05
9.23725e-05
2.62126e-05
4.78129e-05
1.36466e-05
1.98574e-05
2.39156e-05
7.68907e-06
6.59483e-05
1.24945e-05
6.5867e-05
1.74418e-05
5.17966e-05
2.23266e-05
3.24378e-05
2.64092e-05
1.43027e-05
2.69845e-05
3.1197e-06
2.41988e-05
-2.85141e-06
1.98359e-05
-4.46473e-06
1.68515e-05
-1.98985e-06
1.66675e-05
1.65105e-06
1.95122e-05
5.05566e-06
2.29414e-05
4.59977e-06
2.44475e-05
1.62535e-07
2.24958e-05
-8.01469e-07
1.74396e-05
1.62016e-05
2.17608e-05
5.1081e-05
3.10672e-05
6.77528e-05
3.80214e-05
7.87074e-05
4.23362e-05
8.84015e-05
4.24964e-05
9.96011e-05
4.09676e-05
0.000105769
3.85712e-05
0.000109209
3.70626e-05
0.000109809
3.71623e-05
0.000110472
3.92875e-05
0.000111127
4.46875e-05
0.000111107
4.5317e-05
9.17925e-05
3.83834e-05
5.4787e-05
2.45698e-05
3.37041e-05
4.85185e-05
7.78347e-06
5.8195e-05
1.45566e-05
5.91241e-05
2.03193e-05
4.60621e-05
2.52853e-05
2.74968e-05
2.70952e-05
1.25142e-05
2.59595e-05
4.27378e-06
2.27359e-05
3.88172e-07
1.87464e-05
-4.60332e-07
1.59797e-05
7.91811e-07
1.50839e-05
2.56279e-06
1.60751e-05
4.08155e-06
1.72267e-05
3.46566e-06
1.65686e-05
8.37919e-07
1.3429e-05
2.35673e-06
1.19386e-05
1.7716e-05
2.24667e-05
4.05842e-05
3.59608e-05
5.42943e-05
4.66995e-05
6.80089e-05
5.04254e-05
8.47206e-05
4.93487e-05
0.000100727
4.57457e-05
0.000109422
4.2324e-05
0.000112681
3.91242e-05
0.000113058
3.84173e-05
0.000111228
3.97775e-05
0.000109818
4.32323e-05
0.000107702
3.92752e-05
9.57967e-05
3.26523e-05
6.14502e-05
2.10189e-05
4.53726e-05
6.95743e-05
8.24989e-06
4.99746e-05
1.652e-05
5.08838e-05
2.24696e-05
4.01401e-05
2.57296e-05
2.42606e-05
2.58888e-05
1.23752e-05
2.38982e-05
6.28152e-06
2.06358e-05
3.66611e-06
1.72585e-05
2.9317e-06
1.48074e-05
3.25769e-06
1.34264e-05
3.95908e-06
1.2989e-05
4.53487e-06
1.22639e-05
4.20683e-06
9.87922e-06
3.23871e-06
6.13946e-06
6.11439e-06
6.53933e-06
1.73389e-05
1.6169e-05
3.09826e-05
3.05524e-05
3.99431e-05
4.67832e-05
5.18159e-05
5.61636e-05
7.53857e-05
5.40274e-05
0.000102915
4.8862e-05
0.00011464
4.34396e-05
0.000118156
3.93972e-05
0.000117151
3.70693e-05
0.000113606
3.59094e-05
0.000111026
3.52638e-05
0.000108395
2.70944e-05
0.000104013
1.93311e-05
6.9254e-05
1.32423e-05
5.14964e-05
8.28565e-05
8.43844e-06
4.15644e-05
1.66865e-05
4.26647e-05
2.22616e-05
3.45917e-05
2.43043e-05
2.22406e-05
2.33677e-05
1.33307e-05
2.09303e-05
8.73546e-06
1.80492e-05
6.56245e-06
1.53925e-05
5.60318e-06
1.3287e-05
5.37784e-06
1.17048e-05
5.55615e-06
1.04318e-05
5.82307e-06
8.70257e-06
5.95154e-06
5.67719e-06
6.27983e-06
2.49255e-06
9.31649e-06
3.49954e-06
1.63531e-05
9.63551e-06
2.48716e-05
1.94352e-05
3.01712e-05
3.42012e-05
3.70826e-05
5.0794e-05
5.88352e-05
5.50912e-05
9.86709e-05
4.90458e-05
0.000120742
4.30315e-05
0.000124225
3.76336e-05
0.000122602
3.36073e-05
0.000117682
2.95228e-05
0.000115159
2.47854e-05
0.000113179
1.64977e-05
0.000112351
9.22652e-06
7.65666e-05
8.00708e-06
5.27508e-05
9.09065e-05
7.28249e-06
3.43082e-05
1.47261e-05
3.52482e-05
1.96855e-05
2.96574e-05
2.09877e-05
2.09597e-05
1.98057e-05
1.45308e-05
1.7681e-05
1.08763e-05
1.54397e-05
8.81898e-06
1.3373e-05
7.68449e-06
1.15654e-05
7.19993e-06
9.97375e-06
7.16247e-06
8.42362e-06
7.38811e-06
6.52599e-06
7.86441e-06
3.94093e-06
8.88065e-06
1.8218e-06
1.14528e-05
2.39812e-06
1.57962e-05
6.00348e-06
2.12885e-05
1.12024e-05
2.49965e-05
1.95909e-05
2.87212e-05
3.51428e-05
4.33189e-05
4.90358e-05
8.48287e-05
4.80643e-05
0.000121772
4.16583e-05
0.00013069
3.47738e-05
0.000129541
2.88556e-05
0.000123652
2.26634e-05
0.000121401
1.61606e-05
0.000119732
7.97794e-06
0.000120586
1.51029e-06
8.30766e-05
2.58282e-06
5.17125e-05
9.35338e-05
5.46999e-06
2.88619e-05
1.15421e-05
2.92006e-05
1.56908e-05
2.55316e-05
1.67315e-05
1.99388e-05
1.59066e-05
1.5373e-05
1.44619e-05
1.23369e-05
1.28721e-05
1.04237e-05
1.12885e-05
9.2826e-06
9.7716e-06
8.73113e-06
8.31631e-06
8.63222e-06
6.84048e-06
8.87868e-06
5.2153e-06
9.50479e-06
3.42451e-06
1.06873e-05
2.14393e-06
1.27503e-05
2.2513e-06
1.57074e-05
4.17523e-06
1.93851e-05
6.61745e-06
2.25762e-05
9.83724e-06
2.5525e-05
1.88801e-05
3.43054e-05
3.715e-05
6.66031e-05
4.4872e-05
0.000114108
4.06112e-05
0.000135011
3.27233e-05
0.000137488
2.44336e-05
0.000131997
1.64905e-05
0.000129398
8.79854e-06
0.000127478
5.89853e-07
0.000128852
-4.78438e-06
8.8494e-05
-3.94837e-06
5.091e-05
8.96301e-05
3.80856e-06
2.50745e-05
8.24365e-06
2.47872e-05
1.1399e-05
2.23967e-05
1.25047e-05
1.88516e-05
1.22918e-05
1.56026e-05
1.14852e-05
1.31589e-05
1.04104e-05
1.1513e-05
9.21248e-06
1.04948e-05
7.97374e-06
9.984e-06
6.73257e-06
9.88766e-06
5.48627e-06
1.01396e-05
4.24061e-06
1.07656e-05
3.09163e-06
1.18521e-05
2.35135e-06
1.35075e-05
2.3182e-06
1.57587e-05
3.15763e-06
1.85652e-05
4.01167e-06
2.1743e-05
4.37108e-06
2.51879e-05
7.52021e-06
3.11821e-05
2.22746e-05
5.1886e-05
3.92902e-05
9.71468e-05
4.09439e-05
0.00013342
3.30166e-05
0.000145479
2.1797e-05
0.000143276
1.1551e-05
0.000139702
2.70425e-06
0.000136382
-6.57744e-06
0.000138194
-1.03553e-05
9.23161e-05
-9.85903e-06
5.04469e-05
7.98143e-05
2.64692e-06
2.24467e-05
5.6493e-06
2.1804e-05
7.93628e-06
2.01281e-05
9.05844e-06
1.77465e-05
9.24072e-06
1.54361e-05
8.83963e-06
1.35748e-05
8.10658e-06
1.22603e-05
7.18705e-06
1.14282e-05
6.18169e-06
1.10033e-05
5.1619e-06
1.09215e-05
4.17501e-06
1.11409e-05
3.27653e-06
1.1679e-05
2.55703e-06
1.25874e-05
2.14371e-06
1.39374e-05
2.12248e-06
1.57977e-05
2.41391e-06
1.82929e-05
2.43576e-06
2.17419e-05
1.58309e-06
2.6063e-05
1.41282e-06
3.13772e-05
9.49218e-06
4.38387e-05
2.97749e-05
7.69116e-05
4.21047e-05
0.000121152
3.39133e-05
0.00015374
2.14037e-05
0.000155851
8.88092e-06
0.000152289
-1.79767e-06
0.000147123
-1.27399e-05
0.0001492
-1.39528e-05
9.35744e-05
-1.22247e-05
4.87513e-05
6.76301e-05
1.88418e-06
2.05799e-05
3.90342e-06
1.98022e-05
5.5435e-06
1.85049e-05
6.49322e-06
1.68127e-05
6.77974e-06
1.51647e-05
6.5571e-06
1.38118e-05
6.00341e-06
1.28279e-05
5.24985e-06
1.21955e-05
4.40614e-06
1.18606e-05
3.56456e-06
1.1777e-05
2.79851e-06
1.19212e-05
2.17588e-06
1.23164e-05
1.75612e-06
1.30226e-05
1.5787e-06
1.41312e-05
1.63231e-06
1.57616e-05
1.75143e-06
1.81927e-05
1.52657e-06
2.19875e-05
4.49237e-07
2.71633e-05
-8.82291e-07
3.27339e-05
2.13077e-06
4.08551e-05
1.78909e-05
6.11921e-05
3.89762e-05
0.000100124
3.57669e-05
0.000157022
2.24148e-05
0.000169277
8.64447e-06
0.000166129
-3.63056e-06
0.000159466
-1.58599e-05
0.000161496
-1.5181e-05
9.29414e-05
-1.22557e-05
4.58569e-05
5.54113e-05
1.36104e-06
1.92349e-05
2.76254e-06
1.84167e-05
3.92054e-06
1.73626e-05
4.62499e-06
1.61234e-05
4.84394e-06
1.49602e-05
4.6482e-06
1.40214e-05
4.15184e-06
1.33378e-05
3.46874e-06
1.2892e-05
2.70885e-06
1.26339e-05
1.97403e-06
1.25254e-05
1.35297e-06
1.25562e-05
9.20816e-07
1.2763e-05
7.19719e-07
1.32388e-05
7.47724e-07
1.41192e-05
9.4002e-07
1.55864e-05
1.11628e-06
1.80351e-05
9.83847e-07
2.21407e-05
2.48741e-07
2.79218e-05
-7.33834e-07
3.37423e-05
2.05829e-08
4.01291e-05
8.90044e-06
5.23476e-05
2.97557e-05
7.93184e-05
3.54769e-05
0.000151375
2.29761e-05
0.000181858
9.7217e-06
0.000179462
-3.40257e-06
0.000172665
-1.56233e-05
0.000173789
-1.4666e-05
9.20297e-05
-1.17369e-05
4.29563e-05
4.37068e-05
1.00223e-06
1.82478e-05
1.99579e-06
1.74382e-05
2.79785e-06
1.65754e-05
3.2659e-06
1.56697e-05
3.36003e-06
1.488e-05
3.11713e-06
1.42779e-05
2.60991e-06
1.38584e-05
1.93366e-06
1.35815e-05
1.18548e-06
1.33954e-05
4.68907e-07
1.32554e-05
-1.11351e-07
1.31501e-05
-4.62472e-07
1.31282e-05
-5.25736e-07
1.33167e-05
-3.13322e-07
1.39223e-05
6.58783e-08
1.52239e-05
4.29456e-07
1.76898e-05
5.47194e-07
2.20437e-05
4.16455e-07
2.8076e-05
4.37002e-07
3.37476e-05
8.62785e-07
3.9731e-05
4.45941e-06
4.87826e-05
1.66288e-05
6.71914e-05
3.00111e-05
0.000138066
2.00689e-05
0.000191886
9.02387e-06
0.000190591
-3.29858e-06
0.000185066
-1.28933e-05
0.00018346
-1.1676e-05
9.08567e-05
-1.00424e-05
4.13483e-05
3.36916e-05
7.47856e-07
1.75144e-05
1.45971e-06
1.67407e-05
2.00498e-06
1.60443e-05
2.28391e-06
1.54048e-05
2.26246e-06
1.49151e-05
1.95894e-06
1.45949e-05
1.42034e-06
1.44102e-05
7.13198e-07
1.43018e-05
-8.65502e-08
1.42084e-05
-8.81028e-07
1.40632e-05
-1.54406e-06
1.38267e-05
-1.94804e-06
1.3546e-05
-1.97549e-06
1.33584e-05
-1.60926e-06
1.3571e-05
-9.71602e-07
1.46024e-05
-2.99351e-07
1.70354e-05
2.90491e-07
2.14741e-05
9.72476e-07
2.74171e-05
1.60717e-06
3.31378e-05
1.22392e-06
4.01411e-05
8.63974e-07
4.91723e-05
3.02159e-06
6.50715e-05
1.46541e-05
0.000126501
1.05115e-05
0.000196115
2.93162e-06
0.000198255
-4.9085e-06
0.000192987
-7.12666e-06
0.000185754
-4.91059e-06
8.8683e-05
-6.02996e-06
4.24911e-05
2.76834e-05
5.5565e-07
1.69728e-05
1.06455e-06
1.62458e-05
1.42932e-06
1.56934e-05
1.57755e-06
1.52702e-05
1.48095e-06
1.50252e-05
1.14302e-06
1.49461e-05
5.87024e-07
1.49794e-05
-1.59922e-07
1.5062e-05
-1.04859e-06
1.51103e-05
-2.0013e-06
1.50293e-05
-2.88368e-06
1.47225e-05
-3.4961e-06
1.4172e-05
-3.61646e-06
1.34926e-05
-3.15406e-06
1.3123e-05
-2.20885e-06
1.36727e-05
-1.04374e-06
1.58876e-05
9.77217e-08
2.03524e-05
9.70774e-07
2.65663e-05
9.17984e-07
3.32145e-05
-1.91057e-06
4.29977e-05
-7.87351e-06
5.51676e-05
-1.4599e-05
7.18365e-05
-1.19976e-05
0.000123965
-7.40343e-06
0.000191609
-7.03506e-06
0.000197971
-4.74782e-06
0.00019078
6.86484e-06
0.000174216
7.29502e-06
8.82949e-05
1.6847e-06
4.8126e-05
2.93878e-05
3.98228e-07
1.65884e-05
7.47564e-07
1.59102e-05
9.79954e-07
1.54747e-05
1.04467e-06
1.5219e-05
9.18071e-07
1.51651e-05
5.9018e-07
1.52872e-05
5.60602e-08
1.55267e-05
-6.8745e-07
1.58187e-05
-1.64521e-06
1.60814e-05
-2.79154e-06
1.61891e-05
-4.01658e-06
1.59611e-05
-5.08531e-06
1.52544e-05
-5.52319e-06
1.39443e-05
-5.00822e-06
1.26221e-05
-3.69958e-06
1.23789e-05
-1.9037e-06
1.41085e-05
-8.5868e-08
1.8554e-05
1.11107e-06
2.53914e-05
1.8738e-06
3.24765e-05
-4.739e-06
4.96413e-05
-2.04782e-05
7.09471e-05
-3.42824e-05
8.56906e-05
-3.80197e-05
0.000127779
-2.42027e-05
0.000177889
-1.2613e-05
0.000186473
3.54646e-06
0.000174706
2.66728e-05
0.000151168
2.37191e-05
9.12976e-05
1.06734e-05
6.12033e-05
4.00825e-05
2.58783e-07
1.63433e-05
4.64239e-07
1.57184e-05
5.77086e-07
1.53754e-05
5.69153e-07
1.52404e-05
4.27019e-07
1.53206e-05
1.37498e-07
1.55899e-05
-3.22089e-07
1.59995e-05
-9.74986e-07
1.64848e-05
-1.92334e-06
1.70431e-05
-3.20926e-06
1.74885e-05
-4.83353e-06
1.7599e-05
-6.55622e-06
1.69909e-05
-7.86451e-06
1.52664e-05
-7.48566e-06
1.22569e-05
-5.80309e-06
1.07108e-05
-3.26301e-06
1.15846e-05
-2.45945e-07
1.55561e-05
2.91348e-06
2.22544e-05
5.73953e-06
2.96763e-05
-7.19396e-06
6.26117e-05
-3.19415e-05
9.57514e-05
-4.96519e-05
0.000103464
-4.94512e-05
0.000127665
-3.03639e-05
0.000158908
-8.85507e-06
0.000165062
1.26912e-05
0.00015325
3.63093e-05
0.000127635
3.51376e-05
9.25262e-05
1.93097e-05
7.70702e-05
5.94189e-05
1.29972e-07
1.62272e-05
1.88477e-07
1.56737e-05
1.63176e-07
1.54144e-05
4.33222e-08
1.53737e-05
-1.70589e-07
1.55478e-05
-4.80002e-07
1.59125e-05
-8.97481e-07
1.64301e-05
-1.49887e-06
1.70992e-05
-2.33933e-06
1.78966e-05
-3.59973e-06
1.87622e-05
-5.45096e-06
1.94638e-05
-7.87717e-06
1.94308e-05
-1.01397e-05
1.75429e-05
-1.10128e-05
1.31439e-05
-9.14757e-06
8.85938e-06
-6.04185e-06
8.49505e-06
-1.76895e-06
1.13024e-05
3.20667e-06
1.73022e-05
-4.0042e-06
3.69149e-05
-3.04756e-05
8.91254e-05
-5.15395e-05
0.000116869
-6.32577e-05
0.000115245
-5.747e-05
0.000121957
-3.37873e-05
0.000135311
-7.06837e-06
0.000138427
1.45026e-05
0.000131758