/*--------------------------------*- C++ -*----------------------------------*\
| =========                 |                                                 |
| \\      /  F ield         | OpenFOAM: The Open Source CFD Toolbox           |
|  \\    /   O peration     | Version:  2.3.0                                 |
|   \\  /    A nd           | Web:      www.OpenFOAM.org                      |
|    \\/     M anipulation  |                                                 |
\*---------------------------------------------------------------------------*/
FoamFile
{
    version     2.0;
    format      ascii;
    class       volVectorField;
    location    "1.7";
    object      U.particlesMean;
}
// * * * * * * * * * * * * * * * * * * * * * * * * * * * * * * * * * * * * * //

dimensions      [0 1 -1 0 0 0 0];

internalField   nonuniform List<vector> 
6000
(
(-0.00457877 -0.320823 0)
(0.00262705 -0.345054 0)
(0.0226796 -0.341595 0)
(0.0342892 -0.352466 0)
(0.0367846 -0.36863 0)
(0.0343844 -0.40193 0)
(0.0234063 -0.417913 0)
(0.00558165 -0.423511 0)
(-0.00236937 -0.419984 0)
(-0.00829486 -0.421088 0)
(-0.0150574 -0.426834 0)
(-0.0144787 -0.429679 0)
(-0.0340527 -0.420225 0)
(-0.0635799 -0.398965 0)
(-0.0744879 -0.380101 0)
(-0.0674543 -0.375783 0)
(-0.0575596 -0.373168 0)
(-0.0426977 -0.378299 0)
(-0.0389457 -0.384009 0)
(-0.0341216 -0.378316 0)
(-0.0255635 -0.370257 0)
(-0.02024 -0.364794 0)
(-0.0164575 -0.365644 0)
(-0.0106088 -0.357903 0)
(-0.00652148 -0.349941 0)
(-0.0103458 -0.345901 0)
(-0.00958043 -0.353101 0)
(-0.00485952 -0.367233 0)
(-0.00879263 -0.370771 0)
(-0.00049693 -0.311871 0)
(0.0113286 0.00224947 0)
(0.020609 0.0183838 0)
(0.038274 0.0149814 0)
(0.0474772 0.0131753 0)
(0.0480315 0.0152743 0)
(0.0470181 0.0160891 0)
(0.0395733 0.0102816 0)
(0.0197866 0.00801698 0)
(0.00942536 0.0162899 0)
(-0.00684178 0.017043 0)
(-0.0270786 0.0170519 0)
(-0.0436001 0.0160099 0)
(-0.0656903 -0.000315874 0)
(-0.0801685 -0.00143249 0)
(-0.0802688 -0.000128958 0)
(-0.0766198 -0.00310065 0)
(-0.0719751 0.00302925 0)
(-0.0639231 0.015209 0)
(-0.0542022 0.00406529 0)
(-0.0459729 0.0148668 0)
(-0.0322759 0.0223173 0)
(-0.0220911 0.0199078 0)
(-0.00875239 0.0238255 0)
(0.000537071 0.0232788 0)
(-0.00321489 0.0264834 0)
(-0.013223 0.017428 0)
(-0.017999 0.00675371 0)
(-0.0188363 0.00852393 0)
(-0.0146084 0.0259941 0)
(-0.0160128 -0.00399774 0)
(-0.00534271 -0.0504953 0)
(0.0195633 -0.0855116 0)
(0.0322559 -0.0909948 0)
(0.0396323 -0.0751968 0)
(0.0410477 -0.061412 0)
(0.0368972 -0.0521224 0)
(0.034773 -0.0496964 0)
(0.0247566 -0.0411104 0)
(0.0159872 -0.0351313 0)
(-0.00201632 -0.0332223 0)
(-0.0264421 -0.0270498 0)
(-0.0467659 -0.0265998 0)
(-0.0637019 -0.0356338 0)
(-0.0707155 -0.0422163 0)
(-0.0661421 -0.0621259 0)
(-0.0667566 -0.0688111 0)
(-0.0691278 -0.0687564 0)
(-0.0677533 -0.0686366 0)
(-0.0566233 -0.0793196 0)
(-0.0431291 -0.0853261 0)
(-0.0273979 -0.0898381 0)
(-0.0138518 -0.0817651 0)
(-0.00217117 -0.080658 0)
(0.00711574 -0.0810104 0)
(0.00472117 -0.0651087 0)
(0.00146719 -0.0636818 0)
(-0.00397274 -0.0729734 0)
(-0.00573226 -0.0704033 0)
(-0.00290756 -0.0542028 0)
(0.00699853 -0.0640865 0)
(0.000183494 -0.0632255 0)
(0.0201533 -0.0952225 0)
(0.0199077 -0.0945487 0)
(0.0317768 -0.0790654 0)
(0.0354245 -0.0614305 0)
(0.0354014 -0.0520432 0)
(0.0339397 -0.0420775 0)
(0.0289303 -0.0299853 0)
(0.0221573 -0.0198116 0)
(0.00103099 -0.0172911 0)
(-0.023906 -0.0141403 0)
(-0.0442077 -0.0160523 0)
(-0.0597932 -0.0312512 0)
(-0.0598671 -0.0454529 0)
(-0.0565144 -0.0653685 0)
(-0.059374 -0.0700731 0)
(-0.0635585 -0.071721 0)
(-0.0643415 -0.0727778 0)
(-0.055329 -0.0831983 0)
(-0.0387504 -0.0916282 0)
(-0.025399 -0.0954017 0)
(-0.0179094 -0.0907346 0)
(-0.0126642 -0.0929323 0)
(-0.00246809 -0.091302 0)
(0.00406349 -0.0765465 0)
(0.0135729 -0.0742632 0)
(0.0116386 -0.0776648 0)
(0.00105547 -0.0745103 0)
(0.00372984 -0.0557057 0)
(0.0121439 -0.0604444 0)
(0.00799868 -0.0913505 0)
(0.0168297 -0.119899 0)
(0.0168651 -0.120388 0)
(0.0224094 -0.0956126 0)
(0.0231789 -0.0726632 0)
(0.0220933 -0.061371 0)
(0.0230656 -0.0502311 0)
(0.0206639 -0.0334925 0)
(0.0149635 -0.0202346 0)
(-0.00500839 -0.0156232 0)
(-0.027111 -0.0133886 0)
(-0.0451605 -0.0219926 0)
(-0.0588704 -0.0419027 0)
(-0.0519888 -0.0636979 0)
(-0.049034 -0.0806146 0)
(-0.0538916 -0.0825434 0)
(-0.0567443 -0.0878124 0)
(-0.0574099 -0.0898898 0)
(-0.0492303 -0.108592 0)
(-0.0325838 -0.126536 0)
(-0.0223904 -0.127588 0)
(-0.0174712 -0.117073 0)
(-0.0148775 -0.113607 0)
(-0.00801428 -0.104118 0)
(0.00525681 -0.0912167 0)
(0.0165356 -0.0931389 0)
(0.0154125 -0.0959383 0)
(0.001476 -0.0951358 0)
(0.00646874 -0.0702261 0)
(0.0117793 -0.0681708 0)
(0.007864 -0.107865 0)
(0.0209541 -0.127057 0)
(0.0123895 -0.12276 0)
(0.0176645 -0.100408 0)
(0.0136907 -0.0766267 0)
(0.00913145 -0.0642797 0)
(0.00913623 -0.0526159 0)
(0.00684618 -0.0383227 0)
(-0.000694902 -0.0193272 0)
(-0.0177118 -0.0141323 0)
(-0.0356925 -0.0137806 0)
(-0.0501677 -0.019808 0)
(-0.059098 -0.0420238 0)
(-0.0435538 -0.067138 0)
(-0.0370167 -0.0832666 0)
(-0.0380511 -0.0906875 0)
(-0.0424122 -0.0934951 0)
(-0.043285 -0.0988328 0)
(-0.0344038 -0.125302 0)
(-0.0227411 -0.143224 0)
(-0.0166765 -0.142737 0)
(-0.0129738 -0.128156 0)
(-0.0113038 -0.11518 0)
(-0.00657513 -0.102045 0)
(0.0083448 -0.0950004 0)
(0.0184765 -0.097143 0)
(0.0117385 -0.0989929 0)
(-0.00137349 -0.100324 0)
(0.00594651 -0.0729095 0)
(0.0104684 -0.0659077 0)
(0.0055946 -0.118024 0)
(0.0203899 -0.131918 0)
(0.0189075 -0.124716 0)
(0.0182498 -0.102054 0)
(0.0212667 -0.077181 0)
(0.00904245 -0.0618339 0)
(0.000508012 -0.0485202 0)
(-0.00601269 -0.0334734 0)
(-0.016812 -0.0163905 0)
(-0.0301061 -0.0121909 0)
(-0.0466946 -0.0132292 0)
(-0.055873 -0.0163477 0)
(-0.0577791 -0.0389528 0)
(-0.038711 -0.0658825 0)
(-0.0329596 -0.0812618 0)
(-0.0325002 -0.0977795 0)
(-0.0316971 -0.107492 0)
(-0.0283648 -0.117992 0)
(-0.0210861 -0.139954 0)
(-0.0138972 -0.152833 0)
(-0.00948899 -0.14771 0)
(-0.0072545 -0.129918 0)
(-0.00688152 -0.11647 0)
(-0.00169915 -0.104907 0)
(0.00812383 -0.0972063 0)
(0.013672 -0.0965131 0)
(0.00511336 -0.0961912 0)
(-0.00718492 -0.0969511 0)
(-0.00336317 -0.0711129 0)
(0.00601191 -0.0625769 0)
(0.00664376 -0.122184 0)
(0.0172544 -0.131303 0)
(0.0145231 -0.12087 0)
(0.0205882 -0.102244 0)
(0.0200319 -0.0731705 0)
(0.0107504 -0.050808 0)
(-0.00694773 -0.0335138 0)
(-0.0192065 -0.0217551 0)
(-0.0318217 -0.00829837 0)
(-0.0425951 -0.0057203 0)
(-0.0564499 -0.010598 0)
(-0.0595615 -0.0169371 0)
(-0.0558208 -0.0344778 0)
(-0.0386599 -0.0624096 0)
(-0.0301109 -0.0796959 0)
(-0.0280532 -0.0976795 0)
(-0.0251903 -0.116361 0)
(-0.0168051 -0.131922 0)
(-0.00692255 -0.145685 0)
(-0.00626289 -0.152651 0)
(-0.00332146 -0.145313 0)
(-0.000427208 -0.128089 0)
(0.000281726 -0.113539 0)
(-0.000187189 -0.101033 0)
(0.00108807 -0.092386 0)
(0.00240913 -0.0918071 0)
(-0.00437701 -0.0897216 0)
(-0.0146318 -0.0879774 0)
(-0.0123427 -0.0679713 0)
(0.0017041 -0.0646341 0)
(0.00527872 -0.119815 0)
(0.013192 -0.128002 0)
(0.00839882 -0.111137 0)
(0.0158757 -0.0909047 0)
(0.0179441 -0.0604926 0)
(0.00091456 -0.0318643 0)
(-0.0140617 -0.0137033 0)
(-0.0338459 -0.00746472 0)
(-0.0457415 -0.00196693 0)
(-0.0537993 -0.00305817 0)
(-0.0637216 -0.0104467 0)
(-0.0600031 -0.0179391 0)
(-0.0538104 -0.0368875 0)
(-0.0345895 -0.0639579 0)
(-0.0272554 -0.0811101 0)
(-0.0232525 -0.099377 0)
(-0.0208646 -0.116515 0)
(-0.0128996 -0.132521 0)
(-0.000681583 -0.146779 0)
(-0.000142525 -0.154014 0)
(0.00029914 -0.144167 0)
(0.00292932 -0.12284 0)
(0.000430241 -0.10546 0)
(-0.00768202 -0.0939587 0)
(-0.00961353 -0.0869289 0)
(-0.0119483 -0.0874158 0)
(-0.0171423 -0.0834825 0)
(-0.0245895 -0.0797504 0)
(-0.0181068 -0.0656487 0)
(3.7574e-05 -0.0707429 0)
(0.00301349 -0.11531 0)
(0.0102445 -0.121091 0)
(0.00461203 -0.100998 0)
(0.0089477 -0.074292 0)
(0.0123599 -0.0462549 0)
(-0.00123217 -0.0198574 0)
(-0.0179659 -0.0042221 0)
(-0.042875 0.000504952 0)
(-0.0528354 0.00265338 0)
(-0.0597071 0.00105529 0)
(-0.0649431 -0.0105759 0)
(-0.0598315 -0.0212851 0)
(-0.048357 -0.0422642 0)
(-0.0287445 -0.0664304 0)
(-0.0212434 -0.0807065 0)
(-0.0197989 -0.097604 0)
(-0.016723 -0.114 0)
(-0.00768535 -0.132426 0)
(0.00191222 -0.14823 0)
(0.00063609 -0.154588 0)
(-0.0019651 -0.142512 0)
(-0.0061495 -0.117082 0)
(-0.011047 -0.0986299 0)
(-0.0183006 -0.0834595 0)
(-0.0237013 -0.0773257 0)
(-0.0263755 -0.0792575 0)
(-0.0313349 -0.0764501 0)
(-0.0309575 -0.0709596 0)
(-0.0204063 -0.0636551 0)
(-0.00374858 -0.0724833 0)
(0.00159179 -0.109708 0)
(0.00828101 -0.117323 0)
(0.00154359 -0.0974449 0)
(0.00590029 -0.0708583 0)
(0.0141273 -0.04159 0)
(-0.000759111 -0.0132773 0)
(-0.0179686 0.00514921 0)
(-0.0381314 0.0069917 0)
(-0.0497316 0.00700443 0)
(-0.0562104 0.00283899 0)
(-0.0606833 -0.00969343 0)
(-0.0550606 -0.0244919 0)
(-0.0414197 -0.0466612 0)
(-0.0246693 -0.0689116 0)
(-0.0162496 -0.0799833 0)
(-0.015657 -0.0965709 0)
(-0.0117953 -0.112675 0)
(-0.00200328 -0.128605 0)
(0.000127688 -0.146992 0)
(-0.00666719 -0.151074 0)
(-0.0184401 -0.136052 0)
(-0.0282808 -0.109472 0)
(-0.0287498 -0.0866725 0)
(-0.033074 -0.071818 0)
(-0.0361822 -0.0682206 0)
(-0.0392589 -0.0717131 0)
(-0.0416132 -0.0706045 0)
(-0.0342492 -0.0692207 0)
(-0.0232406 -0.0648249 0)
(-0.00739349 -0.0734899 0)
(0.00433042 -0.106987 0)
(0.00827463 -0.115497 0)
(3.07476e-05 -0.0962581 0)
(0.00985853 -0.0760889 0)
(0.0142615 -0.0446885 0)
(0.00451062 -0.0126018 0)
(-0.0108119 0.00703285 0)
(-0.0244018 0.00941655 0)
(-0.0405178 0.0103557 0)
(-0.0426464 0.00755605 0)
(-0.0502616 -0.0054018 0)
(-0.0476936 -0.0241216 0)
(-0.0317836 -0.0437689 0)
(-0.0204986 -0.0652111 0)
(-0.0138801 -0.0805231 0)
(-0.0123327 -0.0984725 0)
(-0.0065554 -0.113113 0)
(-0.000218217 -0.125663 0)
(-0.00124763 -0.142632 0)
(-0.0178304 -0.144014 0)
(-0.0375262 -0.128211 0)
(-0.0418116 -0.105301 0)
(-0.0444375 -0.0801093 0)
(-0.0472148 -0.0643817 0)
(-0.0491834 -0.0604643 0)
(-0.0497707 -0.0606107 0)
(-0.0485913 -0.0621591 0)
(-0.0355105 -0.0651991 0)
(-0.0240687 -0.0664579 0)
(-0.00799405 -0.0798059 0)
(0.00543861 -0.108412 0)
(0.00794307 -0.116491 0)
(0.000572466 -0.0987029 0)
(0.0117786 -0.0782312 0)
(0.0141043 -0.0504092 0)
(0.0124199 -0.0151174 0)
(0.000698471 0.00743094 0)
(-0.0107494 0.0147699 0)
(-0.0299668 0.0152933 0)
(-0.031053 0.0110538 0)
(-0.0334855 -0.000835507 0)
(-0.0372579 -0.0222739 0)
(-0.0247268 -0.0405525 0)
(-0.0161659 -0.0630074 0)
(-0.0119249 -0.0850227 0)
(-0.00851135 -0.10158 0)
(-0.00311194 -0.111166 0)
(-0.00153669 -0.123042 0)
(-0.00468702 -0.136043 0)
(-0.0293575 -0.137803 0)
(-0.0438245 -0.125563 0)
(-0.0504133 -0.102213 0)
(-0.0546698 -0.0762236 0)
(-0.0578859 -0.0579485 0)
(-0.0597339 -0.0528771 0)
(-0.0570304 -0.0509706 0)
(-0.0521473 -0.055096 0)
(-0.037662 -0.0614139 0)
(-0.0282953 -0.0665362 0)
(-0.00553044 -0.0889661 0)
(0.00610402 -0.108953 0)
(0.0067037 -0.117786 0)
(0.0011793 -0.102693 0)
(0.0130442 -0.0828466 0)
(0.0182002 -0.0558396 0)
(0.0218354 -0.0210608 0)
(0.0126397 0.00754508 0)
(0.00447273 0.0207789 0)
(-0.00852262 0.0206121 0)
(-0.0186169 0.0184478 0)
(-0.0185323 0.00561257 0)
(-0.0249374 -0.0143366 0)
(-0.018876 -0.0351933 0)
(-0.0147337 -0.0585732 0)
(-0.0128005 -0.0856259 0)
(-0.00811452 -0.101691 0)
(-0.00571754 -0.10941 0)
(-0.00258962 -0.118387 0)
(-0.012204 -0.127438 0)
(-0.0312043 -0.132274 0)
(-0.0450355 -0.121755 0)
(-0.0540957 -0.0978244 0)
(-0.0609859 -0.0713821 0)
(-0.0679522 -0.0532876 0)
(-0.0684358 -0.0479751 0)
(-0.0628063 -0.0478881 0)
(-0.0531566 -0.0541255 0)
(-0.0386623 -0.0618165 0)
(-0.0301794 -0.0777558 0)
(-0.00617567 -0.102673 0)
(0.00872813 -0.110995 0)
(0.0075707 -0.120308 0)
(0.00251118 -0.107366 0)
(0.0153621 -0.0878273 0)
(0.025507 -0.0597873 0)
(0.0322188 -0.027242 0)
(0.0281478 0.00231119 0)
(0.0185995 0.0213973 0)
(0.0114259 0.0263479 0)
(-0.00344688 0.023537 0)
(-0.00739983 0.00809781 0)
(-0.0108097 -0.0114485 0)
(-0.0153169 -0.0319025 0)
(-0.0129639 -0.0532294 0)
(-0.0136629 -0.0859539 0)
(-0.0109001 -0.100102 0)
(-0.00586535 -0.107249 0)
(-0.00448243 -0.113502 0)
(-0.0149653 -0.122354 0)
(-0.0291221 -0.127281 0)
(-0.0440234 -0.115944 0)
(-0.0547041 -0.0941995 0)
(-0.0652654 -0.069277 0)
(-0.0746674 -0.0548709 0)
(-0.0751908 -0.0526162 0)
(-0.0669365 -0.0541903 0)
(-0.0553673 -0.0628712 0)
(-0.0389132 -0.0749281 0)
(-0.0268686 -0.0992528 0)
(-0.00341396 -0.12145 0)
(0.0104651 -0.112563 0)
(0.00684741 -0.122109 0)
(0.00304264 -0.111422 0)
(0.0181325 -0.0930114 0)
(0.0319041 -0.0618203 0)
(0.046049 -0.0351778 0)
(0.0486615 -0.00409643 0)
(0.039351 0.0154648 0)
(0.0321219 0.0251436 0)
(0.0179807 0.0316824 0)
(0.00718208 0.0143391 0)
(0.00361139 -0.00762778 0)
(-0.00787542 -0.0256309 0)
(-0.00986555 -0.0465143 0)
(-0.0104835 -0.0791268 0)
(-0.0134886 -0.0933603 0)
(-0.00725012 -0.102248 0)
(-0.0104643 -0.107832 0)
(-0.014525 -0.117086 0)
(-0.0270485 -0.122785 0)
(-0.0415844 -0.113725 0)
(-0.0529156 -0.0971208 0)
(-0.0648663 -0.0752482 0)
(-0.076228 -0.0638948 0)
(-0.0751707 -0.068083 0)
(-0.0646269 -0.0755779 0)
(-0.0514972 -0.0909941 0)
(-0.0353711 -0.105828 0)
(-0.0228435 -0.132064 0)
(-0.00195945 -0.149122 0)
(0.00767712 -0.116944 0)
(0.00151321 -0.126297 0)
(0.00356852 -0.11731 0)
(0.0188451 -0.0973316 0)
(0.0350337 -0.0652593 0)
(0.0529997 -0.0409353 0)
(0.0635776 -0.0077669 0)
(0.0600571 0.0111446 0)
(0.0480796 0.0214335 0)
(0.0371531 0.0286348 0)
(0.0285876 0.0187049 0)
(0.0176193 -0.00244632 0)
(0.00716013 -0.0189314 0)
(-0.00208962 -0.0380376 0)
(-0.00501741 -0.0670882 0)
(-0.0129547 -0.0828656 0)
(-0.00993608 -0.0951347 0)
(-0.0128096 -0.103135 0)
(-0.0140514 -0.111207 0)
(-0.0251762 -0.11632 0)
(-0.0399588 -0.110919 0)
(-0.0536394 -0.0944919 0)
(-0.0684378 -0.0765855 0)
(-0.0715055 -0.0693032 0)
(-0.0663647 -0.078627 0)
(-0.0570791 -0.0866676 0)
(-0.0441871 -0.105409 0)
(-0.029369 -0.123188 0)
(-0.0164398 -0.150471 0)
(-0.00315314 -0.1665 0)
(-0.00073242 -0.123712 0)
(0.00013921 -0.131609 0)
(0.00690235 -0.125431 0)
(0.0211275 -0.104963 0)
(0.0357854 -0.072192 0)
(0.053351 -0.0467854 0)
(0.0701101 -0.00816645 0)
(0.0725832 0.0146083 0)
(0.0586055 0.0234306 0)
(0.0511423 0.0278083 0)
(0.044847 0.0213021 0)
(0.0368056 0.00393381 0)
(0.0217419 -0.00981961 0)
(0.0100249 -0.027181 0)
(0.00153267 -0.0494325 0)
(-0.00979046 -0.0683162 0)
(-0.0101827 -0.0846005 0)
(-0.013583 -0.0946571 0)
(-0.0133643 -0.102451 0)
(-0.020348 -0.107656 0)
(-0.0393925 -0.100255 0)
(-0.0575989 -0.0856226 0)
(-0.0726475 -0.068136 0)
(-0.0658342 -0.0602727 0)
(-0.0566108 -0.0750775 0)
(-0.0494378 -0.0848285 0)
(-0.0358471 -0.107539 0)
(-0.0239059 -0.130777 0)
(-0.0113295 -0.158233 0)
(-0.00157392 -0.175614 0)
(-0.00118911 -0.125931 0)
(0.00320632 -0.131158 0)
(0.0111115 -0.128448 0)
(0.0232277 -0.109722 0)
(0.0333039 -0.0818892 0)
(0.0528957 -0.0612634 0)
(0.0700279 -0.0285407 0)
(0.080547 0.0108967 0)
(0.0751908 0.0274643 0)
(0.0634507 0.0307104 0)
(0.0575871 0.0271847 0)
(0.0505506 0.0119726 0)
(0.0357959 -0.00230592 0)
(0.0211004 -0.0147849 0)
(0.00768569 -0.0308943 0)
(-0.0058803 -0.0531021 0)
(-0.00744797 -0.0706256 0)
(-0.012072 -0.0857677 0)
(-0.0132585 -0.0918282 0)
(-0.020353 -0.0970697 0)
(-0.0371883 -0.091352 0)
(-0.0581353 -0.0751551 0)
(-0.0709149 -0.0598924 0)
(-0.0591919 -0.0549053 0)
(-0.0487928 -0.073261 0)
(-0.0394415 -0.0840131 0)
(-0.0263351 -0.106811 0)
(-0.0183992 -0.132097 0)
(-0.00493442 -0.159762 0)
(0.00273144 -0.179386 0)
(0.00283661 -0.121141 0)
(0.00681575 -0.125102 0)
(0.0114848 -0.125209 0)
(0.0265242 -0.112625 0)
(0.0389424 -0.0846115 0)
(0.0603117 -0.0655019 0)
(0.0724551 -0.0367744 0)
(0.0877381 -0.000943698 0)
(0.0879107 0.0306381 0)
(0.0770548 0.0343065 0)
(0.0672271 0.0322936 0)
(0.0621083 0.0208705 0)
(0.0501811 0.00383622 0)
(0.0286494 -0.000402644 0)
(0.0163311 -0.0170797 0)
(0.000947318 -0.0382405 0)
(-0.00246094 -0.0574815 0)
(-0.00906413 -0.0761544 0)
(-0.0147805 -0.0809602 0)
(-0.0261351 -0.0868766 0)
(-0.0385232 -0.0827373 0)
(-0.0555821 -0.0668501 0)
(-0.0641367 -0.0547907 0)
(-0.048492 -0.0537372 0)
(-0.0391421 -0.076375 0)
(-0.0303341 -0.0897083 0)
(-0.018777 -0.110496 0)
(-0.0125882 -0.131498 0)
(0.00044536 -0.158668 0)
(0.00900281 -0.183039 0)
(0.00628444 -0.115184 0)
(0.00996112 -0.117684 0)
(0.0205781 -0.12118 0)
(0.0332435 -0.114244 0)
(0.0441336 -0.0892345 0)
(0.0626945 -0.0687137 0)
(0.0763015 -0.0393051 0)
(0.0886675 -0.00910744 0)
(0.0935524 0.026679 0)
(0.0871489 0.0369807 0)
(0.0763665 0.0357263 0)
(0.0692218 0.0305898 0)
(0.0606503 0.0137883 0)
(0.0382506 0.00956125 0)
(0.0217984 -0.00314716 0)
(0.00929016 -0.0255243 0)
(0.00317628 -0.0460854 0)
(-0.00692528 -0.0673671 0)
(-0.0205454 -0.0732651 0)
(-0.0312828 -0.0763379 0)
(-0.042814 -0.0736365 0)
(-0.0528547 -0.060492 0)
(-0.0560309 -0.0525863 0)
(-0.0388196 -0.0593118 0)
(-0.0325612 -0.0842947 0)
(-0.0219216 -0.0969243 0)
(-0.0124544 -0.116863 0)
(-0.00681252 -0.1339 0)
(0.00410491 -0.158645 0)
(0.0142726 -0.181591 0)
(0.00907737 -0.115483 0)
(0.0185545 -0.118704 0)
(0.0300369 -0.119486 0)
(0.0417151 -0.116776 0)
(0.0496389 -0.0931724 0)
(0.0650584 -0.0676634 0)
(0.0786575 -0.0432167 0)
(0.0903436 -0.0133228 0)
(0.0949654 0.0238065 0)
(0.0935991 0.0396214 0)
(0.0818552 0.0424833 0)
(0.0731238 0.0396983 0)
(0.0669877 0.0262038 0)
(0.0487866 0.0178661 0)
(0.0268463 0.00628524 0)
(0.0141751 -0.0133855 0)
(0.0075552 -0.0384413 0)
(-0.00993813 -0.0635251 0)
(-0.0247489 -0.0655287 0)
(-0.0372586 -0.0666433 0)
(-0.0464092 -0.0652342 0)
(-0.049997 -0.0535697 0)
(-0.0481681 -0.049437 0)
(-0.0329125 -0.0618045 0)
(-0.0286398 -0.093145 0)
(-0.0156212 -0.105154 0)
(-0.00901051 -0.121595 0)
(-0.00370332 -0.134699 0)
(0.0054347 -0.155035 0)
(0.0133231 -0.176483 0)
(0.00934745 -0.1181 0)
(0.0203785 -0.125472 0)
(0.0329982 -0.124433 0)
(0.0467525 -0.11875 0)
(0.0532974 -0.0944675 0)
(0.0669261 -0.0658951 0)
(0.0786464 -0.0436469 0)
(0.091135 -0.0182605 0)
(0.0963844 0.0231976 0)
(0.0974704 0.0424738 0)
(0.0866288 0.0491773 0)
(0.0749573 0.047791 0)
(0.0686907 0.0365223 0)
(0.057791 0.0235974 0)
(0.0291621 0.0107505 0)
(0.0160915 -0.00551006 0)
(0.0078176 -0.0339901 0)
(-0.00952604 -0.0569967 0)
(-0.026298 -0.0585316 0)
(-0.0356528 -0.0579496 0)
(-0.0453045 -0.0571026 0)
(-0.0475527 -0.0479098 0)
(-0.0424068 -0.0463618 0)
(-0.0297068 -0.0606159 0)
(-0.0249787 -0.0963103 0)
(-0.00942521 -0.11231 0)
(-0.00688875 -0.124931 0)
(-0.00356619 -0.134232 0)
(0.00368238 -0.156997 0)
(0.0115591 -0.169692 0)
(0.00792315 -0.121268 0)
(0.0211037 -0.13432 0)
(0.0337904 -0.131606 0)
(0.0481041 -0.123037 0)
(0.0540102 -0.0972917 0)
(0.0650835 -0.0651201 0)
(0.0755701 -0.0473786 0)
(0.0842054 -0.0188412 0)
(0.092828 0.0220686 0)
(0.0967383 0.0443851 0)
(0.0891242 0.0532537 0)
(0.0804716 0.0547471 0)
(0.0698228 0.0472257 0)
(0.0591316 0.0331939 0)
(0.0365138 0.0112958 0)
(0.0167701 -0.00193011 0)
(0.00817306 -0.0255785 0)
(-0.00923649 -0.0488116 0)
(-0.022429 -0.0541611 0)
(-0.0301163 -0.0519336 0)
(-0.040962 -0.0501107 0)
(-0.0446273 -0.0417596 0)
(-0.0396481 -0.0449606 0)
(-0.0259012 -0.0624613 0)
(-0.0207907 -0.101162 0)
(-0.00886677 -0.116061 0)
(-0.00541149 -0.122947 0)
(-0.00109829 -0.131696 0)
(0.0020413 -0.158004 0)
(0.00816204 -0.162394 0)
(0.00701754 -0.121919 0)
(0.0234696 -0.137598 0)
(0.0375938 -0.139275 0)
(0.0491126 -0.12927 0)
(0.0510655 -0.102664 0)
(0.0578014 -0.0691143 0)
(0.0675489 -0.0465362 0)
(0.0734712 -0.0175224 0)
(0.0866293 0.0189457 0)
(0.0929974 0.0440145 0)
(0.0886352 0.0562246 0)
(0.0806388 0.059433 0)
(0.0679544 0.0550591 0)
(0.0597531 0.0400078 0)
(0.037562 0.0156138 0)
(0.0201267 0.00169737 0)
(0.0107954 -0.0156448 0)
(-0.00337234 -0.0434461 0)
(-0.0157075 -0.0511722 0)
(-0.0252635 -0.0494737 0)
(-0.0353579 -0.0456031 0)
(-0.0385769 -0.0368514 0)
(-0.0367453 -0.0456824 0)
(-0.0229884 -0.0744099 0)
(-0.0191347 -0.107935 0)
(-0.00920115 -0.118501 0)
(-0.00376 -0.123317 0)
(0.00215586 -0.135924 0)
(0.00219597 -0.162663 0)
(0.00754117 -0.157255 0)
(0.00864643 -0.123352 0)
(0.029634 -0.140612 0)
(0.0419176 -0.142617 0)
(0.0487866 -0.133577 0)
(0.0477124 -0.10924 0)
(0.0480608 -0.0726858 0)
(0.0582158 -0.0445299 0)
(0.0639283 -0.0136492 0)
(0.077239 0.0160831 0)
(0.0855584 0.0428056 0)
(0.0837392 0.0575542 0)
(0.0760684 0.062457 0)
(0.0652748 0.0586072 0)
(0.0571344 0.0454212 0)
(0.0354435 0.0203945 0)
(0.0295782 0.00838517 0)
(0.0165641 -0.0106509 0)
(0.00295957 -0.0395556 0)
(-0.0106808 -0.049556 0)
(-0.0225391 -0.0493533 0)
(-0.0295006 -0.0473308 0)
(-0.0315959 -0.0378456 0)
(-0.0302588 -0.0502773 0)
(-0.0194864 -0.0842801 0)
(-0.014786 -0.114286 0)
(-0.00512212 -0.127587 0)
(2.83108e-05 -0.131226 0)
(0.00573433 -0.148947 0)
(0.00264731 -0.165941 0)
(0.00678272 -0.151695 0)
(0.0109841 -0.125446 0)
(0.032064 -0.144734 0)
(0.0435024 -0.143946 0)
(0.0461127 -0.135737 0)
(0.040479 -0.11194 0)
(0.0369452 -0.0749527 0)
(0.0438507 -0.0407116 0)
(0.0532484 -0.0099167 0)
(0.0627432 0.0170763 0)
(0.0739534 0.04235 0)
(0.0737364 0.0582592 0)
(0.0672403 0.0631608 0)
(0.0596519 0.0609174 0)
(0.0505768 0.0466394 0)
(0.0353972 0.0255767 0)
(0.0353373 0.0143296 0)
(0.0186183 -0.00820025 0)
(-0.000923255 -0.0397825 0)
(-0.00989454 -0.0523413 0)
(-0.0184857 -0.0557281 0)
(-0.0230722 -0.0530384 0)
(-0.0248141 -0.0432316 0)
(-0.0228659 -0.0533682 0)
(-0.0123079 -0.0829693 0)
(-0.0038205 -0.117476 0)
(0.00313413 -0.140452 0)
(0.00767809 -0.148149 0)
(0.0109402 -0.164151 0)
(0.00507013 -0.178796 0)
(0.00429229 -0.153311 0)
(0.0105853 -0.135202 0)
(0.0313344 -0.151612 0)
(0.0398804 -0.144807 0)
(0.0398557 -0.136172 0)
(0.0299087 -0.112532 0)
(0.0225515 -0.0761466 0)
(0.0279185 -0.0361946 0)
(0.0406813 -0.0100061 0)
(0.0489234 0.0204333 0)
(0.0596182 0.0420005 0)
(0.0578495 0.0564409 0)
(0.0556516 0.0596701 0)
(0.0510197 0.0566325 0)
(0.0404658 0.0432826 0)
(0.0302444 0.0264675 0)
(0.0326085 0.0162112 0)
(0.0187967 -0.00863611 0)
(-0.00192 -0.0408103 0)
(-0.00769617 -0.0522102 0)
(-0.0151431 -0.0534128 0)
(-0.0206645 -0.0503997 0)
(-0.0224273 -0.0436852 0)
(-0.0206671 -0.0567013 0)
(-0.0103275 -0.0847931 0)
(0.00358382 -0.114676 0)
(0.0099151 -0.14015 0)
(0.0131091 -0.149705 0)
(0.0136566 -0.164808 0)
(0.00723173 -0.177941 0)
(0.00675213 -0.160305 0)
(0.00736264 -0.147454 0)
(0.0266859 -0.162319 0)
(0.0327189 -0.148235 0)
(0.0321651 -0.135243 0)
(0.0195071 -0.112384 0)
(0.00949918 -0.0759673 0)
(0.0128098 -0.0314246 0)
(0.0250811 -0.00798068 0)
(0.0347277 0.0210473 0)
(0.0391074 0.0415701 0)
(0.0395346 0.0532738 0)
(0.0414824 0.0546567 0)
(0.0385377 0.050651 0)
(0.032838 0.0388567 0)
(0.0229799 0.0251402 0)
(0.0266352 0.0137245 0)
(0.0140971 -0.00501742 0)
(-0.0032713 -0.0380626 0)
(-0.00698743 -0.045948 0)
(-0.0147498 -0.047003 0)
(-0.0207972 -0.0442581 0)
(-0.0216636 -0.0446795 0)
(-0.0198236 -0.0629584 0)
(-0.0131685 -0.0913893 0)
(0.00564533 -0.114459 0)
(0.0138197 -0.136358 0)
(0.0168266 -0.143121 0)
(0.0162465 -0.154752 0)
(0.0088907 -0.169847 0)
(0.00806599 -0.155687 0)
(0.002431 -0.156119 0)
(0.0210381 -0.167711 0)
(0.0255741 -0.149913 0)
(0.025479 -0.134265 0)
(0.0121714 -0.114713 0)
(-0.000882027 -0.0783688 0)
(-0.000385054 -0.0337917 0)
(0.0108028 -0.00851664 0)
(0.0189609 0.0169154 0)
(0.0210211 0.0431573 0)
(0.0228553 0.0484346 0)
(0.0261469 0.0482692 0)
(0.0259304 0.0453543 0)
(0.0261418 0.038323 0)
(0.0215806 0.0222892 0)
(0.0190393 0.0111597 0)
(0.00972474 0.00257474 0)
(-0.00262598 -0.0293816 0)
(-0.00766981 -0.0373653 0)
(-0.0175136 -0.0371377 0)
(-0.0213189 -0.0395601 0)
(-0.0211899 -0.0460316 0)
(-0.0208 -0.0673703 0)
(-0.0102795 -0.0932273 0)
(0.00568427 -0.114077 0)
(0.0155123 -0.130984 0)
(0.0194488 -0.133324 0)
(0.0186567 -0.143496 0)
(0.00964313 -0.158123 0)
(0.00722225 -0.146021 0)
(-0.00437489 -0.159628 0)
(0.0151863 -0.16898 0)
(0.019475 -0.148955 0)
(0.0191206 -0.132501 0)
(0.00625021 -0.116727 0)
(-0.00777158 -0.0852569 0)
(-0.0093573 -0.0422134 0)
(0.00171414 -0.0151323 0)
(0.00637797 0.0141523 0)
(0.00908808 0.041407 0)
(0.0107999 0.050899 0)
(0.0109886 0.0431015 0)
(0.0119548 0.0402387 0)
(0.0130655 0.0307282 0)
(0.0169831 0.0177554 0)
(0.00881914 0.0124399 0)
(0.00288825 0.00780655 0)
(-0.0058122 -0.0235824 0)
(-0.0124263 -0.0256662 0)
(-0.0178332 -0.0267681 0)
(-0.0202314 -0.0347536 0)
(-0.0201691 -0.0473937 0)
(-0.0210162 -0.0683429 0)
(-0.00540775 -0.0910778 0)
(0.00795639 -0.112187 0)
(0.0159651 -0.126565 0)
(0.0201715 -0.125237 0)
(0.0187362 -0.134449 0)
(0.00890688 -0.148981 0)
(0.00584385 -0.138545 0)
(-0.00600561 -0.157571 0)
(0.0107936 -0.165043 0)
(0.012185 -0.146622 0)
(0.0116637 -0.1305 0)
(-0.0011631 -0.117446 0)
(-0.014941 -0.0902781 0)
(-0.0181991 -0.0478274 0)
(-0.00657097 -0.0172291 0)
(-0.00170782 0.0115465 0)
(0.00184751 0.037733 0)
(0.00604548 0.0499283 0)
(0.0054346 0.0476102 0)
(0.00178143 0.0357993 0)
(0.0106577 0.0258862 0)
(0.0116266 0.0157216 0)
(0.000929351 0.0152949 0)
(-0.00281986 0.0136302 0)
(-0.00926609 -0.0167477 0)
(-0.0170116 -0.0180426 0)
(-0.0205603 -0.0176384 0)
(-0.0211747 -0.0317854 0)
(-0.0195594 -0.0466718 0)
(-0.0195655 -0.0675546 0)
(-0.00298177 -0.0866434 0)
(0.00935004 -0.109122 0)
(0.0145524 -0.121613 0)
(0.0192468 -0.116917 0)
(0.0175552 -0.124185 0)
(0.00807121 -0.138491 0)
(0.005219 -0.12935 0)
(-0.00422918 -0.158142 0)
(0.00652096 -0.15821 0)
(0.00554305 -0.141435 0)
(0.0021567 -0.125441 0)
(-0.00914192 -0.115056 0)
(-0.0226831 -0.0933923 0)
(-0.0299121 -0.0495632 0)
(-0.0179434 -0.0180304 0)
(-0.00822944 0.00945523 0)
(-0.00245668 0.0346095 0)
(0.00404024 0.051056 0)
(0.00877589 0.0516801 0)
(0.00237819 0.0383074 0)
(0.0113193 0.0227727 0)
(0.00714671 0.0166913 0)
(-0.00312721 0.0183986 0)
(-0.00789805 0.0158723 0)
(-0.0159509 -0.0153752 0)
(-0.0262454 -0.0156969 0)
(-0.0262156 -0.0175216 0)
(-0.0244649 -0.0309264 0)
(-0.0206897 -0.0454216 0)
(-0.0176035 -0.0639994 0)
(-0.00155499 -0.0821669 0)
(0.00930809 -0.105035 0)
(0.0128887 -0.116526 0)
(0.0176843 -0.110568 0)
(0.0156903 -0.115476 0)
(0.00645473 -0.128629 0)
(0.00511998 -0.121278 0)
(-0.0054913 -0.15825 0)
(0.00194157 -0.151092 0)
(-0.000120287 -0.136093 0)
(-0.00735932 -0.11863 0)
(-0.0173329 -0.110383 0)
(-0.0318974 -0.0921495 0)
(-0.0419185 -0.0502613 0)
(-0.0289623 -0.0179739 0)
(-0.0138951 0.00553476 0)
(-0.00626841 0.0314585 0)
(0.00260159 0.051762 0)
(0.0100012 0.0561886 0)
(0.00547564 0.0447574 0)
(0.00806115 0.0285678 0)
(0.00341867 0.019351 0)
(-0.00528347 0.0216277 0)
(-0.0120769 0.0165987 0)
(-0.0224474 -0.0124034 0)
(-0.0319669 -0.0157651 0)
(-0.0299236 -0.0173227 0)
(-0.0268972 -0.0299402 0)
(-0.0219116 -0.0417084 0)
(-0.0146154 -0.0615921 0)
(0.000404811 -0.0774262 0)
(0.00841589 -0.100457 0)
(0.0111767 -0.109365 0)
(0.0150446 -0.103496 0)
(0.0117972 -0.107016 0)
(0.00350198 -0.11844 0)
(0.00500349 -0.112265 0)
(-0.00817935 -0.15491 0)
(-0.00122687 -0.145352 0)
(-0.00553611 -0.129699 0)
(-0.0148021 -0.112243 0)
(-0.0255165 -0.102839 0)
(-0.039946 -0.0868466 0)
(-0.0509047 -0.0490599 0)
(-0.0347144 -0.017174 0)
(-0.0167113 0.0034475 0)
(-0.00880024 0.0289053 0)
(-0.000263208 0.0501677 0)
(0.00937276 0.0549641 0)
(0.00591427 0.0472854 0)
(0.00574904 0.0319481 0)
(0.00224093 0.0252968 0)
(-0.00471095 0.0271312 0)
(-0.0148885 0.0164257 0)
(-0.0254379 -0.00861536 0)
(-0.0354689 -0.0134224 0)
(-0.0345186 -0.0162376 0)
(-0.0323764 -0.028178 0)
(-0.0265816 -0.0454347 0)
(-0.0125275 -0.0616937 0)
(0.00269884 -0.0745863 0)
(0.00954107 -0.0967804 0)
(0.0134593 -0.102744 0)
(0.0138483 -0.0939899 0)
(0.00814955 -0.097379 0)
(0.000518542 -0.110001 0)
(0.00485773 -0.107523 0)
(-0.0105553 -0.15029 0)
(-0.00344463 -0.143273 0)
(-0.0129513 -0.124772 0)
(-0.0220855 -0.106612 0)
(-0.0351707 -0.0943908 0)
(-0.0486706 -0.079515 0)
(-0.0554763 -0.0478835 0)
(-0.0374073 -0.0152383 0)
(-0.0190056 0.00464149 0)
(-0.0103195 0.0288351 0)
(-0.00279603 0.0487812 0)
(0.00504081 0.05032 0)
(0.0049971 0.0462994 0)
(0.00660554 0.0323013 0)
(0.00438349 0.0307181 0)
(-0.00289131 0.0336054 0)
(-0.0146543 0.015576 0)
(-0.0249741 -0.00293353 0)
(-0.03705 -0.0102795 0)
(-0.0389503 -0.0151041 0)
(-0.0375933 -0.033135 0)
(-0.0291586 -0.0525827 0)
(-0.0130745 -0.065403 0)
(0.00447267 -0.0743926 0)
(0.0101658 -0.0952645 0)
(0.00593357 -0.0953437 0)
(0.00676613 -0.0899505 0)
(0.00548921 -0.0923597 0)
(-7.81521e-05 -0.102365 0)
(0.00528921 -0.103866 0)
(-0.0104928 -0.144961 0)
(-0.00330629 -0.144791 0)
(-0.0128048 -0.122032 0)
(-0.0256184 -0.0998448 0)
(-0.0372758 -0.0870175 0)
(-0.0487324 -0.0757699 0)
(-0.0552356 -0.0452329 0)
(-0.0387715 -0.0141469 0)
(-0.0227049 0.00663417 0)
(-0.0104147 0.0261092 0)
(-0.00221457 0.0458194 0)
(0.00441904 0.0445161 0)
(0.00732375 0.0459973 0)
(0.00812127 0.0357689 0)
(0.00587074 0.0363378 0)
(-0.00133075 0.0379062 0)
(-0.0121513 0.0174845 0)
(-0.0227989 0.00271015 0)
(-0.0372689 -0.00536039 0)
(-0.0409187 -0.012444 0)
(-0.0380443 -0.0370469 0)
(-0.0266786 -0.0582381 0)
(-0.0110318 -0.0700872 0)
(0.00509717 -0.0766873 0)
(0.00354798 -0.0929067 0)
(-0.000958055 -0.0925054 0)
(0.00164589 -0.088947 0)
(0.00195087 -0.0899543 0)
(-0.00159022 -0.100439 0)
(0.00908862 -0.100267 0)
(-0.00979983 -0.138489 0)
(-0.00308608 -0.140276 0)
(-0.0151614 -0.115468 0)
(-0.0278656 -0.0955943 0)
(-0.0394112 -0.0833368 0)
(-0.0440708 -0.0717876 0)
(-0.0492658 -0.0401588 0)
(-0.0412377 -0.0127999 0)
(-0.0248771 0.00782224 0)
(-0.00972908 0.0263837 0)
(0.000319738 0.0425795 0)
(0.00644852 0.0418824 0)
(0.0114489 0.0453867 0)
(0.011253 0.0398226 0)
(0.00770774 0.0412785 0)
(-0.00131047 0.0409951 0)
(-0.0101754 0.0203124 0)
(-0.0181353 0.0092311 0)
(-0.0351184 -0.00152106 0)
(-0.0402593 -0.01087 0)
(-0.0354085 -0.0426795 0)
(-0.0227218 -0.0628676 0)
(-0.00912733 -0.0738398 0)
(0.00253906 -0.0791443 0)
(-0.00278512 -0.089074 0)
(-0.00533574 -0.0920741 0)
(-0.00426873 -0.0878721 0)
(-0.00173153 -0.0900085 0)
(-0.00455012 -0.0996674 0)
(0.0109001 -0.0963555 0)
(-0.00771745 -0.130764 0)
(-0.00119419 -0.134457 0)
(-0.0141257 -0.109637 0)
(-0.0267123 -0.090107 0)
(-0.0369889 -0.0782824 0)
(-0.0386603 -0.0646041 0)
(-0.0474906 -0.0342377 0)
(-0.0419737 -0.0100527 0)
(-0.0237605 0.00876806 0)
(-0.0108367 0.0241211 0)
(0.00108528 0.0404167 0)
(0.00983291 0.0440781 0)
(0.0158231 0.0517759 0)
(0.0160221 0.0464256 0)