/*--------------------------------*- C++ -*----------------------------------*\
| =========                 |                                                 |
| \\      /  F ield         | OpenFOAM: The Open Source CFD Toolbox           |
|  \\    /   O peration     | Version:  2.3.0                                 |
|   \\  /    A nd           | Web:      www.OpenFOAM.org                      |
|    \\/     M anipulation  |                                                 |
\*---------------------------------------------------------------------------*/
FoamFile
{
    version     2.0;
    format      ascii;
    class       volVectorField;
    location    "1.7";
    object      U.particles;
}
// * * * * * * * * * * * * * * * * * * * * * * * * * * * * * * * * * * * * * //

dimensions      [0 1 -1 0 0 0 0];

internalField   nonuniform List<vector> 
6000
(
(-0.0287904 -0.241971 0)
(-0.0420038 -0.293507 0)
(-0.0371944 -0.291268 0)
(-0.0278665 -0.350207 0)
(-0.0337372 -0.425565 0)
(-0.0321403 -0.424256 0)
(-0.0158188 -0.384565 0)
(0.00437404 -0.405722 0)
(0.00412242 -0.415103 0)
(-0.0268659 -0.425841 0)
(-0.0548483 -0.37506 0)
(-0.0144967 -0.320932 0)
(-0.0162642 -0.269135 0)
(-0.0658814 -0.205892 0)
(-0.143515 -0.200958 0)
(-0.184532 -0.21452 0)
(-0.195329 -0.21629 0)
(-0.190995 -0.212637 0)
(-0.160717 -0.211477 0)
(-0.131208 -0.214779 0)
(-0.0874019 -0.218816 0)
(-0.0528479 -0.24115 0)
(-0.0413423 -0.30356 0)
(-0.049545 -0.341956 0)
(-0.0546269 -0.350574 0)
(-0.0343662 -0.32122 0)
(0.00110311 -0.300677 0)
(0.0466072 -0.304359 0)
(0.0748243 -0.359775 0)
(0.0394577 -0.382017 0)
(-0.0359743 0.160032 0)
(-0.0637692 0.20098 0)
(-0.0587358 0.168896 0)
(-0.0325277 0.16333 0)
(-0.0202627 0.149104 0)
(-0.025062 0.127735 0)
(-0.0567113 0.109608 0)
(-0.0487944 0.0668186 0)
(-0.00794279 0.0377772 0)
(0.0146752 0.0374241 0)
(0.0119069 0.105216 0)
(0.00756045 0.1367 0)
(-0.0495577 0.120757 0)
(-0.119267 0.107021 0)
(-0.197396 0.0520776 0)
(-0.232157 0.0397597 0)
(-0.221213 0.00613453 0)
(-0.209927 -0.0253977 0)
(-0.174347 -0.0539438 0)
(-0.137973 -0.0566203 0)
(-0.082881 -0.0485701 0)
(-0.028846 -0.00121267 0)
(0.00361523 0.0599567 0)
(0.00886482 0.0861533 0)
(-0.0106821 0.152696 0)
(-0.0268948 0.159052 0)
(-0.0237466 0.0818365 0)
(0.014769 0.0179456 0)
(0.0357065 0.0679547 0)
(-0.0145997 -0.0296123 0)
(-0.0393744 0.163561 0)
(-0.071925 0.0860218 0)
(-0.0811239 0.0426437 0)
(-0.0782755 0.0435696 0)
(-0.0428825 0.0893099 0)
(-0.0282994 0.0998507 0)
(-0.0554892 0.0609193 0)
(-0.0467943 0.0195725 0)
(-0.0184804 -0.00971315 0)
(0.0173511 0.0576582 0)
(0.0302644 0.0855704 0)
(0.0266553 0.0827788 0)
(-0.0286003 0.0998488 0)
(-0.134156 0.05584 0)
(-0.217812 -0.0384085 0)
(-0.233388 -0.115484 0)
(-0.213797 -0.144022 0)
(-0.211012 -0.163468 0)
(-0.172937 -0.198336 0)
(-0.13158 -0.23085 0)
(-0.0730959 -0.239933 0)
(-0.00834443 -0.207797 0)
(0.0283269 -0.155431 0)
(0.0506737 -0.126521 0)
(0.0390384 -0.0815234 0)
(0.0222232 -0.059407 0)
(0.00622146 -0.0411731 0)
(0.0368982 -0.05896 0)
(0.0267214 -0.00814802 0)
(0.0100045 0.0265212 0)
(-0.00460695 0.0351542 0)
(-0.0116561 -0.0311283 0)
(-0.0425269 -0.00114985 0)
(-0.0824209 0.0452582 0)
(-0.0796996 0.0864501 0)
(-0.050154 0.103872 0)
(-0.042089 0.0900645 0)
(-0.0261704 0.0655002 0)
(0.00165541 0.0359995 0)
(0.0146694 0.0802063 0)
(0.0522347 0.107339 0)
(0.0184782 0.0863136 0)
(-0.0516411 0.0751463 0)
(-0.17633 0.00334378 0)
(-0.220981 -0.055303 0)
(-0.198612 -0.10042 0)
(-0.186603 -0.123311 0)
(-0.190867 -0.151428 0)
(-0.160376 -0.207568 0)
(-0.10975 -0.267087 0)
(-0.0460579 -0.29535 0)
(0.026505 -0.271613 0)
(0.0832287 -0.207765 0)
(0.123089 -0.137951 0)
(0.125848 -0.100925 0)
(0.108782 -0.0535094 0)
(0.0378479 -0.0181532 0)
(0.00333906 0.00559136 0)
(0.002202 0.0469781 0)
(0.00516768 0.0774662 0)
(0.0239535 -0.189051 0)
(0.0447095 -0.209017 0)
(0.0390366 -0.167924 0)
(0.00669411 -0.0782404 0)
(-0.0445544 0.0069745 0)
(-0.0514502 0.0499934 0)
(-0.0434676 0.0596585 0)
(-0.0254114 0.0525306 0)
(0.00160427 0.03219 0)
(0.00398795 0.0748351 0)
(0.0599357 0.104705 0)
(0.017898 0.0817886 0)
(-0.0894913 0.042858 0)
(-0.183973 0.00703592 0)
(-0.206932 -0.0249574 0)
(-0.157561 -0.0216481 0)
(-0.139974 -0.0603067 0)
(-0.159343 -0.0871146 0)
(-0.130183 -0.164474 0)
(-0.0650826 -0.258908 0)
(-0.00619993 -0.310825 0)
(0.0507619 -0.298331 0)
(0.109399 -0.236584 0)
(0.153371 -0.138513 0)
(0.175019 -0.100688 0)
(0.166877 -0.0502454 0)
(0.0673688 -0.0154743 0)
(0.0125384 0.0221101 0)
(0.0128542 0.0620404 0)
(-0.0148098 0.113 0)
(0.030526 -0.260352 0)
(0.0599843 -0.264618 0)
(0.0863926 -0.248181 0)
(0.0999849 -0.210002 0)
(0.0863592 -0.125498 0)
(0.0313632 -0.0423595 0)
(-0.0138001 -0.00329381 0)
(-0.0299416 0.00535173 0)
(-0.00883459 0.0162641 0)
(-0.0191761 0.0292348 0)
(0.0470132 0.0806658 0)
(0.0271381 0.0767764 0)
(-0.0724106 0.0663707 0)
(-0.145519 0.0507557 0)
(-0.119075 0.0100265 0)
(-0.0145371 0.0638169 0)
(-0.0591075 0.074968 0)
(-0.113123 0.0156683 0)
(-0.0784956 -0.0949288 0)
(0.0182831 -0.248989 0)
(0.0707307 -0.331144 0)
(0.113589 -0.323165 0)
(0.136097 -0.251539 0)
(0.15915 -0.116035 0)
(0.181493 -0.0617121 0)
(0.180915 0.00259224 0)
(0.101828 0.0116683 0)
(0.0166135 0.0415438 0)
(0.0283458 0.0868535 0)
(-0.0277198 0.128496 0)
(0.030508 -0.258245 0)
(0.0493701 -0.25675 0)
(0.0944903 -0.245474 0)
(0.116668 -0.230316 0)
(0.145712 -0.202735 0)
(0.138856 -0.136304 0)
(0.0913814 -0.0789399 0)
(0.0257514 -0.04995 0)
(0.00897791 -0.0300251 0)
(-0.000476779 -0.0298143 0)
(0.0193695 0.0103343 0)
(0.046152 0.0424172 0)
(0.0322131 0.0867034 0)
(0.00528612 0.128985 0)
(0.0334222 0.134787 0)
(0.167881 0.107933 0)
(0.177053 0.0853263 0)
(0.0638351 0.103778 0)
(0.0182406 0.00305384 0)
(0.148575 -0.238082 0)
(0.166285 -0.357811 0)
(0.171918 -0.348633 0)
(0.16426 -0.272824 0)
(0.145626 -0.1053 0)
(0.144382 -0.0129553 0)
(0.172125 0.0639334 0)
(0.115989 0.0751886 0)
(0.00576828 0.0724847 0)
(0.0147485 0.122142 0)
(-0.0291319 0.134077 0)
(0.0267226 -0.229661 0)
(0.0549272 -0.231298 0)
(0.0783729 -0.219698 0)
(0.116347 -0.205318 0)
(0.129179 -0.188362 0)
(0.165493 -0.159717 0)
(0.161032 -0.122881 0)
(0.122958 -0.102861 0)
(0.0676275 -0.0843507 0)
(0.055227 -0.0526014 0)
(0.0544098 -0.0406404 0)
(0.0772864 -0.0339834 0)
(0.101817 0.0121043 0)
(0.127303 0.096694 0)
(0.198538 0.133115 0)
(0.319784 0.14105 0)
(0.351236 0.0648296 0)
(0.271975 0.0634903 0)
(0.224838 -0.0172443 0)
(0.254989 -0.26284 0)
(0.205388 -0.383047 0)
(0.18783 -0.363694 0)
(0.173517 -0.287115 0)
(0.0996838 -0.0853746 0)
(0.0957186 0.054593 0)
(0.112702 0.133238 0)
(0.0266693 0.143979 0)
(-0.0241345 0.119503 0)
(-0.0293019 0.133224 0)
(-0.0324952 0.132563 0)
(0.0262316 -0.185584 0)
(0.0442834 -0.186406 0)
(0.069356 -0.17632 0)
(0.0871585 -0.166826 0)
(0.109109 -0.156246 0)
(0.132613 -0.134586 0)
(0.160987 -0.116844 0)
(0.161413 -0.122731 0)
(0.129225 -0.125477 0)
(0.109749 -0.096175 0)
(0.111541 -0.0785924 0)
(0.111683 -0.0640116 0)
(0.122272 -0.0211105 0)
(0.181362 0.0406964 0)
(0.271675 0.0491216 0)
(0.35595 0.0851007 0)
(0.399524 0.0515077 0)
(0.348465 0.0337683 0)
(0.31791 -0.0487315 0)
(0.278938 -0.304571 0)
(0.210661 -0.399993 0)
(0.161823 -0.376055 0)
(0.15191 -0.310058 0)
(0.0775515 -0.119524 0)
(0.0432127 0.0893948 0)
(-0.0167708 0.194825 0)
(-0.0598749 0.183257 0)
(-0.059211 0.158502 0)
(-0.0673787 0.1233 0)
(-0.0443609 0.11769 0)
(0.0238029 -0.13176 0)
(0.037977 -0.12973 0)
(0.048111 -0.12216 0)
(0.0561818 -0.121851 0)
(0.0684271 -0.119895 0)
(0.094023 -0.110009 0)
(0.123032 -0.105518 0)
(0.134933 -0.117166 0)
(0.139073 -0.169301 0)
(0.138385 -0.169087 0)
(0.142544 -0.132561 0)
(0.134918 -0.0856504 0)
(0.144303 -0.0347332 0)
(0.197117 0.00805092 0)
(0.27615 0.0116125 0)
(0.329798 0.0358213 0)
(0.357167 0.0403959 0)
(0.333866 0.0238242 0)
(0.317603 -0.0609193 0)
(0.246048 -0.337014 0)
(0.169203 -0.398685 0)
(0.0663095 -0.319725 0)
(0.0646428 -0.270392 0)
(0.0321115 -0.0799451 0)
(-0.0332542 0.158947 0)
(-0.0938821 0.235028 0)
(-0.111034 0.197536 0)
(-0.100528 0.167753 0)
(-0.0913741 0.107271 0)
(-0.0555029 0.0825715 0)
(0.022735 -0.0702303 0)
(0.0296769 -0.0615133 0)
(0.0257998 -0.0558009 0)
(0.0191013 -0.0661889 0)
(0.0223948 -0.0832322 0)
(0.0445914 -0.0878354 0)
(0.0760657 -0.0921747 0)
(0.0927248 -0.126308 0)
(0.0953338 -0.198158 0)
(0.139693 -0.250045 0)
(0.160353 -0.209732 0)
(0.166265 -0.121995 0)
(0.183064 -0.0575088 0)
(0.217061 -0.0132766 0)
(0.260414 -0.000967782 0)
(0.285753 0.0164053 0)
(0.292976 0.0456362 0)
(0.288678 0.0343696 0)
(0.285796 -0.0820599 0)
(0.139475 -0.334773 0)
(0.0344161 -0.30863 0)
(-0.00829489 -0.201799 0)
(0.00915652 -0.118838 0)
(-0.00483751 -0.0115658 0)
(-0.0595351 0.201912 0)
(-0.119567 0.256909 0)
(-0.133988 0.206726 0)
(-0.123894 0.163518 0)
(-0.105018 0.0965761 0)
(-0.0593738 0.0586907 0)
(0.0237929 -0.0195824 0)
(0.0189572 0.00222976 0)
(0.00325372 0.0134388 0)
(-0.0171142 0.00112347 0)
(-0.0244575 -0.032961 0)
(-0.00563648 -0.0599622 0)
(0.0207871 -0.0850066 0)
(0.0360794 -0.128027 0)
(0.0581134 -0.206926 0)
(0.114478 -0.28527 0)
(0.162294 -0.264857 0)
(0.21705 -0.18511 0)
(0.229571 -0.109524 0)
(0.24106 -0.0625844 0)
(0.24635 -0.0398418 0)
(0.235258 -0.0186654 0)
(0.232116 0.0299146 0)
(0.241069 0.0345417 0)
(0.224467 -0.0987375 0)
(0.0688737 -0.264226 0)
(0.00420616 -0.245101 0)
(0.00578279 -0.140081 0)
(-0.00485807 -0.0437745 0)
(0.00352017 0.035034 0)
(-0.0453789 0.202928 0)
(-0.118658 0.265646 0)
(-0.137397 0.215673 0)
(-0.128561 0.162391 0)
(-0.108866 0.0953601 0)
(-0.0613248 0.0495441 0)
(0.0158616 0.0097504 0)
(0.00333802 0.0333438 0)
(-0.00801949 0.0489224 0)
(-0.0262468 0.0540386 0)
(-0.0505969 0.0326287 0)
(-0.0597021 -0.0180247 0)
(-0.0299011 -0.0522045 0)
(-0.0156442 -0.0966157 0)
(0.0411287 -0.190706 0)
(0.0723575 -0.266709 0)
(0.131426 -0.272068 0)
(0.218874 -0.223905 0)
(0.252446 -0.152146 0)
(0.254527 -0.0997968 0)
(0.228318 -0.0755396 0)
(0.19606 -0.0659286 0)
(0.184569 -0.0148482 0)
(0.212645 0.0118505 0)
(0.155648 -0.111538 0)
(0.0150387 -0.219772 0)
(0.00571689 -0.196908 0)
(-0.0118274 -0.10097 0)
(-0.00870379 -0.000191571 0)
(0.0334818 0.0892107 0)
(0.00472811 0.210487 0)
(-0.0995922 0.279408 0)
(-0.126891 0.225242 0)
(-0.11524 0.167416 0)
(-0.102572 0.100767 0)
(-0.0616454 0.0462227 0)
(0.00245646 0.0182661 0)
(-0.0100121 0.047398 0)
(-0.0238055 0.0666652 0)
(-0.03989 0.0759096 0)
(-0.0600988 0.0698498 0)
(-0.0811932 0.0364647 0)
(-0.0771483 -0.0233573 0)
(-0.0377103 -0.0539432 0)
(0.0167715 -0.120297 0)
(0.0555339 -0.210845 0)
(0.0918724 -0.255775 0)
(0.144838 -0.238421 0)
(0.18975 -0.22342 0)
(0.201157 -0.175711 0)
(0.182539 -0.165192 0)
(0.177575 -0.164734 0)
(0.171866 -0.0859329 0)
(0.20248 -0.020433 0)
(0.147564 -0.108526 0)
(-0.00137194 -0.188858 0)
(-0.0221515 -0.151409 0)
(-0.0284724 -0.0597527 0)
(0.00263928 0.0329257 0)
(0.0421636 0.152072 0)
(0.0385047 0.272983 0)
(-0.0687868 0.326543 0)
(-0.0911237 0.240246 0)
(-0.0779676 0.177005 0)
(-0.0766367 0.104564 0)
(-0.0538668 0.0359993 0)
(-0.00548207 0.0272786 0)
(-0.024465 0.0613767 0)
(-0.042566 0.0832047 0)
(-0.0601466 0.0906491 0)
(-0.0741842 0.0802142 0)
(-0.0851743 0.0503088 0)
(-0.0891627 -0.00118922 0)
(-0.052965 -0.0374985 0)
(0.0147992 -0.0727942 0)
(0.054092 -0.170291 0)
(0.0413236 -0.263212 0)
(0.0372851 -0.2883 0)
(0.06999 -0.304369 0)
(0.103266 -0.291509 0)
(0.153608 -0.300546 0)
(0.194175 -0.275155 0)
(0.206164 -0.155874 0)
(0.213099 -0.0597803 0)
(0.172894 -0.0966129 0)
(-0.00162762 -0.146103 0)
(-0.0323489 -0.111962 0)
(-0.0255213 -0.0354514 0)
(0.0131587 0.0551273 0)
(0.0300369 0.199778 0)
(0.0338329 0.339714 0)
(-0.0196016 0.357997 0)
(-0.0333625 0.252444 0)
(-0.0297871 0.179141 0)
(-0.0325511 0.104019 0)
(-0.0200696 0.0318582 0)
(-0.0194885 0.0368043 0)
(-0.0444842 0.0795293 0)
(-0.0659444 0.102916 0)
(-0.0760254 0.107578 0)
(-0.076304 0.0851776 0)
(-0.0730513 0.041076 0)
(-0.0624873 -0.0175849 0)
(-0.0328208 -0.0687867 0)
(0.047431 -0.0493667 0)
(0.0629751 -0.150019 0)
(0.022202 -0.264051 0)
(-0.0240708 -0.303691 0)
(0.0124948 -0.323522 0)
(0.0690566 -0.353321 0)
(0.17581 -0.352583 0)
(0.20958 -0.312336 0)
(0.25833 -0.198938 0)
(0.262126 -0.102332 0)
(0.212439 -0.088998 0)
(0.00814683 -0.0979956 0)
(-0.0372102 -0.076678 0)
(-0.0225572 -0.0230923 0)
(-0.00378443 0.0636877 0)
(0.00127389 0.201014 0)
(0.0156178 0.338114 0)
(0.0274348 0.334986 0)
(0.0268954 0.243715 0)
(0.0154047 0.181501 0)
(0.00512725 0.10145 0)
(0.00200225 0.0216282 0)
(-0.0658171 0.0676745 0)
(-0.096283 0.109582 0)
(-0.108403 0.121013 0)
(-0.0983893 0.118374 0)
(-0.0621773 0.0760992 0)
(-0.0337074 0.0240987 0)
(-0.00660439 -0.0389275 0)
(0.0365924 -0.103447 0)
(0.0954058 -0.190761 0)
(0.122689 -0.288331 0)
(0.0367352 -0.359395 0)
(-0.0401225 -0.335251 0)
(-0.000807705 -0.337085 0)
(0.0661923 -0.37061 0)
(0.180347 -0.360635 0)
(0.217154 -0.317321 0)
(0.273747 -0.222668 0)
(0.311659 -0.141852 0)
(0.301258 -0.0872611 0)
(0.0435672 -0.0296694 0)
(-0.0428245 -0.0474846 0)
(-0.0247961 -0.0296905 0)
(-0.0633838 0.0214607 0)
(-0.0788888 0.083451 0)
(-0.047478 0.156256 0)
(-0.00208537 0.128197 0)
(-0.003273 0.0593846 0)
(-0.0098477 0.0307859 0)
(0.0249638 0.039601 0)
(0.0121832 -0.0081132 0)
(-0.0746358 -0.0649927 0)
(-0.0991735 -0.0657529 0)
(-0.131192 0.0605195 0)
(-0.0895408 0.0970906 0)
(-0.0115437 0.0519301 0)
(0.0184262 0.00603016 0)
(0.0477037 -0.069238 0)
(0.095461 -0.198819 0)
(0.134328 -0.422836 0)
(0.131725 -0.432966 0)
(0.133292 -0.424122 0)
(0.0789292 -0.411604 0)
(0.0366953 -0.368951 0)
(0.0753971 -0.373058 0)
(0.175358 -0.363389 0)
(0.206857 -0.308664 0)
(0.253447 -0.193923 0)
(0.313549 -0.149194 0)
(0.346255 -0.0849703 0)
(0.250263 -0.0426591 0)
(-0.0152858 -0.0134883 0)
(-0.0356692 -0.0246593 0)
(-0.111425 -0.0135259 0)
(-0.145351 -0.0124535 0)
(-0.129291 -0.0622508 0)
(-0.0914825 -0.138778 0)
(-0.102192 -0.215279 0)
(-0.0766613 -0.254815 0)
(-0.0227548 -0.276378 0)
(-0.00327696 -0.202068 0)
(0.0455552 -0.398261 0)
(0.0383494 -0.457837 0)
(0.0316318 -0.421984 0)
(0.049848 -0.439313 0)
(0.0568479 -0.314246 0)
(0.0822318 -0.174792 0)
(0.134511 -0.25054 0)
(0.120417 -0.48196 0)
(0.11421 -0.490473 0)
(0.134043 -0.460344 0)
(0.170285 -0.423181 0)
(0.172896 -0.41004 0)
(0.142749 -0.3887 0)
(0.12994 -0.373406 0)
(0.172414 -0.359791 0)
(0.181334 -0.302892 0)
(0.194714 -0.166735 0)
(0.295395 -0.14633 0)
(0.358071 -0.0806455 0)
(0.335865 -0.061615 0)
(0.0315648 0.0297101 0)
(-0.0467448 0.00984273 0)
(-0.11437 0.00679588 0)
(-0.149861 0.0242212 0)
(-0.14882 -0.0272557 0)
(-0.127729 -0.14004 0)
(-0.108629 -0.189843 0)
(-0.0601606 -0.215969 0)
(0.0193427 -0.268405 0)
(0.0115432 -0.309665 0)
(0.0483244 -0.41217 0)
(0.0618969 -0.45071 0)
(0.0920603 -0.488151 0)
(0.107596 -0.523148 0)
(0.121556 -0.542427 0)
(0.136513 -0.54084 0)
(0.140909 -0.535401 0)
(0.139139 -0.525046 0)
(0.135755 -0.479529 0)
(0.148192 -0.432155 0)
(0.180758 -0.397218 0)
(0.205841 -0.373214 0)
(0.199939 -0.384242 0)
(0.178878 -0.382509 0)
(0.181712 -0.362134 0)
(0.143566 -0.302327 0)
(0.136391 -0.153001 0)
(0.239972 -0.131073 0)
(0.345125 -0.0809115 0)
(0.363976 -0.0648383 0)
(0.267391 -0.0292618 0)
(0.0188658 0.00712861 0)
(-0.0917429 0.00141149 0)
(-0.126919 0.065036 0)
(-0.130024 0.074282 0)
(-0.129593 0.00241284 0)
(-0.088221 -0.0707617 0)
(-0.0414315 -0.125704 0)
(0.0532983 -0.23553 0)
(0.027722 -0.266508 0)
(0.0374636 -0.380996 0)
(0.0662282 -0.414028 0)
(0.0938774 -0.4518 0)
(0.119335 -0.483657 0)
(0.148978 -0.498861 0)
(0.17841 -0.506725 0)
(0.184725 -0.498775 0)
(0.173215 -0.486636 0)
(0.156839 -0.452161 0)
(0.164356 -0.40291 0)
(0.194898 -0.367345 0)
(0.211126 -0.344566 0)
(0.22261 -0.345674 0)
(0.215078 -0.365927 0)
(0.187563 -0.358918 0)
(0.0992494 -0.283068 0)
(0.0615879 -0.128878 0)
(0.148068 -0.0768188 0)
(0.289612 -0.0602473 0)
(0.352953 -0.0666869 0)
(0.342345 -0.0808231 0)
(0.242104 -0.0661548 0)
(0.0642916 -0.0800498 0)
(-0.0512833 0.00122599 0)
(-0.0954789 0.101828 0)
(-0.104694 0.109547 0)
(-0.057167 0.0326689 0)
(-0.00930956 -0.0430173 0)
(0.0673636 -0.211378 0)
(0.0252429 -0.218872 0)
(0.0479226 -0.353138 0)
(0.0722235 -0.388601 0)
(0.0978517 -0.423481 0)
(0.135007 -0.446933 0)
(0.166012 -0.462618 0)
(0.1858 -0.467465 0)
(0.190889 -0.458987 0)
(0.177727 -0.441579 0)
(0.155265 -0.397205 0)
(0.157949 -0.357968 0)
(0.181917 -0.3159 0)
(0.208839 -0.29509 0)
(0.232075 -0.301297 0)
(0.233169 -0.325709 0)
(0.191379 -0.329621 0)
(0.0753542 -0.264444 0)
(0.0217231 -0.134802 0)
(0.0888392 -0.0859742 0)
(0.157072 -0.0717543 0)
(0.292987 -0.070184 0)
(0.327876 -0.0976364 0)
(0.305944 -0.118045 0)
(0.225634 -0.141868 0)
(0.101723 -0.109471 0)
(-0.00772387 0.0281513 0)
(-0.0485482 0.126294 0)
(0.00740105 0.0747395 0)
(0.0575251 -0.00123793 0)
(0.0935315 -0.168182 0)
(0.0267694 -0.195202 0)
(0.0384165 -0.3362 0)
(0.0723539 -0.364034 0)
(0.106144 -0.385919 0)
(0.145783 -0.406263 0)
(0.174293 -0.419212 0)
(0.19443 -0.417 0)
(0.1962 -0.407948 0)
(0.182526 -0.389712 0)
(0.152319 -0.353219 0)
(0.145241 -0.316377 0)
(0.164889 -0.283008 0)
(0.194387 -0.262273 0)
(0.228549 -0.269397 0)
(0.23551 -0.292157 0)
(0.178363 -0.298769 0)
(0.0547691 -0.251979 0)
(0.0167407 -0.168398 0)
(0.0661311 -0.13279 0)
(0.1081 -0.108389 0)
(0.174284 -0.0911232 0)
(0.271748 -0.116727 0)
(0.290963 -0.134747 0)
(0.265601 -0.15055 0)
(0.202712 -0.151278 0)
(0.135718 -0.0948991 0)
(0.0880601 0.0363773 0)
(0.121162 0.0243505 0)
(0.136424 -0.0231641 0)
(0.110278 -0.144935 0)
(0.0324299 -0.175711 0)
(0.022641 -0.316203 0)
(0.0665961 -0.327878 0)
(0.120278 -0.336894 0)
(0.150373 -0.358886 0)
(0.175422 -0.371233 0)
(0.197596 -0.36799 0)
(0.203366 -0.353013 0)
(0.184528 -0.33038 0)
(0.154428 -0.295754 0)
(0.140497 -0.262195 0)
(0.150893 -0.239231 0)
(0.182595 -0.227525 0)
(0.216342 -0.242126 0)
(0.213751 -0.258956 0)
(0.132207 -0.26514 0)
(0.0539523 -0.2295 0)
(0.0483876 -0.182436 0)
(0.0793242 -0.156324 0)
(0.109897 -0.126062 0)
(0.137637 -0.103643 0)
(0.187625 -0.111874 0)
(0.254787 -0.142204 0)
(0.2586 -0.152088 0)
(0.242059 -0.153047 0)
(0.212918 -0.132163 0)
(0.200893 -0.0637299 0)
(0.225399 -0.0457653 0)
(0.198822 -0.0594424 0)
(0.125882 -0.148565 0)
(0.0267106 -0.171833 0)
(0.0253199 -0.282475 0)
(0.0692645 -0.280795 0)
(0.111424 -0.296159 0)
(0.151083 -0.313273 0)
(0.18278 -0.314167 0)
(0.199852 -0.303509 0)
(0.198256 -0.291685 0)
(0.177459 -0.274951 0)
(0.153265 -0.25308 0)
(0.142604 -0.229989 0)
(0.151629 -0.209443 0)
(0.168362 -0.204898 0)
(0.178719 -0.215501 0)
(0.155284 -0.238164 0)
(0.0811073 -0.238381 0)
(0.0546282 -0.198233 0)
(0.0757107 -0.168897 0)
(0.104412 -0.146105 0)
(0.12872 -0.12561 0)
(0.14416 -0.101973 0)
(0.166499 -0.0994823 0)
(0.210089 -0.123342 0)
(0.245011 -0.146447 0)
(0.248841 -0.145046 0)
(0.241168 -0.135658 0)
(0.245028 -0.103039 0)
(0.255216 -0.0758253 0)
(0.214927 -0.0792573 0)
(0.106312 -0.178756 0)
(0.0046287 -0.236345 0)
(0.0205118 -0.237951 0)
(0.0665156 -0.235592 0)
(0.119006 -0.244891 0)
(0.154428 -0.25529 0)
(0.179331 -0.255215 0)
(0.193749 -0.244982 0)
(0.191839 -0.233151 0)
(0.171164 -0.221277 0)
(0.143734 -0.205731 0)
(0.128519 -0.188697 0)
(0.12982 -0.17617 0)
(0.136657 -0.17583 0)
(0.137629 -0.18945 0)
(0.0994962 -0.209424 0)
(0.0507577 -0.19601 0)
(0.0520775 -0.165197 0)
(0.0856775 -0.141429 0)
(0.117311 -0.122397 0)
(0.14556 -0.107017 0)
(0.162857 -0.072785 0)
(0.171761 -0.0678712 0)
(0.18523 -0.079027 0)
(0.227779 -0.11933 0)
(0.245804 -0.134361 0)
(0.24494 -0.130091 0)
(0.252705 -0.11139 0)
(0.249651 -0.0859094 0)
(0.164212 -0.0783829 0)
(0.0463773 -0.197214 0)
(-0.0104184 -0.240874 0)
(0.0207092 -0.183499 0)
(0.0731163 -0.180964 0)
(0.119069 -0.187577 0)
(0.152642 -0.194464 0)
(0.172776 -0.192618 0)
(0.178326 -0.187444 0)
(0.172618 -0.183927 0)
(0.151899 -0.178459 0)
(0.131342 -0.170057 0)
(0.118099 -0.15971 0)
(0.113188 -0.151223 0)
(0.110609 -0.151845 0)
(0.0991588 -0.163917 0)
(0.0607641 -0.173658 0)
(0.0355044 -0.154142 0)
(0.0495194 -0.126665 0)
(0.0840765 -0.107163 0)
(0.11853 -0.0912785 0)
(0.139743 -0.0724984 0)
(0.166571 -0.029796 0)
(0.17631 -0.027344 0)
(0.185528 -0.0369389 0)
(0.208215 -0.0688978 0)
(0.227399 -0.100227 0)
(0.240059 -0.110997 0)
(0.245909 -0.0999313 0)
(0.227467 -0.0782254 0)
(0.0951931 -0.0542841 0)
(0.00712897 -0.177436 0)
(-0.0248685 -0.200275 0)
(0.019804 -0.128948 0)
(0.0747225 -0.123836 0)
(0.114137 -0.130723 0)
(0.145798 -0.137086 0)
(0.162418 -0.14192 0)
(0.163568 -0.143376 0)
(0.153013 -0.145706 0)
(0.134465 -0.146343 0)
(0.11828 -0.142565 0)
(0.106202 -0.136419 0)
(0.0977455 -0.131077 0)
(0.0894274 -0.130157 0)
(0.0720451 -0.135093 0)
(0.042303 -0.133488 0)
(0.0276589 -0.111317 0)
(0.0448512 -0.0860902 0)
(0.0757345 -0.0690457 0)
(0.106729 -0.0558249 0)
(0.126911 -0.0334169 0)
(0.142814 -0.000221214 0)
(0.167194 0.0223991 0)
(0.173898 0.0165108 0)
(0.181257 -0.00522364 0)
(0.206165 -0.0558184 0)
(0.222214 -0.0707656 0)
(0.222158 -0.0687338 0)
(0.179031 -0.0390118 0)
(0.0372509 -0.0180498 0)
(-0.0175767 -0.14651 0)
(-0.0373284 -0.157624 0)
(0.0121605 -0.0739835 0)
(0.0658033 -0.0701755 0)
(0.110022 -0.0753914 0)
(0.137227 -0.087429 0)
(0.146791 -0.100444 0)
(0.141491 -0.1121 0)
(0.129268 -0.120003 0)
(0.115786 -0.122976 0)
(0.103433 -0.121696 0)
(0.0928555 -0.117967 0)
(0.0833666 -0.113601 0)
(0.0726879 -0.110192 0)
(0.0567627 -0.107011 0)
(0.0360662 -0.0964742 0)
(0.0268567 -0.0725955 0)
(0.0404041 -0.0470283 0)
(0.0647551 -0.0293424 0)
(0.0878427 -0.0184673 0)
(0.106112 -0.00151095 0)
(0.119644 0.0302111 0)
(0.142596 0.0866368 0)
(0.147093 0.0750124 0)
(0.15677 0.0274633 0)
(0.185947 -0.0148763 0)
(0.190104 -0.0277707 0)
(0.180713 -0.0226965 0)
(0.117751 0.0132355 0)
(0.00386385 0.0152971 0)
(-0.0354376 -0.111039 0)
(-0.0484288 -0.120007 0)
(0.0118518 -0.0267156 0)
(0.0581235 -0.027328 0)
(0.0959426 -0.0383084 0)
(0.11717 -0.0580023 0)
(0.121592 -0.0778729 0)
(0.116333 -0.092725 0)
(0.107501 -0.101532 0)
(0.0979038 -0.105305 0)
(0.0884358 -0.105068 0)
(0.0793817 -0.102228 0)
(0.0703551 -0.0977978 0)
(0.060334 -0.0921343 0)
(0.0479245 -0.0839179 0)
(0.0347583 -0.0687359 0)
(0.0288452 -0.0450035 0)
(0.0369559 -0.0189646 0)
(0.0532168 0.00179657 0)
(0.0673795 0.0148886 0)
(0.0781477 0.0284287 0)
(0.0972736 0.057866 0)
(0.121404 0.114497 0)
(0.131697 0.123222 0)
(0.136481 0.0934163 0)
(0.155894 0.0293454 0)
(0.151402 0.0216973 0)
(0.130034 0.0233531 0)
(0.0650667 0.0715575 0)
(-0.015629 0.0497148 0)
(-0.0504373 -0.0757812 0)
(-0.057061 -0.0884709 0)
(0.00965556 -0.0032324 0)
(0.0442346 -0.00862692 0)
(0.0745035 -0.0237566 0)
(0.0908845 -0.0462273 0)
(0.0950175 -0.0663319 0)
(0.0928002 -0.0800883 0)
(0.0875901 -0.0879263 0)
(0.0811179 -0.0912905 0)
(0.0738965 -0.0910951 0)
(0.0663524 -0.088328 0)
(0.058497 -0.0835498 0)
(0.0501449 -0.0766823 0)
(0.0412727 -0.0666516 0)
(0.0335579 -0.0512514 0)
(0.0301958 -0.0299395 0)
(0.0341167 -0.00486116 0)
(0.0427574 0.0188326 0)
(0.0491802 0.0375994 0)
(0.0521183 0.0538949 0)
(0.068997 0.0827174 0)
(0.110815 0.123332 0)
(0.119347 0.194727 0)
(0.12109 0.162719 0)
(0.130368 0.0729446 0)
(0.12016 0.0712741 0)
(0.0788463 0.0754552 0)
(0.0253034 0.128028 0)
(-0.0275049 0.0888364 0)
(-0.0625402 -0.0384488 0)
(-0.0621723 -0.0619292 0)
(0.00675252 -6.23048e-07 0)
(0.0305535 -0.00877634 0)
(0.0528605 -0.0245313 0)
(0.0665946 -0.0440865 0)
(0.0722255 -0.0604353 0)
(0.0726364 -0.0713336 0)
(0.0699753 -0.0773275 0)
(0.0656142 -0.0796182 0)
(0.0600048 -0.0788886 0)
(0.0537604 -0.0758479 0)
(0.0471959 -0.0708494 0)
(0.0405952 -0.063769 0)
(0.0344396 -0.0539274 0)
(0.0299021 -0.0401984 0)
(0.028364 -0.0220331 0)
(0.0304959 0.000320305 0)
(0.0343819 0.0252511 0)
(0.0362006 0.0504739 0)
(0.0343456 0.0746253 0)
(0.0465917 0.105886 0)
(0.0922657 0.14464 0)
(0.111483 0.221 0)
(0.128262 0.218986 0)
(0.127346 0.156357 0)
(0.0946661 0.134309 0)
(0.0417465 0.122366 0)
(0.00126691 0.187232 0)
(-0.0313995 0.134485 0)
(-0.0720939 0.0019976 0)
(-0.0640934 -0.0392457 0)
(0.004696 -0.00353553 0)
(0.0213445 -0.0147299 0)
(0.0373811 -0.029271 0)
(0.0487227 -0.0446576 0)
(0.0545174 -0.0568115 0)
(0.0560683 -0.0645457 0)
(0.05466 -0.0684162 0)
(0.0513966 -0.0693166 0)
(0.0466901 -0.0677545 0)
(0.0413267 -0.0643473 0)
(0.0358069 -0.0593721 0)
(0.0306606 -0.0527665 0)
(0.0264767 -0.0440719 0)
(0.02397 -0.0324864 0)
(0.023685 -0.0172004 0)
(0.0254585 0.00253133 0)
(0.0278936 0.0274112 0)
(0.0292064 0.0570224 0)
(0.0274423 0.0901516 0)
(0.0347026 0.127316 0)
(0.0700162 0.169366 0)
(0.114607 0.22084 0)
(0.13439 0.304351 0)
(0.128247 0.253905 0)
(0.0917887 0.204451 0)
(0.02765 0.176991 0)
(-0.00879732 0.24806 0)
(-0.0350236 0.182463 0)
(-0.0801279 0.0438816 0)
(-0.0645359 -0.0200188 0)
(0.00338201 -0.00668684 0)
(0.0159194 -0.0195715 0)
(0.0276401 -0.0330191 0)
(0.0363538 -0.0450617 0)
(0.0412132 -0.0536366 0)
(0.0426873 -0.0584816 0)
(0.0414871 -0.0602441 0)
(0.038402 -0.0596413 0)
(0.0339289 -0.0571735 0)
(0.0289182 -0.053443 0)
(0.0240238 -0.048738 0)
(0.019898 -0.0430369 0)
(0.0171085 -0.035906 0)
(0.0160922 -0.0265114 0)
(0.0170101 -0.0137853 0)
(0.0193791 0.00361796 0)
(0.0225314 0.0276976 0)
(0.0264515 0.0595662 0)
(0.0298476 0.0986462 0)
(0.036199 0.142519 0)
(0.0603996 0.189545 0)
(0.120885 0.235604 0)
(0.126798 0.359338 0)
(0.13123 0.337305 0)
(0.109567 0.301591 0)
(0.0364022 0.238296 0)
(-0.00265733 0.313479 0)
(-0.0415347 0.229541 0)
(-0.0858645 0.0889686 0)
(-0.0644281 -0.0021882 0)
(0.00258132 -0.00874424 0)
(0.0124477 -0.0224765 0)
(0.021254 -0.0348058 0)
(0.0277332 -0.0442976 0)
(0.0312833 -0.0500408 0)
(0.0320105 -0.0524152 0)
(0.030366 -0.0522339 0)
(0.0268116 -0.0501566 0)
(0.0220675 -0.0468706 0)
(0.0169397 -0.0429542 0)
(0.0122056 -0.0387256 0)
(0.0085801 -0.0341466 0)
(0.00662654 -0.0287189 0)
(0.0066741 -0.0214827 0)
(0.00873621 -0.0111279 0)
(0.0122434 0.00401136 0)
(0.0171025 0.0264395 0)
(0.0256273 0.0590499 0)
(0.0370228 0.100704 0)
(0.049914 0.151805 0)
(0.0668464 0.210191 0)
(0.117015 0.267913 0)
(0.113224 0.380491 0)
(0.146399 0.419022 0)
(0.134056 0.389446 0)
(0.0621688 0.32164 0)
(0.0157686 0.389779 0)
(-0.0434909 0.282641 0)
(-0.0857001 0.136828 0)
(-0.0647034 0.0202208 0)
(0.00212899 -0.00971383 0)
(0.0101925 -0.0236172 0)
(0.0169877 -0.0348415 0)
(0.0217097 -0.0423182 0)
(0.0239834 -0.0457987 0)
(0.0237924 -0.0460722 0)
(0.021387 -0.0441135 0)
(0.0171571 -0.040728 0)
(0.0118241 -0.0367512 0)
(0.00616527 -0.0327941 0)
(0.0010221 -0.0291665 0)
(-0.00280063 -0.0257722 0)
(-0.0046581 -0.0220508 0)
(-0.00413616 -0.0169274 0)
(-0.00110333 -0.00882237 0)
(0.0038694 0.00416102 0)
(0.0108594 0.0250449 0)
(0.0241904 0.0587658 0)
(0.0425807 0.105448 0)
(0.0607487 0.165597 0)
(0.0715896 0.23512 0)
(0.0959674 0.298665 0)
(0.102556 0.404293 0)
(0.155364 0.496008 0)
(0.147417 0.487739 0)
(0.084713 0.44148 0)
(0.035061 0.501451 0)
(-0.034341 0.351408 0)
(-0.0759335 0.190145 0)
(-0.0645373 0.0475584 0)
(0.00189808 -0.00993631 0)
(0.00874935 -0.0235083 0)
(0.0141826 -0.0336111 0)
(0.0176436 -0.0394088 0)
(0.0189295 -0.0410161 0)
(0.0179886 -0.0394961 0)
(0.0148975 -0.0359201 0)
(0.0100315 -0.0313562 0)
(0.00393279 -0.0267532 0)
(-0.00272239 -0.0228127 0)
(-0.00901449 -0.0198465 0)
(-0.0139302 -0.0176674 0)
(-0.0166539 -0.0156607 0)
(-0.0165405 -0.0126806 0)
(-0.0131835 -0.00699419 0)
(-0.00651574 0.00423275 0)
(0.00351545 0.0251375 0)
(0.0206848 0.0629568 0)
(0.0420792 0.115767 0)
(0.0562272 0.184645 0)
(0.0593152 0.264151 0)
(0.0625794 0.334606 0)
(0.0768296 0.454406 0)
(0.114059 0.61498 0)
(0.120805 0.631451 0)
(0.0713376 0.611483 0)
(0.0568307 0.640919 0)
(-0.0082933 0.435558 0)
(-0.0477311 0.244092 0)
(-0.052947 0.0782709 0)
(0.00181067 -0.00971029 0)
(0.00785217 -0.0226013 0)
(0.0124318 -0.0315528 0)
(0.0151408 -0.0359184 0)
(0.0158975 -0.0359989 0)
(0.0146128 -0.0329449 0)
(0.0112454 -0.0279248 0)
(0.0059801 -0.0221855 0)
(-0.000933845 -0.0168493 0)
(-0.00901593 -0.0128156 0)
(-0.0172816 -0.0105348 0)
(-0.0244744 -0.00974933 0)
(-0.0292339 -0.00961398 0)
(-0.0305968 -0.00885378 0)
(-0.0279785 -0.00568343 0)
(-0.0201304 0.0036775 0)
(-0.00719451 0.0264455 0)
(0.00892861 0.0714924 0)
(0.0207822 0.130429 0)
(0.0217798 0.203799 0)
(0.00929561 0.292597 0)
(-0.0156263 0.405318 0)
(-0.0267358 0.561636 0)
(0.00665888 0.752659 0)
(0.0406799 0.770752 0)
(0.0370239 0.75661 0)
(0.100123 0.744218 0)
(0.0566033 0.503105 0)
(0.0193785 0.279886 0)
(-0.00155889 0.0971979 0)
(0.00182096 -0.00920672 0)
(0.00728808 -0.0211632 0)
(0.0113705 -0.0289283 0)
(0.0137735 -0.0320663 0)
(0.0145115 -0.0309755 0)
(0.01346 -0.0267188 0)
(0.0104541 -0.0204739 0)
(0.00536093 -0.0135096 0)
(-0.00196408 -0.00710498 0)
(-0.0114587 -0.00258236 0)
(-0.0226044 -0.000916164 0)
(-0.0337805 -0.0019464 0)
(-0.0422574 -0.00420665 0)
(-0.0467998 -0.0062586 0)
(-0.045827 -0.00498957 0)
(-0.0382447 0.0030604 0)
(-0.0238339 0.0277172 0)
(-0.00887077 0.0756885 0)
(0.0013073 0.132991 0)
(-0.00818216 0.210955 0)
(-0.0450651 0.307239 0)
(-0.132617 0.454258 0)
(-0.149952 0.6312 0)
(-0.105602 0.808929 0)
(-0.0332301 0.817694 0)
(0.0240651 0.791558 0)
(0.140248 0.759264 0)
(0.159946 0.516784 0)
(0.124555 0.313742 0)
(0.0631681 0.119754 0)
(0.00188979 -0.00848065 0)
(0.00686034 -0.0192621 0)
(0.0105891 -0.0257613 0)
(0.0129112 -0.0277801 0)
(0.0139639 -0.0257972 0)
(0.013649 -0.0207389 0)
(0.0117059 -0.0136209 0)
(0.00784146 -0.00554429 0)
(0.00150795 0.00226075 0)
(-0.00812372 0.00821737 0)
(-0.0220571 0.0104458 0)
(-0.0405574 0.00733177 0)
(-0.0568475 -0.000399639 0)
(-0.0655919 -0.00565479 0)
(-0.0685296 -0.00712803 0)
(-0.0625833 0.000801283 0)
(-0.0470849 0.0249382 0)
(-0.0251803 0.071267 0)
(-0.00256296 0.120119 0)
(-0.00887789 0.182586 0)
(-0.0874209 0.228491 0)
(-0.177618 0.395668 0)
(-0.195103 0.600384 0)
(-0.151612 0.769054 0)
(-0.050631 0.779984 0)
(0.0326198 0.710096 0)
(0.155234 0.665659 0)
(0.181555 0.449842 0)
(0.176913 0.27415 0)
(0.137026 0.109281 0)
(0.00196663 -0.00752248 0)
(0.00639352 -0.0168546 0)
(0.00969049 -0.0219395 0)
(0.0118115 -0.0227798 0)
(0.0130194 -0.0199087 0)
(0.01334 -0.0141243 0)
(0.0126167 -0.00621939 0)
(0.0105543 0.00307221 0)
(0.00667648 0.0129533 0)
(-0.000187743 0.0224331 0)
(-0.0132804 0.0291231 0)
(-0.0372308 0.0264421 0)
(-0.0667417 0.0121789 0)
(-0.0939608 -0.0143086 0)
(-0.0991044 -0.0142258 0)