/*--------------------------------*- C++ -*----------------------------------*\
| =========                 |                                                 |
| \\      /  F ield         | OpenFOAM: The Open Source CFD Toolbox           |
|  \\    /   O peration     | Version:  2.3.0                                 |
|   \\  /    A nd           | Web:      www.OpenFOAM.org                      |
|    \\/     M anipulation  |                                                 |
\*---------------------------------------------------------------------------*/
FoamFile
{
    version     2.0;
    format      ascii;
    class       volVectorField;
    location    "1.82";
    object      U.particles;
}
// * * * * * * * * * * * * * * * * * * * * * * * * * * * * * * * * * * * * * //

dimensions      [0 1 -1 0 0 0 0];

internalField   nonuniform List<vector> 
6000
(
(0.0199474 -0.319194 0)
(0.0671085 -0.393646 0)
(0.113045 -0.544815 0)
(0.0561475 -0.667989 0)
(-0.0200018 -0.694556 0)
(-0.0487019 -0.674226 0)
(-0.081153 -0.654723 0)
(-0.128194 -0.628436 0)
(-0.136034 -0.575321 0)
(-0.126945 -0.539286 0)
(-0.146025 -0.482953 0)
(-0.190718 -0.462863 0)
(-0.225774 -0.422671 0)
(-0.226892 -0.38961 0)
(-0.22406 -0.349409 0)
(-0.203547 -0.308656 0)
(-0.165401 -0.247093 0)
(-0.0890306 -0.202222 0)
(-0.0284219 -0.15103 0)
(-0.0195218 -0.179633 0)
(-0.179966 -0.244517 0)
(-0.271707 -0.248782 0)
(-0.223429 -0.228853 0)
(-0.124572 -0.243917 0)
(-0.0168528 -0.291264 0)
(0.00108077 -0.465084 0)
(-0.0214433 -0.469912 0)
(-0.0365453 -0.423562 0)
(-0.0394059 -0.419242 0)
(-0.0203409 -0.311837 0)
(0.0176801 -0.0965593 0)
(0.0191236 -0.0785166 0)
(0.0318515 -0.153504 0)
(0.0211516 -0.26688 0)
(0.0108102 -0.232789 0)
(-0.0292728 -0.136519 0)
(-0.064972 -0.235147 0)
(-0.0839903 -0.235612 0)
(-0.100585 -0.0859122 0)
(-0.15808 -0.0571809 0)
(-0.204613 -0.0907352 0)
(-0.218246 -0.11009 0)
(-0.214057 -0.0707234 0)
(-0.194552 -0.0203608 0)
(-0.1635 -0.0195531 0)
(-0.126535 0.00505855 0)
(-0.0900739 0.0312339 0)
(-0.062867 0.0209177 0)
(-0.0579644 -0.0239549 0)
(-0.135193 -0.0626995 0)
(-0.219305 -0.110874 0)
(-0.247225 -0.155968 0)
(-0.213023 -0.166156 0)
(-0.189272 -0.162158 0)
(-0.0686017 -0.0438129 0)
(0.00838929 0.0329872 0)
(0.0265426 0.0518305 0)
(0.00791257 0.0425158 0)
(-0.0153105 0.104059 0)
(-0.0342098 0.0461178 0)
(-0.00184364 -0.1787 0)
(-0.00457279 -0.180092 0)
(0.013771 -0.184241 0)
(0.0269632 -0.197396 0)
(0.0117145 -0.159512 0)
(-0.0230518 -0.126555 0)
(-0.0504133 -0.190931 0)
(-0.0639433 -0.199289 0)
(-0.0924243 -0.132297 0)
(-0.150252 -0.103933 0)
(-0.187832 -0.0875539 0)
(-0.195396 -0.0851167 0)
(-0.173018 -0.0985693 0)
(-0.122775 -0.122008 0)
(-0.0825535 -0.138784 0)
(-0.0446892 -0.129531 0)
(0.0070757 -0.0886111 0)
(0.0495692 -0.0504936 0)
(0.0714428 -0.059248 0)
(0.0119176 -0.0864146 0)
(-0.189136 -0.103758 0)
(-0.214531 -0.161548 0)
(-0.150265 -0.300502 0)
(-0.164314 -0.288604 0)
(-0.0854759 -0.231298 0)
(0.0129589 -0.124613 0)
(0.0743692 -0.0830855 0)
(0.069686 -0.0433191 0)
(0.0314553 0.0145467 0)
(0.0068759 -0.0230725 0)
(0.0248026 -0.156302 0)
(-0.0117211 -0.152362 0)
(0.00860805 -0.15806 0)
(0.0141098 -0.169617 0)
(0.0136929 -0.146997 0)
(-0.0102438 -0.125548 0)
(-0.0364573 -0.171407 0)
(-0.0512628 -0.18199 0)
(-0.075553 -0.142415 0)
(-0.125483 -0.0998771 0)
(-0.143091 -0.0870544 0)
(-0.128183 -0.0687973 0)
(-0.0706224 -0.0836747 0)
(-0.0238623 -0.0935896 0)
(0.0145426 -0.109188 0)
(0.0534562 -0.110734 0)
(0.0840549 -0.0940914 0)
(0.0991084 -0.0748607 0)
(0.122992 -0.0680688 0)
(0.115786 -0.0508768 0)
(-0.135458 -0.0611892 0)
(-0.164597 -0.184716 0)
(-0.0252596 -0.278984 0)
(-0.00116677 -0.306583 0)
(-0.0703489 -0.270033 0)
(0.0024236 -0.170741 0)
(0.0735105 -0.0514742 0)
(0.105598 0.00268471 0)
(0.0673139 0.0422741 0)
(0.014632 0.0185685 0)
(0.0366362 -0.150422 0)
(-0.00531118 -0.12595 0)
(-0.00234032 -0.11002 0)
(0.000247849 -0.128907 0)
(0.00510794 -0.124657 0)
(-0.00235811 -0.11313 0)
(-0.0208262 -0.136907 0)
(-0.0317361 -0.152444 0)
(-0.0504363 -0.135193 0)
(-0.0689246 -0.0879751 0)
(-0.0744323 -0.0720586 0)
(-0.0481748 -0.0627948 0)
(0.00933263 -0.0878431 0)
(0.0457705 -0.11679 0)
(0.0707724 -0.123485 0)
(0.108917 -0.113317 0)
(0.128402 -0.0973321 0)
(0.128658 -0.081165 0)
(0.1399 -0.0703918 0)
(0.139687 -0.0383668 0)
(-0.0569117 -0.0108924 0)
(-0.12044 -0.160893 0)
(0.0705886 -0.276438 0)
(0.119713 -0.297769 0)
(-0.00496644 -0.283926 0)
(0.0222728 -0.225143 0)
(0.0606736 -0.0844927 0)
(0.125487 0.015344 0)
(0.0765683 0.0737999 0)
(0.0208865 0.0371741 0)
(0.0161677 -0.116532 0)
(0.0359606 -0.0910452 0)
(-0.0157946 -0.0634238 0)
(0.000882269 -0.0815399 0)
(-0.00542405 -0.0936284 0)
(-0.0110832 -0.0948712 0)
(-0.0248641 -0.106184 0)
(-0.029125 -0.11978 0)
(-0.046154 -0.108576 0)
(-0.0537819 -0.0746728 0)
(-0.0252277 -0.0570314 0)
(0.00820013 -0.0561069 0)
(0.0698939 -0.0893794 0)
(0.12648 -0.12931 0)
(0.141792 -0.128585 0)
(0.164649 -0.111246 0)
(0.166181 -0.095046 0)
(0.158223 -0.0820307 0)
(0.153926 -0.0683604 0)
(0.143534 -0.0406988 0)
(-0.0252984 -0.0197812 0)
(-0.0591885 -0.178923 0)
(0.14634 -0.245094 0)
(0.184668 -0.253085 0)
(0.066825 -0.275988 0)
(0.0514498 -0.223229 0)
(0.0609871 -0.103805 0)
(0.102363 0.0287679 0)
(0.0783872 0.106732 0)
(0.0261503 0.0581467 0)
(0.0130337 -0.0752274 0)
(0.0266902 -0.0491221 0)
(0.00592208 -0.0177785 0)
(-0.00808554 -0.010635 0)
(-0.00859373 -0.0474764 0)
(-0.0256691 -0.069037 0)
(-0.042536 -0.0801044 0)
(-0.0494407 -0.0870873 0)
(-0.0591436 -0.0846271 0)
(-0.0606438 -0.0756174 0)
(-0.0241871 -0.0683054 0)
(0.0189792 -0.0868883 0)
(0.0890097 -0.131719 0)
(0.16721 -0.162987 0)
(0.193993 -0.147517 0)
(0.19939 -0.119155 0)
(0.197045 -0.0944682 0)
(0.188345 -0.0750937 0)
(0.183184 -0.0617065 0)
(0.153548 -0.0508075 0)
(-0.0324178 -0.0758025 0)
(0.00900505 -0.17265 0)
(0.197638 -0.168779 0)
(0.233079 -0.247359 0)
(0.149183 -0.287342 0)
(0.0641185 -0.210787 0)
(0.0603623 -0.0941626 0)
(0.0794283 0.039443 0)
(0.0789608 0.14757 0)
(0.0297572 0.088307 0)
(0.0239764 -0.0352021 0)
(0.0225079 -0.00546419 0)
(0.0203103 0.0222085 0)
(-0.0150992 0.0401439 0)
(-0.0104848 0.0275174 0)
(-0.0339463 -0.0132824 0)
(-0.0596357 -0.0498752 0)
(-0.0681789 -0.0612619 0)
(-0.0716923 -0.0619579 0)
(-0.0675835 -0.0667403 0)
(-0.0352372 -0.083866 0)
(0.0173539 -0.138535 0)
(0.085173 -0.177304 0)
(0.172216 -0.190054 0)
(0.210728 -0.162204 0)
(0.210285 -0.124174 0)
(0.209536 -0.0920875 0)
(0.202881 -0.0648736 0)
(0.203612 -0.0445706 0)
(0.154613 -0.0347303 0)
(-0.0193053 -0.0903169 0)
(0.0758254 -0.1106 0)
(0.200884 -0.142195 0)
(0.237294 -0.219235 0)
(0.186208 -0.253628 0)
(0.0840932 -0.191166 0)
(0.0676036 -0.0742245 0)
(0.0661925 0.0530666 0)
(0.07954 0.184381 0)
(0.0344119 0.12216 0)
(0.0354289 0.00106352 0)
(0.028668 0.0428803 0)
(0.0138753 0.0688318 0)
(-0.0138984 0.0884222 0)
(-0.0094034 0.0805091 0)
(-0.0280637 0.0621453 0)
(-0.0645525 0.0175996 0)
(-0.0795942 -0.0119578 0)
(-0.0886754 -0.0176551 0)
(-0.0807736 -0.0349622 0)
(-0.0443825 -0.0989237 0)
(0.00526637 -0.160027 0)
(0.0583691 -0.191647 0)
(0.13863 -0.207019 0)
(0.192484 -0.182999 0)
(0.191953 -0.129495 0)
(0.189106 -0.0870152 0)
(0.193915 -0.0453125 0)
(0.16856 -0.0168034 0)
(0.0263303 -0.0258003 0)
(-0.0096013 -0.0566675 0)
(0.118113 -0.0851652 0)
(0.190516 -0.154717 0)
(0.226353 -0.203671 0)
(0.194931 -0.21657 0)
(0.100357 -0.135951 0)
(0.0629655 -0.0228832 0)
(0.0464233 0.078245 0)
(0.083939 0.215716 0)
(0.0424037 0.163307 0)
(0.0405924 0.0284931 0)
(0.0281798 0.0826139 0)
(0.00912469 0.115624 0)
(-0.0256822 0.141084 0)
(-0.0232223 0.140535 0)
(-0.0241071 0.126453 0)
(-0.0584613 0.0968105 0)
(-0.0905092 0.0569056 0)
(-0.111514 0.0326435 0)
(-0.0951003 -0.0143465 0)
(-0.0659542 -0.0976529 0)
(-0.027629 -0.155938 0)
(0.0239811 -0.201009 0)
(0.0799039 -0.231287 0)
(0.0937952 -0.236864 0)
(0.116589 -0.178445 0)
(0.111708 -0.131781 0)
(0.0940742 -0.0999827 0)
(0.0504882 -0.0460988 0)
(0.00032604 -0.0180993 0)
(0.0649519 -0.0145295 0)
(0.138859 -0.0948583 0)
(0.197438 -0.150227 0)
(0.223091 -0.168323 0)
(0.185567 -0.139854 0)
(0.102229 -0.052758 0)
(0.0761017 0.00865159 0)
(0.052347 0.0812976 0)
(0.082727 0.23863 0)
(0.0476795 0.218188 0)
(0.0267815 0.044511 0)
(0.0114607 0.107592 0)
(-0.00138522 0.153414 0)
(-0.0371118 0.190768 0)
(-0.0481763 0.20233 0)
(-0.0349587 0.20351 0)
(-0.0682502 0.171818 0)
(-0.115438 0.125394 0)
(-0.123867 0.095745 0)
(-0.0942826 0.0240588 0)
(-0.0762575 -0.0725474 0)
(-0.043462 -0.150889 0)
(-0.0027359 -0.217242 0)
(0.00299383 -0.295354 0)
(-0.0226181 -0.326364 0)
(0.0144871 -0.30255 0)
(0.0314192 -0.29237 0)
(0.0361879 -0.231834 0)
(0.0358691 -0.0801814 0)
(0.0441223 -0.0268852 0)
(0.127305 -0.0269815 0)
(0.175191 -0.101584 0)
(0.218937 -0.131016 0)
(0.215144 -0.132351 0)
(0.166939 -0.068496 0)
(0.115132 -0.011027 0)
(0.0925166 0.0299625 0)
(0.0686644 0.0845464 0)
(0.0778384 0.252153 0)
(0.0244029 0.272269 0)
(0.00221911 0.0493297 0)
(-0.0173195 0.122897 0)
(-0.0317299 0.180607 0)
(-0.0597878 0.227145 0)
(-0.0710752 0.254213 0)
(-0.0494979 0.291538 0)
(-0.0729715 0.278188 0)
(-0.118821 0.22931 0)
(-0.108928 0.190407 0)
(-0.100274 0.0644478 0)
(-0.0883491 -0.0525699 0)
(-0.0621894 -0.146839 0)
(-0.0335994 -0.22414 0)
(-0.0537743 -0.298609 0)
(-0.077133 -0.316361 0)
(-0.0144303 -0.304318 0)
(0.0320878 -0.299497 0)
(0.0771429 -0.249116 0)
(0.0894265 -0.128367 0)
(0.113253 -0.0721787 0)
(0.175695 -0.0621608 0)
(0.206048 -0.10533 0)
(0.234809 -0.116696 0)
(0.220328 -0.0962729 0)
(0.168561 -0.021988 0)
(0.132693 0.0206266 0)
(0.112539 0.0582508 0)
(0.100658 0.113661 0)
(0.0726365 0.282685 0)
(0.000444149 0.252367 0)
(-0.019713 0.0637208 0)
(-0.0559935 0.144285 0)
(-0.0746194 0.201141 0)
(-0.0896289 0.242441 0)
(-0.0818886 0.280227 0)
(-0.0778935 0.38151 0)
(-0.0825835 0.41261 0)
(-0.0901492 0.38528 0)
(-0.0734032 0.275611 0)
(-0.15519 0.054216 0)
(-0.106528 -0.061237 0)
(-0.0720104 -0.141974 0)
(-0.0464415 -0.210862 0)
(-0.0661225 -0.271373 0)
(-0.077241 -0.284406 0)
(-0.0185786 -0.297843 0)
(0.0257352 -0.282639 0)
(0.0888615 -0.230757 0)
(0.130195 -0.158169 0)
(0.162205 -0.0962508 0)
(0.202668 -0.0811543 0)
(0.226779 -0.0934466 0)
(0.246702 -0.0909159 0)
(0.226757 -0.050943 0)
(0.172671 0.016086 0)
(0.145316 0.0515344 0)
(0.1216 0.0902802 0)
(0.102566 0.158596 0)
(0.0644322 0.309535 0)
(0.00776541 0.237178 0)
(-0.0510338 0.0766957 0)
(-0.097481 0.164593 0)
(-0.111424 0.214159 0)
(-0.111793 0.244799 0)
(-0.0911484 0.282595 0)
(-0.0990165 0.414945 0)
(-0.0916623 0.519003 0)
(-0.0615469 0.500662 0)
(-0.0821219 0.241737 0)
(-0.0996328 0.0494493 0)
(-0.0700286 -0.0617237 0)
(-0.0439375 -0.14352 0)
(-0.0153159 -0.196705 0)
(-0.00362475 -0.225306 0)
(-0.0169879 -0.234814 0)
(-0.00720342 -0.2574 0)
(0.0257684 -0.25545 0)
(0.0684893 -0.192321 0)
(0.135263 -0.134467 0)
(0.18304 -0.0748926 0)
(0.216377 -0.0585542 0)
(0.237056 -0.0585178 0)
(0.252475 -0.0484498 0)
(0.225176 0.00450053 0)
(0.181902 0.0484598 0)
(0.157139 0.074265 0)
(0.119736 0.10994 0)
(0.0764433 0.184315 0)
(0.0386927 0.299003 0)
(0.0156682 0.232725 0)
(-0.132371 0.109063 0)
(-0.149531 0.189024 0)
(-0.129154 0.213925 0)
(-0.119588 0.238319 0)
(-0.107615 0.277222 0)
(-0.105789 0.396102 0)
(-0.0913189 0.53819 0)
(-0.0496232 0.518668 0)
(-0.0180911 0.203652 0)
(-0.0134202 0.0481819 0)
(-0.0103065 -0.0677078 0)
(0.00141462 -0.146103 0)
(0.0203227 -0.197714 0)
(0.0448313 -0.218955 0)
(0.0603331 -0.203109 0)
(0.0422071 -0.19231 0)
(0.027003 -0.190844 0)
(0.0525712 -0.169222 0)
(0.118593 -0.0827484 0)
(0.185427 -0.027532 0)
(0.223904 -0.021231 0)
(0.243743 -0.0168758 0)
(0.254514 0.00568562 0)
(0.225157 0.0554387 0)
(0.192346 0.0720002 0)
(0.168165 0.0841304 0)
(0.121064 0.107384 0)
(0.0558364 0.170857 0)
(0.00272698 0.265359 0)
(0.0249022 0.219641 0)
(-0.0160837 -0.0389934 0)
(-0.0869892 0.100504 0)
(-0.115281 0.193853 0)
(-0.104684 0.212659 0)
(-0.103944 0.248663 0)
(-0.094486 0.292215 0)
(-0.0938962 0.434225 0)
(-0.0582513 0.380221 0)
(-0.046583 0.0612716 0)
(0.0605045 0.00618237 0)
(0.0419549 -0.0968233 0)
(0.0386288 -0.161551 0)
(0.0467266 -0.199834 0)
(0.0623122 -0.210329 0)
(0.0745103 -0.191604 0)
(0.0830903 -0.163023 0)
(0.0537512 -0.131987 0)
(0.0490475 -0.100755 0)
(0.105658 -0.042287 0)
(0.174621 0.0133823 0)
(0.216624 0.028497 0)
(0.234222 0.042987 0)
(0.233779 0.0767936 0)
(0.218509 0.089265 0)
(0.196853 0.0827565 0)
(0.170923 0.0778545 0)
(0.114166 0.0825864 0)
(0.0129586 0.0521852 0)
(-0.0360532 0.0304272 0)
(0.0301637 0.139898 0)
(0.0557263 -0.0959083 0)
(0.0679138 -0.069407 0)
(-0.0234317 0.0790528 0)
(-0.0462953 0.148566 0)
(-0.0565247 0.146442 0)
(-0.0911237 0.0841036 0)
(-0.103515 0.147337 0)
(-0.0798567 0.103929 0)
(-0.0096629 -0.0977119 0)
(0.0255313 -0.277885 0)
(0.0533498 -0.171771 0)
(0.0546649 -0.196862 0)
(0.0582767 -0.208853 0)
(0.0685395 -0.207158 0)
(0.078795 -0.181144 0)
(0.0811516 -0.136348 0)
(0.0762021 -0.087523 0)
(0.0437201 -0.0358404 0)
(0.0938697 0.00983808 0)
(0.162716 0.0624305 0)
(0.180499 0.0896056 0)
(0.196809 0.117283 0)
(0.20521 0.125692 0)
(0.206496 0.107321 0)
(0.192061 0.0846624 0)
(0.137188 0.0524684 0)
(0.00099974 -0.0534311 0)
(-0.0658356 -0.1693 0)
(-0.0442967 -0.195879 0)
(-0.016202 -0.16421 0)
(0.070428 -0.05874 0)
(0.0963684 -0.0355974 0)
(0.102441 -0.00133035 0)
(0.0607391 0.0450994 0)
(-0.0208472 0.0604659 0)
(-0.0929939 0.0180179 0)
(-0.104008 0.0139552 0)
(-0.0640827 0.00994338 0)
(0.0957341 -0.096134 0)
(0.0400215 -0.303915 0)
(0.0338673 -0.254777 0)
(0.0493625 -0.228039 0)
(0.0574893 -0.220009 0)
(0.0681873 -0.207836 0)
(0.0790909 -0.17553 0)
(0.0792291 -0.121191 0)
(0.0748786 -0.0545827 0)
(0.0732504 -0.000438097 0)
(0.115781 0.0523588 0)
(0.143578 0.0939051 0)
(0.162333 0.130496 0)
(0.174915 0.157955 0)
(0.178263 0.155208 0)
(0.190359 0.126081 0)
(0.141703 0.0688844 0)
(-0.0514462 -0.0684002 0)
(-0.121173 -0.160214 0)
(-0.0804156 -0.187279 0)
(-0.0451106 -0.190613 0)
(-0.0217412 -0.194924 0)
(0.0806533 -0.0136674 0)
(0.101362 0.0209114 0)
(0.109434 0.0589137 0)
(0.076616 0.0779205 0)
(-0.0235935 0.117735 0)
(-0.0850382 0.0540509 0)
(-0.0984468 0.0272545 0)
(-0.0324691 0.077209 0)
(0.141339 -0.0618169 0)
(0.0298202 -0.252556 0)
(0.0379159 -0.258342 0)
(0.0446437 -0.241085 0)
(0.0536394 -0.22873 0)
(0.063737 -0.21036 0)
(0.0752504 -0.174614 0)
(0.0748442 -0.112317 0)
(0.0708808 -0.0329383 0)
(0.0812624 0.035312 0)
(0.107284 0.080274 0)
(0.128374 0.114682 0)
(0.140275 0.146105 0)
(0.14824 0.170804 0)
(0.148416 0.169299 0)
(0.159955 0.131123 0)
(-0.00959966 0.025178 0)
(-0.139616 -0.0849873 0)
(-0.128712 -0.120902 0)
(-0.0833977 -0.140787 0)
(-0.0471243 -0.148598 0)
(-0.0229093 -0.148833 0)
(0.0857259 0.0255097 0)
(0.10176 0.084226 0)
(0.0989656 0.132202 0)
(0.0616782 0.154552 0)
(-0.0327506 0.211733 0)
(-0.096714 0.196457 0)
(-0.0742255 0.181066 0)
(0.111882 0.271072 0)
(0.127036 -0.0680458 0)
(0.0535297 -0.228066 0)
(0.0488428 -0.248359 0)
(0.0470341 -0.247319 0)
(0.0496691 -0.23609 0)
(0.0553645 -0.213545 0)
(0.0646262 -0.17688 0)
(0.0637466 -0.110626 0)
(0.0611726 -0.0143237 0)
(0.0778219 0.0481139 0)
(0.0991368 0.0849442 0)
(0.113108 0.118562 0)
(0.119266 0.151697 0)
(0.120071 0.179111 0)
(0.110684 0.184682 0)
(0.115547 0.142992 0)
(-0.107821 0.0197335 0)
(-0.167851 -0.0541822 0)
(-0.135043 -0.0796063 0)
(-0.0899274 -0.0932804 0)
(-0.0515773 -0.0986921 0)
(-0.0245949 -0.0951882 0)
(0.0825436 0.0569553 0)
(0.0832483 0.140198 0)
(0.0699769 0.197991 0)
(0.0385433 0.231387 0)
(-0.0371053 0.310256 0)
(-0.0557768 0.382456 0)
(0.063138 0.401531 0)
(0.242285 0.316942 0)
(0.320293 -0.0737731 0)
(0.107749 -0.248759 0)
(0.0539401 -0.244107 0)
(0.046436 -0.252706 0)
(0.0451543 -0.245665 0)
(0.0458239 -0.222051 0)
(0.0493189 -0.183543 0)
(0.0463461 -0.11356 0)
(0.056295 -0.0016164 0)
(0.0838741 0.0535571 0)
(0.103603 0.0869184 0)
(0.110871 0.120402 0)
(0.10945 0.156099 0)
(0.0977325 0.189144 0)
(0.074648 0.206675 0)
(0.0628988 0.165957 0)
(-0.172938 0.0538717 0)
(-0.188861 -0.00854616 0)
(-0.14878 -0.0342225 0)
(-0.10442 -0.0484457 0)
(-0.0615141 -0.0484848 0)
(-0.0265715 -0.0350705 0)
(0.0457842 0.0805964 0)
(0.0318805 0.167426 0)
(0.0247223 0.230659 0)
(0.00769925 0.285344 0)
(-0.040487 0.374598 0)
(0.0469659 0.437751 0)
(0.180042 0.37647 0)
(0.291369 0.0991811 0)
(0.256049 -0.284608 0)
(0.203636 -0.473991 0)
(0.0503852 -0.272522 0)
(0.0444735 -0.256973 0)
(0.0451639 -0.256705 0)
(0.0404456 -0.233285 0)
(0.03367 -0.197814 0)
(0.031042 -0.12538 0)
(0.0747931 0.0112749 0)
(0.113786 0.0534988 0)
(0.123961 0.0851665 0)
(0.123164 0.120713 0)
(0.114812 0.161267 0)
(0.0926957 0.202567 0)
(0.0630104 0.234148 0)
(0.0178049 0.205685 0)
(-0.226934 0.102889 0)
(-0.202094 0.0500133 0)
(-0.163344 0.0204787 0)
(-0.120021 0.00386992 0)
(-0.0747879 0.00366427 0)
(-0.032443 0.0210696 0)
(-0.00137916 0.0725669 0)
(-0.0208358 0.175656 0)
(-0.0291434 0.245664 0)
(-0.0386452 0.303689 0)
(-0.0304417 0.379468 0)
(0.121984 0.326482 0)
(0.215234 0.014129 0)
(0.208975 -0.293638 0)
(0.186166 -0.4582 0)
(0.209001 -0.543483 0)
(0.207586 -0.588351 0)
(0.0982029 -0.34101 0)
(0.0815821 -0.343378 0)
(0.0827125 -0.319884 0)
(0.0557453 -0.243928 0)
(0.064276 -0.0605225 0)
(0.141171 0.0115912 0)
(0.144238 0.0468069 0)
(0.140596 0.0811539 0)
(0.134472 0.121771 0)
(0.122226 0.169471 0)
(0.098575 0.21946 0)
(0.0709844 0.258686 0)
(0.00598832 0.261419 0)
(-0.23795 0.167642 0)
(-0.205817 0.114677 0)
(-0.173348 0.0816601 0)
(-0.133683 0.0618681 0)
(-0.0864234 0.060963 0)
(-0.0372772 0.0761463 0)
(-0.0483033 0.0841479 0)
(-0.0752909 0.191219 0)
(-0.0727381 0.251442 0)
(-0.0522545 0.282803 0)
(0.0264857 0.218549 0)
(0.129257 -0.146393 0)
(0.125086 -0.37047 0)
(0.134806 -0.455956 0)
(0.177476 -0.51073 0)
(0.226762 -0.553586 0)
(0.274169 -0.592338 0)
(0.258786 -0.603046 0)
(0.238855 -0.591916 0)
(0.233016 -0.547521 0)
(0.227229 -0.420535 0)
(0.164173 -0.0425532 0)
(0.163912 -0.00115809 0)
(0.152005 0.0371792 0)
(0.141906 0.0781115 0)
(0.129862 0.126091 0)
(0.113957 0.179717 0)
(0.0918079 0.233997 0)
(0.0677378 0.27914 0)
(0.0271697 0.317455 0)
(-0.205621 0.241344 0)
(-0.193898 0.179035 0)
(-0.174064 0.144059 0)
(-0.139176 0.12051 0)
(-0.0935882 0.11709 0)
(-0.040728 0.128811 0)
(-0.0696811 -0.123548 0)
(-0.0498384 -0.117223 0)
(-0.0529179 0.0338386 0)
(0.00206884 -0.0156694 0)
(0.0618324 -0.290346 0)
(0.0782304 -0.440712 0)
(0.102383 -0.471549 0)
(0.151789 -0.494208 0)
(0.201021 -0.518201 0)
(0.250766 -0.553392 0)
(0.297725 -0.581437 0)
(0.320445 -0.582412 0)
(0.312352 -0.570896 0)
(0.301137 -0.529587 0)
(0.210244 -0.256584 0)
(0.18893 -0.0732296 0)
(0.170509 -0.0190718 0)
(0.154976 0.0262533 0)
(0.136142 0.0769091 0)
(0.115821 0.131941 0)
(0.0921552 0.189581 0)
(0.0679845 0.244562 0)
(0.0449028 0.29306 0)
(0.0210756 0.335951 0)
(-0.0622718 0.347652 0)
(-0.198334 0.238009 0)
(-0.164007 0.198339 0)
(-0.137211 0.169812 0)
(-0.0950399 0.160609 0)
(-0.0430648 0.166084 0)
(0.0120868 -0.497866 0)
(0.0169767 -0.49883 0)
(0.0356221 -0.471281 0)
(0.0551339 -0.467942 0)
(0.0725431 -0.476215 0)
(0.100437 -0.474978 0)
(0.13821 -0.47423 0)
(0.180489 -0.489463 0)
(0.228906 -0.515031 0)
(0.273562 -0.541692 0)
(0.313311 -0.562584 0)
(0.351231 -0.567094 0)
(0.357195 -0.553209 0)
(0.33605 -0.498178 0)
(0.209155 -0.147035 0)
(0.188676 -0.0926108 0)
(0.175681 -0.0401362 0)
(0.15604 0.0137449 0)
(0.133228 0.0715508 0)
(0.103524 0.13376 0)
(0.0726125 0.195571 0)
(0.0397565 0.253376 0)
(0.00855163 0.304063 0)
(-0.0175044 0.346533 0)
(-0.0594738 0.371816 0)
(-0.157536 0.316053 0)
(-0.165887 0.230297 0)
(-0.133784 0.193508 0)
(-0.0951707 0.177328 0)
(-0.0441666 0.176673 0)
(0.0140726 -0.477394 0)
(0.0226369 -0.4713 0)
(0.0479101 -0.458794 0)
(0.0706927 -0.452131 0)
(0.0960038 -0.448289 0)
(0.123098 -0.455057 0)
(0.16058 -0.463359 0)
(0.206692 -0.476627 0)
(0.254761 -0.500029 0)
(0.301158 -0.521784 0)
(0.339973 -0.530795 0)
(0.373111 -0.535137 0)
(0.392131 -0.5146 0)
(0.234419 -0.290285 0)
(0.212025 -0.174764 0)
(0.194802 -0.111306 0)
(0.179752 -0.0591353 0)
(0.158084 -0.000303572 0)
(0.127911 0.0646428 0)
(0.0954343 0.131957 0)
(0.0551879 0.198066 0)
(0.0161907 0.258275 0)
(-0.0262878 0.315081 0)
(-0.0627896 0.356079 0)
(-0.0896938 0.366457 0)
(-0.126597 0.340536 0)
(-0.155586 0.254334 0)
(-0.134254 0.193111 0)
(-0.09834 0.1663 0)
(-0.0478049 0.158106 0)
(0.0159335 -0.44278 0)
(0.027335 -0.440352 0)
(0.052634 -0.42903 0)
(0.0798973 -0.422454 0)
(0.109089 -0.424464 0)
(0.142722 -0.430992 0)
(0.182146 -0.442648 0)
(0.227171 -0.459976 0)
(0.272732 -0.480667 0)
(0.31984 -0.497559 0)
(0.364193 -0.503491 0)
(0.399359 -0.498058 0)
(0.418037 -0.477867 0)
(0.221725 -0.237141 0)
(0.211578 -0.180234 0)
(0.201871 -0.132048 0)
(0.185059 -0.0778682 0)
(0.158745 -0.0160968 0)
(0.124015 0.0540136 0)
(0.0842431 0.128536 0)
(0.0419362 0.193505 0)
(-0.00529321 0.269605 0)
(-0.077909 0.353061 0)
(-0.102953 0.374652 0)
(-0.109196 0.362672 0)
(-0.121337 0.322675 0)
(-0.129734 0.256993 0)
(-0.119125 0.189576 0)
(-0.095609 0.144135 0)
(-0.0547817 0.115064 0)
(0.0123007 -0.411568 0)
(0.0269383 -0.405419 0)
(0.0578245 -0.393162 0)
(0.0877387 -0.392433 0)
(0.121288 -0.394882 0)
(0.157939 -0.404414 0)
(0.197373 -0.418882 0)
(0.242564 -0.436166 0)
(0.291104 -0.454565 0)
(0.338205 -0.466769 0)
(0.383791 -0.467929 0)
(0.419453 -0.457024 0)
(0.415053 -0.42552 0)
(0.246269 -0.227853 0)
(0.226415 -0.190087 0)
(0.214183 -0.151067 0)
(0.193787 -0.100437 0)
(0.162153 -0.0368089 0)
(0.116546 0.0417907 0)
(0.0776401 0.130162 0)
(0.0155078 0.191182 0)
(-0.0935678 0.405731 0)
(-0.117306 0.431825 0)
(-0.109361 0.402319 0)
(-0.101323 0.363444 0)
(-0.0987128 0.310883 0)
(-0.0971562 0.246158 0)
(-0.0888771 0.182774 0)
(-0.0754546 0.128361 0)
(-0.0500555 0.074699 0)
(0.0127453 -0.375669 0)
(0.0283471 -0.370636 0)
(0.06175 -0.36138 0)
(0.0946572 -0.360181 0)
(0.130695 -0.365038 0)
(0.169134 -0.376896 0)
(0.210205 -0.392751 0)
(0.25774 -0.406898 0)
(0.307404 -0.42076 0)
(0.356811 -0.426567 0)
(0.400695 -0.423105 0)
(0.43265 -0.412898 0)
(0.414644 -0.378878 0)
(0.272954 -0.240484 0)
(0.246116 -0.20565 0)
(0.230293 -0.175137 0)
(0.205665 -0.127082 0)
(0.173702 -0.0678147 0)
(0.125456 -0.00680323 0)
(0.0694113 0.121595 0)
(0.146368 0.0938277 0)
(0.00972986 0.306646 0)
(-0.0654086 0.453258 0)
(-0.0686073 0.415566 0)
(-0.0663588 0.361098 0)
(-0.064555 0.300823 0)
(-0.0610664 0.235863 0)
(-0.0542722 0.173371 0)
(-0.0451917 0.116228 0)
(-0.0313884 0.0515882 0)
(0.0143467 -0.339031 0)
(0.0329501 -0.332385 0)
(0.0652415 -0.326292 0)
(0.0992048 -0.327804 0)
(0.135048 -0.337229 0)
(0.175895 -0.349873 0)
(0.220477 -0.363972 0)
(0.269606 -0.376665 0)
(0.321976 -0.384571 0)
(0.372153 -0.386531 0)
(0.41443 -0.380115 0)
(0.438673 -0.370442 0)
(0.432819 -0.35667 0)
(0.310169 -0.260842 0)
(0.263737 -0.226432 0)
(0.243391 -0.200279 0)
(0.221856 -0.160195 0)
(0.186239 -0.111394 0)
(0.267068 -0.246192 0)
(0.294373 -0.195932 0)
(0.320266 -0.107179 0)
(0.267436 0.00624489 0)
(0.141529 0.17915 0)
(0.0248054 0.361845 0)
(-0.0140427 0.355655 0)
(-0.0247638 0.291187 0)
(-0.0258489 0.222329 0)
(-0.0211653 0.16008 0)
(-0.0151757 0.104354 0)
(-0.0109136 0.0422974 0)
(0.0127186 -0.301432 0)
(0.0335043 -0.295761 0)
(0.0677135 -0.292576 0)
(0.103244 -0.295497 0)
(0.142673 -0.303194 0)
(0.184655 -0.315094 0)
(0.230292 -0.329687 0)
(0.281474 -0.33945 0)
(0.335497 -0.343084 0)
(0.384484 -0.341423 0)
(0.419681 -0.335658 0)
(0.432676 -0.331571 0)
(0.427608 -0.332068 0)
(0.39376 -0.330009 0)
(0.28879 -0.264003 0)
(0.263162 -0.236656 0)
(0.221801 -0.200118 0)
(0.277752 -0.349338 0)
(0.260153 -0.321482 0)
(0.257101 -0.192393 0)
(0.319411 -0.117673 0)
(0.348305 -0.0818607 0)
(0.329204 -0.0468293 0)
(0.262501 0.0255126 0)
(0.137532 0.167497 0)
(0.0118926 0.270664 0)
(0.00634435 0.204042 0)
(0.00900439 0.140519 0)
(0.0120797 0.0930908 0)
(0.0068751 0.0416429 0)
(0.011624 -0.261092 0)
(0.034703 -0.256002 0)
(0.0697454 -0.254274 0)
(0.106496 -0.259081 0)
(0.146919 -0.268381 0)
(0.191664 -0.280318 0)
(0.240892 -0.290942 0)
(0.293909 -0.297407 0)
(0.346553 -0.297438 0)
(0.389244 -0.29506 0)
(0.411616 -0.295908 0)
(0.413326 -0.300717 0)
(0.400607 -0.315768 0)
(0.38452 -0.333603 0)
(0.35584 -0.346205 0)
(0.311392 -0.327809 0)
(0.303362 -0.385747 0)
(0.264713 -0.361839 0)
(0.234611 -0.297923 0)
(0.224499 -0.15735 0)
(0.29879 -0.0824729 0)
(0.340503 -0.0634146 0)
(0.336906 -0.0511292 0)
(0.314892 -0.0374953 0)
(0.273504 -0.0290022 0)
(0.180886 0.0164337 0)
(0.0326248 0.168412 0)
(0.0390721 0.108288 0)
(0.0419546 0.080649 0)
(0.0320771 0.0503726 0)
(0.0109048 -0.216747 0)
(0.0369758 -0.212661 0)
(0.0722366 -0.213895 0)
(0.110701 -0.219611 0)
(0.15332 -0.228592 0)
(0.20004 -0.238361 0)
(0.250673 -0.24828 0)
(0.302218 -0.254104 0)
(0.349147 -0.253915 0)
(0.380736 -0.255884 0)
(0.390258 -0.266681 0)
(0.383836 -0.286866 0)
(0.36989 -0.308221 0)
(0.349665 -0.331405 0)
(0.325266 -0.354127 0)
(0.30488 -0.370002 0)
(0.286249 -0.368292 0)
(0.257371 -0.338851 0)
(0.217509 -0.269884 0)
(0.184383 -0.118789 0)
(0.247174 -0.0306372 0)
(0.306551 -0.0113191 0)
(0.302578 -0.000423797 0)
(0.285193 0.00464926 0)
(0.257119 -0.00823582 0)
(0.242979 -0.0506216 0)
(0.0500385 0.0385885 0)
(0.0503426 0.0691874 0)
(0.071611 0.0668894 0)
(0.0869281 0.0542712 0)
(0.00965229 -0.167818 0)
(0.039489 -0.165968 0)
(0.0753286 -0.169034 0)
(0.115691 -0.175433 0)
(0.16036 -0.183913 0)
(0.20871 -0.193309 0)
(0.258609 -0.2033 0)
(0.303996 -0.210736 0)
(0.337914 -0.217064 0)
(0.353696 -0.231121 0)
(0.354753 -0.254596 0)
(0.346884 -0.281634 0)
(0.330268 -0.309954 0)
(0.311917 -0.332819 0)
(0.296922 -0.347682 0)
(0.283213 -0.353014 0)
(0.27405 -0.344179 0)
(0.253369 -0.309752 0)
(0.184339 -0.231953 0)
(0.136944 -0.0703126 0)
(0.210128 0.0150711 0)
(0.247564 0.0423087 0)
(0.253089 0.0483972 0)
(0.244944 0.0436563 0)
(0.226167 0.0221172 0)
(0.230208 -0.0311934 0)
(0.233412 -0.097366 0)
(0.0758133 0.0126951 0)
(0.0601159 -0.0658519 0)
(0.0117366 -0.161031 0)
(0.00987762 -0.115517 0)
(0.042169 -0.116159 0)
(0.079434 -0.12135 0)
(0.121772 -0.128722 0)
(0.167773 -0.137198 0)
(0.216069 -0.146923 0)
(0.260486 -0.16072 0)
(0.290238 -0.177939 0)
(0.305781 -0.197755 0)
(0.312146 -0.222114 0)
(0.312179 -0.251316 0)
(0.304188 -0.282472 0)
(0.292303 -0.308695 0)
(0.282555 -0.324688 0)
(0.273203 -0.333722 0)
(0.264668 -0.334583 0)
(0.260782 -0.319736 0)
(0.234342 -0.274769 0)
(0.139008 -0.18097 0)
(0.0926588 -0.0138259 0)
(0.157433 0.0741261 0)
(0.206645 0.0863918 0)
(0.206506 0.0867702 0)
(0.191653 0.0806002 0)
(0.190212 0.0498832 0)
(0.193064 -0.0345721 0)
(0.191421 -0.114367 0)
(0.0357656 -0.240632 0)
(-0.0457317 -0.281351 0)
(-0.0519245 -0.196152 0)
(0.0112956 -0.0625041 0)
(0.045483 -0.0658006 0)
(0.0844845 -0.0737769 0)
(0.128245 -0.0827775 0)
(0.174403 -0.0917928 0)
(0.219372 -0.105384 0)
(0.24926 -0.131325 0)
(0.260349 -0.16434 0)
(0.265269 -0.192835 0)
(0.267898 -0.218872 0)
(0.267044 -0.248566 0)
(0.263377 -0.278171 0)
(0.258443 -0.30063 0)
(0.253208 -0.315115 0)
(0.249006 -0.320375 0)
(0.246405 -0.31761 0)
(0.241899 -0.290393 0)
(0.197347 -0.230905 0)
(0.0759909 -0.114392 0)
(0.0245861 0.0821671 0)
(0.106573 0.129181 0)
(0.149389 0.124043 0)
(0.15491 0.12539 0)
(0.142898 0.11475 0)
(0.15816 0.0580235 0)
(0.138601 -0.0562161 0)
(0.0685277 -0.168964 0)
(-0.085773 -0.288217 0)
(-0.0907411 -0.288472 0)
(-0.0835704 -0.241106 0)
(0.013593 -0.0124537 0)
(0.0499256 -0.0183125 0)
(0.0896107 -0.0310947 0)
(0.133391 -0.0444853 0)
(0.177278 -0.0584664 0)
(0.212398 -0.0811504 0)
(0.227561 -0.12137 0)
(0.231627 -0.160897 0)
(0.232901 -0.191592 0)
(0.232523 -0.218272 0)
(0.229959 -0.244483 0)
(0.227647 -0.269281 0)
(0.225047 -0.28956 0)
(0.224467 -0.304779 0)
(0.22405 -0.307474 0)
(0.224282 -0.298031 0)
(0.211923 -0.255158 0)
(0.133625 -0.176514 0)
(-0.00811087 -0.0691367 0)
(-0.0599013 0.137866 0)
(0.0530582 0.172046 0)
(0.094418 0.167108 0)
(0.0960911 0.170458 0)
(0.0890756 0.132787 0)
(0.119558 0.0269382 0)
(0.0643525 -0.0813858 0)
(-0.0825373 -0.226048 0)
(-0.133682 -0.304478 0)
(-0.103639 -0.29961 0)
(-0.0927832 -0.291476 0)
(0.0166942 0.0270937 0)
(0.0539225 0.0188742 0)
(0.0922532 -0.00211276 0)
(0.133145 -0.0221793 0)
(0.170027 -0.0446807 0)
(0.194904 -0.0778628 0)
(0.205254 -0.119954 0)
(0.208526 -0.159894 0)
(0.208192 -0.192226 0)
(0.20734 -0.218962 0)
(0.205274 -0.243211 0)
(0.203498 -0.26416 0)
(0.202397 -0.28104 0)
(0.202028 -0.294635 0)
(0.201333 -0.296069 0)
(0.199776 -0.279272 0)
(0.166579 -0.219112 0)
(0.0326585 -0.12704 0)
(-0.120371 0.0038486 0)
(-0.113992 0.176009 0)
(0.000563963 0.218993 0)
(0.0411223 0.213078 0)
(0.0342794 0.182656 0)
(0.0597767 0.100907 0)
(0.0507575 0.00400204 0)
(-0.0501825 -0.124872 0)
(-0.170021 -0.249574 0)
(-0.148705 -0.314503 0)
(-0.104149 -0.316354 0)
(-0.0904673 -0.320831 0)
(0.017931 0.0443277 0)
(0.0542736 0.0315423 0)
(0.088671 0.00147926 0)
(0.123253 -0.0262807 0)
(0.152243 -0.0552529 0)
(0.172293 -0.087613 0)
(0.183185 -0.124014 0)
(0.186717 -0.161669 0)
(0.18687 -0.193686 0)
(0.186087 -0.2204 0)
(0.185293 -0.243577 0)
(0.184701 -0.262675 0)
(0.184909 -0.278102 0)
(0.186237 -0.289903 0)
(0.182687 -0.290627 0)
(0.17055 -0.265632 0)
(0.0990487 -0.180779 0)
(-0.0546009 -0.0723148 0)
(-0.185838 0.0802695 0)
(-0.151701 0.208529 0)
(-0.0550824 0.238164 0)
(-0.0097994 0.201944 0)
(0.00338967 0.15755 0)
(0.0194639 0.0803439 0)
(-0.0373813 -0.0251837 0)
(-0.139673 -0.154234 0)
(-0.213616 -0.22664 0)
(-0.143232 -0.308908 0)
(-0.0979676 -0.324293 0)
(-0.0785798 -0.33307 0)
(0.0142376 0.0348224 0)
(0.0500142 0.0156977 0)
(0.0783911 -0.0198698 0)
(0.10586 -0.0495764 0)
(0.12897 -0.076854 0)
(0.147176 -0.103868 0)
(0.158856 -0.132802 0)
(0.16403 -0.165663 0)
(0.165282 -0.196986 0)
(0.164179 -0.223606 0)
(0.164934 -0.245529 0)
(0.166171 -0.263427 0)
(0.167551 -0.278042 0)
(0.169418 -0.289414 0)
(0.162594 -0.290723 0)
(0.128758 -0.254905 0)
(0.0246723 -0.120857 0)
(-0.132836 0.0226208 0)
(-0.223386 0.130406 0)
(-0.186853 0.2184 0)
(-0.0942542 0.23142 0)
(-0.047695 0.187256 0)
(-0.0262708 0.151618 0)
(-0.0354266 0.056707 0)
(-0.0971178 -0.0560489 0)
(-0.181108 -0.137633 0)
(-0.216944 -0.181295 0)
(-0.114297 -0.275321 0)
(-0.0850364 -0.319353 0)
(-0.0641653 -0.32934 0)
(0.00894861 0.00788933 0)