/*--------------------------------*- C++ -*----------------------------------*\
| =========                 |                                                 |
| \\      /  F ield         | OpenFOAM: The Open Source CFD Toolbox           |
|  \\    /   O peration     | Version:  2.3.0                                 |
|   \\  /    A nd           | Web:      www.OpenFOAM.org                      |
|    \\/     M anipulation  |                                                 |
\*---------------------------------------------------------------------------*/
FoamFile
{
    version     2.0;
    format      ascii;
    class       surfaceScalarField;
    location    "0.1";
    object      phi;
}
// * * * * * * * * * * * * * * * * * * * * * * * * * * * * * * * * * * * * * //

dimensions      [0 3 -1 0 0 0 0];

internalField   nonuniform List<scalar> 
11770
(
-5.44405e-06
5.37013e-05
-1.62762e-06
4.41861e-05
1.0366e-07
4.63405e-05
9.39189e-07
4.72622e-05
1.53305e-06
4.7508e-05
2.05097e-06
4.75822e-05
2.53855e-06
4.76083e-05
2.93272e-06
4.76997e-05
3.07975e-06
4.79578e-05
2.95366e-06
4.82377e-05
2.60767e-06
4.84628e-05
2.0913e-06
4.86374e-05
1.45805e-06
4.87576e-05
7.47169e-07
4.88372e-05
-1.64758e-09
4.88765e-05
-7.51247e-07
4.88772e-05
-1.46351e-06
4.88387e-05
-2.09814e-06
4.87589e-05
-2.61596e-06
4.86389e-05
-2.96287e-06
4.84638e-05
-3.08952e-06
4.82383e-05
-2.9423e-06
4.79575e-05
-2.54928e-06
4.7701e-05
-2.06261e-06
4.76091e-05
-1.5474e-06
4.75848e-05
-9.58067e-07
4.75124e-05
-1.26445e-07
4.72659e-05
1.60239e-06
4.6342e-05
5.41241e-06
4.41913e-05
5.36677e-05
-1.97744e-09
5.47814e-05
3.13503e-06
4.18861e-05
3.48899e-06
4.68387e-05
3.40908e-06
4.81943e-05
3.56317e-06
4.82033e-05
3.82118e-06
4.81719e-05
4.11219e-06
4.81641e-05
4.43957e-06
4.82197e-05
4.37988e-06
4.88694e-05
4.00892e-06
4.9465e-05
3.41815e-06
4.99134e-05
2.67386e-06
5.02441e-05
1.82754e-06
5.04681e-05
9.24335e-07
5.06058e-05
-2.82386e-09
5.06696e-05
-9.30905e-07
5.06713e-05
-1.8354e-06
5.06086e-05
-2.68319e-06
5.04709e-05
-3.42891e-06
5.02471e-05
-4.02101e-06
4.99156e-05
-4.39264e-06
4.94663e-05
-4.45103e-06
4.88678e-05
-4.12665e-06
4.82239e-05
-3.83563e-06
4.81649e-05
-3.57871e-06
4.81756e-05
-3.42982e-06
4.82129e-05
-3.51247e-06
4.82007e-05
-3.15196e-06
4.68334e-05
-6.47827e-09
4.18827e-05
5.47393e-05
5.86951e-06
4.84044e-05
6.43542e-06
4.08381e-05
7.79228e-06
4.50109e-05
8.45827e-06
4.707e-05
8.1098e-06
4.81065e-05
7.49923e-06
4.83475e-05
6.84498e-06
4.83914e-05
6.17427e-06
4.84691e-05
5.60574e-06
4.90181e-05
4.91894e-06
4.97332e-05
4.07217e-06
5.03423e-05
3.12012e-06
5.07788e-05
2.09866e-06
5.10727e-05
1.05328e-06
5.12345e-05
-3.7762e-09
5.131e-05
-1.06322e-06
5.13141e-05
-2.10937e-06
5.1238e-05
-3.13165e-06
5.10763e-05
-4.0849e-06
5.0783e-05
-4.93347e-06
5.03464e-05
-5.62303e-06
4.97373e-05
-6.19586e-06
4.90209e-05
-6.86754e-06
4.84743e-05
-7.52511e-06
4.83955e-05
-8.13416e-06
4.83497e-05
-8.47945e-06
4.81128e-05
-7.80041e-06
4.70632e-05
-6.42948e-06
4.49915e-05
-5.8459e-06
4.08172e-05
4.83863e-05
6.53274e-06
4.13327e-05
7.88747e-06
3.89447e-05
1.14134e-05
4.09478e-05
1.40319e-05
4.39161e-05
1.46114e-05
4.69939e-05
1.36302e-05
4.88014e-05
1.18252e-05
4.96758e-05
9.67971e-06
5.01e-05
7.9226e-06
5.02653e-05
6.42996e-06
5.07188e-05
5.04699e-06
5.12197e-05
3.7291e-06
5.15918e-05
2.45124e-06
5.18458e-05
1.2065e-06
5.19746e-05
-1.42095e-08
5.20261e-05
-1.22713e-06
5.20223e-05
-2.46777e-06
5.19739e-05
-3.743e-06
5.18467e-05
-5.06045e-06
5.15954e-05
-6.44451e-06
5.12247e-05
-7.9416e-06
5.07273e-05
-9.70479e-06
5.02741e-05
-1.1851e-05
5.01058e-05
-1.36641e-05
4.9688e-05
-1.46484e-05
4.88067e-05
-1.40537e-05
4.69852e-05
-1.14087e-05
4.38829e-05
-7.86465e-06
4.09105e-05
-6.50963e-06
3.89236e-05
4.13381e-05
3.11774e-06
3.76734e-05
8.13965e-06
3.33817e-05
1.30823e-05
3.54641e-05
1.67114e-05
3.97469e-05
1.82847e-05
4.48816e-05
1.76282e-05
4.89198e-05
1.56983e-05
5.10683e-05
1.31902e-05
5.20716e-05
1.05746e-05
5.23459e-05
8.24065e-06
5.25186e-05
6.23357e-06
5.2693e-05
4.46867e-06
5.28231e-05
2.88227e-06
5.28987e-05
1.39842e-06
5.29251e-05
-2.17879e-08
5.2913e-05
-1.42839e-06
5.28956e-05
-2.90215e-06
5.29143e-05
-4.48205e-06
5.28932e-05
-6.24166e-06
5.28215e-05
-8.24621e-06
5.26955e-05
-1.05797e-05
5.25266e-05
-1.31984e-05
5.23578e-05
-1.57165e-05
5.20876e-05
-1.76624e-05
5.10966e-05
-1.83366e-05
4.89428e-05
-1.67523e-05
4.48619e-05
-1.3096e-05
3.96866e-05
-8.12093e-06
3.53945e-05
-3.10428e-06
3.3366e-05
3.76926e-05
1.63458e-06
3.54964e-05
7.46747e-06
2.70176e-05
1.37324e-05
2.86674e-05
1.83799e-05
3.45648e-05
2.02817e-05
4.24421e-05
1.93844e-05
4.9278e-05
1.69228e-05
5.29915e-05
1.40547e-05
5.44017e-05
1.1215e-05
5.46479e-05
8.68493e-06
5.45111e-05
6.51768e-06
5.43228e-05
4.64485e-06
5.41586e-05
2.98467e-06
5.40217e-05
1.45231e-06
5.39203e-05
-1.2802e-08
5.38411e-05
-1.4737e-06
5.38196e-05
-3.00011e-06
5.39037e-05
-4.65384e-06
5.40098e-05
-6.51975e-06
5.41501e-05
-8.68152e-06
5.43199e-05
-1.12078e-05
5.45154e-05
-1.40517e-05
5.4664e-05
-1.69358e-05
5.44338e-05
-1.94213e-05
5.30438e-05
-2.03476e-05
4.93302e-05
-1.84497e-05
4.24265e-05
-1.37845e-05
3.4487e-05
-7.4835e-06
2.85618e-05
-1.63368e-06
2.6985e-05
3.55166e-05
2.65024e-06
3.23076e-05
7.03365e-06
2.21249e-05
1.23213e-05
2.28763e-05
1.69645e-05
2.94107e-05
1.96539e-05
3.92301e-05
1.94691e-05
4.89309e-05
1.705e-05
5.48744e-05
1.39402e-05
5.6974e-05
1.09875e-05
5.70629e-05
8.45501e-06
5.6506e-05
6.32064e-06
5.59196e-05
4.49834e-06
5.54434e-05
2.88834e-06
5.50942e-05
1.41484e-06
5.48564e-05
-3.24385e-09
5.47218e-05
-1.42656e-06
5.47055e-05
-2.89906e-06
5.48388e-05
-4.50402e-06
5.50773e-05
-6.31874e-06
5.54274e-05
-8.44344e-06
5.59071e-05
-1.0967e-05
5.65014e-05
-1.3914e-05
5.70734e-05
-1.70286e-05
5.70109e-05
-1.94732e-05
5.49523e-05
-1.96918e-05
4.9017e-05
-1.70357e-05
3.92482e-05
-1.24202e-05
2.93611e-05
-7.152e-06
2.27905e-05
-2.71528e-06
2.20389e-05
3.22625e-05
5.30712e-06
2.64845e-05
7.71951e-06
1.92305e-05
1.02969e-05
1.98323e-05
1.31628e-05
2.60697e-05
1.55981e-05
3.62998e-05
1.62995e-05
4.77146e-05
1.49307e-05
5.57161e-05
1.24605e-05
5.89122e-05
9.86547e-06
5.91244e-05
7.58262e-06
5.82553e-05
5.65612e-06
5.73125e-05
4.01887e-06
5.65471e-05
2.58301e-06
5.59966e-05
1.26738e-06
5.56386e-05
-9.4027e-10
5.54567e-05
-1.27723e-06
5.54485e-05
-2.59416e-06
5.56223e-05
-4.02592e-06
5.59756e-05
-5.65378e-06
5.65218e-05
-7.56571e-06
5.72855e-05
-9.8284e-06
5.82305e-05
-1.24006e-05
5.91121e-05
-1.48482e-05
5.89265e-05
-1.62142e-05
5.57913e-05
-1.55461e-05
4.78343e-05
-1.31771e-05
3.63847e-05
-1.04274e-05
2.61373e-05
-7.96594e-06
1.98632e-05
-5.49766e-06
1.90889e-05
2.62488e-05
6.71216e-06
1.92929e-05
8.41808e-06
1.70735e-05
8.56341e-06
1.92554e-05
8.93623e-06
2.52592e-05
9.96117e-06
3.48117e-05
1.0857e-05
4.63271e-05
1.07404e-05
5.53219e-05
9.56532e-06
5.95673e-05
7.88305e-06
6.02837e-05
6.17473e-06
5.94401e-05
4.65163e-06
5.83123e-05
3.31873e-06
5.73569e-05
2.13737e-06
5.6655e-05
1.04774e-06
5.62054e-05
-5.85687e-09
5.59876e-05
-1.06414e-06
5.5984e-05
-2.15474e-06
5.61901e-05
-3.33218e-06
5.66301e-05
-4.655e-06
5.73214e-05
-6.15963e-06
5.82668e-05
-7.83936e-06
5.93866e-05
-9.47738e-06
6.02271e-05
-1.05953e-05
5.95245e-05
-1.06612e-05
5.53463e-05
-9.75186e-06
4.64334e-05
-8.80572e-06
3.49759e-05
-8.63087e-06
2.55258e-05
-8.66806e-06
1.94698e-05
-6.96676e-06
1.69378e-05
1.88036e-05
6.52357e-06
1.23283e-05
8.06095e-06
1.51167e-05
6.77232e-06
2.01393e-05
4.97995e-06
2.66424e-05
4.49837e-06
3.48591e-05
5.20374e-06
4.51554e-05
6.0138e-06
5.40221e-05
6.1253e-06
5.89536e-05
5.54874e-06
6.03532e-05
4.59541e-06
5.98851e-05
3.57665e-06
5.8823e-05
2.59908e-06
5.78269e-05
1.68795e-06
5.7059e-05
8.25922e-07
5.65606e-05
-1.27553e-08
5.63196e-05
-8.51697e-07
5.63162e-05
-1.7137e-06
5.65453e-05
-2.6218e-06
5.7031e-05
-3.59093e-06
5.7783e-05
-4.59274e-06
5.87605e-05
-5.51378e-06
5.97994e-05
-6.03704e-06
6.02432e-05
-5.84796e-06
5.88332e-05
-4.93193e-06
5.39404e-05
-4.11939e-06
4.51543e-05
-4.60191e-06
3.5024e-05
-6.55479e-06
2.70692e-05
-8.06485e-06
2.05759e-05
-6.71195e-06
1.51674e-05
1.1653e-05
5.25489e-06
6.66722e-06
6.26635e-06
1.37111e-05
4.35729e-06
2.1657e-05
1.55123e-06
2.90505e-05
1.48758e-07
3.58482e-05
5.90935e-07
4.42717e-05
1.90657e-06
5.22405e-05
2.95683e-06
5.74228e-05
3.31276e-06
5.951e-05
3.10612e-06
5.96023e-05
2.59245e-06
5.88471e-05
1.9665e-06
5.79637e-05
1.30617e-06
5.72308e-05
6.4284e-07
5.67358e-05
-1.67724e-08
5.64913e-05
-6.75573e-07
5.64871e-05
-1.33915e-06
5.67207e-05
-1.99876e-06
5.72021e-05
-2.62074e-06
5.79158e-05
-3.12364e-06
5.87738e-05
-3.3067e-06
5.9493e-05
-2.90748e-06
5.93567e-05
-1.78382e-06
5.72289e-05
-3.46811e-07
5.20372e-05
2.60404e-07
4.41052e-05
-1.00651e-06
3.58766e-05
-3.79225e-06
2.94546e-05
-5.94997e-06
2.23404e-05
-5.24188e-06
1.40652e-05
6.00778e-06
3.15676e-06
3.13087e-06
3.69629e-06
1.27889e-05
1.7235e-06
2.32393e-05
-8.59319e-07
3.12365e-05
-2.5177e-06
3.7105e-05
-2.41835e-06
4.37524e-05
-1.06844e-06
5.04493e-05
4.30718e-07
5.54669e-05
1.40894e-06
5.80668e-05
1.78905e-06
5.87538e-05
1.72316e-06
5.84437e-05
1.41416e-06
5.78037e-05
9.81605e-07
5.71948e-05
4.93228e-07
5.6756e-05
-1.80567e-08
5.65346e-05
-5.29453e-07
5.65305e-05
-1.01944e-06
5.67425e-05
-1.45419e-06
5.71683e-05
-1.76539e-06
5.7758e-05
-1.83017e-06
5.83693e-05
-1.44305e-06
5.86375e-05
-4.43829e-07
5.78925e-05
1.09363e-06
5.52347e-05
2.5253e-06
5.01641e-05
2.77551e-06
4.34346e-05
1.34978e-06
3.68994e-05
-9.71022e-07
3.1376e-05
-2.976e-06
2.395e-05
-2.91658e-06
1.36209e-05
2.71384e-06
1.47874e-06
1.28658e-06
1.43273e-06
1.24535e-05
-1.82192e-07
2.446e-05
-1.92223e-06
3.25801e-05
-3.46428e-06
3.82508e-05
-3.75279e-06
4.36365e-05
-2.77931e-06
4.90566e-05
-1.30168e-06
5.35563e-05
-6.50168e-08
5.6388e-05
6.69771e-07
5.75724e-05
9.50786e-07
5.77142e-05
9.09187e-07
5.73964e-05
6.80834e-07
5.69744e-05
3.53164e-07
5.66353e-05
-1.83564e-08
5.64578e-05
-3.9047e-07
5.64544e-05
-7.21234e-07
5.66249e-05
-9.54647e-07
5.6953e-05
-1.00434e-06
5.73588e-05
-7.33679e-07
5.76502e-05
-9.91866e-09
5.74671e-05
1.2161e-06
5.62245e-05
2.69081e-06
5.3327e-05
3.68263e-06
4.8753e-05
3.47029e-06
4.32422e-05
2.14832e-06
3.78243e-05
8.27952e-07
3.22979e-05
-3.70369e-07
2.47495e-05
-1.24924e-06
1.41117e-05
1.10092e-06
4.46986e-07
4.75124e-07
1.2039e-07
1.23962e-05
-7.95138e-07
2.49806e-05
-1.9423e-06
3.33322e-05
-3.21831e-06
3.9133e-05
-3.80902e-06
4.38312e-05
-3.37002e-06
4.82141e-05
-2.26545e-06
5.20385e-05
-1.08178e-06
5.47829e-05
-2.10397e-07
5.62744e-05
2.71703e-07
5.68029e-05
4.38652e-07
5.67993e-05
3.87827e-07
5.65947e-05
2.11011e-07
5.63816e-05
-1.81698e-08
5.62565e-05
-2.48364e-07
5.62541e-05
-4.29607e-07
5.63756e-05
-4.88079e-07
5.6581e-05
-3.33808e-07
5.67744e-05
1.28522e-07
5.67588e-05
9.70721e-07
5.61984e-05
2.11429e-06
5.46596e-05
3.17286e-06
5.18553e-05
3.5735e-06
4.79488e-05
2.9857e-06
4.34337e-05
1.85862e-06
3.85569e-05
1.21297e-06
3.25472e-05
1.1719e-06
2.4393e-05
8.85613e-07
1.40024e-05
1.62063e-06
1.09136e-07
-8.16992e-09
-2.87295e-07
1.24108e-05
-6.23153e-07
2.4925e-05
-1.39208e-06
3.37091e-05
-2.42569e-06
3.97752e-05
-3.13736e-06
4.41511e-05
-3.16154e-06
4.78436e-05
-2.54165e-06
5.10184e-05
-1.63874e-06
5.34739e-05
-8.24973e-07
5.50499e-05
-2.68371e-07
5.58328e-05
2.33381e-08
5.60925e-05
1.13077e-07
5.60892e-05
7.6566e-08
5.6002e-05
-1.76469e-08
5.59345e-05
-1.13966e-07
5.59342e-05
-1.54792e-07
5.60003e-05
-7.50623e-08
5.60854e-05
1.99464e-07
5.60848e-05
7.27711e-07
5.5817e-05
1.49619e-06
5.50192e-05
2.32844e-06
5.34212e-05
2.85304e-06
5.09304e-05
2.72393e-06
4.76829e-05
1.92391e-06
4.38414e-05
9.4357e-07
3.91447e-05
6.24372e-07
3.24731e-05
1.16701e-06
2.34573e-05
2.18206e-06
1.25968e-05
3.41192e-06
6.98715e-07
-1.09273e-06
-6.30759e-07
1.3357e-05
-6.79648e-07
2.45889e-05
-1.03013e-06
3.36721e-05
-1.70417e-06
4.00605e-05
-2.33479e-06
4.43927e-05
-2.57762e-06
4.76959e-05
-2.34768e-06
5.03952e-05
-1.78958e-06
5.25189e-05
-1.16128e-06
5.40212e-05
-6.46355e-07
5.49149e-05
-3.03677e-07
5.53452e-05
-1.16804e-07
5.54968e-05
-3.91414e-08
5.55184e-05
-1.65918e-08
5.55059e-05
3.99175e-09
5.55075e-05
7.59089e-08
5.55225e-05
2.51769e-07
5.55041e-05
5.74965e-07
5.53571e-05
1.05607e-06
5.4933e-05
1.62577e-06
5.40492e-05
2.0854e-06
5.25647e-05
2.15856e-06
5.04639e-05
1.6703e-06
4.77805e-05
7.05444e-07
4.44167e-05
-2.64888e-07
3.97259e-05
-5.27355e-07
3.23488e-05
-1.57999e-07
2.27051e-05
8.40203e-07
1.12177e-05
3.85645e-06
7.99861e-07
-2.2763e-06
-6.3134e-07
1.43879e-05
-1.0721e-06
2.46442e-05
-1.10141e-06
3.33164e-05
-1.31597e-06
3.98885e-05
-1.70336e-06
4.43928e-05
-1.95721e-06
4.75616e-05
-1.93726e-06
4.99853e-05
-1.6617e-06
5.18512e-05
-1.24982e-06
5.32149e-05
-8.41441e-07
5.41101e-05
-5.12572e-07
5.46185e-05
-2.80699e-07
5.48662e-05
-1.26635e-07
5.4965e-05
-1.48415e-08
5.49945e-05
9.54762e-08
5.49977e-05
2.44863e-07
5.49738e-05
4.66992e-07
5.48832e-05
7.77904e-07
5.46483e-05
1.15443e-06
5.416e-05
1.50857e-06
5.33006e-05
1.68477e-06
5.19964e-05
1.51417e-06
5.02447e-05
9.28022e-07
4.79786e-05
2.48306e-08
4.49332e-05
-7.59739e-07
4.01261e-05
-9.21276e-07
3.21336e-05
-9.19082e-07
2.23302e-05
-1.56863e-06
1.14928e-05
1.8925e-06
-7.10895e-07
-1.9443e-06
-7.79973e-07
1.40539e-05
-1.37285e-06
2.48429e-05
-1.16797e-06
3.27256e-05
-1.02321e-06
3.93586e-05
-1.15923e-06
4.41427e-05
-1.38238e-06
4.73979e-05
-1.474e-06
4.9689e-05
-1.38927e-06
5.13771e-05
-1.16277e-06
5.25974e-05
-8.77171e-07
5.3432e-05
-6.01402e-07
5.3949e-05
-3.67132e-07
5.42374e-05
-1.76274e-07
5.43792e-05
-1.17875e-08
5.44349e-05
1.52166e-07
5.44386e-05
3.4065e-07
5.43904e-05
5.70001e-07
5.42594e-05
8.36716e-07
5.39879e-05
1.1048e-06
5.34995e-05
1.30072e-06
5.27137e-05
1.32808e-06
5.15798e-05
1.12284e-06
5.00622e-05
6.92276e-07
4.8023e-05
1.72788e-07
4.50682e-05
-1.53002e-07
4.00715e-05
-5.34078e-07
3.21417e-05
-1.45318e-06
2.28764e-05
-2.60096e-06
1.2247e-05
-1.10379e-06
-2.12951e-06
-2.04137e-07
-1.98737e-06
1.35091e-05
-1.54976e-06
2.40045e-05
-7.2995e-07
3.15168e-05
-3.76419e-07
3.86202e-05
-5.19036e-07
4.39002e-05
-8.02152e-07
4.72952e-05
-1.00375e-06
4.9504e-05
-1.06072e-06
5.10464e-05
-9.76592e-07
5.21245e-05
-8.03171e-07
5.28687e-05
-5.9451e-07
5.33497e-05
-3.86114e-07
5.36378e-05
-1.91402e-07
5.37928e-05
-7.75097e-09
5.38594e-05
1.7655e-07
5.38624e-05
3.72658e-07
5.38026e-05
5.83763e-07
5.3657e-05
7.97063e-07
5.33839e-05
9.79354e-07
5.29274e-05
1.07832e-06
5.22261e-05
1.04845e-06
5.12222e-05
9.06824e-07
4.98176e-05
7.17919e-07
4.78268e-05
6.49843e-07
4.4753e-05
6.40127e-07
3.97016e-05
-2.28829e-07
3.26332e-05
-1.43642e-06
2.36939e-05
-1.5201e-06
1.19307e-05
-3.00462e-06
-2.65639e-06
2.04842e-06
-2.93007e-06
1.33807e-05
-1.06745e-06
2.17468e-05
5.06839e-07
2.95559e-05
7.28303e-07
3.80135e-05
2.26963e-07
4.4017e-05
-2.10107e-07
4.73472e-05
-5.41676e-07
4.945e-05
-7.19757e-07
5.08381e-05
-7.50158e-07
5.17678e-05
-6.70538e-07
5.24014e-05
-5.28731e-07
5.28196e-05
-3.59357e-07
5.30796e-05
-1.82103e-07
5.32265e-05
-3.94476e-09
5.32921e-05
1.76034e-07
5.32932e-05
3.58471e-07
5.32311e-05
5.38318e-07
5.30884e-05
6.99562e-07
5.28344e-05
8.13944e-07
5.24253e-05
8.46481e-07
5.18066e-05
7.80771e-07
5.09019e-05
6.56313e-07
4.95569e-05
5.64833e-07
4.75341e-05
7.33892e-07
4.42011e-05
9.95633e-07
3.9059e-05
4.24038e-07
3.28163e-05
7.67833e-08
2.36436e-05
4.41779e-07
1.11663e-05
-2.93214e-06
-2.35725e-06
4.00339e-06
-1.03793e-06
1.16634e-05
1.21775e-06
1.91125e-05
2.23575e-06
2.81703e-05
2.29567e-06
3.75757e-05
1.19418e-06
4.47348e-05
4.11212e-07
4.77463e-05
-1.07588e-07
4.95843e-05
-4.0253e-07
5.07481e-05
-5.24531e-07
5.15043e-05
-5.20967e-07
5.20119e-05
-4.38152e-07
5.23504e-05
-3.10539e-07
5.25654e-05
-1.60763e-07
5.26899e-05
-1.92161e-09
5.27463e-05
1.5934e-07
5.2745e-05
3.16913e-07
5.26866e-05
4.60287e-07
5.25583e-05
5.7204e-07
5.23362e-05
6.27851e-07
5.19835e-05
6.00057e-07
5.14489e-05
4.77982e-07
5.0639e-05
2.82109e-07
4.93686e-05
6.93372e-08
4.73634e-05
-5.26602e-08
4.39408e-05
3.85302e-07
3.8237e-05
1.61742e-06
3.11902e-05
2.41668e-06
2.24471e-05
2.10572e-06
1.10785e-05
-1.21698e-06
4.47082e-07
3.1556e-06
3.90808e-06
7.81869e-06
4.40421e-06
1.82583e-05
3.86213e-06
2.83594e-05
3.28429e-06
3.7793e-05
1.96198e-06
4.56776e-05
8.55251e-07
4.84713e-05
1.96125e-07
4.98606e-05
-1.71247e-07
5.07319e-05
-3.47201e-07
5.12963e-05
-3.92224e-07
5.16725e-05
-3.5178e-07
5.19253e-05
-2.59184e-07
5.20879e-05
-1.37445e-07
5.21832e-05
-2.37411e-09
5.22261e-05
1.3499e-07
5.22226e-05
2.641e-07
5.21725e-05
3.71764e-07
5.20658e-05
4.39685e-07
5.18836e-05
4.44009e-07
5.15948e-05
3.56915e-07
5.11519e-05
1.52967e-07
5.04593e-05
-2.02671e-07
4.93411e-05
-7.3606e-07
4.75141e-05
-1.63023e-06
4.44526e-05
-1.28492e-06
3.75102e-05
1.31434e-06
2.82081e-05
3.31414e-06
2.00576e-05
2.6324e-06
1.13626e-05
1.01617e-06
2.58628e-06
1.6981e-07
5.89102e-06
4.15032e-06
4.9968e-06
1.87988e-05
3.13502e-06
2.98701e-05
2.09747e-06
3.84729e-05
1.53997e-06
4.5861e-05
7.48641e-07
4.88833e-05
2.16677e-07
5.00117e-05
-9.70557e-08
5.06638e-05
-2.59474e-07
5.10763e-05
-3.13212e-07
5.13435e-05
-2.91089e-07
5.15202e-05
-2.19712e-07
5.16334e-05
-1.19384e-07
5.16996e-05
-5.29328e-09
5.17287e-05
1.099e-07
5.17241e-05
2.13726e-07
5.16854e-05
2.92149e-07
5.16041e-05
3.26469e-07
5.14662e-05
2.91457e-07
5.12469e-05
1.54421e-07
5.09063e-05
-1.34974e-07
5.03664e-05
-6.7707e-07
4.95015e-05
-1.61595e-06
4.80719e-05
-3.10497e-06
4.55611e-05
-3.59285e-06
3.76315e-05
-3.23312e-06
2.74968e-05
-8.31866e-07
1.72886e-05
1.37447e-06
8.76114e-06
1.99304e-06
2.41136e-06
-2.62789e-06
4.58401e-06
1.61721e-06
4.08667e-06
1.89165e-05
2.75232e-06
3.08209e-05
9.05582e-07
3.99508e-05
6.08215e-07
4.57864e-05
2.928e-07
4.8821e-05
1.30898e-08
4.99124e-05
-1.68339e-07
5.04653e-05
-2.64728e-07
5.07921e-05
-2.91489e-07
5.09892e-05
-2.63955e-07
5.11114e-05
-1.98279e-07
5.11862e-05
-1.09536e-07
5.12293e-05
-9.6937e-09
5.12473e-05
8.9232e-08
5.12435e-05
1.75683e-07
5.12173e-05
2.36357e-07
5.11619e-05
2.53635e-07
5.10675e-05
2.03701e-07
5.09156e-05
5.41965e-08
5.06749e-05
-2.50007e-07
5.02902e-05
-8.1147e-07
4.96831e-05
-1.76189e-06
4.86436e-05
-2.73963e-06
4.6163e-05
-3.62913e-06
3.81682e-05
-5.52474e-06
2.90491e-05
-4.88474e-06
1.63031e-05
-1.25424e-06
4.7571e-06
3.42592e-07
1.69265e-06
-4.68601e-06
2.7578e-06
1.92844e-07
3.54086e-06
1.77491e-05
2.49229e-06
3.14874e-05
4.81553e-07
4.15812e-05
-8.81353e-08
4.59837e-05
-1.55643e-07
4.85119e-05
-2.44097e-07
4.96231e-05
-3.07288e-07
5.01501e-05
-3.2822e-07
5.04341e-05
-3.11961e-07
5.05937e-05
-2.64417e-07
5.06843e-05
-1.92922e-07
5.0735e-05
-1.06748e-07
5.07633e-05
-1.37123e-08
5.07744e-05
7.65321e-08
5.07734e-05
1.55124e-07
5.07589e-05
2.11509e-07
5.07258e-05
2.31593e-07
5.06678e-05
1.9802e-07
5.05697e-05
8.84906e-08
5.04053e-05
-1.27632e-07
5.01277e-05
-4.76545e-07
4.96541e-05
-9.17328e-07
4.87077e-05
-1.11813e-06
4.59924e-05
-2.79201e-06
3.94784e-05
-4.26471e-06
3.01493e-05
-4.88445e-06
1.65714e-05
-1.88359e-06
1.40129e-06
-1.93591e-06
2.85269e-06
-7.8943e-06
2.87152e-06
-2.08452e-07
2.85136e-06
1.73867e-05
1.20702e-06
3.27509e-05
1.58034e-07
4.22513e-05
-4.67165e-07
4.62331e-05
-4.78382e-07
4.81475e-05
-4.5175e-07
4.92198e-05
-4.34025e-07
4.97554e-05
-4.00738e-07
5.00235e-05
-3.47628e-07
5.0163e-05
-2.7787e-07
5.02367e-05
-1.96143e-07
5.02754e-05
-1.07088e-07
5.02962e-05
-1.56796e-08
5.03049e-05
7.24049e-08
5.03072e-05
1.51183e-07
5.03021e-05
2.13283e-07
5.02857e-05
2.49821e-07
5.02534e-05
2.50813e-07
5.01911e-05
2.05849e-07
5.00729e-05
1.11004e-07
4.98455e-05
-1.40703e-08
4.94027e-05
-1.42438e-07
4.84605e-05
-6.20389e-07
4.60986e-05
-2.43183e-06
4.09103e-05
-2.92708e-06
3.02625e-05
-2.88044e-06
1.61413e-05
-1.30215e-06
-5.31048e-07
-3.61376e-06
2.63934e-06
-1.08839e-05
2.3286e-06
-2.81008e-07
1.03188e-06
1.8302e-05
-2.81734e-07
3.36857e-05
-5.47057e-07
4.2139e-05
-6.79681e-07
4.59888e-05
-6.91035e-07
4.77837e-05
-6.00163e-07
4.87536e-05
-5.23904e-07
4.93033e-05
-4.50809e-07
4.95744e-05
-3.72761e-07
4.97089e-05
-2.87758e-07
4.97756e-05
-1.98032e-07
4.98094e-05
-1.05514e-07
4.98274e-05
-1.41132e-08
4.98372e-05
7.43448e-08
4.98425e-05
1.57025e-07
4.98431e-05
2.28469e-07
4.9838e-05
2.85156e-07
4.98205e-05
3.22841e-07
4.97773e-05
3.40962e-07
4.96788e-05
3.4648e-07
4.94643e-05
3.65225e-07
4.90086e-05
2.67686e-07
4.81832e-05
-3.48524e-07
4.63389e-05
-1.61923e-06
4.18024e-05
-3.0361e-06
3.12993e-05
-2.3531e-06
1.50755e-05
-1.17402e-06
-2.07719e-06
-5.14595e-06
1.23529e-06
-1.24681e-05
1.38716e-06
-8.14587e-07
-1.10507e-07
1.94201e-05
-1.0071e-06
3.42047e-05
-9.81135e-07
4.17368e-05
-8.37268e-07
4.54692e-05
-7.84391e-07
4.73557e-05
-6.80226e-07
4.8275e-05
-5.73485e-07
4.8822e-05
-4.73988e-07
4.91003e-05
-3.78955e-07
4.92391e-05
-2.85196e-07
4.93071e-05
-1.91816e-07
4.93413e-05
-9.87319e-08
4.93596e-05
-8.39821e-09
4.93722e-05
7.97367e-08
4.93796e-05
1.65352e-07
4.93828e-05
2.45256e-07
4.93834e-05
3.19289e-07
4.93718e-05
3.87915e-07
4.9334e-05
4.55121e-07
4.9237e-05
5.27435e-07
4.90175e-05
6.0617e-07
4.85556e-05
5.68423e-07
4.78456e-05
4.45106e-07
4.6086e-05
-1.98871e-07
4.20695e-05
-1.96622e-06
3.26878e-05
-3.04878e-06
1.57774e-05
-2.51709e-06
-2.99144e-06
-8.01354e-06
1.19121e-06
-1.40315e-05
1.1755e-06
-1.1591e-06
2.0103e-07
2.00285e-05
-7.20783e-07
3.47509e-05
-9.12212e-07
4.15535e-05
-8.5801e-07
4.50408e-05
-7.62257e-07
4.68859e-05
-6.816e-07
4.7821e-05
-5.74225e-07
4.83413e-05
-4.68415e-07
4.86212e-05
-3.67141e-07
4.87645e-05
-2.70622e-07
4.88373e-05
-1.77659e-07
4.88751e-05
-8.68402e-08
4.88956e-05
3.23921e-10
4.89118e-05
8.62048e-08
4.89205e-05
1.72618e-07
4.89231e-05
2.58209e-07
4.89245e-05
3.44624e-07
4.8912e-05
4.34685e-07
4.88706e-05
5.31932e-07
4.87664e-05
6.42394e-07
4.85337e-05
7.28109e-07
4.80966e-05
8.72221e-07
4.73267e-05
1.08492e-06
4.54983e-05
1.05888e-06
4.17199e-05
-1.25187e-07
3.3495e-05
-2.48046e-06
1.77533e-05
-3.03175e-06
-2.8212e-06
-1.13877e-05
1.78002e-06
-1.61829e-05
3.93134e-07
-1.29942e-07
-1.64434e-07
2.02304e-05
-5.7322e-07
3.47893e-05
-7.58604e-07
4.13663e-05
-7.66361e-07
4.46759e-05
-6.93051e-07
4.644e-05
-6.25141e-07
4.73808e-05
-5.30225e-07
4.78743e-05
-4.31594e-07
4.81505e-05
-3.35914e-07
4.8297e-05
-2.44408e-07
4.8374e-05
-1.56624e-07
4.84156e-05
-7.10285e-08
4.84383e-05
1.0756e-08
4.84583e-05
9.22363e-08
4.84673e-05
1.76444e-07
4.84672e-05
2.62634e-07
4.84665e-05
3.52843e-07
4.845e-05
4.49905e-07
4.84016e-05
5.57958e-07
4.82864e-05
6.81648e-07
4.8038e-05
7.75655e-07
4.763e-05
1.00292e-06
4.67262e-05
1.27541e-06
4.48522e-05
1.4262e-06
4.11949e-05
7.41035e-07
3.38047e-05
-1.4165e-06
1.95336e-05
-3.26442e-06
-1.35175e-06
-1.49939e-05
1.01735e-06
-1.75697e-05
1.01346e-07
4.06128e-07
-6.43465e-07
2.0616e-05
-7.13423e-07
3.44904e-05
-7.17628e-07
4.10002e-05
-6.77332e-07
4.42648e-05
-6.10385e-07
4.60021e-05
-5.37525e-07
4.6937e-05
-4.56272e-07
4.74224e-05
-3.70932e-07
4.76947e-05
-2.87448e-07
4.78431e-05
-2.07028e-07
4.79232e-05
-1.29081e-07
4.79674e-05
-5.24582e-08
4.79915e-05
2.16751e-08
4.80139e-05
9.62467e-08
4.80226e-05
1.74199e-07
4.8019e-05
2.55227e-07
4.80152e-05
3.40749e-07
4.79941e-05
4.32571e-07
4.79394e-05
5.32107e-07
4.78163e-05
6.35209e-07
4.75641e-05
7.3917e-07
4.71544e-05
8.97936e-07
4.61956e-05
1.01533e-06
4.43626e-05
9.6545e-07
4.08721e-05
4.41658e-07
3.3955e-05
-6.73416e-07
2.02791e-05
-2.34951e-06
-4.85824e-08
-1.7702e-05
5.47717e-08
-1.79876e-05
9.34128e-08
-1.69465e-08
-7.49143e-07
2.10836e-05
-7.62068e-07
3.41319e-05
-7.3471e-07
4.06039e-05
-6.18851e-07
4.37799e-05
-5.20245e-07
4.55342e-05
-4.36891e-07
4.64842e-05
-3.64952e-07
4.69813e-05
-2.95246e-07
4.7256e-05
-2.27742e-07
4.74067e-05
-1.62e-07
4.74888e-05
-9.71357e-08
4.75339e-05
-3.2452e-08
4.75582e-05
3.18191e-08
4.75811e-05
9.70708e-08
4.75887e-05
1.6529e-07
4.75822e-05
2.36488e-07
4.75754e-05
3.10803e-07
4.75511e-05
3.88348e-07
4.74929e-05
4.66843e-07
4.73687e-05
5.3721e-07
4.71244e-05
6.21158e-07
4.67004e-05
6.87261e-07
4.57593e-05
6.7678e-07
4.40027e-05
5.23248e-07
4.0655e-05
2.59418e-07
3.38507e-05
-2.45177e-07
2.04216e-05
-1.04773e-06
3.78737e-07
-1.91197e-05
-5.42289e-07
-1.78091e-05
-5.38192e-07
-4.03911e-07
-8.28203e-07
2.09938e-05
-8.73932e-07
3.38039e-05
-7.66873e-07
4.01272e-05
-5.54721e-07
4.32003e-05
-4.08777e-07
4.50206e-05
-3.18943e-07
4.60267e-05
-2.59389e-07
4.65542e-05
-2.09303e-07
4.68386e-05
-1.61327e-07
4.69916e-05
-1.13037e-07
4.70734e-05
-6.32242e-08
4.71171e-05
-1.25933e-08
4.71407e-05
4.02409e-08
4.71613e-05
9.46272e-08
4.71674e-05
1.50691e-07
4.71593e-05
2.09106e-07
4.715e-05
2.68377e-07
4.71247e-05
3.26993e-07
4.70671e-05
3.81086e-07
4.69472e-05
4.23673e-07
4.67141e-05
4.68013e-07
4.62878e-05
4.78425e-07
4.53804e-05
4.22871e-07
4.36896e-05
3.08676e-07
4.04008e-05
1.35558e-07
3.36587e-05
-2.39392e-07
2.04364e-05
-5.54372e-07
3.20435e-07
-2.00341e-05
-7.97493e-07
-1.73855e-05
-1.39358e-06
-1.89102e-07
-1.4389e-06
2.066e-05
-1.08349e-06
3.30737e-05
-6.7639e-07
3.93495e-05
-3.93745e-07
4.25511e-05
-2.33612e-07
4.44943e-05
-1.6491e-07
4.55919e-05
-1.35249e-07
4.61588e-05
-1.14135e-07
4.64519e-05
-9.09066e-08
4.6603e-05
-6.28189e-08
4.66801e-05
-2.96149e-08
4.67188e-05
5.69366e-09
4.67403e-05
4.64273e-08
4.67555e-05
8.94308e-08
4.67593e-05
1.31861e-07
4.67517e-05
1.76201e-07
4.67405e-05
2.19146e-07
4.67165e-05
2.581e-07
4.66626e-05
2.88706e-07
4.65509e-05
3.06148e-07
4.63307e-05
3.19417e-07
4.59081e-05
3.07241e-07
4.5026e-05
2.75327e-07
4.33547e-05
2.28937e-07
4.00805e-05
9.74747e-08
3.3424e-05
-1.97082e-07
2.03655e-05
-1.1057e-07
-1.37103e-07
-2.04986e-05
-1.03071e-06
-1.67356e-05
-3.0868e-06
1.48741e-06
-2.95506e-06
2.01501e-05
-1.27484e-06
3.10188e-05
-2.25358e-07
3.79289e-05
2.09486e-08
4.19384e-05
6.70999e-08
4.40835e-05
4.43043e-08
4.52504e-05
9.94004e-09
4.58291e-05
-1.29531e-08
4.6111e-05
-2.03694e-08
4.62468e-05
-1.45789e-08
4.63109e-05
1.09539e-09
4.63398e-05
2.15266e-08
4.63566e-05
5.01634e-08
4.63636e-05
8.17111e-08
4.63645e-05
1.10816e-07
4.63594e-05
1.4098e-07
4.6347e-05
1.67975e-07
4.6326e-05
1.88294e-07
4.62787e-05
1.97322e-07
4.6178e-05
1.91003e-07
4.59729e-05
1.79439e-07
4.55551e-05
1.50863e-07
4.46899e-05
1.24345e-07
4.30163e-05
1.18422e-07
3.97212e-05
6.244e-08
3.3114e-05
-8.9636e-08
2.01504e-05
1.81359e-07
-7.77193e-07
-2.06754e-05
-2.23853e-06
-1.48759e-05
-5.00809e-06
3.87986e-06
-3.6568e-06
1.8429e-05
-3.44458e-07
2.73373e-05
1.0574e-06
3.61579e-05
8.13414e-07
4.18166e-05
4.98294e-07
4.40354e-05
2.90469e-07
4.50956e-05
1.59373e-07
4.5598e-05
8.30108e-08
4.58255e-05
4.31784e-08
4.5925e-05
2.71662e-08
4.59654e-05
2.59698e-08
4.59796e-05
3.38644e-08
4.59874e-05
5.11777e-08
4.5985e-05
7.1671e-08
4.59827e-05
8.94333e-08
4.59802e-05
1.06081e-07
4.59689e-05
1.18284e-07
4.59523e-05
1.21508e-07
4.59137e-05
1.10383e-07
4.58272e-05
7.8434e-08
4.56426e-05
3.59175e-08
4.52351e-05
-3.14544e-08
4.43946e-05
-1.09453e-07
4.27314e-05
-1.55491e-07
3.94039e-05
-9.88781e-08
3.26933e-05
-6.87945e-09
1.96931e-05
2.66653e-07
-1.41773e-06
-2.07769e-05
-2.5546e-06
-1.26977e-05
-2.61149e-06
3.56224e-06
1.01832e-06
1.44508e-05
2.69519e-06
2.53322e-05
3.04763e-06
3.54538e-05
1.73241e-06
4.27688e-05
9.2232e-07
4.44838e-05
5.0141e-07
4.51559e-05
2.7704e-07
4.54621e-05
1.55107e-07
4.55875e-05
8.98695e-08
4.56306e-05
5.7127e-08
4.56387e-05
4.29932e-08
4.56344e-05
4.18194e-08
4.56292e-05
4.90984e-08
4.56184e-05
5.94857e-08
4.5613e-05
6.82787e-08
4.56121e-05
7.31252e-08
4.56046e-05
7.23404e-08
4.55935e-05
6.05098e-08
4.55658e-05
3.00488e-08
4.54977e-05
-2.70776e-08
4.53395e-05
-1.10192e-07
4.49578e-05
-2.42532e-07
4.41664e-05
-4.27021e-07
4.25551e-05
-6.34705e-07
3.92504e-05
-6.27653e-07
3.23242e-05
-2.93781e-08
1.87342e-05
6.24978e-07
-2.43225e-06
-2.05177e-05
-7.54488e-07
-1.23174e-05
1.98398e-06
4.61491e-07
3.61825e-06
1.24993e-05
3.93833e-06
2.46973e-05
3.38637e-06
3.56819e-05
1.97795e-06
4.38205e-05
1.03128e-06
4.50716e-05
5.59664e-07
4.52691e-05
3.15476e-07
4.53483e-05
1.83585e-07
4.53616e-05
1.11331e-07
4.53452e-05
7.21756e-08
4.53204e-05
5.17775e-08
4.52974e-05
4.43934e-08
4.52793e-05
4.37748e-08
4.52618e-05
4.57582e-08
4.52538e-05
4.68643e-08
4.52537e-05
4.28285e-08
4.52513e-05
3.17894e-08
4.5247e-05
7.95029e-09
4.5232e-05
-3.67526e-08
4.51845e-05
-1.14133e-07
4.50587e-05
-2.3977e-07
4.47252e-05
-4.51051e-07
4.40193e-05
-8.00572e-07
4.25462e-05
-1.38409e-06
3.94752e-05
-1.44466e-06
3.20283e-05
-3.97875e-07
1.7342e-05
6.11421e-07
-3.78747e-06
-2.02693e-05
-2.0267e-06
-1.06621e-05
1.55489e-06
-3.44656e-06
3.40857e-06
1.03315e-05
3.09715e-06
2.46967e-05
1.36511e-06
3.70871e-05
1.05627e-06
4.37808e-05
6.71917e-07
4.51002e-05
4.14978e-07
4.51701e-05
2.56883e-07
4.51506e-05
1.61734e-07
4.51012e-05
1.0491e-07
4.50467e-05
7.11913e-08
4.49989e-05
5.14492e-08
4.4962e-05
4.1248e-08
4.49345e-05
3.56945e-08
4.49124e-05
3.17586e-08
4.49027e-05
2.66315e-08
4.49037e-05
1.6586e-08
4.49062e-05
-6.26097e-10
4.49089e-05
-3.05588e-08
4.49064e-05
-8.20823e-08
4.48803e-05
-1.69154e-07
4.47898e-05
-3.18934e-07
4.4519e-05
-5.74856e-07
4.39193e-05
-1.01074e-06
4.2626e-05
-1.66027e-06
3.9769e-05
-1.96936e-06
3.19938e-05
-1.66234e-06
1.67088e-05
-5.78963e-07
-5.20235e-06
-2.12086e-05
-1.60677e-06
-9.38409e-06
3.96087e-07
-5.76268e-06
1.47865e-06
8.937e-06
5.19551e-07
2.53249e-05
-5.89574e-07
3.78471e-05
-8.238e-08
4.29274e-05
1.52804e-07
4.45119e-05
1.73042e-07
4.47966e-05
1.41785e-07
4.48286e-05
1.06411e-07
4.47834e-05
7.82342e-08
4.47218e-05
5.78439e-08
4.46663e-05
4.34731e-08
4.46236e-05
3.37634e-08
4.45914e-05
2.59263e-08
4.45675e-05
1.83504e-08
4.45576e-05
9.37388e-09
4.45599e-05
-3.78245e-09
4.45664e-05
-2.37046e-08
4.45758e-05
-5.48101e-08
4.45844e-05
-1.04363e-07
4.45765e-05
-1.84085e-07
4.45159e-05
-3.22595e-07
4.43039e-05
-5.47347e-07
4.37904e-05
-8.99056e-07
4.26244e-05
-1.29794e-06
3.98166e-05
-1.59644e-06
3.19554e-05
-1.42391e-06
1.62131e-05
-7.63563e-07
-6.18842e-06
-2.233e-05
-3.25342e-07
-9.36921e-06
1.19256e-06
-7.59112e-06
1.41887e-06
8.37535e-06
-2.04115e-07
2.65892e-05
-9.85243e-07
3.82707e-05
-5.21102e-07
4.21167e-05
-1.60604e-07
4.38009e-05
-1.70654e-08
4.43022e-05
3.31875e-08
4.44275e-05
4.62914e-08
4.44196e-05
4.52549e-08
4.43723e-05
3.93039e-08
4.43218e-05
3.19924e-08
4.42805e-05
2.42777e-08
4.42488e-05
1.56739e-08
4.42259e-05
6.01782e-09
4.4217e-05
-4.87441e-09
4.42205e-05
-1.8884e-08
4.423e-05
-3.80838e-08