/*--------------------------------*- C++ -*----------------------------------*\
| =========                 |                                                 |
| \\      /  F ield         | OpenFOAM: The Open Source CFD Toolbox           |
|  \\    /   O peration     | Version:  2.3.0                                 |
|   \\  /    A nd           | Web:      www.OpenFOAM.org                      |
|    \\/     M anipulation  |                                                 |
\*---------------------------------------------------------------------------*/
FoamFile
{
    version     2.0;
    format      ascii;
    class       volVectorField;
    location    "1.88";
    object      U;
}
// * * * * * * * * * * * * * * * * * * * * * * * * * * * * * * * * * * * * * //

dimensions      [0 1 -1 0 0 0 0];

internalField   nonuniform List<vector> 
6000
(
(-0.0293112 0.0648622 0)
(-0.0735515 0.00955579 0)
(-0.0920203 -0.0632222 0)
(-0.0959031 -0.139185 0)
(-0.0726205 -0.163739 0)
(-0.0570724 -0.149986 0)
(-0.0376584 -0.116334 0)
(-0.0394319 -0.0839487 0)
(-0.0601405 -0.0651747 0)
(-0.080051 -0.0489165 0)
(-0.106849 0.0108869 0)
(-0.185122 0.0590148 0)
(-0.256291 0.0908715 0)
(-0.31645 0.0850706 0)
(-0.358755 0.0973065 0)
(-0.381798 0.0935402 0)
(-0.390069 0.112136 0)
(-0.402247 0.128219 0)
(-0.427391 0.184724 0)
(-0.429041 0.170835 0)
(-0.365683 0.156036 0)
(-0.254323 0.159018 0)
(-0.135015 0.167317 0)
(-0.00682253 0.164507 0)
(0.118329 0.104393 0)
(0.193143 -0.0311674 0)
(0.171685 -0.0864727 0)
(0.145007 -0.0947138 0)
(0.12723 -0.103441 0)
(0.060032 0.0356356 0)
(-0.0126111 0.697186 0)
(-0.041447 0.678924 0)
(-0.0378875 0.704198 0)
(-0.059027 0.668481 0)
(-0.0890474 0.6421 0)
(-0.103217 0.656836 0)
(-0.0855504 0.640359 0)
(-0.0693667 0.666197 0)
(-0.0578623 0.702727 0)
(-0.102336 0.662769 0)
(-0.136737 0.666114 0)
(-0.257008 0.697594 0)
(-0.366136 0.745346 0)
(-0.46589 0.728085 0)
(-0.51416 0.65445 0)
(-0.493281 0.611019 0)
(-0.432452 0.573422 0)
(-0.392423 0.569374 0)
(-0.338423 0.546862 0)
(-0.285495 0.501523 0)
(-0.188217 0.391163 0)
(-0.127474 0.368379 0)
(-0.0785009 0.351759 0)
(-0.01957 0.336989 0)
(0.0563213 0.392578 0)
(0.172197 0.644818 0)
(0.147977 0.781799 0)
(0.079716 0.72634 0)
(0.0277544 0.766704 0)
(-0.019383 0.702028 0)
(-0.0495312 0.616479 0)
(-0.0924708 0.505072 0)
(-0.0723943 0.523126 0)
(-0.0888775 0.503531 0)
(-0.108362 0.491838 0)
(-0.112428 0.462042 0)
(-0.0856397 0.427003 0)
(-0.0615467 0.464721 0)
(-0.0144878 0.525059 0)
(-0.0261317 0.561868 0)
(-0.113528 0.631398 0)
(-0.244497 0.691624 0)
(-0.350848 0.712504 0)
(-0.422864 0.587864 0)
(-0.444073 0.479169 0)
(-0.397325 0.396482 0)
(-0.315727 0.370425 0)
(-0.238204 0.431209 0)
(-0.153436 0.43816 0)
(-0.0517095 0.358289 0)
(-0.00148098 0.299096 0)
(0.00134856 0.312556 0)
(-0.0146395 0.319243 0)
(-0.0355547 0.281722 0)
(-0.0482285 0.213309 0)
(0.0139113 0.37239 0)
(0.042791 0.560289 0)
(0.00286993 0.49192 0)
(0.0080425 0.554172 0)
(0.0124685 0.596919 0)
(-0.0547811 0.663708 0)
(-0.122507 0.48189 0)
(-0.118729 0.518697 0)
(-0.13919 0.50712 0)
(-0.129098 0.480795 0)
(-0.0979107 0.461349 0)
(-0.0729472 0.43077 0)
(-0.0440055 0.439766 0)
(-0.0111278 0.477153 0)
(-0.0507027 0.582148 0)
(-0.155468 0.814326 0)
(-0.23662 0.874425 0)
(-0.266324 0.872152 0)
(-0.277751 0.708408 0)
(-0.291384 0.514223 0)
(-0.265439 0.36983 0)
(-0.219965 0.300401 0)
(-0.122911 0.339685 0)
(0.020986 0.334224 0)
(0.0949516 0.284381 0)
(0.10977 0.296854 0)
(0.0983012 0.336593 0)
(0.068434 0.355826 0)
(0.00997193 0.322898 0)
(-0.0833474 0.234281 0)
(-0.118688 0.404239 0)
(-0.0768569 0.64829 0)
(-0.107253 0.579738 0)
(-0.0902178 0.557187 0)
(-0.03383 0.627006 0)
(-0.0301332 0.833984 0)
(-0.0722238 0.475028 0)
(-0.118344 0.530081 0)
(-0.119335 0.480571 0)
(-0.11374 0.379364 0)
(-0.0910095 0.377407 0)
(-0.0790883 0.360783 0)
(-0.0857549 0.348863 0)
(-0.131164 0.467617 0)
(-0.219526 0.803417 0)
(-0.272197 0.890282 0)
(-0.239369 0.85232 0)
(-0.189978 0.832674 0)
(-0.158406 0.748269 0)
(-0.165188 0.547893 0)
(-0.1455 0.325151 0)
(-0.0978889 0.193444 0)
(0.0133486 0.211574 0)
(0.115557 0.232959 0)
(0.161918 0.251087 0)
(0.181666 0.294451 0)
(0.196409 0.343682 0)
(0.178548 0.39785 0)
(0.00561177 0.412139 0)
(-0.189039 0.335728 0)
(-0.243701 0.374859 0)
(-0.186862 0.650536 0)
(-0.167219 0.566595 0)
(-0.164012 0.464047 0)
(-0.0814514 0.549357 0)
(0.0156936 0.960962 0)
(-0.0298917 0.656822 0)
(-0.0901883 0.624784 0)
(-0.0940455 0.608477 0)
(-0.118451 0.475356 0)
(-0.13501 0.421651 0)
(-0.161358 0.447272 0)
(-0.222353 0.501015 0)
(-0.325832 0.666223 0)
(-0.349086 0.802275 0)
(-0.282391 0.810115 0)
(-0.219604 0.77758 0)
(-0.15656 0.734601 0)
(-0.0938729 0.68751 0)
(-0.0545061 0.578278 0)
(-0.0270852 0.350496 0)
(0.0243224 0.138491 0)
(0.0991179 0.120071 0)
(0.15771 0.176125 0)
(0.19525 0.22548 0)
(0.228072 0.270517 0)
(0.254258 0.323343 0)
(0.181976 0.512674 0)
(-0.218973 0.753172 0)
(-0.343654 0.426793 0)
(-0.342594 0.313289 0)
(-0.246026 0.62798 0)
(-0.173939 0.563878 0)
(-0.185743 0.395022 0)
(-0.0959522 0.403094 0)
(0.0263323 0.849065 0)
(-0.0132322 0.721624 0)
(-0.0316152 0.603178 0)
(-0.0587118 0.608113 0)
(-0.102332 0.55161 0)
(-0.169 0.491749 0)
(-0.230348 0.536627 0)
(-0.292532 0.589816 0)
(-0.328509 0.666818 0)
(-0.312261 0.728402 0)
(-0.253037 0.743357 0)
(-0.201471 0.696133 0)
(-0.150942 0.66953 0)
(-0.0710695 0.611895 0)
(0.0334712 0.49494 0)
(0.103864 0.305057 0)
(0.137353 0.0832409 0)
(0.163968 0.0723535 0)
(0.188675 0.143928 0)
(0.211583 0.198279 0)
(0.220704 0.242935 0)
(0.170021 0.379232 0)
(-0.152324 0.944668 0)
(-0.443064 1.08885 0)
(-0.395936 0.396691 0)
(-0.369768 0.21991 0)
(-0.273754 0.53235 0)
(-0.162379 0.568346 0)
(-0.14876 0.339874 0)
(-0.0774956 0.257939 0)
(0.0103249 0.827727 0)
(-0.00505476 0.721208 0)
(0.00919665 0.58688 0)
(-0.0224353 0.601847 0)
(-0.0730081 0.586415 0)
(-0.139467 0.506656 0)
(-0.191237 0.548869 0)
(-0.233082 0.604319 0)
(-0.260228 0.659469 0)
(-0.257169 0.698616 0)
(-0.218211 0.676056 0)
(-0.177845 0.664873 0)
(-0.110028 0.61529 0)
(0.0297644 0.487748 0)
(0.149233 0.373696 0)
(0.207868 0.279957 0)
(0.192682 0.0632562 0)
(0.181202 0.0537266 0)
(0.189095 0.12164 0)
(0.189648 0.19008 0)
(0.113421 0.30389 0)
(-0.162479 0.69864 0)
(-0.454985 1.1243 0)
(-0.437486 1.10341 0)
(-0.367377 0.344565 0)
(-0.353175 0.146284 0)
(-0.289521 0.416129 0)
(-0.143271 0.519252 0)
(-0.0851068 0.296026 0)
(-0.0504268 0.162706 0)
(0.00183471 0.835264 0)
(0.00649237 0.695169 0)
(0.0514714 0.59375 0)
(0.0271632 0.648436 0)
(-0.0276374 0.648028 0)
(-0.0937507 0.55313 0)
(-0.138235 0.596687 0)
(-0.176545 0.648121 0)
(-0.206935 0.683535 0)
(-0.207572 0.674213 0)
(-0.182043 0.647905 0)
(-0.139847 0.611449 0)
(0.000785839 0.497898 0)
(0.16581 0.315379 0)
(0.237181 0.27224 0)
(0.241015 0.250133 0)
(0.162755 0.0631908 0)
(0.117557 0.0354265 0)
(0.0953736 0.122196 0)
(0.012071 0.274389 0)
(-0.253906 0.59753 0)
(-0.495576 0.985305 0)
(-0.491111 1.09934 0)
(-0.377943 1.02376 0)
(-0.330548 0.333351 0)
(-0.33235 0.0967296 0)
(-0.286122 0.298248 0)
(-0.134849 0.425153 0)
(-0.0344517 0.255834 0)
(-0.0184273 0.116254 0)
(0.0012981 0.850541 0)
(0.0251237 0.622105 0)
(0.0940023 0.57756 0)
(0.0861715 0.691601 0)
(0.025441 0.729358 0)
(-0.0432791 0.589783 0)
(-0.0913257 0.639665 0)
(-0.138743 0.69773 0)
(-0.174403 0.691292 0)
(-0.168738 0.664849 0)
(-0.152594 0.617462 0)
(-0.0690514 0.534622 0)
(0.117155 0.283105 0)
(0.251372 0.195548 0)
(0.259491 0.258372 0)
(0.23845 0.360746 0)
(0.146201 0.241612 0)
(0.015088 0.114028 0)
(-0.142315 0.266952 0)
(-0.358328 0.576886 0)
(-0.482281 0.79359 0)
(-0.489251 0.970201 0)
(-0.384457 0.981742 0)
(-0.317021 0.960497 0)
(-0.269706 0.356294 0)
(-0.267418 0.0612433 0)
(-0.23425 0.183703 0)
(-0.11446 0.304004 0)
(-0.0104436 0.189156 0)
(0.0121575 0.117265 0)
(0.0212757 0.862848 0)
(0.0612791 0.536448 0)
(0.129475 0.539907 0)
(0.140508 0.723367 0)
(0.0807368 0.825794 0)
(-0.0109948 0.638482 0)
(-0.0788595 0.675257 0)
(-0.129603 0.748042 0)
(-0.156941 0.712045 0)
(-0.148457 0.644445 0)
(-0.115193 0.596211 0)
(0.00641936 0.344496 0)
(0.170694 0.120909 0)
(0.193653 0.123681 0)
(0.202412 0.381471 0)
(0.1449 0.42752 0)
(0.0748975 0.351942 0)
(-0.0505295 0.312137 0)
(-0.245154 0.494441 0)
(-0.353145 0.649648 0)
(-0.403078 0.797465 0)
(-0.368831 0.884864 0)
(-0.289253 0.913193 0)
(-0.242507 0.877908 0)
(-0.17676 0.361884 0)
(-0.167155 0.018985 0)
(-0.145226 0.110238 0)
(-0.0735215 0.191295 0)
(-0.00961 0.121113 0)
(0.0127623 0.127767 0)
(0.0600079 0.818163 0)
(0.108949 0.468135 0)
(0.157818 0.492769 0)
(0.179495 0.739127 0)
(0.126683 0.936335 0)
(-0.000235004 0.71592 0)
(-0.0967017 0.733966 0)
(-0.143988 0.807371 0)
(-0.157667 0.717955 0)
(-0.154486 0.623766 0)
(-0.0753766 0.535124 0)
(0.0481514 0.158265 0)
(0.112919 0.0615301 0)
(0.114852 0.180783 0)
(0.102427 0.41435 0)
(0.0868033 0.441782 0)
(0.0240371 0.411765 0)
(-0.0723548 0.417506 0)
(-0.197374 0.584461 0)
(-0.265596 0.715808 0)
(-0.292572 0.785821 0)
(-0.254901 0.833641 0)
(-0.208074 0.835787 0)
(-0.177798 0.838791 0)
(-0.104243 0.336168 0)
(-0.0925203 0.00647706 0)
(-0.0962887 0.0829666 0)
(-0.0496851 0.126819 0)
(-0.016774 0.106906 0)
(0.000499864 0.122255 0)
(0.0824182 0.700787 0)
(0.137309 0.419879 0)
(0.171321 0.448167 0)
(0.196471 0.742632 0)
(0.150648 1.0605 0)
(-0.0104201 0.832787 0)
(-0.138585 0.810829 0)
(-0.178007 0.848803 0)
(-0.173696 0.702623 0)
(-0.158433 0.609636 0)
(-0.0468179 0.391631 0)
(0.0228565 0.0876001 0)
(0.0242918 0.0777675 0)
(0.0325417 0.210997 0)
(0.0900184 0.393547 0)
(0.116363 0.470804 0)
(0.0550706 0.523576 0)
(-0.0451587 0.508344 0)
(-0.123958 0.632672 0)
(-0.178829 0.742296 0)
(-0.186362 0.807826 0)
(-0.157359 0.785908 0)
(-0.148625 0.817236 0)
(-0.117666 0.797119 0)
(-0.0572562 0.272721 0)
(-0.0721526 0.0209961 0)
(-0.0664144 0.0694369 0)
(-0.045777 0.0933848 0)
(-0.0280581 0.0934423 0)
(-0.00271311 0.107868 0)
(0.0813606 0.578564 0)
(0.134251 0.381264 0)
(0.161711 0.411329 0)
(0.188016 0.736262 0)
(0.153118 1.20058 0)
(-0.0369629 0.981468 0)
(-0.199485 0.894416 0)
(-0.230832 0.853679 0)
(-0.21178 0.69779 0)
(-0.151204 0.564157 0)
(-0.0619027 0.265814 0)
(-0.0429294 0.0892589 0)
(-0.0704951 0.0989287 0)
(-0.0425693 0.12107 0)
(0.0457175 0.276589 0)
(0.129412 0.491629 0)
(0.0995119 0.598008 0)
(-0.00450868 0.627264 0)
(-0.0614394 0.658329 0)
(-0.102584 0.759444 0)
(-0.0959304 0.778252 0)
(-0.0964836 0.788215 0)
(-0.0926474 0.783272 0)
(-0.073237 0.791651 0)
(-0.0497095 0.217238 0)
(-0.0512218 0.0297249 0)
(-0.0440633 0.0639635 0)
(-0.0393521 0.0736357 0)
(-0.0274401 0.0775487 0)
(0.00195923 0.0885561 0)
(0.0730455 0.473822 0)
(0.116128 0.350734 0)
(0.136073 0.384643 0)
(0.159231 0.713006 0)
(0.146577 1.3386 0)
(-0.0560686 1.16624 0)
(-0.265572 0.987982 0)
(-0.300271 0.851084 0)
(-0.257201 0.649653 0)
(-0.149105 0.44982 0)
(-0.0967871 0.224875 0)
(-0.104692 0.13076 0)
(-0.119164 0.0903613 0)
(-0.0945957 0.0564538 0)
(-0.0285082 0.153101 0)
(0.0928252 0.428391 0)
(0.11904 0.677811 0)
(0.0330852 0.696907 0)
(-0.0370474 0.718668 0)
(-0.0648429 0.759067 0)
(-0.0643632 0.799112 0)
(-0.0670252 0.775464 0)
(-0.0646249 0.789347 0)
(-0.0372085 0.778845 0)
(-0.0215856 0.179977 0)
(-0.026594 0.0455254 0)
(-0.0260165 0.063978 0)
(-0.0253303 0.0642759 0)
(-0.0158967 0.0666958 0)
(0.00317 0.0798502 0)
(0.0647703 0.384204 0)
(0.0937753 0.331073 0)
(0.104322 0.372822 0)
(0.116329 0.679835 0)
(0.13209 1.4433 0)
(-0.0258903 1.4056 0)
(-0.27634 1.11779 0)
(-0.331888 0.852512 0)
(-0.272038 0.557203 0)
(-0.174905 0.347609 0)
(-0.1292 0.219851 0)
(-0.132774 0.151161 0)
(-0.125584 0.0754755 0)
(-0.115027 0.02369 0)
(-0.0902653 0.0746244 0)
(0.00817996 0.277992 0)
(0.0871752 0.727422 0)
(0.0384787 0.795521 0)
(-0.0362901 0.756976 0)
(-0.0750608 0.788508 0)
(-0.072473 0.787114 0)
(-0.0759701 0.785696 0)
(-0.0565711 0.7653 0)
(-0.0196015 0.750736 0)
(0.010881 0.151056 0)
(-0.000678958 0.0670603 0)
(-0.00677706 0.0685484 0)
(-0.00710709 0.062664 0)
(-0.00366072 0.0632984 0)
(0.0016355 0.0752736 0)
(0.0532129 0.315017 0)
(0.0607528 0.323711 0)
(0.0620971 0.373385 0)
(0.0588449 0.652504 0)
(0.102132 1.47952 0)
(0.0674183 1.6012 0)
(-0.191418 1.2984 0)
(-0.297471 0.868245 0)
(-0.250529 0.458411 0)
(-0.189204 0.27917 0)
(-0.151003 0.209471 0)
(-0.144317 0.141285 0)
(-0.138983 0.0660757 0)
(-0.143819 0.0230108 0)
(-0.130507 0.0404942 0)
(-0.0658893 0.159453 0)
(-0.00503348 0.714788 0)
(-0.00965235 0.854231 0)
(-0.0821866 0.825783 0)
(-0.10701 0.796961 0)
(-0.119397 0.800033 0)
(-0.117805 0.761765 0)
(-0.0956293 0.758314 0)
(-0.026905 0.686542 0)
(0.0201003 0.140049 0)
(0.0157454 0.0831744 0)
(0.0144676 0.0736722 0)
(0.0125409 0.0650729 0)
(0.00887227 0.0644296 0)
(0.00302114 0.0752583 0)
(0.0221167 0.276898 0)
(0.0134246 0.327966 0)
(0.00110324 0.38723 0)
(-0.0279564 0.639872 0)
(0.0612541 1.39542 0)
(0.1802 1.70066 0)
(-0.0103161 1.55103 0)
(-0.195258 0.951268 0)
(-0.205891 0.382554 0)
(-0.186881 0.235258 0)
(-0.161539 0.197635 0)
(-0.163731 0.135723 0)
(-0.170344 0.0752544 0)
(-0.177994 0.0257797 0)
(-0.159312 0.00779418 0)
(-0.122868 0.110643 0)
(-0.107163 0.651679 0)
(-0.10724 0.905844 0)
(-0.138669 0.851007 0)
(-0.177325 0.829094 0)
(-0.187311 0.786735 0)
(-0.19167 0.763405 0)
(-0.137684 0.723742 0)
(-0.0223804 0.555963 0)
(0.0408108 0.133387 0)
(0.0473956 0.0913764 0)
(0.0452958 0.077923 0)
(0.0393138 0.0694481 0)
(0.0291309 0.0716089 0)
(0.010074 0.0873427 0)
(-0.00621919 0.278393 0)
(-0.040321 0.351628 0)
(-0.0773952 0.42517 0)
(-0.136179 0.638853 0)
(-0.000700092 1.17822 0)
(0.253626 1.67879 0)
(0.209221 1.72297 0)
(-0.0190718 1.16299 0)
(-0.141432 0.384241 0)
(-0.177941 0.218511 0)
(-0.172858 0.198256 0)
(-0.194165 0.144177 0)
(-0.211702 0.0869177 0)
(-0.216124 0.0235283 0)
(-0.203405 -0.0207881 0)
(-0.189399 0.102481 0)
(-0.200635 0.655552 0)
(-0.221157 0.928479 0)
(-0.233792 0.901159 0)
(-0.268324 0.845391 0)
(-0.273108 0.803339 0)
(-0.254515 0.736793 0)
(-0.154 0.65969 0)
(0.00553342 0.36941 0)
(0.082698 0.123518 0)
(0.0892746 0.0942966 0)
(0.0835312 0.0824061 0)
(0.0755694 0.0777184 0)
(0.0615151 0.0883309 0)
(0.0241258 0.122198 0)
(-0.0331733 0.326588 0)
(-0.100756 0.402019 0)
(-0.15977 0.488219 0)
(-0.20984 0.624167 0)
(-0.0725671 0.897457 0)
(0.217649 1.46036 0)
(0.369942 1.86407 0)
(0.209736 1.41952 0)
(-0.0375303 0.50579 0)
(-0.173713 0.229072 0)
(-0.192053 0.222412 0)
(-0.226003 0.163718 0)
(-0.245075 0.0986537 0)
(-0.254609 0.0290756 0)
(-0.251539 -0.0270277 0)
(-0.258795 0.100332 0)
(-0.289208 0.692024 0)
(-0.32096 0.960556 0)
(-0.323581 0.92951 0)
(-0.343537 0.862739 0)
(-0.312354 0.764922 0)
(-0.24393 0.666758 0)
(-0.0702409 0.492573 0)
(0.0758461 0.21519 0)
(0.131563 0.112345 0)
(0.130251 0.0966104 0)
(0.125253 0.0887102 0)
(0.122984 0.0874689 0)
(0.117347 0.104333 0)
(0.0567635 0.172274 0)
(-0.0775519 0.404868 0)
(-0.181323 0.467843 0)
(-0.222063 0.538031 0)
(-0.214145 0.58846 0)
(-0.113028 0.693847 0)
(0.0770374 1.12803 0)
(0.353345 1.84666 0)
(0.338277 1.57081 0)
(0.1015 0.832521 0)
(-0.125562 0.297705 0)
(-0.189947 0.256427 0)
(-0.228187 0.195463 0)
(-0.247672 0.115877 0)
(-0.264826 0.0458605 0)
(-0.268489 -0.00695536 0)
(-0.303273 0.11092 0)
(-0.353354 0.729923 0)
(-0.371216 0.988572 0)
(-0.37209 0.957102 0)
(-0.357073 0.834106 0)
(-0.281164 0.713187 0)
(-0.119793 0.524425 0)
(0.065914 0.295557 0)
(0.152565 0.142337 0)
(0.168787 0.107792 0)
(0.166237 0.098488 0)
(0.169734 0.0891191 0)
(0.18267 0.0771768 0)
(0.200708 0.107916 0)
(0.131834 0.335212 0)
(-0.160073 0.561818 0)
(-0.241353 0.537972 0)
(-0.232558 0.526749 0)
(-0.177515 0.537723 0)
(-0.116889 0.60002 0)
(-0.040827 0.868791 0)
(0.187216 1.64388 0)
(0.311494 1.60755 0)
(0.152162 1.11498 0)
(-0.043593 0.449873 0)
(-0.143637 0.330736 0)
(-0.180697 0.234693 0)
(-0.204276 0.141336 0)
(-0.228783 0.0757518 0)
(-0.240146 0.039419 0)
(-0.293938 0.145337 0)
(-0.391747 0.743937 0)
(-0.378506 1.05796 0)
(-0.358421 0.963401 0)
(-0.28026 0.772878 0)
(-0.120803 0.535854 0)
(0.0572048 0.331698 0)
(0.157048 0.182169 0)
(0.186117 0.119852 0)
(0.186466 0.107577 0)
(0.188777 0.0965838 0)
(0.203483 0.0788537 0)
(0.245892 0.0477557 0)
(0.277656 0.0902061 0)
(0.148705 0.641954 0)
(-0.0529375 0.811397 0)
(-0.145312 0.52759 0)
(-0.199232 0.475507 0)
(-0.13763 0.491498 0)
(-0.110049 0.567794 0)
(-0.123535 0.848118 0)
(0.0101375 1.36802 0)
(0.207043 1.59418 0)
(0.218286 1.35581 0)
(0.0413855 0.605605 0)
(-0.0292362 0.392831 0)
(-0.0898485 0.271511 0)
(-0.14292 0.172559 0)
(-0.186727 0.107818 0)
(-0.216202 0.0884222 0)
(-0.264318 0.20036 0)
(-0.410935 0.742728 0)
(-0.35355 1.02794 0)
(-0.246251 0.889657 0)
(-0.10101 0.603658 0)
(0.055076 0.351625 0)
(0.14949 0.221757 0)
(0.185146 0.146984 0)
(0.185829 0.119218 0)
(0.183157 0.107661 0)
(0.189717 0.0891167 0)
(0.213147 0.0471609 0)
(0.290033 -0.0258636 0)
(0.219996 0.248765 0)
(0.0404105 0.783977 0)
(0.0559586 0.865761 0)
(0.00997318 0.725469 0)
(-0.0484299 0.461744 0)
(-0.0739004 0.441361 0)
(-0.0861248 0.575866 0)
(-0.143151 0.885743 0)
(-0.0807765 1.10099 0)
(0.140231 1.49913 0)
(0.378717 1.38497 0)
(0.261776 0.722081 0)
(0.126656 0.492669 0)
(-0.0131756 0.358512 0)
(-0.120123 0.238511 0)
(-0.180564 0.150177 0)
(-0.214175 0.139373 0)
(-0.276876 0.307155 0)
(-0.407959 0.72984 0)
(-0.289611 0.885611 0)
(-0.121644 0.720742 0)
(0.0375958 0.433564 0)
(0.125475 0.257096 0)
(0.156896 0.188654 0)
(0.163389 0.147494 0)
(0.158235 0.123207 0)
(0.154201 0.10571 0)
(0.154478 0.0763473 0)
(0.176041 0.0125474 0)
(0.195766 -0.0282055 0)
(0.0935016 0.419442 0)
(0.0119117 0.80475 0)
(0.0938492 0.723926 0)
(0.164452 0.737534 0)
(0.126687 0.593525 0)
(0.0266555 0.477567 0)
(-0.036964 0.662385 0)
(-0.0391846 0.890477 0)
(0.0784881 0.977181 0)
(0.303542 1.21153 0)
(0.568613 1.20127 0)
(0.511975 0.766184 0)
(0.294574 0.666621 0)
(0.0129586 0.514381 0)
(-0.143943 0.320309 0)
(-0.212808 0.190371 0)
(-0.247153 0.18861 0)
(-0.331931 0.423143 0)
(-0.362164 0.685076 0)
(-0.229266 0.719444 0)
(-0.0422019 0.540169 0)
(0.0834608 0.326435 0)
(0.125127 0.228483 0)
(0.133301 0.184705 0)
(0.130471 0.153526 0)
(0.12165 0.130012 0)
(0.109882 0.110582 0)
(0.0910274 0.0835069 0)
(0.0852852 0.0252612 0)
(0.0397553 0.00797385 0)
(-0.0464944 0.468656 0)
(0.0270798 0.842564 0)
(0.0493824 0.570068 0)
(0.129105 0.663132 0)
(0.161438 0.655889 0)
(0.108345 0.580671 0)
(0.0942781 0.694451 0)
(0.189458 0.814166 0)
(0.340436 0.815757 0)
(0.450939 0.840603 0)
(0.520256 0.936833 0)
(0.424891 0.875845 0)
(0.153757 0.91158 0)
(-0.122583 0.682224 0)
(-0.213489 0.379831 0)
(-0.251774 0.19379 0)
(-0.354387 0.240599 0)
(-0.391057 0.480274 0)
(-0.318966 0.599166 0)
(-0.166178 0.555451 0)
(-1.58843e-05 0.391566 0)
(0.0808898 0.272616 0)
(0.106258 0.216394 0)
(0.111033 0.184452 0)
(0.105713 0.16143 0)
(0.0928681 0.143592 0)
(0.0729576 0.129758 0)
(0.0418245 0.116474 0)
(-0.00105119 0.0958636 0)
(-0.0387988 0.0863717 0)
(-0.154887 0.38136 0)
(-0.0152612 0.899182 0)
(-0.00929482 0.54882 0)
(0.0368254 0.617008 0)
(0.0920228 0.638002 0)
(0.143133 0.611804 0)
(0.21273 0.59652 0)
(0.269408 0.540442 0)
(0.256752 0.510352 0)
(0.220635 0.877096 0)
(0.144381 1.24434 0)
(-0.0481677 1.48097 0)
(-0.309526 1.46127 0)
(-0.530183 1.1615 0)
(-0.576612 0.559776 0)
(-0.452618 0.17731 0)
(-0.43388 0.265045 0)
(-0.378723 0.402269 0)
(-0.253712 0.469589 0)
(-0.0905176 0.399203 0)
(0.0252491 0.293489 0)
(0.0777937 0.236153 0)
(0.0976506 0.205449 0)
(0.101556 0.185937 0)
(0.0951847 0.171635 0)
(0.0805728 0.161766 0)
(0.0575958 0.156627 0)
(0.0246574 0.15572 0)
(-0.0203207 0.159236 0)
(-0.055173 0.171295 0)
(-0.146116 0.32231 0)
(-0.130351 0.814203 0)
(-0.020002 0.421612 0)
(-0.000695512 0.448347 0)
(0.051684 0.463072 0)
(0.106313 0.390219 0)
(0.107615 0.403064 0)
(0.0376083 0.693287 0)
(-0.139862 0.990304 0)
(-0.366962 1.32948 0)
(-0.494752 1.49526 0)
(-0.562696 1.51889 0)
(-0.583883 1.40824 0)
(-0.583724 1.06986 0)
(-0.542703 0.531494 0)
(-0.450352 0.175771 0)
(-0.384149 0.187628 0)
(-0.285082 0.291327 0)
(-0.150747 0.330456 0)
(-0.0155432 0.276527 0)
(0.0572882 0.230885 0)
(0.0909093 0.20941 0)
(0.105024 0.19716 0)
(0.106868 0.188763 0)
(0.0997021 0.182861 0)
(0.0845274 0.180867 0)
(0.06019 0.184346 0)
(0.0264277 0.192831 0)
(-0.0158875 0.208458 0)
(-0.0624507 0.234258 0)
(-0.0893955 0.316944 0)
(-0.100755 0.593452 0)
(0.0047955 0.563417 0)
(-0.0195585 0.549395 0)
(-0.0514156 0.5578 0)
(-0.143238 0.653864 0)
(-0.318106 0.861217 0)
(-0.510399 1.07298 0)
(-0.657214 1.1933 0)
(-0.729685 1.28821 0)
(-0.713034 1.35984 0)
(-0.656014 1.38128 0)
(-0.557224 1.27503 0)
(-0.426829 0.916209 0)
(-0.301709 0.409419 0)
(-0.207184 0.0925343 0)
(-0.172999 0.112753 0)
(-0.112138 0.189442 0)
(-0.0166369 0.216491 0)
(0.0587899 0.200548 0)
(0.0972785 0.19347 0)
(0.116903 0.192118 0)
(0.125172 0.192117 0)
(0.124735 0.192549 0)
(0.116783 0.194328 0)
(0.100984 0.201022 0)
(0.0726335 0.2159 0)
(0.0321204 0.233203 0)
(-0.0127148 0.25567 0)
(-0.0562864 0.284613 0)
(-0.0853011 0.339762 0)
(-0.0505351 0.425567 0)
(-0.0315443 0.756487 0)
(-0.132398 0.786674 0)
(-0.272188 0.805909 0)
(-0.430173 0.844986 0)
(-0.566423 0.913639 0)
(-0.657744 1.01703 0)
(-0.702359 1.11484 0)
(-0.706033 1.21138 0)
(-0.65066 1.27348 0)
(-0.552261 1.26703 0)
(-0.398211 1.12362 0)
(-0.210324 0.746828 0)
(-0.060091 0.291791 0)
(0.00306662 0.0408737 0)
(0.0163653 0.0604147 0)
(0.0461133 0.127053 0)
(0.0914846 0.152935 0)
(0.121716 0.163227 0)
(0.139542 0.173275 0)
(0.149916 0.182202 0)
(0.153946 0.18998 0)
(0.152116 0.197145 0)
(0.145041 0.205922 0)
(0.129775 0.22017 0)
(0.0951849 0.250193 0)
(0.0417966 0.271983 0)
(-0.00721968 0.29433 0)
(-0.0464645 0.323012 0)
(-0.0621541 0.357403 0)
(-0.0314992 0.395481 0)
(-0.0472395 0.678937 0)
(-0.158324 0.760279 0)
(-0.282746 0.807503 0)
(-0.408923 0.860595 0)
(-0.510102 0.941144 0)
(-0.572235 1.03706 0)
(-0.597887 1.12648 0)
(-0.568853 1.17377 0)
(-0.492341 1.1716 0)
(-0.382015 1.12325 0)
(-0.209249 0.940881 0)
(-0.0128626 0.565714 0)
(0.120972 0.198577 0)
(0.148775 0.0332721 0)
(0.135949 0.0559441 0)
(0.147785 0.105065 0)
(0.163401 0.128526 0)
(0.173818 0.147123 0)
(0.181642 0.163116 0)
(0.186523 0.176955 0)
(0.188398 0.189335 0)
(0.186507 0.20127 0)
(0.17883 0.214265 0)
(0.157498 0.24503 0)
(0.113488 0.297148 0)
(0.0506002 0.306646 0)
(-0.00369891 0.320457 0)
(-0.0422803 0.343553 0)
(-0.0506967 0.348593 0)
(-0.024696 0.352163 0)
(-0.043479 0.757831 0)
(-0.137661 0.848105 0)
(-0.235622 0.915365 0)
(-0.326963 0.962175 0)
(-0.395072 1.01544 0)
(-0.432559 1.07514 0)
(-0.436306 1.11935 0)
(-0.390839 1.11675 0)
(-0.323194 1.07243 0)
(-0.217561 0.985868 0)
(-0.0450685 0.759498 0)
(0.13331 0.415463 0)
(0.239103 0.125456 0)
(0.233982 0.0446822 0)
(0.214794 0.0710656 0)
(0.217351 0.0990475 0)
(0.21852 0.12096 0)
(0.220212 0.140843 0)
(0.222443 0.158233 0)
(0.22467 0.174164 0)
(0.225811 0.188452 0)
(0.223747 0.204006 0)
(0.212963 0.226078 0)
(0.189295 0.274988 0)
(0.167651 0.364804 0)
(0.141412 0.432349 0)
(0.0303427 0.437619 0)
(-0.00981542 0.389769 0)
(-0.0261275 0.348571 0)
(-0.016599 0.305542 0)
(-0.035991 0.831933 0)
(-0.109483 0.927179 0)
(-0.179061 0.995177 0)
(-0.237141 1.0267 0)
(-0.275203 1.05476 0)
(-0.28838 1.08047 0)
(-0.274272 1.08829 0)
(-0.230208 1.06206 0)
(-0.177985 0.993658 0)
(-0.0714877 0.857023 0)
(0.0941228 0.582077 0)
(0.249178 0.266267 0)
(0.312833 0.0860477 0)
(0.284646 0.0654921 0)
(0.275511 0.0853631 0)
(0.27049 0.102027 0)
(0.264385 0.121573 0)
(0.26104 0.140125 0)
(0.259839 0.156692 0)
(0.260481 0.171252 0)
(0.262174 0.185798 0)
(0.263124 0.20566 0)
(0.259055 0.244922 0)
(0.253396 0.328075 0)
(0.222517 0.399198 0)
(0.197188 0.438791 0)
(0.184136 0.464523 0)
(0.0650568 0.466578 0)
(0.012011 0.404215 0)
(0.00818643 0.290362 0)
(-0.0298704 0.901749 0)
(-0.0873492 0.990288 0)
(-0.133097 1.04124 0)
(-0.163146 1.05677 0)
(-0.174893 1.06364 0)
(-0.169564 1.07038 0)
(-0.143146 1.05556 0)
(-0.106613 1.01816 0)
(-0.0587044 0.925955 0)
(0.0577658 0.72728 0)
(0.215315 0.436374 0)
(0.338983 0.162232 0)
(0.352976 0.0803247 0)
(0.324643 0.0907134 0)
(0.321884 0.096639 0)
(0.311334 0.110567 0)
(0.301389 0.127597 0)
(0.293972 0.144017 0)
(0.288548 0.158783 0)
(0.284992 0.171795 0)
(0.283271 0.185966 0)
(0.282051 0.210052 0)
(0.279431 0.259823 0)
(0.269329 0.334771 0)
(0.251078 0.398792 0)
(0.22979 0.453866 0)
(0.216179 0.489397 0)
(0.160607 0.527967 0)
(0.0322647 0.461828 0)
(0.0422137 0.318215 0)
(-0.0242055 0.956522 0)
(-0.0678478 1.03815 0)
(-0.0965986 1.07122 0)
(-0.107352 1.06907 0)
(-0.101471 1.0561 0)
(-0.0830246 1.04904 0)
(-0.0453212 1.02067 0)
(-0.0130928 0.974207 0)
(0.0533929 0.850526 0)
(0.179156 0.58787 0)
(0.321904 0.283156 0)
(0.398559 0.105236 0)
(0.369584 0.101347 0)
(0.364693 0.103999 0)
(0.357417 0.109337 0)
(0.343563 0.122653 0)
(0.330605 0.138085 0)
(0.318536 0.153126 0)
(0.306758 0.166779 0)
(0.295378 0.178257 0)
(0.285155 0.19074 0)
(0.27428 0.216675 0)
(0.265389 0.265555 0)
(0.257526 0.339462 0)
(0.242996 0.412133 0)
(0.221218 0.483692 0)
(0.199182 0.534365 0)
(0.148679 0.61514 0)
(0.0341922 0.508119 0)
(0.0465788 0.366723 0)
(-0.0199332 0.999932 0)
(-0.0522831 1.07066 0)
(-0.0678252 1.0833 0)
(-0.0653086 1.06547 0)
(-0.0476841 1.03863 0)
(-0.0169651 1.01761 0)
(0.0284445 0.982625 0)
(0.0662931 0.92598 0)
(0.158583 0.756727 0)
(0.293094 0.468113 0)
(0.405515 0.175714 0)
(0.422462 0.100575 0)
(0.397613 0.11628 0)
(0.398599 0.114882 0)
(0.386143 0.123769 0)
(0.370893 0.137322 0)
(0.355262 0.152421 0)
(0.338747 0.167717 0)
(0.320539 0.182592 0)
(0.301662 0.19365 0)
(0.285035 0.20467 0)
(0.257796 0.234707 0)
(0.23275 0.274234 0)
(0.220669 0.354626 0)
(0.198645 0.43806 0)
(0.169202 0.522925 0)
(0.137085 0.586378 0)
(0.099403 0.664794 0)
(0.0299205 0.594029 0)
(-0.000354666 0.415727 0)
(-0.0164226 1.03428 0)
(-0.039394 1.09059 0)
(-0.0444083 1.08471 0)
(-0.0312484 1.05116 0)
(-0.00555179 1.01182 0)
(0.0370447 0.97237 0)
(0.0859672 0.937475 0)
(0.140785 0.861842 0)
(0.257988 0.641901 0)
(0.391908 0.326908 0)
(0.460726 0.120609 0)
(0.431465 0.124043 0)
(0.433115 0.12199 0)
(0.426796 0.127328 0)
(0.412384 0.139141 0)
(0.396434 0.153542 0)
(0.379358 0.169915 0)
(0.359941 0.187563 0)
(0.335472 0.204607 0)
(0.311362 0.212359 0)
(0.293402 0.218552 0)
(0.23862 0.282556 0)
(0.175508 0.283998 0)
(0.162933 0.378246 0)
(0.131355 0.469248 0)
(0.0971194 0.557486 0)
(0.0659118 0.622635 0)
(0.0396117 0.676252 0)
(0.0502639 0.615597 0)
(0.0147083 0.427319 0)
(-0.0128774 1.0618 0)
(-0.0266703 1.10151 0)
(-0.0223241 1.07683 0)
(-0.000176103 1.02658 0)
(0.0335785 0.976671 0)
(0.0854716 0.917997 0)
(0.136838 0.884825 0)
(0.220828 0.774171 0)
(0.356746 0.525677 0)
(0.466986 0.220615 0)
(0.474676 0.124647 0)
(0.462124 0.128116 0)
(0.463394 0.130608 0)
(0.452341 0.140693 0)
(0.43842 0.154813 0)
(0.423003 0.17103 0)
(0.405518 0.188454 0)
(0.383101 0.206531 0)
(0.35152 0.229942 0)
(0.319825 0.234436 0)
(0.306845 0.245156 0)
(0.243534 0.396371 0)
(0.107809 0.298131 0)
(0.0979138 0.41344 0)
(0.0642068 0.499129 0)
(0.0401748 0.583899 0)
(0.027854 0.639032 0)
(0.0406492 0.646405 0)
(0.0775616 0.612083 0)
(0.0499805 0.500798 0)
(-0.00775638 1.08119 0)
(-0.0113849 1.10213 0)
(0.0020987 1.06028 0)
(0.0322349 0.993631 0)
(0.0744803 0.93084 0)
(0.13122 0.856774 0)
(0.188463 0.815109 0)
(0.307714 0.683074 0)
(0.445579 0.386435 0)
(0.506418 0.161617 0)
(0.487932 0.136942 0)
(0.493442 0.133019 0)
(0.487975 0.140372 0)
(0.477438 0.153758 0)
(0.465171 0.170035 0)
(0.450371 0.186734 0)
(0.430207 0.205324 0)
(0.402423 0.235413 0)
(0.369545 0.282272 0)
(0.35225 0.265283 0)
(0.37688 0.263967 0)
(0.266252 0.566295 0)
(-0.0155078 0.389349 0)
(0.0306536 0.449905 0)
(0.0152204 0.52085 0)
(0.0231382 0.588526 0)
(0.0582301 0.626511 0)
(0.0854506 0.620789 0)
(0.101204 0.577085 0)
(0.0822479 0.534377 0)
(-0.000516264 1.08764 0)
(0.00862434 1.09009 0)
(0.0306633 1.03065 0)
(0.0647186 0.951035 0)
(0.116161 0.886143 0)
(0.183599 0.810595 0)
(0.258657 0.73691 0)
(0.402419 0.547841 0)
(0.505191 0.280064 0)
(0.511086 0.155971 0)
(0.515469 0.136729 0)
(0.516661 0.139053 0)
(0.510168 0.149687 0)
(0.50232 0.164904 0)
(0.492382 0.182122 0)
(0.477907 0.200993 0)
(0.454063 0.231301 0)
(0.430913 0.275202 0)
(0.436361 0.270477 0)
(0.430479 0.237801 0)
(0.375048 0.346938 0)
(0.145034 0.761865 0)
(0.0251806 0.503662 0)
(-0.0192058 0.460087 0)
(-0.0268888 0.528063 0)
(-0.0120535 0.587313 0)
(0.0619655 0.593399 0)
(0.0932448 0.509332 0)
(0.036072 0.537702 0)
(0.00378125 0.577622 0)
(0.00769268 1.07694 0)
(0.026079 1.06785 0)
(0.0597517 1.02213 0)
(0.110406 0.917712 0)
(0.177979 0.820821 0)
(0.259294 0.724312 0)
(0.348674 0.620975 0)
(0.474287 0.423647 0)
(0.521145 0.221253 0)
(0.526927 0.150391 0)
(0.534852 0.139107 0)
(0.53379 0.143714 0)
(0.531115 0.156003 0)
(0.527014 0.172409 0)
(0.519326 0.191394 0)
(0.504134 0.216107 0)
(0.488954 0.266262 0)
(0.490507 0.263684 0)
(0.453603 0.296026 0)
(0.362208 0.364825 0)
(0.246695 0.516718 0)
(0.164389 0.791799 0)
(0.0887558 0.57615 0)
(-0.0904666 0.487883 0)
(-0.102931 0.542462 0)
(-0.0979754 0.452924 0)
(-0.123324 0.548553 0)
(-0.158854 0.70858 0)
(-0.129298 0.801001 0)
(-0.0475963 0.757634 0)
(0.0188338 1.07564 0)
(0.0546905 1.05418 0)
(0.104673 0.95863 0)
(0.176209 0.838825 0)
(0.258505 0.730619 0)
(0.343719 0.638202 0)
(0.423409 0.521242 0)
(0.503259 0.337581 0)
(0.527766 0.193534 0)
(0.539672 0.148632 0)
(0.544684 0.138687 0)
(0.547605 0.144625 0)
(0.549673 0.157676 0)
(0.549229 0.175239 0)
(0.543865 0.197837 0)
(0.531918 0.233073 0)
(0.532274 0.267599 0)
(0.473834 0.32319 0)
(0.320224 0.433257 0)
(0.280518 0.435719 0)
(0.254402 0.547496 0)
(0.131162 0.769265 0)
(0.0166377 0.87049 0)
(-0.24368 0.573436 0)
(-0.377974 0.53071 0)
(-0.479367 0.656107 0)
(-0.472651 0.688758 0)
(-0.355235 0.605856 0)
(-0.183428 0.532707 0)
(-0.0462003 0.502451 0)
(0.0324753 1.01047 0)
(0.0943605 0.992381 0)
(0.15943 0.886141 0)
(0.238315 0.754058 0)
(0.324712 0.639601 0)
(0.406241 0.559408 0)
(0.468223 0.448763 0)
(0.515715 0.287012 0)
(0.531864 0.183174 0)
(0.540926 0.144664 0)
(0.548005 0.134369 0)
(0.55541 0.14003 0)
(0.561874 0.153859 0)
(0.565304 0.173569 0)
(0.563821 0.202644 0)
(0.565359 0.255035 0)
(0.517715 0.355183 0)
(0.401764 0.462454 0)
(0.333683 0.491021 0)
(0.279838 0.48592 0)
(0.279544 0.581482 0)