/*--------------------------------*- C++ -*----------------------------------*\
| =========                 |                                                 |
| \\      /  F ield         | OpenFOAM: The Open Source CFD Toolbox           |
|  \\    /   O peration     | Version:  2.3.0                                 |
|   \\  /    A nd           | Web:      www.OpenFOAM.org                      |
|    \\/     M anipulation  |                                                 |
\*---------------------------------------------------------------------------*/
FoamFile
{
    version     2.0;
    format      ascii;
    class       volVectorField;
    location    "1.88";
    object      U.airMean;
}
// * * * * * * * * * * * * * * * * * * * * * * * * * * * * * * * * * * * * * //

dimensions      [0 1 -1 0 0 0 0];

internalField   nonuniform List<vector> 
6000
(
(-0.00718269 0.246356 0)
(0.0114006 0.209822 0)
(0.0400038 0.219539 0)
(0.0522463 0.222012 0)
(0.0455128 0.216197 0)
(0.0280411 0.206453 0)
(0.0155399 0.19518 0)
(0.00215364 0.199471 0)
(-0.0128179 0.19448 0)
(-0.0208188 0.192553 0)
(-0.0244027 0.194419 0)
(-0.0279764 0.197267 0)
(-0.0506003 0.221465 0)
(-0.0911897 0.23958 0)
(-0.123834 0.233553 0)
(-0.118872 0.222982 0)
(-0.0941027 0.219955 0)
(-0.0726524 0.22409 0)
(-0.0635011 0.224942 0)
(-0.0528115 0.224434 0)
(-0.0431206 0.226732 0)
(-0.0351985 0.234355 0)
(-0.0317419 0.233765 0)
(-0.019179 0.227948 0)
(-0.0118401 0.232276 0)
(-0.0205867 0.227285 0)
(-0.0147239 0.216956 0)
(-0.00070782 0.217422 0)
(-0.00715806 0.208005 0)
(0.000973488 0.249935 0)
(0.0174361 0.960576 0)
(0.0374426 0.960219 0)
(0.0629784 0.96367 0)
(0.070838 0.991664 0)
(0.0593821 1.01726 0)
(0.0501392 1.03086 0)
(0.0430765 1.02565 0)
(0.0208665 1.0342 0)
(-0.00213591 1.03803 0)
(-0.0210735 1.01293 0)
(-0.0331644 1.01868 0)
(-0.0586561 1.04224 0)
(-0.0981217 1.0466 0)
(-0.132342 1.05191 0)
(-0.152398 1.01204 0)
(-0.146308 0.960358 0)
(-0.124513 0.951667 0)
(-0.101402 0.973354 0)
(-0.0835954 0.972538 0)
(-0.0690954 0.982157 0)
(-0.0504531 0.980336 0)
(-0.0360153 0.982817 0)
(-0.0254045 0.991103 0)
(-0.0211294 0.980825 0)
(-0.0319473 1.00948 0)
(-0.0411236 1.00003 0)
(-0.0315791 0.981905 0)
(-0.0190332 0.991456 0)
(-0.0242015 1.01782 0)
(-0.0271706 0.949082 0)
(-0.00233849 0.794628 0)
(0.0310783 0.754734 0)
(0.0504079 0.77083 0)
(0.0491166 0.829432 0)
(0.0390223 0.849946 0)
(0.039986 0.84938 0)
(0.0409808 0.855625 0)
(0.0211009 0.881742 0)
(-0.00034906 0.878833 0)
(-0.0148193 0.844187 0)
(-0.0270446 0.856878 0)
(-0.0483894 0.898709 0)
(-0.0862164 0.912312 0)
(-0.118606 0.914332 0)
(-0.13162 0.850487 0)
(-0.131452 0.782533 0)
(-0.120218 0.764835 0)
(-0.101058 0.780264 0)
(-0.0819992 0.791272 0)
(-0.0642746 0.786355 0)
(-0.0386245 0.783331 0)
(-0.0184719 0.79735 0)
(-0.00985026 0.809264 0)
(-0.0188528 0.816467 0)
(-0.0411442 0.849801 0)
(-0.0394641 0.820518 0)
(-0.0202695 0.788261 0)
(0.00453907 0.806202 0)
(0.00393722 0.849299 0)
(0.00586949 0.789157 0)
(0.00362655 0.798644 0)
(0.0263148 0.76582 0)
(0.0224169 0.798813 0)
(0.0231515 0.856587 0)
(0.0277765 0.86399 0)
(0.0354576 0.865701 0)
(0.0312262 0.88726 0)
(0.0145979 0.915957 0)
(0.00148089 0.915029 0)
(-0.0124437 0.879009 0)
(-0.0224858 0.884409 0)
(-0.0369166 0.941452 0)
(-0.0671422 0.950446 0)
(-0.0933701 0.93732 0)
(-0.110408 0.866769 0)
(-0.116633 0.796253 0)
(-0.108863 0.773289 0)
(-0.0952318 0.789991 0)
(-0.0771663 0.797928 0)
(-0.0500713 0.791891 0)
(-0.0244525 0.793333 0)
(-0.00759562 0.810897 0)
(-0.00824477 0.834953 0)
(-0.0267054 0.871029 0)
(-0.0405037 0.87275 0)
(-0.0285638 0.842198 0)
(-0.00797318 0.794949 0)
(0.0159692 0.821355 0)
(0.0182253 0.891822 0)
(0.0128175 0.81813 0)
(0.00860611 0.7816 0)
(0.0132516 0.749283 0)
(0.00703962 0.793651 0)
(0.00886277 0.840455 0)
(0.0176855 0.850657 0)
(0.020749 0.860415 0)
(0.0141545 0.897165 0)
(-0.000226098 0.924647 0)
(-0.00786991 0.925755 0)
(-0.0193077 0.88986 0)
(-0.0275465 0.893693 0)
(-0.0362627 0.952566 0)
(-0.0605636 0.966877 0)
(-0.0816424 0.94456 0)
(-0.101083 0.871127 0)
(-0.107414 0.789313 0)
(-0.096832 0.753214 0)
(-0.0840423 0.775114 0)
(-0.0675837 0.769013 0)
(-0.0397779 0.753076 0)
(-0.0153904 0.763039 0)
(-0.00543707 0.788631 0)
(-0.0125444 0.833773 0)
(-0.0264641 0.869381 0)
(-0.0276365 0.860142 0)
(-0.0174729 0.827623 0)
(0.000479364 0.768433 0)
(0.0203149 0.797539 0)
(0.0238284 0.898681 0)
(0.0144368 0.826779 0)
(0.00498103 0.767229 0)
(0.0118166 0.74821 0)
(0.000294157 0.793797 0)
(0.00811633 0.830781 0)
(0.00654071 0.841277 0)
(0.00368788 0.858471 0)
(-0.00298291 0.905434 0)
(-0.0137907 0.931637 0)
(-0.0231777 0.935796 0)
(-0.0360635 0.904163 0)
(-0.0458346 0.903215 0)
(-0.0573297 0.964263 0)
(-0.0739592 0.984602 0)
(-0.076633 0.949412 0)
(-0.0763098 0.872996 0)
(-0.0727954 0.779239 0)
(-0.0684717 0.746422 0)
(-0.0662885 0.768321 0)
(-0.0571874 0.750077 0)
(-0.0379943 0.729955 0)
(-0.0204554 0.744297 0)
(-0.0138878 0.788974 0)
(-0.0168818 0.835107 0)
(-0.02018 0.870846 0)
(-0.0115648 0.845032 0)
(-0.00115977 0.819631 0)
(0.00779567 0.750435 0)
(0.0162972 0.786508 0)
(0.0190638 0.905373 0)
(0.0116158 0.838746 0)
(0.00163504 0.751961 0)
(0.0107682 0.741601 0)
(0.0133399 0.78191 0)
(0.0123678 0.827475 0)
(0.0063902 0.839811 0)
(-0.00543392 0.856578 0)
(-0.0115389 0.909429 0)
(-0.0217696 0.935583 0)
(-0.0371144 0.948463 0)
(-0.0545277 0.914734 0)
(-0.073576 0.91631 0)
(-0.088736 0.968237 0)
(-0.0907692 0.978895 0)
(-0.0693088 0.928117 0)
(-0.0494471 0.854908 0)
(-0.0353543 0.76997 0)
(-0.0407794 0.743223 0)
(-0.0550871 0.767394 0)
(-0.0586775 0.738764 0)
(-0.0472458 0.709839 0)
(-0.0333152 0.727956 0)
(-0.0255942 0.778159 0)
(-0.0216432 0.82585 0)
(-0.015195 0.852919 0)
(-0.00219427 0.823682 0)
(0.00687609 0.803197 0)
(0.00676311 0.741681 0)
(0.000716332 0.772322 0)
(-0.000677014 0.903344 0)
(0.00269318 0.839021 0)
(0.00399638 0.739139 0)
(0.0150946 0.721297 0)
(0.0186857 0.767243 0)
(0.0123353 0.825268 0)
(-0.00371535 0.841083 0)
(-0.0135441 0.860869 0)
(-0.0211288 0.911622 0)
(-0.0276606 0.947389 0)
(-0.0456577 0.963912 0)
(-0.0690326 0.933358 0)
(-0.0972696 0.933385 0)
(-0.110339 0.968676 0)
(-0.0947661 0.950875 0)
(-0.0605937 0.902191 0)
(-0.0277714 0.829867 0)
(-0.00953206 0.766093 0)
(-0.02416 0.766227 0)
(-0.0507263 0.775583 0)
(-0.0627943 0.731372 0)
(-0.062244 0.693048 0)
(-0.0505871 0.711651 0)
(-0.0382883 0.762944 0)
(-0.0248111 0.809904 0)
(-0.0158618 0.833554 0)
(-0.00673109 0.803556 0)
(0.000471279 0.789797 0)
(-0.00485571 0.741287 0)
(-0.0212483 0.767839 0)
(-0.0237916 0.891549 0)
(-0.00642318 0.821143 0)
(0.00615483 0.721456 0)
(0.0157029 0.698856 0)
(0.0112853 0.753041 0)
(-0.00251819 0.828259 0)
(-0.0178744 0.84369 0)
(-0.030473 0.867705 0)
(-0.0321516 0.915702 0)
(-0.0370617 0.955662 0)
(-0.0499559 0.980919 0)
(-0.0782952 0.958524 0)
(-0.10999 0.953293 0)
(-0.11045 0.955048 0)
(-0.0871916 0.91973 0)
(-0.0490903 0.867754 0)
(-0.0187087 0.799916 0)
(-0.00968336 0.762129 0)
(-0.0299342 0.786471 0)
(-0.0543211 0.783653 0)
(-0.0681414 0.737946 0)
(-0.0740627 0.67926 0)
(-0.0682524 0.693831 0)
(-0.0501506 0.73847 0)
(-0.0344932 0.79278 0)
(-0.0284962 0.8113 0)
(-0.0214003 0.790358 0)
(-0.0176146 0.769894 0)
(-0.0256844 0.743645 0)
(-0.0437896 0.764949 0)
(-0.0390029 0.866661 0)
(-0.00863633 0.789858 0)
(0.00514936 0.702501 0)
(0.0107629 0.684918 0)
(-0.00237088 0.748972 0)
(-0.0196607 0.830065 0)
(-0.0298854 0.845702 0)
(-0.037115 0.87094 0)
(-0.0408204 0.918298 0)
(-0.0473684 0.963434 0)
(-0.0517733 0.994688 0)
(-0.0799914 0.992452 0)
(-0.105909 0.962442 0)
(-0.0953558 0.933639 0)
(-0.0682019 0.88752 0)
(-0.0387224 0.839181 0)
(-0.0212315 0.782284 0)
(-0.0275132 0.769426 0)
(-0.0475993 0.799759 0)
(-0.0630497 0.788197 0)
(-0.0722813 0.736529 0)
(-0.0785968 0.67845 0)
(-0.0751799 0.675494 0)
(-0.0639597 0.718713 0)
(-0.0538323 0.776105 0)
(-0.0454535 0.797784 0)
(-0.0374635 0.775868 0)
(-0.0357306 0.758969 0)
(-0.0489507 0.745963 0)
(-0.0630575 0.761749 0)
(-0.0469278 0.83028 0)
(-0.010156 0.761197 0)
(0.00274687 0.686723 0)
(0.00539982 0.676843 0)
(-0.012301 0.750173 0)
(-0.0282869 0.820827 0)
(-0.0305971 0.845929 0)
(-0.0396567 0.874539 0)
(-0.047607 0.93479 0)
(-0.050082 0.966286 0)
(-0.0449521 1.00645 0)
(-0.0631352 1.01953 0)
(-0.0843008 0.966142 0)
(-0.0719727 0.902105 0)
(-0.0499112 0.867116 0)
(-0.036543 0.817991 0)
(-0.0341837 0.776731 0)
(-0.0463537 0.781841 0)
(-0.0564961 0.804409 0)
(-0.0617263 0.794043 0)
(-0.0707979 0.738046 0)
(-0.0769066 0.677545 0)
(-0.0800597 0.667253 0)
(-0.0789763 0.711171 0)
(-0.0707885 0.763923 0)
(-0.0582196 0.777472 0)
(-0.0481289 0.762955 0)
(-0.0512461 0.751305 0)
(-0.0698959 0.752744 0)
(-0.0791435 0.750451 0)
(-0.0590141 0.789125 0)
(-0.016979 0.732415 0)
(0.00374844 0.672949 0)
(0.00344236 0.673403 0)
(-0.0133589 0.7544 0)
(-0.0218907 0.808792 0)
(-0.029211 0.843567 0)
(-0.039637 0.884653 0)
(-0.0497324 0.943864 0)
(-0.0449849 0.966345 0)
(-0.0343063 1.00593 0)
(-0.0308142 1.04126 0)
(-0.0479423 0.966355 0)
(-0.0502245 0.884542 0)
(-0.0394266 0.853907 0)
(-0.0425426 0.815645 0)
(-0.0492067 0.781285 0)
(-0.0541118 0.779034 0)
(-0.0501924 0.796022 0)
(-0.0497166 0.795145 0)
(-0.0615328 0.744788 0)
(-0.0773149 0.684928 0)
(-0.0853939 0.667105 0)
(-0.0825207 0.707246 0)
(-0.0750347 0.745192 0)
(-0.0641498 0.761543 0)
(-0.0594557 0.752368 0)
(-0.0690889 0.759773 0)
(-0.0886423 0.758119 0)
(-0.0921849 0.744715 0)
(-0.0726546 0.754461 0)
(-0.0258317 0.693725 0)
(0.00360524 0.660054 0)
(0.00309079 0.672308 0)
(-0.00669622 0.752792 0)
(-0.0093666 0.801999 0)
(-0.0237876 0.848368 0)
(-0.0358075 0.892682 0)
(-0.0429594 0.950036 0)
(-0.0385477 0.965706 0)
(-0.0282879 0.996659 0)
(-0.00707249 1.03756 0)
(-0.0104739 0.980065 0)
(-0.0291856 0.878043 0)
(-0.0369024 0.852782 0)
(-0.0484042 0.820509 0)
(-0.0533868 0.779329 0)
(-0.0484986 0.772022 0)
(-0.0392144 0.787509 0)
(-0.0409606 0.800314 0)
(-0.0549118 0.763278 0)
(-0.0764064 0.695144 0)
(-0.0811822 0.671004 0)
(-0.076025 0.698932 0)
(-0.0710192 0.735968 0)
(-0.0681897 0.752368 0)
(-0.074937 0.757735 0)
(-0.0897929 0.769773 0)
(-0.106339 0.767423 0)
(-0.105903 0.740997 0)
(-0.0878349 0.727035 0)
(-0.0293925 0.651186 0)
(0.003384 0.650768 0)
(0.00377823 0.670237 0)
(0.00201512 0.742921 0)
(0.0041695 0.796735 0)
(-0.00885346 0.852851 0)
(-0.0227932 0.899845 0)
(-0.0306023 0.951691 0)
(-0.0301859 0.970601 0)
(-0.0209322 0.982245 0)
(0.00205277 1.02189 0)
(0.0120935 0.985554 0)
(-0.00819747 0.895915 0)
(-0.0279672 0.857707 0)
(-0.0463451 0.828816 0)
(-0.0520253 0.777924 0)
(-0.0447111 0.762997 0)
(-0.0362016 0.780327 0)
(-0.035934 0.811309 0)
(-0.050711 0.7836 0)
(-0.0665271 0.707062 0)
(-0.06753 0.671304 0)
(-0.06279 0.695473 0)
(-0.0638162 0.735391 0)
(-0.0746258 0.759874 0)
(-0.0927928 0.770467 0)
(-0.112319 0.78478 0)
(-0.122933 0.772095 0)
(-0.116328 0.738814 0)
(-0.0931162 0.694312 0)
(-0.0307063 0.602011 0)
(0.00489933 0.642937 0)
(0.00473683 0.66397 0)
(0.00786317 0.729414 0)
(0.0191959 0.787236 0)
(0.016449 0.856312 0)
(0.00270556 0.906453 0)
(-0.00951921 0.95846 0)
(-0.0168255 0.972454 0)
(-0.00925166 0.977141 0)
(0.00597935 1.00071 0)
(0.0205759 0.981791 0)
(0.00914447 0.91193 0)
(-0.0152797 0.870057 0)
(-0.034706 0.843585 0)
(-0.0457587 0.778142 0)
(-0.0447635 0.756364 0)
(-0.0376141 0.773363 0)
(-0.03433 0.815062 0)
(-0.0431003 0.798485 0)
(-0.0508572 0.712845 0)
(-0.0479494 0.670769 0)
(-0.0476106 0.693098 0)
(-0.0565498 0.741335 0)
(-0.0795711 0.772978 0)
(-0.110441 0.790684 0)
(-0.131421 0.793835 0)
(-0.132911 0.773255 0)
(-0.115626 0.726599 0)
(-0.0851277 0.660219 0)
(-0.0260742 0.552135 0)
(0.00633102 0.638411 0)
(0.000299914 0.661226 0)
(0.00497613 0.709074 0)
(0.0308175 0.768826 0)
(0.0440559 0.851969 0)
(0.039619 0.914836 0)
(0.0256279 0.968774 0)
(0.0115783 0.980148 0)
(0.0115217 0.972037 0)
(0.0213304 0.993881 0)
(0.0312302 0.975509 0)
(0.0205009 0.938378 0)
(-0.00427246 0.885333 0)
(-0.0246965 0.862783 0)
(-0.0357513 0.788192 0)
(-0.0431485 0.755703 0)
(-0.0394035 0.76966 0)
(-0.0348932 0.816997 0)
(-0.0328066 0.805754 0)
(-0.0330863 0.710786 0)
(-0.0264168 0.666024 0)
(-0.0284404 0.69648 0)
(-0.0467038 0.754503 0)
(-0.0800584 0.797164 0)
(-0.118631 0.807683 0)
(-0.134681 0.791007 0)
(-0.126494 0.751871 0)
(-0.102143 0.696667 0)
(-0.0716253 0.618678 0)
(-0.0203548 0.503719 0)
(0.00314335 0.637968 0)
(-0.0110138 0.666066 0)
(-0.00446051 0.68235 0)
(0.031876 0.734562 0)
(0.0609197 0.838722 0)
(0.0683869 0.913983 0)
(0.0626312 0.981417 0)
(0.0510736 0.991159 0)
(0.042366 0.972668 0)
(0.0500936 0.98019 0)
(0.0516961 0.979772 0)
(0.0312651 0.958426 0)
(0.00475366 0.91119 0)
(-0.0191039 0.877245 0)
(-0.0274472 0.797454 0)
(-0.0386222 0.760658 0)
(-0.0397305 0.770686 0)
(-0.0323728 0.805975 0)
(-0.016542 0.802883 0)
(-0.0128176 0.706181 0)
(-0.0119497 0.665783 0)
(-0.0199837 0.70299 0)
(-0.0428593 0.776252 0)
(-0.0755223 0.828269 0)
(-0.110627 0.833297 0)
(-0.118185 0.785952 0)
(-0.106828 0.735351 0)
(-0.0814359 0.672134 0)
(-0.0544454 0.589925 0)
(-0.0168368 0.465051 0)
(-0.00862294 0.648282 0)
(-0.0221096 0.672996 0)
(-0.0115737 0.652795 0)
(0.0247364 0.69519 0)
(0.0594637 0.815766 0)
(0.0756566 0.905698 0)
(0.0850867 0.983284 0)
(0.0864627 1.0048 0)
(0.0760657 0.978341 0)
(0.0774554 0.979004 0)
(0.0709653 0.991009 0)
(0.0452527 0.983138 0)
(0.0137877 0.938182 0)
(-0.00675441 0.888866 0)
(-0.0174228 0.807645 0)
(-0.0327401 0.76749 0)
(-0.0364776 0.772085 0)
(-0.0240935 0.78809 0)
(0.000891785 0.784335 0)
(0.00571296 0.70948 0)
(-0.00829191 0.669964 0)
(-0.024265 0.711968 0)
(-0.0456216 0.793301 0)
(-0.0672711 0.846013 0)
(-0.0844759 0.831671 0)
(-0.089593 0.774773 0)
(-0.0792733 0.708073 0)
(-0.0603028 0.644171 0)
(-0.0403496 0.563535 0)
(-0.0124218 0.432714 0)
(-0.0132038 0.670263 0)
(-0.0239523 0.669711 0)
(-0.0116514 0.629061 0)
(0.0172843 0.660147 0)
(0.047865 0.789559 0)
(0.0704943 0.886463 0)
(0.0905869 0.965594 0)
(0.105133 1.00612 0)
(0.106485 0.982773 0)
(0.0940034 0.981549 0)
(0.0848059 1.01028 0)
(0.060531 1.00996 0)
(0.0295575 0.966006 0)
(0.0131523 0.901699 0)
(-0.00197751 0.822458 0)
(-0.0258803 0.778814 0)
(-0.0319118 0.772408 0)
(-0.0189567 0.762548 0)
(0.0111747 0.766962 0)
(0.0158129 0.718816 0)
(-0.00524933 0.686996 0)
(-0.0287172 0.724557 0)
(-0.0453744 0.803449 0)
(-0.0559915 0.854115 0)
(-0.0615204 0.828958 0)
(-0.0650892 0.770961 0)
(-0.0560182 0.683922 0)
(-0.0436944 0.617867 0)
(-0.0272806 0.534916 0)
(-0.00653707 0.402105 0)
(-0.00891693 0.692002 0)
(-0.0159989 0.664192 0)
(-0.00775192 0.610623 0)
(0.018141 0.630717 0)
(0.0485806 0.765101 0)
(0.0739753 0.869659 0)
(0.0927026 0.943787 0)
(0.115492 0.992407 0)
(0.116697 0.993277 0)
(0.100478 0.990209 0)
(0.0914053 1.01759 0)
(0.0794279 1.03275 0)
(0.0534787 0.982873 0)
(0.0349578 0.916564 0)
(0.0221054 0.839585 0)
(-0.0106238 0.800621 0)
(-0.0257748 0.77344 0)
(-0.0170062 0.738598 0)
(0.011278 0.743692 0)
(0.0209378 0.726619 0)
(0.00320918 0.706219 0)
(-0.0239704 0.740959 0)
(-0.0405409 0.809325 0)
(-0.044564 0.859899 0)
(-0.0461878 0.821434 0)
(-0.0478216 0.770967 0)
(-0.0411765 0.667817 0)
(-0.0334699 0.601759 0)
(-0.0171216 0.516282 0)
(0.00102465 0.38512 0)
(-0.00125128 0.703147 0)
(-0.00446288 0.660716 0)
(0.00535461 0.596726 0)
(0.0265876 0.603144 0)
(0.0561167 0.732221 0)
(0.0825746 0.850367 0)
(0.0994227 0.92076 0)
(0.120534 0.973215 0)
(0.120002 1.00839 0)
(0.0996603 0.999566 0)
(0.0905578 1.01902 0)
(0.0911096 1.0444 0)
(0.0792062 1.0046 0)
(0.0588743 0.926436 0)
(0.0473702 0.85848 0)
(0.0162629 0.829667 0)
(-0.0127453 0.78497 0)
(-0.0131546 0.715714 0)
(0.0096186 0.72468 0)
(0.0215128 0.719843 0)
(0.0114927 0.726938 0)
(-0.0126601 0.759268 0)
(-0.0305713 0.816384 0)
(-0.0329313 0.860137 0)
(-0.0381294 0.818109 0)
(-0.0388631 0.770378 0)
(-0.0340392 0.657791 0)
(-0.0280389 0.586693 0)
(-0.012179 0.495681 0)
(0.00630243 0.379276 0)
(0.00443761 0.702675 0)
(0.0080906 0.65389 0)
(0.0178763 0.584269 0)
(0.0389487 0.577733 0)
(0.0690705 0.697673 0)
(0.0982968 0.831586 0)
(0.11312 0.895875 0)
(0.127975 0.958344 0)
(0.122863 1.01877 0)
(0.0985843 1.01744 0)
(0.0835891 1.01767 0)
(0.0903136 1.04245 0)
(0.0961593 1.0177 0)
(0.0828088 0.943952 0)
(0.0696156 0.873554 0)
(0.0435145 0.862402 0)
(0.00897484 0.803331 0)
(-0.00242109 0.704066 0)
(0.00805161 0.705608 0)
(0.0171072 0.716207 0)
(0.0101752 0.735939 0)
(-0.00493802 0.777401 0)
(-0.0199339 0.824396 0)
(-0.02306 0.867161 0)
(-0.0338591 0.821707 0)
(-0.0359233 0.767952 0)
(-0.0338563 0.652706 0)
(-0.0259518 0.571186 0)
(-0.00956622 0.480133 0)
(0.00649581 0.377289 0)
(0.00604465 0.695647 0)
(0.0114528 0.645761 0)
(0.0199918 0.569514 0)
(0.0461286 0.550897 0)
(0.0809183 0.662439 0)
(0.115004 0.810612 0)
(0.126162 0.878559 0)
(0.131925 0.947271 0)
(0.123989 1.03318 0)
(0.099196 1.03578 0)
(0.0789611 1.02386 0)
(0.0809355 1.02994 0)
(0.0976516 1.01747 0)
(0.102886 0.957801 0)
(0.0877316 0.891517 0)
(0.0633912 0.889311 0)
(0.0324081 0.827835 0)
(0.0122038 0.706161 0)
(0.0101037 0.697049 0)
(0.0165241 0.711937 0)
(0.00950628 0.744304 0)
(-0.00377935 0.787179 0)
(-0.0171934 0.835049 0)
(-0.020858 0.870143 0)
(-0.0312607 0.833208 0)
(-0.0319194 0.764649 0)
(-0.0330562 0.650026 0)
(-0.0245793 0.555226 0)
(-0.00748098 0.465572 0)
(0.00747988 0.377867 0)
(0.00547251 0.685121 0)
(0.0114547 0.639452 0)
(0.0167534 0.55434 0)
(0.0457357 0.51632 0)
(0.0875171 0.622911 0)
(0.125351 0.79064 0)
(0.13072 0.868789 0)
(0.122737 0.947336 0)
(0.115258 1.04176 0)
(0.0972093 1.05271 0)
(0.0762369 1.03644 0)
(0.0745178 1.0187 0)
(0.0915904 1.00579 0)
(0.10864 0.959998 0)
(0.100598 0.913541 0)
(0.0762583 0.914971 0)
(0.0518764 0.850571 0)
(0.0283264 0.719451 0)
(0.0196198 0.693622 0)
(0.0200476 0.713705 0)
(0.0103089 0.74971 0)
(-0.0036147 0.803309 0)
(-0.0203032 0.84757 0)
(-0.0261652 0.877745 0)
(-0.0346448 0.839867 0)
(-0.031379 0.764135 0)
(-0.0289638 0.651968 0)
(-0.0181043 0.546191 0)
(-0.00272185 0.456692 0)
(0.00748276 0.384346 0)
(0.00429477 0.676121 0)
(0.0122493 0.637323 0)
(0.0191686 0.541604 0)
(0.0439692 0.482877 0)
(0.0832618 0.579599 0)
(0.121442 0.772986 0)
(0.122578 0.872959 0)
(0.104943 0.952115 0)
(0.095814 1.0435 0)
(0.0855297 1.06116 0)
(0.0708715 1.04639 0)
(0.0664627 1.01388 0)
(0.0807166 0.988242 0)
(0.101776 0.953409 0)
(0.0986677 0.930166 0)
(0.0854607 0.93672 0)
(0.0696659 0.86905 0)
(0.0500253 0.737429 0)
(0.0360615 0.699564 0)
(0.0252298 0.716129 0)
(0.0117659 0.760329 0)
(-0.00318001 0.815608 0)
(-0.0234138 0.866033 0)
(-0.033358 0.882776 0)
(-0.0432362 0.846918 0)
(-0.0346941 0.759462 0)
(-0.0219268 0.651003 0)
(-0.00613042 0.538358 0)
(0.00429233 0.453617 0)
(0.00965414 0.391414 0)
(0.00310254 0.667594 0)
(0.018025 0.63002 0)
(0.0300057 0.528504 0)
(0.0460653 0.462303 0)
(0.0736886 0.542801 0)
(0.10349 0.756393 0)
(0.10437 0.880505 0)
(0.0826794 0.965174 0)
(0.0702194 1.04041 0)
(0.0653921 1.06797 0)
(0.059557 1.04933 0)
(0.0590751 1.01296 0)
(0.0702404 0.972562 0)
(0.0881993 0.94356 0)
(0.0901189 0.940292 0)
(0.0940838 0.945305 0)
(0.0866343 0.882035 0)
(0.0730358 0.754997 0)
(0.0543602 0.712026 0)
(0.0314132 0.728208 0)
(0.0123357 0.767347 0)
(-0.00339411 0.831405 0)
(-0.022513 0.876983 0)
(-0.0324276 0.88961 0)
(-0.0414741 0.846754 0)
(-0.0276228 0.743698 0)
(-0.00771744 0.640167 0)
(0.00986864 0.529213 0)
(0.0115619 0.458692 0)
(0.0110337 0.403497 0)
(0.00496216 0.659261 0)
(0.0282264 0.614774 0)
(0.044916 0.517143 0)
(0.0504246 0.452452 0)
(0.0611814 0.518931 0)
(0.0785362 0.739951 0)
(0.0774823 0.889713 0)
(0.0587599 0.976603 0)
(0.0458509 1.04224 0)
(0.0464671 1.06635 0)
(0.0481879 1.04726 0)
(0.0543852 1.00742 0)
(0.0631261 0.964207 0)
(0.0748625 0.935372 0)
(0.0828123 0.939305 0)
(0.097728 0.938201 0)
(0.0956517 0.8914 0)
(0.087404 0.765525 0)
(0.0752587 0.732128 0)
(0.0470745 0.746335 0)
(0.0216017 0.786744 0)
(0.00112616 0.844833 0)
(-0.0114667 0.891937 0)
(-0.010872 0.891364 0)
(-0.0139261 0.845214 0)
(-0.00435199 0.721569 0)
(0.0147369 0.621155 0)
(0.030271 0.519448 0)
(0.0244442 0.456919 0)
(0.0122574 0.41192 0)
(0.0109824 0.642522 0)
(0.0413525 0.591562 0)
(0.054342 0.511282 0)
(0.0502992 0.455506 0)
(0.0459815 0.510062 0)
(0.0533587 0.730062 0)
(0.0509975 0.896661 0)
(0.0394117 0.984356 0)
(0.0296801 1.04085 0)
(0.0319913 1.06264 0)
(0.0377348 1.04106 0)
(0.0492648 1.00124 0)
(0.0575479 0.96035 0)
(0.0618746 0.930822 0)
(0.0715393 0.927407 0)
(0.0896953 0.927191 0)
(0.0943907 0.892014 0)
(0.0933227 0.772557 0)
(0.08459 0.745709 0)
(0.0580539 0.766654 0)
(0.0309786 0.802651 0)
(0.0118561 0.856223 0)
(0.00957446 0.885235 0)
(0.0212083 0.878332 0)
(0.0260315 0.84204 0)
(0.0319271 0.709313 0)
(0.0413581 0.610844 0)
(0.0471619 0.522838 0)
(0.0393709 0.476142 0)
(0.0193194 0.437717 0)
(0.0188874 0.615345 0)
(0.0513566 0.574545 0)
(0.0550185 0.513535 0)
(0.0467081 0.468821 0)
(0.0340605 0.512497 0)
(0.0346862 0.723703 0)
(0.0342572 0.901107 0)
(0.0267836 0.989125 0)
(0.0184427 1.04309 0)
(0.0176618 1.05571 0)
(0.0257045 1.03339 0)
(0.0402856 0.994318 0)
(0.0477462 0.961059 0)
(0.0489981 0.934015 0)
(0.0537562 0.913862 0)
(0.0717541 0.911791 0)
(0.0845303 0.885369 0)
(0.0907738 0.773225 0)
(0.0870069 0.754316 0)
(0.0671029 0.784058 0)
(0.0435377 0.824313 0)
(0.0297419 0.858571 0)
(0.0371562 0.874149 0)
(0.0464345 0.861628 0)
(0.0558724 0.830323 0)
(0.0638735 0.693043 0)
(0.0665512 0.604731 0)
(0.0613837 0.525642 0)
(0.0477361 0.486794 0)
(0.0234868 0.471991 0)
(0.0235243 0.57556 0)
(0.0564514 0.566735 0)
(0.053768 0.518175 0)
(0.0450294 0.482877 0)
(0.0276786 0.521672 0)
(0.0242333 0.718299 0)
(0.0270644 0.903395 0)
(0.0199583 0.998471 0)
(0.00837459 1.0453 0)
(0.00573206 1.05126 0)
(0.0130148 1.02229 0)
(0.0257817 0.985647 0)
(0.0317463 0.963082 0)
(0.0343089 0.939347 0)
(0.0359439 0.903844 0)
(0.0479522 0.89126 0)
(0.0681882 0.871156 0)
(0.0856216 0.766482 0)
(0.0913395 0.758444 0)
(0.0778162 0.802322 0)
(0.060177 0.837511 0)
(0.0535724 0.859162 0)
(0.0598041 0.859694 0)
(0.0645143 0.85586 0)
(0.0702041 0.814709 0)
(0.0813925 0.67791 0)
(0.0813641 0.602664 0)
(0.072897 0.530699 0)
(0.0531053 0.502092 0)
(0.0241426 0.506815 0)
(0.0192979 0.536012 0)
(0.0545839 0.563713 0)
(0.0521731 0.521522 0)
(0.0433435 0.499443 0)
(0.0222588 0.538874 0)
(0.0165151 0.707903 0)
(0.0242346 0.906477 0)
(0.0152203 1.00857 0)
(-0.000269104 1.05289 0)
(-0.00262322 1.04662 0)
(0.00280109 1.01742 0)
(0.00855211 0.979815 0)
(0.0121518 0.963058 0)
(0.0136055 0.939029 0)
(0.016903 0.897594 0)
(0.0239205 0.874739 0)
(0.0475889 0.849354 0)
(0.0755569 0.749206 0)
(0.0919361 0.760376 0)
(0.0885444 0.81552 0)
(0.0769603 0.848592 0)
(0.0725889 0.854178 0)
(0.0720599 0.85364 0)
(0.0718985 0.85227 0)
(0.0769245 0.798226 0)
(0.0891511 0.666285 0)
(0.088901 0.605705 0)
(0.0802069 0.541306 0)
(0.0568827 0.525273 0)
(0.0243099 0.542943 0)
(0.0132052 0.504098 0)
(0.0456143 0.557884 0)
(0.045427 0.520026 0)
(0.0380962 0.517237 0)
(0.0137 0.557268 0)
(0.00789053 0.698517 0)
(0.0168737 0.908247 0)
(0.00776665 1.02163 0)
(-0.00635965 1.05586 0)
(-0.00787806 1.04528 0)
(-0.00262539 1.01416 0)
(-0.0010302 0.981653 0)
(-0.0023581 0.964208 0)
(0.00290639 0.938972 0)
(0.00414445 0.894908 0)
(0.00854282 0.860401 0)
(0.0325122 0.826105 0)
(0.0637527 0.728741 0)
(0.0857522 0.753196 0)
(0.0922594 0.824672 0)
(0.0853962 0.85212 0)
(0.0811051 0.854715 0)
(0.0744195 0.848814 0)
(0.0709111 0.852289 0)
(0.0787838 0.778853 0)
(0.0914184 0.65791 0)
(0.0933964 0.608303 0)
(0.0854345 0.553758 0)
(0.0585539 0.553831 0)
(0.0240585 0.578674 0)
(0.00793635 0.478615 0)
(0.031282 0.550402 0)
(0.0328372 0.51718 0)
(0.0258995 0.535441 0)
(0.00180887 0.574852 0)
(-0.00550393 0.686455 0)
(0.000716013 0.908036 0)
(-0.00471016 1.02815 0)
(-0.0128884 1.0564 0)
(-0.0114567 1.04274 0)
(-0.00795909 1.01466 0)
(-0.00489649 0.985871 0)
(-0.00595597 0.964533 0)
(0.000665007 0.935731 0)
(0.000213388 0.892555 0)
(0.0023243 0.851775 0)
(0.0242353 0.802497 0)
(0.0510973 0.705509 0)
(0.0702334 0.740166 0)
(0.0841916 0.823284 0)
(0.0805921 0.854394 0)
(0.077243 0.85312 0)
(0.069728 0.850517 0)
(0.0651234 0.849595 0)
(0.0758659 0.756367 0)
(0.0906489 0.647347 0)
(0.0968087 0.607287 0)
(0.0882502 0.566552 0)
(0.0574966 0.584269 0)
(0.0226207 0.610216 0)
(0.00126214 0.464079 0)
(0.0149725 0.542401 0)
(0.0144234 0.514104 0)
(0.00575556 0.549268 0)
(-0.0134719 0.587869 0)
(-0.0232109 0.679092 0)
(-0.0185188 0.900538 0)
(-0.0171563 1.0299 0)
(-0.0183644 1.04897 0)
(-0.0143639 1.03975 0)
(-0.0125031 1.0169 0)
(-0.0103495 0.989946 0)
(-0.00753408 0.966481 0)
(0.00097059 0.933166 0)
(0.00163018 0.893116 0)
(0.00405124 0.843287 0)
(0.0220978 0.783351 0)
(0.040952 0.691149 0)
(0.0534557 0.72492 0)
(0.0668707 0.820866 0)
(0.0649393 0.851955 0)
(0.0638007 0.853728 0)
(0.0581928 0.84965 0)
(0.0539838 0.846468 0)
(0.066234 0.732846 0)
(0.0861367 0.635179 0)
(0.0981215 0.60547 0)
(0.087157 0.580934 0)
(0.0531994 0.619597 0)
(0.0204603 0.638821 0)
(-0.00518564 0.459207 0)
(0.00190424 0.53806 0)
(-0.00608449 0.51778 0)
(-0.0174455 0.558641 0)
(-0.0317538 0.601428 0)
(-0.041893 0.674451 0)
(-0.0370396 0.888021 0)
(-0.0235578 1.02143 0)
(-0.0184836 1.03833 0)
(-0.0139492 1.03323 0)
(-0.0154068 1.01975 0)
(-0.013826 0.99498 0)
(-0.00930752 0.962794 0)
(0.00126764 0.930815 0)
(0.00576353 0.891536 0)
(0.00973373 0.837444 0)
(0.022384 0.768705 0)
(0.0330139 0.682778 0)
(0.0360423 0.714268 0)
(0.0425388 0.816293 0)
(0.041328 0.848707 0)
(0.040774 0.848438 0)
(0.0378783 0.848937 0)
(0.0359039 0.839876 0)
(0.0549816 0.706704 0)
(0.0841994 0.616281 0)
(0.0971801 0.606739 0)
(0.0826745 0.602396 0)
(0.0467187 0.653043 0)
(0.0178586 0.661644 0)
(-0.0119848 0.461209 0)
(-0.00933831 0.53922 0)
(-0.0233799 0.528466 0)
(-0.0364108 0.568016 0)
(-0.0494096 0.611591 0)
(-0.0575115 0.672498 0)
(-0.0481107 0.864636 0)
(-0.0239988 1.00681 0)
(-0.012644 1.02701 0)
(-0.0105442 1.02737 0)
(-0.0131396 1.02575 0)
(-0.0134611 0.995626 0)
(-0.00759036 0.960123 0)
(0.00129282 0.924522 0)
(0.00842871 0.88795 0)
(0.015964 0.829325 0)
(0.0234243 0.761902 0)
(0.0266006 0.681088 0)
(0.0205901 0.710566 0)
(0.0186444 0.815527 0)
(0.0144699 0.841293 0)
(0.0133461 0.844554 0)
(0.00825469 0.84578 0)
(0.0146223 0.825235 0)
(0.0474727 0.673659 0)
(0.0770656 0.598165 0)
(0.0884692 0.609996 0)
(0.0731603 0.623804 0)
(0.0394524 0.686563 0)
(0.0143019 0.681386 0)
(-0.0168907 0.470531 0)
(-0.0167821 0.539758 0)
(-0.0283805 0.540322 0)
(-0.0456378 0.578331 0)
(-0.0586705 0.623384 0)
(-0.063124 0.667398 0)
(-0.050945 0.840502 0)
(-0.0203053 0.980922 0)
(-0.00417183 1.01716 0)
(-0.00327641 1.02271 0)
(-0.00667203 1.02863 0)
(-0.00536759 0.993713 0)
(0.000315215 0.954604 0)
(0.00358743 0.92222 0)
(0.0103719 0.87843 0)
(0.0198147 0.822127 0)
(0.0252169 0.760721 0)
(0.020884 0.686768 0)
(0.00658557 0.714379 0)
(-0.00314191 0.821578 0)
(-0.0129417 0.8386 0)
(-0.0180147 0.841837 0)
(-0.0215612 0.841132 0)
(0.000281161 0.797853 0)
(0.043225 0.63806 0)
(0.0709631 0.585707 0)
(0.0753584 0.614742 0)
(0.0588936 0.645823 0)
(0.0287579 0.711069 0)
(0.0124136 0.697233 0)
(-0.0207652 0.486407 0)
(-0.0216447 0.538855 0)
(-0.0287781 0.554692 0)
(-0.0468146 0.593547 0)
(-0.0634598 0.633098 0)
(-0.0640039 0.663878 0)
(-0.047437 0.815184 0)
(-0.0153876 0.955016 0)
(0.00434074 1.00726 0)
(0.00435333 1.02077 0)
(0.00186597 1.02954 0)
(0.00479408 0.984568 0)
(0.0094 0.950832 0)
(0.00849953 0.9179 0)
(0.0130745 0.870198 0)
(0.0210402 0.811386 0)
(0.0240421 0.765664 0)
(0.014609 0.699904 0)
(-0.00858823 0.725741 0)
(-0.0265554 0.831314 0)
(-0.0416196 0.841224 0)
(-0.0508889 0.84188 0)
(-0.0455548 0.826081 0)
(-0.00484551 0.758576 0)
(0.0426867 0.603565 0)
(0.0633507 0.580755 0)
(0.0572313 0.621275 0)
(0.0424667 0.665312 0)
(0.0140778 0.726285 0)
(0.00936659 0.705869 0)
(-0.0214785 0.507826 0)
(-0.0220175 0.533676 0)
(-0.0220241 0.565801 0)
(-0.0408884 0.614495 0)
(-0.0634924 0.64527 0)
(-0.0652982 0.658939 0)
(-0.0493099 0.788868 0)
(-0.0139047 0.927177 0)
(0.00811368 0.996452 0)
(0.00829918 1.02009 0)
(0.00767948 1.02612 0)
(0.0120424 0.979116 0)
(0.0140686 0.946815 0)
(0.0124723 0.917284 0)
(0.0152589 0.861971 0)
(0.0199147 0.805126 0)
(0.0195102 0.769427 0)
(0.0045613 0.721381 0)
(-0.0263503 0.747428 0)
(-0.0530843 0.843677 0)
(-0.0706567 0.852128 0)
(-0.080325 0.837342 0)
(-0.0578258 0.797387 0)
(-0.00263267 0.709714 0)
(0.0396268 0.576269 0)
(0.0476885 0.580552 0)
(0.0365507 0.630161 0)
(0.0180102 0.68039 0)
(-0.00301226 0.730997 0)
(0.00586184 0.706103 0)
(-0.0162939 0.529872 0)
(-0.0151613 0.526917 0)
(-0.0159921 0.574747 0)
(-0.0358951 0.639829 0)
(-0.0596113 0.657914 0)
(-0.0661279 0.659691 0)
(-0.0545601 0.760458 0)
(-0.0184594 0.900773 0)
(0.00630871 0.985694 0)
(0.00632857 1.01809 0)
(0.00728253 1.02142 0)
(0.0100054 0.971081 0)
(0.0126471 0.94607 0)
(0.012222 0.911168 0)
(0.0132055 0.859891 0)
(0.0173292 0.801056 0)
(0.0105591 0.776951 0)
(-0.00920296 0.7508 0)
(-0.0473793 0.777139 0)
(-0.0794242 0.858106 0)
(-0.0964185 0.865635 0)
(-0.0981365 0.823683 0)
(-0.0588431 0.751375 0)
(-0.00407206 0.663767 0)
(0.0254635 0.561919 0)
(0.0232931 0.583521 0)
(0.0072348 0.64411 0)
(-0.00871996 0.688978 0)
(-0.0177663 0.72669 0)
(0.00102255 0.696009 0)
(-0.00498002 0.542446 0)
(-0.000132665 0.527335 0)
(-0.0107102 0.587222 0)
(-0.0305428 0.661948 0)
(-0.0525139 0.673668 0)
(-0.0633822 0.664339 0)
(-0.0585127 0.73632 0)
(-0.0265876 0.870515 0)
(0.00131727 0.972499 0)
(0.00341735 1.01737 0)
(0.00251222 1.01328 0)
(0.00265524 0.965204 0)
(0.00708039 0.94167 0)
(0.00977248 0.90684 0)
(0.0101457 0.853472 0)
(0.0099491 0.804416 0)
(0.00127952 0.785555 0)
(-0.0291354 0.78918 0)
(-0.071986 0.809836 0)
(-0.104385 0.873779 0)
(-0.11523 0.873175 0)
(-0.104162 0.796594 0)
(-0.063773 0.706815 0)
(-0.0204466 0.626678 0)
(-0.00256005 0.555803 0)
(-0.0113282 0.592939 0)
(-0.026613 0.65199 0)
(-0.0279537 0.687714 0)
(-0.025509 0.712309 0)
(-8.54392e-05 0.677547 0)
(0.00668082 0.539844 0)
(0.0142197 0.533849 0)
(-0.003377 0.604475 0)
(-0.0249207 0.680436 0)
(-0.042144 0.687678 0)
(-0.0562221 0.673173 0)
(-0.0561897 0.717706 0)
(-0.0335827 0.840562 0)
(-0.00501023 0.955251 0)
(-0.000169243 1.01621 0)
(-0.00220857 1.01106 0)
(-0.00296076 0.957767 0)
(0.00221492 0.937706 0)
(0.00826972 0.897976 0)
(0.00791392 0.853792 0)
(0.00200155 0.808377 0)
(-0.01069 0.804397 0)