/*--------------------------------*- C++ -*----------------------------------*\
| =========                 |                                                 |
| \\      /  F ield         | OpenFOAM: The Open Source CFD Toolbox           |
|  \\    /   O peration     | Version:  2.3.0                                 |
|   \\  /    A nd           | Web:      www.OpenFOAM.org                      |
|    \\/     M anipulation  |                                                 |
\*---------------------------------------------------------------------------*/
FoamFile
{
    version     2.0;
    format      ascii;
    class       volScalarField;
    location    "20";
    object      pMean;
}
// * * * * * * * * * * * * * * * * * * * * * * * * * * * * * * * * * * * * * //

dimensions      [1 -1 -2 0 0 0 0];

internalField   nonuniform List<scalar> 
1875
(
107139
107125
107093
107067
107048
107038
107036
107038
107043
107047
107050
107050
107048
107044
107039
107032
107026
107023
107023
107030
107045
107067
107096
107128
107143
106918
106898
106874
106855
106843
106840
106842
106848
106855
106861
106865
106866
106864
106861
106855
106848
106841
106836
106833
106835
106843
106858
106879
106904
106924
106768
106758
106748
106740
106736
106735
106736
106739
106743
106746
106747
106748
106747
106745
106742
106738
106735
106732
106731
106732
106736
106743
106752
106763
106773
106655
106650
106644
106639
106635
106632
106631
106632
106633
106634
106634
106634
106633
106632
106630
106629
106627
106627
106628
106630
106635
106641
106648
106655
106660
106560
106558
106555
106551
106547
106544
106542
106541
106541
106541
106541
106541
106541
106541
106540
106540
106540
106540
106542
106545
106549
106555
106560
106564
106566
106464
106463
106461
106457
106453
106450
106447
106445
106444
106444
106444
106445
106445
106445
106445
106445
106445
106445
106447
106450
106454
106459
106464
106468
106469
106365
106365
106363
106360
106356
106353
106350
106348
106347
106346
106346
106346
106346
106347
106347
106346
106346
106347
106348
106351
106354
106359
106363
106366
106367
106260
106260
106258
106256
106253
106250
106246
106244
106242
106241
106240
106239
106238
106238
106238
106238
106238
106238
106240
106242
106245
106249
106253
106255
106256
106152
106152
106151
106149
106146
106143
106139
106137
106134
106132
106130
106128
106127
106126
106126
106126
106126
106126
106128
106130
106133
106137
106140
106142
106142
106039
106039
106038
106036
106034
106031
106028
106025
106022
106020
106017
106015
106013
106012
106011
106010
106010
106011
106012
106014
106017
106020
106023
106025
106026
105925
105924
105922
105921
105919
105917
105915
105912
105909
105906
105903
105900
105898
105897
105896
105896
105896
105897
105898
105899
105902
105904
105906
105908
105909
105808
105807
105805
105804
105802
105801
105799
105797
105794
105791
105787
105785
105782
105782
105782
105782
105784
105785
105786
105787
105788
105789
105790
105793
105794
105692
105691
105690
105688
105687
105686
105685
105683
105680
105678
105675
105672
105670
105670
105671
105672
105674
105676
105676
105677
105678
105679
105680
105682
105684
105579
105577
105576
105575
105574
105574
105573
105571
105569
105567
105565
105563
105562
105562
105563
105565
105567
105568
105568
105569
105570
105571
105573
105575
105576
105468
105467
105466
105465
105464
105464
105464
105464
105462
105460
105458
105457
105456
105457
105457
105459
105461
105462
105462
105463
105464
105465
105467
105469
105470
105360
105360
105358
105357
105357
105358
105358
105358
105357
105355
105353
105352
105351
105352
105353
105354
105356
105357
105358
105358
105359
105360
105362
105363
105364
105255
105254
105253
105252
105252
105252
105252
105253
105252
105250
105248
105246
105245
105246
105248
105250
105252
105254
105254
105255
105256
105257
105258
105259
105260
105149
105148
105147
105146
105145
105144
105144
105144
105143
105142
105140
105138
105138
105140
105142
105145
105148
105150
105152
105153
105154
105155
105155
105156
105157
105041
105041
105040
105039
105037
105036
105034
105033
105032
105031
105030
105029
105031
105033
105036
105040
105043
105046
105049
105050
105052
105052
105053
105054
105054
104934
104933
104932
104931
104930
104928
104926
104925
104924
104923
104922
104923
104924
104927
104930
104934
104937
104940
104943
104945
104946
104947
104948
104949
104949
104829
104828
104827
104826
104825
104824
104823
104822
104821
104820
104819
104819
104820
104822
104824
104827
104830
104833
104835
104837
104838
104840
104841
104842
104842
104726
104725
104724
104723
104722
104721
104721
104720
104720
104719
104718
104718
104717
104718
104720
104722
104724
104726
104728
104729
104731
104732
104733
104734
104735
104626
104625
104624
104624
104623
104622
104621
104620
104620
104619
104617
104616
104615
104615
104616
104617
104619
104620
104622
104623
104624
104624
104625
104626
104627
104525
104524
104524
104523
104523
104521
104520
104519
104518
104516
104514
104512
104511
104510
104511
104511
104513
104514
104515
104516
104517
104517
104518
104519
104520
104421
104421
104420
104420
104419
104418
104416
104414
104413
104411
104408
104406
104405
104404
104404
104404
104405
104406
104407
104408
104409
104410
104411
104412
104413
104314
104314
104314
104313
104312
104311
104309
104307
104305
104303
104300
104298
104297
104296
104296
104296
104297
104299
104300
104301
104302
104304
104304
104305
104305
104206
104206
104205
104205
104204
104202
104200
104198
104196
104194
104192
104190
104188
104188
104188
104189
104190
104192
104193
104194
104195
104196
104197
104198
104198
104097
104097
104096
104096
104095
104093
104092
104090
104087
104085
104083
104082
104080
104080
104080
104081
104083
104084
104085
104086
104087
104088
104088
104089
104090
103988
103988
103987
103987
103986
103985
103983
103981
103979
103977
103976
103974
103973
103973
103973
103974
103975
103976
103977
103977
103978
103979
103980
103981
103981
103880
103879
103879
103878
103877
103876
103875
103873
103871
103870
103868
103867
103866
103865
103866
103867
103868
103868
103869
103869
103870
103871
103872
103873
103874
103772
103771
103771
103770
103769
103768
103767
103766
103764
103763
103761
103760
103759
103759
103760
103760
103761
103762
103763
103763
103764
103765
103767
103768
103768
103664
103664
103663
103662
103661
103660
103660
103659
103658
103657
103656
103655
103654
103654
103655
103656
103657
103658
103659
103660
103661
103662
103663
103664
103664
103557
103557
103556
103555
103554
103554
103553
103552
103552
103551
103550
103550
103550
103550
103551
103552
103553
103554
103555
103557
103558
103559
103560
103561
103561
103451
103451
103450
103449
103448
103448
103447
103447
103446
103446
103445
103445
103445
103446
103447
103448
103449
103451
103452
103454
103455
103456
103457
103457
103458
103346
103345
103345
103344
103344
103343
103342
103341
103341
103340
103340
103340
103340
103341
103342
103344
103345
103347
103348
103349
103351
103352
103352
103353
103353
103241
103240
103240
103239
103239
103238
103237
103236
103235
103234
103234
103234
103235
103236
103237
103239
103240
103242
103243
103244
103245
103246
103247
103247
103247
103135
103135
103134
103134
103133
103132
103131
103130
103129
103128
103128
103128
103129
103130
103131
103133
103134
103136
103137
103138
103139
103140
103140
103140
103141
103030
103029
103029
103028
103027
103026
103025
103024
103023
103022
103022
103022
103023
103024
103025
103026
103028
103029
103030
103031
103032
103032
103033
103033
103033
102924
102924
102923
102923
102922
102921
102920
102919
102918
102917
102917
102917
102917
102917
102918
102919
102920
102922
102923
102923
102924
102924
102925
102925
102925
102819
102818
102818
102817
102817
102816
102815
102814
102813
102812
102812
102811
102811
102811
102812
102813
102814
102814
102815
102815
102816
102816
102817
102817
102817
102714
102713
102713
102712
102712
102711
102710
102709
102708
102707
102706
102705
102705
102705
102705
102706
102707
102707
102708
102708
102709
102709
102709
102710
102710
102608
102608
102608
102607
102607
102606
102605
102604
102603
102602
102602
102601
102600
102599
102599
102600
102600
102600
102600
102601
102602
102602
102603
102603
102603
102503
102503
102502
102502
102501
102500
102500
102499
102498
102497
102496
102495
102495
102494
102494
102494
102493
102493
102493
102494
102495
102495
102496
102497
102497
102397
102397
102396
102395
102395
102394
102393
102392
102392
102391
102390
102390
102389
102388
102388
102388
102388
102388
102388
102388
102389
102390
102391
102391
102392
102290
102289
102289
102288
102288
102287
102286
102286
102285
102284
102284
102283
102283
102283
102282
102282
102282
102283
102283
102283
102284
102285
102285
102286
102286
102182
102182
102182
102181
102181
102180
102179
102178
102178
102177
102177
102177
102177
102176
102176
102176
102177
102177
102177
102178
102179
102179
102180
102180
102180
102074
102074
102074
102073
102073
102072
102071
102070
102070
102070
102070
102070
102070
102070
102070
102070
102071
102071
102072
102072
102073
102074
102074
102074
102075
101966
101966
101965
101965
101964
101964
101963
101963
101963
101962
101963
101963
101963
101963
101964
101964
101965
101966
101966
101967
101967
101968
101968
101968
101969
101859
101859
101858
101858
101857
101857
101856
101856
101856
101856
101856
101856
101857
101857
101857
101858
101859
101859
101860
101861
101861
101862
101862
101862
101863
101753
101752
101752
101751
101750
101750
101750
101750
101750
101750
101750
101750
101751
101751
101751
101752
101752
101753
101754
101754
101755
101755
101756
101756
101757
101646
101646
101645
101644
101644
101643
101643
101643
101643
101643
101643
101644
101644
101644
101645
101645
101646
101647
101648
101648
101649
101649
101650
101650
101651
101540
101539
101539
101538
101537
101536
101536
101536
101535
101536
101536
101536
101537
101537
101538
101539
101540
101541
101542
101543
101543
101544
101544
101544
101545
101433
101433
101432
101432
101431
101430
101429
101429
101428
101428
101428
101428
101429
101429
101430
101432
101433
101435
101436
101436
101437
101437
101437
101438
101438
101328
101328
101327
101326
101326
101325
101324
101323
101322
101322
101321
101322
101322
101323
101324
101325
101327
101328
101329
101330
101330
101330
101331
101331
101332
101224
101224
101224
101223
101222
101221
101220
101219
101219
101218
101218
101218
101218
101219
101220
101221
101222
101224
101224
101225
101225
101225
101225
101226
101226
101122
101121
101121
101120
101119
101119
101118
101117
101117
101116
101116
101116
101116
101116
101117
101118
101119
101120
101120
101121
101121
101121
101121
101122
101122
101021
101020
101020
101019
101019
101018
101017
101016
101016
101015
101015
101015
101014
101015
101015
101016
101016
101017
101017
101017
101017
101018
101018
101018
101019
100921
100921
100920
100920
100919
100918
100918
100917
100916
100915
100915
100914
100914
100913
100913
100913
100913
100914
100914
100915
100915
100916
100916
100917
100917
100823
100823
100823
100822
100821
100821
100820
100819
100818
100817
100816
100814
100814
100813
100813
100812
100812
100812
100813
100814
100814
100815
100816
100816
100817
100726
100726
100725
100725
100724
100723
100722
100721
100720
100719
100718
100717
100716
100716
100715
100715
100714
100714
100715
100715
100716
100717
100718
100718
100719
100629
100629
100629
100628
100628
100627
100626
100624
100623
100622
100621
100620
100620
100619
100619
100619
100619
100619
100620
100620
100621
100622
100622
100623
100624
100533
100533
100533
100532
100532
100531
100530
100528
100527
100526
100525
100524
100523
100523
100523
100523
100523
100524
100525
100526
100527
100528
100529
100530
100530
100439
100438
100438
100438
100437
100436
100435
100434
100432
100431
100430
100429
100428
100427
100427
100428
100429
100430
100432
100433
100435
100436
100437
100438
100439
100346
100345
100345
100344
100343
100343
100342
100341
100340
100339
100338
100337
100337
100336
100336
100336
100337
100339
100340
100342
100344
100345
100346
100347
100348
100257
100256
100255
100254
100253
100253
100252
100252
100252
100252
100252
100251
100251
100250
100250
100251
100251
100252
100253
100254
100255
100256
100257
100258
100260
100169
100168
100167
100166
100166
100166
100166
100166
100167
100167
100167
100167
100167
100167
100167
100167
100167
100166
100166
100167
100167
100168
100169
100170
100171
100089
100087
100087
100086
100086
100085
100085
100084
100084
100084
100084
100084
100084
100084
100084
100084
100083
100083
100083
100083
100084
100085
100086
100087
100088
100022
100021
100021
100021
100021
100021
100021
100021
100021
100021
100022
100022
100022
100022
100022
100022
100022
100022
100022
100022
100021
100021
100021
100021
100022
100002
100002
100002
100002
100002
100002
100002
100002
100002
100002
100002
100002
100002
100002
100002
100002
100002
100002
100002
100002
100002
100002
100002
100002
100002
100001
100001
100001
100001
100001
100001
100001
100001
100001
100001
100001
100001
100001
100001
100001
100001
100001
100001
100001
100001
100001
100001
100001
100001
100001
100001
100001
100001
100001
100001
100001
100001
100001
100001
100001
100001
100001
100001
100001
100001
100001
100001
100001
100001
100001
100001
100001
100001
100001
100001
100001
100001
100001
100001
100001
100001
100001
100001
100001
100001
100001
100001
100001
100001
100001
100001
100001
100001
100001
100001
100001
100001
100001
100001
100001
100000
100000
100000
100000
100000
100000
100000
100000
100000
100000
100000
100000
100000
100000
100000
100000
100000
100000
100000
100000
100000
100000
100000
100000
100000
100000
100000
100000
100000
100000
100000
100000
100000
100000
100000
100000
100000
100000
100000
100000
100000
100000
100000
100000
100000
100000
100000
100000
100000
100000
100000
100000
100000
100000
100000
100000
100000
100000
100000
100000
100000
100000
100000
100000
100000
100000
100000
100000
100000
100000
100000
100000
100000
100000
100000
)
;

boundaryField
{
    inlet
    {
        type            calculated;
        value           nonuniform List<scalar> 
25
(
107145
107131
107101
107074
107057
107047
107045
107048
107052
107057
107059
107060
107058
107054
107049
107042
107036
107032
107033
107039
107053
107075
107104
107135
107150
)
;
    }
    outlet
    {
        type            calculated;
        value           uniform 100000;
    }
    walls
    {
        type            calculated;
        value           nonuniform List<scalar> 
150
(
107139
106918
106768
106655
106560
106464
106365
106260
106152
106039
105925
105808
105692
105579
105468
105360
105255
105149
105041
104934
104829
104726
104626
104525
104421
104314
104206
104097
103988
103880
103772
103664
103557
103451
103346
103241
103135
103030
102924
102819
102714
102608
102503
102397
102290
102182
102074
101966
101859
101753
101646
101540
101433
101328
101224
101122
101021
100921
100823
100726
100629
100533
100439
100346
100257
100169
100089
100022
100002
100001
100001
100001
100000
100000
100000
107143
106924
106773
106660
106566
106469
106367
106256
106142
106026
105909
105794
105684
105576
105470
105364
105260
105157
105054
104949
104842
104735
104627
104520
104413
104305
104198
104090
103981
103874
103768
103664
103561
103458
103353
103247
103141
103033
102925
102817
102710
102603
102497
102392
102286
102180
102075
101969
101863
101757
101651
101545
101438
101332
101226
101122
101019
100917
100817
100719
100624
100530
100439
100348
100260
100171
100088
100022
100002
100001
100001
100001
100000
100000
100000
)
;
    }
    defaultFaces
    {
        type            empty;
    }
}


// ************************************************************************* //
