/*--------------------------------*- C++ -*----------------------------------*\
| =========                 |                                                 |
| \\      /  F ield         | OpenFOAM: The Open Source CFD Toolbox           |
|  \\    /   O peration     | Version:  2.3.0                                 |
|   \\  /    A nd           | Web:      www.OpenFOAM.org                      |
|    \\/     M anipulation  |                                                 |
\*---------------------------------------------------------------------------*/
FoamFile
{
    version     2.0;
    format      ascii;
    class       volVectorField;
    location    "20";
    object      U.water;
}
// * * * * * * * * * * * * * * * * * * * * * * * * * * * * * * * * * * * * * //

dimensions      [0 1 -1 0 0 0 0];

internalField   nonuniform List<vector> 
1875
(
(-0.0246541 -0.0590538 0)
(-0.0772348 -0.0484816 0)
(-0.131952 -0.030983 0)
(-0.178371 -0.0475497 0)
(-0.24009 -0.0491089 0)
(-0.325097 -0.0628143 0)
(-0.40945 -0.0919987 0)
(-0.471963 -0.0963126 0)
(-0.527809 -0.10993 0)
(-0.56395 -0.114803 0)
(-0.590695 -0.121572 0)
(-0.60198 -0.127353 0)
(-0.60519 -0.130946 0)
(-0.592267 -0.142551 0)
(-0.572421 -0.143685 0)
(-0.546869 -0.154833 0)
(-0.513157 -0.15595 0)
(-0.477668 -0.164353 0)
(-0.436743 -0.165581 0)
(-0.397495 -0.172659 0)
(-0.353776 -0.178748 0)
(-0.30569 -0.193 0)
(-0.243023 -0.214657 0)
(-0.148957 -0.255446 0)
(-0.108039 -0.280428 0)
(-0.0163336 0.191329 0)
(-0.0445529 0.194263 0)
(-0.0608994 0.181768 0)
(-0.0860002 0.189293 0)
(-0.163591 0.234557 0)
(-0.236124 0.278695 0)
(-0.272283 0.288337 0)
(-0.322784 0.259119 0)
(-0.346106 0.244546 0)
(-0.376199 0.2161 0)
(-0.393494 0.190374 0)
(-0.403953 0.157507 0)
(-0.40332 0.118555 0)
(-0.392604 0.0769387 0)
(-0.376994 0.0374124 0)
(-0.348385 0.00964412 0)
(-0.320155 -0.0156867 0)
(-0.281929 -0.0294999 0)
(-0.247289 -0.0395113 0)
(-0.211802 -0.0430923 0)
(-0.182516 -0.051765 0)
(-0.151845 -0.0734919 0)
(-0.127058 -0.116602 0)
(-0.0872757 -0.224199 0)
(-0.0310316 -0.342319 0)
(-0.00213848 0.181538 0)
(-0.0143744 0.173225 0)
(-0.0152093 0.159451 0)
(-0.0294737 0.226813 0)
(-0.0461322 0.336168 0)
(-0.107552 0.330251 0)
(-0.131328 0.24697 0)
(-0.161868 0.210119 0)
(-0.19253 0.176109 0)
(-0.206679 0.117034 0)
(-0.213924 0.0522254 0)
(-0.215023 -0.0160749 0)
(-0.198008 -0.0931584 0)
(-0.197481 -0.131758 0)
(-0.191978 -0.17159 0)
(-0.175017 -0.204826 0)
(-0.159648 -0.227753 0)
(-0.137851 -0.235723 0)
(-0.114555 -0.232222 0)
(-0.0955192 -0.220567 0)
(-0.0780699 -0.208369 0)
(-0.0619229 -0.209135 0)
(-0.043893 -0.231088 0)
(-0.0390566 -0.304476 0)
(-0.0166695 -0.480145 0)
(0.0091255 0.173772 0)
(0.0474612 0.17968 0)
(0.0542319 0.183091 0)
(0.0708701 0.208986 0)
(0.0689352 0.283169 0)
(0.101201 0.37605 0)
(0.116269 0.372018 0)
(0.113563 0.352579 0)
(0.0961758 0.305349 0)
(0.0952066 0.235718 0)
(0.102362 0.164307 0)
(0.0950081 0.0880919 0)
(0.101049 0.0251176 0)
(0.0921752 -0.0209978 0)
(0.0996585 -0.0682126 0)
(0.0964801 -0.122403 0)
(0.0883628 -0.166586 0)
(0.0755288 -0.193955 0)
(0.0627707 -0.197942 0)
(0.0449504 -0.192761 0)
(0.0323301 -0.1807 0)
(0.0193273 -0.182243 0)
(0.00968452 -0.2132 0)
(-0.00485227 -0.288929 0)
(-0.00386024 -0.508942 0)
(0.0384331 0.112941 0)
(0.111497 0.0966815 0)
(0.163162 0.155691 0)
(0.208105 0.186244 0)
(0.219666 0.248853 0)
(0.244405 0.286732 0)
(0.280618 0.31125 0)
(0.306105 0.310245 0)
(0.322352 0.285164 0)
(0.32918 0.234432 0)
(0.332798 0.176465 0)
(0.322779 0.106861 0)
(0.311951 0.0338858 0)
(0.296073 -0.0396732 0)
(0.275259 -0.107363 0)
(0.246508 -0.154451 0)
(0.218002 -0.188207 0)
(0.179923 -0.207778 0)
(0.144773 -0.202767 0)
(0.109534 -0.187554 0)
(0.085611 -0.168878 0)
(0.0552176 -0.160921 0)
(0.0286778 -0.192181 0)
(0.00314931 -0.276809 0)
(0.000407226 -0.51599 0)
(0.0744855 -0.206791 0)
(0.11014 -0.164699 0)
(0.180827 -0.0504727 0)
(0.220228 0.0624738 0)
(0.243151 0.150447 0)
(0.259928 0.203244 0)
(0.279991 0.233223 0)
(0.298407 0.250746 0)
(0.317173 0.246168 0)
(0.326268 0.221429 0)
(0.333786 0.180269 0)
(0.337767 0.138868 0)
(0.335626 0.0894309 0)
(0.324459 0.0393944 0)
(0.303197 -0.00565445 0)
(0.275127 -0.0482649 0)
(0.252818 -0.0786931 0)
(0.212586 -0.0845112 0)
(0.168462 -0.083679 0)
(0.124034 -0.0900403 0)
(0.0965963 -0.0965009 0)
(0.0671317 -0.0915093 0)
(0.0418889 -0.129139 0)
(0.0152588 -0.235065 0)
(0.0090415 -0.496063 0)
(0.0360596 -0.349952 0)
(0.0495123 -0.247246 0)
(0.0827636 -0.0697671 0)
(0.0933573 0.031093 0)
(0.129633 0.109845 0)
(0.170506 0.165571 0)
(0.192053 0.203986 0)
(0.212879 0.218159 0)
(0.236319 0.216763 0)
(0.256848 0.19805 0)
(0.268921 0.165234 0)
(0.272244 0.134455 0)
(0.265409 0.105511 0)
(0.253289 0.0729693 0)
(0.235739 0.0236309 0)
(0.213263 -0.0216317 0)
(0.178419 -0.0312037 0)
(0.128576 -0.0239807 0)
(0.0864072 -0.0304335 0)
(0.0530778 -0.051772 0)
(0.0382473 -0.0698951 0)
(0.0333905 -0.0694473 0)
(0.0312912 -0.107434 0)
(0.0155354 -0.217205 0)
(0.0131642 -0.470536 0)
(0.0119713 -0.378851 0)
(-0.0634375 -0.20224 0)
(-0.0599927 -0.0958577 0)
(-0.0672273 -0.0360062 0)
(-0.0600812 0.0375744 0)
(-0.0207282 0.128696 0)
(-0.00439874 0.162308 0)
(0.0336009 0.173908 0)
(0.0671804 0.173211 0)
(0.0967766 0.16575 0)
(0.12499 0.155779 0)
(0.148415 0.140585 0)
(0.16699 0.114136 0)
(0.179022 0.0862216 0)
(0.175638 0.0696487 0)
(0.161926 0.0671793 0)
(0.129312 0.0858392 0)
(0.0920715 0.0942957 0)
(0.0560919 0.0617169 0)
(0.0207229 -0.00521391 0)
(0.00870955 -0.0602266 0)
(0.0121585 -0.0721216 0)
(0.0207179 -0.106769 0)
(0.0114567 -0.204211 0)
(0.0099635 -0.447327 0)
(-0.015522 -0.25459 0)
(-0.0954907 -0.0834941 0)
(-0.133067 -0.0182654 0)
(-0.168175 0.0278743 0)
(-0.178924 0.0531049 0)
(-0.167625 0.0807554 0)
(-0.132318 0.0805672 0)
(-0.0874577 0.0781174 0)
(-0.0370888 0.0851183 0)
(0.0158876 0.07235 0)
(0.064401 0.0672186 0)
(0.103967 0.0653016 0)
(0.13479 0.0684237 0)
(0.152705 0.0773151 0)
(0.156613 0.091274 0)
(0.150929 0.117686 0)
(0.134261 0.143624 0)
(0.117269 0.146882 0)
(0.0950427 0.129786 0)
(0.0705678 0.0666481 0)
(0.0323364 -0.0433027 0)
(0.0177754 -0.091168 0)
(0.0153656 -0.109333 0)
(0.00209902 -0.190465 0)
(0.0138426 -0.415196 0)
(0.01096 -0.210092 0)
(-0.0406012 0.0110622 0)
(-0.0788662 0.0658708 0)
(-0.119159 0.0734123 0)
(-0.142016 0.069849 0)
(-0.149855 0.0313335 0)
(-0.104614 -0.0390478 0)
(-0.0653541 -0.0525625 0)
(0.0021976 -0.0684646 0)
(0.0716987 -0.0771185 0)
(0.126215 -0.0315837 0)
(0.172697 0.0032652 0)
(0.203888 0.0338852 0)
(0.221438 0.0725357 0)
(0.223471 0.109234 0)
(0.217904 0.136127 0)
(0.209023 0.161392 0)
(0.193428 0.190395 0)
(0.167472 0.188239 0)
(0.137982 0.154689 0)
(0.0863133 0.0756594 0)
(0.0465445 -0.0229625 0)
(-0.0156856 -0.0489503 0)
(-0.00443477 -0.195185 0)
(0.00342752 -0.401955 0)
(0.0147127 -0.210465 0)
(0.0416549 0.0531192 0)
(0.0566083 0.162003 0)
(0.0307342 0.155453 0)
(0.00114939 0.116769 0)
(-0.00174316 0.0141705 0)
(0.0145153 -0.133291 0)
(0.0530393 -0.212403 0)
(0.112579 -0.249039 0)
(0.159325 -0.242249 0)
(0.203827 -0.18604 0)
(0.237145 -0.11226 0)
(0.261239 -0.0588686 0)
(0.275247 0.018315 0)
(0.268412 0.0789468 0)
(0.235543 0.151239 0)
(0.207092 0.205574 0)
(0.175855 0.243477 0)
(0.148911 0.272604 0)
(0.11873 0.25389 0)
(0.070094 0.162145 0)
(0.00349252 0.109178 0)
(-0.0712434 0.0377932 0)
(-0.00426486 -0.286481 0)
(-0.0137623 -0.400623 0)
(0.0319823 -0.284864 0)
(0.0689408 -0.148539 0)
(0.150823 0.12699 0)
(0.157805 0.201717 0)
(0.140432 0.180425 0)
(0.133559 0.0677951 0)
(0.115826 -0.11936 0)
(0.133618 -0.275272 0)
(0.16546 -0.318136 0)
(0.182768 -0.304528 0)
(0.209968 -0.234805 0)
(0.201426 -0.163354 0)
(0.179887 -0.0764912 0)
(0.184046 0.0553743 0)
(0.185179 0.164538 0)
(0.17107 0.222392 0)
(0.140484 0.279543 0)
(0.0966015 0.290428 0)
(0.0567991 0.316744 0)
(0.0255348 0.344306 0)
(-0.0371051 0.290103 0)
(-0.0904586 0.211632 0)
(-0.0706902 -0.0449429 0)
(-0.0306785 -0.36108 0)
(-0.0233063 -0.472616 0)
(0.0457594 -0.439611 0)
(0.0476041 -0.306107 0)
(0.117864 5.59259e-05 0)
(0.133373 0.177826 0)
(0.129704 0.180082 0)
(0.135001 0.112116 0)
(0.125512 -0.119457 0)
(0.141526 -0.298421 0)
(0.111059 -0.357942 0)
(0.0735068 -0.319285 0)
(0.0314756 -0.148529 0)
(0.0148965 -0.0388253 0)
(-0.0187281 -0.0302171 0)
(-0.0144861 0.0557999 0)
(-0.0165631 0.166434 0)
(-0.0145303 0.289092 0)
(-0.0406407 0.372402 0)
(-0.0643412 0.424555 0)
(-0.0883979 0.441755 0)
(-0.0947112 0.41412 0)
(-0.0985266 0.33269 0)
(-0.0946088 0.191454 0)
(-0.053291 -0.129003 0)
(-0.0264857 -0.40962 0)
(-0.00850071 -0.52354 0)
(0.0209973 -0.527355 0)
(0.020909 -0.324613 0)
(0.0194955 -0.0390669 0)
(0.03993 0.164566 0)
(0.04225 0.173657 0)
(0.0515538 0.0949729 0)
(0.0658404 -0.148451 0)
(0.030304 -0.269649 0)
(-0.0193149 -0.230034 0)
(-0.0932776 -0.155069 0)
(-0.113408 -0.110295 0)
(-0.119436 -0.0395805 0)
(-0.143742 0.0387318 0)
(-0.158454 0.145733 0)
(-0.175718 0.253701 0)
(-0.170216 0.347998 0)
(-0.173966 0.400854 0)
(-0.164511 0.421906 0)
(-0.143098 0.417622 0)
(-0.119931 0.380642 0)
(-0.0984535 0.300376 0)
(-0.0593469 0.129101 0)
(-0.0224443 -0.153671 0)
(-0.00470155 -0.442132 0)
(-0.00534198 -0.545015 0)
(0.00181137 -0.536828 0)
(-0.0346622 -0.22937 0)
(-0.0667113 0.0123332 0)
(-0.0577052 0.158635 0)
(-0.0522177 0.159403 0)
(-0.0282093 0.0182434 0)
(-0.0183476 -0.127552 0)
(-0.0902213 -0.164647 0)
(-0.13922 -0.14676 0)
(-0.166151 -0.0968757 0)
(-0.184988 -0.0457644 0)
(-0.205044 0.00661292 0)
(-0.221247 0.0885021 0)
(-0.221752 0.179233 0)
(-0.226557 0.246066 0)
(-0.212062 0.324028 0)
(-0.196448 0.361683 0)
(-0.173878 0.372758 0)
(-0.140884 0.363757 0)
(-0.109397 0.31757 0)
(-0.071137 0.209303 0)
(-0.0261697 0.0121092 0)
(-0.00459948 -0.193037 0)
(0.00830834 -0.447354 0)
(5.78321e-05 -0.546685 0)
(-0.0198028 -0.461122 0)
(-0.0438513 -0.142478 0)
(-0.0754108 0.0501797 0)
(-0.0719176 0.13755 0)
(-0.0637413 0.126067 0)
(-0.0518548 -0.00258582 0)
(-0.0702067 -0.0524069 0)
(-0.158952 -0.0646537 0)
(-0.185342 -0.0767683 0)
(-0.205732 -0.0533165 0)
(-0.206191 0.00253628 0)
(-0.198699 0.0467563 0)
(-0.217353 0.0880259 0)
(-0.217127 0.171283 0)
(-0.214638 0.230567 0)
(-0.199293 0.282254 0)
(-0.174894 0.305765 0)
(-0.148436 0.303379 0)
(-0.107018 0.268007 0)
(-0.0755429 0.198397 0)
(-0.0361362 0.0988766 0)
(-0.0368039 -0.00968344 0)
(-0.00172572 -0.272082 0)
(0.00245812 -0.446546 0)
(-0.000555448 -0.535965 0)
(-0.00610354 -0.424261 0)
(-0.0213374 -0.0981344 0)
(-0.040406 0.065235 0)
(-0.0435196 0.134791 0)
(-0.0404156 0.108068 0)
(-0.0344967 0.0301409 0)
(-0.0570973 0.059016 0)
(-0.107389 0.0653641 0)
(-0.177863 -0.037874 0)
(-0.20334 -0.0574158 0)
(-0.216223 -0.0427284 0)
(-0.197446 0.029743 0)
(-0.169951 0.130398 0)
(-0.153099 0.18938 0)
(-0.145344 0.219669 0)
(-0.133579 0.230135 0)
(-0.112102 0.231567 0)
(-0.0962735 0.217978 0)
(-0.0650454 0.179372 0)
(-0.0482053 0.135901 0)
(-0.0485328 0.0907723 0)
(-0.042045 -0.0572222 0)
(-0.0122364 -0.297838 0)
(-0.0141179 -0.448751 0)
(-0.00810237 -0.539013 0)
(-0.000329544 -0.414874 0)
(-0.00124544 -0.0826617 0)
(-0.00358559 0.0729172 0)
(-0.00940394 0.140914 0)
(-0.0101026 0.10393 0)
(-0.0113972 0.0304537 0)
(-0.0137058 0.0812453 0)
(-0.0135685 0.165542 0)
(-0.044048 0.13796 0)
(-0.0744226 0.0775613 0)
(-0.0863338 -0.00431135 0)
(-0.0937933 -0.0301884 0)
(-0.0710692 -0.00313714 0)
(-0.0469284 0.0907682 0)
(-0.00237654 0.178043 0)
(0.0122294 0.229534 0)
(0.00848203 0.238849 0)
(-0.0119736 0.219851 0)
(-0.0152351 0.173747 0)
(-0.0317814 0.14693 0)
(-0.0522949 0.0990837 0)
(-0.0253474 -0.11033 0)
(-0.0284457 -0.302015 0)
(-0.0211766 -0.462813 0)
(-0.0152925 -0.568375 0)
(0.000734908 -0.416417 0)
(0.00763053 -0.0876975 0)
(0.0154115 0.0730843 0)
(0.0140397 0.155685 0)
(0.00854255 0.127348 0)
(-0.00282841 0.0411268 0)
(-0.0142216 0.060928 0)
(0.00515419 0.151583 0)
(0.0277281 0.13974 0)
(0.0544559 0.0735319 0)
(0.0969754 0.000181619 0)
(0.110258 -0.0107633 0)
(0.114445 -0.00273349 0)
(0.115614 0.0270174 0)
(0.119313 0.0897715 0)
(0.12275 0.202231 0)
(0.106521 0.285439 0)
(0.0734252 0.283007 0)
(0.0362397 0.228605 0)
(-0.0142024 0.201948 0)
(-0.0329691 0.108871 0)
(-0.018948 -0.124834 0)
(-0.0317201 -0.297786 0)
(-0.0287305 -0.491474 0)
(-0.0161029 -0.61834 0)
(-7.41282e-05 -0.433166 0)
(0.0127362 -0.122678 0)
(0.0268507 0.0519311 0)
(0.036711 0.145028 0)
(0.0426645 0.139436 0)
(0.0393527 0.0885818 0)
(0.0328981 0.0532447 0)
(0.0580121 0.0673772 0)
(0.1039 0.0424771 0)
(0.165108 -0.0502179 0)
(0.211101 -0.0883657 0)
(0.225986 -0.0780268 0)
(0.245412 -0.0391627 0)
(0.236246 0.0390363 0)
(0.19254 0.131894 0)
(0.156727 0.240083 0)
(0.133368 0.343506 0)
(0.0966656 0.373607 0)
(0.0330502 0.350729 0)
(-0.0160885 0.285422 0)
(-0.0133358 0.11697 0)
(-0.0184855 -0.0995715 0)
(-0.0261901 -0.297675 0)
(-0.0241678 -0.502078 0)
(-0.0118698 -0.6742 0)
(-0.00562346 -0.443056 0)
(0.00974826 -0.15079 0)
(0.0284103 0.0185698 0)
(0.046868 0.109499 0)
(0.0706367 0.113739 0)
(0.0821126 0.0815026 0)
(0.100458 0.030105 0)
(0.134938 -0.0237373 0)
(0.174862 -0.0956114 0)
(0.21547 -0.146835 0)
(0.250143 -0.147269 0)
(0.263654 -0.119064 0)
(0.247749 -0.0476926 0)
(0.200095 0.10469 0)
(0.147796 0.207412 0)
(0.100315 0.318601 0)
(0.0605481 0.444984 0)
(0.0128978 0.50043 0)
(-0.0234802 0.427471 0)
(-0.0261738 0.306049 0)
(-0.0129575 0.100149 0)
(-0.0200436 -0.0824228 0)
(-0.0203286 -0.303056 0)
(-0.0196255 -0.516558 0)
(-0.0073839 -0.713538 0)
(-0.0130866 -0.44333 0)
(0.010273 -0.195337 0)
(0.0350541 -0.0337814 0)
(0.0607117 0.0425819 0)
(0.0903591 0.0498749 0)
(0.113149 0.0231331 0)
(0.139901 -0.0467507 0)
(0.165766 -0.092388 0)
(0.184558 -0.149747 0)
(0.177527 -0.185645 0)
(0.170371 -0.163925 0)
(0.138621 -0.0233752 0)
(0.0853395 0.158411 0)
(0.0337966 0.285838 0)
(-0.000291401 0.366922 0)
(-0.0330805 0.463121 0)
(-0.0482796 0.519337 0)
(-0.0532557 0.515278 0)
(-0.043151 0.419223 0)
(-0.0223007 0.273761 0)
(-0.00265644 0.079664 0)
(-0.0161486 -0.0815831 0)
(-0.0174296 -0.315099 0)
(-0.0139641 -0.530593 0)
(-0.00518244 -0.743857 0)
(-0.0150137 -0.432102 0)
(0.01334 -0.263564 0)
(0.0542929 -0.0957481 0)
(0.0897727 -0.022026 0)
(0.116155 -0.0129026 0)
(0.140348 -0.0457569 0)
(0.156248 -0.0904588 0)
(0.158194 -0.118915 0)
(0.145111 -0.128376 0)
(0.106907 -0.125229 0)
(0.0755364 -0.0606393 0)
(0.0312834 0.0922113 0)
(-0.00301202 0.245257 0)
(-0.0214424 0.335463 0)
(-0.0372324 0.404061 0)
(-0.0485132 0.475641 0)
(-0.0523696 0.51338 0)
(-0.0459796 0.493797 0)
(-0.023243 0.370391 0)
(0.0147669 0.216312 0)
(0.022684 0.106293 0)
(0.0157467 -0.0480587 0)
(0.013609 -0.303222 0)
(0.00541792 -0.525092 0)
(-0.00135445 -0.752254 0)
(0.00207246 -0.425518 0)
(0.0216599 -0.360533 0)
(0.0791493 -0.202269 0)
(0.129835 -0.0937039 0)
(0.158972 -0.0650071 0)
(0.169985 -0.0737642 0)
(0.163107 -0.0875236 0)
(0.154315 -0.0826468 0)
(0.122576 -0.0543466 0)
(0.0718964 -0.0539495 0)
(0.048469 0.0033987 0)
(0.0220717 0.157462 0)
(-0.00270968 0.281171 0)
(-0.0143289 0.352143 0)
(-0.0241244 0.422097 0)
(-0.0292145 0.476249 0)
(-0.0300962 0.49748 0)
(-0.00825384 0.421918 0)
(0.0146958 0.281494 0)
(0.0312412 0.144103 0)
(0.0338496 0.0562284 0)
(0.0357609 -0.0677987 0)
(0.0328547 -0.289937 0)
(0.016957 -0.508089 0)
(0.00823943 -0.740616 0)
(0.0347574 -0.467396 0)
(0.0593561 -0.442097 0)
(0.100935 -0.347542 0)
(0.151195 -0.1932 0)
(0.182284 -0.0942748 0)
(0.18529 -0.0600425 0)
(0.170335 -0.0540696 0)
(0.154046 -0.0322903 0)
(0.121801 0.0309487 0)
(0.0796795 0.0237474 0)
(0.0525693 0.0425559 0)
(0.0487047 0.165028 0)
(0.0514804 0.319758 0)
(0.0377315 0.379261 0)
(0.0296126 0.423738 0)
(0.0258526 0.465229 0)
(0.0321651 0.459584 0)
(0.0359765 0.376542 0)
(0.0458622 0.250003 0)
(0.0404038 0.146386 0)
(0.0430638 0.0589532 0)
(0.0447603 -0.0461559 0)
(0.0405619 -0.258765 0)
(0.0271069 -0.472137 0)
(0.0101546 -0.704527 0)
(0.0463161 -0.626574 0)
(0.084052 -0.545877 0)
(0.111791 -0.439965 0)
(0.140636 -0.274851 0)
(0.158866 -0.125391 0)
(0.164993 -0.0473892 0)
(0.148078 -0.0213272 0)
(0.12788 0.032477 0)
(0.104547 0.0936791 0)
(0.0910234 0.088281 0)
(0.074532 0.0764158 0)
(0.0729879 0.12605 0)
(0.103693 0.283298 0)
(0.124562 0.39003 0)
(0.125714 0.449911 0)
(0.108506 0.476085 0)
(0.0993559 0.471672 0)
(0.0883367 0.387485 0)
(0.0695937 0.266086 0)
(0.0615608 0.151893 0)
(0.0514241 0.0486265 0)
(0.0488481 -0.0543685 0)
(0.0428809 -0.247908 0)
(0.0295303 -0.44471 0)
(0.00659913 -0.672973 0)
(0.0219587 -0.774201 0)
(0.0556065 -0.637623 0)
(0.071964 -0.488923 0)
(0.0849855 -0.302932 0)
(0.0970991 -0.138463 0)
(0.0972475 -0.0269951 0)
(0.082131 0.0315583 0)
(0.0687751 0.0749375 0)
(0.0697218 0.109881 0)
(0.0727794 0.102768 0)
(0.0795205 0.0811296 0)
(0.0847648 0.0983375 0)
(0.108695 0.190826 0)
(0.154886 0.336487 0)
(0.180971 0.432863 0)
(0.192057 0.498173 0)
(0.185405 0.510758 0)
(0.164711 0.47266 0)
(0.124566 0.328177 0)
(0.0926506 0.193674 0)
(0.0747958 0.0864742 0)
(0.0618434 -0.0191291 0)
(0.0468951 -0.206284 0)
(0.0317987 -0.390575 0)
(0.00804732 -0.626954 0)
(0.00488422 -0.813229 0)
(0.0110873 -0.648279 0)
(-0.000778151 -0.496114 0)
(0.0143816 -0.297528 0)
(0.018668 -0.122019 0)
(0.0205938 -0.00419375 0)
(0.0125136 0.0541082 0)
(0.0111453 0.079923 0)
(0.0244832 0.0882977 0)
(0.0450904 0.077281 0)
(0.0719499 0.0560619 0)
(0.090821 0.0679187 0)
(0.11419 0.113827 0)
(0.147197 0.232208 0)
(0.193131 0.376912 0)
(0.205011 0.473514 0)
(0.200029 0.54211 0)
(0.197632 0.534955 0)
(0.169644 0.463184 0)
(0.121778 0.296995 0)
(0.0869912 0.141587 0)
(0.0640401 0.0220246 0)
(0.0462471 -0.174525 0)
(0.0306622 -0.349194 0)
(0.0051401 -0.587265 0)
(-0.000972294 -0.816415 0)
(-0.0236526 -0.614123 0)
(-0.0350742 -0.477751 0)
(-0.0303655 -0.285891 0)
(-0.0299507 -0.124304 0)
(-0.0180606 0.00467031 0)
(-0.0208809 0.0574679 0)
(-0.0191125 0.0632307 0)
(-0.0130387 0.0381832 0)
(0.012253 -0.00184457 0)
(0.0421167 -0.0225321 0)
(0.0786192 -0.00532998 0)
(0.106477 0.0436155 0)
(0.140841 0.148089 0)
(0.16259 0.293192 0)
(0.178542 0.454224 0)
(0.173724 0.550836 0)
(0.167692 0.567759 0)
(0.157071 0.526685 0)
(0.122064 0.389224 0)
(0.0823189 0.220058 0)
(0.05183 0.0648597 0)
(0.0395455 -0.15028 0)
(0.0218472 -0.309245 0)
(0.000772993 -0.561439 0)
(-0.0148731 -0.773837 0)
(-0.0300505 -0.573617 0)
(-0.0465377 -0.462272 0)
(-0.0460766 -0.289945 0)
(-0.0468998 -0.138388 0)
(-0.0257683 -0.0201077 0)
(-0.016615 0.0534734 0)
(-0.00727682 0.0682122 0)
(-0.00310158 0.020031 0)
(-0.000303616 -0.0570494 0)
(0.0126505 -0.091034 0)
(0.0382115 -0.0934684 0)
(0.061478 -0.0311905 0)
(0.085787 0.126936 0)
(0.0992643 0.298547 0)
(0.104139 0.445713 0)
(0.0928859 0.560138 0)
(0.0847825 0.592336 0)
(0.0801387 0.567231 0)
(0.0580503 0.449327 0)
(0.0471061 0.269476 0)
(0.0259919 0.0988118 0)
(0.0304675 -0.12012 0)
(0.0147661 -0.260013 0)
(0.00125203 -0.538743 0)
(-0.0110979 -0.728395 0)
(-0.0248598 -0.539677 0)
(-0.0446006 -0.434743 0)
(-0.0502709 -0.279021 0)
(-0.0499928 -0.160724 0)
(-0.0287115 -0.0651059 0)
(-0.00571326 0.0141241 0)
(0.0145172 0.0394483 0)
(0.0277693 0.0236578 0)
(0.0227204 -0.0226818 0)
(0.0151877 -0.0975703 0)
(0.0138693 -0.127255 0)
(0.00460542 -0.0572319 0)
(-0.00859357 0.125358 0)
(-0.00850595 0.334247 0)
(-0.0309022 0.512956 0)
(-0.0367141 0.610568 0)
(-0.0302396 0.621967 0)
(-0.0217621 0.570104 0)
(-0.00773412 0.419247 0)
(-0.0106804 0.275953 0)
(0.00373297 0.0763457 0)
(0.0147074 -0.117035 0)
(0.00371251 -0.240981 0)
(0.000576681 -0.532255 0)
(-0.00319535 -0.706561 0)
(-0.0226544 -0.498613 0)
(-0.0390764 -0.405163 0)
(-0.0436739 -0.269242 0)
(-0.0429523 -0.170066 0)
(-0.0258882 -0.110939 0)
(0.00211458 -0.0454023 0)
(0.0284027 0.000440032 0)
(0.044261 0.00781388 0)
(0.0496379 -0.0139082 0)
(0.0422085 -0.0651726 0)
(0.0171773 -0.0713097 0)
(-0.0291047 0.00811468 0)
(-0.0780615 0.186394 0)
(-0.110682 0.405553 0)
(-0.125166 0.532782 0)
(-0.116676 0.57655 0)
(-0.0971324 0.574333 0)
(-0.0768596 0.513327 0)
(-0.0601122 0.378265 0)
(-0.0399633 0.230386 0)
(-0.00619697 0.023728 0)
(0.00373404 -0.117592 0)
(-0.00245134 -0.231218 0)
(0.00044506 -0.531 0)
(-0.00623182 -0.686486 0)
(-0.0148597 -0.474979 0)
(-0.0257457 -0.400265 0)
(-0.0201234 -0.281926 0)
(-0.00929742 -0.214233 0)
(0.00411321 -0.177819 0)
(0.0192003 -0.13273 0)
(0.0403859 -0.0753011 0)
(0.0547816 -0.0411973 0)
(0.0536323 -0.0308199 0)
(0.0398594 -0.0409494 0)
(-0.00530155 -0.0187914 0)
(-0.0847708 0.101414 0)
(-0.150895 0.305364 0)
(-0.178182 0.468922 0)
(-0.182633 0.528185 0)
(-0.175886 0.545837 0)
(-0.148538 0.527444 0)
(-0.117881 0.442947 0)
(-0.0811838 0.306991 0)
(-0.0360161 0.146095 0)
(-0.00437711 -0.0217369 0)
(-0.00684861 -0.116089 0)
(-0.00837048 -0.234043 0)
(-0.00146601 -0.531785 0)
(-0.0105338 -0.663061 0)
(-0.012405 -0.458151 0)
(-0.0241705 -0.400768 0)
(-0.017285 -0.303244 0)
(-0.00454366 -0.238502 0)
(0.00178953 -0.201018 0)
(-0.00151141 -0.153135 0)
(-0.0251186 -0.0967305 0)
(-0.040071 -0.0267832 0)
(-0.0596412 0.00393355 0)
(-0.108667 0.0419062 0)
(-0.174685 0.165731 0)
(-0.249752 0.342513 0)
(-0.281733 0.449647 0)
(-0.280848 0.49665 0)
(-0.271276 0.51081 0)
(-0.231564 0.489436 0)
(-0.178611 0.436068 0)
(-0.116252 0.32423 0)
(-0.0606631 0.195797 0)
(-0.0129982 0.0608437 0)
(0.000314787 -0.0313473 0)
(-0.0177575 -0.0990769 0)
(-0.0128425 -0.247237 0)
(-0.00582552 -0.543681 0)
(-0.00895559 -0.634991 0)
(-0.0216368 -0.429854 0)
(-0.0430091 -0.382119 0)
(-0.0521883 -0.309211 0)
(-0.0608888 -0.234009 0)
(-0.0934981 -0.156773 0)
(-0.139889 -0.0386534 0)
(-0.175331 0.0143253 0)
(-0.205513 0.0392057 0)
(-0.239477 0.106643 0)
(-0.299267 0.21782 0)
(-0.347142 0.330079 0)
(-0.361828 0.399892 0)
(-0.35737 0.436505 0)
(-0.336139 0.453848 0)
(-0.292294 0.427947 0)
(-0.224437 0.347613 0)
(-0.151811 0.251512 0)
(-0.0830615 0.166799 0)
(-0.0317119 0.0782682 0)
(-0.00509025 0.0184594 0)
(-0.0058732 -0.0133017 0)
(-0.02077 -0.0840494 0)
(-0.00935918 -0.28878 0)
(-0.00688901 -0.580154 0)
(-0.0101358 -0.601935 0)
(-0.0294426 -0.381179 0)
(-0.0585911 -0.330971 0)
(-0.085718 -0.253357 0)
(-0.112673 -0.144714 0)
(-0.163308 -0.0479238 0)
(-0.19984 0.0290331 0)
(-0.227774 0.0618425 0)
(-0.260843 0.110763 0)
(-0.299166 0.198085 0)
(-0.332679 0.294247 0)
(-0.343825 0.35748 0)
(-0.349184 0.386418 0)
(-0.342866 0.395822 0)
(-0.312157 0.354912 0)
(-0.248282 0.23788 0)
(-0.185172 0.14647 0)
(-0.128117 0.0846535 0)
(-0.0734584 0.0399895 0)
(-0.0376927 0.0151005 0)
(-0.019041 0.00617706 0)
(-0.0139235 -0.0047927 0)
(-0.0136206 -0.0897091 0)
(-1.38215e-05 -0.300327 0)
(-0.00249738 -0.590535 0)
(-0.0125947 -0.55609 0)
(-0.0307262 -0.323164 0)
(-0.0626225 -0.267721 0)
(-0.0934419 -0.195213 0)
(-0.118049 -0.0761653 0)
(-0.158162 0.0296939 0)
(-0.190854 0.103239 0)
(-0.219492 0.135228 0)
(-0.248615 0.184042 0)
(-0.271804 0.259241 0)
(-0.284843 0.328518 0)
(-0.283782 0.362859 0)
(-0.271176 0.372565 0)
(-0.242414 0.340208 0)
(-0.196421 0.244921 0)
(-0.148014 0.133036 0)
(-0.117208 0.060748 0)
(-0.0810989 -0.00844125 0)
(-0.0518749 -0.039136 0)
(-0.0293678 -0.0417852 0)
(-0.0149789 -0.0284522 0)
(-0.00792602 -0.025358 0)
(0.000827143 -0.11017 0)
(0.0111665 -0.294426 0)
(0.00313142 -0.585974 0)
(-0.0110426 -0.515622 0)
(-0.0276212 -0.26805 0)
(-0.056753 -0.203247 0)
(-0.0858849 -0.139383 0)
(-0.105401 -0.0197122 0)
(-0.133148 0.0910689 0)
(-0.154795 0.153431 0)
(-0.168492 0.182178 0)
(-0.184833 0.215431 0)
(-0.190483 0.26609 0)
(-0.183623 0.310883 0)
(-0.168067 0.326887 0)
(-0.140941 0.317647 0)
(-0.107588 0.275661 0)
(-0.0694797 0.191121 0)
(-0.031252 0.0940256 0)
(-0.00857453 0.0258255 0)
(0.0129379 -0.0398873 0)
(0.0132445 -0.0716686 0)
(0.00947801 -0.0654297 0)
(0.00354611 -0.0414614 0)
(-0.00218867 -0.0349953 0)
(0.00704552 -0.127836 0)
(0.012557 -0.291667 0)
(0.00865629 -0.560928 0)
(-0.00935999 -0.478972 0)
(-0.0235934 -0.21946 0)
(-0.0479979 -0.14372 0)
(-0.075941 -0.0916401 0)
(-0.0938228 0.0202705 0)
(-0.113563 0.13242 0)
(-0.130797 0.182042 0)
(-0.138048 0.207375 0)
(-0.151554 0.232673 0)
(-0.155585 0.26434 0)
(-0.148753 0.285559 0)
(-0.129298 0.290808 0)
(-0.101897 0.261028 0)
(-0.0620351 0.194668 0)
(-0.0158458 0.100513 0)
(0.022209 0.0116891 0)
(0.046631 -0.0356117 0)
(0.0533893 -0.0533192 0)
(0.0421515 -0.0473987 0)
(0.0181172 -0.0260491 0)
(-0.000374876 -0.00754938 0)
(-0.0103756 -0.0305788 0)
(0.00265709 -0.15457 0)
(0.00849252 -0.288241 0)
(0.00393892 -0.545637 0)
(-0.00778999 -0.448176 0)
(-0.0197034 -0.182551 0)
(-0.03966 -0.0900525 0)
(-0.0670357 -0.0426728 0)
(-0.0845499 0.0579876 0)
(-0.0982774 0.166915 0)
(-0.120447 0.211177 0)
(-0.130885 0.236157 0)
(-0.145665 0.255495 0)
(-0.152733 0.266302 0)
(-0.154497 0.267255 0)
(-0.14271 0.236566 0)
(-0.108502 0.178453 0)
(-0.0676611 0.0872506 0)
(-0.0273404 -2.91666e-05 0)
(-0.00178232 -0.0408962 0)
(0.0121943 -0.0484141 0)
(0.0157022 -0.0304638 0)
(0.0039434 0.00341762 0)
(-0.0125881 0.0142853 0)
(-0.0226823 0.0119576 0)
(-0.0201691 -0.0441778 0)
(-0.0020086 -0.180688 0)
(0.00275671 -0.29046 0)
(0.000945641 -0.542022 0)
(-0.00508283 -0.420198 0)
(-0.0162114 -0.14897 0)
(-0.0306759 -0.0421821 0)
(-0.0550586 0.00400379 0)
(-0.0717684 0.0833771 0)
(-0.0722811 0.204864 0)
(-0.0925505 0.249403 0)
(-0.117328 0.264491 0)
(-0.131221 0.285207 0)
(-0.139704 0.288132 0)
(-0.14714 0.267038 0)
(-0.14169 0.194133 0)
(-0.125045 0.0994116 0)
(-0.102524 0.0097807 0)
(-0.086752 -0.0501683 0)
(-0.0739281 -0.0726465 0)
(-0.0615098 -0.0721945 0)
(-0.0438942 -0.0267494 0)
(-0.039707 0.0181891 0)
(-0.0405582 0.0265973 0)
(-0.0371035 0.00660463 0)
(-0.022872 -0.0851104 0)
(-0.00579611 -0.206472 0)
(-0.000538812 -0.293045 0)
(0.0010726 -0.541061 0)
(-0.00161619 -0.401785 0)
(-0.0110217 -0.126336 0)
(-0.0183044 -0.009705 0)
(-0.0363704 0.0453331 0)
(-0.0511003 0.0945313 0)
(-0.0451235 0.202837 0)
(-0.037864 0.304103 0)
(-0.0665373 0.321753 0)
(-0.0912444 0.306619 0)
(-0.101292 0.300229 0)
(-0.113343 0.272431 0)
(-0.114904 0.19155 0)
(-0.114301 0.0886984 0)
(-0.120056 -0.00558968 0)
(-0.120539 -0.0723049 0)
(-0.109469 -0.101081 0)
(-0.0981593 -0.105619 0)
(-0.0757184 -0.0632788 0)
(-0.0640687 -0.00524916 0)
(-0.0549718 0.00354427 0)
(-0.0403955 -0.0291523 0)
(-0.0212532 -0.124625 0)
(-0.00652492 -0.228998 0)
(-0.00266418 -0.306733 0)
(0.00151481 -0.541005 0)
(0.000525268 -0.39393 0)
(-0.0052479 -0.113107 0)
(-0.00815391 0.00498178 0)
(-0.0145461 0.0711961 0)
(-0.0228833 0.0963571 0)
(-0.0148908 0.165931 0)
(0.0063975 0.291533 0)
(0.0167481 0.367826 0)
(-0.00256691 0.37593 0)
(-0.0248031 0.346247 0)
(-0.0375509 0.300531 0)
(-0.0439192 0.222154 0)
(-0.0526633 0.119005 0)
(-0.0655101 0.0262724 0)
(-0.077713 -0.064755 0)
(-0.0846325 -0.126537 0)
(-0.0806797 -0.140634 0)
(-0.0726178 -0.0984474 0)
(-0.0606819 -0.0353746 0)
(-0.0503023 -0.0254014 0)
(-0.034839 -0.070088 0)
(-0.0139932 -0.166372 0)
(-0.00217621 -0.246163 0)
(-0.00173042 -0.312304 0)
(0.00266018 -0.541735 0)
(0.00110493 -0.391188 0)
(-0.00185119 -0.10527 0)
(-0.00420134 0.00629512 0)
(-0.000825978 0.0720253 0)
(8.63767e-05 0.09063 0)
(0.00386409 0.126029 0)
(0.0235303 0.228034 0)
(0.0414669 0.347903 0)
(0.0387287 0.397157 0)
(0.0331691 0.38256 0)
(0.0267697 0.332024 0)
(0.024694 0.253804 0)
(0.0178409 0.157936 0)
(0.00918346 0.0655971 0)
(0.00150174 -0.0223959 0)
(-0.0123336 -0.0921891 0)
(-0.0270421 -0.130788 0)
(-0.0396719 -0.108746 0)
(-0.038871 -0.0554633 0)
(-0.0320141 -0.0476585 0)
(-0.017941 -0.107357 0)
(-0.00348253 -0.196083 0)
(0.00390682 -0.256383 0)
(-3.34541e-05 -0.314598 0)
(0.00569933 -0.538183 0)
(0.000138485 -0.390691 0)
(-0.0016595 -0.0969246 0)
(-0.00725295 0.00187935 0)
(-0.00185511 0.0589235 0)
(0.00354151 0.078894 0)
(0.00524376 0.108033 0)
(0.00771414 0.194387 0)
(0.0262738 0.33385 0)
(0.027886 0.393128 0)
(0.0306938 0.380011 0)
(0.0355434 0.327285 0)
(0.0391407 0.252452 0)
(0.04635 0.167312 0)
(0.0494259 0.0734876 0)
(0.0505595 -0.00940149 0)
(0.0376818 -0.0646546 0)
(0.0113111 -0.0903198 0)
(-0.0152225 -0.0792837 0)
(-0.0204011 -0.0547137 0)
(-0.0163016 -0.0645215 0)
(-0.00135446 -0.132589 0)
(0.00437596 -0.209616 0)
(0.00793109 -0.258978 0)
(0.0029729 -0.310057 0)
(0.00626881 -0.527977 0)
(-0.00295059 -0.386588 0)
(-0.00363621 -0.0803212 0)
(-0.0152419 0.00851296 0)
(-0.0183952 0.0542068 0)
(-0.0214455 0.0771839 0)
(-0.0296252 0.115599 0)
(-0.041007 0.200015 0)
(-0.025672 0.325329 0)
(-0.00862259 0.378778 0)
(0.00803749 0.366557 0)
(0.0248333 0.312622 0)
(0.0458456 0.236082 0)
(0.0600006 0.148152 0)
(0.0700532 0.0650538 0)
(0.0627357 0.00642318 0)
(0.0376867 -0.015186 0)
(0.00449805 -0.02851 0)
(-0.0133657 -0.0497166 0)
(-0.0164377 -0.0507267 0)
(-0.00713651 -0.087417 0)
(0.00551907 -0.150684 0)
(0.0082897 -0.213336 0)
(0.0110967 -0.25596 0)
(0.00329229 -0.307071 0)
(0.00634256 -0.514838 0)
(-0.00496069 -0.37892 0)
(-0.00207875 -0.0639824 0)
(-0.0157342 0.0351222 0)
(-0.0317849 0.0766832 0)
(-0.0465574 0.10685 0)
(-0.0651477 0.145155 0)
(-0.0774902 0.20505 0)
(-0.0684392 0.276238 0)
(-0.0431563 0.315057 0)
(-0.0112031 0.308883 0)
(0.0194723 0.250662 0)
(0.036695 0.181473 0)
(0.043953 0.12236 0)
(0.0360066 0.0821062 0)
(0.00806781 0.0752539 0)
(-0.0156394 0.0597094 0)
(-0.0271713 0.0139664 0)
(-0.0301749 -0.032414 0)
(-0.0246521 -0.0628332 0)
(-0.0116088 -0.111075 0)
(-0.00132532 -0.163742 0)
(0.00480977 -0.216646 0)
(0.0088956 -0.250315 0)
(0.00173997 -0.297933 0)
(0.00604591 -0.504205 0)
(-0.00516071 -0.373874 0)
(0.00269059 -0.056502 0)
(-0.000379359 0.0730792 0)
(-0.0237163 0.118675 0)
(-0.0455049 0.146497 0)
(-0.0655409 0.180616 0)
(-0.077651 0.215037 0)
(-0.074572 0.240858 0)
(-0.0591199 0.248692 0)
(-0.036739 0.222536 0)
(-0.024806 0.196392 0)
(-0.0209219 0.169829 0)
(-0.0399675 0.151273 0)
(-0.0727146 0.133954 0)
(-0.0893229 0.101162 0)
(-0.0926347 0.0545805 0)
(-0.0874225 -0.00368105 0)
(-0.0793749 -0.0583836 0)
(-0.0625443 -0.0998088 0)
(-0.0430562 -0.141922 0)
(-0.0261168 -0.191978 0)
(-0.0141457 -0.235153 0)
(-0.00445987 -0.25349 0)
(-0.00281611 -0.29762 0)
(0.00629607 -0.498891 0)
(-0.00333934 -0.371782 0)
(0.010025 -0.0840171 0)
(0.0214308 0.0957857 0)
(0.00114396 0.168929 0)
(-0.0218576 0.195445 0)
(-0.0435789 0.214228 0)
(-0.0565091 0.226288 0)
(-0.0574259 0.234958 0)
(-0.0503446 0.22724 0)
(-0.0432365 0.2181 0)
(-0.0452062 0.210999 0)
(-0.0600058 0.214455 0)
(-0.0790124 0.210459 0)