/*--------------------------------*- C++ -*----------------------------------*\
| =========                 |                                                 |
| \\      /  F ield         | OpenFOAM: The Open Source CFD Toolbox           |
|  \\    /   O peration     | Version:  2.3.0                                 |
|   \\  /    A nd           | Web:      www.OpenFOAM.org                      |
|    \\/     M anipulation  |                                                 |
\*---------------------------------------------------------------------------*/
FoamFile
{
    version     2.0;
    format      ascii;
    class       volScalarField;
    location    "2.3999";
    object      epsilon.water;
}
// * * * * * * * * * * * * * * * * * * * * * * * * * * * * * * * * * * * * * //

dimensions      [0 2 -3 0 0 0 0];

internalField   nonuniform List<scalar> 
18816
(
1.17923
5.43799
10.0759
13.3384
18.7697
22.1247
27.2057
31.0368
35.6582
38.9016
42.0349
43.9648
45.183
44.7106
43.0323
39.4957
34.3469
27.6245
19.9446
12.4219
6.61958
3.67286
5.24778
9.82174
16.5284
19.1713
15.9346
2.8844
12.4669
45.0858
37.0163
36.3412
35.9639
37.7249
40.5355
41.6458
42.1441
41.3767
40.9671
40.2097
37.5827
34.8406
31.7382
28.1253
24.0917
19.4457
14.9162
11.0093
8.02715
6.53498
7.40114
8.91453
12.5893
17.0802
28.0305
8.69289
9.55572
30.0491
25.4756
24.4156
24.3168
25.52
27.3698
27.6309
27.6002
27.2643
24.9945
27.7942
26.2889
23.7236
21.6087
19.1161
16.5087
13.6149
10.3512
7.1837
4.47416
2.7226
2.73594
3.86853
6.69856
11.4319
23.3877
10.0271
8.87763
26.7262
23.6943
23.7542
24.0413
25.1019
27.0491
27.4334
25.5408
24.9343
20.331
15.0618
18.5142
16.6692
14.4884
12.2767
10.1663
7.8211
5.29493
3.34465
1.94033
0.951037
0.96578
1.99891
4.44478
9.68615
23.6664
10.6968
6.65265
75.6567
21.5673
21.4524
21.9944
24.6149
25.1155
24.375
25.2333
23.4817
16.6203
10.1289
10.5112
6.89367
3.76382
1.89775
1.10597
0.79256
0.636939
0.581954
0.586963
0.515925
0.273969
0.318555
1.64151
7.18556
22.2947
11.2847
9.58241
85.299
60.654
20.6558
21.8159
24.0197
24.5651
25.8017
22.9402
22.4091
15.3695
7.3147
3.64672
0.960231
0.181463
0.0781402
0.144134
0.301196
0.37484
0.387696
0.390079
0.587538
0.689634
0.31394
0.376487
5.49368
21.7896
11.5727
9.92156
83.5628
70.3088
53.7693
43.7897
35.7107
29.2793
22.4273
21.8228
18.4396
13.8518
2.39167
0.898404
0.0362696
0.0193203
0.0312464
0.0124114
0.167495
0.37906
0.377212
0.351407
0.475169
0.871894
0.846869
0.140875
4.27629
20.4666
11.7013
13.0796
82.581
70.4098
59.4721
45.8836
35.4009
29.2957
24.4205
21.5927
15.9589
11.6077
1.51316
0.236268
0.0211635
0.0134913
0.0407134
0.0139977
0.0830639
0.306584
0.434733
0.343773
0.386206
0.672005
1.10973
0.340826
3.5288
19.6473
11.672
13.1398
81.9882
70.4857
57.4762
43.1422
32.8489
26.6204
22.9221
20.1542
13.9643
11.2847
0.0778818
0.0256081
0.0304465
0.0225211
0.0514909
0.118296
0.15646
0.12321
0.440345
0.337326
0.348802
0.495347
1.00953
0.69346
2.91613
18.9058
11.7042
16.5853
82.0294
71.1729
56.0714
41.5323
31.4517
25.1614
21.0883
18.7599
9.89713
9.39616
1.16231
0.125315
0.0722393
0.101573
0.138551
0.270743
0.272156
0.0298403
0.421425
0.346393
0.340362
0.394254
0.721629
1.01408
2.4758
18.3053
11.5111
17.8471
81.7559
71.2028
55.2824
40.4627
30.7007
24.7282
21.3876
18.5684
5.55371
6.32936
1.41723
0.251843
0.17385
0.10109
0.116317
0.139225
0.137256
0.214904
0.379516
0.354779
0.329611
0.349982
0.490676
1.15258
1.897
17.6395
11.5875
18.5817
79.9242
70.8303
55.0429
39.7057
30.1566
24.5232
22.5634
18.5917
4.46101
1.07834
0.629962
0.188663
0.11408
0.185799
0.335074
0.331703
0.194416
0.385472
0.211664
0.351603
0.309552
0.327803
0.371276
0.806017
1.49019
17.2165
11.1952
21.2805
84.7892
69.9258
54.8747
39.0559
29.7659
24.6626
24.0874
15.5152
1.38929
0.0785754
0.301986
0.172928
0.111292
0.143697
0.348934
0.331977
0.280466
0.492191
0.203756
0.355106
0.292803
0.308304
0.310123
0.370415
0.351496
16.48
11.1499
21.847
148.744
68.1922
54.5519
38.4635
29.4155
25.0933
25.3162
9.31735
0.189381
0.118225
0.261662
0.143467
0.0403748
0.100511
0.439291
0.525337
0.327474
0.800996
0.437027
0.34454
0.271916
0.291241
0.294865
0.288894
0.340393
15.7553
10.9696
24.9098
241.19
67.8511
54.0968
37.7757
29.1612
25.782
24.7631
2.80238
0.0821521
0.0909471
0.0603171
0.1069
0.0509226
0.102511
0.172051
0.538378
0.323931
0.671839
0.373394
0.256385
0.254155
0.274334
0.28476
0.278611
0.32121
14.8212
10.879
26.1384
336.336
70.3969
53.7493
37.2813
29.1915
26.9593
23.031
0.521698
0.0634274
0.0762938
0.0477948
0.0953335
0.0470564
0.0780901
0.0474934
0.0625076
0.126637
0.116464
0.152734
0.213697
0.235446
0.256936
0.27289
0.268213
0.293267
14.2264
10.9567
29.0227
353.871
72.2356
53.4153
36.7514
29.4527
28.2768
18.6161
0.140896
0.0589795
0.0743114
0.0479231
0.0770186
0.0463689
0.0638925
0.0382426
0.0497514
0.0774772
0.0623205
0.125098
0.198431
0.219578
0.240865
0.263555
0.26406
0.269356
13.673
10.7452
29.2583
253.709
72.1457
53.6685
36.8451
30.8737
30.699
13.628
0.104219
0.0602526
0.0733375
0.0517648
0.0714583
0.0461703
0.0590937
0.0509171
0.0585234
0.0802985
0.0873953
0.1284
0.185042
0.203521
0.224221
0.250802
0.25449
0.248444
13.2329
10.6322
27.7509
127.942
72.0073
54.2705
37.9439
34.1826
32.7731
8.18146
0.108229
0.0760773
0.0890557
0.0610301
0.0800022
0.0555263
0.0835819
0.0642488
0.0738828
0.121193
0.14206
0.159554
0.171528
0.192698
0.210853
0.241313
0.247348
0.230928
12.6336
10.6575
28.7844
93.3572
70.5383
55.1844
40.257
38.2665
31.5125
3.09823
0.105234
0.0958308
0.0930473
0.0657128
0.0801113
0.0584443
0.0760746
0.0675102
0.0859336
0.127368
0.187006
0.206373
0.158718
0.17721
0.196264
0.227929
0.235415
0.21274
11.9416
10.38
34.0486
100.336
69.7519
56.9474
44.3218
42.6227
25.6032
0.789069
0.0857326
0.0799549
0.0437445
0.0306177
0.0301343
0.0254573
0.036259
0.0462357
0.0406903
0.0565384
0.102612
0.139592
0.116901
0.147024
0.179071
0.214927
0.220685
0.195275
11.1331
10.3993
34.6227
136.615
71.1555
59.0115
47.5908
44.1863
20.3981
0.537935
0.0233163
0.00561744
0.00628507
0.0113547
0.00775261
0.0130946
0.0214217
0.0308147
0.0215368
0.00772539
0.00945891
0.0587568
0.0888123
0.132649
0.168704
0.205633
0.193628
0.17678
10.5512
10.1022
38.7826
233.767
73.3786
60.1678
49.8065
44.0335
16.752
0.3401
0.0480872
0.047004
0.0398826
0.0342258
0.0315463
0.0270429
0.0254216
0.0242768
0.0311535
0.0421444
0.0515706
0.0733684
0.0915873
0.126183
0.162185
0.198732
0.129449
0.159306
10.1465
9.93603
40.5037
334.165
79.4861
62.3036
51.9369
42.5855
13.4017
1.60702
0.0303589
0.0238161
0.0170396
0.00989602
0.00715468
0.00280932
0.00120026
0.00300442
0.010914
0.0238177
0.0323243
0.0604327
0.0848363
0.121341
0.157341
0.192449
0.0410288
0.144871
10.0397
9.96192
40.6921
388.847
85.9321
63.6989
52.8944
40.4314
10.0514
1.04961
0.0419642
0.0350046
0.0276786
0.0221404
0.0186118
0.0146051
0.0107379
0.0108313
0.0216701
0.0348019
0.0429362
0.0624682
0.0847465
0.115965
0.151512
0.184423
0.0447041
0.135877
10.0124
9.6309
40.1759
391.41
90.5771
66.1761
52.9244
38.9923
8.70897
0.0636983
0.0395443
0.0308561
0.0223363
0.0166683
0.012444
0.00842192
0.00248493
0.00423152
0.0174056
0.032176
0.0405899
0.0585911
0.079686
0.108176
0.141344
0.168247
0.0606552
0.124988
10.0176
9.4736
40.9625
385.913
89.0415
67.6592
53.0512
37.9881
6.96235
0.0798547
0.0346989
0.0303699
0.0229362
0.019441
0.0155068
0.0131496
0.00602624
0.007571
0.0189157
0.0327465
0.039897
0.0546654
0.0716022
0.0917476
0.119479
0.139433
0.0830765
0.112375
9.88345
9.48877
40.6489
346.729
89.141
70.4672
53.2511
31.1412
1.6844
0.0280015
0.0232898
0.0224866
0.0172454
0.0153942
0.0123694
0.0108249
0.00415626
0.00506835
0.0149111
0.0242906
0.0287171
0.0381222
0.0483533
0.0579534
0.0734826
0.0846546
0.102034
0.087337
9.35972
9.16079
0.490683
0.725731
2.3438
3.32357
4.83396
5.75478
7.10327
8.09424
9.24444
10.0103
10.6711
10.998
11.1236
10.8069
10.1778
9.07387
7.62186
5.86253
3.9986
2.30526
1.1026
0.610085
0.908605
1.858
3.58577
4.60525
3.92978
2.00413
1.38622
10.58
9.21711
9.19214
9.22482
9.71205
10.3164
10.4897
10.5329
10.3383
10.3219
10.2106
9.61917
8.9618
8.2079
7.29102
6.22538
4.98093
3.77394
2.73326
1.96623
1.6268
1.83864
2.25475
3.27518
4.39114
6.88542
1.9441
0.293504
1.96198
1.63586
1.53371
1.43052
1.40507
1.37025
1.29323
1.24529
1.24825
2.07799
7.61584
7.0716
6.45782
5.94015
5.28883
4.57256
3.75652
2.85565
2.0013
1.27704
0.874301
0.892047
1.154
1.87825
3.14246
6.17978
1.78727
0.297677
0.358576
0.295274
0.252785
0.201386
0.169264
0.140155
0.121232
0.110005
0.124854
0.30254
1.43392
5.28886
4.86534
4.32301
3.72104
3.07986
2.30896
1.51217
0.959786
0.561699
0.327707
0.329912
0.568345
1.23999
2.67397
6.21216
2.60346
0.344962
12.6703
0.135454
0.0796392
0.0573788
0.0364033
0.0271582
0.0264297
0.0259941
0.0299628
0.0918253
0.656682
3.18996
2.15093
1.25624
0.679409
0.399656
0.275123
0.221489
0.206019
0.205887
0.196717
0.139741
0.143303
0.490245
2.0145
5.94351
2.81249
1.06631
21.2375
10.102
0.0775312
0.0470112
0.0352347
0.0279755
0.0203271
0.0208688
0.0192781
0.0315294
0.233767
1.18162
0.343849
0.0878085
0.0400526
0.0634116
0.117675
0.142593
0.147952
0.151965
0.216536
0.252761
0.149446
0.15788
1.55586
5.83842
3.03922
1.25347
21.8852
17.4828
9.54409
7.82115
6.38139
4.62133
0.0280115
0.0248952
0.0191872
0.0180666
0.0530639
0.306591
0.0216336
0.00880769
0.0119189
0.00893543
0.0658719
0.134122
0.142668
0.138276
0.179515
0.290067
0.294777
0.0925438
1.25517
5.52988
3.35644
1.95135
21.7375
18.667
15.1054
11.674
8.96159
7.24358
4.41376
3.86327
2.65014
0.0176843
0.0134437
0.0833043
0.0106005
0.00707741
0.0144186
0.00737588
0.0311796
0.10371
0.150466
0.131892
0.146297
0.234287
0.351397
0.164577
1.06923
5.31092
3.41141
2.17796
21.5711
18.7434
15.1775
11.4012
8.61703
6.99964
5.90023
5.24142
3.63189
0.0232832
0.0041611
0.0147544
0.0127523
0.0118062
0.0180702
0.0346373
0.0435898
0.0475787
0.145356
0.128316
0.133503
0.178435
0.314363
0.27447
0.903592
5.10823
3.46981
2.84356
21.6168
18.79
14.8468
10.9613
8.23346
6.61777
5.61776
5.06457
2.93193
0.020474
0.00371514
0.0428344
0.0280574
0.0372733
0.0415375
0.0751056
0.0975901
0.0237618
0.14311
0.128448
0.1278
0.144076
0.233739
0.35877
0.778685
4.96486
3.40728
2.95246
21.827
18.7383
14.6116
10.642
8.01139
6.4803
5.6946
5.06201
1.54209
0.0285467
0.0107103
0.0732642
0.0581632
0.0439197
0.0410085
0.0459503
0.0523058
0.0688521
0.127709
0.127434
0.121528
0.129428
0.168168
0.374325
0.642475
4.77912
3.37647
3.51035
22.3038
18.6311
14.5147
10.4288
7.86238
6.43723
6.02608
5.09739
1.17726
0.197543
0.149084
0.068518
0.0414571
0.0635675
0.0967131
0.0968437
0.070219
0.112792
0.0895567
0.125232
0.1138
0.120655
0.132351
0.240143
0.538033
4.66321
3.38973
3.74996
24.3545
18.4767
14.4363
10.2574
7.76311
6.47698
6.48135
4.46476
0.405363
0.0407161
0.096792
0.063309
0.0419519
0.0536628
0.108801
0.10721
0.0957308
0.150393
0.095515
0.125134
0.107169
0.113274
0.11595
0.128673
0.172602
4.48714
3.31504
3.65371
33.8336
18.2164
14.3399
10.1077
7.67569
6.59908
6.9133
2.90455
0.0793184
0.0473049
0.0792249
0.0534691
0.0192661
0.0408761
0.126926
0.155938
0.110812
0.231049
0.165997
0.117211
0.0992408
0.106907
0.11096
0.110422
0.151234
4.30265
3.26482
3.95174
41.6376
18.12
14.2279
9.93307
7.60746
6.78885
6.81501
0.991961
0.0412211
0.0384598
0.0272546
0.0425976
0.0247322
0.0406195
0.0656037
0.164589
0.108189
0.194888
0.129646
0.0891265
0.0922127
0.100272
0.106998
0.10677
0.14326
4.05047
3.26954
4.02701
39.2748
18.5497
14.1592
9.80176
7.61588
7.12359
6.39612
0.247701
0.029563
0.0353352
0.0211659
0.0388657
0.0181355
0.0325591
0.01851
0.0238094
0.0451395
0.0425096
0.0560055
0.076152
0.0846466
0.0935718
0.102477
0.102625
0.132252
3.88388
3.27307
4.60861
36.9412
18.8711
14.0778
9.65215
7.68867
7.45262
5.3289
0.0779719
0.0268265
0.0351628
0.0222703
0.0352419
0.0194603
0.0288245
0.0173752
0.0210149
0.0343362
0.0289645
0.0489947
0.0704731
0.0786435
0.0875209
0.0986342
0.100611
0.122789
3.73011
3.27484
4.9897
44.1861
18.8639
14.1073
9.63505
7.98658
7.9978
3.99333
0.0548845
0.0299154
0.0361461
0.0260981
0.0349707
0.0234108
0.0280377
0.0252313
0.028201
0.0385842
0.0436309
0.0547734
0.0649218
0.0724649
0.0814644
0.0937841
0.0966163
0.114368
3.61074
3.29542
5.17221
37.3918
18.8023
14.1965
9.84073
8.7319
8.5437
2.56782
0.0532503
0.0349067
0.0417261
0.0277738
0.0384487
0.0258134
0.0398003
0.0288089
0.0327566
0.05384
0.0664876
0.0675815
0.0600979
0.0677508
0.0765912
0.0901075
0.0933261
0.106916
3.45551
3.25892
4.83929
32.5657
18.7119
14.3567
10.3431
9.72593
8.29588
1.06755
0.0432874
0.0415869
0.042618
0.0316671
0.0389932
0.030434
0.0385355
0.0328443
0.0377746
0.0535267
0.0751023
0.074826
0.052788
0.0601258
0.0711217
0.085129
0.0876427
0.0987637
3.28519
3.26761
5.49457
36.662
18.8534
14.6997
11.3363
10.8334
6.95519
0.302429
0.0314462
0.0348332
0.0260632
0.0229029
0.022256
0.0212048
0.0267044
0.0300897
0.0262883
0.0261572
0.0300026
0.0378982
0.0383592
0.0516722
0.0660884
0.0811666
0.0793115
0.0904058
3.08393
3.22366
5.59879
43.0098
19.4745
15.218
12.1833
11.3442
5.68005
0.206971
0.0118549
0.00481921
0.00450611
0.00591124
0.00470031
0.00691757
0.00965372
0.0122352
0.00832193
0.00547863
0.00695428
0.0229631
0.0333073
0.0492063
0.063654
0.078245
0.0630654
0.081587
2.93977
3.19407
5.49562
53.3705
20.0889
15.5318
12.7523
11.3924
4.79338
0.154072
0.0159907
0.0142756
0.0117415
0.00972713
0.00863249
0.00714349
0.0072788
0.00747906
0.00972574
0.01383
0.0170399
0.0253885
0.0335361
0.0469733
0.0613506
0.0755315
0.0336667
0.0730341
2.83927
3.20707
5.67169
49.3434
21.1305
16.1223
13.3759
11.2108
3.91469
0.0379739
0.00958491
0.00916031
0.00654072
0.00406928
0.00297214
0.00149812
0.000934192
0.00157548
0.00486419
0.00981611
0.0130711
0.0225582
0.0318357
0.0455135
0.0595067
0.0728349
0.0197983
0.0669426
2.81041
3.13431
6.34024
48.4549
21.7803
16.4922
13.6645
10.688
2.97247
0.0213134
0.0137206
0.0115296
0.00870308
0.00676356
0.00545213
0.00416743
0.0028466
0.00318001
0.00711
0.0122589
0.015468
0.0227447
0.031228
0.0428454
0.0562238
0.068401
0.0184131
0.0633411
2.79569
3.15285
6.48877
42.838
22.538
17.0933
13.6679
10.3059
2.66416
0.0373728
0.013062
0.0100047
0.00708101
0.00541182
0.00403197
0.00281607
0.000894023
0.00160316
0.00599549
0.0112849
0.0144088
0.0207403
0.0283638
0.0384195
0.0501691
0.0596491
0.0174902
0.0578368
2.78314
3.05296
7.13775
43.5727
22.6957
17.433
13.6854
10.0603
2.20557
0.0445446
0.0105426
0.00897696
0.00665989
0.00567349
0.00450615
0.0037358
0.00160671
0.00218487
0.00580159
0.010374
0.0128183
0.0174677
0.022806
0.0289673
0.0372139
0.0436432
0.0188485
0.0490092
2.73979
3.01231
7.33229
59.0975
23.2244
18.1216
13.7947
8.39024
0.572768
0.0068336
0.0046993
0.0045009
0.00351266
0.00316985
0.0026245
0.00230365
0.00101384
0.00134968
0.00334509
0.00511249
0.00592086
0.00737214
0.00871074
0.00955278
0.010544
0.0116261
0.0258676
0.0259527
2.58643
2.98031
0.178539
0.127743
0.515878
0.7856
1.18665
1.43771
1.8003
2.07309
2.38278
2.57889
2.71375
2.76241
2.7482
2.58985
2.34141
1.96029
1.52795
1.07223
0.66483
0.357058
0.1831
0.123268
0.164228
0.309236
0.681599
1.07803
0.938236
0.233206
0.486023
2.32163
2.18463
2.25792
2.34549
2.52677
2.72473
2.81746
2.88051
2.89889
2.97664
3.00243
2.84386
2.65331
2.41119
2.12061
1.78559
1.40214
1.04812
0.752773
0.552708
0.476051
0.533788
0.652664
0.957265
1.29213
1.92307
0.395928
0.30885
0.578581
0.510993
0.488527
0.471807
0.468587
0.45236
0.428432
0.419091
0.456229
0.84082
2.41816
2.239
2.05338
1.89401
1.68726
1.45774
1.19482
0.912737
0.65328
0.442489
0.342629
0.351309
0.415963
0.622207
0.998519
1.88836
0.522619
0.180232
0.149226
0.121939
0.119762
0.100237
0.0863813
0.0713522
0.0639718
0.0641199
0.0810041
0.168329
0.617196
1.73059
1.62579
1.46538
1.27773
1.05461
0.766608
0.48913
0.31973
0.20409
0.149159
0.151527
0.208131
0.40484
0.844678
1.88511
0.713016
0.167984
1.74268
0.0809966
0.0629615
0.0529053
0.039716
0.0312251
0.0286983
0.0295878
0.0376456
0.075143
0.295108
1.08281
0.758312
0.473379
0.268676
0.157092
0.110726
0.0951783
0.0925854
0.0952087
0.100636
0.0910498
0.0891822
0.181654
0.639435
1.81385
0.724837
0.257127
5.42202
1.38063
0.0605389
0.0431135
0.0320743
0.0248628
0.0223332
0.022659
0.0246605
0.0351797
0.107252
0.419126
0.132016
0.0411858
0.0210485
0.0314991
0.0528641
0.065146
0.0703418
0.0743919
0.100679
0.118511
0.0942622
0.0875663
0.493662
1.77797
0.876338
0.559163
6.2646
4.52073
1.5034
1.28519
1.09294
0.654085
0.027097
0.0260308
0.0247897
0.0218017
0.0303462
0.113485
0.0113431
0.00510286
0.00596326
0.00637075
0.0295266
0.0569689
0.0656046
0.0666638
0.0819537
0.122812
0.133561
0.0710848
0.415287
1.68827
0.908978
0.633989
6.37721
5.48122
4.14102
3.25562
2.53652
1.96956
0.796662
0.667553
0.397412
0.0168345
0.0103042
0.0330741
0.00621183
0.00456459
0.00647447
0.00464658
0.0143715
0.0423172
0.0641304
0.0619237
0.0680818
0.0993221
0.140853
0.102465
0.36879
1.61685
0.933918
0.825146
6.38797
5.57946
4.48705
3.39538
2.58548
2.11423
1.71245
1.51479
1.02828
0.0147734
0.0046534
0.00996995
0.00719484
0.00783749
0.00800909
0.0123044
0.0193618
0.0242959
0.0612917
0.059056
0.0623448
0.0771712
0.123559
0.139499
0.324767
1.55274
0.936456
0.924048
6.45682
5.5592
4.41921
3.29123
2.49001
2.02219
1.7215
1.54958
0.956493
0.0153631
0.00378151
0.0221999
0.0142025
0.0196645
0.0155866
0.0235592
0.0497523
0.0181813
0.0628131
0.05771
0.0582224
0.0645795
0.0937933
0.157549
0.290418
1.51534
0.917335
1.07748
6.63108
5.51637
4.34349
3.18139
2.41333
1.96822
1.74617
1.55769
0.490998
0.0252767
0.0091008
0.0363421
0.0260203
0.0283111
0.0193486
0.0194118
0.0295765
0.0292301
0.0584171
0.0557587
0.054519
0.0586264
0.0715761
0.145172
0.262406
1.45754
0.93145
1.13433
6.95768
5.48016
4.29891
3.11233
2.36598
1.95597
1.84068
1.56195
0.359746
0.0576066
0.0436753
0.0370238
0.020815
0.033682
0.0353954
0.0350994
0.0361776
0.0414779
0.0505598
0.0545098
0.0508186
0.0544541
0.0592765
0.089724
0.232685
1.42114
0.891048
1.22294
7.39755
5.45273
4.26438
3.06054
2.33732
1.96633
1.98124
1.42095
0.136305
0.0275862
0.0426875
0.0355805
0.0248281
0.0308905
0.0474247
0.04773
0.0462025
0.0618069
0.0556053
0.0538155
0.0475841
0.0511493
0.0540767
0.0585056
0.0922582
1.37758
0.892292
1.21922
7.89179
5.40533
4.23148
3.01724
2.31253
2.00174
2.1298
1.00805
0.0398543
0.028594
0.0299013
0.0312342
0.0126836
0.0263247
0.0454739
0.0557955
0.0512014
0.0806158
0.0767112
0.049182
0.0438616
0.0480426
0.0519914
0.0527856
0.077154
1.32725
0.888414
1.2552
8.36333
5.37503
4.19972
2.96675
2.29186
2.056
2.10381
0.389023
0.0278092
0.0265528
0.0189375
0.02749
0.0180163
0.0259183
0.0341938
0.0643236
0.049162
0.0729079
0.0558217
0.0383739
0.040485
0.0448258
0.0499684
0.0510106
0.0730192
1.25379
0.900321
1.34151
6.70595
5.45463
4.18477
2.92619
2.29466
2.15796
1.97548
0.121211
0.0197128
0.02602
0.0136432
0.0259471
0.0101361
0.0222812
0.0101723
0.0119926
0.0264547
0.0231003
0.0285274
0.0333235
0.0367811
0.041666
0.0478055
0.0489356
0.0671196
1.20428
0.911594
1.329
5.83385
5.49892
4.15818
2.88063
2.31598
2.2426
1.68247
0.038821
0.0184882
0.0261015
0.0156819
0.0255462
0.0127139
0.0207192
0.0120236
0.0141049
0.0240519
0.0199558
0.0261788
0.0305329
0.0340048
0.0389693
0.0458744
0.0477582
0.0624808
1.15892
0.908853
1.52679
8.90072
5.50087
4.156
2.86155
2.37954
2.35964
1.27991
0.0265645
0.022294
0.027041
0.0198418
0.0262068
0.0179492
0.0196836
0.0190254
0.0209568
0.0275897
0.0312386
0.030297
0.0276636
0.0309789
0.0363693
0.0436924
0.0457316
0.0582724
1.12439
0.911607
1.4754
11.2029
5.49866
4.1656
2.90475
2.55206
2.501
0.891069
0.0264999
0.0238767
0.0306387
0.018737
0.0283542
0.0174467
0.0293051
0.0192645
0.0220415
0.0392165
0.0484483
0.0353253
0.025183
0.0284928
0.0343573
0.0420549
0.0438317
0.0544959
1.07939
0.8928
1.56555
11.3041
5.53006
4.19462
3.02455
2.82228
2.43597
0.403896
0.0210948
0.0305632
0.0316805
0.0229922
0.0289773
0.0224328
0.0288807
0.0238539
0.0271542
0.0395975
0.0581036
0.0342971
0.0206035
0.0250157
0.0322373
0.0400183
0.0404845
0.0501558
1.03123
0.895829
1.53673
12.5235
5.63702
4.26694
3.29999
3.14145
2.08092
0.120474
0.0152306
0.0220254
0.0197713
0.0197988
0.0189099
0.0193886
0.0224166
0.0237059
0.0203759
0.0168313
0.0157754
0.0146415
0.016251
0.0231606
0.0309173
0.0388002
0.0351469
0.0455651
0.973079
0.875442
1.5829
11.7402
5.83956
4.41948
3.55654
3.32601
1.73819
0.0818835
0.00644228
0.0036908
0.00310822
0.00346116
0.00298356
0.00415291
0.00507655
0.00559965
0.00415277
0.00399165
0.00520892
0.0110867
0.015636
0.0230397
0.0303586
0.0376516
0.0258549
0.0407555
0.931489
0.882515
1.57252
10.0409
5.95478
4.52252
3.72544
3.36709
1.51749
0.0699948
0.00628397
0.00530811
0.00408176
0.00312767
0.00254501
0.00198469
0.00225512
0.00263106
0.00373012
0.00576624
0.00723912
0.0111022
0.015427
0.0220015
0.0292664
0.0362776
0.0160378
0.0362682
0.902456
0.862162
1.67086
7.22559
6.12091
4.71573
3.93601
3.36034
1.27046
0.0157694
0.00417198
0.00422275
0.00294561
0.00193841
0.0013983
0.000828812
0.000603564
0.000926662
0.0025829
0.00494728
0.00655827
0.0105123
0.0149705
0.0213659
0.0281847
0.034579
0.0129259
0.0333492
0.892768
0.867337
1.82268
7.08936
6.16647
4.83852
4.0373
3.22225
0.970789
0.0105269
0.00548222
0.00454415
0.00322515
0.00244304
0.00185483
0.00137816
0.000908074
0.00119055
0.00287968
0.00532434
0.00690377
0.0101718
0.0141463
0.0195136
0.0257361
0.0312637
0.0124684
0.0311291
0.885769
0.842325
1.90179
7.21869
6.35846
5.00461
4.02858
3.09054
0.89975
0.0181246
0.00506361
0.00381914
0.00259946
0.00201583
0.00150106
0.00109076
0.000444489
0.000812435
0.00251826
0.00480171
0.0062095
0.00883179
0.012097
0.0163081
0.0211781
0.0250576
0.0114582
0.0270906
0.877459
0.835043
2.02709
7.58186
6.51396
5.09946
4.03036
3.01923
0.774823
0.019855
0.0036045
0.00296848
0.00213434
0.00183065
0.00145614
0.00118772
0.000575354
0.000876294
0.00203219
0.00372572
0.00468411
0.00626552
0.0080726
0.00993052
0.0121475
0.0144487
0.0108199
0.0199178
0.863969
0.833591
2.08019
12.2547
6.78977
5.30841
4.08501
2.53617
0.209309
0.00197602
0.00115903
0.00107621
0.000882137
0.000806507
0.000700722
0.000626414
0.000393644
0.000588647
0.000954525
0.00129594
0.00146614
0.00167455
0.00186231
0.00177242
0.00185878
0.00242192
0.00755629
0.00597926
0.816744
0.820952
0.0880041
0.0496391
0.144979
0.213906
0.318929
0.388072
0.487777
0.564074
0.644859
0.689228
0.708814
0.704955
0.676928
0.605205
0.51526
0.400484
0.297039
0.205212
0.136713
0.0897226
0.0647747
0.0555001
0.062084
0.0833942
0.140685
0.244697
0.22098
0.0953537
0.214834
0.5445
0.571257
0.627655
0.684457
0.758323
0.82873
0.865182
0.894678
0.916711
0.955729
0.969086
0.916362
0.853936
0.771545
0.671778
0.557673
0.435194
0.332044
0.250448
0.202056
0.185959
0.203105
0.234056
0.321505
0.424988
0.600186
0.179943
0.159758
0.220491
0.202714
0.1972
0.192127
0.190673
0.182409
0.1761
0.178972
0.215968
0.408856
0.860356
0.80229
0.741587
0.688618
0.616277
0.536002
0.445456
0.350486
0.263697
0.198284
0.171177
0.174788
0.187335
0.244666
0.364298
0.65357
0.179585
0.105077
0.0775593
0.064699
0.0599867
0.0495056
0.0429594
0.0371388
0.0350608
0.0391593
0.0553104
0.11203
0.320835
0.646623
0.621206
0.570423
0.506299
0.41386
0.291584
0.188687
0.134995
0.101258
0.08875
0.0916387
0.10389
0.161961
0.30621
0.652908
0.273088
0.0726494
0.270087
0.0446874
0.0375026
0.0305307
0.0239872
0.0198027
0.0189678
0.0214687
0.0297412
0.0572273
0.16805
0.418535
0.307872
0.202511
0.116253
0.0696101
0.05415
0.0506955
0.0521995
0.0553077
0.0628043
0.0667599
0.0656826
0.0916764
0.234371
0.628935
0.302226
0.131012
1.42094
0.211071
0.0344954
0.0267021
0.0206166
0.0170539
0.01692
0.0182938
0.0211375
0.0288606
0.0646609
0.165116
0.0550805
0.0201169
0.0124673
0.0179198
0.0277957
0.0355547
0.0400737
0.0431069
0.0558826
0.0690935
0.0676195
0.0614865
0.184338
0.615046
0.322418
0.181791
2.02093
1.21109
0.253451
0.219252
0.191327
0.0973105
0.0194662
0.0203395
0.0205294
0.0183852
0.0196673
0.0456806
0.00621405
0.003682
0.003969
0.00489463
0.0159207
0.0298296
0.0361379
0.0375283
0.0438705
0.0633142
0.076545
0.0587065
0.163662
0.585572
0.329379
0.225159
2.1567
1.81717
1.21949
0.980241
0.778617
0.558955
0.154903
0.126621
0.0746262
0.0130879
0.00736038
0.0151045
0.00419727
0.00340273
0.00388715
0.00345473
0.0087493
0.0225366
0.0344255
0.0339764
0.0369863
0.0500334
0.0728543
0.0743121
0.154991
0.56045
0.329603
0.340435
2.18929
1.90405
1.50756
1.14989
0.88609
0.724974
0.550982
0.479348
0.320904
0.0121005
0.0042044
0.00768905
0.00497904
0.00603989
0.00490628
0.00612923
0.014804
0.0161963
0.0341116
0.0318915
0.0338193
0.0396874
0.0603511
0.0854234
0.146007
0.538334
0.331059
0.358441
2.23099
1.8862
1.50373
1.13132
0.866189
0.709745
0.604109
0.537561
0.360056
0.024141
0.00405998
0.0160023
0.00925082
0.0135841
0.00852031
0.0105116
0.040074
0.0145007
0.0368902
0.0306294
0.0307927
0.0342084
0.0464358
0.0848711
0.138497
0.529764
0.316088
0.419786
2.31276
1.85872
1.47773
1.094
0.839764
0.6907
0.616461
0.551012
0.19232
0.02536
0.00949763
0.033148
0.0181278
0.0265715
0.0131409
0.0121798
0.0256033
0.0175023
0.0371717
0.0293426
0.0286045
0.0312178
0.0372546
0.0687046
0.136391
0.512034
0.316845
0.432113
2.43085
1.84123
1.45408
1.06749
0.822049
0.687064
0.648835
0.552706
0.16897
0.0340468
0.0207166
0.033267
0.0162287
0.0291088
0.0206716
0.0201612
0.028446
0.0237313
0.0365699
0.0287757
0.0265417
0.028955
0.0321699
0.0438344
0.123771
0.501881
0.299122
0.445819
2.4364
1.83417
1.43769
1.04964
0.812764
0.690262
0.69693
0.520589
0.0657866
0.0257841
0.029523
0.0329575
0.0241256
0.0281707
0.0332317
0.0329032
0.0341759
0.0389599
0.039319
0.0282533
0.0247027
0.0271753
0.0301101
0.0327407
0.0564725
0.492362
0.292652
0.444042
2.16622
1.82269
1.42528
1.03568
0.80494
0.701904
0.757952
0.403092
0.0289356
0.0273377
0.017384
0.0302989
0.0112415
0.0262446
0.02585
0.0298093
0.0368449
0.0432646
0.0451474
0.0256932
0.0226654
0.02532
0.0288703
0.0301193
0.0467122
0.476791
0.299301
0.437962
2.08198
1.81396
1.41567
1.01959
0.79773
0.718433
0.745173
0.178639
0.0270879
0.0279361
0.0202298
0.0283607
0.0191505
0.0260932
0.0274742
0.0385791
0.0362949
0.0453195
0.0328586
0.020371
0.0207543
0.0235507
0.0276664
0.0288559
0.0437877
0.452242
0.305998
0.457335
1.75803
1.82439
1.41225
1.00549
0.798107
0.751989
0.692706
0.0667265
0.0181801
0.0284519
0.0123637
0.0274909
0.00852134
0.0241916
0.0084044
0.00900577
0.0261429
0.0197149
0.0202643
0.0178006
0.0186675
0.0218449
0.0264564
0.0276541
0.0399472
0.435849
0.308936
0.472075
1.68245
1.82321
1.40275
0.990688
0.805126
0.772813
0.595439
0.0218443
0.0176031
0.028389
0.0149174
0.0276083
0.0117454
0.0231619
0.0113159
0.0133876
0.0257482
0.0188319
0.0187414
0.016001
0.0171881
0.020527
0.025379
0.0267891
0.0371557
0.421426
0.306192
0.493829
2.5086
1.82367
1.39905
0.977472
0.814747
0.789943
0.449979
0.014513
0.0240699
0.0289082
0.0218039
0.0282305
0.0199529
0.0187234
0.0211227
0.0230162
0.0264865
0.0310319
0.0208336
0.0140928
0.0155049
0.0193199
0.0243088
0.0255532
0.0344918
0.41094
0.305128
0.487694
3.56981
1.8313
1.39928
0.984884
0.848702
0.820859
0.346769
0.0147986
0.0225556
0.032742
0.0174906
0.0300621
0.0161055
0.0309221
0.018015
0.0208046
0.0419436
0.0482433
0.0232988
0.0126833
0.0141719
0.0184812
0.0235282
0.0241682
0.0321221
0.396319
0.299858
0.502116
3.60396
1.85306
1.4037
1.01156
0.923361
0.803219
0.173426
0.0125582
0.032185
0.0348089
0.0220857
0.0303499
0.0210629
0.0296641
0.0228404
0.0271575
0.0452791
0.0675016
0.0208874
0.0101448
0.012996
0.01781
0.0226725
0.0218327
0.0293399
0.380405
0.29976
0.474884
3.57703
1.89914
1.41927
1.09092
1.02144
0.691497
0.0527749
0.00928888
0.0173439
0.0167468
0.0181415
0.0170984
0.0183726
0.0199103
0.0203293
0.0172453
0.0133678
0.0121097
0.00794807
0.00878994
0.0127694
0.0175462
0.0222707
0.0182578
0.0264141
0.360695
0.291708
0.493968
2.71177
1.95657
1.46613
1.17789
1.09306
0.586861
0.035756
0.00370656
0.00267753
0.00210602
0.0021997
0.00197815
0.00276114
0.00308574
0.00306205
0.00255727
0.00288264
0.00384002
0.00628377
0.00883343
0.0129588
0.0173023
0.0215403
0.0133017
0.0234633
0.346434
0.286924
0.481633
1.90427
1.96963
1.50173
1.23121
1.11684
0.535493
0.0350497
0.00295682
0.00247811
0.0017526
0.00124939
0.000938327
0.000776648
0.000890098
0.00118295
0.00186683
0.00303644
0.0039074
0.00594159
0.00854052
0.0122912
0.0165319
0.0205196
0.00992954
0.0207821
0.336613
0.287855
0.541334
1.53353
1.99065
1.57014
1.31068
1.13632
0.4666
0.00886897
0.00229407
0.00223097
0.00149797
0.00103052
0.000732524
0.000503446
0.000404609
0.000631427
0.00158222
0.00288806
0.00384797
0.00584138
0.00830638
0.0117414
0.0154911
0.0188786
0.00878789
0.018934
0.332774
0.277228
0.559314
1.67234
1.99787
1.61494
1.34883
1.0959
0.357298
0.00680093
0.00259365
0.00205806
0.00136572
0.00103215
0.000760067
0.000587784
0.000421316
0.000629463
0.00144431
0.00271781
0.00360083
0.00523108
0.00732285
0.0100986
0.0132481
0.0157758
0.00831854
0.0168414
0.329966
0.28201
0.608949
1.98187
2.07084
1.66341
1.33971
1.04099
0.340799
0.00930017
0.00224453
0.00167981
0.00111128
0.000874705
0.000653715
0.000508899
0.000293783
0.000543768
0.00129498
0.00237074
0.00308232
0.00425016
0.00572179
0.00752625
0.00951339
0.0108028
0.00709426
0.0132179
0.325955
0.259272
0.628995
2.26176
2.13942
1.69051
1.33695
1.02001
0.310357
0.00929334
0.00144044
0.00112498
0.000797234
0.000689965
0.000560193
0.000469217
0.000314915
0.000525424
0.000867527
0.00149892
0.0018843
0.00240122
0.00296012
0.00348831
0.00399393
0.0046678
0.00573774
0.00769925
0.322444
0.258106
0.648343
3.40021
2.25335
1.76231
1.3678
0.864601
0.087873
0.000832563
0.000443746
0.000413735
0.000360777
0.00033333
0.000302123
0.000279961
0.000245657
0.000409229
0.000431099
0.000515916
0.000565281
0.000599433
0.000662481
0.000640083
0.000625563
0.000882381
0.0021854
0.00229717
0.307377
0.229639
0.0641241
0.0351508
0.070798
0.0919766
0.124143
0.145031
0.174447
0.196016
0.215392
0.223397
0.224466
0.216541
0.202573
0.177025
0.150845
0.12067
0.097332
0.0763225
0.0609429
0.0494832
0.0436058
0.0412143
0.0425199
0.0462514
0.0548276
0.0736349
0.0685578
0.0497059
0.10158
0.154811
0.173704
0.20278
0.229648
0.258417
0.283035
0.296152
0.309334
0.322358
0.338786
0.343785
0.322539
0.299398
0.269685
0.236822
0.201918
0.167362
0.139633
0.116982
0.104826
0.10177
0.107277
0.111876
0.131907
0.159539
0.207596
0.0891416
0.0891241
0.095448
0.0883569
0.08688