/*--------------------------------*- C++ -*----------------------------------*\
| =========                 |                                                 |
| \\      /  F ield         | OpenFOAM: The Open Source CFD Toolbox           |
|  \\    /   O peration     | Version:  2.3.0                                 |
|   \\  /    A nd           | Web:      www.OpenFOAM.org                      |
|    \\/     M anipulation  |                                                 |
\*---------------------------------------------------------------------------*/
FoamFile
{
    version     2.0;
    format      ascii;
    class       volScalarField;
    location    "2.3999";
    object      nut.air;
}
// * * * * * * * * * * * * * * * * * * * * * * * * * * * * * * * * * * * * * //

dimensions      [0 2 -1 0 0 0 0];

internalField   nonuniform List<scalar> 
18816
(
5.70681e-08
5.56767e-08
1.06789e-07
1.2172e-07
1.38705e-07
1.47361e-07
1.57947e-07
1.64698e-07
1.7135e-07
1.74766e-07
1.76682e-07
1.76529e-07
1.75008e-07
1.71056e-07
1.65408e-07
1.57062e-07
1.46336e-07
1.32514e-07
1.15504e-07
9.55859e-08
7.26465e-08
5.89286e-08
6.85694e-08
8.91489e-08
1.12819e-07
1.26966e-07
1.25186e-07
5.77784e-08
1.61736e-34
1.72265e-07
1.66182e-07
1.6695e-07
1.67928e-07
1.7096e-07
1.73047e-07
1.72105e-07
1.69946e-07
1.66743e-07
1.65828e-07
1.64308e-07
1.59396e-07
1.54354e-07
1.48726e-07
1.41868e-07
1.33485e-07
1.2304e-07
1.11459e-07
9.89238e-08
8.74485e-08
8.21608e-08
8.6218e-08
9.37267e-08
1.09067e-07
1.21358e-07
1.43008e-07
2.3196e-34
2.1099e-34
6.70946e-35
7.91393e-35
8.25744e-35
8.29095e-35
7.9e-35
7.36606e-35
7.29641e-35
7.30449e-35
7.39448e-35
8.06598e-35
1.49943e-07
1.42932e-07
1.37689e-07
1.32884e-07
1.26899e-07
1.20057e-07
1.11662e-07
1.01583e-07
9.06455e-08
7.89557e-08
7.37125e-08
7.52061e-08
7.84567e-08
8.98131e-08
1.07451e-07
1.384e-07
2.01074e-34
2.27081e-34
7.54287e-35
8.50803e-35
8.48649e-35
8.38513e-35
8.03079e-35
7.45264e-35
7.34821e-35
7.89269e-35
8.08467e-35
9.91515e-35
1.33839e-34
1.30431e-07
1.26593e-07
1.20929e-07
1.13887e-07
1.05569e-07
9.39276e-08
7.98232e-08
6.79079e-08
5.67423e-08
5.15317e-08
5.25118e-08
5.88311e-08
7.74649e-08
1.00971e-07
1.36767e-07
1.88465e-34
3.02997e-34
1.55738e-07
9.34615e-35
9.39617e-35
9.16459e-35
8.18887e-35
8.02564e-35
8.26943e-35
7.98812e-35
8.58395e-35
1.21277e-34
1.99e-34
1.11022e-07
9.65227e-08
8.01208e-08
6.49714e-08
5.6667e-08
6.15541e-08
5.931e-08
5.73571e-08
5.19151e-08
4.27723e-08
4.66265e-08
4.478e-08
5.61815e-08
9.21584e-08
1.35219e-07
1.78627e-34
2.10336e-34
2.16394e-07
1.43665e-07
9.75758e-35
9.23865e-35
8.39099e-35
8.20465e-35
7.8114e-35
8.78576e-35
8.99398e-35
1.31134e-34
2.75536e-34
8.02384e-08
5.19673e-08
3.61789e-08
3.98196e-08
4.55905e-08
6.07911e-08
1.04107e-07
1.36858e-07
9.31313e-08
5.88614e-08
4.63735e-08
4.64676e-08
4.5422e-08
8.43185e-08
1.34201e-07
1.74165e-34
2.03126e-34
2.23057e-07
2.02066e-07
1.41457e-07
1.30843e-07
1.20752e-07
1.04594e-07
8.98588e-35
9.23476e-35
1.09291e-34
1.45488e-34
8.42624e-34
5.05984e-08
2.47163e-08
1.93615e-08
1.91364e-08
2.68403e-08
3.44862e-08
5.18386e-08
1.4528e-07
2.49474e-07
8.01944e-08
5.12792e-08
4.88467e-08
5.6455e-08
8.01517e-08
1.32246e-07
1.72234e-34
1.54066e-34
2.22835e-07
2.11995e-07
1.92568e-07
1.74768e-07
1.58644e-07
1.45586e-07
1.04988e-07
9.96867e-08
8.479e-08
1.73599e-34
1.33171e-33
3.18094e-08
1.89954e-08
1.72264e-08
1.76724e-08
1.7851e-08
2.46251e-08
3.74855e-08
6.32666e-08
2.78865e-07
2.07963e-07
6.13465e-08
4.88753e-08
4.99889e-08
7.71785e-08
1.30591e-07
1.72649e-34
1.53346e-34
2.22118e-07
2.13871e-07
1.96617e-07
1.77123e-07
1.5982e-07
1.47821e-07
1.36802e-07
1.30774e-07
1.1285e-07
1.78553e-34
2.58715e-32
2.26408e-08
1.76699e-08
1.92645e-08
1.9328e-08
2.24179e-08
2.334e-08
2.79843e-08
5.04947e-08
2.72884e-07
3.08148e-07
9.35758e-08
4.79513e-08
5.21588e-08
7.37143e-08
1.29108e-07
1.72158e-34
1.21477e-34
2.21887e-07
2.138e-07
1.95791e-07
1.74999e-07
1.57357e-07
1.45169e-07
1.36983e-07
1.31337e-07
1.10965e-07
2.14422e-34
1.7334e-33
2.21438e-08
2.31696e-08
2.4405e-08
2.43574e-08
2.92733e-08
3.24674e-08
4.2375e-08
4.23555e-08
2.14078e-07
3.17181e-07
2.13852e-07
5.79447e-08
5.32469e-08
7.05298e-08
1.27962e-07
1.7503e-34
1.12879e-34
2.22585e-07
2.13259e-07
1.95091e-07
1.73314e-07
1.55874e-07
1.44061e-07
1.37143e-07
1.30266e-07
8.69833e-08
3.18291e-34
1.42149e-33
2.58402e-08
2.83087e-08
2.91274e-08
2.60487e-08
2.6562e-08
2.90846e-08
2.92703e-08
3.61465e-08
1.51824e-07
3.10903e-07
2.99969e-07
7.61194e-08
5.10378e-08
6.83869e-08
1.26216e-07
1.73858e-34
1.08406e-34
2.27996e-07
2.12808e-07
1.9477e-07
1.72136e-07
1.54856e-07
1.43757e-07
1.39403e-07
1.29871e-07
7.66848e-08
2.92596e-08
3.31782e-08
3.06532e-08
2.65934e-08
2.91688e-08
3.23236e-08
3.24473e-08
3.15499e-08
3.42502e-08
3.71849e-08
1.08278e-07
3.03608e-07
3.09121e-07
1.95532e-07
4.87887e-08
6.57011e-08
1.2547e-07
1.79934e-34
9.46489e-35
2.50274e-07
2.12609e-07
1.94299e-07
1.71168e-07
1.5418e-07
1.44014e-07
1.42883e-07
1.24245e-07
5.27763e-08
3.31499e-08
3.35417e-08
3.00943e-08
2.60999e-08
2.87525e-08
3.44175e-08
3.49748e-08
3.44196e-08
3.82861e-08
4.0284e-08
8.46185e-08
2.9696e-07
3.03041e-07
3.01708e-07
8.834e-08
4.68947e-08
1.24141e-07
1.80648e-34
9.21856e-35
2.56285e-07
2.13555e-07
1.93753e-07
1.70336e-07
1.53602e-07
1.44877e-07
1.45994e-07
1.07489e-07
3.52231e-08
3.22428e-08
3.05765e-08
3.54893e-08
2.41665e-08
2.67694e-08
3.59268e-08
3.91267e-08
3.68113e-08
4.39707e-08
4.11571e-08
7.26952e-08
2.88818e-07
2.97371e-07
3.04045e-07
2.54617e-07
5.69958e-08
1.22488e-07
1.836e-34
8.08436e-35
2.40211e-07
2.14053e-07
1.93189e-07
1.6936e-07
1.53102e-07
1.46226e-07
1.44432e-07
7.54256e-08
9.69046e-08
5.41623e-08
3.30657e-08
3.70924e-08
2.60238e-08
2.60632e-08
3.23731e-08
3.99314e-08
3.53544e-08
3.99181e-08
3.8288e-08
1.64515e-07
2.80819e-07
2.90544e-07
3.00258e-07
2.90952e-07
6.1554e-08
1.20007e-07
1.85111e-34
7.70361e-35
1.94346e-07
2.11944e-07
1.92875e-07
1.68572e-07
1.53067e-07
1.48567e-07
1.40903e-07
5.42729e-08
1.90667e-07
2.38231e-07
1.22423e-07
4.20156e-08
2.05246e-08
3.61769e-08
2.52668e-08
2.2309e-08
3.30606e-08
3.45615e-08
8.2786e-08
2.538e-07
2.72488e-07
2.83541e-07
2.95849e-07
2.97119e-07
7.73457e-08
1.18136e-07
1.83781e-34
6.93732e-35
1.54207e-07
2.11658e-07
1.92658e-07
1.67627e-07
1.53456e-07
1.50437e-07
1.32948e-07
4.13926e-08
1.96151e-07
2.56834e-07
2.12131e-07
1.5058e-07
4.2861e-08
1.40197e-07
1.3044e-07
1.06572e-07
1.6329e-07
1.98469e-07
2.30158e-07
2.54366e-07
2.65645e-07
2.77001e-07
2.91548e-07
2.9583e-07
1.13661e-07
1.16353e-07
1.8738e-34
6.88085e-35
1.50565e-07
2.12914e-07
1.92795e-07
1.67144e-07
1.5487e-07
1.53229e-07
1.21072e-07
4.8842e-08
2.43914e-07
2.72536e-07
2.46143e-07
2.57921e-07
2.06238e-07
2.3841e-07
2.40082e-07
2.4338e-07
2.71129e-07
2.93702e-07
2.61258e-07
2.48294e-07
2.58126e-07
2.70489e-07
2.86561e-07
2.91004e-07
1.58499e-07
1.14839e-07
1.89353e-34
7.25398e-35
2.08535e-07
2.11289e-07
1.92725e-07
1.67523e-07
1.58735e-07
1.56064e-07
1.04595e-07
2.1799e-07
2.45435e-07
2.717e-07
2.29072e-07
2.7024e-07
2.25383e-07
2.73976e-07
2.30106e-07
2.35607e-07
2.79618e-07
3.03904e-07
2.73217e-07
2.42778e-07
2.50266e-07
2.64818e-07
2.82311e-07
2.85686e-07
1.97142e-07
1.12896e-07
1.88885e-34
6.99283e-35
2.82259e-07
2.11111e-07
1.92756e-07
1.69399e-07
1.63782e-07
1.53278e-07
7.741e-08
2.31049e-07
2.4754e-07
2.68637e-07
2.65034e-07
2.83795e-07
2.92312e-07
3.01398e-07
2.72333e-07
2.49848e-07
2.61462e-07
2.74342e-07
2.52081e-07
2.28529e-07
2.36723e-07
2.57739e-07
2.76775e-07
2.76025e-07
2.25295e-07
1.10681e-07
1.93915e-34
5.9111e-35
3.21697e-07
2.14473e-07
1.93433e-07
1.73978e-07
1.69108e-07
1.43416e-07
5.13788e-08
1.43071e-07
2.25343e-07
3.2287e-07
5.06721e-07
5.36849e-07
7.06246e-07
5.45358e-07
4.04572e-07
3.76599e-07
2.18265e-07
1.57814e-07
1.81096e-07
1.99673e-07
2.27547e-07
2.53061e-07
2.7333e-07
2.59257e-07
2.46636e-07
1.08026e-07
1.93537e-34
5.81252e-35
3.52871e-07
2.1983e-07
1.9525e-07
1.78042e-07
1.71809e-07
1.33745e-07
4.91147e-08
5.9968e-08
2.09812e-07
1.78838e-07
1.53568e-07
1.65536e-07
1.75973e-07
1.64888e-07
1.63111e-07
1.39105e-07
1.87044e-07
2.04772e-07
1.82787e-07
2.04464e-07
2.30316e-07
2.52356e-07
2.70194e-07
2.21665e-07
2.58977e-07
1.0614e-07
1.99209e-34
5.18854e-35
3.58034e-07
2.25108e-07
1.96356e-07
1.80567e-07
1.71902e-07
1.26725e-07
4.85638e-08
1.08921e-07
1.40171e-07
1.31621e-07
1.22698e-07
1.17019e-07
1.09956e-07
1.13073e-07
1.15693e-07
1.27368e-07
1.44079e-07
1.54219e-07
1.79585e-07
2.02041e-07
2.26977e-07
2.48985e-07
2.65565e-07
1.22969e-07
2.58717e-07
1.04843e-07
2.02521e-34
4.96757e-35
3.27332e-07
2.28534e-07
1.98902e-07
1.8353e-07
1.7126e-07
1.18776e-07
1.51157e-33
1.01544e-07
1.34044e-07
1.2067e-07
1.06917e-07
9.71861e-08
9.20932e-08
1.29732e-07
9.72396e-08
1.2066e-07
1.43737e-07
1.56459e-07
1.79089e-07
2.00756e-07
2.24718e-07
2.45403e-07
2.60145e-07
4.39374e-31
2.53892e-07
1.04446e-07
2.01974e-34
4.94407e-35
2.54973e-07
2.25624e-07
2.00449e-07
1.84994e-07
1.68602e-07
1.08149e-07
4.29431e-33
1.37514e-07
1.35862e-07
1.21728e-07
1.11183e-07
1.02413e-07
9.33295e-08
8.03433e-08
8.62081e-08
1.15926e-07
1.4249e-07
1.55257e-07
1.76748e-07
1.96711e-07
2.17405e-07
2.36752e-07
2.50231e-07
4.03212e-31
2.54146e-07
1.04132e-07
2.08896e-34
5.00708e-35
2.01495e-07
2.20659e-07
2.02619e-07
1.85114e-07
1.66407e-07
1.04591e-07
4.05155e-08
1.40188e-07
1.28135e-07
1.14038e-07
1.05061e-07
9.53625e-08
8.53297e-08
6.12005e-08
7.45176e-08
1.11673e-07
1.37748e-07
1.50042e-07
1.68271e-07
1.86025e-07
2.03571e-07
2.20299e-07
2.30273e-07
2.97146e-31
2.4283e-07
1.03753e-07
2.12344e-34
4.91041e-35
1.55025e-07
2.19869e-07
2.03698e-07
1.84898e-07
1.6468e-07
9.73951e-08
3.4456e-08
1.23721e-07
1.18884e-07
1.07992e-07
1.0276e-07
9.5631e-08
8.93229e-08
6.58071e-08
7.47063e-08
1.05601e-07
1.27705e-07
1.37097e-07
1.50321e-07
1.62401e-07
1.72923e-07
1.85004e-07
1.90814e-07
2.16929e-31
2.13301e-07
1.03024e-07
2.11983e-34
4.94784e-35
1.35061e-07
2.26522e-07
2.06202e-07
1.85046e-07
1.54396e-07
5.93396e-08
5.99251e-08
8.22531e-08
8.14464e-08
7.5991e-08
7.39031e-08
7.02974e-08
6.71134e-08
5.21397e-08
5.87321e-08
7.66005e-08
8.56276e-08
8.8857e-08
9.35946e-08
9.71082e-08
9.89111e-08
1.0147e-07
1.02692e-07
1.30804e-07
1.25675e-07
1.00537e-07
2.19551e-34
2.43504e-08
2.31363e-08
6.83837e-08
7.99838e-08
9.26075e-08
9.89644e-08
1.06479e-07
1.11093e-07
1.15352e-07
1.17236e-07
1.1736e-07
1.16196e-07
1.14193e-07
1.10017e-07
1.04559e-07
9.68319e-08
8.7482e-08
7.60687e-08
6.28527e-08
4.86152e-08
3.48784e-08
2.98439e-08
3.42322e-08
4.63745e-08
6.57066e-08
8.09939e-08
8.11323e-08
1.00624e-33
1.45456e-33
1.08436e-07
1.08553e-07
1.10449e-07
1.1225e-07
1.14757e-07
1.15777e-07
1.14978e-07
1.13544e-07
1.12046e-07
1.12334e-07
1.12081e-07
1.09087e-07
1.05857e-07
1.02164e-07
9.73579e-08
9.1156e-08
8.31235e-08
7.47725e-08
6.61511e-08
5.85492e-08
5.5582e-08
5.80194e-08
6.34887e-08
7.45547e-08
8.31804e-08
9.59015e-08
1.03719e-33
3.68729e-09
2.0906e-08
1.95897e-08
1.89123e-08
1.7665e-08
1.6641e-08
1.51313e-08
1.38519e-08
1.31602e-08
1.33456e-08
2.3864e-08
1.05647e-07
1.00867e-07
9.78568e-08
9.48959e-08
9.08665e-08
8.60055e-08
8.01399e-08
7.29574e-08
6.53047e-08
5.83521e-08
5.76681e-08
5.90433e-08
5.9546e-08
6.57356e-08
7.66357e-08
9.59649e-08
1.12808e-33
1.8038e-09
3.79274e-09
3.40749e-09
3.01284e-09
2.3997e-09
1.56997e-09
1.20697e-09
1.09453e-09
1.10146e-09
6.51141e-10
1.46576e-09
2.03699e-08
9.45754e-08
9.29052e-08
8.9433e-08
8.47241e-08
7.84149e-08
6.89043e-08
5.78039e-08
4.9722e-08
4.29815e-08
4.33544e-08
4.46432e-08
4.48334e-08
5.6204e-08
7.20818e-08
9.4988e-08
7.74343e-34
1.10885e-09
7.67262e-08
1.57026e-09
9.75264e-10
7.5845e-10
4.58575e-10
3.29793e-10
1.90756e-10
3.40752e-10
7.59091e-11
1.66945e-10
9.38545e-09
8.28196e-08
7.35483e-08
6.29349e-08
5.19141e-08
5.20462e-08
5.13109e-08
5.47911e-08
5.65415e-08
4.90991e-08
4.33897e-08
4.62113e-08
4.5668e-08
4.31023e-08
6.61797e-08
9.4512e-08
7.16718e-34
1.89018e-33
1.41697e-07
7.0146e-08
9.23953e-10
7.74323e-11
9.0478e-12
4.44393e-12
8.06495e-12
1.67478e-11
7.87157e-12
1.62163e-11
3.06045e-09
6.11564e-08
3.92717e-08
2.79846e-08
3.33307e-08
3.8688e-08
4.8487e-08
8.42531e-08
1.39166e-07
1.53224e-07
5.50535e-08
4.06037e-08
4.59765e-08
4.3526e-08
6.07717e-08
9.41886e-08
6.63183e-34
1.6078e-33
1.53471e-07
1.32389e-07
7.29218e-08
6.78403e-08
6.29866e-08
4.97251e-08
3.56132e-10
1.39837e-10
1.56604e-10
4.40782e-11
1.54554e-09
3.87964e-08
1.84056e-08
1.78576e-08
1.63547e-08
2.31643e-08
2.67385e-08
4.13679e-08
9.83705e-08
2.44613e-07
1.1144e-07
5.06666e-08
4.12711e-08
5.8126e-08
5.91315e-08
9.32419e-08
6.00445e-34
1.03268e-33
1.54936e-07
1.47257e-07
1.28661e-07
1.17204e-07
1.06288e-07
9.53986e-08
5.59412e-08
5.26055e-08
4.21768e-08
4.14861e-11
9.4325e-11
2.50265e-08
1.69248e-08
1.71191e-08
1.51462e-08
1.75901e-08
2.13285e-08
2.83648e-08
4.77715e-08
2.44895e-07
2.44642e-07
5.82751e-08
3.95027e-08
4.81346e-08
5.80654e-08
9.21762e-08
5.90713e-34
9.25147e-34
1.55302e-07
1.49817e-07
1.36664e-07
1.22874e-07
1.10414e-07
1.02108e-07
9.28054e-08
8.91135e-08
7.63e-08
1.14147e-11
4.49687e-11
2.07122e-08
1.65549e-08
1.93128e-08
1.62212e-08
1.7024e-08
1.99998e-08
2.67743e-08
4.13651e-08
2.22392e-07
2.85365e-07
1.20585e-07
4.6857e-08
4.62005e-08
5.63152e-08
9.11451e-08
5.80715e-34
7.08528e-34
1.55973e-07
1.49446e-07
1.36865e-07
1.223e-07
1.09547e-07
1.01414e-07
9.58324e-08
9.24605e-08
8.02846e-08
7.58897e-12
2.10519e-12
1.94949e-08
2.06465e-08
2.36404e-08
1.90081e-08
2.09958e-08
2.80385e-08
3.76443e-08
3.37303e-08
1.64963e-07
2.80653e-07
2.32467e-07
5.08845e-08
4.42616e-08
5.45015e-08
9.05132e-08
5.91317e-34
6.82329e-34
1.58594e-07
1.48796e-07
1.36476e-07
1.20812e-07
1.08228e-07
1.00324e-07
9.62992e-08
9.23604e-08
6.3306e-08
1.04563e-09
9.51603e-10
2.40862e-08
2.42249e-08
3.16006e-08
2.3001e-08
2.18752e-08
2.88219e-08
2.43807e-08
3.27661e-08
1.15345e-07
2.7288e-07
2.74983e-07
9.40384e-08
4.08702e-08
5.44793e-08
8.9291e-08
5.96656e-34
5.73835e-34
1.66293e-07
1.48442e-07
1.3608e-07
1.19896e-07
1.07465e-07
1.0017e-07
9.80187e-08
9.24744e-08
5.32987e-08
1.82578e-08
2.22729e-08
3.02265e-08
2.44188e-08
2.83628e-08
2.47338e-08
2.4745e-08
2.93171e-08
2.63496e-08
3.70498e-08
8.50515e-08
2.65698e-07
2.73412e-07
2.18373e-07
4.34146e-08
5.29419e-08
8.8739e-08
5.94267e-34
5.37119e-34
1.84033e-07
1.48585e-07
1.35548e-07
1.19196e-07
1.07015e-07
1.00377e-07
1.00822e-07
8.97053e-08
3.81641e-08
3.57437e-08
2.8153e-08
3.63171e-08
2.84066e-08
3.01253e-08
2.90852e-08
2.96726e-08
3.08699e-08
3.11339e-08
3.80103e-08
6.95002e-08
2.59043e-07
2.67687e-07
2.76047e-07
1.62794e-07
4.22666e-08
8.80166e-08
6.07599e-34
5.51216e-34
1.54652e-07
1.49926e-07
1.35106e-07
1.18636e-07
1.06644e-07
1.01039e-07
1.0377e-07
8.08303e-08
3.66279e-08
3.95778e-08
2.41718e-08
3.90254e-08
2.66383e-08
3.09145e-08
2.75121e-08
2.99228e-08
3.20633e-08
3.31357e-08
3.50187e-08
6.20799e-08
2.51294e-07
2.61892e-07
2.74104e-07
2.78673e-07
9.57912e-08
8.70212e-08
6.16886e-34
5.09598e-34
1.13394e-07
1.50559e-07
1.34751e-07
1.17978e-07
1.06288e-07
1.02046e-07
1.03301e-07
5.85219e-08
1.52522e-07
1.11909e-07
4.29349e-08
4.70479e-08
3.10581e-08
3.57382e-08
2.99665e-08
3.16295e-08
3.04585e-08
3.07549e-08
3.51121e-08
1.49677e-07
2.43758e-07
2.55264e-07
2.6989e-07
2.76638e-07
2.03605e-07
8.53208e-08
6.15936e-34
5.00023e-34
9.0408e-08
1.48141e-07
1.34615e-07
1.17379e-07
1.06272e-07
1.03898e-07
1.0107e-07
4.35442e-08
2.25354e-07
3.00198e-07
1.60422e-07
7.04117e-08
2.41064e-08
7.4026e-08
2.55038e-08
2.35151e-08
3.6719e-08
3.58504e-08
9.90255e-08
2.22425e-07
2.35924e-07
2.48737e-07
2.65638e-07
2.71913e-07
2.59387e-07
8.39625e-08
6.15211e-34
4.36877e-34
8.80931e-08
1.47027e-07
1.34435e-07
1.16657e-07
1.06549e-07
1.05172e-07
9.65183e-08
3.14384e-08
2.45394e-07
3.1501e-07
2.49578e-07
2.48653e-07
9.37951e-08
2.10544e-07
1.88118e-07
1.65197e-07
2.26736e-07
2.401e-07
2.32495e-07
2.20599e-07
2.29399e-07
2.43046e-07
2.61415e-07
2.67748e-07
2.75287e-07
8.26707e-08
6.14819e-34
4.03476e-34
8.16351e-08
1.47779e-07
1.34356e-07
1.15981e-07
1.07158e-07
1.0654e-07
8.90844e-08
5.60882e-08
2.94613e-07
3.31311e-07
2.96163e-07
3.21632e-07
2.72465e-07
2.64629e-07
2.83202e-07
2.87696e-07
3.06205e-07
3.37731e-07
2.5815e-07
2.13987e-07
2.21431e-07
2.37647e-07
2.57105e-07
2.62482e-07
2.73e-07
8.16181e-08
6.10919e-34
3.89204e-34
1.42744e-07
1.46564e-07
1.33948e-07
1.15883e-07
1.09046e-07
1.08532e-07
7.96541e-08
1.77819e-07
2.67291e-07
3.31761e-07
2.5047e-07
3.33139e-07
2.45548e-07
3.38703e-07
2.4753e-07
2.54096e-07
3.43458e-07
3.35991e-07
2.50902e-07
2.05563e-07
2.12926e-07
2.3311e-07
2.53483e-07
2.55914e-07
2.66889e-07
8.03265e-08
6.17701e-34
4.15939e-34
2.29475e-07
1.48158e-07
1.33547e-07
1.16563e-07
1.1222e-07
1.07189e-07
5.96323e-08
1.83707e-07
2.96246e-07
3.42467e-07
3.35702e-07
3.67597e-07
3.69682e-07
3.88793e-07
3.40456e-07
3.0746e-07
3.3495e-07
3.33011e-07
2.20746e-07
1.84507e-07
2.0081e-07
2.28148e-07
2.49392e-07
2.44538e-07
2.57738e-07
7.89562e-08
6.15999e-34
3.66298e-34
2.67981e-07
1.52122e-07
1.33382e-07
1.19392e-07
1.15902e-07
1.01362e-07
3.92651e-08
1.21707e-07
2.89952e-07
4.27163e-07
6.06604e-07
6.61015e-07
8.03096e-07
6.62634e-07
5.12857e-07
4.78433e-07
3.02136e-07
2.02114e-07
1.54083e-07
1.72936e-07
2.01598e-07
2.27582e-07
2.47767e-07
2.23689e-07
2.48583e-07
7.73481e-08
6.24336e-34
3.59445e-34
2.68193e-07
1.56421e-07
1.34513e-07
1.22301e-07
1.18409e-07
9.61021e-08
4.27194e-08
6.0154e-08
1.74658e-07
1.57381e-07
1.45402e-07
1.58007e-07
1.7671e-07
1.5643e-07
1.45966e-07
1.28903e-07
1.69249e-07
1.85034e-07
1.64406e-07
1.83158e-07
2.07099e-07
2.28356e-07
2.44886e-07
1.81663e-07
2.35878e-07
7.6302e-08
6.30057e-34
3.66155e-34
2.19551e-07
1.58707e-07
1.35386e-07
1.2408e-07
1.19047e-07
9.27564e-08
4.16845e-08
9.71193e-08
1.12517e-07
1.02525e-07
9.27063e-08
8.54665e-08
7.68569e-08
8.39813e-08
9.03401e-08
1.04513e-07
1.22703e-07
1.32577e-07
1.56137e-07
1.79176e-07
2.02956e-07
2.24411e-07
2.39523e-07
1.13083e-07
2.19333e-07
7.56141e-08
6.27443e-34
3.54753e-34
1.69377e-07
1.58086e-07
1.37421e-07
1.26586e-07
1.19458e-07
8.7852e-08
1.86237e-09
8.33679e-08
1.16269e-07
1.03549e-07
9.28174e-08
8.33617e-08
8.11557e-08
1.0181e-07
9.13669e-08
1.11234e-07
1.30332e-07
1.42485e-07
1.58893e-07
1.79234e-07
2.00493e-07
2.19499e-07
2.32263e-07
8.43306e-08
2.06864e-07
7.53821e-08
6.41944e-34
3.17314e-34
1.10438e-07
1.53364e-07
1.3865e-07
1.27875e-07
1.18329e-07
8.02667e-08
2.28921e-09
1.11374e-07
1.11438e-07
9.77045e-08
8.7866e-08
7.87764e-08
7.09883e-08
6.02803e-08
7.0217e-08
9.72703e-08
1.22025e-07
1.34633e-07
1.53283e-07
1.71497e-07
1.90025e-07
2.07223e-07
2.18009e-07
7.46305e-08
1.99761e-07
7.50343e-08
6.38107e-34
3.10019e-34
9.35974e-08
1.4948e-07
1.39951e-07
1.2785e-07
1.1673e-07
7.89271e-08
2.28688e-08
1.10513e-07
1.03393e-07
9.01153e-08
8.3555e-08
7.59787e-08
6.88211e-08
6.34207e-08
7.34873e-08
9.41422e-08
1.16495e-07
1.27534e-07
1.42094e-07
1.56982e-07
1.71215e-07
1.84623e-07
1.91614e-07
6.09345e-08
1.81565e-07
7.44912e-08
6.58921e-34
2.81801e-34
8.82895e-08
1.50695e-07
1.40494e-07
1.27655e-07
1.15648e-07
7.39272e-08
1.91163e-08
8.93807e-08
8.93378e-08
8.03135e-08
7.67576e-08
7.15889e-08
6.61831e-08
5.24935e-08
6.45e-08
8.15956e-08
9.91861e-08
1.0709e-07
1.16318e-07
1.24712e-07
1.31417e-07
1.37907e-07
1.42096e-07
5.47847e-08
1.44785e-07
7.3751e-08
6.67746e-34
2.74299e-34
6.96997e-08
1.57301e-07
1.42114e-07
1.28091e-07
1.0861e-07
4.19305e-08
2.86982e-08
5.31568e-08
5.13748e-08
4.95295e-08
4.86171e-08
4.78622e-08
4.6177e-08
4.81673e-08
5.91429e-08
5.33145e-08
5.49426e-08
5.57634e-08
5.5257e-08
5.36432e-08
4.77469e-08
4.23334e-08
4.14253e-08
8.64827e-08
5.87667e-08
7.18437e-08
6.7485e-34
3.44521e-08
2.39465e-08
4.73718e-08
5.32939e-08
6.13792e-08
6.56889e-08
7.0923e-08
7.4207e-08
7.7068e-08
7.79662e-08
7.71275e-08
7.58608e-08
7.34155e-08
6.90817e-08
6.36796e-08
5.64011e-08
4.86908e-08
4.05868e-08
3.34402e-08
2.89202e-08
2.96547e-08
3.39244e-08
3.05326e-08
2.90592e-08
3.63035e-08
4.99324e-08
5.09126e-08
7.14381e-09
1.17561e-08
6.57976e-08
6.88661e-08
7.19954e-08
7.48165e-08
7.75382e-08
7.90211e-08
7.93904e-08
7.94849e-08
7.9717e-08
8.11479e-08
8.17363e-08
7.97071e-08
7.98295e-08
8.77542e-08
9.22007e-08
8.8985e-08
8.22449e-08
7.62355e-08
7.06433e-08
6.6823e-08
6.61355e-08
6.52842e-08
6.76419e-08
7.44612e-08
6.2906e-08
6.78841e-08
3.8944e-09
9.45179e-09
2.99281e-08
2.95152e-08
2.91037e-08
2.85067e-08
2.76176e-08
2.57344e-08
2.45283e-08
2.43347e-08
2.72444e-08
4.14711e-08
8.05194e-08
8.08365e-08
8.45598e-08
8.88244e-08
9.07719e-08
8.8946e-08
8.40829e-08
7.8002e-08
7.15908e-08
6.74714e-08
6.92994e-08
7.05587e-08
6.82828e-08
7.08632e-08
7.52446e-08
7.12133e-08
3.85787e-33
3.20702e-09
1.62343e-08
1.50828e-08
1.49606e-08
1.30016e-08
1.12036e-08
1.00209e-08
9.91613e-09
1.13736e-08
1.38085e-08
1.88556e-08
3.85164e-08
7.30987e-08
7.22908e-08
6.99262e-08
6.6554e-08
6.13405e-08
5.38402e-08
4.88056e-08
4.60671e-08
4.59298e-08
4.7584e-08
4.78497e-08
4.30755e-08
4.76628e-08
6.17878e-08
7.07029e-08
2.82739e-33
3.01732e-09
3.21085e-08
1.47279e-08
1.56267e-08
1.3964e-08
1.22639e-08
1.19181e-08
1.2017e-08
1.35801e-08
1.3808e-08
1.5109e-08
2.73968e-08
6.49e-08
5.92427e-08
5.15829e-08
4.5837e-08
4.69943e-08
5.25957e-08
7.01906e-08
9.52936e-08
7.62334e-08
5.51727e-08
5.66311e-08
5.22496e-08
4.06607e-08
5.06167e-08
7.03629e-08
2.78099e-33
1.28202e-09
8.95656e-08
2.88529e-08
1.30968e-08
1.08558e-08
1.00562e-08
1.15332e-08
1.45343e-08
1.51067e-08
1.41537e-08
1.23888e-08
1.80461e-08
4.81797e-08
3.06125e-08
2.47005e-08
3.02125e-08
3.40278e-08
3.93952e-08
6.60856e-08
1.65917e-07
2.34133e-07
9.27025e-08
5.1724e-08
4.94561e-08
5.08212e-08
4.68457e-08
7.00317e-08
2.29998e-33
3.60418e-33
1.08114e-07
8.43896e-08
3.31501e-08
3.18942e-08
3.08343e-08
2.14988e-08
1.45134e-08
1.57344e-08
1.5495e-08
1.34516e-08
1.1749e-08
3.06228e-08
1.67274e-08
1.99796e-08
1.81873e-08
2.26398e-08
2.41852e-08
3.71819e-08
7.01172e-08
2.4872e-07
2.01378e-07
5.39952e-08
4.23413e-08
6.35033e-08
4.68794e-08
6.94046e-08
2.21717e-33
3.17849e-33
1.12631e-07
1.0523e-07
8.65858e-08
8.00484e-08
7.35938e-08
6.35019e-08
2.93186e-08
2.67056e-08
1.95288e-08
1.16038e-08
7.33456e-09
2.06994e-08
1.64046e-08
1.86905e-08
1.59665e-08
1.9548e-08
2.22934e-08
2.77031e-08
4.41417e-08
2.37811e-07
2.73272e-07
8.97879e-08
4.57923e-08
5.16299e-08
4.74858e-08
6.86334e-08
2.15775e-33
2.44191e-33
1.14344e-07
1.09205e-07
9.88677e-08
8.94639e-08
8.10469e-08
7.50538e-08
6.57753e-08
6.27798e-08
5.26645e-08
5.1351e-09
3.93694e-09
2.07372e-08
1.72846e-08
2.17463e-08
1.64856e-08
1.56375e-08
2.75461e-08
3.18498e-08
4.13936e-08
1.83852e-07
2.80597e-07
1.87703e-07
4.78646e-08
4.59832e-08
4.78413e-08
6.78876e-08
2.1517e-33
2.18034e-33
1.16079e-07
1.09047e-07
1.0006e-07
8.99718e-08
8.11918e-08
7.56467e-08
7.1432e-08
6.86961e-08
6.05576e-08
3.54881e-09
2.8121e-09
2.26509e-08
2.16961e-08
2.82043e-08
1.85087e-08
1.77491e-08
3.08594e-08
3.91029e-08
3.69106e-08
1.33579e-07
2.68613e-07
2.58157e-07
6.66113e-08
4.32795e-08
4.78955e-08
6.75877e-08
2.19634e-33
1.86969e-33
1.1949e-07
1.0847e-07
1.00064e-07
8.89872e-08
8.02921e-08
7.48822e-08
7.21182e-08
6.90872e-08
4.99663e-08
2.12386e-08
1.58709e-08
3.62706e-08
2.76087e-08
4.05538e-08
2.59585e-08
2.24587e-08
3.65283e-08
2.52604e-08
3.96687e-08
9.46913e-08
2.60717e-07
2.70863e-07
1.50956e-07
4.59169e-08
4.94546e-08
6.67706e-08
2.16285e-33
1.77582e-33
1.25817e-07
1.08227e-07
9.95207e-08
8.82345e-08
7.96884e-08
7.47579e-08
7.32819e-08
6.91723e-08
4.25868e-08
2.1445e-08
1.90612e-08
5.00027e-08
3.41785e-08
4.04374e-08
2.73167e-08
2.66463e-08
3.66425e-08
2.53751e-08
4.53154e-08
7.3716e-08
2.52839e-07
2.65077e-07
2.51374e-07
4.61131e-08
4.8132e-08
6.64271e-08
2.26071e-33
1.64699e-33
1.29978e-07
1.08433e-07
9.89928e-08
8.77072e-08
7.93795e-08
7.48813e-08
7.5255e-08
6.74985e-08
3.60813e-08
5.68413e-08
3.20913e-08
5.55538e-08
4.56345e-08
4.81091e-08
3.50458e-08
3.32825e-08
3.6528e-08
3.29109e-08
4.1344e-08
6.38879e-08
2.45831e-07
2.59184e-07
2.76584e-07
2.59474e-07
6.04568e-08
6.62037e-08
2.25735e-33
1.65187e-33
9.86661e-08
1.09367e-07
9.86424e-08
8.73173e-08
7.91388e-08
7.53178e-08
7.76914e-08
6.32427e-08
5.78034e-08
8.91986e-08
2.91342e-08
6.98652e-08
3.60696e-08
5.53537e-08
2.88957e-08
2.68017e-08
3.66395e-08
2.97358e-08
3.47365e-08
6.71854e-08
2.37934e-07
2.52354e-07
2.72368e-07
2.85132e-07
3.15884e-07
6.56669e-08
2.26699e-33
1.60436e-33
6.65883e-08
1.09849e-07
9.84303e-08
8.68625e-08
7.88764e-08
7.59623e-08
7.75445e-08
4.79454e-08
2.79202e-07
3.05477e-07
1.1414e-07
9.62556e-08
4.74086e-08
9.00747e-08
3.6493e-08
3.17753e-08
3.79919e-08
3.26905e-08
4.05269e-08
1.68435e-07
2.30723e-07
2.46017e-07
2.6764e-07
2.78543e-07
3.27785e-07
6.45889e-08
2.23678e-33
1.50099e-33
5.89175e-08
1.0838e-07
9.83827e-08
8.63869e-08
7.88557e-08
7.72926e-08
7.57356e-08
3.76162e-08
2.87839e-07
4.09368e-07
2.24577e-07
1.66464e-07
3.09304e-08
2.5127e-07
3.53329e-08
2.77895e-08
7.2519e-08
6.02407e-08
1.75861e-07
2.23955e-07
2.22972e-07
2.3988e-07
2.63121e-07
2.7283e-07
3.13458e-07
6.37252e-08
2.20891e-33
1.51497e-33
7.01393e-08
1.07303e-07
9.81811e-08
8.58576e-08
7.9012e-08
7.80125e-08
7.2523e-08
2.81121e-08
3.1414e-07
4.21997e-07
3.08918e-07
3.7224e-07
1.43718e-07
3.19675e-07
2.50874e-07
2.36636e-07
3.399e-07
3.11242e-07
2.88025e-07
2.15254e-07
2.16137e-07
2.35146e-07
2.59162e-07
2.66548e-07
3.00653e-07
6.28999e-08
2.21535e-33
1.3186e-33
6.69007e-08
1.07226e-07
9.78869e-08
8.51046e-08
7.90941e-08
7.8271e-08
6.72529e-08
7.92572e-08
3.848e-07
4.37959e-07
3.87121e-07
4.30305e-07
3.58227e-07
3.25471e-07
3.68989e-07
3.78573e-07
3.79954e-07
4.29984e-07
2.83906e-07
2.03429e-07
2.07838e-07
2.31134e-07
2.55572e-07
2.60391e-07
2.87244e-07
6.22233e-08
2.20845e-33
1.36441e-33
1.08205e-07
1.06658e-07
9.74598e-08
8.48631e-08
7.96815e-08
7.92654e-08
6.29302e-08
1.60967e-07
3.3208e-07
4.46377e-07
3.10595e-07
4.46635e-07
3.02208e-07
4.52232e-07
3.05382e-07
3.17433e-07
4.72834e-07
4.22063e-07
2.64073e-07
1.92466e-07
1.98837e-07
2.28242e-07
2.52733e-07
2.51422e-07
2.75768e-07
6.13437e-08
2.25475e-33
1.28571e-33
1.66337e-07
1.08265e-07
9.70332e-08
8.49994e-08
8.16244e-08
7.86147e-08
4.76951e-08
1.66146e-07
3.91754e-07
4.69083e-07
4.3516e-07
4.9595e-07
4.70653e-07
5.14927e-07
4.37832e-07
4.045e-07
4.7992e-07
4.67484e-07
2.26983e-07
1.73854e-07
1.95847e-07
2.27008e-07
2.50014e-07
2.37744e-07
2.6197e-07
6.04254e-08
2.2469e-33
1.3097e-33
1.80907e-07
1.11251e-07
9.66735e-08
8.66976e-08
8.41766e-08
7.43015e-08
3.18042e-08
1.33876e-07
4.03745e-07
5.39819e-07
6.98163e-07
7.77011e-07
8.94403e-07
7.83639e-07
6.36061e-07
5.89129e-07
4.17924e-07
3.20624e-07
1.72142e-07
1.76301e-07
2.01208e-07
2.28606e-07
2.48985e-07
2.14615e-07
2.4708e-07
5.93592e-08
2.29901e-33
1.27137e-33
1.51639e-07
1.13411e-07
9.73829e-08
8.89827e-08
8.64477e-08
7.13736e-08
3.5679e-08
6.42846e-08
1.59522e-07
1.47773e-07
1.44833e-07
1.58344e-07
1.8346e-07
1.60297e-07
1.42699e-07
1.39213e-07
1.67016e-07
1.82291e-07
1.6247e-07
1.83957e-07
2.06806e-07
2.28348e-07
2.44338e-07
1.80984e-07
2.28375e-07
5.87318e-08
2.28036e-33
1.27963e-33
9.99236e-08
1.13627e-07
9.82295e-08
9.03379e-08
8.73339e-08
7.04719e-08
3.62677e-08
8.79072e-08
1.02361e-07
8.91815e-08
7.69636e-08
6.83143e-08
6.78362e-08
7.23825e-08
8.19006e-08
1.03042e-07
1.21575e-07
1.33062e-07
1.52283e-07
1.7653e-07
2.00468e-07
2.22226e-07
2.36403e-07
1.51693e-07
2.07462e-07
5.834e-08
2.33396e-33
1.2042e-33
7.95977e-08
1.11723e-07
9.98994e-08
9.25155e-08
8.81787e-08
6.77061e-08
6.83702e-09
8.31221e-08
1.08746e-07
9.52771e-08
8.63977e-08
7.76144e-08
8.12915e-08
9.66813e-08
9.86867e-08
1.14964e-07
1.28883e-07
1.42307e-07
1.568e-07
1.76022e-07
1.95539e-07
2.13563e-07
2.24096e-07
1.39133e-07
1.90911e-07
5.81672e-08
2.31981e-33
1.10379e-33
6.36142e-08
1.09148e-07
1.00981e-07
9.3685e-08
8.7735e-08
6.21783e-08
7.94099e-09
9.84142e-08
9.91203e-08
8.46744e-08
7.6365e-08
6.84362e-08
6.34142e-08
6.20071e-08
7.70201e-08
9.44476e-08
1.15045e-07
1.27847e-07
1.43967e-07
1.617e-07
1.79448e-07
1.95567e-07
2.02432e-07
1.29152e-07
1.74925e-07
5.78455e-08
2.38846e-33
1.05776e-33
6.55082e-08
1.08129e-07
1.01824e-07
9.35156e-08
8.6431e-08
6.18803e-08
1.63858e-08
9.21223e-08
9.06469e-08
7.86643e-08
7.2805e-08
6.61133e-08
6.26896e-08
8.23416e-08
9.39821e-08
9.22687e-08
1.08169e-07
1.18604e-07
1.29983e-07
1.4272e-07
1.54973e-07
1.66097e-07
1.68462e-07
1.09229e-07
1.45958e-07
5.72598e-08
2.40905e-33
9.92272e-34
7.80445e-08
1.10081e-07
1.02164e-07
9.33551e-08
8.56978e-08
5.89834e-08
1.18321e-08
7.02033e-08
7.45203e-08
6.70332e-08
6.3737e-08
6.0414e-08
5.68384e-08
6.42571e-08
8.40901e-08
7.35541e-08
8.55393e-08
9.27166e-08
9.9463e-08
1.06462e-07
1.13849e-07
1.16658e-07
1.23521e-07
9.15651e-08
9.50977e-08
5.67714e-08
2.41301e-33
9.66857e-34
6.41849e-08
1.14718e-07
1.03354e-07
9.39122e-08
8.03381e-08
3.09199e-08
2.97932e-08
6.82167e-08
6.27404e-08
6.1404e-08
5.94525e-08
5.9254e-08
5.80433e-08
7.5821e-08
9.49703e-08
6.57499e-08
6.89439e-08
7.35978e-08
8.01832e-08
8.65638e-08
6.47037e-08
6.04042e-08
8.82273e-08
6.56032e-08
2.36652e-08
5.76066e-08
2.44991e-33
7.00532e-08
5.6325e-08
5.16391e-08
4.87843e-08
5.0415e-08
5.17273e-08
5.38328e-08
5.51811e-08
5.57958e-08
5.52724e-08
5.41965e-08
5.22676e-08
4.97391e-08
4.60462e-08
4.23546e-08
3.8443e-08
3.62218e-08
3.56217e-08
3.78109e-08
4.34295e-08
5.11946e-08
5.6169e-08
5.09568e-08
4.18878e-08
3.31156e-08
3.38982e-08
3.51674e-08
2.22861e-08
3.0925e-08
4.37158e-08
4.72555e-08
5.09847e-08
5.41281e-08
5.66756e-08
5.81252e-08
5.87438e-08
5.92954e-08
6.06915e-08
6.83483e-08
7.95591e-08
8.19244e-08
8.24004e-08
8.50772e-08
9.06259e-08
1.00106e-07
1.13107e-07
1.29482e-07
1.44755e-07
1.56109e-07
1.61203e-07
1.38028e-07
1.2017e-07
9.28087e-08
6.77468e-08
5.17065e-08
1.17351e-08
2.61156e-08
3.07896e-08
3.04205e-08
3.04459e-08
3.45988e-08
3.68653e-08
3.5904e-08
3.59241e-08
3.79812e-08
4.50094e-08
6.32562e-08
8.87495e-08
8.81539e-08
8.84233e-08
8.87698e-08
8.81294e-08
8.50922e-08
7.86855e-08
7.38508e-08
7.17914e-08
7.46316e-08
7.86458e-08
7.6512e-08
6.83205e-08
6.6861e-08
6.7726e-08
7.44979e-08
7.006e-09
1.62954e-08
2.14524e-08
2.08862e-08
2.31941e-08
2.08868e-08
1.90046e-08
1.90275e-08
2.00762e-08
2.44638e-08
2.90489e-08
3.70052e-08
5.77526e-08
7.53911e-08
6.76407e-08
6.1825e-08