/*--------------------------------*- C++ -*----------------------------------*\
| =========                 |                                                 |
| \\      /  F ield         | OpenFOAM: The Open Source CFD Toolbox           |
|  \\    /   O peration     | Version:  2.3.0                                 |
|   \\  /    A nd           | Web:      www.OpenFOAM.org                      |
|    \\/     M anipulation  |                                                 |
\*---------------------------------------------------------------------------*/
FoamFile
{
    version     2.0;
    format      ascii;
    class       volVectorField;
    location    "43";
    object      U.airMean;
}
// * * * * * * * * * * * * * * * * * * * * * * * * * * * * * * * * * * * * * //

dimensions      [0 1 -1 0 0 0 0];

internalField   nonuniform List<vector> 
1875
(
(0.0695396 0.0440047 0)
(0.144997 0.0479784 0)
(0.232809 0.0636938 0)
(0.280156 0.0827515 0)
(0.298693 0.10316 0)
(0.294338 0.121697 0)
(0.273166 0.135954 0)
(0.240873 0.148692 0)
(0.201709 0.157537 0)
(0.158322 0.163211 0)
(0.111127 0.167861 0)
(0.0626923 0.168661 0)
(0.0143058 0.166835 0)
(-0.03243 0.163037 0)
(-0.0791056 0.158714 0)
(-0.127877 0.15511 0)
(-0.178279 0.148953 0)
(-0.22594 0.140368 0)
(-0.265062 0.130251 0)
(-0.290281 0.116915 0)
(-0.297071 0.10126 0)
(-0.281886 0.0830073 0)
(-0.237439 0.0643882 0)
(-0.150911 0.0462289 0)
(-0.0737137 0.038808 0)
(0.0573612 0.0853705 0)
(0.126992 0.127961 0)
(0.185206 0.193773 0)
(0.212793 0.251514 0)
(0.2186 0.302804 0)
(0.210477 0.34975 0)
(0.192301 0.387729 0)
(0.167272 0.419807 0)
(0.140649 0.448293 0)
(0.112965 0.470196 0)
(0.0841104 0.483226 0)
(0.0554671 0.4894 0)
(0.0253257 0.491027 0)
(-0.00583999 0.487729 0)
(-0.0386853 0.483462 0)
(-0.0733106 0.474501 0)
(-0.108426 0.458954 0)
(-0.143974 0.43455 0)
(-0.175746 0.401712 0)
(-0.198787 0.361623 0)
(-0.20848 0.315687 0)
(-0.203852 0.267676 0)
(-0.178935 0.209658 0)
(-0.125326 0.136978 0)
(-0.0579647 0.0853589 0)
(0.0310456 -0.0886518 0)
(0.0647331 -0.0154344 0)
(0.0836316 0.0642867 0)
(0.0930434 0.135207 0)
(0.0939045 0.199898 0)
(0.0899316 0.258816 0)
(0.083788 0.312565 0)
(0.0758613 0.357731 0)
(0.0685004 0.394816 0)
(0.0604355 0.426365 0)
(0.0504279 0.447751 0)
(0.0383263 0.456262 0)
(0.0242031 0.456951 0)
(0.00933732 0.449272 0)
(-0.005871 0.43747 0)
(-0.019723 0.418093 0)
(-0.0349977 0.389854 0)
(-0.0488068 0.353865 0)
(-0.0624579 0.3085 0)
(-0.0718592 0.256769 0)
(-0.0771576 0.203877 0)
(-0.0794772 0.15308 0)
(-0.0736262 0.0926823 0)
(-0.0623033 0.00660326 0)
(-0.0298688 -0.0807095 0)
(0.0146217 -0.120012 0)
(0.0307778 -0.0211004 0)
(0.0332773 0.0666939 0)
(0.0334432 0.143877 0)
(0.0317639 0.213792 0)
(0.0283997 0.277565 0)
(0.024582 0.333814 0)
(0.0204074 0.381338 0)
(0.0193706 0.42042 0)
(0.020769 0.452951 0)
(0.0235902 0.475692 0)
(0.0264804 0.488489 0)
(0.026823 0.492577 0)
(0.0254718 0.486396 0)
(0.0237009 0.474853 0)
(0.0213366 0.457996 0)
(0.0175083 0.432201 0)
(0.0120654 0.39496 0)
(0.00381772 0.348611 0)
(-0.00699849 0.293425 0)
(-0.0165816 0.233392 0)
(-0.0241012 0.171636 0)
(-0.0269315 0.100342 0)
(-0.0301686 0.00649673 0)
(-0.0142073 -0.109965 0)
(0.00579953 -0.138882 0)
(0.0125731 -0.0370132 0)
(0.00784679 0.052249 0)
(-0.000835926 0.126914 0)
(-0.00944769 0.191319 0)
(-0.0168463 0.252026 0)
(-0.0218344 0.307942 0)
(-0.0245933 0.353221 0)
(-0.0232896 0.389705 0)
(-0.0173799 0.419092 0)
(-0.0074919 0.440246 0)
(0.00336679 0.45637 0)
(0.0133096 0.462286 0)
(0.0231664 0.458451 0)
(0.0327457 0.446083 0)
(0.0417989 0.42791 0)
(0.0490291 0.400202 0)
(0.0524583 0.366295 0)
(0.0496827 0.324476 0)
(0.0410615 0.276189 0)
(0.027779 0.221389 0)
(0.013643 0.165659 0)
(0.000792444 0.0967239 0)
(-0.00905871 0.00122725 0)
(-0.00434708 -0.120525 0)
(0.00261564 -0.128505 0)
(0.00374751 -0.0148846 0)
(-0.00489329 0.0853467 0)
(-0.018084 0.16188 0)
(-0.033339 0.21785 0)
(-0.047259 0.266895 0)
(-0.0549313 0.31144 0)
(-0.058147 0.350495 0)
(-0.0560056 0.379275 0)
(-0.0482113 0.401089 0)
(-0.0361447 0.417658 0)
(-0.0205519 0.431546 0)
(-0.00296025 0.437266 0)
(0.0158748 0.432021 0)
(0.0338999 0.422454 0)
(0.0500269 0.407531 0)
(0.0625934 0.388373 0)
(0.0698332 0.364109 0)
(0.0693806 0.33532 0)
(0.0616316 0.300512 0)
(0.0466332 0.259818 0)
(0.0283873 0.212205 0)
(0.0118601 0.142754 0)
(-0.000713467 0.0377371 0)
(-0.00106226 -0.100368 0)
(-0.00154419 -0.113983 0)
(-0.0035961 9.76424e-05 0)
(-0.0142192 0.106883 0)
(-0.0245008 0.189679 0)
(-0.0412937 0.242691 0)
(-0.0557942 0.282707 0)
(-0.0658751 0.315998 0)
(-0.0707342 0.342614 0)
(-0.0691689 0.360886 0)
(-0.0622987 0.374794 0)
(-0.0509789 0.385122 0)
(-0.0350759 0.391517 0)
(-0.0155371 0.392363 0)
(0.00483596 0.387544 0)
(0.0242493 0.380778 0)
(0.0413429 0.371752 0)
(0.0547144 0.359849 0)
(0.0622308 0.347592 0)
(0.0630043 0.332224 0)
(0.056382 0.312713 0)
(0.0426849 0.284334 0)
(0.0249407 0.245304 0)
(0.0124275 0.170651 0)
(0.00282879 0.059812 0)
(0.00177764 -0.0813355 0)
(-0.00212464 -0.0942244 0)
(-0.00656267 0.0252014 0)
(-0.0158854 0.138183 0)
(-0.0224984 0.229314 0)
(-0.0368494 0.282331 0)
(-0.0506094 0.312072 0)
(-0.0622212 0.332347 0)
(-0.0666964 0.347752 0)
(-0.0662055 0.356314 0)
(-0.0601559 0.360277 0)
(-0.0496899 0.361678 0)
(-0.0361571 0.361241 0)
(-0.0191298 0.359 0)
(-0.00171093 0.355538 0)
(0.0147018 0.352179 0)
(0.0289326 0.348983 0)
(0.0396936 0.346533 0)
(0.0452512 0.344093 0)
(0.0456239 0.341316 0)
(0.0392871 0.337804 0)
(0.0260039 0.326381 0)
(0.0115741 0.289559 0)
(0.00260248 0.206446 0)
(0.000312076 0.0816364 0)
(-0.000720329 -0.0651589 0)
(-0.00268784 -0.0795792 0)
(-0.00549159 0.0413593 0)
(-0.0126837 0.154406 0)
(-0.0135833 0.251677 0)
(-0.0218048 0.310575 0)
(-0.0325829 0.33675 0)
(-0.0429743 0.348588 0)
(-0.0482348 0.350236 0)
(-0.0493265 0.346585 0)
(-0.0458493 0.341839 0)
(-0.0390904 0.337761 0)
(-0.0287377 0.330969 0)
(-0.0158569 0.324824 0)
(-0.00293674 0.32197 0)
(0.00772769 0.32249 0)
(0.0162244 0.325684 0)
(0.0221478 0.33136 0)
(0.024513 0.33978 0)
(0.0219308 0.349148 0)
(0.0147808 0.35738 0)
(0.00433754 0.352191 0)
(-0.00423251 0.313168 0)
(-0.00583457 0.218615 0)
(-0.00416767 0.0879856 0)
(-0.00211387 -0.061355 0)
(-0.000942899 -0.0683545 0)
(-0.000467957 0.0545176 0)
(-0.00428703 0.167156 0)
(-0.00260293 0.267461 0)
(-0.00424693 0.335527 0)
(-0.0112005 0.362915 0)
(-0.0177951 0.367131 0)
(-0.0227482 0.36066 0)
(-0.0255606 0.349514 0)
(-0.0257445 0.337087 0)
(-0.0234166 0.32407 0)
(-0.0184355 0.311308 0)
(-0.0127356 0.303921 0)
(-0.00531594 0.303577 0)
(0.000641681 0.308946 0)
(0.00573642 0.316442 0)
(0.00694544 0.328042 0)
(0.00513068 0.344219 0)
(-0.000506783 0.362034 0)
(-0.00872636 0.375866 0)
(-0.0163746 0.371797 0)
(-0.0202331 0.324593 0)
(-0.014706 0.220998 0)
(-0.0100647 0.0878538 0)
(-0.00333101 -0.0644992 0)
(0.00138665 -0.0686076 0)
(0.00474424 0.0551231 0)
(0.00527145 0.167787 0)
(0.00838471 0.269152 0)
(0.0101482 0.344187 0)
(0.00919421 0.377006 0)
(0.00528291 0.380342 0)
(0.00208675 0.369347 0)
(-0.000574397 0.353125 0)
(-0.00249853 0.335245 0)
(-0.0028339 0.318022 0)
(-0.0038507 0.303348 0)
(-0.00539812 0.290604 0)
(-0.00418482 0.286341 0)
(-0.00267849 0.290753 0)
(-6.46876e-05 0.304738 0)
(-0.00139698 0.324567 0)
(-0.00654828 0.349438 0)
(-0.0150586 0.373743 0)
(-0.0240099 0.390715 0)
(-0.0304346 0.38048 0)
(-0.0291981 0.31944 0)
(-0.0201345 0.207147 0)
(-0.0133427 0.0738331 0)
(-0.00342643 -0.0774501 0)
(0.00318295 -0.0741172 0)
(0.0086328 0.0497026 0)
(0.0113871 0.163309 0)
(0.0164853 0.265056 0)
(0.0203402 0.344144 0)
(0.0228015 0.384374 0)
(0.0217839 0.39133 0)
(0.0196299 0.379101 0)
(0.0182687 0.361596 0)
(0.0166255 0.340655 0)
(0.015092 0.320295 0)
(0.0118401 0.303416 0)
(0.00747843 0.289198 0)
(0.00367947 0.282519 0)
(-0.000873556 0.287982 0)
(-0.00411181 0.303756 0)
(-0.00848046 0.329646 0)
(-0.012905 0.360304 0)
(-0.0218774 0.389368 0)
(-0.0295002 0.403509 0)
(-0.0337644 0.383138 0)
(-0.0289148 0.305802 0)
(-0.0202076 0.190709 0)
(-0.0131504 0.0558952 0)
(-0.0039681 -0.0906029 0)
(0.00403066 -0.0853608 0)
(0.0100575 0.0394804 0)
(0.0140257 0.151481 0)
(0.019382 0.251982 0)
(0.0255072 0.334997 0)
(0.0295356 0.381921 0)
(0.0316851 0.395557 0)
(0.0306999 0.384531 0)
(0.0289293 0.364033 0)
(0.0277257 0.340311 0)
(0.0256982 0.320193 0)
(0.0226752 0.304118 0)
(0.0188406 0.28978 0)
(0.0119085 0.285906 0)
(0.00322689 0.292685 0)
(-0.00357907 0.308675 0)
(-0.00892165 0.334724 0)
(-0.0134061 0.368529 0)
(-0.0202945 0.400994 0)
(-0.026357 0.410432 0)
(-0.0268738 0.377155 0)
(-0.0200346 0.288535 0)
(-0.014217 0.174086 0)
(-0.00960523 0.0411716 0)
(-0.00346868 -0.0997367 0)
(0.00378928 -0.0973511 0)
(0.00989346 0.0292944 0)
(0.0148978 0.139649 0)
(0.0198376 0.237502 0)
(0.0267343 0.320222 0)
(0.0327769 0.373669 0)
(0.0366566 0.392462 0)
(0.0383243 0.388174 0)
(0.0372909 0.368631 0)
(0.0346904 0.345363 0)
(0.0315414 0.323248 0)
(0.0288564 0.304974 0)
(0.0255118 0.294438 0)
(0.0191598 0.297268 0)
(0.0102019 0.305002 0)
(0.00256294 0.320123 0)
(-0.00521182 0.344238 0)
(-0.0113135 0.37837 0)
(-0.0166571 0.411579 0)
(-0.0198513 0.41243 0)
(-0.0172514 0.365462 0)
(-0.0114932 0.274111 0)
(-0.00838056 0.165452 0)
(-0.00673016 0.0371993 0)
(-0.00296942 -0.103002 0)
(0.00326717 -0.10923 0)
(0.00867159 0.0177175 0)
(0.0136671 0.126688 0)
(0.0181067 0.222084 0)
(0.0228746 0.301507 0)
(0.0294078 0.359155 0)
(0.0344381 0.382844 0)
(0.0386271 0.382652 0)
(0.0400458 0.370205 0)
(0.0395641 0.347046 0)
(0.0370524 0.326099 0)
(0.033279 0.307728 0)
(0.0296854 0.297734 0)
(0.025452 0.30354 0)
(0.01818 0.31485 0)
(0.00978649 0.333626 0)
(-0.00040591 0.358699 0)
(-0.00775258 0.390576 0)
(-0.0124295 0.414977 0)
(-0.0121891 0.407261 0)
(-0.00858422 0.354898 0)
(-0.0046435 0.265134 0)
(-0.00454771 0.163075 0)
(-0.004429 0.0371905 0)
(-0.00215952 -0.104338 0)
(0.00225659 -0.117521 0)
(0.00668955 0.00979112 0)
(0.00971323 0.117932 0)
(0.0120343 0.212379 0)
(0.0147307 0.28862 0)
(0.0199586 0.343318 0)
(0.026115 0.37176 0)
(0.0315178 0.374788 0)
(0.0366117 0.36427 0)
(0.0401208 0.346666 0)
(0.0378896 0.330911 0)
(0.0345118 0.31392 0)
(0.0297859 0.305292 0)
(0.0245094 0.313342 0)
(0.0178449 0.330486 0)
(0.00985604 0.351576 0)
(0.00224785 0.374777 0)
(-0.00258949 0.40031 0)
(-0.00587673 0.416593 0)
(-0.00432764 0.399621 0)
(0.000320108 0.344269 0)
(0.00140625 0.263791 0)
(-0.00102293 0.166857 0)
(-0.00172848 0.0402791 0)
(-0.000863007 -0.101907 0)
(0.00114731 -0.121113 0)
(0.00401985 0.00637823 0)
(0.00588719 0.115366 0)
(0.00631628 0.20692 0)
(0.00771528 0.278386 0)
(0.0106358 0.329789 0)
(0.0169633 0.357457 0)
(0.0229163 0.361308 0)
(0.0289799 0.352211 0)
(0.0330316 0.342389 0)
(0.0328456 0.331952 0)
(0.0300175 0.318597 0)
(0.0257648 0.313674 0)
(0.0194962 0.322952 0)
(0.013948 0.340365 0)
(0.00849472 0.361901 0)
(0.00362857 0.382895 0)
(0.000836306 0.405304 0)
(0.000612741 0.414325 0)
(0.00378104 0.390999 0)
(0.00604774 0.340486 0)
(0.00505077 0.269038 0)
(0.00318932 0.171997 0)
(0.000643233 0.0456101 0)
(-0.000106786 -0.0968024 0)
(0.00087697 -0.121923 0)
(0.00299174 0.00609846 0)
(0.0046276 0.117232 0)
(0.00525709 0.206539 0)
(0.00592175 0.274341 0)
(0.00797186 0.320201 0)
(0.0133001 0.345154 0)
(0.0180418 0.351836 0)
(0.0217134 0.346349 0)
(0.0226938 0.33814 0)
(0.0231986 0.32977 0)
(0.0202393 0.319966 0)
(0.0171172 0.317946 0)
(0.0121778 0.331103 0)
(0.00698035 0.350158 0)
(0.00218112 0.371851 0)
(-0.000998259 0.39061 0)
(-0.00148752 0.405399 0)
(0.0021776 0.408037 0)
(0.00572488 0.386756 0)
(0.00736484 0.340762 0)
(0.00650068 0.273378 0)
(0.00574506 0.178525 0)
(0.00133755 0.0548347 0)
(-6.23739e-05 -0.0885755 0)
(0.00158851 -0.123259 0)
(0.00378612 0.00450827 0)
(0.00514021 0.116296 0)
(0.00769804 0.206167 0)
(0.0099472 0.269888 0)
(0.0127142 0.312023 0)
(0.0159638 0.336302 0)
(0.0183076 0.344857 0)
(0.0185907 0.341761 0)
(0.0166617 0.334142 0)
(0.0142091 0.326161 0)
(0.00881824 0.319737 0)
(0.0027652 0.319868 0)
(-0.00252879 0.335641 0)
(-0.00623801 0.357046 0)
(-0.0096078 0.375721 0)
(-0.00982635 0.392778 0)
(-0.00690183 0.402048 0)
(-0.00216394 0.400967 0)
(0.00245433 0.382764 0)
(0.0058287 0.341113 0)
(0.00573388 0.278382 0)
(0.00529632 0.185272 0)
(0.000419686 0.065193 0)
(-0.000653541 -0.0812368 0)
(0.00181002 -0.125248 0)
(0.00359229 0.00306493 0)
(0.00471529 0.113243 0)
(0.00750429 0.200584 0)
(0.0111917 0.264246 0)
(0.0149909 0.306215 0)
(0.0175538 0.331025 0)
(0.0188868 0.341607 0)
(0.0181039 0.342221 0)
(0.0139303 0.336412 0)
(0.00765183 0.332152 0)
(-0.00129622 0.328741 0)
(-0.01083 0.328963 0)
(-0.0179161 0.340349 0)
(-0.020198 0.358521 0)
(-0.0207986 0.374278 0)
(-0.0183688 0.386097 0)
(-0.0130121 0.393279 0)
(-0.00878583 0.394756 0)
(-0.00295993 0.37547 0)
(0.00127928 0.337632 0)
(0.00280227 0.279111 0)
(0.00222579 0.191445 0)
(-0.00151804 0.0737301 0)
(-0.00112068 -0.0767496 0)
(0.00160145 -0.125653 0)
(0.00231488 0.00270147 0)
(0.00261398 0.1109 0)
(0.00408072 0.19478 0)
(0.00686325 0.256323 0)
(0.0104134 0.297405 0)
(0.0139214 0.32456 0)
(0.0145213 0.33839 0)
(0.0135686 0.343781 0)
(0.00912696 0.344661 0)
(0.00243348 0.344124 0)
(-0.00538919 0.342222 0)
(-0.0135425 0.339335 0)
(-0.020917 0.344188 0)
(-0.0243745 0.355612 0)
(-0.0239785 0.367656 0)
(-0.0207004 0.375737 0)
(-0.016471 0.384217 0)
(-0.0115085 0.384178 0)
(-0.00562009 0.366921 0)
(-0.00208752 0.332625 0)
(-0.000984 0.279102 0)
(-0.00148255 0.196484 0)
(-0.00320875 0.0784849 0)
(-0.00186464 -0.0746298 0)
(0.00103287 -0.123651 0)
(0.000889921 0.00525902 0)
(-0.000723466 0.110144 0)
(6.92139e-05 0.191221 0)
(0.00112757 0.249441 0)
(0.0036291 0.289186 0)
(0.00507394 0.319976 0)
(0.00503181 0.337716 0)
(0.00376075 0.347851 0)
(0.00200696 0.351797 0)
(-0.000436289 0.352787 0)
(-0.00451088 0.351455 0)
(-0.00914526 0.347921 0)
(-0.0142732 0.350491 0)
(-0.0182511 0.355941 0)
(-0.0184381 0.361508 0)
(-0.016994 0.367339 0)
(-0.0144225 0.374459 0)
(-0.0096438 0.372961 0)
(-0.00437203 0.358218 0)
(-0.00231085 0.329219 0)
(-0.00232073 0.278312 0)
(-0.00262566 0.197523 0)
(-0.0035228 0.0803397 0)
(-0.00161367 -0.0737456 0)
(-0.000214988 -0.117494 0)
(-0.00153049 0.0127804 0)
(-0.00458103 0.113672 0)
(-0.00508403 0.191707 0)
(-0.0047219 0.248314 0)
(-0.00342188 0.288528 0)
(-0.00296313 0.32066 0)
(-0.00261384 0.340428 0)
(-0.00188201 0.349998 0)
(-0.000403387 0.354028 0)
(0.000241526 0.356858 0)
(-0.00117844 0.355746 0)
(-0.003551 0.350556 0)
(-0.00658407 0.351665 0)
(-0.00888374 0.354676 0)
(-0.0100281 0.35869 0)
(-0.010432 0.363248 0)
(-0.0087596 0.366749 0)
(-0.0047736 0.363837 0)
(-0.00121147 0.350665 0)
(0.00025332 0.326876 0)
(-0.0010899 0.279341 0)
(-0.000793014 0.197624 0)
(-0.00189651 0.0832358 0)
(-0.000341125 -0.0716848 0)
(-0.000754855 -0.109885 0)
(-0.00237199 0.0219075 0)
(-0.00580107 0.121348 0)
(-0.00726215 0.194204 0)
(-0.00669933 0.246789 0)
(-0.00497921 0.286878 0)
(-0.00340377 0.31796 0)
(-0.00105987 0.336729 0)
(0.0019701 0.347697 0)
(0.00422421 0.353407 0)
(0.00543757 0.358086 0)
(0.00418886 0.357792 0)
(0.00263927 0.353423 0)
(9.72773e-05 0.353002 0)
(-0.00205988 0.354372 0)
(-0.00374666 0.357751 0)
(-0.00450596 0.36093 0)
(-0.00455915 0.361422 0)
(-0.00261168 0.357411 0)
(-0.000918657 0.345874 0)
(5.77603e-05 0.324779 0)
(-5.13713e-05 0.278291 0)
(0.00158824 0.197579 0)
(-0.000412432 0.0869748 0)
(0.00062458 -0.0669848 0)
(-0.000465341 -0.103182 0)
(-0.0017964 0.0301251 0)
(-0.0034393 0.13062 0)
(-0.00489004 0.199417 0)
(-0.00433065 0.247627 0)
(-0.00278485 0.286252 0)
(-0.000306791 0.314505 0)
(0.0031038 0.333375 0)
(0.00596576 0.344716 0)
(0.0074507 0.353082 0)
(0.00857143 0.359456 0)
(0.00846713 0.359377 0)
(0.00834808 0.353699 0)
(0.00659029 0.353768 0)
(0.00430001 0.355089 0)
(0.000886096 0.357195 0)
(-0.00176659 0.359514 0)
(-0.00366099 0.358864 0)
(-0.00345186 0.353897 0)
(-0.00304522 0.342049 0)
(-0.00159412 0.321131 0)
(-0.000293372 0.276007 0)
(0.00236032 0.199211 0)
(0.000316168 0.092434 0)
(0.00112565 -0.0609871 0)
(8.0751e-05 -0.0994435 0)
(-2.53467e-05 0.0335632 0)
(5.50055e-05 0.133857 0)
(0.00065472 0.202967 0)
(0.00111652 0.248796 0)
(0.0021789 0.285025 0)
(0.00456251 0.310247 0)
(0.00745363 0.329122 0)
(0.00947104 0.343491 0)
(0.0101624 0.352304 0)
(0.0118897 0.356725 0)
(0.0131763 0.356217 0)
(0.0139688 0.352378 0)
(0.0126749 0.354798 0)
(0.0101323 0.358776 0)
(0.0050101 0.361965 0)
(7.42867e-05 0.361939 0)
(-0.00308411 0.357897 0)
(-0.00471226 0.350948 0)
(-0.00473912 0.340064 0)
(-0.00378041 0.317902 0)
(-0.00126335 0.273263 0)
(0.0010598 0.200211 0)
(0.000145489 0.0961452 0)
(0.00113624 -0.0551558 0)
(0.000572711 -0.0984593 0)
(0.00170856 0.0340665 0)
(0.00230937 0.133786 0)
(0.00441951 0.203666 0)
(0.00597732 0.250812 0)
(0.00724905 0.285042 0)
(0.00952312 0.308337 0)
(0.0116729 0.326105 0)
(0.0134532 0.340347 0)
(0.0144844 0.348527 0)
(0.0155383 0.352178 0)
(0.0162805 0.352462 0)
(0.0164703 0.350623 0)
(0.0145949 0.355498 0)
(0.0111533 0.362219 0)
(0.00633362 0.367398 0)
(0.00144031 0.366036 0)
(-0.00287117 0.361325 0)
(-0.00647974 0.352657 0)
(-0.00669867 0.339548 0)
(-0.00592762 0.31777 0)
(-0.0030611 0.271079 0)
(-0.00103692 0.2031 0)
(-0.000737375 0.0990018 0)
(0.00100117 -0.0498283 0)
(0.000826903 -0.0989775 0)
(0.00211469 0.0327736 0)
(0.00277579 0.131317 0)
(0.00539977 0.199251 0)
(0.00828213 0.247456 0)
(0.0107885 0.282127 0)
(0.0132891 0.305193 0)
(0.0153206 0.32276 0)
(0.0170359 0.337731 0)
(0.0178989 0.345943 0)
(0.0186368 0.34969 0)
(0.0183767 0.350351 0)
(0.0166118 0.350359 0)
(0.012588 0.35745 0)
(0.00692028 0.366214 0)
(0.00198857 0.372159 0)
(-0.003031 0.372473 0)
(-0.00746453 0.367854 0)
(-0.010827 0.357063 0)
(-0.0123452 0.341213 0)
(-0.0109373 0.315608 0)
(-0.00708979 0.268666 0)
(-0.00440724 0.202329 0)
(-0.00148075 0.0982162 0)
(0.000464779 -0.0464297 0)
(0.000671147 -0.0988944 0)
(0.00175118 0.0319193 0)
(0.0017957 0.127893 0)
(0.00454395 0.193385 0)
(0.00729205 0.241557 0)
(0.0105492 0.276283 0)
(0.0133145 0.301072 0)
(0.0154328 0.319171 0)
(0.0172261 0.33377 0)
(0.0190846 0.342265 0)
(0.0191537 0.347749 0)
(0.0178358 0.350702 0)
(0.0139379 0.354864 0)
(0.00754378 0.36537 0)
(-4.99793e-05 0.374193 0)
(-0.00584544 0.378645 0)
(-0.0109378 0.379135 0)
(-0.0144355 0.374007 0)
(-0.0171305 0.362881 0)
(-0.0185759 0.343283 0)
(-0.0162791 0.31197 0)
(-0.0117809 0.263673 0)
(-0.00742722 0.197312 0)
(-0.00249199 0.0942832 0)
(-0.000263672 -0.0447732 0)
(0.000379458 -0.0975958 0)
(0.00113535 0.0324357 0)
(0.000425294 0.124959 0)
(0.00289523 0.187974 0)
(0.00513444 0.235071 0)
(0.00805916 0.269074 0)
(0.0114107 0.295046 0)
(0.0138223 0.313948 0)
(0.0159813 0.328525 0)
(0.0170684 0.338785 0)
(0.0161399 0.346813 0)
(0.0132131 0.353039 0)
(0.00761545 0.361811 0)
(0.000705854 0.374583 0)
(-0.00695778 0.384449 0)
(-0.0137852 0.387988 0)
(-0.0187063 0.38549 0)
(-0.0214786 0.378276 0)
(-0.022698 0.365047 0)
(-0.0221982 0.341648 0)
(-0.0193642 0.305775 0)
(-0.0150397 0.254971 0)
(-0.00936309 0.187914 0)
(-0.00365222 0.0890198 0)
(-0.00072743 -0.045105 0)
(8.94386e-05 -0.0950407 0)
(0.000745967 0.0344239 0)
(-0.00102234 0.123168 0)
(0.000310946 0.183152 0)
(0.00209506 0.230233 0)
(0.00426632 0.26279 0)
(0.00730071 0.288765 0)
(0.00947708 0.308734 0)
(0.011349 0.325616 0)
(0.0109085 0.339269 0)
(0.00911151 0.349991 0)
(0.00526583 0.359697 0)
(-0.000444186 0.370249 0)
(-0.00746384 0.384554 0)
(-0.0144905 0.394399 0)
(-0.0198692 0.395918 0)
(-0.0235104 0.391567 0)
(-0.025791 0.381273 0)
(-0.0253565 0.364026 0)
(-0.0230098 0.336626 0)
(-0.0195864 0.298822 0)
(-0.0155519 0.247078 0)
(-0.00985948 0.178483 0)
(-0.004219 0.0841332 0)
(-0.00106258 -0.0467274 0)
(-0.000180022 -0.0910623 0)
(8.18014e-05 0.0381419 0)
(-0.00218705 0.124894 0)
(-0.00288431 0.180784 0)
(-0.00219402 0.225606 0)
(-0.000972851 0.256805 0)
(0.000398026 0.28282 0)
(0.00154842 0.304026 0)
(0.00241098 0.322499 0)
(0.0018674 0.338352 0)
(0.000233306 0.352511 0)
(-0.00309487 0.365472 0)
(-0.00741791 0.378656 0)
(-0.0128733 0.393991 0)
(-0.018029 0.402215 0)
(-0.0220396 0.401444 0)
(-0.0246646 0.394434 0)
(-0.0257634 0.380392 0)
(-0.0244714 0.358616 0)
(-0.0215903 0.329836 0)
(-0.018167 0.290755 0)
(-0.0139784 0.237781 0)
(-0.00902428 0.171178 0)
(-0.00395543 0.0796216 0)
(-0.00141922 -0.0485728 0)
(-0.000683141 -0.0852079 0)
(-0.00144598 0.0436236 0)
(-0.00382353 0.129685 0)
(-0.00580769 0.183521 0)
(-0.00702973 0.224904 0)
(-0.0072933 0.256298 0)
(-0.0076169 0.28204 0)
(-0.00797918 0.30256 0)
(-0.00839164 0.321786 0)
(-0.00856036 0.33891 0)
(-0.0087197 0.3549 0)
(-0.010132 0.37001 0)
(-0.0125967 0.383931 0)
(-0.0157675 0.399538 0)
(-0.0188219 0.40602 0)
(-0.0204755 0.403459 0)
(-0.0212078 0.394354 0)
(-0.0209094 0.378147 0)
(-0.0197559 0.353448 0)
(-0.0174608 0.321807 0)
(-0.0145426 0.283137 0)
(-0.0111017 0.23065 0)
(-0.0074882 0.16565 0)
(-0.00367076 0.0764167 0)
(-0.00162514 -0.0503415 0)
(-0.000760586 -0.0788189 0)
(-0.00226108 0.0498076 0)
(-0.00504784 0.135219 0)
(-0.00712656 0.188748 0)
(-0.0091048 0.228251 0)
(-0.0100283 0.257585 0)
(-0.0109493 0.281962 0)
(-0.0125661 0.302644 0)
(-0.0141032 0.320188 0)
(-0.0149157 0.33602 0)
(-0.0150246 0.353196 0)
(-0.0156853 0.370203 0)
(-0.0162904 0.385631 0)
(-0.0170621 0.401017 0)
(-0.0175435 0.406238 0)
(-0.017122 0.401599 0)
(-0.0161785 0.390594 0)
(-0.0147227 0.373462 0)
(-0.0133247 0.348245 0)
(-0.0114353 0.315998 0)
(-0.00983817 0.27698 0)
(-0.00723614 0.226907 0)
(-0.00550984 0.163623 0)
(-0.00304227 0.0749844 0)
(-0.00152932 -0.0517686 0)
(-0.000801798 -0.0714821 0)
(-0.00267737 0.0577074 0)
(-0.00579533 0.142455 0)
(-0.00805925 0.194846 0)
(-0.00979192 0.232447 0)
(-0.0103688 0.260917 0)
(-0.0110527 0.286257 0)
(-0.0128171 0.308222 0)
(-0.0147523 0.325549 0)
(-0.0168773 0.339134 0)
(-0.0181164 0.353417 0)
(-0.018374 0.368878 0)
(-0.0178361 0.382515 0)
(-0.0169303 0.397673 0)
(-0.0155709 0.400761 0)
(-0.0133571 0.395667 0)
(-0.0118956 0.384852 0)
(-0.00948984 0.366918 0)
(-0.00800355 0.341557 0)
(-0.00573693 0.309715 0)
(-0.00527491 0.273738 0)
(-0.00375759 0.224886 0)
(-0.00345599 0.16286 0)
(-0.00231243 0.0733299 0)
(-0.00107988 -0.0529129 0)
(-0.000578708 -0.0641113 0)
(-0.00244582 0.0656283 0)
(-0.00482392 0.149054 0)
(-0.0066284 0.200938 0)
(-0.00864173 0.236413 0)
(-0.00876021 0.263601 0)
(-0.00876223 0.289173 0)
(-0.0092497 0.310703 0)
(-0.0097258 0.327323 0)
(-0.0117905 0.340684 0)
(-0.0141877 0.353655 0)
(-0.0160064 0.367055 0)
(-0.0157636 0.378571 0)
(-0.0138192 0.392883 0)
(-0.0113399 0.395026 0)
(-0.00820467 0.389652 0)
(-0.00585248 0.378739 0)
(-0.0033638 0.360515 0)
(-0.00205283 0.336605 0)
(-0.000748864 0.306852 0)
(-0.000639605 0.272417 0)
(8.27482e-06 0.224948 0)
(-0.000216912 0.163879 0)
(-0.000534001 0.0737049 0)
(-0.000291006 -0.0513565 0)
(0.00012619 -0.0583859 0)
(-0.0015328 0.0716536 0)
(-0.00275345 0.153959 0)
(-0.00331494 0.206609 0)
(-0.00559678 0.241104 0)
(-0.00621037 0.265811 0)
(-0.00631876 0.290549 0)
(-0.00591649 0.311849 0)
(-0.00610477 0.330497 0)
(-0.00827435 0.345414 0)
(-0.0114748 0.357543 0)
(-0.0145822 0.367181 0)
(-0.0150036 0.373084 0)
(-0.0127113 0.384174 0)
(-0.00932156 0.385536 0)
(-0.00586833 0.380187 0)
(-0.00258934 0.371003 0)
(-0.000214654 0.354784 0)
(0.00119074 0.332745 0)
(0.00241273 0.304579 0)
(0.00261559 0.272296 0)
(0.00289505 0.225951 0)
(0.00340219 0.165417 0)
(0.00154429 0.076946 0)
(0.000752293 -0.0469745 0)
(0.000574786 -0.0538111 0)
(-0.000777284 0.0770244 0)
(-0.00200002 0.156076 0)
(-0.000924763 0.211032 0)
(-0.00324584 0.246391 0)
(-0.00500063 0.270074 0)
(-0.00676168 0.292546 0)
(-0.00714802 0.312341 0)
(-0.00750265 0.331406 0)
(-0.00880629 0.348678 0)
(-0.010799 0.360913 0)
(-0.0128025 0.368153 0)
(-0.0129171 0.369318 0)
(-0.011266 0.377239 0)
(-0.00889137 0.378402 0)
(-0.00672189 0.372739 0)
(-0.00399273 0.363261 0)
(-0.00126383 0.348283 0)
(0.000746678 0.328117 0)
(0.00218732 0.302179 0)
(0.00304269 0.271976 0)
(0.00341747 0.22632 0)
(0.00510798 0.167029 0)
(0.00252877 0.0823393 0)
(0.00145255 -0.0401477 0)
(0.000413348 -0.0503903 0)
(-0.000154467 0.0815639 0)
(-0.00215868 0.156457 0)
(-0.000441606 0.212991 0)
(-0.00201192 0.251807 0)
(-0.0035998 0.275509 0)
(-0.00590684 0.296364 0)
(-0.0073554 0.313648 0)
(-0.00884574 0.332403 0)
(-0.00995019 0.348332 0)
(-0.0103295 0.359476 0)
(-0.0114205 0.365298 0)
(-0.0117505 0.364271 0)
(-0.0107709 0.370672 0)
(-0.00831411 0.371984 0)
(-0.00668774 0.366677 0)
(-0.0049111 0.35672 0)
(-0.00282166 0.342776 0)
(-0.000753817 0.324215 0)
(0.000728915 0.30049 0)
(0.00216385 0.271186 0)
(0.00373641 0.225525 0)
(0.00579305 0.167678 0)
(0.00276808 0.0877738 0)
(0.00172327 -0.0328875 0)
(-0.000213877 -0.0462978 0)
(-0.000420997 0.0861948 0)
(-0.00327241 0.158487 0)
(-0.00213043 0.213084 0)
(-0.00188225 0.253704 0)
(-0.00319249 0.278034 0)
(-0.00451281 0.299935 0)
(-0.00664543 0.317624 0)
(-0.00837878 0.335078 0)
(-0.0093304 0.348666 0)
(-0.00945151 0.358679 0)
(-0.0107155 0.364292 0)
(-0.0116147 0.360619 0)
(-0.0117157 0.363464 0)
(-0.0104365 0.363985 0)
(-0.0089429 0.361809 0)
(-0.00767083 0.352265 0)
(-0.00605027 0.337971 0)
(-0.00382487 0.320224 0)
(-0.00155813 0.296602 0)
(0.00171925 0.266929 0)
(0.00444329 0.220947 0)
(0.00572343 0.168456 0)
(0.00253559 0.0929911 0)
(0.00162113 -0.0258048 0)
(-0.000698092 -0.0410542 0)
(-0.00131228 0.0911618 0)
(-0.00494225 0.161479 0)
(-0.00497563 0.211433 0)
(-0.00393154 0.25473 0)
(-0.00485569 0.280571 0)
(-0.00601159 0.303247 0)
(-0.00790963 0.320428 0)
(-0.00888518 0.33591 0)
(-0.00957038 0.347477 0)
(-0.00996196 0.357068 0)
(-0.0110654 0.361691 0)
(-0.0116366 0.35701 0)
(-0.0126614 0.360175 0)
(-0.0132362 0.35984 0)
(-0.0125394 0.356689 0)
(-0.0107743 0.348208 0)
(-0.00864392 0.334553 0)
(-0.00621412 0.316334 0)
(-0.00241388 0.290076 0)
(0.00285223 0.26014 0)
(0.00516862 0.218639 0)
(0.00571066 0.17141 0)
(0.00255503 0.0990194 0)
(0.00155375 -0.0189525 0)
(-0.00121686 -0.0348939 0)
(-0.00187457 0.0973321 0)
(-0.00679116 0.166259 0)
(-0.0083792 0.212377 0)
(-0.00855572 0.254645 0)
(-0.00883327 0.282516 0)
(-0.00969847 0.306006 0)
(-0.010451 0.322337 0)
(-0.0111488 0.335972 0)
(-0.0115314 0.347228 0)
(-0.0127407 0.356352 0)
(-0.0138456 0.360646 0)
(-0.0144779 0.355784 0)
(-0.0162259 0.35921 0)
(-0.017176 0.357843 0)
(-0.0168835 0.35253 0)
(-0.0149256 0.342167 0)
(-0.012208 0.327571 0)
(-0.00836533 0.30824 0)
(-0.00365061 0.279416 0)
(0.0013295 0.252606 0)
(0.00243121 0.217128 0)
(0.00373956 0.172819 0)
(0.00160913 0.104346 0)
(0.00124393 -0.0128685 0)
(-0.00191608 -0.0261074 0)
(-0.00272183 0.106258 0)
(-0.00853821 0.173842 0)
(-0.0109889 0.217428 0)
(-0.0133095 0.25703 0)
(-0.013241 0.283344 0)
(-0.0138661 0.307049 0)
(-0.014366 0.322818 0)
(-0.0149256 0.336759 0)
(-0.0155724 0.348317 0)
(-0.0169845 0.357452 0)
(-0.0174904 0.35951 0)
(-0.0187393 0.356201 0)
(-0.0204285 0.35948 0)
(-0.0212533 0.355885 0)
(-0.0200916 0.348109 0)
(-0.0172865 0.335877 0)
(-0.0138655 0.319283 0)
(-0.00957483 0.298611 0)
(-0.0055923 0.270512 0)
(-0.00266634 0.248417 0)
(-0.00190934 0.215561 0)
(0.000243277 0.172732 0)
(-0.000449899 0.106671 0)
(0.000586549 -0.00962275 0)
(-0.00230067 -0.0169303 0)
(-0.00322413 0.114654 0)
(-0.0080483 0.182389 0)
(-0.0107669 0.224411 0)
(-0.0136689 0.26103 0)
(-0.0137362 0.285279 0)
(-0.0140676 0.309873 0)
(-0.0149633 0.325117 0)
(-0.0158346 0.33816 0)
(-0.0169892 0.34965 0)
(-0.0175481 0.358081 0)
(-0.0175315 0.360599 0)
(-0.019443 0.357501 0)
(-0.0208943 0.359332 0)
(-0.0211888 0.352245 0)
(-0.019045 0.341317 0)
(-0.0157771 0.3267 0)
(-0.0119142 0.308884 0)
(-0.00791477 0.289999 0)
(-0.00552292 0.264566 0)
(-0.00408943 0.245518 0)
(-0.00314518 0.212935 0)
(-0.00147282 0.172468 0)
(-0.00127135 0.108353 0)
(0.000336653 -0.00751978 0)
(-0.00207372 -0.00829169 0)
(-0.0028982 0.120682 0)
(-0.00620305 0.188733 0)
(-0.00804615 0.230691 0)
(-0.0101348 0.26416 0)
(-0.00980169 0.285579 0)
(-0.00930056 0.310557 0)
(-0.00928856 0.326732 0)
(-0.00996948 0.34103 0)
(-0.0112493 0.351985 0)
(-0.0113697 0.358303 0)
(-0.0116473 0.361681 0)
(-0.0125256 0.359602 0)
(-0.0141723 0.359052 0)
(-0.0146187 0.347109 0)
(-0.0136865 0.333614 0)
(-0.0114596 0.317851 0)
(-0.0087205 0.299762 0)
(-0.00535319 0.282993 0)
(-0.0039094 0.260586 0)
(-0.00271642 0.242927 0)
(-0.00230656 0.211818 0)
(-0.00226815 0.173015 0)
(-0.00147471 0.108392 0)
(0.000132111 -0.00579094 0)
(-0.00161504 -0.000873409 0)
(-0.00209809 0.126244 0)
(-0.00464991 0.192642 0)
(-0.00467611 0.234557 0)
(-0.00509088 0.265771 0)
(-0.00415903 0.284723 0)
(-0.00329147 0.3094 0)
(-0.00310008 0.326334 0)
(-0.00387783 0.341645 0)
(-0.0046014 0.352409 0)
(-0.00474816 0.358612 0)
(-0.00517473 0.361701 0)
(-0.00530832 0.359605 0)
(-0.00566129 0.359907 0)
(-0.00661822 0.346899 0)
(-0.0075032 0.33111 0)
(-0.00710788 0.313338 0)
(-0.00527188 0.293719 0)
(-0.0032601 0.277923 0)
(-0.00207041 0.257159 0)
(-0.000945117 0.241286 0)
(-0.00163254 0.214304 0)
(-0.00177763 0.174599 0)
(-0.00135496 0.108307 0)
(-0.000234533 -0.00455093 0)
(-0.00125799 0.00469744 0)
(-0.000861703 0.129358 0)
(-0.00238447 0.193467 0)
(-0.00120247 0.233036 0)
(0.000336775 0.264312 0)
(0.00133525 0.282283 0)
(0.0016107 0.307857 0)
(0.00125518 0.326448 0)
(-0.000141044 0.342629 0)
(-0.000626313 0.35193 0)
(-0.00074997 0.35782 0)
(-0.000434458 0.361014 0)
(-6.34588e-05 0.356893 0)
(0.000680348 0.358134 0)
(0.000569402 0.347295 0)
(-0.000665521 0.331203 0)
(-0.000773897 0.310848 0)
(-0.000280286 0.290498 0)
(0.000294441 0.274639 0)
(7.47836e-05 0.254988 0)
(-0.000218427 0.241863 0)
(-0.00139189 0.215833 0)
(-0.000716686 0.174674 0)
(-0.000803692 0.108337 0)
(-0.000508818 -0.00326595 0)
(-0.00124149 0.00888383 0)
(-2.38023e-06 0.130607 0)
(-0.000899806 0.192152 0)
(0.000868867 0.229985 0)
(0.00234364 0.261908 0)
(0.00281238 0.282114 0)
(0.00223866 0.308793 0)
(0.0016612 0.327073 0)
(0.00176665 0.341963 0)
(0.00276255 0.350898 0)
(0.00379895 0.355558 0)
(0.00508032 0.357926 0)
(0.00603662 0.354655 0)
(0.00745597 0.355054 0)
(0.00842632 0.345801 0)
(0.00765747 0.330325 0)
(0.00711739 0.310362 0)
(0.00598384 0.289977 0)
(0.00480467 0.275642 0)
(0.00249692 0.257417 0)
(0.00119513 0.244151 0)
(0.000114717 0.216803 0)
(0.00133783 0.174353 0)
(6.69782e-05 0.110121 0)
(-0.000277449 -0.000724832 0)
(-0.00123763 0.013575 0)