/*--------------------------------*- C++ -*----------------------------------*\
| =========                 |                                                 |
| \\      /  F ield         | OpenFOAM: The Open Source CFD Toolbox           |
|  \\    /   O peration     | Version:  2.3.0                                 |
|   \\  /    A nd           | Web:      www.OpenFOAM.org                      |
|    \\/     M anipulation  |                                                 |
\*---------------------------------------------------------------------------*/
FoamFile
{
    version     2.0;
    format      ascii;
    class       volScalarField;
    location    "0.97";
    object      Theta.particles;
}
// * * * * * * * * * * * * * * * * * * * * * * * * * * * * * * * * * * * * * //

dimensions      [0 2 -2 0 0 0 0];

internalField   nonuniform List<scalar> 
6000
(
0.00120892
0.000588649
0.000454981
0.000433694
0.000429349
0.000632883
0.00164351
0.00272717
0.00126056
0.000383489
0.000347799
0.000560181
0.00098382
0.00033354
0.000263729
0.000294984
0.000287343
0.000620378
0.000796227
0.000669593
0.000540584
0.000506522
0.000470959
0.000208366
9.96506e-05
8.86351e-05
0.000137551
0.000439132
0.000275923
0.000134266
3.71702e-05
2.32929e-05
1.23506e-05
8.19969e-06
7.07369e-06
1.55283e-05
3.75633e-05
4.49915e-05
7.96452e-05
6.7373e-05
5.13334e-05
4.14297e-05
2.0686e-05
8.63275e-06
4.96282e-06
1.98677e-06
6.23878e-06
1.72738e-05
3.09461e-05
2.36484e-05
2.06082e-05
1.7128e-05
2.58093e-05
5.71323e-05
8.41436e-05
0.000139371
0.000108092
7.48936e-05
2.78734e-05
4.48935e-06
5.46862e-05
1.64196e-05
2.18045e-06
8.69664e-07
1.99376e-06
5.86603e-06
1.97008e-06
1.20381e-05
3.38664e-05
9.25535e-05
4.48944e-05
4.00381e-06
4.93725e-06
7.06318e-06
2.46861e-06
2.61317e-06
2.31766e-06
1.32242e-06
2.36044e-06
2.64658e-05
3.94244e-05
1.32454e-05
5.45614e-06
0.000226359
0.000365916
0.000288814
4.28428e-05
5.2282e-06
1.22896e-05
1.84075e-05
3.26578e-05
4.83878e-06
3.3826e-06
2.24169e-06
1.8746e-06
2.26813e-06
4.10574e-06
3.0219e-06
2.15819e-05
7.23277e-05
2.51967e-05
5.7611e-06
5.39589e-06
5.5041e-06
8.43048e-07
4.22744e-06
7.12158e-06
6.05818e-06
3.38572e-06
1.16752e-05
1.7657e-05
1.231e-05
2.78818e-05
6.68551e-05
0.000329352
0.000268779
5.22114e-06
4.30796e-06
1.02205e-05
3.85438e-06
2.85428e-05
6.13078e-06
2.62675e-06
2.25112e-06
1.80796e-06
1.26825e-06
5.91279e-06
7.04458e-06
1.07483e-05
5.30308e-05
2.53573e-05
4.25797e-06
6.51618e-06
7.70853e-06
8.77052e-07
8.25048e-06
2.14102e-05
4.04582e-06
7.12794e-06
2.2342e-05
5.58895e-05
0.000144195
0.000125859
6.57206e-06
0.000146235
0.000248903
8.37434e-06
9.00665e-06
2.6968e-05
1.94358e-05
4.52473e-05
8.48697e-06
5.49021e-06
6.09684e-06
4.31603e-06
1.08081e-06
5.28624e-06
1.37979e-05
8.63398e-06
2.23002e-05
1.74003e-05
2.85068e-06
6.98034e-06
1.37692e-05
1.26e-06
5.43492e-06
2.95939e-05
9.85655e-06
5.28116e-05
0.000128351
0.000147747
0.000221851
0.000177938
4.86849e-05
4.46544e-05
0.000265316
9.62966e-05
0.000106078
0.000124762
7.1153e-05
8.17824e-05
1.27268e-05
1.43899e-05
1.6828e-05
7.96055e-06
3.15498e-07
5.01418e-06
1.03768e-05
5.81647e-06
4.99936e-06
8.31274e-06
1.29865e-06
1.04448e-05
2.7201e-05
4.33046e-06
9.91458e-06
3.06423e-05
0.000150052
0.000348822
0.000336297
0.000302661
0.00021699
8.10152e-05
0.000107738
0.00010944
0.000419357
0.000404139
0.000415944
0.000229958
0.000139618
0.000142406
2.07828e-05
3.08811e-05
3.47456e-05
1.92305e-05
1.48639e-05
1.51071e-05
1.27605e-05
4.57131e-06
1.69553e-06
2.81644e-06
2.02413e-07
2.71243e-05
4.56389e-05
1.13739e-05
2.1801e-05
5.64613e-05
0.000311728
0.000502934
0.000349468
0.000172597
1.29184e-05
1.13978e-05
4.51966e-05
0.000194566
0.000278526
0.000568828
0.000418605
8.42751e-05
0.000149778
0.000221103
3.1309e-05
7.26601e-05
7.13333e-05
5.51244e-05
7.12303e-05
8.05819e-05
7.75882e-05
2.00612e-05
5.33528e-06
5.66963e-06
1.25573e-05
9.94427e-05
6.71519e-05
2.44269e-05
4.8649e-05
0.000158457
0.000396255
0.000358223
0.000129717
7.34096e-06
7.74803e-06
3.1601e-06
1.02866e-05
7.37059e-05
8.93654e-05
0.000146608
3.2171e-05
4.20551e-06
0.000145437
0.000367869
0.000166152
0.000330349
0.000314865
0.000249595
0.000183684
0.000208793
0.000266067
0.00017842
9.65088e-05
6.52746e-05
0.000105978
0.0002028
8.31758e-05
7.6557e-05
0.000188143
0.000322462
0.000183625
3.51602e-05
4.29401e-07
4.80673e-06
8.81408e-06
2.04994e-06
1.6268e-06
1.03836e-05
1.47726e-05
3.56197e-06
7.60215e-07
2.00102e-06
0.000143668
0.00131713
0.00144807
0.00116988
0.000853441
0.000573474
0.000530187
0.000426847
0.000460652
0.000508951
0.000419459
0.000310664
0.000336612
0.000233492
0.00015689
0.000220885
0.000319108
6.21778e-05
1.88444e-06
4.29682e-08
3.9372e-07
3.40307e-06
6.38194e-06
2.03811e-06
4.69465e-07
9.16467e-07
1.67593e-06
7.43792e-07
1.68159e-06
3.24766e-06
0.000152047
0.00228899
0.00181855
0.000901315
0.000350397
0.000312216
0.000452766
0.000556954
0.000530338
0.000719068
0.000676356
0.000600683
0.000414974
0.000240068
0.000240437
0.000269525
3.3916e-05
1.11364e-06
5.66852e-07
3.2851e-07
2.5884e-07
3.34975e-06
6.39946e-06
1.9231e-06
4.76513e-07
3.74907e-07
2.81108e-07
4.3298e-07
2.54081e-06
6.63059e-06
0.000166319
0.00104327
0.000172967
8.65875e-06
6.98594e-07
5.62942e-07
9.46247e-06
0.000136322
0.000262165
0.000410196
0.000591923
0.000499479
0.000357547
0.000220377
0.000166008
1.81325e-05
1.04152e-06
7.75597e-07
5.25137e-07
6.68581e-07
3.79193e-07
2.52316e-06
6.28023e-06
2.55508e-06
8.33905e-07
5.98278e-07
4.9528e-07
6.01015e-07
5.54275e-06
2.43867e-05
0.000128258
0.000200714
5.53156e-07
6.76997e-07
7.40693e-07
6.72834e-07
9.85587e-07
5.48505e-06
1.16532e-05
1.44231e-05
8.09273e-05
8.15053e-05
0.000134662
0.000144848
3.39072e-05
1.14436e-06
1.27163e-06
5.37828e-07
8.67311e-07
1.24434e-06
5.70538e-07
2.61993e-06
5.27336e-06
3.37778e-06
1.45566e-06
1.3615e-06
1.18962e-06
1.39469e-06
9.24735e-06
5.32263e-05
8.47294e-05
0.000134016
7.36652e-07
8.6971e-07
9.60709e-07
1.13946e-06
1.28249e-06
4.68327e-06
9.18585e-06
5.91731e-06
7.06468e-06
9.09876e-06
4.31044e-05
0.000106166
3.52761e-05
1.92345e-06
1.65068e-06
8.16652e-07
1.63162e-06
1.69242e-06
1.0199e-06
2.91111e-06
5.27422e-06
3.61374e-06
2.15056e-06
2.63573e-06
2.17487e-06
3.5707e-06
1.00582e-05
1.69112e-05
8.1995e-05
0.000110528
8.09101e-07
9.37431e-07
1.21536e-06
1.30116e-06
1.36112e-06
3.11507e-06
8.09769e-06
6.6751e-06
7.72066e-06
1.11793e-05
3.65562e-05
0.000119724
4.97746e-05
3.17784e-06
2.45188e-06
1.45288e-06
1.87671e-06
1.58459e-06
1.93595e-06
3.74939e-06
6.24562e-06
4.26647e-06
2.83463e-06
4.04568e-06
5.16375e-06
8.09285e-06
5.00181e-06
3.07967e-06
9.18134e-05
9.04971e-05
9.69376e-07
1.15548e-06
1.41856e-06
1.62245e-06
1.56958e-06
2.35264e-06
7.37716e-06
6.08562e-06
6.51505e-06
9.22808e-06
1.89978e-05
8.33723e-05
5.78109e-05
5.50498e-06
2.79591e-06
2.10193e-06
2.34755e-06
2.10016e-06
3.39219e-06
5.94083e-06
7.85825e-06
4.89418e-06
3.52781e-06
6.48713e-06
1.12962e-05
8.28998e-06
5.66224e-06
6.80121e-06
6.70155e-05
7.1935e-05
1.20279e-06
1.49436e-06
1.75295e-06
1.88952e-06
1.69755e-06
1.7295e-06
6.10198e-06
6.13873e-06
5.55598e-06
6.43275e-06
1.17001e-05
4.06922e-05
4.22481e-05
6.90889e-06
3.04016e-06
1.99847e-06
2.55063e-06
2.93632e-06
4.3675e-06
7.40047e-06
9.76109e-06
6.93665e-06
4.25862e-06
8.83379e-06
1.65932e-05
1.34761e-05
1.36177e-05
9.86057e-06
5.13128e-05
5.47528e-05
1.56851e-06
1.85454e-06
2.16301e-06
1.96184e-06
1.79557e-06
1.51302e-06
3.52118e-06
5.34194e-06
4.95505e-06
4.0673e-06
5.34614e-06
1.7028e-05
2.87484e-05
4.97098e-06
2.84988e-06
1.37365e-06
1.52829e-06
2.84837e-06
4.24438e-06
7.03338e-06
1.10001e-05
9.52023e-06
5.04359e-06
7.52637e-06
1.57925e-05
1.66798e-05
1.46553e-05
1.73675e-05
4.08761e-05
3.80704e-05
1.97523e-06
2.18751e-06
2.21954e-06
1.93516e-06
1.60516e-06
1.39869e-06
2.21216e-06
3.91162e-06
3.98707e-06
2.09262e-06
2.39508e-06
6.02435e-06
6.61717e-06
2.1629e-06
2.52804e-06
9.53212e-06
5.98549e-07
1.80031e-06
3.2924e-06
4.46963e-06
5.76783e-06
9.68662e-06
6.1356e-06
5.47837e-06
8.38365e-06
6.83819e-06
5.9409e-06
4.60153e-05
6.93849e-05
2.47067e-05
2.27021e-06
2.29533e-06
2.05116e-06
1.7279e-06
1.66778e-06
1.73992e-06
1.51293e-06
1.51244e-06
2.91908e-06
1.74035e-06
1.3942e-06
2.08806e-06
1.10362e-06
7.38382e-07
3.06821e-06
3.40194e-05
1.44821e-06
1.52248e-06
6.43542e-06
9.07815e-06
5.92615e-06
3.44529e-06
1.01023e-05
7.12626e-06
1.69359e-05
3.36225e-05
8.50706e-05
0.000367225
0.000189841
1.58702e-05
2.26777e-06
2.02851e-06
1.67072e-06
1.53845e-06
2.27349e-06
3.09524e-06
1.01652e-06
5.51806e-07
1.96964e-06
1.60999e-06
1.1177e-06
5.26706e-07
4.54975e-07
9.68814e-07
1.14212e-06
3.0849e-05
1.29643e-05
1.58829e-05
2.99192e-05
3.49605e-05
1.64591e-05
9.11006e-06
1.84829e-05
0.00043956
0.000799518
0.000959581
0.00107709
0.000810895
0.000378417
1.01174e-05
1.86351e-06
1.4616e-06
1.21182e-06
1.50301e-06
2.97734e-06
3.97034e-06
7.83636e-07
5.48541e-07
1.75387e-06
1.48895e-06
8.26593e-07
2.49153e-07
5.4361e-07
1.21225e-06
2.34613e-06
3.96114e-06
6.7642e-05
7.53618e-05
0.000129137
0.000405931
0.000808953
0.000782731
0.000896233
0.00125833
0.00109431
0.00095019
0.000841507
0.000323088
0.000400436
6.55885e-06
1.19971e-06
8.5971e-07
8.58157e-07
1.45466e-06
2.92211e-06
3.45019e-06
9.99284e-07
7.30006e-07
1.60023e-06
1.87234e-06
1.97408e-06
4.57443e-07
6.72661e-07
1.73363e-06
3.07362e-06
5.4319e-06
0.000159428
0.000479857
0.000747442
0.000826992
0.00070801
0.000820206
0.000816706
0.000172175
5.63143e-05
2.7995e-05
7.29877e-06
3.08517e-07
0.000232332
4.57257e-06
6.20028e-07
4.54209e-07
6.16994e-07
1.18616e-06
2.21387e-06
2.53045e-06
1.79564e-06
9.80736e-07
1.89183e-06
6.8079e-06
2.55293e-06
1.58706e-06
1.29932e-06
3.38742e-06
4.20381e-06
8.67403e-05
0.000626458
0.000466599
8.75067e-05
5.91473e-07
7.2858e-07
7.27806e-07
6.16422e-07
7.71104e-07
7.1334e-07
1.00525e-06
9.21283e-07
9.64592e-07
0.000165486
3.60394e-06
2.80079e-07
2.37967e-07
4.26632e-07
8.78378e-07
1.59452e-06
2.08305e-06
3.67553e-06
9.09455e-07
2.85193e-06
1.03412e-05
4.71056e-06
3.02853e-06
1.94727e-06
3.75771e-06
6.7094e-06
0.000261136
0.000417819
3.60593e-05
2.38944e-06
1.77864e-06
1.71756e-06
1.76684e-06
1.6495e-06
1.49484e-06
1.30047e-06
1.54143e-06
1.22115e-06
1.16465e-06
0.00012518
2.81001e-06
1.66298e-07
1.7677e-07
3.54454e-07
7.86425e-07
1.38023e-06
2.55202e-06
7.9047e-06
6.51374e-07
3.64005e-06
7.91956e-06
3.66021e-06
1.79531e-06
2.59047e-06
3.03889e-06
2.80848e-05
0.000219527
0.000113608
8.85547e-06
3.38185e-06
1.98758e-06
1.69725e-06
1.66434e-06
1.56976e-06
1.40634e-06
1.49649e-06
1.40702e-06
1.24909e-06
1.36973e-06
8.55147e-05
1.71894e-06
1.90553e-07
2.38309e-07
4.30254e-07
9.42722e-07
1.71973e-06
4.49348e-06
1.70556e-05
1.18643e-06
2.96182e-06
4.38621e-06
1.91302e-06
1.84898e-06
2.91736e-06
4.22667e-06
4.76507e-05
0.000104822
2.47657e-05
6.64928e-06
4.75848e-06
3.03195e-06
2.01535e-06
1.85651e-06
1.76574e-06
1.41996e-06
1.60779e-06
1.26317e-06
1.29701e-06
1.53806e-06
5.23223e-05
7.7187e-07
2.39545e-07
3.29359e-07
5.70262e-07
1.24506e-06
2.67188e-06
1.04453e-05
2.91063e-05
2.77032e-06
3.2063e-06
2.41602e-06
1.52983e-06
2.92093e-06
3.87853e-06
8.57125e-06
3.59186e-05
3.47472e-05
1.18873e-05
7.26402e-06
5.94366e-06
4.49359e-06
3.02013e-06
2.19484e-06
2.2124e-06
2.03877e-06
1.85785e-06
1.40453e-06
1.48823e-06
1.67813e-06
2.73723e-05
2.56057e-07
2.31566e-07
3.7031e-07
6.92426e-07
1.50509e-06
3.68576e-06
2.09992e-05
3.46697e-05
4.32401e-06
4.33286e-06
2.38109e-06
2.23894e-06
4.4803e-06
5.42984e-06
1.04102e-05
1.90508e-05
1.63027e-05
1.08265e-05
8.84045e-06
7.32775e-06
5.73358e-06
4.35891e-06
3.06071e-06
2.67297e-06
2.66747e-06
2.21946e-06
2.10481e-06
1.76834e-06
1.8112e-06
1.16976e-05
7.50684e-08
2.20289e-07
4.3e-07
9.06389e-07
1.85979e-06
4.1916e-06
3.44573e-05
3.38163e-05
4.08691e-06
3.97009e-06
2.14965e-06
3.85949e-06
4.4634e-06
4.53896e-06
6.41521e-06
9.39714e-06
1.01886e-05
9.87072e-06
9.77515e-06
8.57626e-06
6.90471e-06
5.44966e-06
4.01285e-06
2.90479e-06
2.92398e-06
2.47554e-06
3.00254e-06
2.38717e-06
2.16733e-06
4.52691e-06
6.72022e-08
3.59345e-07
8.21825e-07
1.88078e-06
3.37659e-06
7.11543e-06
4.07526e-05
1.77015e-05
4.34231e-06
3.82839e-06
1.75724e-06
4.22544e-06
3.29925e-06
1.69921e-06
1.84041e-06
3.33692e-06
5.3824e-06
6.32834e-06
7.12456e-06
7.53037e-06
6.98488e-06
5.8184e-06
4.55751e-06
3.09342e-06
2.53201e-06
2.54839e-06
2.92878e-06
3.24947e-06
3.08838e-06
3.11834e-06
2.81125e-07
9.56354e-07
2.75711e-06
5.23832e-06
7.30963e-06
1.46265e-05
1.99755e-05
1.28455e-05
1.59356e-05
3.92359e-06
6.11176e-06
5.39875e-06
9.82691e-07
7.91543e-07
8.97723e-07
1.00443e-06
1.11891e-06
1.4652e-06
2.88948e-06
4.62213e-06
4.59871e-06
4.4863e-06
4.01518e-06
3.1632e-06
2.18637e-06
2.27517e-06
2.78342e-06
3.4466e-06
4.12697e-06
6.35912e-06
6.55287e-07
1.75427e-06
1.00913e-05
1.25241e-05
1.00941e-05
9.40515e-06
1.5472e-05
2.24034e-05
1.42468e-05
2.67374e-05
1.35753e-05
1.26816e-06
1.87902e-06
2.02865e-06
2.26673e-06
2.3069e-06
2.03006e-06
1.20882e-06
8.97461e-07
1.00231e-06
1.86593e-06
2.15008e-06
2.22766e-06
2.19679e-06
1.65184e-06
1.74343e-06
2.50775e-06
2.78121e-06
3.52166e-06
1.6581e-05
1.86934e-06
2.27421e-06
1.64062e-05
7.3801e-06
4.26488e-06
1.23208e-05
1.737e-05
1.46297e-05
5.61695e-06
3.24314e-06
5.28706e-06
5.73827e-06
3.20795e-06
3.05648e-06
2.8678e-06
3.18451e-06
2.88844e-06
2.76099e-06
1.93287e-06
8.33592e-07
5.22508e-07
5.41319e-07
7.20077e-07
9.43388e-07
9.72605e-07
1.18009e-06
1.89176e-06
2.28447e-06
1.40626e-06
3.09675e-05
6.89461e-05
2.22321e-05
1.08506e-06
2.97357e-06
6.72051e-06
9.1771e-06
8.40947e-06
1.89201e-06
1.89815e-06
5.54628e-06
6.24035e-06
3.32524e-06
3.36128e-06
2.96374e-06
3.86193e-06
3.66938e-06
4.0941e-06
3.20603e-06
2.72563e-06
1.89079e-06
7.28745e-07
3.47102e-07
2.15857e-07
3.13412e-07
5.27834e-07
7.86563e-07
1.10027e-06
1.77122e-06
2.0837e-06
4.02781e-05
0.000217011
2.91909e-05
6.32618e-06
3.57164e-06
3.95864e-06
3.39134e-06
1.8466e-06
3.39032e-06
4.15569e-06
3.89293e-06
2.98319e-06
3.22512e-06
2.49854e-06
3.87118e-06
4.0521e-06
6.0207e-06
5.34376e-06
5.48502e-06
3.5786e-06
2.69782e-06
1.64873e-06
5.98421e-07
3.53026e-07
3.45278e-07
4.00776e-07
4.97664e-07
6.94677e-07
1.66041e-06
4.18896e-06
3.92303e-05
1.5049e-05
4.00987e-05
6.47534e-06
2.41182e-06
1.67849e-06
1.56427e-06
3.17036e-06
3.88643e-06
3.86023e-06
2.96067e-06
3.11171e-06
2.03774e-06
3.03116e-06
3.19051e-06
7.67583e-06
9.73219e-06
1.22245e-05
7.74437e-06
6.55609e-06
3.8323e-06
2.78086e-06
1.22414e-06
7.21928e-07
6.19387e-07
4.96037e-07
6.39338e-07
5.855e-06
1.32297e-05
3.23021e-05
3.18651e-05
1.4031e-06
2.43628e-05
4.62165e-06
1.41661e-06
1.12703e-06
2.15756e-06
3.97378e-06
4.60352e-06
3.73891e-06
3.42294e-06
2.03134e-06
2.40753e-06
1.91338e-06
5.40951e-06
5.07992e-06
5.33329e-06
1.77789e-05
2.09633e-05
8.79293e-06
6.68848e-06
3.82777e-06
2.56635e-06
1.06667e-06
1.05154e-06
1.15121e-06
3.97255e-06
2.41117e-05
0.00010971
7.628e-05
3.55971e-05
8.64239e-07
1.74941e-05
4.25292e-06
1.1594e-06
1.21888e-06
3.62667e-06
5.50386e-06
5.20839e-06
5.05629e-06
2.55533e-06
2.05184e-06
1.29573e-06
1.75213e-06
6.84022e-07
0.000179765
0.000520721
0.00031002
5.38527e-06
1.55087e-05
7.75022e-06
6.03198e-06
3.53562e-06
1.35821e-06
1.69116e-06
3.50411e-06
2.77493e-05
0.000110406
4.67343e-05
2.41746e-05
4.81564e-05
6.92465e-07
1.05018e-05
8.01292e-06
1.03816e-06
2.47917e-06
5.7943e-06
7.47836e-06
9.27492e-06
5.4968e-06
2.92238e-06
9.81451e-07
1.34495e-06
8.76891e-07
0.000145399
0.000934545
0.00101021
0.000617594
0.000422435
3.61162e-06
1.45056e-05
6.95821e-06
4.92565e-06
1.77587e-06
2.89467e-06
1.57043e-05
0.000104884
2.19655e-05
1.06613e-06
1.75897e-06
1.12279e-05
5.39769e-07
4.05538e-06
1.7514e-05
1.19338e-06
4.99988e-06
7.82945e-06
1.54751e-05
1.16875e-05
1.36494e-05
2.78839e-06
6.53279e-07
9.67154e-07
1.44217e-05
0.000713125
0.00091807
0.000172453
0.000221946
0.000563326
0.000297211
1.14408e-05
1.42968e-05
5.54137e-06
2.31515e-06
5.98573e-06
7.29647e-05
1.03291e-05
3.17838e-07
4.16166e-07
5.79443e-07
4.10371e-06
3.84731e-07
1.11633e-06
3.76509e-05
3.44088e-06
5.62458e-06
1.42718e-05
2.85727e-05
4.87613e-05
5.22087e-05
4.77085e-05
2.07964e-06
3.51612e-06
0.00011157
0.000901046
7.2895e-05
4.55444e-07
6.15148e-07
5.16715e-05
0.000592788
2.49538e-05
1.39769e-05
6.90386e-06
3.13858e-06
2.25384e-05
3.89805e-05
2.06073e-07
4.74133e-07
5.1857e-07
6.60535e-07
3.27841e-06
2.56513e-07
1.86511e-07
2.53026e-05
2.58775e-05
7.64985e-06
1.71575e-05
4.78036e-05
0.000466785
0.000559374
0.000532309
0.000140744
8.35515e-06
0.000455703
0.000377471
2.62626e-07
8.42461e-07
1.64468e-06
1.3644e-06
0.000114286
0.000256482
4.5978e-06
5.22466e-06
5.38079e-06
7.81218e-05
8.65638e-07
5.78459e-07
6.79351e-07
7.37715e-07
7.60847e-07
1.96673e-06
1.76935e-07
1.72394e-07
3.42541e-06
3.58069e-05
3.63286e-05
3.4271e-05
0.000163673
0.000224167
0.000220697
0.00024028
0.000209276
0.000189668
0.000489997
1.27238e-05
8.37355e-07
9.28405e-07
1.84433e-06
2.40472e-06
3.84819e-06
0.000289857
1.88625e-05
7.32919e-06
5.75986e-05
1.7667e-05
4.12265e-07
6.15386e-07
6.89181e-07
6.68982e-07
5.4406e-07
8.57958e-07
1.19707e-07
2.28144e-07
6.46087e-07
9.53329e-06
3.48378e-05
6.52639e-05
7.97962e-05
5.90058e-07
2.24735e-06
1.71143e-05
9.09832e-05
0.000251064
5.16615e-05
2.50818e-06
1.16369e-06
8.46077e-07
2.18887e-06
2.91015e-06
2.79494e-06
6.5933e-05
0.000104241
3.12854e-05
3.11852e-05
1.70627e-07
4.25866e-07
4.74662e-07
4.83867e-07
4.22192e-07
2.94263e-07
3.60309e-07
9.01764e-08
2.60641e-07
5.69884e-07
1.10624e-06
4.43595e-06
8.5951e-06
9.21075e-07
6.18671e-07
1.66827e-05
3.23528e-05
9.37291e-05
0.000114358
8.82749e-06
4.69769e-06
1.87247e-06
7.86028e-07
2.76568e-06
3.641e-06
3.3038e-06
6.82294e-06
2.08462e-05
2.00292e-05
1.47708e-07
2.21512e-07
3.03764e-07
3.82905e-07
3.86265e-07
3.24334e-07
2.56811e-07
3.10113e-07
1.00893e-07
2.67435e-07
5.58313e-07
5.88145e-07
5.74004e-07
2.40406e-07
8.89837e-08
1.38928e-06
5.64514e-05
5.70116e-05
8.38421e-05
8.00757e-05
6.12938e-06
6.62162e-06
2.51744e-06
1.1168e-06
2.97356e-06
4.22011e-06
3.95227e-06
6.88207e-06
4.23662e-06
1.02883e-06
9.66031e-08
8.05763e-08
1.91347e-07
3.23618e-07
3.87757e-07
3.77256e-07
3.66525e-07
4.49469e-07
2.73243e-07
1.02889e-06
8.267e-07
5.46593e-07
3.59176e-07
8.35434e-08
2.45731e-07
1.64873e-06
9.36093e-05
0.000104827
9.69762e-05
7.83613e-05
6.85655e-06
8.70468e-06
3.22084e-06
2.15276e-06
2.96503e-06
4.51377e-06
5.32024e-06
7.43455e-06
4.59559e-06
9.15739e-07
2.91601e-08
2.72261e-08
1.32041e-07
2.61618e-07
3.56359e-07
4.05699e-07
4.70861e-07
6.37039e-07
2.27467e-06
4.78659e-05
1.85812e-05
1.71509e-06
6.07167e-07
1.47848e-07
3.86596e-07
1.51442e-06
0.000120229
0.000133767
9.01401e-05
0.000126512
1.07724e-05
1.32747e-05
5.73779e-06
3.20207e-06
3.79013e-06
5.04139e-06
7.30867e-06
6.9172e-06
3.31881e-06
9.27752e-07
3.81178e-08
2.121e-08
1.08019e-07
2.18125e-07
3.19205e-07
4.09663e-07
5.41533e-07
8.27869e-07
1.72583e-05
2.95822e-05
7.65339e-05
3.594e-05
3.31276e-06
1.60965e-06
3.35679e-06
8.78839e-06
0.000146129
0.000166977
7.99645e-05
0.000144512
1.91878e-05
1.73303e-05
1.05266e-05
5.05568e-06
5.15607e-06
6.46445e-06
7.71663e-06
4.83579e-06
2.09376e-06
7.26169e-07
8.60242e-08
2.94873e-08
9.87843e-08
1.91365e-07
2.89738e-07
4.06555e-07
5.93743e-07
1.01202e-06
1.40066e-05
5.33249e-06
4.28244e-06
4.70505e-05
3.7102e-05
1.58744e-05
2.46139e-05
0.0001115
0.000430091
0.000412927
0.000102382
0.000121021
2.0483e-05
1.94371e-05
1.50966e-05
8.17557e-06
7.37156e-06
7.63586e-06
6.44077e-06
3.55443e-06
1.74426e-06
7.50778e-07
1.73975e-07
5.16618e-08
9.77947e-08
1.74881e-07
2.70011e-07
4.0748e-07
6.40807e-07
1.18157e-06
5.95994e-06
7.69089e-06
4.10016e-06
3.45015e-06
3.75357e-05
8.14401e-05
0.000125342
0.000138911
0.000752835
0.00112785
0.00028917
7.7197e-05
2.02282e-05
1.89062e-05
1.58612e-05
1.16165e-05
9.24763e-06
7.77945e-06
5.4217e-06
3.19839e-06
1.84744e-06
9.41771e-07
3.07674e-07
8.91764e-08
1.00886e-07
1.64296e-07
2.58379e-07
4.17211e-07
6.89947e-07
1.3272e-06
5.61225e-06
3.45982e-06
3.47549e-06
4.06167e-06
4.99468e-06
2.18296e-05
3.44139e-05
1.3712e-05
0.0004051
0.00160116
0.00063294
7.87829e-05
1.63272e-05
2.26912e-05
1.37114e-05
1.1908e-05
9.22212e-06
6.89584e-06
4.9377e-06
3.19993e-06
2.01685e-06
1.1347e-06
4.57569e-07
1.38832e-07
1.04409e-07
1.5554e-07
2.5487e-07
4.42006e-07
7.47916e-07
1.43629e-06
5.54161e-06
3.86063e-06
1.77205e-06
1.98925e-06
3.00309e-06
3.35705e-06
9.6156e-07
7.39431e-07
5.16195e-05
0.00231332
0.00185554
0.000172253
4.29375e-06
1.88646e-05
1.64138e-05
6.8531e-06
6.48389e-06
4.65624e-06
3.81039e-06
2.73118e-06
1.80229e-06
1.11924e-06
5.43138e-07
1.8614e-07
1.04162e-07
1.469e-07
2.62225e-07
4.87815e-07
8.15575e-07
1.48814e-06
3.52978e-06
3.02449e-06
3.71698e-06
2.42686e-06
1.6204e-06
2.09292e-06
2.39881e-06
1.89875e-08
9.88496e-06
0.000848614
0.00471627
0.00124127
7.55073e-05
1.0754e-06
1.13275e-05
5.93123e-06
2.78081e-06
1.99979e-06
1.85081e-06
1.44735e-06
1.14014e-06
8.69623e-07
5.1328e-07
2.04261e-07
9.71304e-08
1.38612e-07
2.81483e-07
5.46882e-07
8.76092e-07
1.46516e-06
2.32736e-06
1.89935e-06
5.91572e-06
8.85885e-06
2.94901e-06
1.39493e-06
6.945e-06
2.02079e-06
9.066e-06
2.9272e-05
0.00221057
0.00364875
0.00103415
0.000226256
1.17311e-05
1.38889e-05
4.71399e-07
5.00666e-07
1.18111e-06
9.92825e-07
7.69961e-07
6.66334e-07
4.52422e-07
1.90495e-07
8.17708e-08
1.34245e-07
3.11938e-07
5.93794e-07
9.00241e-07
1.39579e-06
4.13108e-06
2.73382e-06
1.75372e-05
1.78289e-05
1.61817e-05
2.54323e-06
7.39809e-05
5.75981e-06
1.13971e-05
1.4882e-05
5.71198e-05
0.00162973
0.00180523
0.000598563
0.000102132
1.27915e-05
3.67781e-06
2.99441e-05
6.20514e-05
5.87949e-06
3.08863e-06
1.21486e-06
8.00588e-07
2.30516e-07
6.83807e-08
1.54638e-07
3.55681e-07
6.16144e-07
9.1387e-07
1.32235e-06
9.1057e-05
0.000442892
0.000566082
0.00047947
2.13752e-05
5.42491e-05
0.000153913
6.46614e-06
1.57922e-05
8.1612e-06
8.82587e-06
7.08122e-05
0.000457365
0.000364649
0.00011196
1.95786e-05
9.91822e-05
0.000277898
0.000263453
0.000122134
2.49626e-05
1.13207e-05
2.42266e-06
1.56578e-07
1.01325e-07
2.23376e-07
4.11758e-07
6.6931e-07
9.86514e-07
1.35254e-06
0.000558847
0.00028617
0.00012846
0.000143171
0.00032811
0.000243566
6.3454e-06
1.20782e-05
1.5484e-05
8.25465e-06
6.09093e-06
2.95803e-06
1.74764e-05
7.16312e-05
5.24864e-05
4.82154e-05
0.000154905
0.000238698
4.43091e-05
7.97339e-05
4.77415e-05
2.63095e-06
4.09881e-07
1.92016e-07
2.16371e-07
3.05445e-07
5.14149e-07
8.28441e-07
1.18593e-06
1.6183e-06
0.000203799
3.39576e-06
3.95713e-06
4.92234e-06
6.20961e-05
0.000162166
4.77352e-05
1.3777e-05
1.01022e-05
2.06016e-05
2.27243e-06
4.59405e-06
1.24624e-05
2.08977e-05
1.084e-05
3.53172e-05
0.00011201
3.67585e-05
1.56277e-06
1.27457e-05
2.51115e-05
1.24711e-06
4.52114e-07
3.25158e-07
3.02563e-07
4.50939e-07
7.52876e-07
1.49749e-06
1.72337e-06
1.66558e-06
7.60211e-05
4.55448e-06
3.8904e-06
3.61477e-06
8.33543e-06
9.47174e-05
0.000123467
2.65443e-05
1.27763e-05
1.33686e-05
1.75659e-05
1.06479e-05
2.39173e-05
1.54206e-05
6.49271e-07
2.88507e-05
8.16865e-05
5.83853e-06
3.85363e-06
1.37034e-05
3.08074e-05
1.7954e-06
5.17424e-07
3.50738e-07
4.2557e-07
1.05861e-06
2.26428e-06
3.63092e-06
2.34314e-06
1.2657e-06
3.82609e-05
6.89259e-06
5.52068e-06
3.85605e-06
3.04052e-06
2.45613e-05
0.000166775
3.21642e-05
1.17081e-05
1.01548e-05
5.13681e-06
8.67497e-06
1.51991e-05
4.20369e-06
1.1062e-06
3.17938e-05
5.9313e-05
4.89383e-06
4.21142e-06
2.54495e-05
5.30995e-05
1.13337e-06
3.69618e-07
3.93933e-07
1.55926e-06
4.00744e-06
5.94279e-06
5.70478e-06
1.04654e-05
1.81098e-07
1.43559e-05
9.15881e-06
7.0857e-06
4.99983e-06
3.43228e-06
3.89804e-06
0.00012766
8.5961e-05
6.7298e-06
1.48893e-05
7.24528e-05
0.000206129
0.000565615
0.000107475
9.56302e-07
3.1924e-05
3.38255e-05
4.7972e-06
6.61381e-06
3.40424e-05
0.000103484
6.23044e-07
2.80359e-07
9.54533e-07
5.55425e-06
3.08061e-06
9.90156e-06
6.8751e-05
0.000158833
2.05641e-05
4.47143e-06
7.90232e-06
6.50244e-06
4.47373e-06
3.69355e-06
2.37873e-06
3.67862e-05
0.000165589
3.55267e-05
1.86295e-05
2.31372e-05
3.583e-05
0.000366386
0.00108441
0.000219029
1.91472e-05
1.46654e-05
9.89871e-06
9.23122e-06
4.97502e-05
0.000140533
8.37937e-07
2.97519e-07
1.46964e-06
7.27561e-06
0.000203381
0.000150686
4.47498e-05
5.31213e-06
5.43134e-05
3.18058e-06
4.36094e-06
3.21982e-06
2.64748e-06
2.90538e-06
2.15573e-06
1.73813e-06
4.68864e-05
4.44562e-05
2.14244e-05
4.66847e-06
3.42564e-06
1.66674e-05
0.000322278
0.00062615
5.52182e-05
6.24447e-06
1.65397e-05
5.89027e-06
0.000154255
7.64953e-05
1.2465e-05
3.02128e-06
6.08761e-06
0.000272227
7.94703e-05
9.28355e-08
1.8667e-06
2.64761e-06
9.44354e-06
7.11474e-06
3.05371e-06
9.0585e-07
8.28679e-07
1.54812e-06
1.55353e-06
9.39031e-07
8.21837e-06
1.67349e-05
1.07416e-05
2.39413e-06
4.09795e-06
7.56808e-06
2.79028e-05
0.000172615
5.13798e-05
8.27979e-06
9.73431e-06
0.000273956
0.000267399
4.67287e-05
2.80916e-05
9.1267e-06
0.000202845
7.19386e-05
1.51918e-06
1.48411e-06
1.52438e-06
1.57451e-06
2.20309e-06
1.27876e-05
1.34094e-06
1.59704e-07
3.03359e-07
7.77878e-07
1.1763e-06
2.37638e-06
8.06227e-06
9.64339e-06
4.72372e-06
1.94735e-06
2.7855e-06
5.2506e-06
8.95479e-06
5.98994e-05
1.86167e-05
1.02305e-05
0.000107046
0.000623647
5.31443e-05
3.83861e-05
2.55182e-05
4.9299e-05
8.05088e-05
5.97623e-07
3.68992e-07
4.41083e-07
4.65717e-07
4.53249e-07
6.3919e-07
1.48798e-05
1.47749e-06
4.60673e-07
5.74619e-07
7.67307e-07
1.71201e-06
5.46959e-06
9.46373e-06
5.32712e-06
1.57182e-06
1.40575e-06
2.1977e-06
3.44359e-06
5.78641e-06
3.44248e-05
2.71798e-05
9.56215e-06
0.000545052
0.000228686
2.70028e-05
2.30624e-05
1.55972e-05
4.26462e-05
1.29533e-05
2.48988e-07
6.6786e-08
1.07183e-07
2.35959e-07
3.94344e-07
5.68461e-07
1.26523e-05
6.20738e-06
1.55973e-05
1.21471e-05
2.35331e-06
2.99651e-06
7.30779e-06
7.47888e-06
1.62215e-06
7.33035e-07
9.87303e-07
1.51621e-06
1.993e-06
5.84802e-06
3.5607e-05
5.02477e-05
9.39424e-05
0.000464271
7.85582e-05
3.19271e-05
2.69246e-05
2.64362e-05
3.72322e-05
7.865e-06
3.51213e-07
8.04408e-08
1.67844e-07
3.32571e-07
5.39437e-07
5.56013e-07
8.91672e-06
2.19403e-05
9.49945e-05
6.66046e-05
1.24343e-05
4.23768e-06
5.35317e-06
3.53943e-06
7.45106e-07
6.70997e-07
8.54956e-07
1.20084e-06
2.23391e-06
3.41432e-05
0.00010334
3.79801e-05
0.000344429
0.000132841
5.12097e-05
3.15371e-05
2.47507e-05
2.7905e-05
3.39078e-05
8.67527e-06
5.27296e-07
2.23101e-07
3.46786e-07
5.35158e-07
7.7691e-07
6.06125e-07
8.95849e-06
2.11745e-05
8.4756e-05
8.21255e-05
4.81366e-05
4.33718e-06
2.74888e-06
1.23278e-06
9.01233e-07
7.66207e-07
9.20501e-07
1.94672e-06
6.91973e-06
0.000178619
0.000130202
8.30499e-05
0.000124074
4.26788e-05
4.08272e-05
3.24211e-05
3.29115e-05
3.37831e-05
3.65407e-05
7.59978e-06
6.07235e-07
4.25508e-07
6.67665e-07
1.01571e-06
9.73006e-07
8.58001e-07
8.83035e-06
6.95122e-06
4.66656e-06
1.40289e-05
3.77175e-05
6.86397e-06
1.79756e-06
1.01595e-06
9.54377e-07
6.85938e-07
9.7409e-07
2.67061e-06
2.22033e-05
0.000459954
0.000330047
5.55037e-05
2.9545e-05
3.90326e-05
5.08086e-05
5.26406e-05
5.04548e-05
3.51481e-05
3.68066e-05
4.41086e-06
6.95401e-07
7.05051e-07
1.55963e-06
2.23584e-06
1.04475e-06
1.21414e-06
4.76678e-06
2.34231e-06
2.49796e-06
4.79811e-06
1.64576e-06
9.46202e-06
2.29204e-06
1.55406e-06
7.96229e-07
1.03312e-06
1.45953e-06
6.67591e-06
4.90767e-05
0.000504266
0.00127353
8.8753e-05
1.743e-05
5.051e-05
6.96975e-05
8.61184e-05
5.20424e-05
4.31038e-05
2.16622e-05
2.33895e-06
8.43876e-07
1.19636e-06
3.15653e-06
4.64994e-06
7.6019e-06
0.000263593
4.20945e-06
3.09103e-06
9.13187e-07
4.85509e-06
8.15041e-07
5.46371e-05
7.76735e-06
7.43954e-06
9.02118e-05
0.000556727
0.000159816
0.000154304
5.9671e-06
2.96967e-05
0.00130609
0.00066379
5.10499e-05
2.89245e-05
0.000129146
0.000128115
7.26308e-05
3.17758e-05
1.15441e-05
1.3394e-06
9.20252e-07
1.57106e-06
5.62665e-06
5.28754e-06
0.000370187
0.000486758
3.6338e-06
2.27775e-06
2.87494e-06
2.3645e-06
4.92286e-06
0.000215187
0.000343376
0.000842907
0.00148642
0.00154984
0.000580392
0.000102811
5.8414e-06
1.01324e-05
0.000181431
0.000529076
0.000235333
0.000156704
0.000193568
0.00017196
6.1063e-05
3.36319e-05
1.09998e-05
1.04157e-06
8.79299e-07
1.27345e-06
4.96402e-06
6.71465e-05
0.000310403
7.85567e-05
2.39145e-06
1.93394e-06
3.41033e-06
6.19778e-06
2.89985e-05
0.000215864
0.00133977
0.00205368
0.00117786
6.72996e-05
0.000138205
4.27249e-05
9.47768e-06
1.37906e-05
4.43663e-06
4.06233e-05
0.000246664
0.000223771
0.000106964
0.000124665
5.84803e-05
0.000304788
0.000120785
9.38684e-06
2.16196e-06
1.01094e-06
2.50701e-06
8.09668e-05
1.83129e-05
5.88845e-05
1.50552e-06
1.88998e-06
2.88935e-06
1.08442e-05
0.00010161
0.000358969
0.000511798
6.55658e-07
9.06408e-06
5.09859e-05
0.000187237
4.53507e-05
9.2717e-06
1.55657e-05
7.63182e-06
8.59597e-06
0.000161455
0.000117838
5.18773e-05
0.000128431
0.000431907
0.00071574
0.000255682
0.000177958
4.66493e-05
1.23788e-05
5.11623e-06
0.000278959
1.21577e-06
6.3609e-05
1.04681e-06
1.3446e-06
3.16771e-06
1.02388e-05
0.000136241
0.000478055
7.51807e-06
6.27054e-06
9.44938e-06
9.92039e-05
0.000207011
4.16024e-05
1.36652e-05
1.52404e-05
3.47692e-06
6.18242e-05
0.000152154
2.39894e-05
0.000128792
0.000378409
0.000445037
5.6936e-07
1.61715e-06
5.13023e-05
0.000134308
0.00010772
0.000174563
6.37015e-05
1.23877e-05
4.48475e-05
8.14862e-07
8.03358e-07
2.35086e-06
8.52315e-06
9.54669e-05
0.000158165
6.52266e-06
3.247e-06
9.08837e-06
0.000153663
0.000182468
2.63126e-05
1.38836e-05
7.60994e-06
1.51924e-06
0.000108035
7.75841e-05
3.15621e-05
0.000422454
0.000338822
1.03166e-06
7.18369e-06
9.38098e-06
6.03388e-06
1.08008e-05
2.72283e-05
8.2415e-06
2.11195e-05
1.26061e-05
2.88626e-05
6.9656e-07
5.82755e-07
9.63109e-07
3.52696e-06
4.16608e-05
4.98713e-05
1.3536e-05
5.68043e-06
1.01915e-05
0.000205493
0.000203776
2.32918e-05
8.06533e-06
3.15187e-06
5.95161e-06
7.16844e-05
2.43746e-05
0.000123696
0.000490553
3.23597e-05
1.00083e-05
1.52729e-05
5.65216e-06
3.69335e-06
9.78885e-06
1.61029e-05
1.96367e-05
2.18323e-05
1.36232e-05
1.14208e-05
6.29044e-07
5.07637e-07
5.26966e-07
1.02033e-06
4.47168e-06
6.36474e-05
2.1774e-05
1.99031e-05
1.43155e-05
0.000175336
0.000232004
2.14884e-05
2.86985e-06
1.52171e-06
1.37157e-05
7.07422e-05
5.90781e-05
0.000411809
0.000148178
5.50612e-06
1.76057e-05