/*--------------------------------*- C++ -*----------------------------------*\
| =========                 |                                                 |
| \\      /  F ield         | OpenFOAM: The Open Source CFD Toolbox           |
|  \\    /   O peration     | Version:  2.3.0                                 |
|   \\  /    A nd           | Web:      www.OpenFOAM.org                      |
|    \\/     M anipulation  |                                                 |
\*---------------------------------------------------------------------------*/
FoamFile
{
    version     2.0;
    format      ascii;
    class       volScalarField;
    location    "1.20046";
    object      epsilon.water;
}
// * * * * * * * * * * * * * * * * * * * * * * * * * * * * * * * * * * * * * //

dimensions      [0 2 -3 0 0 0 0];

internalField   nonuniform List<scalar> 
18816
(
2.64292
11.8277
10.192
2.55241
0.553946
1.10468
2.04554
2.40387
3.16972
7.89795
7.99229
8.18244
15.5729
24.3163
28.5621
28.537
24.4788
17.6571
7.87224
2.86109
4.44107
13.3367
22.8968
26.7328
25.0766
19.6893
9.42415
1.48512
5.72227
19.0519
2.30766
0.36871
0.412674
0.445392
0.375372
0.28381
0.222327
1.23123
34.5591
55.6775
38.126
24.9757
9.55432
3.48999
2.43301
1.84767
0.969501
0.503477
0.812056
2.57294
5.72011
12.2498
24.3382
34.5356
45.5875
11.3032
5.98905
12.812
0.509726
0.559916
0.641258
0.631737
0.475943
0.314446
0.206874
7.84621
28.6716
56.9732
32.988
8.74887
0.613076
0.165409
0.144572
0.190453
0.222126
0.163389
0.13819
0.214609
0.315506
0.712025
7.43726
30.9295
46.9511
11.173
5.94778
9.3513
0.52253
0.631915
0.73435
0.670824
0.439962
0.282458
0.169854
8.45982
29.0086
41.8213
26.0707
4.48909
0.306528
0.12412
0.0813746
0.120201
0.236184
0.303224
0.291844
0.279171
0.182734
0.0618917
0.309561
25.179
54.1236
11.3431
6.02002
6.8913
0.519432
0.581289
0.726167
0.590047
0.337338
0.230257
0.290402
7.13162
29.8192
37.4106
21.7354
5.40841
0.863745
0.281914
0.122459
0.124961
0.241279
0.450925
0.511246
0.56515
0.343557
0.120623
0.107619
21.1886
56.8814
10.556
5.53793
5.35438
0.362484
0.461553
0.697937
0.545116
0.291668
0.217285
0.800776
8.30139
31.9021
38.9575
23.4921
8.73304
0.800347
0.353831
0.161099
0.153766
0.223789
0.447234
0.588306
0.630105
0.419589
0.14493
0.0723272
16.436
59.2154
10.4122
5.18526
3.82639
0.229104
0.368996
0.645947
0.509287
0.292345
0.259354
0.307692
0.378575
7.95442
27.0756
18.0069
4.42446
0.729304
0.269131
0.203272
0.217591
0.241162
0.343723
0.559347
0.639284
0.649207
0.209
0.0654636
6.80676
59.6349
10.6195
5.06017
3.57674
0.121094
0.321028
0.634456
0.527309
0.317585
0.284721
0.362094
0.41532
0.179659
5.63527
1.69841
0.618655
0.350767
0.27087
0.214655
0.23688
0.224476
0.253416
0.403422
0.551122
0.713923
0.251358
0.0811287
2.57418
60.9504
10.8365
4.71981
4.91202
0.132855
0.354364
0.65751
0.556423
0.316684
0.296846
0.41614
0.369759
0.082762
0.0968448
0.258484
0.39049
0.416862
0.278827
0.174253
0.157956
0.156606
0.141686
0.214553
0.433072
0.635348
0.339666
0.0966615
2.10904
61.7597
10.7417
4.35407
7.50794
0.259505
0.393011
0.656424
0.515117
0.235665
0.138951
0.268281
0.162284
0.0326275
0.167094
0.17614
0.294817
0.300549
0.189177
0.150751
0.0973878
0.0432743
0.0472257
0.119994
0.351507
0.502406
0.439652
0.41749
2.74572
63.145
11.4643
4.63675
11.8378
0.506868
0.373169
0.60037
0.454291
0.21336
0.040294
0.0232127
0.0220043
0.0126183
0.0605396
0.0467827
0.047464
0.0534393
0.0456698
0.0392992
0.0532691
0.0261058
0.0209954
0.104317
0.303933
0.470989
0.518562
0.188899
3.72602
65.0599
11.4789
4.03083
18.0901
1.04394
0.345892
0.552216
0.390938
0.223653
0.0910489
0.0372256
0.0134282
0.0222475
0.00837204
0.0276288
0.0224379
0.0377907
0.0302693
0.0313337
0.0421495
0.0280154
0.0268755
0.0888765
0.220934
0.416908
0.464301
0.0929598
4.49988
67.4677
12.3468
4.9307
25.4629
2.2142
0.285648
0.464418
0.267303
0.185054
0.130572
0.0672448
0.0235478
0.0251849
0.0144255
0.0259523
0.0260194
0.0340956
0.0334395
0.0337558
0.0379805
0.0332238
0.0219458
0.0751654
0.161171
0.329951
0.380547
0.256088
5.46906
69.2664
12.4364
4.73756
33.2444
4.45868
0.197584
0.346673
0.180998
0.15132
0.117419
0.0989635
0.0186161
0.0333932
0.0142288
0.0298876
0.0201601
0.0333686
0.0241761
0.022367
0.0340351
0.0222613
0.0186574
0.0717065
0.136938
0.201645
0.310006
1.00297
7.22605
70.6331
13.1795
6.60381
40.916
8.20824
0.128807
0.229074
0.136273
0.128303
0.086227
0.0764792
0.0396615
0.035464
0.0255498
0.0320191
0.0282268
0.0339614
0.0308914
0.0301934
0.034809
0.0304281
0.0213545
0.0837745
0.139218
0.143348
0.203706
2.40513
9.70962
71.0627
13.4642
6.46652
49.1837
12.3277
0.150449
0.133039
0.110649
0.116332
0.0706114
0.0442468
0.0362462
0.0329522
0.0215429
0.0340528
0.0244606
0.0339108
0.0285793
0.0225682
0.0342999
0.0222493
0.0255633
0.112775
0.149726
0.128348
0.0966254
2.98326
12.7424
72.3603
13.1458
8.91713
57.3105
14.5211
0.252952
0.0959308
0.105958
0.116675
0.0761838
0.0212069
0.023099
0.0286561
0.0212099
0.035703
0.0284794
0.0369369
0.0244031
0.0356814
0.0452484
0.0255672
0.0500941
0.152677
0.167665
0.134006
0.0678567
1.81026
15.5115
74.7528
14.3143
9.22953
65.5357
15.2906
0.365791
0.0808328
0.109981
0.123739
0.10484
0.032683
0.0197894
0.0257683
0.0230003
0.0344454
0.0274311
0.0295122
0.0324589
0.0363496
0.0489078
0.0444736
0.0817994
0.199787
0.193391
0.144371
0.056568
0.529015
17.3887
77.8789
14.7911
11.5113
72.6932
14.0138
0.456817
0.0700379
0.107201
0.132385
0.133118
0.0613005
0.0200987
0.03459
0.0262415
0.0413084
0.0263653
0.0477346
0.0412473
0.040601
0.079931
0.0913009
0.141781
0.226962
0.21817
0.151237
0.0531641
0.215366
17.7571
80.3471
14.0534
12.2545
77.9661
10.7511
0.552598
0.0565371
0.0962469
0.141445
0.152089
0.143073
0.073712
0.046563
0.0312991
0.0406217
0.0265982
0.0403557
0.0323015
0.0559535
0.0927555
0.180379
0.296921
0.279932
0.244383
0.146072
0.0414648
0.162923
17.4396
82.5133
15.398
15.1657
79.8417
7.26615
0.570001
0.0393736
0.0818264
0.138198
0.155968
0.155773
0.0785273
0.0636544
0.0476974
0.0472414
0.0246741
0.0241075
0.023007
0.032117
0.060553
0.137418
0.320453
0.308453
0.25019
0.12025
0.0228185
0.136283
17.5743
84.4475
15.2174
15.6385
80.8437
5.44217
0.471083
0.017883
0.0574914
0.100191
0.124349
0.106915
0.0139152
0.029004
0.0506809
0.0470404
0.0372631
0.0314943
0.0270999
0.0283575
0.00652896
0.0381587
0.228561
0.255889
0.191117
0.0765886
0.0222442
0.141392
17.0693
85.8304
16.9362
17.6576
80.0872
4.50417
0.208216
0.0150075
0.0588861
0.0869647
0.133399
0.140904
0.0643713
0.0307651
0.0118137
0.0137138
0.00780702
0.00862248
0.0129724
0.0194538
0.043338
0.102061
0.261976
0.260451
0.162162
0.0652983
0.0366554
0.112659
14.388
85.4255
19.4331
17.3683
78.701
4.07186
0.11134
0.0197661
0.0491301
0.0671643
0.120855
0.142837
0.0603182
0.0184727
0.0162642
0.0200135
0.0189103
0.0183578
0.0143278
0.00529275
0.0255298
0.0948849
0.23861
0.220368
0.119317
0.057054
0.0456317
0.071186
7.99464
84.9058
14.9305
18.7874
76.4338
3.82865
0.0972253
0.0238076
0.044993
0.0632355
0.124881
0.153057
0.0777225
0.0233161
0.00414735
0.00288087
0.00385087
0.00306518
0.00166908
0.00809906
0.0345637
0.112879
0.239249
0.204549
0.101076
0.0615257
0.0587075
0.0268005
3.37842
84.7839
20.5581
18.7801
73.9875
3.78394
0.0958568
0.0227614
0.041914
0.0552708
0.111414
0.143257
0.0776691
0.020379
0.00409104
0.00914472
0.0120066
0.0116672
0.00750013
0.0023285
0.0300733
0.108415
0.206612
0.159076
0.061691
0.0461225
0.0505124
0.0216244
2.56951
85.1288
25.3807
19.9265
71.5647
3.92667
0.0799391
0.0207492
0.0452762
0.0515546
0.0992399
0.126387
0.0713005
0.0182263
0.00149013
0.00417814
0.0076055
0.00716027
0.00286973
0.00321896
0.0269301
0.097404
0.171344
0.129499
0.0438267
0.032698
0.0335224
0.0336781
3.03434
85.8701
33.6056
20.5094
67.687
4.64206
0.0402737
0.0264442
0.0348805
0.0350761
0.0573006
0.0726273
0.0471136
0.0125782
0.000871617
0.00535929
0.00899021
0.0087224
0.00441914
0.00157846
0.0183192
0.0631397
0.0959227
0.0755341
0.0291003
0.023858
0.0252297
0.0302328
4.17656
86.3244
35.6597
1.46142
2.72606
2.42961
0.654617
0.207743
0.303144
0.530232
0.647641
0.876416
2.04706
1.64528
1.33792
4.19522
6.342
7.08867
6.95006
5.74249
3.81115
1.41253
0.526346
0.861089
2.66079
5.18454
6.39027
6.16925
5.00859
2.16121
0.662286
1.30157
4.90466
0.884051
0.167677
0.173659
0.181193
0.153992
0.11667
0.0954901
0.55084
8.62845
13.1161
9.20769
6.09284
2.68706
1.14289
0.810627
0.56944
0.251702
0.137611
0.244343
0.735204
1.72642
3.62844
6.18838
8.55753
10.7871
1.51648
1.20534
3.80853
0.220271
0.190409
0.211695
0.208345
0.159487
0.110758
0.0744014
0.0983848
2.2303
14.8352
8.56782
2.52525
0.231014
0.0613259
0.0539347
0.0703908
0.0805528
0.0695893
0.0699357
0.0906107
0.118562
0.298375
2.37854
8.18593
12.2975
1.1718
1.25504
2.87084
0.187005
0.183586
0.215278
0.202073
0.132119
0.0916766
0.0260912
0.0138847
0.472975
3.09823
7.00738
1.36793
0.115893
0.0465479
0.0323384
0.0477064
0.0916343
0.119613
0.122148
0.116505
0.0701999
0.0285479
0.177549
6.8063
14.199
0.956722
1.08685
2.14012
0.159416
0.150183
0.203681
0.175733
0.100467
0.0679392
0.00865635
0.00451194
0.131094
0.586578
5.72047
1.60928
0.299637
0.0962644
0.0397377
0.0446419
0.0896932
0.156745
0.176815
0.188334
0.117171
0.0435114
0.0512838
5.877
14.9271
0.994291
0.982757
1.67602
0.106997
0.119703
0.194758
0.163632
0.0907428
0.0606068
0.0186186
0.00454928
0.0443798
0.189192
5.86082
2.61914
0.358307
0.118423
0.0541946
0.0535217
0.0765545
0.149076
0.19022
0.202079
0.14324
0.0480075
0.0367573
4.70723
15.6381
0.972199
0.933343
1.20988
0.0756874
0.105571
0.186811
0.156426
0.0914837
0.0770339
0.089105
0.0648356
0.0248291
0.0746444
4.95519
1.61704
0.25177
0.0830496
0.0623198
0.0661583
0.0739012
0.102925
0.17213
0.202266
0.201813
0.0640684
0.0323263
2.04338
15.876
1.08519
0.716656
1.12914
0.0572235
0.107862
0.193488
0.162747
0.0985107
0.0868975
0.103618
0.0998963
0.0255183
0.0185311
0.575999
0.188712
0.0952837
0.073111
0.0626483
0.0652981
0.0639006
0.0699535
0.117832
0.175274
0.212122
0.0806052
0.0405477
0.861408
16.2405
1.08922
0.637806
1.42291
0.0693906
0.123343
0.199383
0.165479
0.0945571
0.0906678
0.115058
0.0835607
0.0260463
0.0178218
0.0581095
0.0864312
0.0925135
0.0681615
0.0475086
0.0430727
0.0428653
0.0390118
0.0666778
0.144357
0.192804
0.108598
0.0477404
0.701635
16.3713
1.20753
0.6615
2.12693
0.115338
0.131916
0.196237
0.151894
0.0684897
0.0432712
0.0696547
0.0360032
0.0144908
0.0347689
0.0411246
0.0634192
0.0670081
0.0475718
0.039944
0.0391476
0.0184445
0.017191
0.0467426
0.124093
0.1648
0.150256
0.13922
0.854151
16.6011
1.21738
0.578831
3.28864
0.205258
0.125481
0.180593
0.137932
0.0670901
0.0203108
0.012649
0.010457
0.0101247
0.0181938
0.0204943
0.0179482
0.022978
0.0183985
0.015655
0.0240165
0.0128925
0.0111038
0.0431103
0.110791
0.158577
0.166278
0.0929143
1.15767
16.9658
1.22735
0.527706
4.89679
0.398528
0.116801
0.165482
0.120497
0.067264
0.0352064
0.0161617
0.00824927
0.0145875
0.00622806
0.01574
0.0113781
0.0190765
0.0140737
0.0134263
0.0207454
0.0131521
0.0121318
0.0352318
0.0825042
0.141398
0.146331
0.0577389
1.42263
17.4934
1.29649
0.505275
6.74597
0.787497
0.100764
0.136611
0.0837007
0.0555858
0.0405936
0.0254076
0.0138622
0.0160368
0.0109835
0.016053
0.0153709
0.0188328
0.017771
0.0174858
0.0201045
0.0175123
0.0107447
0.0309162
0.0630089
0.112614
0.132283
0.124487
1.71478
17.9583
1.39144
0.605382
8.66666
1.47433
0.0810643
0.100197
0.0588751
0.0472291
0.0331513
0.0291983
0.0103143
0.0180963
0.00927231
0.0169821
0.011163
0.0180249
0.0123169
0.0107815
0.0180608
0.0114341
0.00970218
0.0309563
0.0571996
0.0741153
0.122399
0.36568
2.18935
18.3116
1.36663
0.54891
10.5285
2.50051
0.0697661
0.0691036
0.0487885
0.044501
0.0292092
0.0232654
0.0186359
0.0189643
0.0150051
0.0181627
0.0160022
0.0187926
0.0168762
0.0161242
0.0189273
0.0166526
0.0120998
0.0382358
0.0604628
0.0603767
0.0839844
0.747888
2.83988
18.3312
1.37343
0.549538
12.5193
3.48668
0.0802438
0.0485424
0.0446697
0.0455764
0.0301028
0.0190829
0.0142489
0.01742
0.0107313
0.0182254
0.011842
0.0178496
0.0128244
0.00996496
0.0179645
0.0111183
0.0156881
0.052866
0.0674524
0.0588114
0.0501354
0.895996
3.61186
18.4367
1.26828
0.490601
14.4924
4.05656
0.106038
0.0407594
0.0459136
0.0496239
0.0372213
0.01547
0.0118899
0.0167219
0.0111116
0.0192547
0.0136864
0.0182893
0.011955
0.0149709
0.0216093
0.0132326
0.0282285
0.0707865
0.0762011
0.0643784
0.03993
0.570975
4.28312
18.7478
1.29824
0.417527
16.5565
4.24917
0.135593
0.0370305
0.0486274
0.0543796
0.0502999
0.0234663
0.0135785
0.0169003
0.0144667
0.0199551
0.0161462
0.0148595
0.0174227
0.0189149
0.0225794
0.0237758
0.0449374
0.0884014
0.0865563
0.0699766
0.034439
0.192222
4.75405
19.2941
1.56441
0.677006
18.3013
3.9632
0.15916
0.033359
0.0490589
0.0588038
0.0606277
0.0380099
0.0150455
0.021529
0.0139673
0.022909
0.0142685
0.0256823
0.0194829
0.0192572
0.0376851
0.0470105
0.0759667
0.099106
0.0955567
0.0731173
0.0318441
0.09688
4.88635
19.818
1.53634
0.580451
19.5802
3.09354
0.186654
0.028431
0.0456602
0.061504
0.0658828
0.0639767
0.0401742
0.0298481
0.020377
0.0260676
0.0185732
0.0259642
0.0205291
0.0291134
0.0433078
0.079786
0.123429
0.113354
0.102773
0.0692805
0.0256158
0.0794032
4.86972
20.3284
1.57428
1.02103
20.13
2.22561
0.19397
0.0213089
0.0377602
0.0584025
0.0632978
0.0630081
0.0442107
0.0392378
0.0339088
0.0342069
0.0226793
0.0217491
0.0211349
0.0252069
0.0332768
0.0505098
0.102442
0.1117
0.101936
0.0549334
0.0149778
0.0716011
4.96468
20.8446
1.65846
1.22338
20.406
1.78318
0.169469
0.011059
0.0252387
0.0440758
0.0549645
0.0516201
0.013176
0.0136438
0.0215332
0.0212736
0.0189871
0.0161433
0.0137918
0.0124744
0.00631426
0.0214776
0.0875395
0.0998215
0.0785003
0.0304772
0.0105437
0.078861
4.92417
21.1877
1.90364
1.38978
20.2943
1.51136
0.085912
0.00859372
0.0233967
0.0369208
0.056905
0.0605009
0.0285241
0.0131368
0.00567488
0.00545497
0.00375202
0.00367794
0.00479386
0.00698526
0.015383
0.0377715
0.0983436
0.100611
0.0632439
0.0227374
0.0137725
0.0679656
4.29461
21.1798
1.77657
1.58343
19.9656
1.37699
0.0513832
0.00963315
0.0198502
0.0282809
0.0519067
0.0613653
0.0295238
0.0102238
0.00640158
0.00670951
0.00617186
0.00596556
0.00495439
0.00323091
0.0123295
0.0405165
0.0931001
0.0836833
0.0418947
0.0195751
0.0169682
0.047021
2.48414
21.1815
2.33327
1.8501
19.4654
1.29718
0.0440293
0.0106639
0.0186709
0.0257231
0.051148
0.0626354
0.0331897
0.0105588
0.00261375
0.00174319
0.00195627
0.00171797
0.00127325
0.00364195
0.0137549
0.0446798
0.0908224
0.074295
0.0321269
0.0193641
0.0195384
0.0207535
1.18487
21.2188
2.17958
2.02591
18.9344
1.27941
0.0422724
0.00976646
0.0168832
0.0213218
0.0430284
0.0554474
0.0319689
0.00972873
0.00250342
0.00321663
0.00377735
0.00365169
0.00279047
0.00199455
0.0129816
0.042222
0.0753888
0.055361
0.0186976
0.0140934
0.0159919
0.0159353
0.926652
21.2997
4.00418
1.91529
18.4597
1.32263
0.0377541
0.00839259
0.0159395
0.0180053
0.0336441
0.0427403
0.0253496
0.00740843
0.00119602
0.00179823
0.0026828
0.00254336
0.0014313
0.00188764
0.0100906
0.0328176
0.0540146
0.0404384
0.0131282
0.0102454
0.0105072
0.0195435
1.05394
21.5096
5.72511
1.69086
17.5661
1.53426
0.0265516
0.00698481
0.00733749
0.00731435
0.00932839
0.0107137
0.00971452
0.00383544
0.00068775
0.00183251
0.00284743
0.00274131
0.00157212
0.000985012
0.00498542
0.011316
0.0118076
0.00991979
0.00542638
0.00483082
0.00554226
0.019218
1.37811
21.6212
7.98468
0.149757
0.612927
0.616694
0.205889
0.0985261
0.112204
0.163769
0.19984
0.270876
0.577259
0.308532
0.215789
1.1124
1.71144
1.88755
1.84136
1.40517
0.754684
0.22972
0.10573
0.163064
0.462281
1.15052
1.58898
1.55208
1.24431
0.453759
0.186151
0.255262
1.44101
0.368847
0.0839135
0.0819063
0.0822214
0.0694912
0.0538235
0.0443944
0.23882
2.17574
2.98545
2.3571
1.69352
0.834716
0.376674
0.261992
0.15902
0.0695242
0.0500309
0.0850504
0.214453
0.541602
1.18636
1.78684
2.34458
2.56213
0.49184
0.251459
1.28274
0.103708
0.071473
0.0756517
0.0742116
0.0580118
0.0443659
0.0284353
0.0505401
0.793912
3.93701
2.52394
0.798488
0.0848463
0.0253174
0.0231091
0.0312622
0.0388839
0.0408347
0.0447271
0.0518475
0.0522042
0.126027
0.822241
2.44015
3.47769
0.431399
0.266119
1.01724
0.0732871
0.0563684
0.0671973
0.064559
0.0433557
0.0342403
0.00993042
0.0181097
0.217577
1.10459
2.15759
0.472933
0.0476476
0.0201457
0.0149457
0.0216571
0.0427036
0.0579542
0.0624049
0.0616695
0.0353092
0.0152151
0.0802904
2.0709
4.04753
0.500998
0.218098
0.768215
0.0551046
0.0451428
0.0636184
0.0581253
0.0346836
0.0251331
0.0065723
0.00972753
0.0802596
0.216127
1.74698
0.560985
0.118913
0.038457
0.0158841
0.0184928
0.0378848
0.0651882
0.0730615
0.0768208
0.0529508
0.0197009
0.0216049
1.82397
4.24973
0.487064
0.177804
0.605717
0.0401015
0.0406434
0.0624379
0.0558562
0.0327756
0.0224872
0.00865292
0.00728232
0.0380519
0.0799727
1.68945
0.915897
0.175485
0.0478265
0.0218109
0.0212846
0.0288047
0.0560093
0.0731231
0.0785527
0.0633045
0.021138
0.0178867
1.49161
4.48871
0.452671
0.179767
0.43838
0.0331989
0.0398845
0.0632557
0.0551521
0.0335347
0.0275722
0.0285186
0.0173088
0.0177524
0.03181
1.50597
0.660013
0.100545
0.0296822
0.0230598
0.0236788
0.0253162
0.0340638
0.0613516
0.0766349
0.0765134
0.0283289
0.0167293
0.669834
4.59941
0.447571
0.151925
0.401719
0.0309856
0.0469671
0.0685375
0.0570437
0.0354716
0.0306394
0.0327867
0.026828
0.0131708
0.0118836
0.207792
0.0645189
0.0275753
0.0215398
0.0211359
0.0211092
0.0210182
0.0225452
0.0407467
0.0674632
0.0770354
0.0370356
0.0213485
0.311353
4.70807
0.457435
0.162779
0.465127
0.0379489
0.0533789
0.0701456
0.0552664
0.0326634
0.031276
0.0335867
0.0202805
0.0113703
0.00872651
0.016318
0.0195728
0.020774
0.017595
0.0150322
0.0159229
0.0161147
0.0146094
0.0273024
0.0590645
0.071514
0.0491637
0.0256804
0.252662
4.73069
0.462958
0.124549
0.668713
0.0552881
0.0548738
0.0679406
0.0504256
0.0247246
0.0176105
0.0213116
0.0122952
0.00939578
0.0101414
0.014557
0.0154121
0.018602
0.0144607
0.0131683
0.0222362
0.011257
0.00895177
0.0231912
0.0539122
0.0669851
0.0661536
0.058704
0.29182
4.75848
0.471192
0.129276
1.02978
0.0915128
0.0529624
0.0636418
0.0481168
0.0252663
0.012038
0.00840894
0.00689445
0.00944364
0.00879151
0.0144303
0.0104217
0.0164602
0.011595
0.0099818
0.018222
0.0088177
0.00723478
0.0216907
0.0490726
0.0659257
0.0678729
0.0528834
0.39822
4.82693
0.477141
0.118779
1.5063
0.170597
0.0504967
0.0583886
0.0427796
0.0241774
0.0159472
0.00924152
0.00640695
0.0126266
0.00524218
0.0129709
0.00815342
0.015057
0.00975235
0.00897796
0.016336
0.00904465
0.00718142
0.0176079
0.0375209
0.0593114
0.0605279
0.0395313
0.502224
4.95666
0.472692
0.119977
2.03546
0.315472
0.046246
0.0481694
0.0315786
0.0211941
0.0162673
0.0120839
0.0115054
0.0136298
0.0100494
0.0134992
0.0127151
0.0152134
0.0141916
0.0139952
0.016139
0.0140348
0.00683833
0.0162613
0.0313741
0.0477173
0.0603471
0.0694684
0.602655
5.07309
0.457884
0.117464
2.57034
0.555226
0.0418955
0.0369327
0.0252749
0.0200205
0.0145405
0.0123578
0.00755673
0.0145506
0.00739286
0.0139505
0.00832095
0.014598
0.00884653
0.00757331
0.0146884
0.00822978
0.00649992
0.017592
0.0306626
0.0364868
0.0600857
0.156304
0.733761
5.13989
0.482844
0.134611
3.08062
0.872696
0.0401325
0.029002
0.0238398
0.0215275
0.015184
0.0117522
0.013714
0.0150494
0.0123293
0.0148241
0.0130914
0.0152663
0.0136526
0.0131284
0.0154041
0.0135201
0.00865123
0.0231026
0.0344199
0.0337115
0.0432304
0.273738
0.918742
5.10681
0.474765
0.152906
3.62305
1.12885
0.0430027
0.0247241
0.0242913
0.0246573
0.0180226
0.0119317
0.00892931
0.0139317
0.00750678
0.014734
0.00813673
0.0144697
0.00852739
0.00640027
0.0146198
0.0077384
0.0120641
0.0327396
0.039797
0.0354991
0.0321841
0.307536
1.15231
5.07322
0.464382
0.148118
4.18774
1.26748
0.0488675
0.0230812
0.0263652
0.0284848
0.0240791
0.0128441
0.00851419
0.0137861
0.00810914
0.015494
0.00963613
0.0143938
0.00854014
0.0100723
0.0163486
0.00949289
0.0212531
0.043529
0.0450922
0.0394705
0.0279597
0.202376
1.3527
5.13917
0.511286
0.214914
4.81153
1.30146
0.0560707
0.0216963
0.0279598
0.0316118
0.0318383
0.0194769
0.0114668
0.0144658
0.0122424
0.0163048
0.0133751
0.0106011
0.0139827
0.0149961
0.0157253
0.0180486
0.0338398
0.0519687
0.0498071
0.0420119
0.0245201
0.0774493
1.48283
5.30606
0.565098
0.215561
5.32723
1.21321
0.0615058
0.0195219
0.0279335
0.0333617
0.0359383
0.0286207
0.0124634
0.0178562
0.00997666
0.018167
0.0102782
0.0199132
0.013212
0.0128941
0.0278672
0.0341653
0.0524027
0.0557301
0.0520842
0.0424648
0.0219454
0.0447072
1.51979
5.52403
0.542729
0.27646
5.69502
0.950872
0.0694249
0.016746
0.025658
0.0328887
0.0363872
0.0384312
0.0307292
0.0244027
0.0164473
0.0213627
0.0153606
0.0209979
0.0162903
0.0215242
0.0322799
0.0635754
0.0651157
0.0562092
0.0521541
0.0383312
0.0173665
0.0371807
1.52495
5.74439
0.502795
0.280928
5.86418
0.72849
0.0730077
0.012841
0.0201698
0.0298942
0.0329413
0.0342445
0.0314233
0.0296764
0.0284146
0.0288765
0.021887
0.0206695
0.0203995
0.0219261
0.0232901
0.0289088
0.0462236
0.050976
0.048892
0.0287111
0.0102795
0.0332926
1.5655
5.9529
0.553876
0.325523
5.94341
0.628896
0.0669235
0.00727497
0.0128681
0.022958
0.0302889
0.0309054
0.0121916
0.00848053
0.0111897
0.0115084
0.0115631
0.00989018
0.00816223
0.00668792
0.00559384
0.0145935
0.043703
0.0484046
0.0377251
0.0142555
0.00603037
0.0347738
1.57548
6.07486
0.523463
0.322546
5.93056
0.549782
0.0387462
0.00557737
0.0108427
0.0183809
0.0303067
0.0330725
0.016675
0.00744614
0.00341753
0.00273502
0.00214988
0.00197577
0.00221846
0.00335248
0.00771662
0.0195485
0.0475319
0.0473716
0.0279894
0.00984888
0.00660651
0.0318939
1.41075
6.10077
0.543701
0.396603
5.83733
0.506257
0.025033
0.00553605
0.00919224
0.0139668
0.0271691
0.0328914
0.017747
0.00686344
0.00351542
0.00284589
0.00247651
0.00236568
0.00218275
0.00240071
0.00755039
0.0220312
0.0454742
0.038043
0.016415
0.00821129
0.00772543
0.0252316
0.849107
6.1343
0.49665
0.380539
5.70129
0.478482
0.0211918
0.00562699
0.00891144
0.0123075
0.0254367
0.0315667
0.0175564
0.00606074
0.00189059
0.00117173
0.00112399
0.00104299
0.000960667
0.00218676
0.00719209
0.0221029
0.0419707
0.0315607
0.0113326
0.00716474
0.00789532
0.0127742
0.447482
6.15936
0.647674
0.385606
5.56103
0.470495
0.0198398
0.00485335
0.00788436
0.00945628
0.0195259
0.0257777
0.0158836
0.00570331
0.00184416
0.00153525
0.0015137
0.00147124
0.00142703
0.00173611
0.00702932
0.0198335
0.0318162
0.021493
0.00598764
0.00437815
0.0057405
0.00959048
0.358166
6.16791
0.532132
0.41711
5.45959
0.486298
0.0182607
0.00381706
0.00612892
0.00679368
0.0118692
0.0156107
0.0101258
0.00364936
0.000983484
0.00100486
0.00118695
0.00114488
0.00089774
0.0012848
0.00458471
0.0121514
0.0161208
0.012125
0.00374518
0.00303032
0.00341604
0.0101249
0.394878
6.20529
1.12009
0.460071
5.23655
0.559878
0.0146635
0.00180675
0.00141415
0.00148716
0.00193462
0.00251692
0.0025827
0.00156611
0.000568971
0.000841164
0.00109672
0.00106268
0.000778913
0.000703196
0.00183694
0.00273455
0.00223637
0.00174539
0.00105429
0.000963649
0.00117038
0.010433
0.488997
6.18925
1.86819
0.0484102
0.145066
0.174795
0.0884983
0.0582131
0.0584454
0.0699529
0.0794439
0.101286
0.181615
0.0612454
0.0600056
0.303693
0.484437
0.534841
0.51449
0.334135
0.1408
0.0547438
0.0375664
0.0502501
0.0960874
0.238284
0.384352
0.378459
0.301312
0.101253
0.072708
0.124309
0.493605
0.176525
0.0450109
0.0415049
0.0408589
0.035445
0.0291636
0.0234481
0.106178
0.557378
0.648933
0.674022
0.52761
0.283463
0.128435
0.0841372
0.0474561
0.0299188
0.0289267
0.0434998
0.0791089
0.180663
0.429293
0.583246
0.71096
0.643879
0.20679
0.119517
0.502448
0.0530602
0.0292001
0.028649
0.0286109
0.0253574
0.0219467
0.014073
0.0336946
0.318132
1.16446
0.857384
0.268624
0.031938
0.0124181
0.0119076
0.0167566
0.0234732
0.0286038
0.0322762
0.0363405
0.0292231
0.0575141
0.314707
0.828357
1.10949
0.216403
0.0980751
0.425801
0.0332272
0.0211825
0.0241996
0.0240917
0.0197579
0.0176404
0.00803991
0.0174931
0.123832
0.486289
0.77616
0.180978
0.0217412
0.0106418
0.00854591
0.0115856
0.0233228
0.0327935
0.0363544
0.0381386
0.0227397
0.00967614
0.0354352
0.707841
1.31181
0.193733
0.0658755
0.326673
0.0245501
0.0185357
0.0236296
0.0230367
0.0170921
0.0140206
0.00674298
0.0107762
0.0579474
0.118938
0.624002
0.220434
0.0540844
0.0189295
0.00874166
0.00954837
0.0179392
0.0317651
0.0364065
0.0386517
0.0308682
0.0117345
0.0114009
0.637753
1.37658
0.140051
0.0593102
0.259222
0.020321
0.0185457
0.0242992
0.0229082
0.0164031
0.0128989
0.00704556
0.00838497
0.0360087
0.0530451
0.571152
0.371078
0.0966902
0.0245029
0.0116663
0.0109533
0.013009
0.0235572
0.0336512
0.0377851
0.0350212
0.0131383
0.0108527
0.537341
1.46898
0.115785
0.0586586
0.186275
0.0186402
0.0196332
0.0259341
0.0232804
0.016671
0.0143117
0.0124409
0.00960835
0.0171766
0.0250575
0.536548
0.308299
0.0491253
0.0140629
0.0116378
0.0114126
0.0113279
0.0140967
0.0261936
0.035863
0.0371765
0.0179279
0.0106704
0.251112
1.51294
0.108263
0.0585765
0.159575
0.0193946
0.0246484
0.0283877
0.0238154
0.0172204
0.0149421
0.0136148
0.0112301
0.010663
0.0103923
0.0918141
0.0282918
0.0110962
0.00908333
0.00971592
0.00989671
0.00992709
0.0104423
0.0184598
0.0323352
0.0357802
0.0230511
0.0131853
0.124695
1.5389
0.0982208
0.0539322
0.170841
0.0233728
0.0275982
0.0288435
0.0220034
0.015765
0.0149344
0.012916
0.00828315
0.00737126
0.00652547
0.00778732
0.0072526
0.0076494
0.0072084
0.00713737
0.00984216
0.00944152
0.00836992
0.0148575
0.0297796
0.0341023
0.0297495
0.0171327
0.0996071
1.53806
0.0920444
0.0527048
0.230167
0.0304486
0.0278939
0.0276397
0.0203422
0.0129148
0.0105664
0.0100645
0.00750338
0.00737566
0.0054138
0.00834141
0.00648977
0.00901784
0.0069267
0.00670556
0.0195457
0.00921507
0.00629534
0.0139904
0.0281397
0.0338949
0.0372067
0.0342033
0.110491
1.5309
0.0896334
0.0474692
0.35416
0.0467259
0.0278285
0.0265205
0.0199884
0.0126185
0.00869181
0.00672342
0.00578534
0.00997799
0.00641385
0.0144742
0.00882392
0.0176536
0.0108432
0.00974783
0.0213035
0.00824276
0.00556613
0.0129391
0.0259361
0.0336138
0.0355077
0.0352563
0.152061
1.54464
0.08872
0.045583
0.51129
0.0827719
0.0275277
0.0247645
0.0184475
0.0118214
0.00943044
0.00668747
0.00587609
0.0136212
0.00491623
0.0139822
0.00746808
0.0165821
0.00903846
0.00840712
0.0185888
0.00830596
0.00530292
0.0109666
0.0211515
0.030679
0.0326416
0.0298276
0.196535
1.57905
0.0858268
0.0424731
0.682107
0.143175
0.0268037
0.0214587
0.0155906
0.011488
0.00962176
0.00774732
0.0124683
0.0146035
0.0107163
0.0143412
0.0136
0.016394
0.0155442
0.0156757
0.0178891
0.0157102
0.00525325
0.010698
0.0192557
0.0260589
0.0348745
0.0451562
0.232939
1.61839
0.082393
0.0481048
0.851723
0.235216
0.0261012
0.0183721
0.014459
0.0119086
0.00979236
0.00787592
0.00690325
0.0158643
0.00686296
0.0151554
0.00767386
0.0160631
0.00815132
0.00702099
0.0165481
0.00758515
0.00523906
0.0125133
0.0203197
0.0230823
0.0355217
0.0820781
0.263608
1.6341
0.0757772
0.0513344
1.00743
0.339225
0.0258921
0.0167606
0.0151148
0.0139832
0.0110278
0.00863067
0.01453
0.0161514
0.0131424
0.0159816
0.0142206
0.0166191
0.0150411
0.0147919
0.0170781
0.0149356
0.00728137
0.0171865
0.0239738
0.0232347
0.0278172
0.121486
0.316746
1.62293
0.0748779
0.0494075
1.16796
0.407783
0.026285
0.016127
0.0165739
0.0169895
0.0136725
0.00940111
0.00796865
0.015212
0.00677544
0.0163382
0.00735638
0.0163681
0.0077512
0.00568614
0.0166813
0.00697537
0.010902
0.0246383
0.0283412
0.0255995
0.0241692
0.129947
0.39811
1.60012
0.0636906
0.0524277
1.35138
0.441335
0.0272511
0.0159903
0.0183937
0.0201868
0.0187602
0.0117153
0.00763229
0.0148251
0.00744739
0.0170212
0.00892215
0.0166359
0.0079576
0.00954937
0.0183766
0.00869815
0.0195392
0.0324518
0.031869
0.0280316
0.0218764
0.0867695
0.468799
1.61791
0.0907349
0.0508778
1.56368
0.444984
0.0284108
0.0151621
0.0192639
0.0221472
0.0239185
0.0179748
0.0112872
0.0152952
0.0130687
0.0174661
0.0145274
0.00990161
0.0156383
0.0167257
0.0149372
0.0184006
0.0313216
0.0372232
0.0335888
0.0289855
0.0191884
0.038803
0.508748
1.67018
0.0828298
0.0514131
1.73449
0.405965
0.0286532
0.013317
0.018746
0.022318
0.0255745
0.0245593
0.0113836
0.0188261
0.00897569
0.0192894
0.00925878
0.0206712
0.0120015
0.0115861
0.0292736
0.0322132
0.0440317
0.038296
0.0330153
0.0278186
0.0164754
0.0249709
0.52136
1.75802
0.127285
0.0546532
1.85623
0.320073
0.0301748
0.0111635
0.0164388
0.0204476
0.0239256
0.028979
0.0298218
0.0243281
0.0154639
0.0211355
0.0143837
0.0203894
0.0151366
0.020221
0.0344826
0.0701576
0.0455027
0.0324689
0.0303719
0.023463
0.01257
0.0201184
0.527144
1.85451
0.133002
0.050155
1.91583
0.261449
0.0315642
0.00847222
0.0120258
0.0179533
0.0207166
0.0228785
0.0256546
0.0248242
0.0253241
0.0258449
0.0213409
0.0198626
0.0197908
0.0197397
0.0188182
0.022709
0.0276928
0.0285996
0.0271788
0.0166347
0.00739767
0.0170945
0.545702
1.93761
0.120032
0.0543308
1.94171
0.241302
0.0299169
0.00513065
0.0073008
0.0133938
0.0194397
0.0210247
0.0109169
0.00629402
0.00688768
0.00709502
0.00790269
0.00684758
0.00544124
0.00437887
0.00489788
0.0113152
0.0264361
0.0279311
0.02071
0.00803558
0.0040828
0.0160843
0.562735
1.99259
0.129423
0.0532641
1.94372
0.218678
0.0195573
0.00400684
0.00559267
0.0101432
0.0185116
0.0211165
0.01162
0.00524795
0.00247754
0.00170926
0.00148194
0.00130965
0.00131218
0.00216832
0.00519898
0.0128294
0.0273172
0.0256178
0.0139232
0.00558386
0.00407924
0.0159015
0.518366
2.01745
0.131077
0.0621656
1.91768
0.203275
0.0135914
0.0036677
0.00458741
0.00757834
0.0160166
0.0200107
0.0121515
0.00522303
0.00253294
0.00162013
0.00129698
0.001217
0.00128932
0.00202837
0.00549646
0.0141912
0.0252971
0.0190912
0.00793379
0.00462335
0.0045497
0.0143575
0.329672
2.04774
0.141851
0.0656166
1.87864
0.192911
0.0115506
0.0034423
0.00448103
0.00639346
0.0137595
0.0172808
0.010419
0.00415292
0.00153115
0.000885699
0.00074001
0.000710216
0.000768873
0.00163283
0.00468305
0.012386
0.0209177
0.0141657
0.00537967
0.00365428
0.00430618
0.00810833
0.188518
2.06511
0.173408
0.0729501
1.8353
0.189877
0.0106406
0.00279833
0.0038958
0.00436252
0.00905868
0.0123982
0.00862369
0.00384189
0.00152887
0.000980868
0.000820602
0.00080656
0.000964358
0.00155919
0.00448312
0.0102281
0.0132472
0.0082675
0.00245018
0.00166376
0.00278461
0.00627842