/*--------------------------------*- C++ -*----------------------------------*\
| =========                 |                                                 |
| \\      /  F ield         | OpenFOAM: The Open Source CFD Toolbox           |
|  \\    /   O peration     | Version:  2.3.0                                 |
|   \\  /    A nd           | Web:      www.OpenFOAM.org                      |
|    \\/     M anipulation  |                                                 |
\*---------------------------------------------------------------------------*/
FoamFile
{
    version     2.0;
    format      ascii;
    class       surfaceScalarField;
    location    "1.20046";
    object      phi.air;
}
// * * * * * * * * * * * * * * * * * * * * * * * * * * * * * * * * * * * * * //

dimensions      [0 3 -1 0 0 0 0];

internalField   nonuniform List<scalar> 
49938
(
-2.33928e-09
6.04501e-09
-2.45545e-09
-3.70532e-09
4.84252e-09
-2.57637e-09
-3.15115e-09
2.22863e-09
-1.99899e-09
-9.11108e-10
-1.29422e-09
-2.30836e-10
1.04721e-09
-1.80834e-09
6.13312e-10
2.47222e-09
-1.88564e-09
1.21779e-09
2.98146e-09
-1.59192e-09
1.80859e-09
3.11976e-09
-1.23278e-09
1.79164e-09
3.33937e-09
-1.08241e-09
1.54204e-09
2.18688e-09
2.20155e-09
-3.76973e-10
-2.72596e-10
5.95027e-09
-2.66198e-09
-3.05148e-09
7.61089e-09
-3.8188e-09
-4.92231e-09
5.60584e-09
-2.39799e-09
-6.08084e-09
4.35913e-09
-2.00011e-09
-6.97595e-09
3.36961e-09
-1.46661e-09
-7.37393e-09
2.38311e-09
-1.14347e-09
-7.24441e-09
2.12237e-09
-1.49297e-09
-5.74041e-09
2.10408e-09
-2.86578e-09
-2.77118e-09
2.1774e-09
-4.4028e-09
5.30781e-10
2.3919e-09
-4.9048e-09
4.07849e-09
2.6036e-09
-5.35303e-09
6.72492e-09
2.6958e-09
-4.55749e-09
7.11343e-09
2.92359e-09
-2.541e-09
6.46928e-09
3.5679e-09
-2.05594e-09
5.37348e-09
4.52662e-09
-2.39826e-09
3.66669e-09
5.64903e-09
-2.79398e-09
1.71896e-09
6.43702e-09
-3.39991e-09
5.30362e-09
-2.13254e-09
-1.31173e-09
8.93985e-09
-1.47384e-09
-2.12371e-09
5.04945e-09
5.01018e-10
-6.83491e-10
-1.47828e-09
2.1973e-09
1.78106e-10
-3.83258e-09
1.63498e-09
1.0053e-09
-4.16145e-09
1.48386e-09
1.51317e-09
-4.0765e-09
1.64125e-09
1.7089e-09
-3.41581e-09
1.59823e-09
1.65774e-09
-2.67176e-09
1.46996e-09
1.54552e-09
-2.50371e-09
1.49687e-09
4.35677e-10
1.69398e-09
1.58046e-09
-1.4868e-09
8.72511e-09
-5.29544e-10
-2.70455e-09
1.03708e-08
-1.81497e-09
-3.6679e-09
7.67535e-09
-1.25705e-09
-4.27784e-09
4.82333e-09
-2.72782e-10
-4.26382e-09
1.5773e-09
1.46393e-09
-4.24529e-09
3.82421e-10
1.85336e-09
-4.23616e-09
2.45833e-10
1.81673e-09
-3.49873e-09
3.02763e-10
1.04612e-09
-2.03754e-09
2.44047e-10
4.84458e-10
-2.52e-11
3.57861e-10
7.10935e-11
2.35459e-09
1.42526e-10
1.3445e-10
4.3213e-09
1.641e-10
5.5324e-10
4.95135e-09
5.74994e-10
1.6204e-09
4.69721e-09
1.81675e-09
1.8379e-09
3.98371e-09
4.67915e-09
2.57614e-10
2.94341e-09
7.08965e-09
-5.23e-10
1.55844e-09
9.22222e-09
-1.40331e-09
8.90839e-09
-1.72533e-09
-4.57849e-10
1.03574e-08
-8.74444e-10
-7.75382e-10
4.39988e-09
9.14828e-10
-2.9679e-10
-3.41515e-09
1.42507e-09
5.81556e-11
-4.791e-09
5.81367e-10
7.13725e-10
-4.9615e-09
1.34629e-10
1.09551e-09
-4.78099e-09
3.07779e-10
1.31921e-09
-3.85154e-09
1.94511e-10
1.16737e-09
-2.93927e-09
4.04248e-10
6.39204e-10
-2.44319e-09
3.96435e-10
-1.3812e-09
1.63969e-09
2.07413e-09
-1.80744e-09
1.03458e-08
-4.39533e-10
-2.09597e-09
1.06854e-08
9.16696e-10
-2.63154e-09
7.29573e-09
7.59652e-10
-2.49844e-09
3.96797e-09
6.32197e-10
-2.28885e-09
6.93093e-10
6.40975e-10
-2.3242e-09
-5.67282e-10
9.78807e-10
-2.51747e-09
-8.19694e-10
1.25968e-09
-2.4843e-09
-8.5925e-10
1.13614e-09
-1.95428e-09
-1.02215e-09
7.43933e-10
-7.12606e-10
-9.981e-10
1.23339e-10
8.30958e-10
-1.32294e-09
-6.48154e-11
1.9167e-09
-1.27454e-09
3.65401e-10
2.23224e-09
-8.08213e-10
1.07324e-09
2.30144e-09
1.73196e-10
1.58807e-09
2.73373e-09
1.85667e-09
2.32864e-09
1.66846e-09
7.19302e-09
8.10158e-10
2.6854e-10
1.0086e-08
5.70995e-10
1.21443e-08
-2.70422e-09
4.98823e-11
1.03357e-08
-1.36799e-11
-5.9003e-10
3.85791e-09
1.12362e-09
-5.49953e-10
-3.95255e-09
4.74484e-10
-3.87306e-11
-4.84547e-09
-4.6541e-10
4.76146e-10
-4.93823e-09
-5.41043e-10
6.19755e-10
-4.65616e-09
-2.69713e-10
8.13727e-10
-3.62148e-09
-4.28046e-10
6.22463e-10
-2.75759e-09
-4.12512e-12
-1.24571e-10
-2.32423e-09
5.88784e-10
-8.93176e-10
9.8603e-10
1.442e-09
-7.28953e-10
9.65343e-09
7.32703e-10
-8.43797e-10
9.9067e-09
1.97595e-09
-1.04884e-09
6.39459e-09
1.0648e-09
-1.28221e-09
3.77753e-09
3.91163e-10
-1.2166e-09
8.45001e-10
-2.73838e-10
-1.04338e-09
-1.45647e-09
6.98823e-10
-1.32741e-09
-1.8642e-09
1.33032e-09
-1.67175e-09
-1.90164e-09
1.38671e-09
-1.67171e-09
-2.081e-09
1.06412e-09
-9.84589e-10
-2.04194e-09
3.60133e-10
-1.42173e-10
-2.17811e-09
1.65779e-11
5.49957e-10
-2.29276e-09
3.20244e-10
9.83859e-10
-1.58551e-09
3.38094e-10
5.7955e-10
-6.71702e-10
1.23101e-09
8.67651e-10
1.46621e-10
1.42269e-09
5.98327e-10
6.73785e-09
6.03736e-10
-3.1553e-10
1.05028e-08
4.35668e-10
1.28256e-08
-9.00505e-10
1.65879e-10
1.05937e-08
-4.30001e-10
-5.46419e-10
3.56901e-09
9.53823e-10
-5.37554e-10
-3.52001e-09
-4.60182e-10
-6.31357e-11
-4.20962e-09
-1.10117e-09
1.99808e-10
-4.52552e-09
-6.72379e-10
1.08147e-10
-4.32577e-09
-2.43408e-10
1.35826e-10
-3.16459e-09
-4.91563e-10
1.07865e-10
-2.38166e-09
-3.66576e-10
-2.86988e-10
-2.17228e-09
2.20144e-10
-5.39135e-10
-8.90411e-11
1.36319e-09
-9.55115e-11
7.78036e-09
1.47651e-09
1.30785e-11
8.97885e-09
9.73835e-10
1.31418e-10
6.22777e-09
1.2561e-10
-1.85966e-10
4.01264e-09
8.203e-11
-8.34855e-11
7.52706e-10
-5.80944e-11
5.90173e-11
-2.04594e-09
4.43121e-10
-9.32604e-11
-2.1601e-09
4.38541e-10
-5.34563e-10
-2.31797e-09
8.41528e-10
-1.00901e-09
-2.73824e-09
1.11992e-09
-9.31029e-10
-2.85568e-09
7.31569e-10
-4.64932e-10
-2.74185e-09
9.395e-11
9.07163e-11
-2.8364e-09
-1.00234e-11
6.25949e-10
-1.94833e-09
-1.69703e-10
2.38926e-10
-9.74466e-10
6.78417e-10
1.65359e-10
-7.89123e-11
2.98949e-10
8.99278e-11
6.29115e-09
5.01317e-10
-4.36271e-10
1.08682e-08
1.73035e-10
1.34105e-08
-9.83879e-10
1.19619e-10
1.09026e-08
-4.27389e-10
-6.47623e-10
3.46094e-09
8.46303e-10
-5.30929e-10
-2.60289e-09
-1.02613e-09
-2.1368e-10
-3.41166e-09
-1.09433e-09
-1.19665e-10
-4.05664e-09
-5.54589e-10
-3.66144e-10
-4.03876e-09
-4.29629e-11
-5.56533e-10
-2.77459e-09
-2.07784e-10
-4.93878e-10
-2.02299e-09
-4.39548e-10
-7.00976e-10
-1.90945e-09
-5.52609e-11
-6.93201e-10
-9.71198e-10
9.16425e-10
5.34649e-10
3.61886e-09
2.92642e-09
9.22877e-10
6.83002e-09
1.71916e-09
9.67552e-10
5.87178e-09
3.21024e-10
1.04719e-09
2.84388e-09
1.05481e-09
1.13703e-09
-1.19017e-09
1.85583e-09
9.44771e-10
-2.51228e-09
6.67348e-10
7.61173e-10
-2.43585e-09
4.61482e-10
2.89794e-10
-2.68072e-09
8.34123e-10
-2.26447e-10
-3.10711e-09
8.75877e-10
-5.22232e-10
-3.24659e-09
6.7945e-10
-4.348e-10
-3.01808e-09
1.88052e-10
-2.41677e-10
-2.96578e-09
-6.06493e-11
-3.89116e-11
-2.49732e-09
3.34863e-10
3.39122e-10
-1.22555e-09
-1.26138e-10
1.9593e-11
2.36227e-10
-1.45605e-11
-3.94627e-11
5.02787e-09
1.2772e-09
-4.40774e-10
1.09019e-08
3.10708e-10
1.34637e-08
-4.62909e-10
-1.00522e-10
1.17447e-08
-7.20612e-10
-9.15446e-10
3.7742e-09
5.00488e-10
-6.58591e-10
-1.28366e-09
-1.55209e-09
-4.85241e-10
-2.43081e-09
-1.13347e-09
-5.49113e-10
-3.43397e-09
-5.48176e-10
-9.59221e-10
-3.60397e-09
-2.86381e-11
-1.33923e-09
-2.40261e-09
-3.57812e-12
-1.36309e-09
-1.43574e-09
-5.68593e-10
-1.58039e-09
-1.2958e-09
-3.97652e-10
-1.41528e-09
-1.14705e-09
2.39187e-11
4.65624e-10
5.81425e-10
1.08612e-09
1.34782e-09
2.0479e-09
3.86083e-09
1.5742e-09
3.14807e-09
2.26794e-09
1.87907e-09
-1.24895e-10
2.62918e-09
1.57287e-09
-2.09144e-09
1.23403e-09
1.41247e-09
-2.4667e-09
1.10071e-10
1.27172e-09
-2.38698e-09
8.60763e-11
1.01649e-09
-2.67483e-09
2.40093e-10
5.78286e-10
-2.95992e-09
2.81464e-10
9.61671e-11
-2.95367e-09
1.75015e-10
-2.6551e-10
-2.76239e-09
9.84648e-11
-4.56771e-10
-2.76981e-09
-8.59188e-12
-3.77789e-10
-2.78907e-09
2.06706e-10
4.47329e-10
-1.29703e-09
-7.40764e-10
1.05103e-10
3.35735e-10
2.23882e-10
1.29982e-10
3.52638e-09
1.49787e-09
-2.74752e-10
1.0989e-08
2.7397e-10
1.36312e-08
-4.11807e-10
-1.65406e-10
1.26715e-08
-7.3188e-10
-8.97195e-10
4.61992e-09
-1.14223e-10
-8.3909e-10
-1.32945e-10
-1.18933e-09
-1.02012e-09
-1.84844e-09
-3.9055e-10
-1.10505e-09
-3.06234e-09
-2.81072e-10
-1.44024e-09
-3.32589e-09
5.09735e-11
-1.68435e-09
-2.14589e-09
-2.39241e-11
-1.70281e-09
-9.43971e-10
-4.82621e-10
-2.03509e-09
-6.18512e-10
-3.53877e-10
-1.77836e-09
-7.27713e-10
-6.86096e-10
-8.8021e-11
1.56356e-10
-1.25621e-09
1.41792e-09
6.16521e-10
-1.88776e-10
2.29094e-09
-2.47313e-11
2.28116e-09
2.08362e-09
-1.13305e-09
1.24657e-09
1.88701e-09
-2.01688e-09
1.16239e-10
1.7989e-09
-2.09913e-09
-2.82331e-10
1.54562e-09
-2.09526e-09
-3.58613e-11
1.38601e-09
-2.30263e-09
-2.01882e-10
1.02684e-09
-2.34972e-09
-2.52294e-10
5.26612e-10
-2.2483e-09
-2.07189e-10
-9.60136e-11
-2.11413e-09
-3.43481e-11
-5.12564e-10
-2.38729e-09
2.9402e-11
-5.70306e-10
-2.66733e-09
-6.45616e-11
2.22928e-10
-1.32266e-09
-7.4875e-10
1.43705e-10
2.20184e-10
1.67676e-10
1.07427e-10
2.96002e-09
6.30855e-10
-2.17351e-10
1.10294e-08
2.24758e-10
1.37301e-08
-2.8492e-10
-6.64028e-11
1.34911e-08
-7.23927e-10
-8.37596e-10
5.9311e-09
-5.4791e-10
-1.03518e-09
7.46093e-10
-6.85869e-10
-1.36173e-09
-1.54912e-09
2.55549e-11
-1.41451e-09
-2.84321e-09
-1.6566e-10
-1.63054e-09
-3.10373e-09
-1.2233e-11
-1.71798e-09
-1.96547e-09
-9.81419e-11
-1.76786e-09
-6.1783e-10
-2.73625e-10
-1.92038e-09
-1.68701e-11
-4.45244e-10
-1.25168e-09
-3.23202e-10
-1.06926e-09
-1.87187e-10
-3.08735e-10
-5.97945e-10
1.07542e-09
6.05214e-10
-1.27773e-09
1.79036e-09
-2.44826e-10
-4.79328e-10
2.08473e-09
-5.66471e-10
-8.55936e-10
2.16032e-09
-1.11339e-09
-9.78284e-10
2.08064e-09
-1.0882e-09
-9.35365e-10
1.7287e-09
-1.17698e-09
-5.59297e-10
1.85908e-09
-9.78095e-10
-1.46349e-09
1.24375e-09
-1.35931e-09
-3.60966e-10
6.77313e-10
-1.11845e-09
-5.62255e-10
-2.06144e-11
-1.28556e-09
-1.28348e-10
-5.61143e-10
-1.93809e-09
8.46233e-11
-8.45597e-10
-2.18707e-09
-1.94584e-10
-3.0251e-10
-1.18521e-09
-6.67166e-10
3.70102e-10
7.0449e-10
-1.13131e-09
1.83755e-10
3.24265e-09
-8.08003e-11
-9.93941e-11
1.11696e-08
9.08046e-11
1.39096e-08
-2.60806e-10
1.61597e-10
1.39071e-08
-5.51937e-10
-7.25853e-10
7.27711e-09
-4.94761e-10
-1.18806e-09
1.52551e-09
-3.4021e-10
-1.53368e-09
-1.37881e-09
1.69146e-10
-1.52318e-09
-2.62105e-09
-2.31494e-10
-1.48252e-09
-2.71303e-09
-4.3011e-10
-1.56852e-09
-1.75177e-09
-1.34354e-10
-1.4409e-09
-2.37725e-10
-4.98971e-10
-1.60082e-09
4.5387e-10
-2.79616e-10
-7.6993e-10
6.05961e-10
-1.71035e-09
-8.22969e-11
1.05414e-10
-1.02797e-09
9.95308e-10
1.27508e-09
-1.71711e-09
1.72618e-09
4.52637e-10
-1.37806e-09
2.23598e-09
3.67744e-10
-1.40732e-09
2.37572e-09
-1.71021e-10
-1.05559e-09
2.36203e-09
-3.13033e-10
-7.44277e-10
2.27944e-09
-4.58292e-10
-6.42247e-10
1.03436e-09
-1.00883e-09
1.27906e-09
5.84679e-10
-4.84841e-10
-4.21815e-10
3.2513e-10
-3.74704e-10
-4.74389e-10
-1.38469e-10
-9.51283e-10
1.31353e-10
-6.19435e-10
-1.76694e-09
3.08081e-10
-9.02778e-10
-1.89872e-09
-7.06497e-12
-5.48924e-10
-1.40623e-09
-1.23748e-10
4.84144e-10
9.64467e-10
-1.27173e-09
1.43138e-10
3.81734e-09
-2.43155e-10
-3.69433e-11
1.13854e-08
-7.30677e-11
1.41614e-08
-2.79535e-10
4.18247e-10
1.38517e-08
-3.60546e-10
-4.50771e-10
8.44328e-09
-3.54693e-10
-1.101e-09
2.25031e-09
-1.11659e-10
-1.32637e-09
-1.37734e-09
2.13404e-10
-1.20593e-09
-2.50057e-09
-2.388e-10
-8.59465e-10
-2.5586e-09
-4.9431e-10
-5.94549e-10
-2.10855e-09
9.70907e-11
-3.40074e-10
-8.21652e-10
3.25612e-10
-5.26359e-10
-2.58326e-10
8.92607e-10
-3.07456e-10
6.3864e-11
3.33343e-10
-1.01232e-10
-3.02796e-10
2.10168e-10
6.8595e-10
5.65596e-10
-5.82063e-11
9.54924e-10
-5.89032e-11
2.64328e-10
1.1133e-09
4.93007e-11
1.65599e-10
1.22356e-09
-4.12225e-10
1.43408e-10
1.07596e-09
-4.38908e-10
2.85077e-10
9.46394e-10
-5.48159e-10
1.48921e-10
6.18588e-10
-9.55249e-10
2.75753e-10
2.33055e-10
-5.36275e-10
4.3873e-10
-8.6109e-12
-3.05738e-10
1.75279e-10
-2.96154e-10
-1.16415e-09
5.00849e-10
-6.17493e-10
-1.96095e-09
5.18144e-10
-8.44171e-10
-1.9344e-09
2.60673e-10
-5.65691e-10
-1.64934e-09
-3.20068e-11
4.80715e-10
1.72397e-10
-2.29755e-10
1.35513e-10
4.15273e-09
-2.33489e-11
-2.85824e-11
1.16419e-08
-1.24968e-10
1.42725e-08
-1.4161e-10
5.59705e-10
1.36207e-08
-3.4296e-10
-1.5641e-10
9.41694e-09
-3.12119e-10
-9.20809e-10
3.11205e-09
-1.37751e-10
-1.07914e-09
-1.33979e-09
1.08616e-10
-1.05401e-09
-2.40986e-09
-1.15409e-10
-7.16801e-10
-2.52533e-09
-3.6589e-10
-2.28495e-10
-2.38247e-09
-2.0435e-10
-3.38756e-10
-1.60076e-09
8.80314e-10
-5.41286e-10
-7.99092e-10
7.26859e-10
-1.56745e-10
-2.47018e-10
-6.57152e-11
4.65924e-11
-4.35687e-10
-7.24185e-11
5.55942e-10
1.57999e-10
-9.03535e-11
7.11345e-10
-3.58489e-10
4.57256e-11
8.94728e-10
-1.75136e-10
-6.98633e-11
8.82955e-10
-5.36958e-10
3.85903e-11
8.85773e-10
-4.41111e-10
-6.98625e-11
8.28804e-10
-5.55833e-10
-1.28942e-11
5.73129e-10
-7.41965e-10
5.27789e-11
5.4871e-10
-4.53398e-10
-6.14614e-11
9.38276e-11
-3.25258e-10
4.70883e-10
-2.66901e-10
-1.32852e-09
5.19854e-10
-5.16267e-10
-2.24477e-09
5.30222e-10
-7.16118e-10
-2.18493e-09
4.53845e-10
-6.15061e-10
-1.49647e-09
-2.45217e-10
8.09967e-11
6.58289e-11
-5.4973e-10
1.17851e-10
4.36409e-09
-2.52012e-10
-8.14906e-11
1.18848e-08
-8.55888e-11
1.42745e-08
-1.01361e-10
6.57145e-10
1.32721e-08
-3.41235e-10
6.84541e-11
1.01816e-08
-2.23658e-10
-7.00533e-10
4.15991e-09
-3.1276e-10
-8.35546e-10
-1.13664e-09
-7.56391e-11
-9.45837e-10
-2.19984e-09
-1.00263e-10
-8.05435e-10
-2.44494e-09
-2.21255e-10
-1.29393e-10
-2.45131e-09
-5.83549e-10
4.98186e-11
-2.21663e-09
4.34207e-10
-2.29722e-10
-1.55646e-09
1.0259e-09
1.4681e-11
-4.54987e-10
-3.08748e-11
2.26044e-10
-6.54205e-10
2.01548e-12
4.8308e-10
-1.80848e-10
-8.92367e-12
6.32492e-10
-6.43576e-10
7.17458e-11
7.37894e-10
-4.09104e-10
1.8818e-11
7.84824e-10
-7.18422e-10
2.74307e-11
7.76222e-10
-5.55357e-10
1.61228e-11
7.26641e-10
-5.33637e-10
-9.80223e-13
6.21955e-10
-6.52578e-10
2.62385e-11
5.35817e-10
-3.73763e-10
9.16944e-12
6.13475e-11
-2.92825e-10
4.37597e-10
-2.2093e-10
-1.46121e-09
4.1221e-10
-4.54334e-10
-2.42986e-09
4.13687e-10
-6.40752e-10
-2.4469e-09
4.53318e-10
-7.17721e-10
-1.28491e-09
-1.26315e-10
-3.89764e-10
8.9837e-10
-1.12079e-09
7.28013e-11
4.83403e-09
-8.84072e-10
-1.61667e-10
1.20453e-08
1.18745e-11
1.43391e-08
-2.42053e-10
6.49122e-10
1.30935e-08
-5.16636e-10
1.78974e-10
1.08695e-08
-2.54205e-10
-4.89362e-10
5.36218e-09
-5.52854e-10
-7.10927e-10
-6.66747e-10
-2.482e-10
-1.03521e-09
-1.78982e-09
-8.3011e-11
-1.1735e-09
-2.19274e-09
-1.11272e-10
-5.75199e-10
-2.28292e-09
-7.36534e-10
1.32966e-10
-2.1726e-09
-7.11625e-10
1.30007e-10
-2.00533e-09
4.53877e-10
2.7694e-10
-5.34284e-10
-6.70857e-11
3.71705e-10
-7.26685e-10
-2.41509e-11
5.17129e-10
-3.49956e-10
-3.85159e-11
6.20156e-10
-7.33304e-10
-2.12123e-11
6.81893e-10
-4.69178e-10
-5.18706e-12
7.18526e-10
-7.56545e-10
-9.39501e-13
7.33188e-10
-5.40785e-10
-3.60258e-11
6.83409e-10
-5.39696e-10
4.83188e-11
6.34635e-10
-7.17469e-10
2.16956e-11
5.69566e-10
-3.23405e-10
1.30121e-11
1.20547e-10
-3.40684e-10
4.92102e-10
-1.69936e-11
-1.64384e-09
3.20895e-10
-2.27823e-10
-2.53309e-09
3.13808e-10
-4.88222e-10
-2.5352e-09
3.55022e-10
-6.46631e-10
-1.34753e-09
2.34469e-10
-7.92452e-10
2.05715e-09
-9.94903e-10
2.90468e-11
5.73018e-09
-1.61524e-09
-1.46627e-10
1.21468e-08
2.61826e-11
1.45466e-08
-3.53653e-10
5.64929e-10
1.31324e-08
-6.45188e-10
1.57158e-10
1.15919e-08
-3.50484e-10
-4.52157e-10
6.54265e-09
-5.74668e-10
-8.18365e-10
3.76463e-11
-3.32342e-10
-1.27983e-09
-1.23135e-09
-8.53147e-11
-1.58103e-09
-1.76374e-09
-1.09707e-10
-1.20106e-09
-1.82501e-09
-8.02493e-10
-2.93129e-11
-1.59546e-09
-1.65083e-09
8.44715e-10
-1.4111e-09
-1.3936e-09
6.70068e-10
-3.47248e-10
-1.24693e-11
5.87059e-10
-6.32427e-10
-2.0014e-11
6.02467e-10
-4.02452e-10
-1.29223e-11
6.53883e-10
-7.74708e-10
-1.80711e-11
6.87566e-10
-5.09839e-10
-6.02044e-13
7.07905e-10
-7.62583e-10
-1.65174e-11
7.25275e-10
-5.63533e-10
-2.46723e-12
7.04327e-10
-5.20167e-10
-9.00259e-12
6.75904e-10
-7.87421e-10
-7.56649e-12
6.02308e-10
-3.39142e-10
-2.58011e-11
2.28782e-10
-4.47229e-10
4.7204e-10
3.22359e-10
-1.90594e-09
1.70025e-10
1.47442e-10
-2.60407e-09
2.37508e-10
-8.41007e-11
-2.45654e-09
1.73408e-10
-3.21242e-10
-1.33949e-09
2.49392e-10
-8.14914e-10
2.94614e-09
-3.94795e-10
-5.78005e-11
6.7027e-09
-1.63595e-09
-7.7347e-11
1.22775e-08
-1.17633e-10
1.49414e-08
-4.65493e-10
4.64153e-10
1.3349e-08
-7.13749e-10
1.23094e-11
1.24003e-08
-3.93687e-10
-5.4945e-10
7.51223e-09
-4.03968e-10
-1.05694e-09
8.518e-10
-2.9576e-10
-1.52995e-09
-6.29659e-10
-1.16694e-10
-1.86373e-09
-1.23734e-09
-1.55505e-10
-1.63441e-09
-1.35646e-09
-6.62328e-10
-2.20779e-10
-9.67972e-10
-1.93215e-09
1.29361e-09
-4.82434e-10
-2.29595e-09
7.78464e-10
-1.78159e-10
3.53479e-10
7.04567e-10
-6.84216e-10
8.26235e-12
5.71396e-10
-5.72116e-10
2.6041e-10
6.97129e-10
-8.98026e-10
-1.34834e-11
6.33336e-10
-6.87655e-10
2.67648e-10
7.57458e-10
-8.68127e-10
-2.40854e-11
7.24072e-10
-7.4355e-10
2.30658e-10
6.39882e-10
-7.14677e-10
3.0368e-10
7.33142e-10
-8.6372e-10
-2.52255e-11
5.09594e-10
-4.38286e-10
2.30616e-10
4.08164e-10
-6.62593e-10
3.1057e-10
7.44016e-10
-2.3446e-09
3.20698e-11
6.34667e-10
-2.71334e-09
1.41419e-10
4.22025e-10
-2.29702e-09
1.47255e-10
4.6671e-11
-1.05461e-09
1.10248e-10
-5.05341e-10
3.07869e-09
4.32399e-10
-8.09969e-11
7.48221e-09
-1.15363e-09
1.48383e-11
1.25829e-08
-3.72792e-10
1.54758e-08
-5.15847e-10
3.74902e-10
1.36395e-08
-6.80487e-10
-1.41186e-10
1.31744e-08
-3.16063e-10
-7.42358e-10
8.13489e-09
-3.0284e-11
-1.34461e-09
1.57243e-09
-1.14389e-10
-1.83268e-09
-1.1877e-10
-2.0331e-11
-2.07818e-09
-8.05409e-10
-1.13851e-10
-1.79834e-09
-1.27158e-09
-4.20854e-10
-6.44645e-10
-1.13163e-09
-1.05182e-09
7.00807e-10
-5.50185e-10
-1.24403e-09
5.99141e-10
-8.67598e-11
-9.53067e-11
4.91299e-10
-7.35642e-10
4.05229e-11
6.04201e-10
-4.92434e-10
-2.27997e-10
5.82934e-10
-8.96693e-10
2.42407e-11
7.44306e-10
-6.25273e-10
-2.53456e-10
4.92992e-10
-8.81009e-10
2.84918e-10
7.14815e-10
-6.84304e-10
-3.09019e-10
9.58561e-10
-7.53272e-10
-2.23213e-10
7.73008e-10
-9.45225e-10
2.85047e-10
8.77439e-10
-3.75248e-10
-1.88004e-10
9.86165e-10
-1.08517e-09
2.1203e-10
1.32408e-09
-2.83098e-09
3.03574e-11
1.30785e-09
-2.8094e-09
4.79355e-11
1.10348e-09
-2.1017e-09
3.90063e-11
5.60932e-10
-6.0561e-10
9.214e-11
-8.43595e-12
2.57139e-09
1.12445e-09
3.7345e-11
7.989e-09
-5.47845e-10
9.03816e-11
1.30231e-08
-4.69801e-10
1.6061e-08
-4.84533e-10
3.25156e-10
1.37982e-08
-4.8684e-10
-2.07376e-10
1.38304e-08
-1.92735e-10
-7.72653e-10
8.42637e-09
2.65135e-10
-1.39797e-09
2.16335e-09
2.66428e-11
-1.9607e-09
2.48767e-10
1.87349e-10
-2.27966e-09
-5.1774e-10
1.93059e-10
-1.96625e-09
-1.21182e-09
-3.72476e-10
-1.06751e-09
-1.53592e-09
-6.08472e-10
3.19906e-10
-9.86973e-10
-1.10433e-09
3.60358e-10
-3.68047e-10
1.41799e-10
4.24149e-10
-8.14745e-10
-7.40851e-12
4.91541e-10
-5.85629e-10
2.75736e-11
5.24452e-10
-9.43209e-10
9.14153e-12
5.64654e-10
-6.59672e-10
-1.0182e-11
6.10449e-10
-9.78648e-10
4.78289e-11
6.82646e-10
-8.14957e-10
5.84361e-11
8.49074e-10
-8.96926e-10
-2.69984e-11
1.1346e-09
-1.26044e-09
2.11217e-11
1.1914e-09
-7.67216e-10
3.49137e-10
1.55434e-09
-1.5384e-09
-2.36036e-11
1.86394e-09
-3.1853e-09
1.15854e-11
1.87303e-09
-2.78394e-09
1.35006e-13
1.51734e-09
-1.83041e-09
1.69227e-10
7.81816e-10
-2.03993e-10
4.05047e-10
3.03031e-10
2.13683e-09
9.52307e-10
8.56886e-11
8.31163e-09
-1.20552e-10
7.13942e-11
1.34463e-08
-4.11772e-10
1.65062e-08
-3.67377e-10
2.86829e-10
1.38029e-08
-2.87409e-10
-2.44246e-10
1.4331e-08
-4.49929e-11
-7.08183e-10
8.41883e-09
4.72391e-10
-1.3224e-09
2.6114e-09
1.53141e-10
-1.86668e-09
4.31513e-10
3.49082e-10
-2.33845e-09
-5.29142e-10
6.14462e-10
-2.1015e-09
-1.2257e-09
-1.40264e-10
-1.58409e-09
-1.89386e-09
-1.414e-10
-2.61112e-10
-1.44676e-09
-9.10335e-10
1.15329e-10
-1.05453e-09
3.30168e-10
3.67775e-10
-1.05904e-09
-1.62649e-11
4.0202e-10
-8.76358e-10
2.83515e-10
4.56424e-10
-1.05393e-09
5.39202e-11
3.5324e-10
-8.29973e-10
3.0052e-10
6.46564e-10
-1.11989e-09
-1.66787e-10
6.00056e-10
-1.05434e-09
3.0356e-10
6.75285e-10
-1.33154e-09
3.90722e-10
1.48724e-09
-1.72089e-09
-3.85839e-10
1.79989e-09
-1.78276e-09
7.22949e-10
2.00954e-09
-2.51328e-09
7.55357e-10
2.33399e-09
-3.49474e-09
-3.43498e-11
2.24726e-09
-2.78399e-09
1.73246e-10
1.63728e-09
-1.66284e-09
5.09885e-10
8.3353e-10
1.46165e-11
8.06507e-10
4.16304e-10
1.90971e-09
6.51409e-10
4.78888e-11
8.51137e-09
1.45808e-10
-5.20819e-11
1.37892e-08
-2.7768e-10
1.68663e-08
-4.04023e-10
2.99738e-10
1.367e-08
-1.6259e-10
-2.11621e-10
1.46274e-08
1.14515e-10
-5.51154e-10
8.13006e-09
6.40511e-10
-1.11558e-09
2.86477e-09
2.96631e-10
-1.58717e-09
3.92493e-10
4.97998e-10
-2.15699e-09
-7.73941e-10
8.07325e-10
-2.1723e-09
-1.45673e-09
2.44958e-10
-2.01846e-09
-2.16932e-09
1.4228e-10
-1.44056e-09
-2.20281e-09
2.20781e-10
-1.90828e-10
-1.7651e-09
-5.37385e-10
2.47418e-10
-1.00167e-09
-4.82944e-10
4.75754e-10
-5.22929e-10
-6.01638e-10
3.54906e-10
-6.39296e-10
-2.84908e-10
3.6828e-10
-4.20631e-10
-4.46922e-10
1.94793e-10
-7.95825e-10
-1.42527e-10
3.58322e-10
-7.28085e-10
-5.11907e-10
7.67757e-10
-1.1959e-09
-5.5666e-10
1.55628e-09
-1.96629e-09
-5.16136e-10
2.93108e-09
-2.79115e-09
-3.55598e-10
2.41654e-09
-4.27016e-09
2.41357e-09
2.64285e-09
-3.92954e-09
1.93165e-10
2.30667e-09
-2.89827e-09
5.07274e-10
1.46774e-09
-1.6476e-09
8.0287e-10
6.88146e-10
-5.55723e-11
8.32603e-10
3.29972e-10
1.67209e-09
5.8737e-10
-8.77584e-11
8.61359e-09
2.87052e-10
-2.11133e-10
1.40318e-08
-1.5918e-10
1.68949e-08
-2.36735e-10
2.95802e-10
1.3383e-08
-7.79823e-12
-1.59011e-10
1.47919e-08
1.81434e-10
-3.44955e-10
7.70838e-09
6.12146e-10
-8.05741e-10
2.77111e-09
5.41938e-10
-1.2259e-09
2.28692e-10
5.6723e-10
-1.82167e-09
-9.18114e-10
7.25843e-10
-2.16326e-09
-1.52402e-09
4.04429e-10
-2.1692e-09
-2.14159e-09
1.7763e-12
-1.87571e-09
-1.9821e-09
-5.24099e-10
3.03042e-10
-5.52252e-10
-3.53987e-09
1.14589e-09
7.77295e-11
-1.96345e-09
1.13543e-09
8.92237e-10
-1.48678e-09
7.63193e-10
7.69947e-10
-1.08824e-09
4.25975e-10
7.13275e-10
-8.50062e-10
4.3079e-11
4.65355e-10
-9.38452e-10
-1.1419e-10
4.27891e-10
-1.05242e-09
-2.56393e-11
2.8459e-10
-1.64636e-09
8.50177e-10
-5.85563e-10
-2.32526e-09
3.29808e-09
-1.04931e-09
-4.39366e-09
3.12225e-09
-3.69939e-09
-3.88292e-10
2.98768e-09
-3.78853e-09
8.92023e-12
2.02908e-09
-2.82446e-09
8.8018e-10
9.31559e-10
-1.45305e-09
8.76794e-10
3.20534e-10
-3.46753e-10
8.8055e-10
6.76882e-11
1.28116e-09
6.31358e-10
-2.52927e-10
8.5523e-09
3.53952e-10
-3.39412e-10
1.41674e-08
-6.53048e-11
1.67552e-08
-2.04099e-10
3.08571e-10
1.29233e-08
1.40439e-10
-9.58195e-11
1.48544e-08
2.37288e-10
-2.37416e-10
7.26427e-09
5.83423e-10
-4.23141e-10
2.22399e-09
7.3078e-10
-6.26812e-10
3.2735e-11
3.86984e-10
-9.35018e-10
-9.8994e-10
3.6985e-10
-1.23222e-09
-1.60649e-09
3.82735e-10
-9.07798e-10
-2.41071e-09
8.30306e-12
-1.34979e-10
-2.52753e-09
-2.06521e-10
6.21681e-10
-1.14583e-09
-1.17761e-10
7.75071e-10
-4.7484e-10
4.46145e-10
6.7403e-10
2.36167e-10
8.07442e-10
4.89024e-10
2.66387e-10
7.40167e-10
3.32881e-10
2.26957e-10
6.9048e-10
1.75698e-10
1.47048e-10
5.19096e-10
9.17049e-11
1.41273e-11
5.45944e-10
9.75024e-11
-5.00406e-11
3.66867e-10
3.06479e-10
-1.01127e-09
2.84846e-10
1.44693e-09
-1.72595e-09
-4.12295e-10
2.07771e-09
-3.89485e-09
-4.09618e-10
2.012e-09
-3.87315e-09
2.41776e-10
9.24971e-10
-2.77281e-09
1.03176e-09
6.95673e-11
-1.28288e-09
6.70907e-10
-1.7904e-10
-6.66133e-10
5.56237e-10
-1.62359e-10
8.01323e-10
4.58404e-10
-3.22033e-10
8.14894e-09
5.48739e-10
-3.89388e-10
1.41424e-08
4.64456e-11
1.63601e-08
-3.92181e-12
2.62607e-10
1.24693e-08
1.76018e-10
-1.32466e-10
1.48776e-08
2.67574e-10
-2.37035e-10
6.92952e-09
4.37129e-10
-2.88953e-10
1.68505e-09
5.89092e-10
-4.7706e-10
-1.04814e-10
3.16723e-10
-5.9613e-10
-9.20385e-10
4.43472e-11
-9.23466e-10
-1.45187e-09
1.72706e-10
-8.99981e-10
-2.44015e-09
5.2441e-11
-5.9201e-10
-2.70709e-09
-1.3738e-10
5.51176e-11
-1.445e-09
-3.97186e-10
2.4406e-10
-5.87476e-10
-1.08257e-10
4.25909e-10
1.80044e-10
-1.63801e-10
3.68287e-10
3.65193e-10
-7.16134e-11
2.37415e-10
4.09627e-10
-8.80507e-11
1.09972e-10
3.48184e-10
-1.08287e-10
7.65665e-11
1.30097e-10
-1.04884e-10
2.91721e-10
-1.44766e-10
-1.54248e-10
5.45699e-10
-9.43324e-10
-3.5129e-10
1.54864e-09
-2.02545e-09
-7.70829e-10
1.8608e-09
-3.99949e-09
-2.12032e-10
1.4756e-09
-3.87152e-09
4.86645e-10
4.34961e-10
-2.44948e-09
7.074e-10
-7.00309e-11
-1.00687e-09
2.21248e-10
-2.6301e-10
-7.46085e-10
2.63581e-10
-2.46774e-10
4.84869e-10
3.01456e-10
-2.58048e-10
7.1877e-09
9.92917e-10
-3.13276e-10
1.40851e-08
5.87646e-11
1.58808e-08
1.61694e-10
2.32941e-10
1.20474e-08
1.73807e-10
-1.32508e-10
1.49048e-08
2.41371e-10
-2.57998e-10
6.71015e-09
3.40166e-10
-3.38665e-10
1.40303e-09
3.57007e-10
-4.50132e-10
-1.81335e-10
1.84776e-10
-3.36714e-10
-8.20654e-10
-2.13352e-10
-5.20761e-10
-1.37085e-09
1.04652e-10
-4.75333e-10
-2.53563e-09
8.7728e-11
-1.544e-10
-2.95128e-09
-6.83838e-11
2.89504e-10
-1.7851e-09
-8.68705e-11
4.25525e-10
-7.58741e-10
6.35127e-11
3.70287e-10
1.04389e-10
1.4813e-10
2.37137e-10
3.1246e-10
2.14058e-10
1.48821e-10
3.82723e-10
1.44615e-10
6.58295e-11
3.55361e-10
1.01901e-10
-7.43594e-11
1.93316e-10
9.96612e-11
-4.97534e-11
-1.20811e-10
-3.40933e-11
1.91089e-10
-1.09872e-09
-5.18943e-11
7.91822e-10
-2.37239e-09
-2.42948e-10
1.02502e-09
-4.122e-09
-1.00998e-10
7.12046e-10
-3.80201e-09
2.99316e-10
8.95065e-11
-2.23317e-09
4.02553e-10
-2.72712e-11
-1.05068e-09
1.66146e-10
-2.46942e-10
-8.36743e-10
3.05837e-10
-3.0401e-10
2.16186e-10
3.30404e-10
-9.07145e-11
5.85312e-09
1.16748e-09
-2.33132e-10
1.40353e-08
1.17598e-10
1.53582e-08
2.97661e-10
2.26105e-10
1.16757e-08
1.32805e-10
-1.42184e-10
1.49139e-08
2.65326e-10
-2.98961e-10
6.56831e-09
2.90041e-10
-4.18564e-10
1.32362e-09
1.91383e-10
-4.09531e-10
-2.04537e-10
9.43554e-12
-2.93261e-10
-8.55998e-10
-8.04829e-11
-3.88444e-10
-1.3024e-09
2.55351e-11
-3.84034e-10
-2.50812e-09
-2.4776e-11
-2.06106e-10
-2.973e-09
-1.59924e-10
1.65781e-12
-1.87009e-09
-1.34967e-10
2.72977e-11
-7.11834e-10
-8.78559e-11
9.5247e-11
-1.99021e-11
4.56404e-11
1.1056e-10
3.60141e-10
-8.199e-11
6.44081e-11
4.95561e-10
-8.91188e-11
5.2264e-11
4.68338e-10
-1.22905e-10
1.20617e-10
2.50254e-10
-1.43505e-10
2.08994e-10
-1.56652e-10
-6.95836e-11
2.75359e-10
-9.93348e-10
-1.84425e-10
5.64623e-10
-2.41567e-09
-2.62936e-10
6.54743e-10
-3.95978e-09
-2.57991e-10
3.60478e-10
-3.46798e-09
-4.05951e-11
7.37876e-11
-1.77792e-09
-1.69916e-10
3.18592e-10
-1.03982e-09
-2.52258e-10
7.71886e-11
-7.59214e-10
1.62652e-10
-9.38659e-11
1.37952e-10
2.47554e-10
1.09248e-10
5.10136e-09
5.81422e-10
-1.03128e-10
1.40439e-08
1.12168e-10
1.45647e-08
7.07069e-10
2.29595e-10
1.13048e-08
1.29733e-10
-1.04086e-10
1.4916e-08
2.49403e-10
-2.83481e-10
6.54342e-09
1.93069e-10
-4.22271e-10
1.19926e-09
2.55322e-10
-2.92789e-10
-2.69297e-10
-6.91524e-11
-2.29472e-10
-1.03773e-09
1.19686e-10
-2.20308e-10
-1.27855e-09
-3.67653e-11
-1.86995e-10
-2.44169e-09
-9.24702e-11
-4.03211e-11
-2.90845e-09
-2.05932e-10
1.26181e-10
-1.91824e-09
-1.11992e-10
1.86796e-10
-7.57507e-10
-3.67872e-12
1.50066e-10
-1.91786e-12
2.37973e-11
6.24699e-11
3.14567e-10
1.47859e-10
3.94059e-11
4.44532e-10
8.9977e-11
1.98445e-11
4.30883e-10
7.18317e-11
-6.95093e-11
2.52058e-10
1.03281e-10
-5.93613e-11
-1.64007e-10
5.8228e-12
5.11357e-11
-1.0189e-09
-7.26861e-11
2.3197e-10
-2.41912e-09
-1.71527e-10
2.85309e-10
-3.68321e-09
-3.20181e-10
1.29053e-10
-3.06025e-09
-2.50923e-10
5.47237e-11
-1.30915e-09
-3.94613e-10
4.0602e-10
-8.9234e-10
-4.93881e-10
3.78281e-10
-6.4332e-10
-8.6385e-11
1.34666e-10
2.56134e-10
1.20272e-10
1.19484e-10
4.94339e-09
1.79154e-10
-9.34307e-11
1.41151e-08
5.61937e-11
1.35774e-08
9.10333e-10
2.28636e-10
1.10355e-08
3.47037e-11
-7.57679e-11
1.48424e-08
3.04415e-10
-2.99454e-10
6.55393e-09
1.90784e-10
-3.70466e-10
8.11592e-10
4.46329e-10
-1.98853e-10
-4.34946e-10
-1.92508e-11
-1.39966e-10
-1.08203e-09
-1.79683e-11
-1.17878e-10
-1.24369e-09
-1.47197e-10
-1.0484e-10
-2.14059e-09
-3.08807e-10
-5.04539e-11
-2.56915e-09
-3.84939e-10
3.44147e-12
-1.74389e-09
-2.25371e-10
3.98901e-12
-6.40326e-10
-1.22075e-10
1.08607e-11
-3.38974e-11
2.1138e-11
2.45601e-11
3.47063e-10
-5.72394e-11
9.71818e-12
4.94176e-10
-4.59206e-11
7.56763e-12
4.82329e-10
-6.03209e-11
4.35195e-11
2.96535e-10
-9.27525e-11
5.26553e-11
-1.14338e-10
-6.53918e-11
5.695e-11
-8.60799e-10
-1.65726e-10
1.21638e-10
-2.18443e-09
-2.95964e-10
1.40965e-10
-3.16279e-09
-5.27705e-10
9.1043e-11
-2.62501e-09
-3.75764e-10
7.56784e-11
-1.04311e-09
-2.54243e-10
2.56784e-10
-8.02386e-10
-2.71948e-10
3.83955e-10
-6.59547e-10
-1.15543e-10
2.66716e-10
3.50684e-10
1.37396e-11
3.00224e-11
5.16076e-09
5.63109e-13
-1.96517e-10
1.41837e-08
6.18041e-11
1.14804e-08
1.84078e-09
2.41644e-10
-2.21538e-10
5.37304e-12
2.57254e-10
-1.71998e-10
1.73373e-10
-2.32568e-10
4.59938e-10
-1.29326e-10
1.02061e-10
-6.21296e-11
-3.51137e-11
-3.38425e-11
-1.05284e-10
-2.70092e-11
-2.26169e-10
-2.33742e-12
-2.75446e-10
3.57523e-11
-1.47744e-10
6.09221e-11
-4.68148e-11
4.07292e-11
9.42324e-12
5.76352e-12
5.91615e-11
5.99439e-12
2.69311e-11
5.15637e-12
2.33253e-11
-3.7718e-11
5.88974e-11
-4.20957e-11
5.35081e-13
-9.82461e-12
-7.1278e-11
2.49794e-11
-1.73088e-10
4.31475e-11
-3.40429e-10
4.41883e-11
-2.57272e-10
3.66234e-11
-4.93284e-11
8.1568e-11
-3.23534e-11
1.62577e-10
3.14665e-11
1.03908e-10
1.28513e-10
-1.24449e-10
8.02986e-11
-1.86256e-10
-2.05246e-11
1.24728e-09
-2.76806e-09
6.53218e-09
-5.47707e-09
-4.15895e-09
4.19254e-09
-4.78131e-09
-3.25768e-09
1.54465e-09
-3.81853e-09
-1.06456e-09
-2.02203e-09
3.74588e-10
1.17401e-09
-2.68622e-09
1.85662e-09
2.86953e-09
-2.75824e-09
3.07918e-09
3.50094e-09
-2.19262e-09
4.16198e-09
3.66605e-09
-1.64828e-09
4.05785e-09
3.84606e-09
-1.44844e-09
3.60057e-09
2.75218e-09
1.98083e-09
-6.14164e-10
-8.00404e-10
6.21606e-09
-4.40206e-09
-3.82679e-09
6.93033e-09
-6.36539e-09
-5.44633e-09
5.24404e-09
-5.29934e-09
-6.90959e-09
3.60868e-09
-3.51041e-09
-7.8289e-09
2.78285e-09
-2.75234e-09
-8.2394e-09
1.85538e-09
-1.9671e-09
-8.00552e-09
1.7563e-09
-2.84091e-09
-6.23034e-09