/*--------------------------------*- C++ -*----------------------------------*\
| =========                 |                                                 |
| \\      /  F ield         | OpenFOAM: The Open Source CFD Toolbox           |
|  \\    /   O peration     | Version:  2.3.0                                 |
|   \\  /    A nd           | Web:      www.OpenFOAM.org                      |
|    \\/     M anipulation  |                                                 |
\*---------------------------------------------------------------------------*/
FoamFile
{
    version     2.0;
    format      ascii;
    class       volVectorField;
    location    "1.20046";
    object      Ur;
}
// * * * * * * * * * * * * * * * * * * * * * * * * * * * * * * * * * * * * * //

dimensions      [0 1 -1 0 0 0 0];

internalField   nonuniform List<vector> 
18816
(
(0.000209719 0.00628845 0.000283422)
(2.50664e-05 0.004608 7.10977e-05)
(-0.000305454 0.00289088 2.88081e-05)
(-0.000229391 0.00216956 -3.91252e-05)
(3.1588e-05 0.00231257 -2.74307e-05)
(0.000217668 0.00233456 -2.36726e-05)
(0.000250003 0.00223294 -2.94172e-05)
(0.000173794 0.00211507 -3.90245e-05)
(0.000171038 0.00205824 -5.08216e-05)
(-0.00013235 0.0023747 -8.84338e-06)
(-0.00035181 0.00701595 -0.00021479)
(0.000467288 0.0109176 -0.000408224)
(0.000648919 0.00727769 0.000289112)
(0.000346658 0.00756128 0.000117739)
(-0.00020321 0.0054028 8.09549e-05)
(-0.000558634 0.0035596 3.53717e-05)
(-0.000546019 0.00275569 2.22118e-05)
(-0.000584064 0.00242294 1.83871e-05)
(-0.000460351 0.00230765 7.98013e-06)
(-0.000157142 0.00228321 3.43345e-05)
(0.000222138 0.00238786 4.012e-05)
(0.000603966 0.00249479 3.78854e-05)
(0.000626828 0.00279888 4.19214e-05)
(0.000384812 0.00367965 7.43091e-05)
(-0.000101303 0.00581997 0.000101725)
(-0.000432154 0.00651785 0.000133316)
(-0.000879928 0.00833178 -1.97896e-05)
(-0.000584297 0.00568744 0.000470959)
(0.000282107 0.00757041 0.00021958)
(0.000148693 0.00557405 3.36281e-05)
(-0.000193427 0.00316838 -5.51643e-05)
(1.53146e-05 0.00256115 -2.81032e-05)
(8.98351e-05 0.00257129 -8.32482e-06)
(0.000180396 0.00251508 -6.39326e-06)
(0.000174274 0.00238873 -3.39092e-06)
(0.000144497 0.00229406 -4.3011e-06)
(0.000127156 0.00225277 -1.20744e-05)
(-0.000240866 0.00261396 1.96568e-05)
(-0.000232496 0.00764497 0.000482686)
(0.000552283 0.0147627 -8.4539e-05)
(0.000553126 0.0098648 -1.51945e-05)
(0.000170462 0.00741478 -2.27303e-05)
(-7.89024e-06 0.00487085 -4.67444e-05)
(-5.27578e-05 0.00343359 -3.31297e-05)
(-0.000108591 0.00286866 -1.8742e-05)
(-0.000201524 0.00269331 -1.32176e-05)
(-0.000222797 0.00267748 -6.58701e-06)
(-9.90133e-05 0.00270242 1.15509e-05)
(0.000138215 0.00275875 1.22317e-05)
(0.000309487 0.00279522 -1.30897e-05)
(0.000186714 0.00295595 -4.1574e-05)
(4.3931e-05 0.003575 -4.67701e-05)
(-0.000203447 0.00589925 -1.4463e-05)
(-0.000620488 0.00888282 -8.25383e-08)
(-0.000860707 0.0110762 0.000144693)
(-0.00042301 0.00710448 0.000356066)
(0.000236851 0.0061402 8.71579e-05)
(0.000186874 0.00414131 1.23313e-05)
(-9.98018e-06 0.00227497 -1.82075e-05)
(6.43418e-05 0.00223657 -8.66503e-06)
(8.70129e-05 0.00222952 -4.81754e-07)
(0.000139456 0.00218018 -3.10663e-06)
(0.000126132 0.00211452 -2.59418e-06)
(0.000102863 0.00207982 -4.60016e-06)
(0.000126996 0.00205771 -2.96168e-05)
(-0.000238384 0.00199131 4.38477e-05)
(-0.000145653 0.00500165 0.000740752)
(0.000591523 0.0105135 0.00111658)
(0.000492459 0.00813943 -5.40785e-05)
(9.83538e-05 0.0029756 -1.09113e-05)
(-2.8512e-05 0.00227756 -1.83601e-05)
(-0.000109348 0.0022753 -1.10481e-05)
(-0.000141145 0.00230714 -1.0575e-05)
(-0.000170688 0.00233717 -3.95087e-06)
(-0.000177236 0.00236247 -7.37418e-07)
(-0.000111096 0.00240674 1.54773e-06)
(3.92869e-05 0.0023969 3.43161e-06)
(0.000197272 0.00237042 2.81494e-06)
(0.0001642 0.00226243 9.56827e-07)
(3.41076e-05 0.00222733 -6.0162e-06)
(-5.21622e-05 0.0026646 -3.74252e-05)
(-0.000328062 0.00700341 -5.62151e-05)
(-0.000901706 0.0101754 1.90563e-05)
(-0.000618005 0.00657858 0.000180297)
(0.000101132 0.00583195 2.24044e-05)
(0.000128616 0.00341017 -2.18472e-05)
(3.52815e-05 0.0021956 -8.17341e-06)
(2.87575e-05 0.00213428 -7.72296e-06)
(8.90972e-05 0.00213871 -2.6523e-06)
(0.000133266 0.00210599 -1.23937e-06)
(0.00011675 0.00204886 -7.06621e-07)
(0.000114152 0.00201921 -4.81042e-06)
(6.16874e-05 0.00202217 -2.92467e-05)
(-6.88875e-05 0.00189061 6.22659e-06)
(0.000168198 0.00451147 0.000198867)
(0.000404334 0.00715263 0.00123126)
(0.000280898 0.00673085 3.33035e-05)
(0.00010965 0.0021917 -1.57305e-05)
(-2.33037e-05 0.00220059 -1.12821e-05)
(-0.000103174 0.00219902 -7.1034e-06)
(-0.000120124 0.0022425 -1.88028e-07)
(-0.000156393 0.00229925 -5.4645e-06)
(-0.000164673 0.00232619 -5.21132e-06)
(-0.00010986 0.00236437 -1.00838e-06)
(1.79909e-05 0.002371 1.54329e-06)
(8.39932e-05 0.00235817 1.21382e-06)
(0.000117114 0.00228195 -8.53154e-07)
(3.36298e-05 0.00225141 -3.67584e-06)
(-1.64306e-05 0.00215652 -6.49145e-06)
(-0.000182278 0.00535668 -1.36773e-05)
(-0.000597014 0.010513 -1.58475e-05)
(-0.000415661 0.00661368 7.03211e-05)
(7.5212e-05 0.00559023 -1.01425e-05)
(0.000106555 0.00278565 -2.55453e-05)
(4.5766e-05 0.00209523 -4.27486e-06)
(5.70432e-05 0.00209693 -2.41719e-06)
(0.000120916 0.00210751 7.12296e-07)
(0.000121764 0.00207617 -1.47673e-06)
(8.44351e-05 0.00201521 -5.21676e-07)
(8.09842e-05 0.00198481 -8.24569e-06)
(4.45199e-05 0.00195582 -7.12302e-06)
(-2.40325e-05 0.00190313 5.9465e-06)
(0.000188616 0.00413178 5.12952e-05)
(0.000346123 0.0056555 0.000213436)
(0.000224778 0.00635253 4.91778e-05)
(0.0001242 0.00235605 -4.41072e-06)
(-8.51153e-06 0.0019961 3.67367e-06)
(-8.09105e-05 0.00207068 -6.95353e-07)
(-7.13404e-05 0.0021178 2.12814e-06)
(-9.27313e-05 0.00218205 -1.64513e-06)
(-0.000137321 0.0022323 -6.98911e-06)
(-0.000120067 0.00226621 -6.02769e-06)
(-3.54164e-05 0.00226832 -6.22817e-07)
(5.8723e-06 0.00222749 3.1565e-06)
(0.00011058 0.00225822 5.04321e-06)
(2.62802e-05 0.00213391 -1.32037e-06)
(-3.36595e-05 0.0021641 -5.42752e-06)
(-0.000121257 0.00420029 1.316e-05)
(-0.000342647 0.0105535 9.51922e-06)
(-0.000278751 0.00621462 1.28609e-05)
(6.87621e-05 0.00558415 -6.45353e-06)
(8.78992e-05 0.00236593 -2.89109e-05)
(6.75416e-05 0.00209095 4.98658e-06)
(8.92652e-05 0.00210408 5.50849e-06)
(0.00011582 0.00208953 4.07774e-06)
(0.000121278 0.00204691 -9.10846e-07)
(6.0112e-05 0.00198981 -2.32898e-06)
(4.1178e-05 0.00195447 -8.23124e-06)
(2.68256e-05 0.00191509 1.01502e-05)
(-1.80259e-05 0.00186655 8.316e-06)
(0.000145314 0.00334069 3.98891e-05)
(0.000402908 0.00487393 1.60041e-05)
(0.000320365 0.00686215 -7.81289e-07)
(0.000140534 0.00254791 -6.72454e-06)
(1.29427e-05 0.0018687 -1.90045e-05)
(-1.12171e-05 0.00200361 8.11489e-07)
(-1.65393e-05 0.00206904 3.04799e-06)
(-4.89692e-05 0.00209327 1.1005e-06)
(-0.000122236 0.00213669 -4.38216e-06)
(-0.000120919 0.0021771 -8.69094e-06)
(-6.29005e-05 0.00220091 -4.13698e-06)
(3.15897e-05 0.00218685 -9.70497e-09)
(3.97927e-05 0.00223216 2.29382e-06)
(-1.15025e-06 0.00209652 9.05764e-08)
(-2.58732e-05 0.00215026 -1.27611e-06)
(6.3186e-07 0.00332106 5.61624e-06)
(-0.00020582 0.0107257 -1.96003e-05)
(-0.000278073 0.00608097 5.71565e-06)
(8.74032e-05 0.00563582 7.72153e-06)
(9.59234e-05 0.00229096 -2.10905e-05)
(5.87995e-05 0.00218528 1.63417e-05)
(0.000100779 0.00217022 1.23805e-05)
(0.000111533 0.00211969 7.68695e-06)
(0.00011772 0.00205146 -6.49523e-07)
(2.62472e-05 0.00197013 -3.51001e-06)
(-5.16899e-06 0.00194658 3.73699e-06)
(7.00477e-06 0.00190293 6.35815e-06)
(-3.28418e-05 0.00179154 -9.66951e-06)
(8.11342e-05 0.00210526 -3.23593e-05)
(0.000370407 0.00336973 -1.08044e-05)
(0.000267255 0.00544739 -7.26488e-05)
(0.000116271 0.0022213 -3.92617e-05)
(4.80351e-05 0.00189682 4.03187e-06)
(2.79787e-05 0.00197969 7.09548e-07)
(1.75782e-05 0.00203285 2.12858e-06)
(-1.34451e-05 0.00202657 2.2393e-06)
(-6.88491e-05 0.00205567 -1.77612e-06)
(-8.66782e-05 0.00210528 -8.28103e-06)
(-5.32142e-05 0.00213421 -7.83216e-06)
(2.89958e-05 0.00215607 -2.31199e-06)
(-3.84449e-05 0.00215503 2.6465e-06)
(2.90264e-05 0.00215613 3.42704e-06)
(-1.56425e-05 0.00214072 -2.37064e-06)
(0.000154648 0.00234035 -2.15547e-06)
(1.08503e-05 0.0111018 -3.65138e-05)
(-0.000218776 0.00593277 8.35009e-06)
(9.82938e-05 0.00568986 1.94636e-05)
(0.000116983 0.00239318 -1.37864e-05)
(5.68049e-05 0.00230532 1.42428e-05)
(7.33396e-05 0.00225524 7.49997e-06)
(5.92842e-05 0.0021841 4.78782e-06)
(5.32664e-05 0.00210195 -3.77299e-06)
(-2.69365e-05 0.00199765 -5.41261e-06)
(-3.70736e-05 0.00201737 -4.55521e-07)
(-4.78528e-05 0.0020128 -2.66343e-06)
(-0.000141346 0.00193346 -1.65052e-05)
(-1.81112e-05 0.00184734 -5.91091e-05)
(0.000151432 0.00218358 -8.09493e-05)
(0.000148615 0.00286326 2.89653e-05)
(0.000158271 0.00201196 5.83698e-06)
(8.98242e-05 0.00193715 -5.806e-06)
(5.91618e-05 0.00196624 -1.09468e-06)
(2.89566e-05 0.00199901 -1.49999e-07)
(-1.12007e-05 0.00196346 1.07736e-06)
(-3.24058e-05 0.00204063 -1.90815e-06)
(-3.43952e-05 0.0020849 -4.47523e-06)
(-1.76707e-05 0.00211155 -1.06911e-05)
(1.56617e-05 0.00215326 -4.29232e-06)
(-2.93422e-05 0.00213717 -1.13206e-06)
(6.71322e-05 0.00219825 7.65916e-06)
(1.83778e-06 0.00209158 -1.24066e-06)
(0.000125149 0.00208106 -1.14247e-05)
(-2.51981e-05 0.0117401 -4.24258e-05)
(-0.000186304 0.00583803 1.20329e-05)
(9.95249e-05 0.00564133 2.03916e-05)
(0.000142973 0.00250087 -1.35294e-05)
(4.28285e-05 0.00236948 3.19542e-06)
(3.45136e-05 0.00228996 2.06167e-07)
(8.21262e-06 0.00221482 2.3685e-06)
(-8.52424e-06 0.00212174 -6.22608e-06)
(-4.4161e-05 0.00203801 -9.1126e-06)
(-2.55103e-05 0.0020291 2.37135e-08)
(-5.91806e-05 0.00206887 -7.94591e-07)
(-8.33828e-05 0.00204067 -5.23699e-06)
(-4.05355e-05 0.00208796 -1.08797e-05)
(5.40454e-05 0.00194842 -3.25491e-05)
(0.000127486 0.00197616 -5.62675e-06)
(0.00011898 0.00195662 -3.72873e-06)
(8.35722e-05 0.0019639 8.48821e-07)
(7.43117e-05 0.00200665 8.56073e-07)
(1.07574e-05 0.00202721 1.44162e-06)
(2.6971e-05 0.00212949 1.10413e-06)
(5.53349e-05 0.00209432 2.11779e-06)
(3.12581e-06 0.00214308 3.36695e-07)
(2.39402e-05 0.00214979 -5.50374e-06)
(8.05079e-06 0.00217173 -4.69073e-06)
(-2.19924e-05 0.00213702 -8.73005e-07)
(-2.31622e-05 0.00220732 1.00412e-05)
(-6.43792e-06 0.00208541 1.4538e-05)
(8.01465e-05 0.00215242 -6.72195e-06)
(2.36507e-06 0.0121501 -4.94815e-05)
(-5.84542e-05 0.005769 9.62643e-06)
(0.000105143 0.00556132 1.5418e-05)
(0.00016834 0.00254683 -2.58513e-05)
(2.49239e-05 0.00239449 -4.30734e-06)
(-2.33429e-05 0.00230763 -1.22583e-06)
(-5.68793e-05 0.00223656 3.08328e-06)
(-6.61056e-05 0.00217006 -2.42641e-06)
(-9.99183e-05 0.00214553 -1.22009e-05)
(-4.56264e-05 0.00213147 -5.3189e-06)
(-7.17261e-05 0.00217253 -1.37197e-06)
(-9.1834e-05 0.00222094 1.27619e-05)
(-2.32764e-05 0.00226007 2.13e-05)
(3.83356e-05 0.00218988 1.15736e-06)
(0.000118466 0.00220706 4.30464e-06)
(0.00013117 0.00218281 1.29979e-06)
(0.000148813 0.00217607 1.37415e-06)
(0.00013211 0.0022063 -8.71818e-07)
(0.000157919 0.00221006 -5.70386e-06)
(5.25031e-05 0.00229032 -9.18512e-06)
(-1.74092e-05 0.0022588 2.85737e-06)
(4.74098e-05 0.00225392 3.8785e-06)
(2.78254e-05 0.00224283 -2.43142e-06)
(-5.14395e-06 0.00222833 -4.6149e-06)
(-2.38506e-05 0.00220646 -2.1403e-06)
(-7.70599e-05 0.00223444 4.51076e-06)
(3.15164e-06 0.00220379 1.18583e-05)
(-1.82897e-05 0.00224017 -4.99678e-06)
(-5.41547e-05 0.0124244 -5.25278e-05)
(2.74312e-05 0.00577553 8.62495e-06)
(8.95442e-05 0.00546488 -1.42946e-06)
(0.000163315 0.00251541 -3.34245e-05)
(1.78661e-05 0.00238007 -1.23019e-05)
(-5.07372e-05 0.00227945 -3.12019e-06)
(-6.15695e-05 0.00223643 1.72655e-06)
(-4.19888e-05 0.00223917 1.34828e-06)
(-6.07181e-05 0.00225042 -6.21954e-06)
(-1.9508e-05 0.00230332 -8.66061e-06)
(-1.30172e-05 0.00229172 -1.52845e-05)
(-2.6364e-05 0.00232733 2.75329e-06)
(-3.3113e-05 0.0023662 6.77929e-06)
(1.88397e-05 0.00233532 -4.13284e-06)
(0.000109119 0.00235344 2.12813e-06)
(0.000102678 0.00232555 -1.13039e-06)
(0.000127597 0.00231538 -2.71725e-07)
(0.000122079 0.00227734 1.31147e-06)
(0.000101924 0.00189335 1.90088e-06)
(7.89296e-05 0.00222645 5.54474e-06)
(2.47763e-05 0.00228541 -8.77137e-07)
(2.9735e-06 0.00229108 -1.32784e-06)
(4.62313e-06 0.00227638 -5.09544e-06)
(-2.72619e-05 0.00225662 -5.69845e-06)
(-3.36906e-05 0.00223325 -3.66523e-06)
(-9.00229e-05 0.00221958 -1.0918e-06)
(3.24556e-05 0.00226861 1.03898e-06)
(-8.0267e-05 0.00224559 -7.71925e-06)
(-9.29209e-05 0.0126098 -5.70953e-05)
(6.4175e-05 0.00579962 1.67076e-06)
(6.05075e-05 0.0053772 -1.53704e-05)
(0.000134786 0.00250247 -3.61983e-05)
(2.11739e-05 0.00236964 -1.67241e-05)
(-5.07019e-05 0.00224923 -4.2097e-06)
(-3.34133e-05 0.00222762 -1.39412e-06)
(-2.59144e-05 0.00225592 6.16737e-07)
(-4.0512e-06 0.00225064 -2.82531e-07)
(-7.15193e-06 0.0023055 -8.87649e-06)
(-6.3286e-05 0.00229497 -9.09333e-06)
(-3.42471e-05 0.00228341 1.02055e-06)
(-8.20634e-06 0.00230488 4.27418e-06)
(3.13208e-05 0.00233766 -4.68565e-06)
(9.37765e-05 0.00177376 1.09731e-06)
(9.79461e-05 0.00173037 -1.45454e-06)
(0.000110988 0.00172992 1.78333e-05)
(8.53612e-05 0.00170485 8.2934e-05)
(7.15051e-05 0.000996801 3.22341e-05)
(4.64015e-05 0.00225155 8.74564e-06)
(5.51599e-05 0.0022478 3.40829e-06)
(3.65063e-05 0.00228626 -3.89858e-06)
(-1.10882e-05 0.00228153 -4.63705e-06)
(-3.64129e-05 0.00227928 -5.69064e-06)
(-5.24823e-05 0.00224891 -5.83832e-06)
(-7.86031e-05 0.00221495 3.92287e-06)
(7.05886e-06 0.00229002 1.37579e-05)
(-3.53298e-05 0.00221966 6.94234e-06)
(-4.27241e-05 0.0127568 -5.21696e-05)
(4.52934e-05 0.00581911 -1.48479e-05)
(4.29483e-05 0.00531212 -3.3531e-05)
(9.89963e-05 0.00264825 -4.09107e-05)
(2.05229e-05 0.00236835 -1.59533e-05)
(-3.5235e-05 0.00223043 -2.86819e-06)
(3.80283e-06 0.00221757 -4.54691e-06)
(-7.29985e-06 0.0022487 -3.09961e-06)
(3.26169e-05 0.00225014 8.63605e-06)
(3.69368e-05 0.00224606 -2.46993e-06)
(-4.20843e-05 0.00230076 -7.09099e-06)
(-1.98354e-05 0.00230923 -1.72317e-06)
(2.35364e-05 0.00231225 -1.65575e-06)
(1.46123e-05 0.00202777 -3.95171e-05)
(2.17374e-05 0.0006965 4.05309e-05)
(-6.21287e-06 0.000611401 1.63466e-06)
(-8.2431e-06 0.000593571 3.28631e-06)
(-4.88696e-06 0.000599161 1.65689e-07)
(2.21015e-05 0.000359079 2.0687e-06)
(4.62635e-05 0.00228268 1.22656e-05)
(6.23089e-05 0.00229282 2.74596e-06)
(2.90643e-05 0.00229473 -3.19817e-06)
(-2.20189e-05 0.00229095 -1.23144e-06)
(-5.81151e-05 0.0022858 -2.44739e-06)
(-7.98049e-05 0.00226347 -6.0529e-06)
(-6.64188e-05 0.00220921 5.52163e-06)
(-4.91555e-05 0.00230621 2.20866e-05)
(5.91719e-05 0.00222386 2.62207e-05)
(3.75929e-05 0.0127718 -3.84237e-05)
(-4.30688e-05 0.00587097 -2.43936e-05)
(1.57271e-05 0.00530677 -4.54865e-05)
(4.58616e-05 0.00301467 -4.59556e-05)
(1.19735e-05 0.00239012 -6.7746e-06)
(1.66056e-06 0.00223137 -1.13322e-06)
(4.3154e-05 0.00221869 -4.95915e-06)
(1.59291e-05 0.00223839 4.18757e-07)
(2.5138e-05 0.002233 1.62896e-05)
(5.31483e-05 0.00218818 2.19625e-05)
(8.47279e-06 0.00218592 2.30481e-06)
(-6.02945e-06 0.002273 -2.54976e-06)
(3.4178e-05 0.00227377 -2.31077e-06)
(1.64758e-05 0.00135979 -9.02053e-06)
(1.56151e-06 0.000111455 5.10852e-08)
(-7.61062e-06 2.08575e-05 2.85809e-08)
(-9.27828e-06 1.15006e-05 2.35557e-08)
(-9.14056e-06 1.32867e-05 3.66111e-08)
(1.31248e-05 9.9006e-05 2.32766e-07)
(4.29094e-05 0.00172745 2.93373e-05)
(7.29622e-05 0.00228732 2.37325e-06)
(2.93812e-05 0.0022995 -3.78639e-06)
(-3.5196e-05 0.00229193 2.44754e-06)
(-7.51767e-05 0.00229064 2.85332e-06)
(-0.000119143 0.00227361 -2.1089e-06)
(-6.71732e-05 0.00221484 1.15096e-06)
(-0.000101544 0.00230428 2.36103e-05)
(0.000134802 0.00230262 4.523e-05)
(0.000125198 0.0127109 -8.20521e-06)
(-9.59429e-05 0.00599574 -1.90108e-05)
(5.90611e-06 0.00534975 -3.87032e-05)
(4.83944e-06 0.00354365 -4.83939e-05)
(-1.10268e-05 0.00243297 8.55553e-07)
(3.70371e-05 0.0022718 -3.00971e-06)
(5.63793e-05 0.00225455 3.57433e-07)
(1.90413e-05 0.00226328 1.24006e-05)
(-8.53603e-06 0.00225647 2.26109e-05)
(1.10905e-05 0.00220579 5.62205e-05)
(6.52717e-05 0.00215294 4.46384e-05)
(8.41326e-05 0.00231565 -7.34127e-07)
(4.27054e-05 0.00228897 -3.67191e-06)
(2.92238e-05 0.00094623 -1.31351e-05)
(1.5513e-06 8.5283e-05 -1.24512e-07)
(-9.15349e-06 1.96957e-05 3.53959e-09)
(-1.02922e-05 1.11385e-05 1.5021e-08)
(-1.02099e-05 9.66002e-06 2.64054e-09)
(-9.76691e-06 1.1324e-05 1.6651e-08)
(8.82231e-06 0.000581734 4.33902e-06)
(6.17921e-05 0.00174052 2.41242e-06)
(2.8932e-05 0.00230578 -3.63022e-06)
(-4.60174e-05 0.00230794 5.97734e-06)
(-7.89307e-05 0.00220123 1.77822e-05)
(-0.000143807 0.0022925 1.12585e-05)
(-7.16355e-05 0.00227757 1.45181e-06)
(-9.75979e-05 0.00225442 1.28091e-05)
(7.74856e-05 0.00239508 4.71451e-05)
(9.47912e-05 0.0126571 1.89897e-05)
(-5.55686e-05 0.00619311 -1.01659e-05)
(3.46225e-06 0.00539015 -2.88159e-05)
(-2.07125e-05 0.00415984 -5.15687e-05)
(-2.54381e-05 0.00248116 -1.50228e-07)
(5.82609e-05 0.00234448 -5.88648e-06)
(5.72897e-05 0.0023257 4.47813e-06)
(2.3414e-05 0.00231492 3.04273e-05)
(-3.36539e-05 0.00232017 2.75677e-05)
(-4.6359e-05 0.00231583 6.79562e-05)
(0.000132036 0.00227849 9.19282e-05)
(0.000155562 0.00228766 4.03836e-06)
(2.19951e-05 0.00177576 -3.59872e-06)
(2.34065e-05 0.000468188 -2.50926e-06)
(-1.36564e-05 4.7295e-05 -4.81384e-08)
(-1.21312e-05 1.49202e-05 -1.11922e-07)
(-1.20656e-05 1.02473e-05 -3.20424e-09)
(-1.07754e-05 8.93173e-06 -5.73352e-08)
(-1.06413e-05 7.86308e-06 -1.06901e-07)
(-1.0199e-05 7.69866e-06 -1.57785e-08)
(9.54886e-06 0.000595535 7.46161e-06)
(-1.33694e-05 0.00231027 -3.55807e-06)
(-5.13591e-05 0.00193181 9.85112e-06)
(-8.0887e-05 0.00167278 1.82358e-05)
(-0.000145484 0.00194646 0.000131805)
(-9.32913e-05 0.00235745 1.99249e-06)
(-6.8744e-05 0.00221925 -9.69685e-07)
(-4.21512e-06 0.00244586 3.51714e-05)
(3.53792e-05 0.0125644 3.0147e-05)
(3.3437e-05 0.00641623 -2.77677e-06)
(3.32945e-05 0.00536996 -1.30123e-05)
(2.05412e-07 0.00479205 -6.42648e-05)
(-3.84051e-06 0.00249549 -9.57159e-06)
(5.73411e-05 0.00242048 -1.03778e-05)
(4.33939e-05 0.00240216 3.36051e-06)
(7.666e-06 0.00238318 8.15131e-05)
(-3.72514e-05 0.00193784 2.78512e-05)
(-6.65982e-05 0.00181267 3.83049e-05)
(4.66516e-05 0.00177865 9.17579e-05)
(0.00010169 0.00171825 9.60231e-06)
(-7.18057e-06 0.000665097 1.9669e-06)
(-2.08087e-05 7.99993e-05 1.91333e-07)
(-1.79114e-05 1.70304e-05 -2.41179e-08)
(-1.39811e-05 1.07189e-05 1.02811e-07)
(-1.29084e-05 8.91214e-06 -1.05629e-07)
(-1.11215e-05 8.55797e-06 1.20548e-07)
(-1.09763e-05 8.15154e-06 4.80986e-08)
(-1.08835e-05 7.67904e-06 -9.7137e-08)
(2.70997e-05 7.45126e-06 2.34583e-07)
(1.45462e-05 0.00174209 5.74581e-06)
(-1.97032e-05 0.000947373 6.23383e-06)
(-2.30521e-05 0.000889504 8.64939e-07)
(-6.1984e-05 0.00111726 0.000191191)
(-9.31465e-05 0.00243916 -2.11745e-06)
(-3.94986e-05 0.00227577 -8.24936e-06)
(-6.66187e-05 0.00245721 1.61607e-05)
(-5.34953e-05 0.0123297 2.20134e-05)
(5.50545e-05 0.00665063 5.31038e-06)
(6.58567e-05 0.00526726 -3.77613e-06)
(2.68279e-05 0.00540372 -7.2786e-05)
(2.5229e-05 0.00243136 -1.03317e-05)
(5.31447e-05 0.00246447 -1.3992e-05)
(3.35268e-05 0.00244074 2.5889e-06)
(1.46316e-05 0.0024459 0.000272011)
(-5.79866e-06 0.00152351 8.84659e-06)
(8.49604e-06 0.000619592 5.07018e-06)
(-3.7348e-05 0.000582344 3.11948e-06)
(-4.718e-05 0.000600776 7.76261e-08)
(-3.36475e-05 4.45102e-05 -1.65403e-08)
(-2.39344e-05 8.71878e-06 -5.3017e-09)
(-1.87379e-05 6.86864e-06 -3.12097e-08)
(-1.51249e-05 7.91911e-06 3.93886e-08)
(-1.29836e-05 7.59606e-06 -6.35846e-08)
(-1.12254e-05 7.02565e-06 -5.2423e-08)
(-1.0401e-05 7.56812e-06 2.80284e-08)
(-1.00539e-05 8.07677e-06 -2.67407e-08)
(-1.11844e-05 9.37953e-06 -1.66666e-07)
(-8.68714e-06 0.000587398 -3.57617e-07)
(-1.71555e-06 0.000185421 2.43002e-07)
(-4.58243e-06 0.000736727 -3.45757e-07)
(-1.05632e-05 0.00108686 1.62358e-05)
(-0.000101532 0.00252536 8.26611e-05)
(-3.44051e-05 0.00239874 -4.76167e-06)
(-0.000103702 0.0024438 -5.58664e-07)
(-9.82013e-05 0.0118621 9.76278e-06)
(2.63625e-05 0.00677511 8.08451e-06)
(8.91664e-05 0.00509313 1.71556e-06)
(5.56418e-05 0.00598164 -7.25848e-05)
(3.86473e-05 0.00236537 -7.09527e-06)
(5.21951e-05 0.00247931 -1.44238e-05)
(2.46891e-05 0.00244723 6.66916e-06)
(-2.78599e-05 0.00245531 0.000259319)
(-4.97129e-05 0.00199019 4.85097e-07)
(-1.46619e-05 1.86196e-06 3.86569e-06)
(-3.31938e-05 -1.98796e-05 2.7095e-06)
(-4.14581e-05 -7.90689e-06 -2.44955e-07)
(-2.75806e-05 -5.7282e-06 -2.16288e-07)
(-1.89432e-05 -1.0861e-06 -1.18227e-07)
(-1.59801e-05 2.39287e-06 -5.88104e-08)
(-1.23617e-05 4.61088e-06 -8.29807e-08)
(-1.21346e-05 5.36754e-06 3.3228e-08)
(-1.01642e-05 5.47552e-06 -9.50077e-08)
(-9.29254e-06 6.73155e-06 -9.77493e-08)
(-7.82923e-06 8.53039e-06 2.58343e-08)
(-1.00409e-05 1.27217e-05 -5.98981e-08)
(-4.12739e-06 1.68881e-05 -8.26467e-07)
(1.80816e-05 1.37597e-05 -1.44242e-07)
(2.00619e-05 0.00139919 -7.92655e-06)
(-1.7394e-06 0.00199612 -1.92147e-05)
(-0.00012192 0.00259435 0.000357242)
(-3.71945e-05 0.0024622 -5.2492e-06)
(-0.000113785 0.00242461 -1.3134e-05)
(-0.000161694 0.0112061 -3.05149e-06)
(-5.98936e-05 0.00678142 3.80945e-06)
(0.000104659 0.00485904 2.70288e-06)
(8.30096e-05 0.00630539 -7.62483e-05)
(3.47927e-05 0.00230115 -3.98457e-06)
(5.26842e-05 0.00246789 -1.20853e-05)
(1.23413e-05 0.00243748 8.92014e-06)
(-4.62612e-05 0.00241736 -2.42509e-07)
(-6.83518e-05 0.00241681 -2.57032e-06)
(-2.5401e-05 -1.41399e-05 1.47785e-05)
(-3.42421e-05 -4.89596e-05 3.83955e-06)
(-3.89943e-05 -2.54253e-05 2.45742e-07)
(-2.56825e-05 -1.44059e-05 -7.44505e-08)
(-1.65165e-05 -7.43409e-06 1.86333e-07)
(-1.2714e-05 -5.31501e-07 7.58401e-08)
(-1.1068e-05 3.59832e-06 3.25882e-07)
(-1.10452e-05 4.88819e-06 1.76266e-07)
(-8.61691e-06 4.70686e-06 -1.72606e-07)
(-7.19164e-06 5.70765e-06 -3.91966e-08)
(-4.54975e-06 7.44803e-06 -2.1523e-09)
(-4.25593e-06 8.60967e-06 3.5461e-07)
(6.17845e-06 7.03475e-06 1.67425e-07)
(4.48661e-05 1.34886e-05 7.43437e-06)
(5.63179e-05 0.00212514 -6.523e-06)
(2.26631e-05 0.00242053 -1.35261e-05)
(-2.12224e-05 0.00242667 2.71676e-06)
(-3.64886e-05 0.00243223 -2.35207e-06)
(-0.000129502 0.0023848 -1.64593e-05)
(-0.000197923 0.0106381 -1.7572e-05)
(-0.000105725 0.00672096 -9.05028e-07)
(9.17521e-05 0.00453458 3.81508e-06)
(9.30095e-05 0.00631139 -7.7308e-05)
(4.19941e-05 0.00224005 -8.90825e-06)
(4.83225e-05 0.00240532 -9.84293e-06)
(-2.63656e-06 0.002397 4.74429e-06)
(-5.84838e-05 0.00236604 -6.713e-06)
(-9.39568e-05 0.00237449 -2.13872e-06)
(-5.86999e-05 2.68232e-05 4.73198e-05)
(-3.76026e-05 -6.02755e-05 1.07841e-06)
(-3.56962e-05 -2.99628e-05 -2.06115e-06)
(-1.65837e-05 -1.91519e-05 -5.42271e-07)
(-2.44187e-05 -1.2076e-05 6.66586e-08)
(-1.52688e-05 -4.99498e-06 3.17553e-07)
(-1.73872e-05 -8.6575e-07 1.0284e-06)
(-1.62322e-05 1.82723e-06 6.19398e-07)
(-1.54329e-05 5.47178e-06 -2.95244e-07)
(-8.82503e-06 5.8004e-06 -1.53017e-07)
(-6.33746e-06 5.08562e-06 9.54115e-08)
(-2.04853e-06 2.33025e-06 -2.50939e-07)
(1.43427e-05 -5.8579e-07 -1.42475e-07)
(6.84489e-05 1.27718e-05 5.65587e-05)
(8.40151e-05 0.00234859 -4.77972e-06)
(4.39096e-05 0.00233408 -1.17798e-05)
(1.99932e-06 0.00235436 -1.16769e-05)
(-3.35613e-05 0.00235665 -6.45945e-08)
(-0.00013575 0.00229724 -1.12861e-05)
(-0.000202193 0.0105225 -2.15911e-05)
(-0.000131079 0.00659095 -9.91671e-06)
(6.80943e-05 0.0041187 -5.19474e-08)
(7.61238e-05 0.00615184 -7.26165e-05)
(1.92461e-05 0.0022386 -1.04859e-05)
(2.63785e-05 0.00233426 -6.40298e-06)
(-2.94474e-06 0.00234394 -2.30753e-06)
(-3.21329e-05 0.00231919 -4.03887e-06)
(-6.13907e-05 0.0023408 -1.17203e-06)
(-4.96003e-05 9.66736e-05 8.25397e-05)
(-3.37384e-05 -4.59905e-05 -2.15713e-07)
(-3.24517e-05 -2.34355e-05 -7.14093e-07)
(-1.23187e-05 -1.3396e-05 -5.76028e-07)
(-1.53274e-05 -7.97208e-06 -3.95679e-06)
(-1.13651e-05 -8.29145e-06 -3.98878e-08)
(-1.07236e-05 -6.85797e-06 -4.39488e-07)
(-5.31563e-06 -2.1975e-06 -1.02398e-07)
(-6.03123e-06 1.44238e-06 5.54895e-07)
(-4.72646e-06 1.04589e-06 3.85774e-07)
(-4.88475e-06 1.583e-06 7.94513e-08)
(4.08503e-06 -1.13663e-06 -6.30755e-07)
(1.91518e-05 -7.87812e-06 -2.839e-07)
(6.25965e-05 1.06649e-05 0.000129537)
(7.16388e-05 0.00228297 -7.38623e-06)
(1.48677e-05 0.00224764 -6.07983e-06)
(-1.51649e-05 0.00227135 -6.19722e-06)
(-2.46783e-05 0.00226148 3.97566e-06)
(-0.000103529 0.00218301 3.79025e-06)
(-0.00016514 0.0106394 -3.87133e-05)
(-0.000118845 0.0064493 -1.52915e-05)
(4.11282e-05 0.0036388 -1.47049e-06)
(4.59721e-05 0.00590992 -7.32939e-05)
(-8.72729e-09 0.00226035 -6.70776e-06)
(1.4194e-05 0.00229773 -6.61451e-06)
(-2.46822e-06 0.00231977 -4.19602e-06)
(-2.44568e-05 0.00230288 -1.3152e-07)
(-3.78053e-05 0.00232061 -3.38594e-07)
(-3.75779e-05 0.000147877 9.28536e-05)
(-2.44189e-05 -4.02947e-05 -1.27095e-07)
(-1.57768e-05 -2.08459e-05 -6.23105e-07)
(-8.65642e-06 -1.26156e-05 -3.3637e-07)
(-8.25803e-06 -8.33201e-06 2.94775e-06)
(-4.81713e-06 -8.05327e-06 -1.09413e-08)
(-6.58626e-06 -5.23426e-06 1.63627e-07)
(-6.76097e-06 -4.28442e-06 1.31601e-07)
(-5.36561e-06 -3.49526e-06 -7.40999e-08)
(-2.30126e-06 -2.92404e-06 -3.15824e-08)
(-1.10885e-06 -3.36551e-06 1.03281e-07)
(5.65051e-06 -8.33982e-06 -3.11785e-07)
(2.10118e-05 -1.78095e-05 5.25088e-08)
(3.96896e-05 1.64311e-05 0.000149978)
(3.4425e-05 0.00223991 -6.34267e-06)
(-1.71978e-06 0.00221082 -7.62821e-07)
(-1.00345e-05 0.00223405 -2.09712e-06)
(-2.05748e-05 0.00222176 3.30206e-06)
(-4.47218e-05 0.00203113 2.14624e-05)
(-6.28851e-05 0.0106531 -4.66484e-05)
(-6.25566e-05 0.00633001 -9.67582e-06)
(2.40452e-05 0.00319152 -2.95902e-06)
(3.54389e-05 0.00555416 -6.42171e-05)
(2.33278e-06 0.00229844 -5.91262e-06)
(6.71954e-06 0.00232462 -8.18371e-06)
(-8.55756e-06 0.00231687 -2.45148e-06)
(-1.41484e-05 0.00232012 1.47766e-06)
(-7.04444e-06 0.00232345 -7.20292e-07)
(-2.17507e-05 0.000149808 6.1197e-05)
(-1.56622e-05 -3.79908e-05 -9.63931e-08)
(-1.26069e-05 -2.54997e-05 -2.66416e-07)
(-7.31004e-06 -1.5058e-05 -1.75412e-07)
(-4.40332e-06 -1.02172e-05 1.27261e-07)
(-3.66233e-06 -8.1298e-06 1.25604e-07)
(-4.70941e-06 -6.98631e-06 2.31614e-08)
(-4.25937e-06 -5.99904e-06 1.09505e-07)
(-3.377e-06 -5.25466e-06 2.29015e-08)
(-9.09245e-07 -7.13172e-06 6.76459e-08)
(2.06219e-07 -7.64318e-06 -3.37341e-08)
(5.66586e-06 -1.68033e-05 -2.48171e-07)
(1.39299e-05 -2.57184e-05 2.12545e-07)
(1.87685e-05 2.78961e-05 6.24117e-05)
(9.91452e-06 0.00220874 -4.70523e-06)
(-7.70379e-06 0.0022098 -3.86406e-07)
(-9.06552e-06 0.00221769 -1.47795e-06)
(-2.72791e-05 0.00222121 -1.35543e-06)
(2.77867e-05 0.00195665 1.84825e-05)
(-6.11128e-06 0.0106391 -5.91973e-05)
(-6.26826e-05 0.00628293 -3.26674e-06)
(1.99381e-05 0.00281699 -3.24169e-06)
(3.54886e-05 0.00512197 -5.93715e-05)
(3.89959e-06 0.0023156 -7.0726e-06)
(6.71961e-07 0.00233731 -7.11581e-06)
(-1.16912e-05 0.00231687 -1.23113e-06)
(-1.37846e-05 0.00233443 4.41673e-07)
(-1.01635e-05 0.00232064 3.3223e-08)
(-1.57359e-05 9.62834e-05 3.15365e-05)
(-9.75687e-06 -3.51412e-05 -2.73509e-07)
(-8.10258e-06 -2.59756e-05 -2.23081e-07)
(-5.23881e-06 -1.43175e-05 -6.20389e-08)
(-4.78102e-06 -1.01293e-05 -2.57725e-07)
(-3.59262e-06 -1.08716e-05 -5.36818e-08)
(-2.52026e-06 -9.31794e-06 -1.68417e-08)
(-1.16277e-06 -8.82056e-06 -5.61505e-08)
(-1.74904e-07 -7.77097e-06 1.20161e-07)
(-2.25314e-07 -6.56778e-06 -2.81943e-08)
(7.75934e-07 -9.87838e-06 9.22181e-08)
(4.80461e-06 -2.13301e-05 -1.06997e-07)
(7.36919e-06 -3.25621e-05 3.99752e-07)
(9.42016e-06 2.98221e-05 8.70854e-06)
(-3.14209e-06 0.0021983 2.94316e-07)
(6.07622e-06 0.00221678 9.13196e-07)
(8.85897e-06 0.0022099 -1.25431e-06)
(-2.42629e-05 0.00224596 -4.65821e-06)
(9.20992e-05 0.00206162 -2.32163e-06)
(4.31029e-05 0.0107257 -7.02942e-05)
(-3.41513e-05 0.00623108 6.23294e-06)
(1.64036e-05 0.00250946 -4.44976e-06)
(3.23979e-05 0.00472047 -5.2972e-05)
(1.03255e-05 0.00233211 -8.65361e-06)
(-3.87441e-06 0.00233265 -6.54752e-06)
(-1.61011e-05 0.00231761 -1.47669e-06)
(-9.8947e-06 0.00232915 -1.22035e-06)
(-1.43039e-05 0.00232316 -5.94951e-07)
(-7.20463e-06 3.07792e-05 6.46667e-06)
(-5.50855e-06 -2.9223e-05 -2.13056e-07)
(-4.97473e-06 -2.61607e-05 -1.23716e-07)
(-4.1448e-06 -1.68077e-05 -2.60338e-08)
(-2.64798e-06 -1.2891e-05 -6.62484e-08)
(-1.52117e-06 -1.06196e-05 7.53372e-08)
(-1.51502e-06 -9.48016e-06 4.96446e-08)
(-1.31047e-06 -8.94825e-06 1.13023e-07)
(-1.1497e-06 -9.35877e-06 -1.78962e-08)
(2.30148e-07 -1.12736e-05 6.48757e-08)
(1.05817e-06 -1.40458e-05 2.99994e-08)
(9.12627e-07 -2.40779e-05 2.2961e-09)
(-5.17241e-07 -3.71658e-05 3.77308e-07)
(-2.82372e-08 1.74336e-05 -2.75816e-06)
(-1.42292e-05 0.00224269 -1.85239e-06)
(9.6686e-06 0.00226708 1.18673e-06)
(3.0866e-05 0.00224435 -1.56614e-06)
(-4.44745e-06 0.00226651 -3.74749e-06)
(7.10607e-05 0.00221883 -1.17227e-05)
(-4.31741e-06 0.0108111 -6.47048e-05)
(-4.66866e-05 0.00605526 1.69625e-05)
(2.12253e-05 0.00229528 -7.15864e-06)
(2.84906e-05 0.00434083 -4.61082e-05)
(1.71449e-05 0.00233327 -1.22353e-05)
(-1.2811e-05 0.00231782 -6.11814e-06)
(-2.31504e-05 0.00233294 -4.12381e-06)
(-7.17242e-06 0.00232269 -1.93145e-06)
(-1.10535e-05 0.00190207 -2.11657e-06)
(-2.35513e-06 -1.00961e-05 3.77287e-07)
(-1.84165e-06 -3.3208e-05 1.18415e-07)
(-3.09155e-06 -2.8417e-05 5.37053e-08)
(-3.31383e-06 -1.81171e-05 1.66139e-08)
(-2.88955e-06 -1.32305e-05 -2.18598e-08)
(-1.98908e-06 -1.24241e-05 -4.80108e-08)
(-7.91259e-07 -1.11816e-05 -3.78053e-08)
(2.36576e-07 -1.09856e-05 -3.52831e-08)
(1.16226e-06 -1.1227e-05 8.19758e-08)
(7.86419e-07 -1.18038e-05 5.37107e-08)
(1.26387e-06 -1.58711e-05 8.75219e-08)
(4.14128e-07 -2.5708e-05 3.56758e-08)
(-2.77827e-06 -4.24064e-05 8.53178e-08)
(-3.35371e-06 -3.92865e-06 2.81067e-07)
(-5.84282e-06 0.00228568 -2.76418e-06)
(7.91588e-06 0.00230764 -4.68168e-07)
(2.56063e-05 0.00229195 -2.67665e-06)
(1.24247e-05 0.00227946 -2.48277e-06)
(3.09913e-05 0.00227354 -1.23393e-05)
(-6.06625e-05 0.0106746 -6.10819e-05)
(-4.63795e-05 0.005144 2.62627e-06)
(2.9299e-05 0.00226759 -5.27997e-06)
(2.28595e-05 0.00399964 -3.86211e-05)
(2.15615e-05 0.00228218 -9.89358e-06)
(-3.20649e-06 0.0022552 -3.98793e-06)
(-2.61006e-05 0.00117774 3.96336e-06)
(-5.86076e-06 0.00117246 5.8495e-05)
(-1.99831e-06 0.000728928 5.68475e-06)
(9.70328e-07 -2.41083e-05 3.123e-08)
(-3.90602e-07 -3.6466e-05 2.77875e-07)