/*--------------------------------*- C++ -*----------------------------------*\
| =========                 |                                                 |
| \\      /  F ield         | OpenFOAM: The Open Source CFD Toolbox           |
|  \\    /   O peration     | Version:  2.3.0                                 |
|   \\  /    A nd           | Web:      www.OpenFOAM.org                      |
|    \\/     M anipulation  |                                                 |
\*---------------------------------------------------------------------------*/
FoamFile
{
    version     2.0;
    format      ascii;
    class       volScalarField;
    location    "0.008";
    object      nut;
}
// * * * * * * * * * * * * * * * * * * * * * * * * * * * * * * * * * * * * * //

dimensions      [0 2 -1 0 0 0 0];

internalField   nonuniform List<scalar> 
545
(
6.64526
6.32814
5.8221
5.38551
5.08668
6.77384
6.34274
5.80661
5.35885
5.03677
6.99493
6.35461
5.76949
5.30357
4.9475
7.32925
6.345
5.70991
5.22444
4.81101
7.82484
6.29059
5.64136
5.13964
4.61872
4.9339
4.85041
4.82378
4.81533
4.8126
4.81167
4.81129
4.81109
4.81095
4.81082
4.81071
4.8106
4.8105
4.8104
4.8103
4.81021
4.81012
4.81003
4.80995
4.80987
4.80979
4.80972
4.80965
4.80958
4.80952
4.80946
4.8094
4.80935
4.8093
4.80925
4.80921
4.80917
4.80913
4.80909
4.80906
4.80903
4.80901
4.80898
4.80896
4.80895
4.80893
4.80892
4.80891
4.80891
4.80891
4.8957
4.83871
4.82008
4.81416
4.81224
4.81155
4.81125
4.81107
4.81094
4.81082
4.8107
4.8106
4.81049
4.81039
4.81029
4.8102
4.81011
4.81002
4.80994
4.80986
4.80979
4.80971
4.80964
4.80958
4.80951
4.80945
4.8094
4.80934
4.80929
4.80925
4.8092
4.80916
4.80912
4.80909
4.80906
4.80903
4.809
4.80898
4.80896
4.80894
4.80893
4.80892
4.80891
4.8089
4.8089
4.84011
4.81912
4.8138
4.81219
4.81162
4.81135
4.81119
4.81105
4.81093
4.81081
4.8107
4.81059
4.81049
4.81039
4.81029
4.8102
4.81011
4.81002
4.80994
4.80986
4.80978
4.80971
4.80964
4.80957
4.80951
4.80945
4.80939
4.80934
4.80929
4.80924
4.8092
4.80916
4.80912
4.80908
4.80905
4.80902
4.809
4.80897
4.80895
4.80894
4.80892
4.80891
4.8089
4.8089
4.8089
4.76781
4.79625
4.80675
4.81001
4.81094
4.81114
4.81112
4.81103
4.81092
4.81081
4.8107
4.81059
4.81048
4.81038
4.81029
4.81019
4.8101
4.81002
4.80994
4.80986
4.80978
4.80971
4.80964
4.80957
4.80951
4.80945
4.80939
4.80934
4.80929
4.80924
4.8092
4.80916
4.80912
4.80908
4.80905
4.80902
4.80899
4.80897
4.80895
4.80893
4.80892
4.80891
4.8089
4.8089
4.80889
4.68352
4.77691
4.80116
4.80831
4.81041
4.81098
4.81107
4.81101
4.81091
4.8108
4.81069
4.81059
4.81048
4.81038
4.81029
4.81019
4.8101
4.81002
4.80993
4.80985
4.80978
4.80971
4.80964
4.80957
4.80951
4.80945
4.80939
4.80934
4.80929
4.80924
4.80919
4.80915
4.80912
4.80908
4.80905
4.80902
4.80899
4.80897
4.80895
4.80893
4.80892
4.80891
4.8089
4.80889
4.80889
4.69288
4.77103
4.79889
4.80758
4.81019
4.81091
4.81104
4.811
4.81091
4.8108
4.81069
4.81059
4.81048
4.81038
4.81029
4.81019
4.8101
4.81002
4.80993
4.80985
4.80978
4.80971
4.80964
4.80957
4.80951
4.80945
4.80939
4.80934
4.80929
4.80924
4.80919
4.80915
4.80912
4.80908
4.80905
4.80902
4.80899
4.80897
4.80895
4.80893
4.80892
4.80891
4.8089
4.80889
4.80889
7.82484
6.29059
5.64136
5.13964
4.61872
7.32925
6.345
5.70991
5.22444
4.81101
6.99493
6.35461
5.76949
5.30357
4.9475
6.77384
6.34274
5.80661
5.35885
5.03677
6.64526
6.32814
5.8221
5.3855
5.08668
4.68352
4.77691
4.80116
4.80831
4.81041
4.81098
4.81107
4.81101
4.81091
4.8108
4.81069
4.81059
4.81048
4.81038
4.81029
4.81019
4.8101
4.81002
4.80993
4.80985
4.80978
4.80971
4.80964
4.80957
4.80951
4.80945
4.80939
4.80934
4.80929
4.80924
4.80919
4.80915
4.80912
4.80908
4.80905
4.80902
4.80899
4.80897
4.80895
4.80893
4.80892
4.80891
4.8089
4.80889
4.80889
4.76781
4.79625
4.80675
4.81001
4.81094
4.81114
4.81112
4.81103
4.81092
4.81081
4.8107
4.81059
4.81048
4.81038
4.81029
4.81019
4.8101
4.81002
4.80994
4.80986
4.80978
4.80971
4.80964
4.80957
4.80951
4.80945
4.80939
4.80934
4.80929
4.80924
4.8092
4.80916
4.80912
4.80908
4.80905
4.80902
4.80899
4.80897
4.80895
4.80893
4.80892
4.80891
4.8089
4.8089
4.80889
4.84011
4.81912
4.8138
4.81219
4.81162
4.81135
4.81119
4.81105
4.81093
4.81081
4.8107
4.81059
4.81049
4.81039
4.81029
4.8102
4.81011
4.81002
4.80994
4.80986
4.80978
4.80971
4.80964
4.80957
4.80951
4.80945
4.80939
4.80934
4.80929
4.80924
4.8092
4.80916
4.80912
4.80908
4.80905
4.80902
4.809
4.80897
4.80895
4.80894
4.80892
4.80891
4.8089
4.8089
4.8089
4.8957
4.83871
4.82008
4.81416
4.81224
4.81155
4.81125
4.81107
4.81094
4.81082
4.8107
4.8106
4.81049
4.81039
4.81029
4.8102
4.81011
4.81002
4.80994
4.80986
4.80979
4.80971
4.80964
4.80958
4.80951
4.80945
4.8094
4.80934
4.80929
4.80925
4.8092
4.80916
4.80912
4.80909
4.80906
4.80903
4.809
4.80898
4.80896
4.80894
4.80893
4.80892
4.80891
4.8089
4.8089
4.9339
4.8504
4.82378
4.81533
4.8126
4.81167
4.81129
4.81109
4.81095
4.81082
4.81071
4.8106
4.8105
4.8104
4.8103
4.81021
4.81012
4.81003
4.80995
4.80987
4.80979
4.80972
4.80965
4.80958
4.80952
4.80946
4.8094
4.80935
4.8093
4.80925
4.80921
4.80917
4.80913
4.80909
4.80906
4.80903
4.80901
4.80898
4.80896
4.80895
4.80893
4.80892
4.80891
4.80891
4.8089
)
;

boundaryField
{
    AirInlet
    {
        type            fixedValue;
        value           uniform 0;
    }
    WaterInlet
    {
        type            fixedValue;
        value           uniform 0;
    }
    ChannelWall
    {
        type            fixedValue;
        value           uniform 0;
    }
    Outlet
    {
        type            calculated;
        value           nonuniform List<scalar> 
11
(
4.80891
4.8089
4.8089
4.80889
4.80889
4.80889
4.80889
4.80889
4.8089
4.8089
4.8089
)
;
    }
    FrontAndBack
    {
        type            empty;
    }
}


// ************************************************************************* //
