/*--------------------------------*- C++ -*----------------------------------*\
| =========                 |                                                 |
| \\      /  F ield         | OpenFOAM: The Open Source CFD Toolbox           |
|  \\    /   O peration     | Version:  2.3.0                                 |
|   \\  /    A nd           | Web:      www.OpenFOAM.org                      |
|    \\/     M anipulation  |                                                 |
\*---------------------------------------------------------------------------*/
FoamFile
{
    version     2.0;
    format      ascii;
    class       surfaceScalarField;
    location    "78";
    object      phi.air;
}
// * * * * * * * * * * * * * * * * * * * * * * * * * * * * * * * * * * * * * //

dimensions      [0 3 -1 0 0 0 0];

internalField   nonuniform List<scalar> 
3650
(
1.40788e-05
0.000117647
5.99085e-05
0.000113791
0.00011884
0.000113361
0.000176063
0.00011538
0.000227837
0.000118808
0.000272194
0.000123072
0.000308157
0.000127782
0.000335536
0.000132758
0.000354417
0.000137939
0.000364851
0.000143379
0.000367108
0.000149074
0.000362072
0.000154919
0.000348779
0.000160869
0.000325722
0.000166825
0.000294281
0.000172293
0.000256626
0.000177242
0.000216217
0.000181246
0.00017622
0.000183662
0.000139833
0.000184107
0.000109891
0.000182819
8.75186e-05
0.000180374
7.09646e-05
0.000177792
4.73194e-05
0.000176402
1.33674e-05
0.000176945
0.000176847
4.80167e-05
8.00754e-05
0.000100276
8.17306e-05
0.00015022
8.46982e-05
0.000192779
8.9933e-05
0.00023058
9.64677e-05
0.000263541
0.000103903
0.000291299
0.000112062
0.000313384
0.00012083
0.000329266
0.000130163
0.000338349
0.0001399
0.000339457
0.00015027
0.000331693
0.000161173
0.000318278
0.000172308
0.000299493
0.000183975
0.000275081
0.000195558
0.000246632
0.000205764
0.00021639
0.000213108
0.000184082
0.000217319
0.000151033
0.000218924
0.000118858
0.000217795
8.81084e-05
0.000215008
5.84231e-05
0.000212476
3.01249e-05
0.000213017
8.43656e-06
0.000214038
0.000212941
5.17071e-05
4.76149e-05
0.000104845
5.3795e-05
0.000147172
6.11057e-05
0.000180068
6.95631e-05
0.000207281
7.92389e-05
0.000229808
9.00975e-05
0.000247622
0.00010193
0.000260455
0.000114544
0.000268155
0.000127736
0.000271111
0.000141419
0.00027034
0.000155582
0.000265607
0.000170107
0.000254086
0.000184894
0.000238095
0.000199832
0.000218044
0.000214399
0.00019332
0.000227562
0.000163875
0.000237729
0.000134373
0.000243793
0.000105897
0.000245643
7.91893e-05
0.000243578
5.53361e-05
0.000239038
3.55776e-05
0.00023421
1.95258e-05
0.000231394
7.67383e-06
0.000229516
0.000226378
5.3314e-05
2.71505e-05
8.79522e-05
3.37843e-05
0.000111225
4.24721e-05
0.000132247
5.24424e-05
0.00015038
6.40499e-05
0.000164164
7.71514e-05
0.000172929
9.14639e-05
0.000176552
0.000106714
0.000175837
0.000122622
0.000171277
0.000138999
0.000162955
0.000155782
0.000151575
0.000172914
0.000138267
0.000190298
0.000123078
0.000207677
0.000106379
0.000224365
8.81142e-05
0.000239261
6.92109e-05
0.000250861
5.28676e-05
0.000257445
3.84308e-05
0.000258737
2.64073e-05
0.000255411
1.69447e-05
0.00024929
9.60736e-06
0.000242666
3.55098e-06
0.000237418
7.09308e-07
0.000233798
0.000229734
4.21919e-05
1.51846e-05
5.30855e-05
2.18878e-05
5.87327e-05
3.1438e-05
7.03522e-05
4.27688e-05
8.00873e-05
5.61752e-05
8.46811e-05
7.12871e-05
8.42337e-05
8.77066e-05
7.93796e-05
0.000105052
7.09815e-05
0.000122935
5.97216e-05
0.000141079
4.61407e-05
0.00015937
3.05628e-05
0.000177723
1.36726e-05
0.000195969
-3.50897e-06
0.000213724
-1.92936e-05
0.000230193
-3.11981e-05
0.00024419
-3.71514e-05
0.000254186
-3.90095e-05
0.000258746
-3.71038e-05
0.000258201
-3.2183e-05
0.000253292
-2.58506e-05
0.000246026
-1.93974e-05
0.000238545
-1.17128e-05
0.000232498
-3.21129e-06
0.000228443
0.000224636
3.31592e-05
1.2418e-05
2.05644e-05
1.98189e-05
1.13608e-05
3.0532e-05
1.34457e-05
4.30118e-05
1.14273e-05
5.76847e-05
3.37278e-06
7.41322e-05
-8.51253e-06
9.18441e-05
-2.29526e-05
0.00011023
-3.94919e-05
0.000128743
-5.76396e-05
0.000147113
-7.6739e-05
0.000165209
-9.57359e-05
0.00018284
-0.000113322
0.00019974
-0.000127356
0.000215439
-0.000135193
0.000229124
-0.000134934
0.000239699
-0.000127219
0.000245974
-0.000114389
0.000247491
-9.73486e-05
0.000244933
-7.82867e-05
0.000239125
-5.96927e-05
0.000231786
-4.27789e-05
0.00022467
-2.47234e-05
0.000218988
-6.90535e-06
0.000215082
0.00021212
2.63627e-05
2.14182e-05
-6.36925e-06
2.92525e-05
-2.91644e-05
4.08569e-05
-3.89957e-05
5.40452e-05
-5.5366e-05
6.94269e-05
-7.62288e-05
8.64881e-05
-9.90448e-05
0.000104358
-0.000122874
0.00012225
-0.000146852
0.000139622
-0.000169959
0.000156105
-0.000190664
0.000171617
-0.000207168
0.000186257
-0.000217675
0.000199647
-0.000220614
0.000211188
-0.000215147
0.000220175
-0.000201539
0.000226069
-0.000181495
0.000228403
-0.000156623
0.000227283
-0.000128872
0.000223383
-0.000101265
0.000217603
-7.59942e-05
0.000211244
-5.32913e-05
0.000205477
-2.99253e-05
0.000201128
-8.17444e-06
0.000198334
0.00019661
1.91562e-05
4.08703e-05
-2.97448e-05
4.87196e-05
-6.39234e-05
6.10995e-05
-8.7283e-05
7.4637e-05
-0.00011638
9.03777e-05
-0.000146545
0.000107253
-0.000176694
0.000123908
-0.000205481
0.00013954
-0.000230857
0.000153605
-0.000251262
0.000166154
-0.000265691
0.00017742
-0.000272874
0.000186924
-0.000271999
0.000194695
-0.000262897
0.000200917
-0.000246169
0.0002047
-0.000222863
0.00020616
-0.000194263
0.000205367
-0.000162721
0.000202599
-0.000130804
0.000198459
-0.000101007
0.000193648
-7.44599e-05
0.000189009
-5.06971e-05
0.000185266
-2.71179e-05
0.000183014
-6.95836e-06
0.00018254
0.000182769
6.26184e-06
6.73534e-05
-5.0561e-05
7.6153e-05
-9.20878e-05
8.90555e-05
-0.000124936
0.000102746
-0.000159182
0.0001183
-0.000191365
0.000133731
-0.000221074
0.000147615
-0.000246579
0.000159313
-0.000266826
0.000168921
-0.000280408
0.000176106
-0.000286226
0.000181056
-0.000284625
0.000184265
-0.000275917
0.000186096
-0.000259556
0.000186359
-0.000236262
0.0001856
-0.00020785
0.000183743
-0.000176326
0.000180994
-0.000144263
0.000177636
-0.0001137
0.000174105
-8.60715e-05
0.000170853
-6.17761e-05
0.000168362
-4.03453e-05
0.000167058
-2.02276e-05
0.000167389
-4.70831e-06
0.000169685
0.000172362
-5.04918e-06
9.83964e-05
-6.42141e-05
0.000108364
-0.000108232
0.000121565
-0.000142865
0.000135004
-0.000175227
0.000149345
-0.000203937
0.000162035
-0.000228632
0.000171866
-0.00024856
0.000178383
-0.000262898
0.000181888
-0.000270567
0.000182547
-0.000271792
0.000180983
-0.000265548
0.000177989
-0.000250799
0.00017439
-0.000229781
0.000170113
-0.000204305
0.000166053
-0.00017574
0.000162032
-0.000146223
0.000158266
-0.000117499
0.00015497
-9.08089e-05
0.000152407
-6.68853e-05
0.000150839
-4.59847e-05
0.000150548
-2.80584e-05
0.000151831
-1.25082e-05
0.000155043
-2.19715e-06
0.000160486
0.000166044
-1.036e-05
0.000130641
-6.62671e-05
0.000141507
-0.00010782
0.000154639
-0.000139067
0.000167038
-0.000167033
0.000179051
-0.000191336
0.000188165
-0.000212079
0.000193347
-0.000228623
0.000194269
-0.000239846
0.000191249
-0.000243826
0.000185337
-0.000239788
0.000178121
-0.000229076
0.000170277
-0.000213087
0.000162496
-0.000192915
0.000155356
-0.000169748
0.000148924
-0.000145051
0.000143445
-0.000120178
0.000139025
-9.60989e-05
0.000135788
-7.34895e-05
0.000133885
-5.28095e-05
0.000133502
-3.44795e-05
0.000134894
-1.90318e-05
0.000138383
-6.63966e-06
0.000144363
6.86719e-07
0.000153258
0.000162648
-9.98454e-06
0.000160649
-5.92134e-05
0.000172233
-9.63665e-05
0.000184912
-0.000123333
0.000195601
-0.000147109
0.000204849
-0.000167635
0.00021032
-0.000185051
0.0002111
-0.000198422
0.000206993
-0.000206135
0.000198728
-0.000207507
0.000187685
-0.000202963
0.000175768
-0.000193356
0.000164145
-0.000179806
0.000153343
-0.000163382
0.000143828
-0.00014516
0.000135722
-0.000125998
0.000129055
-0.000106481
0.000123844
-8.70315e-05
0.000120125
-6.79802e-05
0.000118025
-4.96223e-05
0.000117754
-3.24103e-05
0.000119657
-1.69057e-05
0.000124201
-3.23957e-06
0.00013204
4.87364e-06
0.000144106
0.000157774
-6.71834e-06
0.000186584
-4.87972e-05
0.000198528
-8.19612e-05
0.000210372
-0.000104876
0.000219343
-0.000124638
0.000226027
-0.00014165
0.000228371
-0.000155998
0.000225472
-0.000166297
0.000217253
-0.000171568
0.000204846
-0.000172256
0.000190125
-0.000169017
0.000174975
-0.000162462
0.000160661
-0.000153507
0.000147785
-0.000142889
0.000136574
-0.000131146
0.000127038
-0.000118549
0.000119115
-0.00010516
0.000112751
-9.09419e-05
0.000107989
-7.59131e-05
0.000104892
-6.02437e-05
0.000103732
-4.42136e-05
0.000104928
-2.76465e-05
0.000109158
-1.08639e-05
0.000117387
-5.3442e-07
0.000130822
0.000146351
-3.93041e-06
0.000207658
-3.8447e-05
0.000219544
-6.5038e-05
0.000230609
-8.35974e-05
0.000237954
-9.96136e-05
0.000242523
-0.000113391
0.00024246
-0.000124711
0.0002368
-0.00013243
0.000225595
-0.000136726
0.000210349
-0.00013835
0.000193235
-0.00013787
0.000176115
-0.000135857
0.000160125
-0.000132759
0.000145798
-0.00012863
0.000133265
-0.000123388
0.000122473
-0.000116976
0.000113317
-0.000109289
0.000105707
-0.000100192
9.96471e-05
-8.95494e-05
9.51886e-05
-7.73512e-05
9.25656e-05
-6.32538e-05
9.2216e-05
-4.67936e-05
9.47816e-05
-2.83851e-05
0.000101306
-1.30444e-05
0.0001127
0.000125603
-2.21427e-06
0.000222635
-2.6388e-05
0.000234459
-4.45948e-05
0.000245247
-5.84283e-05
0.000251424
-7.06695e-05
0.000254563
-8.11719e-05
0.000252861
-8.97314e-05
0.000245463
-9.58756e-05
0.000232475
-0.000100545
0.000215662
-0.000104483
0.000197267
-0.000107952
0.00017905
-0.00011087
0.000162055
-0.000112981
0.000146743
-0.000114044
0.000133209
-0.000113763
0.000121382
-0.00011195
0.000111164
-0.000108692
0.000102485
-0.000104028
9.52168e-05
-9.77802e-05
8.94665e-05
-8.95377e-05
8.52997e-05
-7.86479e-05
8.29217e-05
-6.50163e-05
8.2652e-05
-4.65503e-05
8.51155e-05
-2.21879e-05
9.09674e-05
9.7368e-05
1.90685e-07
0.000230814
-1.26668e-05
0.000242547
-2.29023e-05
0.000253233
-3.08755e-05
0.00025907
-3.82204e-05
0.000261566
-4.4779e-05
0.000259244
-5.10652e-05
0.000251347
-5.70208e-05
0.000237901
-6.31675e-05
0.000220705
-6.97693e-05
0.000201972
-7.65878e-05
0.000183366
-8.30017e-05
0.000165874
-8.85067e-05
0.000149927
-9.287e-05
0.000135614
-9.59517e-05
0.000122893
-9.76077e-05
0.000111714
-9.764e-05
0.000102055
-9.61977e-05
9.38962e-05
-9.36718e-05
8.72213e-05
-9.03374e-05
8.18095e-05
-8.58934e-05
7.74168e-05
-7.90547e-05
7.41395e-05
-6.28188e-05
7.20019e-05
-3.21188e-05
7.09025e-05
6.97442e-05
2.60925e-06
0.000232047
1.19374e-06
0.000243651
-5.19839e-07
0.000254234
-1.87448e-06
0.000260417
-3.56384e-06
0.00026326
-5.93827e-06
0.000261475
-1.00257e-05
0.000254313
-1.60766e-05
0.000241747
-2.36084e-05
0.000225338
-3.20214e-05
0.000207122
-4.06748e-05
0.000188699
-4.90681e-05
0.000171043
-5.67594e-05
0.00015463
-6.33869e-05
0.00013962
-6.86813e-05
0.000126042
-7.24897e-05
0.000113911
-7.48593e-05
0.00010328
-7.59692e-05
9.42108e-05
-7.65532e-05
8.6565e-05
-7.68977e-05
7.99554e-05
-7.66612e-05
7.39638e-05
-7.50553e-05
6.84023e-05
-6.638e-05
6.2944e-05
-3.94196e-05
5.68455e-05
5.10891e-05
3.99193e-06
0.000226725
1.46648e-05
0.000237639
2.21012e-05
0.000248353
2.6954e-05
0.000255629
3.1108e-05
0.000259665
3.32876e-05
0.000259447
3.22545e-05
0.000254206
2.71553e-05
0.000243785
1.91185e-05
0.000229315
9.58414e-06
0.000212437
-4.40412e-07
0.000194745
-1.03243e-05
0.000177266
-1.9617e-05
0.000160588
-2.79512e-05
0.000144982
-3.4992e-05
0.000130572
-4.05128e-05
0.000117466
-4.45512e-05
0.000105791
-4.74972e-05
9.56139e-05
-5.02325e-05
8.68124e-05
-5.18909e-05
7.90218e-05
-5.11562e-05
7.1749e-05
-4.89107e-05
6.44949e-05
-4.83283e-05
5.69152e-05
-3.67124e-05
4.86638e-05
4.17869e-05
4.31549e-06
0.000215008
2.69616e-05
0.000225015
4.3186e-05
0.000236427
5.39331e-05
0.000245275
6.3482e-05
0.000251022
7.04842e-05
0.00025302
7.36192e-05
0.000250669
7.10767e-05
0.000243427
6.354e-05
0.00023193
5.31317e-05
0.000217501
4.17602e-05
0.000201324
3.04348e-05
0.000184604
1.96461e-05
0.000168018
9.67413e-06
0.000152015
7.53424e-07
0.000136871
-6.84108e-06
0.00012281
-1.29974e-05
0.000110045
-1.78767e-05
9.87201e-05
-2.13554e-05
8.87562e-05
-2.30461e-05
7.97754e-05
-2.19124e-05
7.12737e-05
-1.80353e-05
6.28788e-05
-1.97908e-05
5.42641e-05
-2.43594e-05
4.47841e-05
3.74922e-05
3.96736e-06
0.000199263
3.4907e-05
0.000208146
5.92156e-05
0.000219638
7.56174e-05
0.000230042
8.98224e-05
0.000237941
0.000101283
0.00024255
0.000108815
0.000243437
0.000110642
0.000240124
0.000105979
0.000232429
9.62666e-05
0.000221323
8.37336e-05
0.000207979
7.05506e-05
0.00019288
5.79138e-05
0.000176987
4.61736e-05
0.000160974
3.53693e-05
0.000145313
2.56471e-05
0.000130385
1.73115e-05
0.000116532
1.06616e-05
0.000103991
6.4239e-06
9.2795e-05
3.94271e-06
8.2594e-05
3.03936e-06
7.30467e-05
5.15048e-06
6.40376e-05
2.65616e-06
5.52542e-05
-1.13296e-05
4.52861e-05
3.71674e-05
3.23533e-06
0.000182167
3.71237e-05
0.000189427
6.81411e-05
0.000199801
8.98146e-05
0.000211111
0.000108015
0.000221088
0.000123281
0.000228495
0.000134745
0.000232709
0.000141354
0.000233354
0.000141623
0.000230264
0.000135245
0.000223158
0.000123095
0.000213051
0.000107698
0.000200844
9.23957e-05
0.000186683
7.84162e-05
0.000171391
6.57235e-05
0.000155691
5.41733e-05
0.000140173
4.40038e-05
0.00012535
3.56834e-05
0.000111612
2.97123e-05
9.91435e-05
2.55864e-05
8.78092e-05
2.22176e-05
7.74636e-05
2.01888e-05
6.80852e-05
1.51147e-05
5.96411e-05
-1.62752e-06
5.0169e-05
4.10514e-05
1.94372e-06
0.000165332
3.4204e-05
0.000170426
6.88587e-05
0.000179103
9.52517e-05
0.000190286
0.00011677
0.000201743
0.000134855
0.000211731
0.000149194
0.00021928
0.000159219
0.000223742
0.0001641
0.000224956
0.000162521
0.000222718
0.000154378
0.000216653
0.0001409
0.000207621
0.000123877
0.000196152
0.000106679
0.000182497
9.10766e-05
0.000167462
7.72541e-05
0.000151842
6.51554e-05
0.000136339
5.5011e-05
0.000121564
4.69096e-05
0.000107918
4.07049e-05
9.55833e-05
3.49176e-05
8.461e-05
2.89857e-05
7.50299e-05
2.00665e-05
6.69793e-05
2.89401e-06
5.84576e-05
4.89587e-05
-4.46281e-07
0.000150751
2.72007e-05
0.000152835
6.15536e-05
0.000159241
9.11796e-05
0.000169324
0.000115859
0.000181356
0.000136211
0.000193422
0.000152487
0.000204078
0.000164281
0.00021241
0.000171215
0.000217605
0.00017329
0.00022024
0.000170437
0.000218951
0.000161943
0.000213735
0.000148248
0.000205071
0.000130812
0.000193659
0.000112518
0.000179996
9.55756e-05
0.000164831
8.08152e-05
0.00014906
6.84266e-05
0.000133513
5.81809e-05
0.00011887
4.97086e-05
0.00010563
4.16842e-05
9.41172e-05
3.30419e-05
8.44122e-05
2.05832e-05
7.66245e-05
2.82364e-06
6.89243e-05
5.9853e-05
-5.01727e-06
0.000138458
1.69432e-05
0.000137032
4.76374e-05
0.000140755
7.79375e-05
0.000149238
0.000105422
0.000161103
0.000128274
0.000174606
0.000146293
0.00018803
0.000159313
0.000199991
0.000167365
0.000209479
0.000170726
0.000216056
0.000170328
0.000218998
0.000166278
0.000217961
0.000157498
0.000212954
0.000144022
0.000204203
0.000126936
0.000192354
0.000108641
0.000178195
9.14419e-05
0.000162613
7.66156e-05
0.000146636
6.43362e-05
0.000131225
5.39374e-05
0.000117177
4.40748e-05
0.000105114
3.38418e-05
9.52974e-05
1.95651e-05
8.76825e-05
1.29538e-06
8.03908e-05
7.195e-05
-5.12e-06
0.000128593
1.05088e-05
0.000123719
3.41848e-05
0.00012463
6.08004e-05
0.00013133
8.8356e-05
0.000142512
0.00011277
0.000156692
0.000132212
0.000172217
0.000146295
0.000187371
0.000155179
0.000200698
0.000159492
0.000210866
0.000160046
0.000217478
0.00015749
0.000219941
0.000152046
0.000218608
0.000142844
0.000213099
0.000129878
0.000203578
0.000113862
0.000190886
9.66606e-05
0.00017593
8.04103e-05
0.000159866
6.64086e-05
0.000143922
5.46686e-05
0.000129203
4.40479e-05
0.000116595
3.31889e-05
0.000106657
1.83937e-05
9.92587e-05
4.10811e-07
9.1933e-05
8.38432e-05
2.13187e-07
0.000120489
1.0695e-05
0.000113322
2.71238e-05
0.000111865
4.65303e-05
0.000116811
6.9344e-05
0.000127028
9.21213e-05
0.000141232
0.000111426
0.00015799
0.000125764
0.000175565
0.000134851
0.000192119
0.000138685
0.000205975
0.000139441
0.000215642
0.00013773
0.000221067
0.000133908
0.000222266
0.000127739
0.00021951
0.000119137
0.000212401
0.000107722
0.000201469
9.38153e-05
0.000187566
7.88698e-05
0.000171841
6.46877e-05
0.000155681
5.25413e-05
0.000140491
4.26756e-05
0.000127471
3.2345e-05
0.000117434
1.6747e-05
0.000110428
-1.4518e-07
0.00010271
9.46652e-05
4.09223e-06
0.000112326
1.13872e-05
0.000104864
2.34587e-05
0.000102124
3.62013e-05
0.000105818
5.16548e-05
0.000115172
6.92115e-05
0.000129143
8.57681e-05
0.00014649
9.88587e-05
0.000165628
0.000107447
0.000184587
0.000111145
0.000201355
0.000111687
0.000213862
0.000110471
0.000221644
0.000107622
0.000224907
0.000103619
0.000223848
9.8295e-05
0.000218463
9.14835e-05
0.000209026
8.25026e-05
0.000196323
7.14888e-05
0.000181276
5.96414e-05
0.000165244
4.8794e-05
0.000149791
4.09917e-05
0.000136461
3.22828e-05
0.000126359
1.39791e-05
0.000119249
-1.40373e-06
0.000111503
0.000103376
6.52828e-06
0.000103736
1.09972e-05
9.77333e-05
1.96139e-05
9.47931e-05
2.8039e-05
9.81804e-05
3.68339e-05
0.000107052
4.73521e-05
0.000120841
5.86907e-05
0.0001385
6.85659e-05
0.000158556
7.5293e-05
0.000179023
7.8314e-05
0.000197692
7.88281e-05
0.000212065
7.82393e-05
0.000221436
7.69156e-05
0.000225986
7.49242e-05
0.000226042
7.22694e-05
0.000221894
6.89483e-05
0.000213549
6.44114e-05
0.000201878
5.80374e-05
0.000187671
4.99703e-05
0.000172103
4.15279e-05
0.000156729
3.49584e-05
0.000143299
2.7797e-05
0.000133324
1.27962e-05
0.000126295
-1.21862e-06
0.000118376
0.000110182
9.80085e-06
9.56033e-05
1.14542e-05
9.22439e-05
1.6035e-05
9.05325e-05
2.07592e-05
9.39049e-05
2.48399e-05
0.000102635
2.91888e-05
0.000116306
3.41229e-05
0.00013403
3.86796e-05
0.000154452
4.18183e-05
0.00017559
4.33717e-05
0.000195103
4.40115e-05
0.000210313
4.44002e-05
0.000220459
4.45742e-05
0.00022561
4.45496e-05
0.000226267
4.44116e-05
0.000222795
4.38829e-05
0.000215248
4.26688e-05
0.000204414
4.0202e-05
0.000191086
3.59904e-05
0.000176263
3.03574e-05
0.000161361
2.4539e-05
0.000148203
1.87941e-05
0.000138591
1.12355e-05
0.000132249
4.20248e-07
0.000123925
0.000115643
1.48548e-05
8.90225e-05
1.41268e-05
8.92233e-05
1.14105e-05
8.95298e-05
1.23652e-05
9.28975e-05
1.32584e-05
0.000101705
1.30701e-05
0.000115334
1.2377e-05
0.000132953
1.1547e-05
0.000153278
1.07199e-05
0.000174315
1.07121e-05
0.000193644
1.17306e-05
0.000208728
1.30538e-05
0.000218823
1.45538e-05
0.000224125
1.62686e-05
0.00022493
1.83014e-05
0.000221592
2.01781e-05
0.000214513
2.15166e-05
0.00020432
2.19614e-05
0.000191766
2.11257e-05
0.000177761
1.89284e-05
0.000163568
1.54644e-05
0.00015094
1.14295e-05
0.000141752
6.90238e-06
0.000135722
8.95263e-07
0.000127573
0.00011925
1.91845e-05
8.52178e-05
1.58757e-05
8.87571e-05
4.71952e-06
9.0495e-05
2.35203e-06
9.45632e-05
8.36759e-07
0.000103527
-2.81867e-06
0.000117255
-7.41989e-06
0.000134764
-1.19489e-05
0.000154667
-1.54338e-05
0.000174926
-1.61787e-05
0.000193203
-1.49297e-05
0.000207343
-1.28696e-05
0.000216774
-1.01807e-05
0.000221643
-6.94118e-06
0.000222231
-3.29287e-06
0.000218833
3.35203e-07
0.000211973
3.55228e-06
0.000202218
6.03699e-06
0.000190283
7.66227e-06
0.000177021
8.4344e-06
0.000163618
7.56969e-06
0.000151717
5.25448e-06
0.000143054
3.15756e-06
0.00013725
9.4959e-07
0.00012913
0.000120958
2.01591e-05
8.47196e-05
1.25515e-05
8.98615e-05
-1.5376e-06
9.3275e-05
-6.50452e-06
9.81419e-05
-1.03946e-05
0.000107355
-1.68563e-05
0.000121201
-2.44015e-05
0.000138468
-3.1343e-05
0.000157612
-3.58529e-05
0.000176583
-3.63715e-05
0.000193292
-3.46975e-05
0.000205965
-3.19863e-05
0.000214333
-2.83471e-05
0.000218419
-2.39988e-05
0.000218552
-1.9233e-05
0.000214971
-1.44311e-05
0.000208153
-9.94567e-06
0.000198684
-5.98773e-06
0.00018722
-2.52254e-06
0.000174577
4.4842e-07
0.000161925
1.55954e-06
0.000150839
4.60453e-07
0.000142777
2.72151e-07
0.000137166
1.40561e-06
0.000129223
0.000121249
1.75002e-05
8.64708e-05
5.93812e-06
9.24081e-05
-6.23403e-06
9.77013e-05
-1.28087e-05
0.000103086
-1.95853e-05
0.000112617
-2.86206e-05
0.000126503
-3.80543e-05
0.000143321
-4.56707e-05
0.000161379
-4.95076e-05
0.000178692
-4.92291e-05
0.000193345
-4.71509e-05
0.000204497
-4.39609e-05
0.00021165
-3.97826e-05
0.000214838
-3.48483e-05
0.000214364
-2.94862e-05
0.000210466
-2.40904e-05
0.000203599
-1.89295e-05
0.000194303
-1.40531e-05
0.000183189
-9.27396e-06
0.000171068
-4.78874e-06
0.000159131
-2.64193e-06
0.000148854
-3.34321e-06
0.000141413
-2.02762e-06
0.000136011
2.29154e-06
0.000128583
0.000120724
1.1134e-05
8.97292e-05
-1.0873e-06
9.66459e-05
-9.70638e-06
0.000103067
-1.73643e-05
0.000108903
-2.70113e-05
0.000118736
-3.78032e-05
0.00013252
-4.74725e-05
0.000148649
-5.39839e-05
0.000165336
-5.63955e-05
0.000180775
-5.56148e-05
0.000193368
-5.3327e-05
0.00020297
-4.98506e-05
0.000208858
-4.54154e-05
0.000211113
-4.02749e-05
0.000209972
-3.47666e-05
0.000205721
-2.92416e-05
0.000198752
-2.38649e-05
0.000189551
-1.85278e-05
0.000178703
-1.30155e-05
0.000167043
-7.90699e-06
0.000155791
-5.40959e-06
0.000146313
-5.96555e-06
0.0001395
-3.85109e-06
0.000134329
2.0404e-06
0.000127129
0.000119377
6.18948e-06
9.42836e-05
-5.5909e-06
0.000101828
-1.26587e-05
0.000108801
-2.12744e-05
0.000115127
-3.28174e-05
0.000125184
-4.37436e-05
0.000138688
-5.19968e-05
0.000153865
-5.6515e-05
0.00016897
-5.76612e-05
0.000182518
-5.69436e-05
0.000193682
-5.46237e-05
0.000201381
-5.09825e-05
0.000205969
-4.64922e-05
0.000207353
-4.14167e-05
0.000205602
-3.60501e-05
0.000200998
-3.06752e-05
0.000193898
-2.53502e-05
0.000184739
-1.98614e-05
0.000174095
-1.41119e-05
0.000162843
-9.0219e-06
0.000152225
-6.33068e-06
0.000143506
-6.11651e-06
0.000137318
-3.80487e-06
0.000132398
3.27141e-07
0.000125285
0.000117633
3.98998e-06
9.96852e-05
-7.70394e-06
0.000107505
-1.52205e-05
0.000114679
-2.46411e-05
0.00012145
-3.65657e-05
0.000131607
-4.61643e-05
0.000144619
-5.23656e-05
0.000158622
-5.52324e-05
0.000172065
-5.55932e-05
0.000183817
-5.45595e-05
0.000193581
-5.2099e-05
0.000199649
-4.85239e-05
0.000203146
-4.42157e-05
0.000203727
-3.94036e-05
0.000201442
-3.43701e-05
0.000196496
-2.93101e-05
0.000189242
-2.41902e-05
0.00018008
-1.87795e-05
0.000169586
-1.31584e-05
0.000158681
-8.35107e-06
0.000148613
-5.41233e-06
0.000140549
-3.97364e-06
0.000134918
-1.67847e-06
0.000130236
-1.52897e-06
0.000123385
0.000115908
3.21569e-06
0.000105517
-8.93757e-06
0.000113412
-1.71519e-05
0.000120556
-2.67527e-05
0.000127632
-3.76656e-05
0.000137719
-4.53034e-05
0.00015002
-4.97268e-05
0.000162726
-5.16135e-05
0.000174575
-5.1754e-05
0.000184712
-5.00449e-05
0.00019261
-4.72972e-05
0.000197897
-4.39952e-05
0.000200523
-3.99906e-05
0.000200386
-3.55651e-05
0.000197596
-3.09783e-05
0.000192345
-2.63425e-05
0.000184945
-2.15726e-05
0.00017577
-1.65027e-05
0.000165409
-1.13686e-05
0.000154818
-7.08167e-06
0.000145233
-4.23308e-06
0.000137713
-2.27479e-06
0.000132535
-1.49962e-07
0.000128095
-2.17563e-06
0.00012127
0.000114246
3.06804e-06
0.000111222
-1.02143e-05
0.000118874
-1.85095e-05
0.000126116
-2.73487e-05
0.000133342
-3.63938e-05
0.000143194
-4.20639e-05
0.000154629
-4.50975e-05
0.000166046
-4.62703e-05
0.000176464
-4.59783e-05
0.000185216
-4.43364e-05
0.000191701
-4.18696e-05
0.000196233
-3.87374e-05
0.000198042
-3.50501e-05
0.0001973
-3.10466e-05
0.000194091
-2.69415e-05
0.000188601
-2.27912e-05
0.000181103
-1.8507e-05
0.000171956
-1.40328e-05
0.000161764
-9.71705e-06
0.000151503
-6.27653e-06
0.000142382
-4.04281e-06
0.000135338
-2.63702e-06
0.000130563
-1.0285e-06
0.000126394
-1.67691e-06
0.000119878
0.000112825
2.31041e-06
0.000116843
-9.94421e-06
0.000124299
-1.79997e-05
0.000131453
-2.60117e-05
0.000138611
-3.33249e-05
0.000148038
-3.75552e-05
0.00015852
-3.97091e-05
0.000168724
-4.04217e-05
0.000177887
-3.99433e-05
0.000185472
-3.85371e-05
0.000191085
-3.62418e-05
0.000194609
-3.33241e-05
0.000195743
-2.99469e-05
0.000194471
-2.63545e-05
0.000190934
-2.27077e-05
0.000185275
-1.9037e-05
0.000177736
-1.52835e-05
0.000168669
-1.14923e-05
0.000158686
-8.06248e-06
0.000148762
-5.53113e-06
0.000140056
-3.97551e-06
0.000133438
-3.1647e-06
0.000128988
-1.88937e-06
0.000125009
-1.25206e-06
0.000119214
0.000111736
1.53893e-06
0.000122313
-8.65535e-06
0.000129653
-1.62164e-05
0.000136501
-2.34829e-05
0.000143446
-2.94732e-05
0.00015231
-3.27811e-05
0.00016183
-3.44298e-05
0.000170928
-3.48826e-05
0.000178993
-3.42934e-05
0.000185565
-3.28598e-05
0.000190315
-3.06824e-05
0.000193032
-2.79773e-05
0.000193593
-2.4939e-05
0.000191931
-2.17477e-05
0.000188138
-1.85329e-05
0.000182367
-1.53291e-05
0.000174841
-1.21377e-05
0.000165903
-9.0854e-06
0.000156167
-6.54257e-06
0.000146585
-4.82292e-06
0.00013827
-3.6997e-06
0.000131825
-3.12558e-06
0.000127607
-2.03662e-06
0.000123868
-1.14188e-06
0.000118235
0.000111145
1.29677e-06
0.00012726
-7.80192e-06
0.000134371
-1.45917e-05
0.000140987
-2.09292e-05
0.00014768
-2.57746e-05
0.000155948
-2.83641e-05
0.000164573
-2.96146e-05
0.000172695
-2.98339e-05
0.000179804
-2.91402e-05
0.000185492
-2.76976e-05
0.000189471
-2.56414e-05
0.000191526
-2.31451e-05
0.000191605
-2.03807e-05
0.000189633
-1.75127e-05
0.000185651
-1.46589e-05
0.000179826
-1.18678e-05
0.000172363
-9.20562e-06
0.000163601
-6.86805e-06
0.000154142
-5.10938e-06
0.000144908
-3.9121e-06
0.000136803
-3.26964e-06
0.00013073
-3.00713e-06
0.000126657
-2.12547e-06
0.000122836
-1.39707e-06
0.000117053
0.000110418
1.12974e-06
0.000131662
-6.98348e-06
0.000138521
-1.30588e-05
0.000144922
-1.85574e-05
0.000151336
-2.24544e-05
0.000159011
-2.44552e-05
0.000166821
-2.53663e-05
0.000174081
-2.53786e-05
0.000180353
-2.45845e-05
0.000185272
-2.3136e-05
0.000188597
-2.12011e-05
0.000190129
-1.88886e-05
0.000189791
-1.63302e-05
0.000187528
-1.3705e-05
0.000183412
-1.1126e-05
0.000177574
-8.65248e-06
0.000170206
-6.37673e-06
0.000161636
-4.50967e-06
0.000152455
-3.22861e-06
0.000143545
-2.43451e-06
0.000135694
-2.38826e-06
0.000130248
-2.52416e-06
0.000126213
-1.92019e-06
0.00012195
-1.88732e-06
0.000116445
0.000109378
9.67638e-07
0.000135545
-6.22769e-06
0.00014216
-1.16864e-05
0.000148346
-1.64906e-05
0.000154466
-1.96062e-05
0.000161571
-2.11076e-05
0.000168645
-2.17267e-05
0.000175145
-2.15638e-05
0.000180685
-2.06894e-05
0.000184939
-1.92324e-05
0.000187691
-1.73562e-05
0.000188768
-1.51764e-05
0.000188093
-1.28151e-05
0.000185616
-1.04296e-05
0.000181413
-8.13052e-06
0.000175602
-5.9811e-06
0.000168358
-4.06094e-06
0.000160003
-2.56677e-06
0.00015111
-1.73517e-06
0.000142521
-1.69896e-06
0.000135338
-1.86149e-06
0.000129608
-1.8606e-06
0.000125576
-1.68144e-06
0.000121593
-1.88961e-06
0.00011593
0.000108958
8.1338e-07
0.00013896
-5.50467e-06
0.000145343
-1.04414e-05
0.000151316
-1.46685e-05
0.000157133
-1.71593e-05
0.000163693
-1.82456e-05
0.000170102
-1.86055e-05
0.00017593
-1.82774e-05
0.00018083
-1.73276e-05
0.000184508
-1.58838e-05
0.000186774
-1.40853e-05
0.000187472
-1.20391e-05
0.000186519
-9.86877e-06
0.000183889
-7.73184e-06
0.000179651
-5.74117e-06
0.000173909
-3.94493e-06
0.000166828
-2.39188e-06
0.000158718
-1.29519e-06
0.000150142
-9.49858e-07
0.000141886
-1.33962e-06
0.000134933
-1.63987e-06
0.000128965
-1.35552e-06
0.000124932
-1.37751e-06
0.000121353
-1.96712e-06
0.000115343
0.000108937
6.79777e-07
0.000141943
-4.86161e-06
0.000148107
-9.34555e-06
0.000153893
-1.30512e-05
0.000159391
-1.5014e-05
0.000165422
-1.57793e-05
0.000171249
-1.59281e-05
0.000176488
-1.54422e-05
0.000180815
-1.44245e-05
0.000183997
-1.29836e-05
0.000185836
-1.12382e-05
0.000186213
-9.3067e-06
0.000185056
-7.30242e-06
0.000182322
-5.37613e-06
0.000178082
-3.63116e-06
0.000172429
-2.07596e-06
0.000165515
-7.32596e-07
0.000157649
1.62398e-07
0.000149374
2.8114e-07
0.000141372
-2.27357e-07
0.00013429
-1.04434e-06
0.000129054
-9.49313e-07
0.000124932
-1.00154e-06
0.000120868
-2.37472e-06
0.000115261
0.000108844
5.74608e-07
0.000144553
-4.21813e-06
0.00015052
-8.43583e-06
0.000156162
-1.16533e-05
0.000161321
-1.30847e-05
0.000166867
-1.35589e-05
0.00017209
-1.34944e-05
0.000176781
-1.29132e-05
0.000180702
-1.18508e-05
0.000183428
-1.0425e-05
0.000184894
-8.77188e-06
0.000185033
-6.94006e-06
0.000183695
-5.07881e-06
0.000180887
-3.32792e-06
0.000176668
-1.76436e-06
0.000171118
-4.08033e-07
0.000164404
7.66167e-07
0.000156779
1.5769e-06
0.000148671
1.53075e-06
0.000141012
4.34656e-07
0.000134399
-5.97126e-07
0.00012919
-5.72064e-07
0.000125094
-8.42428e-07
0.000120682
-2.65449e-06
0.000115381
0.000108821
5.93485e-07
0.000146775
-3.48384e-06
0.00015255
-7.80537e-06
0.00015809
-1.04979e-05
0.000162928
-1.13779e-05
0.000167994
-1.15705e-05
0.000172656
-1.13289e-05
0.000176888
-1.06256e-05
0.00018041
-9.5585e-06
0.000182847
-8.23507e-06
0.000184041
-6.60961e-06
0.000183826
-4.87866e-06
0.000182451
-3.23355e-06
0.000179631
-1.73956e-06
0.000175462
-4.16732e-07
0.000170037
8.70578e-07
0.000163345
1.91798e-06
0.000156001
2.3827e-06
0.000148285
2.03367e-06
0.000140964
7.78273e-07
0.000134702
-1.39063e-07
0.000129096
-1.0836e-07
0.000125094
-8.12161e-07
0.000120882
-2.75484e-06
0.000115455
0.000108929
6.9421e-07
0.000148517
-2.56057e-06
0.000154103
-7.12569e-06
0.000159365
-9.19742e-06
0.000164092
-9.53888e-06
0.00016866
-9.7751e-06
0.000173315
-9.68401e-06
0.000177193
-8.86767e-06
0.000179958
-7.7953e-06
0.00018224
-6.39095e-06
0.000183042
-4.78377e-06
0.000182676
-3.22308e-06
0.000181344
-1.64375e-06
0.000178363
-2.03647e-07
0.000174255
1.04952e-06
0.000168967
2.17157e-06
0.000162554
2.97737e-06
0.000155445
2.88153e-06
0.000148384
2.29043e-06
0.000141191
1.57225e-06
0.000134665
4.95142e-07
0.000129366
2.48366e-07
0.000125205
-6.71976e-07
0.000121226
-2.81465e-06
0.000115615
0.000109355
3.56254e-07
0.00014996
-2.34833e-06
0.000155393
-5.55778e-06
0.00016034
-7.26597e-06
0.00016501
-7.78154e-06
0.000169465
-7.86812e-06
0.000173662
-7.52393e-06
0.000177223
-6.86506e-06
0.000179852
-5.70666e-06
0.000181412
-4.26844e-06
0.000182072
-3.04876e-06
0.000182009
-1.69296e-06
0.000180311
-1.93454e-07
0.000177226
1.13249e-06
0.000173198
2.28746e-06
0.000168047
2.97257e-06
0.0001623
3.29253e-06
0.000155389
3.20293e-06
0.000148225
2.77931e-06
0.000141261
2.396e-06
0.000134837