/*--------------------------------*- C++ -*----------------------------------*\
| =========                 |                                                 |
| \\      /  F ield         | OpenFOAM: The Open Source CFD Toolbox           |
|  \\    /   O peration     | Version:  2.3.0                                 |
|   \\  /    A nd           | Web:      www.OpenFOAM.org                      |
|    \\/     M anipulation  |                                                 |
\*---------------------------------------------------------------------------*/
FoamFile
{
    version     2.0;
    format      ascii;
    class       volScalarField;
    location    "46";
    object      nut.air;
}
// * * * * * * * * * * * * * * * * * * * * * * * * * * * * * * * * * * * * * //

dimensions      [0 2 -1 0 0 0 0];

internalField   nonuniform List<scalar> 
1875
(
2.04535e-05
2.17199e-05
2.37766e-05
2.56498e-05
2.7328e-05
2.87784e-05
3.00122e-05
3.10913e-05
3.20433e-05
3.29093e-05
3.3685e-05
3.43678e-05
3.4956e-05
3.54468e-05
3.58465e-05
3.59394e-05
3.5859e-05
3.54421e-05
3.45425e-05
3.32396e-05
3.15777e-05
2.96249e-05
2.73882e-05
2.48541e-05
2.21364e-05
2.14537e-05
2.51798e-05
2.82428e-05
3.03972e-05
3.1878e-05
3.28904e-05
3.35854e-05
3.40333e-05
3.42909e-05
3.45207e-05
3.46975e-05
3.48276e-05
3.50036e-05
3.52324e-05
3.55021e-05
3.57414e-05
3.59034e-05
3.58798e-05
3.55507e-05
3.46896e-05
3.32421e-05
3.11567e-05
2.83236e-05
2.45009e-05
1.98825e-05
2.82833e-05
3.2645e-05
3.57188e-05
3.75942e-05
3.86112e-05
3.90521e-05
3.91083e-05
3.89019e-05
3.85567e-05
3.81532e-05
3.7699e-05
3.72647e-05
3.69191e-05
3.66598e-05
3.64778e-05
3.63727e-05
3.62593e-05
3.60099e-05
3.55567e-05
3.4847e-05
3.35303e-05
3.17671e-05
2.94908e-05
2.67733e-05
2.42391e-05
3.70705e-05
4.08165e-05
4.25508e-05
4.31275e-05
4.30495e-05
4.25919e-05
4.19574e-05
4.12481e-05
4.05436e-05
3.9863e-05
3.92078e-05
3.85815e-05
3.80077e-05
3.75115e-05
3.71013e-05
3.6741e-05
3.63806e-05
3.59363e-05
3.53322e-05
3.45115e-05
3.32929e-05
3.17068e-05
2.97523e-05
2.7504e-05
2.52311e-05
6.1707e-05
5.02259e-05
4.71676e-05
4.64379e-05
4.53743e-05
4.41911e-05
4.30135e-05
4.19132e-05
4.09291e-05
4.00715e-05
3.93203e-05
3.86621e-05
3.80604e-05
3.74805e-05
3.69088e-05
3.64055e-05
3.58944e-05
3.53497e-05
3.46925e-05
3.38174e-05
3.26948e-05
3.13129e-05
2.9648e-05
2.78273e-05
2.59679e-05
7.13686e-05
5.47781e-05
5.01743e-05
4.82117e-05
4.61564e-05
4.42325e-05
4.25759e-05
4.11627e-05
4.00145e-05
3.91134e-05
3.83629e-05
3.77059e-05
3.7113e-05
3.65799e-05
3.60828e-05
3.55466e-05
3.50115e-05
3.45226e-05
3.38781e-05
3.30365e-05
3.20202e-05
3.08026e-05
2.94194e-05
2.79549e-05
2.65027e-05
7.77502e-05
5.50489e-05
5.18702e-05
4.88419e-05
4.59827e-05
4.34183e-05
4.12487e-05
3.96083e-05
3.83994e-05
3.75326e-05
3.68828e-05
3.63194e-05
3.58506e-05
3.54172e-05
3.5018e-05
3.4606e-05
3.41457e-05
3.36832e-05
3.30251e-05
3.22426e-05
3.13361e-05
3.02867e-05
2.91208e-05
2.79473e-05
2.67026e-05
8.49083e-05
5.76429e-05
5.30162e-05
4.88045e-05
4.512e-05
4.20424e-05
3.9621e-05
3.77628e-05
3.64445e-05
3.57092e-05
3.51174e-05
3.46255e-05
3.42768e-05
3.39838e-05
3.36822e-05
3.33549e-05
3.30443e-05
3.25429e-05
3.19039e-05
3.11581e-05
3.03188e-05
2.93782e-05
2.83598e-05
2.72869e-05
2.60541e-05
9.00144e-05
5.90739e-05
5.30066e-05
4.81082e-05
4.37724e-05
4.01821e-05
3.74401e-05
3.54143e-05
3.42594e-05
3.36015e-05
3.30396e-05
3.2707e-05
3.24834e-05
3.22816e-05
3.20229e-05
3.17328e-05
3.12676e-05
3.07141e-05
3.01064e-05
2.94202e-05
2.8646e-05
2.77586e-05
2.67958e-05
2.57242e-05
2.44566e-05
8.23369e-05
5.86145e-05
5.19866e-05
4.65808e-05
4.17984e-05
3.79341e-05
3.50185e-05
3.30121e-05
3.19135e-05
3.12776e-05
3.08611e-05
3.05222e-05
3.02222e-05
2.99244e-05
2.96163e-05
2.92324e-05
2.8801e-05
2.8303e-05
2.77266e-05
2.70773e-05
2.63583e-05
2.55391e-05
2.46434e-05
2.35814e-05
2.22784e-05
6.41082e-05
5.62378e-05
4.98785e-05
4.44672e-05
3.9662e-05
3.57678e-05
3.2893e-05
3.09422e-05
2.97317e-05
2.90512e-05
2.85886e-05
2.82407e-05
2.7952e-05
2.76515e-05
2.73012e-05
2.68961e-05
2.64393e-05
2.59287e-05
2.53616e-05
2.47347e-05
2.40389e-05
2.32894e-05
2.24403e-05
2.14111e-05
2.01083e-05
5.61886e-05
5.15225e-05
4.66517e-05
4.19405e-05
3.76062e-05
3.39838e-05
3.12882e-05
2.94868e-05
2.83948e-05
2.77474e-05
2.73272e-05
2.70146e-05
2.67393e-05
2.64498e-05
2.61334e-05
2.57692e-05
2.53359e-05
2.48198e-05
2.4216e-05
2.35267e-05
2.27545e-05
2.18999e-05
2.09495e-05
1.97956e-05
1.83829e-05
4.80187e-05
4.62026e-05
4.31605e-05
3.95562e-05
3.59546e-05
3.28217e-05
3.04732e-05
2.89563e-05
2.80689e-05
2.75662e-05
2.72648e-05
2.70385e-05
2.68263e-05
2.66161e-05
2.63474e-05
2.59986e-05
2.5558e-05
2.502e-05
2.43768e-05
2.36207e-05
2.27299e-05
2.17014e-05
2.05575e-05
1.92096e-05
1.77369e-05
4.19046e-05
4.17899e-05
4.01377e-05
3.75919e-05
3.47716e-05
3.22304e-05
3.03404e-05
2.91278e-05
2.84714e-05
2.81662e-05
2.80351e-05
2.79549e-05
2.78716e-05
2.77588e-05
2.7571e-05
2.72883e-05
2.68951e-05
2.63778e-05
2.57218e-05
2.49168e-05
2.39532e-05
2.2844e-05
2.15118e-05
1.99078e-05
1.83233e-05
3.76727e-05
3.84416e-05
3.77656e-05
3.60815e-05
3.39905e-05
3.20545e-05
3.05982e-05
2.97601e-05
2.93714e-05
2.92496e-05
2.92552e-05
2.9296e-05
2.93187e-05
2.92867e-05
2.91874e-05
2.89924e-05
2.86767e-05
2.82214e-05
2.76077e-05
2.68107e-05
2.58027e-05
2.45617e-05
2.30219e-05
2.10842e-05
1.90137e-05
3.46637e-05
3.58698e-05
3.58767e-05
3.49166e-05
3.35025e-05
3.21503e-05
3.12017e-05
3.06745e-05
3.04663e-05
3.04474e-05
3.05239e-05
3.0632e-05
3.07282e-05
3.07801e-05
3.07517e-05
3.0641e-05
3.04151e-05
3.00528e-05
2.95383e-05
2.88514e-05
2.796e-05
2.68177e-05
2.53535e-05
2.34125e-05
2.10231e-05
3.31685e-05
3.42899e-05
3.45845e-05
3.41268e-05
3.32778e-05
3.24365e-05
3.18458e-05
3.15389e-05
3.14513e-05
3.15025e-05
3.16278e-05
3.17788e-05
3.19206e-05
3.20248e-05
3.20601e-05
3.20015e-05
3.184e-05
3.15441e-05
3.10997e-05
3.04948e-05
2.97179e-05
2.87271e-05
2.74527e-05
2.58196e-05
2.37797e-05
3.17439e-05
3.29883e-05
3.3522e-05
3.34618e-05
3.30728e-05
3.26591e-05
3.23799e-05
3.22519e-05
3.22551e-05
3.23524e-05
3.25044e-05
3.26776e-05
3.28453e-05
3.29826e-05
3.30617e-05
3.30442e-05
3.29237e-05
3.26658e-05
3.22468e-05
3.16524e-05
3.08558e-05
2.98399e-05
2.86042e-05
2.71467e-05
2.53618e-05
3.09814e-05
3.20632e-05
3.27063e-05
3.29113e-05
3.28375e-05
3.27009e-05
3.26371e-05
3.26704e-05
3.27731e-05
3.2926e-05
3.31091e-05
3.33055e-05
3.34988e-05
3.36666e-05
3.37807e-05
3.38083e-05
3.37247e-05
3.34982e-05
3.30991e-05
3.25095e-05
3.17248e-05
3.07181e-05
2.94446e-05
2.79017e-05
2.60978e-05
3.09729e-05
3.15518e-05
3.2115e-05
3.24392e-05
3.25763e-05
3.2661e-05
3.27458e-05
3.28669e-05
3.30359e-05
3.3235e-05
3.34529e-05
3.36798e-05
3.39026e-05
3.41035e-05
3.42571e-05
3.433e-05
3.42906e-05
3.41124e-05
3.37638e-05
3.32381e-05
3.2511e-05
3.15327e-05
3.02383e-05
2.86429e-05
2.67953e-05
3.16596e-05
3.17839e-05
3.20449e-05
3.2268e-05
3.2412e-05
3.25412e-05
3.27005e-05
3.28954e-05
3.3112e-05
3.3347e-05
3.35951e-05
3.38505e-05
3.41032e-05
3.43361e-05
3.45249e-05
3.4638e-05
3.46394e-05
3.45037e-05
3.42081e-05
3.37322e-05
3.30487e-05
3.21073e-05
3.08315e-05
2.91934e-05
2.73229e-05
3.21977e-05
3.22412e-05
3.2311e-05
3.23861e-05
3.24594e-05
3.25397e-05
3.26631e-05
3.28403e-05
3.30593e-05
3.33085e-05
3.35787e-05
3.38632e-05
3.41549e-05
3.44379e-05
3.46798e-05
3.48548e-05
3.49221e-05
3.48542e-05
3.462e-05
3.41897e-05
3.35362e-05
3.26211e-05
3.13862e-05
2.97891e-05
2.8017e-05
3.28064e-05
3.28298e-05
3.28138e-05
3.27815e-05
3.27183e-05
3.26924e-05
3.27185e-05
3.28155e-05
3.29861e-05
3.32165e-05
3.34984e-05
3.38112e-05
3.41426e-05
3.44652e-05
3.47627e-05
3.50037e-05
3.51454e-05
3.51538e-05
3.5005e-05
3.46479e-05
3.40436e-05
3.31448e-05
3.18896e-05
3.02701e-05
2.84581e-05
3.3031e-05
3.317e-05
3.3219e-05
3.31811e-05
3.31207e-05
3.30066e-05
3.29186e-05
3.28838e-05
3.29419e-05
3.31083e-05
3.3352e-05
3.36691e-05
3.40408e-05
3.44082e-05
3.47755e-05
3.50869e-05
3.52997e-05
3.53726e-05
3.52871e-05
3.49715e-05
3.43994e-05
3.35398e-05
3.23368e-05
3.07615e-05
2.89935e-05
3.24704e-05
3.27722e-05
3.302e-05
3.30636e-05
3.30537e-05
3.30087e-05
3.29141e-05
3.28601e-05
3.28472e-05
3.29238e-05
3.31402e-05
3.34639e-05
3.38274e-05
3.42488e-05
3.46853e-05
3.50716e-05
3.53533e-05
3.5484e-05
3.54453e-05
3.51546e-05
3.45921e-05
3.37529e-05
3.26104e-05
3.11363e-05
2.95422e-05
3.00127e-05
3.07202e-05
3.13231e-05
3.18024e-05
3.21151e-05
3.23021e-05
3.23826e-05
3.23717e-05
3.23597e-05
3.24056e-05
3.25507e-05
3.28771e-05
3.33709e-05
3.38521e-05
3.44037e-05
3.48959e-05
3.52601e-05
3.54506e-05
3.54461e-05
3.51564e-05
3.45878e-05
3.37232e-05
3.2608e-05
3.12843e-05
2.99312e-05
2.51378e-05
2.67033e-05
2.79024e-05
2.88847e-05
2.97142e-05
3.03502e-05
3.08435e-05
3.12526e-05
3.14785e-05
3.1731e-05
3.1973e-05
3.23035e-05
3.26987e-05
3.32942e-05
3.39688e-05
3.45807e-05
3.50149e-05
3.52516e-05
3.52668e-05
3.49539e-05
3.43448e-05
3.34713e-05
3.23803e-05
3.11554e-05
2.9979e-05
2.06542e-05
2.25363e-05
2.407e-05
2.54138e-05
2.66101e-05
2.76698e-05
2.85376e-05
2.92514e-05
2.98503e-05
3.04015e-05
3.09244e-05
3.14983e-05
3.21052e-05
3.28041e-05
3.35334e-05
3.42087e-05
3.47082e-05
3.49257e-05
3.49269e-05
3.4566e-05
3.39058e-05
3.29879e-05
3.1877e-05
3.07084e-05
2.96606e-05
1.79026e-05
1.97827e-05
2.14477e-05
2.29579e-05
2.43385e-05
2.5596e-05
2.67081e-05
2.76426e-05
2.84453e-05
2.91754e-05
2.98867e-05
3.06231e-05
3.1415e-05
3.22529e-05
3.30762e-05
3.37834e-05
3.42846e-05
3.44652e-05
3.4397e-05
3.39669e-05
3.32289e-05
3.2246e-05
3.11016e-05
2.99439e-05
2.89657e-05
1.68042e-05
1.88709e-05
2.07614e-05
2.24237e-05
2.39025e-05
2.51756e-05
2.6278e-05
2.71904e-05
2.79935e-05
2.87282e-05
2.94493e-05
3.02175e-05
3.10595e-05
3.19138e-05
3.27129e-05
3.33782e-05
3.38132e-05
3.39255e-05
3.37432e-05
3.31886e-05
3.23337e-05
3.12628e-05
3.00693e-05
2.88968e-05
2.79331e-05
1.70458e-05
1.92965e-05
2.14058e-05
2.3164e-05
2.46291e-05
2.58364e-05
2.68512e-05
2.76715e-05
2.83451e-05
2.89407e-05
2.95545e-05
3.02525e-05
3.10225e-05
3.1798e-05
3.25001e-05
3.30366e-05
3.3319e-05
3.32743e-05
3.28888e-05
3.21805e-05
3.12069e-05
3.00541e-05
2.88145e-05
2.762e-05
2.66408e-05
1.83225e-05
2.08705e-05
2.31547e-05
2.48905e-05
2.6263e-05
2.73282e-05
2.81138e-05
2.86941e-05
2.91374e-05
2.95254e-05
2.99611e-05
3.05207e-05
3.11632e-05
3.17872e-05
3.22946e-05
3.26072e-05
3.26374e-05
3.23591e-05
3.1787e-05
3.09445e-05
2.98759e-05
2.86676e-05
2.74061e-05
2.62046e-05
2.51988e-05
2.05241e-05
2.30934e-05
2.5273e-05
2.69002e-05
2.80847e-05
2.89053e-05
2.94547e-05
2.97994e-05
3.00075e-05
3.01998e-05
3.048e-05
3.08662e-05
3.12935e-05
3.16791e-05
3.19433e-05
3.19779e-05
3.17541e-05
3.12644e-05
3.05187e-05
2.9551e-05
2.84126e-05
2.71863e-05
2.59476e-05
2.47844e-05
2.38055e-05
2.3209e-05
2.5516e-05
2.73813e-05
2.87204e-05
2.96267e-05
3.01922e-05
3.04938e-05
3.05987e-05
3.06188e-05
3.06571e-05
3.07867e-05
3.09937e-05
3.12097e-05
3.13566e-05
3.1349e-05
3.11158e-05
3.06581e-05
2.99717e-05
2.90842e-05
2.80328e-05
2.68696e-05
2.5667e-05
2.44911e-05
2.34313e-05
2.25574e-05
2.60488e-05
2.77457e-05
2.91526e-05
3.01424e-05
3.07608e-05
3.10648e-05
3.11322e-05
3.10379e-05
3.08744e-05
3.07836e-05
3.07614e-05
3.07929e-05
3.08214e-05
3.07273e-05
3.04557e-05
2.99967e-05
2.93446e-05
2.85153e-05
2.75404e-05
2.64543e-05
2.53137e-05
2.41691e-05
2.30828e-05
2.2147e-05
2.13803e-05
2.81883e-05
2.93694e-05
3.03877e-05
3.10822e-05
3.14496e-05
3.15348e-05
3.14241e-05
3.11667e-05
3.08658e-05
3.06532e-05
3.04865e-05
3.03518e-05
3.01214e-05
2.97951e-05
2.93252e-05
2.87017e-05
2.79271e-05
2.70233e-05
2.60213e-05
2.4952e-05
2.38703e-05
2.28119e-05
2.18349e-05
2.09885e-05
2.03124e-05
2.93197e-05
3.02561e-05
3.10456e-05
3.15497e-05
3.17334e-05
3.16928e-05
3.14396e-05
3.10751e-05
3.06614e-05
3.03262e-05
3.00013e-05
2.96409e-05
2.92491e-05
2.87696e-05
2.81792e-05
2.74703e-05
2.66507e-05
2.5739e-05
2.47578e-05
2.37494e-05
2.27434e-05
2.17742e-05
2.08733e-05
2.00552e-05
1.94182e-05
3.00284e-05
3.06885e-05
3.12747e-05
3.16404e-05
3.1723e-05
3.15983e-05
3.12638e-05
3.08135e-05
3.03113e-05
2.98148e-05
2.93581e-05
2.89212e-05
2.84537e-05
2.79186e-05
2.72994e-05
2.65908e-05
2.57996e-05
2.49453e-05
2.40446e-05
2.31239e-05
2.21737e-05
2.12025e-05
2.02073e-05
1.91704e-05
1.81313e-05
3.03332e-05
3.07766e-05
3.12216e-05
3.14925e-05
3.15267e-05
3.13693e-05
3.1013e-05
3.05192e-05
2.997e-05
2.94342e-05
2.89306e-05
2.84572e-05
2.79797e-05
2.74646e-05
2.68891e-05
2.62457e-05
2.55412e-05
2.47776e-05
2.39691e-05
2.31062e-05
2.21835e-05
2.12017e-05
2.01523e-05
1.8994e-05
1.77313e-05
3.01049e-05
3.0498e-05
3.09148e-05
3.11727e-05
3.12247e-05
3.10907e-05
3.07581e-05
3.02915e-05
2.97683e-05
2.92352e-05
2.87476e-05
2.831e-05
2.78843e-05
2.74354e-05
2.69392e-05
2.63914e-05
2.57993e-05
2.51436e-05
2.44391e-05
2.3646e-05
2.27652e-05
2.17916e-05
2.07116e-05
1.95014e-05
1.82095e-05
2.94445e-05
2.98742e-05
3.03521e-05
3.06798e-05
3.08088e-05
3.07432e-05
3.04807e-05
3.00815e-05
2.96164e-05
2.91496e-05
2.87397e-05
2.83877e-05
2.80472e-05
2.76853e-05
2.72874e-05
2.68525e-05
2.63749e-05
2.58311e-05
2.52255e-05
2.45207e-05
2.36852e-05
2.2728e-05
2.1639e-05
2.03807e-05
1.90029e-05
2.7996e-05
2.87732e-05
2.94697e-05
2.99467e-05
3.02079e-05
3.02709e-05
3.01362e-05
2.98552e-05
2.94932e-05
2.91126e-05
2.87803e-05
2.85117e-05
2.82688e-05
2.80199e-05
2.77452e-05
2.7433e-05
2.70682e-05
2.66315e-05
2.61223e-05
2.55049e-05
2.47545e-05
2.38671e-05
2.28226e-05
2.15639e-05
2.00765e-05
2.6792e-05
2.76115e-05
2.83833e-05
2.8979e-05
2.93943e-05
2.96245e-05
2.96558e-05
2.95279e-05
2.92913e-05
2.90307e-05
2.87997e-05
2.86462e-05
2.85144e-05
2.83714e-05
2.81981e-05
2.79849e-05
2.77207e-05
2.73796e-05
2.69512e-05
2.64299e-05
2.57984e-05
2.50448e-05
2.41431e-05
2.30553e-05
2.17154e-05
2.54805e-05
2.6199e-05
2.70013e-05
2.77224e-05
2.83283e-05
2.87694e-05
2.89949e-05
2.90648e-05
2.8998e-05
2.88552e-05
2.87233e-05
2.86584e-05
2.86322e-05
2.85987e-05
2.85283e-05
2.84074e-05
2.82232e-05
2.79597e-05
2.76031e-05
2.71505e-05
2.66012e-05
2.59672e-05
2.52174e-05
2.43576e-05
2.34071e-05
2.33857e-05
2.42552e-05
2.52475e-05
2.61635e-05
2.69922e-05
2.76563e-05
2.81105e-05
2.8363e-05
2.84965e-05
2.85216e-05
2.85024e-05
2.85174e-05
2.85746e-05
2.8647e-05
2.8683e-05
2.86596e-05
2.85597e-05
2.83666e-05
2.80695e-05
2.76678e-05
2.71598e-05
2.65456e-05
2.58229e-05
2.50125e-05
2.42037e-05
2.09813e-05
2.21003e-05
2.33173e-05
2.44287e-05
2.54443e-05
2.63014e-05
2.69647e-05
2.74204e-05
2.7722e-05
2.79307e-05
2.80698e-05
2.81944e-05
2.83541e-05
2.85087e-05
2.86538e-05
2.87433e-05
2.87358e-05
2.86171e-05
2.83786e-05
2.80194e-05
2.75386e-05
2.6934e-05
2.6192e-05
2.53295e-05
2.44656e-05
1.87647e-05
2.02405e-05
2.16179e-05
2.28452e-05
2.39393e-05
2.48735e-05
2.56439e-05
2.62522e-05
2.67123e-05
2.70917e-05
2.74025e-05
2.76737e-05
2.79468e-05
2.82328e-05
2.84915e-05
2.86791e-05
2.87645e-05
2.87308e-05
2.85473e-05
2.82254e-05
2.77648e-05
2.71637e-05
2.6422e-05
2.55379e-05
2.46611e-05
1.79731e-05
1.94552e-05
2.08349e-05
2.20002e-05
2.30421e-05
2.39281e-05
2.46765e-05
2.53102e-05
2.58448e-05
2.63086e-05
2.67182e-05
2.71051e-05
2.7485e-05
2.78778e-05
2.82504e-05
2.85391e-05
2.86993e-05
2.8721e-05
2.85914e-05
2.82984e-05
2.78497e-05
2.72456e-05
2.64985e-05
2.56168e-05
2.47257e-05
1.77096e-05
1.93676e-05
2.08432e-05
2.20618e-05
2.30378e-05
2.38203e-05
2.4428e-05
2.49368e-05
2.53828e-05
2.57946e-05
2.62027e-05
2.66661e-05
2.71423e-05
2.76285e-05
2.80522e-05
2.83881e-05
2.85944e-05
2.86387e-05
2.85375e-05
2.82682e-05
2.78379e-05
2.72501e-05
2.65153e-05
2.56877e-05
2.48362e-05
1.85077e-05
2.02962e-05
2.1819e-05
2.29757e-05
2.38199e-05
2.44472e-05
2.48764e-05
2.52013e-05
2.54914e-05
2.57949e-05
2.6158e-05
2.65926e-05
2.70647e-05
2.75178e-05
2.79445e-05
2.82802e-05
2.84848e-05
2.85366e-05
2.84484e-05
2.82041e-05
2.78028e-05
2.72479e-05
2.65531e-05
2.57958e-05
2.50176e-05
2.01345e-05
2.20863e-05
2.34957e-05
2.44514e-05
2.50537e-05
2.54213e-05
2.55894e-05
2.56834e-05
2.57984e-05
2.59968e-05
2.62918e-05
2.66624e-05
2.70901e-05
2.75285e-05
2.79206e-05
2.82258e-05
2.84144e-05
2.84735e-05
2.84003e-05
2.81917e-05
2.78387e-05
2.73424e-05
2.67131e-05
2.60325e-05
2.53169e-05
2.31491e-05
2.46069e-05
2.55004e-05
2.60516e-05
2.63437e-05
2.64328e-05
2.63918e-05
2.62982e-05
2.625e-05
2.63195e-05
2.65261e-05
2.68464e-05
2.7217e-05
2.7599e-05
2.79528e-05
2.82217e-05
2.84027e-05
2.84845e-05
2.84705e-05
2.83395e-05
2.80694e-05
2.76612e-05
2.71124e-05
2.65108e-05
2.58529e-05
2.61374e-05
2.68252e-05
2.72029e-05
2.73736e-05
2.73627e-05
2.72255e-05
2.7002e-05
2.68034e-05
2.66823e-05
2.66794e-05
2.68123e-05
2.7053e-05
2.73632e-05
2.76919e-05
2.80058e-05
2.82682e-05
2.85026e-05
2.86845e-05
2.87869e-05
2.87786e-05
2.86372e-05
2.83406e-05
2.78802e-05
2.73555e-05
2.67325e-05
2.80525e-05
2.83729e-05
2.84251e-05
2.8323e-05
2.80916e-05
2.77778e-05
2.74715e-05
2.71968e-05
2.704e-05
2.69957e-05
2.70671e-05
2.72444e-05
2.74992e-05
2.78063e-05
2.81509e-05
2.85e-05
2.88606e-05
2.91983e-05
2.94735e-05
2.964e-05
2.96613e-05
2.95118e-05
2.91628e-05
2.87191e-05
2.8139e-05
2.98116e-05
2.97127e-05
2.94381e-05
2.9085e-05
2.86487e-05
2.82123e-05
2.78227e-05
2.75179e-05
2.73294e-05
2.7274e-05
2.73298e-05
2.74814e-05
2.77304e-05
2.80828e-05
2.85066e-05
2.89951e-05
2.95454e-05
3.01195e-05
3.06522e-05
3.10619e-05
3.12917e-05
3.13147e-05
3.10852e-05
3.07207e-05
3.01729e-05
3.1426e-05
3.09316e-05
3.03834e-05
2.98145e-05
2.92173e-05
2.86691e-05
2.82195e-05
2.78913e-05
2.76876e-05
2.7622e-05
2.76717e-05
2.78497e-05
2.81573e-05
2.85885e-05
2.91568e-05
2.98693e-05
3.07095e-05
3.16132e-05
3.24712e-05
3.31798e-05
3.36658e-05
3.38779e-05
3.3773e-05
3.34769e-05
3.29349e-05
3.29631e-05
3.21904e-05
3.14551e-05
3.07497e-05
3.0047e-05
2.94265e-05
2.89435e-05
2.86062e-05
2.84107e-05
2.83311e-05
2.83971e-05
2.86211e-05
2.9017e-05
2.96055e-05
3.04106e-05
3.14399e-05
3.26496e-05
3.39326e-05
3.51584e-05
3.6197e-05
3.69507e-05
3.73561e-05
3.73707e-05
3.71296e-05
3.65774e-05
3.44663e-05
3.37269e-05
3.30084e-05
3.23165e-05
3.1635e-05
3.10312e-05
3.05345e-05
3.01523e-05
2.99268e-05
2.98632e-05
2.99793e-05
3.02986e-05
3.08557e-05
3.16873e-05
3.28089e-05
3.41949e-05
3.57688e-05
3.74136e-05
3.89782e-05
4.03113e-05
4.12992e-05
4.18816e-05
4.2015e-05
4.18286e-05
4.12665e-05
3.67308e-05
3.61183e-05
3.55384e-05
3.49979e-05
3.44599e-05
3.39671e-05
3.35516e-05
3.32495e-05
3.30874e-05
3.30947e-05
3.33125e-05
3.37835e-05
3.45443e-05
3.56157e-05
3.6997e-05
3.86507e-05
4.04938e-05
4.23841e-05
4.41776e-05
4.57141e-05
4.68697e-05
4.75877e-05
4.78253e-05
4.76914e-05
4.71261e-05
4.01834e-05
3.97256e-05
3.9414e-05
3.91816e-05
3.89552e-05
3.8753e-05
3.85861e-05
3.84848e-05
3.84885e-05
3.86451e-05
3.90071e-05
3.96243e-05
4.05339e-05
4.17552e-05
4.32778e-05
4.50538e-05
4.69925e-05
4.89754e-05
5.08545e-05
5.24788e-05
5.37268e-05
5.45415e-05
5.48829e-05
5.48264e-05
5.43019e-05
4.46737e-05
4.45357e-05
4.47172e-05
4.50128e-05
4.52844e-05
4.55116e-05
4.57003e-05
4.58895e-05
4.613e-05
4.648e-05
4.69982e-05
4.77369e-05
4.87324e-05
5.00003e-05
5.15296e-05
5.32768e-05
5.51511e-05
5.70661e-05
5.88931e-05
6.05017e-05
6.17865e-05
6.26895e-05
6.31741e-05
6.3274e-05
6.28989e-05
4.96101e-05
5.03035e-05
5.13401e-05
5.23944e-05
5.33167e-05
5.4067e-05
5.46683e-05
5.51763e-05
5.56578e-05
5.6182e-05
5.68134e-05
5.76066e-05
5.85981e-05
5.98009e-05
6.12088e-05
6.27908e-05
6.44884e-05
6.62222e-05
6.79081e-05
6.9447e-05
7.07596e-05
7.17943e-05
7.25127e-05
7.29045e-05
7.28415e-05
5.52263e-05
5.74242e-05
5.95082e-05
6.12786e-05
6.27312e-05
6.38967e-05
6.48218e-05
6.55748e-05
6.62317e-05
6.68657e-05
6.75418e-05
6.83145e-05
6.92189e-05
7.02692e-05
7.14634e-05
7.27861e-05
7.42268e-05
7.5734e-05
7.72518e-05
7.87242e-05
8.01085e-05
8.13766e-05
8.24846e-05
8.33742e-05
8.38274e-05
6.46709e-05
6.74168e-05
6.96998e-05
7.15591e-05
7.30752e-05
7.43067e-05
7.53084e-05
7.61381e-05
7.68542e-05
7.75133e-05
7.81673e-05
7.8859e-05
7.962e-05
8.04672e-05
8.14085e-05
8.24448e-05
8.35771e-05
8.48043e-05
8.61154e-05
8.75149e-05
8.90216e-05
9.0656e-05
9.24162e-05
9.42544e-05
9.58228e-05
7.84723e-05
7.95727e-05
8.0793e-05
8.20334e-05
8.32108e-05
8.42621e-05
8.51744e-05
8.59521e-05
8.66227e-05
8.72361e-05
8.78277e-05
8.84162e-05
8.90071e-05
8.96161e-05
9.0264e-05
9.09642e-05
9.17268e-05
9.25844e-05
9.35761e-05
9.47659e-05
9.62592e-05
9.8199e-05
0.000100797
0.00010429
0.000108454
9.03328e-05
8.9144e-05
8.94477e-05
9.03688e-05
9.14551e-05
9.25063e-05
9.34525e-05
9.42699e-05
9.49559e-05
9.55461e-05
9.6063e-05
9.65085e-05
9.68849e-05
9.72306e-05
9.75753e-05
9.79227e-05
9.82635e-05
9.86077e-05
9.90044e-05
9.95322e-05
0.000100344
0.000101728
0.000104238
0.000108792
0.000116134
8.76686e-05
9.03673e-05
9.32223e-05
9.57052e-05
9.76542e-05
9.91385e-05
0.00010031
0.000101308
0.000102096
0.000102688
0.000103114
0.00010335
0.000103436
0.000103533
0.000103634
0.00010373
0.000103689
0.000103445
0.000102999
0.000102359
0.000101555
0.000100736
0.000100305
0.000101191
0.000104993
7.46429e-05
8.90068e-05
9.72077e-05
0.000102093
0.000104813
0.000106299
0.000107169
0.00010824
0.000108977
0.000109472
0.000109746
0.000109714
0.000109269
0.00010934
0.00010924
0.000109393
0.000109147
0.000108488
0.000107405
0.000105819
0.0001036
0.000100327
9.53059e-05
8.69462e-05
7.27113e-05
0.000140972
0.000126314
0.000121735
0.000119826
0.000118818
0.000118304
0.000118099
0.000118325
0.000118558
0.000118774
0.000118852
0.00011871
0.000118285
0.000118052
0.000117912
0.000117941
0.000117614
0.000116966
0.000116125
0.000115164
0.000114261
0.00011353
0.000113517
0.000114561
0.000118728
0.000312891
0.000190444
0.000155767
0.000139615
0.000132352
0.00012899
0.000126825
0.000125088
0.000123902
0.000123596
0.000123785
0.000124457
0.000125203
0.000125367
0.000124885
0.000123754
0.000122446
0.000121539
0.000120943
0.000120919
0.000122797
0.000126887
0.000136488
0.000164649
0.000276392
0.00102179
0.000400327
0.000245804
0.000181812
0.000156119
0.00014646
0.000140564
0.000136643
0.000133796
0.000132305
0.00013185
0.000131928
0.000132632
0.000133084
0.000132804
0.00013161
0.0001297
0.00012838
0.000128204
0.000129105
0.000132552
0.000143293
0.00017512
0.00031204
0.00102452
0.000846088
0.000404358
0.00022676
0.000178009
0.000149414
0.000133054
0.000122478
0.000119302
0.000119701
0.000125916
0.000134883
0.000139821
0.000141495
0.000138458
0.00013097
0.000122399
0.000111415
0.000105975
0.000108953
0.000118858
0.000129806
0.000149434
0.000203954
0.000420321
0.00114763
0.000708361
0.000285133
0.000161271
0.000102773
7.59322e-05
6.205e-05
5.73268e-05
5.79982e-05
7.07678e-05
8.65747e-05
9.50961e-05
9.75581e-05
9.13624e-05
7.64317e-05
5.76936e-05
4.39835e-05
2.47831e-05
1.54207e-05
1.58141e-05
2.24532e-05
4.11772e-05
7.92945e-05
0.000181921
0.000345823
0.000586615
0.000332669
0.000182632
6.15148e-05
3.45787e-05
2.10637e-05
1.53762e-05
1.42238e-05
1.60112e-05
2.33298e-05
3.03749e-05
3.29844e-05
3.31075e-05
2.68517e-05
1.38967e-05
4.15681e-06
6.2309e-07
2.43053e-07
1.3973e-07
1.77062e-07
3.63865e-07
1.73323e-06
1.45166e-05
6.29232e-05
0.000217463
0.000313548
0.000132922
8.41436e-05
2.55298e-05
7.6787e-06
3.30829e-06
2.22859e-06
2.09758e-06
2.40926e-06
3.61939e-06
4.83921e-06
5.21063e-06
4.66371e-06
2.83714e-06
6.44257e-07
2.16272e-08
2.05807e-08
2.13047e-08
2.32058e-08
2.8265e-08
5.79473e-08
2.06513e-07
3.00599e-06
2.62691e-05
9.96468e-05
0.000141415
)
;

boundaryField
{
    inlet
    {
        type            calculated;
        value           nonuniform List<scalar> 
25
(
2.0194e-08
2.01945e-08
2.01944e-08
2.0194e-08
2.01933e-08
2.01923e-08
2.01912e-08
2.01899e-08
2.01886e-08
2.01874e-08
2.01864e-08
2.01856e-08
2.0185e-08
2.01845e-08
2.01844e-08
2.01846e-08
2.0185e-08
2.01855e-08
2.0186e-08
2.01867e-08
2.01873e-08
2.01878e-08
2.01883e-08
2.01888e-08
2.01897e-08
)
;
    }
    outlet
    {
        type            calculated;
        value           nonuniform List<scalar> 
25
(
0.000132885
8.41149e-05
2.55237e-05
7.68029e-06
3.30911e-06
2.22912e-06
2.0981e-06
2.41003e-06
3.62125e-06
4.84252e-06
5.21447e-06
4.66692e-06
2.83834e-06
6.44331e-07
1.88546e-08
1.88546e-08
1.88546e-08
1.88546e-08
1.88546e-08
1.88546e-08
1.88546e-08
1.88546e-08
2.62638e-05
9.96192e-05
0.000141383
)
;
    }
    walls
    {
        type            nutkWallFunction;
        Cmu             0.09;
        kappa           0.41;
        E               9.8;
        value           uniform 1e-08;
    }
    defaultFaces
    {
        type            empty;
    }
}


// ************************************************************************* //
