/*--------------------------------*- C++ -*----------------------------------*\
| =========                 |                                                 |
| \\      /  F ield         | OpenFOAM: The Open Source CFD Toolbox           |
|  \\    /   O peration     | Version:  2.3.0                                 |
|   \\  /    A nd           | Web:      www.OpenFOAM.org                      |
|    \\/     M anipulation  |                                                 |
\*---------------------------------------------------------------------------*/
FoamFile
{
    version     2.0;
    format      ascii;
    class       volVectorField;
    location    "46";
    object      Ur;
}
// * * * * * * * * * * * * * * * * * * * * * * * * * * * * * * * * * * * * * //

dimensions      [0 1 -1 0 0 0 0];

internalField   nonuniform List<vector> 
1875
(
(-0.0150002 0.21963 0)
(-0.0198778 0.219107 0)
(-0.00884966 0.219046 0)
(0.000352938 0.218805 0)
(0.00807192 0.21962 0)
(0.0134365 0.221079 0)
(0.0160887 0.221548 0)
(0.0164102 0.220618 0)
(0.0145347 0.219559 0)
(0.0106607 0.218571 0)
(0.00484523 0.218047 0)
(-0.00194709 0.216629 0)
(-0.00885147 0.214241 0)
(-0.0161068 0.209514 0)
(-0.0245652 0.203127 0)
(-0.0330721 0.19698 0)
(-0.0402692 0.194835 0)
(-0.045143 0.192802 0)
(-0.0471838 0.191806 0)
(-0.0456063 0.191843 0)
(-0.0402418 0.19282 0)
(-0.0307273 0.194378 0)
(-0.0171757 0.194647 0)
(-0.0201125 0.192723 0)
(-0.0160508 0.194637 0)
(-0.00373297 0.287893 0)
(-0.00289919 0.288235 0)
(0.0109514 0.290706 0)
(0.0179559 0.292172 0)
(0.0235789 0.291347 0)
(0.0281326 0.288857 0)
(0.0313547 0.28613 0)
(0.0330255 0.283854 0)
(0.0331184 0.281342 0)
(0.0314567 0.278601 0)
(0.0283667 0.275482 0)
(0.0223743 0.272954 0)
(0.0145007 0.271079 0)
(0.00602904 0.270676 0)
(-0.00276586 0.271605 0)
(-0.00783032 0.272423 0)
(-0.0108584 0.270856 0)
(-0.0142897 0.269976 0)
(-0.0160776 0.269169 0)
(-0.0164825 0.268873 0)
(-0.0161128 0.268867 0)
(-0.0163422 0.268754 0)
(-0.0158541 0.269356 0)
(-0.0175467 0.269812 0)
(-0.00961171 0.272171 0)
(0.00171846 0.282957 0)
(0.010489 0.285191 0)
(0.0222793 0.285737 0)
(0.0292661 0.285354 0)
(0.0347542 0.284449 0)
(0.0393021 0.283245 0)
(0.0428061 0.281952 0)
(0.0446803 0.280462 0)
(0.0448975 0.278691 0)
(0.0435371 0.276651 0)
(0.0405324 0.27441 0)
(0.0375297 0.272083 0)
(0.0319462 0.270265 0)
(0.0247807 0.268501 0)
(0.0172021 0.266588 0)
(0.00789094 0.263649 0)
(0.000103123 0.260646 0)
(-0.0046028 0.258696 0)
(-0.00731298 0.257245 0)
(-0.00847345 0.256477 0)
(-0.00894589 0.2565 0)
(-0.00934115 0.257718 0)
(-0.00917772 0.26003 0)
(-0.00987691 0.261932 0)
(-0.0053579 0.264738 0)
(0.012565 0.286709 0)
(0.025088 0.288762 0)
(0.0278736 0.287207 0)
(0.0322442 0.285235 0)
(0.0372811 0.283437 0)
(0.041357 0.281773 0)
(0.0437726 0.280172 0)
(0.044322 0.278672 0)
(0.0429783 0.277315 0)
(0.0401078 0.27598 0)
(0.0360285 0.274675 0)
(0.0303924 0.27341 0)
(0.0248102 0.271613 0)
(0.0184865 0.269698 0)
(0.0121261 0.267596 0)
(0.00455483 0.265973 0)
(-0.00234698 0.264237 0)
(-0.0062577 0.262533 0)
(-0.00766014 0.262156 0)
(-0.00734009 0.261811 0)
(-0.00595845 0.261762 0)
(-0.00434243 0.262025 0)
(-0.00301242 0.262751 0)
(-0.00345208 0.264012 0)
(-0.000800511 0.265992 0)
(0.0163045 0.277023 0)
(0.0273433 0.278904 0)
(0.0242915 0.278003 0)
(0.0292966 0.27624 0)
(0.0364113 0.274594 0)
(0.0415317 0.27304 0)
(0.0440387 0.271455 0)
(0.0440717 0.269884 0)
(0.0418637 0.268442 0)
(0.0378691 0.267283 0)
(0.0324544 0.266197 0)
(0.0255741 0.265114 0)
(0.0175232 0.263999 0)
(0.00863466 0.262948 0)
(0.000148824 0.261733 0)
(-0.00617223 0.260644 0)
(-0.00995665 0.260901 0)
(-0.0111186 0.261013 0)
(-0.0103857 0.260535 0)
(-0.00871401 0.260749 0)
(-0.0062634 0.261296 0)
(-0.00390153 0.261815 0)
(-0.00191764 0.262279 0)
(0.00115833 0.264313 0)
(0.00256384 0.265791 0)
(0.0247194 0.265764 0)
(0.0326134 0.268678 0)
(0.0209735 0.267788 0)
(0.0274087 0.266139 0)
(0.0362928 0.264839 0)
(0.0407342 0.263275 0)
(0.0417113 0.261735 0)
(0.0400451 0.260407 0)
(0.0361258 0.259298 0)
(0.030217 0.258337 0)
(0.0223663 0.257549 0)
(0.0130906 0.256875 0)
(0.00333482 0.256406 0)
(-0.0056671 0.25577 0)
(-0.0123752 0.255758 0)
(-0.0157969 0.256653 0)
(-0.0165668 0.257604 0)
(-0.0156514 0.258607 0)
(-0.0135132 0.260142 0)
(-0.0104811 0.261407 0)
(-0.00712855 0.262484 0)
(-0.00423511 0.263276 0)
(-0.00179619 0.263702 0)
(0.00469232 0.264248 0)
(0.00552885 0.265321 0)
(0.0324854 0.255417 0)
(0.0386317 0.257799 0)
(0.017632 0.257757 0)
(0.0253892 0.256906 0)
(0.0325697 0.255074 0)
(0.0338099 0.252989 0)
(0.0321787 0.251419 0)
(0.0278507 0.250349 0)
(0.0213102 0.249645 0)
(0.0130667 0.249391 0)
(0.00423824 0.249263 0)
(-0.00433793 0.249197 0)
(-0.0117153 0.248518 0)
(-0.0172312 0.251031 0)
(-0.020368 0.253513 0)
(-0.0211425 0.255663 0)
(-0.0201427 0.257597 0)
(-0.0178874 0.259563 0)
(-0.0146074 0.261455 0)
(-0.010887 0.263023 0)
(-0.00727811 0.264175 0)
(-0.00426598 0.264877 0)
(-0.00130934 0.265287 0)
(0.00632037 0.264877 0)
(0.00654056 0.264742 0)
(0.0380266 0.249275 0)
(0.0401345 0.250226 0)
(0.0119877 0.250327 0)
(0.0180161 0.249101 0)
(0.0200563 0.246714 0)
(0.0188007 0.244979 0)
(0.0158312 0.244173 0)
(0.0105409 0.244178 0)
(0.00411788 0.244822 0)
(-0.00263585 0.245047 0)
(-0.00942284 0.245701 0)
(-0.0150878 0.247808 0)
(-0.0196603 0.250899 0)
(-0.0220171 0.253017 0)
(-0.0231955 0.255553 0)
(-0.0224258 0.257863 0)
(-0.0203173 0.260159 0)
(-0.017135 0.262292 0)
(-0.0134696 0.264045 0)
(-0.00979018 0.265339 0)
(-0.00643288 0.26615 0)
(-0.00355739 0.266556 0)
(-0.000491068 0.266688 0)
(0.00634731 0.266492 0)
(0.00574918 0.265343 0)
(0.0361497 0.248168 0)
(0.0322745 0.246495 0)
(0.00262283 0.24606 0)
(0.00703687 0.244759 0)
(0.00672191 0.243346 0)
(0.00657675 0.243309 0)
(0.00473364 0.244046 0)
(0.00104483 0.245073 0)
(-0.00392933 0.245462 0)
(-0.00928628 0.247744 0)
(-0.0134741 0.251511 0)
(-0.017192 0.253717 0)
(-0.0213413 0.257376 0)
(-0.0227512 0.258308 0)
(-0.0221655 0.259541 0)
(-0.0204626 0.261848 0)
(-0.0176276 0.263819 0)
(-0.0142998 0.265441 0)
(-0.0108424 0.266622 0)
(-0.00753411 0.267383 0)
(-0.00456037 0.267764 0)
(-0.00197528 0.26785 0)
(0.00071346 0.26772 0)
(0.00540807 0.267223 0)
(0.00422039 0.265668 0)
(0.0303426 0.24869 0)
(0.0221842 0.247579 0)
(-0.00452794 0.247502 0)
(8.49526e-05 0.246865 0)
(0.00050158 0.247485 0)
(0.00152851 0.248708 0)
(0.000496739 0.250377 0)
(-0.00242144 0.252971 0)
(-0.00819513 0.257591 0)
(-0.0120852 0.26 0)
(-0.0166261 0.259849 0)
(-0.0200958 0.260225 0)
(-0.0204117 0.259936 0)
(-0.0196036 0.261879 0)
(-0.0183476 0.264209 0)
(-0.0160237 0.265834 0)
(-0.0131045 0.267209 0)
(-0.00990441 0.268222 0)
(-0.0067083 0.268883 0)
(-0.003728 0.269211 0)
(-0.00112205 0.269231 0)
(0.000931066 0.268992 0)
(0.00251409 0.268418 0)
(0.0049501 0.267417 0)
(0.00310171 0.266353 0)
(0.0276449 0.25047 0)
(0.0180212 0.251428 0)
(-0.00744155 0.252401 0)
(-0.00263364 0.252704 0)
(-0.00123667 0.253808 0)
(-0.000159669 0.255062 0)
(-0.00163254 0.256412 0)
(-0.00501658 0.257216 0)
(-0.00905139 0.257235 0)
(-0.0127531 0.25818 0)
(-0.0150149 0.260453 0)
(-0.0157361 0.262492 0)
(-0.015829 0.264882 0)
(-0.0147858 0.266813 0)
(-0.0129057 0.26823 0)
(-0.0103406 0.269437 0)
(-0.00741089 0.270361 0)
(-0.00435541 0.270973 0)
(-0.00144595 0.271273 0)
(0.00106263 0.271267 0)
(0.00296929 0.270943 0)
(0.0041466 0.270266 0)
(0.00473164 0.269384 0)
(0.0059002 0.268556 0)
(0.0034712 0.267701 0)
(0.0259724 0.252655 0)
(0.0181359 0.253154 0)
(-0.0053479 0.255698 0)
(-0.00257525 0.257246 0)
(-0.00185665 0.258537 0)
(-0.00123247 0.259735 0)
(-0.00272773 0.260799 0)
(-0.0052741 0.261988 0)
(-0.00791203 0.263329 0)
(-0.0102001 0.264414 0)
(-0.0114949 0.266005 0)
(-0.0116801 0.267714 0)
(-0.010994 0.269115 0)
(-0.0094985 0.27041 0)
(-0.00748957 0.271496 0)
(-0.00519257 0.272336 0)
(-0.00279759 0.272881 0)
(-0.000427186 0.273097 0)
(0.00180349 0.272984 0)
(0.00371117 0.27261 0)
(0.00514236 0.272047 0)
(0.006099 0.271388 0)
(0.00717782 0.27056 0)
(0.00913264 0.269979 0)
(0.00542992 0.269679 0)
(0.0241373 0.256074 0)
(0.0192231 0.257122 0)
(-0.00178083 0.258952 0)
(-0.000949281 0.260486 0)
(-0.00157353 0.261869 0)
(-0.00166107 0.263078 0)
(-0.00290273 0.264227 0)
(-0.00446298 0.265606 0)
(-0.00606753 0.266923 0)
(-0.00733668 0.268199 0)
(-0.0078473 0.269506 0)
(-0.00768088 0.270707 0)
(-0.00708704 0.271726 0)
(-0.00620849 0.272498 0)
(-0.00514186 0.272989 0)
(-0.00394861 0.273227 0)
(-0.00267273 0.27329 0)
(-0.00129488 0.273235 0)
(0.000183467 0.273108 0)
(0.00175155 0.272832 0)
(0.00328253 0.272494 0)
(0.00486392 0.271924 0)
(0.0074362 0.271252 0)
(0.011225 0.270399 0)
(0.00747995 0.270241 0)
(0.0219108 0.26019 0)
(0.018816 0.261056 0)
(0.000346739 0.262101 0)
(0.000585675 0.263239 0)
(-0.000843183 0.264544 0)
(-0.00127474 0.265695 0)
(-0.00198958 0.267012 0)
(-0.00279568 0.268328 0)
(-0.0037833 0.26949 0)
(-0.00462889 0.270563 0)
(-0.00533425 0.271451 0)
(-0.00597552 0.272045 0)
(-0.00647931 0.272402 0)
(-0.00685034 0.272653 0)
(-0.00705837 0.272835 0)
(-0.00700861 0.272954 0)
(-0.00665601 0.272986 0)
(-0.00605772 0.272968 0)
(-0.00523025 0.272845 0)
(-0.0041964 0.272773 0)
(-0.00295552 0.272518 0)
(-0.0013075 0.272387 0)
(0.00135382 0.271998 0)
(0.00849667 0.270262 0)
(0.00680428 0.269952 0)
(0.0189159 0.263352 0)
(0.0171532 0.263218 0)
(0.00156902 0.264418 0)
(0.00163601 0.265071 0)
(0.000141609 0.266239 0)
(-0.000220242 0.267393 0)
(-0.000405855 0.268672 0)
(-0.000855853 0.269755 0)
(-0.00187319 0.270616 0)
(-0.00335095 0.271154 0)
(-0.00503764 0.271358 0)
(-0.00666306 0.271586 0)
(-0.00809833 0.271873 0)
(-0.00928574 0.272122 0)
(-0.0102152 0.272331 0)
(-0.0108501 0.272491 0)
(-0.0111739 0.272599 0)
(-0.011284 0.272625 0)
(-0.011285 0.27268 0)
(-0.011102 0.272639 0)
(-0.0106727 0.27284 0)
(-0.00997844 0.273019 0)
(-0.00881195 0.273423 0)
(0.000501943 0.273368 0)
(0.00253748 0.272492 0)
(0.014766 0.265704 0)
(0.0144469 0.264618 0)
(0.00253627 0.265099 0)
(0.00272174 0.265847 0)
(0.00150489 0.266857 0)
(0.0013962 0.267947 0)
(0.00146146 0.268999 0)
(0.000659697 0.269721 0)
(-0.00115331 0.269998 0)
(-0.00349056 0.270073 0)
(-0.00577628 0.270309 0)
(-0.00778003 0.270574 0)
(-0.00959287 0.27085 0)
(-0.0111748 0.271124 0)
(-0.0124503 0.271392 0)
(-0.0134033 0.271647 0)
(-0.0140557 0.271881 0)
(-0.0144694 0.272114 0)
(-0.0147101 0.272321 0)
(-0.0147926 0.272693 0)
(-0.0147193 0.273121 0)
(-0.0146113 0.274015 0)
(-0.0148413 0.275148 0)
(-0.00820857 0.276432 0)
(-0.00161784 0.276303 0)
(0.0107411 0.263458 0)
(0.011307 0.263369 0)
(0.00328062 0.26537 0)
(0.00393676 0.265718 0)
(0.00327124 0.266552 0)
(0.00317093 0.267552 0)
(0.00278511 0.268131 0)
(0.00126234 0.268274 0)
(-0.00116368 0.268325 0)
(-0.0037561 0.26846 0)
(-0.00619576 0.268674 0)
(-0.00845473 0.26893 0)
(-0.0104646 0.269204 0)
(-0.0121441 0.269512 0)
(-0.0134226 0.269847 0)
(-0.0142926 0.270206 0)
(-0.0147394 0.270588 0)
(-0.0147087 0.27099 0)
(-0.0142474 0.271556 0)
(-0.0136661 0.272253 0)
(-0.0130943 0.273177 0)
(-0.0128537 0.274173 0)
(-0.0136228 0.275398 0)
(-0.010375 0.277796 0)
(-0.00315459 0.27827 0)
(0.0069135 0.265362 0)
(0.00892747 0.262917 0)
(0.00425187 0.263666 0)
(0.0053795 0.263988 0)
(0.0051987 0.264811 0)
(0.00485511 0.265596 0)
(0.0036835 0.265916 0)
(0.0016301 0.266012 0)
(-0.000970482 0.266068 0)
(-0.00366777 0.266185 0)
(-0.00623208 0.266346 0)
(-0.00858277 0.266569 0)
(-0.0106091 0.266849 0)
(-0.0122104 0.267186 0)
(-0.0132988 0.267568 0)
(-0.0138088 0.268005 0)
(-0.013712 0.268526 0)
(-0.0129377 0.26914 0)
(-0.0117984 0.269812 0)
(-0.010888 0.270356 0)
(-0.0101945 0.270629 0)
(-0.00939302 0.270851 0)
(-0.00919717 0.27175 0)
(-0.0084217 0.273844 0)
(-0.00395973 0.27435 0)
(0.00220476 0.266189 0)
(0.00497762 0.262905 0)
(0.00538125 0.262225 0)
(0.00696181 0.262446 0)
(0.00720232 0.262465 0)
(0.0066894 0.2629 0)
(0.00494512 0.263174 0)
(0.00244965 0.263225 0)
(-0.000368626 0.263232 0)
(-0.00319072 0.263279 0)
(-0.00581871 0.263373 0)
(-0.00814548 0.263533 0)
(-0.0100945 0.263766 0)
(-0.0115947 0.264064 0)
(-0.0125226 0.264404 0)
(-0.012765 0.264779 0)
(-0.0123429 0.26516 0)
(-0.0114468 0.26553 0)
(-0.0106336 0.26568 0)
(-0.0101959 0.265574 0)
(-0.00955958 0.265592 0)
(-0.0077425 0.265691 0)
(-0.00540678 0.265828 0)
(-0.00620582 0.267015 0)
(-0.00488755 0.267436 0)
(-0.00268641 0.263976 0)
(0.00154778 0.261102 0)
(0.00732658 0.259587 0)
(0.00893737 0.25989 0)
(0.00976736 0.260142 0)
(0.00928282 0.259997 0)
(0.00697735 0.260092 0)
(0.00384334 0.260103 0)
(0.000636031 0.260033 0)
(-0.00237762 0.259979 0)
(-0.00507903 0.259968 0)
(-0.0073845 0.260014 0)
(-0.00927057 0.260115 0)
(-0.0107434 0.260273 0)
(-0.0117378 0.260474 0)
(-0.0121699 0.260671 0)
(-0.0120946 0.2608 0)
(-0.0118155 0.260798 0)
(-0.0115913 0.260614 0)
(-0.011057 0.260564 0)
(-0.00993266 0.260817 0)
(-0.00797244 0.261163 0)
(-0.00438214 0.261018 0)
(-0.00552983 0.260523 0)
(-0.00511314 0.260711 0)
(-0.00738975 0.260195 0)
(-0.00189873 0.25794 0)
(0.00937891 0.25844 0)
(0.011336 0.257971 0)
(0.0124856 0.257584 0)
(0.0125195 0.257223 0)
(0.0101649 0.257097 0)
(0.00636023 0.257037 0)
(0.00238206 0.256908 0)
(-0.00113602 0.256742 0)
(-0.0040935 0.256579 0)
(-0.00650354 0.256448 0)
(-0.00841884 0.256364 0)
(-0.00992416 0.256323 0)
(-0.01108 0.256343 0)
(-0.0119108 0.256397 0)
(-0.0123999 0.25643 0)
(-0.0126072 0.256436 0)
(-0.0123354 0.25652 0)
(-0.0112866 0.256872 0)
(-0.00980494 0.257261 0)
(-0.00813014 0.257579 0)
(-0.00542151 0.257679 0)
(-0.00741835 0.25715 0)
(-0.00663038 0.257097 0)
(-0.0106859 0.261431 0)
(-0.00559297 0.259873 0)
(0.0101165 0.258583 0)
(0.0132476 0.257849 0)
(0.0146958 0.257096 0)
(0.0152633 0.255931 0)
(0.0138789 0.255003 0)
(0.0102951 0.254562 0)
(0.00562403 0.254306 0)
(0.00109776 0.254017 0)
(-0.00265294 0.253761 0)
(-0.00549254 0.253501 0)
(-0.00760019 0.253234 0)
(-0.00917684 0.253012 0)
(-0.0103877 0.252869 0)
(-0.0113563 0.252831 0)
(-0.0120357 0.252936 0)
(-0.01227 0.253172 0)
(-0.0116937 0.25359 0)
(-0.0103956 0.254112 0)
(-0.00895663 0.254481 0)
(-0.00752964 0.254759 0)
(-0.00525382 0.254924 0)
(-0.00776066 0.254712 0)
(-0.00673166 0.254481 0)
(-0.0126643 0.262603 0)
(-0.00876519 0.262445 0)
(0.00939264 0.260639 0)
(0.0144873 0.259228 0)
(0.0163876 0.25808 0)
(0.0172067 0.256785 0)
(0.0167897 0.255122 0)
(0.0144964 0.2537 0)
(0.0103589 0.253 0)
(0.00534115 0.252751 0)
(0.000552425 0.252172 0)
(-0.00341554 0.2516 0)
(-0.00627623 0.251236 0)
(-0.00817642 0.25091 0)
(-0.0094367 0.250675 0)
(-0.0102511 0.250581 0)
(-0.0106954 0.250717 0)
(-0.0106699 0.251056 0)
(-0.00996883 0.251599 0)
(-0.00882495 0.25204 0)
(-0.00760447 0.252379 0)
(-0.00641626 0.252644 0)
(-0.00448798 0.252815 0)
(-0.00772818 0.252661 0)
(-0.00691476 0.252026 0)
(-0.0122096 0.264233 0)
(-0.010763 0.266105 0)
(0.00615267 0.264435 0)
(0.0134349 0.262299 0)
(0.0167251 0.260579 0)
(0.0180365 0.259074 0)
(0.018099 0.25744 0)
(0.0169035 0.255671 0)
(0.0142363 0.253348 0)
(0.0101868 0.250646 0)
(0.0052199 0.251131 0)
(0.000588066 0.251645 0)
(-0.00329453 0.250853 0)
(-0.00608757 0.250314 0)
(-0.00774589 0.249964 0)
(-0.00854191 0.249812 0)
(-0.00874312 0.24986 0)
(-0.0084592 0.250128 0)
(-0.00778741 0.250515 0)
(-0.00692602 0.250883 0)
(-0.00595416 0.251209 0)
(-0.00508786 0.251486 0)
(-0.00365625 0.251667 0)
(-0.00820909 0.251545 0)
(-0.00758156 0.250812 0)
(-0.0100196 0.265315 0)
(-0.0106672 0.267073 0)
(0.00219975 0.267401 0)
(0.00972833 0.265846 0)
(0.0147787 0.263781 0)
(0.0174816 0.261953 0)
(0.0182684 0.260332 0)
(0.0177379 0.258653 0)
(0.0157624 0.256883 0)
(0.0128473 0.255189 0)
(0.00952925 0.250725 0)
(0.00467101 0.249282 0)
(0.000283329 0.251148 0)
(-0.00315414 0.25104 0)
(-0.0054193 0.250604 0)
(-0.00651107 0.250327 0)
(-0.00668612 0.250243 0)
(-0.00627111 0.250362 0)
(-0.00560301 0.250601 0)
(-0.00486835 0.250893 0)
(-0.0040842 0.251204 0)
(-0.00359888 0.251477 0)
(-0.00270318 0.251648 0)
(-0.00808933 0.251631 0)
(-0.00758093 0.251298 0)
(-0.00817194 0.266461 0)
(-0.00931714 0.267753 0)
(4.0743e-05 0.268692 0)
(0.00521693 0.26847 0)
(0.0106827 0.26698 0)
(0.0149519 0.265059 0)
(0.0172039 0.263267 0)
(0.0173495 0.261557 0)
(0.0164195 0.260808 0)
(0.0136023 0.261568 0)
(0.00974927 0.262598 0)
(0.00768705 0.259153 0)
(0.00359413 0.253187 0)
(-3.86171e-05 0.252254 0)
(-0.00284344 0.251953 0)
(-0.004383 0.251617 0)
(-0.00476001 0.251468 0)
(-0.00433922 0.251494 0)
(-0.00364313 0.251669 0)
(-0.00289585 0.251899 0)
(-0.00223652 0.252202 0)
(-0.00211814 0.252402 0)
(-0.00167206 0.252585 0)
(-0.00710065 0.252604 0)
(-0.00677974 0.252674 0)
(-0.00806348 0.267143 0)
(-0.00996492 0.268122 0)
(-0.00192704 0.26888 0)
(0.00148463 0.269749 0)
(0.00572346 0.269454 0)
(0.010562 0.268115 0)
(0.0142443 0.266329 0)
(0.0160122 0.264616 0)
(0.0155738 0.262488 0)
(0.0145186 0.260605 0)
(0.0122809 0.259409 0)
(0.0087955 0.258503 0)
(0.00551522 0.257913 0)
(0.00224613 0.255085 0)
(-0.000104561 0.253854 0)
(-0.00184002 0.253374 0)
(-0.00264404 0.253208 0)
(-0.0024835 0.253216 0)
(-0.00183286 0.253325 0)
(-0.00108392 0.253564 0)
(-0.000614371 0.253773 0)
(-0.000767983 0.253919 0)
(-0.000660577 0.254105 0)
(-0.00563373 0.25416 0)
(-0.00552428 0.254439 0)
(-0.00785152 0.264912 0)
(-0.0100745 0.267752 0)
(-0.00288318 0.269143 0)
(-9.91738e-05 0.269846 0)
(0.00269656 0.270504 0)
(0.00653372 0.27022 0)
(0.0105421 0.268988 0)
(0.0134016 0.267236 0)
(0.0142499 0.265398 0)
(0.0132579 0.262991 0)
(0.0110412 0.260499 0)
(0.0078595 0.259228 0)
(0.00515348 0.258032 0)
(0.00270149 0.256972 0)
(0.00118548 0.255535 0)
(7.95182e-05 0.255264 0)
(-0.000756842 0.255107 0)
(-0.000886511 0.255155 0)
(-0.000385729 0.25528 0)
(0.000304093 0.255437 0)
(0.000596358 0.255586 0)
(0.000323965 0.255698 0)
(0.00019738 0.255861 0)
(-0.00398347 0.255898 0)
(-0.00403805 0.256309 0)
(-0.00633567 0.266619 0)
(-0.00808562 0.268572 0)
(-0.00154746 0.269152 0)
(0.000998907 0.269869 0)
(0.0030997 0.270292 0)
(0.00544746 0.270588 0)
(0.00806719 0.270195 0)
(0.0104305 0.268959 0)
(0.0117702 0.267199 0)
(0.0115085 0.265228 0)
(0.0094356 0.26353 0)
(0.00602379 0.261705 0)
(0.00325589 0.260281 0)
(0.00201853 0.258958 0)
(0.00105878 0.257706 0)
(0.000805093 0.257081 0)
(0.000562385 0.256921 0)
(0.000408815 0.257008 0)
(0.000662839 0.257191 0)
(0.00118551 0.257321 0)
(0.00140956 0.257412 0)
(0.00110897 0.257509 0)
(0.000796854 0.257586 0)
(-0.00236968 0.257604 0)
(-0.00252332 0.258047 0)
(-0.00417581 0.267865 0)
(-0.00527431 0.269266 0)
(0.000545531 0.269329 0)
(0.00361328 0.269206 0)
(0.00588099 0.269146 0)
(0.00759396 0.269019 0)
(0.00876971 0.268831 0)
(0.00955656 0.268354 0)
(0.00973665 0.267409 0)
(0.00895097 0.265948 0)
(0.00627103 0.264286 0)
(0.00282263 0.262494 0)
(0.000832599 0.261298 0)
(-0.000152959 0.261127 0)
(-0.00043309 0.26053 0)
(9.65105e-05 0.259263 0)
(0.000717844 0.258764 0)
(0.00106702 0.258751 0)
(0.00131554 0.258946 0)
(0.00165229 0.259082 0)
(0.00178778 0.259126 0)
(0.00149671 0.25909 0)
(0.00110877 0.259107 0)
(-0.000964928 0.259057 0)
(-0.00115648 0.259474 0)
(-0.00114815 0.266485 0)
(-0.00130622 0.267651 0)
(0.00310476 0.266997 0)
(0.00687931 0.266927 0)
(0.00909963 0.266571 0)
(0.010423 0.266006 0)
(0.0107365 0.265427 0)
(0.0101859 0.264864 0)
(0.0086608 0.264274 0)
(0.0059883 0.263574 0)
(0.00166993 0.262503 0)
(-0.00149547 0.261378 0)
(-0.00232523 0.261068 0)
(-0.00278387 0.260773 0)
(-0.00244686 0.260535 0)
(-0.00132982 0.260579 0)
(-0.000115097 0.260532 0)
(0.000801813 0.260519 0)
(0.00132007 0.260533 0)
(0.00163329 0.260603 0)
(0.00169518 0.260502 0)
(0.00152816 0.260408 0)
(0.00110019 0.260305 0)
(6.33766e-05 0.26013 0)
(-5.1356e-05 0.260472 0)
(0.00250495 0.263989 0)
(0.00387069 0.264413 0)
(0.00619734 0.264333 0)
(0.00906535 0.263824 0)
(0.0110569 0.262831 0)
(0.0118242 0.262023 0)
(0.0115501 0.261399 0)
(0.0101653 0.261045 0)
(0.00687001 0.260894 0)
(0.0013448 0.260548 0)
(-0.00316806 0.259328 0)
(-0.00470891 0.25996 0)
(-0.0050467 0.260374 0)
(-0.00504602 0.260767 0)
(-0.00419938 0.261081 0)
(-0.00272138 0.261512 0)
(-0.00117739 0.261701 0)
(3.05437e-05 0.261762 0)
(0.000856005 0.26177 0)
(0.00127102 0.261744 0)
(0.00131606 0.261596 0)
(0.00116914 0.261448 0)
(0.000622087 0.261393 0)
(0.000444244 0.261084 0)
(0.000579554 0.261191 0)
(0.00570058 0.260054 0)
(0.00826627 0.260695 0)
(0.00821017 0.26069 0)
(0.0102649 0.259631 0)
(0.0116635 0.258814 0)
(0.012104 0.258115 0)
(0.0113376 0.257705 0)
(0.00805872 0.25755 0)
(0.00179232 0.257126 0)
(-0.00430467 0.256352 0)
(-0.0066983 0.257893 0)
(-0.00688315 0.260151 0)
(-0.00693157 0.261085 0)
(-0.00645498 0.260863 0)
(-0.00532241 0.261592 0)
(-0.00363824 0.262138 0)
(-0.00196231 0.262465 0)
(-0.000548904 0.262581 0)
(0.0005664 0.262598 0)
(0.00108129 0.262497 0)
(0.00125788 0.262247 0)
(0.00105053 0.262152 0)
(2.56477e-05 0.260849 0)
(0.000273755 0.261297 0)
(0.000673005 0.26147 0)
(0.00785812 0.259092 0)
(0.0110481 0.258752 0)
(0.00851677 0.25752 0)
(0.0102619 0.256415 0)
(0.0112209 0.255761 0)
(0.0108888 0.255224 0)
(0.00799436 0.254773 0)
(0.00212899 0.254187 0)
(-0.00394097 0.254187 0)
(-0.00696282 0.256342 0)
(-0.00767965 0.257952 0)
(-0.0078273 0.258598 0)
(-0.00784697 0.25969 0)
(-0.00711042 0.261209 0)
(-0.00569792 0.262059 0)
(-0.00396949 0.262676 0)
(-0.00222886 0.263031 0)
(-0.00058238 0.263171 0)
(0.000809779 0.263147 0)
(0.00143381 0.262891 0)
(0.0017404 0.262617 0)
(0.00119175 0.262221 0)
(-0.000167459 0.261655 0)
(-1.90033e-05 0.261998 0)
(0.000357329 0.261537 0)
(0.00875914 0.25819 0)
(0.0117972 0.256517 0)
(0.00755102 0.255543 0)
(0.00882503 0.254732 0)
(0.00932451 0.254085 0)
(0.00684519 0.253386 0)
(0.00191713 0.252686 0)
(-0.00324214 0.252706 0)
(-0.00615602 0.253518 0)
(-0.007316 0.253758 0)
(-0.00766632 0.257627 0)
(-0.00839121 0.260451 0)
(-0.00795308 0.26051 0)
(-0.00707722 0.261732 0)
(-0.00556173 0.262586 0)
(-0.00377746 0.263173 0)
(-0.00181717 0.263523 0)
(0.000114003 0.263678 0)
(0.00155481 0.263569 0)
(0.00226554 0.263104 0)
(0.00223056 0.262808 0)
(0.00104019 0.262018 0)
(0.000101619 0.263348 0)
(-5.30254e-05 0.26232 0)
(-9.07346e-05 0.261854 0)
(0.00704177 0.255845 0)
(0.00962295 0.255065 0)
(0.00582189 0.254608 0)
(0.00644849 0.253996 0)
(0.0052027 0.253125 0)
(0.00122311 0.252257 0)
(-0.0027027 0.252251 0)
(-0.00484763 0.253612 0)
(-0.00574076 0.256126 0)
(-0.00630835 0.260085 0)
(-0.0070917 0.260166 0)
(-0.00793375 0.259121 0)
(-0.00744029 0.261391 0)
(-0.00652484 0.262398 0)
(-0.00497778 0.263198 0)
(-0.00295366 0.263776 0)
(-0.00064067 0.264132 0)
(0.00144023 0.264185 0)
(0.00265961 0.263868 0)
(0.00315507 0.263421 0)
(0.00253223 0.2628 0)
(0.00125592 0.262201 0)
(0.000767235 0.262598 0)
(0.000276023 0.261911 0)
(-0.000366796 0.262007 0)
(0.00571417 0.255242 0)
(0.00751109 0.254777 0)
(0.00375134 0.254025 0)
(0.00302696 0.253618 0)
(0.000212013 0.252757 0)
(-0.00287383 0.252575 0)
(-0.00421325 0.253597 0)
(-0.00450261 0.254721 0)
(-0.00506159 0.257095 0)
(-0.00569395 0.259507 0)
(-0.00669981 0.260869 0)
(-0.00688543 0.26077 0)
(-0.00675365 0.262102 0)
(-0.00570385 0.263079 0)
(-0.00389929 0.263885 0)
(-0.00154656 0.264487 0)
(0.000758687 0.264755 0)
(0.00243814 0.26454 0)
(0.00340323 0.264024 0)
(0.0036462 0.263621 0)
(0.00310019 0.262995 0)
(0.00268357 0.262913 0)
(0.00278893 0.261619 0)
(0.00200333 0.261267 0)
(0.000522428 0.26144 0)
(0.00444343 0.255722 0)
(0.00527318 0.25511 0)
(0.00151506 0.254448 0)
(6.02923e-05 0.25399 0)
(-0.00263233 0.253715 0)
(-0.00371904 0.25437 0)
(-0.00335888 0.255516 0)
(-0.00327353 0.25735 0)
(-0.00373961 0.259211 0)
(-0.00468691 0.25894 0)
(-0.00559786 0.259054 0)
(-0.00574707 0.261638 0)
(-0.00556527 0.262656 0)
(-0.0043845 0.263623 0)
(-0.00247668 0.264393 0)
(-0.000438994 0.264789 0)
(0.00116597 0.264639 0)
(0.00230909 0.26427 0)
(0.00322785 0.263947 0)
(0.00368322 0.263568 0)
(0.00394711 0.263394 0)
(0.00453288 0.263286 0)
(0.00502986 0.262918 0)
(0.00486005 0.262789 0)
(0.002658 0.26302 0)
(0.00267769 0.257073 0)
(0.00279021 0.256295 0)
(-0.000309481 0.255945 0)
(-0.00138217 0.25552 0)
(-0.00282663 0.255848 0)
(-0.00266476 0.256657 0)
(-0.00191772 0.257581 0)
(-0.00175964 0.258558 0)
(-0.00216114 0.258542 0)
(-0.00321326 0.258911 0)
(-0.00418742 0.260802 0)
(-0.00450487 0.262029 0)
(-0.00417495 0.262971 0)
(-0.00314431 0.263791 0)
(-0.00191146 0.264216 0)
(-0.000878537 0.2641 0)
(-4.27356e-06 0.264069 0)
(0.000953752 0.26399 0)
(0.001949 0.263828 0)
(0.00282657 0.263496 0)
(0.00370392 0.263458 0)
(0.00454923 0.263295 0)
(0.00539571 0.263218 0)
(0.00682172 0.26352 0)
(0.00415471 0.261464 0)
(0.000805932 0.258975 0)
(0.00077376 0.258135 0)
(-0.000828645 0.25792 0)
(-0.00120205 0.25777 0)
(-0.00162925 0.258132 0)
(-0.00122054 0.258573 0)
(-0.000504334 0.258967 0)
(-0.00025746 0.259429 0)
(-0.000594368 0.259801 0)
(-0.00159617 0.260429 0)
(-0.00261187 0.26145 0)
(-0.00313596 0.262159 0)
(-0.00312699 0.26282 0)
(-0.00288373 0.263162 0)
(-0.00266505 0.263201 0)
(-0.00228839 0.263168 0)
(-0.00176883 0.262827 0)
(-0.00110586 0.262513 0)
(-0.000264954 0.262237 0)
(0.000976925 0.263162 0)
(0.00194911 0.263032 0)
(0.00238876 0.262913 0)
(0.00235563 0.262575 0)
(0.00414306 0.261574 0)
(0.00364973 0.26268 0)
(-0.000807938 0.259744 0)
(-0.000692741 0.25893 0)
(-0.00031083 0.260028 0)
(-0.000149718 0.260096 0)
(-0.000244075 0.260155 0)
(7.34263e-05 0.260128 0)
(0.00070942 0.260166 0)
(0.0010425 0.26016 0)
(0.000918555 0.26025 0)
(0.000519724 0.260496 0)
(-0.000851721 0.261218 0)
(-0.00231523 0.261393 0)
(-0.00290029 0.261636 0)
(-0.00354628 0.261752 0)
(-0.00401373 0.261841 0)
(-0.00408838 0.262068 0)
(-0.00353742 0.26224 0)
(-0.00284189 0.262449 0)
(-0.0022059 0.262581 0)
(-0.0015862 0.261509 0)
(-0.000755545 0.261729 0)
(-0.000706397 0.261719 0)
(-0.00141677 0.261714 0)
(0.000738846 0.261668 0)
(0.00181337 0.261094 0)
(-0.00163659 0.262033 0)
(-0.00105095 0.261793 0)
(0.000965399 0.260238 0)
(0.00107905 0.260109 0)
(0.000667825 0.260448 0)
(0.000810394 0.261155 0)
(0.00143362 0.260947 0)
(0.00190947 0.260581 0)
(0.00194557 0.260199 0)
(0.00192034 0.260035 0)
(0.000702325 0.259811 0)
(-0.00140921 0.260394 0)
(-0.00285048 0.260326 0)
(-0.00410963 0.260294 0)
(-0.00512244 0.260346 0)
(-0.00581069 0.260471 0)
(-0.00598087 0.260902 0)
(-0.00555666 0.261422 0)
(-0.00506787 0.261978 0)
(-0.00446128 0.261264 0)
(-0.00418395 0.260701 0)
(-0.00385098 0.260521 0)
(-0.0043013 0.260869 0)
(-0.00319441 0.26167 0)
(-0.00114368 0.26129 0)
(-0.00148685 0.261706 0)
(-0.000533763 0.262851 0)
(0.0023049 0.26218 0)
(0.00174423 0.262314 0)
(0.000679635 0.261878 0)
(0.000724435 0.261565 0)
(0.00147774 0.261334 0)
(0.00213283 0.260969 0)
(0.00245658 0.261007 0)
(0.00251898 0.260426 0)
(0.00212031 0.259291 0)
(0.000204274 0.259376 0)
(-0.00230978 0.259228 0)
(-0.00412409 0.258996 0)
(-0.00542318 0.258923 0)
(-0.00640003 0.258984 0)
(-0.00701428 0.259049 0)
(-0.00724749 0.259064 0)
(-0.00749133 0.259143 0)
(-0.00778558 0.260563 0)
(-0.00711935 0.260294 0)
(-0.0056791 0.26023 0)
(-0.00479141 0.26059 0)
(-0.00541934 0.261705 0)
(-0.00373797 0.262193 0)
(-0.000445609 0.260994 0)
(0.000831191 0.261239 0)
(0.00301167 0.263403 0)
(0.00143508 0.263454 0)
(-0.000239832 0.262603 0)
(0.000250165 0.261518 0)
(0.00111537 0.261343 0)
(0.00209069 0.26098 0)
(0.00275187 0.26027 0)
(0.00306948 0.260366 0)
(0.00342968 0.25954 0)
(0.00207747 0.258194 0)
(-0.0011343 0.258145 0)
(-0.00358617 0.257793 0)
(-0.00509568 0.257583 0)
(-0.00609873 0.257569 0)
(-0.00695086 0.257739 0)
(-0.00767844 0.257953 0)
(-0.00817814 0.258097 0)
(-0.00858746 0.258372 0)
(-0.00829218 0.259458 0)
(-0.00649149 0.260031 0)
(-0.00403874 0.260105 0)
(-0.00448432 0.260535 0)
(-0.00347642 0.261261 0)
(0.000810089 0.262426 0)
(0.00154523 0.262023 0)
(0.0013892 0.261276 0)
(-0.000769502 0.260226 0)
(-0.00168057 0.260632 0)
(-0.000666668 0.261333 0)
(0.000415858 0.261258 0)
(0.00174436 0.260937 0)
(0.00283051 0.260388 0)
(0.00331025 0.259328 0)
(0.00381196 0.25894 0)
(0.00357849 0.257401 0)
(0.00127062 0.256611 0)
(-0.00173434 0.256626 0)
(-0.00391738 0.256412 0)
(-0.00514267 0.256305 0)
(-0.00605629 0.256387 0)
(-0.00687134 0.256658 0)
(-0.00732794 0.257107 0)
(-0.00747783 0.257647 0)
(-0.00730691 0.258517 0)
(-0.0061586 0.259419 0)
(-0.00324874 0.259656 0)
(-0.00271165 0.259779 0)
(-0.00220855 0.26037 0)
(-0.000638775 0.259882 0)
(-0.00260184 0.259363 0)
(-0.00468639 0.259613 0)
(-0.00523102 0.259874 0)
(-0.00370475 0.260802 0)
(-0.00189692 0.261258 0)
(-0.000239054 0.261294 0)
(0.00143134 0.261037 0)
(0.00285341 0.260535 0)
(0.00368345 0.259845 0)
(0.00404365 0.257812 0)
(0.0043116 0.256728 0)
(0.00333464 0.255507 0)
(0.000903729 0.255652 0)
(-0.00158544 0.255532 0)
(-0.00331245 0.255453 0)
(-0.004409 0.255517 0)
(-0.00520841 0.255799 0)
(-0.00560152 0.256269 0)
(-0.00548811 0.256798 0)
(-0.0050325 0.257426 0)
(-0.00428916 0.258107 0)
(-0.00273638 0.258816 0)
(-0.00262509 0.258063 0)
(-0.00225343 0.258649 0)
(-0.00281226 0.256601 0)
(-0.00663809 0.25855 0)
(-0.00940408 0.259025 0)
(-0.00814458 0.260274 0)
(-0.00471019 0.261126 0)
(-0.00188123 0.26146 0)
(0.000273141 0.261541 0)
(0.0019772 0.261351 0)
(0.00329349 0.260497 0)
(0.00430268 0.259255 0)
(0.00390094 0.259165 0)
(0.0034998 0.258884 0)
(0.00353334 0.257453 0)
(0.00261438 0.255307 0)
(0.000962672 0.254937 0)
(-0.000771636 0.254891 0)
(-0.00206779 0.255014 0)
(-0.00297793 0.25532 0)
(-0.00348359 0.25576 0)
(-0.00331813 0.256206 0)
(-0.00263859 0.256664 0)
(-0.00164008 0.257041 0)
(-0.00166352 0.257734 0)
(-0.0029472 0.257561 0)
(-0.00204541 0.256768 0)
(-0.00375695 0.257899 0)
(-0.00841041 0.259223 0)
(-0.00905633 0.260211 0)
(-0.00708657 0.261565 0)
(-0.00323865 0.262276 0)
(0.000122321 0.262222 0)
(0.00241097 0.261884 0)
(0.00375477 0.261173 0)
(0.00437474 0.260825 0)
(0.0040583 0.260679 0)
(0.00374226 0.261204 0)
(0.00340252 0.260098 0)
(0.0032889 0.258022 0)
(0.00325731 0.255871 0)
(0.00284117 0.255083 0)
(0.00189132 0.254788 0)
(0.000730568 0.254844 0)
(-0.000342575 0.255087 0)
(-0.00110275 0.255447 0)
(-0.00106413 0.255854 0)
(-0.000417954 0.256157 0)
(0.000465133 0.256304 0)
(-0.000541498 0.256016 0)
(-0.00275906 0.256105 0)
(-0.0018941 0.256197 0)
(-0.00380551 0.261239 0)
(-0.00504808 0.259704 0)
(-0.0041873 0.26139 0)
(-0.00307706 0.261946 0)
(-0.000273628 0.262114 0)