/*--------------------------------*- C++ -*----------------------------------*\
| =========                 |                                                 |
| \\      /  F ield         | OpenFOAM: The Open Source CFD Toolbox           |
|  \\    /   O peration     | Version:  2.3.0                                 |
|   \\  /    A nd           | Web:      www.OpenFOAM.org                      |
|    \\/     M anipulation  |                                                 |
\*---------------------------------------------------------------------------*/
FoamFile
{
    version     2.0;
    format      ascii;
    class       volVectorField;
    location    "4.4018";
    object      U;
}
// * * * * * * * * * * * * * * * * * * * * * * * * * * * * * * * * * * * * * //

dimensions      [0 1 -1 0 0 0 0];

internalField   nonuniform List<vector> 
1000
(
(-0.0453285 0.0353503 -0.00338728)
(-0.0472471 0.0167522 -0.00407534)
(-0.0546539 0.0189424 -0.00419831)
(-0.0599833 0.0279682 -0.00408098)
(-0.0585962 0.0381996 -0.00189877)
(-0.0539649 0.0418002 -0.000196502)
(-0.0519457 0.0400155 0.000775971)
(-0.046431 0.0328421 -0.000349615)
(-0.026636 0.0237444 -0.00157044)
(0.00590177 0.00881051 -0.00496381)
(0.0571422 -0.000677846 -0.00420114)
(0.0835323 0.0368651 -0.00276055)
(0.0413069 0.0462369 -0.00681358)
(-0.0123911 0.0506483 -0.00532012)
(-0.0294941 0.0199192 -0.000827406)
(-0.0342554 0.00458914 -0.00012494)
(-0.0228555 -0.000253938 9.10606e-05)
(-0.000649742 -0.0137738 0.000207675)
(0.0382631 -0.0172087 -0.00095206)
(0.0579018 0.0316711 0.000339274)
(-0.0356932 0.0984411 -0.00050105)
(-0.0351648 0.0473958 0.000296764)
(-0.0454306 0.044315 0.0010088)
(-0.0468194 0.0281701 0.00246169)
(-0.0409513 0.00371072 0.00088497)
(-0.0318968 -0.0045055 -0.000306649)
(-0.0240873 -0.010335 -0.000328779)
(-0.016486 -0.0143125 0.000493955)
(-0.00287775 -0.0218664 -0.00049091)
(0.0214612 -0.0208454 -0.000180451)
(0.0355146 -0.0219921 -0.0010516)
(0.0622046 -0.0027487 -0.000191464)
(0.0406678 0.0750368 0.00214151)
(0.0121246 0.0847656 -0.00161063)
(0.00786848 0.0286008 -0.000382672)
(-0.00231631 -0.00774122 -6.5104e-05)
(-0.00274244 -0.0169397 -4.56821e-05)
(0.00415601 -0.0328795 0.000417728)
(0.0101325 -0.0255209 -0.000413977)
(0.0411155 0.0493362 8.38589e-05)
(-0.0184036 0.135114 0.00112178)
(-0.023602 0.0498311 0.00190858)
(-0.0298093 0.0390708 0.00146585)
(-0.0228928 0.00618146 0.000982858)
(-0.0191547 -0.00708011 0.000700199)
(-0.0191307 -0.00790681 0.000136975)
(-0.016525 -0.0130056 7.34501e-05)
(-0.0128551 -0.0239241 3.50198e-05)
(-0.00352578 -0.0397275 -0.000644521)
(0.00803529 -0.0505983 0.000160269)
(0.0259464 -0.0507173 -0.000176852)
(0.0470351 -0.0291213 0.00123471)
(0.0353418 0.0666275 0.00254583)
(0.0207704 0.109942 0.000404341)
(0.020309 0.053931 -8.06599e-05)
(0.00546235 0.00162701 -3.46134e-05)
(-0.00166117 -0.0185883 0.000115339)
(0.00173992 -0.0383907 0.00030569)
(0.0024668 -0.0340627 0.000939259)
(0.0307156 0.0687395 0.000303938)
(-0.00457964 0.15172 0.00147907)
(-0.0149751 0.035564 0.00102994)
(-0.0139448 0.0150498 -8.51637e-06)
(-0.00875149 -0.00268799 0.00057295)
(-0.00989617 -0.00716656 5.94793e-05)
(-0.0100553 -0.00925376 1.21763e-06)
(-0.0105615 -0.0146648 5.92488e-05)
(-0.0102834 -0.0255637 0.000198041)
(-0.00896416 -0.0437228 0.000312282)
(-0.0087487 -0.0591134 -0.000954633)
(-0.00157995 -0.0629685 -0.000285537)
(0.0189479 -0.033741 -0.000259499)
(0.0213087 0.0703209 0.00318931)
(0.017327 0.106057 0.000613189)
(0.025509 0.060678 0.000202523)
(0.0209326 0.0120715 -0.000204175)
(0.00616396 -0.0109482 -2.4199e-05)
(0.00234809 -0.0360661 -0.000160862)
(-0.00614744 -0.0408709 0.0012026)
(0.0253203 0.0747317 0.000297794)
(0.00263384 0.162016 0.00127701)
(-0.0119505 0.0203317 0.00065597)
(-0.00978038 0.00298687 0.000308919)
(-0.00586053 -0.00354556 0.000110034)
(-0.00532465 -0.00630904 3.62875e-05)
(-0.00446647 -0.00768735 6.68351e-05)
(-0.00618488 -0.0126596 7.62079e-05)
(-0.0078327 -0.0235965 3.69454e-05)
(-0.0119557 -0.0436527 -0.000108784)
(-0.0198531 -0.0609197 -0.000488716)
(-0.0251908 -0.0609033 -0.000912759)
(-0.0261314 -0.0288602 -0.00294957)
(1.58351e-05 0.0728882 -7.85617e-05)
(0.0213979 0.094566 -0.00317931)
(0.0425995 0.0616022 -0.00137725)
(0.0408073 0.0236147 -0.000401)
(0.0161381 -0.00168933 -5.46861e-05)
(0.00564086 -0.026858 -0.000121777)
(-0.0101455 -0.0427158 0.000724146)
(0.0176682 0.0774183 0.000127801)
(0.00521274 0.169597 0.00104105)
(-0.0104259 0.0182729 0.000396494)
(-0.00942165 -0.000338902 0.000258979)
(-0.00561163 -0.00662576 4.29643e-06)
(-0.00293717 -0.00823835 1.73427e-06)
(-0.00171824 -0.0078756 1.66899e-05)
(-0.00289277 -0.010378 3.74751e-05)
(-0.00565337 -0.0174013 0.000142848)
(-0.0113535 -0.0332422 -2.04047e-05)
(-0.0257422 -0.0551113 -0.000270616)
(-0.0349567 -0.0611729 -0.000492291)
(-0.04356 -0.0315604 0.00138116)
(-0.0101017 0.0633732 0.00131773)
(0.0425011 0.0840238 -3.55783e-05)
(0.0749457 0.0748429 -0.000863162)
(0.0750836 0.0561009 -4.94883e-05)
(0.0433658 0.0223238 0.000247781)
(0.0197457 -0.0153733 0.000386564)
(-0.0114293 -0.0378088 0.000620658)
(0.00647177 0.0729468 -0.000282974)
(0.00524761 0.172704 0.000766988)
(-0.00810623 0.0183046 -0.000151813)
(-0.00950442 -0.00177782 0.000166085)
(-0.00537641 -0.00899481 -3.4149e-05)
(-0.00188132 -0.0100114 -6.62086e-06)
(-0.000596647 -0.00768496 6.77218e-06)
(-0.00173086 -0.00882809 1.03604e-05)
(-0.00362544 -0.0146742 2.533e-06)
(-0.00774205 -0.0252773 0.000173061)
(-0.0181011 -0.039221 0.000523129)
(-0.0336945 -0.0478319 0.000800869)
(-0.0426746 -0.0409345 0.000940999)
(-0.026746 0.0059034 0.00389008)
(0.0230372 0.0213256 0.00384508)
(0.0903666 0.0639169 0.00309587)
(0.104488 0.0787752 0.000941078)
(0.0884089 0.0688708 -0.000647743)
(0.0588549 0.0298687 0.000266499)
(0.0115034 -0.0166834 -0.00153844)
(-0.00581945 0.0721851 -0.00144803)
(0.0035627 0.179147 0.000300865)
(-0.00683286 0.0213567 -0.000367253)
(-0.00938729 -0.00122031 0.000158349)
(-0.00424931 -0.01171 1.53638e-05)
(-0.000800362 -0.0116164 -1.61442e-05)
(-0.000201858 -0.00742182 -1.50172e-05)
(-0.000978726 -0.00721668 6.20967e-06)
(-0.00263592 -0.0115622 4.45267e-05)
(-0.00592072 -0.0206909 0.000105984)
(-0.00975884 -0.0317148 0.000114381)
(-0.0146581 -0.0380463 0.000172198)
(-0.0175796 -0.0398751 0.000348273)
(-0.0173203 -0.0401551 -0.000230318)
(0.00352359 -0.0478605 0.000339862)
(0.0411966 -0.031785 0.00349039)
(0.0984363 0.0650231 0.00204924)
(0.084068 0.082984 0.00147589)
(0.0609234 0.0616909 0.0001335)
(0.0181745 0.0243304 -0.00203944)
(-0.00901399 0.0859105 -0.00185079)
(0.00419855 0.180886 0.000135563)
(-0.00672772 0.0220264 -0.000306843)
(-0.00872539 -0.0022536 0.000153586)
(-0.00321213 -0.0164095 0.000145094)
(-0.000887844 -0.0123833 3.28164e-05)
(-0.000333235 -0.00688439 7.968e-06)
(-0.00060782 -0.00608175 6.15936e-06)
(-0.00120315 -0.00973142 3.66715e-05)
(-0.00239549 -0.0179419 8.23443e-05)
(-0.0045092 -0.027975 0.000152021)
(-0.00610884 -0.0332018 0.000173583)
(-0.00652326 -0.034592 7.35158e-05)
(-0.00410035 -0.0405368 0.000336874)
(0.00793338 -0.0561816 -0.000166021)
(0.0165179 -0.0650768 0.00385707)
(0.0754542 0.0179892 0.00209733)
(0.0723825 0.0869683 0.00195123)
(0.0622011 0.084736 0.000806049)
(0.0281738 0.0523499 -0.00165704)
(-0.0077985 0.0989897 -0.0021491)
(0.00626282 0.186595 0.000143435)
(-0.00516696 0.0252476 -0.000185458)
(-0.00525738 -0.00516645 0.000269097)
(-0.00155215 -0.0195725 0.000156518)
(-0.000885132 -0.0127139 2.68213e-05)
(-0.000341157 -0.00680741 3.5881e-05)
(-0.000254585 -0.00564086 4.01736e-05)
(-0.000278183 -0.0089929 3.44276e-05)
(-0.000621809 -0.0163782 1.46849e-05)
(-0.000942417 -0.0255187 -4.70843e-05)
(-0.00125294 -0.0303947 -7.7391e-05)
(-0.00113937 -0.0327284 -0.000180315)
(-0.000663894 -0.043992 -5.28228e-05)
(0.00260291 -0.0640598 -9.75219e-05)
(0.00498911 -0.0815673 0.000884397)
(0.034223 -0.0402454 0.00111298)
(0.0459776 0.0749248 0.00117695)
(0.0399135 0.102965 0.000635519)
(0.0212425 0.0905512 -0.00076901)
(-0.00365107 0.130283 -0.00124387)
(-0.0490472 0.0222602 -0.0050308)
(-0.0514121 -0.00987487 -0.00484314)
(-0.0608625 -0.00624945 -0.00556367)
(-0.0684899 0.00905889 -0.00566923)
(-0.0662467 0.0261452 -0.00244036)
(-0.0611801 0.0305995 -0.000919268)
(-0.0573504 0.0241115 -0.000237031)
(-0.0476149 0.00285197 -0.00107965)
(-0.0251665 -0.00904035 -0.00158116)
(0.010516 -0.0260769 -0.00363661)
(0.0454285 -0.0436675 -0.00305219)
(0.0899724 -0.0255035 -0.00160631)
(0.0912564 -0.0105864 -0.00114153)
(0.00861041 0.0348119 -0.00564701)
(-0.0314145 0.0164399 -0.00128178)
(-0.0363212 0.00186873 3.63599e-07)
(-0.0240646 -0.00212146 0.000223369)
(-0.00045494 -0.0154248 0.000357746)
(0.0401663 -0.0197936 0.000382247)
(0.0613398 0.0304305 -0.000533998)
(-0.039456 0.0585583 -0.00291422)
(-0.0397851 0.019128 -0.00101629)
(-0.0507983 0.0197069 0.000453064)
(-0.0496973 0.0113981 0.00282608)
(-0.0419116 -0.00781471 0.00117754)
(-0.03402 -0.0104691 0.000805998)
(-0.0262981 -0.0135858 0.000740618)
(-0.0169728 -0.0204997 0.00104767)
(-0.00243153 -0.0366554 0.000841773)
(0.0146279 -0.0588622 0.000205846)
(0.0260527 -0.0541995 -0.00109076)
(0.0470902 -0.0377891 0.000628331)
(0.0635837 0.0376278 0.00841962)
(0.0200691 0.0690769 -0.00194593)
(0.00965116 0.0271784 -0.000473412)
(-0.00237513 -0.00784887 -5.60046e-05)
(-0.00300823 -0.0174728 -5.56202e-05)
(0.00441789 -0.0342777 -0.000356347)
(0.0105185 -0.0262825 0.000179344)
(0.0437434 0.0496511 -0.000131479)
(-0.0244608 0.10185 -0.00108833)
(-0.0254272 0.0359912 0.003074)
(-0.0300356 0.026124 0.00268355)
(-0.0226856 -0.000629314 0.00161773)
(-0.0206761 -0.00841477 0.000648828)
(-0.0210649 -0.00901022 0.000150055)
(-0.0180372 -0.0153764 1.43517e-05)
(-0.0142775 -0.028945 7.15629e-06)
(-0.00573291 -0.0515059 -0.000131196)
(-0.00245679 -0.0764387 0.00103112)
(0.0132596 -0.082997 0.000246699)
(0.0318107 -0.0554304 0.00129044)
(0.0487496 0.0403718 0.0061634)
(0.0242716 0.0995865 -0.000232401)
(0.0243081 0.0572312 -0.000525764)
(0.00602498 0.00278821 -0.000156184)
(-0.00176537 -0.0191702 -4.54034e-05)
(0.00151504 -0.0405324 -0.000287506)
(0.00253748 -0.0354355 -0.000165686)
(0.032645 0.0697783 -0.000163107)
(-0.010584 0.128164 0.000274491)
(-0.0166187 0.0289865 0.00269715)
(-0.0149132 0.010497 0.00171072)
(-0.00949521 -0.00370363 0.000774083)
(-0.0111329 -0.00802397 -1.36605e-05)
(-0.0112045 -0.010699 -2.67385e-05)
(-0.0118795 -0.0172423 -2.76057e-05)
(-0.0119256 -0.0305333 -1.181e-05)
(-0.0106802 -0.0545452 0.000234935)
(-0.0141991 -0.0794597 0.000503146)
(-0.0157793 -0.0857222 -0.000348205)
(-0.00914274 -0.0532592 -0.00132377)
(0.0195563 0.0663251 0.00256148)
(0.0189919 0.0987219 0.000182497)
(0.02815 0.06278 -0.000205146)
(0.0230621 0.0140374 -6.02917e-05)
(0.00686561 -0.0106703 -0.000174974)
(0.0021756 -0.0392044 -0.000282657)
(-0.00706302 -0.0435391 -0.00037783)
(0.0270162 0.0763773 -0.000104144)
(-0.00205717 0.14487 0.000648171)
(-0.0134328 0.0184833 0.000501893)
(-0.0109531 0.00266263 0.000483138)
(-0.00659832 -0.0040437 8.66378e-05)
(-0.00597987 -0.00708624 -2.35417e-05)
(-0.00500347 -0.00871736 8.56968e-06)
(-0.00695608 -0.0145882 -2.3921e-05)
(-0.00895138 -0.027273 -0.000124579)
(-0.0148498 -0.0499432 3.19828e-05)
(-0.0249969 -0.0751777 0.000480938)
(-0.0323866 -0.0836165 0.00043446)
(-0.038831 -0.0602481 -0.00177043)
(0.000352292 0.0508428 -0.00429317)
(0.0219403 0.0852841 -0.00433509)
(0.0434276 0.0633455 -0.00195635)
(0.0448402 0.0243783 -0.000313215)
(0.0181139 -0.000992598 -6.62502e-05)
(0.00690131 -0.0301493 -0.00011771)
(-0.0111205 -0.0469975 -0.000214616)
(0.0193918 0.0796768 -1.3706e-05)
(0.00165258 0.15947 0.000878823)
(-0.0106539 0.0182732 6.08507e-05)
(-0.0103931 -0.000406157 -0.000150512)
(-0.00635545 -0.0078106 -0.000138599)
(-0.00332751 -0.00951873 -8.13448e-05)
(-0.00194876 -0.00900846 -3.93779e-05)
(-0.00327833 -0.0120608 -3.94495e-05)
(-0.00627921 -0.0203823 -9.98979e-06)
(-0.0112924 -0.0378887 -6.8396e-05)
(-0.0271573 -0.0640709 -0.000254328)
(-0.0395719 -0.0746666 0.000298109)
(-0.0484417 -0.060748 0.00198197)
(-0.023926 0.00438608 -0.00185528)
(0.0349307 0.0482826 -0.00138742)
(0.0805143 0.0563334 -0.00289308)
(0.0854158 0.0510906 -0.00306292)
(0.0583733 0.0313906 -0.00236252)
(0.0260122 -0.0166697 -0.000721767)
(-0.0103289 -0.0420333 0.000470958)
(0.00757023 0.0753831 -0.000331015)
(0.00362494 0.166289 0.000621021)
(-0.00816072 0.0177969 -4.5732e-05)
(-0.0106485 -0.0026896 -0.000219419)
(-0.0062029 -0.011873 -0.000271687)
(-0.00211298 -0.0122554 -0.000118585)
(-0.000663921 -0.00907414 -5.74095e-05)
(-0.00194289 -0.0104035 -3.97076e-05)
(-0.00408013 -0.0176618 -8.76607e-05)
(-0.00850321 -0.0310131 -0.000200732)
(-0.0167657 -0.0485604 -0.000525004)
(-0.0315105 -0.0618376 -0.000476885)
(-0.0383821 -0.063368 -4.86925e-05)
(-0.0321304 -0.0349578 0.00347156)
(0.011298 -0.0244039 0.00360006)
(0.0814365 0.0215437 0.00336424)
(0.112662 0.0588758 0.000167253)
(0.101541 0.0606316 -0.00206978)
(0.0803382 0.0364793 0.000220667)
(0.0234692 -0.0128578 -0.000820773)
(-0.00532952 0.0715713 -0.00154996)
(0.00298118 0.177401 0.000532383)
(-0.00742785 0.020576 -0.000112393)
(-0.0106778 -0.00336909 -0.000212716)
(-0.00482789 -0.0170724 -0.000280654)
(-0.000728009 -0.0153892 -0.000169198)
(-0.000206534 -0.00922159 -9.38329e-05)
(-0.00108078 -0.00885294 -6.44447e-05)
(-0.00290822 -0.0146537 -7.85182e-05)
(-0.0061367 -0.0271069 -0.000133338)
(-0.00963465 -0.0425145 -0.00028918)
(-0.0135561 -0.0516399 -0.0005894)
(-0.0154655 -0.0561161 -0.000378953)
(-0.0140963 -0.0627938 -0.000510694)
(0.00326634 -0.0795663 -0.00227266)
(0.0298108 -0.0657837 0.00121186)
(0.0994925 0.0366061 0.000951799)
(0.0933835 0.0702785 0.00125509)
(0.0768597 0.0623545 0.000775705)
(0.030609 0.0286038 -0.000941087)
(-0.00778395 0.0841782 -0.00192908)
(0.00307989 0.180758 0.000425521)
(-0.00756043 0.0207963 -9.52562e-07)
(-0.00996688 -0.00545048 -0.000111997)
(-0.00320371 -0.0244939 -0.00019034)
(-0.000944076 -0.0174659 -0.00016156)
(-0.000364356 -0.00929103 -0.000109464)
(-0.000727032 -0.00810793 -9.54918e-05)
(-0.00135846 -0.0133694 -0.00011553)
(-0.00244155 -0.0251084 -0.000150746)
(-0.00390108 -0.0403187 -0.000187746)
(-0.00503301 -0.0502443 -0.000285878)
(-0.00503394 -0.0569951 -0.000551477)
(-0.00311928 -0.0644757 -0.000583784)
(0.00629863 -0.0899646 -0.000377396)
(0.0119711 -0.101037 -0.0028992)
(0.0669182 -0.0152192 0.00148954)
(0.079309 0.0737306 0.00214498)
(0.0713324 0.0810304 0.00131758)
(0.0416624 0.0561 -0.000146954)
(-0.00388956 0.0974249 -0.00228887)
(0.00541895 0.189661 0.000259214)
(-0.00592071 0.0240065 3.44541e-05)
(-0.00556332 -0.00813301 -5.10216e-05)
(-0.00141552 -0.0281403 -2.7414e-05)
(-0.000882544 -0.0185125 -6.59944e-05)
(-0.000369656 -0.00987584 -6.23736e-05)
(-0.000256486 -0.00829534 -6.22659e-05)
(-0.000233244 -0.0134597 -6.02322e-05)
(-0.000430113 -0.025115 -7.84557e-05)
(-0.000635625 -0.0407668 -0.000136184)
(-0.000819132 -0.0505711 -0.000160606)
(-0.000917592 -0.0595304 -0.000228914)
(-0.000597719 -0.0689248 -4.5324e-05)
(0.00158616 -0.0963434 0.000190228)
(0.0041963 -0.116212 4.40656e-05)
(0.0226964 -0.0629013 0.000685789)
(0.0489293 0.0622554 0.000437662)
(0.046397 0.100524 0.00126725)
(0.0300479 0.0950605 0.000336319)
(-0.00127201 0.131902 -0.00154099)
(-0.0490618 0.00409293 -0.000511954)
(-0.0522522 -0.0302253 -0.00263647)
(-0.0633027 -0.0253172 -0.00375536)
(-0.0707578 -0.00237212 -0.00529181)
(-0.0678258 0.0184693 -0.0021872)
(-0.0633812 0.0229453 -0.000712707)
(-0.0589116 0.0126142 0.00014585)
(-0.0467437 -0.0100179 -2.22482e-05)
(-0.0248316 -0.019939 0.000340785)
(0.0109204 -0.036937 -3.28401e-05)
(0.0419791 -0.0537472 -0.000286334)
(0.0851266 -0.0405474 -0.000188562)
(0.0949208 -0.0208172 -0.000149122)
(0.013683 0.0297702 -1.65193e-05)
(-0.0317501 0.0140958 4.26611e-05)
(-0.036737 0.000709113 3.23755e-05)
(-0.0242798 -0.00258978 5.68371e-05)
(-0.000381321 -0.0152683 0.000206742)
(0.0405927 -0.0201587 7.99727e-05)
(0.0624013 0.0296039 1.22203e-05)
(-0.0381551 0.0179458 -0.00102654)
(-0.0413789 -0.000297564 -0.00235779)
(-0.0517817 -0.00134955 -0.000655745)
(-0.0481841 -0.00745481 0.00284207)
(-0.0416091 -0.0149233 0.000969207)
(-0.0346829 -0.0123291 0.000335799)
(-0.026794 -0.0147716 0.000102459)
(-0.0170806 -0.0229877 0.000166788)
(-0.00289033 -0.0415088 -2.01288e-05)
(0.0115388 -0.0681436 0.000370015)
(0.0218061 -0.0636945 0.000220324)
(0.0384275 -0.0465471 0.000266966)
(0.0690583 0.00949896 0.000465591)
(0.0295101 0.0512195 -1.3198e-05)
(0.0119836 0.0251408 8.18679e-06)
(-0.00233624 -0.00761653 1.70167e-08)
(-0.00304136 -0.0172931 -1.29878e-05)
(0.00450602 -0.0340696 -2.43719e-05)
(0.0106952 -0.0262793 5.99369e-05)
(0.0446306 0.04932 -3.09161e-05)
(-0.0282744 0.0466773 -0.00100023)
(-0.0255789 0.014608 0.0022636)
(-0.0276306 0.00727444 0.00261702)
(-0.0208803 -0.0061977 0.00171857)
(-0.0210016 -0.00892534 0.000513447)
(-0.0216721 -0.00929604 3.23148e-05)
(-0.0184922 -0.0163589 -6.60243e-05)
(-0.0148332 -0.031207 4.40269e-05)
(-0.00731909 -0.0573269 0.000103261)
(-0.00544923 -0.0842997 0.000347801)
(0.00846398 -0.0923753 0.000598901)
(0.0228736 -0.0652987 0.000336532)
(0.0532891 0.0129675 7.99132e-05)
(0.0270558 0.0825176 -2.97397e-06)
(0.0268592 0.0558116 1.60322e-05)
(0.00639206 0.00336057 2.27111e-06)
(-0.00170899 -0.0190127 -3.9562e-05)
(0.00136853 -0.0407555 -0.000117251)
(0.00263746 -0.0354051 9.67236e-05)
(0.0332462 0.0696245 -3.04207e-05)
(-0.0187574 0.0687833 7.26717e-05)
(-0.0161267 0.0175891 0.00287248)
(-0.0141269 0.0041393 0.00183781)
(-0.00960156 -0.00438833 0.000734165)
(-0.0115939 -0.0083073 2.5735e-06)
(-0.0115466 -0.011229 -1.74862e-05)
(-0.0123082 -0.0182279 -2.08382e-06)
(-0.0126506 -0.0326891 -5.3754e-05)
(-0.0118452 -0.0596696 5.56983e-05)
(-0.0163606 -0.0870209 -0.000167231)
(-0.0205179 -0.0941583 -1.11491e-05)
(-0.0201624 -0.0664007 -0.000971105)
(0.0190531 0.0420488 0.000727081)
(0.0173255 0.0840503 -4.81462e-05)
(0.0295049 0.0599849 5.42245e-05)
(0.0239862 0.0140201 1.63338e-05)
(0.00730368 -0.0102555 -7.80104e-05)
(0.00206088 -0.0403007 -0.000401251)
(-0.00753872 -0.0440706 8.63859e-05)
(0.0274743 0.0763023 3.77384e-05)
(-0.0107698 0.0863844 0.000451459)
(-0.0131373 0.0162242 0.000737791)
(-0.0112948 0.00225393 0.000575934)
(-0.00689904 -0.00428573 0.000103546)
(-0.00619454 -0.00735086 8.49966e-06)
(-0.00517496 -0.00906491 -4.85511e-07)
(-0.00720446 -0.0152648 -4.30751e-05)
(-0.00940949 -0.0286563 -0.000173119)
(-0.0160586 -0.0526921 -7.34301e-05)
(-0.0264372 -0.0834576 -0.000149852)
(-0.0347724 -0.0953847 -1.85127e-06)
(-0.04341 -0.0803806 -0.000771273)
(-0.00732185 0.0205517 -0.00243159)
(0.0212318 0.069605 -0.00314161)
(0.0446323 0.0574297 -0.00126015)
(0.0475163 0.0241727 -0.00012269)
(0.0194904 -0.000595506 -2.78354e-05)
(0.00775511 -0.0318006 -0.000320299)
(-0.0115428 -0.0486794 2.0191e-05)
(0.0199612 0.0798211 0.000117162)
(-0.00729114 0.103144 0.000424858)
(-0.0106535 0.0176896 0.000195357)
(-0.0107602 -0.000581274 8.54136e-05)
(-0.00660803 -0.00828852 1.81767e-05)
(-0.00344628 -0.00997157 1.43637e-06)
(-0.00202489 -0.00939282 -3.2745e-06)
(-0.00339039 -0.0126522 -2.52923e-05)
(-0.00643189 -0.0214829 -8.20532e-05)
(-0.0107099 -0.0397185 -9.38395e-05)
(-0.0260182 -0.0670694 -0.000320787)
(-0.0423284 -0.0856016 0.000314896)
(-0.0498229 -0.0848283 0.00220626)
(-0.0353051 -0.0424464 -0.00050244)
(0.0217991 0.000934347 0.000233093)
(0.0810987 0.0307889 -0.00218857)
(0.0919795 0.0429525 -0.0028159)
(0.0683978 0.0347198 -0.00179177)
(0.0315581 -0.0157024 -0.000658667)
(-0.00848385 -0.0443186 0.000234805)
(0.00774179 0.0758717 0.00012288)
(-0.00443606 0.111194 0.000275745)
(-0.00861811 0.0172943 3.60582e-05)
(-0.0110309 -0.00317977 5.66316e-05)
(-0.00646506 -0.0130982 8.32326e-06)
(-0.00215654 -0.0131895 1.4341e-06)
(-0.000689994 -0.00958704 -9.46063e-07)
(-0.00199312 -0.010972 -8.76538e-06)
(-0.0041829 -0.0188173 -3.49722e-05)
(-0.00859282 -0.0334118 -0.000161969)
(-0.0151784 -0.0524502 -0.000536956)
(-0.0270009 -0.0666675 -0.00102071)
(-0.0340861 -0.0734524 -0.00129918)
(-0.0327437 -0.0670785 0.00275688)
(0.00245275 -0.0654281 0.00338745)
(0.0617632 -0.0324172 0.00408285)
(0.114735 0.0269324 0.00120157)
(0.105074 0.0436324 -0.00170122)
(0.0942197 0.0343073 -0.000439255)
(0.0401676 -0.00619138 0.00017418)
(-0.00400391 0.0685156 -0.000161814)
(-0.00288258 0.124645 0.000374273)
(-0.00773706 0.0200036 -4.72011e-05)
(-0.0110948 -0.0044988 -7.7388e-08)
(-0.00489981 -0.0197496 6.95573e-06)
(-0.000666582 -0.0172478 -2.74182e-07)
(-0.000181216 -0.0100031 1.16269e-06)
(-0.00110172 -0.00956461 3.57839e-06)
(-0.00290004 -0.0160099 8.08728e-06)
(-0.00592 -0.0299608 -6.35049e-06)
(-0.00925169 -0.0476645 -0.000154126)
(-0.01238 -0.0586154 -0.000717825)
(-0.013949 -0.065984 -0.000328272)
(-0.0103612 -0.0737825 -0.000474835)
(0.00342976 -0.0971186 -0.00167049)
(0.0212737 -0.09055 0.00242885)
(0.087532 -0.00535486 0.00182678)
(0.0975989 0.0484482 0.0010404)
(0.0846838 0.0541301 0.00110431)
(0.0455885 0.0313474 0.000276568)
(-0.00566123 0.0808736 -0.00074652)
(-0.00312509 0.129584 0.000348047)
(-0.00788128 0.019908 -4.75626e-05)
(-0.0103088 -0.00727311 1.25784e-06)
(-0.00305606 -0.0280291 -1.0595e-06)
(-0.000974662 -0.0197228 -3.79481e-07)
(-0.000375015 -0.0104589 -5.57604e-07)
(-0.000746676 -0.00905452 -3.45385e-06)
(-0.00132281 -0.015017 -1.71022e-05)
(-0.00227219 -0.0281818 -5.71219e-05)
(-0.00354064 -0.0453309 9.37456e-05)
(-0.00457683 -0.057208 0.000251121)
(-0.0045649 -0.0668409 0.000197094)
(-0.00281852 -0.0770065 6.31551e-05)
(0.00547665 -0.106981 0.000124781)
(0.0107955 -0.11823 -0.000881217)
(0.0528759 -0.0469777 0.00287137)
(0.0813488 0.0510232 0.00152956)
(0.0762852 0.0696006 0.00114628)
(0.0542945 0.0554953 0.000486571)
(0.000964479 0.0937181 -0.00123113)
(-0.00065909 0.141722 0.00027852)
(-0.00618786 0.0228484 -3.29391e-05)
(-0.00544621 -0.00993274 5.19796e-06)
(-0.00128331 -0.0313482 1.20141e-06)
(-0.000864303 -0.0207809 7.36864e-07)
(-0.000367178 -0.0112319 -5.96255e-08)
(-0.000248529 -0.00953436 -1.37527e-07)
(-0.000218834 -0.0153219 1.2036e-06)
(-0.000381574 -0.028203 5.11377e-07)
(-0.000558654 -0.0454173 -2.8454e-05)
(-0.000738986 -0.0567233 -0.000107116)
(-0.000789437 -0.0685928 -0.000184972)
(-0.000563719 -0.0800622 -9.09588e-06)
(0.00125505 -0.112639 0.000109628)
(0.0037655 -0.131302 0.000894618)
(0.014891 -0.0767557 0.0013277)
(0.0485765 0.045123 -0.000932991)
(0.0504217 0.090106 0.000716879)
(0.0387426 0.0924731 0.00053118)
(0.00220978 0.128716 -0.000925574)
(-0.048414 0.0221939 0.00476397)
(-0.0510605 -0.0172285 0.000875125)
(-0.060741 -0.0152608 -0.000197961)
(-0.066838 0.0017149 -0.00242912)
(-0.0643094 0.0227609 -0.000964445)
(-0.0605668 0.0285814 -0.000111877)
(-0.0579318 0.0217638 0.000485484)
(-0.0474421 0.00101363 0.00110309)
(-0.025726 -0.00983866 0.00220684)
(0.010357 -0.0282922 0.00393554)
(0.045017 -0.0448785 0.00289186)
(0.0887246 -0.0275748 0.00147066)
(0.090754 -0.0110964 0.000888888)
(0.00817873 0.0353705 0.00561196)
(-0.031538 0.0167929 0.00132832)
(-0.0363772 0.00224852 5.02527e-05)
(-0.0240186 -0.00156806 -0.000152061)
(-0.000444473 -0.0143839 -0.000117477)
(0.040259 -0.0191073 -0.000274551)
(0.0612982 0.0306729 0.00055237)
(-0.0389796 0.0526646 0.00167066)
(-0.0396649 0.00229551 -0.0032106)
(-0.049861 -0.00273064 -0.00183798)
(-0.0455401 -0.0145354 0.00105643)
(-0.0400734 -0.0155274 0.000145319)
(-0.0340949 -0.0110132 -0.000326878)
(-0.0266414 -0.0126794 -0.000493617)
(-0.0168644 -0.0203851 -0.000786196)
(-0.0024089 -0.0363559 -0.000474604)
(0.0136666 -0.0610425 0.000945088)
(0.024301 -0.0566256 0.00165261)
(0.0458054 -0.0397761 -0.000239454)
(0.0627072 0.0352005 -0.00811104)
(0.0197699 0.0686437 0.00182522)
(0.0094929 0.0271123 0.000505718)
(-0.00238039 -0.00777477 6.02931e-05)
(-0.00293136 -0.017159 6.69817e-05)
(0.00440977 -0.0333618 0.000468586)
(0.0106117 -0.0258968 -9.05045e-05)
(0.0437327 0.0497805 9.353e-05)
(-0.0229183 0.0846862 -0.00071772)
(-0.024608 0.00758835 0.000497367)
(-0.0246486 -0.00146937 0.00100337)
(-0.0191157 -0.00779026 0.000909739)
(-0.0204732 -0.00873044 0.00018835)
(-0.0211515 -0.00875153 -7.47893e-05)
(-0.0180473 -0.0153868 -0.000110923)
(-0.0143343 -0.0287092 0.000178657)
(-0.00630119 -0.0525271 0.000845521)
(-0.00438262 -0.0786072 0.000213115)
(0.0110435 -0.0856752 0.000882942)
(0.0328259 -0.054839 -0.00102395)
(0.0484086 0.0398735 -0.00601411)
(0.0237332 0.0994757 0.00017955)
(0.0242633 0.0571902 0.000457092)
(0.00605787 0.00286446 0.000153422)
(-0.00163684 -0.0188551 4.6378e-05)
(0.00138596 -0.0397571 0.000480353)
(0.00268057 -0.0346327 0.000317987)
(0.0325919 0.0699246 0.000128151)
(-0.011011 0.108412 -0.000429765)
(-0.0152179 0.0127309 0.00186993)
(-0.0127116 0.00156584 0.00107124)
(-0.00918967 -0.00452578 0.000414188)
(-0.0112812 -0.00802366 1.94703e-05)
(-0.0112109 -0.010732 7.22568e-06)
(-0.011913 -0.0171135 6.86725e-05)
(-0.012081 -0.0303462 0.000170915)
(-0.0116206 -0.0561403 0.000653621)
(-0.0162054 -0.0821259 0.000134036)
(-0.0190081 -0.088221 0.000493782)
(-0.00890787 -0.0546613 -0.00075821)
(0.0216476 0.0665571 -0.0021064)
(0.0182576 0.0981779 -0.0002398)
(0.0280006 0.0622813 0.000327856)
(0.023103 0.0139351 0.00014983)
(0.00715827 -0.0101716 7.58232e-05)
(0.00166112 -0.0389925 0.000425221)
(-0.00750239 -0.0424825 0.000688729)
(0.0269647 0.0764496 0.000184755)
(-0.00357471 0.125575 -0.000262917)
(-0.012647 0.0157745 0.000694115)
(-0.010844 0.00201747 0.000416177)
(-0.00670051 -0.00417899 8.16982e-05)
(-0.00599133 -0.00710021 3.32662e-05)
(-0.00501082 -0.00871448 -6.50266e-06)
(-0.00699988 -0.014561 -1.78059e-05)
(-0.00923175 -0.0271937 3.16623e-05)
(-0.0164159 -0.0506771 -0.000363973)
(-0.0271924 -0.0793588 -0.00105193)
(-0.0361516 -0.0894026 -0.000263775)
(-0.0413952 -0.0651425 0.000794653)
(-0.00177946 0.0541889 0.00259424)
(0.0237825 0.0842763 0.00119122)
(0.0449321 0.0636512 0.000966298)
(0.0458179 0.02408 -0.000217598)
(0.0185885 -0.00015448 -0.000876873)
(0.00593549 -0.0309082 -0.000265901)
(-0.0120098 -0.046419 0.000598677)
(0.0193705 0.0800025 0.000186267)
(0.000178437 0.14271 -0.00056181)
(-0.0104562 0.0176721 0.000302727)
(-0.0104479 -0.000535647 0.000276757)
(-0.00636407 -0.00783182 0.000162932)
(-0.00332972 -0.00952098 8.32611e-05)
(-0.00195216 -0.00901299 3.58768e-05)
(-0.00329696 -0.0120812 2.36044e-06)
(-0.00641019 -0.0204353 -0.000167814)
(-0.011497 -0.0378808 -0.000375306)
(-0.0285664 -0.0631653 -0.00126503)
(-0.0451987 -0.0790206 -0.00113755)
(-0.0504517 -0.0796767 0.00141462)
(-0.0330957 -0.0328127 0.000554023)
(0.0216023 -0.000964063 0.00277139)
(0.0826117 0.0343426 0.0014219)
(0.090487 0.0493225 0.000534809)
(0.0617304 0.0374421 0.000563086)
(0.0257788 -0.0172695 -0.000799585)
(-0.0104653 -0.0425546 1.81991e-05)
(0.00757936 0.0756856 0.000588204)
(0.00251385 0.150581 -0.000499668)
(-0.00850275 0.0175875 0.000135051)
(-0.0106212 -0.00267344 0.000303764)
(-0.00621899 -0.0118639 0.000285153)
(-0.00211579 -0.0122535 0.00012058)
(-0.000666046 -0.00907427 5.6137e-05)
(-0.00195837 -0.0104148 2.68418e-05)
(-0.00416525 -0.0177093 6.02936e-06)
(-0.0088077 -0.03093 -0.000325151)
(-0.0174065 -0.047652 -0.00120887)
(-0.0314508 -0.0576735 -0.00279999)
(-0.0394655 -0.0595363 -0.00362648)
(-0.0317773 -0.0607906 -0.0012201)
(0.00271275 -0.0627892 -0.000625797)
(0.0565715 -0.0442678 0.00197909)
(0.114811 0.0215968 0.00090154)
(0.103056 0.0429075 0.000250145)
(0.0919299 0.0345339 -0.000636681)
(0.0370685 -0.00709631 0.0017841)
(-0.00481102 0.0707518 0.00177154)
(0.00238826 0.163502 -0.000303422)
(-0.00743499 0.0205653 6.84277e-05)
(-0.0106415 -0.00329614 0.000227441)
(-0.00483209 -0.0170285 0.000289173)
(-0.000733079 -0.0153876 0.000168902)
(-0.000206075 -0.00922187 9.56836e-05)
(-0.00107779 -0.00884829 7.09393e-05)
(-0.00289208 -0.0146038 8.98117e-05)
(-0.00615545 -0.0269774 0.000125038)
(-0.00960511 -0.0433064 1.6578e-05)
(-0.0130489 -0.0544767 -0.000497926)
(-0.0157265 -0.0610276 -0.000379906)
(-0.0110921 -0.0699239 -0.000317284)
(0.00286203 -0.0913241 -0.00130183)
(0.0237529 -0.0805128 -0.0015391)
(0.0881578 -0.00543332 8.13321e-05)
(0.0965933 0.0444339 -0.000318987)
(0.0828988 0.0511564 0.000971271)
(0.0449437 0.0310177 0.00193475)
(-0.00706799 0.0834204 0.00130434)
(0.0021946 0.167987 -0.000208991)
(-0.00754072 0.0207381 -3.26689e-05)
(-0.00995397 -0.00535193 0.000125212)
(-0.00321201 -0.0244067 0.000188215)
(-0.000944794 -0.0174704 0.000161424)
(-0.000365446 -0.00929063 0.000108713)
(-0.000732345 -0.00810815 9.02041e-05)
(-0.00138059 -0.0133525 9.22386e-05)
(-0.00245923 -0.024984 0.000122462)
(-0.00415051 -0.0398023 0.000332006)
(-0.00554367 -0.0497659 0.000443382)
(-0.00593971 -0.057158 0.000258813)
(-0.00313178 -0.0709267 -0.000493686)
(0.00585989 -0.102348 0.000107669)
(0.0132214 -0.107418 -0.00280441)
(0.0626299 -0.027384 0.00152152)
(0.0832984 0.0547767 -0.0016699)
(0.0765839 0.0679187 8.84016e-05)
(0.0546292 0.0545313 0.00115135)
(-0.000834935 0.0957713 0.00105737)
(0.00466119 0.179329 -8.13694e-05)
(-0.00591605 0.0239107 -7.21733e-05)
(-0.0056006 -0.00800517 6.26142e-05)
(-0.00142435 -0.0280886 3.07284e-05)
(-0.000881823 -0.0185207 6.67531e-05)
(-0.000369912 -0.00987622 6.24473e-05)
(-0.00025609 -0.00829619 6.26931e-05)
(-0.000236258 -0.0134638 6.51915e-05)
(-0.00042605 -0.0249512 6.17212e-05)
(-0.000624885 -0.0398507 8.53415e-06)
(-0.000834134 -0.0504912 -3.68561e-05)
(-0.000902251 -0.0597949 -3.2243e-06)
(-0.000508034 -0.073455 -0.000196873)
(0.00137136 -0.108475 -0.000421687)
(0.00406993 -0.123962 0.00113215)
(0.0301563 -0.0563322 0.00203047)
(0.0500991 0.0600516 -0.0041881)
(0.0519741 0.0928934 -0.000929347)
(0.0391841 0.0924033 0.000696027)
(0.000814155 0.129539 0.000785609)
(-0.0445489 0.0318682 0.00317745)
(-0.0469046 0.00737926 0.00188228)
(-0.0548637 0.00818301 0.00149391)
(-0.0592872 0.0158301 -4.22763e-05)
(-0.0572277 0.0303119 -0.000572129)
(-0.0536404 0.037471 -0.000622286)
(-0.0527895 0.0378635 -0.000625695)
(-0.0465174 0.0304 0.000395183)
(-0.027381 0.0228073 0.00198812)
(0.00622013 0.00546772 0.00484387)
(0.0567213 -0.00498153 0.00401499)
(0.0828698 0.0328373 0.00282199)
(0.0415882 0.0451988 0.00683977)
(-0.0124552 0.0516323 0.00529858)