/*--------------------------------*- C++ -*----------------------------------*\
| =========                 |                                                 |
| \\      /  F ield         | OpenFOAM: The Open Source CFD Toolbox           |
|  \\    /   O peration     | Version:  2.3.0                                 |
|   \\  /    A nd           | Web:      www.OpenFOAM.org                      |
|    \\/     M anipulation  |                                                 |
\*---------------------------------------------------------------------------*/
FoamFile
{
    version     2.0;
    format      ascii;
    class       volScalarField;
    location    "85";
    object      nut.air;
}
// * * * * * * * * * * * * * * * * * * * * * * * * * * * * * * * * * * * * * //

dimensions      [0 2 -1 0 0 0 0];

internalField   nonuniform List<scalar> 
1875
(
2.10677e-05
2.21638e-05
2.40084e-05
2.57169e-05
2.72651e-05
2.86162e-05
2.9783e-05
3.07864e-05
3.16511e-05
3.24077e-05
3.30792e-05
3.36593e-05
3.41381e-05
3.4528e-05
3.46599e-05
3.46888e-05
3.44552e-05
3.37665e-05
3.2692e-05
3.12314e-05
2.94031e-05
2.72003e-05
2.45528e-05
2.12545e-05
1.73392e-05
2.19957e-05
2.55017e-05
2.84073e-05
3.04598e-05
3.18993e-05
3.2878e-05
3.3525e-05
3.39542e-05
3.42113e-05
3.43312e-05
3.44687e-05
3.45816e-05
3.46873e-05
3.4809e-05
3.49148e-05
3.49982e-05
3.499e-05
3.46866e-05
3.40703e-05
3.28486e-05
3.10648e-05
2.86511e-05
2.54221e-05
2.11986e-05
1.6365e-05
2.80579e-05
3.22241e-05
3.52982e-05
3.72055e-05
3.82916e-05
3.87826e-05
3.88887e-05
3.87384e-05
3.84216e-05
3.80281e-05
3.76237e-05
3.72255e-05
3.68156e-05
3.64559e-05
3.6138e-05
3.58084e-05
3.54337e-05
3.49601e-05
3.43276e-05
3.32203e-05
3.16156e-05
2.94677e-05
2.66888e-05
2.34943e-05
2.05693e-05
3.62687e-05
4.05059e-05
4.2558e-05
4.33171e-05
4.33525e-05
4.29698e-05
4.23834e-05
4.16676e-05
4.091e-05
4.01585e-05
3.94294e-05
3.8713e-05
3.80327e-05
3.74133e-05
3.6838e-05
3.62815e-05
3.56972e-05
3.50111e-05
3.41881e-05
3.30247e-05
3.14463e-05
2.94707e-05
2.7128e-05
2.45286e-05
2.20592e-05
6.05236e-05
4.80817e-05
4.72952e-05
4.66915e-05
4.57777e-05
4.4708e-05
4.35939e-05
4.25098e-05
4.14948e-05
4.05563e-05
3.96774e-05
3.88511e-05
3.80764e-05
3.73546e-05
3.6683e-05
3.60113e-05
3.52645e-05
3.44612e-05
3.35198e-05
3.23572e-05
3.09102e-05
2.9144e-05
2.70947e-05
2.4924e-05
2.28288e-05
7.25388e-05
5.26948e-05
5.04184e-05
4.86881e-05
4.68592e-05
4.50846e-05
4.34622e-05
4.20403e-05
4.08096e-05
3.97641e-05
3.88719e-05
3.80707e-05
3.73176e-05
3.65862e-05
3.5829e-05
3.50395e-05
3.42725e-05
3.34924e-05
3.25453e-05
3.14238e-05
3.0112e-05
2.85686e-05
2.68841e-05
2.51188e-05
2.33805e-05
7.69194e-05
5.39794e-05
5.16071e-05
4.91012e-05
4.66656e-05
4.4421e-05
4.24285e-05
4.07364e-05
3.93691e-05
3.82648e-05
3.73641e-05
3.65947e-05
3.58825e-05
3.51833e-05
3.44964e-05
3.38302e-05
3.31364e-05
3.2402e-05
3.15072e-05
3.04994e-05
2.936e-05
2.80551e-05
2.66667e-05
2.52446e-05
2.38632e-05
8.15216e-05
5.57226e-05
5.22773e-05
4.90231e-05
4.60572e-05
4.32975e-05
4.0976e-05
3.90927e-05
3.75659e-05
3.64344e-05
3.55869e-05
3.4883e-05
3.42334e-05
3.36686e-05
3.31137e-05
3.2593e-05
3.20515e-05
3.1362e-05
3.05575e-05
2.9651e-05
2.86408e-05
2.74989e-05
2.63116e-05
2.50674e-05
2.37132e-05
7.99766e-05
5.61521e-05
5.20954e-05
4.84441e-05
4.50537e-05
4.20021e-05
3.94293e-05
3.7368e-05
3.57272e-05
3.4716e-05
3.39379e-05
3.33126e-05
3.28247e-05
3.23832e-05
3.19885e-05
3.1585e-05
3.10387e-05
3.039e-05
2.96673e-05
2.88613e-05
2.79564e-05
2.6926e-05
2.58282e-05
2.46188e-05
2.32459e-05
6.47202e-05
5.61389e-05
5.17549e-05
4.78286e-05
4.40863e-05
4.07548e-05
3.79952e-05
3.57876e-05
3.42668e-05
3.33006e-05
3.2715e-05
3.22958e-05
3.19148e-05
3.15786e-05
3.12405e-05
3.08225e-05
3.0348e-05
2.98032e-05
2.91584e-05
2.84002e-05
2.75298e-05
2.65331e-05
2.54251e-05
2.41583e-05
2.27021e-05
6.1077e-05
5.61539e-05
5.13868e-05
4.72383e-05
4.33504e-05
3.99426e-05
3.71807e-05
3.50978e-05
3.36496e-05
3.28011e-05
3.22704e-05
3.19158e-05
3.16644e-05
3.14584e-05
3.1212e-05
3.08927e-05
3.04732e-05
2.99371e-05
2.92783e-05
2.84934e-05
2.75624e-05
2.65075e-05
2.52962e-05
2.38976e-05
2.22947e-05
6.10861e-05
5.57425e-05
5.08618e-05
4.67082e-05
4.29249e-05
3.96672e-05
3.70755e-05
3.51725e-05
3.39309e-05
3.32283e-05
3.28598e-05
3.26647e-05
3.2542e-05
3.24127e-05
3.22181e-05
3.19195e-05
3.14903e-05
3.09106e-05
3.01767e-05
2.92831e-05
2.82204e-05
2.69786e-05
2.55298e-05
2.38284e-05
2.18279e-05
5.75852e-05
5.36752e-05
4.96738e-05
4.60556e-05
4.26877e-05
3.97582e-05
3.74191e-05
3.57791e-05
3.47893e-05
3.43046e-05
3.41427e-05
3.41413e-05
3.41751e-05
3.41544e-05
3.40115e-05
3.37279e-05
3.32806e-05
3.26467e-05
3.18167e-05
3.07833e-05
2.95395e-05
2.80783e-05
2.63815e-05
2.43824e-05
2.2053e-05
5.28139e-05
5.07424e-05
4.80631e-05
4.52886e-05
4.25573e-05
4.0123e-05
3.8219e-05
3.69312e-05
3.62325e-05
3.59832e-05
3.60081e-05
3.61513e-05
3.62964e-05
3.63532e-05
3.62626e-05
3.60231e-05
3.55855e-05
3.49316e-05
3.40463e-05
3.29166e-05
3.15317e-05
2.98839e-05
2.80142e-05
2.58567e-05
2.36036e-05
4.91235e-05
4.82081e-05
4.65754e-05
4.46343e-05
4.25886e-05
4.07123e-05
3.92383e-05
3.82886e-05
3.78483e-05
3.77942e-05
3.79697e-05
3.82345e-05
3.84847e-05
3.86472e-05
3.86585e-05
3.85128e-05
3.81623e-05
3.75793e-05
3.67372e-05
3.5609e-05
3.41752e-05
3.24323e-05
3.03509e-05
2.78775e-05
2.52998e-05
4.74442e-05
4.67995e-05
4.56638e-05
4.42736e-05
4.27724e-05
4.13791e-05
4.02926e-05
3.96383e-05
3.94048e-05
3.94905e-05
3.97721e-05
4.01378e-05
4.04976e-05
4.07857e-05
4.0944e-05
4.09559e-05
4.07791e-05
4.03693e-05
3.96904e-05
3.87002e-05
3.73478e-05
3.55755e-05
3.33251e-05
3.05283e-05
2.73607e-05
4.63733e-05
4.59422e-05
4.51706e-05
4.4202e-05
4.31092e-05
4.20887e-05
4.1298e-05
4.08574e-05
4.0772e-05
4.09592e-05
4.13195e-05
4.17631e-05
4.22212e-05
4.26385e-05
4.29616e-05
4.31604e-05
4.32112e-05
4.30644e-05
4.26761e-05
4.2003e-05
4.09761e-05
3.95118e-05
3.74793e-05
3.47086e-05
3.10168e-05
4.58368e-05
4.55605e-05
4.50481e-05
4.43392e-05
4.35408e-05
4.27963e-05
4.22244e-05
4.19319e-05
4.19282e-05
4.21679e-05
4.25765e-05
4.30786e-05
4.36131e-05
4.41324e-05
4.45992e-05
4.49745e-05
4.5236e-05
4.53515e-05
4.52989e-05
4.50384e-05
4.45308e-05
4.36997e-05
4.24263e-05
4.05088e-05
3.743e-05
4.60522e-05
4.5693e-05
4.52528e-05
4.47516e-05
4.41635e-05
4.35893e-05
4.31379e-05
4.29057e-05
4.29192e-05
4.3163e-05
4.35793e-05
4.4105e-05
4.46851e-05
4.52751e-05
4.58367e-05
4.63398e-05
4.67534e-05
4.70526e-05
4.72258e-05
4.72775e-05
4.71797e-05
4.68909e-05
4.63533e-05
4.55456e-05
4.42497e-05
4.63238e-05
4.59908e-05
4.56501e-05
4.52566e-05
4.48418e-05
4.44004e-05
4.4035e-05
4.38113e-05
4.37955e-05
4.39922e-05
4.43786e-05
4.48966e-05
4.54926e-05
4.612e-05
4.67423e-05
4.73277e-05
4.78452e-05
4.82729e-05
4.86004e-05
4.88178e-05
4.89143e-05
4.88675e-05
4.86409e-05
4.82578e-05
4.77199e-05
4.56134e-05
4.55937e-05
4.54987e-05
4.53108e-05
4.51021e-05
4.48505e-05
4.46068e-05
4.4439e-05
4.44248e-05
4.46006e-05
4.49474e-05
4.54405e-05
4.60443e-05
4.67031e-05
4.73755e-05
4.80259e-05
4.86233e-05
4.91445e-05
4.9572e-05
4.98924e-05
5.00905e-05
5.01245e-05
4.99456e-05
4.95778e-05
4.91012e-05
4.38398e-05
4.41495e-05
4.4424e-05
4.45664e-05
4.46025e-05
4.45881e-05
4.45546e-05
4.45553e-05
4.46145e-05
4.48198e-05
4.51949e-05
4.56724e-05
4.63031e-05
4.70136e-05
4.77538e-05
4.84821e-05
4.91637e-05
4.97707e-05
5.02795e-05
5.06644e-05
5.08969e-05
5.0942e-05
5.07249e-05
5.02615e-05
4.9668e-05
3.97967e-05
4.08815e-05
4.17921e-05
4.25539e-05
4.31512e-05
4.35611e-05
4.37987e-05
4.39997e-05
4.4236e-05
4.45361e-05
4.49696e-05
4.55233e-05
4.62107e-05
4.70148e-05
4.78659e-05
4.87102e-05
4.95065e-05
5.02221e-05
5.08291e-05
5.12938e-05
5.1572e-05
5.16197e-05
5.13573e-05
5.07394e-05
4.98092e-05
3.43851e-05
3.64762e-05
3.81801e-05
3.95824e-05
4.07209e-05
4.16495e-05
4.23989e-05
4.29627e-05
4.34282e-05
4.38767e-05
4.43888e-05
4.50423e-05
4.5856e-05
4.67765e-05
4.77659e-05
4.87436e-05
4.96846e-05
5.05448e-05
5.12882e-05
5.18779e-05
5.22686e-05
5.24043e-05
5.22235e-05
5.16525e-05
5.07585e-05
2.99498e-05
3.28004e-05
3.51372e-05
3.70418e-05
3.85979e-05
3.98178e-05
4.08133e-05
4.1661e-05
4.23983e-05
4.30913e-05
4.37922e-05
4.455e-05
4.5414e-05
4.64317e-05
4.75496e-05
4.86927e-05
4.9776e-05
5.0794e-05
5.16991e-05
5.24592e-05
5.30161e-05
5.3332e-05
5.33488e-05
5.30544e-05
5.24764e-05
2.80588e-05
3.12698e-05
3.39401e-05
3.60868e-05
3.77654e-05
3.90985e-05
4.01383e-05
4.10013e-05
4.17729e-05
4.25322e-05
4.33232e-05
4.41944e-05
4.51645e-05
4.6252e-05
4.74245e-05
4.86637e-05
4.98967e-05
5.10498e-05
5.21238e-05
5.30627e-05
5.38133e-05
5.43509e-05
5.4637e-05
5.46936e-05
5.45425e-05
2.81257e-05
3.14489e-05
3.42795e-05
3.659e-05
3.83618e-05
3.96917e-05
4.06495e-05
4.1404e-05
4.2062e-05
4.271e-05
4.34218e-05
4.42388e-05
4.51927e-05
4.62952e-05
4.75087e-05
4.88031e-05
5.0131e-05
5.1401e-05
5.2615e-05
5.37184e-05
5.46599e-05
5.54141e-05
5.5968e-05
5.63836e-05
5.66647e-05
2.94558e-05
3.29764e-05
3.5974e-05
3.83365e-05
4.01105e-05
4.13522e-05
4.21529e-05
4.26814e-05
4.30917e-05
4.35088e-05
4.40482e-05
4.47549e-05
4.56399e-05
4.66975e-05
4.79051e-05
4.92154e-05
5.05794e-05
5.19241e-05
5.32357e-05
5.44647e-05
5.55671e-05
5.65014e-05
5.72813e-05
5.80211e-05
5.86866e-05
3.19878e-05
3.56229e-05
3.86756e-05
4.10293e-05
4.27105e-05
4.3794e-05
4.44061e-05
4.46953e-05
4.48451e-05
4.5011e-05
4.53304e-05
4.58581e-05
4.66044e-05
4.75553e-05
4.8682e-05
4.99431e-05
5.12858e-05
5.26463e-05
5.40046e-05
5.53058e-05
5.65035e-05
5.75508e-05
5.84918e-05
5.95071e-05
6.04815e-05
3.55878e-05
3.91643e-05
4.21397e-05
4.43645e-05
4.58637e-05
4.67261e-05
4.70963e-05
4.71438e-05
4.70477e-05
4.69688e-05
4.70564e-05
4.73809e-05
4.79554e-05
4.87639e-05
4.97733e-05
5.09423e-05
5.22174e-05
5.35403e-05
5.48807e-05
5.61921e-05
5.74254e-05
5.8529e-05
5.95669e-05
6.07623e-05
6.19828e-05
4.05814e-05
4.3641e-05
4.61915e-05
4.81313e-05
4.93273e-05
4.98967e-05
4.99885e-05
4.97805e-05
4.94447e-05
4.91439e-05
4.90242e-05
4.91552e-05
4.95565e-05
5.02167e-05
5.11005e-05
5.21569e-05
5.33323e-05
5.45738e-05
5.58399e-05
5.70882e-05
5.82736e-05
5.93485e-05
6.03878e-05
6.16283e-05
6.2973e-05
4.60274e-05
4.85845e-05
5.0629e-05
5.21231e-05
5.29363e-05
5.31574e-05
5.29418e-05
5.24662e-05
5.18972e-05
5.1404e-05
5.11072e-05
5.10682e-05
5.13076e-05
5.18166e-05
5.25613e-05
5.34845e-05
5.45312e-05
5.5648e-05
5.67883e-05
5.79105e-05
5.8969e-05
5.99234e-05
6.08533e-05
6.19891e-05
6.31915e-05
5.22383e-05
5.40873e-05
5.54323e-05
5.63082e-05
5.66249e-05
5.64367e-05
5.58862e-05
5.51333e-05
5.43539e-05
5.36834e-05
5.32245e-05
5.3041e-05
5.31354e-05
5.34989e-05
5.40945e-05
5.48683e-05
5.57629e-05
5.67211e-05
5.7694e-05
5.8633e-05
5.94847e-05
6.02031e-05
6.08514e-05
6.16444e-05
6.25559e-05
5.92748e-05
5.99846e-05
6.03872e-05
6.05244e-05
6.02804e-05
5.96562e-05
5.87634e-05
5.77572e-05
5.67822e-05
5.59542e-05
5.53569e-05
5.50411e-05
5.49999e-05
5.52226e-05
5.56714e-05
5.62923e-05
5.70269e-05
5.78144e-05
5.86064e-05
5.93416e-05
5.99566e-05
6.03929e-05
6.06854e-05
6.09765e-05
6.12381e-05
6.55945e-05
6.53436e-05
6.49423e-05
6.44488e-05
6.37142e-05
6.2708e-05
6.15267e-05
6.03062e-05
5.91725e-05
5.82239e-05
5.75089e-05
5.70618e-05
5.69003e-05
5.69938e-05
5.73063e-05
5.77841e-05
5.83687e-05
5.90023e-05
5.96299e-05
6.01844e-05
6.05939e-05
6.08041e-05
6.08432e-05
6.07998e-05
6.04894e-05
7.0357e-05
6.96459e-05
6.87978e-05
6.79049e-05
6.68306e-05
6.55442e-05
6.41513e-05
6.27723e-05
6.15218e-05
6.04707e-05
5.96584e-05
5.9115e-05
5.88541e-05
5.88407e-05
5.90374e-05
5.93949e-05
5.98551e-05
6.03673e-05
6.08682e-05
6.12887e-05
6.15538e-05
6.16209e-05
6.15339e-05
6.13893e-05
6.10563e-05
7.41169e-05
7.32331e-05
7.21594e-05
7.10213e-05
6.97093e-05
6.82248e-05
6.66812e-05
6.51902e-05
6.38441e-05
6.27116e-05
6.18334e-05
6.12342e-05
6.08953e-05
6.07988e-05
6.09043e-05
6.1168e-05
6.15384e-05
6.19613e-05
6.23745e-05
6.27071e-05
6.28886e-05
6.2884e-05
6.27445e-05
6.2541e-05
6.21135e-05
7.77726e-05
7.66778e-05
7.53832e-05
7.40229e-05
7.25049e-05
7.08583e-05
6.91975e-05
6.76274e-05
6.62189e-05
6.50295e-05
6.41043e-05
6.3452e-05
6.30532e-05
6.28923e-05
6.29315e-05
6.31276e-05
6.34325e-05
6.37921e-05
6.41438e-05
6.44173e-05
6.45514e-05
6.45213e-05
6.43896e-05
6.42331e-05
6.39717e-05
8.16045e-05
8.02153e-05
7.86514e-05
7.70537e-05
7.53336e-05
7.35425e-05
7.17918e-05
7.01621e-05
6.87169e-05
6.74995e-05
6.65261e-05
6.58128e-05
6.53618e-05
6.51469e-05
6.51323e-05
6.52755e-05
6.55288e-05
6.58373e-05
6.61363e-05
6.63561e-05
6.64419e-05
6.63699e-05
6.61907e-05
6.5982e-05
6.56647e-05
8.56015e-05
8.38698e-05
8.20076e-05
8.01645e-05
7.82514e-05
7.63311e-05
7.44967e-05
7.28106e-05
7.13213e-05
7.00641e-05
6.90586e-05
6.83138e-05
6.78223e-05
6.7563e-05
6.75018e-05
6.75975e-05
6.78029e-05
6.80613e-05
6.83064e-05
6.84708e-05
6.85078e-05
6.83995e-05
6.81991e-05
6.79877e-05
6.77366e-05
8.96442e-05
8.7576e-05
8.54264e-05
8.33544e-05
8.12703e-05
7.92361e-05
7.73271e-05
7.55896e-05
7.40622e-05
7.27734e-05
7.17387e-05
7.09614e-05
7.04324e-05
7.01312e-05
7.00246e-05
7.00724e-05
7.02268e-05
7.04287e-05
7.06107e-05
7.07076e-05
7.06804e-05
7.05061e-05
7.02414e-05
6.99678e-05
6.97375e-05
9.36457e-05
9.12782e-05
8.88718e-05
8.6606e-05
8.43819e-05
8.22541e-05
8.02811e-05
7.84983e-05
7.69365e-05
7.56177e-05
7.45531e-05
7.37444e-05
7.31803e-05
7.28381e-05
7.26858e-05
7.26839e-05
7.27832e-05
7.29224e-05
7.30319e-05
7.3047e-05
7.29274e-05
7.26461e-05
7.22406e-05
7.17234e-05
7.10594e-05
9.7602e-05
9.49717e-05
9.23401e-05
8.99075e-05
8.75705e-05
8.5368e-05
8.33427e-05
8.15222e-05
7.9931e-05
7.85854e-05
7.7493e-05
7.66531e-05
7.60534e-05
7.567e-05
7.54719e-05
7.54202e-05
7.54652e-05
7.55456e-05
7.55951e-05
7.55448e-05
7.53563e-05
7.50344e-05
7.46312e-05
7.41874e-05
7.37219e-05
0.000101428
9.86076e-05
9.57976e-05
9.32314e-05
9.08099e-05
8.85516e-05
8.64869e-05
8.46377e-05
8.3023e-05
8.16546e-05
8.05373e-05
7.96679e-05
7.90334e-05
7.86093e-05
7.83652e-05
7.82628e-05
7.82515e-05
7.82706e-05
7.82563e-05
7.81523e-05
7.79254e-05
7.75534e-05
7.70893e-05
7.66114e-05
7.61602e-05
0.000105203
0.000102208
9.9235e-05
9.65583e-05
9.40756e-05
9.17786e-05
8.96875e-05
8.78195e-05
8.61893e-05
8.48043e-05
8.36654e-05
8.27679e-05
8.21004e-05
8.16375e-05
8.13499e-05
8.11994e-05
8.11366e-05
8.10961e-05
8.10115e-05
8.08514e-05
8.05774e-05
8.01414e-05
7.95803e-05
7.89148e-05
7.81105e-05
0.000108839
0.000105709
0.000102614
9.9855e-05
9.73335e-05
9.50154e-05
9.29117e-05
9.10357e-05
8.93972e-05
8.80013e-05
8.68468e-05
8.59275e-05
8.52316e-05
8.47343e-05
8.44066e-05
8.42122e-05
8.41039e-05
8.40199e-05
8.39062e-05
8.37076e-05
8.3386e-05
8.29345e-05
8.23917e-05
8.1783e-05
8.11679e-05
0.000112204
0.000109016
0.000105872
0.000103081
0.000100547
9.82289e-05
9.61294e-05
9.42564e-05
9.26209e-05
9.12205e-05
9.00568e-05
8.91226e-05
8.84051e-05
8.78806e-05
8.75214e-05
8.72853e-05
8.71233e-05
8.70038e-05
8.68733e-05
8.66589e-05
8.63308e-05
8.58795e-05
8.5339e-05
8.47654e-05
8.41931e-05
0.000115308
0.000112127
0.000108992
0.000106208
0.000103688
0.00010139
9.93101e-05
9.74545e-05
9.58316e-05
9.44365e-05
9.3276e-05
9.23345e-05
9.15979e-05
9.10503e-05
9.06641e-05
9.03988e-05
9.02153e-05
9.00668e-05
8.98947e-05
8.96656e-05
8.93452e-05
8.89047e-05
8.83797e-05
8.78044e-05
8.71833e-05
0.000118232
0.000115079
0.000111976
0.000109218
0.000106719
0.000104439
0.000102392
0.000100578
9.89776e-05
9.76168e-05
9.64686e-05
9.55302e-05
9.47906e-05
9.42262e-05
9.38058e-05
9.35209e-05
9.33335e-05
9.31737e-05
9.29955e-05
9.27585e-05
9.24332e-05
9.20051e-05
9.15057e-05
9.09693e-05
9.04342e-05
0.000120984
0.000117872
0.000114813
0.000112086
0.000109635
0.000107419
0.000105417
0.00010363
0.000102073
0.000100728
9.95887e-05
9.86631e-05
9.794e-05
9.73815e-05
9.69676e-05
9.66715e-05
9.64536e-05
9.62864e-05
9.61211e-05
9.58946e-05
9.55811e-05
9.51737e-05
9.47039e-05
9.41928e-05
9.36437e-05
0.00012351
0.000120494
0.000117507
0.000114858
0.000112471
0.000110312
0.000108365
0.000106626
0.000105103
0.00010378
0.00010268
0.000101774
0.00010105
0.000100502
0.00010011
9.98231e-05
9.96119e-05
9.9443e-05
9.92738e-05
9.90638e-05
9.87739e-05
9.84005e-05
9.79737e-05
9.75204e-05
9.70633e-05
0.000126086
0.000123051
0.000120098
0.000117496
0.000115161
0.000113049
0.000111166
0.000109503
0.000108031
0.00010678
0.000105724
0.000104851
0.00010415
0.000103613
0.000103212
0.00010293
0.000102745
0.000102594
0.000102444
0.000102257
0.000102
0.000101669
0.000101294
0.000100892
0.000100487
0.000128235
0.000125249
0.000122407
0.000119897
0.000117665
0.000115668
0.00011387
0.000112267
0.000110878
0.000109677
0.000108652
0.000107822
0.000107177
0.000106674
0.000106298
0.000106036
0.000105853
0.000105728
0.000105613
0.000105462
0.000105249
0.000104968
0.000104656
0.000104318
0.000103961
0.000129193
0.000126803
0.000124321
0.000122065
0.000120004
0.00011813
0.000116439
0.000114932
0.000113612
0.000112467
0.000111519
0.000110739
0.000110116
0.000109649
0.000109319
0.000109101
0.000108956
0.000108862
0.000108781
0.000108675
0.000108514
0.000108293
0.000108053
0.000107794
0.000107518
0.000131491
0.00012892
0.000126427
0.00012422
0.000122242
0.000120456
0.000118868
0.000117468
0.00011623
0.000115182
0.000114305
0.000113588
0.000113022
0.000112603
0.000112309
0.000112116
0.00011202
0.00011197
0.000111938
0.000111886
0.000111786
0.000111637
0.00011148
0.000111307
0.000111111
0.000133286
0.000130667
0.000128251
0.000126139
0.000124287
0.000122649
0.000121178
0.00011987
0.000118746
0.000117782
0.000116966
0.000116319
0.000115834
0.000115478
0.00011524
0.000115105
0.00011505
0.000115055
0.00011508
0.000115091
0.000115066
0.000115
0.000114933
0.000114853
0.000114746
0.000133205
0.000131443
0.000129534
0.00012776
0.000126136
0.000124666
0.00012334
0.00012216
0.000121135
0.000120254
0.000119543
0.000118974
0.000118538
0.000118243
0.000118073
0.000118014
0.000118026
0.000118095
0.000118189
0.000118277
0.00011834
0.000118375
0.000118416
0.000118452
0.000118459
0.000135033
0.000133018
0.000131098
0.0001294
0.000127891
0.000126536
0.00012534
0.000124297
0.000123381
0.000122625
0.000122007
0.000121524
0.000121173
0.00012095
0.000120844
0.000120837
0.000120921
0.000121066
0.000121242
0.000121423
0.000121591
0.000121747
0.000121921
0.0001221
0.000122253
0.000135962
0.000134062
0.000132323
0.00013079
0.000129452
0.000128276
0.000127222
0.00012629
0.000125504
0.000124845
0.000124307
0.000123914
0.000123663
0.000123522
0.000123488
0.000123552
0.000123709
0.000123934
0.000124203
0.00012449
0.000124784
0.000125085
0.000125422
0.000125778
0.000126122
0.00013529
0.000134301
0.000133105
0.000131938
0.000130843
0.000129843
0.000128939
0.00012814
0.000127458
0.000126886
0.000126454
0.000126146
0.000125947
0.000125873
0.000125916
0.000126067
0.000126313
0.00012663
0.000127003
0.000127413
0.000127853
0.000128326
0.000128855
0.000129423
0.000130002
0.000136909
0.000135613
0.000134347
0.000133202
0.000132174
0.000131252
0.000130451
0.00012977
0.000129188
0.000128736
0.000128397
0.000128166
0.000128046
0.000128038
0.000128142
0.00012835
0.000128657
0.000129057
0.000129534
0.00013008
0.000130692
0.000131372
0.000132138
0.00013296
0.000133787
0.000138059
0.000136682
0.000135394
0.000134249
0.000133264
0.000132427
0.000131711
0.00013111
0.000130634
0.000130271
0.000130004
0.000129832
0.000129782
0.000129827
0.000129972
0.000130219
0.00013057
0.000131033
0.000131608
0.000132301
0.00013312
0.000134078
0.00013519
0.00013641
0.000137615
0.000138329
0.000137216
0.000135982
0.00013487
0.000133918
0.000133141
0.000132512
0.000132015
0.000131638
0.000131355
0.000131174
0.000131078
0.000131054
0.000131111
0.000131254
0.000131492
0.00013184
0.00013231
0.00013293
0.000133737
0.000134775
0.000136097
0.000137746
0.000139694
0.000141706
0.000140239
0.000138083
0.000136197
0.000134756
0.000133716
0.000132996
0.000132515
0.000132205
0.000132015
0.000131904
0.000131852
0.000131846
0.000131859
0.000131898
0.000131968
0.000132086
0.000132279
0.000132587
0.000133072
0.000133819
0.000134941
0.000136588
0.000138927
0.000142073
0.000145732
0.000141034
0.000136966
0.000134191
0.000132545
0.000131681
0.000131323
0.00013127
0.000131384
0.000131576
0.000131785
0.000131964
0.000132088
0.000132147
0.000132133
0.000132049
0.00013191
0.000131747
0.000131616
0.0001316
0.000131833
0.000132512
0.000133939
0.000136552
0.000140905
0.000147067
0.000133829
0.000128963
0.000126875
0.000126465
0.000126917
0.000127766
0.000128747
0.000129712
0.000130571
0.00013128
0.00013181
0.000132143
0.000132269
0.000132181
0.000131876
0.000131355
0.00013063
0.000129727
0.000128705
0.000127676
0.000126832
0.000126525
0.000127382
0.000130537
0.000137375
0.000107668
0.000109421
0.000112976
0.000116788
0.000120333
0.000123435
0.00012605
0.000128198
0.000129916
0.000131233
0.000132171
0.00013275
0.000132974
0.000132835
0.000132321
0.00013141
0.00013007
0.000128265
0.000125955
0.000123097
0.000119666
0.000115701
0.000111399
0.000107334
0.000105214
6.85317e-05
8.62696e-05
9.95549e-05
0.000108998
0.000115931
0.000121164
0.000125176
0.000128275
0.000130651
0.00013243
0.000133688
0.00013447
0.000134803
0.000134673
0.000134066
0.000132938
0.000131221
0.000128813
0.000125569
0.000121278
0.000115614
0.000108094
9.79523e-05
8.39905e-05
6.60014e-05
0.000114132
0.000111574
0.000113992
0.00011787
0.000122154
0.000126224
0.000129787
0.000132758
0.000135149
0.000137002
0.000138355
0.000139237
0.000139675
0.000139644
0.000139135
0.000138109
0.000136502
0.000134232
0.000131205
0.000127355
0.000122711
0.000117566
0.000112743
0.000109753
0.00011254
0.000273097
0.000164231
0.000138109
0.000130349
0.000129774
0.000131727
0.00013442
0.00013702
0.000139285
0.000141122
0.000142511
0.000143455
0.000144013
0.000144118
0.000143805
0.000143056
0.0001418
0.000139956
0.00013746
0.000134385
0.000131257
0.000129852
0.000134934
0.000161763
0.000288629
0.000875392
0.000306962
0.000174769
0.000143462
0.000136845
0.000137071
0.000139183
0.000141523
0.000143495
0.00014505
0.000146331
0.0001473
0.000148091
0.000148623
0.000148699
0.000148303
0.000147403
0.000145882
0.000143586
0.000140484
0.000137002
0.000136598
0.000150376
0.000226796
0.000549042
0.00129877
0.000502918
0.000236068
0.000157303
0.000135504
0.000132081
0.000132559
0.000133478
0.000134372
0.000135121
0.000135633
0.000135851
0.000135969
0.000136224
0.000136823
0.000137702
0.000138792
0.000139818
0.000139971
0.000137716
0.000132941
0.000133469
0.000162399
0.00029365
0.000713111
0.000642357
0.000404573
0.000235664
0.000160935
0.000136578
0.000129262
0.000126597
0.000125467
0.000124219
0.000121614
0.000116974
0.000110847
0.00010548
0.000102958
0.000103105
0.000105479
0.000110515
0.000118064
0.000129078
0.000140202
0.000141127
0.000138649
0.000169857
0.000272479
0.0004272
0.000354002
0.000297686
0.000177324
0.000112553
9.09028e-05
8.46475e-05
8.40693e-05
8.45927e-05
8.24806e-05
7.42658e-05
5.92571e-05
4.06945e-05
2.83722e-05
2.39543e-05
2.30864e-05
2.46666e-05
2.93897e-05
3.9137e-05
5.88084e-05
8.45524e-05
0.000119458
0.000133958
0.000160047
0.000239399
0.000302994
0.000145674
0.000143855
8.62716e-05
3.67677e-05
2.13928e-05
1.85938e-05
2.08972e-05
2.5807e-05
2.69062e-05
2.35074e-05
1.35334e-05
2.20328e-06
4.41775e-07
2.5146e-07
2.08568e-07
2.17707e-07
3.12292e-07
6.55014e-07
4.01035e-06
1.82892e-05
5.06237e-05
8.9691e-05
0.000131198
0.000173445
0.000164967
)
;

boundaryField
{
    inlet
    {
        type            calculated;
        value           nonuniform List<scalar> 
25
(
2.01947e-08
2.01951e-08
2.01951e-08
2.01948e-08
2.01942e-08
2.01934e-08
2.01923e-08
2.01913e-08
2.01902e-08
2.01891e-08
2.01883e-08
2.01876e-08
2.0187e-08
2.01866e-08
2.01865e-08
2.01866e-08
2.01869e-08
2.01874e-08
2.01879e-08
2.01884e-08
2.01889e-08
2.01894e-08
2.01898e-08
2.01902e-08
2.0191e-08
)
;
    }
    outlet
    {
        type            calculated;
        value           nonuniform List<scalar> 
25
(
0.000145678
0.000143878
8.6312e-05
3.67982e-05
2.14134e-05
1.86125e-05
2.09208e-05
2.58353e-05
2.69322e-05
2.35223e-05
1.3537e-05
1.88546e-08
1.88546e-08
1.88546e-08
1.88546e-08
1.88546e-08
1.88546e-08
1.88546e-08
1.88546e-08
1.82889e-05
5.06266e-05
8.96958e-05
0.000131202
0.000173447
0.000164968
)
;
    }
    walls
    {
        type            nutkWallFunction;
        Cmu             0.09;
        kappa           0.41;
        E               9.8;
        value           uniform 1e-08;
    }
    defaultFaces
    {
        type            empty;
    }
}


// ************************************************************************* //
