/*--------------------------------*- C++ -*----------------------------------*\
| =========                 |                                                 |
| \\      /  F ield         | OpenFOAM: The Open Source CFD Toolbox           |
|  \\    /   O peration     | Version:  2.3.0                                 |
|   \\  /    A nd           | Web:      www.OpenFOAM.org                      |
|    \\/     M anipulation  |                                                 |
\*---------------------------------------------------------------------------*/
FoamFile
{
    version     2.0;
    format      ascii;
    class       volScalarField;
    location    "91";
    object      nut.water;
}
// * * * * * * * * * * * * * * * * * * * * * * * * * * * * * * * * * * * * * //

dimensions      [0 2 -1 0 0 0 0];

internalField   nonuniform List<scalar> 
1875
(
0.00102353
0.00107605
0.00116402
0.00124583
0.00132006
0.00138492
0.00144104
0.00148953
0.00153132
0.00156774
0.00159993
0.00162766
0.0016504
0.00166879
0.0016748
0.00167577
0.00166429
0.00163104
0.00157896
0.00150802
0.00141895
0.00131119
0.00118083
0.00101683
0.000821086
0.00107362
0.00124176
0.0013815
0.00148039
0.00154997
0.0015973
0.00162894
0.00164945
0.00166255
0.00166763
0.00167362
0.00167931
0.00168383
0.00168887
0.00169303
0.00169622
0.00169485
0.00167911
0.00164901
0.00158914
0.0015017
0.00138344
0.00122486
0.0010175
0.000780028
0.00136255
0.00156289
0.00171257
0.00180613
0.00186032
0.00188536
0.00189157
0.00188526
0.00187063
0.00185121
0.00183142
0.00181257
0.0017927
0.00177431
0.00175793
0.00174038
0.00172045
0.00169602
0.00166447
0.0016097
0.00153136
0.00142539
0.00128869
0.00113191
0.000989227
0.00175466
0.00196586
0.00206981
0.00210965
0.00211336
0.00209619
0.00206858
0.00203422
0.00199759
0.00196089
0.00192503
0.00189011
0.001856
0.00182441
0.00179521
0.00176674
0.00173709
0.0017022
0.00166087
0.0016032
0.00152518
0.00142815
0.00131252
0.00118445
0.00106305
0.00223311
0.0023055
0.0023046
0.00227725
0.00223485
0.00218444
0.0021315
0.00207956
0.00203057
0.00198483
0.00194168
0.00190087
0.00186217
0.00182588
0.00179184
0.00175785
0.00172
0.00167891
0.00163166
0.00157395
0.00150164
0.00141403
0.00131285
0.00120598
0.00110284
0.00253526
0.00252433
0.0024604
0.00237891
0.00229224
0.0022076
0.00212977
0.00206104
0.00200119
0.00194996
0.00190561
0.00186584
0.00182801
0.00179114
0.00175295
0.0017132
0.00167363
0.00163338
0.00158588
0.00152988
0.00146456
0.00138809
0.0013047
0.00121758
0.00113196
0.00268224
0.0026288
0.0025182
0.00240035
0.0022849
0.00217768
0.00208241
0.00200079
0.00193412
0.00187972
0.00183461
0.00179532
0.00175911
0.00172394
0.00168903
0.00165444
0.00161844
0.00158132
0.00153646
0.00148623
0.00142964
0.00136509
0.00129636
0.00122577
0.00115757
0.00283394
0.00270946
0.00254965
0.0023976
0.00225754
0.00212678
0.00201486
0.00192342
0.0018486
0.00179231
0.00174878
0.00171281
0.00167997
0.00165038
0.00162188
0.00159416
0.00156621
0.00153196
0.00149194
0.00144694
0.00139687
0.00134047
0.0012817
0.00122001
0.0011532
0.00287928
0.00272794
0.00254231
0.00237156
0.00221176
0.00206624
0.00194247
0.00184252
0.00176184
0.00170925
0.00166897
0.00163731
0.00161148
0.0015884
0.00156746
0.00154679
0.00151986
0.00148751
0.00145143
0.00141146
0.00136674
0.00131596
0.00126186
0.00120238
0.00113495
0.00291567
0.0027323
0.00253002
0.00234576
0.00216958
0.00201012
0.00187639
0.00176808
0.00169103
0.00164108
0.00161004
0.00158822
0.00156829
0.00155114
0.00153389
0.00151298
0.00148904
0.001462
0.00143024
0.001393
0.00135028
0.00130135
0.00124701
0.00118499
0.00111368
0.0029675
0.00274312
0.00252012
0.00232349
0.00213864
0.00197424
0.00183916
0.00173557
0.00166221
0.00161802
0.00159017
0.00157142
0.00155789
0.00154729
0.00153464
0.00151898
0.0014986
0.00147245
0.00144027
0.00140189
0.00135635
0.00130484
0.00124576
0.00117765
0.00109972
0.00299216
0.00273982
0.00250601
0.0023061
0.00212373
0.00196471
0.00183656
0.00174097
0.00167752
0.00164028
0.00162024
0.00160957
0.00160309
0.00159671
0.00158736
0.0015731
0.0015525
0.00152462
0.00148882
0.00144528
0.00139315
0.00133234
0.00126148
0.00117834
0.00108107
0.0028703
0.00266501
0.00246324
0.00228398
0.0021187
0.0019735
0.00185652
0.00177302
0.00172124
0.00169478
0.00168515
0.00168435
0.00168611
0.00168573
0.00167977
0.00166651
0.00164538
0.0016149
0.00157456
0.00152394
0.00146292
0.0013908
0.00130693
0.00120819
0.00109339
0.00265585
0.00254052
0.00239913
0.00225715
0.00211989
0.00199703
0.00189996
0.00183285
0.00179501
0.0017802
0.0017801
0.00178693
0.00179465
0.00179878
0.00179562
0.00178486
0.00176431
0.00173283
0.00168964
0.00163404
0.00156554
0.00148421
0.0013917
0.00128503
0.0011731
0.00249075
0.00243026
0.00233841
0.00223501
0.00212928
0.00203212
0.00195502
0.00190389
0.00187855
0.00187344
0.00188103
0.00189421
0.00190745
0.00191679
0.00191873
0.0019128
0.00189655
0.0018685
0.0018274
0.00177199
0.00170136
0.00161539
0.00151238
0.00139109
0.00126469
0.00242119
0.00237329
0.0023044
0.00222697
0.00214611
0.00207181
0.00201295
0.00197578
0.00196035
0.00196215
0.00197509
0.00199331
0.002012
0.0020275
0.00203658
0.00203833
0.00203048
0.00201086
0.00197764
0.00192874
0.00186183
0.00177418
0.00166309
0.00152616
0.00137073
0.00237565
0.00234033
0.00229048
0.00223338
0.00217172
0.00211513
0.00207043
0.00204333
0.00203489
0.00204139
0.00205788
0.00207966
0.00210294
0.00212459
0.00214165
0.00215255
0.0021558
0.002149
0.00213012
0.00209676
0.0020461
0.00197348
0.00187248
0.00173461
0.00155119
0.00235198
0.0023271
0.00229141
0.00224859
0.00220302
0.00215981
0.00212552
0.00210529
0.00210044
0.00210899
0.00212728
0.00215141
0.00217801
0.00220436
0.00222834
0.00224791
0.00226182
0.00226846
0.00226681
0.00225496
0.00223061
0.00218969
0.00212547
0.00202739
0.00187062
0.00236405
0.00233807
0.00230909
0.0022776
0.00224298
0.00220873
0.00218089
0.00216343
0.0021588
0.00216671
0.00218457
0.00220912
0.00223738
0.00226684
0.00229535
0.00232129
0.00234314
0.00235969
0.0023707
0.00237638
0.002375
0.0023639
0.00233949
0.00229966
0.00223171
0.00236899
0.00234723
0.00232571
0.00230196
0.00227818
0.00225195
0.00222961
0.00221425
0.00220926
0.00221504
0.00223099
0.00225463
0.00228318
0.00231421
0.00234557
0.00237574
0.00240325
0.00242708
0.0024469
0.00246241
0.00247287
0.00247694
0.00247192
0.00245761
0.00242741
0.00231634
0.00231283
0.00230663
0.00229554
0.0022837
0.00227137
0.00225727
0.00224694
0.00224325
0.00224897
0.0022636
0.00228631
0.00231502
0.00234746
0.00238133
0.00241489
0.00244673
0.00247584
0.00250154
0.00252338
0.00254065
0.0025511
0.00255194
0.00254314
0.00251732
0.00219466
0.00221285
0.00223063
0.00224224
0.00224743
0.0022482
0.00224759
0.00224808
0.00225102
0.00226037
0.00227797
0.00230091
0.0023312
0.00236612
0.00240333
0.00244081
0.00247697
0.00251063
0.00254089
0.00256688
0.00258762
0.00260176
0.0026069
0.00260447
0.00259513
0.00194838
0.00201785
0.0020737
0.00212153
0.00215873
0.00218635
0.00220375
0.00221569
0.00222915
0.00224479
0.00226572
0.00229352
0.00232797
0.00236806
0.002411
0.00245432
0.00249613
0.00253498
0.00256974
0.00259919
0.00262184
0.00263571
0.00263877
0.00263026
0.0026133
0.00168806
0.0018027
0.00189684
0.00197387
0.00203703
0.00208756
0.00212908
0.00216153
0.00218795
0.00221224
0.00223854
0.00227153
0.00231231
0.00235846
0.00240821
0.00245818
0.00250709
0.00255245
0.00259277
0.00262686
0.00265265
0.00266791
0.00267029
0.00265871
0.00263355
0.00150215
0.00164985
0.00177155
0.00187016
0.00194989
0.00201238
0.00206295
0.00210567
0.0021431
0.00217778
0.00221329
0.00225134
0.00229485
0.00234554
0.0024015
0.00245888
0.00251411
0.00256669
0.00261377
0.00265408
0.00268518
0.00270535
0.00271194
0.00270452
0.00268424
0.00143631
0.00160197
0.00173967
0.00185081
0.00193591
0.00200193
0.00205193
0.00209272
0.002129
0.00216494
0.00220204
0.00224352
0.00228999
0.00234265
0.00240066
0.00246248
0.00252404
0.00258235
0.00263642
0.00268363
0.00272154
0.00274883
0.00276348
0.00276597
0.00275801
0.00146971
0.00164087
0.00178601
0.00190291
0.00199203
0.00205683
0.00210153
0.00213462
0.00216174
0.00218809
0.00221851
0.00225502
0.00229914
0.00235196
0.0024114
0.00247536
0.00254096
0.00260394
0.00266387
0.00271762
0.00276276
0.00279798
0.00282238
0.00283738
0.00284475
0.00155993
0.00174108
0.00189476
0.00201505
0.00210366
0.00216344
0.00219971
0.00221983
0.00223326
0.00224697
0.00226685
0.00229592
0.00233504
0.00238391
0.00244048
0.00250337
0.00256966
0.00263511
0.00269872
0.00275752
0.00280909
0.00285176
0.00288577
0.00291379
0.00293729
0.00170846
0.00189584
0.0020525
0.00217193
0.00225597
0.0023078
0.00233422
0.00234236
0.00234207
0.00234153
0.00234811
0.00236581
0.00239563
0.00243697
0.00248816
0.00254715
0.00261119
0.00267664
0.00274175
0.00280333
0.00285921
0.00290753
0.00294932
0.00298895
0.00302704
0.00192219
0.0021044
0.00225194
0.00236312
0.00243642
0.00247569
0.00248842
0.00248282
0.00246853
0.00245426
0.00244795
0.00245415
0.00247391
0.00250678
0.00255118
0.00260474
0.00266441
0.00272705
0.00279058
0.00285224
0.00290956
0.00296052
0.00300709
0.00305607
0.00310584
0.00221765
0.00237258
0.00249197
0.00257999
0.00263353
0.00265473
0.00265075
0.00263031
0.00260238
0.00257553
0.00255769
0.0025533
0.00256362
0.00258823
0.0026254
0.00267242
0.00272629
0.00278403
0.00284311
0.00290098
0.00295526
0.00300401
0.00305033
0.00310353
0.00315919
0.00257293
0.00268463
0.00276252
0.002814
0.00283823
0.00283573
0.00281252
0.00277631
0.00273524
0.00269767
0.00267025
0.00265711
0.00265898
0.00267556
0.00270507
0.00274465
0.00279121
0.00284171
0.0028935
0.00294405
0.002991
0.00303281
0.0030734
0.00312425
0.00318252
0.00297987
0.00301993
0.00303968
0.00304613
0.00303634
0.00300871
0.00296637
0.00291525
0.00286299
0.00281653
0.0027813
0.00276079
0.00275531
0.00276435
0.00278614
0.00281759
0.00285563
0.00289699
0.0029391
0.00297898
0.00301392
0.00304203
0.00306613
0.00309569
0.00312721
0.00333159
0.00330213
0.00327441
0.00324728
0.00321199
0.00316448
0.00310664
0.00304416
0.00298325
0.00293008
0.00288902
0.00286247
0.00285096
0.00285303
0.00286706
0.0028902
0.00291921
0.00295096
0.00298249
0.00301046
0.00303162
0.00304352
0.00304777
0.00305068
0.00304745
0.00351004
0.00348461
0.00344945
0.00341056
0.00336171
0.00330166
0.00323363
0.00316334
0.00309696
0.00303958
0.00299423
0.00296239
0.00294535
0.00294143
0.00294855
0.00296406
0.00298474
0.00300772
0.00302963
0.00304693
0.00305597
0.00305464
0.0030446
0.00303128
0.00300826
0.00368081
0.00364944
0.00360632
0.00355751
0.00349808
0.00342824
0.00335256
0.00327687
0.00320676
0.00314629
0.0030976
0.00306234
0.00304085
0.00303205
0.00303349
0.00304269
0.00305681
0.00307276
0.00308717
0.00309625
0.00309622
0.00308516
0.00306514
0.00304032
0.00300041
0.00386006
0.00381708
0.00376217
0.00370146
0.00363073
0.00355155
0.00346919
0.0033891
0.00331581
0.00325277
0.0032022
0.00316523
0.00314078
0.00312809
0.00312533
0.00313006
0.00313957
0.00315085
0.00316043
0.00316433
0.00315926
0.00314325
0.00311884
0.00308898
0.00304135
0.00405622
0.00399441
0.00392295
0.00384784
0.00376488
0.00367655
0.00358811
0.00350432
0.00342877
0.00336407
0.00331237
0.00327378
0.00324731
0.00323223
0.00322677
0.00322871
0.00323549
0.00324415
0.00325121
0.00325278
0.00324623
0.00322997
0.0032069
0.00318025
0.00314067
0.00425854
0.00417616
0.0040869
0.00399722
0.00390259
0.00380624
0.00371325
0.00362708
0.00355035
0.00348503
0.00343163
0.00339097
0.00336298
0.00334627
0.0033391
0.00333937
0.00334463
0.00335195
0.00335784
0.0033587
0.00335235
0.00333739
0.00331614
0.00329081
0.0032522
0.00445983
0.00435771
0.00425174
0.00414897
0.00404456
0.00394208
0.00384544
0.00375713
0.00367909
0.00361276
0.00355883
0.00351746
0.00348827
0.00347032
0.00346189
0.00346097
0.00346514
0.00347146
0.00347659
0.00347729
0.00347189
0.00345959
0.00344303
0.00342566
0.0034045
0.00465614
0.00453641
0.00441551
0.00430209
0.00419048
0.00408354
0.00398423
0.00389434
0.00381535
0.00374834
0.00369383
0.00365191
0.00362198
0.00360302
0.0035934
0.00359119
0.00359397
0.00359879
0.00360238
0.00360187
0.00359581
0.00358314
0.00356708
0.00355194
0.00354018
0.00484424
0.00471098
0.00457787
0.00445587
0.00433934
0.00422959
0.00412862
0.00403782
0.00395835
0.00389097
0.00383605
0.00379358
0.00376286
0.00374278
0.00373178
0.00372793
0.00372878
0.00373135
0.00373238
0.00372917
0.00372009
0.00370414
0.00368241
0.00365597
0.00362318
0.00502291
0.00488006
0.00473748
0.00460926
0.00448995
0.00437884
0.00427721
0.00418618
0.00410666
0.00403921
0.00398404
0.00394101
0.00390943
0.00388811
0.00387553
0.0038698
0.00386848
0.00386864
0.00386727
0.00386141
0.00384955
0.00383238
0.00381107
0.0037885
0.00376558
0.00518977
0.00504135
0.00489403
0.00476249
0.00464162
0.00453011
0.00442862
0.00433796
0.00425883
0.00419159
0.00413629
0.00409271
0.00406023
0.00403759
0.0040233
0.0040155
0.00401174
0.00400919
0.0040049
0.00399654
0.00398273
0.00396266
0.00393941
0.00391569
0.00389399
0.00534572
0.00519567
0.00504699
0.00491439
0.00479329
0.00468224
0.00458153
0.00449168
0.00441318
0.00434633
0.00429115
0.00424722
0.00421393
0.00419003
0.0041741
0.0041643
0.00415829
0.00415285
0.00414546
0.00413457
0.0041187
0.00409584
0.00406744
0.00403391
0.00399404
0.00549715
0.00534652
0.00519777
0.00506516
0.00494463
0.00483463
0.00473514
0.0046465
0.00456903
0.00450289
0.00444778
0.00440355
0.00436953
0.00434449
0.00432703
0.00431547
0.00430752
0.00430042
0.00429185
0.00427933
0.00426152
0.0042387
0.00421146
0.00418125
0.00415003
0.00564374
0.00549364
0.00534591
0.00521427
0.00509503
0.00498667
0.00488875
0.00480145
0.00472527
0.00465992
0.004605
0.00456066
0.00452615
0.00450027
0.00448169
0.00446828
0.00445837
0.00445035
0.00444064
0.00442722
0.00440892
0.00438584
0.00435947
0.00433149
0.00430311
0.00578466
0.00563651
0.00549089
0.0053611
0.0052437
0.0051372
0.00504107
0.00495536
0.00488021
0.00481539
0.00476182
0.00471788
0.00468291
0.00465629
0.00463675
0.00462255
0.00461147
0.00460147
0.00459014
0.00457615
0.00455826
0.00453547
0.00450964
0.00448115
0.00445041
0.00592014
0.00577496
0.00563208
0.00550434
0.0053887
0.00528361
0.00518949
0.00510616
0.00503257
0.00496989
0.00491717
0.00487377
0.00483918
0.00481206
0.00479108
0.00477628
0.00476465
0.00475371
0.00474234
0.00472818
0.00471012
0.00468783
0.00466348
0.00463757
0.00461267
0.00605367
0.00591062
0.00576965
0.00564343
0.00553021
0.00542838
0.00533659
0.00525473
0.00518361
0.00512219
0.00506964
0.00502681
0.00499292
0.00496617
0.00494559
0.00492966
0.00491746
0.00490697
0.0048955
0.00488137
0.00486349
0.00484196
0.00481886
0.00479449
0.00476899
0.00618798
0.00604232
0.00590243
0.00577917
0.00566883
0.00556979
0.00548072
0.00540133
0.00533186
0.00527135
0.005221
0.00517919
0.00514526
0.00511906
0.00509964
0.00508437
0.0050722
0.0050611
0.00504941
0.00503538
0.00501793
0.00499704
0.00497506
0.00495187
0.00492757
0.00629139
0.00615735
0.00602515
0.00590674
0.00580023
0.00570407
0.00561841
0.00554283
0.00547586
0.00541897
0.00537074
0.00533059
0.00529796
0.0052724
0.00525275
0.00523827
0.00522646
0.00521552
0.00520421
0.00519067
0.00517385
0.00515366
0.0051327
0.00511042
0.00508903
0.00639963
0.00626802
0.00614024
0.00602573
0.00592422
0.00583393
0.00575251
0.00567983
0.00561693
0.00556247
0.00551579
0.00547778
0.00544783
0.00542387
0.0054051
0.00539077
0.0053799
0.00537038
0.00535999
0.0053476
0.00533205
0.00531334
0.00529348
0.00527199
0.00524993
0.00646874
0.00635617
0.00624138
0.00613726
0.00604301
0.00595811
0.00588157
0.00581339
0.0057538
0.00570206
0.00565924
0.00562373
0.0055949
0.00557281
0.00555646
0.00554449
0.00553493
0.00552658
0.00551764
0.00550684
0.00549297
0.00547603
0.00545782
0.00543744
0.00541532
0.00658059
0.00646186
0.00634804
0.00624707
0.00615717
0.00607649
0.00600495
0.00594211
0.00588647
0.00583953
0.00580016
0.00576787
0.00574216
0.00572265
0.00570842
0.00569829
0.00569064
0.0056841
0.00567726
0.00566859
0.00565721
0.00564276
0.00562715
0.00560969
0.00559084
0.00666749
0.00654948
0.00644117
0.00634605
0.00626292
0.00618976
0.0061241
0.00606575
0.00601588
0.00597313
0.00593689
0.00590822
0.00588664
0.00587034
0.00585877
0.00585078
0.00584618
0.00584258
0.00583865
0.00583299
0.0058247
0.00581355
0.00580107
0.00578624
0.00576923
0.00666768
0.00659391
0.0065114
0.00643361
0.00636188
0.00629687
0.00623819
0.00618608
0.00614097
0.00610232
0.00607141
0.00604667
0.00602761
0.00601462
0.00600678
0.00600327
0.00600193
0.00600189
0.00600161
0.00599994
0.00599578
0.00598905
0.00598102
0.00597077
0.00595816
0.00678036
0.00668912
0.00660305
0.00652725
0.00645995
0.00639972
0.00634688
0.00630124
0.00626134
0.00622885
0.0062026
0.00618232
0.0061678
0.00615882
0.00615469
0.00615453
0.00615695
0.00616105
0.00616537
0.00616866
0.00616991
0.00616891
0.00616684
0.00616262
0.00615541
0.00684784
0.00675976
0.00668043
0.0066111
0.00655103
0.00649877
0.00645235
0.0064117
0.00637803
0.00635018
0.00632782
0.00631213
0.00630284
0.00629824
0.00629798
0.0063013
0.00630853
0.00631776
0.0063277
0.00633726
0.00634543
0.00635209
0.00635833
0.00636272
0.00636344
0.00683312
0.00678981
0.00673645
0.00668426
0.00663532
0.00659103
0.00655146
0.006517
0.00648812
0.00646445
0.00644734
0.00643596
0.00642945
0.00642856
0.00643279
0.0064417
0.00645377
0.00646851
0.00648494
0.00650205
0.00651905
0.0065359
0.00655358
0.00657049
0.00658304
0.00693697
0.0068752
0.00681629
0.00676393
0.00671742
0.00667636
0.00664147
0.00661264
0.00658852
0.00657071
0.00655817
0.00655071
0.00654821
0.00655092
0.00655854
0.00657078
0.00658694
0.00660695
0.00663014
0.00665582
0.00668364
0.00671388
0.00674746
0.00678261
0.00681364
0.00700735
0.0069425
0.00688312
0.00683099
0.00678683
0.0067501
0.00671948
0.00669459
0.00667579
0.00666238
0.00665345
0.00664885
0.00664999
0.00665534
0.006665
0.0066789
0.0066983
0.0067226
0.00675191
0.00678643
0.00682658
0.00687343
0.00692813
0.00698916
0.00704719
0.00702727
0.00697842
0.00692395
0.00687514
0.00683384
0.00680083
0.00677498
0.00675529
0.00674156
0.00673212
0.00672746
0.00672659
0.00672898
0.00673496
0.00674476
0.00675891
0.00677777
0.00680231
0.00683398
0.00687457
0.00692626
0.00699185
0.00707392
0.00717146
0.0072689
0.00712592
0.00702917
0.00694561
0.00688276
0.0068386
0.00680943
0.00679147
0.00678163
0.006777
0.00677599
0.00677743
0.00678079
0.0067847
0.00678948
0.00679541
0.00680328
0.00681402
0.0068301
0.00685456
0.00689171
0.0069472
0.00702839
0.0071438
0.00729883
0.0074734
0.00716832
0.00698344
0.00685926
0.0067879
0.00675335
0.00674258
0.00674612
0.00675736
0.00677177
0.00678655
0.00679936
0.00680899
0.00681483
0.00681647
0.00681403
0.00680818
0.00680053
0.00679383
0.00679239
0.00680296
0.00683567
0.00690585
0.0070361
0.00725475
0.00756117
0.00684246
0.00661029
0.00651559
0.00650318
0.00653276
0.00658142
0.0066362
0.00668958
0.00673729
0.00677698
0.00680721
0.00682712
0.00683596
0.0068335
0.00681945
0.00679379
0.00675691
0.00671026
0.00665682
0.00660232
0.006557
0.00653926
0.00658172
0.0067439
0.00709518
0.0055681
0.00565442
0.0058364
0.00603334
0.00621723
0.00637875
0.00651559
0.00662862
0.0067195
0.00678976
0.00684056
0.00687273
0.00688646
0.00688123
0.00685632
0.00681041
0.00674191
0.00664865
0.00652838
0.00637888
0.00619925
0.00599203
0.0057684
0.00556064
0.00546117
0.00355569
0.00447371
0.00516013
0.00564798
0.00600599
0.00627646
0.00648457
0.00664594
0.00677036
0.00686414
0.00693122
0.00697391
0.00699342
0.00698896
0.00695961
0.00690292
0.0068151
0.00669061
0.00652165
0.00629684
0.00599928
0.00560394
0.00507185
0.00434137
0.00340529
0.00589866
0.00578803
0.00591912
0.00612098
0.0063419
0.00655131
0.00673482
0.0068883
0.00701233
0.00710905
0.00718059
0.00722849
0.00725398
0.00725565
0.00723283
0.00718301
0.00710253
0.00698658
0.00682977
0.00662778
0.00638109
0.00610453
0.0058409
0.00566598
0.00577017
0.0139572
0.00853277
0.00720594
0.00681069
0.00678213
0.00688009
0.00701266
0.00713898
0.0072477
0.0073367
0.00740634
0.00745624
0.00748939
0.0075031
0.00749765
0.00746983
0.00741514
0.00732923
0.00720837
0.0070514
0.00687253
0.00676404
0.00697959
0.008316
0.0147456
0.0469319
0.0161241
0.00918199
0.00765501
0.00735069
0.00735409
0.00738612
0.00744285
0.0075043
0.0075674
0.0076209
0.00766481
0.00771782
0.00778053
0.00782845
0.00786239
0.00786895
0.00783553
0.00776298
0.00762118
0.00729401
0.00714769
0.00763293
0.0112239
0.0267855
0.0416375
0.017159
0.00942645
0.00696074
0.00617201
0.00544488
0.0048709
0.00438507
0.0040522
0.00389542
0.00381893
0.00383162
0.00397747
0.00424818
0.00458253
0.00493055
0.00524638
0.00554376
0.005963
0.00649413
0.00725076
0.00749319
0.00832856
0.0128286
0.0295592
0.0172288
0.0116911
0.00615822
0.00328604
0.00205899
0.000968394
0.000533955
0.000244534
0.000136568
0.000120813
0.000116524
0.000120732
0.0001459
0.00024705
0.000427791
0.00064573
0.00084748
0.00105142
0.00144112
0.00208953
0.00326112
0.00545536
0.00740562
0.0112267
0.0167396
0.0102364
0.00823635
0.00306281
0.00115998
0.00040731
0.000100614
1.5641e-05
9.5007e-07
7.27352e-07
7.97615e-07
8.12033e-07
9.05902e-07
1.2391e-06
2.404e-06
6.59412e-06
1.21203e-05
1.8826e-05
3.89685e-05
0.000112342
0.000324332
0.000869753
0.00229171
0.0053057
0.00954489
0.0117814
0.00507438
0.0043399
0.00158297
0.000428061
0.00010483
1.54687e-05
9.68332e-07
6.73374e-07
7.8406e-07
7.92418e-07
7.93016e-07
7.49561e-07
7.18214e-07
1.00687e-06
1.39106e-06
1.36483e-06
1.3021e-06
1.49869e-06
5.34876e-06
6.29793e-05
0.000276641
0.000932397
0.00287572
0.00596887
0.00646573
)
;

boundaryField
{
    inlet
    {
        type            calculated;
        value           uniform 8.4375e-07;
    }
    outlet
    {
        type            calculated;
        value           nonuniform List<scalar> 
25
(
0.00507438
0.0043399
0.00158297
0.000428061
0.00010483
1.54687e-05
8.4375e-07
8.4375e-07
8.4375e-07
8.4375e-07
8.4375e-07
8.4375e-07
8.4375e-07
8.4375e-07
8.4375e-07
8.4375e-07
8.4375e-07
8.4375e-07
8.4375e-07
8.4375e-07
0.000276641
0.000932397
0.00287572
0.00596887
0.00646573
)
;
    }
    walls
    {
        type            nutkWallFunction;
        Cmu             0.09;
        kappa           0.41;
        E               9.8;
        value           nonuniform List<scalar> 
150
(
1.68187e-05
1.91446e-05
1.98342e-05
2.00636e-05
2.02437e-05
2.06034e-05
2.09557e-05
2.12657e-05
2.14518e-05
2.15845e-05
2.15943e-05
2.15198e-05
2.14331e-05
2.1353e-05
2.12703e-05
2.11878e-05
2.11404e-05
2.11231e-05
2.11139e-05
2.10922e-05
2.10146e-05
2.08162e-05
2.04926e-05
2.01135e-05
1.98302e-05
1.97503e-05
1.98934e-05
2.02182e-05
2.0621e-05
2.10324e-05
2.14319e-05
2.18118e-05
2.21572e-05
2.24494e-05
2.26916e-05
2.2907e-05
2.31087e-05
2.33035e-05
2.3494e-05
2.36755e-05
2.38378e-05
2.39834e-05
2.41198e-05
2.42512e-05
2.43843e-05
2.45191e-05
2.46551e-05
2.47918e-05
2.49289e-05
2.50655e-05
2.52001e-05
2.53294e-05
2.54556e-05
2.55772e-05
2.56953e-05
2.58158e-05
2.59343e-05
2.60529e-05
2.6181e-05
2.63176e-05
2.64694e-05
2.66516e-05
2.68705e-05
2.71446e-05
2.75032e-05
2.79931e-05
2.871e-05
2.97303e-05
2.98038e-05
2.93105e-05
2.76903e-05
2.62047e-05
2.46275e-05
2.36992e-05
2.23635e-05
1.42224e-05
1.68393e-05
1.77587e-05
1.81961e-05
1.83808e-05
1.84554e-05
1.84417e-05
1.83852e-05
1.82645e-05
1.81527e-05
1.81414e-05
1.82775e-05
1.86008e-05
1.90545e-05
1.95304e-05
1.99179e-05
2.02526e-05
2.05961e-05
2.09019e-05
2.11302e-05
2.12718e-05
2.13697e-05
2.14534e-05
2.15281e-05
2.15983e-05
2.16682e-05
2.1741e-05
2.18197e-05
2.19035e-05
2.19827e-05
2.20414e-05
2.2074e-05
2.21034e-05
2.21375e-05
2.21802e-05
2.22535e-05
2.2375e-05
2.25374e-05
2.27235e-05
2.28994e-05
2.30617e-05
2.32295e-05
2.34065e-05
2.35893e-05
2.37675e-05
2.39494e-05
2.41364e-05
2.43184e-05
2.44982e-05
2.46761e-05
2.48505e-05
2.50228e-05
2.51942e-05
2.53649e-05
2.55353e-05
2.5707e-05
2.58813e-05
2.60606e-05
2.62477e-05
2.64464e-05
2.66628e-05
2.69053e-05
2.71862e-05
2.75241e-05
2.79525e-05
2.85376e-05
2.94079e-05
3.06424e-05
3.08278e-05
3.04405e-05
2.91566e-05
2.7755e-05
2.66864e-05
2.6175e-05
2.49852e-05
)
;
    }
    defaultFaces
    {
        type            empty;
    }
}


// ************************************************************************* //
