/*--------------------------------*- C++ -*----------------------------------*\
| =========                 |                                                 |
| \\      /  F ield         | OpenFOAM: The Open Source CFD Toolbox           |
|  \\    /   O peration     | Version:  2.3.0                                 |
|   \\  /    A nd           | Web:      www.OpenFOAM.org                      |
|    \\/     M anipulation  |                                                 |
\*---------------------------------------------------------------------------*/
FoamFile
{
    version     2.0;
    format      ascii;
    class       volScalarField;
    location    "0.3";
    object      pMean;
}
// * * * * * * * * * * * * * * * * * * * * * * * * * * * * * * * * * * * * * //

dimensions      [1 -1 -2 0 0 0 0];

internalField   nonuniform List<scalar> 
6000
(
107244
107245
107243
107241
107238
107235
107232
107230
107228
107226
107224
107223
107222
107222
107222
107222
107222
107222
107223
107225
107227
107229
107231
107234
107236
107239
107243
107245
107247
107246
107179
107180
107178
107175
107171
107167
107164
107163
107161
107160
107159
107159
107159
107159
107159
107159
107159
107159
107159
107160
107160
107162
107164
107166
107169
107172
107176
107180
107182
107181
107127
107127
107125
107123
107119
107115
107112
107111
107110
107109
107110
107110
107110
107110
107110
107110
107110
107110
107110
107110
107110
107111
107112
107113
107116
107120
107124
107127
107129
107128
107070
107068
107065
107062
107059
107056
107054
107054
107055
107056
107056
107057
107057
107058
107058
107058
107058
107058
107057
107057
107056
107055
107055
107055
107058
107061
107064
107066
107069
107072
107009
107006
107002
106999
106996
106995
106994
106995
106997
106999
107001
107002
107003
107004
107004
107004
107004
107003
107002
107001
107000
106997
106996
106995
106996
106997
107000
107003
107007
107010
106948
106945
106940
106935
106932
106932
106935
106937
106939
106942
106945
106947
106949
106950
106950
106950
106950
106949
106947
106945
106943
106939
106937
106935
106933
106933
106936
106941
106946
106949
106891
106888
106882
106875
106872
106873
106877
106879
106882
106885
106889
106892
106894
106895
106895
106895
106895
106894
106892
106889
106885
106882
106879
106877
106873
106872
106876
106883
106889
106892
106839
106836
106829
106823
106820
106820
106822
106824
106826
106829
106832
106835
106838
106839
106840
106840
106839
106837
106835
106832
106828
106825
106824
106822
106819
106819
106823
106831
106838
106840
106790
106786
106779
106773
106771
106770
106771
106772
106773
106774
106777
106779
106781
106782
106782
106782
106782
106781
106779
106776
106774
106772
106771
106770
106769
106769
106773
106780
106787
106791
106740
106736
106730
106724
106722
106722
106721
106721
106721
106722
106723
106724
106725
106726
106726
106726
106726
106725
106724
106723
106722
106721
106721
106720
106720
106720
106723
106729
106736
106740
106689
106685
106680
106675
106673
106672
106672
106671
106671
106671
106671
106672
106672
106672
106672
106672
106672
106672
106672
106671
106671
106671
106671
106671
106672
106672
106674
106678
106685
106689
106636
106633
106629
106625
106623
106623
106623
106622
106621
106620
106620
106620
106620
106620
106620
106620
106620
106620
106620
106620
106621
106621
106622
106623
106623
106623
106625
106629
106633
106637
106584
106582
106580
106576
106575
106575
106575
106574
106572
106572
106571
106571
106570
106570
106570
106570
106570
106570
106571
106571
106572
106573
106574
106575
106575
106576
106577
106580
106583
106585
106534
106532
106531
106529
106529
106528
106528
106527
106526
106525
106525
106524
106523
106523
106523
106523
106523
106523
106524
106525
106526
106527
106528
106528
106529
106529
106530
106532
106533
106534
106484
106483
106483
106483
106482
106482
106482
106482
106481
106481
106480
106479
106479
106478
106478
106478
106478
106479
106479
106480
106481
106482
106482
106483
106483
106483
106484
106484
106485
106485
106434
106434
106435
106436
106436
106436
106436
106436
106436
106435
106435
106434
106434
106434
106434
106434
106434
106434
106435
106435
106436
106436
106437
106437
106437
106436
106436
106437
106436
106435
106384
106384
106386
106388
106388
106389
106389
106390
106389
106389
106389
106389
106388
106388
106388
106388
106388
106389
106389
106389
106389
106390
106390
106390
106389
106389
106388
106387
106386
106386
106334
106335
106337
106340
106340
106341
106342
106342
106342
106342
106342
106342
106341
106341
106341
106341
106341
106342
106342
106342
106342
106342
106342
106342
106341
106340
106339
106337
106336
106336
106284
106285
106288
106291
106292
106292
106293
106293
106294
106294
106294
106294
106293
106293
106293
106293
106294
106294
106294
106294
106294
106294
106293
106293
106292
106291
106290
106287
106285
106285
106233
106235
106238
106242
106243
106243
106243
106244
106244
106244
106244
106244
106244
106244
106244
106244
106244
106244
106245
106245
106244
106244
106244
106243
106242
106241
106240
106237
106234
106234
106181
106183
106187
106191
106192
106192
106192
106193
106193
106194
106194
106194
106194
106194
106194
106194
106194
106194
106194
106194
106194
106194
106193
106193
106192
106191
106190
106187
106183
106182
106127
106130
106133
106136
106139
106139
106140
106141
106141
106142
106142
106142
106143
106143
106143
106143
106143
106143
106143
106143
106142
106142
106142
106141
106140
106141
106139
106136
106131
106129
106073
106075
106076
106079
106083
106084
106086
106087
106088
106089
106090
106090
106090
106090
106090
106091
106091
106090
106090
106090
106090
106089
106089
106088
106087
106087
106085
106082
106078
106075
106018
106018
106019
106022
106026
106029
106031
106033
106034
106035
106036
106036
106037
106037
106037
106037
106037
106037
106037
106037
106036
106035
106034
106033
106032
106031
106028
106025
106023
106020
105961
105960
105961
105965
105969
105973
105975
105977
105979
105980
105981
105982
105982
105983
105983
105983
105983
105983
105982
105982
105981
105980
105979
105978
105976
105973
105970
105967
105965
105964
105904
105903
105904
105908
105913
105916
105919
105921
105923
105925
105926
105926
105927
105927
105927
105927
105927
105927
105927
105926
105925
105924
105923
105921
105919
105915
105911
105908
105906
105905
105848
105847
105848
105852
105856
105859
105862
105865
105867
105868
105869
105870
105870
105871
105871
105871
105871
105871
105870
105870
105869
105868
105866
105864
105861
105858
105853
105849
105846
105846
105793
105792
105792
105795
105799
105802
105805
105808
105809
105811
105812
105813
105813
105814
105814
105814
105814
105813
105813
105812
105811
105810
105808
105806
105803
105800
105794
105789
105787
105787
105736
105736
105737
105739
105742
105745
105747
105750
105751
105753
105754
105755
105755
105755
105756
105756
105755
105755
105755
105754
105753
105752
105750
105748
105745
105741
105736
105731
105729
105729
105678
105678
105679
105681
105684
105687
105689
105691
105693
105694
105695
105696
105696
105696
105696
105696
105696
105696
105696
105695
105694
105693
105691
105689
105687
105683
105678
105674
105672
105671
105618
105618
105620
105623
105626
105628
105630
105632
105633
105634
105635
105636
105636
105636
105636
105636
105636
105636
105636
105635
105634
105633
105631
105629
105627
105624
105620
105616
105614
105613
105557
105558
105560
105563
105567
105569
105570
105572
105573
105574
105575
105575
105575
105575
105575
105575
105575
105575
105575
105574
105573
105572
105571
105569
105567
105565
105560
105557
105555
105555
105495
105496
105499
105503
105506
105508
105510
105511
105512
105512
105513
105513
105513
105514
105514
105514
105513
105513
105513
105512
105511
105510
105509
105508
105506
105503
105500
105496
105495
105495
105432
105434
105438
105442
105445
105447
105448
105449
105449
105450
105450
105450
105451
105451
105451
105451
105451
105450
105450
105449
105449
105448
105447
105445
105444
105441
105437
105435
105433
105433
105368
105371
105375
105380
105382
105385
105385
105385
105385
105386
105386
105386
105387
105387
105387
105387
105387
105386
105386
105385
105385
105384
105383
105381
105380
105377
105374
105372
105370
105371
105301
105304
105310
105315
105318
105320
105320
105320
105320
105321
105321
105321
105322
105322
105322
105322
105322
105321
105321
105321
105320
105319
105318
105316
105314
105312
105310
105308
105307
105307
105232
105235
105241
105247
105250
105251
105252
105253
105253
105254
105255
105255
105256
105256
105256
105256
105256
105256
105255
105254
105254
105252
105251
105250
105248
105246
105245
105243
105242
105242
105162
105166
105171
105175
105178
105180
105182
105184
105185
105186
105187
105188
105189
105189
105189
105189
105189
105189
105188
105187
105186
105185
105184
105182
105180
105178
105178
105177
105176
105175
105093
105097
105100
105102
105104
105107
105110
105113
105115
105117
105119
105120
105121
105121
105121
105121
105121
105121
105120
105119
105118
105117
105115
105113
105111
105109
105109
105108
105108
105107
105024
105027
105028
105028
105030
105034
105038
105042
105045
105047
105049
105051
105052
105052
105053
105053
105053
105052
105052
105051
105049
105047
105046
105044
105041
105039
105038
105038
105039
105038
104955
104955
104955
104956
104959
104963
104967
104971
104974
104977
104979
104981
104982
104983
104983
104983
104983
104983
104982
104981
104979
104978
104976
104974
104971
104969
104968
104968
104969
104969
104885
104883
104883
104885
104888
104893
104897
104901
104904
104907
104909
104911
104912
104913
104913
104913
104913
104913
104912
104911
104909
104907
104906
104904
104901
104899
104898
104897
104898
104899
104814
104812
104812
104815
104819
104823
104827
104830
104834
104836
104838
104840
104841
104842
104843
104843
104843
104842
104841
104840
104839
104837
104835
104833
104831
104830
104828
104827
104827
104828
104745
104742
104743
104747
104751
104755
104758
104761
104763
104766
104768
104769
104771
104772
104772
104772
104772
104772
104771
104770
104768
104767
104765
104763
104761
104760
104758
104756
104757
104758
104676
104674
104676
104679
104683
104686
104689
104691
104693
104695
104697
104699
104700
104701
104701
104701
104701
104701
104700
104699
104698
104696
104695
104693
104691
104690
104688
104687
104687
104687
104607
104606
104608
104611
104614
104617
104619
104622
104623
104625
104627
104628
104629
104630
104630
104630
104630
104630
104629
104628
104627
104626
104625
104623
104621
104620
104619
104618
104617
104617
104539
104538
104539
104542
104545
104548
104550
104552
104553
104555
104556
104557
104558
104558
104559
104559
104559
104558
104558
104557
104556
104555
104554
104552
104551
104550
104549
104548
104548
104547
104469
104469
104470
104473
104475
104478
104480
104481
104482
104484
104485
104486
104486
104487
104487
104487
104487
104487
104487
104486
104485
104484
104483
104482
104481
104480
104480
104479
104478
104477
104400
104399
104401
104402
104405
104407
104409
104410
104411
104412
104413
104414
104415
104415
104416
104416
104416
104415
104415
104414
104414
104413
104412
104411
104410
104410
104410
104409
104407
104407
104329
104329
104330
104332
104334
104336
104338
104339
104340
104341
104342
104342
104343
104343
104344
104344
104344
104343
104343
104342
104342
104341
104340
104339
104339
104339
104339
104339
104337
104336
104259
104259
104259
104261
104263
104265
104266
104267
104268
104269
104270
104270
104271
104271
104272
104272
104272
104271
104271
104270
104270
104269
104268
104268
104268
104268
104268
104267
104266
104265
104188
104189
104188
104190
104191
104193
104195
104196
104197
104197
104198
104199
104199
104199
104200
104200
104200
104199
104199
104198
104198
104197
104197
104196
104196
104196
104196
104195
104194
104194
104118
104118
104117
104119
104120
104121
104123
104124
104125
104126
104126
104127
104127
104127
104128
104128
104128
104127
104127
104127
104126
104125
104125
104124
104124
104124
104123
104123
104122
104122
104048
104048
104047
104048
104048
104050
104051
104053
104053
104054
104054
104055
104055
104056
104056
104056
104056
104055
104055
104055
104054
104054
104053
104053
104052
104052
104051
104050
104050
104050
103979
103978
103977
103977
103977
103978
103980
103981
103982
103982
103983
103983
103983
103984
103984
103984
103984
103983
103983
103983
103982
103982
103981
103981
103980
103980
103979
103978
103978
103979
103910
103909
103908
103907
103906
103907
103908
103910
103910
103911
103911
103911
103912
103912
103912
103912
103912
103911
103911
103911
103910
103910
103909
103909
103908
103908
103907
103906
103906
103907
103841
103839
103838
103837
103836
103837
103837
103838
103839
103839
103839
103840
103840
103840
103840
103840
103840
103839
103839
103839
103839
103838
103838
103837
103837
103836
103835
103833
103834
103835
103771
103770
103769
103768
103766
103766
103767
103767
103768
103768
103768
103768
103768
103768
103768
103768
103768
103768
103767
103767
103767
103766
103766
103766
103765
103764
103763
103761
103762
103764
103701
103700
103700
103698
103697
103696
103696
103696
103696
103697
103697
103697
103697
103696
103696
103696
103696
103696
103696
103695
103695
103695
103694
103694
103693
103692
103691
103690
103691
103692
103629
103629
103629
103628
103627
103625
103625
103625
103625
103625
103625
103625
103625
103625
103625
103625
103625
103624
103624
103624
103624
103623
103623
103623
103622
103621
103620
103620
103620
103620
103557
103557
103558
103558
103556
103555
103554
103554
103554
103554
103554
103554
103554
103554
103554
103553
103553
103553
103553
103553
103552
103552
103552
103551
103550
103550
103550
103550
103549
103549
103485
103486
103486
103486
103485
103484
103483
103483
103483
103483
103483
103483
103483
103482
103482
103482
103482
103482
103482
103481
103481
103481
103480
103480
103479
103479
103479
103480
103480
103478
103414
103414
103415
103415
103414
103413
103412
103412
103412
103412
103411
103411
103411
103411
103411
103411
103411
103410
103410
103410
103410
103409
103409
103409
103409
103409
103409
103410
103409
103408
103343
103343
103343
103343
103342
103342
103341
103340
103340
103340
103340
103340
103340
103340
103340
103339
103339
103339
103339
103339
103338
103338
103338
103338
103338
103338
103338
103340
103339
103337
103271
103271
103271
103271
103271
103270
103269
103269
103269
103269
103269
103269
103268
103268
103268
103268
103268
103268
103267
103267
103267
103267
103266
103266
103266
103267
103267
103269
103267
103266
103199
103199
103199
103199
103199
103199
103198
103197
103197
103197
103197
103197
103197
103197
103197
103197
103196
103196
103196
103196
103195
103195
103195
103195
103195
103195
103195
103196
103195
103195
103126
103126
103126
103127
103127
103127
103127
103126
103126
103126
103126
103126
103126
103125
103125
103125
103125
103125
103125
103124
103124
103124
103123
103123
103123
103123
103123
103122
103121
103122
103052
103052
103053
103054
103055
103055
103055
103055
103054
103054
103054
103054
103054
103054
103054
103054
103054
103053
103053
103053
103053
103052
103052
103051
103051
103050
103050
103048
103048
103048
102979
102979
102981
102982
102983
102983
102983
102983
102983
102983
102983
102983
102983
102983
102982
102982
102982
102982
102982
102981
102981
102981
102980
102980
102979
102978
102978
102976
102974
102973
102906
102907
102908
102909
102911
102911
102912
102912
102911
102911
102911
102911
102911
102911
102911
102911
102911
102910
102910
102910
102909
102909
102909
102908
102907
102907
102906
102904
102902
102900
102835
102835
102836
102837
102838
102839
102840
102840
102840
102840
102840
102840
102840
102840
102840
102839
102839
102839
102839
102838
102838
102838
102837
102837
102836
102835
102834
102833
102830
102829
102765
102764
102765
102765
102766
102767
102768
102768
102768
102768
102768
102768
102768
102768
102768
102768
102768
102767
102767
102767
102766
102766
102766
102765
102764
102764
102763
102762
102759
102759
102695
102694
102693
102693
102694
102695
102696
102697
102697
102697
102697
102697
102697
102697
102697
102696
102696
102696
102696
102695
102695
102695
102694
102694
102693
102692
102691
102691
102689
102689
102624
102622
102622
102621
102622
102623
102624
102625
102625
102625
102625
102625
102625
102625
102625
102625
102625
102625
102624
102624
102624
102623
102623
102622
102622
102621
102620
102620
102618
102619
102552
102551
102550
102550
102550
102551
102552
102553
102553
102553
102554
102554
102554
102554
102554
102554
102553
102553
102553
102553
102552
102552
102551
102551
102550
102549
102549
102548
102547
102547
102479
102479
102478
102478
102478
102479
102480
102481
102481
102482
102482
102482
102482
102482
102482
102482
102482
102482
102482
102481
102481
102480
102480
102479
102478
102478
102477
102475
102475
102475
102406
102407
102406
102406
102407
102407
102408
102409
102410
102410
102410
102411
102411
102411
102411
102411
102411
102410
102410
102410
102409
102409
102408
102408
102407
102406
102405
102404
102404
102403
102332
102334
102334
102335
102335
102336
102336
102337
102338
102338
102339
102339
102339
102339
102339
102339
102339
102339
102339
102338
102338
102338
102337
102336
102335
102335
102334
102333
102333
102331
102260
102261
102262
102263
102264
102264
102265
102266
102266
102267
102267
102267
102268
102268
102268
102268
102268
102268
102267
102267
102267
102266
102266
102265
102264
102263
102262
102261
102261
102260
102189
102188
102189
102191
102192
102193
102194
102194
102195
102195
102196
102196
102196
102196
102197
102197
102196
102196
102196
102196
102195
102195
102194
102194
102193
102192
102191
102189
102189
102190
102117
102116
102116
102118
102120
102121
102122
102123
102123
102124
102124
102125
102125
102125
102125
102125
102125
102125
102125
102124
102124
102124
102123
102122
102122
102121
102119
102117
102117
102119
102045
102043
102044
102046
102049
102050
102051
102052
102052
102053
102053
102054
102054
102054
102054
102054
102054
102054
102054
102053
102053
102053
102052
102052
102051
102050
102047
102045
102045
102047
101971
101970
101972
101975
101977
101979
101980
101981
101982
101982
101982
101982
101983
101983
101983
101983
101983
101983
101983
101982
101982
101982
101981
101981
101980
101979
101976
101974
101972
101973
101897
101898
101901
101904
101907
101909
101910
101910
101911
101911
101911
101911
101912
101912
101912
101912
101912
101912
101912
101912
101911
101911
101911
101910
101910
101908
101906
101904
101901
101899
101824
101827
101831
101835
101837
101838
101839
101839
101840
101840
101840
101840
101840
101840
101840
101841
101841
101841
101841
101841
101841
101840
101840
101840
101839
101838
101837
101834
101829
101827
101754
101757
101761
101765
101767
101768
101768
101769
101769
101769
101769
101769
101769
101769
101769
101769
101769
101769
101769
101770
101770
101770
101770
101770
101769
101769
101767
101763
101759
101756
101685
101687
101690
101694
101697
101697
101698
101698
101698
101698
101698
101698
101698
101698
101698
101698
101698
101698
101698
101698
101698
101699
101699
101699
101699
101698
101695
101692
101689
101687
101615
101616
101619
101622
101626
101627
101627
101627
101626
101626
101626
101626
101626
101626
101626
101627
101627
101627
101627
101627
101627
101627
101628
101628
101628
101627
101623
101620
101618
101618
101544
101545
101547
101550
101553
101555
101555
101555
101555
101555
101555
101555
101555
101555
101555
101555
101555
101555
101555
101556
101556
101556
101557
101557
101556
101555
101551
101549
101547
101547
101472
101473
101474
101477
101481
101483
101483
101484
101483
101483
101483
101483
101483
101483
101483
101484
101484
101484
101484
101484
101484
101484
101485
101484
101484
101482
101479
101476
101475
101475
101400
101400
101401
101404
101408
101410
101411
101411
101411
101411
101412
101412
101412
101412
101412
101412
101412
101412
101412
101412
101412
101412
101412
101412
101411
101409
101406
101403
101402
101402
101326
101326
101328
101331
101334
101337
101338
101339
101339
101339
101340
101340
101340
101340
101340
101340
101340
101340
101340
101340
101340
101340
101339
101339
101338
101335
101332
101330
101328
101328
101253
101252
101254
101257
101260
101263
101265
101266
101267
101267
101267
101268
101268
101268
101269
101269
101269
101268
101268
101268
101268
101267
101266
101265
101264
101261
101258
101255
101254
101255
101179
101178
101180
101182
101186
101190
101192
101193
101194
101195
101195
101196
101196
101196
101197
101197
101197
101196
101196
101196
101195
101194
101193
101192
101190
101187
101183
101181
101179
101180
101105
101104
101105
101108
101112
101116
101119
101120
101121
101122
101123
101124
101124
101124
101125
101125
101125
101124
101124
101123
101123
101122
101121
101119
101117
101113
101109
101106
101105
101106
101032
101031
101032
101035
101039
101043
101046
101048
101049
101050
101051
101052
101052
101053
101053
101053
101053
101052
101052
101051
101051
101050
101048
101046
101043
101039
101035
101032
101031
101032
100958
100957
100959
100961
100965
100970
100973
100976
100977
100979
100979
100980
100981
100981
100981
100981
100981
100981
100980
100980
100979
100977
100976
100973
100970
100966
100961
100959
100958
100958
100885
100885
100886
100889
100893
100897
100901
100903
100905
100907
100908
100908
100909
100909
100909
100909
100909
100909
100908
100908
100907
100905
100904
100901
100897
100893
100889
100886
100885
100885
100814
100814
100816
100818
100822
100826
100830
100833
100835
100836
100837
100838
100838
100839
100839
100839
100839
100838
100838
100837
100836
100835
100833
100830
100826
100822
100818
100816
100814
100815
100753
100753
100754
100757
100760
100764
100768
100771
100773
100774
100775
100776
100776
100777
100777
100777
100777
100776
100776
100775
100774
100773
100771
100768
100764
100760
100757
100754
100753
100753
100705
100705
100707
100709
100712
100715
100719
100721
100724
100725
100726
100727
100727
100727
100728
100728
100727
100727
100727
100726
100725
100724
100722
100719
100715
100712
100709
100707
100705
100705
100664
100666
100667
100668
100671
100673
100676
100679
100681
100682
100683
100684
100684
100684
100685
100685
100684
100684
100684
100683
100682
100681
100679
100676
100673
100671
100668
100667
100666
100664
100629
100631
100632
100633
100634
100636
100639
100641
100642
100643
100644
100645
100645
100645
100645
100645
100645
100645
100645
100644
100643
100642
100641
100639
100636
100634
100633
100632
100632
100629
100599
100601
100602
100602
100602
100603
100604
100606
100607
100608
100608
100609
100609
100609
100609
100609
100609
100609
100609
100608
100608
100607
100606
100604
100603
100602
100602
100602
100601
100599
100571
100573
100574
100573
100573
100572
100573
100574
100575
100575
100575
100576
100576
100576
100576
100576
100576
100576
100576
100575
100575
100575
100574
100573
100572
100573
100573
100574
100573
100571
100545
100547
100547
100547
100546
100545
100544
100544
100544
100545
100545
100545
100545
100545
100545
100545
100545
100545
100545
100545
100545
100544
100544
100544
100545
100545
100546
100547
100546
100545
100520
100521
100522
100521
100520
100518
100517
100516
100516
100516
100516
100516
100516
100516
100516
100516
100516
100516
100516
100516
100516
100516
100516
100517
100518
100520
100521
100522
100521
100519
100495
100496
100498
100497
100495
100493
100492
100490
100490
100489
100489
100488
100488
100488
100488
100488
100488
100488
100488
100488
100489
100489
100490
100491
100493
100495
100496
100498
100496
100495
100471
100472
100474
100472
100470
100468
100467
100465
100464
100463
100462
100462
100461
100461
100461
100461
100461
100461
100462
100462
100463
100464
100465
100466
100468
100470
100472
100474
100471
100471
100448
100448
100449
100448
100446
100444
100442
100440
100439
100438
100437
100436
100436
100436
100435
100435
100436
100436
100436
100437
100438
100439
100440
100442
100444
100446
100448
100449
100447
100448
100425
100424
100424
100423
100421
100419
100417
100416
100414
100413
100412
100412
100411
100411
100411
100411
100411
100411
100411
100412
100413
100414
100415
100417
100419
100421
100423
100423
100423
100424
100401
100399
100398
100397
100396
100395
100393
100391
100390
100389
100388
100387
100387
100387
100387
100387
100387
100387
100387
100388
100389
100390
100391
100392
100394
100396
100397
100398
100398
100400
100376
100374
100373
100372
100371
100370
100368
100367
100366
100365
100364
100363
100363
100363
100363
100363
100363
100363
100363
100364
100364
100365
100366
100368
100369
100371
100372
100373
100373
100375
100350
100348
100348
100347
100346
100345
100344
100343
100342
100341
100340
100340
100339
100339
100339
100339
100339
100339
100339
100340
100340
100341
100342
100343
100344
100345
100346
100347
100347
100349
100323
100322
100322
100322
100321
100320
100319
100318
100318
100317
100316
100316
100316
100316
100316
100316
100316
100316
100316
100316
100317
100317
100318
100318
100319
100320
100321
100321
100321
100322
100295
100295
100295
100295
100295
100295
100294
100294
100293
100293
100293
100292
100292
100292
100292
100292
100292
100292
100292
100292
100293
100293
100293
100293
100294
100294
100294
100294
100294
100294
100263
100264
100265
100266
100267
100267
100267
100267
100267
100267
100267
100267
100267
100267
100267
100267
100267
100267
100267
100267
100267
100267
100266
100266
100266
100266
100265
100264
100263
100261
100227
100229
100232
100234
100235
100236
100237
100237
100238
100238
100238
100239
100239
100239
100239
100239
100238
100238
100238
100238
100238
100237
100237
100236
100236
100235
100233
100231
100228
100225
100189
100191
100196
100199
100201
100203
100204
100205
100206
100206
100207
100207
100208
100208
100208
100208
100207
100207
100207
100206
100206
100205
100204
100203
100202
100200
100198
100194
100190
100187
100154
100154
100158
100162
100164
100167
100169
100170
100171
100172
100173
100174
100174
100174
100175
100175
100174
100174
100173
100172
100171
100170
100169
100168
100166
100164
100161
100157
100153
100152
100120
100119
100121
100126
100129
100130
100133
100134
100136
100137
100138
100139
100140
100140
100141
100141
100140
100140
100138
100137
100136
100135
100133
100132
100130
100128
100126
100121
100118
100120
100090
100088
100089
100092
100095
100097
100098
100100
100101
100103
100104
100105
100106
100107
100107
100107
100107
100106
100105
100103
100102
100100
100099
100097
100096
100095
100092
100089
100088
100090
100064
100062
100062
100064
100067
100068
100068
100069
100070
100071
100072
100073
100074
100075
100076
100076
100076
100075
100074
100073
100072
100070
100069
100068
100067
100067
100065
100063
100063
100065
100043
100042
100042
100043
100045
100045
100045
100045
100045
100046
100046
100047
100047
100048
100048
100048
100048
100048
100047
100047
100047
100046
100046
100045
100045
100045
100044
100043
100043
100044
100028
100027
100027
100027
100028
100028
100028
100027
100027
100028
100028
100028
100028
100028
100028
100028
100028
100028
100028
100028
100028
100028
100028
100028
100029
100029
100029
100028
100028
100029
100017
100016
100016
100016
100016
100016
100016
100015
100015
100015
100015
100015
100015
100014
100014
100014
100014
100015
100015
100015
100015
100016
100016
100016
100017
100017
100017
100018
100017
100018
100009
100009
100009
100009
100009
100008
100008
100008
100007
100007
100007
100007
100007
100007
100007
100007
100007
100007
100007
100007
100007
100008
100008
100008
100009
100009
100010
100010
100010
100010
100005
100005
100005
100005
100005
100005
100004
100004
100004
100004
100004
100004
100004
100004
100004
100004
100004
100004
100004
100004
100004
100004
100004
100005
100005
100005
100005
100005
100005
100005
100004
100004
100004
100004
100004
100004
100004
100004
100004
100004
100004
100004
100004
100004
100004
100004
100004
100004
100004
100004
100004
100004
100004
100004
100004
100004
100004
100004
100004
100004
100004
100004
100004
100004
100004
100004
100004
100004
100003
100003
100003
100003
100003
100003
100003
100003
100003
100003
100003
100003
100003
100003
100003
100004
100004
100004
100004
100004
100004
100004
100004
100004
100004
100003
100003
100003
100003
100003
100003
100003
100003
100003
100003
100003
100003
100003
100003
100003
100003
100003
100003
100003
100003
100003
100003
100003
100004
100004
100004
100004
100003
100003
100003
100003
100003
100003
100003
100003
100003
100003
100003
100003
100003
100003
100003
100003
100003
100003
100003
100003
100003
100003
100003
100003
100003
100003
100003
100003
100003
100003
100003
100003
100003
100003
100003
100003
100003
100003
100003
100003
100003
100003
100003
100003
100003
100003
100003
100003
100003
100003
100003
100003
100003
100003
100003
100003
100003
100003
100003
100003
100003
100003
100003
100003
100003
100003
100003
100003
100003
100003
100003
100003
100003
100003
100003
100003
100003
100003
100003
100003
100003
100003
100003
100003
100003
100003
100003
100003
100003
100003
100003
100003
100003
100003
100003
100003
100003
100003
100003
100003
100003
100003
100003
100003
100003
100003
100003
100003
100003
100003
100003
100003
100003
100003
100003
100003
100003
100003
100003
100003
100003
100003
100003
100003
100003
100003
100003
100003
100003
100003
100003
100003
100003
100003
100003
100003
100003
100003
100003
100003
100003
100003
100003
100003
100003
100003
100003
100003
100003
100003
100003
100003
100003
100003
100003
100003
100003
100003
100003
100003
100003
100003
100003
100003
100003
100003
100003
100003
100003
100003
100003
100003
100003
100003
100003
100003
100003
100003
100003
100003
100003
100003
100003
100003
100003
100003
100003
100003
100003
100003
100003
100003
100003
100003
100003
100003
100003
100003
100003
100003
100003
100003
100003
100003
100003
100003
100003
100003
100003
100003
100003
100003
100003
100003
100003
100003
100003
100003
100003
100003
100003
100003
100003
100003
100003
100003
100003
100003
100003
100003
100003
100003