/*--------------------------------*- C++ -*----------------------------------*\
| =========                 |                                                 |
| \\      /  F ield         | OpenFOAM: The Open Source CFD Toolbox           |
|  \\    /   O peration     | Version:  2.3.0                                 |
|   \\  /    A nd           | Web:      www.OpenFOAM.org                      |
|    \\/     M anipulation  |                                                 |
\*---------------------------------------------------------------------------*/
FoamFile
{
    version     2.0;
    format      ascii;
    class       volScalarField;
    location    "0.082";
    object      k;
}
// * * * * * * * * * * * * * * * * * * * * * * * * * * * * * * * * * * * * * //

dimensions      [0 2 -2 0 0 0 0];

internalField   nonuniform List<scalar> 
545
(
77440.7
73744.7
67846.9
62758.6
59276.1
78939.4
73914.8
67666.3
62447.9
58694.4
81516.3
74053.1
67233.6
61803.5
57653.9
85413
73940.9
66538.9
60881.2
56063.1
91189.4
73306.2
65739.7
59892.7
53821.8
57495.8
56523
56213.1
56115
56083.5
56072.9
56068.8
56066.8
56065.4
56064.2
56063.1
56062.1
56061.1
56060.2
56059.2
56058.4
56057.5
56056.7
56055.9
56055.1
56054.4
56053.7
56053
56052.4
56051.8
56051.2
56050.6
56050.1
56049.6
56049.2
56048.7
56048.3
56048
56047.6
56047.3
56047
56046.8
56046.5
56046.3
56046.2
56046
56045.9
56045.8
56045.8
56045.8
57050.6
56386.7
56170
56101.4
56079.2
56071.5
56068.3
56066.6
56065.3
56064.1
56063.1
56062.1
56061.1
56060.1
56059.2
56058.3
56057.5
56056.6
56055.8
56055.1
56054.3
56053.6
56053
56052.3
56051.7
56051.1
56050.6
56050.1
56049.6
56049.1
56048.7
56048.3
56047.9
56047.6
56047.3
56047
56046.7
56046.5
56046.3
56046.1
56046
56045.9
56045.8
56045.7
56045.7
56402.7
56158.4
56096.7
56078.4
56072.1
56069.3
56067.6
56066.3
56065.2
56064.1
56063
56062
56061
56060.1
56059.2
56058.3
56057.4
56056.6
56055.8
56055
56054.3
56053.6
56052.9
56052.3
56051.7
56051.1
56050.6
56050
56049.6
56049.1
56048.7
56048.3
56047.9
56047.5
56047.2
56046.9
56046.7
56046.5
56046.3
56046.1
56046
56045.8
56045.8
56045.7
56045.7
55560
55892
56014.6
56053
56064.2
56066.8
56066.8
56066.1
56065.1
56064
56063
56062
56061
56060.1
56059.1
56058.3
56057.4
56056.6
56055.8
56055
56054.3
56053.6
56052.9
56052.3
56051.7
56051.1
56050.5
56050
56049.5
56049.1
56048.6
56048.2
56047.9
56047.5
56047.2
56046.9
56046.7
56046.4
56046.2
56046.1
56045.9
56045.8
56045.7
56045.7
56045.7
54577.6
55666.6
55949.5
56033.1
56058
56064.9
56066.2
56065.9
56065
56064
56063
56062
56061
56060.1
56059.1
56058.2
56057.4
56056.6
56055.8
56055
56054.3
56053.6
56052.9
56052.3
56051.7
56051.1
56050.5
56050
56049.5
56049.1
56048.6
56048.2
56047.9
56047.5
56047.2
56046.9
56046.7
56046.4
56046.2
56046.1
56045.9
56045.8
56045.7
56045.7
56045.7
54686.8
55598
55923
56024.7
56055.4
56064.1
56066
56065.8
56065
56064
56063
56062
56061
56060
56059.1
56058.2
56057.4
56056.6
56055.8
56055
56054.3
56053.6
56052.9
56052.3
56051.7
56051.1
56050.5
56050
56049.5
56049.1
56048.6
56048.2
56047.8
56047.5
56047.2
56046.9
56046.7
56046.4
56046.2
56046.1
56045.9
56045.8
56045.7
56045.7
56045.7
91189.4
73306.2
65739.7
59892.7
53821.8
85413
73940.9
66538.9
60881.1
56063.1
81516.3
74053.1
67233.6
61803.5
57653.9
78939.4
73914.8
67666.3
62447.9
58694.4
77440.7
73744.7
67846.8
62758.6
59276.1
54577.6
55666.6
55949.5
56033.1
56058
56064.9
56066.2
56065.9
56065
56064
56063
56062
56061
56060.1
56059.1
56058.2
56057.4
56056.6
56055.8
56055
56054.3
56053.6
56052.9
56052.3
56051.7
56051.1
56050.5
56050
56049.5
56049.1
56048.6
56048.2
56047.9
56047.5
56047.2
56046.9
56046.7
56046.4
56046.2
56046.1
56045.9
56045.8
56045.7
56045.7
56045.7
55560
55892
56014.6
56053
56064.2
56066.8
56066.8
56066.1
56065.1
56064
56063
56062
56061
56060.1
56059.1
56058.3
56057.4
56056.6
56055.8
56055
56054.3
56053.6
56052.9
56052.3
56051.7
56051.1
56050.5
56050
56049.5
56049.1
56048.6
56048.2
56047.9
56047.5
56047.2
56046.9
56046.7
56046.4
56046.2
56046.1
56045.9
56045.8
56045.7
56045.7
56045.7
56402.7
56158.4
56096.7
56078.4
56072.1
56069.3
56067.6
56066.3
56065.2
56064.1
56063
56062
56061
56060.1
56059.2
56058.3
56057.4
56056.6
56055.8
56055
56054.3
56053.6
56052.9
56052.3
56051.7
56051.1
56050.6
56050
56049.6
56049.1
56048.7
56048.3
56047.9
56047.5
56047.2
56046.9
56046.7
56046.5
56046.3
56046.1
56046
56045.9
56045.8
56045.7
56045.7
57050.5
56386.7
56170
56101.4
56079.2
56071.5
56068.3
56066.6
56065.3
56064.1
56063.1
56062.1
56061.1
56060.1
56059.2
56058.3
56057.5
56056.6
56055.8
56055.1
56054.3
56053.6
56053
56052.3
56051.7
56051.1
56050.6
56050.1
56049.6
56049.1
56048.7
56048.3
56047.9
56047.6
56047.3
56047
56046.7
56046.5
56046.3
56046.1
56046
56045.9
56045.8
56045.7
56045.7
57495.8
56523
56213.1
56114.9
56083.5
56072.9
56068.8
56066.7
56065.4
56064.2
56063.1
56062.1
56061.1
56060.2
56059.2
56058.4
56057.5
56056.7
56055.9
56055.1
56054.4
56053.7
56053
56052.4
56051.8
56051.2
56050.6
56050.1
56049.6
56049.2
56048.7
56048.3
56048
56047.6
56047.3
56047
56046.8
56046.5
56046.3
56046.2
56046
56045.9
56045.8
56045.8
56045.8
)
;

boundaryField
{
    AirInlet
    {
        type            fixedValue;
        value           uniform 0.1;
    }
    WaterInlet
    {
        type            fixedValue;
        value           uniform 0.1;
    }
    ChannelWall
    {
        type            fixedValue;
        value           uniform 0.1;
    }
    Outlet
    {
        type            inletOutlet;
        inletValue      uniform 0.1;
        value           nonuniform List<scalar> 
11
(
56045.8
56045.7
56045.7
56045.7
56045.7
56045.7
56045.7
56045.7
56045.7
56045.7
56045.8
)
;
    }
    FrontAndBack
    {
        type            empty;
    }
}


// ************************************************************************* //
