/*--------------------------------*- C++ -*----------------------------------*\
| =========                 |                                                 |
| \\      /  F ield         | OpenFOAM: The Open Source CFD Toolbox           |
|  \\    /   O peration     | Version:  2.3.0                                 |
|   \\  /    A nd           | Web:      www.OpenFOAM.org                      |
|    \\/     M anipulation  |                                                 |
\*---------------------------------------------------------------------------*/
FoamFile
{
    version     2.0;
    format      ascii;
    class       volScalarField;
    location    "0.082";
    object      p_rgh;
}
// * * * * * * * * * * * * * * * * * * * * * * * * * * * * * * * * * * * * * //

dimensions      [1 -1 -2 0 0 0 0];

internalField   nonuniform List<scalar> 
545
(
-9.48221e+07
-1.7608e+07
-2.51108e+06
-3.24224e+06
-1.03313e+07
6.7942e+07
-3.71236e+06
-2.93504e+06
-3.12757e+06
-8.42318e+06
1.18262e+08
4.09477e+06
-596563
-662256
-8.82781e+06
6.85388e+07
-3.92421e+06
-2.37169e+06
-319590
-7.86351e+06
-1.09084e+08
-2.9342e+06
-703538
4.85185e+06
1.38422e+07
-8.7427e+06
-2.22866e+06
-896219
-77245
60853.8
70251.4
45918
32289.4
27239.1
24090.4
24442.8
23311.6
24449.6
22762.8
22834.2
20279.7
20698
18586.8
19378.7
17422
18516.3
16934.2
18669.8
17271.4
18594.2
15975.7
16347.4
13447.1
14163.6
12119.1
13801.3
12026.1
13450.4
10864
11678.8
8635.44
9299.06
6658.11
7741.7
5548.43
7086.81
4770.17
6489.64
4806.04
7226.02
-7.78522e+06
-1.40992e+06
-850534
-221197
-63196.7
6627.98
18928.5
23305
23647.5
23729.8
23664.4
23897.1
23597.7
23174.9
21998
20902.7
19868.2
19349.1
18594.8
18247.7
17711.6
17863.6
17904.1
18214.4
17665.7
16815.6
15313.2
14311.5
13131.3
13088.3
12836.3
13078.4
12454.4
11890.6
10592.7
9672.08
8197.07
7712.87
6699.16
6595.11
5945.13
5702.91
5046.64
4497.73
1046.15
-9.24318e+06
-698756
-479719
-57218.6
-15408.9
16085.7
17856.9
20949.9
22770.4
22869.6
23832
23345.9
23626.3
22340.3
22200.1
20405.5
20335.7
18966.4
19201.5
17922.3
18358.8
17546.9
18564.7
17719.3
18141.4
16142
15792.7
13756.8
13691.9
12552.8
13437.5
12510.9
13057.7
11268.6
11206.8
9072.19
8807
7182.91
7336.46
5946.74
6445.22
4919.95
5215.93
3772.7
4431.33
-9.81352e+06
699599
239262
226119
79566.5
43871.8
22805
21316.3
21913.6
22933.1
23118.2
23381.2
22689.6
22346.5
21414.9
20867.4
19872.3
19636.8
18800
18772.3
18011.4
18396.7
18043.2
18330.3
17352.4
16679.1
15042
14536.1
12948.5
13341.1
12700.8
13255.6
12267.3
12029.2
10429.8
9962.01
7984
8161.87
6482.43
6734.92
5564.74
5439.03
4105.5
2977.16
-1311.93
-1.80641e+06
3.84315e+06
1.37957e+06
450224
106035
37961.7
19332.5
19518.1
21538
22098.8
23217.6
22321.8
22783.1
21461.8
21723.1
20203.4
20591.4
19117.3
19619.7
18492.5
18959.3
18010.5
18825.8
17500.8
17920.1
15789.5
15680.1
14056.1
13548.4
12831.3
13455.6
12531.7
12988.4
11096.2
11084
9398.76
8519.55
7842.47
6971.48
6189.71
6311.27
4614.46
4484.59
2550.66
3114.52
-1.4648e+07
5.86645e+06
2.22834e+06
574779
109542
29014.7
13878.6
17743.7
20828
25283.4
25581.9
26964.3
25164.4
24567.2
21090.8
21431.7
23602.9
24631.7
21960.5
22351.5
21508.6
21007.3
18211
19149.6
20524.2
21086.2
18257.9
16698.9
17634.3
16940.1
13361.7
13415.3
12106.7
12381.7
14251.3
15586.6
14743
11438.8
12891.4
11854.4
9552.51
5924.63
3660.85
2601.44
-1183.08
-1.0909e+08
-2.94033e+06
-707606
4.84988e+06
1.38404e+07
6.85324e+07
-3.93046e+06
-2.37597e+06
-321908
-7.86522e+06
1.18255e+08
4.08839e+06
-601031
-664978
-8.82961e+06
6.79352e+07
-3.71874e+06
-2.93985e+06
-3.13096e+06
-8.42522e+06
-9.4829e+07
-1.76145e+07
-2.51619e+06
-3.24617e+06
-1.03333e+07
-1.80728e+06
3.84332e+06
1.37866e+06
449781
105157
37791.3
18509.8
19190.8
20562.6
21926.3
22357
21962.1
21964.8
21425.9
21141
20477.2
20415.4
19681.9
19731.1
19316.3
19146.9
18626.3
18573.4
17681.7
17455.9
15956.4
15368.9
14384.5
13365.4
13242.4
13292
12888.7
12664.5
11314.4
10775.9
9670.99
8361.82
8197.12
6779.84
6458.74
6063.33
4857.77
4161.71
2830.43
2864.92
-9.81474e+06
699224
237884
224931
78277.1
43020.4
21501.1
20157.4
20511.4
22155
21840.6
22217.1
21450.6
21716.2
20661.8
20926.3
19976.2
20359.5
19485.1
20009.9
18854.2
19215.7
18017.1
18248.8
16810.4
16565
14806.9
14790
13010.3
13785.5
12794.1
13517.1
12034.7
12044
10181.1
10151.1
8039.14
8528.3
6478.64
6922.55
5422.31
5524.09
3868.29
3099.91
-1456
-9.24451e+06
-699685
-481542
-58986.3
-17012.5
14615.3
16052.5
19082.5
21084.7
21630.5
22298.5
21610.7
21996.8
21083.5
21240.8
20271.8
20680.9
19828.9
20363.5
19466.6
19725.7
18549.6
18770.6
17443.8
17528.4
15752.2
15595.4
13947
13993
13046.5
13745.1
12676
12882.7
11099.2
11008.6
9175.93
9033.51
7557.09
7519.03
6063.91
6364.9
4856.11
5051.38
3758.14
4367.28
-7.78663e+06
-1.4114e+06
-852499
-223108
-65008.1
4732.45
16667.5
21025.7
21760.1
22205.4
22006.2
21923.8
21601.4
21401.5
20807.6
20641.3
20310.1
20352
20056.4
20000.2
19362.1
19044.8
18296
17891.6
16968
16223.5
15061.8
14479.3
13589.5
13675.6
13266.9
13204.5
12269.8
11605.2
10383.9
9726.54
8495.88
8128.17
7006.9
6701.2
5857.69
5565
4903.29
4419.07
1002.92
-8.74403e+06
-2.23051e+06
-898172
-79194.9
58923.3
68157.4
43476.9
29844.8
25257.2
22438.5
22754.2
21276.6
22233.7
20694.4
21506.8
19945.5
21152.2
19656.5
20951.3
19237.4
20250.3
18210.5
19185.9
16992.4
17869.8
15281.1
16027.4
13596.1
14687.9
12765.4
14278.5
12139.5
13248
10532.6
11450.1
8663.38
9602.82
7100.57
8116.91
5673.15
6985.11
4590.38
6341.18
4670.12
7130.82
)
;

boundaryField
{
    AirInlet
    {
        type            fixedFluxPressure;
        gradient        uniform 2.31274e+08;
        value           uniform -1.46457e+07;
    }
    WaterInlet
    {
        type            fixedFluxPressure;
        gradient        nonuniform List<scalar> 10(0 -0.0454676 0 0 0 0 -0.249979 -0.0944956 -0.181871 -0.324923);
        value           nonuniform List<scalar> 10(-9.48221e+07 6.7942e+07 1.18262e+08 6.85388e+07 -1.09084e+08 -1.0909e+08 6.85324e+07 1.18255e+08 6.79352e+07 -9.4829e+07);
    }
    ChannelWall
    {
        type            fixedFluxPressure;
        gradient        uniform 0;
        value           nonuniform List<scalar> 
110
(
-1.09084e+08
-2.9342e+06
-703538
4.85185e+06
1.38422e+07
-1.0909e+08
-2.94033e+06
-707606
4.84988e+06
1.38404e+07
-9.4829e+07
-1.76145e+07
-2.51619e+06
-3.24617e+06
-1.03333e+07
-8.74403e+06
-2.23051e+06
-898172
-79194.9
58923.3
68157.4
43476.9
29844.8
25257.2
22438.5
22754.2
21276.6
22233.7
20694.4
21506.8
19945.5
21152.2
19656.5
20951.3
19237.4
20250.3
18210.5
19185.9
16992.4
17869.8
15281.1
16027.4
13596.1
14687.9
12765.4
14278.5
12139.5
13248
10532.6
11450.1
8663.38
9602.82
7100.57
8116.91
5673.15
6985.11
4590.38
6341.18
4670.12
7130.82
-9.48221e+07
-1.7608e+07
-2.51108e+06
-3.24224e+06
-1.03313e+07
-8.7427e+06
-2.22866e+06
-896219
-77245
60853.8
70251.4
45918
32289.4
27239.1
24090.4
24442.8
23311.6
24449.6
22762.8
22834.2
20279.7
20698
18586.8
19378.7
17422
18516.3
16934.2
18669.8
17271.4
18594.2
15975.7
16347.4
13447.1
14163.6
12119.1
13801.3
12026.1
13450.4
10864
11678.8
8635.44
9299.06
6658.11
7741.7
5548.43
7086.81
4770.17
6489.64
4806.04
7226.02
)
;
    }
    Outlet
    {
        type            totalPressure;
        rho             rho;
        psi             none;
        gamma           1;
        p0              uniform 0;
        value           uniform 0;
    }
    FrontAndBack
    {
        type            empty;
    }
}


// ************************************************************************* //
