/*--------------------------------*- C++ -*----------------------------------*\
| =========                 |                                                 |
| \\      /  F ield         | OpenFOAM: The Open Source CFD Toolbox           |
|  \\    /   O peration     | Version:  2.3.0                                 |
|   \\  /    A nd           | Web:      www.OpenFOAM.org                      |
|    \\/     M anipulation  |                                                 |
\*---------------------------------------------------------------------------*/
FoamFile
{
    version     2.0;
    format      ascii;
    class       volScalarField;
    location    "0.16";
    object      nut.air;
}
// * * * * * * * * * * * * * * * * * * * * * * * * * * * * * * * * * * * * * //

dimensions      [0 2 -1 0 0 0 0];

internalField   nonuniform List<scalar> 
6000
(
0.000506584
0.00434261
0.00736992
0.00833805
0.00871895
0.00889717
0.00898613
0.009028
0.00904623
0.00905514
0.00906069
0.009065
0.00906829
0.00907054
0.00907168
0.00907163
0.00907041
0.00906808
0.0090647
0.00906038
0.00905474
0.00904567
0.00902746
0.00898566
0.00889677
0.00871875
0.00833803
0.0073699
0.00434288
0.000506615
0.000431617
0.0030225
0.00582953
0.00756143
0.00842316
0.00888347
0.00913035
0.00925626
0.00931942
0.00935415
0.00937438
0.0093874
0.00939571
0.00940075
0.00940327
0.00940313
0.0094005
0.0093954
0.00938678
0.00937392
0.0093533
0.00931855
0.00925532
0.00912926
0.00888267
0.00842252
0.00756136
0.0058299
0.00302272
0.000431785
0.000387489
0.00260113
0.00508202
0.00685031
0.00791929
0.00855886
0.00893678
0.00915272
0.0092723
0.00933764
0.00937146
0.00938791
0.00939547
0.00939886
0.00940014
0.00940008
0.00939868
0.00939522
0.00938748
0.00937093
0.0093369
0.0092714
0.00915163
0.00893542
0.00855747
0.00791801
0.00684927
0.00508166
0.00260154
0.000387711
0.000362885
0.00224087
0.00445102
0.00616625
0.00739391
0.00819087
0.00869557
0.00900706
0.00920385
0.00932357
0.00939266
0.00943032
0.00944981
0.00945916
0.00946278
0.00946273
0.00945896
0.00944943
0.00942975
0.00939187
0.00932254
0.00920239
0.0090053
0.00869386
0.00818885
0.00739123
0.00616273
0.00444737
0.00223778
0.000363024
0.000324056
0.0017694
0.00384181
0.00554393
0.00682254
0.00772469
0.00834171
0.00876578
0.00905899
0.00925336
0.00937729
0.0094528
0.00949791
0.00952186
0.00953185
0.00953175
0.00952156
0.00949725
0.00945185
0.00937608
0.00925182
0.00905697
0.00876324
0.00833865
0.00772104
0.00681782
0.00553813
0.0038341
0.00176128
0.000324022
0.000283409
0.0015722
0.00336608
0.00490489
0.00615967
0.00712005
0.00783422
0.0083754
0.0087836
0.00908145
0.0092795
0.00940321
0.009476
0.00951557
0.00953257
0.00953238
0.00951497
0.00947489
0.00940163
0.00927737
0.00907886
0.00878013
0.0083712
0.00783011
0.00711491
0.00615144
0.00489452
0.00335301
0.00155966
0.000283063
0.000252652
0.00144453
0.0030245
0.00442815
0.00560848
0.0065922
0.00738331
0.0080069
0.00848589
0.00884289
0.0091001
0.00927067
0.00937416
0.00943177
0.00945759
0.00945721
0.00943063
0.00937222
0.00926756
0.00909577
0.00883714
0.00847921
0.0079995
0.00737465
0.00658177
0.00559695
0.00441315
0.00300686
0.00142692
0.000251822
0.000223815
0.00127226
0.00275009
0.00407007
0.0052158
0.00618852
0.00701383
0.0076923
0.00822544
0.00862847
0.00892049
0.00912071
0.00924932
0.0093238
0.00935746
0.00935678
0.00932172
0.00924578
0.00911567
0.0089138
0.00862021
0.00821599
0.00768178
0.00700218
0.00617718
0.0052013
0.00405252
0.00273087
0.00125341
0.000222419
0.000194417
0.00112063
0.00257983
0.00386396
0.00498096
0.00592669
0.00674352
0.00743839
0.00799813
0.00842953
0.00874798
0.00897171
0.00911951
0.00920742
0.00924764
0.00924664
0.0092045
0.0091145
0.00896487
0.00873921
0.00841905
0.00798632
0.00742591
0.00673128
0.00591503
0.00496831
0.00384967
0.00256541
0.00110776
0.000192775
0.00017534
0.00113786
0.00257999
0.00382939
0.00490978
0.00580319
0.00657281
0.00724934
0.00780626
0.00824863
0.00858191
0.00882092
0.00898181
0.0090795
0.00912467
0.00912346
0.00907581
0.00897574
0.00881261
0.00857154
0.0082365
0.00779317
0.00723566
0.00656117
0.00579434
0.00490328
0.00382362
0.00257448
0.00113351
0.000174287
0.000173172
0.00132072
0.00273617
0.00394644
0.00497395
0.00579868
0.00648757
0.00711744
0.00765241
0.00808853
0.00842461
0.00867007
0.00883819
0.00894186
0.00899042
0.008989
0.00893772
0.00883136
0.00866089
0.0084133
0.00807564
0.00763858
0.0071041
0.00647707
0.00579249
0.0049726
0.00394721
0.00273558
0.00131999
0.00017341
0.000179867
0.00154359
0.00296973
0.00415287
0.00511813
0.00586936
0.00647089
0.00703291
0.00753258
0.00794762
0.00827605
0.00852031
0.00869047
0.00879707
0.0088476
0.00884616
0.00879272
0.00868337
0.00851083
0.00826459
0.00793463
0.00751897
0.00701994
0.0064611
0.00586378
0.00511547
0.00415121
0.0029647
0.00154072
0.000181641
0.000188012
0.00173498
0.00320262
0.00436987
0.00528262
0.00597239
0.00649975
0.00698624
0.00743777
0.00782272
0.00813483
0.0083726
0.00854193
0.00864989
0.00870174
0.00870032
0.00864568
0.00853504
0.00836339
0.00812368
0.00781018
0.00742442
0.00697256
0.00648802
0.00596216
0.00527117
0.0043562
0.00318985
0.00173623
0.000189908
0.000194174
0.0018517
0.00339124
0.00455073
0.00542758
0.00607653
0.00655179
0.00696651
0.00736186
0.00771121
0.00800258
0.00823152
0.00839871
0.00850716
0.00855982
0.00855852
0.00850328
0.0083924
0.00822304
0.00799218
0.00769908
0.00734795
0.00695034
0.00653471
0.00605689
0.00540435
0.00452307
0.00337079
0.00185067
0.000193613
0.000197505
0.00190947
0.00350871
0.00467995
0.00553636
0.0061633
0.00660506
0.00696549
0.00730475
0.0076165
0.00788587
0.00810394
0.00826676
0.00837397
0.00842653
0.00842535
0.00837048
0.00826111
0.0080963
0.00787631
0.00760475
0.00728999
0.00694666
0.00658191
0.00613442
0.00550328
0.00464491
0.00348927
0.0019148
0.000194109
0.000199743
0.00192796
0.00356204
0.00475228
0.00560405
0.00622142
0.00664624
0.00697219
0.00726644
0.00754212
0.00778809
0.00799232
0.00814769
0.00825135
0.00830261
0.00830154
0.0082482
0.00814261
0.00798545
0.00777941
0.00753114
0.0072519
0.00695252
0.00662026
0.00618658
0.00556737
0.00471845
0.0035494
0.00193477
0.000195912
0.000200533
0.0019316
0.00357582
0.00477406
0.0056302
0.00624317
0.00666656
0.00697437
0.00723785
0.00748311
0.00770566
0.00789412
0.00803984
0.00813822
0.00818724
0.00818625
0.00813533
0.00803525
0.00788806
0.00769823
0.0074739
0.00722567
0.00695733
0.00664237
0.00620699
0.00559512
0.0047458
0.00356173
0.00193095
0.00019884
0.000201107
0.00192316
0.00355615
0.00475466
0.0056154
0.00622838
0.00666012
0.00696162
0.0072083
0.00743117
0.00763315
0.00780599
0.0079413
0.00803358
0.00807987
0.00807897
0.00803099
0.00793729
0.00780097
0.00762752
0.00742493
0.00720065
0.0069504
0.00664218
0.00619701
0.00558421
0.00473275
0.00353742
0.00191441
0.000197928
0.000204358
0.00191974
0.00351931
0.00470284
0.0055632
0.00618066
0.00662357
0.00692926
0.0071709
0.00738006
0.00756636
0.0077256
0.00785098
0.00793706
0.00798045
0.00797966
0.00793482
0.00784766
0.00772184
0.00756294
0.00737756
0.00716901
0.00692559
0.00661411
0.00615875
0.0055425
0.0046898
0.00349409
0.0018835
0.000195011
0.000204678
0.00190064
0.00346612
0.00462503
0.00548027
0.00610403
0.00655689
0.00687579
0.00712181
0.00732592
0.00750227
0.00765111
0.00776799
0.00784834
0.00788893
0.00788826
0.00784646
0.00776541
0.00764867
0.00750107
0.00732704
0.00712547
0.00687976
0.00655654
0.00609641
0.00547576
0.00462208
0.0034413
0.00186463
0.000195404
0.000200211
0.00181641
0.00337268
0.00452059
0.00537177
0.0060031
0.00646449
0.00680225
0.00705946
0.00726616
0.00743854
0.00758078
0.00769123
0.00776681
0.00780493
0.00780437
0.00776527
0.0076893
0.00757939
0.00743899
0.00726984
0.00706698
0.00681211
0.006474
0.00601025
0.00538396
0.0045326
0.00337998
0.00184638
0.000197291
0.000191486
0.00172043
0.00324836
0.00439185
0.00524531
0.00588239
0.00635521
0.00671192
0.00698452
0.00719948
0.00737321
0.00751278
0.00761927
0.00769142
0.00772761
0.00772713
0.00769007
0.00761765
0.00751183
0.00737423
0.00720383
0.00699298
0.00672403
0.0063703
0.00590135
0.00526919
0.0044222
0.00329456
0.00179207
0.000196127
0.000183436
0.00162878
0.00311826
0.00425541
0.00511113
0.00575288
0.00623715
0.00661101
0.00689988
0.00712603
0.007305
0.00744533
0.00755037
0.00762065
0.00765563
0.00765515
0.00761929
0.00754866
0.00744404
0.00730519
0.00712879
0.00690594
0.00662084
0.00625157
0.0057735
0.00513512
0.00428733
0.00316942
0.00169383
0.000191441
0.000175787
0.00150026
0.00298546
0.00411656
0.0049746
0.00562295
0.00611698
0.00650504
0.006809
0.00704695
0.00723329
0.00737698
0.00748283
0.00755278
0.00758729
0.00758675
0.00755117
0.00748057
0.00737463
0.00723154
0.00704649
0.00681048
0.00650969
0.00612615
0.00563847
0.0049935
0.00414422
0.00303651
0.0016024
0.000185558
0.000168414
0.00139205
0.00285614
0.00397246
0.00483504
0.0054952
0.00599846
0.00639768
0.00671469
0.00696377
0.00715821
0.0073068
0.00741505
0.00748588
0.00752054
0.00751987
0.00748384
0.00741195
0.00730301
0.00715417
0.00696006
0.00671212
0.00639819
0.00600373
0.00550776
0.00485709
0.00401069
0.0029202
0.00152985
0.000179075
0.000163621
0.00133017
0.00274706
0.0038376
0.00469465
0.00537098
0.00588464
0.00629251
0.00661973
0.00687853
0.00708061
0.00723452
0.00734598
0.00741846
0.00745367
0.00745285
0.00741594
0.00734199
0.00722934
0.00707466
0.00687246
0.00661493
0.00629133
0.00588953
0.00538621
0.00472908
0.00388652
0.0028013
0.00141786
0.000171519
0.000162908
0.00132732
0.00267038
0.0037157
0.00456441
0.00525226
0.00577747
0.00619201
0.0065268
0.0067933
0.00700183
0.00716068
0.00727551
0.00734997
0.00738601
0.00738505
0.00734698
0.00727073
0.00715439
0.00699452
0.00678582
0.0065209
0.00619067
0.00578423
0.00527364
0.00460734
0.00377325
0.00270843
0.00131721
0.000166189
0.000163703
0.00136248
0.00262766
0.00361939
0.00445404
0.0051416
0.00567677
0.00609719
0.00643718
0.00670943
0.00692319
0.0070863
0.00720427
0.00728071
0.00731765
0.00731653
0.00727728
0.00719874
0.00707898
0.0069146
0.0067006
0.00643012
0.00609517
0.0056846
0.00516511
0.00448772
0.00366664
0.0026278
0.00129379
0.000163806
0.000165145
0.00140646
0.00259889
0.00354939
0.00436163
0.00503925
0.00558174
0.00600782
0.00635138
0.00662779
0.0068456
0.00701224
0.00713295
0.00721122
0.007249
0.00724773
0.00720728
0.00712656
0.00700363
0.00683523
0.00661658
0.00634131
0.00600161
0.00558404
0.00505191
0.00437304
0.00355671
0.00256506
0.00129489
0.000162976
0.000166346
0.00142221
0.002593
0.00350694
0.00428809
0.00495109
0.00549337
0.00592366
0.00626972
0.00654899
0.00676986
0.0069393
0.0070623
0.00714212
0.00718063
0.00717916
0.00713758
0.00705478
0.00692887
0.00675665
0.00653335
0.0062529
0.00590651
0.00547763
0.00493056
0.00424988
0.0034548
0.00250879
0.00129557
0.000163005
0.00016787
0.00142196
0.00259287
0.0034924
0.00424016
0.00488145
0.0054147
0.00584555
0.00619285
0.00647373
0.00669679
0.00686842
0.00699326
0.00707436
0.00711346
0.00711175
0.00706905
0.00698426
0.00685542
0.00667928
0.00645102
0.00616434
0.00580899
0.00536701
0.00481183
0.00413706
0.00336489
0.00246303
0.00130177
0.000163907
0.000171122
0.00143404
0.00260343
0.00350464
0.00422212
0.00483258
0.00534916
0.00577506
0.00612158
0.00640272
0.00662713
0.00680043
0.00692677
0.00700894
0.0070485
0.00704651
0.0070027
0.00691591
0.0067841
0.00660389
0.00637038
0.00607658
0.00571148
0.00525835
0.00470062
0.00403606
0.00328693
0.00242398
0.00130986
0.000164568
0.000182626
0.00146757
0.00263485
0.00353712
0.00422747
0.0048012
0.0052958
0.00571251
0.00605598
0.00633634
0.00656133
0.00673587
0.00686347
0.00694657
0.00698652
0.00698421
0.00693928
0.0068505
0.00671573
0.00653145
0.00629266
0.00599185
0.00561818
0.00515818
0.00460166
0.00395082
0.00322294
0.00239178
0.00130455
0.000163788
0.000190249
0.00149716
0.00265927
0.00355268
0.00424407
0.00479039
0.00525577
0.00565664
0.00599507
0.00627414
0.00649939
0.00667495
0.00680368
0.00688762
0.00692791
0.00692529
0.00687929
0.00678863
0.00665107
0.00646304
0.00621949
0.00591285
0.00553329
0.00507079
0.0045194
0.00388409
0.00317339
0.0023631
0.00128904
0.000161096
0.000189049
0.0015014
0.00265659
0.00354378
0.00423144
0.00476745
0.00521537
0.00560137
0.00593619
0.00621491
0.00644102
0.00661773
0.00674759
0.00683234
0.00687297
0.00687007
0.00682313
0.00673081
0.00659084
0.00639968
0.00615232
0.00584165
0.00545944
0.00499824
0.00445548
0.00383718
0.00314252
0.00234509
0.0012915
0.000160337
0.000184473
0.00146672
0.00260588
0.00347196
0.00416121
0.00470979
0.00515473
0.00554322
0.00587707
0.0061577
0.0063859
0.00656433
0.00669546
0.00678103
0.00682201
0.00681891
0.0067712
0.00667753
0.00653563
0.00634207
0.00609205
0.0057792
0.00539691
0.00493967
0.00440688
0.00380433
0.00313268
0.00235755
0.0013185
0.000162903
0.000181469
0.00140817
0.00251325
0.00335955
0.00406293
0.00463379
0.00509091
0.00548225
0.00581887
0.00610318
0.00633444
0.00651504
0.00664758
0.00673401
0.00677536
0.00677213
0.00672381
0.0066291
0.00648578
0.00629056
0.00603894
0.00572537
0.00534443
0.0048921
0.00436892
0.00378815
0.00313724
0.00238244
0.00137658
0.000172081
0.000181736
0.00134673
0.00236785
0.00320951
0.00394444
0.00455487
0.00502498
0.00541804
0.00576395
0.00605329
0.00628775
0.00647042
0.00660431
0.00669152
0.00673322
0.00672993
0.00668118
0.00658571
0.00644141
0.00624516
0.00599279
0.00567941
0.00530035
0.00485258
0.00433772
0.0037655
0.0031398
0.00240247
0.00139604
0.000175938
0.000181788
0.00126176
0.00219586
0.003076
0.0038446
0.00446235
0.00495961
0.00536911
0.00571888
0.00601074
0.006247
0.00643105
0.00656591
0.00665373
0.00669572
0.00669242
0.00664336
0.00654738
0.00640248
0.00620571
0.0059532
0.00564048
0.00526316
0.00481825
0.00430735
0.00374372
0.00313144
0.00238658
0.00136123
0.000173058
0.000178104
0.00113714
0.00205951
0.00300454
0.00377679
0.00439907
0.0049127
0.00533154
0.00568318
0.00597563
0.00621238
0.00639702
0.00653238
0.00662058
0.00666277
0.00665946
0.00661024
0.00651399
0.00636884
0.00617198
0.00591978
0.00560801
0.00523242
0.00478989
0.00428294
0.00372359
0.00311435
0.00235786
0.00128911
0.000165696
0.000166489
0.000911934
0.0019867
0.00297163
0.00373552
0.00435349
0.004878
0.0053013
0.00565388
0.00594624
0.006183
0.00636777
0.00650335
0.00659175
0.00663406
0.00663078
0.00658154
0.00648526
0.00634015
0.00614358
0.00589206
0.00558156
0.00520774
0.00476727
0.00426296
0.00370782
0.00308798
0.00229476
0.00116478
0.000158974
0.000156003
0.000817962
0.00199535
0.00297409
0.00369607
0.0043177
0.00484842
0.00527395
0.00562773
0.00592044
0.00615741
0.00634237
0.00647816
0.00656673
0.00660917
0.006606
0.00655687
0.00646075
0.00631593
0.00611991
0.00586939
0.00556042
0.00518866
0.00475054
0.00424764
0.0036878
0.00304996
0.00224578
0.00110318
0.000157031
0.000154127
0.000884019
0.0020437
0.00296255
0.00366437
0.00428584
0.00481872
0.0052464
0.00560235
0.00589643
0.00613426
0.00631981
0.00645603
0.00654491
0.00658759
0.00658463
0.00653571
0.00643988
0.0062955
0.00610018
0.00585074
0.00554329
0.00517348
0.0047375
0.00423579
0.00366545
0.00300583
0.00219114
0.00110335
0.00015768
0.000156801
0.00103175
0.00210417
0.00295067
0.00363451
0.00425238
0.00478562
0.00521735
0.00557656
0.00587307
0.00611255
0.00629924
0.00643624
0.00652566
0.00656875
0.0065661
0.0065175
0.00642202
0.00627811
0.00608345
0.00583492
0.00552861
0.00515991
0.00472424
0.00421905
0.0036343
0.00296317
0.00217185
0.00114932
0.000159036
0.000162642
0.00114889
0.00215228
0.00294147
0.00360266
0.00421535
0.00474885
0.00518638
0.00554993
0.00584976
0.00609164
0.00628003
0.00641822
0.00650848
0.00655217
0.00654994
0.00650168
0.00640653
0.006263
0.00606881
0.00582083
0.00551496
0.00514613
0.00470859
0.00419666
0.00359947
0.00291718
0.00216193
0.00119127
0.000160948
0.000166384
0.00123118
0.00217974
0.00292182
0.00357401
0.00417853
0.00470907
0.00515314
0.00552217
0.00582622
0.0060712
0.00626183
0.00640162
0.00649299
0.00653747
0.00653576
0.00648785
0.00639294
0.00624961
0.00605558
0.00580764
0.00550146
0.00513144
0.00469084
0.00417282
0.00357145
0.00289664
0.00216569
0.0012305
0.000164184
0.000167567
0.00128397
0.0021958
0.00289269
0.00352907
0.0041321
0.0046658
0.00511788
0.00549359
0.0058026
0.00605126
0.00624457
0.00638628
0.00647901
0.00652439
0.00652326
0.0064757
0.00638093
0.00623756
0.00604332
0.00579491
0.00548779
0.00511599
0.00467247
0.00415143
0.00355245
0.0028902
0.0021817
0.00127806
0.000167419
0.000167106
0.00130121
0.00220457
0.00286421
0.00348693
0.00408629
0.0046235
0.00508273
0.00546535
0.0057796
0.00603222
0.00622843
0.00637221
0.00646638
0.00651274
0.00651222
0.006465
0.00637029
0.00622673
0.00603196
0.00578266
0.0054742
0.00510056
0.00465519
0.00413403
0.00354065
0.00289381
0.00220293
0.00133664
0.000169701
0.000165461
0.00129139
0.00220085
0.00284222
0.00344997
0.00404621
0.00458559
0.00505029
0.00543902
0.00575822
0.00601461
0.00621361
0.00635941
0.00645501
0.00650234
0.00650242
0.0064555
0.00636082
0.00621697
0.00602156
0.00577118
0.00546128
0.0050861
0.00464001
0.00412049
0.00353379
0.00290258
0.0022217
0.00136111
0.000171565
0.000163308
0.00125899
0.00218385
0.00282736
0.0034266
0.00401529
0.00455402
0.00502275
0.00541612
0.00573933
0.0059989
0.00620033
0.00634795
0.00644485
0.00649308
0.00649372
0.00644707
0.00635234
0.00620816
0.0060121
0.00576072
0.00544954
0.00507327
0.00462724
0.00411043
0.00353088
0.00291092
0.00222876
0.00135754
0.000172936
0.000160431
0.00121866
0.00216187
0.00281569
0.00340807
0.00399163
0.00453156
0.00500189
0.00539777
0.0057236
0.00598547
0.00618879
0.00633789
0.00643591
0.00648491
0.00648602
0.00643958
0.00634479
0.00620028
0.00600361
0.00575137
0.00543925
0.0050623
0.0046167
0.00410218
0.00352623
0.00291179
0.00222825
0.0013423
0.0001729
0.000157871
0.00116454
0.00212685
0.00279774
0.00339765
0.00398166
0.00451924
0.00498821
0.0053844
0.00571134
0.00597451
0.00617911
0.00632929
0.00642816
0.00647777
0.00647925
0.00643296
0.00633809
0.00619328
0.00599612
0.00574323
0.00543044
0.00505309
0.00460761
0.00409363
0.00351879
0.00290547
0.00221492
0.00131964
0.000171455
0.000156988
0.00111463
0.00209368
0.00278316
0.00340164
0.00398216
0.00451479
0.0049807
0.0053756
0.00570239
0.00596598
0.00617126
0.00632212
0.00642156
0.00647159
0.00647333
0.00642714
0.00633218
0.0061871
0.00598954
0.00573623
0.00542299
0.00504537
0.00459994
0.004086
0.00351144
0.00289208
0.00219435
0.00129475
0.000168962
0.000157343
0.00107187
0.00205048
0.00275791
0.00340094
0.00398583
0.00451507
0.00497765
0.00537048
0.00569629
0.00595965
0.00616509
0.00631625
0.00641601
0.0064663
0.00646818
0.00642203
0.00632696
0.00618166
0.00598377
0.00573017
0.00541664
0.00503865
0.0045925
0.00407705
0.00349965
0.0028725
0.00216301
0.00126143
0.000166376
0.000158755
0.00105463
0.00201528
0.0027306
0.00339528
0.0039895
0.00451753
0.00497732
0.00536794
0.00569242
0.00595518
0.00616036
0.00631153
0.00641139
0.00646178
0.00646372
0.00641755
0.00632237
0.00617687
0.00597872
0.00572485
0.00541118
0.00503305
0.00458626
0.00406917
0.00348712
0.00284782
0.00213428
0.0012238
0.000165438
0.000160689
0.00105895
0.0019938
0.00271178
0.00338844
0.00399159
0.00452043
0.00497827
0.00536693
0.00569005
0.00595198
0.00615669
0.00630771
0.00640753
0.00645792
0.00645983
0.00641359
0.00631828
0.0061726
0.00597427
0.00572011
0.00540617
0.0050277
0.0045802
0.00406131
0.00347317
0.00282472
0.00209394
0.00118476
0.000165322
0.000163592
0.001108
0.00199197
0.00270323
0.0033823
0.00399169
0.0045225
0.00497929
0.0053665
0.00568842
0.0059495
0.00615376
0.00630456
0.00640426
0.00645457
0.00645641
0.00641005
0.00631457
0.00616864
0.0059701
0.00571563
0.0054012
0.00502199
0.00457305
0.00405081
0.00345384
0.00278925
0.00206696
0.00118361
0.000166342
0.000166042
0.00118579
0.00200853
0.00270033
0.00337602
0.00399001
0.0045228
0.0049795
0.00536589
0.00568699
0.00594745
0.00615136
0.00630187
0.00640141
0.00645161
0.00645332
0.00640682
0.00631114
0.00616494
0.00596603
0.00571116
0.00539608
0.00501582
0.00456496
0.00403842
0.00343296
0.00276559
0.00205788
0.00120987
0.000167395
0.000167473
0.00124396
0.00204974
0.00271435
0.00337693
0.0039877
0.00452195
0.00497884
0.00536474
0.00568538
0.00594547
0.00614909
0.00629937
0.00639878
0.00644888
0.00645047
0.00640379
0.00630788
0.00616144
0.0059621
0.00570671
0.00539094
0.00500985
0.00455745
0.00402781
0.00341815
0.00274962
0.00207009
0.00123778
0.000167415
0.00017162
0.00130755
0.00208901
0.00274113
0.00338549
0.00398787
0.00452047
0.0049771
0.00536289
0.00568331
0.0059432
0.00614666
0.00629686
0.00639624
0.00644626
0.00644772
0.00640085
0.00630467
0.00615792
0.00595818
0.00570225
0.00538613
0.00500464
0.00455198
0.00402269
0.00341833
0.00276337
0.00208775
0.00128297
0.000169055
0.000178018
0.00134274
0.00213497
0.00278155
0.00340047
0.00399078
0.00451909
0.0049746
0.0053602
0.00568055
0.0059405
0.00614402
0.00629434
0.0063937
0.00644367
0.00644502
0.00639794
0.00630147
0.00615433
0.00595419
0.00569782
0.00538132
0.00499967
0.00454778
0.00402114
0.00342321
0.00278273
0.00212689
0.00133746
0.000177554
0.000177953
0.001338
0.00215787
0.00281134
0.00341455
0.00399349
0.00451668
0.00497129
0.00535649
0.00567703
0.00593732
0.00614113
0.00629163
0.00639105
0.00644101
0.00644226
0.00639498
0.00629825
0.00615065
0.00595001
0.00569316
0.00537614
0.00499434
0.00454309
0.00401961
0.00343264
0.00281291
0.00215276
0.00134815
0.000182481
0.000174786
0.00130941
0.00215917
0.0028218
0.0034184
0.00399195
0.00451304
0.0049664
0.0053518
0.00567297
0.00593376
0.00613795
0.00628868
0.00638825
0.00643826
0.00643942
0.0063919
0.00629483
0.00614676
0.00594551
0.00568799
0.00537024
0.00498791
0.0045365
0.00401478
0.00343345
0.00282254
0.00215655
0.00133226
0.0001796
0.000169078
0.00126073
0.00212621
0.00281223
0.00341344
0.00398683
0.00450667
0.00496037
0.00534678
0.00566864
0.00592996
0.00613458
0.00628562
0.00638541
0.00643544
0.00643649
0.00638871
0.00629121
0.0061426
0.0059406
0.00568213
0.00536345
0.00497999
0.00452771
0.00400523
0.00342443
0.00281528
0.00213518
0.0012854
0.000172367
0.000164321
0.00118479
0.00207186
0.00278505
0.00339947
0.00397672
0.00449851
0.00495401
0.00534147
0.00566409
0.00592603
0.00613112
0.00628249
0.00638249
0.00643254
0.00643349
0.00638546
0.00628749
0.00613822
0.00593532
0.0056756
0.00535552
0.00497056
0.00451672
0.00399343
0.00340999
0.00279052
0.00208283
0.00120365
0.000166286
0.000161464
0.00113286
0.00201629
0.00274716
0.00337951
0.00396498
0.0044902
0.00494734
0.00533597
0.00565946
0.00592206
0.00612762
0.00627931
0.00637947
0.00642958
0.00643043
0.00638211
0.00628366
0.00613369
0.00592982
0.00566878
0.0053466
0.00495894
0.00450158
0.00397373
0.00338356
0.00275095
0.00202918
0.00115104
0.00016284
0.000161206
0.00112187
0.00197501
0.00271063
0.00335858
0.00395273
0.00448171
0.00494066
0.00533048
0.00565486
0.00591811
0.00612414
0.00627615
0.00637647
0.00642663
0.00642734
0.0063787
0.00627978
0.00612911
0.00592426
0.00566189
0.00533784
0.00494739
0.00448657
0.00395501
0.00335985
0.00271732
0.00199358
0.0011408
0.00016191
0.000162231
0.00112757
0.0019562
0.00268367
0.00334101
0.0039416
0.00447367
0.00493421
0.00532511
0.00565032
0.00591421
0.00612072
0.00627304
0.00637354
0.00642371
0.0064243
0.00637534
0.00627594
0.00612458
0.00591876
0.00565511
0.00532942
0.00493698
0.00447388
0.00393965
0.00334045
0.00269226
0.00197572
0.00114658
0.000162538
0.00016467
0.00113681
0.00194488
0.00266013
0.0033261
0.0039316
0.00446595
0.00492783
0.00531974
0.00564578
0.00591034
0.00611734
0.00627
0.00637067
0.00642089
0.00642135
0.00637208
0.00627223
0.00612019
0.00591348
0.00564869
0.00532161
0.00492766
0.00446307
0.0039273
0.00332629
0.00267646
0.00196896
0.00115456
0.000164359
0.000166864
0.00114308
0.0019334
0.00264818
0.0033138
0.00392169
0.00445781
0.00492106
0.00531415
0.00564117
0.0059065
0.00611405
0.00626706
0.00636791
0.00641817
0.00641852
0.00636897
0.00626871
0.00611606
0.00590856
0.00564279
0.00531464
0.00491968
0.00445431
0.0039178
0.00331525
0.00266267
0.00196572
0.0011641
0.00016623
0.000168169
0.00114911
0.00192923
0.00262583
0.00330106
0.00391167
0.00444877
0.00491369
0.00530831
0.00563654
0.00590275
0.00611091
0.00626428
0.00636531
0.00641557
0.00641583
0.00636609
0.00626547
0.00611233
0.00590415
0.00563759
0.0053086
0.00491295
0.00444714
0.00391
0.00330534
0.00265311
0.0019569
0.00116311
0.000166574
0.000168149
0.00114554
0.00192495
0.00259914
0.00327527
0.00389692
0.00443928
0.00490655
0.00530265
0.00563209
0.00589918
0.00610794
0.00626167
0.00636286
0.00641316
0.00641335
0.00636345
0.00626255
0.00610902
0.00590032
0.00563315
0.00530349
0.00490715
0.00444071
0.00390333
0.00329722
0.00263604
0.00193642
0.00113932
0.000165686
0.000167518
0.00114795
0.00192797
0.00258032
0.00325084
0.00387828
0.00442782
0.00489919
0.00529755
0.00562809
0.00589594
0.00610518
0.00625924
0.00636061
0.00641094
0.00641108
0.00636106
0.00625994
0.0061061
0.00589702
0.00562936
0.00529916
0.00490245
0.00443556
0.0038953
0.00328195
0.00261932
0.00191875
0.0011025
0.000164419
0.000167233
0.00116698
0.00194001
0.00257823
0.00323863
0.00386505
0.00441804
0.00489279
0.00529304
0.00562475
0.00589313
0.00610282
0.00625709
0.00635858
0.00640895
0.00640905
0.00635894
0.00625766
0.00610361
0.00589425
0.00562624
0.00529583
0.00489837
0.00442904
0.00388478
0.00326755
0.00260943
0.00192083
0.00109713
0.000164087
0.000166142
0.00119134
0.00195879
0.00260152
0.00324614
0.0038627
0.00441465
0.00488947
0.00529051
0.00562259
0.00589123
0.00610095
0.00625527
0.00635678
0.00640718
0.00640726
0.00635708
0.00625576
0.00610162
0.00589212
0.00562418
0.00529344
0.00489497
0.00442434
0.00387852
0.00326308
0.0026142
0.00193318
0.0011267
0.000164305
0.000165834
0.0012265
0.00200728
0.0026432
0.00326488
0.0038728
0.00441901
0.00489114
0.00529062
0.00562214
0.00589033
0.00609968
0.0062539
0.0063553
0.00640562
0.00640571
0.00635554
0.00625427
0.00610025
0.00589114
0.00562348
0.00529283
0.00489477
0.00442481
0.00388053
0.00327453
0.00263613
0.00196288
0.00117146
0.000163579
0.000173059
0.00126305
0.00208364
0.00272202
0.00331076
0.00389632
0.004431
0.00489753
0.00529384
0.00562344
0.00589064
0.00609939
0.0062531
0.00635418
0.00640442
0.00640445
0.00635437
0.00625341
0.00609977
0.00589128
0.00562432
0.00529501
0.00489918
0.00443293
0.00389596
0.00329938
0.00268845
0.00202932
0.00122234
0.000168432
0.000177819
0.0013017
0.00216348
0.00280328
0.00336839
0.00392929
0.00444999
0.00490885
0.00530049
0.00562711
0.00589238
0.0061
0.00625303
0.00635383
0.00640373
0.00640377
0.00635401
0.0062533
0.00610028
0.00589272
0.00562724
0.00530034
0.00490813
0.00444778
0.00392246
0.00334874
0.00276431
0.00211598
0.00127428
0.000174892
0.000175381
0.00129505
0.00219307
0.00285775
0.00342397
0.00396644
0.0044742
0.00492434
0.00531034
0.00563317
0.00589586
0.00610167
0.00625372
0.00635399
0.0064037
0.00640375
0.00635417
0.006254
0.00610197
0.00589584
0.00563265
0.00530917
0.00492195
0.0044691
0.00395665
0.00340629
0.0028327
0.00217264
0.00129067
0.000175039
0.000166231
0.00124792
0.00217013
0.00289396
0.00346847
0.00400248
0.0045
0.00494189
0.00532195
0.00564052
0.00590039
0.00610451
0.00625536
0.00635477
0.00640418
0.00640423
0.00635497
0.00625566
0.00610488
0.00590061
0.00564022
0.0053209
0.0049399
0.00449627
0.0039965
0.00346106
0.00288101
0.00217058
0.0012618
0.000168754
0.000160501
0.00115615
0.00210563
0.00288749
0.00350487
0.00403717
0.00452595
0.00496011
0.00533412
0.00564876
0.00590584
0.00610797
0.00625746
0.0063561
0.0064051
0.00640518
0.00635637
0.00625787
0.00610846
0.00590634
0.00564919
0.00533432
0.0049596
0.00452519
0.00403625
0.0035033
0.00289233
0.00211917
0.00118307
0.000162137
0.00015909
0.00111198
0.0020687
0.00286797
0.00352296
0.00406664
0.00454975
0.00497736
0.00534662
0.00565726
0.00591143
0.00611159
0.00625977
0.00635766
0.00640631
0.00640642
0.00635803
0.00626035
0.00611236
0.0059124
0.00565845
0.00534817
0.00497935
0.0045522
0.00407049
0.00353052
0.00287703
0.0020825
0.00112625
0.000160178
0.00016001
0.00110929
0.0020302
0.00284779
0.00353002
0.00408771
0.00456988
0.00499357
0.00535798
0.00566491
0.00591655
0.00611499
0.0062621
0.00635938
0.00640777
0.00640792
0.00635986
0.00626289
0.0061161
0.00591804
0.00566691
0.00536076
0.00499785
0.00457679
0.00409905
0.00354035
0.0028567
0.00204114
0.00111778
0.000160938
0.000166197
0.001123
0.00199847
0.00281815
0.00352511
0.00410547
0.00458721
0.00500617
0.00536667
0.00567086
0.00592066
0.0061179
0.00626431
0.0063612
0.00640944
0.00640962
0.00636177
0.00626525
0.00611926
0.00592254
0.00567346
0.0053703
0.00501146
0.00459547
0.00411656
0.0035344
0.00282649
0.00200764
0.00112971
0.000166943
0.000175037
0.00115672
0.00197919
0.00278051
0.00349816
0.00410493
0.00459442
0.00501244
0.00537153
0.00567459
0.00592358
0.00612033
0.00626646
0.00636317
0.00641134
0.00641152
0.00636376
0.00626746
0.00612181
0.00592565
0.00567745
0.00537548
0.0050178
0.0046014
0.00411277
0.00350442
0.0027894
0.00198994
0.0011657
0.000175659
0.000175835
0.00118107
0.00196905
0.00275104
0.00345616
0.00408378
0.00458675
0.00501023
0.00537155
0.00567566
0.00592521
0.00612229
0.00626859
0.00636541
0.00641361
0.00641379
0.00636599
0.00626958
0.00612377
0.00592729
0.00567852
0.00537539
0.00501524
0.00459282
0.00408985
0.00346227
0.00275939
0.00198006
0.00118922
0.000176135
0.000174681
0.00119895
0.00198004
0.00272823
0.00341504
0.00404516
0.00456512
0.00499921
0.00536631
0.00567383
0.00592544
0.00612376
0.0062708
0.00636803
0.00641639
0.00641656
0.00636856
0.00627172
0.00612514
0.00592737
0.00567643
0.00536969
0.00500332
0.00456942
0.00404872
0.00341883
0.0027348
0.00199007
0.00120549
0.000174831
0.000173161
0.00120614
0.00198601
0.00269522
0.00337417
0.00400154
0.00453473
0.00498101
0.00535659
0.00566946
0.00592446
0.00612487
0.00627318
0.00637113
0.00641979
0.00641995
0.0063716
0.00627399
0.00612608
0.00592613
0.00567166
0.00535933
0.00498423
0.00453862
0.00400544
0.00338019
0.00270137
0.001994
0.00121164
0.000173242
0.000172932
0.0012156
0.00198657
0.0026777
0.00334173
0.00396063
0.00450197
0.00495947
0.00534387
0.00566327
0.00592258
0.0061258
0.00627586
0.00637481
0.00642393
0.00642406
0.00637522
0.00627654
0.0061268
0.00592393
0.00566499
0.00534595
0.0049621