/*--------------------------------*- C++ -*----------------------------------*\
| =========                 |                                                 |
| \\      /  F ield         | OpenFOAM: The Open Source CFD Toolbox           |
|  \\    /   O peration     | Version:  2.3.0                                 |
|   \\  /    A nd           | Web:      www.OpenFOAM.org                      |
|    \\/     M anipulation  |                                                 |
\*---------------------------------------------------------------------------*/
FoamFile
{
    version     2.0;
    format      ascii;
    class       volVectorField;
    location    "0.16";
    object      U.air;
}
// * * * * * * * * * * * * * * * * * * * * * * * * * * * * * * * * * * * * * //

dimensions      [0 1 -1 0 0 0 0];

internalField   nonuniform List<vector> 
6000
(
(-0.030287 0.279884 0)
(-0.0353653 0.256293 0)
(-0.0140991 0.260379 0)
(-0.0101036 0.255743 0)
(-0.0154968 0.254676 0)
(-0.0282228 0.254124 0)
(-0.0413813 0.251818 0)
(-0.048297 0.24776 0)
(-0.0464187 0.243565 0)
(-0.0386226 0.240495 0)
(-0.0286802 0.238597 0)
(-0.0197884 0.237583 0)
(-0.01271 0.236779 0)
(-0.00716143 0.236406 0)
(-0.002861 0.236113 0)
(0.00109319 0.236248 0)
(0.00557679 0.236323 0)
(0.0111718 0.236735 0)
(0.0183336 0.237593 0)
(0.0273622 0.238622 0)
(0.0373004 0.240561 0)
(0.0454958 0.243442 0)
(0.0476716 0.247702 0)
(0.0407761 0.252019 0)
(0.0279021 0.254011 0)
(0.0156021 0.254853 0)
(0.0103236 0.255757 0)
(0.0142962 0.260554 0)
(0.0355808 0.256288 0)
(0.0304473 0.280336 0)
(-0.0174522 1.17848 0)
(-0.0341782 1.08408 0)
(0.0122607 1.09566 0)
(0.0224843 1.11604 0)
(0.0147553 1.12533 0)
(-0.00562062 1.12442 0)
(-0.0284403 1.11187 0)
(-0.0408282 1.09042 0)
(-0.0375744 1.07215 0)
(-0.0266932 1.06534 0)
(-0.0159351 1.06542 0)
(-0.00748969 1.06794 0)
(-0.00264428 1.07235 0)
(-0.000767087 1.07543 0)
(-0.000572571 1.07715 0)
(-0.00115538 1.07703 0)
(-0.000974 1.07541 0)
(0.00102687 1.07168 0)
(0.00625409 1.06804 0)
(0.0145348 1.06534 0)
(0.0255808 1.06519 0)
(0.0367295 1.07187 0)
(0.0399071 1.08987 0)
(0.0280249 1.11181 0)
(0.00526376 1.12415 0)
(-0.0149568 1.12484 0)
(-0.0222424 1.11587 0)
(-0.0117658 1.09508 0)
(0.0351897 1.08414 0)
(0.0181871 1.17946 0)
(-0.0397074 0.991301 0)
(-0.0325934 0.839033 0)
(0.0296426 0.879725 0)
(0.0425439 0.923357 0)
(0.0350554 0.962083 0)
(0.00360018 0.986324 0)
(-0.0373421 0.982602 0)
(-0.0576923 0.947415 0)
(-0.0467329 0.914693 0)
(-0.0259508 0.905045 0)
(-0.0102348 0.905352 0)
(-0.000541768 0.911702 0)
(0.00326656 0.919437 0)
(0.00329139 0.923748 0)
(0.000750007 0.926778 0)
(-0.00244665 0.926556 0)
(-0.0048602 0.923866 0)
(-0.00505917 0.918486 0)
(-0.000999651 0.911349 0)
(0.00906258 0.905659 0)
(0.024788 0.904117 0)
(0.0459144 0.914656 0)
(0.0567863 0.946716 0)
(0.0366715 0.981951 0)
(-0.00399572 0.986438 0)
(-0.035185 0.961378 0)
(-0.0424255 0.92302 0)
(-0.0292166 0.879081 0)
(0.0332764 0.838497 0)
(0.0402234 0.993253 0)
(0.0268072 0.986742 0)
(0.04867 0.706082 0)
(0.0735384 0.790855 0)
(0.092648 0.835374 0)
(0.094986 0.886349 0)
(0.0727979 0.926523 0)
(0.0277831 0.935376 0)
(-0.0142031 0.901208 0)
(-0.0309149 0.876129 0)
(-0.0219948 0.887122 0)
(-0.00196265 0.903303 0)
(0.00955086 0.923942 0)
(0.0118281 0.938225 0)
(0.00843804 0.947866 0)
(0.00246446 0.952145 0)
(-0.00412971 0.95206 0)
(-0.0100645 0.947712 0)
(-0.0132989 0.938079 0)
(-0.0114035 0.923198 0)
(0.00074317 0.90345 0)
(0.0212101 0.886824 0)
(0.0300079 0.875995 0)
(0.0135189 0.900996 0)
(-0.0281869 0.935043 0)
(-0.0733566 0.926247 0)
(-0.0955991 0.88526 0)
(-0.0933366 0.835158 0)
(-0.0744657 0.7894 0)
(-0.0498668 0.705796 0)
(-0.0276735 0.988378 0)
(0.0881899 0.875268 0)
(0.148029 0.722864 0)
(0.169026 0.790122 0)
(0.2031 0.847199 0)
(0.222444 0.925321 0)
(0.222395 0.985569 0)
(0.200852 0.992926 0)
(0.152573 0.912691 0)
(0.0926341 0.838476 0)
(0.0570542 0.804666 0)
(0.0457514 0.816166 0)
(0.0389644 0.838586 0)
(0.0294229 0.856583 0)
(0.0177221 0.866606 0)
(0.00539198 0.871763 0)
(-0.00726411 0.871562 0)
(-0.0196018 0.866686 0)
(-0.0310617 0.855695 0)
(-0.0407352 0.839045 0)
(-0.0475812 0.81471 0)
(-0.0582216 0.804831 0)
(-0.0936764 0.837679 0)
(-0.153146 0.911955 0)
(-0.202349 0.990664 0)
(-0.224395 0.986793 0)
(-0.223952 0.923055 0)
(-0.205638 0.847703 0)
(-0.171831 0.789007 0)
(-0.151125 0.722865 0)
(-0.0897476 0.874569 0)
(0.0778312 0.615334 0)
(0.161249 0.570662 0)
(0.23241 0.608967 0)
(0.296495 0.68179 0)
(0.338353 0.772395 0)
(0.363341 0.865568 0)
(0.369646 0.919221 0)
(0.347756 0.9496 0)
(0.285344 0.915536 0)
(0.208992 0.865683 0)
(0.144964 0.854075 0)
(0.0984313 0.868344 0)
(0.0643392 0.884514 0)
(0.0361835 0.893547 0)
(0.0107672 0.897345 0)
(-0.0137432 0.897277 0)
(-0.0391178 0.892935 0)
(-0.0674453 0.883668 0)
(-0.101553 0.867699 0)
(-0.148097 0.853036 0)
(-0.212139 0.864143 0)
(-0.288013 0.915228 0)
(-0.350075 0.947237 0)
(-0.373607 0.923924 0)
(-0.365574 0.861315 0)
(-0.342217 0.774648 0)
(-0.299537 0.680156 0)
(-0.236518 0.608909 0)
(-0.16553 0.568244 0)
(-0.0803335 0.611534 0)
(0.0654575 0.484312 0)
(0.158836 0.465265 0)
(0.268812 0.501826 0)
(0.363537 0.601086 0)
(0.419098 0.714043 0)
(0.421655 0.818381 0)
(0.39897 0.875988 0)
(0.369017 0.887101 0)
(0.331803 0.88115 0)
(0.27386 0.860293 0)
(0.205834 0.853683 0)
(0.143866 0.852444 0)
(0.0937457 0.857705 0)
(0.0523959 0.859719 0)
(0.0155296 0.862904 0)
(-0.0199897 0.861283 0)
(-0.0570083 0.861219 0)
(-0.0984654 0.85598 0)
(-0.148895 0.853794 0)
(-0.210469 0.851382 0)
(-0.278875 0.861935 0)
(-0.33562 0.877166 0)
(-0.373713 0.890402 0)
(-0.400912 0.871544 0)
(-0.425841 0.820732 0)
(-0.422578 0.712253 0)
(-0.367453 0.601191 0)
(-0.274098 0.503021 0)
(-0.16454 0.463342 0)
(-0.0685847 0.475808 0)
(0.0743844 0.386496 0)
(0.178979 0.353751 0)
(0.279313 0.38765 0)
(0.373359 0.491523 0)
(0.458543 0.672212 0)
(0.463415 0.844978 0)
(0.406551 0.902251 0)
(0.351713 0.917228 0)
(0.300276 0.901347 0)
(0.247216 0.880992 0)
(0.191155 0.860401 0)
(0.139034 0.851155 0)
(0.0926263 0.840984 0)
(0.0522834 0.838779 0)
(0.0151342 0.835489 0)
(-0.0208759 0.837031 0)
(-0.0579791 0.836809 0)
(-0.098461 0.842345 0)
(-0.144565 0.848803 0)
(-0.196762 0.860849 0)
(-0.251828 0.876858 0)
(-0.305166 0.902505 0)
(-0.354393 0.911931 0)
(-0.409839 0.904753 0)
(-0.465544 0.844497 0)
(-0.461997 0.672023 0)
(-0.378469 0.492169 0)
(-0.284877 0.389267 0)
(-0.184423 0.351621 0)
(-0.0769329 0.372163 0)
(0.0792041 0.225637 0)
(0.192733 0.257578 0)
(0.267686 0.315546 0)
(0.329823 0.397267 0)
(0.410797 0.591559 0)
(0.452261 0.878045 0)
(0.392976 0.95891 0)
(0.320893 0.956286 0)
(0.264953 0.945245 0)
(0.213629 0.920521 0)
(0.16661 0.901944 0)
(0.122457 0.883427 0)
(0.0825604 0.87418 0)
(0.0464206 0.865212 0)
(0.0129049 0.862918 0)
(-0.0197269 0.861389 0)
(-0.0532354 0.866319 0)
(-0.0891081 0.872089 0)
(-0.129057 0.884028 0)
(-0.172394 0.897995 0)
(-0.219456 0.920509 0)
(-0.269036 0.939223 0)
(-0.324573 0.957005 0)
(-0.392119 0.951691 0)
(-0.452806 0.880356 0)
(-0.412928 0.59272 0)
(-0.33324 0.397971 0)
(-0.270413 0.316084 0)
(-0.195639 0.254999 0)
(-0.0799543 0.205908 0)
(0.0568091 0.100254 0)
(0.162636 0.178012 0)
(0.230714 0.271757 0)
(0.270486 0.337183 0)
(0.320033 0.514751 0)
(0.37487 0.865304 0)
(0.342608 1.01523 0)
(0.275505 1.009 0)
(0.223976 0.98516 0)
(0.178597 0.963037 0)
(0.137494 0.936173 0)
(0.10043 0.915567 0)
(0.0670495 0.897789 0)
(0.0371336 0.888095 0)
(0.00942645 0.881455 0)
(-0.0174523 0.882392 0)
(-0.045021 0.886444 0)
(-0.0748131 0.898222 0)
(-0.107808 0.912726 0)
(-0.144687 0.93584 0)
(-0.184842 0.957631 0)
(-0.229785 0.983695 0)
(-0.278506 1.00042 0)
(-0.343458 1.01271 0)
(-0.374132 0.867417 0)
(-0.319064 0.517005 0)
(-0.269623 0.337247 0)
(-0.229622 0.271238 0)
(-0.163803 0.176961 0)
(-0.0567112 0.0785274 0)
(0.0283903 0.0220564 0)
(0.109777 0.101623 0)
(0.173398 0.232251 0)
(0.201517 0.296323 0)
(0.225808 0.465414 0)
(0.268349 0.829822 0)
(0.266306 1.05632 0)
(0.218632 1.04213 0)
(0.17783 1.02048 0)
(0.139756 0.99167 0)
(0.104896 0.965757 0)
(0.0740347 0.938776 0)
(0.0477998 0.919019 0)
(0.0252604 0.904416 0)
(0.00506102 0.897969 0)
(-0.0143379 0.897125 0)
(-0.0344247 0.904417 0)
(-0.0566675 0.917209 0)
(-0.0826638 0.937866 0)
(-0.113133 0.961678 0)
(-0.147942 0.989599 0)
(-0.184894 1.01284 0)
(-0.225606 1.03758 0)
(-0.270206 1.0451 0)
(-0.269342 0.830453 0)
(-0.223111 0.466277 0)
(-0.197285 0.295691 0)
(-0.170982 0.232388 0)
(-0.111489 0.10308 0)
(-0.0283868 -0.00246805 0)
(0.0099124 -0.0238802 0)
(0.0601654 0.035548 0)
(0.106835 0.196718 0)
(0.123926 0.26802 0)
(0.132814 0.433178 0)
(0.163545 0.790075 0)
(0.186357 1.06562 0)
(0.164785 1.06682 0)
(0.132076 1.04285 0)
(0.0995564 1.01664 0)
(0.0688572 0.985781 0)
(0.0434931 0.956926 0)
(0.0248637 0.9334 0)
(0.0111653 0.918105 0)
(-7.94561e-05 0.910139 0)
(-0.0105627 0.910064 0)
(-0.0216246 0.917165 0)
(-0.0350264 0.932411 0)
(-0.0532442 0.954753 0)
(-0.0785962 0.983718 0)
(-0.10927 1.01143 0)
(-0.142319 1.0385 0)
(-0.17483 1.05689 0)
(-0.196563 1.05513 0)
(-0.170303 0.785381 0)
(-0.133157 0.429965 0)
(-0.121382 0.267339 0)
(-0.106099 0.202188 0)
(-0.0616669 0.0357301 0)
(-0.00911085 -0.05099 0)
(-0.000776527 -0.0469711 0)
(0.0207762 -0.00551242 0)
(0.0394989 0.172921 0)
(0.0464622 0.252316 0)
(0.043218 0.411827 0)
(0.0655944 0.744743 0)
(0.111617 1.04222 0)
(0.119301 1.0796 0)
(0.091126 1.06474 0)
(0.0597438 1.03798 0)
(0.0338316 1.00902 0)
(0.0160762 0.972402 0)
(0.00601731 0.943449 0)
(0.000199975 0.924657 0)
(-0.00382134 0.915573 0)
(-0.00744985 0.915256 0)
(-0.0114123 0.923693 0)
(-0.0170445 0.942061 0)
(-0.0269778 0.970798 0)
(-0.0447134 1.00642 0)
(-0.0712341 1.03496 0)
(-0.103468 1.05951 0)
(-0.133133 1.07351 0)
(-0.127552 1.03157 0)
(-0.0785771 0.733903 0)
(-0.0504495 0.403526 0)
(-0.0504374 0.249857 0)
(-0.044867 0.182296 0)
(-0.0181418 -0.0108654 0)
(0.00399908 -0.0686783 0)
(-0.0053994 -0.0538771 0)
(-0.00880942 -0.0125299 0)
(-0.0162186 0.160266 0)
(-0.0209188 0.252761 0)
(-0.0362039 0.401685 0)
(-0.020363 0.700514 0)
(0.0357674 0.984769 0)
(0.0703517 1.0909 0)
(0.0557002 1.09227 0)
(0.0318946 1.06366 0)
(0.0150046 1.02407 0)
(0.00632411 0.981519 0)
(0.00146217 0.948077 0)
(-0.0017 0.927217 0)
(-0.00413085 0.917481 0)
(-0.00648443 0.91715 0)
(-0.00901335 0.926117 0)
(-0.0122722 0.946378 0)
(-0.0173074 0.979127 0)
(-0.026426 1.02194 0)
(-0.0439706 1.06119 0)
(-0.0690722 1.08904 0)
(-0.0853758 1.08569 0)
(-0.0530462 0.975087 0)
(0.00421742 0.686114 0)
(0.0228138 0.389741 0)
(0.00982719 0.248903 0)
(0.0022177 0.172375 0)
(0.00969672 -0.0263354 0)
(0.00432094 -0.0600167 0)
(-0.00523612 -0.0497418 0)
(-0.0268516 0.00747242 0)
(-0.0585622 0.163619 0)
(-0.0736166 0.270697 0)
(-0.0987081 0.402345 0)
(-0.0872551 0.662507 0)
(-0.0346495 0.926524 0)
(0.0133589 1.07301 0)
(0.0263995 1.10101 0)
(0.0223362 1.07357 0)
(0.0167821 1.0298 0)
(0.011823 0.987338 0)
(0.00653951 0.954594 0)
(0.00164163 0.934111 0)
(-0.00270507 0.924585 0)
(-0.00683744 0.924305 0)
(-0.0112648 0.933222 0)
(-0.0163029 0.953202 0)
(-0.0217826 0.985428 0)
(-0.0269882 1.0282 0)
(-0.033013 1.0725 0)
(-0.0379826 1.09921 0)
(-0.0262241 1.06938 0)
(0.0206868 0.917873 0)
(0.0731435 0.647711 0)
(0.0849919 0.391014 0)
(0.0599025 0.269201 0)
(0.0423613 0.175558 0)
(0.0258892 -0.010455 0)
(-0.0051961 -0.0471614 0)
(-0.00734149 -0.039427 0)
(-0.0389037 0.0505581 0)
(-0.0887469 0.186003 0)
(-0.111535 0.30076 0)
(-0.140436 0.414967 0)
(-0.133923 0.632973 0)
(-0.0879212 0.879305 0)
(-0.0335443 1.03812 0)
(0.00303735 1.08972 0)
(0.018403 1.0758 0)
(0.0213951 1.03736 0)
(0.0177744 0.9964 0)
(0.0113702 0.965287 0)
(0.00472876 0.945048 0)
(-0.0013913 0.935448 0)
(-0.00719619 0.935197 0)
(-0.0132824 0.944323 0)
(-0.0198414 0.964266 0)
(-0.0260495 0.995445 0)
(-0.0293575 1.03609 0)
(-0.0260354 1.07417 0)
(-0.0107548 1.08859 0)
(0.0258219 1.03568 0)
(0.0806475 0.87167 0)
(0.126705 0.619407 0)
(0.131461 0.40537 0)
(0.0982424 0.303022 0)
(0.0809169 0.188511 0)
(0.0368143 0.0399884 0)
(-0.0040724 -0.0318716 0)
(-0.0137037 -0.00850301 0)
(-0.0533823 0.103539 0)
(-0.103517 0.223713 0)
(-0.1364 0.332393 0)
(-0.162375 0.434102 0)
(-0.164143 0.612813 0)
(-0.123149 0.836959 0)
(-0.0660088 1.00082 0)
(-0.0188816 1.06997 0)
(0.00814129 1.07258 0)
(0.0176527 1.04468 0)
(0.017384 1.00975 0)
(0.0124129 0.979616 0)
(0.0059249 0.958982 0)
(-0.00068569 0.948814 0)
(-0.00714161 0.948492 0)
(-0.0135947 0.95806 0)
(-0.0197283 0.978156 0)
(-0.0240869 1.00791 0)
(-0.0233965 1.04266 0)
(-0.0126022 1.07018 0)
(0.0158654 1.06806 0)
(0.0650247 0.997878 0)
(0.124585 0.828962 0)
(0.16606 0.601351 0)
(0.158773 0.432314 0)
(0.124498 0.338777 0)
(0.11055 0.206073 0)
(0.0569527 0.108587 0)
(0.0114734 -0.0155392 0)
(-0.0207095 0.0468154 0)
(-0.076262 0.158364 0)
(-0.109151 0.266936 0)
(-0.147247 0.361266 0)
(-0.170139 0.462278 0)
(-0.179 0.605481 0)
(-0.147417 0.799192 0)
(-0.0923365 0.962138 0)
(-0.0421651 1.04525 0)
(-0.00900552 1.06257 0)
(0.0072888 1.04685 0)
(0.0120462 1.01843 0)
(0.0103604 0.991133 0)
(0.00547566 0.971393 0)
(-0.000536609 0.961263 0)
(-0.00671084 0.960854 0)
(-0.0124946 0.970163 0)
(-0.0168385 0.989082 0)
(-0.0176014 1.01563 0)
(-0.0113356 1.04332 0)
(0.00704151 1.05906 0)
(0.043099 1.04096 0)
(0.0973126 0.95633 0)
(0.156724 0.789103 0)
(0.187838 0.597618 0)
(0.167813 0.469615 0)
(0.139725 0.367516 0)
(0.117768 0.230822 0)
(0.0620777 0.167063 0)
(0.0331859 0.0235787 0)
(-0.0488423 0.129689 0)
(-0.114112 0.194246 0)
(-0.117147 0.306207 0)
(-0.143634 0.388628 0)
(-0.163757 0.492635 0)
(-0.178321 0.611429 0)
(-0.16217 0.771269 0)
(-0.11611 0.924412 0)
(-0.0662563 1.01688 0)
(-0.0291041 1.04867 0)
(-0.00669181 1.04365 0)
(0.00372569 1.02298 0)
(0.00598134 1.0003 0)
(0.00361945 0.982745 0)
(-0.000916759 0.973264 0)
(-0.00597166 0.972774 0)
(-0.0102605 0.981123 0)
(-0.0120219 0.997528 0)
(-0.00865701 1.01897 0)
(0.00343112 1.03831 0)
(0.0283026 1.042 0)
(0.0691745 1.00887 0)
(0.124133 0.914083 0)
(0.175268 0.758121 0)
(0.190062 0.607591 0)
(0.165899 0.506133 0)
(0.146226 0.387566 0)
(0.10805 0.266218 0)
(0.0614355 0.210793 0)
(0.0272414 0.063826 0)
(-0.0763109 0.260792 0)
(-0.144024 0.21153 0)
(-0.119205 0.325065 0)
(-0.124352 0.409147 0)
(-0.144601 0.51971 0)
(-0.165883 0.630068 0)
(-0.165999 0.759867 0)
(-0.134258 0.893247 0)
(-0.0890571 0.98772 0)
(-0.0496706 1.0303 0)
(-0.0225953 1.03611 0)
(-0.00710141 1.02386 0)
(-0.000477839 1.00689 0)
(0.000315382 0.99247 0)
(-0.00189119 0.984232 0)
(-0.00491433 0.983668 0)
(-0.00688167 0.990433 0)
(-0.00554245 1.00328 0)
(0.00199967 1.01853 0)
(0.0190533 1.02871 0)
(0.0484793 1.02066 0)
(0.0913233 0.975627 0)
(0.141158 0.877698 0)
(0.176665 0.74316 0)
(0.174554 0.628166 0)
(0.156231 0.532576 0)
(0.144247 0.40526 0)
(0.106569 0.315314 0)
(0.0826464 0.242605 0)
(0.0423035 0.124726 0)
(-0.0602163 0.375641 0)
(-0.105341 0.201683 0)
(-0.0964113 0.325496 0)
(-0.0990938 0.43775 0)
(-0.119112 0.556103 0)
(-0.147679 0.660328 0)
(-0.160406 0.762425 0)
(-0.143575 0.872578 0)
(-0.107521 0.960737 0)
(-0.0691863 1.00973 0)
(-0.0393717 1.02493 0)
(-0.0199056 1.02101 0)
(-0.0091418 1.01019 0)
(-0.0045301 0.999484 0)
(-0.00347055 0.992876 0)
(-0.00349871 0.99225 0)
(-0.00232701 0.997117 0)
(0.00268377 1.00597 0)
(0.014211 1.01468 0)
(0.0346653 1.01593 0)
(0.0660162 0.997636 0)
(0.106577 0.945173 0)
(0.144936 0.852887 0)
(0.160958 0.743611 0)
(0.146093 0.653681 0)
(0.133418 0.546506 0)
(0.123685 0.420431 0)
(0.11013 0.35191 0)
(0.116823 0.254415 0)
(0.0657044 0.221889 0)
(-0.0287655 0.429806 0)
(-0.0607875 0.217571 0)
(-0.0738577 0.330954 0)
(-0.0757337 0.454049 0)
(-0.0929868 0.585435 0)
(-0.124268 0.696002 0)
(-0.147884 0.773192 0)
(-0.143197 0.86202 0)
(-0.118656 0.938424 0)
(-0.0854709 0.988521 0)
(-0.0555863 1.01076 0)
(-0.033634 1.01429 0)
(-0.0191613 1.00934 0)
(-0.0105511 1.00266 0)
(-0.00558018 0.99749 0)
(-0.00183516 0.996767 0)
(0.00316097 1.00006 0)
(0.011927 1.00469 0)
(0.0265985 1.00727 0)
(0.0488662 1.00087 0)
(0.0791231 0.97499 0)
(0.112659 0.921112 0)
(0.135911 0.841959 0)
(0.135436 0.756436 0)
(0.115027 0.681144 0)
(0.104174 0.554479 0)
(0.0954777 0.441062 0)
(0.0993975 0.35743 0)
(0.121467 0.256861 0)
(0.0665497 0.340024 0)
(-0.00862622 0.449309 0)
(-0.0384535 0.251423 0)
(-0.0621083 0.342664 0)
(-0.0744488 0.479922 0)
(-0.0864637 0.610149 0)
(-0.106471 0.733824 0)
(-0.134589 0.790739 0)
(-0.137377 0.858974 0)
(-0.122315 0.92192 0)
(-0.0965175 0.968192 0)
(-0.0691422 0.994253 0)
(-0.0461053 1.00349 0)
(-0.0290234 1.00361 0)
(-0.0168672 1.00069 0)
(-0.0079472 0.998509 0)
(-8.34921e-05 0.997801 0)
(0.00877759 0.998115 0)
(0.0207232 0.998923 0)
(0.0373719 0.996427 0)
(0.0597137 0.984296 0)
(0.0861109 0.954689 0)
(0.10978 0.905168 0)
(0.119661 0.841964 0)
(0.110854 0.775111 0)
(0.0893819 0.706616 0)
(0.0755832 0.566811 0)
(0.0618914 0.460228 0)
(0.064905 0.341326 0)
(0.0797823 0.251722 0)
(0.0473056 0.424402 0)
(0.00898488 0.436634 0)
(0.0010117 0.293299 0)
(-0.0535134 0.361278 0)
(-0.083509 0.503867 0)
(-0.0929826 0.617336 0)
(-0.0961025 0.758582 0)
(-0.119878 0.81021 0)
(-0.128527 0.85955 0)
(-0.119842 0.91032 0)
(-0.101195 0.95015 0)
(-0.0777324 0.976321 0)
(-0.0555198 0.989301 0)
(-0.0370764 0.993643 0)
(-0.0223338 0.993874 0)
(-0.0100808 0.993257 0)
(0.00126097 0.992586 0)
(0.0133054 0.991506 0)
(0.0274856 0.989411 0)
(0.044941 0.982964 0)
(0.065848 0.967255 0)
(0.0868073 0.938195 0)
(0.101226 0.896672 0)
(0.103245 0.847579 0)
(0.0920862 0.794192 0)
(0.0718617 0.73095 0)
(0.0627124 0.581168 0)
(0.0506312 0.483659 0)
(0.0479868 0.343667 0)
(0.0514547 0.261999 0)
(0.033514 0.473934 0)
(0.0219507 0.393875 0)
(0.0422917 0.323786 0)
(-0.0251702 0.423122 0)
(-0.078361 0.53193 0)
(-0.106084 0.616851 0)
(-0.0982029 0.767279 0)
(-0.106533 0.826811 0)
(-0.117415 0.861043 0)
(-0.112713 0.902137 0)
(-0.0999077 0.934644 0)
(-0.0811862 0.958355 0)
(-0.061015 0.973028 0)
(-0.0424491 0.980229 0)
(-0.0262194 0.982824 0)
(-0.0117349 0.982594 0)
(0.00202112 0.98199 0)
(0.0161707 0.980844 0)
(0.0316454 0.976771 0)
(0.0490416 0.967803 0)
(0.0674257 0.951189 0)
(0.0831711 0.925873 0)
(0.0919268 0.892922 0)
(0.0918661 0.854585 0)
(0.0810739 0.813328 0)
(0.0667845 0.744991 0)
(0.0636434 0.591305 0)
(0.0500784 0.501204 0)
(0.0496734 0.344056 0)
(0.0356171 0.271959 0)
(0.0181563 0.501974 0)
(0.0229806 0.333773 0)
(0.0601103 0.336646 0)
(0.00730068 0.469382 0)
(-0.0583159 0.592055 0)
(-0.109189 0.621251 0)
(-0.103713 0.761027 0)
(-0.0971872 0.836777 0)
(-0.105942 0.862494 0)
(-0.10376 0.895267 0)
(-0.0944697 0.921795 0)
(-0.0800427 0.942134 0)
(-0.062584 0.956501 0)
(-0.0448594 0.965022 0)
(-0.0282009 0.969128 0)
(-0.0126772 0.970374 0)
(0.00230552 0.969937 0)
(0.017475 0.967628 0)
(0.033359 0.962465 0)
(0.0498591 0.952672 0)
(0.0652083 0.937137 0)
(0.0771873 0.916329 0)
(0.0836283 0.890393 0)
(0.0844782 0.859093 0)
(0.0759481 0.826764 0)
(0.0737267 0.74642 0)
(0.0767135 0.601808 0)
(0.0580856 0.523694 0)
(0.0597506 0.351 0)
(0.00613108 0.3124 0)
(-0.00515707 0.498154 0)
(0.0133797 0.279381 0)
(0.0580114 0.33258 0)
(0.0210931 0.510995 0)
(-0.0448033 0.650065 0)
(-0.0992286 0.639356 0)
(-0.108235 0.749799 0)
(-0.095212 0.8401 0)
(-0.097042 0.86287 0)
(-0.0948985 0.888945 0)
(-0.0868482 0.910882 0)
(-0.0749911 0.927601 0)
(-0.0603524 0.940461 0)
(-0.0444346 0.94921 0)
(-0.0284814 0.954216 0)
(-0.0130038 0.9562 0)
(0.00213434 0.955907 0)
(0.0172671 0.953242 0)
(0.032478 0.947606 0)
(0.0471883 0.938182 0)
(0.0601436 0.924824 0)
(0.0701219 0.907681 0)
(0.0765072 0.886102 0)
(0.0791751 0.859583 0)
(0.0761408 0.832804 0)
(0.08797 0.736092 0)
(0.0987695 0.608881 0)
(0.0721124 0.551494 0)
(0.0259784 0.378297 0)
(-0.0401016 0.354421 0)
(-0.0146868 0.456139 0)
(0.00166826 0.243256 0)
(0.0372583 0.3075 0)
(0.0104517 0.561579 0)
(-0.0398236 0.698528 0)
(-0.0908581 0.677043 0)
(-0.11358 0.744137 0)
(-0.0990259 0.833297 0)
(-0.090977 0.861001 0)
(-0.0871317 0.881818 0)
(-0.0786595 0.900406 0)
(-0.0679969 0.914856 0)
(-0.0555051 0.926113 0)
(-0.0416696 0.934195 0)
(-0.0272405 0.939243 0)
(-0.0127684 0.941518 0)
(0.00156191 0.941371 0)
(0.015708 0.938801 0)
(0.0294578 0.933499 0)
(0.0422626 0.925157 0)
(0.0534703 0.913676 0)
(0.0626916 0.899018 0)
(0.0698346 0.880181 0)
(0.0741552 0.856547 0)
(0.0803233 0.827855 0)
(0.101452 0.720791 0)
(0.104277 0.614913 0)
(0.0614352 0.598085 0)
(-0.00898499 0.435814 0)
(-0.0600389 0.347994 0)
(-0.00958511 0.40582 0)
(0.00152247 0.230392 0)
(0.00940553 0.29786 0)
(-0.0134272 0.578428 0)
(-0.0317166 0.724086 0)
(-0.0813742 0.721992 0)
(-0.108919 0.743548 0)
(-0.100216 0.818847 0)
(-0.0869609 0.855408 0)
(-0.079996 0.873454 0)
(-0.0710304 0.890011 0)
(-0.0608012 0.903184 0)
(-0.0496951 0.913308 0)
(-0.0376685 0.92069 0)
(-0.0250147 0.925502 0)
(-0.0120954 0.92783 0)
(0.000793698 0.927831 0)
(0.0133948 0.925527 0)
(0.0254267 0.920764 0)
(0.036547 0.91344 0)
(0.0464966 0.903346 0)
(0.0553406 0.890155 0)
(0.0630785 0.873073 0)
(0.0692061 0.851111 0)
(0.0826568 0.813238 0)
(0.102608 0.710808 0)
(0.0787899 0.642228 0)
(0.0223534 0.639827 0)
(-0.0192544 0.474566 0)
(-0.0497698 0.325143 0)
(-0.0015769 0.36157 0)
(0.00819185 0.222703 0)
(-0.0111299 0.328531 0)
(-0.0472664 0.576814 0)
(-0.033619 0.742266 0)
(-0.0701593 0.75538 0)
(-0.0941479 0.751077 0)
(-0.0961322 0.806189 0)
(-0.0828111 0.846237 0)
(-0.0729632 0.86472 0)
(-0.0639296 0.880018 0)
(-0.0541748 0.892542 0)
(-0.0440839 0.901958 0)
(-0.0335214 0.908712 0)
(-0.0225072 0.913151 0)
(-0.0112246 0.915369 0)
(5.7607e-05 0.915521 0)
(0.0110396 0.913613 0)
(0.0214655 0.909504 0)
(0.03114 0.903082 0)
(0.0399893 0.89398 0)
(0.0481441 0.88163 0)
(0.0554509 0.865513 0)
(0.0628442 0.84354 0)
(0.0763827 0.798293 0)
(0.0799723 0.711538 0)
(0.0459184 0.691977 0)
(0.00126878 0.669459 0)
(-0.0166484 0.494435 0)
(-0.0390609 0.308548 0)
(-0.00246991 0.325685 0)
(0.0140555 0.230684 0)
(-0.0281365 0.398822 0)
(-0.0845514 0.566083 0)
(-0.05664 0.743795 0)
(-0.0642221 0.772857 0)
(-0.0801207 0.766058 0)
(-0.0857909 0.797606 0)
(-0.0755285 0.835164 0)
(-0.0650496 0.856116 0)
(-0.0565313 0.871043 0)
(-0.0478237 0.883127 0)
(-0.0388309 0.892164 0)
(-0.0295827 0.898479 0)
(-0.0200325 0.902588 0)
(-0.0102826 0.904668 0)
(-0.000534466 0.904949 0)
(0.00896306 0.903423 0)
(0.0179773 0.899917 0)
(0.0263725 0.894238 0)
(0.0340664 0.885956 0)
(0.0408694 0.874481 0)
(0.0467995 0.85911 0)
(0.0535184 0.836005 0)
(0.0604536 0.790915 0)
(0.0439454 0.73187 0)
(0.00997008 0.725275 0)
(-0.0158739 0.683654 0)
(-0.0193552 0.494153 0)
(-0.0302843 0.304109 0)
(0.000993631 0.293113 0)
(0.017117 0.254804 0)
(-0.0547272 0.502487 0)
(-0.1238 0.565137 0)
(-0.0928648 0.719448 0)
(-0.0668773 0.773459 0)
(-0.0686174 0.775109 0)
(-0.070602 0.793121 0)
(-0.0644465 0.825436 0)
(-0.0555921 0.848202 0)
(-0.0481978 0.863591 0)
(-0.0410833 0.875239 0)
(-0.0335463 0.883922 0)
(-0.0256878 0.889905 0)
(-0.0175584 0.893743 0)
(-0.00926434 0.895731 0)
(-0.000964143 0.896103 0)
(0.00714342 0.894902 0)
(0.0148335 0.891926 0)
(0.0219453 0.886911 0)
(0.0282353 0.879515 0)
(0.0332523 0.869243 0)
(0.0374822 0.854368 0)
(0.0414028 0.83138 0)
(0.0388201 0.794414 0)
(0.0153743 0.764242 0)
(-0.0130765 0.749525 0)
(-0.0263265 0.692861 0)
(-0.0254268 0.49577 0)
(-0.0299116 0.290852 0)
(0.0083092 0.270658 0)
(-0.0300019 0.291213 0)
(-0.134698 0.595546 0)
(-0.161485 0.568303 0)
(-0.138116 0.673827 0)
(-0.0800163 0.751556 0)
(-0.0579967 0.771092 0)
(-0.0533616 0.791673 0)
(-0.0503015 0.818561 0)
(-0.0442462 0.841821 0)
(-0.0388742 0.857831 0)
(-0.0336889 0.869 0)
(-0.0279175 0.877138 0)
(-0.0216103 0.882778 0)
(-0.0149693 0.886371 0)
(-0.00812758 0.888269 0)
(-0.0012486 0.888703 0)
(0.00547739 0.887783 0)
(0.011848 0.885272 0)
(0.0176114 0.880946 0)
(0.0223602 0.874626 0)
(0.0256888 0.865754 0)
(0.0279709 0.851676 0)
(0.0278955 0.831655 0)
(0.0177782 0.807243 0)
(-0.00390915 0.791095 0)
(-0.0249503 0.767449 0)
(-0.0266757 0.692508 0)
(-0.0281025 0.504289 0)
(-0.0293812 0.268619 0)
(0.00220489 0.260352 0)
(-0.0862951 0.421935 0)
(-0.190682 0.628956 0)
(-0.181549 0.571095 0)
(-0.174142 0.621609 0)
(-0.0973978 0.700989 0)
(-0.0455262 0.752899 0)
(-0.0325579 0.790766 0)
(-0.0328586 0.815177 0)
(-0.0313866 0.838056 0)
(-0.0290332 0.853954 0)
(-0.0260823 0.864471 0)
(-0.0222306 0.871784 0)
(-0.0175553 0.876917 0)
(-0.0123806 0.880214 0)
(-0.00691325 0.881948 0)
(-0.00135382 0.882436 0)
(0.00410205 0.881731 0)
(0.00925508 0.879652 0)
(0.0137464 0.876146 0)
(0.0171304 0.871094 0)
(0.0191276 0.863742 0)
(0.0194891 0.851551 0)
(0.0152074 0.836717 0)
(0.00234851 0.823764 0)
(-0.0153274 0.810507 0)
(-0.029046 0.779372 0)
(-0.0220545 0.681694 0)
(-0.0251498 0.520065 0)
(-0.0254683 0.249811 0)
(-0.0114967 0.24651 0)
(-0.0783636 0.576304 0)
(-0.172864 0.623296 0)
(-0.18439 0.596693 0)
(-0.173618 0.582955 0)
(-0.104523 0.629858 0)
(-0.0270872 0.715647 0)
(-0.0050088 0.791378 0)
(-0.0122413 0.817522 0)
(-0.0173912 0.838271 0)
(-0.0192208 0.852671 0)
(-0.0189222 0.861877 0)
(-0.0170721 0.867974 0)
(-0.0139552 0.872263 0)
(-0.010053 0.875099 0)
(-0.00573556 0.876573 0)
(-0.00125815 0.877066 0)
(0.00318267 0.876546 0)
(0.00732092 0.874968 0)
(0.0107451 0.872406 0)
(0.0130626 0.868681 0)
(0.0140344 0.862912 0)
(0.0127386 0.85354 0)
(0.00565359 0.845708 0)
(-0.00658193 0.838183 0)
(-0.0195892 0.82479 0)
(-0.0259065 0.78413 0)
(-0.0173397 0.67031 0)
(-0.0189464 0.531477 0)
(-0.0147212 0.248385 0)
(-0.017625 0.245181 0)
(-0.0456938 0.664594 0)
(-0.126613 0.661722 0)
(-0.157774 0.592045 0)
(-0.122353 0.53997 0)
(-0.0588199 0.560593 0)
(-0.00563261 0.676731 0)
(0.0259479 0.796884 0)
(0.00904252 0.827606 0)
(-0.00359316 0.843764 0)
(-0.0101782 0.854312 0)
(-0.0127243 0.861424 0)
(-0.0127931 0.865766 0)
(-0.0110517 0.868811 0)
(-0.00815166 0.87096 0)
(-0.00470222 0.872121 0)
(-0.00104146 0.872531 0)
(0.00263605 0.872182 0)
(0.00598183 0.871153 0)
(0.00855624 0.869538 0)
(0.0100259 0.867081 0)
(0.0101368 0.862918 0)
(0.0074795 0.85699 0)
(0.000193762 0.85507 0)
(-0.00951701 0.848787 0)
(-0.017865 0.83401 0)
(-0.0198596 0.784459 0)
(-0.0155883 0.665976 0)
(-0.0040976 0.526959 0)
(0.00724431 0.26854 0)
(-0.0176873 0.263772 0)
(-0.0364235 0.7062 0)
(-0.0823197 0.711889 0)
(-0.0787388 0.523751 0)
(-0.0178364 0.50078 0)
(0.00816196 0.527743 0)
(0.0291642 0.643036 0)
(0.0386779 0.807069 0)
(0.0230997 0.845144 0)
(0.00590812 0.853882 0)
(-0.00358184 0.859399 0)
(-0.00815116 0.862741 0)
(-0.0095843 0.864912 0)
(-0.00886929 0.86638 0)
(-0.00672589 0.867622 0)
(-0.00389829 0.86845 0)
(-0.000850975 0.868756 0)
(0.00225037 0.8685 0)
(0.00496856 0.868066 0)
(0.00684355 0.867366 0)
(0.00769394 0.86606 0)
(0.00723149 0.863509 0)
(0.00407908 0.860942 0)
(-0.00162845 0.861957 0)
(-0.0082397 0.855979 0)
(-0.0129093 0.838687 0)
(-0.0156297 0.787021 0)
(-0.0157502 0.66017 0)
(0.0185466 0.49625 0)
(0.0568025 0.28602 0)
(0.0156853 0.282657 0)
(-0.0683497 0.751607 0)
(-0.0570167 0.719081 0)
(-0.00463178 0.464181 0)
(0.0536445 0.46665 0)
(0.0516616 0.535357 0)
(0.0406403 0.653342 0)
(0.0273506 0.816032 0)
(0.0206193 0.86662 0)
(0.00560708 0.865558 0)
(-0.00227701 0.865138 0)
(-0.00629322 0.86506 0)
(-0.00780557 0.864457 0)
(-0.00740943 0.864642 0)
(-0.00573295 0.864851 0)
(-0.00333316 0.865349 0)
(-0.00076715 0.865581 0)
(0.00178119 0.865327 0)
(0.003956 0.865561 0)
(0.00540241 0.865622 0)
(0.00602439 0.865281 0)
(0.00548241 0.864025 0)
(0.00275492 0.864413 0)
(-0.00111409 0.866164 0)
(-0.00499426 0.860473 0)
(-0.00759236 0.841277 0)
(-0.0163993 0.794109 0)
(-0.0171314 0.653146 0)
(0.0155369 0.443833 0)
(0.0696795 0.270743 0)
(0.0503854 0.351489 0)
(-0.0795267 0.812645 0)
(-0.0272997 0.645387 0)
(0.0686272 0.393154 0)
(0.0966129 0.461545 0)
(0.0662917 0.563835 0)
(0.0344818 0.676392 0)
(0.00436528 0.818725 0)
(0.00569591 0.882095 0)
(-0.00219466 0.873552 0)
(-0.00575507 0.869266 0)
(-0.00749994 0.866736 0)
(-0.0075892 0.864723 0)
(-0.00672731 0.863072 0)
(-0.00512562 0.86239 0)
(-0.0030255 0.862597 0)
(-0.000818616 0.862854 0)
(0.00121855 0.86268 0)
(0.00301064 0.863356 0)
(0.0043963 0.863996 0)
(0.00512377 0.864472 0)
(0.0048305 0.864674 0)
(0.00293845 0.866906 0)
(0.000596126 0.8683 0)
(-0.000764633 0.862729 0)
(-0.00362094 0.844983 0)
(-0.0136915 0.804385 0)
(-0.0142184 0.642948 0)
(0.00204 0.409848 0)
(0.0272314 0.234838 0)
(0.0376461 0.395338 0)
(-0.0378171 0.862739 0)
(0.0482287 0.53584 0)
(0.111341 0.369987 0)
(0.103674 0.489534 0)
(0.0507237 0.620385 0)
(-0.00406953 0.710713 0)
(-0.0202704 0.824263 0)
(-0.0148192 0.884956 0)
(-0.0127815 0.875678 0)
(-0.0116613 0.870329 0)
(-0.0103898 0.865725 0)
(-0.00864248 0.86326 0)
(-0.00683907 0.861064 0)
(-0.00495903 0.860031 0)
(-0.00298222 0.860004 0)
(-0.000928852 0.860311 0)
(0.000890323 0.860379 0)
(0.00255033 0.861185 0)
(0.0040372 0.86231 0)
(0.00496585 0.863523 0)
(0.00498004 0.865531 0)
(0.00393203 0.868243 0)
(0.00287758 0.869048 0)
(0.00272344 0.863233 0)
(-0.0022579 0.851069 0)
(-0.0078518 0.807261 0)
(-0.00844854 0.637544 0)
(0.00866942 0.399238 0)
(-0.0121641 0.217937 0)
(0.00261028 0.402018 0)
(0.0322809 0.820908 0)
(0.124698 0.489153 0)
(0.120581 0.378841 0)
(0.0880473 0.538367 0)
(0.00333545 0.691878 0)
(-0.0443798 0.720604 0)
(-0.0356201 0.823237 0)
(-0.0306999 0.876234 0)
(-0.0216818 0.871792 0)
(-0.0171731 0.866985 0)
(-0.0133164 0.86253 0)
(-0.0101717 0.859835 0)
(-0.0074722 0.858356 0)
(-0.00515949 0.857486 0)
(-0.00303265 0.857333 0)
(-0.000893293 0.857679 0)
(0.00102101 0.858096 0)
(0.00273915 0.858951 0)
(0.00431635 0.860481 0)
(0.00544538 0.862352 0)
(0.00580443 0.865044 0)
(0.00561939 0.8685 0)
(0.00555724 0.869041 0)
(0.00539468 0.864146 0)
(-0.00095963 0.858214 0)
(0.00210974 0.803079 0)
(0.00451963 0.638284 0)
(0.0155094 0.406968 0)
(-0.0418675 0.255232 0)
(-0.0287199 0.357791 0)
(0.0608731 0.70535 0)
(0.17935 0.490178 0)
(0.115136 0.398407 0)
(0.0414547 0.620873 0)
(-0.0336544 0.746609 0)
(-0.0569621 0.714134 0)
(-0.0438915 0.821252 0)
(-0.0378479 0.862947 0)
(-0.0267192 0.86434 0)
(-0.0201528 0.861121 0)
(-0.0151307 0.858374 0)
(-0.011247 0.856408 0)
(-0.00804397 0.855065 0)
(-0.00537151 0.854552 0)
(-0.00294981 0.854418 0)
(-0.000604693 0.854825 0)
(0.00152869 0.85561 0)
(0.0033908 0.856618 0)
(0.00506682 0.858441 0)
(0.00643338 0.860816 0)
(0.0072976 0.863691 0)
(0.00806251 0.867647 0)