/*--------------------------------*- C++ -*----------------------------------*\
| =========                 |                                                 |
| \\      /  F ield         | OpenFOAM: The Open Source CFD Toolbox           |
|  \\    /   O peration     | Version:  2.3.0                                 |
|   \\  /    A nd           | Web:      www.OpenFOAM.org                      |
|    \\/     M anipulation  |                                                 |
\*---------------------------------------------------------------------------*/
FoamFile
{
    version     2.0;
    format      ascii;
    class       volVectorField;
    location    "0.16";
    object      U.particlesMean;
}
// * * * * * * * * * * * * * * * * * * * * * * * * * * * * * * * * * * * * * //

dimensions      [0 1 -1 0 0 0 0];

internalField   nonuniform List<vector> 
6000
(
(0.00478978 -0.242709 0)
(0.012887 -0.247259 0)
(0.0240561 -0.248488 0)
(0.0298921 -0.250492 0)
(0.0331311 -0.250603 0)
(0.0343091 -0.250654 0)
(0.0339983 -0.250814 0)
(0.0324681 -0.250885 0)
(0.0299213 -0.250816 0)
(0.0264941 -0.250928 0)
(0.0224369 -0.251069 0)
(0.0178905 -0.251279 0)
(0.0130045 -0.251531 0)
(0.00788026 -0.251715 0)
(0.00261634 -0.25181 0)
(-0.0027013 -0.251788 0)
(-0.00796651 -0.251712 0)
(-0.0130913 -0.25152 0)
(-0.0179756 -0.251273 0)
(-0.0225241 -0.251073 0)
(-0.0265883 -0.250918 0)
(-0.0300119 -0.250821 0)
(-0.0325656 -0.250884 0)
(-0.0340876 -0.250811 0)
(-0.0343977 -0.250668 0)
(-0.0332033 -0.250621 0)
(-0.0299549 -0.250499 0)
(-0.0240949 -0.248458 0)
(-0.0129107 -0.247276 0)
(-0.00477353 -0.242544 0)
(0.0208049 -0.0558012 0)
(0.0264961 -0.0451327 0)
(0.039638 -0.0360183 0)
(0.0454678 -0.0310846 0)
(0.0476778 -0.0291034 0)
(0.0472642 -0.0269611 0)
(0.0452874 -0.0249946 0)
(0.0417266 -0.0234052 0)
(0.0375068 -0.0227297 0)
(0.03273 -0.0221271 0)
(0.0274232 -0.0216875 0)
(0.0216749 -0.0212457 0)
(0.0156159 -0.0209727 0)
(0.00938098 -0.0207608 0)
(0.0030897 -0.0207492 0)
(-0.00320108 -0.0207833 0)
(-0.0094902 -0.0207868 0)
(-0.0157217 -0.0210041 0)
(-0.0217804 -0.0212705 0)
(-0.0275285 -0.0217163 0)
(-0.0328397 -0.0221542 0)
(-0.03762 -0.0227538 0)
(-0.041848 -0.0234378 0)
(-0.0454057 -0.0250225 0)
(-0.0473754 -0.0269951 0)
(-0.0477695 -0.0291264 0)
(-0.045517 -0.031148 0)
(-0.0396374 -0.0360614 0)
(-0.0264583 -0.0451085 0)
(-0.0207758 -0.0558124 0)
(0.0245588 -0.0819211 0)
(0.0373368 -0.0707105 0)
(0.0532848 -0.0524699 0)
(0.0629944 -0.0350859 0)
(0.0649533 -0.0221968 0)
(0.0614049 -0.0132561 0)
(0.0554441 -0.00710344 0)
(0.0492024 -0.00289897 0)
(0.0430735 0.000483688 0)
(0.0368907 0.00308055 0)
(0.0304691 0.00505957 0)
(0.0238031 0.00641002 0)
(0.0169989 0.00732701 0)
(0.0101514 0.00780988 0)
(0.00332017 0.00804479 0)
(-0.00347326 0.00801752 0)
(-0.0102863 0.00779929 0)
(-0.0171214 0.00729248 0)
(-0.0239188 0.00640761 0)
(-0.0305829 0.00503215 0)
(-0.0370079 0.00309116 0)
(-0.0431997 0.000465222 0)
(-0.0493417 -0.00287706 0)
(-0.055588 -0.00712041 0)
(-0.0615405 -0.0132373 0)
(-0.065063 -0.0222527 0)
(-0.0630452 -0.035133 0)
(-0.0532733 -0.0525472 0)
(-0.0372586 -0.0707003 0)
(-0.0244666 -0.0818039 0)
(0.0279728 -0.0948329 0)
(0.0418829 -0.0770579 0)
(0.0575726 -0.055671 0)
(0.0705481 -0.0352563 0)
(0.0764828 -0.0182852 0)
(0.0750034 -0.00581701 0)
(0.0680895 0.00308323 0)
(0.0586323 0.0097953 0)
(0.0490839 0.0147076 0)
(0.0403632 0.018247 0)
(0.0324057 0.0206698 0)
(0.0248616 0.0222277 0)
(0.0175516 0.0231313 0)
(0.0104171 0.0236203 0)
(0.00340512 0.0238002 0)
(-0.00355856 0.0237969 0)
(-0.0105546 0.0236071 0)
(-0.0176721 0.0231398 0)
(-0.0249722 0.0222349 0)
(-0.0325078 0.0207086 0)
(-0.0404682 0.0182835 0)
(-0.0491929 0.0147874 0)
(-0.0587735 0.00987609 0)
(-0.06826 0.00318856 0)
(-0.0752128 -0.00577243 0)
(-0.0766921 -0.0183114 0)
(-0.0707191 -0.0353855 0)
(-0.0576955 -0.0558597 0)
(-0.0419392 -0.0772 0)
(-0.0279494 -0.0948048 0)
(0.02755 -0.0921521 0)
(0.0421795 -0.0682344 0)
(0.0583204 -0.0431313 0)
(0.0721632 -0.0196696 0)
(0.0805799 0.000363027 0)
(0.0817562 0.0147898 0)
(0.0762224 0.0234345 0)
(0.0662576 0.0282702 0)
(0.0546986 0.0311457 0)
(0.0437525 0.0329788 0)
(0.0341084 0.0341516 0)
(0.0255685 0.034806 0)
(0.0177881 0.035119 0)
(0.0104834 0.0352358 0)
(0.00342836 0.0352605 0)
(-0.00355438 0.0352536 0)
(-0.0106087 0.0352409 0)
(-0.0179038 0.0351222 0)
(-0.0256696 0.0348237 0)
(-0.0341985 0.0341788 0)
(-0.0438364 0.0330348 0)
(-0.0547912 0.0312274 0)
(-0.0663923 0.0283904 0)
(-0.0764375 0.0235666 0)
(-0.0820488 0.0148839 0)
(-0.0809266 0.000363515 0)
(-0.0725375 -0.019827 0)
(-0.0586843 -0.0434308 0)
(-0.0424458 -0.0685603 0)
(-0.0276618 -0.092266 0)
(0.0277259 -0.0859454 0)
(0.0433161 -0.0558399 0)
(0.0587603 -0.0253983 0)
(0.0711786 0.00273651 0)
(0.0792344 0.0269421 0)
(0.081421 0.0439756 0)
(0.0772278 0.0532249 0)
(0.0679486 0.0569198 0)
(0.0562744 0.0576678 0)
(0.0446965 0.0573528 0)
(0.0343738 0.0568946 0)
(0.0254292 0.0564909 0)
(0.0175255 0.056147 0)
(0.0102769 0.0558766 0)
(0.00336097 0.0557324 0)
(-0.00346772 0.0557234 0)
(-0.0103914 0.0558816 0)
(-0.0176364 0.0561387 0)
(-0.025524 0.0564895 0)
(-0.0344487 0.0568993 0)
(-0.044755 0.057388 0)
(-0.0563385 0.0577329 0)
(-0.0680609 0.0570511 0)
(-0.0774512 0.0533995 0)
(-0.0817727 0.0441648 0)
(-0.0797216 0.027059 0)
(-0.0717945 0.00265914 0)
(-0.0594951 -0.0257652 0)
(-0.0439715 -0.0564205 0)
(-0.0281364 -0.086294 0)
(0.0290876 -0.0801347 0)
(0.0456441 -0.0427542 0)
(0.0588208 -0.00568638 0)
(0.0679389 0.0277439 0)
(0.0740634 0.0565153 0)
(0.0756521 0.0769701 0)
(0.0719794 0.0875734 0)
(0.0637677 0.0911707 0)
(0.0532911 0.0911048 0)
(0.0426016 0.0895489 0)
(0.0328372 0.0877972 0)
(0.0242689 0.0863645 0)
(0.0166902 0.0853134 0)
(0.00976515 0.0846198 0)
(0.00318455 0.0842565 0)
(-0.0033011 0.0842508 0)
(-0.00988489 0.084586 0)
(-0.016802 0.0852852 0)
(-0.0243607 0.0863249 0)
(-0.032896 0.087764 0)
(-0.0426257 0.0895401 0)
(-0.0532899 0.0911431 0)
(-0.0637898 0.0912983 0)
(-0.07207 0.0877924 0)
(-0.0758801 0.077276 0)
(-0.0744914 0.0568183 0)
(-0.068601 0.0279195 0)
(-0.0597494 -0.00589265 0)
(-0.0466032 -0.0435222 0)
(-0.0298338 -0.0808675 0)
(0.0289989 -0.0763157 0)
(0.0470596 -0.0308197 0)
(0.0581124 0.0138449 0)
(0.0629788 0.0526239 0)
(0.0654744 0.0854645 0)
(0.0657807 0.109093 0)
(0.0629843 0.121316 0)
(0.0565101 0.125224 0)
(0.0477141 0.124808 0)
(0.0385394 0.12267 0)
(0.0299762 0.12031 0)
(0.0222963 0.118338 0)
(0.015387 0.116903 0)
(0.00900992 0.115972 0)
(0.00292761 0.115501 0)
(-0.00306522 0.115491 0)
(-0.00914386 0.115934 0)
(-0.015505 0.116852 0)
(-0.0223856 0.118278 0)
(-0.030018 0.12024 0)
(-0.0385133 0.122607 0)
(-0.0476075 0.124795 0)
(-0.0563383 0.125309 0)
(-0.0627906 0.121556 0)
(-0.0656393 0.109541 0)
(-0.0655454 0.0860825 0)
(-0.0634611 0.0532203 0)
(-0.0589962 0.0139553 0)
(-0.0479798 -0.0315809 0)
(-0.0297969 -0.077448 0)
(0.0268394 -0.0748218 0)
(0.0452061 -0.0196359 0)
(0.0550534 0.0328152 0)
(0.0558219 0.0776979 0)
(0.0538964 0.113887 0)
(0.052536 0.139274 0)
(0.0507809 0.152965 0)
(0.0466489 0.157234 0)
(0.0405218 0.156847 0)
(0.0333648 0.15442 0)
(0.0263737 0.151703 0)
(0.019832 0.149374 0)
(0.0137777 0.147648 0)
(0.00809117 0.146525 0)
(0.00262043 0.145975 0)
(-0.00278066 0.145955 0)
(-0.00824446 0.146495 0)
(-0.0139103 0.147578 0)
(-0.0199308 0.149285 0)
(-0.0264129 0.151584 0)
(-0.0333099 0.154295 0)
(-0.0403419 0.156739 0)
(-0.0462592 0.157195 0)
(-0.0502316 0.1531 0)
(-0.0518318 0.139737 0)
(-0.0532409 0.114732 0)
(-0.0556433 0.0788634 0)
(-0.055318 0.0335061 0)
(-0.0455868 -0.020086 0)
(-0.027221 -0.0763825 0)
(0.021432 -0.074915 0)
(0.0385288 -0.0098499 0)
(0.0473585 0.0512209 0)
(0.0456598 0.101479 0)
(0.0398978 0.14059 0)
(0.0375612 0.166887 0)
(0.0371852 0.181672 0)
(0.0354583 0.186469 0)
(0.0325314 0.186674 0)
(0.0276108 0.184341 0)
(0.022329 0.181534 0)
(0.017075 0.179048 0)
(0.0119867 0.177139 0)
(0.00707567 0.175893 0)
(0.00228295 0.175277 0)
(-0.00246653 0.175264 0)
(-0.00725197 0.175839 0)
(-0.0121445 0.177062 0)
(-0.0171977 0.178921 0)
(-0.0223905 0.181371 0)
(-0.0275772 0.184134 0)
(-0.0323079 0.186431 0)
(-0.0349845 0.186204 0)
(-0.0363633 0.181567 0)
(-0.0362892 0.167116 0)
(-0.0381791 0.141375 0)
(-0.0441407 0.102837 0)
(-0.046209 0.0529397 0)
(-0.0379197 -0.00979755 0)
(-0.0210789 -0.0764661 0)
(0.0126209 -0.0748844 0)
(0.0273057 -0.00148892 0)
(0.0351658 0.0670986 0)
(0.0322653 0.123009 0)
(0.0248541 0.16438 0)
(0.0228455 0.191395 0)
(0.0240839 0.2069 0)
(0.0250615 0.212905 0)
(0.0241622 0.213725 0)
(0.0217525 0.212037 0)
(0.0181912 0.209395 0)
(0.0142494 0.206955 0)
(0.0101572 0.205046 0)
(0.00604289 0.203765 0)
(0.00194211 0.203117 0)
(-0.00214936 0.203097 0)
(-0.00624537 0.203712 0)
(-0.0103467 0.204949 0)
(-0.0144132 0.206809 0)
(-0.0183059 0.209182 0)
(-0.0217716 0.211749 0)
(-0.0240099 0.213318 0)
(-0.02469 0.212435 0)
(-0.0233074 0.206411 0)
(-0.0214356 0.1911 0)
(-0.0226509 0.164572 0)
(-0.0294567 0.124024 0)
(-0.0328764 0.067847 0)
(-0.0252213 -0.000639144 0)
(-0.01156 -0.0757491 0)
(0.00440002 -0.0724701 0)
(0.0152924 0.00509907 0)
(0.0227365 0.0807092 0)
(0.0186731 0.142052 0)
(0.0119793 0.184705 0)
(0.0105149 0.212576 0)
(0.013031 0.229002 0)
(0.0157628 0.236493 0)
(0.0168379 0.23827 0)
(0.016204 0.237306 0)
(0.014277 0.235144 0)
(0.0115437 0.232919 0)
(0.008402 0.231108 0)
(0.00505359 0.229867 0)
(0.00161654 0.229218 0)
(-0.00184518 0.229201 0)
(-0.00528196 0.22981 0)
(-0.0086275 0.231008 0)
(-0.0117589 0.23276 0)
(-0.0144697 0.234908 0)
(-0.0163407 0.236952 0)
(-0.0168726 0.237774 0)
(-0.0156233 0.235813 0)
(-0.012585 0.228148 0)
(-0.00949642 0.211658 0)
(-0.0100631 0.184068 0)
(-0.0156688 0.142558 0)
(-0.0192232 0.0824029 0)
(-0.0125868 0.00627202 0)
(-0.00263924 -0.0717576 0)
(0.000318389 -0.0685998 0)
(0.00895428 0.00757509 0)
(0.0122303 0.0937208 0)
(0.00870112 0.158092 0)
(0.00305331 0.201901 0)
(0.0016469 0.23091 0)
(0.00454946 0.248465 0)
(0.00819477 0.257324 0)
(0.010635 0.260373 0)
(0.0113906 0.260219 0)
(0.0107388 0.258684 0)
(0.00906682 0.256808 0)
(0.00677421 0.255185 0)
(0.00413057 0.254045 0)
(0.00131315 0.253471 0)
(-0.00155926 0.253455 0)
(-0.00438138 0.253994 0)
(-0.00703272 0.255089 0)
(-0.00933572 0.256657 0)
(-0.0110155 0.258448 0)
(-0.0116687 0.259856 0)
(-0.0108935 0.259828 0)
(-0.00840695 0.256522 0)
(-0.00463025 0.247346 0)
(-0.00141558 0.229459 0)
(-0.00213671 0.20048 0)
(-0.00655943 0.157697 0)
(-0.00813631 0.09519 0)
(-0.00580913 0.00862031 0)
(0.00156642 -0.0659015 0)
(0.00147027 -0.0682135 0)
(0.00732814 0.0110653 0)
(0.00726042 0.103705 0)
(0.00359223 0.171419 0)
(-0.00178035 0.216863 0)
(-0.00375977 0.24703 0)
(-0.00139247 0.265769 0)
(0.0024317 0.275884 0)
(0.00560957 0.280122 0)
(0.00733116 0.280898 0)
(0.00763562 0.280009 0)
(0.00683594 0.278566 0)
(0.00527658 0.277183 0)
(0.0032702 0.276168 0)
(0.00102834 0.275651 0)
(-0.00128638 0.275638 0)
(-0.00353596 0.276126 0)
(-0.00556071 0.277106 0)
(-0.00714956 0.27844 0)
(-0.00799142 0.279809 0)
(-0.007747 0.280578 0)
(-0.00610379 0.279616 0)
(-0.00302529 0.275089 0)
(0.000695173 0.264567 0)
(0.00306038 0.245283 0)
(0.00129654 0.21452 0)
(-0.00273964 0.169374 0)
(-0.00399647 0.104044 0)
(-0.0012294 0.0157802 0)
(0.00221821 -0.066476 0)
(0.00757909 -0.0763178 0)
(0.00800038 0.0135571 0)
(0.00543541 0.111702 0)
(0.00219365 0.182547 0)
(-0.00339066 0.23018 0)
(-0.00644243 0.261563 0)
(-0.00510616 0.28127 0)
(-0.00169047 0.292435 0)
(0.00168262 0.297728 0)
(0.0039673 0.299395 0)
(0.00494853 0.299166 0)
(0.00483028 0.298166 0)
(0.00390737 0.297057 0)
(0.00247216 0.296188 0)
(0.000765142 0.295729 0)
(-0.0010263 0.29572 0)
(-0.002744 0.29616 0)
(-0.00420431 0.297005 0)
(-0.00517215 0.298083 0)
(-0.00536165 0.299029 0)
(-0.00449344 0.299168 0)
(-0.0023782 0.297343 0)
(0.000744264 0.291783 0)
(0.00381009 0.280168 0)
(0.00466766 0.25974 0)
(0.00147456 0.22754 0)
(-0.00333908 0.179054 0)
(-0.00515959 0.109483 0)
(-0.00175322 0.0185531 0)
(-0.00276598 -0.0738497 0)
(0.00845326 -0.0837077 0)
(0.00702189 0.0139463 0)
(0.00234898 0.118135 0)
(0.00112674 0.193295 0)
(-0.00372384 0.243146 0)
(-0.0072754 0.27485 0)
(-0.00709833 0.295178 0)
(-0.00440362 0.307145 0)
(-0.0012459 0.313319 0)
(0.00124622 0.315793 0)
(0.00266387 0.316195 0)
(0.00306263 0.315637 0)
(0.00266965 0.314814 0)
(0.00174497 0.314109 0)
(0.000527604 0.31372 0)
(-0.000782294 0.313716 0)
(-0.00201133 0.314097 0)
(-0.00296391 0.314793 0)
(-0.00340771 0.315605 0)
(-0.00309905 0.316143 0)
(-0.00182926 0.315701 0)
(0.000418957 0.31314 0)
(0.0031756 0.306778 0)
(0.00519539 0.294407 0)
(0.004264 0.273242 0)
(-0.000865887 0.23967 0)
(-0.00677315 0.187943 0)
(-0.00896856 0.113706 0)
(-0.0110621 0.0162623 0)
(-0.00809807 -0.0793102 0)
(0.00103309 -0.0874754 0)
(0.00286827 0.0135427 0)
(0.000163556 0.122383 0)
(-0.00101763 0.202609 0)
(-0.00382982 0.253773 0)
(-0.00725946 0.286785 0)
(-0.00779884 0.30756 0)
(-0.00594492 0.320117 0)
(-0.00325379 0.327006 0)
(-0.000840527 0.330184 0)
(0.000787799 0.331167 0)
(0.00154826 0.331039 0)
(0.00157977 0.330504 0)
(0.00109468 0.329972 0)
(0.000317342 0.329661 0)
(-0.000555928 0.329661 0)
(-0.00134338 0.329974 0)
(-0.00185182 0.330511 0)
(-0.00186883 0.331059 0)
(-0.00119523 0.331207 0)
(0.000280315 0.330252 0)
(0.00242267 0.327097 0)
(0.00461776 0.320201 0)
(0.00554263 0.307494 0)
(0.00320076 0.286205 0)
(-0.00309633 0.251991 0)
(-0.00842682 0.197121 0)
(-0.0095109 0.116919 0)
(-0.0156407 0.0109021 0)
(-0.0144295 -0.0868385 0)
(-0.00798432 -0.0865202 0)
(-0.00503986 0.0188012 0)
(-0.00155103 0.126845 0)
(-0.00244416 0.210072 0)
(-0.00407777 0.264062 0)
(-0.0062989 0.29714 0)
(-0.00740781 0.318359 0)
(-0.00643398 0.331428 0)
(-0.00439687 0.338901 0)
(-0.00228828 0.342677 0)
(-0.000660257 0.344183 0)
(0.00030248 0.344457 0)
(0.000647583 0.3442 0)
(0.000528993 0.343839 0)
(0.000135271 0.343608 0)
(-0.000349975 0.343611 0)
(-0.000749604 0.34385 0)
(-0.000881822 0.344227 0)
(-0.000566646 0.344516 0)
(0.000337969 0.344302 0)
(0.00185628 0.342896 0)
(0.00375438 0.33928 0)
(0.00536875 0.332052 0)
(0.00548064 0.319316 0)
(0.00257542 0.298354 0)
(-0.00264587 0.264107 0)
(-0.00592006 0.206835 0)
(-0.00815674 0.119218 0)
(-0.0128461 0.00808885 0)
(-0.0077541 -0.0933216 0)
(-0.0141587 -0.0845499 0)
(-0.00997687 0.0246689 0)
(-0.00442829 0.134829 0)
(-0.00299679 0.215096 0)
(-0.00234575 0.270586 0)
(-0.00408144 0.305768 0)
(-0.00576737 0.327702 0)
(-0.00588027 0.341236 0)
(-0.00470743 0.34918 0)
(-0.00310947 0.353433 0)
(-0.00167005 0.35538 0)
(-0.000660878 0.356012 0)
(-0.000115347 0.356015 0)
(5.12033e-05 0.355817 0)
(-1.91293e-05 0.355664 0)
(-0.00016916 0.355666 0)
(-0.000238813 0.355829 0)
(-6.93007e-05 0.356046 0)
(0.000477262 0.356085 0)
(0.00148459 0.355533 0)
(0.00291016 0.353736 0)
(0.00447005 0.349751 0)
(0.00553825 0.342283 0)
(0.00514308 0.329559 0)
(0.00268912 0.3088 0)
(-8.54747e-05 0.274178 0)
(-0.00282309 0.215184 0)
(-0.00660262 0.121374 0)
(-0.00457159 0.00315906 0)
(0.00414001 -0.0891777 0)
(-0.00976797 -0.0765232 0)
(-0.00922547 0.0341602 0)
(-0.00104113 0.138253 0)
(0.001985 0.217506 0)
(0.00169588 0.275794 0)
(-0.000609123 0.313597 0)
(-0.00316209 0.33616 0)
(-0.00443894 0.349929 0)
(-0.00428896 0.358118 0)
(-0.00336103 0.36268 0)
(-0.002264 0.364953 0)
(-0.00133823 0.365876 0)
(-0.000699396 0.3661 0)
(-0.000331292 0.366049 0)
(-0.000145552 0.365968 0)
(-2.05025e-05 0.365967 0)
(0.000173761 0.366047 0)
(0.000561463 0.366106 0)
(0.00123769 0.365914 0)
(0.00222973 0.365065 0)
(0.00343767 0.362934 0)
(0.00455461 0.358642 0)
(0.00503535 0.350959 0)
(0.00428701 0.338112 0)
(0.00246222 0.317327 0)
(0.00192652 0.282165 0)
(0.000817423 0.222317 0)
(-0.0010413 0.129524 0)
(0.00380459 0.0105778 0)
(0.0145906 -0.0866945 0)
(-0.00051879 -0.073298 0)
(0.00842444 0.0315459 0)
(0.0185278 0.133126 0)
(0.0136346 0.221097 0)
(0.00839069 0.283131 0)
(0.00414632 0.321697 0)
(5.48771e-06 0.344287 0)
(-0.00243663 0.357929 0)
(-0.00333643 0.36607 0)
(-0.00315942 0.370719 0)
(-0.00249713 0.373169 0)
(-0.00175366 0.374294 0)
(-0.00111528 0.374707 0)
(-0.000621493 0.37478 0)
(-0.00024581 0.374757 0)
(9.05438e-05 0.374751 0)
(0.000482077 0.374761 0)
(0.00101293 0.374682 0)
(0.00172192 0.374275 0)
(0.0025779 0.373162 0)
(0.00344915 0.370777 0)
(0.00400736 0.36628 0)
(0.00379465 0.358459 0)
(0.00255078 0.345484 0)
(0.000951377 0.323928 0)
(0.000808782 0.286714 0)
(0.00140082 0.22749 0)
(0.0051875 0.143613 0)
(0.00967665 0.0236003 0)
(0.0189028 -0.0836771 0)
(0.0117462 -0.0670449 0)
(0.0336078 0.0195264 0)
(0.0326069 0.128147 0)
(0.0260529 0.21786 0)
(0.0178479 0.28858 0)
(0.0103023 0.330885 0)
(0.00349404 0.352948 0)
(-0.000276339 0.365827 0)
(-0.00214573 0.373483 0)
(-0.00267724 0.37792 0)
(-0.00246517 0.380356 0)
(-0.00194368 0.381578 0)
(-0.00135275 0.382103 0)
(-0.000810769 0.382281 0)
(-0.000319966 0.382314 0)
(0.000154301 0.382295 0)
(0.00066112 0.382222 0)
(0.00123736 0.382 0)
(0.00189037 0.381429 0)
(0.00256332 0.380159 0)
(0.00303238 0.377657 0)
(0.00297676 0.373141 0)
(0.0020266 0.365433 0)
(8.68368e-05 0.352523 0)
(-0.00237867 0.330466 0)
(-0.00392048 0.291613 0)
(-0.00603664 0.229672 0)
(-0.00303913 0.144442 0)
(0.00466049 0.0326817 0)
(0.00943832 -0.078281 0)
(0.0216188 -0.076459 0)
(0.0328985 0.00667008 0)
(0.0316395 0.123735 0)
(0.0242164 0.224813 0)
(0.0174914 0.299282 0)
(0.0115976 0.342245 0)
(0.00518534 0.362772 0)
(0.0010354 0.374058 0)
(-0.0012368 0.380696 0)
(-0.00219515 0.384602 0)
(-0.00231355 0.386826 0)
(-0.00197564 0.38799 0)
(-0.00147629 0.388527 0)
(-0.000924685 0.388739 0)
(-0.000375543 0.388792 0)
(0.000172169 0.388764 0)
(0.000734651 0.388652 0)
(0.00131401 0.388364 0)
(0.00186945 0.387725 0)
(0.00230199 0.386431 0)
(0.00236753 0.383988 0)
(0.00174503 0.379702 0)
(8.05883e-05 0.372405 0)
(-0.00289074 0.35997 0)
(-0.00770104 0.338059 0)
(-0.0131083 0.296632 0)
(-0.0239961 0.227362 0)
(-0.0300393 0.134065 0)
(-0.0233003 0.0238993 0)
(-0.00163832 -0.0749835 0)
(0.0111562 -0.0843268 0)
(0.0176191 -0.00354288 0)
(0.020874 0.114495 0)
(0.0219928 0.231475 0)
(0.0135922 0.309141 0)
(0.00835794 0.353049 0)
(0.00451261 0.372454 0)
(0.00100919 0.382167 0)
(-0.00097479 0.38769 0)
(-0.00194111 0.390951 0)
(-0.0021744 0.392821 0)
(-0.00196986 0.393835 0)
(-0.00153029 0.394348 0)
(-0.000990856 0.39457 0)
(-0.000417252 0.394631 0)
(0.000163968 0.394599 0)
(0.000738113 0.39447 0)
(0.00127948 0.394158 0)
(0.00172854 0.393516 0)
(0.00194421 0.392291 0)
(0.00170281 0.390091 0)
(0.000698797 0.386313 0)
(-0.00144767 0.379864 0)
(-0.00523916 0.368696 0)
(-0.0115285 0.348314 0)
(-0.0188101 0.303318 0)
(-0.0266674 0.229188 0)
(-0.0337489 0.129501 0)
(-0.0352331 0.0152598 0)
(-0.0174284 -0.0694188 0)
(0.00396917 -0.0817321 0)
(0.00761599 -0.0211611 0)
(0.018731 0.113661 0)
(0.0206132 0.238853 0)
(0.0101997 0.318398 0)
(0.00417195 0.362278 0)
(0.00244474 0.380852 0)
(7.88018e-05 0.389545 0)
(-0.00129607 0.394257 0)
(-0.00200267 0.396909 0)
(-0.00216577 0.398444 0)
(-0.00196488 0.39931 0)
(-0.0015454 0.399765 0)
(-0.0010171 0.399977 0)
(-0.000444689 0.400042 0)
(0.000135878 0.400012 0)
(0.00069529 0.399876 0)
(0.00119448 0.399577 0)
(0.00156061 0.398998 0)
(0.00164923 0.397944 0)
(0.00129466 0.396123 0)
(0.0002696 0.393004 0)
(-0.0017129 0.38767 0)
(-0.00511462 0.378136 0)
(-0.00955652 0.358511 0)
(-0.0159236 0.313271 0)
(-0.0223194 0.235514 0)
(-0.0244333 0.121674 0)
(-0.0238834 0.000733463 0)
(-0.0143309 -0.0808166 0)
(6.92599e-05 -0.0816839 0)
(0.017128 -0.0311644 0)
(0.0163422 0.122171 0)
(0.0163987 0.251533 0)
(0.00674827 0.328652 0)
(0.000815061 0.370011 0)
(-4.25594e-05 0.387904 0)
(-0.00118346 0.396028 0)
(-0.00195038 0.400214 0)
(-0.00225477 0.402486 0)
(-0.00224375 0.403765 0)
(-0.00198125 0.404489 0)
(-0.00154977 0.404879 0)
(-0.00102568 0.405068 0)
(-0.000462549 0.405133 0)
(0.000103065 0.40511 0)
(0.000639506 0.404993 0)
(0.00110488 0.404739 0)
(0.00143201 0.404264 0)
(0.00151916 0.403423 0)
(0.00126012 0.401988 0)
(0.000505036 0.3995 0)
(-0.000897176 0.395035 0)
(-0.00321 0.386636 0)
(-0.00527083 0.368089 0)
(-0.0122733 0.322669 0)
(-0.0206834 0.242268 0)
(-0.0146483 0.11015 0)
(-0.0100213 -0.0118692 0)
(-0.00332001 -0.0791444 0)
(-0.00499862 -0.0821302 0)
(0.0133467 -0.0177561 0)
(0.01068 0.144419 0)
(0.00890835 0.268068 0)
(0.00231879 0.340003 0)
(-0.00177443 0.376743 0)
(-0.0023185 0.393854 0)
(-0.00244996 0.401711 0)
(-0.00262243 0.405684 0)
(-0.00257698 0.40776 0)
(-0.00236178 0.408847 0)
(-0.00200512 0.40944 0)
(-0.00154356 0.409763 0)
(-0.00101963 0.40993 0)
(-0.00046947 0.409997 0)
(7.74677e-05 0.409987 0)
(0.000593959 0.409899 0)
(0.0010466 0.409707 0)
(0.00139017 0.409347 0)
(0.00156469 0.408707 0)
(0.00150357 0.407569 0)
(0.00114134 0.405487 0)
(0.000367118 0.401574 0)
(-0.000820361 0.393797 0)
(-0.00197724 0.375815 0)
(-0.00885842 0.332302 0)
(-0.0177522 0.251451 0)
(-0.0158277 0.112681 0)
(-0.0103947 -0.0328975 0)
(-0.000438352 -0.0774763 0)
(-0.00383001 -0.0906716 0)
(0.0144544 0.00819367 0)
(0.00292712 0.176292 0)
(0.000747527 0.286652 0)
(-0.00181247 0.350147 0)
(-0.0035302 0.382487 0)
(-0.00390199 0.398916 0)
(-0.00346242 0.40676 0)
(-0.00318721 0.410702 0)
(-0.0028638 0.412699 0)
(-0.00246856 0.413725 0)
(-0.00201948 0.414256 0)
(-0.0015221 0.41454 0)
(-0.000994784 0.414689 0)
(-0.000457604 0.414758 0)
(6.98393e-05 0.414765 0)
(0.000572694 0.414711 0)
(0.00103004 0.414579 0)
(0.00141413 0.414321 0)
(0.00169451 0.413828 0)
(0.00184373 0.412879 0)
(0.00183256 0.411006 0)
(0.00165424 0.407299 0)
(0.00136307 0.39979 0)
(0.000451351 0.382623 0)
(-0.00464641 0.343204 0)
(-0.0122167 0.26528 0)
(-0.0136733 0.126914 0)
(-0.0181004 -0.0350925 0)
(0.00248322 -0.0787662 0)
(0.0151745 -0.104057 0)
(0.0168201 0.0123623 0)
(0.00112175 0.186449 0)
(-0.000760973 0.297666 0)
(-0.00323577 0.357493 0)
(-0.00419296 0.387583 0)
(-0.00452616 0.403436 0)
(-0.00401309 0.411367 0)
(-0.00348927 0.415364 0)
(-0.00300008 0.417396 0)
(-0.00249738 0.418436 0)
(-0.00198695 0.418969 0)
(-0.00146784 0.419251 0)
(-0.000944433 0.419404 0)
(-0.000425545 0.419483 0)
(7.89693e-05 0.419508 0)
(0.000567191 0.419481 0)
(0.00103025 0.41939 0)
(0.00145565 0.419185 0)
(0.00183356 0.418758 0)
(0.002159 0.417877 0)
(0.00242735 0.416072 0)
(0.00269114 0.412383 0)
(0.0029633 0.404913 0)
(0.00237499 0.388667 0)
(0.000124177 0.35443 0)
(-0.00380787 0.284246 0)
(-0.00641201 0.157683 0)
(-0.0162352 -0.015271 0)
(0.0060142 -0.0782397 0)
(0.0183341 -0.120092 0)
(0.0133237 0.012807 0)
(-0.000427406 0.192348 0)
(-0.00099113 0.305813 0)
(-0.00314922 0.363462 0)
(-0.0039718 0.392516 0)
(-0.0043552 0.407802 0)
(-0.00401803 0.415742 0)
(-0.00346923 0.419815 0)
(-0.00292693 0.421913 0)
(-0.00239438 0.423001 0)
(-0.00187054 0.423571 0)
(-0.00136005 0.423882 0)
(-0.00086025 0.424054 0)
(-0.000372299 0.424151 0)
(9.99413e-05 0.424191 0)
(0.000564659 0.424179 0)
(0.00102158 0.424102 0)
(0.00146734 0.423907 0)
(0.00190123 0.423481 0)
(0.0023271 0.422584 0)
(0.00276418 0.420728 0)
(0.00324307 0.416982 0)
(0.00367933 0.409434 0)
(0.00347937 0.393935 0)
(0.00336921 0.363247 0)
(0.00194972 0.300596 0)
(-0.000243235 0.18426 0)
(-0.015985 0.00629506 0)
(0.000679031 -0.0816218 0)
(0.00435092 -0.12834 0)
(0.00591567 0.00861255 0)
(-0.000636603 0.197113 0)
(-0.00209388 0.312183 0)
(-0.00303559 0.369354 0)
(-0.00360518 0.397565 0)
(-0.00382625 0.412283 0)
(-0.00361616 0.420078 0)
(-0.00315214 0.424175 0)
(-0.00264409 0.426325 0)
(-0.00214671 0.427462 0)
(-0.00166026 0.428079 0)
(-0.00119167 0.428423 0)
(-0.00073779 0.42862 0)
(-0.000298051 0.428732 0)
(0.000128325 0.428783 0)
(0.000553783 0.428774 0)
(0.000982583 0.428695 0)
(0.00141423 0.428492 0)
(0.00185066 0.428046 0)
(0.0022937 0.427108 0)
(0.00277022 0.425183 0)
(0.0032216 0.421348 0)
(0.00351813 0.413735 0)
(0.00344312 0.398636 0)
(0.00323538 0.369239 0)
(0.00207068 0.310084 0)
(-0.000891329 0.196088 0)
(-0.014595 0.0133987 0)
(-0.0101734 -0.090987 0)
(-0.0056059 -0.130814 0)
(0.00180739 0.00580422 0)
(-0.000290311 0.201599 0)
(-0.00334603 0.318376 0)
(-0.00338452 0.374962 0)
(-0.00335084 0.402613 0)
(-0.00325675 0.416903 0)
(-0.00302024 0.424496 0)
(-0.00263686 0.428562 0)
(-0.00220345 0.430735 0)
(-0.00178047 0.431906 0)
(-0.00136812 0.432552 0)
(-0.000969828 0.432917 0)
(-0.000583187 0.433129 0)
(-0.000207873 0.433254 0)
(0.00015794 0.43331 0)
(0.000527404 0.433301 0)
(0.000905098 0.433218 0)
(0.001289 0.433002 0)
(0.00167732 0.432533 0)
(0.00206613 0.431561 0)
(0.0024575 0.429595 0)
(0.00272129 0.425751 0)
(0.00275716 0.418229 0)
(0.00254681 0.403533 0)
(0.0021769 0.374835 0)
(0.00064698 0.317477 0)
(-0.0023874 0.204597 0)
(-0.0110871 0.0205308 0)
(-0.00936213 -0.0997299 0)
(-0.013714 -0.134401 0)
(-0.00213896 0.0125572 0)
(-0.00172144 0.207113 0)
(-0.00586197 0.322844 0)
(-0.00445211 0.379733 0)
(-0.00329095 0.407297 0)
(-0.00262501 0.42148 0)
(-0.00226352 0.428998 0)
(-0.00195011 0.433038 0)
(-0.00163042 0.43522 0)
(-0.00131971 0.436404 0)
(-0.00101418 0.43706 0)
(-0.00071006 0.437432 0)
(-0.000407412 0.43765 0)
(-0.000109767 0.437779 0)
(0.000184278 0.437836 0)
(0.000484668 0.437825 0)
(0.000792181 0.437737 0)
(0.00110032 0.437512 0)
(0.00140414 0.437032 0)
(0.00169268 0.436057 0)
(0.00193318 0.434106 0)
(0.00199137 0.430363 0)
(0.00183771 0.423056 0)
(0.00148607 0.40884 0)
(0.000703201 0.380902 0)
(-0.000774919 0.324503 0)
(-0.00349149 0.21177 0)
(-0.00655477 0.0257663 0)
(-0.00429223 -0.10574 0)
(-0.0170728 -0.129833 0)
(-0.00647293 0.0321679 0)
(-0.00526783 0.215075 0)
(-0.00731519 0.326886 0)
(-0.00528237 0.382901 0)
(-0.00290333 0.411228 0)
(-0.00172211 0.425871 0)
(-0.00127921 0.43356 0)
(-0.00109457 0.437642 0)
(-0.000944303 0.439833 0)
(-0.000788121 0.441015 0)
(-0.000618093 0.441664 0)
(-0.000428427 0.442029 0)
(-0.000223391 0.442241 0)
(-1.18169e-05 0.442365 0)
(0.000203883 0.442419 0)
(0.000426522 0.442399 0)
(0.000652632 0.442306 0)
(0.000872862 0.442083 0)
(0.00107902 0.441618 0)
(0.00125267 0.44068 0)
(0.00133956 0.438817 0)
(0.00125103 0.435266 0)
(0.00100528 0.428254 0)
(0.000534998 0.414534 0)
(-0.000232278 0.387135 0)
(-0.00145631 0.33094 0)
(-0.00367409 0.218751 0)
(-0.00391297 0.0314014 0)
(0.000488663 -0.111783 0)
(-0.0105823 -0.117179 0)
(-0.0113365 0.0584603 0)
(-0.0132527 0.231708 0)
(-0.00914312 0.330031 0)
(-0.00454566 0.384507 0)
(-0.00104506 0.41438 0)
(-1.14433e-05 0.43026 0)
(7.91223e-05 0.438325 0)
(-5.03239e-05 0.442484 0)
(-0.000167611 0.444653 0)
(-0.00021466 0.445788 0)
(-0.000203333 0.446399 0)
(-0.000141205 0.446736 0)
(-4.17054e-05 0.446928 0)
(7.92653e-05 0.447038 0)
(0.0002133 0.44708 0)
(0.000353596 0.447054 0)
(0.00049398 0.446964 0)
(0.000621884 0.446756 0)
(0.000727269 0.446321 0)
(0.00078658 0.445446 0)
(0.00074103 0.443708 0)
(0.000562946 0.440359 0)
(0.000280876 0.433622 0)
(-0.000148744 0.420246 0)
(-0.000649388 0.393113 0)
(-0.00142953 0.336942 0)
(-0.00330601 0.225138 0)
(-0.00235253 0.0379457 0)
(0.00224314 -0.119273 0)
(-0.00540327 -0.106196 0)
(-0.0115594 0.0751434 0)
(-0.0137634 0.240204 0)
(-0.00118296 0.327572 0)
(0.00344724 0.384607 0)
(0.00276473 0.418323 0)
(0.00289568 0.4353 0)
(0.00188805 0.443637 0)
(0.00112389 0.447699 0)
(0.000631492 0.44972 0)
(0.00034695 0.450757 0)
(0.000193618 0.451282 0)
(0.000129814 0.451561 0)
(0.000124761 0.451715 0)
(0.000155922 0.4518 0)
(0.000209464 0.451826 0)
(0.000267932 0.451799 0)
(0.000322532 0.451715 0)
(0.000363448 0.451525 0)
(0.000374554 0.451134 0)
(0.00033097 0.450338 0)
(0.000172133 0.448742 0)
(-8.53066e-05 0.445564 0)
(-0.000429466 0.439038 0)
(-0.000889169 0.425843 0)
(-0.00144996 0.398717 0)
(-0.00225556 0.342395 0)
(-0.0026103 0.231903 0)
(-0.00202445 0.0452054 0)
(0.000848042 -0.124351 0)
(-0.00041666 -0.0983272 0)
(0.0052362 0.0741572 0)
(0.0226449 0.222187 0)
(0.0233538 0.321215 0)
(0.0172058 0.384264 0)
(0.0104769 0.423173 0)
(0.00641002 0.44208 0)
(0.00374137 0.44988 0)
(0.00220942 0.453451 0)
(0.00132283 0.455165 0)
(0.000811471 0.45592 0)
(0.000521 0.456305 0)
(0.000354484 0.456494 0)
(0.000258915 0.456593 0)
(0.000210289 0.456642 0)
(0.000191479 0.456651 0)
(0.000174837 0.456625 0)
(0.000152213 0.456551 0)
(0.000115868 0.456392 0)
(4.34147e-05 0.456058 0)
(-9.2867e-05 0.455355 0)
(-0.000355079 0.453902 0)
(-0.000718439 0.450888 0)
(-0.00121365 0.444552 0)
(-0.00192658 0.431509 0)
(-0.00302933 0.404305 0)
(-0.00431118 0.347108 0)
(-0.00404162 0.235651 0)
(-0.00383108 0.0479924 0)
(-0.00132474 -0.126079 0)
(0.00575805 -0.0809856 0)
(0.029827 0.0781988 0)
(0.0342518 0.213652 0)
(0.0298919 0.315948 0)
(0.0216122 0.383929 0)
(0.0162091 0.428292 0)
(0.00757457 0.450594 0)
(0.00454293 0.457054 0)
(0.00264991 0.459634 0)
(0.00165934 0.460718 0)
(0.00109357 0.461239 0)
(0.000732062 0.461432 0)
(0.000504782 0.461512 0)
(0.000347462 0.461547 0)
(0.000238306 0.461552 0)
(0.000161145 0.461547 0)
(8.36615e-05 0.461525 0)
(-2.96726e-06 0.461469 0)
(-0.000104859 0.461349 0)
(-0.000247971 0.461082 0)
(-0.000467305 0.460485 0)
(-0.000816623 0.459191 0)
(-0.00130172 0.456376 0)
(-0.00202344 0.450328 0)
(-0.00319935 0.437588 0)
(-0.00534137 0.410641 0)
(-0.00761949 0.353179 0)
(-0.0105183 0.236276 0)
(-0.0109314 0.0451784 0)
(-0.0033924 -0.124883 0)
(0.00189342 -0.0602417 0)
(0.0216519 0.0725124 0)
(0.0245451 0.206824 0)
(0.0218703 0.319407 0)
(0.0173993 0.391359 0)
(0.0125299 0.438874 0)
(0.00541777 0.459021 0)
(0.00381837 0.464028 0)
(0.00248363 0.46567 0)
(0.00166963 0.466322 0)
(0.00115334 0.466573 0)
(0.000813566 0.466606 0)
(0.000572609 0.466583 0)
(0.000387247 0.466554 0)
(0.000241599 0.466524 0)
(0.000122258 0.466507 0)
(5.92326e-07 0.466491 0)
(-0.000133857 0.466458 0)
(-0.000287624 0.466381 0)
(-0.000484314 0.466187 0)
(-0.000764806 0.465708 0)
(-0.00117137 0.464596 0)
(-0.00174753 0.462029 0)
(-0.00262859 0.456395 0)
(-0.00418775 0.444228 0)
(-0.0070015 0.41811 0)
(-0.00964454 0.357175 0)
(-0.0152072 0.23353 0)
(-0.0179905 0.0426932 0)
(-0.00689261 -0.120717 0)
(-0.00738363 -0.0353868 0)
(0.00566577 0.063165 0)
(0.0105952 0.202711 0)
(0.0110725 0.322824 0)
(0.0139044 0.403664 0)
(0.00408339 0.449768 0)
(0.0026316 0.465857 0)
(0.00228331 0.470083 0)
(0.00183254 0.471422 0)
(0.00140107 0.471827 0)
(0.00104894 0.471835 0)
(0.000787263 0.471765 0)
(0.000571953 0.471672 0)
(0.000386671 0.471597 0)
(0.000225705 0.471544 0)
(7.93742e-05 0.471521 0)