/*--------------------------------*- C++ -*----------------------------------*\
| =========                 |                                                 |
| \\      /  F ield         | OpenFOAM: The Open Source CFD Toolbox           |
|  \\    /   O peration     | Version:  2.3.0                                 |
|   \\  /    A nd           | Web:      www.OpenFOAM.org                      |
|    \\/     M anipulation  |                                                 |
\*---------------------------------------------------------------------------*/
FoamFile
{
    version     2.0;
    format      ascii;
    class       volVectorField;
    location    "0.004";
    object      U;
}
// * * * * * * * * * * * * * * * * * * * * * * * * * * * * * * * * * * * * * //

dimensions      [0 1 -1 0 0 0 0];

internalField   nonuniform List<vector> 
545
(
(0.213548 0.0213187 -8.82905e-30)
(0.191828 0.0103747 1.63751e-30)
(0.158317 0.00381395 1.26672e-30)
(0.129959 0.00242777 0)
(0.101521 0.00555213 -7.60342e-31)
(0.374704 0.0473542 -5.2595e-29)
(0.398958 0.0386784 7.39408e-30)
(0.363789 0.0273122 4.79806e-30)
(0.312547 0.0245879 0)
(0.250952 0.0346096 1.13793e-30)
(0.412315 0.0372172 -2.76291e-29)
(0.458924 0.0474203 1.18732e-30)
(0.432352 0.0463418 -1.41746e-30)
(0.382048 0.0489685 0)
(0.316199 0.072574 9.7489e-30)
(0.371167 0.0192629 2.68152e-29)
(0.388283 0.0428953 1.28311e-30)
(0.357396 0.0500686 -1.16182e-29)
(0.319793 0.0566161 0)
(0.280186 0.0997091 5.10815e-29)
(0.207187 0.0122777 3.04725e-29)
(0.178653 0.0277093 -2.04657e-30)
(0.1534 0.0285907 -5.61527e-30)
(0.143667 0.0308251 -5.82081e-30)
(0.182541 0.0658695 3.61546e-29)
(0.0842013 -0.00278507 0)
(0.0562394 0.0057381 0)
(0.0285096 0.00255295 0)
(0.0294399 -0.00466387 0)
(0.10098 -0.0292864 0)
(0.194221 -0.00120149 0)
(0.195516 0.017962 0)
(0.124052 -0.00257242 0)
(0.127677 0.00148193 0)
(0.116314 0.00349496 0)
(0.0884953 0.00301469 0)
(0.0700345 0.00159006 0)
(0.0620027 0.000695754 0)
(0.0586324 0.000274732 0)
(0.0565946 0.000287306 0)
(0.0549885 0.000128361 0)
(0.0541712 5.15725e-05 0)
(0.0540806 -1.18911e-05 0)
(0.0544658 -5.04647e-05 0)
(0.0549758 -5.92641e-05 0)
(0.0553609 -3.24146e-05 0)
(0.0555206 -3.69134e-06 0)
(0.0555117 4.40972e-06 0)
(0.0554562 5.02217e-07 0)
(0.0554292 -1.495e-07 0)
(0.0554159 5.51738e-06 0)
(0.0553633 1.22871e-05 0)
(0.055241 1.80742e-05 0)
(0.0550715 1.96296e-05 0)
(0.054932 1.26356e-05 0)
(0.0549275 -6.1826e-06 0)
(0.0550326 -1.10375e-05 0)
(0.0551128 6.39989e-07 0)
(0.0551073 8.19108e-06 0)
(0.0550477 1.01857e-05 0)
(0.0549596 1.32384e-05 0)
(0.0548401 1.90252e-05 0)
(0.0546861 2.5458e-05 0)
(0.0545219 2.5807e-05 0)
(0.0543881 1.72206e-05 0)
(0.0543244 4.40434e-06 0)
(0.0543014 5.09352e-06 0)
(0.0543969 -2.54644e-05 0)
(0.0547563 -6.91571e-05 0)
(0.0558981 -0.000148463 0)
(0.206583 0.00865966 0)
(0.139285 0.0326182 0)
(0.0872784 0.0137334 0)
(0.0754126 -0.0206652 0)
(0.1162 -0.0929147 0)
(0.309733 -0.0484997 0)
(0.367212 0.0843999 0)
(0.213721 -0.0203137 0)
(0.254882 0.0172624 0)
(0.249911 0.0249373 0)
(0.208614 0.0205477 0)
(0.176136 0.010663 0)
(0.160559 0.00463975 0)
(0.152945 0.00208189 0)
(0.148542 0.00158378 0)
(0.145409 0.000965407 0)
(0.14367 0.000356999 0)
(0.143574 -0.000189282 0)
(0.144515 -0.000418253 0)
(0.145629 -0.000404797 0)
(0.146416 -0.000232672 0)
(0.146728 -5.11373e-05 0)
(0.146685 3.63191e-05 0)
(0.146526 3.55487e-05 0)
(0.146432 1.52114e-05 0)
(0.146397 2.72142e-05 0)
(0.146297 7.25999e-05 0)
(0.146053 0.000122316 0)
(0.145714 0.000132961 0)
(0.145453 6.37756e-05 0)
(0.145502 -6.09388e-05 0)
(0.145793 -9.85528e-05 0)
(0.146041 -3.46993e-05 0)
(0.146104 2.64134e-05 0)
(0.146045 5.74086e-05 0)
(0.145937 8.07243e-05 0)
(0.145798 0.000106326 0)
(0.145626 0.000126408 0)
(0.145449 0.000118542 0)
(0.145304 7.50845e-05 0)
(0.145248 1.46111e-05 0)
(0.14527 -2.45845e-05 0)
(0.145526 -0.000200201 0)
(0.146174 -0.000534965 0)
(0.148067 -0.000559639 0)
(0.28215 0.0220844 0)
(0.220385 0.0707245 0)
(0.168424 0.032074 0)
(0.141426 -0.0158426 0)
(0.0871009 -0.111121 0)
(0.194003 -0.174057 0)
(0.303868 0.160032 0)
(0.161307 -0.0394458 0)
(0.228761 0.00212733 0)
(0.288862 0.0264732 0)
(0.274683 0.033325 0)
(0.249894 0.0210779 0)
(0.234574 0.0104738 0)
(0.225929 0.00503324 0)
(0.220514 0.00352512 0)
(0.216531 0.00224039 0)
(0.214337 0.000839527 0)
(0.214132 -0.000423281 0)
(0.215141 -0.000938126 0)
(0.216366 -0.000893885 0)
(0.21722 -0.000501809 0)
(0.217512 -9.56864e-05 0)
(0.21738 0.0001127 0)
(0.217098 0.000123276 0)
(0.216894 6.70035e-05 0)
(0.216796 7.38149e-05 0)
(0.216662 0.000163198 0)
(0.216411 0.000254317 0)
(0.216065 0.000282302 0)
(0.21577 0.000136076 0)
(0.21583 -0.000162156 0)
(0.216232 -0.000267683 0)
(0.216623 -0.000142392 0)
(0.216816 -7.08132e-06 0)
(0.216877 6.19364e-05 0)
(0.216894 0.000104044 0)
(0.216888 0.000145902 0)
(0.216858 0.000177165 0)
(0.21683 0.000164944 0)
(0.216802 0.000108747 0)
(0.216783 1.70658e-05 0)
(0.216914 -0.00013393 0)
(0.21737 -0.000443774 0)
(0.218093 -0.00118001 0)
(0.222079 -0.00186548 0)
(0.303467 0.00978444 0)
(0.288044 0.103517 0)
(0.261877 0.0453024 0)
(0.243016 -0.00633793 0)
(0.165202 -0.0717114 0)
(0.191246 -0.257398 0)
(0.240648 0.200383 0)
(0.0883327 -0.00956082 0)
(0.155745 -0.043217 0)
(0.273848 0.0119029 0)
(0.299507 0.0350552 0)
(0.292935 0.0270542 0)
(0.284232 0.0152924 0)
(0.277636 0.00799463 0)
(0.27254 0.00572191 0)
(0.268521 0.00377174 0)
(0.266097 0.00149299 0)
(0.265557 -0.000557691 0)
(0.266191 -0.00138036 0)
(0.267115 -0.00134764 0)
(0.267813 -0.000763044 0)
(0.268067 -0.000136668 0)
(0.267955 0.000208493 0)
(0.267696 0.000246072 0)
(0.267496 0.000146129 0)
(0.267414 0.00012273 0)
(0.26735 0.000234805 0)
(0.267197 0.000364979 0)
(0.266946 0.000417879 0)
(0.266732 0.000217432 0)
(0.266798 -0.000269078 0)
(0.267147 -0.000465964 0)
(0.267496 -0.000286224 0)
(0.267674 -7.785e-05 0)
(0.267745 2.93778e-05 0)
(0.267784 9.06511e-05 0)
(0.267804 0.000147964 0)
(0.267799 0.000187938 0)
(0.267795 0.000168502 0)
(0.267822 9.86117e-05 0)
(0.267933 -2.26448e-05 0)
(0.268122 -0.000271046 0)
(0.268397 -0.0006435 0)
(0.268627 -0.0015533 0)
(0.268424 -0.00278916 0)
(0.261696 -0.000478178 0)
(0.29333 0.128581 0)
(0.345603 0.0510668 0)
(0.360247 0.000903822 0)
(0.33233 -0.0453329 0)
(0.321319 -0.275842 0)
(0.252326 0.241571 0)
(0.170746 0.0097821 0)
(0.214915 -0.102431 0)
(0.295492 -0.00296049 0)
(0.313511 0.0300165 0)
(0.313743 0.0279229 0)
(0.310561 0.0176554 0)
(0.306504 0.0102877 0)
(0.302665 0.00751642 0)
(0.299787 0.00517012 0)
(0.297916 0.00218678 0)
(0.297296 -0.000505852 0)
(0.297567 -0.00165018 0)
(0.298117 -0.00165507 0)
(0.298488 -0.000946967 0)
(0.298591 -0.000167424 0)
(0.298508 0.000275931 0)
(0.298363 0.000332778 0)
(0.298259 0.000197274 0)
(0.298246 0.00013789 0)
(0.298284 0.000250941 0)
(0.298288 0.000413838 0)
(0.298245 0.000477705 0)
(0.298261 0.000236313 0)
(0.298359 -0.000334759 0)
(0.298461 -0.000576311 0)
(0.298542 -0.000371616 0)
(0.29858 -0.000121304 0)
(0.298601 2.31457e-07 0)
(0.298642 7.03052e-05 0)
(0.298684 0.000138952 0)
(0.298716 0.000185931 0)
(0.298764 0.000155899 0)
(0.298858 5.65226e-05 0)
(0.299011 -0.000102928 0)
(0.299203 -0.000371598 0)
(0.29934 -0.000707902 0)
(0.299246 -0.00141297 0)
(0.297325 -0.00219646 0)
(-0.0391024 0.0137298 0)
(0.197739 0.00242987 0)
(0.411097 0.00713013 0)
(0.430187 0.0197355 0)
(0.35371 -0.042093 0)
(0.294861 -0.210242 0)
(0.236622 0.282893 0)
(0.30118 0.0216199 0)
(0.293184 -0.131375 0)
(0.309245 0.00165346 0)
(0.307199 0.0246255 0)
(0.311438 0.0255966 0)
(0.313907 0.0178045 0)
(0.313569 0.0115809 0)
(0.312098 0.00862212 0)
(0.311002 0.0060704 0)
(0.31044 0.00266884 0)
(0.310232 -0.000379261 0)
(0.310167 -0.00174197 0)
(0.310125 -0.0017636 0)
(0.310042 -0.00099889 0)
(0.309934 -0.000155696 0)
(0.30983 0.000325643 0)
(0.309728 0.000388399 0)
(0.309642 0.000222575 0)
(0.309648 0.000118053 0)
(0.309767 0.000206711 0)
(0.309928 0.000375259 0)
(0.310089 0.000439971 0)
(0.310251 0.000186438 0)
(0.310348 -0.000359755 0)
(0.310313 -0.000575037 0)
(0.310187 -0.000358778 0)
(0.310044 -0.000101586 0)
(0.309974 -6.45491e-06 0)
(0.309997 5.05602e-05 0)
(0.310059 0.000115347 0)
(0.310151 0.000153445 0)
(0.310296 0.000101295 0)
(0.31048 -1.81318e-05 0)
(0.310661 -0.00018843 0)
(0.3108 -0.000446066 0)
(0.310798 -0.000671053 0)
(0.310515 -0.000951007 0)
(0.307991 -0.00125875 0)
(0.207167 -0.0122575 0)
(0.178434 -0.0276014 -1.08596e-30)
(0.152505 -0.0282086 3.21685e-30)
(0.140243 -0.0294357 4.93446e-30)
(0.166784 -0.056153 0)
(0.371188 -0.019225 0)
(0.388122 -0.0426701 0)
(0.356857 -0.049231 0)
(0.317744 -0.0533759 6.59577e-30)
(0.273266 -0.0860339 0)
(0.412364 -0.0371682 0)
(0.458912 -0.0471857 0)
(0.432664 -0.0455421 0)
(0.382481 -0.0461706 2.93148e-30)
(0.3205 -0.0631376 0)
(0.374765 -0.0473266 0)
(0.399079 -0.0385293 0)
(0.364686 -0.0267607 0)
(0.314748 -0.0229614 6.48699e-31)
(0.260128 -0.0296879 0)
(0.213585 -0.0213055 0)
(0.191943 -0.0103495 0)
(0.158993 -0.00367366 0)
(0.131485 -0.00214288 1.11043e-30)
(0.107204 -0.00457334 0)
(0.219558 0.0321914 0)
(0.267173 -0.12978 0)
(0.336179 -0.0326768 0)
(0.360179 0.0497495 0)
(0.258835 -0.0290896 0)
(0.1378 -0.189254 0)
(0.183896 0.250212 0)
(0.270815 -0.00728171 0)
(0.220598 -0.123646 0)
(0.223466 0.000459692 0)
(0.260464 0.015703 0)
(0.282574 0.0198758 0)
(0.291744 0.0154715 0)
(0.29532 0.0111059 0)
(0.297062 0.00853109 0)
(0.298329 0.00598259 0)
(0.299331 0.0025766 0)
(0.299678 -0.000355671 0)
(0.299397 -0.00163608 0)
(0.298846 -0.00159948 0)
(0.298315 -0.000854276 0)
(0.297998 -6.90489e-05 0)
(0.29791 0.000365335 0)
(0.297917 0.000418195 0)
(0.297892 0.000234992 0)
(0.297926 7.2513e-05 0)
(0.298113 0.000113495 0)
(0.298371 0.000259296 0)
(0.298651 0.000323349 0)
(0.298914 9.60916e-05 0)
(0.29898 -0.00034313 0)
(0.298762 -0.000476832 0)
(0.298446 -0.000249306 0)
(0.298184 -1.56072e-05 0)
(0.298081 2.33834e-06 0)
(0.298133 2.50765e-05 0)
(0.298236 7.09971e-05 0)
(0.298383 8.21381e-05 0)
(0.298594 -2.74681e-06 0)
(0.298831 -0.000123154 0)
(0.299008 -0.000266621 0)
(0.299079 -0.00048224 0)
(0.299003 -0.000592424 0)
(0.298683 -0.000395396 0)
(0.296489 -0.000346991 0)
(0.312721 0.0194597 0)
(0.305848 -0.108903 0)
(0.264252 -0.0318035 0)
(0.281066 0.0605613 0)
(0.227978 0.010031 0)
(0.103175 -0.153849 0)
(0.138758 0.186972 0)
(0.216121 0.00103612 0)
(0.110803 -0.0875843 0)
(0.113676 -0.0297791 0)
(0.20163 -0.00172878 0)
(0.239644 0.0106989 0)
(0.252156 0.0114767 0)
(0.258396 0.00922341 0)
(0.262937 0.00727144 0)
(0.266481 0.0049747 0)
(0.268842 0.00200513 0)
(0.26956 -0.000396048 0)
(0.268993 -0.00137318 0)
(0.267988 -0.0012424 0)
(0.267166 -0.000592303 0)
(0.266801 2.80047e-05 0)
(0.266814 0.000365294 0)
(0.266924 0.000412924 0)
(0.26688 0.00026263 0)
(0.266887 -2.28735e-06 0)
(0.267129 -8.87034e-07 0)
(0.2674 0.000127878 0)
(0.267672 0.000198986 0)
(0.26789 1.68867e-05 0)
(0.267866 -0.000279947 0)
(0.267584 -0.00033106 0)
(0.267258 -0.000115266 0)
(0.26703 6.88021e-05 0)
(0.267009 -1.82083e-05 0)
(0.267132 -1.90713e-05 0)
(0.267258 1.40177e-05 0)
(0.267397 6.30287e-06 0)
(0.267529 -8.45656e-05 0)
(0.267606 -0.000186002 0)
(0.267605 -0.00028687 0)
(0.267479 -0.000447576 0)
(0.267187 -0.000481296 0)
(0.266917 -2.89069e-05 0)
(0.265837 0.000331298 0)
(0.305059 -0.00424779 0)
(0.253684 -0.0710295 0)
(0.188921 -0.0207753 0)
(0.194306 0.0586847 0)
(0.17943 0.0263439 0)
(0.100435 -0.100842 0)
(0.134804 0.124873 0)
(0.226278 0.0165849 0)
(0.160416 -0.0498794 0)
(0.12461 -0.0653306 0)
(0.16374 -0.0191089 0)
(0.18729 0.00203333 0)
(0.196833 0.00699805 0)
(0.204177 0.00638466 0)
(0.210395 0.00507053 0)
(0.215232 0.00324375 0)
(0.218203 0.00113666 0)
(0.218896 -0.000413719 0)
(0.21807 -0.000950069 0)
(0.216883 -0.000766843 0)
(0.216066 -0.000303243 0)
(0.215805 8.89235e-05 0)
(0.215943 0.000308195 0)
(0.216203 0.000366744 0)
(0.21627 0.000304659 0)
(0.216308 -0.000110466 0)
(0.216516 -0.000109838 0)
(0.216681 2.58478e-05 0)
(0.216907 7.63258e-05 0)
(0.217083 -1.15273e-05 0)
(0.21696 -0.000181905 0)
(0.216653 -0.000181506 0)
(0.216384 9.40009e-07 0)
(0.216215 0.000126955 0)
(0.216243 -8.64255e-05 0)
(0.21639 -7.5298e-05 0)
(0.216488 -3.73674e-05 0)
(0.216574 -4.23243e-05 0)
(0.216613 -0.000101931 0)
(0.216557 -0.00016459 0)
(0.216411 -0.000222594 0)
(0.21613 -0.000316806 0)
(0.215642 -0.000280191 0)
(0.215431 5.74333e-05 0)
(0.21697 -0.000110477 0)
(0.231928 9.65441e-05 0)
(0.175543 -0.0314578 0)
(0.119604 -0.0059392 0)
(0.138914 0.0500825 0)
(0.154165 0.0428888 0)
(0.114299 -0.0825718 0)
(0.159604 0.0606988 0)
(0.266372 0.0326801 0)
(0.255055 -0.0253884 0)
(0.157732 -0.0565121 0)
(0.12262 -0.0213624 0)
(0.121996 -0.00132789 0)
(0.126995 0.00336718 0)
(0.134177 0.00325117 0)
(0.140522 0.00251538 0)
(0.14514 0.00142481 0)
(0.147493 0.000382749 0)
(0.147711 -0.000292163 0)
(0.146767 -0.000461629 0)
(0.145724 -0.000324325 0)
(0.145138 -9.70683e-05 0)
(0.145067 7.8017e-05 0)
(0.145338 0.000177927 0)
(0.145769 0.000226653 0)
(0.146194 0.000221109 0)
(0.146259 -0.000138886 0)
(0.146079 -0.000114492 0)
(0.146018 -1.00934e-05 0)
(0.14609 5.93331e-07 0)
(0.146158 -7.32699e-06 0)
(0.146048 -8.37071e-05 0)
(0.145825 -6.57534e-05 0)
(0.145728 4.78144e-05 0)
(0.145824 0.000110146 0)
(0.145842 -0.000102233 0)
(0.145727 -7.99837e-05 0)
(0.145671 -4.95291e-05 0)
(0.145651 -4.84861e-05 0)
(0.145595 -7.25538e-05 0)
(0.145461 -9.4061e-05 0)
(0.145261 -0.000111328 0)
(0.144951 -0.000144474 0)
(0.144557 -8.9554e-05 0)
(0.144499 8.67968e-06 0)
(0.143904 -0.000633045 0)
(0.0987734 0.00469658 0)
(0.0774283 -0.0059477 0)
(0.0517184 -0.00199452 0)
(0.0930985 0.0171599 0)
(0.180636 0.0243893 0)
(0.158186 -0.0363647 0)
(0.0984169 0.0137854 0)
(0.179622 0.00926715 0)
(0.181734 -0.0061577 0)
(0.0993619 -0.011908 0)
(0.0524439 -0.00375172 0)
(0.0417168 0.000119654 0)
(0.0441632 0.000850656 0)
(0.0487058 0.000638646 0)
(0.05244 0.000443367 0)
(0.0549081 0.000211688 0)
(0.0559732 4.22941e-05 0)
(0.0559349 -5.29652e-05 0)
(0.0553941 -6.46547e-05 0)
(0.0548827 -3.95583e-05 0)
(0.0546277 -7.70336e-06 0)
(0.0546265 1.48781e-05 0)
(0.0547894 2.89518e-05 0)
(0.0550521 4.39927e-05 0)
(0.0553464 5.58587e-05 0)
(0.0553817 -4.2874e-05 0)
(0.0551991 -2.81756e-05 0)
(0.0551098 -4.90085e-06 0)
(0.0551119 -5.25954e-06 0)
(0.0551214 1.96498e-06 0)
(0.0550599 -1.44761e-05 0)
(0.0549551 -1.09352e-05 0)
(0.0549498 1.69071e-05 0)
(0.0550646 3.2937e-05 0)
(0.0550723 -3.0527e-05 0)
(0.0549453 -1.99475e-05 0)
(0.0548541 -1.17642e-05 0)
(0.0547907 -9.9713e-06 0)
(0.0547143 -1.31632e-05 0)
(0.0546118 -1.51965e-05 0)
(0.0544972 -1.50344e-05 0)
(0.0543493 -2.04211e-05 0)
(0.0541835 -1.40909e-05 0)
(0.0541989 1.76549e-05 0)
(0.0536536 -0.000173927 0)
)
;

boundaryField
{
    AirInlet
    {
        type            fixedValue;
        value           uniform (0.08 0 0);
    }
    WaterInlet
    {
        type            fixedValue;
        value           uniform (0.4 0 0);
    }
    ChannelWall
    {
        type            fixedValue;
        value           uniform (0 0 0);
    }
    Outlet
    {
        type            pressureInletOutletVelocity;
        value           nonuniform List<vector> 
11
(
(0.0558981 -0.000148463 0)
(0.148067 -0.000559639 0)
(0.222079 -0.00186548 0)
(0.268424 -0.00278916 0)
(0.297325 -0.00219646 0)
(0.307991 -0.00125875 0)
(0.296489 -0.000346991 0)
(0.265837 0.000331298 0)
(0.21697 -0.000110477 0)
(0.143904 -0.000633045 0)
(0.0536536 -0.000173927 0)
)
;
    }
    FrontAndBack
    {
        type            empty;
    }
}


// ************************************************************************* //
