/*--------------------------------*- C++ -*----------------------------------*\
| =========                 |                                                 |
| \\      /  F ield         | OpenFOAM: The Open Source CFD Toolbox           |
|  \\    /   O peration     | Version:  2.3.0                                 |
|   \\  /    A nd           | Web:      www.OpenFOAM.org                      |
|    \\/     M anipulation  |                                                 |
\*---------------------------------------------------------------------------*/
FoamFile
{
    version     2.0;
    format      ascii;
    class       volScalarField;
    location    "0.41";
    object      alpha.water;
}
// * * * * * * * * * * * * * * * * * * * * * * * * * * * * * * * * * * * * * //

dimensions      [0 0 0 0 0 0 0];

internalField   nonuniform List<scalar> 
545
(
1
1
1
1
1
1
1
1
1
1
1
1
1
1
1
1
1
1
1
1
1
1
1
1
1
1
1
1
1
1
1
1
1
1
1
1
1
1
1
1
1
1
1
1
1
1
1
1
1
1
1
1
1
1
1
1
1
1
1
1
1
1
1
1
1
1
1
1
1
1
1
1
1
1
1
1
1
1
1
1
1
1
1
1
1
1
1
1
1
1
1
1
1
1
1
1
1
1
1
1
1
1
1
1
1
1
1
1
1
1
1
1
1
1
1
1
1
1
1
1
0.999999
0.999999
0.999999
0.999999
0.999999
0.999999
0.999999
0.999999
0.999999
0.999999
0.999999
0.999999
0.999999
0.999999
0.999999
0.999999
0.999999
0.999999
0.999999
0.999999
0.999999
0.999999
0.999999
0.999999
0.999999
0.999999
0.999999
0.999999
0.999999
0.999999
0.999999
0.999999
0.999999
0.999999
0.999999
0.999999
0.999999
0.999999
0.999999
0.999999
1
1
0.999986
0.999963
0.999955
0.999951
0.999946
0.999941
0.999938
0.999936
0.999936
0.999936
0.999937
0.999938
0.999938
0.999938
0.999938
0.999938
0.999938
0.999938
0.999938
0.999938
0.999938
0.999937
0.999937
0.999937
0.999937
0.999937
0.999937
0.999937
0.999937
0.999937
0.999937
0.999937
0.999937
0.999937
0.999937
0.999937
0.999937
0.999937
0.999937
0.999936
0.999936
0.999936
0.999936
1
1
0.998439
0.996447
0.996375
0.996716
0.996565
0.995908
0.99541
0.995146
0.995071
0.995105
0.995199
0.995287
0.99535
0.995373
0.995375
0.995352
0.995334
0.99531
0.995285
0.99526
0.99525
0.995235
0.995234
0.995228
0.995235
0.995232
0.995221
0.995196
0.995179
0.995156
0.995146
0.995133
0.995136
0.995136
0.995142
0.995135
0.995117
0.99508
0.995046
0.995004
0.994985
0.994973
0.994967
0.278465
0.377355
0.391628
0.404202
0.631492
0.996843
0.87536
0.498376
0.496088
0.493106
0.49402
0.502106
0.917064
0.788091
0.584892
0.574974
0.572424
0.573657
0.624579
0.964923
0.793194
0.476933
0.496033
0.541751
0.515564
0.515565
0.658739
0.979009
0.976608
0.636965
0.410576
0.432969
0.506422
0.48363
0.483748
0.561617
0.929117
0.995217
0.995219
0.799234
0.332068
0.285086
0.285731
0.285729
0.343211
1
1
1
1
1
1
1
1
1
1
1
1
1
1
1
1
1
1
1
1
1
1
1
1
1
1
1
0.998428
0.996466
0.996351
0.996695
0.996545
0.995905
0.995398
0.995147
0.995066
0.995112
0.995203
0.995294
0.995352
0.995381
0.995374
0.995358
0.995331
0.995308
0.995278
0.995258
0.995237
0.995231
0.995221
0.995224
0.995224
0.995225
0.995213
0.995194
0.995168
0.995155
0.995135
0.995132
0.995123
0.995132
0.995132
0.995126
0.995105
0.99507
0.995025
0.994995
0.99496
0.994957
0.994936
1
1
0.999986
0.999963
0.999955
0.999951
0.999946
0.999941
0.999938
0.999936
0.999936
0.999936
0.999937
0.999938
0.999938
0.999938
0.999938
0.999938
0.999938
0.999938
0.999938
0.999937
0.999937
0.999937
0.999937
0.999937
0.999937
0.999937
0.999937
0.999937
0.999937
0.999937
0.999937
0.999937
0.999937
0.999937
0.999937
0.999937
0.999937
0.999937
0.999937
0.999937
0.999936
0.999936
0.999936
1
1
1
1
1
0.999999
0.999999
0.999999
0.999999
0.999999
0.999999
0.999999
0.999999
0.999999
0.999999
0.999999
0.999999
0.999999
0.999999
0.999999
0.999999
0.999999
0.999999
0.999999
0.999999
0.999999
0.999999
0.999999
0.999999
0.999999
0.999999
0.999999
0.999999
0.999999
0.999999
0.999999
0.999999
0.999999
0.999999
0.999999
0.999999
0.999999
0.999999
0.999999
0.999999
1
1
1
1
1
1
1
1
1
1
1
1
1
1
1
1
1
1
1
1
1
1
1
1
1
1
1
1
1
1
1
1
1
1
1
1
1
1
1
1
1
1
1
1
1
1
1
1
1
1
1
1
1
1
1
1
1
1
1
1
1
1
1
1
1
1
1
1
1
1
1
1
1
1
1
1
1
1
1
1
1
1
1
1
1
1
1
1
1
1
)
;

boundaryField
{
    AirInlet
    {
        type            fixedValue;
        value           uniform 0;
    }
    WaterInlet
    {
        type            fixedValue;
        value           uniform 1;
    }
    ChannelWall
    {
        type            zeroGradient;
    }
    Outlet
    {
        type            inletOutlet;
        inletValue      uniform 0;
        value           nonuniform List<scalar> 
11
(
1
1
0.999999
0.999936
0.994967
0.343211
0.994936
0.999936
0.999999
1
1
)
;
    }
    FrontAndBack
    {
        type            empty;
    }
}


// ************************************************************************* //
