/*--------------------------------*- C++ -*----------------------------------*\
| =========                 |                                                 |
| \\      /  F ield         | OpenFOAM: The Open Source CFD Toolbox           |
|  \\    /   O peration     | Version:  2.3.0                                 |
|   \\  /    A nd           | Web:      www.OpenFOAM.org                      |
|    \\/     M anipulation  |                                                 |
\*---------------------------------------------------------------------------*/
FoamFile
{
    version     2.0;
    format      ascii;
    class       volScalarField;
    location    "0.41";
    object      p;
}
// * * * * * * * * * * * * * * * * * * * * * * * * * * * * * * * * * * * * * //

dimensions      [1 -1 -2 0 0 0 0];

internalField   nonuniform List<scalar> 
545
(
-6.5553e+07
-1.19896e+07
-1.5109e+06
-2.01127e+06
-6.91895e+06
4.73592e+07
-2.34831e+06
-1.80481e+06
-1.92855e+06
-5.60594e+06
8.22673e+07
3.06602e+06
-185064
-228085
-5.88974e+06
4.77728e+07
-2.49726e+06
-1.42119e+06
-5415.48
-5.25417e+06
-7.54468e+07
-1.81075e+06
-261381
3.57033e+06
9.68916e+06
-5.67288e+06
-1.40649e+06
-533766
21886.6
104106
111884
100219
92220.2
86921.2
83773.8
82023.2
80438.8
79176.8
77946.2
77155.4
76293.3
75620.9
74816.8
74084.7
73040.2
72057.1
70694.3
69275.1
67571.3
65680.3
63356.2
60839.3
57714
54416.2
50451.8
46482.5
41941.7
37732.1
33142.7
29025
24743.8
21032.9
17341.4
14350.6
11413.5
9284.89
6754.84
4505.93
1913
616.677
-4.98739e+06
-843300
-499666
-74797.5
20267.2
67512.4
80866.1
84863.1
84601.1
83097.3
82043
80410.8
79371.5
77932.3
77318.4
76304
75806.4
74835
74254.8
73009.7
72192.9
70693.3
69397.2
67554
65823.1
63381.3
61018.4
57723.6
54579.1
50429.8
46584.1
41888.6
37782.8
33095.4
29066.3
24681
21099.9
17241.2
14381.3
11297.5
9240.69
6738.42
4423.66
1736.17
327.759
-5.86771e+06
-367278
-268966
31943.2
48474.9
70295.4
80390.8
83458.7
84640.9
82170.6
82447.7
79771.1
80008.5
77324.8
77982.9
75749.3
76486.2
74278
74934.1
72332.2
72848.5
70061.2
70025.2
66920.3
66485
62779
61746.6
57057.7
55331.9
49732.3
47249.2
41185.7
38448.6
32408.1
29735.7
24000.1
21829.7
16481.3
15094.8
10476.1
9842.09
5992.94
5056.87
451.912
635.701
-6.21517e+06
580517
199741
220378
111046
86197.2
86770.4
83397.2
86245.8
80354
83821
78104.3
81689.2
75666
79663.3
74176.6
78149.7
72680.1
76633.1
70520.6
74517.5
68375.4
71619.7
65244.6
68135.3
61103.4
63537.9
55242.9
57169.1
47933.4
48940.5
39396.6
40163
30650.4
31473.3
22236.1
23698.9
14553.8
16929.9
8507.11
11425.9
4259.16
6488.24
-1726.84
1821.51
-1.39463e+06
2.7545e+06
1.00168e+06
380188
142053
93505
91387.7
81235.6
87663.4
77953.7
85551.8
76111.9
83771.7
73579.1
81788.1
72267.7
80128.8
70722.8
78721.7
68276.2
76595.6
66321.7
73499.6
63293.9
70073
59055.9
65747
52963.2
59505.3
45607.1
51119.7
37119.5
42319.8
28440
33695.4
20057.4
26097.5
12096.8
19324.9
5927.19
13487.2
2104.23
8449.2
-4228.27
3384.39
-1.11663e+07
3.91428e+06
1.60548e+06
487717
147454
97721.1
87111.1
87892.1
86518.7
86519.8
84670.5
83427.5
79377.1
79322.3
80241.4
79630.5
79736.7
78140.9
76538
73255.3
72810.9
74381.7
73535.5
69803.3
69883.1
67029.6
62999.7
58205.4
54375.6
52518.3
50543.4
47119.1
40809.7
36575.3
32374.7
27744.6
21158.1
17379
13980.1
11890.2
13151.9
11557.1
10694.8
7169.58
3021.61
-7.54639e+07
-1.82912e+06
-280109
3.55276e+06
9.67442e+06
4.77555e+07
-2.51599e+06
-1.44048e+06
-23662.4
-5.26968e+06
8.22497e+07
3.04686e+06
-204925
-247028
-5.90585e+06
4.73413e+07
-2.36767e+06
-1.82502e+06
-1.94794e+06
-5.62245e+06
-6.55712e+07
-1.20091e+07
-1.53118e+06
-2.03082e+06
-6.93567e+06
-1.40589e+06
2.75979e+06
993156
387215
134084
102406
82960.3
89170.1
79376.1
85941.9
77140.7
84312.7
74638.5
82618.5
73241.9
81125.3
71423
79625.9
69755.6
77917.9
67081.3
75096.9
64426.1
72378.9
60916
68197.3
56316.3
63086
49361.9
55129.4
41958.5
46292.6
32818.6
37749.9
24260.5
29587.4
15776.4
22458.4
8815.63
15993.3
4221.73
11159.2
-371.663
8925.1
-2240.55
-6.22722e+06
580546
193129
223427
106528
91353.6
82305.9
87621.4
81413.6
84492.5
78929
82476.3
76625.9
80727.7
75166
79231.4
73481.8
77657.1
71717.4
75775.6
69182.9
73019.2
66475.8
70188.2
63016.2
66113.1
58369.9
60823.9
51607.5
53099.2
43850.7
44388.2
34759.5
35701
26220.2
27457.5
18003.1
20128.9
11105.2
13926.7
6239.16
9147.77
1971.98
6461.4
-1131.87
-5.87927e+06
-372176
-273774
31377.2
46817.3
72079.5
79182.1
84549.7
82832.6
82990.4
80619
80851.1
78441.3
79026
76915.2
77532
75284.4
75875.3
73476.2
73855.8
71042.2
71194.6
68278.2
68259.7
64843.6
64219.3
60210.5
58781.2
53601.8
51200.8
45636.3
42526
36625.2
33776
28106.6
25535.9
20061.5
18074.1
13160.5
11969
8112.02
7407.04
3960.17
4631.71
1369.36
-4.99965e+06
-850502
-504445
-76848.7
19276.5
67936.1
80683.3
84886.5
83815.5
82758
81208.1
80367.3
79023.3
78501
77447.5
77001.9
75808.8
75299.5
73957.7
73213.9
71581.7
70617.6
68772.4
67623.8
65336.3
63602.7
60688.3
58088.7
54159.9
50603.8
46097.9
41946.1
37162
33197.6
28656.5
24982.7
20687.6
17446.6
13771.3
11362.1
8694.49
6952.5
4768.48
3673.99
1112.04
-5.68547e+06
-1.41492e+06
-538715
19152.1
103122
111699
100224
91963.9
86429.5
83136.7
81442.6
80085.5
79168.6
78215.4
77599.9
76717
75947.3
74986.3
74102.9
72869.7
71752.3
70304.1
68926.5
67285.8
65480
63246.1
60821.6
57674.8
54334.8
50275.9
46249.6
41641.6
37419.3
32913.7
28926.5
24710.2
20984.5
17159.3
14066
11115.3
8990.1
6828.52
5044.93
3603.33
2054.6
)
;

boundaryField
{
    AirInlet
    {
        type            calculated;
        value           uniform -1.11627e+07;
    }
    WaterInlet
    {
        type            calculated;
        value           nonuniform List<scalar> 10(-6.5553e+07 4.73592e+07 8.22673e+07 4.77728e+07 -7.54468e+07 -7.54639e+07 4.77555e+07 8.22497e+07 4.73413e+07 -6.55712e+07);
    }
    ChannelWall
    {
        type            calculated;
        value           nonuniform List<scalar> 
110
(
-7.54468e+07
-1.81075e+06
-261381
3.57033e+06
9.68916e+06
-7.54639e+07
-1.82912e+06
-280109
3.55276e+06
9.67442e+06
-6.55712e+07
-1.20091e+07
-1.53118e+06
-2.03082e+06
-6.93567e+06
-5.68547e+06
-1.41492e+06
-538715
19152.1
103122
111699
100224
91963.8
86429.4
83136.7
81442.6
80085.4
79168.6
78215.4
77599.8
76717
75947.2
74986.3
74102.9
72869.7
71752.3
70304
68926.4
67285.7
65479.9
63246.1
60821.5
57674.8
54334.8
50275.9
46249.6
41641.6
37419.2
32913.6
28926.5
24710.2
20984.5
17159.3
14066
11115.3
8990.06
6828.48
5044.89
3603.29
2054.56
-6.5553e+07
-1.19896e+07
-1.5109e+06
-2.01127e+06
-6.91895e+06
-5.67288e+06
-1.40649e+06
-533766
21886.7
104106
111884
100219
92220.3
86921.2
83773.9
82023.2
80438.9
79176.9
77946.2
77155.5
76293.4
75621
74816.9
74084.8
73040.3
72057.1
70694.3
69275.2
67571.3
65680.3
63356.2
60839.3
57714
54416.2
50451.8
46482.5
41941.8
37732.1
33142.8
29025.1
24743.9
21033
17341.4
14350.6
11413.5
9284.94
6754.88
4505.98
1913.04
616.721
)
;
    }
    Outlet
    {
        type            calculated;
        value           nonuniform List<scalar> 
11
(
-0.044145
-0.132435
-0.220725
-0.308995
-0.395308
-0.168667
-0.580742
-0.671942
-0.760274
-0.848565
-0.936855
)
;
    }
    FrontAndBack
    {
        type            empty;
    }
}


// ************************************************************************* //
