/*--------------------------------*- C++ -*----------------------------------*\
| =========                 |                                                 |
| \\      /  F ield         | OpenFOAM: The Open Source CFD Toolbox           |
|  \\    /   O peration     | Version:  2.3.0                                 |
|   \\  /    A nd           | Web:      www.OpenFOAM.org                      |
|    \\/     M anipulation  |                                                 |
\*---------------------------------------------------------------------------*/
FoamFile
{
    version     2.0;
    format      ascii;
    class       volScalarField;
    location    "0.14";
    object      alpha.air;
}
// * * * * * * * * * * * * * * * * * * * * * * * * * * * * * * * * * * * * * //

dimensions      [0 0 0 0 0 0 0];

internalField   nonuniform List<scalar> 
6000
(
0.612068
0.612078
0.611649
0.611649
0.611217
0.611361
0.611059
0.611192
0.610867
0.610961
0.610593
0.610645
0.610366
0.610497
0.610354
0.610415
0.610344
0.61054
0.610448
0.610839
0.610768
0.611115
0.611
0.61131
0.611173
0.611469
0.611462
0.611902
0.611892
0.612313
0.61206
0.611638
0.611838
0.611209
0.611394
0.610921
0.611152
0.610751
0.61092
0.61052
0.61061
0.610203
0.610369
0.610171
0.610354
0.610246
0.610346
0.610176
0.610451
0.610396
0.610802
0.610674
0.611073
0.610869
0.611299
0.61103
0.611641
0.611471
0.61207
0.611882
0.657202
0.612198
0.614021
0.612716
0.610804
0.611057
0.610617
0.610813
0.610417
0.610538
0.610144
0.610194
0.60992
0.610036
0.609894
0.60998
0.609907
0.610094
0.610002
0.610399
0.610317
0.610712
0.610552
0.610962
0.610741
0.611233
0.612174
0.613864
0.61181
0.657402
0.749928
0.694805
0.703738
0.700256
0.685593
0.668336
0.646559
0.626612
0.616073
0.611501
0.610372
0.609796
0.609937
0.609736
0.609896
0.609819
0.609915
0.609752
0.610026
0.610088
0.611714
0.615748
0.626595
0.645862
0.667933
0.684656
0.699733
0.703228
0.694611
0.750231
0.760989
0.758926
0.761056
0.760874
0.760154
0.751847
0.734141
0.709302
0.688474
0.676639
0.672234
0.671172
0.670908
0.670777
0.670652
0.670623
0.670664
0.67074
0.670963
0.672009
0.676393
0.68809
0.709018
0.73339
0.751561
0.759542
0.761242
0.761055
0.7589
0.761117
0.760995
0.761047
0.760933
0.761172
0.760874
0.761484
0.760815
0.761275
0.756166
0.749146
0.745878
0.745615
0.745419
0.745639
0.745303
0.745503
0.745258
0.745428
0.745177
0.745917
0.748684
0.756263
0.760936
0.761631
0.760995
0.761542
0.761055
0.761239
0.761115
0.761171
0.760989
0.75038
0.747113
0.753848
0.761069
0.760815
0.761478
0.760756
0.761423
0.760698
0.761166
0.76064
0.761119
0.760645
0.761175
0.760703
0.761232
0.76076
0.761288
0.760818
0.761455
0.760877
0.761596
0.760936
0.761449
0.760995
0.753711
0.747133
0.750732
0.761117
0.756445
0.724862
0.710642
0.720649
0.744293
0.760973
0.760756
0.761423
0.760698
0.761223
0.76064
0.761036
0.760589
0.761035
0.760646
0.761084
0.760703
0.761152
0.76076
0.761221
0.760818
0.761527
0.760877
0.761459
0.760936
0.743809
0.72023
0.710806
0.725354
0.756337
0.715167
0.690435
0.670771
0.676709
0.707507
0.748239
0.760974
0.760698
0.761219
0.76064
0.7609
0.760582
0.76083
0.760589
0.760872
0.760646
0.760935
0.760703
0.761008
0.76076
0.761227
0.760818
0.76147
0.760877
0.74829
0.706802
0.67612
0.670873
0.690466
0.713863
0.651122
0.648476
0.63549
0.636558
0.669522
0.725353
0.75925
0.761042
0.76064
0.760875
0.760582
0.760653
0.760532
0.76065
0.760589
0.760704
0.760646
0.760767
0.760703
0.76084
0.76076
0.761144
0.760818
0.759707
0.726058
0.669731
0.635841
0.63489
0.647773
0.648329
0.587632
0.603336
0.602457
0.604076
0.641459
0.704542
0.749221
0.76064
0.760734
0.760582
0.759863
0.758547
0.757609
0.757056
0.756801
0.756799
0.757073
0.757642
0.758632
0.759958
0.760815
0.76076
0.760914
0.749875
0.706017
0.643271
0.604932
0.602753
0.602958
0.583018
0.536068
0.557733
0.576736
0.582454
0.621409
0.686257
0.732264
0.75288
0.755863
0.754083
0.750703
0.747501
0.745222
0.743878
0.743246
0.743236
0.743841
0.745194
0.747489
0.750721
0.754149
0.755949
0.75301
0.732781
0.687558
0.623968
0.586325
0.580612
0.561799
0.528771
0.503702
0.524165
0.559353
0.568888
0.603385
0.665036
0.710922
0.734205
0.740357
0.738121
0.733957
0.729868
0.726846
0.724981
0.72413
0.724123
0.72495
0.726809
0.729825
0.733923
0.738092
0.740292
0.734134
0.710918
0.665279
0.604984
0.573857
0.566192
0.536452
0.498144
0.488863
0.510091
0.545696
0.557362
0.584403
0.638586
0.684899
0.709478
0.718169
0.717559
0.714062
0.71003
0.706764
0.70462
0.703629
0.703622
0.704596
0.70672
0.709965
0.71397
0.717422
0.717926
0.709047
0.684115
0.637377
0.584249
0.560816
0.553829
0.520027
0.488299
0.488537
0.508634
0.534934
0.548382
0.565161
0.608388
0.653808
0.681036
0.692518
0.69453
0.692264
0.688767
0.685565
0.683328
0.682248
0.682237
0.6833
0.685507
0.688669
0.692105
0.694288
0.692077
0.68018
0.652185
0.606027
0.563537
0.548595
0.539483
0.504511
0.488299
0.488538
0.526618
0.528873
0.542222
0.549603
0.578943
0.619413
0.649064
0.663805
0.668611
0.668125
0.665563
0.662779
0.660677
0.659604
0.659587
0.660639
0.662703
0.665436
0.667925
0.66828
0.663183
0.647852
0.617123
0.575818
0.547145
0.539902
0.523309
0.505236
0.500452
0.488538
0.545871
0.528878
0.53562
0.540521
0.5557
0.586212
0.615117
0.632535
0.640085
0.641719
0.640566
0.638619
0.636926
0.635997
0.635977
0.63688
0.638526
0.640429
0.641497
0.639706
0.631829
0.613738
0.583738
0.552825
0.539357
0.533378
0.513766
0.532193
0.535568
0.489178
0.54592
0.531442
0.528781
0.534473
0.541042
0.559665
0.583305
0.601187
0.610832
0.614582
0.615108
0.614327
0.61331
0.612672
0.612654
0.613265
0.614231
0.614974
0.614366
0.61047
0.600537
0.582083
0.557854
0.540273
0.536432
0.525417
0.51376
0.545837
0.530047
0.531369
0.542666
0.538258
0.525426
0.528675
0.5333
0.54295
0.558594
0.573853
0.584132
0.589434
0.591515
0.59196
0.591744
0.591482
0.591474
0.591695
0.591872
0.591391
0.589244
0.583849
0.573409
0.557858
0.542372
0.535321
0.53179
0.518347
0.518232
0.545676
0.512531
0.558576
0.524923
0.531828
0.524017
0.525117
0.52925
0.534636
0.543435
0.554179
0.563257
0.569072
0.572147
0.573548
0.574037
0.574132
0.574132
0.573993
0.573472
0.572035
0.568915
0.563081
0.553997
0.54332
0.535129
0.532427
0.525311
0.518337
0.540477
0.545722
0.50285
0.55857
0.508601
0.508801
0.510499
0.520074
0.527182
0.530849
0.536134
0.542794
0.549567
0.554816
0.558135
0.559988
0.560908
0.561253
0.561253
0.560869
0.559914
0.558028
0.554704
0.54947
0.542789
0.53645
0.532218
0.529429
0.519375
0.519429
0.540577
0.53564
0.524198
0.558563
0.508536
0.494093
0.494094
0.510452
0.525423
0.528239
0.532781
0.537189
0.541832
0.545943
0.548909
0.550724
0.551733
0.552176
0.552175
0.551703
0.550659
0.548846
0.545905
0.541822
0.537375
0.533584
0.530633
0.526702
0.514722
0.516631
0.523776
0.521038
0.55781
0.558557
0.512596
0.496767
0.494093
0.502606
0.525032
0.52719
0.531186
0.534598
0.537776
0.540716
0.543045
0.54461
0.545516
0.545923
0.545927
0.545519
0.544614
0.543038
0.540708
0.537855
0.534942
0.5322
0.528983
0.524281
0.50435
0.501528
0.502552
0.520965
0.557796
0.553142
0.513709
0.529941
0.513855
0.500583
0.522864
0.528174
0.530723
0.533546
0.535712
0.537667
0.539303
0.540531
0.541298
0.541638
0.541642
0.541309
0.540547
0.539312
0.537685
0.535793
0.53369
0.531133
0.52713
0.520407
0.494121
0.494717
0.494751
0.516893
0.557787
0.533594
0.51995
0.534425
0.533801
0.500643
0.51766
0.529526
0.530735
0.533064
0.534652
0.535917
0.536956
0.537759
0.538318
0.538582
0.538586
0.538328
0.537782
0.536982
0.535935
0.534654
0.53301
0.530515
0.526933
0.516557
0.494117
0.510819
0.496401
0.50268
0.557772
0.511826
0.530924
0.533802
0.534483
0.504422
0.513966
0.529075
0.530692
0.532574
0.53393
0.534792
0.535469
0.535967
0.536313
0.536494
0.536499
0.536332
0.536002
0.535507
0.534811
0.533875
0.532471
0.530181
0.527591
0.513108
0.494587
0.533659
0.527433
0.514327
0.548825
0.493473
0.524308
0.534469
0.533801
0.525748
0.514725
0.52731
0.530422
0.531782
0.533036
0.533797
0.534328
0.534691
0.53492
0.535041
0.535044
0.534938
0.53472
0.534366
0.533837
0.533058
0.531726
0.529814
0.527321
0.512853
0.511406
0.536248
0.536394
0.536377
0.537251
0.484921
0.508052
0.533801
0.534263
0.533801
0.519343
0.52582
0.529775
0.530807
0.531848
0.53264
0.533153
0.533474
0.533663
0.533751
0.533754
0.533676
0.533495
0.533186
0.532695
0.531938
0.53077
0.529364
0.526235
0.513712
0.532131
0.536338
0.536242
0.536314
0.531695
0.484921
0.508078
0.52991
0.533801
0.533818
0.526583
0.526046
0.529027
0.530057
0.530715
0.531376
0.531839
0.532121
0.532288
0.532354
0.532362
0.532304
0.532142
0.531861
0.531402
0.530728
0.529946
0.528844
0.52561
0.520043
0.535423
0.536132
0.536248
0.536242
0.523453
0.484909
0.526238
0.516334
0.53385
0.533494
0.530733
0.52731
0.528648
0.529627
0.530041
0.530401
0.53069
0.530873
0.530982
0.53102
0.531028
0.530993
0.53088
0.530681
0.530371
0.529954
0.5295
0.528443
0.526461
0.528787
0.5353
0.536145
0.536125
0.530965
0.507714
0.484902
0.557286
0.509674
0.528355
0.532572
0.531113
0.528954
0.528667
0.529415
0.529792
0.529965
0.530096
0.530177
0.530218
0.530221
0.530216
0.530196
0.530147
0.530057
0.529934
0.529757
0.529329
0.528489
0.528892
0.532765
0.534681
0.535599
0.529708
0.527
0.490149
0.505879
0.577108
0.509698
0.517936
0.529919
0.530918
0.529971
0.52894
0.529435
0.52978
0.529906
0.529979
0.530023
0.530041
0.530025
0.530008
0.529992
0.529971
0.529927
0.529874
0.529753
0.529338
0.529085
0.531131
0.532884
0.533832
0.533491
0.52055
0.523543
0.4801
0.550609
0.579123
0.524483
0.517894
0.526051
0.530117
0.530342
0.529741
0.529708
0.5299
0.52996
0.52999
0.530023
0.530041
0.530028
0.53001
0.529993
0.529964
0.529935
0.529908
0.529846
0.529574
0.530247
0.531706
0.53239
0.53225
0.527608
0.518235
0.520792
0.479977
0.578105
0.579144
0.564578
0.519297
0.522933
0.528942
0.530578
0.530566
0.530257
0.530227
0.53016
0.530049
0.53004
0.530056
0.530039
0.530021
0.530004
0.529982
0.530004
0.530089
0.530142
0.530135
0.531332
0.531721
0.531711
0.529735
0.520781
0.518203
0.518923
0.479978
0.596082
0.578375
0.578391
0.533414
0.520731
0.528045
0.530915
0.531213
0.530845
0.530635
0.53047
0.530256
0.530094
0.530073
0.530056
0.530039
0.530021
0.530073
0.530242
0.530418
0.530571
0.530788
0.531928
0.5318
0.531452
0.527911
0.519506
0.518172
0.516089
0.479986
0.596007
0.573305
0.562499
0.52893
0.503362
0.520504
0.531261
0.531687
0.531295
0.530964
0.530752
0.530531
0.530264
0.530093
0.530082
0.530092
0.53009
0.530312
0.530538
0.530746
0.530951
0.531302
0.532174
0.531985
0.531471
0.528024
0.522205
0.51838
0.510384
0.54234
0.595935
0.589706
0.53603
0.499652
0.476912
0.501693
0.52909
0.531706
0.531556
0.531187
0.530947
0.530729
0.530484
0.530229
0.530239
0.53029
0.530301
0.530544
0.530754
0.530977
0.531218
0.531692
0.532292
0.532235
0.531619
0.529388
0.525199
0.512894
0.505225
0.550234
0.59586
0.595788
0.504672
0.475721
0.475724
0.493089
0.524003
0.53161
0.531511
0.531364
0.531119
0.530871
0.530671
0.530514
0.530522
0.530571
0.530575
0.530709
0.530907
0.531148
0.531437
0.532032
0.532388
0.532405
0.531884
0.531245
0.518099
0.497324
0.505248
0.550235
0.595108
0.552723
0.481678
0.475994
0.486851
0.502653
0.521009
0.531927
0.531661
0.531528
0.531276
0.53104
0.530857
0.530801
0.530775
0.530798
0.530818
0.530876
0.531072
0.53133
0.531674
0.532289
0.532433
0.532337
0.53196
0.531178
0.506717
0.490546
0.501923
0.550235
0.563827
0.497631
0.479378
0.511004
0.518084
0.511407
0.523946
0.532378
0.532165
0.531809
0.531499
0.531255
0.531072
0.531019
0.530956
0.530965
0.531025
0.531084
0.531281
0.531558
0.531937
0.532427
0.532421
0.532199
0.531926
0.528908
0.506944
0.490551
0.491584
0.545946
0.523406
0.481998
0.479356
0.544695
0.542166
0.51308
0.528857
0.532726
0.532553
0.532106
0.531744
0.531469
0.531279
0.531186
0.531094
0.531095
0.531188
0.531291
0.531493
0.531785
0.532168
0.532505
0.532436
0.532192
0.532154
0.524686
0.510172
0.494808
0.504403
0.51758
0.506141
0.49169
0.536957
0.544428
0.543915
0.514545
0.531824
0.532962
0.532707
0.532266
0.531907
0.531622
0.531425
0.531297
0.53119
0.531184
0.531291
0.53143
0.53164
0.53194
0.532311
0.532586
0.532508
0.532209
0.53233
0.523604
0.521114
0.530714
0.528248
0.492533
0.495972
0.509182
0.544428
0.544955
0.543275
0.518118
0.531814
0.532975
0.532722
0.532309
0.531961
0.531681
0.531484
0.531329
0.53122
0.531212
0.531324
0.531488
0.531702
0.532009
0.532374
0.532611
0.532568
0.532249
0.532763
0.526184
0.535862
0.536893
0.53582
0.484807
0.487107
0.523197
0.544952
0.544429
0.543295
0.524487
0.53145
0.532909
0.532609
0.532238
0.531901
0.531615
0.53142
0.531247
0.53115
0.531145
0.531253
0.531438
0.531653
0.53197
0.532334
0.532602
0.532563
0.532364
0.533608
0.531644
0.536893
0.537253
0.535032
0.484806
0.4769
0.507368
0.544428
0.544585
0.543567
0.531565
0.531471
0.532638
0.53229
0.531938
0.531608
0.531334
0.531181
0.531036
0.530972
0.530977
0.531052
0.531211
0.531384
0.531702
0.532077
0.532425
0.532516
0.532631
0.534463
0.535921
0.536977
0.536893
0.53213
0.484808
0.468645
0.488859
0.544432
0.544429
0.543688
0.536574
0.531816
0.532411
0.531985
0.531527
0.531168
0.531004
0.530936
0.530871
0.530848
0.530845
0.530885
0.53095
0.531031
0.531241
0.531624
0.532077
0.532446
0.53309
0.535067
0.536806
0.536893
0.536923
0.528892
0.501178
0.46492
0.48067
0.538897
0.54444
0.54355
0.538407
0.532788
0.532374
0.531886
0.531313
0.530899
0.530874
0.53086
0.530846
0.530839
0.530831
0.530842
0.530856
0.530868
0.530935
0.53129
0.531833
0.532433
0.533619
0.535295
0.536593
0.536895
0.536099
0.521262
0.522895
0.464751
0.487019
0.523862
0.543693
0.543143
0.538623
0.533967
0.532521
0.531891
0.53129
0.530874
0.530858
0.530844
0.530839
0.530822
0.530814
0.530831
0.530841
0.530856
0.530867
0.531199
0.531784
0.532485
0.534068
0.53526
0.536098
0.536452
0.532498
0.517488
0.518469
0.464724
0.50778
0.508349
0.540782
0.54254
0.538627
0.53479
0.532903
0.532002
0.531332
0.530857
0.530841
0.530839
0.530822
0.530806
0.530804
0.530813
0.530831
0.530841
0.530856
0.531212
0.531824
0.532651
0.534312
0.535152
0.535535
0.535429
0.525978
0.517531
0.516876
0.464637
0.520066
0.507411
0.537234
0.541373
0.538266
0.534967
0.533275
0.532251
0.531506
0.530862
0.530839
0.530822
0.530806
0.530787
0.530792
0.530804
0.530811
0.530831
0.530841
0.531336
0.531996
0.532916
0.534377
0.535071
0.535104
0.53364
0.521511
0.538701
0.522439
0.464615
0.530484
0.507415
0.531561
0.539184
0.53738
0.534911
0.533351
0.532468
0.531778
0.531222
0.530822
0.530806
0.530787
0.530786
0.53078
0.53079
0.530804
0.530809
0.530899
0.531611
0.532264
0.533173
0.534384
0.535024
0.534702
0.532167
0.521422
0.543244
0.533533
0.496362
0.540402
0.516414
0.525295
0.536141
0.536448
0.534714
0.533356
0.532546
0.531969
0.531557
0.530806
0.530784
0.530786
0.530769
0.530757
0.53078
0.53079
0.530804
0.531368
0.531886
0.532461
0.533299
0.534355
0.534955
0.534564
0.532034
0.521511
0.543158
0.536594
0.524949
0.543257
0.538691
0.525292
0.53271
0.535748
0.534409
0.533326
0.532559
0.532025
0.531673
0.530785
0.530786
0.530769
0.530754
0.530754
0.530755
0.53078
0.53079
0.531648
0.532012
0.53253
0.5333
0.534243
0.534912
0.534679
0.531438
0.521357
0.543167
0.535222
0.526902
0.543146
0.543376
0.525648
0.530662
0.535013
0.534053
0.533199
0.532518
0.532019
0.531693
0.531202
0.530769
0.530754
0.530731
0.530739
0.530754
0.530753
0.530987
0.531712
0.532033
0.53253
0.533253
0.534083
0.534919
0.534596
0.530674
0.524055
0.542858
0.531146
0.527005
0.543204
0.543147
0.537694
0.530727
0.533961
0.533603
0.53296
0.53238
0.531958
0.531682
0.531494
0.530755
0.530732
0.530736
0.530726
0.530739
0.530754
0.531457
0.531716
0.532014
0.532479
0.53313
0.533918
0.534866
0.534177
0.532324
0.541975
0.543171
0.525923
0.524645
0.54314
0.543402
0.543147
0.531695
0.532908
0.533102
0.532642
0.532169
0.531832
0.531623
0.531488
0.530818
0.530736
0.53072
0.530703
0.530726
0.530754
0.53151
0.53168
0.531933
0.532341
0.532933
0.533713
0.534584
0.534066
0.538255
0.543391
0.543188
0.52042
0.520403
0.535135
0.543147
0.543246
0.535109
0.53282
0.532809
0.532346
0.531959
0.531685
0.531525
0.531437
0.531241
0.53072
0.530704
0.530702
0.530703
0.531197
0.531465
0.531582
0.531789
0.532141
0.53268
0.533399
0.533984
0.534043
0.543233
0.543188
0.542411
0.514721
0.516066
0.52038
0.543198
0.543147
0.540197
0.533164
0.532741
0.532199
0.531807
0.531566
0.53143
0.531353
0.531271
0.530705
0.530683
0.53069
0.530702
0.531257
0.531359
0.531449
0.531619
0.531919
0.532395
0.532987
0.533397
0.534942
0.543188
0.543341
0.531301
0.509933
0.513938
0.513297
0.543146
0.543185
0.542621
0.534505
0.532823
0.532191
0.531734
0.531489
0.531355
0.531272
0.531209
0.53093
0.530681
0.530676
0.530877
0.531186
0.53124
0.531318
0.531458
0.531714
0.532129
0.532688
0.533316
0.536931
0.543266
0.543188
0.51465
0.507568
0.524063
0.513349
0.538267
0.543147
0.542591
0.53567
0.533134
0.532235
0.531717
0.531442
0.531296
0.531199
0.531116
0.531024
0.530666
0.530655
0.530992
0.531074
0.531139
0.531212
0.53133
0.531558
0.531953
0.532619
0.533507
0.539226
0.543188
0.543199
0.509572
0.509353
0.544825
0.522197
0.529204
0.543076
0.542211
0.53594
0.533386
0.532306
0.531725
0.531414
0.531244
0.531133
0.531033
0.530963
0.530655
0.53065
0.530927
0.530982
0.531056
0.531133
0.531245
0.531468
0.531898
0.532634
0.534068
0.540874
0.543238
0.539049
0.515108
0.531846
0.560168
0.562322
0.524434
0.541891
0.54141
0.535853
0.533388
0.532309
0.53171
0.531371
0.531188
0.531063
0.530951
0.530868
0.530636
0.530637
0.530831
0.530902
0.530985
0.531073
0.531193
0.531434
0.531913
0.532758
0.534847
0.541344
0.543188
0.53277
0.55274
0.556413
0.564856
0.565464
0.524443
0.539255
0.539908
0.535446
0.533344
0.532264
0.531641
0.531291
0.531107
0.530967
0.530868
0.530764
0.530628
0.530624
0.530742
0.530825
0.530916
0.53102
0.531158
0.531429
0.531959
0.532968
0.535363
0.54125
0.543195
0.529462
0.570491
0.567585
0.564921
0.565777
0.524267
0.536619
0.537589
0.534647
0.533185
0.532136
0.53152
0.531176
0.530996
0.530868
0.53077
0.530683
0.530615
0.530606
0.53067
0.530749
0.530844
0.530961
0.53112
0.531423
0.531991
0.533055
0.53537
0.540679
0.542377
0.528683
0.570157
0.56901
0.554469
0.565463
0.524423
0.535896
0.535236
0.53372
0.532857
0.531907
0.531347
0.531033
0.530865
0.530753
0.530638
0.530576
0.530487
0.530486
0.53058
0.530658
0.530767
0.530894
0.531061
0.531382
0.531968
0.53303
0.535149
0.539312
0.540841
0.528473
0.570321
0.556961
0.536547
0.565483
0.524266
0.536157
0.533709
0.532991
0.532407
0.531596
0.531123
0.530858
0.530716
0.530584
0.530494
0.530394
0.530373
0.530388
0.53043
0.530549
0.530661
0.530796
0.530961
0.531273
0.531855
0.532891
0.534564
0.537238
0.539541
0.52867
0.570154
0.537344
0.521822
0.564345
0.529814
0.536173
0.532904
0.532517
0.531936
0.531248
0.530854
0.53064
0.530521
0.530413
0.530324
0.530267
0.530265
0.530295
0.530319
0.530404
0.530498
0.530633
0.530797
0.531085
0.531614
0.532557
0.533695
0.53527
0.538251
0.528205
0.56806
0.5228
0.515637
0.561143
0.538147
0.536156
0.532238
0.53213
0.531485
0.530872
0.530535
0.530375
0.530271
0.530213
0.530161
0.530156
0.53007
0.530108
0.530216
0.530212
0.530296
0.530406
0.530551
0.530789
0.53123
0.532045
0.532785
0.533743
0.536467
0.52867
0.562229
0.516866
0.515247
0.557115
0.547183
0.536251
0.531355
0.531612
0.530989
0.530421
0.530147
0.530038
0.52999
0.529945
0.529972
0.529949
0.529902
0.529939
0.530007
0.530023
0.530046
0.530106
0.530196
0.530359
0.530717
0.531421
0.531918
0.532035
0.534415
0.528132
0.556056
0.516541
0.520471
0.552472
0.557563
0.538239
0.530586
0.530914
0.530351
0.529922
0.529768
0.529715
0.529712
0.52972
0.529723
0.529776
0.529777
0.529814
0.529801
0.529835
0.529758
0.529761
0.529798
0.529886
0.530135
0.530659
0.530968
0.530148
0.533391
0.52867
0.552893
0.520989
0.526155
0.540744
0.558886
0.54388
0.530518
0.530363
0.52981
0.529662
0.529652
0.529642
0.529632
0.529643
0.52965
0.529684
0.529666
0.529686
0.529696
0.529683
0.529628
0.52962
0.529628
0.529638
0.529713
0.529931
0.530011
0.529673
0.535182
0.54068
0.548278
0.527785
0.526114
0.522258
0.558851
0.551245
0.531682
0.530348
0.529671
0.529652
0.529641
0.529631
0.529625
0.529632
0.529641
0.529626
0.529617
0.529612
0.529619
0.529627
0.52962
0.529611
0.52962
0.529625
0.529636
0.529647
0.529657
0.529662
0.542414
0.555566
0.535082
0.531752
0.524658
0.514201
0.551572
0.551895
0.53463
0.530663
0.529693
0.529642
0.529631
0.529625
0.529616
0.529625
0.529626
0.529616
0.529605
0.529603
0.529612
0.529616
0.529611
0.529599
0.52961
0.52962
0.529625
0.529636
0.529646
0.529657
0.552202
0.555521
0.52621
0.530691
0.510039
0.514253
0.52731
0.55189
0.537902
0.531271
0.529803
0.529631
0.529625
0.529615
0.529605
0.529616
0.529615
0.529607
0.529598
0.529594
0.529603
0.529611
0.529598
0.529588
0.529599
0.52961
0.52962
0.529624
0.529943
0.533752
0.552227
0.539663
0.526282
0.518099
0.496964
0.522888
0.500553
0.543054
0.54018
0.532219
0.530089
0.529625
0.529615
0.529605
0.529592
0.529605
0.529605
0.529598
0.529588
0.52958
0.529594
0.529598
0.529588
0.529583
0.529586
0.529599
0.52961
0.52962
0.531326
0.54063
0.544809
0.509047
0.533166
0.502175
0.496341
0.53383
0.500446
0.526025
0.540034
0.53317
0.530495
0.529615
0.529605
0.529592
0.529588
0.529592
0.529598
0.529588
0.529577
0.529575
0.529579
0.529586
0.529583
0.529572
0.529583
0.529587
0.529599
0.529653
0.533176
0.540632
0.52782
0.502088
0.537859
0.497151
0.511462
0.547403
0.501567
0.515322
0.53751
0.533815
0.530748
0.529742
0.529591
0.529588
0.529578
0.529588
0.529632
0.529647
0.529564
0.529566
0.529591
0.529583
0.529572
0.529562
0.529572
0.529583
0.529587
0.530462
0.534466
0.538546
0.516117
0.502196
0.53908
0.497154
0.556227
0.562031
0.502606
0.509903
0.531706
0.533814
0.530768
0.530136
0.529588
0.529578
0.529567
0.529578
0.529781
0.529721
0.529555
0.529554
0.529704
0.529754
0.529562
0.529549
0.529562
0.529572
0.529738
0.531001
0.534465
0.531433
0.510171
0.50372
0.551605
0.541975
0.571396
0.574271
0.502282
0.502255
0.523517
0.533474
0.530766
0.530311
0.529601
0.529567
0.529556
0.529591
0.529789
0.529585
0.529547
0.529544
0.52961
0.529768
0.529561
0.529546
0.52955
0.529562
0.530226
0.531015
0.533826
0.521296
0.50155
0.502749
0.569326
0.566702
0.569724
0.581738
0.502012
0.495364
0.515261
0.532175
0.530899
0.53047
0.530013
0.529629
0.529551
0.529646
0.529706
0.529479
0.529538
0.529537
0.529516
0.529729
0.529644
0.529535
0.529563
0.529805
0.530501
0.531094
0.531942
0.512439
0.494413
0.502181
0.580193
0.568756
0.553143
0.584182
0.511943
0.494461
0.509213
0.529818
0.530837
0.530266
0.529905
0.529573
0.52943
0.529408
0.529276
0.529439
0.529313
0.529364
0.529475
0.529307
0.529388
0.529418
0.529513
0.529821
0.530279
0.530949
0.529185
0.506865
0.494275
0.515242
0.583158
0.554998
0.53697
0.585922
0.546948
0.49448
0.506192
0.526909
0.530149
0.529527
0.529225
0.529002
0.528897
0.52884
0.528788
0.529287
0.529068
0.529104
0.529295
0.528764
0.528785
0.528891
0.529018
0.529294
0.529533
0.53012
0.526212
0.50419
0.4943
0.554195
0.5862
0.538753
0.53082
0.585926
0.583229
0.504676
0.505664
0.523423
0.528302
0.528177
0.528073
0.528092
0.528182
0.528295
0.528466
0.529012
0.529051
0.529062
0.528975
0.528456
0.528283
0.528196
0.528175
0.528166
0.528197
0.528192
0.522881
0.504195
0.509291
0.586634
0.586721
0.531924
0.532631
0.584909
0.589105
0.53942
0.505917
0.520709
0.525756
0.52637
0.526679
0.527081
0.527419
0.527717
0.527961
0.528433
0.528837
0.52883
0.528373
0.527993
0.527766
0.527452
0.527146
0.526705
0.526377
0.525641
0.520366
0.504881
0.547055
0.588852
0.585185
0.533314
0.553629
0.578276
0.589113
0.575792
0.517085
0.52081
0.524682
0.525657
0.526179
0.526659
0.527089
0.527424
0.527619
0.527912
0.528467
0.528454
0.52786
0.527627
0.527451
0.527113
0.526663
0.526155
0.525642
0.524582
0.520588
0.518143
0.579877
0.588859
0.578538
0.554462
0.579547
0.574092
0.589162
0.58857
0.531486
0.522897
0.525
0.525958
0.526491
0.526894
0.527271
0.527569
0.52776
0.527973
0.52846
0.528437
0.527923
0.527735
0.527576
0.527279
0.526878
0.526466
0.525944
0.524932
0.522927
0.532594
0.588676
0.588906
0.574506
0.580282
0.593645
0.574106
0.589217
0.589162
0.539058
0.527365
0.5264
0.527011
0.527475
0.527754
0.528008
0.528166
0.5283
0.528389
0.528706
0.528666
0.528339
0.528252
0.528143
0.527969
0.527707
0.527456
0.527014
0.526395
0.527592
0.539568
0.588906
0.588962
0.574525
0.594046
0.597509
0.574144
0.589272
0.588319
0.539739
0.532219
0.529051
0.529078
0.529409
0.529568
0.529645
0.529557
0.529472
0.529364
0.529443
0.529407
0.529342
0.529458
0.529531
0.52958
0.529509
0.529396
0.529091
0.529091
0.532431
0.539904
0.588132
0.589019
0.574527
0.597704
0.597528
0.593802
0.589327
0.583597
0.538025
0.534423
0.531291
0.531016
0.531047
0.531026
0.53098
0.530871
0.530732
0.530593
0.530549
0.530538
0.530619
0.53075
0.530862
0.530954
0.531003
0.531041
0.531017
0.531299
0.534488
0.537947
0.583585
0.589075
0.59275
0.597718
0.597614
0.597528
0.589314
0.57242
0.53436
0.534296
0.531697
0.531408
0.531224
0.531144
0.531093
0.531133
0.53123
0.531208
0.531165
0.531164
0.531205
0.53122
0.53113
0.531103
0.531144
0.531221
0.531388
0.531662
0.534309
0.53409
0.572379
0.58907
0.597718
0.597806
0.597528
0.597922
0.58791
0.559133
0.531455
0.533527
0.531624
0.531366
0.531221
0.531155
0.531118
0.531158
0.531235
0.531218
0.531172
0.53117
0.53122
0.531225
0.531171
0.53114
0.531162
0.531221
0.531345
0.531579
0.53348
0.531331
0.558756
0.587575
0.598103
0.597718
0.597453
0.597442
0.58419
0.54864
0.531165
0.531969
0.53108
0.530933
0.530933
0.530937
0.53097
0.531024
0.531041
0.530996
0.53104
0.531037
0.531017
0.531071
0.531043
0.530996
0.530958
0.530947
0.530928
0.531041
0.531909
0.531135
0.547926
0.583609
0.597635
0.597635
0.592503
0.597672
0.571739
0.540597
0.531164
0.530837
0.530729
0.530723
0.530729
0.530735
0.530759
0.53079
0.53078
0.530785
0.530936
0.530941
0.530806
0.5308
0.530799
0.530768
0.530741
0.530735
0.530732
0.530735
0.530819
0.531134
0.539794
0.571047
0.597858
0.592736
0.57954
0.597356
0.549344
0.534181
0.532001
0.530989
0.530723
0.530718
0.530724
0.530736
0.530751
0.530756
0.530766
0.530891
0.531031
0.531037
0.530934
0.530773
0.530757
0.530752
0.53074
0.530732
0.530725
0.530732
0.530974
0.531951
0.533768
0.549066
0.597546
0.579921
0.557368
0.595691
0.529838
0.5312
0.532006
0.531506
0.530719
0.530715
0.530718
0.530738
0.530767
0.53078
0.530904
0.531139
0.531192
0.531197
0.531153
0.530934
0.530835
0.530786
0.530753
0.530725
0.53072
0.530725
0.531532
0.531956
0.531349
0.530032
0.595849
0.557742
0.528653
0.586413
0.524641
0.531319
0.532
0.531459
0.530815
0.530708
0.530759
0.530924
0.531033
0.531079
0.531186
0.531249
0.531245
0.531254
0.531257
0.531199
0.531127
0.531069
0.530968
0.53077
0.530715
0.53085
0.531521
0.531951
0.531584
0.524779
0.586447
0.528889
0.509482
0.574526
0.524666
0.532958
0.531144
0.530758
0.530698
0.530704
0.531102
0.53121
0.531216
0.531226
0.53123
0.531152
0.531056
0.53107
0.531159
0.531235
0.531232
0.531222
0.531223
0.53112
0.530711
0.530743
0.530829
0.531139
0.533322
0.524806
0.574463
0.509723
0.504706
0.561863
0.524796
0.536292
0.529335
0.529645
0.53018
0.530468
0.530788
0.53087
0.53089
0.53089
0.530812
0.530631
0.530452
0.530468
0.530634
0.53082
0.53089
0.53089
0.530875
0.530803
0.530486
0.530228
0.529695
0.529409
0.536599
0.524859
0.561942
0.505
0.504695
0.545328
0.525102
0.54236
0.527419
0.528159
0.52881
0.529079
0.529341
0.529603
0.529793
0.529822
0.529623
0.529383
0.529134
0.529133
0.529374
0.529631
0.52981
0.529781
0.529605
0.529346
0.529108
0.528832
0.528195
0.527493
0.542512
0.525185
0.54563
0.504988
0.504693
0.524384
0.526627
0.54684
0.526516
0.526609
0.526941
0.527024
0.527288
0.527642
0.527837
0.52786
0.527657
0.527439
0.527228
0.527214
0.527425
0.527663
0.527847
0.52782
0.527636
0.527277
0.527031
0.526925
0.526621
0.526507
0.547158
0.52686
0.524627
0.504983
0.50468
0.506892
0.530545
0.546834
0.526484
0.526516
0.526509
0.526516
0.526512
0.526516
0.526514
0.526516
0.526513
0.526516
0.52651
0.526516
0.526512
0.526516
0.526514
0.526516
0.526514
0.526516
0.52651
0.526516
0.526508
0.526516
0.547151
0.530893
0.507033
0.504969
0.524601
0.507039
0.53477
0.546853
0.526516
0.526493
0.526516
0.526499
0.526516
0.526505
0.526516
0.526505
0.526516
0.526501
0.526516
0.526501
0.526516
0.526502
0.526516
0.526506
0.526516
0.526501
0.526516
0.526496
0.526516
0.526484
0.547173
0.535007
0.50718
0.525453
0.558586
0.507383
0.534897
0.546834
0.526484
0.526812
0.526496
0.526516
0.526496
0.526516
0.526496
0.52659
0.526866
0.527415
0.528233
0.528208
0.527383
0.526768
0.526495
0.526516
0.526495
0.526516
0.526495
0.526516
0.526735
0.526516
0.54715
0.535005
0.507612
0.561368
0.582119
0.507556
0.531524
0.54684
0.530366
0.532274
0.529912
0.529523
0.530114
0.530874
0.53186
0.53245
0.533225
0.533874
0.535106
0.535094
0.533829
0.532735
0.53184
0.531142
0.530311
0.529626
0.529079
0.529475
0.531924
0.529943
0.547156
0.531497
0.507852
0.58689
0.599234
0.50769
0.525818
0.54674
0.537018
0.543082
0.541358
0.541239
0.5427
0.543712
0.54451
0.544626
0.544542
0.543404
0.543335
0.543334
0.543319
0.544129
0.544075
0.543922
0.542948
0.541698
0.540217
0.540398
0.542442
0.536807
0.547078
0.525677
0.508067
0.604126
0.61373
0.5157
0.523163
0.546471
0.542929
0.546889
0.546835
0.546893
0.546835
0.546896
0.546835
0.546872
0.546835
0.546714
0.544805
0.544749
0.546614
0.547153
0.547186
0.547153
0.547201
0.547153
0.547198
0.547153
0.547195
0.542875
0.546814
0.523104
0.516745
0.615674
0.617476
0.531968
0.523579
0.546389
0.546642
0.546835
0.546878
0.546835
0.546873
0.546835
0.546852
0.546835
0.546005
0.54479
0.542943
0.542881
0.544695
0.546208
0.547153
0.547169
0.547153
0.547188
0.547153
0.547195
0.547153
0.546832
0.546806
0.523626
0.532797
0.616073
0.617476
0.548937
0.52601
0.54591
0.546824
0.546849
0.546835
0.546848
0.546835
0.54684
0.546371
0.545628
0.543497
0.542293
0.54181
0.541813
0.542147
0.54343
0.545668
0.546553
0.547102
0.547153
0.547165
0.547153
0.547167
0.547035
0.546358
0.52618
0.550201
0.616073
0.617477
0.567911
0.531939
0.545298
0.54549
0.546596
0.546701
0.5467
0.546231
0.545535
0.54423
0.543118
0.543104
0.544686
0.545648
0.545659
0.544544
0.542746
0.542762
0.544071
0.545404
0.546266
0.546788
0.546836
0.546742
0.545536
0.545732
0.532172
0.571285
0.616073
0.617228
0.587706
0.54119
0.545268
0.54367
0.545156
0.545635
0.545804
0.544941