/*--------------------------------*- C++ -*----------------------------------*\
| =========                 |                                                 |
| \\      /  F ield         | OpenFOAM: The Open Source CFD Toolbox           |
|  \\    /   O peration     | Version:  2.3.0                                 |
|   \\  /    A nd           | Web:      www.OpenFOAM.org                      |
|    \\/     M anipulation  |                                                 |
\*---------------------------------------------------------------------------*/
FoamFile
{
    version     2.0;
    format      ascii;
    class       volScalarField;
    location    "0.14";
    object      Theta.particles;
}
// * * * * * * * * * * * * * * * * * * * * * * * * * * * * * * * * * * * * * //

dimensions      [0 2 -2 0 0 0 0];

internalField   nonuniform List<scalar> 
6000
(
0.00164446
0.00130103
0.00123894
0.00123115
0.00121787
0.00121661
0.00121554
0.00122032
0.0012254
0.00123507
0.00123896
0.00124439
0.00124732
0.00125198
0.00125362
0.00125395
0.00125102
0.00124883
0.00124296
0.0012414
0.00123349
0.00122792
0.00121869
0.00121769
0.00121557
0.00121979
0.00122994
0.0012398
0.00129957
0.00164389
1.88208e-05
7.03809e-06
9.8169e-06
1.37895e-05
1.73058e-05
2.03786e-05
2.26581e-05
2.43561e-05
2.59438e-05
2.74755e-05
2.87951e-05
2.98422e-05
3.06285e-05
3.11227e-05
3.1368e-05
3.13402e-05
3.11192e-05
3.06288e-05
2.98453e-05
2.88061e-05
2.74846e-05
2.5956e-05
2.43697e-05
2.26661e-05
2.04044e-05
1.73071e-05
1.37898e-05
9.79186e-06
7.04797e-06
1.88143e-05
0.000238555
8.98788e-05
8.81842e-05
8.71662e-05
7.76207e-05
6.22046e-05
4.23671e-05
2.65129e-05
1.79095e-05
1.36626e-05
1.15876e-05
1.06444e-05
1.01669e-05
9.9185e-06
9.76029e-06
9.71998e-06
9.88727e-06
1.01229e-05
1.06106e-05
1.15125e-05
1.35973e-05
1.78052e-05
2.63365e-05
4.21132e-05
6.19128e-05
7.75502e-05
8.689e-05
8.85465e-05
9.02938e-05
0.00023892
0.000178272
1.51999e-05
1.62797e-05
2.07479e-05
2.92732e-05
3.84582e-05
4.33123e-05
3.85317e-05
3.15028e-05
2.72898e-05
2.61281e-05
2.61204e-05
2.66024e-05
2.67483e-05
2.69146e-05
2.68334e-05
2.67874e-05
2.64808e-05
2.61852e-05
2.59723e-05
2.73596e-05
3.12516e-05
3.85656e-05
4.2953e-05
3.86724e-05
2.91724e-05
2.10912e-05
1.65221e-05
1.55237e-05
0.000178646
0.000150907
5.57527e-07
1.07464e-06
1.21377e-06
1.22603e-06
1.89113e-06
6.92496e-06
1.85672e-05
2.69701e-05
3.01468e-05
3.15378e-05
3.25596e-05
3.29939e-05
3.34554e-05
3.34618e-05
3.35621e-05
3.33245e-05
3.31123e-05
3.24309e-05
3.17185e-05
3.00587e-05
2.71869e-05
1.85799e-05
7.07916e-06
1.90821e-06
1.25862e-06
1.24359e-06
1.11103e-06
5.89402e-07
0.000151017
0.000135929
5.47989e-07
1.08106e-06
1.05209e-06
9.24483e-07
6.90292e-07
6.96513e-07
1.91824e-06
4.28986e-06
5.03407e-06
4.48642e-06
3.73006e-06
3.27043e-06
3.00839e-06
2.9526e-06
2.94318e-06
3.05028e-06
3.25184e-06
3.74782e-06
4.46407e-06
5.0763e-06
4.3213e-06
1.97373e-06
7.08268e-07
7.00156e-07
9.38511e-07
1.07507e-06
1.10816e-06
5.62823e-07
0.000135974
0.000118656
8.12848e-07
1.38812e-06
1.28141e-06
1.16325e-06
1.08703e-06
1.25308e-06
1.88608e-06
2.47577e-06
2.34603e-06
1.78493e-06
1.30429e-06
1.01428e-06
8.6597e-07
8.01048e-07
8.02646e-07
8.61035e-07
1.00984e-06
1.29317e-06
1.77238e-06
2.33093e-06
2.48845e-06
1.90252e-06
1.26857e-06
1.09567e-06
1.17561e-06
1.31055e-06
1.43518e-06
8.31327e-07
0.000119225
0.000105899
1.15075e-06
1.7321e-06
1.46671e-06
1.2436e-06
1.16278e-06
1.49668e-06
2.13627e-06
2.55517e-06
2.34657e-06
1.90363e-06
1.54018e-06
1.31579e-06
1.19668e-06
1.14738e-06
1.14564e-06
1.19484e-06
1.30852e-06
1.52585e-06
1.88274e-06
2.31578e-06
2.5357e-06
2.13378e-06
1.5055e-06
1.16539e-06
1.25019e-06
1.50148e-06
1.79993e-06
1.19833e-06
0.000106914
9.39544e-05
1.50456e-06
2.00447e-06
1.67486e-06
1.37762e-06
1.17659e-06
1.45857e-06
1.9385e-06
2.22928e-06
2.13199e-06
1.83538e-06
1.57554e-06
1.39836e-06
1.2993e-06
1.25833e-06
1.25628e-06
1.29633e-06
1.38926e-06
1.55966e-06
1.80678e-06
2.09452e-06
2.1766e-06
1.90389e-06
1.44705e-06
1.1684e-06
1.36603e-06
1.67806e-06
2.06717e-06
1.58605e-06
9.4698e-05
8.58919e-05
1.72183e-06
1.95358e-06
1.72971e-06
1.48312e-06
1.22025e-06
1.28149e-06
1.59745e-06
1.79581e-06
1.86761e-06
1.68715e-06
1.53127e-06
1.41918e-06
1.35193e-06
1.31964e-06
1.31978e-06
1.3457e-06
1.41262e-06
1.51669e-06
1.66319e-06
1.82488e-06
1.73963e-06
1.54462e-06
1.24514e-06
1.1778e-06
1.42183e-06
1.62736e-06
1.8549e-06
1.81912e-06
8.58864e-05
7.75782e-05
1.71094e-06
1.74697e-06
1.80214e-06
1.46536e-06
1.1524e-06
1.1043e-06
1.3182e-06
1.48561e-06
1.5653e-06
1.54845e-06
1.48534e-06
1.43558e-06
1.40207e-06
1.38367e-06
1.38257e-06
1.40056e-06
1.43033e-06
1.47419e-06
1.52708e-06
1.52992e-06
1.44127e-06
1.2729e-06
1.05699e-06
1.08125e-06
1.31157e-06
1.66232e-06
1.5252e-06
1.66085e-06
7.62916e-05
6.97704e-05
1.66628e-06
2.09694e-06
2.07683e-06
1.30176e-06
1.02704e-06
1.0474e-06
1.14948e-06
1.29075e-06
1.39596e-06
1.46062e-06
1.47202e-06
1.46502e-06
1.45406e-06
1.44868e-06
1.44888e-06
1.45377e-06
1.46257e-06
1.46778e-06
1.45062e-06
1.37447e-06
1.26426e-06
1.1178e-06
1.01531e-06
9.66264e-07
1.12727e-06
1.80083e-06
1.91165e-06
1.43769e-06
6.8932e-05
6.61531e-05
3.07251e-06
4.069e-06
2.50433e-06
1.26194e-06
9.26876e-07
1.03128e-06
1.09064e-06
1.19468e-06
1.3001e-06
1.39318e-06
1.44327e-06
1.46218e-06
1.46798e-06
1.47276e-06
1.47314e-06
1.469e-06
1.46283e-06
1.44293e-06
1.3897e-06
1.29218e-06
1.18066e-06
1.07481e-06
1.01541e-06
9.03992e-07
1.14902e-06
2.09642e-06
3.77408e-06
2.4694e-06
6.70341e-05
6.53631e-05
5.96288e-06
7.63456e-06
3.72085e-06
1.50385e-06
8.67383e-07
9.84025e-07
1.06887e-06
1.133e-06
1.2231e-06
1.30704e-06
1.3685e-06
1.40192e-06
1.41674e-06
1.42328e-06
1.42361e-06
1.41832e-06
1.40449e-06
1.37157e-06
1.30948e-06
1.22367e-06
1.13064e-06
1.0649e-06
9.84283e-07
8.95833e-07
1.61179e-06
3.45814e-06
6.45912e-06
4.78952e-06
6.7948e-05
8.07881e-05
1.27129e-05
1.07891e-05
5.13301e-06
2.32309e-06
9.05719e-07
8.80706e-07
9.89342e-07
1.0524e-06
1.11656e-06
1.18645e-06
1.2453e-06
1.28518e-06
1.3061e-06
1.31367e-06
1.31416e-06
1.30788e-06
1.28837e-06
1.24985e-06
1.19158e-06
1.1216e-06
1.05572e-06
9.92597e-07
8.90762e-07
9.90061e-07
2.73678e-06
6.08157e-06
9.76723e-06
1.41302e-05
8.59696e-05
9.03667e-05
1.6688e-05
1.48227e-05
5.57595e-06
3.37736e-06
1.1202e-06
7.41435e-07
8.28441e-07
9.04093e-07
9.63586e-07
1.01905e-06
1.07018e-06
1.10877e-06
1.13184e-06
1.14065e-06
1.14107e-06
1.13307e-06
1.11116e-06
1.07403e-06
1.02379e-06
9.69441e-07
9.09132e-07
8.33695e-07
7.7353e-07
1.44545e-06
4.93363e-06
8.03736e-06
1.4208e-05
2.7304e-05
0.000103504
9.27981e-05
1.30305e-05
1.89106e-05
6.60526e-06
4.02766e-06
1.74841e-06
6.68033e-07
6.08456e-07
6.8069e-07
7.41151e-07
7.91685e-07
8.33845e-07
8.66556e-07
8.87788e-07
8.96685e-07
8.969e-07
8.88109e-07
8.67567e-07
8.3554e-07
7.95181e-07
7.4539e-07
6.84283e-07
6.159e-07
7.50988e-07
2.48394e-06
5.86863e-06
7.31788e-06
1.99563e-05
2.55806e-05
9.88131e-05
9.71795e-05
1.14419e-05
1.63051e-05
9.74209e-06
4.78417e-06
2.561e-06
8.35889e-07
4.27307e-07
4.28884e-07
4.77179e-07
5.2136e-07
5.57274e-07
5.84024e-07
6.01105e-07
6.09424e-07
6.09378e-07
6.00492e-07
5.83688e-07
5.57582e-07
5.22704e-07
4.7864e-07
4.28076e-07
4.26326e-07
9.18883e-07
3.07647e-06
4.52325e-06
7.90239e-06
2.63328e-05
1.48498e-05
8.88529e-05
9.40861e-05
1.43929e-05
1.49258e-05
1.28323e-05
6.93918e-06
3.5173e-06
1.40962e-06
4.17565e-07
2.42776e-07
2.46636e-07
2.75153e-07
3.02101e-07
3.22142e-07
3.34821e-07
3.4141e-07
3.40934e-07
3.33673e-07
3.20622e-07
3.00916e-07
2.74485e-07
2.44588e-07
2.31806e-07
3.65514e-07
1.20577e-06
2.74495e-06
4.07878e-06
1.16026e-05
2.46273e-05
6.8789e-06
7.94235e-05
7.21895e-05
2.45089e-05
1.81204e-05
1.28058e-05
9.10613e-06
4.77816e-06
2.04975e-06
6.44248e-07
1.82856e-07
1.11392e-07
1.1449e-07
1.28933e-07
1.42175e-07
1.50162e-07
1.5328e-07
1.52966e-07
1.49309e-07
1.41272e-07
1.28358e-07
1.13222e-07
1.07286e-07
1.58687e-07
4.97931e-07
1.45923e-06
2.59207e-06
5.38057e-06
1.43265e-05
1.33949e-05
6.76598e-06
8.73694e-05
6.0327e-05
2.95523e-05
3.06091e-05
1.91022e-05
1.02062e-05
5.52263e-06
2.4047e-06
9.33594e-07
2.49993e-07
6.93599e-08
4.35923e-08
4.51945e-08
5.06604e-08
5.50372e-08
5.65579e-08
5.62239e-08
5.41899e-08
4.96567e-08
4.42346e-08
4.31506e-08
6.55245e-08
2.1252e-07
7.32447e-07
1.69655e-06
3.31726e-06
8.301e-06
1.31144e-05
1.26689e-05
1.56058e-05
9.17867e-05
6.82187e-05
1.94361e-05
3.18181e-05
1.80955e-05
9.9772e-06
6.02537e-06
2.79995e-06
1.07047e-06
3.48426e-07
8.22113e-08
2.50633e-08
1.72519e-08
1.6534e-08
1.70044e-08
1.74775e-08
1.73436e-08
1.67361e-08
1.62542e-08
1.81014e-08
2.80756e-08
8.54421e-08
3.16468e-07
8.60834e-07
1.89921e-06
4.71669e-06
1.04453e-05
1.63717e-05
2.90382e-05
3.26913e-05
7.38254e-05
7.64201e-05
1.15056e-05
3.85668e-05
2.087e-05
6.42938e-06
3.32472e-06
2.21175e-06
8.84565e-07
3.32157e-07
9.81325e-08
2.62736e-08
1.19637e-08
9.78295e-09
9.33887e-09
9.13217e-09
9.27257e-09
9.87352e-09
1.12999e-08
1.52728e-08
3.65576e-08
1.22309e-07
3.5614e-07
8.58112e-07
2.07323e-06
5.15798e-06
1.20955e-05
2.37816e-05
3.51605e-05
2.01558e-05
7.08627e-05
7.96183e-05
8.37228e-06
3.99558e-05
3.31351e-05
9.82109e-06
2.05964e-06
1.07826e-06
5.19655e-07
2.05814e-07
8.09632e-08
3.12421e-08
1.62903e-08
1.24172e-08
1.16342e-08
1.14069e-08
1.16327e-08
1.25535e-08
1.50185e-08
2.40496e-08
5.20515e-08
1.25496e-07
3.09125e-07
7.38701e-07
1.89509e-06
4.30994e-06
9.24342e-06
2.01423e-05
2.69985e-05
1.07308e-05
7.2218e-05
8.16519e-05
5.92729e-06
3.20868e-05
3.16691e-05
1.59845e-05
2.53981e-06
3.84372e-07
2.29203e-07
8.92983e-08
4.78298e-08
3.24981e-08
2.79509e-08
2.50725e-08
2.31072e-08
2.251e-08
2.27207e-08
2.42823e-08
2.81732e-08
3.50199e-08
4.87344e-08
8.9716e-08
1.85334e-07
4.32264e-07
1.14845e-06
2.64307e-06
9.77991e-06
2.8128e-05
3.87231e-05
1.09738e-05
7.81324e-05
8.33308e-05
3.60962e-06
2.49448e-05
2.32233e-05
1.67264e-05
3.89406e-06
2.1737e-07
8.90074e-08
3.62786e-08
2.57721e-08
3.02853e-08
3.42403e-08
3.781e-08
3.88896e-08
3.86835e-08
3.82501e-08
3.76093e-08
3.62462e-08
3.46251e-08
3.65768e-08
4.73843e-08
8.24291e-08
2.02399e-07
4.63538e-07
3.23426e-06
1.64838e-05
3.18809e-05
4.58608e-05
9.45746e-06
8.52083e-05
8.13538e-05
3.55686e-06
1.98401e-05
1.5146e-05
1.10616e-05
3.95142e-06
3.01903e-07
6.80117e-08
3.72457e-08
2.70135e-08
3.09023e-08
3.63137e-08
4.00722e-08
4.18403e-08
4.18225e-08
4.08685e-08
3.87327e-08
3.54047e-08
3.11997e-08
2.70185e-08
2.56625e-08
4.28662e-08
1.09634e-07
3.65538e-07
5.03227e-06
1.88341e-05
2.94872e-05
3.55576e-05
3.95721e-06
9.52693e-05
9.86508e-05
1.03716e-05
2.3283e-05
9.98341e-06
4.83804e-06
2.59087e-06
5.57048e-07
1.24127e-07
7.32171e-08
5.0108e-08
4.24838e-08
4.15305e-08
4.18228e-08
4.17073e-08
4.08589e-08
3.9437e-08
3.73479e-08
3.43994e-08
3.07293e-08
2.757e-08
2.89333e-08
4.75023e-08
9.91445e-08
4.90421e-07
5.3715e-06
1.28326e-05
2.2322e-05
2.4857e-05
2.25773e-06
9.54125e-05
0.000127991
2.09852e-05
2.83153e-05
1.00423e-05
3.84411e-06
1.72732e-06
7.39929e-07
2.19803e-07
1.25024e-07
8.81696e-08
6.73404e-08
5.73158e-08
5.20732e-08
4.87706e-08
4.64034e-08
4.45058e-08
4.29194e-08
4.1748e-08
4.15151e-08
4.44157e-08
5.53058e-08
8.31095e-08
1.53437e-07
7.28691e-07
3.32665e-06
7.11536e-06
1.58338e-05
2.49583e-05
3.82306e-06
8.55589e-05
0.000141209
3.63115e-05
3.60612e-05
9.15948e-06
3.4022e-06
1.32744e-06
7.42196e-07
3.18009e-07
1.7624e-07
1.27878e-07
1.00263e-07
8.40527e-08
7.44136e-08
6.84269e-08
6.47183e-08
6.23587e-08
6.13688e-08
6.1986e-08
6.5102e-08
7.33318e-08
9.20985e-08
1.25987e-07
2.47013e-07
8.41442e-07
1.91666e-06
4.83495e-06
1.37963e-05
3.43859e-05
5.79624e-06
7.57084e-05
0.000164362
4.5158e-05
4.98436e-05
9.93298e-06
2.97191e-06
1.18734e-06
6.79674e-07
3.80551e-07
2.18363e-07
1.55325e-07
1.24168e-07
1.06393e-07
9.64173e-08
9.03913e-08
8.6618e-08
8.43551e-08
8.36866e-08
8.43005e-08
8.72898e-08
9.52305e-08
1.13727e-07
1.59847e-07
3.28182e-07
7.74404e-07
1.59862e-06
4.97034e-06
1.54379e-05
4.16948e-05
6.04924e-06
6.93508e-05
0.00018255
3.99985e-05
5.82728e-05
1.3723e-05
3.00899e-06
1.16076e-06
6.43564e-07
4.03897e-07
2.45264e-07
1.67122e-07
1.30336e-07
1.1104e-07
1.02183e-07
9.77767e-08
9.50092e-08
9.34281e-08
9.21677e-08
9.18184e-08
9.4562e-08
1.02875e-07
1.23193e-07
1.82984e-07
3.45077e-07
6.45386e-07
1.4803e-06
4.70361e-06
1.49576e-05
4.33389e-05
9.41658e-06
7.72649e-05
0.000167878
2.87789e-05
5.42812e-05
2.06833e-05
4.20613e-06
1.46595e-06
7.28264e-07
4.21133e-07
2.54959e-07
1.67393e-07
1.26133e-07
1.05181e-07
9.52073e-08
9.15505e-08
8.97178e-08
8.83956e-08
8.77697e-08
8.89102e-08
9.37592e-08
1.03353e-07
1.25005e-07
1.82715e-07
3.02863e-07
5.43095e-07
1.36757e-06
4.25973e-06
1.50532e-05
4.59428e-05
1.50407e-05
0.000109722
0.000151683
2.50254e-05
2.67842e-05
2.26453e-05
7.24933e-06
2.46563e-06
9.61049e-07
4.5466e-07
2.50764e-07
1.55687e-07
1.14717e-07
9.62311e-08
8.59447e-08
8.17033e-08
8.07489e-08
8.00306e-08
8.12801e-08
8.49171e-08
8.9685e-08
9.68198e-08
1.14326e-07
1.5553e-07
2.38513e-07
4.71473e-07
1.245e-06
4.13079e-06
1.59367e-05
4.55992e-05
2.1854e-05
0.000158239
0.00012745
3.50857e-05
1.40999e-05
1.65808e-05
1.0893e-05
3.6135e-06
1.369e-06
5.13307e-07
2.34176e-07
1.33918e-07
9.53259e-08
8.29721e-08
7.72941e-08
7.35109e-08
7.38024e-08
7.49907e-08
7.6342e-08
7.9271e-08
8.09715e-08
8.43677e-08
9.61491e-08
1.2414e-07
1.93727e-07
4.32581e-07
1.22787e-06
4.58987e-06
1.79378e-05
4.37408e-05
3.50951e-05
0.000209863
0.000112241
5.38928e-05
3.09523e-05
1.7298e-05
1.98826e-05
8.36923e-06
1.62685e-06
5.61409e-07
2.09316e-07
1.06437e-07
7.40521e-08
6.69565e-08
6.79104e-08
6.86579e-08
7.04908e-08
7.24192e-08
7.21714e-08
7.13656e-08
7.03273e-08
7.1337e-08
7.93146e-08
1.02764e-07
1.72636e-07
4.27698e-07
1.3403e-06
5.36901e-06
1.89766e-05
4.314e-05
4.33569e-05
0.000197313
9.92419e-05
2.4546e-05
3.66425e-05
1.96291e-05
1.4904e-05
1.48435e-05
2.40587e-06
5.25649e-07
1.6597e-07
7.93256e-08
5.64934e-08
5.53334e-08
5.9835e-08
6.48655e-08
6.78212e-08
6.84423e-08
6.7498e-08
6.41844e-08
6.19438e-08
6.14966e-08
6.7194e-08
8.77971e-08
1.57636e-07
4.19822e-07
1.4728e-06
5.94503e-06
1.83232e-05
4.86052e-05
4.23179e-05
0.000155627
7.67613e-05
1.0132e-05
1.58548e-05
9.73178e-06
5.53184e-06
7.88894e-06
2.85615e-06
3.50533e-07
1.30618e-07
5.53568e-08
4.60802e-08
5.12735e-08
5.56635e-08
6.02146e-08
6.28939e-08
6.25721e-08
6.23748e-08
5.97207e-08
5.73473e-08
5.60337e-08
5.87703e-08
7.20576e-08
1.30087e-07
3.66214e-07
1.39014e-06
5.24496e-06
1.97449e-05
5.25846e-05
3.51429e-05
0.000153005
4.64719e-05
5.19027e-06
9.97852e-06
1.60943e-05
6.81226e-06
2.47919e-06
1.82712e-06
8.31422e-08
8.56111e-08
5.364e-08
5.04278e-08
5.11364e-08
5.39411e-08
5.61176e-08
5.71012e-08
5.67558e-08
5.72976e-08
5.64739e-08
5.4569e-08
5.28577e-08
5.21514e-08
5.64954e-08
9.62203e-08
2.8754e-07
1.05924e-06
4.46052e-06
2.06801e-05
4.47357e-05
3.15877e-05
0.000138764
3.04191e-05
2.73293e-06
2.18157e-05
2.22618e-05
1.26879e-05
3.01285e-06
4.53192e-07
6.73502e-08
5.5505e-08
5.48705e-08
5.29574e-08
5.16949e-08
5.23674e-08
5.24135e-08
5.18916e-08
5.17043e-08
5.22113e-08
5.23516e-08
5.10309e-08
4.91463e-08
4.65539e-08
4.5583e-08
7.30647e-08
1.98033e-07
7.10616e-07
3.85086e-06
1.8502e-05
4.99496e-05
3.62813e-05
0.000121558
3.27692e-05
3.76338e-06
5.29782e-05
2.5416e-05
1.27634e-05
4.82253e-06
5.22394e-07
1.07899e-07
6.753e-08
5.7541e-08
5.21117e-08
5.04137e-08
4.93466e-08
4.80926e-08
4.71059e-08
4.70307e-08
4.71331e-08
4.72704e-08
4.64266e-08
4.4942e-08
4.23278e-08
4.11914e-08
5.81228e-08
1.39647e-07
5.39205e-07
4.66681e-06
2.33875e-05
8.79773e-05
3.30336e-05
0.000122654
4.23772e-05
7.13372e-06
5.14761e-05
4.10093e-05
1.33402e-05
4.08223e-06
4.52375e-07
1.23047e-07
6.89693e-08
5.58157e-08
4.92783e-08
4.6111e-08
4.40169e-08
4.24229e-08
4.12258e-08
4.12292e-08
4.1421e-08
4.17575e-08
4.14701e-08
4.04743e-08
3.894e-08
3.9732e-08
5.5934e-08
1.57157e-07
7.64349e-07
6.81115e-06
3.32246e-05
8.7491e-05
1.64641e-05
0.000131762
5.48628e-05
4.16965e-06
2.33354e-05
3.18644e-05
1.08848e-05
2.95484e-06
4.12814e-07
1.18206e-07
6.2348e-08
4.85339e-08
4.25912e-08
3.89361e-08
3.6339e-08
3.47595e-08
3.38828e-08
3.38187e-08
3.37883e-08
3.43846e-08
3.47436e-08
3.45071e-08
3.40903e-08
3.75367e-08
6.1075e-08
1.93078e-07
1.00246e-06
7.02041e-06
2.86672e-05
5.62176e-05
1.60887e-05
0.000164846
5.08287e-05
8.42575e-07
2.73435e-05
2.38611e-05
7.49627e-06
2.02662e-06
4.49648e-07
1.11914e-07
5.55056e-08
4.00857e-08
3.45491e-08
3.15909e-08
3.04646e-08
3.03365e-08
3.05539e-08
3.03392e-08
2.90227e-08
2.79185e-08
2.72703e-08
2.78941e-08
2.85945e-08
3.36751e-08
6.23467e-08
2.03976e-07
1.00342e-06
5.6043e-06
1.91321e-05
4.5327e-05
2.69167e-05
0.000207814
4.17285e-05
5.1661e-07
3.23193e-05
1.93242e-05
5.34038e-06
1.40014e-06
4.46948e-07
1.14321e-07
5.44347e-08
3.68544e-08
3.13447e-08
3.03801e-08
3.11435e-08
3.22141e-08
3.30335e-08
3.26547e-08
3.11435e-08
2.85892e-08
2.65212e-08
2.5483e-08
2.63061e-08
3.14642e-08
6.16617e-08
1.96318e-07
8.50717e-07
3.86446e-06
1.50878e-05
4.97912e-05
4.52554e-05
0.000243821
3.99898e-05
2.70881e-07
3.96823e-05
1.89826e-05
4.25272e-06
1.03639e-06
4.01208e-07
1.17383e-07
5.57915e-08
3.89412e-08
3.39707e-08
3.4335e-08
3.5032e-08
3.59755e-08
3.617e-08
3.60765e-08
3.53316e-08
3.40521e-08
3.22913e-08
2.96686e-08
2.93336e-08
3.45375e-08
6.37836e-08
1.8514e-07
7.05342e-07
3.2176e-06
1.48946e-05
5.55323e-05
6.00772e-05
0.000261096
4.93883e-05
8.4453e-07
3.86572e-05
1.87935e-05
3.56806e-06
8.27387e-07
3.23331e-07
1.19131e-07
5.49892e-08
4.05239e-08
3.7246e-08
3.72012e-08
3.75209e-08
3.7648e-08
3.78406e-08
3.76924e-08
3.77252e-08
3.73918e-08
3.69474e-08
3.55998e-08
3.53349e-08
4.01786e-08
6.6637e-08
1.76899e-07
6.63112e-07
3.05197e-06
1.50899e-05
5.95909e-05
6.35478e-05
0.000227256
7.17251e-05
6.85676e-06
4.31863e-05
1.5616e-05
3.0123e-06
6.72151e-07
2.44796e-07
1.06001e-07
5.32937e-08
4.0435e-08
3.78172e-08
3.81669e-08
3.81879e-08
3.82601e-08
3.82041e-08
3.83913e-08
3.8551e-08
3.88616e-08
3.88053e-08
3.89041e-08
3.99789e-08
4.4348e-08
6.71361e-08
1.66092e-07
6.37989e-07
2.97078e-06
1.50053e-05
6.05946e-05
6.76737e-05
0.000227985
9.81535e-05
8.98119e-06
5.37152e-05
1.44301e-05
2.49988e-06
5.15618e-07
1.66691e-07
7.95237e-08
4.83116e-08
4.11504e-08
3.88616e-08
3.84751e-08
3.82537e-08
3.83822e-08
3.8524e-08
3.87035e-08
3.91366e-08
3.96165e-08
4.02785e-08
4.10978e-08
4.34607e-08
4.71199e-08
6.61162e-08
1.53988e-07
5.9716e-07
2.77878e-06
1.42235e-05
6.29123e-05
7.43003e-05
0.000255448
0.000161765
1.66121e-05
5.87117e-05
1.37037e-05
2.10608e-06
3.8689e-07
1.14504e-07
5.18999e-08
3.93736e-08
4.00721e-08
4.09343e-08
3.83398e-08
3.79672e-08
3.82891e-08
3.8663e-08
3.90539e-08
3.94623e-08
4.01537e-08
4.1295e-08
4.43135e-08
4.59477e-08
4.76905e-08
6.22633e-08
1.38891e-07
5.48349e-07
2.60981e-06
1.42428e-05
6.87086e-05
7.69189e-05
0.000276093
0.000347115
4.37469e-05
6.47425e-05
1.36657e-05
1.9267e-06
3.14162e-07
8.01592e-08
3.80364e-08
3.19222e-08
3.54765e-08
3.88619e-08
3.65166e-08
3.69152e-08
3.73895e-08
3.77179e-08
3.82531e-08
3.88019e-08
3.93863e-08
4.02816e-08
4.57295e-08
4.44341e-08
4.42156e-08
5.41224e-08
1.25294e-07
5.14057e-07
2.6018e-06
1.4929e-05
7.01945e-05
7.19713e-05
0.000267295
0.000437748
8.17155e-05
7.53615e-05
1.60835e-05
1.94696e-06
2.90768e-07
5.9947e-08
2.94443e-08
2.83316e-08
3.13605e-08
3.45892e-08
3.58361e-08
3.57621e-08
3.56833e-08
3.6059e-08
3.6407e-08
3.70595e-08
3.75638e-08
3.88063e-08
4.17313e-08
3.94509e-08
3.90239e-08
4.75266e-08
1.16901e-07
4.96746e-07
2.60843e-06
1.49933e-05
6.79939e-05
7.06703e-05
0.000253874
0.000281855
7.16764e-05
7.93716e-05
2.07703e-05
2.4291e-06
3.21328e-07
6.13674e-08
2.64214e-08
2.66508e-08
2.96962e-08
3.25938e-08
3.68937e-08
3.43954e-08
3.42453e-08
3.45689e-08
3.49253e-08
3.52069e-08
3.5932e-08
3.94106e-08
3.67313e-08
3.51608e-08
3.51164e-08
4.47588e-08
1.12602e-07
4.82541e-07
2.53797e-06
1.52994e-05
7.06839e-05
7.47828e-05
0.000243032
0.000251125
6.73002e-05
6.89208e-05
2.20676e-05
3.24524e-06
3.87503e-07
6.81904e-08
2.67926e-08
2.61364e-08
2.90578e-08
3.1625e-08
3.47714e-08
3.34584e-08
3.33103e-08
3.34918e-08
3.36716e-08
3.3947e-08
3.45327e-08
3.812e-08
3.37836e-08
3.24231e-08
3.23371e-08
4.22637e-08
1.09701e-07
4.74771e-07
2.58101e-06
1.74809e-05
7.53974e-05
7.43828e-05
0.000235445
0.00024984
6.69847e-05
6.11361e-05
1.97429e-05
3.54262e-06
4.2331e-07
7.03446e-08
2.71974e-08
2.63301e-08
2.89236e-08
3.07522e-08
3.23089e-08
3.41891e-08
3.30749e-08
3.25399e-08
3.27191e-08
3.29308e-08
3.51185e-08
3.36083e-08
3.13809e-08
3.00394e-08
2.95876e-08
3.88099e-08
1.0571e-07
4.73075e-07
2.83876e-06
1.8973e-05
7.20192e-05
7.16705e-05
0.000236853
0.000243107
7.14551e-05
5.64379e-05
1.61073e-05
3.33871e-06
4.49862e-07
7.25673e-08
2.89541e-08
2.78185e-08
2.97198e-08
3.07285e-08
3.18824e-08
3.41129e-08
3.25902e-08
3.19868e-08
3.18644e-08
3.22927e-08
3.4718e-08
3.08088e-08
2.94535e-08
2.80074e-08
2.70151e-08
3.48294e-08
9.68662e-08
4.60935e-07
3.04108e-06
1.81756e-05
6.54908e-05
6.84353e-05
0.000239222
0.000241993
7.55864e-05
5.64789e-05
1.30977e-05
2.80022e-06
4.7135e-07
7.84782e-08
3.41614e-08
3.1028e-08
3.1653e-08
3.16722e-08
3.15006e-08
3.25548e-08
3.26881e-08
3.19486e-08
3.17387e-08
3.23961e-08
3.19028e-08
2.94509e-08
2.85316e-08
2.70926e-08
2.556e-08
3.04443e-08
8.23973e-08
4.28728e-07
2.86484e-06
1.57984e-05
6.07675e-05
6.91616e-05
0.00023834
0.000247347
7.88396e-05
5.80391e-05
1.14425e-05
2.12831e-06
4.41e-07
8.99636e-08
4.06084e-08
3.46355e-08
3.36754e-08
3.27755e-08
3.19282e-08
3.15305e-08
3.30131e-08
3.17332e-08
3.12799e-08
3.26801e-08
2.98793e-08
2.92142e-08
2.87093e-08
2.76134e-08
2.58419e-08
2.79868e-08
7.044e-08
3.8978e-07
2.50826e-06
1.3848e-05
5.89166e-05
7.20677e-05
0.000241943
0.000272685
8.72898e-05
5.95664e-05
1.05813e-05
1.69333e-06
3.58452e-07
9.82742e-08
4.55798e-08
3.74046e-08
3.51484e-08
3.35388e-08
3.20989e-08
3.11865e-08
3.17129e-08
3.12199e-08
3.10591e-08
3.12376e-08
2.96488e-08
2.98356e-08
2.98385e-08
2.92901e-08
2.82445e-08
2.99968e-08
6.70981e-08
3.43728e-07
2.10114e-06
1.21757e-05
5.82233e-05
7.78951e-05
0.000259077
0.000314003
9.93896e-05
6.13405e-05
9.9108e-06
1.51262e-06
2.94045e-07
9.12196e-08
4.6664e-08
3.8425e-08
3.56204e-08
3.37492e-08
3.2181e-08
3.09898e-08
3.05447e-08
3.09318e-08
3.10197e-08
2.98594e-08
2.99888e-08
3.04477e-08
3.1149e-08
3.16326e-08
3.19325e-08
3.55278e-08
7.0327e-08
3.1566e-07
1.79069e-06
1.09014e-05
5.95833e-05
8.9427e-05
0.000302934
0.000332653
0.00011187
6.52334e-05
9.50077e-06
1.4143e-06
2.76815e-07
8.57319e-08
4.54727e-08
3.69801e-08
3.43961e-08
3.29382e-08
3.15453e-08
3.04472e-08
2.99817e-08
2.96953e-08
2.97348e-08
2.9786e-08
3.00727e-08
3.1058e-08
3.21461e-08
3.34843e-08
3.54739e-08
4.19864e-08
7.95468e-08
3.02736e-07
1.55298e-06
1.00855e-05
6.22646e-05
0.000103103
0.000349658
0.000321619
0.000117727
7.34751e-05
9.82607e-06
1.3671e-06
2.64102e-07
8.50953e-08
4.45616e-08
3.57437e-08
3.30524e-08
3.14097e-08
3.0133e-08
2.97946e-08
2.89136e-08
2.96909e-08
2.97452e-08
2.89757e-08
2.99624e-08
3.0962e-08
3.25415e-08
3.46084e-08
3.80343e-08
4.69616e-08
8.87722e-08
2.90723e-07
1.43684e-06
9.57468e-06
6.72482e-05
0.00011414
0.000339738
0.000303809
0.000104551
7.72074e-05
1.07475e-05
1.38084e-06
2.52963e-07
7.86151e-08
4.13943e-08
3.36547e-08
3.11231e-08
2.98588e-08
2.94959e-08
2.81302e-08
2.87645e-08
2.801e-08
2.82423e-08
2.88611e-08
2.92248e-08
3.01999e-08
3.18228e-08
3.42447e-08
3.83833e-08
4.9009e-08
9.22399e-08
2.8671e-07
1.44472e-06
1.00116e-05
7.51938e-05
0.000112262
0.000319145
0.000276317
9.16096e-05
7.42745e-05
1.15483e-05
1.45763e-06
2.56064e-07
7.35593e-08
3.74488e-08
3.02499e-08
2.86668e-08
2.78352e-08
2.68999e-08
2.65111e-08
2.58097e-08
2.59217e-08
2.6186e-08
2.67132e-08
2.77663e-08
2.90647e-08
3.05805e-08
3.25923e-08
3.66495e-08
4.8344e-08
9.49109e-08
2.9746e-07
1.49008e-06
1.06395e-05
7.64477e-05
9.49953e-05
0.000284646
0.000247728
8.81843e-05
6.72746e-05
1.17526e-05
1.55225e-06
2.66308e-07
7.09362e-08
3.45837e-08
2.74231e-08
2.59123e-08
2.55317e-08
2.45143e-08
2.53093e-08
2.38565e-08
2.62911e-08
2.66417e-08
2.47846e-08
2.61127e-08
2.67607e-08
2.78553e-08
2.98408e-08
3.37235e-08
4.56163e-08
9.24545e-08
2.96162e-07
1.49805e-06
1.08814e-05
7.01393e-05
8.7528e-05
0.000245648
0.000230981
8.83162e-05
6.48868e-05
1.1562e-05
1.60667e-06
2.7848e-07
6.98703e-08
3.2164e-08
2.47922e-08
2.32302e-08
2.2748e-08
2.40118e-08
2.27374e-08
2.54882e-08
2.22833e-08
2.26621e-08
2.57238e-08
2.36947e-08
2.39279e-08
2.47348e-08
2.63516e-08
2.96078e-08
3.96713e-08
8.23891e-08
2.82116e-07
1.51634e-06
1.07108e-05
6.59506e-05
8.84191e-05
0.00022826
0.000230008
8.88404e-05
6.378e-05
1.11864e-05
1.60069e-06
2.79334e-07
6.85198e-08
2.93659e-08
2.18964e-08
2.09367e-08
2.06646e-08
2.03938e-08
2.18416e-08
2.09134e-08
2.06021e-08
2.07339e-08
2.12201e-08
2.15092e-08
2.19483e-08
2.21446e-08
2.23322e-08
2.37888e-08
3.22004e-08
7.18831e-08
2.67523e-07
1.49293e-06
1.04324e-05
6.43611e-05
8.93872e-05
0.000227807
0.000236709
9.11251e-05
6.39753e-05
1.10443e-05
1.52822e-06
2.66327e-07
6.42528e-08
2.5898e-08
1.8799e-08
1.77432e-08
1.87893e-08
1.84514e-08
1.95436e-08
1.88718e-08
2.27962e-08
2.27636e-08
1.8849e-08
2.06488e-08
1.89241e-08
1.81939e-08
1.79182e-08
1.90409e-08
2.62498e-08
6.18291e-08
2.42953e-07
1.37541e-06
1.01399e-05
6.19986e-05
9.14797e-05
0.000234199
0.000248045
9.39238e-05
6.48666e-05
1.15188e-05
1.54683e-06
2.53229e-07
5.74821e-08
2.25975e-08
1.61099e-08
1.5842e-08
1.64406e-08
1.91335e-08
1.79475e-08
2.15245e-08
1.9269e-08
1.92811e-08
2.11356e-08
1.83629e-08
1.68638e-08
1.55073e-08
1.48064e-08
1.53092e-08
2.13251e-08
5.1705e-08
2.14815e-07
1.26605e-06
1.00429e-05
6.23539e-05
9.80351e-05
0.000244964
0.000258067
9.32332e-05
6.30754e-05
1.18789e-05
1.66721e-06
2.56509e-07
5.53348e-08
2.26124e-08
1.75308e-08
1.75819e-08
1.81028e-08
1.90566e-08
2.11534e-08
1.94994e-08
1.89653e-08
1.87634e-08
1.97772e-08
1.84947e-08
1.91431e-08
1.73575e-08
1.59289e-08
1.53907e-08
2.04289e-08
4.98018e-08
2.1438e-07
1.35994e-06
1.09576e-05
6.69001e-05
0.000100129
0.000258038
0.000261785
9.4084e-05
6.09778e-05
1.13582e-05
1.7977e-06
2.68526e-07
5.69542e-08
2.27534e-08
1.90645e-08
1.85344e-08
1.88742e-08
1.82194e-08
1.95242e-08
1.91527e-08
1.99859e-08
1.97462e-08
1.83771e-08
1.89667e-08
1.80709e-08
1.80089e-08
1.79865e-08
1.84202e-08
2.28034e-08
5.57762e-08
2.50825e-07
1.65279e-06
1.24935e-05
6.84657e-05
9.80003e-05
0.000268194
0.000257918
9.25976e-05
5.97861e-05
1.0692e-05
1.7637e-06
2.71713e-07
5.43916e-08
2.19014e-08
1.83642e-08
1.91266e-08
1.93416e-08
2.01055e-08
1.8521e-08
2.25046e-08
2.07326e-08
2.06567e-08
2.08913e-08
1.9665e-08
1.82713e-08
1.898e-08
1.86706e-08
1.93909e-08
2.3825e-08
5.96491e-08
2.8152e-07
1.94654e-06
1.29622e-05
6.3449e-05
9.41839e-05
0.000266538
0.000249432
8.69873e-05
5.83105e-05
9.30467e-06
1.56195e-06
2.46564e-07
4.63421e-08
1.83704e-08
1.60601e-08
1.80803e-08
1.99251e-08
2.04115e-08
2.25906e-08
1.94557e-08
2.31434e-08
2.2665e-08
1.99255e-08
2.14549e-08
2.19562e-08
1.93335e-08
1.84673e-08
1.74639e-08
2.10161e-08
5.2827e-08
2.91612e-07
2.05189e-06
1.12806e-05
5.85882e-05
8.76302e-05
0.000257556
0.000238906
7.43194e-05
5.79037e-05
8.02695e-06
1.30371e-06
2.2518e-07
4.02402e-08
1.60823e-08
1.49759e-08
1.68705e-08
1.91564e-08
1.96745e-08
2.18673e-08
1.86241e-08
2.23166e-08
2.18538e-08
1.92864e-08
2.05875e-08
2.06535e-08
1.81337e-08
1.66092e-08
1.55571e-08
1.67917e-08
4.8649e-08
3.17673e-07
1.90027e-06
8.60494e-06
5.79062e-05
7.52977e-05
0.000240954
0.000243287
6.76828e-05
5.28574e-05
7.66153e-06
7.80495e-07
1.48251e-07
3.01493e-08
1.44506e-08
1.77377e-08
2.02687e-08
2.09476e-08
2.23402e-08
1.95149e-08
2.47084e-08
1.83294e-08
1.90649e-08
2.39845e-08
1.99576e-08
1.83398e-08
2.02471e-08
1.80315e-08
1.46041e-08
1.18153e-08
4.13698e-08
2.58175e-07
1.06799e-06
8.64113e-06
5.58505e-05
6.3663e-05
0.000236259
0.00027826
7.8196e-05
4.14695e-05
8.44332e-06
4.9889e-07
5.26209e-08
2.20287e-08
1.91215e-08
2.15391e-08
2.11709e-08
2.02072e-08
2.14131e-08
2.0533e-08
2.345e-08
1.884e-08
1.87337e-08
2.28376e-08
2.03249e-08
1.90417e-08
1.93959e-08
1.90423e-08
1.75879e-08
1.74867e-08
3.40589e-08
1.01118e-07
6.13678e-07
9.55507e-06
3.75711e-05
6.61729e-05
0.000254927
0.000322169
0.000115282
3.99107e-05
7.78527e-06
5.64679e-07
2.61884e-08
2.05114e-08
2.5773e-08
2.26386e-08
2.17153e-08
2.21504e-08
2.07099e-08
2.49061e-08
1.82716e-08
2.51921e-08
2.431e-08
1.82669e-08
2.38465e-08
2.40647e-08
2.13161e-08
2.16333e-08
2.25231e-08
2.43909e-08
2.44614e-08
9.52222e-09
5.01881e-07
7.53093e-06
3.29777e-05
0.000100489
0.000294607
0.000317912
0.000140403
5.13715e-05
9.13975e-06
9.39774e-07
6.43032e-08
2.80618e-08
3.07097e-08
2.94883e-08
2.69071e-08
2.58497e-08
2.32411e-08
2.32368e-08
1.99689e-08
2.31572e-08
2.38216e-08
2.00919e-08
2.31076e-08
2.39653e-08
2.51321e-08
2.72225e-08
2.93587e-08
3.2111e-08
2.59289e-08
3.89093e-08
8.69373e-07
8.42678e-06
4.5259e-05
0.000141163
0.000324388
0.000282954
0.000133947
5.99158e-05
1.02817e-05
1.30978e-06
9.14698e-08
3.69845e-08
3.49899e-08
3.49734e-08
2.98231e-08
2.51868e-08
2.50962e-08
1.91348e-08
2.55626e-08
1.83511e-08
1.87247e-08
2.56956e-08
1.96338e-08
2.15285e-08
2.4704e-08
2.82429e-08
3.46691e-08
3.81185e-08
3.53418e-08
7.62235e-08
1.34737e-06
1.00115e-05
5.96159e-05
0.000141334
0.000290137
0.000256691
0.000120823
6.02654e-05
9.62703e-06
1.41895e-06
8.71065e-08
3.13685e-08
2.79444e-08
2.66768e-08
2.39788e-08
2.18437e-08
2.05812e-08
1.87659e-08
2.02025e-08
1.86046e-08
1.81364e-08
2.03469e-08
1.82636e-08
1.99981e-08
2.24664e-08
2.46739e-08
2.99069e-08
3.23186e-08
3.58895e-08
8.94915e-08
1.54033e-06
9.87659e-06
6.28622e-05
0.000125026
0.000262986
0.000240537
0.000110134
7.02021e-05
9.95022e-06
1.41352e-06
1.25291e-07
4.51345e-08
3.31463e-08
2.71681e-08
2.28888e-08
2.10106e-08
1.83594e-08
2.11783e-08
1.80917e-08
2.20516e-08
2.21714e-08
1.76148e-08
2.0982e-08
2.05767e-08
2.2072e-08
2.59045e-08
3.12415e-08
3.89415e-08
5.48642e-08
1.49752e-07
1.55754e-06
1.0809e-05
7.49629e-05
0.00011213
0.000243553
0.000241758
9.74972e-05
8.08244e-05
1.47178e-05
1.58328e-06
1.69248e-07
4.57561e-08
2.69353e-08
2.09454e-08
1.95178e-08
1.81923e-08
1.84054e-08
1.90412e-08
2.08628e-08
2.23306e-08
2.243e-08
2.07875e-08
2.04531e-08
1.9994e-08
1.94704e-08
2.16651e-08
2.38603e-08
3.22608e-08
5.71007e-08