/*--------------------------------*- C++ -*----------------------------------*\
| =========                 |                                                 |
| \\      /  F ield         | OpenFOAM: The Open Source CFD Toolbox           |
|  \\    /   O peration     | Version:  2.3.0                                 |
|   \\  /    A nd           | Web:      www.OpenFOAM.org                      |
|    \\/     M anipulation  |                                                 |
\*---------------------------------------------------------------------------*/
FoamFile
{
    version     2.0;
    format      ascii;
    class       volScalarField;
    location    "1.8";
    object      nut.air;
}
// * * * * * * * * * * * * * * * * * * * * * * * * * * * * * * * * * * * * * //

dimensions      [0 2 -1 0 0 0 0];

internalField   nonuniform List<scalar> 
6000
(
0.000507485
0.00388465
0.00717515
0.00826796
0.00869748
0.00892639
0.00903244
0.0091142
0.00918217
0.009235
0.00931491
0.0094483
0.00952575
0.00954183
0.00951728
0.00945743
0.00935625
0.00922046
0.00904672
0.00896856
0.00902421
0.00914597
0.0092283
0.00919949
0.00902975
0.00880719
0.00834273
0.0072067
0.00396287
0.00050917
0.000416929
0.00273217
0.0054868
0.00734615
0.00837034
0.00895185
0.00931308
0.00957237
0.00978746
0.00996297
0.0101171
0.0102251
0.0103224
0.0103379
0.0103004
0.0102055
0.0100566
0.00987374
0.0098142
0.00999888
0.0101288
0.0102132
0.0100523
0.00973467
0.00934682
0.00872681
0.00760097
0.0055474
0.00257255
0.000419589
0.000358736
0.00245105
0.00489896
0.00675763
0.00795692
0.0087215
0.00925276
0.00963844
0.00992488
0.0101712
0.0103942
0.0105931
0.0107584
0.0108983
0.0109585
0.0109387
0.0108474
0.0107604
0.0108444
0.0109926
0.0109753
0.011049
0.0109736
0.0104421
0.00984384
0.00897752
0.0076119
0.00546198
0.0025257
0.000355771
0.000321473
0.00225243
0.00441098
0.00623603
0.00759291
0.00854739
0.00925078
0.00978121
0.0101881
0.0105246
0.0108082
0.0110482
0.0112957
0.0115084
0.0116248
0.0116524
0.0116265
0.011629
0.0117589
0.0118479
0.011782
0.011824
0.0118184
0.0112407
0.0104107
0.00933674
0.0078674
0.00570691
0.00284842
0.000350829
0.000292372
0.00211548
0.00414911
0.0059398
0.00737437
0.00847602
0.00932985
0.00999614
0.0105048
0.0109153
0.0112791
0.011641
0.0119552
0.0121965
0.0123364
0.012397
0.0124176
0.0124635
0.0126214
0.0126565
0.0125459
0.0125415
0.0124811
0.0120019
0.0110308
0.00978674
0.00821095
0.00608478
0.00322061
0.000361958
0.000277514
0.00217259
0.00409555
0.0058177
0.00730868
0.00853221
0.00950826
0.0102675
0.0108888
0.0114241
0.0119096
0.0123338
0.0126648
0.0129226
0.0130733
0.0131543
0.013199
0.0132717
0.0134378
0.0134169
0.0132732
0.0132085
0.0130678
0.0126593
0.0116378
0.0102751
0.00855412
0.00635719
0.003444
0.000381228
0.000275648
0.00235876
0.00426576
0.00589857
0.00740503
0.00870545
0.0097784
0.0106825
0.011435
0.0120591
0.0125877
0.0130342
0.0133959
0.013647
0.0138074
0.013899
0.0139575
0.0140454
0.0142094
0.0141013
0.0139394
0.0138059
0.0136007
0.0131668
0.0121596
0.0107292
0.00887996
0.00657037
0.00354503
0.000394557
0.000276855
0.00253402
0.00459948
0.00622292
0.00769075
0.00902362
0.0102163
0.0112085
0.0120108
0.012672
0.0132418
0.0137325
0.0141032
0.0143444
0.0145267
0.0146229
0.0146865
0.0147766
0.0148964
0.0146607
0.0145079
0.0143127
0.0140214
0.01351
0.0125485
0.0111004
0.00917483
0.00676987
0.00361692
0.000404292
0.000280812
0.00266673
0.0049953
0.00668424
0.00811256
0.00945859
0.0107039
0.0117542
0.0125988
0.0132912
0.0138938
0.0143987
0.0147734
0.0150322
0.0152261
0.015332
0.0153973
0.0154452
0.0153931
0.0151429
0.0149427
0.0146921
0.0143707
0.0138142
0.0128234
0.0113651
0.00940173
0.00693622
0.00368361
0.00041286
0.000291269
0.00286088
0.00537623
0.00725601
0.00872535
0.0100326
0.0112625
0.0123359
0.0131952
0.0139071
0.0145251
0.0150358
0.0154326
0.0157102
0.0159038
0.0160104
0.016048
0.0160163
0.0158253
0.0155886
0.0153403
0.0150727
0.0147058
0.0140396
0.0130005
0.0115151
0.00954205
0.00704121
0.00374416
0.00042173
0.000304932
0.00310932
0.00588273
0.00793507
0.00948283
0.0107661
0.0118994
0.0129364
0.0137969
0.0145345
0.0151688
0.0156972
0.0160878
0.0163471
0.0165063
0.0165668
0.0165463
0.0164164
0.0162491
0.0160063
0.0157288
0.0154257
0.0149735
0.0142071
0.0131097
0.0116014
0.00961377
0.00709233
0.00378072
0.000432139
0.000328284
0.003376
0.00637164
0.0086478
0.0103005
0.0115847
0.0126177
0.0135674
0.0144631
0.0152381
0.0158989
0.0163967
0.0167238
0.0169079
0.0169821
0.0169801
0.0169262
0.0168224
0.0166448
0.0163858
0.0160906
0.0157355
0.0151704
0.014338
0.0131801
0.0116408
0.00963092
0.00709063
0.00378004
0.000446472
0.000356368
0.00359676
0.00679428
0.00923983
0.0110951
0.0125322
0.0136037
0.0144686
0.0153444
0.0161281
0.0167348
0.0171213
0.0173287
0.0174055
0.0174093
0.017385
0.0173191
0.0171938
0.0169893
0.0167184
0.0164021
0.0159757
0.0153198
0.0144179
0.0132014
0.0116205
0.00956631
0.00697194
0.00370247
0.000452894
0.000373426
0.00357077
0.00703256
0.00977117
0.0118528
0.0134267
0.0145553
0.0155248
0.016411
0.0171552
0.0176094
0.0178269
0.0179006
0.0178763
0.017824
0.0177654
0.0176658
0.0175103
0.0172862
0.0170047
0.016657
0.0161358
0.0154094
0.014426
0.0131479
0.0115133
0.0093957
0.00668201
0.00343368
0.000451041
0.00037108
0.00351503
0.00721759
0.0102712
0.012598
0.0142678
0.0154632
0.0165045
0.0174484
0.018091
0.0184041
0.0184672
0.0184332
0.0183424
0.0182249
0.018098
0.0179636
0.0177785
0.0175362
0.0172359
0.0168263
0.0162208
0.0154123
0.0143316
0.0129586
0.0113006
0.00915747
0.00647278
0.00325191
0.000443673
0.000369747
0.00355839
0.00745506
0.0107826
0.0132443
0.0149495
0.016197
0.01724
0.0181391
0.0186811
0.0189495
0.0189743
0.0189011
0.0187858
0.0186298
0.0184365
0.0182371
0.0180131
0.0177453
0.0174054
0.0169128
0.01624
0.0153352
0.0141395
0.0127046
0.0110508
0.00897982
0.00634338
0.00313805
0.00042247
0.000368871
0.00366759
0.00776819
0.0112645
0.0137329
0.0154265
0.0166911
0.0176898
0.0184757
0.0189998
0.0192344
0.0192716
0.0192466
0.0191531
0.0189965
0.0187805
0.0185097
0.0182319
0.0179189
0.0175067
0.0169501
0.016197
0.0151952
0.0138788
0.0124177
0.0107572
0.00873357
0.00624386
0.00321816
0.000405931
0.00036423
0.00372763
0.00818242
0.0117372
0.0141592
0.0158233
0.0170637
0.0179853
0.018717
0.0191563
0.0193867
0.0195012
0.0195227
0.0194574
0.0193099
0.0190879
0.018804
0.0184613
0.0180664
0.0175843
0.0169596
0.016127
0.0150186
0.0136176
0.0121388
0.010499
0.008546
0.00616921
0.00327232
0.000397322
0.000366663
0.00389807
0.00863226
0.0121971
0.0145547
0.0161376
0.0173109
0.0181664
0.0188468
0.0192897
0.0195671
0.0197185
0.0197711
0.0197311
0.0195929
0.0193639
0.019061
0.0186932
0.018242
0.0176841
0.0169772
0.0160602
0.0148624
0.0134284
0.0119284
0.0102795
0.00836431
0.00606608
0.00325424
0.000392281
0.000384217
0.00424808
0.00904037
0.0125728
0.0149127
0.0164092
0.0175125
0.0183921
0.0190805
0.0195824
0.0198201
0.0199543
0.020032
0.0200224
0.0198899
0.0196422
0.0193084
0.0188989
0.0184016
0.0177926
0.017025
0.0160399
0.0147785
0.0133394
0.0118022
0.0101193
0.00818567
0.00590171
0.0031515
0.00038218
0.000420028
0.00461571
0.00933683
0.0128047
0.0151896
0.0167704
0.0178609
0.0187618
0.0195617
0.0200275
0.0201513
0.0202555
0.0203568
0.0203717
0.0202468
0.0199771
0.0195993
0.0191447
0.0186064
0.0179586
0.0171526
0.0161199
0.0148327
0.0133892
0.0118187
0.0100676
0.00805382
0.00568814
0.00292883
0.000363302
0.000449233
0.00483623
0.0094341
0.0128219
0.0152553
0.0169276
0.0180903
0.0190804
0.0198697
0.0202854
0.020413
0.0205367
0.0206776
0.0207347
0.0206457
0.0203855
0.0199827
0.0194854
0.0189087
0.0182307
0.0173949
0.0163358
0.0150521
0.0135863
0.011982
0.0101785
0.00806336
0.00554144
0.00267143
0.000341867
0.000469137
0.00481684
0.00929516
0.0126624
0.0151022
0.0168301
0.0180926
0.0190831
0.0197916
0.0202068
0.0204204
0.0206413
0.0208819
0.0210231
0.0210065
0.0208322
0.0204691
0.0199587
0.0193524
0.0186364
0.0177704
0.0166942
0.0154034
0.013958
0.0123351
0.0104446
0.00823564
0.00557782
0.00256817
0.000329706
0.000495567
0.00466349
0.00906565
0.0124153
0.0148199
0.016543
0.0178194
0.0187854
0.0194378
0.019867
0.0201938
0.0205614
0.0209392
0.0212133
0.0213181
0.0212559
0.021034
0.0205897
0.0199706
0.0191985
0.0182814
0.0171856
0.0158897
0.0144493
0.0128233
0.010913
0.00863164
0.00582493
0.00265435
0.000330587
0.000493774
0.00465011
0.00896134
0.0121913
0.0144817
0.016106
0.0173129
0.0182379
0.0188709
0.019342
0.0197896
0.020306
0.0208315
0.0212518
0.0215303
0.0216495
0.0216246
0.0213871
0.0207859
0.0199327
0.0189488
0.0178248
0.0165348
0.0150779
0.0134189
0.0114669
0.00913109
0.00626181
0.00292456
0.000342788
0.000478827
0.00455676
0.00868479
0.0117275
0.0138841
0.0154478
0.0166007
0.0174951
0.0181421
0.0186859
0.0192622
0.0198953
0.0205702
0.0211236
0.0215762
0.0219263
0.0221143
0.0221138
0.0216708
0.0208353
0.0197963
0.0186339
0.0173291
0.0158492
0.0141414
0.0121249
0.00970375
0.00672669
0.00322845
0.000371811
0.000459828
0.00434987
0.00822032
0.0110768
0.013128
0.0146255
0.015746
0.0166225
0.0173327
0.0179674
0.0186677
0.0193985
0.0201981
0.0208582
0.0214463
0.021978
0.0223887
0.0224773
0.0222166
0.0216293
0.0207062
0.0195783
0.0182701
0.0167483
0.0149846
0.0128894
0.0103606
0.00724499
0.00354396
0.000401112
0.000437751
0.0040511
0.00763507
0.0103078
0.0122652
0.0137207
0.014838
0.0157419
0.016527
0.0172484
0.0180526
0.0189106
0.0197861
0.0205218
0.021201
0.0218547
0.0224002
0.0225361
0.0222836
0.0218731
0.0212958
0.020418
0.0192502
0.0177678
0.0159528
0.0137641
0.0111049
0.00782134
0.00388213
0.000430096
0.000412545
0.00371899
0.00701435
0.00951549
0.0113967
0.0128301
0.0139648
0.0149145
0.015767
0.0165862
0.017489
0.0184845
0.0193881
0.0201754
0.0209178
0.0216556
0.022289
0.0225219
0.0223469
0.0219743
0.0214694
0.0208836
0.0199706
0.018691
0.0169819
0.0147788
0.0119618
0.00847272
0.00425887
0.000460222
0.000387163
0.00337416
0.00641011
0.00875943
0.0105766
0.0119973
0.0131577
0.0141594
0.0150785
0.0160169
0.0170559
0.0181163
0.0190394
0.0198654
0.020653
0.0214442
0.0221438
0.0224972
0.022422
0.0220897
0.0216321
0.0210536
0.0202949
0.0192582
0.0177432
0.0157222
0.0129495
0.00924395
0.00470864
0.000490684
0.000362228
0.00305495
0.00585735
0.00807119
0.0098285
0.0112408
0.0124303
0.0134878
0.0145004
0.0155785
0.0167379
0.0178195
0.0187681
0.0196197
0.0204383
0.0212576
0.0220078
0.0224901
0.0225434
0.0222734
0.0218689
0.0213322
0.0206031
0.0195494
0.0181629
0.0162947
0.013748
0.0101133
0.00519463
0.000530311
0.000338125
0.0027762
0.00537166
0.00746519
0.00916548
0.0105753
0.0117997
0.0129316
0.0140692
0.0152952
0.0165166
0.0176142
0.0185792
0.0194531
0.0202927
0.0211197
0.0218959
0.022495
0.0226973
0.022494
0.0221359
0.0216302
0.0208971
0.0198456
0.0184332
0.0166007
0.0141899
0.0106786
0.00573004
0.000574883
0.000316237
0.00254325
0.00495917
0.00694876
0.00859776
0.0100138
0.0112927
0.0125362
0.0138219
0.015151
0.0163957
0.0174993
0.0184747
0.0193678
0.0202203
0.0210456
0.0218334
0.0225113
0.0228539
0.0226971
0.0223676
0.0218726
0.0211394
0.0201098
0.0187246
0.016939
0.0144874
0.0108675
0.00587038
0.00063594
0.000296238
0.00235806
0.00462018
0.00652523
0.00814248
0.00958964
0.0109628
0.0123448
0.0137564
0.0151271
0.0163678
0.0174652
0.0184476
0.0193528
0.0202129
0.0210425
0.0218417
0.0225691
0.0230274
0.0229671
0.0226185
0.022138
0.0214274
0.0204268
0.0190775
0.0172739
0.0146234
0.0107753
0.00583536
0.000663528
0.000278433
0.0022058
0.00435325
0.00621031
0.00783672
0.00935662
0.0108529
0.0123613
0.013835
0.0151945
0.0164085
0.0174903
0.0184693
0.0193835
0.020261
0.0211086
0.0219271
0.0226947
0.0232494
0.0232419
0.0228715
0.0223746
0.0216533
0.0206404
0.0192893
0.0174062
0.0145276
0.0105048
0.00557972
0.000652585
0.000263119
0.00208774
0.00417788
0.00604004
0.00772401
0.00934935
0.010961
0.0125315
0.0139923
0.0153066
0.0164811
0.0175414
0.0185201
0.0194514
0.0203548
0.0212335
0.0220874
0.0228985
0.023509
0.0234897
0.0230751
0.0225459
0.0217912
0.0207543
0.0193645
0.0173126
0.0141847
0.0100806
0.00526378
0.000624788
0.000250724
0.00201448
0.0041198
0.00604768
0.00782671
0.00955064
0.0112132
0.012764
0.0141646
0.0154237
0.0165603
0.0176048
0.0185919
0.0195482
0.0204891
0.0214191
0.0223341
0.0231999
0.0238074
0.0237099
0.0232496
0.0226629
0.0218538
0.0207679
0.0192806
0.0169913
0.0136546
0.00951794
0.00473304
0.000593341
0.00024284
0.00199721
0.00419608
0.00623547
0.00810742
0.00987207
0.0115073
0.0129898
0.0143294
0.0155311
0.0166312
0.0176692
0.0186771
0.0196747
0.0206747
0.0216844
0.0226902
0.0236271
0.0241489
0.023919
0.023394
0.022738
0.021849
0.0206966
0.0190211
0.0164637
0.0129035
0.00872667
0.00421698
0.000559796
0.000241472
0.00204742
0.00439036
0.0065386
0.00845602
0.0102012
0.0117825
0.0132066
0.0144732
0.0156238
0.0167008
0.0177452
0.0187895
0.0198526
0.0209459
0.0220747
0.023212
0.0241796
0.0244879
0.0241297
0.0235224
0.0227907
0.0218029
0.0205505
0.0186378
0.0157939
0.0121033
0.00791671
0.00363418
0.000519012
0.000243188
0.00212571
0.00460156
0.00684258
0.00879261
0.0105201
0.0120472
0.0133929
0.014601
0.0157161
0.0167853
0.017853
0.0189533
0.0201073
0.0213273
0.0226027
0.0238397
0.0247149
0.0247892
0.0243322
0.0236398
0.0228236
0.0217417
0.0203092
0.0181408
0.0150539
0.0113344
0.00717556
0.00305674
0.000470049
0.000248934
0.00227465
0.00486885
0.00717009
0.00913081
0.0108134
0.0122734
0.0135617
0.0147272
0.0158229
0.0169008
0.0180084
0.0191809
0.0204412
0.0217925
0.0231874
0.0244583
0.0251591
0.0250691
0.0245379
0.0237466
0.022827
0.0216463
0.0200007
0.0175995
0.0143998
0.0107006
0.00666187
0.0026692
0.000414231
0.000255972
0.00241043
0.00511111
0.0074604
0.00941814
0.0110647
0.0124789
0.0137253
0.0148645
0.0159565
0.017058
0.0182162
0.0194658
0.0208288
0.0222933
0.0237859
0.0250543
0.0255514
0.0253448
0.0247582
0.0238619
0.0228222
0.0214505
0.0195637
0.0170445
0.0139287
0.0104033
0.00666296
0.00274798
0.000377823
0.00026264
0.00253101
0.00532431
0.00771219
0.00967051
0.0112919
0.0126737
0.0138945
0.0150237
0.0161259
0.0172595
0.0184702
0.0197926
0.0212451
0.0228084
0.0244007
0.0256214
0.0259044
0.0255975
0.0249684
0.0240168
0.0228282
0.0212656
0.0192399
0.0167336
0.0138132
0.0106159
0.00718453
0.00337529
0.000386775
0.000269609
0.00264536
0.00552157
0.0079424
0.00990092
0.0115058
0.0128688
0.0140789
0.0152119
0.016335
0.0175039
0.0187627
0.0201481
0.0216776
0.0233428
0.0250343
0.0261218
0.026196
0.025828
0.0251751
0.0241921
0.0229053
0.0212631
0.019229
0.0168434
0.0141557
0.0112357
0.00809099
0.004312
0.000421721
0.000276832
0.00276326
0.00571052
0.00816025
0.0101221
0.0117203
0.0130775
0.0142895
0.0154361
0.0165842
0.0177864
0.0190848
0.0205209
0.022122
0.0238991
0.0256433
0.0265128
0.0264344
0.0260521
0.0254065
0.0244556
0.0232061
0.021584
0.0196077
0.0173241
0.0147888
0.0120342
0.0088696
0.00476368
0.000448887
0.000283893
0.00287435
0.00589211
0.00837332
0.0103458
0.0119478
0.0133101
0.0145336
0.015699
0.0168715
0.0180998
0.0194245
0.0208944
0.0225525
0.024424
0.0261416
0.026806
0.0266554
0.0262866
0.0257086
0.0248875
0.0236949
0.0221128
0.0202044
0.0180249
0.0155749
0.0127715
0.00939676
0.00492682
0.000467551
0.000290931
0.00297096
0.00606543
0.0085867
0.0105794
0.0121948
0.0135711
0.0148122
0.0159981
0.0171912
0.0184362
0.0197714
0.0212476
0.0229234
0.0248308
0.0264687
0.0270275
0.0268644
0.0265309
0.0260724
0.0254357
0.0244047
0.0229092
0.0210299
0.0188547
0.0163661
0.0134389
0.00978906
0.00506981
0.000482325
0.000298186
0.00306371
0.00623809
0.00880612
0.0108269
0.0124636
0.0138604
0.0151232
0.0163296
0.0175372
0.0187898
0.020123
0.0215752
0.0232124
0.0250772
0.0266408
0.0271759
0.0270371
0.0267675
0.0264474
0.0259832
0.0251046
0.0237501
0.0219051
0.0196714
0.0170696
0.0139671
0.0100986
0.00519878
0.000496718
0.000305736
0.00316328
0.00641857
0.00903583
0.0110894
0.0127525
0.0141743
0.0154619
0.0166882
0.0179048
0.0191602
0.020484
0.0218936
0.0234325
0.025166
0.0266443
0.02722
0.0271455
0.0269716
0.0268072
0.0264909
0.0257522
0.0245683
0.0228615
0.0205782
0.0177978
0.0144464
0.0103041
0.00525971
0.000501888
0.00031337
0.00327211
0.00660785
0.00927431
0.0113623
0.0130542
0.0145029
0.0158163
0.0170639
0.0182936
0.0195488
0.0208632
0.0222404
0.0236728
0.025196
0.0265418
0.0271707
0.0271865
0.0271494
0.0271234
0.0268888
0.0262204
0.0251465
0.0236518
0.0215258
0.0186138
0.014887
0.0104154
0.0052247
0.000512479
0.000320689
0.00338209
0.00679523
0.00951109
0.011635
0.0133573
0.0148335
0.0161707
0.0174426
0.0186995
0.0199699
0.021285
0.0226536
0.0240256
0.0253254
0.0264357
0.0270895
0.0272216
0.0272957
0.027364
0.0271568
0.0265017
0.0254516
0.0240589
0.0221366
0.0194125
0.0156069
0.0107281
0.00520203
0.000514028
0.000327603
0.00347772
0.00696561
0.00973404
0.0118975
0.0136524
0.0151576
0.0165241
0.0178252
0.0191101
0.0204106
0.021747
0.0231364
0.0244885
0.0256317
0.0265063
0.027087
0.0273171
0.0274311
0.0275082
0.0272884
0.0266562
0.02565
0.0242972
0.0225196
0.0200305
0.0163765
0.0113309
0.00545938
0.000524934
0.000334205
0.00355371
0.00711444
0.0099404
0.0121477
0.0139374
0.0154721
0.0168668
0.0181977
0.0195133
0.0208439
0.0222087
0.0236075
0.0249323
0.0260191
0.026822
0.0272835
0.0274633
0.0275303
0.0275155
0.0272829
0.0267072
0.0257826
0.0245146
0.0228207
0.0204763
0.0169852
0.0119146
0.00576538
0.000552929
0.000340488
0.00361899
0.00724781
0.0101334
0.0123882
0.0142149
0.0157789
0.017198
0.0185511
0.019889
0.0212445
0.0226334
0.024034
0.0253472
0.026418
0.0271808
0.0275936
0.0276793
0.0276454
0.0275465
0.027293
0.0267808
0.0259419
0.0247255
0.0230524
0.0207582
0.0173953
0.0123733
0.00603261
0.000580771
0.000346553
0.0036765
0.00736995
0.0103161
0.0126199
0.014484
0.016076
0.0175149
0.0188815
0.0202294
0.021594
0.0229942
0.0244074
0.0257227
0.0267978
0.0275253
0.0278827
0.0279154
0.027803
0.0276335
0.027362
0.0268951
0.0261212
0.0249461
0.0232328
0.020912
0.0176236
0.01272
0.00627157
0.000599805
0.000352317
0.00372767
0.00748393
0.0104899
0.0128406
0.0147403
0.0163576
0.0178115
0.0191822
0.0205288
0.0218884
0.0232832
0.0247019
0.0260362
0.0271424
0.0278743
0.0281722
0.0281802
0.0280309
0.027818
0.0275178
0.0270711
0.0263407
0.0251458
0.0233741
0.0209881
0.0176874
0.0128612
0.00642367
0.000614719
0.000357634
0.00377417
0.00759172
0.0106526
0.0130446
0.0149733
0.0166124
0.0180783
0.0194534
0.0207915
0.0221417
0.0235261
0.0249269
0.0262798
0.0274346
0.0281765
0.0284781
0.0284822
0.0283282
0.0280909
0.027755
0.0272625
0.026583
0.0253284
0.0234809
0.0210271
0.0176515
0.012838
0.0064857
0.000620602
0.000362216
0.00381846
0.00769213
0.010799
0.0132263
0.0151804
0.0168369
0.018319
0.0197053
0.0210497
0.0223992
0.0237616
0.0251222
0.0264577
0.0276452
0.0284667
0.0287471
0.0287659
0.0286238
0.0283651
0.0280043
0.0275461
0.0268384
0.0254897
0.0235589
0.0210197
0.0175466
0.012738
0.00648529
0.000617169
0.000364137
0.00386377
0.00778503
0.0109322
0.0133999
0.0153899
0.0170746
0.0185777
0.0199759
0.0213213
0.0226504
0.023974
0.0252865
0.0265776
0.0277771
0.0286964
0.0290653
0.0290854
0.0289659
0.0287156
0.0283369
0.0278579
0.0270841
0.025618
0.0235953
0.0209583
0.0174104
0.0126309
0.00645018
0.0006123
0.000365699
0.00391519
0.00789335
0.0110885
0.0135991
0.0156252
0.0173349
0.0188497
0.0202478
0.0215788
0.0228753
0.0241505
0.0254071
0.0266453
0.0278288
0.0288334
0.0293083
0.0293829
0.0292722
0.0290095
0.0286204
0.028177
0.0272999
0.0257102
0.0235936
0.0208803
0.0173008
0.0125429
0.00640859
0.000609274
0.000369687
0.00397277
0.008016
0.011263
0.0138157
0.015874
0.0176033
0.019124
0.0205127
0.0218154
0.0230682
0.024288
0.0254848
0.0266637
0.0278096
0.0288455
0.0294572
0.029591
0.0295015
0.029252
0.0288751
0.0284284
0.0274638
0.0257701
0.0235844
0.020822
0.0172297
0.0124869
0.00638256
0.00060818
0.000376441
0.00402783
0.00814357
0.0114478
0.0140454
0.0161361
0.0178857
0.0194092
0.0207716
0.0220266
0.0232242
0.0243854
0.0255182
0.0266309
0.0277237
0.0287499
0.0294947
0.0297291
0.0296652
0.0294312
0.0290696
0.0285846
0.0275545
0.0258062
0.0235783
0.0207825
0.0171842
0.0124567
0.00637216
0.000607959
0.000384265
0.00409733
0.00828593
0.011655
0.0143031
0.0164271
0.0181905
0.0196945
0.0209968
0.0221889
0.0233336
0.0244361
0.0255021
0.0265416
0.0275675
0.0285511
0.0294046
0.0297722
0.0297459
0.0295286
0.0291727
0.0286361
0.0275624
0.0257944
0.0235456
0.0207274
0.0171292
0.0124217
0.00636002
0.000607396
0.000393381
0.00418682
0.00845928
0.0118991
0.014595
0.0167359
0.0184713
0.0199154
0.0211681
0.0223148
0.0233924
0.0244368
0.0254386
0.0264009
0.0273474
0.0282824
0.0291664
0.0296804
0.0297316
0.0295276
0.0291615
0.0285754
0.0274892
0.0257162
0.0234413
0.0206082
0.0170254
0.0123536
0.00633013
0.000605936
0.000404099
0.00429761
0.00866226
0.0121636
0.0148866
0.016996
0.0186633
0.0200611
0.0212915
0.0224114
0.0234534
0.0244218
0.0253355
0.0262138
0.0270637
0.0279209
0.028768
0.0294274
0.0295981
0.0294134
0.029018
0.0283801
0.0272949
0.025537
0.0232421
0.020416
0.0168655
0.0122446
0.00627885
0.000602824
0.000416112
0.0044083
0.00883368
0.012348
0.0150774
0.0171932
0.0188504
0.0202314
0.0214316
0.0225055
0.0234876
0.0243915
0.025222
0.0259988
0.0267369
0.0274888
0.0282639
0.0290202
0.0293171
0.029168
0.0287493
0.0280384
0.026938
0.0252235
0.0229582
0.0201693
0.016663
0.0121004
0.0061949
0.000596521
0.000428055
0.00448202
0.00892302
0.0124576
0.0152206
0.0173883
0.0190644
0.0204398
0.0215951
0.022606
0.0235126
0.0243474
0.025113
0.0257682
0.0263901
0.0270048
0.0276669
0.0283678
0.028822
0.028749
0.028297
0.0275186
0.0263892
0.0247619
0.0226158
0.0198977
0.016433
0.0119025
0.00598098
0.000586216
0.000436525
0.00451181
0.00899272
0.0126022
0.0154301
0.0176343
0.0193649
0.0206908
0.0217682
0.0227042
0.0235437
0.0243036
0.0249829
0.0255578
0.0260618
0.0265302
0.0270343
0.0276083
0.0281457
0.0280878
0.0276162
0.0268554
0.0257183
0.0241752
0.0221399
0.0195291
0.016174
0.0116737
0.00572928
0.000593401
0.000442032
0.0045717
0.00914207
0.0128362
0.0157179
0.0179547
0.019701
0.0209553
0.0219406
0.022817
0.0236008
0.0243021
0.0249151
0.0254211
0.0258104
0.0261232
0.0264236
0.0267837
0.0271651
0.0272431
0.0267775
0.0259896
0.0248634
0.0233702
0.0214338
0.0189542
0.0157432
0.0114551
0.00581702
0.000594614
0.00044818
0.00468295
0.00936346
0.0131327
0.01607
0.018338
0.0200372
0.0211848
0.0221222
0.0229618
0.0237093
0.0243758
0.0249469
0.0254002
0.0256995
0.0258571
0.0259331
0.0260114
0.0261137
0.0260895
0.0256292
0.0248598
0.0238096
0.022427
0.0206038
0.0182443
0.0151947
0.0111311
0.00577416
0.000591278
0.00045579
0.00481703
0.00963687
0.0134965
0.0164598
0.0186914
0.0202756
0.0214074
0.0223364
0.0231606
0.0238932
0.0245528
0.025111
0.0255432
0.0257827
0.0258056
0.0256628
0.0254447
0.0252201
0.0250286
0.0245634
0.0237878
0.0227783
0.0214675
0.0197575
0.0175505
0.0146825
0.0108375
0.00567219
0.000581658
0.000466034
0.00496648
0.00995844
0.0138287
0.0167177
0.0188579
0.0204313
0.0216186
0.0225723
0.023389
0.0241338
0.0248161
0.0253987
0.0258607
0.026073
0.0260012
0.0256709
0.0251933
0.0246704
0.024151
0.0235899
0.0227971
0.0218296
0.0206062
0.0190143
0.0169407
0.0142325
0.010587
0.00559485
0.000561216
0.000483105
0.00511852
0.0101111
0.0138865
0.0167149
0.0188917
0.020546
0.0218048
0.0228132
0.0236908
0.0245165
0.0252803
0.025927
0.0264246
0.0265922
0.0264104
0.0259398
0.0252473
0.0244722
0.0236837
0.0228927
0.0220299
0.0210692
0.0199078
0.018373
0.0163676
0.0137552
0.0102234
0.00539973
0.000534979
0.000509048
0.00511707
0.00998554
0.0137298
0.01663
0.0188735
0.020616
0.021983
0.0230966
0.0240823
0.0250059
0.0258566
0.0266248
0.0271831
0.0272994
0.0270106
0.0263894
0.0255488
0.0245774
0.0235727
0.0225781
0.0215772
0.0205471
0.0193466
0.0177707
0.015768
0.0131986
0.00975102
0.00510665
0.000511218
0.000517898
0.00496248
0.00967252
0.0135064
0.016504
0.0188635
0.0207523
0.0222656
0.023502
0.0245791
0.0255599
0.0264589
0.027234
0.0278178
0.0279791
0.0276442
0.0269331
0.025968
0.0248562
0.0236862
0.0225331
0.0213919
0.0202249
0.0188928
0.0172386
0.0152043
0.0126422
0.00926744
0.0048145
0.000486006
0.000513555
0.00483965
0.00941132
0.0132506
0.0163449
0.0188261
0.0208503
0.0225026
0.0238596
0.0250307
0.0260628
0.026928
0.0276144
0.0281511
0.0284501
0.028194
0.0274568
0.0263907
0.0251722
0.0238808
0.0225887
0.0213337
0.0200393
0.0185833
0.0168478
0.0147398
0.012131
0.00876378
0.00441489
0.000455483
0.000489131
0.00461454
0.00910757
0.0129329
0.0161054
0.0186913
0.0208511
0.0226421
0.0241318
0.0254098
0.0264795
0.0272767
0.0278113
0.0282795
0.02862
0.0284889
0.0278292
0.0267352
0.0254315
0.0240449
0.0226396
0.021308
0.0199436
0.0184154
0.0165928
0.0143516
0.0116208
0.00820137
0.00397533
0.000435327
0.000462363
0.00443322
0.00877841
0.0125493
0.015776
0.0184856
0.0207771
0.0227072
0.0243323
0.0257142
0.0268305
0.0276029
0.02811
0.0285334
0.0288619
0.0287108
0.0280453
0.0269384
0.0255771
0.0241285
0.0226587
0.0212754
0.0198519
0.0182483
0.0163301
0.0139796
0.011182
0.00785445
0.0039591
0.00042996
0.000445011
0.00426247
0.00852331
0.0122818
0.0155343
0.0183121
0.0207044
0.0227539
0.0244999
0.0259695
0.0271273
0.0279199
0.0284351
0.0288342
0.0291167
0.028902
0.0281671
0.0270064
0.0255997
0.0241207
0.0226395
0.0212068
0.0197215
0.0180448
0.0160652
0.0137079
0.0108834
0.00757739
0.00383092
0.000414109
0.000427889
0.00396954
0.00828205
0.0121143
0.0154016
0.0182198
0.0206577
0.022769
0.024586
0.0261124
0.0273053
0.0281413
0.0286786
0.0291034
0.0294002
0.0290764
0.0282241
0.0269718
0.0255147
0.0240102
0.0225519
0.0211275
0.0196069
0.0178761
0.0158562
0.0134934
0.0106583
0.0073294
0.00353289
0.000383373
0.000408406
0.00368557
0.00812626
0.0120612
0.0153781
0.0182163
0.0206644
0.0227757
0.0245951
0.0261335
0.0273683
0.0282741
0.0289023
0.0293508
0.0296198
0.0292235
0.0282491
0.0268925
0.0253829
0.0238642
0.0224354
0.0210539
0.0195414
0.0177939
0.0157713
0.0134086
0.0105675
0.00719915
0.0033219
0.000360817
0.000392533
0.00362112
0.0081438
0.0121309
0.0154511
0.0182896
0.0207311
0.0228353
0.0246256
0.0261372
0.0273689
0.0283053
0.0289754
0.0294715
0.0297888
0.0293887
0.0283048
0.02684
0.0252754
0.0237542
0.0223584
0.0210095
0.019531
0.0178211
0.0158455
0.0135309
0.0107519
0.00743082
0.00357612
0.000370524
0.000384288
0.00375052
0.00830813
0.0122927
0.0155915
0.0184093
0.0208457
0.02293
0.0246981
0.0261581
0.0273455
0.0282706
0.028955
0.0294999
0.029899
0.0296006
0.0284435
0.0268786
0.0252601
0.023733
0.0223782
0.0210442
0.0195972
0.0179592
0.0160698
0.0138498
0.0111923
0.00795988
0.00402177
0.000383458
0.000382632
0.00392916
0.00853328
0.0124988
0.0157645
0.0185658
0.0209855
0.023059
0.0247908
0.0262152
0.0273365
0.0282021
0.0288671
0.029437
0.0299315
0.0298164
0.0286758
0.027055
0.0253819
0.0238572
0.0225056
0.0211655
0.0197402
0.0181673
0.0163663
0.0142417
0.0116437
0.00834902
0.00419697
0.000383984
0.000387548
0.00410367
0.00875882
0.0127165
0.0159643
0.0187447
0.0211427
0.0231959
0.0249138
0.0262886
0.0273563
0.0281449
0.0287579
0.0293216
0.0298734
0.0299558
0.0289627
0.027358
0.0256593
0.0241215
0.022722
0.0213533
0.0199368
0.0183982
0.0166382
0.0145326
0.0119094
0.0085277
0.00423823
0.000385053
0.000397529
0.0042644
0.00897976
0.0129586
0.0161984
0.0189536
0.0213214
0.0233456
0.0250377
0.0263917
0.0274007
0.0281217
0.0286644
0.0291949
0.0297643
0.029992
0.0292433
0.0277145
0.0260239
0.0244664
0.0230124
0.0216017
0.0201674
0.0186156
0.0168409
0.0147156
0.0120538
0.00860208
0.0042405
0.000383645
0.000409839
0.00439762
0.00919336
0.0132198
0.01647
0.0192042
0.0215347
0.0235194
0.0251757
0.0264952
0.0274673
0.028118
0.0285846
0.0290692
0.0296329
0.0299722
0.0294729
0.0280715
0.0264048
0.0248338
0.0233467
0.0218984
0.0204132
0.0188116
0.0170033
0.0148508
0.0121527
0.00863714
0.00418188
0.000378025
0.000423752
0.00451946
0.00942495
0.0135182
0.0167901
0.0195049
0.0217951
0.0237318
0.0253406
0.0266155
0.0275398
0.02813
0.028522
0.0289478
0.0294979
0.0299407
0.0296796
0.028421
0.0267792
0.0252221
0.0237154
0.0222149
0.0206682
0.0190195
0.017176
0.0149908
0.0122512
0.0086638
0.00412996
0.000377286
0.000440143
0.00466061
0.00969578
0.013861
0.0171572
0.0198556
0.0221066
0.0239921
0.0255455
0.0267664
0.0276373
0.0281677
0.0284881
0.0288437
0.0293688
0.0298994
0.0298496
0.0287658
0.0271791
0.0256344
0.0241022
0.0225522
0.0209583
0.019269
0.017391
0.0151666
0.0123753
0.00873103
0.00425065
0.00038772
0.000458898
0.00481726
0.0100016
0.0142412
0.0175623
0.0202486
0.0224654
0.0243018
0.0257986
0.0269616
0.0277763
0.028248
0.0285021
0.0287907
0.0292857
0.029856
0.0299812
0.0291058
0.0276284
0.0260765
0.024518
0.0229304
0.0212983
0.0195744
0.0176595
0.0154021
0.0126134
0.00904595
0.00455199
0.00041228
0.000479711
0.00499017
0.0103277
0.0146452
0.017994
0.0206741
0.022864
0.0246587
0.0261042
0.0272121
0.0279733
0.0283921
0.0285883
0.0288046
0.0292217
0.0298155
0.0301053
0.0294606
0.0281115
0.0265617
0.0249753
0.0233544
0.0216851
0.0199298
0.0180199
0.0158122
0.0130551
0.0094325
0.00475248
0.000434018
0.000501082
0.00518376
0.0106624
0.0150585
0.0184419
0.0211236
0.0232956
0.025059
0.0264636
0.0275249
0.0282395
0.0286156
0.0287699
0.0289263
0.0292917
0.0298588
0.0302596
0.0298672
0.0286408
0.0270866
0.0254704
0.023813
0.0221216
0.0203919
0.0185021
0.0162698
0.0134701
0.00974819
0.00488428
0.000443204
0.000521556
0.00537777
0.0109922
0.0154733
0.0188984
0.0215913
0.0237554
0.0254995
0.0268761
0.027903
0.0285809
0.0289272
0.0290593
0.0291899
0.0294951
0.0300197
0.0304882
0.0303318
0.0292322
0.0276569
0.0260074
0.0243318
0.0226476
0.0208906
0.0189579
0.0166884
0.0138334
0.0100221
0.00497605
0.000461095
0.000540545
0.00554318
0.0113001
0.0158812
0.0193587
0.022073
0.0242398
0.0259771
0.0273394
0.0283453
0.0289983
0.029325
0.0294413
0.029538
0.0298139
0.0302908
0.0307639
0.030767
0.0298378
0.0282929
0.0266157
0.0249269
0.0232099
0.0213989
0.0193958
0.0170755
0.0141909
0.0103248
0.0051697
0.000461353
0.000557726
0.00570457
0.0115925
0.0162775
0.0198198
0.0225652
0.0247458
0.0264886
0.0278498
0.0288482
0.0294894
0.0298079
0.0299166
0.0299902
0.0302388
0.0306547
0.0310852
0.0311368
0.0304171
0.028993
0.0272957
0.0255749
0.023793
0.0219154
0.0198515
0.0174562
0.0144754
0.0105038
0.00525472
0.000463392
0.000573337
0.0058658
0.0118779
0.0166624
0.020276
0.0230622
0.025268
0.0270295