/*--------------------------------*- C++ -*----------------------------------*\
| =========                 |                                                 |
| \\      /  F ield         | OpenFOAM: The Open Source CFD Toolbox           |
|  \\    /   O peration     | Version:  2.3.0                                 |
|   \\  /    A nd           | Web:      www.OpenFOAM.org                      |
|    \\/     M anipulation  |                                                 |
\*---------------------------------------------------------------------------*/
FoamFile
{
    version     2.0;
    format      ascii;
    class       volVectorField;
    location    "1.8";
    object      U.particlesMean;
}
// * * * * * * * * * * * * * * * * * * * * * * * * * * * * * * * * * * * * * //

dimensions      [0 1 -1 0 0 0 0];

internalField   nonuniform List<vector> 
6000
(
(-0.00407976 -0.320699 0)
(0.00360725 -0.348413 0)
(0.0224802 -0.347515 0)
(0.0320128 -0.361068 0)
(0.0333688 -0.37841 0)
(0.0312861 -0.409294 0)
(0.0210913 -0.423194 0)
(0.00326485 -0.429344 0)
(-0.00537495 -0.425165 0)
(-0.011783 -0.425256 0)
(-0.0202231 -0.427354 0)
(-0.0198778 -0.426683 0)
(-0.0381641 -0.414331 0)
(-0.0653483 -0.391312 0)
(-0.0759917 -0.372361 0)
(-0.0696596 -0.367716 0)
(-0.0603156 -0.364256 0)
(-0.0468947 -0.36822 0)
(-0.0457005 -0.373298 0)
(-0.0436051 -0.368016 0)
(-0.0346989 -0.360266 0)
(-0.0264652 -0.356098 0)
(-0.0193852 -0.359619 0)
(-0.0102127 -0.354125 0)
(-0.00419206 -0.350922 0)
(-0.00712278 -0.348972 0)
(-0.00640451 -0.354764 0)
(-0.00185588 -0.366598 0)
(-0.00585393 -0.371729 0)
(0.000833935 -0.314034 0)
(0.0101282 0.00416227 0)
(0.018128 0.019908 0)
(0.0355528 0.0129213 0)
(0.0451772 0.00953558 0)
(0.0454573 0.0135386 0)
(0.0430683 0.0167067 0)
(0.0347078 0.00886581 0)
(0.016445 0.0030876 0)
(0.00751688 0.0142007 0)
(-0.00864652 0.0143481 0)
(-0.0294562 0.0153872 0)
(-0.0449667 0.0187042 0)
(-0.0668993 0.00467665 0)
(-0.0806315 0.00378914 0)
(-0.081451 0.00527775 0)
(-0.0783632 0.00334213 0)
(-0.0739821 0.00924023 0)
(-0.0680693 0.0198273 0)
(-0.0625933 0.00700921 0)
(-0.0558465 0.0148434 0)
(-0.0413764 0.0203602 0)
(-0.0281002 0.0181355 0)
(-0.0119014 0.0233325 0)
(0.000675839 0.0246738 0)
(-0.00182013 0.0326607 0)
(-0.0107874 0.023113 0)
(-0.0143126 0.010074 0)
(-0.0135139 0.0105388 0)
(-0.00987242 0.029211 0)
(-0.0145926 -0.0020452 0)
(-0.00684821 -0.0458629 0)
(0.0157705 -0.0809599 0)
(0.0285236 -0.0878273 0)
(0.0363323 -0.0731803 0)
(0.0380989 -0.0589046 0)
(0.033541 -0.0498529 0)
(0.0304741 -0.0497432 0)
(0.0215312 -0.0434882 0)
(0.0136918 -0.0380301 0)
(-0.00304806 -0.0332833 0)
(-0.0273358 -0.0258671 0)
(-0.0458456 -0.024314 0)
(-0.0618464 -0.0318942 0)
(-0.0688783 -0.0373123 0)
(-0.0654994 -0.0571072 0)
(-0.0668565 -0.0643348 0)
(-0.0690798 -0.0656197 0)
(-0.0697589 -0.0652913 0)
(-0.0632716 -0.0761908 0)
(-0.0527372 -0.0872186 0)
(-0.035468 -0.0963744 0)
(-0.0183105 -0.0912979 0)
(-0.00411766 -0.0884093 0)
(0.00766837 -0.0848403 0)
(0.00630407 -0.0628483 0)
(0.00423534 -0.0613747 0)
(0.000353903 -0.0712186 0)
(0.000639387 -0.0683386 0)
(0.00296737 -0.0501289 0)
(0.00923708 -0.0580581 0)
(-0.00124697 -0.0555959 0)
(0.0163121 -0.0884729 0)
(0.015645 -0.0886169 0)
(0.0266839 -0.0740324 0)
(0.0312279 -0.0569071 0)
(0.0318505 -0.0484683 0)
(0.0301803 -0.040572 0)
(0.0260682 -0.0304355 0)
(0.020375 -0.0214985 0)
(0.000505047 -0.0170268 0)
(-0.0223768 -0.012337 0)
(-0.0406115 -0.0140992 0)
(-0.0544729 -0.0281806 0)
(-0.0552749 -0.041679 0)
(-0.0532261 -0.0617216 0)
(-0.0570024 -0.0678594 0)
(-0.0622164 -0.07123 0)
(-0.0651622 -0.0731221 0)
(-0.0589873 -0.0831006 0)
(-0.0449275 -0.0961053 0)
(-0.028126 -0.105418 0)
(-0.0152597 -0.103791 0)
(-0.00786487 -0.104572 0)
(0.00233849 -0.0978407 0)
(0.00872541 -0.0757784 0)
(0.0174858 -0.0693581 0)
(0.0149033 -0.0726871 0)
(0.00566482 -0.0691003 0)
(0.00856324 -0.0490689 0)
(0.0143952 -0.0520794 0)
(0.00759441 -0.0820325 0)
(0.0129645 -0.111474 0)
(0.0120698 -0.111885 0)
(0.0169549 -0.0879313 0)
(0.0180361 -0.0660966 0)
(0.0179646 -0.055982 0)
(0.0191741 -0.0465332 0)
(0.0179617 -0.0319876 0)
(0.0135235 -0.0204757 0)
(-0.00490869 -0.0142248 0)
(-0.0231117 -0.0105213 0)
(-0.0389234 -0.0191604 0)
(-0.0517311 -0.0391456 0)
(-0.0468655 -0.0603832 0)
(-0.0456723 -0.0771706 0)
(-0.051334 -0.0802955 0)
(-0.0551513 -0.0865032 0)
(-0.0577349 -0.0898317 0)
(-0.0514166 -0.109082 0)
(-0.0357299 -0.130456 0)
(-0.0202238 -0.137629 0)
(-0.0091043 -0.131043 0)
(-0.00468132 -0.127224 0)
(0.000444959 -0.113862 0)
(0.0128553 -0.0940495 0)
(0.0222134 -0.0886193 0)
(0.0181833 -0.0898697 0)
(0.00515331 -0.0878578 0)
(0.010934 -0.0611514 0)
(0.0137667 -0.0564823 0)
(0.00772111 -0.100091 0)
(0.0189176 -0.118905 0)
(0.00841172 -0.114481 0)
(0.0132779 -0.0924414 0)
(0.00955115 -0.069157 0)
(0.00503326 -0.0578593 0)
(0.00487651 -0.0478603 0)
(0.00346027 -0.0353288 0)
(-0.0022764 -0.0178316 0)
(-0.0177305 -0.0124548 0)
(-0.0307004 -0.0103663 0)
(-0.0422302 -0.0166591 0)
(-0.0502909 -0.0392136 0)
(-0.0375444 -0.0638606 0)
(-0.0333043 -0.0799468 0)
(-0.0352826 -0.0867541 0)
(-0.0405746 -0.0892007 0)
(-0.0433013 -0.0966929 0)
(-0.0352967 -0.125193 0)
(-0.0223191 -0.146522 0)
(-0.0100732 -0.151738 0)
(-0.000422244 -0.139947 0)
(0.00261972 -0.12767 0)
(0.00507507 -0.111998 0)
(0.0179801 -0.0991271 0)
(0.0255185 -0.0927602 0)
(0.0153934 -0.0923072 0)
(0.00166078 -0.0918521 0)
(0.01037 -0.0622565 0)
(0.0119465 -0.0517893 0)
(0.00574998 -0.111845 0)
(0.0194458 -0.125018 0)
(0.0168581 -0.117338 0)
(0.0152093 -0.0947149 0)
(0.0181481 -0.0700054 0)
(0.00612758 -0.0549292 0)
(-0.00281975 -0.0428509 0)
(-0.00912168 -0.0297736 0)
(-0.0181304 -0.0144252 0)
(-0.0296778 -0.0114691 0)
(-0.0423701 -0.0113052 0)
(-0.0475537 -0.0139987 0)
(-0.0475894 -0.036272 0)
(-0.0297793 -0.0615759 0)
(-0.0258474 -0.0757515 0)
(-0.0259426 -0.0918342 0)
(-0.0251393 -0.100917 0)
(-0.0243797 -0.111027 0)
(-0.0196579 -0.135173 0)
(-0.00942931 -0.152069 0)
(0.000745416 -0.153055 0)
(0.0076959 -0.138442 0)
(0.00871208 -0.127705 0)
(0.0108639 -0.11409 0)
(0.0177649 -0.100885 0)
(0.0210731 -0.0916326 0)
(0.0100886 -0.088722 0)
(-0.00429663 -0.0879771 0)
(0.00114394 -0.0592319 0)
(0.00718462 -0.0464128 0)
(0.00689685 -0.117885 0)
(0.0171644 -0.126149 0)
(0.0142679 -0.115231 0)
(0.0193859 -0.0964284 0)
(0.0185274 -0.0672317 0)
(0.00957962 -0.0444919 0)
(-0.00808249 -0.0276624 0)
(-0.0201926 -0.0175993 0)
(-0.0318029 -0.00649514 0)
(-0.0404263 -0.00472792 0)
(-0.0514802 -0.0103309 0)
(-0.0514629 -0.0176992 0)
(-0.0451114 -0.0351275 0)
(-0.0274169 -0.0601605 0)
(-0.0188833 -0.0745777 0)
(-0.015791 -0.0893426 0)
(-0.0124168 -0.107137 0)
(-0.0058998 -0.121919 0)
(0.00124984 -0.137332 0)
(0.00369781 -0.148184 0)
(0.00998249 -0.147319 0)
(0.015407 -0.135485 0)
(0.0155459 -0.12361 0)
(0.0109075 -0.108358 0)
(0.00889652 -0.093146 0)
(0.00908862 -0.0851619 0)
(-8.20139e-05 -0.0814416 0)
(-0.0125567 -0.0788791 0)
(-0.00889308 -0.0552784 0)
(0.00243677 -0.0467764 0)
(0.00564383 -0.117306 0)
(0.0132344 -0.124178 0)
(0.00911698 -0.107102 0)
(0.0159807 -0.086806 0)
(0.0179793 -0.0567642 0)
(0.00176778 -0.0275835 0)
(-0.012878 -0.00869877 0)
(-0.0322273 -0.00327398 0)
(-0.0439269 0.000148721 0)
(-0.0505199 -0.00273302 0)
(-0.0577296 -0.0118716 0)
(-0.0523201 -0.0208419 0)
(-0.0446662 -0.0396717 0)
(-0.024533 -0.0639959 0)
(-0.0153707 -0.0788515 0)
(-0.00995263 -0.0932526 0)
(-0.00541463 -0.107908 0)
(0.00210136 -0.12209 0)
(0.0128624 -0.136549 0)
(0.0137816 -0.147847 0)
(0.0154308 -0.145236 0)
(0.0172786 -0.129551 0)
(0.0124226 -0.114259 0)
(0.000327674 -0.0991189 0)
(-0.00436063 -0.0847121 0)
(-0.00858854 -0.0780655 0)
(-0.0154647 -0.0743568 0)
(-0.0235348 -0.0704534 0)
(-0.0165417 -0.052677 0)
(9.7061e-05 -0.0518153 0)
(0.00326093 -0.113629 0)
(0.0103854 -0.118019 0)
(0.00534531 -0.0979318 0)
(0.00968078 -0.0716633 0)
(0.0129812 -0.0440264 0)
(0.000419199 -0.0172585 0)
(-0.0154417 -0.000681501 0)
(-0.0395296 0.00386612 0)
(-0.0496317 0.00375766 0)
(-0.0560653 -0.000746468 0)
(-0.0598393 -0.0143388 0)
(-0.053922 -0.025445 0)
(-0.0419598 -0.0458189 0)
(-0.0214167 -0.0676799 0)
(-0.0114985 -0.080117 0)
(-0.00825949 -0.0948934 0)
(-0.00248545 -0.109061 0)
(0.00768504 -0.123793 0)
(0.0170557 -0.138492 0)
(0.0151356 -0.149677 0)
(0.0117125 -0.144124 0)
(0.00484503 -0.122345 0)
(-0.00261176 -0.104166 0)
(-0.0134925 -0.0825778 0)
(-0.0222004 -0.0696895 0)
(-0.0263854 -0.0685796 0)
(-0.0313389 -0.0676665 0)
(-0.0310152 -0.0623294 0)
(-0.0206897 -0.0512343 0)
(-0.00431258 -0.0539752 0)
(0.00153025 -0.10785 0)
(0.00819334 -0.113907 0)
(0.00220328 -0.0942283 0)
(0.00638126 -0.0683867 0)
(0.0142674 -0.0400519 0)
(0.000509017 -0.0117958 0)
(-0.0151574 0.00728798 0)
(-0.0339256 0.00867451 0)
(-0.0452929 0.00602108 0)
(-0.0515601 -0.00208392 0)
(-0.0560363 -0.0164614 0)
(-0.0502082 -0.0307343 0)
(-0.0362708 -0.0514152 0)
(-0.0192201 -0.0715863 0)
(-0.00908174 -0.0807451 0)
(-0.00588389 -0.0952793 0)
(0.0011488 -0.109324 0)
(0.0129609 -0.120831 0)
(0.0154742 -0.137604 0)
(0.00640457 -0.147179 0)
(-0.0066087 -0.136884 0)
(-0.0184813 -0.111875 0)
(-0.0220739 -0.0870823 0)
(-0.030755 -0.0665864 0)
(-0.0369936 -0.0581818 0)
(-0.0403331 -0.0609594 0)
(-0.0421622 -0.0626084 0)
(-0.0353135 -0.0613903 0)
(-0.0249432 -0.0537279 0)
(-0.00863274 -0.0568899 0)
(0.00440373 -0.105447 0)
(0.00836618 -0.112306 0)
(0.000578294 -0.0927399 0)
(0.00958503 -0.0731255 0)
(0.013405 -0.0431921 0)
(0.00461216 -0.0122884 0)
(-0.00878282 0.00725655 0)
(-0.0207997 0.00908488 0)
(-0.0350425 0.00687483 0)
(-0.0367315 -0.000428462 0)
(-0.0443923 -0.0153861 0)
(-0.0420535 -0.033704 0)
(-0.0264997 -0.0513957 0)
(-0.0154031 -0.0697169 0)
(-0.00785747 -0.0809781 0)
(-0.00352877 -0.0962048 0)
(0.00498805 -0.109072 0)
(0.0135495 -0.117193 0)
(0.0127339 -0.133076 0)
(-0.00623883 -0.139857 0)
(-0.0260603 -0.127985 0)
(-0.0323889 -0.105369 0)
(-0.0390878 -0.0773393 0)
(-0.0458074 -0.0567262 0)
(-0.0505782 -0.0492689 0)
(-0.0507532 -0.0502378 0)
(-0.0493812 -0.0549302 0)
(-0.0379081 -0.0584921 0)
(-0.0271453 -0.0574515 0)
(-0.0100088 -0.0660696 0)
(0.00628467 -0.106454 0)
(0.00865616 -0.112814 0)
(0.00121067 -0.0942656 0)
(0.0110044 -0.0744222 0)
(0.0122926 -0.0486577 0)
(0.0105347 -0.0161969 0)
(0.000896371 0.00525591 0)
(-0.00899385 0.0114774 0)
(-0.0249639 0.00868792 0)
(-0.0251154 0.00108327 0)
(-0.0264635 -0.0131717 0)
(-0.030396 -0.0339243 0)
(-0.0192571 -0.0497464 0)
(-0.01136 -0.0679683 0)
(-0.00639094 -0.0849334 0)
(-0.00101194 -0.0986875 0)
(0.0063718 -0.106034 0)
(0.010703 -0.112326 0)
(0.0069321 -0.125603 0)
(-0.0195025 -0.133164 0)
(-0.0340762 -0.124043 0)
(-0.0430863 -0.0996085 0)
(-0.0507812 -0.070371 0)
(-0.0564341 -0.0485827 0)
(-0.0606811 -0.0412043 0)
(-0.0577927 -0.0409613 0)
(-0.0540546 -0.0486314 0)
(-0.0416638 -0.0560709 0)
(-0.0323218 -0.0600209 0)
(-0.00831264 -0.0789664 0)
(0.00761617 -0.105647 0)
(0.00803176 -0.112837 0)
(0.00189127 -0.0968114 0)
(0.0117948 -0.0775297 0)
(0.0149985 -0.0529587 0)
(0.0178843 -0.0222715 0)
(0.0100433 0.00306792 0)
(0.0040809 0.0148456 0)
(-0.0059052 0.0126849 0)
(-0.0126709 0.00791333 0)
(-0.009679 -0.0062292 0)
(-0.0157516 -0.0257051 0)
(-0.0125233 -0.0450295 0)
(-0.0104082 -0.0641823 0)
(-0.00854073 -0.087137 0)
(-0.00248335 -0.100884 0)
(0.00199647 -0.105729 0)
(0.00754941 -0.105863 0)
(-0.0024406 -0.115471 0)
(-0.0233367 -0.126058 0)
(-0.0381405 -0.117962 0)
(-0.0491997 -0.092411 0)
(-0.0576358 -0.0633521 0)
(-0.0659435 -0.0424465 0)
(-0.0686288 -0.0359538 0)
(-0.0641454 -0.0381047 0)
(-0.0570487 -0.0480943 0)
(-0.0439795 -0.0573415 0)
(-0.0344326 -0.0729573 0)
(-0.00896308 -0.0963435 0)
(0.01012 -0.105629 0)
(0.00879834 -0.112872 0)
(0.00320116 -0.0993366 0)
(0.0138113 -0.0805596 0)
(0.0214066 -0.0552039 0)
(0.0262977 -0.026772 0)
(0.0229472 -0.00154597 0)
(0.016321 0.0145831 0)
(0.0132998 0.0179955 0)
(0.00286628 0.0137347 0)
(0.00246228 -0.00309527 0)
(-0.000383662 -0.021879 0)
(-0.00753688 -0.0407757 0)
(-0.0081625 -0.0612761 0)
(-0.00847914 -0.0922355 0)
(-0.00502868 -0.104857 0)
(0.00117227 -0.108134 0)
(0.00394496 -0.102636 0)
(-0.00688207 -0.110037 0)
(-0.0238342 -0.119525 0)
(-0.0398527 -0.109916 0)
(-0.0516856 -0.0869159 0)
(-0.0617886 -0.0601065 0)
(-0.0718999 -0.0425812 0)
(-0.0750118 -0.039219 0)
(-0.0698341 -0.0435897 0)
(-0.0605158 -0.055661 0)
(-0.0444087 -0.0695098 0)
(-0.0306655 -0.094368 0)
(-0.00579134 -0.116497 0)
(0.0115249 -0.105452 0)
(0.00765412 -0.112303 0)
(0.00306709 -0.100553 0)
(0.0156957 -0.082756 0)
(0.0266524 -0.0543774 0)
(0.0385105 -0.0312972 0)
(0.0416554 -0.00525299 0)
(0.0362885 0.00959832 0)
(0.0344774 0.0174954 0)
(0.0250756 0.0218914 0)
(0.0180648 0.00335025 0)
(0.014443 -0.0173452 0)
(0.00136452 -0.0341216 0)
(-0.00340575 -0.0557489 0)
(-0.00368998 -0.0882361 0)
(-0.00610899 -0.101405 0)
(0.000918208 -0.10611 0)
(-0.00217095 -0.0996998 0)
(-0.00770612 -0.105323 0)
(-0.0246471 -0.113615 0)
(-0.0404698 -0.105495 0)
(-0.0513855 -0.0881627 0)
(-0.0621071 -0.0646889 0)
(-0.0740922 -0.0496298 0)
(-0.0766057 -0.0524131 0)
(-0.068645 -0.0625644 0)
(-0.0563264 -0.0806897 0)
(-0.0403136 -0.097483 0)
(-0.0260398 -0.124979 0)
(-0.00383009 -0.14272 0)
(0.00829489 -0.108312 0)
(0.00176354 -0.11429 0)
(0.00256176 -0.103833 0)
(0.015645 -0.08448 0)
(0.0293851 -0.0550305 0)
(0.0452467 -0.0338098 0)
(0.0564978 -0.00660606 0)
(0.0584893 0.00672759 0)
(0.0520695 0.0122646 0)
(0.0458099 0.0162079 0)
(0.0395478 0.00561805 0)
(0.0284322 -0.014066 0)
(0.0162366 -0.0291387 0)
(0.00546223 -0.0485419 0)
(0.00250496 -0.0778784 0)
(-0.00455279 -0.0930333 0)
(-0.00104215 -0.10125 0)
(-0.00295506 -0.0983138 0)
(-0.00652954 -0.100255 0)
(-0.0234718 -0.105097 0)
(-0.0407041 -0.100837 0)
(-0.0531912 -0.0847397 0)
(-0.0672291 -0.0652506 0)
(-0.0713794 -0.0536919 0)
(-0.0695827 -0.0611536 0)
(-0.0611121 -0.0719297 0)
(-0.0484884 -0.09275 0)
(-0.0334638 -0.11278 0)
(-0.019356 -0.141493 0)
(-0.00459417 -0.15842 0)
(-0.000918593 -0.113829 0)
(-0.00101937 -0.118032 0)
(0.00441784 -0.109869 0)
(0.0173858 -0.089828 0)
(0.0302588 -0.059632 0)
(0.0464571 -0.0375505 0)
(0.0647159 -0.00595385 0)
(0.0731364 0.010419 0)
(0.0639719 0.0107928 0)
(0.0591907 0.00995906 0)
(0.0545555 0.00305194 0)
(0.0466883 -0.012932 0)
(0.0308899 -0.0244303 0)
(0.0186401 -0.0403137 0)
(0.0103802 -0.0625299 0)
(-0.00035315 -0.0804195 0)
(-0.00115242 -0.092443 0)
(-0.00252424 -0.0942369 0)
(-0.00410329 -0.0930295 0)
(-0.0142993 -0.0960254 0)
(-0.0400889 -0.0891325 0)
(-0.0581686 -0.0749712 0)
(-0.0732605 -0.0563871 0)
(-0.0681754 -0.0452321 0)
(-0.0605316 -0.0593304 0)
(-0.0530912 -0.0709846 0)
(-0.0401369 -0.095242 0)
(-0.0280555 -0.120917 0)
(-0.0141986 -0.149214 0)
(-0.00293891 -0.166781 0)
(-0.00175556 -0.118778 0)
(0.00176394 -0.1218 0)
(0.00841727 -0.116395 0)
(0.0198908 -0.0973041 0)
(0.0290145 -0.0697998 0)
(0.0480683 -0.0516345 0)
(0.0687536 -0.0254907 0)
(0.0836192 0.00134107 0)
(0.0802394 0.00695451 0)
(0.0690724 0.00620483 0)
(0.0639783 0.00287855 0)
(0.057847 -0.00992995 0)
(0.0442434 -0.0211109 0)
(0.0306036 -0.031471 0)
(0.0182869 -0.0468198 0)
(0.00487505 -0.0675273 0)
(0.00187861 -0.0805711 0)
(-0.00115424 -0.0889043 0)
(-0.00189226 -0.0846706 0)
(-0.0112889 -0.0860509 0)
(-0.0371819 -0.0780466 0)
(-0.0595831 -0.0633431 0)
(-0.0723975 -0.0484462 0)
(-0.0625077 -0.0414029 0)
(-0.0533896 -0.059707 0)
(-0.0437719 -0.0719658 0)
(-0.0310786 -0.0961304 0)
(-0.0225044 -0.123385 0)
(-0.00773474 -0.151791 0)
(0.00117609 -0.170917 0)
(0.00212364 -0.12003 0)
(0.00592523 -0.123031 0)
(0.0101089 -0.120989 0)
(0.0247455 -0.108075 0)
(0.0370388 -0.0816063 0)
(0.0588969 -0.0648771 0)
(0.0748307 -0.0435106 0)
(0.0914081 -0.0203706 0)
(0.0910955 0.0031026 0)
(0.0804322 0.00514305 0)
(0.0717208 0.00406335 0)
(0.0678847 -0.00482217 0)
(0.0577336 -0.018593 0)
(0.0386496 -0.020675 0)
(0.0282334 -0.036293 0)
(0.0131078 -0.0551031 0)
(0.007782 -0.0691202 0)
(0.00125276 -0.0817065 0)
(-0.00198604 -0.0770167 0)
(-0.0139932 -0.0769847 0)
(-0.033883 -0.0689338 0)
(-0.0563494 -0.0536531 0)
(-0.0663068 -0.0434028 0)
(-0.0532362 -0.0412494 0)
(-0.0446168 -0.0630987 0)
(-0.0356872 -0.0780972 0)
(-0.0238342 -0.100688 0)
(-0.0165169 -0.123363 0)
(-0.00209649 -0.151696 0)
(0.00730364 -0.174667 0)
(0.00530854 -0.120081 0)
(0.00944198 -0.122533 0)
(0.0196785 -0.124193 0)
(0.0327148 -0.117328 0)
(0.0442391 -0.0945276 0)
(0.0643055 -0.0783572 0)
(0.0801425 -0.0579788 0)
(0.0922902 -0.0355044 0)
(0.0960024 -0.00415401 0)
(0.0895774 0.00574001 0)
(0.0800611 0.00620168 0)
(0.0743595 0.00322087 0)
(0.0678075 -0.0103889 0)
(0.0487769 -0.0135122 0)
(0.0350942 -0.0246937 0)
(0.0230726 -0.0439994 0)
(0.0140773 -0.0587073 0)
(0.00298574 -0.073543 0)
(-0.00748051 -0.0722302 0)
(-0.016888 -0.0684617 0)
(-0.0320436 -0.0619022 0)
(-0.048842 -0.0476703 0)
(-0.0562323 -0.0426827 0)
(-0.0435508 -0.0479392 0)
(-0.0379941 -0.0709232 0)
(-0.0277506 -0.0843817 0)
(-0.017338 -0.106738 0)
(-0.0100718 -0.125738 0)
(0.00179702 -0.152772 0)
(0.0124934 -0.173186 0)
(0.00818462 -0.125569 0)
(0.0180772 -0.129202 0)
(0.0298758 -0.128446 0)
(0.0422934 -0.125907 0)
(0.051423 -0.105145 0)
(0.0685009 -0.0856207 0)
(0.0828217 -0.0675888 0)
(0.0940809 -0.0414505 0)
(0.0981077 -0.0067969 0)
(0.0964143 0.00882126 0)
(0.0854975 0.0131299 0)
(0.0782659 0.0126404 0)
(0.0744471 0.00147429 0)
(0.0599896 -0.00614957 0)
(0.0415109 -0.0166215 0)
(0.0290814 -0.032756 0)
(0.0196088 -0.0521121 0)
(0.000314515 -0.0700934 0)
(-0.0130004 -0.0664086 0)
(-0.0219771 -0.0609499 0)
(-0.032718 -0.0554804 0)
(-0.0399915 -0.0432441 0)
(-0.0427866 -0.0411245 0)
(-0.0335397 -0.053302 0)
(-0.0324966 -0.0808039 0)
(-0.0203608 -0.0922371 0)
(-0.012318 -0.110948 0)
(-0.00500186 -0.126737 0)
(0.00402647 -0.149728 0)
(0.0119591 -0.168214 0)
(0.00893994 -0.132638 0)
(0.0207822 -0.14009 0)
(0.0341087 -0.137953 0)
(0.0486265 -0.133008 0)
(0.0565761 -0.112428 0)
(0.0711432 -0.0886501 0)
(0.0833361 -0.0690409 0)
(0.0958557 -0.0454361 0)
(0.100756 -0.00611375 0)
(0.101164 0.0130944 0)
(0.0907374 0.0210159 0)
(0.0802574 0.0215674 0)
(0.0762471 0.0124187 0)
(0.068878 0.000734919 0)
(0.0438647 -0.0107362 0)
(0.0310232 -0.0245366 0)
(0.0197939 -0.0476968 0)
(0.000814745 -0.0648615 0)
(-0.0164435 -0.0613816 0)
(-0.0220392 -0.0547189 0)
(-0.0300961 -0.0497229 0)
(-0.0341658 -0.0399718 0)
(-0.0326966 -0.0393852 0)
(-0.0248086 -0.0543617 0)
(-0.0238473 -0.0880251 0)
(-0.00993269 -0.101853 0)
(-0.00630945 -0.11549 0)
(-0.00288764 -0.127652 0)
(0.00335019 -0.15114 0)
(0.0106767 -0.161713 0)
(0.00844185 -0.137846 0)
(0.0222579 -0.150402 0)
(0.0361889 -0.147566 0)
(0.0512684 -0.140044 0)
(0.058322 -0.116991 0)
(0.0702096 -0.0874399 0)
(0.0813942 -0.0710094 0)
(0.0902337 -0.04418 0)
(0.0983056 -0.00519894 0)
(0.101477 0.0167526 0)
(0.0938357 0.0265976 0)
(0.0860364 0.0298397 0)
(0.0777456 0.024089 0)
(0.0700452 0.0113349 0)
(0.0497887 -0.00871841 0)
(0.0300437 -0.0198075 0)
(0.0194386 -0.0396406 0)
(0.000441994 -0.0580092 0)
(-0.0136324 -0.05912 0)
(-0.0192938 -0.0518201 0)
(-0.0262883 -0.0455593 0)
(-0.0291828 -0.0365699 0)
(-0.0264968 -0.0397415 0)
(-0.0161842 -0.0576312 0)
(-0.0142744 -0.0954625 0)
(-0.00378587 -0.109583 0)
(-0.000172412 -0.116418 0)
(0.000619874 -0.126318 0)
(0.00250925 -0.152046 0)
(0.00775056 -0.15504 0)
(0.00766982 -0.137096 0)
(0.0247154 -0.151708 0)
(0.0401097 -0.153465 0)
(0.052759 -0.144668 0)
(0.0562329 -0.120204 0)
(0.0641044 -0.0890672 0)
(0.0745214 -0.0681089 0)
(0.0808591 -0.0408388 0)
(0.0932947 -0.00619311 0)
(0.0987431 0.0182039 0)
(0.0941719 0.0311053 0)
(0.0867641 0.0356612 0)
(0.0759307 0.0326824 0)
(0.0696898 0.0188996 0)
(0.0486753 -0.00365396 0)
(0.0307434 -0.0153773 0)
(0.0203387 -0.0296344 0)
(0.00555965 -0.0528275 0)
(-0.00682132 -0.0576311 0)
(-0.0158105 -0.0521764 0)
(-0.0222612 -0.0440571 0)
(-0.0229939 -0.03409 0)
(-0.0213943 -0.0426043 0)
(-0.0100457 -0.0705298 0)
(-0.00870046 -0.10319 0)
(-0.00029548 -0.113694 0)
(0.00385075 -0.117911 0)
(0.00483879 -0.130555 0)
(0.00316263 -0.156684 0)
(0.00724518 -0.150744 0)
(0.00916151 -0.136366 0)
(0.0306081 -0.152539 0)
(0.044587 -0.154398 0)
(0.0528957 -0.146328 0)
(0.0535032 -0.124053 0)
(0.055393 -0.0901167 0)
(0.0662936 -0.063875 0)
(0.0723716 -0.034883 0)
(0.0848875 -0.00661084 0)
(0.0921692 0.0193414 0)
(0.0898385 0.0343758 0)
(0.0825399 0.0401868 0)
(0.0730939 0.0372701 0)
(0.065906 0.024894 0)
(0.04443 0.00169482 0)
(0.0372726 -0.00824929 0)
(0.024011 -0.0240082 0)
(0.0112187 -0.0488535 0)
(-0.00074785 -0.0566703 0)
(-0.0123068 -0.0540014 0)
(-0.0177191 -0.0486474 0)
(-0.0171559 -0.0370218 0)
(-0.0144746 -0.0486922 0)
(-0.00493174 -0.0814772 0)
(-0.0021548 -0.110338 0)
(0.00570043 -0.123005 0)
(0.00870145 -0.125916 0)
(0.00915282 -0.14272 0)
(0.00395784 -0.160173 0)
(0.00635056 -0.146385 0)
(0.0114059 -0.13621 0)
(0.0330929 -0.154127 0)
(0.046111 -0.153366 0)
(0.0505338 -0.146081 0)
(0.0470581 -0.12419 0)
(0.0453487 -0.0897736 0)
(0.0530309 -0.0579482 0)
(0.0625144 -0.0291581 0)
(0.0714576 -0.00356843 0)
(0.0815513 0.0207451 0)
(0.0807648 0.0365742 0)
(0.0742815 0.0420143 0)
(0.067148 0.0403124 0)
(0.0579822 0.0266787 0)
(0.0420097 0.00710872 0)
(0.0404112 -0.00199026 0)
(0.0246224 -0.0207899 0)
(0.00762316 -0.0483423 0)
(0.000548393 -0.0590629 0)
(-0.00668418 -0.0607577 0)
(-0.0108227 -0.0563276 0)
(-0.0112669 -0.0444975 0)
(-0.00781452 -0.0532266 0)
(0.00234121 -0.0816717 0)
(0.00927367 -0.11424 0)
(0.014846 -0.135536 0)
(0.0170534 -0.142153 0)
(0.0152767 -0.156853 0)
(0.00638933 -0.17284 0)
(0.00376615 -0.148623 0)
(0.0108951 -0.143167 0)
(0.032318 -0.158356 0)
(0.042861 -0.151785 0)
(0.0449461 -0.143949 0)
(0.0374238 -0.122255 0)
(0.0320238 -0.0886027 0)
(0.0382367 -0.0514108 0)
(0.0508082 -0.0269912 0)
(0.0584609 0.00173837 0)
(0.0679686 0.0224288 0)
(0.0655088 0.0365965 0)
(0.0627361 0.0401687 0)
(0.0578065 0.0373447 0)
(0.0466407 0.0243899 0)
(0.0350594 0.0089703 0)
(0.036283 0.000999763 0)
(0.024181 -0.0200182 0)
(0.00648297 -0.048515 0)
(0.00287042 -0.0578514 0)
(-0.00285901 -0.0577726 0)
(-0.00750901 -0.0539696 0)
(-0.00861166 -0.0463024 0)
(-0.00586548 -0.0576709 0)
(0.00431946 -0.0843885 0)
(0.0171279 -0.112231 0)
(0.0222436 -0.135438 0)
(0.0233659 -0.143547 0)
(0.0187058 -0.157304 0)
(0.00869377 -0.17264 0)
(0.00595834 -0.155723 0)
(0.0078077 -0.152205 0)
(0.0279898 -0.165903 0)
(0.0361805 -0.152475 0)
(0.037794 -0.140641 0)
(0.0277198 -0.119777 0)
(0.0198045 -0.0861037 0)
(0.0239005 -0.0446747 0)
(0.0358271 -0.0229955 0)
(0.0447174 0.00425909 0)
(0.0482137 0.0237224 0)
(0.0477425 0.0350039 0)
(0.0486881 0.0364875 0)
(0.0448631 0.0326262 0)
(0.0378536 0.0213708 0)
(0.0267387 0.00909948 0)
(0.0296677 6.38992e-05 0)
(0.0191419 -0.0154183 0)
(0.00493102 -0.0447889 0)
(0.00341517 -0.0506467 0)
(-0.00230716 -0.0502316 0)
(-0.00722397 -0.0466323 0)
(-0.00765171 -0.0464472 0)
(-0.00517201 -0.0634605 0)
(0.00168186 -0.0909544 0)
(0.0196215 -0.112429 0)
(0.0265101 -0.13189 0)
(0.0270667 -0.136893 0)
(0.0212266 -0.147704 0)
(0.0103205 -0.165641 0)
(0.00730338 -0.15288 0)
(0.00314639 -0.157794 0)
(0.0227171 -0.168462 0)
(0.0293866 -0.151675 0)
(0.0314525 -0.137386 0)
(0.0207169 -0.119716 0)
(0.0097692 -0.0862564 0)
(0.0111008 -0.0449201 0)
(0.0219229 -0.0216071 0)
(0.0293234 0.00211725 0)
(0.0305374 0.0268288 0)
(0.0312627 0.0318474 0)
(0.033206 0.031728 0)
(0.0316748 0.0289275 0)
(0.0303433 0.0224163 0)
(0.0245182 0.00809323 0)
(0.0217759 -0.000696475 0)
(0.014368 -0.00684503 0)
(0.00492177 -0.0353041 0)
(0.00223269 -0.0408611 0)
(-0.00546864 -0.0392858 0)
(-0.00759062 -0.0400676 0)
(-0.00709875 -0.0461002 0)
(-0.00642955 -0.0662728 0)
(0.00418693 -0.091749 0)
(0.0193423 -0.111463 0)
(0.028053 -0.126594 0)
(0.029099 -0.127016 0)
(0.0231228 -0.137169 0)
(0.0105634 -0.155077 0)
(0.00610016 -0.143523 0)
(-0.00334685 -0.158635 0)
(0.0170522 -0.16728 0)
(0.0234253 -0.148483 0)
(0.0251886 -0.133587 0)
(0.0147863 -0.119599 0)
(0.00282485 -0.090834 0)
(0.0020579 -0.0510038 0)
(0.0126347 -0.0260977 0)
(0.0165995 0.00111631 0)
(0.0183262 0.0266044 0)
(0.0188699 0.0354266 0)
(0.0178777 0.0279974 0)
(0.0175533 0.0253338 0)
(0.0172115 0.0166814 0)
(0.0196518 0.00536584 0)
(0.0116188 0.001966 0)
(0.00716526 -0.000620002 0)
(0.000870333 -0.0284316 0)
(-0.00326786 -0.0286088 0)
(-0.00712472 -0.0274614 0)
(-0.0070738 -0.0338236 0)
(-0.00616667 -0.0451341 0)
(-0.00689399 -0.0651965 0)
(0.0083003 -0.0879552 0)
(0.0206386 -0.108012 0)
(0.0273217 -0.121044 0)
(0.0286737 -0.118373 0)
(0.0223306 -0.128766 0)
(0.00893947 -0.146627 0)
(0.0043994 -0.136224 0)
(-0.00494054 -0.154444 0)
(0.0127592 -0.16142 0)
(0.0162182 -0.144335 0)
(0.017706 -0.129878 0)
(0.00721378 -0.118567 0)
(-0.00466088 -0.0939392 0)
(-0.00715611 -0.0547622 0)
(0.00382896 -0.0266105 0)
(0.00789929 8.75201e-06 0)
(0.0103911 0.0243657 0)
(0.0133188 0.0356514 0)
(0.0116595 0.0333868 0)
(0.00711289 0.0223441 0)
(0.0143956 0.0134081 0)
(0.0143405 0.00473957 0)
(0.00389492 0.00582944 0)
(0.00105523 0.00601104 0)
(-0.00352188 -0.0209203 0)
(-0.00924019 -0.0202963 0)
(-0.0114525 -0.0168696 0)
(-0.00920645 -0.0290787 0)
(-0.00605662 -0.0420424 0)
(-0.005867 -0.0620614 0)
(0.0100529 -0.0815791 0)
(0.021022 -0.1029 0)
(0.0243083 -0.114558 0)
(0.0256438 -0.108567 0)
(0.0198677 -0.119074 0)
(0.00681729 -0.136658 0)
(0.00322242 -0.127151 0)
(-0.00336023 -0.153145 0)
(0.00850003 -0.153264 0)
(0.00952707 -0.137891 0)
(0.00813977 -0.123661 0)
(-0.00106831 -0.114918 0)
(-0.01289 -0.095531 0)
(-0.0193089 -0.0551047 0)
(-0.00814765 -0.0261361 0)
(0.000430266 -0.000822512 0)
(0.00504201 0.0224696 0)
(0.010268 0.0377183 0)
(0.0138543 0.038213 0)
(0.00695594 0.0257036 0)
(0.0145884 0.0114643 0)
(0.00997568 0.00660006 0)
(-2.55744e-05 0.00957685 0)
(-0.00423418 0.00890744 0)
(-0.0109804 -0.0187512 0)
(-0.0198035 -0.0169709 0)
(-0.0185746 -0.015047 0)
(-0.0142755 -0.026329 0)
(-0.00803787 -0.038668 0)
(-0.00443258 -0.0560215 0)
(0.0107685 -0.0745409 0)
(0.0199189 -0.096931 0)
(0.0209946 -0.10782 0)
(0.0217671 -0.10058 0)
(0.0155294 -0.110512 0)
(0.00339906 -0.127146 0)
(0.00225894 -0.119196 0)
(-0.00465411 -0.151814 0)
(0.0039421 -0.145267 0)
(0.00371613 -0.131717 0)
(-0.00152854 -0.116168 0)
(-0.00970524 -0.109467 0)
(-0.0227122 -0.0933331 0)
(-0.0319683 -0.0547667 0)
(-0.0200129 -0.0251226 0)
(-0.00638669 -0.00359784 0)
(9.06343e-05 0.0203932 0)
(0.00774423 0.039253 0)
(0.0140607 0.0432938 0)
(0.00918135 0.0325827 0)
(0.0111069 0.0176904 0)
(0.00632809 0.00978496 0)
(-0.00208895 0.0131567 0)
(-0.00847554 0.0100851 0)
(-0.0180787 -0.015266 0)
(-0.0268543 -0.0160041 0)
(-0.0241475 -0.0136384 0)
(-0.0185882 -0.0234488 0)
(-0.0102464 -0.0335536 0)
(-0.00226693 -0.0511121 0)
(0.0119825 -0.0672608 0)
(0.0181218 -0.0900908 0)
(0.0175612 -0.0991167 0)
(0.0169682 -0.091969 0)
(0.00913462 -0.102049 0)
(-0.00110397 -0.116579 0)
(0.00160034 -0.110006 0)
(-0.00728169 -0.14763 0)
(0.000706905 -0.139011 0)
(-0.00188329 -0.12496 0)
(-0.00930089 -0.109449 0)
(-0.0184406 -0.101637 0)
(-0.0315727 -0.0875932 0)
(-0.0419218 -0.0528802 0)
(-0.0270049 -0.0235862 0)
(-0.0105565 -0.00475817 0)
(-0.00367079 0.0187899 0)
(0.00385642 0.0385087 0)
(0.0125103 0.0428294 0)
(0.00889709 0.0356011 0)
(0.00848778 0.0214413 0)
(0.00500881 0.0158529 0)
(-0.00162422 0.0186883 0)
(-0.011351 0.0102381 0)
(-0.0216524 -0.0111657 0)
(-0.0316163 -0.0130442 0)
(-0.0300547 -0.0116528 0)
(-0.0254431 -0.0203079 0)
(-0.01588 -0.0354499 0)
(-0.00118322 -0.0490204 0)
(0.0133359 -0.0617771 0)
(0.0183683 -0.083992 0)
(0.0181248 -0.090593 0)
(0.0138039 -0.0813315 0)
(0.00355663 -0.091979 0)
(-0.00503141 -0.107427 0)
(0.00119356 -0.105302 0)
(-0.00959494 -0.142625 0)
(-0.00162565 -0.136608 0)
(-0.0093732 -0.11996 0)
(-0.0169435 -0.103774 0)
(-0.0286011 -0.0932406 0)
(-0.0410996 -0.0801742 0)
(-0.0476824 -0.0511818 0)
(-0.0310212 -0.0210725 0)
(-0.0141298 -0.00288283 0)
(-0.0063893 0.0194709 0)
(0.00034052 0.0378928 0)
(0.00748148 0.0390522 0)
(0.00729433 0.0351807 0)
(0.00876418 0.022171 0)
(0.00669215 0.0212486 0)
(-0.000111927 0.0250166 0)
(-0.0114297 0.0097084 0)
(-0.0219442 -0.00533617 0)
(-0.0343136 -0.00933795 0)
(-0.0356027 -0.00950859 0)
(-0.0317871 -0.0234647 0)
(-0.0195245 -0.0405192 0)
(-0.00298816 -0.0502649 0)
(0.0140458 -0.0590577 0)
(0.0181552 -0.0798482 0)
(0.00947651 -0.0811376 0)
(0.00535912 -0.0758317 0)
(-0.000468301 -0.085731 0)
(-0.00611754 -0.0992835 0)
(0.00123667 -0.101922 0)
(-0.0095899 -0.13731 0)
(-0.00171932 -0.137941 0)
(-0.00970053 -0.117333 0)
(-0.021007 -0.0972938 0)
(-0.0315537 -0.0860753 0)
(-0.0422851 -0.0762894 0)
(-0.0486436 -0.0481796 0)
(-0.0334834 -0.0194366 0)
(-0.0187383 -0.000352081 0)
(-0.0075125 0.0175398 0)
(-5.56506e-05 0.0356968 0)
(0.00604037 0.0340984 0)
(0.00874213 0.0352985 0)
(0.00955621 0.0257388 0)
(0.00759884 0.0267363 0)
(0.000938576 0.029248 0)
(-0.00960739 0.0118242 0)
(-0.0207358 0.000493234 0)
(-0.035566 -0.00397496 0)
(-0.038639 -0.00600186 0)
(-0.0334988 -0.0256865 0)
(-0.0189622 -0.0441497 0)
(-0.00217828 -0.0528175 0)
(0.0136018 -0.0586491 0)
(0.0110103 -0.0749931 0)
(0.00157883 -0.0756097 0)
(-0.00117215 -0.0729826 0)
(-0.00482558 -0.0815491 0)
(-0.00745909 -0.0964065 0)
(0.00437345 -0.0984957 0)
(-0.00898067 -0.131214 0)
(-0.00171318 -0.133826 0)
(-0.0123427 -0.111312 0)
(-0.0237465 -0.0933659 0)
(-0.0343286 -0.0825191 0)
(-0.0386944 -0.0722512 0)
(-0.0438098 -0.0429527 0)
(-0.0365863 -0.0176471 0)
(-0.0215371 0.0013151 0)
(-0.00760801 0.0183384 0)
(0.00158114 0.0331513 0)
(0.00718345 0.0320765 0)
(0.0118615 0.0351056 0)
(0.0117834 0.0298166 0)
(0.00866833 0.0315502 0)
(0.00022787 0.0323311 0)
(-0.00869954 0.0148808 0)
(-0.017452 0.00727656 0)
(-0.034437 0.000422061 0)
(-0.0391619 -0.0037084 0)
(-0.0323823 -0.0294152 0)
(-0.0169793 -0.0466519 0)
(-0.00234069 -0.0543157 0)
(0.00986955 -0.0584942 0)
(0.00391061 -0.0682299 0)
(-0.00388892 -0.0721659 0)
(-0.00783065 -0.0693896 0)
(-0.00851804 -0.0793792 0)
(-0.00966907 -0.0943223 0)
(0.00600133 -0.0944612 0)
(-0.00706252 -0.124134 0)
(-9.8801e-05 -0.128635 0)
(-0.0116993 -0.106099 0)
(-0.0231086 -0.0883476 0)
(-0.0325411 -0.077719 0)
(-0.0340701 -0.0652461 0)
(-0.0425805 -0.0369909 0)
(-0.0377004 -0.0145973 0)
(-0.0209121 0.00269632 0)
(-0.0091461 0.0166839 0)
(0.00170448 0.0315585 0)
(0.00965239 0.0345581 0)