/*--------------------------------*- C++ -*----------------------------------*\
| =========                 |                                                 |
| \\      /  F ield         | OpenFOAM: The Open Source CFD Toolbox           |
|  \\    /   O peration     | Version:  2.3.0                                 |
|   \\  /    A nd           | Web:      www.OpenFOAM.org                      |
|    \\/     M anipulation  |                                                 |
\*---------------------------------------------------------------------------*/
FoamFile
{
    version     2.0;
    format      ascii;
    class       volScalarField;
    location    "0.4";
    object      p;
}
// * * * * * * * * * * * * * * * * * * * * * * * * * * * * * * * * * * * * * //

dimensions      [0 2 -2 0 0 0 0];

internalField   nonuniform List<scalar> 
400
(
4.19173e-06
-0.00582249
-0.0129599
-0.0184119
-0.0204294
-0.0182357
-0.0117713
-0.00148126
0.0118395
0.0271509
0.0432457
0.058824
0.0725792
0.0833089
0.0900532
0.0922675
0.0900267
0.0842451
0.0768822
0.071069
0.00578284
-0.000215995
-0.00580157
-0.00954004
-0.0105964
-0.0084303
-0.00296769
0.00547619
0.0163048
0.0287134
0.0417512
0.0543872
0.0655875
0.0744109
0.0801212
0.0823168
0.0810786
0.0770564
0.0712759
0.0653199
0.0133367
0.00503545
-0.000993341
-0.00442098
-0.00527073
-0.00326179
0.00160433
0.0090294
0.0185037
0.0293508
0.0407669
0.051871
0.0617698
0.0696376
0.0748083
0.0768795
0.0758432
0.0720877
0.0658075
0.0575379
0.0201406
0.00869742
0.00122753
-0.0026667
-0.00372017
-0.00188334
0.00273316
0.00978631
0.018782
0.0290966
0.0399935
0.0506555
0.0602344
0.0679174
0.0730047
0.0750031
0.0737676
0.0694581
0.0616052
0.0501052
0.024503
0.00977446
0.000591317
-0.00398524
-0.00530043
-0.00350545
0.00117661
0.00833635
0.0174637
0.0279507
0.0390866
0.0500715
0.0600505
0.0681667
0.073628
0.0757995
0.0743709
0.0692919
0.059528
0.04454
0.0251788
0.00715141
-0.00380044
-0.00905552
-0.0105104
-0.00849809
-0.00335486
0.00443136
0.0143152
0.0256808
0.0378155
0.049905
0.0610498
0.0703049
0.0767364
0.0795188
0.078141
0.0723358
0.0605419
0.0418931
0.0210945
-0.000260866
-0.0129328
-0.0187075
-0.0200279
-0.0174119
-0.0113163
-0.00231753
0.00899258
0.0219783
0.0359117
0.0499463
0.0631141
0.0743472
0.0825239
0.0865715
0.0857229
0.0794495
0.0656231
0.0430749
0.011144
-0.0136165
-0.0278731
-0.0338521
-0.0346013
-0.0308552
-0.0232105
-0.0123428
0.00110731
0.0164863
0.0330549
0.0499359
0.0660856
0.0802921
0.0912029
0.0974323
0.0978726
0.0916385
0.075899
0.0491196
-0.00596547
-0.0342645
-0.0498678
-0.0555462
-0.0550877
-0.049512
-0.0395909
-0.0261106
-0.00975432
0.0088258
0.0289037
0.0495962
0.0698001
0.0881571
0.10305
0.112704
0.115553
0.110194
0.092837
0.0614144
-0.0318548
-0.0638737
-0.0804144
-0.0850045
-0.0824173
-0.0740755
-0.060978
-0.0440336
-0.0239484
-0.00133376
0.0231487
0.048664
0.0740985
0.0979751
0.118399
0.133128
0.139991
0.136821
0.118443
0.0819366
-0.0686643
-0.1046
-0.121342
-0.123587
-0.117512
-0.105123
-0.087715
-0.0663222
-0.0416336
-0.0141522
0.015609
0.0469566
0.078859
0.109797
0.137627
0.159588
0.17273
0.173781
0.155523
0.113573
-0.119399
-0.159354
-0.174912
-0.172754
-0.161145
-0.142925
-0.119755
-0.0927734
-0.0625738
-0.0294439
0.00637687
0.0444772
0.0840586
0.123706
0.161139
0.193089
0.215671
0.22408
0.208053
0.160635
-0.188624
-0.232238
-0.243935
-0.233944
-0.213691
-0.187151
-0.156369
-0.122497
-0.085894
-0.0464681
-0.00401041
0.0415428
0.089846
0.139833
0.189322
0.234692
0.271077
0.291667
0.281745
0.229778
-0.28397
-0.3293
-0.331828
-0.308276
-0.274705
-0.236436
-0.19576
-0.153606
-0.109836
-0.0637409
-0.0144335
0.0388677
0.0965584
0.15828
0.222378
0.285291
0.3414
0.381578
0.384917
0.331836
-0.419313
-0.459666
-0.442346
-0.395788
-0.342125
-0.287735
-0.234612
-0.182926
-0.131605
-0.0789803
-0.0232093
0.0374799
0.104558
0.178842
0.259865
0.344974
0.428619
0.499703
0.529678
0.485394
-0.620526
-0.636739
-0.578673
-0.494189
-0.411236
-0.335654
-0.267776
-0.205973
-0.147532
-0.089378
-0.0284211
0.0383533
0.113812
0.200476
0.299979
0.412029
0.533033
0.651778
0.732775
0.722398
-0.935919
-0.87851
-0.741737
-0.597944
-0.474389
-0.372655
-0.288864
-0.217758
-0.153948
-0.0924588
-0.0287121
0.0417008
0.123268
0.220723
0.33893
0.482159
0.652001
0.841345
1.01527
1.09751
-1.47642
-1.20663
-0.920499
-0.691384
-0.517301
-0.38754
-0.290057
-0.213333
-0.148119
-0.0872105
-0.0245724
0.0454627
0.128943
0.233076
0.367108
0.542682
0.771297
1.05932
1.40329
1.73014
-2.53964
-1.63054
-1.04443
-0.710955
-0.495747
-0.35209
-0.254527
-0.183579
-0.126165
-0.0735903
-0.0192639
0.0427922
0.119218
0.218788
0.354817
0.547988
0.826397
1.23658
1.91168
2.9242
-4.36666
-2.04463
-0.973539
-0.563178
-0.357844
-0.240144
-0.170116
-0.12378
-0.0874773
-0.0535057
-0.0166494
0.0276661
0.0846131
0.161735
0.272417
0.442104
0.718224
1.22571
2.41104
4.84853
)
;

boundaryField
{
    movingWall
    {
        type            zeroGradient;
    }
    fixedWalls
    {
        type            zeroGradient;
    }
    frontAndBack
    {
        type            empty;
    }
}


// ************************************************************************* //
