/*--------------------------------*- C++ -*----------------------------------*\
| =========                 |                                                 |
| \\      /  F ield         | OpenFOAM: The Open Source CFD Toolbox           |
|  \\    /   O peration     | Version:  2.3.0                                 |
|   \\  /    A nd           | Web:      www.OpenFOAM.org                      |
|    \\/     M anipulation  |                                                 |
\*---------------------------------------------------------------------------*/
FoamFile
{
    version     2.0;
    format      ascii;
    class       volScalarField;
    location    "25";
    object      alpha.air;
}
// * * * * * * * * * * * * * * * * * * * * * * * * * * * * * * * * * * * * * //

dimensions      [0 0 0 0 0 0 0];

internalField   nonuniform List<scalar> 
1875
(
0.176862
0.180731
0.193254
0.217673
0.248084
0.284582
0.325381
0.3476
0.307374
0.212496
0.23519
0.324394
0.353695
0.32324
0.282255
0.250783
0.227347
0.20901
0.191999
0.176775
0.163714
0.151648
0.14206
0.137178
0.134534
0.0690591
0.0776703
0.0915272
0.107884
0.134794
0.173194
0.231452
0.270809
0.196394
0.165133
0.171729
0.236536
0.250463
0.201193
0.16656
0.144362
0.130535
0.122364
0.117786
0.113631
0.108841
0.103021
0.0962464
0.0927003
0.0927003
0.0842908
0.121579
0.161712
0.150872
0.148346
0.17374
0.231907
0.279756
0.202649
0.169386
0.16806
0.226009
0.250412
0.230012
0.171888
0.150407
0.141884
0.140921
0.149938
0.158338
0.164002
0.166173
0.152092
0.131852
0.114587
0.104182
0.191773
0.282552
0.293484
0.244359
0.207974
0.256786
0.29452
0.221036
0.160901
0.169386
0.194582
0.249693
0.250052
0.245488
0.214833
0.200088
0.185178
0.175739
0.186113
0.206867
0.220135
0.210203
0.174321
0.140302
0.118904
0.223464
0.29733
0.294827
0.299227
0.294827
0.298245
0.294827
0.227181
0.168349
0.163179
0.169497
0.233834
0.24968
0.248657
0.24659
0.246425
0.244661
0.195361
0.1837
0.19637
0.219789
0.220421
0.188763
0.148048
0.129414
0.215541
0.284922
0.297562
0.294827
0.298958
0.294827
0.290406
0.22554
0.16083
0.169386
0.167707
0.191959
0.232615
0.24659
0.246419
0.246145
0.238125
0.217024
0.184019
0.186601
0.210402
0.209103
0.186904
0.149953
0.134256
0.20221
0.260531
0.288143
0.295997
0.294827
0.29446
0.276258
0.217916
0.169386
0.162452
0.16986
0.171446
0.204206
0.229999
0.227501
0.218739
0.208504
0.201881
0.18841
0.193232
0.213429
0.197981
0.174271
0.146535
0.139414
0.189628
0.235217
0.27058
0.287527
0.291366
0.284599
0.257404
0.209029
0.163308
0.16986
0.168067
0.172134
0.18637
0.195652
0.17543
0.170788
0.175163
0.18941
0.202347
0.213571
0.215418
0.189176
0.160226
0.136982
0.146487
0.177081
0.210358
0.242604
0.2663
0.277286
0.27144
0.242718
0.207022
0.177782
0.167227
0.17106
0.172349
0.182934
0.180465
0.175605
0.170999
0.173801
0.194949
0.218368
0.233334
0.225155
0.185915
0.149641
0.129002
0.154655
0.164705
0.182523
0.205545
0.231895
0.253724
0.253475
0.237617
0.211565
0.190323
0.173185
0.172043
0.175949
0.189884
0.191759
0.201795
0.205678
0.197756
0.211207
0.23241
0.247096
0.239448
0.191062
0.146037
0.123497
0.154572
0.152725
0.153467
0.164584
0.184672
0.209484
0.226894
0.226391
0.218234
0.207914
0.190473
0.184686
0.192228
0.207963
0.216698
0.246076
0.274502
0.272929
0.235798
0.236987
0.255952
0.257955
0.212103
0.146468
0.120629
0.149149
0.138153
0.130125
0.13059
0.136566
0.152501
0.175251
0.194165
0.206686
0.20601
0.203872
0.203921
0.209924
0.223776
0.237325
0.256725
0.275018
0.274875
0.276411
0.263796
0.263047
0.268615
0.233202
0.152716
0.119131
0.134196
0.126846
0.127035
0.126995
0.127177
0.12719
0.130528
0.144074
0.165775
0.184226
0.195543
0.201928
0.209035
0.220135
0.233727
0.251392
0.27151
0.276117
0.274875
0.276411
0.274875
0.271743
0.240632
0.158325
0.118873
0.126846
0.126936
0.126747
0.127034
0.127392
0.130076
0.131947
0.132125
0.135842
0.14649
0.164659
0.18413
0.200034
0.213281
0.227223
0.242813
0.261172
0.274189
0.27538
0.274875
0.275048
0.264531
0.232638
0.160501
0.118873
0.126846
0.12662
0.126919
0.140839
0.16548
0.195071
0.194762
0.185594
0.160178
0.152274
0.154361
0.163379
0.181597
0.20146
0.218036
0.231689
0.247827
0.266782
0.274574
0.273062
0.26362
0.240552
0.210875
0.161262
0.118637
0.12662
0.126785
0.148244
0.19949
0.255033
0.274875
0.281409
0.274875
0.261523
0.197432
0.162568
0.165022
0.176367
0.19504
0.214986
0.232524
0.249205
0.26581
0.270912
0.264155
0.242764
0.209529
0.186321
0.156088
0.117922
0.131258
0.147444
0.168767
0.233751
0.274875
0.280072
0.274875
0.28125
0.274875
0.23472
0.179601
0.172691
0.182197
0.201867
0.222098
0.239102
0.256259
0.266521
0.264126
0.246121
0.213064
0.18264
0.165598
0.146455
0.117654
0.156376
0.155538
0.166639
0.222774
0.275377
0.274875
0.278831
0.274875
0.278554
0.253133
0.190932
0.186743
0.201238
0.223093
0.241161
0.255135
0.264093
0.263807
0.245057
0.215253
0.186692
0.167928
0.146403
0.138671
0.118818
0.163979
0.154501
0.155927
0.199985
0.265923
0.276378
0.274875
0.277066
0.274875
0.267793
0.212164
0.231519
0.260345
0.265396
0.263676
0.263243
0.258525
0.24504
0.214616
0.186489
0.1689
0.149742
0.131164
0.137287
0.126086
0.163084
0.153837
0.151262
0.181248
0.250774
0.274875
0.275918
0.274875
0.275809
0.274875
0.26398
0.274875
0.277748
0.274875
0.266748
0.254265
0.23814
0.213459
0.184291
0.162417
0.147072
0.128389
0.127078
0.140757
0.134968
0.156198
0.153821
0.151162
0.171199
0.234459
0.272185
0.274875
0.275144
0.274875
0.275305
0.274875
0.277587
0.274875
0.275291
0.257226
0.233336
0.205926
0.176314
0.152226
0.136763
0.125123
0.124739
0.127158
0.148873
0.146103
0.153494
0.156428
0.15209
0.166322
0.216589
0.261371
0.272459
0.272928
0.272913
0.273502
0.27515
0.274875
0.276538
0.266871
0.237025
0.202123
0.168054
0.140231
0.123575
0.122959
0.12451
0.132586
0.148975
0.168219
0.165208
0.154021
0.164779
0.157465
0.162519
0.19612
0.241611
0.260672
0.263551
0.263413
0.267239
0.272629
0.275162
0.274875
0.253912
0.207634
0.166175
0.133278
0.118953
0.118876
0.129496
0.164108
0.210098
0.236035
0.199677
0.170576
0.162907
0.180526
0.163239
0.158613
0.171377
0.209657
0.23822
0.24706
0.247984
0.250463
0.260917
0.271432
0.275876
0.272541
0.209276
0.144095
0.120217
0.120253
0.149411
0.211309
0.285186
0.312123
0.303453
0.241713
0.156865
0.173423
0.204322
0.173566
0.156558
0.153634
0.171674
0.203938
0.223986
0.229443
0.228997
0.238253
0.254641
0.270077
0.272714
0.253774
0.180903
0.131778
0.148274
0.23836
0.295633
0.311478
0.303453
0.313565
0.262864
0.133822
0.177368
0.231427
0.197136
0.164779
0.150001
0.148561
0.162862
0.187082
0.203948
0.207877
0.213416
0.225654
0.244646
0.265217
0.265098
0.258526
0.224778
0.205624
0.249588
0.304043
0.303453
0.313469
0.303453
0.256522
0.122835
0.175851
0.249098
0.225074
0.189672
0.164248
0.148677
0.147981
0.148361
0.167881
0.181009
0.189122
0.197507
0.210475
0.233278
0.250563
0.257232
0.264083
0.269615
0.282327
0.303453
0.307599
0.303453
0.308688
0.223426
0.122803
0.174996
0.256225
0.237395
0.205331
0.191303
0.174583
0.152988
0.144133
0.144151
0.1508
0.160694
0.170292
0.180579
0.196179
0.216361
0.23692
0.254594
0.265907
0.279027
0.30058
0.303453
0.305368
0.28756
0.194961
0.121691
0.178763
0.260156
0.237709
0.206324
0.202734
0.203453
0.19336
0.170142
0.149417
0.140802
0.140914
0.145787
0.154709
0.166909
0.182702
0.20377
0.229529
0.252023
0.268158
0.288986
0.303717
0.301064
0.275454
0.186895
0.121691
0.185063
0.263181
0.237364
0.205285
0.203708
0.209852
0.213695
0.208416
0.182827
0.154407
0.141872
0.141954
0.142049
0.147281
0.157744
0.174849
0.201321
0.233375
0.25925
0.283054
0.301584
0.294412
0.256804
0.169559
0.120798
0.191739
0.265875
0.240287
0.2058
0.200508
0.204584
0.212959
0.220133
0.215341
0.195892
0.165404
0.145028
0.142202
0.146144
0.156465
0.174644
0.203543
0.239753
0.268711
0.291189
0.298267
0.276925
0.220394
0.142632
0.120932
0.198484
0.266032
0.243223
0.20646
0.191993
0.195053
0.207354
0.222122
0.245395
0.263493
0.23124
0.173453
0.149004
0.150831
0.163526
0.189755
0.231962
0.273921
0.286965
0.288772
0.277412
0.2321
0.170967
0.123186
0.120468
0.205142
0.265279
0.240477
0.198915
0.183502
0.190397
0.210319
0.258808
0.29842
0.290157
0.297143
0.254737
0.181701
0.179103
0.209052
0.252693
0.27783
0.281355
0.281089
0.258972
0.220013
0.170065
0.134054
0.121329
0.120916
0.211384
0.260825
0.225128
0.185044
0.181957
0.196243
0.251569
0.298061
0.290157
0.298071
0.290157
0.296209
0.280001
0.270378
0.277846
0.27964
0.274885
0.261676
0.233684
0.191539
0.152763
0.128714
0.120493
0.121392
0.125304
0.217401
0.251179
0.204659
0.180843
0.181826
0.23677
0.296007
0.290157
0.296419
0.290157
0.296172
0.290157
0.29452
0.290157
0.287762
0.265997
0.239735
0.203647
0.163433
0.133769
0.119307
0.114406
0.113343
0.117008
0.121759
0.221999
0.24423
0.193946
0.180029
0.204681
0.268555
0.290157
0.291943
0.290157
0.292632
0.290157
0.292932
0.290157
0.288238
0.264344
0.225745
0.183247
0.147899
0.128412
0.118353
0.11172
0.105429
0.102082
0.1027
0.105352
0.225378
0.243956
0.191032
0.180843
0.221159
0.269038
0.284759
0.287429
0.289705
0.290157
0.291208
0.290157
0.287071
0.267979
0.229588
0.194006
0.166776
0.150387
0.140382
0.135432
0.122443
0.105658
0.095993
0.0949096
0.0949096
0.228193
0.249797
0.191106
0.18216
0.223466
0.260562
0.273743
0.278526
0.282187
0.285751
0.287336
0.287517
0.279461
0.257444
0.228539
0.199506
0.18182
0.178629
0.188132
0.190059
0.157363
0.124367
0.106726
0.097137
0.0954012
0.229903
0.261951
0.195165
0.183004
0.214964
0.247426
0.26077
0.266489
0.271353
0.277156
0.281684
0.283406
0.280015
0.262312
0.238334
0.218857
0.211692
0.222113
0.236022
0.221924
0.181005
0.14637
0.126823
0.116068
0.117069
0.229167
0.27822
0.208532
0.183082
0.198943
0.228467
0.245898
0.254237
0.259407
0.266235
0.273231
0.278458
0.28014
0.2717
0.253957
0.24009
0.237351
0.245441
0.244282
0.215071
0.182718
0.159346
0.142339
0.135313
0.145439
0.225424
0.292
0.241844
0.189632
0.186813
0.20229
0.226317
0.239607
0.247538
0.254831
0.263048
0.271413
0.278353
0.277347
0.267472
0.255251
0.253462
0.257295
0.240694
0.206678
0.202523
0.206956
0.180131
0.155192
0.154079
0.221593
0.293596
0.292215
0.212631
0.185919
0.182657
0.196115
0.217894
0.232219
0.242076
0.252062
0.262785
0.272671
0.276153
0.273877
0.266785
0.287662
0.294322
0.240346
0.22914
0.287531
0.303632
0.268028
0.192879
0.149906
0.221116
0.291824
0.295531
0.268242
0.206636
0.182384
0.178782
0.183904
0.206065
0.223622
0.237975
0.251607
0.263935
0.272022
0.274778
0.281873
0.305364
0.29822
0.292591
0.29822
0.307844
0.29822
0.307844
0.247285
0.147028
0.224431
0.286443
0.295278
0.292083
0.264684
0.212964
0.178805
0.17313
0.173485
0.193471
0.215276
0.234684
0.251371
0.263393
0.270984
0.294949
0.29822
0.307562
0.29822
0.30756
0.29822
0.306697
0.29822
0.277492
0.147028
0.236674
0.278691
0.285868
0.284975
0.281766
0.264397
0.220535
0.180782
0.170443
0.170445
0.184489
0.206644
0.229459
0.247255
0.260348
0.285481
0.301072
0.29822
0.305126
0.29822
0.305453
0.29822
0.303682
0.277695
0.14784
0.257281
0.266774
0.267553
0.268409
0.272211
0.268562
0.258644
0.229132
0.189315
0.170443
0.17009
0.176824
0.195844
0.218873
0.238798
0.263495
0.289621
0.300044
0.29822
0.302293
0.29822
0.3023
0.29822
0.264959
0.147578
0.257363
0.247804
0.24326
0.246363
0.252611
0.259768
0.25878
0.254772
0.233242
0.19475
0.170443
0.169965
0.171144
0.184532
0.205697
0.231418
0.264257
0.288025
0.298653
0.29822
0.300584
0.29822
0.297968
0.251505
0.146457
0.234388
0.214605
0.210955
0.218087
0.229434
0.24286
0.253649
0.25397
0.251282
0.230036
0.19091
0.170443
0.170151
0.170443
0.178865
0.198671
0.22805
0.262468
0.285921
0.297083
0.29822
0.298474
0.290775
0.240965
0.146427
0.18223
0.176719
0.18332
0.19528
0.2093
0.224814
0.241944
0.252826
0.252638
0.247241
0.220031
0.181286
0.170443
0.170165
0.170445
0.178044
0.198398
0.229789
0.262424
0.285329
0.297456
0.296746
0.283201
0.230953
0.146381
0.143391
0.160098
0.176757
0.187899
0.19892
0.213569
0.23195
0.248631
0.252449
0.252087
0.240348
0.202272
0.172894
0.170443
0.170494
0.171832
0.180301
0.202425
0.234763
0.264272
0.292633
0.292444
0.274071
0.219342
0.146353
0.134751
0.172697
0.183427
0.187545
0.195871
0.210105
0.2286
0.246358
0.251289
0.25077
0.246424
0.220764
0.182311
0.170279
0.170591
0.171873
0.175487
0.188659
0.219216
0.261188
0.289075
0.283531
0.256521
0.202374
0.146348
0.143587
0.198274
0.193155
0.188691
0.198121
0.213962
0.231972
0.246451
0.249447
0.248333
0.245519
0.230705
0.19382
0.171484
0.17176
0.174147
0.179625
0.196844
0.232136
0.269093
0.281238
0.262036
0.230302
0.190864
0.146392
0.158003
0.211499
0.199226
0.192142
0.205411
0.223314
0.238616
0.247145
0.248622
0.248263
0.244962
0.23255
0.198692
0.175439
0.177517
0.183498
0.200427
0.231226
0.25826
0.266543
0.261741
0.230061
0.2047
0.191268
0.155044
0.165616
0.211694
0.201072
0.197816
0.216011
0.234514
0.245492
0.249878
0.250742
0.248988
0.24101
0.22136
0.198675
0.191589
0.208229
0.225606
0.242617
0.252542
0.254791
0.249518
0.227615
0.204513
0.198913
0.197096
0.170089
0.166725
0.207797
0.201204
0.204658
0.227853
0.24569
0.254231
0.256329
0.255638
0.249936
0.239231
0.227628
0.223091
0.235652
0.246739
0.251099
0.250661
0.244163
0.234116
0.217845
0.20437
0.203541
0.203239
0.209065
0.188926
0.167036
0.202183
0.201527
0.215394
0.243338
0.261209
0.269546
0.271279
0.26782
0.259471
0.253971
0.252476
0.25532
0.256332
0.25249
0.24545
0.235795
0.222984
0.211368
0.20441
0.203608
0.204383
0.209724
0.214392
0.214252
0.167348
0.198719
0.204853
0.231779
0.261454
0.278492
0.288969
0.293349
0.29121
0.2778
0.274653
0.270929
0.262196
0.252309
0.241547
0.229815
0.219135
0.211172
0.206505
0.20433
0.203322
0.202945
0.204622
0.2119
0.218389
0.167656
0.198571
0.211838
0.248102
0.274957
0.287597
0.294195
0.296566
0.295774
0.293798
0.281177
0.269665
0.256656
0.242425
0.229361
0.218727
0.210938
0.205217
0.200909
0.197388
0.19335
0.189637
0.187626
0.199246
0.212383
0.167906
0.199902
0.214801
0.251021
0.276045
0.287858
0.294227
0.295774
0.29673
0.295774
0.281004
0.265812
0.249702
0.234598
0.222478
0.212568
0.203761
0.195535
0.187892
0.181002
0.175368
0.171351
0.169498
0.168868
0.172382
0.16808
0.201539
0.212941
0.248321
0.274457
0.28674
0.293491
0.296024
0.295774
0.296686
0.280917
0.26322
0.248189
0.235306
0.223326
0.211468
0.199683
0.188483
0.178268
0.170103
0.165065
0.163827
0.16429
0.143988
0.116477
0.16827
0.203801
0.209114
0.240957
0.269531
0.283351
0.291352
0.29551
0.296167
0.295774
0.283705
0.266988
0.252996
0.241233
0.230366
0.219419
0.207644
0.195215
0.182431
0.171008
0.163759
0.16367
0.173566
0.143397
0.0889702
0.169748
0.208711
0.205231
0.228026
0.258662
0.274985
0.28518
0.29189
0.294661
0.294859
0.286157
0.272843
0.261278
0.25192
0.243913
0.236622
0.227852
0.215825
0.201055
0.185711
0.173449
0.168047
0.19133
0.164965
0.0887748
0.176508
0.220999
0.203165
0.211673
0.240681
0.258162
0.270768
0.279858
0.286314
0.286341
0.281702
0.272088
0.26233
0.255376
0.251168
0.248498
0.245329
0.238925
0.228464
0.215662
0.200792
0.185659
0.20889
0.194735
0.0887748
0.187727
0.221222
0.202272
0.198133
0.218518
0.233098
0.245744
0.255759
0.264345
0.266469
0.265585
0.261816
0.25609
0.25107
0.24832
0.246601
0.244625
0.243251
0.240813
0.235333
0.225254
0.207434
0.219436
0.210563
0.0887748
0.203352
0.220309
0.200219
0.193263
0.199924
0.206796
0.214986
0.222818
0.230031
0.234367
0.23583
0.236201
0.236065
0.235692
0.235915
0.236135
0.236839
0.237853
0.237069
0.233378
0.227894
0.216924
0.21947
0.212721
0.0923259
0.20357
0.206596
0.186601
0.186558
0.185866
0.186557
0.186216
0.186655
0.186858
0.189493
0.19129
0.19319
0.195579
0.198702
0.203624
0.20452
0.208662
0.213763
0.214046
0.210713
0.209279
0.209633
0.21332
0.207726
0.0987033
0.215805
0.18586
0.186558
0.185863
0.186557
0.185863
0.186557
0.185861
0.186557
0.185861
0.188348
0.193099
0.195381
0.196464
0.204296
0.204425
0.204539
0.204569
0.204615
0.204671
0.206055
0.227356
0.253741
0.2705
0.175308
0.59763
0.48646
0.480349
0.485187
0.488442
0.488932
0.487421
0.486377
0.485011
0.528538
0.552898
0.560218
0.559559
0.558953
0.567525
0.4957
0.489444
0.490695
0.491767
0.492551
0.550217
0.624638
0.651609
0.66854
0.658175
0.975987
0.959215
0.95903
0.961025
0.961463
0.960458
0.958062
0.954594
0.95405
0.959931
0.962425
0.963477
0.963559
0.96326
0.962893
0.95416
0.954017
0.95557
0.956213
0.955639
0.962115
0.964945
0.964124
0.963901
0.970452
0.999704
0.999647
0.999429
0.999352
0.999399
0.999456
0.999489
0.999512
0.999547
0.99959
0.999609
0.999622
0.999629
0.999627
0.999598
0.999503
0.99941
0.999336
0.999272
0.99921
0.999232
0.99912
0.998959
0.999212
0.999725
0.999998
0.999999
0.999998
0.999998
0.999998
0.999999
0.999999
1
1
1
1
1
1
1
1
1
0.999999
0.999998
0.999997
0.999996
0.999995
0.999994
0.999993
0.999998
1
1
1
1
1
1
1
1
1
1
1
1
1
1
1
1
1
1
1
1
1
1
1
1
1
1
1
1
1
1
1
1
1
1
1
1
1
1
1
1
1
1
1
1
1
1
1
1
1
1
1
1
1
1
1
1
1
1
1
1
1
1
1
1
1
1
1
1
1
1
1
1
1
1
1
1
1
1
1
1
1
1
1
1
1
1
1
1
1
1
1
1
1
1
1
1
1
1
1
1
1
)
;

boundaryField
{
    inlet
    {
        type            fixedValue;
        value           uniform 0.5;
    }
    outlet
    {
        type            inletOutlet;
        phi             phi.air;
        inletValue      uniform 1;
        value           nonuniform List<scalar> 
25
(
1
1
1
1
1
1
1
1
1
1
1
1
1
1
1
1
1
1
1
1
1
1
1
1
1
)
;
    }
    walls
    {
        type            zeroGradient;
    }
    defaultFaces
    {
        type            empty;
    }
}


// ************************************************************************* //
