/*--------------------------------*- C++ -*----------------------------------*\
| =========                 |                                                 |
| \\      /  F ield         | OpenFOAM: The Open Source CFD Toolbox           |
|  \\    /   O peration     | Version:  2.3.0                                 |
|   \\  /    A nd           | Web:      www.OpenFOAM.org                      |
|    \\/     M anipulation  |                                                 |
\*---------------------------------------------------------------------------*/
FoamFile
{
    version     2.0;
    format      ascii;
    class       volScalarField;
    location    "25";
    object      rho;
}
// * * * * * * * * * * * * * * * * * * * * * * * * * * * * * * * * * * * * * //

dimensions      [1 -3 0 0 0 0 0];

internalField   nonuniform List<scalar> 
1875
(
845.634
841.665
828.816
803.761
772.558
735.11
693.248
670.451
711.724
809.073
785.788
694.261
664.197
695.445
737.498
769.788
793.835
812.65
830.103
845.724
859.125
871.506
881.343
886.352
889.065
956.244
947.409
933.191
916.408
888.797
849.398
789.623
749.241
825.594
857.669
850.901
784.407
770.117
820.669
856.204
878.98
893.168
901.552
906.248
910.512
915.427
921.398
928.349
931.988
931.988
940.616
902.357
861.178
872.301
874.892
848.837
789.155
740.06
819.176
853.304
854.665
795.207
770.168
791.1
850.737
872.777
881.522
882.511
873.259
864.64
858.829
856.601
871.048
891.816
909.531
920.206
830.335
737.191
725.974
776.379
813.711
763.628
724.911
800.309
862.011
853.304
827.452
770.906
770.537
775.22
806.674
821.802
837.101
846.786
836.141
814.847
801.234
811.424
848.24
883.146
905.101
797.818
722.028
724.596
720.081
724.596
721.089
724.596
794.003
854.368
859.673
853.19
787.177
770.919
771.968
774.089
774.259
776.068
826.652
838.617
825.617
801.588
800.94
833.422
875.197
894.317
805.947
734.758
721.79
724.596
720.357
724.596
729.132
795.688
862.082
853.303
855.027
830.142
788.428
774.089
774.265
774.545
782.775
804.425
838.29
835.64
811.219
812.553
835.33
873.242
889.349
819.625
759.784
731.454
723.395
724.596
724.972
743.648
803.51
853.303
860.418
852.817
851.189
817.577
791.112
793.675
802.665
813.167
819.962
833.784
828.837
808.113
823.963
848.291
876.75
884.057
832.534
785.758
749.473
732.085
728.146
735.09
762.993
812.628
859.54
852.817
854.657
850.483
835.877
826.353
847.101
851.864
847.375
832.757
819.483
807.967
806.072
832.997
862.702
886.551
876.799
845.408
811.265
778.179
753.864
742.593
748.591
778.061
814.687
844.689
855.518
851.586
850.263
839.402
841.935
846.922
851.648
848.773
827.074
803.045
787.69
796.081
836.344
873.562
894.738
868.418
858.105
839.824
816.202
789.166
766.768
767.024
783.295
810.025
831.82
849.405
850.576
846.569
832.271
830.347
820.05
816.065
824.193
810.392
788.637
773.569
781.416
831.062
877.26
900.387
868.503
870.397
869.636
858.229
837.618
812.16
794.297
794.812
803.182
813.771
831.666
837.604
829.866
813.72
804.758
774.615
745.448
747.062
785.16
783.941
764.481
762.426
809.472
876.817
903.329
874.067
885.349
893.586
893.109
886.977
870.628
847.284
827.878
815.031
815.724
817.918
817.868
811.709
797.495
783.593
763.688
744.918
745.065
743.489
756.432
757.201
751.488
787.824
870.406
904.866
889.409
896.95
896.757
896.797
896.611
896.597
893.172
879.273
857.007
838.076
826.464
819.912
812.62
801.231
787.285
769.16
748.518
743.791
745.065
743.489
745.065
748.279
780.2
864.651
905.131
896.95
896.857
897.052
896.757
896.39
893.636
891.716
891.533
887.72
876.794
858.151
838.174
821.855
808.263
793.958
777.962
759.124
745.768
744.547
745.065
744.887
755.678
788.402
862.418
905.131
896.949
897.181
896.874
882.592
857.309
826.947
827.265
836.671
862.749
870.859
868.717
859.465
840.772
820.392
803.383
789.375
772.816
753.368
745.373
746.924
756.613
780.282
810.731
861.638
905.372
897.181
897.012
874.994
822.413
765.422
745.064
738.359
745.064
758.763
824.524
860.296
857.779
846.138
826.979
806.513
788.518
771.403
754.365
749.13
756.063
778.011
812.112
835.925
866.945
906.106
892.422
875.815
853.935
787.259
745.063
739.73
745.063
738.522
745.063
786.265
842.82
849.91
840.156
819.974
799.215
781.768
764.165
753.635
756.092
774.567
808.485
839.702
857.187
876.83
906.381
866.649
867.51
856.119
798.521
744.548
745.063
741.004
745.063
741.288
767.371
831.193
835.491
820.619
798.194
779.656
765.317
756.126
756.419
775.658
806.238
835.543
854.797
876.883
884.816
905.187
858.848
868.573
867.11
821.904
754.248
743.52
745.063
742.815
745.063
752.329
809.407
789.548
759.971
754.789
756.553
756.997
761.839
775.676
806.892
835.752
853.799
873.456
892.519
886.236
897.729
859.766
869.254
871.896
841.129
769.792
745.062
743.992
745.062
744.104
745.062
756.241
745.062
742.114
745.062
753.401
766.21
782.755
808.079
838.006
860.451
876.196
895.366
896.71
882.675
888.615
866.832
869.271
871.999
851.439
786.531
747.822
745.062
744.786
745.062
744.62
745.062
742.28
745.062
744.635
763.17
787.683
815.807
846.191
870.907
886.773
898.716
899.11
896.628
874.347
877.189
869.606
866.596
871.046
856.444
804.866
758.918
747.54
747.059
747.075
746.471
744.779
745.062
743.355
753.274
783.898
819.71
854.666
883.214
900.304
900.937
899.345
891.059
874.242
854.497
857.586
869.064
858.026
865.531
860.346
825.868
779.192
759.634
756.681
756.822
752.896
747.366
744.767
745.061
766.57
814.054
856.594
890.349
905.047
905.126
894.229
858.715
811.526
784.914
822.219
852.078
859.947
841.869
859.606
864.353
851.256
811.978
782.671
773.601
772.653
770.109
759.382
748.593
744.034
747.455
812.369
879.249
903.75
903.712
873.795
810.283
734.481
706.842
715.738
779.087
866.147
849.157
817.452
849.01
866.461
869.462
850.951
817.847
797.276
791.677
792.134
782.637
765.821
749.983
747.278
766.711
841.482
891.887
874.961
782.527
723.762
707.503
715.737
705.362
757.385
889.79
845.108
789.64
824.825
858.026
873.189
874.666
859.993
835.141
817.836
813.804
808.121
795.564
776.077
754.97
755.092
761.835
796.463
816.116
771.006
715.131
715.737
705.46
715.737
763.891
901.063
846.665
771.509
796.159
832.484
858.57
874.547
875.262
874.872
854.843
841.373
833.048
824.444
811.138
787.741
770.006
763.163
756.133
750.457
737.414
715.737
711.483
715.737
710.366
797.85
901.095
847.542
764.195
783.517
816.416
830.81
847.966
870.124
879.21
879.191
872.369
862.216
852.368
841.813
825.807
805.099
784.004
765.869
754.261
740.799
718.684
715.736
713.772
732.043
827.057
902.236
843.676
760.162
783.194
815.397
819.081
818.343
828.698
852.522
873.787
882.627
882.512
877.512
868.358
855.839
839.635
818.018
791.587
768.506
751.951
730.58
715.466
718.188
744.465
835.332
902.236
837.212
757.058
783.548
816.463
818.081
811.777
807.834
813.25
839.506
868.667
881.529
881.445
881.348
875.979
865.243
847.692
820.53
787.64
761.091
736.666
717.654
725.013
763.601
853.12
903.152
830.362
754.293
780.548
815.934
821.364
817.182
808.588
801.227
806.144
826.1
857.383
878.29
881.19
877.145
866.555
847.902
818.249
781.096
751.383
728.319
721.057
742.955
800.96
880.749
903.015
823.44
754.132
777.535
815.256
830.101
826.961
814.339
799.186
775.307
756.737
789.83
849.124
874.21
872.335
859.31
832.396
789.09
746.037
732.652
730.799
742.455
788.948
851.675
900.702
903.49
816.609
754.904
780.352
822.998
838.813
831.738
811.297
761.544
720.898
729.377
722.209
765.72
840.661
843.326
812.597
767.818
742.025
738.409
738.681
761.375
801.35
852.6
889.55
902.607
903.03
810.204
759.473
796.101
837.23
840.397
825.739
768.971
721.267
729.377
721.256
729.377
723.166
739.797
749.671
742.009
740.168
745.047
758.6
787.323
830.566
870.353
895.029
903.464
902.542
898.527
804.03
769.371
817.103
841.541
840.532
784.155
723.374
729.377
722.951
729.377
723.205
729.377
724.9
729.377
731.834
754.166
781.113
818.142
859.404
889.842
904.681
909.71
910.801
907.039
902.165
799.311
776.501
828.096
842.375
817.081
751.541
729.376
727.544
729.376
726.837
729.376
726.528
729.376
731.345
755.862
795.467
839.074
875.343
895.339
905.659
912.465
918.921
922.355
921.721
919
795.844
776.781
831.085
841.54
800.172
751.046
734.914
732.175
729.839
729.376
728.298
729.376
732.542
752.132
791.524
828.033
855.973
872.79
883.056
888.135
901.462
918.685
928.602
929.714
929.714
792.955
770.788
831.01
840.188
797.805
759.742
746.217
741.309
737.553
733.896
732.27
732.084
740.35
762.941
792.6
822.39
840.537
843.811
834.061
832.083
865.632
899.488
917.589
927.428
929.209
791.201
758.317
826.844
839.322
806.529
773.221
759.528
753.661
748.669
742.715
738.069
736.302
739.781
757.946
782.549
802.534
809.885
799.193
784.922
799.387
841.373
876.911
896.968
908.003
906.976
791.955
741.623
813.129
839.242
822.968
792.673
774.788
766.232
760.927
753.92
746.742
741.378
739.653
748.312
766.518
780.747
783.557
775.257
776.446
806.418
839.615
863.596
881.047
888.256
877.866
795.795
727.483
778.947
832.52
835.413
819.533
794.879
781.242
773.105
765.621
757.19
748.607
741.487
742.519
752.651
765.19
767.026
763.093
780.127
815.03
819.294
814.744
842.27
867.858
869
799.726
725.845
727.262
808.921
836.33
839.677
825.868
803.521
788.823
778.709
768.463
757.46
747.316
743.743
746.078
753.355
731.934
725.1
780.483
791.982
732.068
715.548
752.08
829.189
873.282
800.215
727.663
723.859
751.86
815.073
839.957
843.653
838.398
815.659
797.643
782.917
768.929
756.279
747.982
745.154
737.873
713.77
721.1
726.876
721.1
711.225
721.1
711.225
773.363
876.235
796.813
733.184
724.118
727.397
755.511
808.58
843.629
849.453
849.088
828.581
806.207
786.293
769.17
756.835
749.046
724.456
721.1
711.515
721.1
711.516
721.1
712.401
721.1
742.368
876.235
784.251
741.138
733.774
734.69
737.983
755.805
800.811
841.6
852.209
852.207
837.797
815.064
791.654
773.393
759.96
734.171
718.174
721.1
714.014
721.1
713.677
721.1
715.495
742.16
875.401
763.106
753.365
752.566
751.687
747.787
751.531
761.708
791.989
832.845
852.209
852.571
845.661
826.146
802.516
782.071
756.729
729.923
719.228
721.099
716.92
721.099
716.913
721.099
755.228
875.67
763.021
772.83
777.492
774.308
767.897
760.554
761.568
765.68
787.772
827.268
852.208
852.699
851.489
837.752
816.035
789.643
755.948
731.56
720.654
721.099
718.674
721.099
721.357
769.033
876.82
786.596
806.895
810.639
803.322
791.679
777.903
766.832
766.503
769.261
791.061
831.208
852.208
852.508
852.208
843.567
823.244
793.099
757.783
733.718
722.265
721.099
720.838
728.738
779.847
876.85
840.114
845.768
838.995
826.723
812.338
796.419
778.842
767.676
767.869
773.407
801.326
841.082
852.208
852.494
852.206
844.409
823.524
791.314
757.828
734.325
721.883
722.611
736.509
790.12
876.898
879.966
862.823
845.729
834.296
822.989
807.957
789.096
771.98
768.063
768.434
780.479
819.548
849.693
852.208
852.156
850.783
842.093
819.391
786.21
755.931
726.831
727.025
745.877
802.034
876.926
888.83
849.895
838.884
834.659
826.116
811.511
792.534
774.312
769.253
769.785
774.245
800.574
840.03
852.376
852.055
850.74
847.032
833.516
802.162
759.095
730.481
736.17
763.884
819.444
876.931
879.764
823.651
828.903
833.484
823.807
807.553
789.073
774.216
771.143
772.285
775.173
790.373
828.22
851.139
850.856
848.407
842.786
825.118
788.905
750.984
738.522
758.225
790.787
831.254
876.886
864.972
810.079
822.673
829.942
816.327
797.957
782.256
773.504
771.989
772.357
775.744
788.48
823.222
847.08
844.949
838.812
821.441
789.839
762.099
753.6
758.527
791.034
817.057
830.838
868.007
857.16
809.88
820.778
824.12
805.45
786.464
775.2
770.699
769.813
771.613
779.798
799.962
823.238
830.509
813.435
795.604
778.15
767.966
765.658
771.069
793.543
817.248
822.994
824.859
852.57
856.022
813.878
820.643
817.099
793.299
774.996
766.232
764.079
764.788
770.639
781.623
793.529
798.185
785.296
773.92
769.446
769.895
776.563
786.872
803.568
817.394
818.245
818.555
812.577
833.242
855.703
819.638
820.311
806.082
777.409
759.072
750.517
748.739
752.289
760.856
766.499
768.033
765.115
764.077
768.018
775.242
785.149
798.294
810.214
817.354
818.176
817.38
811.9
807.111
807.254
855.382
823.192
816.898
789.27
758.82
741.338
730.587
726.093
728.288
742.048
745.277
749.098
758.059
768.204
779.246
791.285
802.244
810.414
815.203
817.435
818.469
818.857
817.136
809.667
803.009
855.065
823.344
809.731
772.521
744.964
731.995
725.225
722.791
723.605
725.632
738.582
750.395
763.744
778.346
791.75
802.662
810.654
816.524
820.945
824.558
828.702
832.511
834.575
822.652
809.171
854.808
821.978
806.69
769.525
743.848
731.727
725.192
723.604
722.623
723.604
738.759
754.348
770.878
786.376
798.813
808.981
818.019
826.459
834.301
841.371
847.153
851.273
853.176
853.822
850.216
854.63
820.298
808.598
772.295
745.477
732.874
725.947
723.348
723.604
722.668
738.849
757.008
772.43
785.65
797.942
810.11
822.202
833.694
844.176
852.554
857.723
858.994
858.518
879.35
907.579
854.434
817.977
812.525
779.851
750.531
736.351
728.141
723.874
723.2
723.604
735.988
753.141
767.497
779.568
790.718
801.951
814.034
826.787
839.904
851.626
859.063
859.155
849
879.956
935.804
852.918
812.938
816.509
793.119
761.684
744.934
734.474
727.588
724.745
724.542
733.471
747.133
758.999
768.601
776.818
784.299
793.298
805.638
820.794
836.539
849.121
854.663
830.772
857.826
936.004
845.982
800.329
818.628
809.899
780.133
762.197
749.261
739.934
733.31
733.282
738.042
747.907
757.92
765.055
769.373
772.112
775.365
781.936
792.669
805.805
821.064
836.592
812.754
827.279
936.004
834.47
800.1
819.544
823.792
802.875
787.914
774.938
764.662
755.851
753.672
754.579
758.446
764.322
769.473
772.295
774.059
776.087
777.496
779.997
785.621
795.963
814.247
801.932
811.037
936.004
818.436
801.036
821.651
828.788
821.953
814.902
806.498
798.463
791.061
786.612
785.11
784.73
784.869
785.252
785.023
784.797
784.075
783.035
783.839
787.627
793.253
804.51
801.897
808.823
932.36
818.212
815.107
835.625
835.669
836.379
835.669
836.019
835.568
835.36
832.657
830.812
828.863
826.412
823.207
818.156
817.237
812.987
807.753
807.463
810.883
812.354
811.991
808.207
813.947
925.816
805.658
836.384
835.668
836.381
835.668
836.381
835.668
836.383
835.669
836.383
833.831
828.957
826.615
825.504
817.466
817.334
817.218
817.187
817.139
817.082
815.662
793.805
766.731
749.535
847.212
413.866
527.938
534.209
529.244
525.904
525.401
526.952
528.023
529.425
484.762
459.765
452.255
452.93
453.552
444.757
518.457
524.876
523.592
522.492
521.688
462.516
386.153
358.478
341.105
351.741
25.633
42.8427
43.0329
40.9857
40.5358
41.5671
44.0254
47.584
48.1422
42.1085
39.549
38.469
38.3855
38.6925
39.0686
48.0299
48.1763
46.5833
45.9228
46.5124
39.8669
36.9637
37.8056
38.0345
31.3126
1.30477
1.35716
1.57992
1.65891
1.6102
1.55205
1.5185
1.49471
1.45893
1.4151
1.39523
1.3827
1.37531
1.37736
1.40665
1.50444
1.59951
1.67481
1.74071
1.8039
1.78162
1.89654
2.0618
1.80206
1.27536
1.02077
1.01168
1.01507
1.02585
1.04192
1.06083
1.07631
1.08902
1.09589
1.09958
1.10017
1.10111
1.1067
1.10293
1.08855
1.0734
1.0448
1.01836
1.00471
0.999959
0.998996
1.00021
1.00105
0.995472
0.993667
1.05218
1.07231
1.09376
1.11589
1.13588
1.14773
1.15404
1.15706
1.15786
1.15794
1.15797
1.15799
1.158
1.15769
1.15673
1.15139
1.10761
1.04796
1.01872
1.00592
1.00065
0.998187
0.996146
0.994411
0.993857
1.05709
1.10742
1.13697
1.14972
1.15549
1.15762
1.15832
1.15856
1.15861
1.15862
1.15862
1.15862
1.15862
1.15858
1.15824
1.15547
1.14011
1.10417
1.07599
1.05613
1.03844
1.02574
1.00974
0.999151
0.995379
1.05991
1.12279
1.14932
1.15507
1.1563
1.15646
1.15721
1.15839
1.15857
1.15862
1.15862
1.15863
1.15863
1.15863
1.15862
1.15856
1.15762
1.15137
1.14443
1.13717
1.12442
1.10707
1.06916
1.01487
0.999052
1.07048
1.13407
1.15139
1.15336
1.15219
1.15302
1.15755
1.15842
1.15858
1.15862
1.15862
1.15862
1.15862
1.15862
1.15862
1.15862
1.15861
1.15839
1.15794
1.15682
1.15284
1.14448
1.12424
1.06546
1.01379
)
;

boundaryField
{
    inlet
    {
        type            calculated;
        value           nonuniform List<scalar> 
25
(
514.171
514.171
514.171
514.171
514.171
514.171
514.171
514.171
514.171
514.171
514.171
514.171
514.171
514.171
514.171
514.171
514.171
514.171
514.171
514.171
514.171
514.171
514.172
514.172
514.172
)
;
    }
    outlet
    {
        type            calculated;
        value           nonuniform List<scalar> 
25
(
1.0702
1.13389
1.15134
1.15333
1.15208
1.15862
1.15862
1.15862
1.15862
1.15862
1.15862
1.15862
1.15862
1.15862
1.15862
1.15862
1.15861
1.15843
1.15806
1.15704
1.15324
1.14525
1.12565
1.06737
1.01423
)
;
    }
    walls
    {
        type            calculated;
        value           nonuniform List<scalar> 
150
(
845.634
956.244
940.616
920.206
905.101
894.317
889.349
884.057
876.799
868.418
868.503
874.067
889.409
896.95
896.949
897.181
892.422
866.649
858.848
859.766
866.832
869.606
869.064
859.947
849.157
845.108
846.665
847.542
843.676
837.212
830.362
823.44
816.609
810.204
804.03
799.311
795.844
792.955
791.201
791.955
795.795
799.726
800.215
796.813
784.251
763.106
763.021
786.596
840.114
879.966
888.83
879.764
864.972
857.16
856.022
855.703
855.382
855.065
854.808
854.63
854.434
852.918
845.982
834.47
818.436
818.212
805.658
413.866
25.633
1.30477
1.02077
1.05218
1.05709
1.05991
1.07048
889.065
931.988
909.531
883.146
875.197
873.242
876.75
886.551
894.738
900.387
903.329
904.866
905.131
905.131
905.372
906.106
906.381
905.187
897.729
888.615
877.189
857.586
852.078
866.147
889.79
901.063
901.095
902.236
902.236
903.152
903.015
903.49
903.03
898.527
902.165
919
929.714
929.209
906.976
877.866
869
873.282
876.235
876.235
875.401
875.67
876.82
876.85
876.898
876.926
876.931
876.886
868.007
852.57
833.242
807.254
803.009
809.171
850.216
907.579
935.804
936.004
936.004
936.004
932.36
925.816
847.212
351.741
31.3126
1.27536
0.993667
0.993857
0.995379
0.999052
1.01379
)
;
    }
    defaultFaces
    {
        type            empty;
    }
}


// ************************************************************************* //
