/*--------------------------------*- C++ -*----------------------------------*\
| =========                 |                                                 |
| \\      /  F ield         | OpenFOAM: The Open Source CFD Toolbox           |
|  \\    /   O peration     | Version:  2.3.0                                 |
|   \\  /    A nd           | Web:      www.OpenFOAM.org                      |
|    \\/     M anipulation  |                                                 |
\*---------------------------------------------------------------------------*/
FoamFile
{
    version     2.0;
    format      ascii;
    class       volVectorField;
    location    "25";
    object      U.waterMean;
}
// * * * * * * * * * * * * * * * * * * * * * * * * * * * * * * * * * * * * * //

dimensions      [0 1 -1 0 0 0 0];

internalField   nonuniform List<vector> 
1875
(
(0.0934191 -0.275271 0)
(0.157312 -0.263473 0)
(0.250726 -0.226137 0)
(0.311227 -0.188781 0)
(0.340905 -0.154016 0)
(0.345561 -0.125286 0)
(0.329673 -0.103865 0)
(0.296476 -0.0827224 0)
(0.250871 -0.0681269 0)
(0.193248 -0.0575612 0)
(0.130543 -0.0485366 0)
(0.0663624 -0.0492506 0)
(-0.000234362 -0.0534059 0)
(-0.0641221 -0.0599575 0)
(-0.124404 -0.06947 0)
(-0.179978 -0.0784337 0)
(-0.227294 -0.0894884 0)
(-0.265371 -0.103571 0)
(-0.291656 -0.116917 0)
(-0.304565 -0.132744 0)
(-0.300259 -0.152773 0)
(-0.276135 -0.179136 0)
(-0.2249 -0.212945 0)
(-0.143587 -0.253849 0)
(-0.0887489 -0.272704 0)
(0.0451133 -0.376669 0)
(0.100003 -0.285975 0)
(0.147449 -0.154271 0)
(0.174494 -0.0480905 0)
(0.18309 0.037811 0)
(0.180869 0.108913 0)
(0.168937 0.15957 0)
(0.14806 0.1953 0)
(0.123928 0.220604 0)
(0.0957482 0.235514 0)
(0.0657765 0.243413 0)
(0.0355935 0.2503 0)
(0.00294781 0.254975 0)
(-0.0287198 0.251623 0)
(-0.0587047 0.245676 0)
(-0.0858102 0.234627 0)
(-0.108112 0.2182 0)
(-0.127147 0.193864 0)
(-0.142137 0.157462 0)
(-0.152088 0.108012 0)
(-0.15341 0.0423762 0)
(-0.147989 -0.0301413 0)
(-0.125657 -0.125574 0)
(-0.085866 -0.252931 0)
(-0.039732 -0.346159 0)
(0.0157344 -0.51384 0)
(0.0254596 -0.375413 0)
(0.0237765 -0.243946 0)
(0.0233674 -0.136375 0)
(0.0224841 -0.047632 0)
(0.0233798 0.0248754 0)
(0.0242705 0.0870415 0)
(0.0218895 0.130942 0)
(0.0193602 0.156144 0)
(0.0171914 0.175918 0)
(0.0133665 0.190737 0)
(0.00734124 0.195948 0)
(0.00127479 0.197105 0)
(-0.00509137 0.187569 0)
(-0.0111657 0.170926 0)
(-0.0128527 0.146632 0)
(-0.01523 0.118523 0)
(-0.0144639 0.088316 0)
(-0.015392 0.0489179 0)
(-0.0132791 -0.00166436 0)
(-0.0107671 -0.0592949 0)
(-0.0148796 -0.120075 0)
(-0.0176375 -0.198432 0)
(-0.0239052 -0.322037 0)
(-0.0154565 -0.468614 0)
(-0.00100505 -0.514294 0)
(-0.0097056 -0.341062 0)
(-0.0222776 -0.207758 0)
(-0.0285368 -0.100813 0)
(-0.0293911 -0.0115173 0)
(-0.0264486 0.063164 0)
(-0.0197568 0.122042 0)
(-0.0150368 0.163854 0)
(-0.00954638 0.190266 0)
(-0.00351027 0.211283 0)
(0.00184648 0.227947 0)
(0.00692564 0.242074 0)
(0.0100761 0.249508 0)
(0.0127648 0.242297 0)
(0.0158132 0.226761 0)
(0.0187466 0.206874 0)
(0.0219073 0.182193 0)
(0.0252044 0.147582 0)
(0.0289476 0.105262 0)
(0.0319125 0.0489864 0)
(0.0328767 -0.015466 0)
(0.0279628 -0.0835442 0)
(0.020456 -0.165239 0)
(0.00747223 -0.289805 0)
(-0.000918162 -0.476858 0)
(-0.003967 -0.510245 0)
(-0.0141726 -0.340807 0)
(-0.0289312 -0.206775 0)
(-0.0446654 -0.107791 0)
(-0.0532169 -0.0318384 0)
(-0.0546068 0.0341814 0)
(-0.0496595 0.0909637 0)
(-0.0437102 0.129538 0)
(-0.0370723 0.155345 0)
(-0.0295658 0.174796 0)
(-0.0202339 0.190041 0)
(-0.0105436 0.208568 0)
(-0.00117007 0.217146 0)
(0.0103361 0.212234 0)
(0.022146 0.195052 0)
(0.0332394 0.173073 0)
(0.0445038 0.142464 0)
(0.0552746 0.110683 0)
(0.062523 0.072383 0)
(0.0651073 0.0262994 0)
(0.0608747 -0.0291501 0)
(0.0504447 -0.0854885 0)
(0.0318364 -0.161852 0)
(0.0135007 -0.290203 0)
(0.00136076 -0.479971 0)
(-0.000905944 -0.497822 0)
(-0.0106011 -0.3122 0)
(-0.0213226 -0.15967 0)
(-0.040309 -0.055373 0)
(-0.0554833 0.00833076 0)
(-0.0656187 0.0573182 0)
(-0.0667988 0.0986955 0)
(-0.0652059 0.13417 0)
(-0.0604074 0.155343 0)
(-0.0529212 0.169074 0)
(-0.0434595 0.181388 0)
(-0.0303031 0.195162 0)
(-0.0143041 0.201129 0)
(0.00409173 0.192742 0)
(0.0225478 0.179856 0)
(0.0394706 0.160766 0)
(0.0538329 0.139995 0)
(0.065555 0.116208 0)
(0.0719034 0.0892036 0)
(0.0721622 0.0570013 0)
(0.063616 0.0192389 0)
(0.0474198 -0.0265233 0)
(0.024907 -0.10701 0)
(0.00936643 -0.253965 0)
(-0.000957341 -0.468037 0)
(-0.00271446 -0.493366 0)
(-0.00683042 -0.311301 0)
(-0.0144251 -0.149354 0)
(-0.0282591 -0.0311239 0)
(-0.0477209 0.0333953 0)
(-0.0609171 0.0742753 0)
(-0.0689312 0.105121 0)
(-0.0718266 0.127399 0)
(-0.0699666 0.13863 0)
(-0.0642777 0.144946 0)
(-0.0550801 0.148534 0)
(-0.0412654 0.150282 0)
(-0.0221013 0.146661 0)
(-0.00142643 0.137818 0)
(0.0180899 0.128544 0)
(0.0353299 0.117527 0)
(0.0497389 0.103626 0)
(0.0591208 0.0920813 0)
(0.0633569 0.0784977 0)
(0.0602353 0.0622096 0)
(0.0481578 0.0370747 0)
(0.0286093 -0.00177108 0)
(0.0113223 -0.096837 0)
(0.0014535 -0.256177 0)
(-0.0021257 -0.472922 0)
(0.000119204 -0.485672 0)
(-0.00350619 -0.297185 0)
(-0.00781778 -0.125764 0)
(-0.0156537 0.0100256 0)
(-0.0345306 0.0795989 0)
(-0.0496098 0.110437 0)
(-0.0621574 0.129284 0)
(-0.0667696 0.141769 0)
(-0.0671709 0.143379 0)
(-0.0612029 0.137795 0)
(-0.051149 0.129736 0)
(-0.037885 0.120038 0)
(-0.0190688 0.11046 0)
(0.000474763 0.10194 0)
(0.0185136 0.0965451 0)
(0.0337554 0.0927491 0)
(0.0456682 0.0920136 0)
(0.051182 0.0928266 0)
(0.0510683 0.0936721 0)
(0.0437053 0.0950862 0)
(0.0285232 0.0888835 0)
(0.0100079 0.0465993 0)
(-0.00461469 -0.0676961 0)
(-0.0044375 -0.254242 0)
(-0.00605127 -0.479608 0)
(0.000101891 -0.48749 0)
(-0.000201685 -0.29827 0)
(-0.00201893 -0.126201 0)
(-0.00229767 0.0222501 0)
(-0.0140712 0.109454 0)
(-0.0297917 0.141727 0)
(-0.0434057 0.152269 0)
(-0.0500286 0.146756 0)
(-0.0517741 0.132919 0)
(-0.0478019 0.116744 0)
(-0.0398315 0.101811 0)
(-0.0268575 0.0830441 0)
(-0.0109703 0.0671855 0)
(0.00523525 0.0589479 0)
(0.0188956 0.058351 0)
(0.0286277 0.063794 0)
(0.0342228 0.0746069 0)
(0.0360089 0.0901781 0)
(0.0310549 0.107343 0)
(0.0205918 0.122965 0)
(0.00596317 0.119782 0)
(-0.00703282 0.0672579 0)
(-0.0117537 -0.0708273 0)
(-0.00788661 -0.268075 0)
(-0.00518905 -0.497547 0)
(0.00236824 -0.491496 0)
(0.00542671 -0.298759 0)
(0.00650776 -0.12581 0)
(0.010466 0.0300922 0)
(0.00802702 0.136459 0)
(-0.00403515 0.17674 0)
(-0.0147934 0.178901 0)
(-0.0229207 0.164711 0)
(-0.0274467 0.142064 0)
(-0.0281165 0.115603 0)
(-0.024876 0.0871804 0)
(-0.0168983 0.0600592 0)
(-0.00862664 0.0440159 0)
(0.00179694 0.0419078 0)
(0.0104056 0.048665 0)
(0.0189248 0.0600006 0)
(0.0210148 0.0788864 0)
(0.0183914 0.105014 0)
(0.00912973 0.133057 0)
(-0.00314838 0.154929 0)
(-0.015094 0.149785 0)
(-0.0231833 0.0795962 0)
(-0.0175868 -0.0775538 0)
(-0.0117266 -0.279255 0)
(-0.00436046 -0.515655 0)
(0.00388342 -0.508443 0)
(0.00896992 -0.314555 0)
(0.0139224 -0.140113 0)
(0.0210067 0.0190748 0)
(0.0244489 0.138893 0)
(0.0215654 0.191883 0)
(0.0128909 0.196342 0)
(0.0057047 0.176925 0)
(0.000184787 0.1476 0)
(-0.00382969 0.113675 0)
(-0.00391549 0.0802163 0)
(-0.00419304 0.0525195 0)
(-0.00259439 0.026799 0)
(0.00416283 0.0166466 0)
(0.00892348 0.0228999 0)
(0.0144499 0.0472752 0)
(0.0129181 0.0814821 0)
(0.00638295 0.122055 0)
(-0.00471963 0.15929 0)
(-0.0177878 0.185648 0)
(-0.0291256 0.167706 0)
(-0.0302753 0.0711563 0)
(-0.0197855 -0.102739 0)
(-0.0120734 -0.304649 0)
(-0.00219787 -0.538398 0)
(0.00416538 -0.52445 0)
(0.00988896 -0.329223 0)
(0.0157052 -0.153334 0)
(0.0256773 0.00709717 0)
(0.0322404 0.133842 0)
(0.0355957 0.199934 0)
(0.0325222 0.212327 0)
(0.0261681 0.192245 0)
(0.0220792 0.162408 0)
(0.0179278 0.125197 0)
(0.0158969 0.0882205 0)
(0.0157327 0.0567319 0)
(0.0153807 0.0308544 0)
(0.014597 0.0175627 0)
(0.0116664 0.0261942 0)
(0.00985843 0.0525087 0)
(0.00586192 0.0969435 0)
(0.000138634 0.149035 0)
(-0.012632 0.19534 0)
(-0.0240667 0.216633 0)
(-0.0323096 0.180758 0)
(-0.0262697 0.0568395 0)
(-0.0155918 -0.120961 0)
(-0.00698755 -0.325411 0)
(-0.00154542 -0.552293 0)
(0.00383093 -0.54264 0)
(0.00859274 -0.344788 0)
(0.0136635 -0.172187 0)
(0.0226612 -0.0151434 0)
(0.0327514 0.118096 0)
(0.0386954 0.194097 0)
(0.0415767 0.216564 0)
(0.0381716 0.199405 0)
(0.0346776 0.164229 0)
(0.0329443 0.123089 0)
(0.0313062 0.0883927 0)
(0.0301199 0.0600618 0)
(0.0305603 0.0355571 0)
(0.0264629 0.0297082 0)
(0.0181769 0.0398197 0)
(0.0107664 0.0652019 0)
(0.00259852 0.107899 0)
(-0.00479561 0.163302 0)
(-0.0130236 0.217251 0)
(-0.0214291 0.232555 0)
(-0.022426 0.177697 0)
(-0.0117282 0.037231 0)
(-0.0039609 -0.139619 0)
(6.41862e-05 -0.340714 0)
(-0.000104564 -0.559809 0)
(0.00306756 -0.557746 0)
(0.00745511 -0.356167 0)
(0.0114321 -0.185594 0)
(0.0184725 -0.0339018 0)
(0.0296295 0.096419 0)
(0.0387853 0.182725 0)
(0.0445383 0.211613 0)
(0.0472035 0.204475 0)
(0.0460077 0.171883 0)
(0.0438822 0.132151 0)
(0.0418838 0.0941879 0)
(0.0412522 0.0630643 0)
(0.040209 0.046544 0)
(0.0357886 0.0523755 0)
(0.0269431 0.0651123 0)
(0.0183611 0.0887755 0)
(0.00597726 0.126307 0)
(-0.00455934 0.181506 0)
(-0.0123771 0.235533 0)
(-0.0152036 0.237637 0)
(-0.00891152 0.163478 0)
(0.000985084 0.0205802 0)
(0.00422712 -0.14676 0)
(0.00327986 -0.340874 0)
(0.000139632 -0.561031 0)
(0.00194458 -0.570009 0)
(0.00464975 -0.366702 0)
(0.00760203 -0.198247 0)
(0.0122496 -0.0510982 0)
(0.0198982 0.071484 0)
(0.0308233 0.162474 0)
(0.0385983 0.198151 0)
(0.0446184 0.194643 0)
(0.047665 0.171732 0)
(0.050822 0.13172 0)
(0.0505148 0.0975659 0)
(0.048916 0.0670187 0)
(0.0470727 0.0513045 0)
(0.0434602 0.0623185 0)
(0.0355537 0.0827576 0)
(0.025963 0.114372 0)
(0.0113349 0.154594 0)
(0.000582407 0.204695 0)
(-0.00721879 0.24298 0)
(-0.00546593 0.23188 0)
(0.00274006 0.149933 0)
(0.00972815 0.00952598 0)
(0.00755917 -0.147244 0)
(0.00478273 -0.338486 0)
(0.000941828 -0.561807 0)
(0.000410381 -0.57524 0)
(0.000769801 -0.369791 0)
(0.000374512 -0.201898 0)
(0.00186462 -0.0569439 0)
(0.00621824 0.0586663 0)
(0.0146145 0.140903 0)
(0.0250887 0.181544 0)
(0.0332851 0.180612 0)
(0.041021 0.158153 0)
(0.0481961 0.12845 0)
(0.0485476 0.103899 0)
(0.0473979 0.0765806 0)
(0.044104 0.063342 0)
(0.03908 0.0787447 0)
(0.0317965 0.109455 0)
(0.0228449 0.144118 0)
(0.0134212 0.180966 0)
(0.00635589 0.221862 0)
(0.0025689 0.247908 0)
(0.00621 0.221656 0)
(0.0144361 0.134465 0)
(0.016798 0.0105011 0)
(0.0108386 -0.139368 0)
(0.00710109 -0.331082 0)
(0.00213851 -0.55619 0)
(-0.000513289 -0.576211 0)
(-0.00197472 -0.369124 0)
(-0.00514003 -0.197323 0)
(-0.00720043 -0.0577665 0)
(-0.00535239 0.0480823 0)
(-0.000680236 0.121513 0)
(0.0105681 0.157555 0)
(0.019593 0.155298 0)
(0.0266711 0.134095 0)
(0.0323578 0.115992 0)
(0.0356069 0.0993994 0)
(0.0374655 0.0796105 0)
(0.0377866 0.0734232 0)
(0.0321634 0.0906049 0)
(0.0270323 0.120349 0)
(0.0206608 0.156675 0)
(0.0140289 0.191628 0)
(0.00999035 0.230622 0)
(0.00976636 0.245791 0)
(0.016164 0.208742 0)
(0.0201967 0.129279 0)
(0.0184067 0.0194101 0)
(0.0144487 -0.129358 0)
(0.00921696 -0.321286 0)
(0.00235627 -0.548017 0)
(-0.000991354 -0.574151 0)
(-0.00288604 -0.365767 0)
(-0.0057635 -0.190616 0)
(-0.00867139 -0.0537674 0)
(-0.0086792 0.0449156 0)
(-0.00484609 0.107402 0)
(0.00377139 0.136759 0)
(0.00970486 0.137813 0)
(0.0136837 0.121413 0)
(0.0149531 0.10412 0)
(0.0191156 0.0909725 0)
(0.0200865 0.0775954 0)
(0.021362 0.0764729 0)
(0.0186573 0.101 0)
(0.0143786 0.134613 0)
(0.00904355 0.171303 0)
(0.00489633 0.203552 0)
(0.00385 0.22797 0)
(0.0090218 0.233117 0)
(0.0148621 0.201146 0)
(0.0180316 0.129543 0)
(0.0166685 0.0256439 0)
(0.0151694 -0.120127 0)
(0.0087226 -0.306682 0)
(0.00164243 -0.537064 0)
(-0.000673552 -0.571757 0)
(-0.00312593 -0.36383 0)
(-0.00477291 -0.189036 0)
(-0.00422582 -0.051488 0)
(-0.00393552 0.0410186 0)
(-0.00106736 0.0973724 0)
(0.00327039 0.124354 0)
(0.00639571 0.127648 0)
(0.00711593 0.115051 0)
(0.0059851 0.0990535 0)
(0.00521354 0.0858428 0)
(0.00195376 0.0773014 0)
(-0.00192579 0.0795997 0)
(-0.00704544 0.107183 0)
(-0.00951896 0.144193 0)
(-0.0116972 0.174986 0)
(-0.00976188 0.203526 0)
(-0.00510977 0.219392 0)
(5.66131e-05 0.219391 0)
(0.00591643 0.19239 0)
(0.0111435 0.127975 0)
(0.0116528 0.0295095 0)
(0.0118043 -0.112092 0)
(0.00614501 -0.294188 0)
(-9.50315e-05 -0.530437 0)
(-0.00117356 -0.568856 0)
(-0.00453556 -0.360103 0)
(-0.00614814 -0.188544 0)
(-0.00533246 -0.0570291 0)
(-0.0027355 0.0351711 0)
(0.00106415 0.0921233 0)
(0.00455796 0.12148 0)
(0.00606365 0.128239 0)
(0.00497679 0.122565 0)
(-0.00013498 0.109825 0)
(-0.00682171 0.103164 0)
(-0.016934 0.0994288 0)
(-0.0258461 0.0983474 0)
(-0.0320029 0.114809 0)
(-0.032602 0.145304 0)
(-0.0313392 0.171935 0)
(-0.0266567 0.190645 0)
(-0.0189219 0.202769 0)
(-0.0142819 0.206924 0)
(-0.00616572 0.176746 0)
(0.000696807 0.117018 0)
(0.0044775 0.0252471 0)
(0.00549143 -0.108045 0)
(0.00231828 -0.28787 0)
(-0.000741793 -0.529494 0)
(-0.00172762 -0.562485 0)
(-0.00686412 -0.353599 0)
(-0.00955621 -0.186369 0)
(-0.00962985 -0.0609128 0)
(-0.00744506 0.0262369 0)
(-0.00347894 0.0805684 0)
(0.00114309 0.114299 0)
(0.000568905 0.127712 0)
(-0.00198153 0.130553 0)
(-0.008548 0.129629 0)
(-0.0178667 0.127719 0)
(-0.0266503 0.1236 0)
(-0.033841 0.117697 0)
(-0.0398059 0.125452 0)
(-0.042108 0.143693 0)
(-0.0402906 0.162766 0)
(-0.0348896 0.175366 0)
(-0.0293371 0.189794 0)
(-0.0223287 0.189122 0)
(-0.0126852 0.159932 0)
(-0.00556509 0.103452 0)
(-0.00174352 0.0185809 0)
(-0.000259896 -0.105683 0)
(0.000374296 -0.286073 0)
(-0.00140034 -0.531487 0)
(-0.00231676 -0.553009 0)
(-0.00874491 -0.34267 0)
(-0.0137874 -0.181382 0)
(-0.0143597 -0.061443 0)
(-0.0142332 0.0203023 0)
(-0.0110848 0.0723904 0)
(-0.00932338 0.112229 0)
(-0.0100272 0.131527 0)
(-0.0136476 0.141573 0)
(-0.0178996 0.144195 0)
(-0.0223478 0.143383 0)
(-0.0275572 0.140029 0)
(-0.031801 0.13363 0)
(-0.0347993 0.138725 0)
(-0.0365269 0.148318 0)
(-0.0349708 0.157619 0)
(-0.0323403 0.167058 0)
(-0.0285391 0.177461 0)
(-0.0208133 0.1715 0)
(-0.0122098 0.144288 0)
(-0.00689465 0.0947951 0)
(-0.00376179 0.0139753 0)
(-0.00151404 -0.110031 0)
(0.000101851 -0.288925 0)
(-0.000664653 -0.535236 0)
(-0.00278691 -0.540446 0)
(-0.00997429 -0.327596 0)
(-0.0174023 -0.172058 0)
(-0.0201189 -0.057108 0)
(-0.0210871 0.0220892 0)
(-0.0194261 0.075782 0)
(-0.0188793 0.116941 0)
(-0.0179386 0.139337 0)
(-0.0182406 0.146372 0)
(-0.018902 0.14676 0)
(-0.0201182 0.14954 0)
(-0.0229244 0.147198 0)
(-0.0246226 0.138836 0)
(-0.0256064 0.141961 0)
(-0.0252737 0.148875 0)
(-0.0237408 0.157403 0)
(-0.0225106 0.164186 0)
(-0.020057 0.166391 0)
(-0.0136326 0.156745 0)
(-0.00753924 0.130463 0)
(-0.00318574 0.0882087 0)
(-0.00116882 0.010711 0)
(0.00212051 -0.116069 0)
(0.00195013 -0.290425 0)
(0.00102465 -0.536984 0)
(-0.00197992 -0.529747 0)
(-0.00739902 -0.314568 0)
(-0.0151302 -0.160031 0)
(-0.0198504 -0.0533291 0)
(-0.021179 0.01878 0)
(-0.0201581 0.0716942 0)
(-0.0178321 0.110757 0)
(-0.0142928 0.131288 0)
(-0.0111615 0.141624 0)
(-0.0112406 0.146049 0)
(-0.0120701 0.151673 0)
(-0.0143707 0.150387 0)
(-0.0147691 0.1436 0)
(-0.0153254 0.144565 0)
(-0.0147781 0.14896 0)
(-0.0141649 0.155697 0)
(-0.012416 0.159864 0)
(-0.0106927 0.156791 0)
(-0.00654453 0.144813 0)
(-0.00260272 0.119701 0)
(0.000725182 0.0808968 0)
(0.00327111 0.00493249 0)
(0.00670139 -0.121202 0)
(0.00387365 -0.289325 0)
(0.00222749 -0.533843 0)
(-0.00127532 -0.521648 0)
(-0.00526306 -0.304552 0)
(-0.0088742 -0.14677 0)
(-0.0135912 -0.0457019 0)
(-0.0154878 0.0193132 0)
(-0.0156864 0.0692097 0)
(-0.0133491 0.103037 0)
(-0.00982705 0.124306 0)
(-0.0073674 0.135728 0)
(-0.00813879 0.145469 0)
(-0.00833305 0.15354 0)
(-0.00806527 0.152395 0)
(-0.00562596 0.143508 0)
(-0.00541069 0.145702 0)
(-0.00506473 0.149862 0)
(-0.00565863 0.15377 0)
(-0.00483963 0.156201 0)
(-0.00339789 0.151568 0)
(-0.000513869 0.137487 0)
(0.00176956 0.112295 0)
(0.00544783 0.0730691 0)
(0.00764615 -0.000608527 0)
(0.00961863 -0.120931 0)
(0.00542552 -0.283363 0)
(0.00302263 -0.527276 0)
(-0.000561245 -0.517678 0)
(-0.00234038 -0.30174 0)
(-0.00289371 -0.144247 0)
(-0.00364469 -0.0408719 0)
(-0.00605749 0.0216267 0)
(-0.00772689 0.0677421 0)
(-0.00653081 0.097121 0)
(-0.00460321 0.118678 0)
(-0.00348962 0.135699 0)
(-0.00365516 0.144796 0)
(-0.00213009 0.148486 0)
(0.000304265 0.1465 0)
(0.00381492 0.14048 0)
(0.00452645 0.145525 0)
(0.00508538 0.152869 0)
(0.00342394 0.158629 0)
(0.00242723 0.15748 0)
(0.00351714 0.148355 0)
(0.00417374 0.132754 0)
(0.00633218 0.108927 0)
(0.00803672 0.0680209 0)
(0.00963618 -0.00472322 0)
(0.00878732 -0.1191 0)
(0.00525793 -0.278373 0)
(0.00301816 -0.519739 0)
(-0.000132439 -0.516079 0)
(-0.000856285 -0.301111 0)
(-0.00054172 -0.144892 0)
(0.00138719 -0.0399402 0)
(0.00181156 0.0254322 0)
(0.00120773 0.0690961 0)
(0.00229828 0.0963458 0)
(0.00348758 0.116831 0)
(0.00486445 0.133301 0)
(0.00610409 0.141141 0)
(0.0078341 0.143944 0)
(0.00966303 0.142746 0)
(0.0120794 0.138646 0)
(0.0125548 0.14611 0)
(0.0117895 0.156592 0)
(0.0103967 0.163811 0)
(0.00853522 0.15968 0)
(0.00657395 0.149754 0)
(0.00419566 0.131779 0)
(0.00500429 0.105498 0)
(0.00569281 0.0675269 0)
(0.00777322 -0.00783823 0)
(0.00622939 -0.11336 0)
(0.00428133 -0.273595 0)
(0.00310511 -0.512158 0)
(2.34419e-05 -0.516094 0)
(-0.000803281 -0.30245 0)
(1.3127e-05 -0.148315 0)
(0.0028994 -0.0469325 0)
(0.00617738 0.020719 0)
(0.00860841 0.0653857 0)
(0.0105301 0.0926415 0)
(0.0123161 0.113224 0)
(0.0148441 0.131412 0)
(0.0163028 0.140055 0)
(0.0178336 0.14261 0)
(0.0190001 0.140996 0)
(0.0195229 0.138707 0)
(0.0178449 0.148373 0)
(0.0138919 0.160737 0)
(0.0114496 0.168835 0)
(0.00856009 0.1672 0)
(0.005491 0.156484 0)
(0.00180704 0.134221 0)
(-0.000411073 0.104344 0)
(0.000368786 0.0622482 0)
(0.0024184 -0.0110523 0)
(0.00233357 -0.113321 0)
(0.00380367 -0.274153 0)
(0.00247966 -0.506522 0)
(-0.000353415 -0.515504 0)
(-0.00149823 -0.303102 0)
(-0.000833685 -0.153398 0)
(0.00279406 -0.0553561 0)
(0.00634205 0.0125059 0)
(0.0106913 0.0577186 0)
(0.0140016 0.0876568 0)
(0.016347 0.108715 0)
(0.0187859 0.126129 0)
(0.0223024 0.134675 0)
(0.0237774 0.139918 0)
(0.0248398 0.141759 0)
(0.023294 0.146349 0)
(0.0193601 0.161484 0)
(0.0135668 0.173045 0)
(0.00960855 0.176632 0)
(0.00608788 0.173768 0)
(0.00321665 0.161943 0)
(-0.000614642 0.141701 0)
(-0.00386646 0.108827 0)
(-0.00364219 0.0594988 0)
(-0.00115884 -0.0147273 0)
(0.0006902 -0.116805 0)
(0.00371188 -0.276845 0)
(0.00237486 -0.501276 0)
(-0.000817406 -0.513998 0)
(-0.00242351 -0.302509 0)
(-0.00261575 -0.158637 0)
(0.00131783 -0.0642156 0)
(0.00550851 0.00254682 0)
(0.0101609 0.0470916 0)
(0.0152157 0.0793515 0)
(0.0187937 0.101173 0)
(0.0227432 0.117254 0)
(0.0253789 0.128548 0)
(0.0264813 0.13757 0)
(0.0258992 0.144189 0)
(0.0230411 0.155168 0)
(0.0186761 0.172992 0)
(0.0135176 0.186433 0)
(0.00843053 0.189468 0)
(0.00393357 0.182761 0)
(0.000299159 0.169847 0)
(-0.00265588 0.148066 0)
(-0.003615 0.111506 0)
(-0.00235017 0.0567746 0)
(-0.000259038 -0.0212439 0)
(0.00273907 -0.124449 0)
(0.00435176 -0.27809 0)
(0.00272555 -0.495904 0)
(-0.00140374 -0.511067 0)
(-0.00341453 -0.300569 0)
(-0.00494947 -0.16328 0)
(-0.00228475 -0.0743368 0)
(0.00214106 -0.00726271 0)
(0.00685831 0.0350739 0)
(0.0123294 0.0677385 0)
(0.0160974 0.091543 0)
(0.0199482 0.111412 0)
(0.0212581 0.127545 0)
(0.0219432 0.140856 0)
(0.0196665 0.153653 0)
(0.015785 0.167572 0)
(0.0108245 0.188417 0)
(0.00583546 0.2016 0)
(0.00211029 0.201446 0)
(-0.000297319 0.193389 0)
(-0.00281986 0.176571 0)
(-0.00279261 0.151221 0)
(-0.00113551 0.110804 0)
(0.0013496 0.0541154 0)
(0.00368557 -0.0246329 0)
(0.00615568 -0.129435 0)
(0.00541748 -0.276297 0)
(0.00280933 -0.489355 0)
(-0.0020068 -0.50607 0)
(-0.00517096 -0.295952 0)
(-0.00791537 -0.161593 0)
(-0.00866729 -0.0804007 0)
(-0.00591718 -0.0177247 0)
(-0.00217629 0.0228793 0)
(0.000788249 0.0562511 0)
(0.00342783 0.0825484 0)
(0.00572139 0.105527 0)
(0.00700863 0.125699 0)
(0.007661 0.144194 0)
(0.00604751 0.161445 0)
(0.00386947 0.178962 0)
(0.00115165 0.200242 0)
(-0.000823442 0.210514 0)
(-0.00209047 0.207803 0)
(-0.00290342 0.197159 0)
(-0.00277792 0.177491 0)
(-0.000526 0.146498 0)
(0.00245635 0.105757 0)
(0.00515169 0.0486912 0)
(0.00761702 -0.0306508 0)
(0.00799381 -0.130623 0)
(0.00623587 -0.272858 0)
(0.00254303 -0.481047 0)
(-0.00263242 -0.497983 0)
(-0.00745771 -0.288667 0)
(-0.011276 -0.155425 0)
(-0.0142924 -0.0774637 0)
(-0.0158579 -0.0208342 0)
(-0.0156448 0.02062 0)
(-0.0153539 0.0535807 0)
(-0.0149306 0.0790142 0)
(-0.0137817 0.102563 0)
(-0.0112927 0.123798 0)
(-0.00847462 0.144436 0)
(-0.00713152 0.164308 0)
(-0.00678985 0.182212 0)
(-0.00675561 0.203783 0)
(-0.00620923 0.211976 0)
(-0.00479332 0.207758 0)
(-0.00310602 0.19569 0)
(-0.000702709 0.17483 0)
(0.0021834 0.141652 0)
(0.00572611 0.0981713 0)
(0.00870155 0.0439034 0)
(0.010312 -0.0325015 0)
(0.0089112 -0.129232 0)
(0.0062191 -0.267226 0)
(0.00202096 -0.472827 0)
(-0.00267393 -0.488321 0)
(-0.00829822 -0.279418 0)
(-0.0132761 -0.147657 0)
(-0.0172343 -0.0699954 0)
(-0.0204591 -0.0160258 0)
(-0.0218492 0.0213715 0)
(-0.0230405 0.0521908 0)
(-0.0247205 0.0775265 0)
(-0.0255089 0.0975751 0)
(-0.0250916 0.115094 0)
(-0.0222962 0.136626 0)
(-0.0195189 0.15909 0)
(-0.0166915 0.180109 0)
(-0.0141757 0.202696 0)
(-0.0113437 0.209928 0)
(-0.00790866 0.20355 0)
(-0.00455599 0.189413 0)
(-0.000293932 0.168175 0)
(0.00371522 0.135447 0)
(0.00786617 0.0924154 0)
(0.00956469 0.0388159 0)
(0.0109115 -0.0321143 0)
(0.00778996 -0.125065 0)
(0.00532139 -0.261163 0)
(0.00145027 -0.466214 0)
(-0.00290303 -0.476591 0)
(-0.00905408 -0.266565 0)
(-0.0144743 -0.136163 0)
(-0.0187279 -0.0606759 0)
(-0.0222455 -0.00991225 0)
(-0.0238383 0.0266467 0)
(-0.025148 0.0589717 0)
(-0.0275923 0.0856382 0)
(-0.0287246 0.104082 0)
(-0.0298379 0.117193 0)
(-0.0294481 0.133196 0)
(-0.027277 0.153487 0)
(-0.0242877 0.172198 0)
(-0.0207657 0.195762 0)
(-0.0164506 0.200808 0)
(-0.0110898 0.1948 0)
(-0.00740032 0.18187 0)
(-0.00202876 0.158415 0)
(0.00231299 0.125306 0)
(0.00790675 0.0832099 0)
(0.00881069 0.0359412 0)
(0.00983272 -0.0318291 0)
(0.00660209 -0.121069 0)
(0.00477072 -0.258021 0)
(0.0016526 -0.461415 0)
(-0.00231246 -0.465584 0)
(-0.00811283 -0.255027 0)
(-0.01239 -0.127314 0)
(-0.0157032 -0.0528385 0)
(-0.019558 -0.00566154 0)
(-0.0206486 0.0286002 0)
(-0.0214286 0.061324 0)
(-0.0222412 0.0870822 0)
(-0.022542 0.104852 0)
(-0.0247877 0.11829 0)
(-0.027304 0.132784 0)
(-0.0287709 0.15002 0)
(-0.0270522 0.165852 0)
(-0.0229144 0.188974 0)
(-0.0180164 0.192778 0)
(-0.0121256 0.185979 0)
(-0.00691416 0.171595 0)
(-0.00106848 0.147227 0)
(0.00380906 0.116047 0)
(0.00793593 0.0776551 0)
(0.00911821 0.0342021 0)
(0.00970525 -0.0296121 0)
(0.00737545 -0.116325 0)
(0.00563446 -0.253374 0)
(0.0022564 -0.454681 0)
(-0.00149236 -0.456852 0)
(-0.00666287 -0.246811 0)
(-0.00923648 -0.121761 0)
(-0.0109345 -0.0462247 0)
(-0.0152014 -0.000508414 0)
(-0.0170454 0.0297367 0)
(-0.0180069 0.0610862 0)
(-0.0179103 0.0873079 0)
(-0.0186691 0.110313 0)
(-0.0218705 0.128167 0)
(-0.0259996 0.1429 0)
(-0.0296551 0.154496 0)
(-0.0288891 0.160361 0)
(-0.0249166 0.176613 0)
(-0.0195269 0.178644 0)
(-0.0138153 0.170126 0)
(-0.00750783 0.157659 0)
(-0.00166189 0.135705 0)
(0.0029084 0.106708 0)
(0.00679746 0.0713051 0)
(0.0083041 0.0322456 0)
(0.00844222 -0.0287357 0)
(0.00827836 -0.114313 0)
(0.00615986 -0.247566 0)
(0.00275368 -0.447376 0)
(-0.00104574 -0.450077 0)
(-0.00565161 -0.238906 0)
(-0.00810146 -0.120155 0)
(-0.00753304 -0.0402033 0)
(-0.012501 0.0067163 0)
(-0.0164002 0.0349431 0)
(-0.0200071 0.0630997 0)
(-0.0210173 0.0881834 0)
(-0.0220547 0.113292 0)
(-0.0236517 0.136566 0)
(-0.0253861 0.151915 0)
(-0.0268803 0.159861 0)
(-0.0258291 0.157761 0)
(-0.0222933 0.168915 0)
(-0.0176333 0.169698 0)
(-0.0133876 0.159832 0)
(-0.00829214 0.144954 0)
(-0.00308638 0.123635 0)
(0.00115354 0.0975884 0)
(0.00407696 0.0656576 0)
(0.00558164 0.0300461 0)
(0.0058951 -0.0304965 0)
(0.00815574 -0.114253 0)
(0.00584806 -0.241212 0)
(0.00312853 -0.438968 0)
(-0.00138487 -0.444983 0)
(-0.00480248 -0.231864 0)
(-0.00808552 -0.11989 0)
(-0.00674925 -0.0374056 0)
(-0.0102413 0.0159559 0)
(-0.013913 0.0444044 0)
(-0.0180559 0.0698183 0)
(-0.0209128 0.0909419 0)
(-0.0233371 0.116428 0)
(-0.0242814 0.137721 0)
(-0.0236936 0.152126 0)
(-0.0234794 0.158179 0)
(-0.0214323 0.152782 0)
(-0.017687 0.16083 0)
(-0.012032 0.16173 0)
(-0.00824141 0.152431 0)
(-0.00487167 0.136119 0)
(-0.00209645 0.116127 0)
(0.000464283 0.0923333 0)
(0.00181783 0.0633751 0)
(0.00330491 0.0276648 0)
(0.00524449 -0.0345696 0)
(0.00818648 -0.116472 0)
(0.00536781 -0.236395 0)
(0.00308447 -0.431404 0)
(-0.00206971 -0.438876 0)
(-0.00497727 -0.224942 0)
(-0.00860761 -0.116326 0)
(-0.00810285 -0.0364877 0)
(-0.00824203 0.0207865 0)
(-0.0117602 0.0510566 0)
(-0.015089 0.078325 0)
(-0.0193217 0.10022 0)
(-0.0219358 0.122511 0)
(-0.0228455 0.139321 0)
(-0.0219559 0.151702 0)
(-0.0214857 0.157552 0)
(-0.0189192 0.147595 0)
(-0.0155618 0.150046 0)
(-0.0116479 0.149483 0)
(-0.00783664 0.146469 0)
(-0.00551711 0.132294 0)
(-0.00412898 0.112159 0)
(-0.0030121 0.0891302 0)
(-0.00106337 0.0590329 0)
(0.00325892 0.0211055 0)
(0.00686421 -0.0429314 0)
(0.00806597 -0.116871 0)
(0.00492142 -0.231152 0)
(0.00292351 -0.424014 0)
(-0.00229366 -0.431971 0)
(-0.0054091 -0.218964 0)
(-0.00946644 -0.112188 0)
(-0.0101078 -0.0393804 0)
(-0.00887895 0.0236036 0)
(-0.0113791 0.0577596 0)
(-0.014504 0.0872561 0)
(-0.0181712 0.108108 0)
(-0.0198714 0.126735 0)
(-0.0205603 0.14005 0)
(-0.0200513 0.151453 0)
(-0.0192789 0.155175 0)
(-0.0168007 0.143647 0)
(-0.0152992 0.146326 0)
(-0.0146508 0.144227 0)
(-0.0129838 0.138722 0)
(-0.00990896 0.126946 0)
(-0.0072426 0.108811 0)
(-0.00479203 0.0850882 0)
(-0.000372777 0.0494692 0)
(0.00641308 0.0103128 0)
(0.00855906 -0.0461073 0)
(0.00888593 -0.113334 0)
(0.00509726 -0.224032 0)
(0.00290416 -0.416761 0)
(-0.00303015 -0.425201 0)
(-0.00588053 -0.211659 0)
(-0.0109381 -0.106727 0)
(-0.0127781 -0.03885 0)
(-0.0130615 0.023073 0)
(-0.0132881 0.0618488 0)
(-0.0148675 0.0935545 0)
(-0.0164002 0.113278 0)
(-0.0175953 0.129019 0)
(-0.0179717 0.141606 0)
(-0.0190531 0.151957 0)
(-0.0187876 0.154944 0)
(-0.0175251 0.143318 0)
(-0.0179203 0.147046 0)
(-0.017592 0.14314 0)
(-0.0161808 0.133943 0)
(-0.0130779 0.118641 0)
(-0.00977445 0.0990431 0)
(-0.00481553 0.0733515 0)
(0.000997683 0.0332826 0)
(0.00615868 -0.000320017 0)
(0.0058666 -0.0484624 0)
(0.00705714 -0.112672 0)
(0.00384501 -0.217948 0)
(0.00253824 -0.410041 0)
(-0.00386108 -0.415327 0)
(-0.00692728 -0.201189 0)
(-0.0128673 -0.0982748 0)
(-0.0150963 -0.0339889 0)
(-0.0178666 0.0245755 0)
(-0.0162741 0.0610085 0)
(-0.0162979 0.0942257 0)
(-0.016439 0.113923 0)
(-0.0166992 0.130747 0)
(-0.0169958 0.144306 0)
(-0.0180796 0.154826 0)
(-0.017454 0.153869 0)
(-0.0181976 0.145321 0)
(-0.0188566 0.148859 0)
(-0.0188987 0.141844 0)
(-0.0166896 0.129345 0)
(-0.0126175 0.111575 0)
(-0.00839846 0.0886637 0)
(-0.00284943 0.0614177 0)
(0.00150003 0.0231049 0)
(0.00358583 -0.00367858 0)
(0.00325011 -0.049562 0)
(0.00503581 -0.112634 0)
(0.00237052 -0.214685 0)
(0.00201913 -0.405427 0)
(-0.00386229 -0.405648 0)
(-0.00646448 -0.193118 0)
(-0.0107537 -0.089578 0)
(-0.0137195 -0.0278282 0)
(-0.0166426 0.0250306 0)
(-0.0151696 0.0583545 0)
(-0.0137737 0.0940918 0)
(-0.0131557 0.114073 0)
(-0.0123389 0.130324 0)
(-0.0127079 0.144773 0)
(-0.0125348 0.154777 0)
(-0.0118802 0.156249 0)
(-0.0138456 0.149396 0)
(-0.0147503 0.152044 0)
(-0.0140558 0.139742 0)
(-0.0106603 0.122748 0)
(-0.00625353 0.101815 0)
(-0.00150564 0.0778725 0)
(0.00340816 0.0541516 0)
(0.00561929 0.0195117 0)
(0.00626042 -0.00380091 0)
(0.00607879 -0.0506261 0)
(0.00577057 -0.11101 0)
(0.0030157 -0.210604 0)
(0.00202583 -0.400544 0)
(-0.00362354 -0.396351 0)
(-0.005678 -0.188314 0)
(-0.00787918 -0.0840656 0)
(-0.00933078 -0.0221646 0)
(-0.0112844 0.0251583 0)
(-0.00952829 0.0530132 0)
(-0.00667985 0.0888956 0)
(-0.00405622 0.110624 0)
(-0.00249466 0.130456 0)
(-0.00232546 0.145026 0)
(-0.00129416 0.152834 0)
(-0.00106085 0.157568 0)
(-0.0010756 0.154054 0)
(-0.00250456 0.153626 0)
(-0.00236752 0.134812 0)
(-0.000906889 0.114988 0)
(0.00164757 0.0932926 0)
(0.00441436 0.068935 0)
(0.00818713 0.0482988 0)
(0.00934315 0.0182969 0)
(0.0100817 -0.0035748 0)
(0.0086652 -0.0488404 0)
(0.00551672 -0.107293 0)
(0.00331359 -0.208829 0)
(0.00194827 -0.396062 0)
(-0.00335421 -0.388113 0)
(-0.00489346 -0.183173 0)
(-0.00628401 -0.081984 0)
(-0.0054132 -0.0203266 0)
(-0.00470559 0.0234674 0)
(-0.00230673 0.0470912 0)
(0.000292282 0.0824622 0)
(0.00267888 0.105897 0)
(0.00349959 0.127465 0)
(0.00452856 0.142387 0)
(0.00593386 0.150955 0)
(0.00704378 0.155739 0)
(0.00867735 0.153189 0)
(0.0100222 0.156445 0)
(0.00943467 0.138054 0)
(0.00794651 0.115915 0)
(0.00773616 0.0912193 0)
(0.0092379 0.0643152 0)
(0.0109235 0.044714 0)
(0.0120083 0.016769 0)
(0.012845 -0.00270271 0)
(0.00969757 -0.0411438 0)
(0.00664468 -0.101441 0)
(0.00425798 -0.2055 0)
(0.00214813 -0.390709 0)
(-0.00313142 -0.381457 0)
(-0.00385833 -0.180698 0)
(-0.00438308 -0.083603 0)
(-0.00209273 -0.0264267 0)
(0.00109957 0.017514 0)
(0.00316397 0.0399075 0)
(0.00438872 0.0769671 0)
(0.00582224 0.103481 0)
(0.00642099 0.126967 0)
(0.00820366 0.139372 0)
(0.00964359 0.14729 0)
(0.0120345 0.15332 0)
(0.0139397 0.148309 0)
(0.0161467 0.154545 0)
(0.0172427 0.141728 0)
(0.0161143 0.120245 0)
(0.0157648 0.0913003 0)
(0.0153153 0.063044 0)
(0.0155546 0.042791 0)
(0.0150834 0.0159829 0)
(0.0139722 0.000881442 0)
(0.010336 -0.0353296 0)
(0.00867676 -0.0969352 0)
(0.00609163 -0.200128 0)
(0.00258783 -0.383488 0)
(-0.00330004 -0.375331 0)
(-0.00350234 -0.179373 0)
(-0.00433797 -0.0864542 0)
(-0.00175051 -0.0325763 0)
(0.000660352 0.0121029 0)
(0.00143144 0.0384735 0)
(0.00163647 0.077116 0)
(0.00315784 0.102493 0)
(0.00624181 0.123242 0)
(0.0101525 0.135601 0)
(0.0139636 0.143111 0)
(0.0171658 0.147848 0)
(0.0199071 0.145187 0)
(0.0230477 0.150469 0)
(0.0259063 0.140974 0)
(0.0258499 0.121035 0)