/*--------------------------------*- C++ -*----------------------------------*\
| =========                 |                                                 |
| \\      /  F ield         | OpenFOAM: The Open Source CFD Toolbox           |
|  \\    /   O peration     | Version:  2.3.0                                 |
|   \\  /    A nd           | Web:      www.OpenFOAM.org                      |
|    \\/     M anipulation  |                                                 |
\*---------------------------------------------------------------------------*/
FoamFile
{
    version     2.0;
    format      ascii;
    class       volScalarField;
    location    "4.0021";
    object      Ct2;
}
// * * * * * * * * * * * * * * * * * * * * * * * * * * * * * * * * * * * * * //

dimensions      [0 0 0 0 0 0 0];

internalField   nonuniform List<scalar> 
1000
(
1
1
1
1
1
1
1
1
1
1.00016
1
1
1
1
1
1
1.00012
1.0039
1.00004
1
1
1.17375
1.20635
1.17503
1.20478
1.67325
3.52289
4.99386
7.09751
5.80614
1.4211
1
1
1.18741
2.84006
3.908
5.25244
7.78164
5.75515
1
1
4.75432
7.7837
7.60213
8.17957
8.85301
8.87947
8.85694
8.3761
4.61254
2.05318
1
1
1.32832
3.3174
2.79194
3.82421
8.07257
5.60991
1
1
6.2078
8.91847
8.95378
8.95807
8.95713
8.95391
8.94359
8.2027
3.95622
1.79093
1
1
1.26839
3.13568
1.73321
2.44521
6.97032
3.98807
1
1
6.32105
8.87757
8.93288
8.95675
8.95942
8.95937
8.95571
8.65064
4.85487
1.45083
1
1
1.08026
1.90908
1.46042
1.86882
6.0827
3.75523
1
1
6.37638
8.64097
8.75042
8.93889
8.95947
8.95947
8.95915
8.92668
8.13246
2.71439
1
1
1
1.25218
1.41654
1.50477
5.12149
4.58778
1
1
6.0757
7.11624
6.46645
8.91194
8.95949
8.95949
8.95948
8.95929
8.95113
7.32703
1.01013
1
1
1.00108
1.22216
1.28469
4.083
6.07982
1
1
4.59277
2.9775
2.13284
8.90443
8.9595
8.9595
8.9595
8.9595
8.9595
8.95915
6.7477
1
1
1
1.03776
1.2144
3.60245
7.47332
1.00001
1
3.07547
1.73839
1.60647
8.93774
8.95951
8.95951
8.95951
8.95951
8.95951
8.95951
8.95867
1.19837
1
1
1.00009
1.17245
3.32079
8.46165
1.00004
1
1.6837
1.27202
5.82478
8.95898
8.95952
8.95952
8.95952
8.95952
8.95952
8.95952
8.95952
1.9044
1.00011
1
1.00001
1.20572
6.07343
8.9305
1.00021
1
1
1
1
1
1
1
1.00638
1.14495
1.21363
1.14081
1
1
1
1
1.00002
1.00374
1.01269
1.00065
1
1
1.76063
1.97127
1.94468
2.81155
4.97746
6.62431
7.71491
8.4869
6.12142
1.58635
1.00013
1
1.42903
2.74348
2.96145
4.33191
7.47856
6.78057
1
1
7.02103
8.82244
8.85685
8.91556
8.94623
8.95027
8.94473
8.56679
5.47164
1.85202
1.00077
1.00044
1.3541
2.11157
1.80433
2.62412
7.28167
7.08993
1.00049
1
7.5263
8.94241
8.9564
8.95871
8.95905
8.95896
8.94957
8.59256
6.09634
2.00977
1.00002
1.00019
1.26294
1.86424
1.42175
1.89271
5.77784
5.88827
1.0091
1.00037
7.5718
8.90286
8.92996
8.95459
8.95944
8.95943
8.9575
8.87848
7.51485
1.92028
1.00023
1.0002
1.11741
1.43752
1.29645
1.53329
4.66444
5.75215
1.01988
1.00453
7.4935
8.55119
8.46431
8.94349
8.95947
8.95944
8.95936
8.94818
8.66821
5.40754
1.26755
1.01503
1.06161
1.17779
1.24621
1.33379
3.47698
6.56344
1.02612
1.02715
6.75614
6.2575
5.37247
8.94036
8.95949
8.95949
8.95947
8.95944
8.95721
8.68854
1.30012
1.02028
1.02312
1.11577
1.18949
1.23129
2.58707
7.8517
1.03294
1.13889
4.97532
3.60114
3.81421
8.94765
8.9595
8.9595
8.9595
8.9595
8.9595
8.95949
8.16941
1.26056
1.01579
1.03102
1.15256
1.20136
2.37023
8.42526
1.04785
1.25637
3.39646
2.30348
5.27515
8.95755
8.95951
8.95951
8.95951
8.95951
8.95951
8.95951
8.95933
1.64922
1.04022
1.01609
1.09091
1.19123
2.51358
8.713
1.07401
1.28725
1.93684
1.35792
8.67988
8.95951
8.95952
8.95952
8.95952
8.95952
8.95952
8.95952
8.95952
5.18276
1.13101
1.01886
1.069
1.20036
5.22444
8.95069
1.10189
1
1
1
1
1
1
1.00004
1.04434
1.147
1.20387
1.18048
1
1
1
1
1.00009
1.00751
1.01779
1.0014
1
1
2.75233
3.14986
3.52465
4.83314
6.66186
7.87891
8.54432
8.79508
8.16071
4.44686
1.21602
1.00003
1.63548
2.68709
2.65619
3.94535
7.30841
7.11069
1
1.00261
7.98265
8.93526
8.94682
8.95517
8.9587
8.95915
8.95786
8.90388
8.2633
4.75721
1.19474
1.09432
1.36919
2.0032
1.69353
2.33564
6.77696
7.74806
1.00366
1.11972
8.19019
8.95509
8.95869
8.95929
8.95942
8.95941
8.95785
8.92406
8.66472
5.33138
1.12303
1.09301
1.25588
1.73294
1.38743
1.69911
4.94071
7.4706
1.0284
1.27863
8.27429
8.93804
8.94334
8.95741
8.95946
8.95945
8.95921
8.95121
8.83524
5.86845
1.11516
1.06688
1.12451
1.33611
1.28636
1.40976
3.47001
7.34247
1.05003
1.35912
8.23225
8.71398
8.55823
8.95476
8.95947
8.95947
8.95945
8.95778
8.93069
8.50769
3.21662
1.18891
1.15511
1.14224
1.20697
1.27287
2.33391
7.83359
1.06104
1.39395
7.82716
7.65862
7.51125
8.9548
8.95949
8.95949
8.95948
8.95944
8.95853
8.85581
3.3376
1.61862
1.22739
1.20204
1.1928
1.22401
1.79855
8.03177
1.07273
1.41406
6.75999
5.92583
7.51946
8.95774
8.9595
8.9595
8.9595
8.9595
8.9595
8.95944
8.39862
6.83812
1.67803
1.26655
1.23744
1.231
1.68693
7.83039
1.09144
1.43854
5.5146
4.49742
8.30241
8.95934
8.95951
8.95951
8.95951
8.95951
8.95951
8.95951
8.95793
6.457
1.91628
1.42962
1.30095
1.27711
1.93152
7.65809
1.2911
1.47014
3.47158
2.12001
8.93429
8.95952
8.95952
8.95952
8.95952
8.95952
8.95952
8.95952
8.95952
8.51881
2.09324
1.4596
1.34441
1.32714
4.03875
8.88604
1.33769
1
1
1
1
1
1
1
1.00899
1.14456
1.21749
1.15594
1
1
1
1
1.00001
1.00348
1.01254
1.00064
1
1
1.92033
2.16347
2.32098
3.38958
5.37023
6.94871
7.97976
8.46243
6.37564
1.81252
1.00023
1
1.42335
2.633
2.81463
4.10526
7.3058
6.6677
1
1
7.22501
8.87906
8.91441
8.9394
8.95377
8.95625
8.9402
8.45615
5.79893
2.13142
1.00156
1.00061
1.3477
2.02081
1.7539
2.52816
6.95664
6.96083
1.00047
1
7.54694
8.94324
8.95688
8.9591
8.95936
8.95914
8.93242
8.39986
6.38254
2.45303
1.00002
1.00042
1.2821
1.80027
1.41631
1.8384
5.26943
5.85078
1.00897
1.00078
7.58139
8.90349
8.9303
8.95451
8.95945
8.95935
8.94418
8.74025
7.51137
2.68001
1.00001
1.00002
1.14222
1.49221
1.33521
1.4912
3.89308
5.7526
1.01946
1.00746
7.50687
8.55618
8.47529
8.94313
8.95947
8.95947
8.95817
8.91634
8.03954
4.01303
2.34595
1.0198
1.0432
1.17473
1.34287
1.30781
2.61311
6.50558
1.02572
1.03641
6.76981
6.28303
5.39721
8.9399
8.95949
8.95948
8.95947
8.95842
8.93141
7.85043
2.47039
1.47566
1.19575
1.18904
1.21168
1.21663
1.90638
7.62467
1.0324
1.16491
4.98521
3.62198
3.80642
8.94725
8.9595
8.9595
8.9595
8.95949
8.95947
8.95643
4.51578
2.89317
1.36428
1.21888
1.20612
1.19931
1.72275
8.01911
1.04735
1.2752
3.39791
2.30426
5.23306
8.95746
8.95951
8.95951
8.95951
8.95951
8.95951
8.95951
8.88503
5.03473
1.32792
1.2369
1.2106
1.21
1.8644
8.37599
1.0743
1.3092
1.93188
1.35889
8.66427
8.95951
8.95952
8.95952
8.95952
8.95952
8.95952
8.95952
8.95945
6.40103
1.24005
1.20681
1.19266
1.21015
3.95218
8.93363
1.10281
1
1
1
1
1
1
1
1
1.00006
1.00209
1
1
1
1
1
1
1.00011
1.00371
1.00003
1
1
1.21153
1.26793
1.23156
1.2574
2.06418
3.9571
5.64671
7.54477
5.90342
1.44219
1
1
1.18386
2.8764
4.06989
5.5381
7.88002
5.77414
1
1
5.36061
8.30099
8.35456
8.59525
8.90083
8.9204
8.8979
8.16123
3.93439
1.99655
1
1
1.31316
3.50833
2.96561
4.18949
8.25787
5.65213
1
1
6.26648
8.91986
8.95447
8.95846
8.95847
8.95648
8.93172
7.68855
3.27363
1.55086
1
1
1.28624
3.32753
1.76504
2.56705
7.3217
3.98971
1
1
6.35944
8.87781
8.93282
8.95669
8.95942
8.95941
8.94165
7.87801
3.21851
1.53015
1
1
1.04091
1.85423
1.50166
1.92741
6.42646
3.72745
1
1
6.41289
8.63995
8.74997
8.93829
8.95947
8.95947
8.95825
8.79307
5.50715
1.48197
1
1
1
1.39507
1.65788
1.6443
5.37056
4.51178
1
1
6.10292
7.11784
6.48407
8.91051
8.95949
8.95949
8.95948
8.95763
8.83904
3.80353
1
1
1
1.00783
1.40196
1.53803
4.33517
5.98994
1
1
4.60817
2.96757
2.11837
8.90263
8.9595
8.9595
8.9595
8.95949
8.95944
8.94644
2.59189
1
1
1
1.22525
1.45116
3.93771
7.46629
1
1
3.08584
1.7216
1.57544
8.93685
8.95951
8.95951
8.95951
8.95951
8.95951
8.95951
8.90949
1.04141
1
1
1.00453
1.41165
4.30611
8.47772
1.00002
1
1.68485
1.26912
5.6267
8.95894
8.95952
8.95952
8.95952
8.95952
8.95952
8.95952
8.95952
1.4056
1
1
1.00297
1.3856
6.95164
8.93081
1.00014
)
;

boundaryField
{
    aeration
    {
        type            calculated;
        value           uniform 1;
    }
    xsides
    {
        type            calculated;
        value           nonuniform List<scalar> 
100
(
1
1
1
1
1
1
1
1
1
1
1
1
1
1
1.0001
1.00118
1.00707
1
1
1
1
1
1
1
1
1
1
1
1
1
1
1
1
1
1.00022
1.00199
1.00969
1
1
1
1
1
1
1
1
1
1
1
1
1
1
1
1
1
1.00001
1
1
1.00001
1.00005
1.00029
1
1
1.00035
1.00706
1.01589
1.02001
1.02426
1.03422
1.04535
1.04969
1
1
1.00282
1.02402
1.04303
1.05008
1.0563
1.06839
1.00343
1
1
1
1.00033
1.00693
1.0156
1.01959
1.02379
1.03377
1.04554
1.05005
1
1
1
1
1
1
1
1.00001
1.00003
1.00019
)
;
    }
    zsides
    {
        type            calculated;
        value           nonuniform List<scalar> 
400
(
1
1
1
1
1
1
1
1
1
1
1
1.27177
5.25487
6.62729
6.68409
6.69775
6.3728
4.88714
3.32062
1.83183
1
1.29929
7.94789
8.92561
8.89095
8.68542
7.30506
3.21704
1.88348
1.39425
1
1.25542
7.7789
8.95483
8.93821
8.78873
6.77245
2.36537
1.74934
5.95435
1
1.28696
8.28795
8.95833
8.95731
8.94293
8.91952
8.91103
8.93952
8.95899
1
1.82392
8.87033
8.95759
8.95943
8.95947
8.95949
8.9595
8.95951
8.95952
1
3.90716
8.89287
8.95481
8.95938
8.95947
8.95949
8.9595
8.95951
8.95952
1
5.37549
8.87106
8.94558
8.95616
8.95919
8.95948
8.9595
8.95951
8.95952
1
1.02168
8.43353
8.26084
8.67646
8.92927
8.95931
8.9595
8.95951
8.95952
1.00025
1.00017
1.00008
1.00006
4.92348
8.16465
8.95167
8.9595
8.95951
8.95952
1
1
1.00001
1.00001
1
1.00002
7.41082
8.95916
8.95951
8.95952
1
1
1
1
1
1
1.01774
6.83651
8.95869
8.95952
1
1
1
1
1
1
1
1
1.30849
2.0601
1
1.31484
1.41537
1.30639
1.05894
1
1
1
1
1.00018
1
3.47587
4.25173
3.77657
2.12306
1.27247
1.00123
1
1
1
1
4.52866
3.41006
2.27314
1.92963
1.58276
1.26165
1.04843
1.00014
1.00001
1.00022
5.71483
4.2294
2.74342
2.08801
1.68206
1.41318
1.31421
1.25924
1.28038
1.00845
7.98805
8.2041
7.2017
6.33417
5.33908
4.29562
3.82948
3.53259
6.18101
1.00006
6.58024
6.36209
4.80307
4.47298
5.17799
6.46157
7.61685
8.49977
8.93185
1
1
1
1
1.00001
1
1
1.00001
1.00005
1.00029
1
1
1
1
1
1
1
1
1
1
1
1.32747
5.84483
6.68661
6.72352
6.7338
6.4015
4.90531
3.33255
1.8334
1
1.37796
8.39816
8.92676
8.89115
8.68454
7.30647
3.20665
1.86401
1.39075
1
1.32337
8.44031
8.9554
8.93816
8.78838
6.78854
2.34961
1.71498
5.76374
1
1.34666
8.64821
8.95864
8.95726
8.94245
8.91832
8.90945
8.93871
8.95896
1
2.27366
8.91037
8.95866
8.95943
8.95947
8.95949
8.9595
8.95951
8.95952
1
4.35187
8.92693
8.95696
8.95942
8.95947
8.95949
8.9595
8.95951
8.95952
1
5.98555
8.90634
8.93516
8.94375
8.95839
8.95948
8.9595
8.95951
8.95952
1.00009
1.09221
8.23671
7.78235
7.95785
8.80516
8.95779
8.95949
8.95951
8.95952
1.00302
1.00018
1.00005
1.00003
3.1177
5.40022
8.84365
8.95945
8.95951
8.95952
1
1
1.00001
1.57656
1
1
1.00005
6.22736
8.95951
8.95952
1
1
1
1
1
1
1
1.00002
1.01693
8.95476
1
1
1
1
1
1
1
1
1
1
1
1.30804
1.41214
1.30262
1.05321
1
1
1
1
1
1
3.51433
4.46183
3.94931
2.06154
1
1
1
1
1
1
4.68994
3.59773
2.30078
1.88053
1
1
1
1
1.00001
1.0002
5.97876
4.58792
2.85307
2.09726
1.63592
1.31879
1.19428
1.00323
1.23658
1.00803
8.07032
8.36333
7.51871
6.6548
5.56644
4.46698
4.02699
4.24761
7.05558
1.00005
6.59409
6.39783
4.805
4.44615
5.10786
6.38806
7.61258
8.51091
8.93212
1
1
1
1
1
1
1
1.00001
1.00003
1.00019
)
;
    }
    outlet
    {
        type            calculated;
        value           nonuniform List<scalar> 
100
(
1
1.28725
1.47014
1.3092
1
1.68372
1.93687
3.47162
1.9319
1.68486
1.27203
1.35793
2.12004
1.35891
1.26913
8.95953
8.95953
8.95953
8.95953
8.95953
8.95953
8.95953
8.95953
8.95953
8.95953
8.95953
8.95953
8.95953
8.95953
8.95953
8.95953
8.95953
8.95953
8.95953
8.95953
8.95953
8.95953
8.95953
8.95953
8.95953
8.95953
8.95953
8.95953
8.95953
8.95953
8.95953
8.95953
8.95953
8.95953
8.95953
8.95953
8.95953
8.95953
8.95953
8.95953
8.95953
8.95953
8.95953
8.95953
8.95953
8.95953
8.95953
8.95953
8.95953
1.4056
1.00011
1.13102
2.09326
1.24006
1
1
1.01886
1.45962
1.20682
1
1.00001
1.069
1.34442
1.19267
1.00297
1.20573
1.20037
1.32715
1.21016
1.3856
8.95953
8.95953
8.95953
8.95953
8.95953
8.95953
8.95953
8.95953
8.95953
8.95953
1.00021
1.1019
1.3377
1.10282
1.00014
)
;
    }
}


// ************************************************************************* //
