/*--------------------------------*- C++ -*----------------------------------*\
| =========                 |                                                 |
| \\      /  F ield         | OpenFOAM: The Open Source CFD Toolbox           |
|  \\    /   O peration     | Version:  2.3.0                                 |
|   \\  /    A nd           | Web:      www.OpenFOAM.org                      |
|    \\/     M anipulation  |                                                 |
\*---------------------------------------------------------------------------*/
FoamFile
{
    version     2.0;
    format      ascii;
    class       volScalarField;
    location    "4.0021";
    object      nut.water;
}
// * * * * * * * * * * * * * * * * * * * * * * * * * * * * * * * * * * * * * //

dimensions      [0 2 -1 0 0 0 0];

internalField   nonuniform List<scalar> 
1000
(
9.02897e-06
8.22923e-06
7.49669e-06
7.38408e-06
7.27899e-06
6.81069e-06
5.90048e-06
4.62277e-06
3.53445e-06
4.0693e-06
1.15842e-28
3.08755e-30
1.73758e-30
6.03463e-06
4.28373e-06
3.29115e-06
3.69633e-06
5.2289e-06
4.33017e-06
6.4799e-06
8.13911e-06
4.12076e-06
3.6895e-06
3.82313e-06
3.73132e-06
3.11994e-06
3.27009e-06
2.99434e-06
1.73155e-21
9.23373e-30
2.92503e-30
3.06074e-30
2.13005e-30
4.79389e-06
5.13453e-06
5.13933e-06
5.42896e-06
8.33623e-06
2.44013e-05
7.10392e-06
7.62535e-06
4.34393e-06
3.47702e-06
3.35797e-06
3.35518e-06
3.52274e-06
3.83281e-06
3.73752e-06
3.27281e-06
8.85449e-30
5.4299e-30
3.21941e-30
2.68811e-30
1.98322e-06
6.2064e-06
5.25033e-06
4.73307e-06
8.04408e-06
3.0781e-05
7.95219e-06
7.65207e-06
4.43945e-06
3.36537e-06
3.39862e-06
3.41417e-06
3.58407e-06
3.53545e-06
3.47151e-06
2.77002e-06
1.80904e-29
5.24069e-30
3.57038e-30
1.06403e-06
1.57299e-06
4.13102e-06
5.6499e-06
4.13385e-06
7.0644e-06
3.1074e-05
8.57409e-06
7.85718e-06
4.22743e-06
2.99853e-06
3.20908e-06
3.22232e-06
3.34533e-06
3.20295e-06
3.30755e-06
3.03487e-06
1.48765e-06
2.629e-30
3.98108e-30
2.45124e-30
4.64328e-07
2.32282e-06
5.58142e-06
3.41213e-06
5.1776e-06
2.65075e-05
9.095e-06
7.91235e-06
4.23595e-06
2.697e-06
2.9023e-06
2.90458e-06
2.98004e-06
2.84138e-06
2.7904e-06
2.63859e-06
1.82597e-06
3.67078e-29
2.50557e-06
1.06029e-06
1.21079e-06
1.47943e-06
2.73248e-06
3.29794e-06
3.08469e-06
1.70514e-05
9.01512e-06
7.88903e-06
3.99364e-06
2.44572e-06
2.47084e-06
2.40062e-06
2.51627e-06
2.44528e-06
2.36343e-06
2.44592e-06
2.59099e-06
2.84448e-06
7.37171e-06
5.9588e-06
5.22029e-06
2.97389e-06
2.25571e-06
3.36319e-06
2.34097e-06
7.02977e-06
8.81539e-06
7.32992e-06
3.61555e-06
2.20774e-06
1.97467e-06
1.82279e-06
1.88461e-06
1.87326e-06
1.84528e-06
1.74297e-06
1.696e-06
1.6799e-06
2.11435e-06
7.96958e-06
8.35663e-06
7.27673e-06
3.7151e-06
3.62455e-06
2.21997e-06
2.64926e-06
8.58034e-06
7.19009e-06
3.54922e-06
2.26888e-06
1.59494e-06
1.28744e-06
1.35276e-06
1.38492e-06
1.31845e-06
1.28813e-06
1.36234e-06
1.38587e-06
1.22669e-06
8.66637e-06
9.24156e-06
9.15854e-06
6.80802e-06
4.68641e-06
1.81431e-06
1.50616e-06
8.02122e-06
7.23602e-06
4.59089e-06
3.81218e-06
8.78112e-07
6.75159e-07
6.93194e-07
6.9415e-07
6.98882e-07
6.8461e-07
6.50133e-07
7.20337e-07
7.93875e-07
2.50516e-06
9.48075e-06
9.48834e-06
7.93471e-06
4.23481e-06
9.34519e-07
8.05413e-07
7.21977e-06
2.92422e-06
5.26958e-06
4.8017e-06
4.73542e-06
4.61987e-06
4.37904e-06
3.7261e-06
3.25278e-06
2.99522e-06
3.03205e-06
2.51488e-06
1.97127e-06
2.13577e-06
4.20655e-06
3.29248e-06
3.51641e-06
4.19246e-06
6.05238e-06
5.34902e-06
3.88086e-06
2.17213e-06
3.50631e-06
2.92886e-06
2.82755e-06
2.75218e-06
2.94469e-06
3.23967e-06
3.15076e-06
1.95489e-06
1.1709e-06
1.68725e-07
5.25773e-07
1.21372e-06
3.68139e-06
4.72434e-06
4.91114e-06
5.19957e-06
8.67371e-06
2.39914e-05
5.01981e-06
1.53656e-06
4.29717e-06
3.2404e-06
3.12697e-06
3.21359e-06
3.37254e-06
3.52278e-06
3.25756e-06
2.6503e-06
1.09209e-06
1.56841e-06
3.40641e-07
3.55241e-07
2.67951e-06
5.78121e-06
4.83088e-06
4.46726e-06
8.83464e-06
3.05082e-05
6.81222e-06
1.33731e-06
4.91166e-06
3.23782e-06
3.20348e-06
3.21708e-06
3.30193e-06
2.97587e-06
2.69639e-06
2.21331e-06
1.38254e-06
2.44326e-06
3.86314e-07
3.26605e-07
1.82502e-06
4.59464e-06
4.76329e-06
3.60083e-06
7.85049e-06
3.04637e-05
8.04863e-06
1.17193e-06
5.19132e-06
2.88708e-06
2.84582e-06
2.78988e-06
2.77602e-06
2.54033e-06
2.46028e-06
2.17465e-06
1.50378e-06
1.8888e-06
1.38257e-06
6.0438e-07
9.97341e-07
3.14434e-06
4.74643e-06
3.01235e-06
5.50837e-06
2.69876e-05
8.68202e-06
9.38974e-07
6.11549e-06
2.45624e-06
2.31614e-06
2.22279e-06
2.2044e-06
2.05423e-06
1.91875e-06
1.79668e-06
1.73388e-06
1.40016e-06
6.54393e-06
2.3127e-06
1.02179e-06
1.80763e-06
2.90141e-06
2.86737e-06
3.00262e-06
1.77236e-05
8.1446e-06
8.13791e-07
6.82131e-06
2.0331e-06
1.76531e-06
1.63638e-06
1.66659e-06
1.64403e-06
1.57299e-06
1.58327e-06
1.82289e-06
2.40793e-06
6.24888e-06
5.77864e-06
3.50188e-06
1.82669e-06
1.77655e-06
2.68376e-06
1.91006e-06
7.70398e-06
7.57917e-06
3.30377e-25
4.05911e-06
1.76555e-06
1.42151e-06
1.09217e-06
1.11589e-06
1.13991e-06
1.13889e-06
1.16572e-06
1.37912e-06
1.79423e-06
1.80989e-06
7.32496e-06
6.25071e-06
3.86225e-06
2.14172e-06
2.83325e-06
1.56575e-06
2.57832e-06
7.0482e-06
1.50306e-30
3.4626e-06
1.7471e-06
1.19843e-06
7.73659e-07
8.52113e-07
9.06039e-07
9.23665e-07
1.02457e-06
1.3163e-06
1.82944e-06
1.65047e-06
8.18268e-06
7.26125e-06
6.49969e-06
4.05771e-06
3.56738e-06
1.26386e-06
1.40962e-06
5.06296e-06
1.21034e-30
3.65281e-06
3.32517e-06
8.09009e-07
7.73831e-07
8.09269e-07
8.55769e-07
9.24952e-07
1.06502e-06
1.23437e-06
2.62396e-06
2.20304e-06
1.9983e-06
7.2654e-06
6.8568e-06
5.36946e-06
3.33965e-06
7.40373e-07
9.8319e-07
3.08533e-06
1.99349e-06
4.80075e-06
4.37266e-06
4.33061e-06
4.2134e-06
3.87725e-06
3.1861e-06
2.88759e-06
2.57556e-06
2.27215e-06
2.09197e-06
2.10393e-06
2.87889e-06
3.99734e-06
3.52119e-06
3.8877e-06
4.53021e-06
6.51218e-06
6.38895e-06
3.7715e-06
1.24958e-06
3.73925e-06
2.96186e-06
2.84983e-06
2.88304e-06
3.19387e-06
3.33479e-06
3.18814e-06
2.14841e-06
1.16709e-06
7.97744e-07
9.14672e-07
1.89118e-06
3.55818e-06
4.70239e-06
4.88063e-06
5.18419e-06
8.87358e-06
2.41238e-05
4.76592e-06
2.59642e-17
4.13682e-06
3.32403e-06
3.25539e-06
3.32991e-06
3.45858e-06
3.47935e-06
2.99518e-06
2.21115e-06
1.03751e-06
1.91865e-06
9.00472e-07
1.04874e-06
3.2217e-06
5.61993e-06
4.70329e-06
4.44299e-06
9.39428e-06
3.02537e-05
7.12353e-06
5.56295e-30
4.56102e-06
3.29996e-06
3.22888e-06
3.22663e-06
3.23748e-06
2.7828e-06
2.3062e-06
1.70977e-06
1.09446e-06
2.12116e-06
9.16239e-07
7.78828e-07
2.11519e-06
4.77736e-06
4.43871e-06
3.41453e-06
8.39455e-06
3.02974e-05
8.55737e-06
5.6728e-30
4.89817e-06
2.94573e-06
2.76814e-06
2.6597e-06
2.58628e-06
2.29875e-06
2.03885e-06
1.59571e-06
1.00628e-06
8.33101e-07
1.96859e-06
1.04199e-06
1.6906e-06
3.60375e-06
3.99618e-06
2.63006e-06
5.90145e-06
2.71722e-05
9.11593e-06
5.34147e-30
5.63053e-06
2.4309e-06
2.07123e-06
1.90565e-06
1.81532e-06
1.63493e-06
1.46905e-06
1.36974e-06
1.21703e-06
8.2702e-07
5.68185e-06
2.7073e-06
1.53142e-06
2.21831e-06
2.45441e-06
2.35425e-06
3.08863e-06
1.8037e-05
8.45168e-06
5.80539e-30
6.19679e-06
1.91155e-06
1.46097e-06
1.19647e-06
1.20166e-06
1.21716e-06
1.19775e-06
1.25545e-06
1.26888e-06
9.80859e-07
4.54362e-06
5.28407e-06
3.69509e-06
1.93269e-06
1.55856e-06
2.06786e-06
1.91441e-06
7.96731e-06
7.58262e-06
6.83044e-30
4.43138e-06
1.72214e-06
1.24326e-06
8.5559e-07
8.77181e-07
9.09538e-07
9.26664e-07
9.93024e-07
1.03376e-06
1.035e-06
7.44594e-07
4.44159e-06
4.23171e-06
2.94335e-06
1.6776e-06
2.08112e-06
1.61544e-06
3.18431e-06
6.94988e-06
7.98623e-30
3.82122e-06
1.68843e-06
1.02575e-06
7.94421e-07
8.20532e-07
8.50252e-07
8.80659e-07
9.71307e-07
9.85364e-07
1.01815e-06
1.26864e-06
5.14705e-06
5.11928e-06
4.54715e-06
2.6468e-06
2.52876e-06
1.31616e-06
7.01472e-06
3.90832e-09
7.87581e-30
3.68694e-06
3.32482e-06
8.66858e-07
8.26353e-07
8.36791e-07
8.5885e-07
8.92238e-07
8.93795e-07
8.85828e-07
1.05904e-06
9.26004e-07
9.11873e-07
4.75622e-06
4.66616e-06
3.62075e-06
2.72421e-06
8.15868e-07
6.01087e-06
3.97298e-30
2.98882e-06
5.26841e-06
4.80934e-06
4.78569e-06
4.65857e-06
4.31771e-06
3.55012e-06
3.10554e-06
2.79622e-06
2.89608e-06
2.36349e-06
1.99452e-06
2.16868e-06
4.2203e-06
3.30753e-06
3.51773e-06
4.19482e-06
6.03317e-06
5.35306e-06
3.87452e-06
2.20364e-06
3.50802e-06
2.98447e-06
2.8616e-06
2.79859e-06
3.01553e-06
3.24842e-06
3.11451e-06
1.84752e-06
1.13133e-06
1.57371e-07
4.95782e-07
1.23668e-06
3.6547e-06
4.71036e-06
4.87792e-06
5.13965e-06
8.64755e-06
2.39074e-05
4.99487e-06
1.52124e-06
4.32024e-06
3.25631e-06
3.16603e-06
3.22873e-06
3.38349e-06
3.51944e-06
3.20022e-06
2.52042e-06
1.0263e-06
1.58387e-06
3.6819e-07
3.82798e-07
2.87707e-06
5.7949e-06
4.74648e-06
4.34035e-06
8.82663e-06
3.05049e-05
6.78982e-06
1.32704e-06
4.91286e-06
3.23881e-06
3.20348e-06
3.21699e-06
3.30309e-06
2.9979e-06
2.60857e-06
1.95379e-06
1.05742e-06
2.35287e-06
3.83852e-07
2.64327e-07
1.49538e-06
4.43551e-06
4.50106e-06
3.2462e-06
7.84306e-06
3.04843e-05
8.01647e-06
1.14906e-06
5.22896e-06
2.88604e-06
2.84523e-06
2.78934e-06
2.77509e-06
2.54919e-06
2.36525e-06
1.82476e-06
9.96797e-07
5.48344e-07
1.99163e-06
1.49911e-06
1.89791e-06
3.16965e-06
3.41906e-06
1.91198e-06
5.42496e-06
2.70307e-05
8.74121e-06
9.6122e-07
6.08667e-06
2.45568e-06
2.31514e-06
2.22156e-06
2.20169e-06
2.0377e-06
1.86148e-06
1.63129e-06
1.0071e-06
2.75422e-07
4.37671e-06
2.07004e-06
1.24589e-06
1.31117e-06
6.99584e-07
1.22065e-06
2.65566e-06
1.78237e-05
8.07686e-06
8.42431e-07
6.85822e-06
2.03556e-06
1.76198e-06
1.63316e-06
1.66349e-06
1.65061e-06
1.63763e-06
1.67167e-06
1.4678e-06
5.62282e-07
2.18826e-06
2.87295e-06
2.28471e-06
1.17818e-06
7.12344e-07
1.12421e-06
1.44108e-06
7.86002e-06
7.55374e-06
1.21315e-23
4.1158e-06
1.76913e-06
1.42389e-06
1.09237e-06
1.11563e-06
1.13957e-06
1.13631e-06
1.20976e-06
1.52949e-06
1.43144e-06
2.47737e-07
2.33062e-06
2.05899e-06
1.35557e-06
8.62014e-07
1.2215e-06
1.28646e-06
2.5998e-06
7.03281e-06
1.45199e-30
3.49561e-06
1.7531e-06
1.22887e-06
7.74431e-07
8.51499e-07
9.0568e-07
9.196e-07
9.44142e-07
1.03871e-06
6.41545e-07
2.22082e-06
2.70462e-06
1.50616e-06
1.43547e-06
1.04387e-06
1.3961e-06
1.24506e-06
1.40224e-06
5.07952e-06
1.29964e-30
3.67458e-06
3.33243e-06
8.10361e-07
7.73886e-07
8.08563e-07
8.56348e-07
9.30767e-07
9.85045e-07
1.00284e-06
8.46342e-07
1.16925e-06
1.08489e-06
4.74335e-07
8.1627e-07
1.27838e-06
1.66712e-06
1.21468e-06
9.76873e-07
3.08487e-06
8.90473e-06
8.05401e-06
7.3269e-06
7.29406e-06
7.17121e-06
6.60911e-06
5.52345e-06
4.19743e-06
2.8073e-06
3.47406e-06
7.58007e-29
3.27831e-30
1.76867e-30
6.09046e-06
4.33546e-06
3.30771e-06
3.6916e-06
5.21775e-06
4.33774e-06
6.48978e-06
7.90178e-06
4.12273e-06
3.61986e-06
3.60933e-06
3.50365e-06
3.1282e-06
3.3014e-06
2.96846e-06
7.85006e-20
1.25223e-29
3.30821e-30
3.32916e-30
1.96895e-30
4.77733e-06
5.12716e-06
5.10368e-06
5.36036e-06
8.30902e-06
2.42285e-05
7.11059e-06
7.38359e-06
4.37028e-06
3.46721e-06
3.36003e-06
3.35942e-06
3.52162e-06
3.83282e-06
3.71497e-06
3.15584e-06
9.07747e-30
4.48458e-30
3.56842e-30
2.57836e-30
2.26894e-06
6.24725e-06
5.13661e-06
4.59097e-06
8.02743e-06
3.07482e-05
7.95757e-06
7.41267e-06
4.46211e-06
3.36479e-06
3.40015e-06
3.41668e-06
3.58791e-06
3.54287e-06
3.3944e-06
2.63387e-06
9.07041e-30
1.02482e-06
6.82969e-07
2.10356e-07
1.11048e-06
3.85881e-06
5.24204e-06
3.71926e-06
7.06676e-06
3.11408e-05
8.57664e-06
7.62633e-06
4.24523e-06
2.99889e-06
3.21216e-06
3.22586e-06
3.34729e-06
3.18413e-06
3.14215e-06
2.61501e-06
4.11834e-07
3.64742e-30
4.67636e-06
4.46911e-06
3.55916e-06
2.97682e-06
3.62367e-06
2.39082e-06
5.09107e-06
2.66474e-05
9.09087e-06
7.71552e-06
4.24693e-06
2.69794e-06
2.90557e-06
2.90754e-06
2.97919e-06
2.81559e-06
2.62934e-06
2.26964e-06
4.1414e-07
3.29259e-30
1.11247e-30
4.85252e-31
1.07328e-30
2.89007e-30
8.65026e-30
5.67706e-07
2.77011e-06
1.73073e-05
9.03616e-06
7.69915e-06
4.0264e-06
2.44521e-06
2.4717e-06
2.40079e-06
2.51661e-06
2.46142e-06
2.47361e-06
2.45563e-06
1.59506e-06
9.93512e-30
4.86242e-31
4.28343e-31
9.32438e-31
1.81407e-30
4.20616e-30
5.6194e-09
1.46154e-06
7.3391e-06
8.81439e-06
7.17174e-06
3.64444e-06
2.2064e-06
1.97838e-06
1.82368e-06
1.88524e-06
1.87397e-06
1.84017e-06
1.8606e-06
1.87476e-06
1.13086e-16
3.91811e-30
5.80579e-31
6.84939e-31
1.50803e-30
4.30769e-30
3.63239e-10
1.00723e-06
2.63459e-06
8.5959e-06
7.00823e-06
3.56591e-06
2.26909e-06
1.6065e-06
1.28853e-06
1.35365e-06
1.38668e-06
1.31425e-06
1.14735e-06
1.0161e-06
1.03781e-06
1.14614e-28
6.9641e-31
6.26451e-31
1.00576e-30
2.70788e-30
8.38387e-21
4.44141e-07
1.3395e-06
8.07443e-06
7.09595e-06
4.60482e-06
3.83393e-06
8.87864e-07
6.74905e-07
6.9266e-07
6.92611e-07
6.96672e-07
7.34563e-07
8.0589e-07
8.32492e-07
2.92007e-19
1.09541e-30
6.98543e-31
1.04516e-30
5.07131e-24
6.88832e-08
8.09906e-07
7.9878e-07
7.2666e-06
)
;

boundaryField
{
    aeration
    {
        type            calculated;
        value           uniform 8.4375e-07;
    }
    xsides
    {
        type            nutkWallFunction;
        Cmu             0.09;
        kappa           0.41;
        E               9.8;
        value           nonuniform List<scalar> 
100
(
2.45722e-06
2.26488e-06
2.19498e-06
2.20224e-06
2.24237e-06
2.24674e-06
2.23789e-06
2.18291e-06
2.18049e-06
2.1881e-06
1.38895e-06
1.2174e-06
1.09082e-06
1.05184e-06
1.04047e-06
9.94582e-07
9.56053e-07
0
0
0
9.94251e-07
7.91944e-07
0
0
0
0
0
0
0
0
1.38227e-06
1.1973e-06
1.0601e-06
1.02338e-06
1.01129e-06
9.79375e-07
9.45698e-07
0
0
0
2.4168e-06
2.19165e-06
2.12762e-06
2.13764e-06
2.18186e-06
2.19264e-06
2.18552e-06
2.13602e-06
2.13569e-06
2.14777e-06
1.782e-06
1.6735e-06
1.69744e-06
1.75805e-06
1.81605e-06
1.84388e-06
1.84396e-06
1.83029e-06
1.78964e-06
1.75618e-06
1.18818e-06
1.23134e-06
1.34473e-06
1.43807e-06
1.50954e-06
1.50894e-06
1.49221e-06
1.45688e-06
1.3356e-06
1.16419e-06
1.01611e-06
1.08504e-06
1.24061e-06
1.3484e-06
1.42232e-06
1.41392e-06
1.38455e-06
1.33808e-06
1.41577e-08
0
1.18905e-06
1.23243e-06
1.34641e-06
1.44002e-06
1.51199e-06
1.51138e-06
1.49492e-06
1.4603e-06
1.34138e-06
1.16977e-06
1.78652e-06
1.67917e-06
1.70315e-06
1.76397e-06
1.82169e-06
1.85088e-06
1.85107e-06
1.83911e-06
1.80244e-06
1.76982e-06
)
;
    }
    zsides
    {
        type            nutkWallFunction;
        Cmu             0.09;
        kappa           0.41;
        E               9.8;
        value           nonuniform List<scalar> 
400
(
2.82983e-07
2.41578e-07
2.26509e-07
2.28073e-07
2.36726e-07
2.37668e-07
2.3576e-07
2.23905e-07
2.23383e-07
2.25025e-07
3.04771e-07
0
0
0
0
0
0
0
0
4.42106e-09
2.60607e-07
0
0
0
0
0
0
0
0
0
2.47592e-07
0
0
0
0
0
0
0
0
0
2.50068e-07
0
0
0
0
0
0
0
0
0
2.22929e-07
0
0
0
0
0
0
0
0
0
1.79576e-07
0
0
0
0
0
0
0
0
0
1.03587e-07
0
0
0
0
0
0
0
0
0
0
0
0
0
0
0
0
0
0
0
5.84232e-08
0
0
0
0
0
0
0
0
0
0
0
0
0
0
0
0
0
0
0
0
0
0
0
0
1.13456e-07
1.31824e-07
0
0
0
0
0
0
0
0
2.41326e-08
2.85293e-07
2.97362e-07
1.62047e-07
0
1.64717e-07
0
0
0
0
0
2.49662e-07
3.53571e-07
3.498e-07
2.85442e-07
8.29913e-08
0
0
0
0
0
8.87128e-08
2.78491e-07
3.38669e-07
3.30675e-07
5.44309e-09
0
0
0
0
0
0
6.15838e-08
1.97528e-07
2.44841e-07
0
0
0
0
0
0
0
0
9.71841e-09
1.80091e-08
0
0
0
6.92052e-10
0
0
0
0
0
0
3.77049e-08
4.39135e-08
1.15467e-07
1.4149e-07
1.39737e-07
8.66259e-08
0
0
0
0
1.37197e-07
1.13645e-07
1.18846e-07
1.32002e-07
1.4458e-07
1.5061e-07
1.50628e-07
1.47665e-07
1.38853e-07
1.31595e-07
2.7429e-07
2.2579e-07
2.11973e-07
2.14137e-07
2.23679e-07
2.26003e-07
2.24467e-07
2.13787e-07
2.13715e-07
2.16323e-07
2.89735e-07
0
0
0
0
0
0
0
0
4.68604e-09
2.46038e-07
0
0
0
0
0
0
0
0
0
2.35433e-07
0
0
0
0
0
0
0
0
0
2.37773e-07
0
0
0
0
0
0
0
0
0
2.09383e-07
0
0
0
0
0
0
0
0
0
1.59642e-07
0
0
0
0
0
0
0
0
0
7.92203e-08
0
0
0
0
0
0
0
0
0
0
0
0
0
0
0
0
0
0
0
3.03716e-08
0
0
0
0
0
0
0
0
0
0
0
0
0
0
0
0
0
0
0
0
0
0
0
2.18575e-07
0
0
0
0
0
0
0
0
0
1.99777e-07
0
0
0
0
0
1.69241e-07
0
0
0
4.76381e-08
0
0
0
0
0
8.63563e-08
0
0
0
0
0
0
0
0
0
7.32789e-09
0
0
0
0
0
0
0
0
0
0
0
0
0
0
0
0
0
0
0
0
0
0
1.02467e-11
0
0
0
0
0
0
3.82593e-08
4.31909e-08
1.15334e-07
1.41843e-07
1.40501e-07
8.86656e-08
0
0
0
0
1.38176e-07
1.14877e-07
1.20085e-07
1.33286e-07
1.45802e-07
1.52128e-07
1.52169e-07
1.49578e-07
1.41629e-07
1.34555e-07
)
;
    }
    outlet
    {
        type            calculated;
        value           nonuniform List<scalar> 
100
(
7.23602e-06
1.21034e-30
7.87581e-30
1.29964e-30
7.09595e-06
4.59089e-06
3.65281e-06
3.68694e-06
3.67458e-06
4.60482e-06
3.81218e-06
3.32517e-06
3.32482e-06
3.33243e-06
3.83393e-06
8.4375e-07
8.4375e-07
8.4375e-07
8.4375e-07
8.4375e-07
8.4375e-07
8.4375e-07
8.4375e-07
8.4375e-07
8.4375e-07
8.4375e-07
8.4375e-07
8.4375e-07
8.4375e-07
8.4375e-07
8.4375e-07
8.4375e-07
8.4375e-07
8.4375e-07
8.4375e-07
8.4375e-07
8.4375e-07
8.4375e-07
8.4375e-07
8.4375e-07
8.4375e-07
8.4375e-07
8.4375e-07
8.4375e-07
8.4375e-07
8.4375e-07
8.4375e-07
8.4375e-07
8.4375e-07
8.4375e-07
8.4375e-07
8.4375e-07
8.4375e-07
8.4375e-07
8.4375e-07
8.4375e-07
8.4375e-07
8.4375e-07
8.4375e-07
8.4375e-07
8.4375e-07
8.4375e-07
8.4375e-07
8.4375e-07
1.09541e-30
9.48075e-06
7.2654e-06
4.75622e-06
4.74335e-07
6.98543e-31
9.48834e-06
6.8568e-06
4.66616e-06
8.1627e-07
1.04516e-30
7.93471e-06
5.36946e-06
3.62075e-06
1.27838e-06
5.07131e-24
4.23481e-06
3.33965e-06
2.72421e-06
1.66712e-06
6.88832e-08
8.4375e-07
8.4375e-07
8.4375e-07
8.4375e-07
8.4375e-07
8.4375e-07
8.4375e-07
8.4375e-07
8.4375e-07
8.4375e-07
7.21977e-06
3.08533e-06
3.97298e-30
3.08487e-06
7.2666e-06
)
;
    }
}


// ************************************************************************* //
