/*--------------------------------*- C++ -*----------------------------------*\
| =========                 |                                                 |
| \\      /  F ield         | OpenFOAM: The Open Source CFD Toolbox           |
|  \\    /   O peration     | Version:  2.3.0                                 |
|   \\  /    A nd           | Web:      www.OpenFOAM.org                      |
|    \\/     M anipulation  |                                                 |
\*---------------------------------------------------------------------------*/
FoamFile
{
    version     2.0;
    format      ascii;
    class       volScalarField;
    location    "1.90108";
    object      alpha.water;
}
// * * * * * * * * * * * * * * * * * * * * * * * * * * * * * * * * * * * * * //

dimensions      [0 0 0 0 0 0 0];

internalField   nonuniform List<scalar> 
1000
(
0.922811
0.931933
0.92572
0.900718
0.858622
0.799331
0.795066
0.801836
0.791096
0.834595
0.84933
0.831571
0.793916
0.793877
0.847267
0.886246
0.903464
0.90821
0.892912
0.882004
0.999792
0.999712
0.998975
0.995559
0.987308
0.973346
0.949885
0.921191
0.901291
0.918259
0.95188
0.965982
0.96727
0.972427
0.992681
0.998243
0.999535
0.999625
0.999513
0.999354
0.999998
0.999862
0.99834
0.995069
0.986136
0.970969
0.937158
0.891055
0.880603
0.876154
0.931804
0.966223
0.982282
0.995677
0.99962
0.999814
0.999808
0.999997
1
1
1
0.99975
0.991484
0.992372
0.988513
0.974599
0.940132
0.892218
0.867487
0.873386
0.929285
0.961849
0.984107
0.997736
0.998708
0.998167
0.998225
0.999992
1
1
1
0.999692
0.980932
0.981327
0.983971
0.97935
0.952919
0.900074
0.864929
0.866477
0.923054
0.953659
0.983485
0.996217
0.995194
0.992755
0.995476
0.999987
1
1
1
0.999708
0.974927
0.953591
0.963622
0.977032
0.951437
0.908005
0.86169
0.855905
0.909168
0.942872
0.980018
0.992896
0.987484
0.982727
0.99153
0.999985
1
1
1
0.999871
0.972737
0.925902
0.964903
0.973405
0.946128
0.904821
0.849045
0.847122
0.882764
0.92984
0.970316
0.989162
0.978146
0.95902
0.988043
0.99999
1
1
1
0.999952
0.984983
0.923957
0.964371
0.96878
0.941388
0.902798
0.845205
0.849726
0.872541
0.916863
0.954561
0.980651
0.97652
0.957759
0.987807
0.999998
1
1
1
0.999994
0.995026
0.913545
0.960548
0.962088
0.931409
0.895784
0.865675
0.875809
0.879578
0.911805
0.935488
0.965373
0.97359
0.959496
0.997869
1
1
1
1
1
0.999653
0.937495
0.941527
0.947208
0.913574
0.887848
0.961583
0.949328
0.913609
0.917326
0.929339
0.950811
0.967065
0.954164
0.999842
1
1
1
0.949046
0.953666
0.948302
0.925582
0.873104
0.751821
0.730852
0.74221
0.727644
0.785551
0.779316
0.749282
0.733199
0.778572
0.888082
0.927642
0.940389
0.944393
0.933338
0.926311
0.999944
0.999796
0.999058
0.996971
0.988799
0.932712
0.838029
0.817474
0.851623
0.879221
0.889569
0.886508
0.874925
0.954662
0.997009
0.999605
0.999761
0.999887
0.999889
0.999846
1
0.999826
0.996152
0.993924
0.986534
0.956459
0.853382
0.797139
0.832458
0.849575
0.867324
0.888185
0.913713
0.989191
0.999153
0.999042
0.99896
0.999962
1
1
1
0.999802
0.987069
0.987728
0.985026
0.965894
0.872114
0.780123
0.809354
0.827929
0.844493
0.872851
0.936565
0.994295
0.996576
0.994974
0.995286
0.999884
1
1
1
0.99981
0.97846
0.971815
0.975747
0.968186
0.897944
0.781731
0.795102
0.810896
0.841886
0.862009
0.951881
0.99158
0.99027
0.985583
0.987817
0.99982
1
1
1
0.999876
0.973003
0.945278
0.955101
0.962927
0.889595
0.776232
0.788142
0.797669
0.835632
0.849493
0.950125
0.987248
0.977725
0.969351
0.975343
0.999793
1
1
1
0.999924
0.971161
0.921934
0.9504
0.949166
0.861532
0.770884
0.780414
0.784036
0.819842
0.835657
0.935977
0.983769
0.966538
0.942526
0.961493
0.999844
1
1
1
0.999965
0.984132
0.918373
0.94463
0.926131
0.834985
0.769976
0.760585
0.763151
0.794454
0.822353
0.909872
0.973706
0.968172
0.946865
0.956069
0.999952
1
1
1
0.999994
0.993512
0.906569
0.937649
0.902694
0.820789
0.773075
0.764282
0.764551
0.782906
0.808305
0.879979
0.953506
0.965566
0.948377
0.984367
0.99999
1
1
1
1
0.999094
0.890154
0.924163
0.887409
0.821375
0.773771
0.890351
0.824588
0.79108
0.806196
0.846582
0.913746
0.949657
0.940866
0.998705
1
1
1
0.961073
0.961873
0.956324
0.931019
0.857654
0.665374
0.621992
0.651794
0.610137
0.687564
0.64221
0.594705
0.625134
0.735434
0.901978
0.940289
0.952313
0.955881
0.949923
0.946902
0.999974
0.99983
0.998801
0.996637
0.982905
0.863324
0.688435
0.694983
0.71374
0.777904
0.740218
0.698122
0.732396
0.93328
0.997425
0.999481
0.999594
0.999903
0.999952
0.999942
1
0.99984
0.993461
0.99183
0.982362
0.923976
0.748689
0.694312
0.730977
0.775488
0.738138
0.720846
0.827608
0.982618
0.997813
0.9974
0.997497
0.999909
1
1
1
0.999823
0.982945
0.983158
0.980623
0.950764
0.8012
0.697236
0.730268
0.775816
0.738324
0.737952
0.888772
0.989834
0.993222
0.990793
0.991243
0.999709
1
1
1
0.999833
0.975802
0.966333
0.970439
0.960142
0.856665
0.708179
0.729017
0.771717
0.742343
0.75581
0.919555
0.986123
0.984625
0.978028
0.978298
0.999469
1
1
1
0.999877
0.97058
0.942251
0.952053
0.954194
0.849892
0.704935
0.727483
0.760142
0.748915
0.7539
0.926456
0.981067
0.969243
0.957129
0.958086
0.999271
1
1
1
0.999919
0.968604
0.924091
0.946573
0.934245
0.817312
0.699797
0.72822
0.73673
0.74596
0.74514
0.908781
0.977083
0.959423
0.934804
0.936324
0.999216
1
1
1
0.999961
0.982125
0.912488
0.937635
0.899954
0.781215
0.698485
0.718222
0.709734
0.736043
0.737053
0.872781
0.965074
0.96236
0.941574
0.924596
0.999562
1
1
1
0.999993
0.992208
0.897172
0.924423
0.860141
0.750369
0.698497
0.713638
0.708793
0.722167
0.730586
0.835753
0.94224
0.960583
0.944393
0.925378
0.99989
1
1
1
1
0.998792
0.876391
0.903967
0.822926
0.731007
0.699218
0.832417
0.74095
0.712444
0.723541
0.792888
0.897165
0.944851
0.935377
0.978328
0.999987
1
1
0.949049
0.953659
0.948286
0.925498
0.873094
0.750716
0.727552
0.744335
0.732976
0.782281
0.769286
0.741969
0.733211
0.779336
0.88859
0.927552
0.940367
0.944427
0.933353
0.926298
0.999944
0.999796
0.999057
0.996958
0.988801
0.932158
0.840859
0.815183
0.854005
0.876234
0.885174
0.883911
0.876454
0.956453
0.997082
0.999604
0.999761
0.999887
0.999889
0.999846
1
0.999826
0.996154
0.993918
0.986523
0.956387
0.854737
0.796394
0.832114
0.847547
0.864455
0.886762
0.916212
0.989773
0.999154
0.99904
0.99896
0.999962
1
1
1
0.999802
0.987062
0.987731
0.985026
0.96589
0.872453
0.780712
0.808505
0.826688
0.843382
0.873705
0.93801
0.994417
0.996578
0.994967
0.995286
0.999883
1
1
1
0.99981
0.978445
0.971835
0.975759
0.968202
0.897725
0.78204
0.794648
0.810125
0.841007
0.862663
0.952365
0.991683
0.990265
0.985573
0.987822
0.999819
1
1
1
0.999876
0.973005
0.945282
0.955104
0.962953
0.889353
0.77653
0.788498
0.797432
0.83489
0.849717
0.950493
0.9873
0.977735
0.969344
0.97532
0.999792
1
1
1
0.999924
0.971165
0.92192
0.950431
0.949118
0.861348
0.771651
0.78135
0.78431
0.819322
0.835574
0.936294
0.983866
0.966525
0.942529
0.961427
0.999843
1
1
1
0.999965
0.984139
0.918338
0.944649
0.926011
0.834982
0.771155
0.761352
0.763626
0.794391
0.822324
0.910306
0.973955
0.968214
0.946873
0.955983
0.999951
1
1
1
0.999994
0.993517
0.90654
0.937591
0.902559
0.821889
0.775128
0.765104
0.764838
0.783145
0.808299
0.880438
0.953963
0.965644
0.948411
0.984317
0.99999
1
1
1
1
0.999096
0.890105
0.924014
0.887251
0.822622
0.776543
0.891205
0.824441
0.791202
0.805755
0.84674
0.914226
0.949799
0.940919
0.998702
1
1
1
0.922866
0.931969
0.925735
0.90067
0.858354
0.798672
0.79508
0.803265
0.791997
0.832685
0.846901
0.828572
0.791594
0.792273
0.847586
0.886363
0.903548
0.908418
0.893145
0.882053
0.999793
0.999712
0.998972
0.99554
0.987232
0.973186
0.950039
0.921888
0.902426
0.917502
0.951249
0.965723
0.967715
0.973694
0.992731
0.998278
0.999537
0.999627
0.999516
0.999355
0.999998
0.999863
0.998337
0.995054
0.9861
0.970922
0.937597
0.891522
0.881117
0.874999
0.931189
0.966299
0.982883
0.995959
0.999617
0.999814
0.999808
0.999997
1
1
1
0.999751
0.991482
0.99237
0.988507
0.974601
0.940419
0.892843
0.868241
0.872439
0.928961
0.96208
0.984466
0.997779
0.998704
0.998167
0.998226
0.999992
1
1
1
0.999694
0.980937
0.981329
0.983975
0.979374
0.952959
0.900579
0.866315
0.86578
0.922826
0.953908
0.983719
0.996267
0.995184
0.992758
0.995484
0.999987
1
1
1
0.99971
0.974953
0.9536
0.963626
0.977058
0.951437
0.908742
0.863562
0.855741
0.908914
0.943108
0.980177
0.992934
0.987485
0.982737
0.991539
0.999985
1
1
1
0.999872
0.972778
0.925882
0.964901
0.973384
0.94616
0.90577
0.85081
0.847686
0.882581
0.930054
0.970527
0.989209
0.97813
0.959033
0.988048
0.99999
1
1
1
0.999952
0.985026
0.923881
0.964361
0.968728
0.941541
0.903932
0.846233
0.850406
0.872604
0.916962
0.954935
0.980841
0.976555
0.957761
0.987807
0.999998
1
1
1
0.999994
0.995045
0.913444
0.960547
0.962071
0.931837
0.897256
0.866708
0.876512
0.879675
0.911647
0.93593
0.965753
0.973662
0.959521
0.997866
1
1
1
1
1
0.999657
0.937835
0.941466
0.947248
0.914246
0.889353
0.962295
0.949496
0.913556
0.917147
0.929472
0.951113
0.967173
0.954203
0.999841
1
1
1
)
;

boundaryField
{
    aeration
    {
        type            calculated;
        value           uniform 0.5;
    }
    xsides
    {
        type            calculated;
        value           nonuniform List<scalar> 
100
(
0.922811
0.999792
0.999998
1
1
1
1
1
1
1
0.949046
0.999944
1
1
1
1
1
1
1
1
0.961073
0.999974
1
1
1
1
1
1
1
1
0.949049
0.999944
1
1
1
1
1
1
1
1
0.922866
0.999793
0.999998
1
1
1
1
1
1
1
0.882004
0.999354
1
1
1
1
1
1
1
1
0.926311
0.999846
1
1
1
1
1
1
1
1
0.946902
0.999942
1
1
1
1
1
1
1
1
0.926298
0.999846
1
1
1
1
1
1
1
1
0.882053
0.999355
1
1
1
1
1
1
1
1
)
;
    }
    zsides
    {
        type            calculated;
        value           nonuniform List<scalar> 
400
(
0.922811
0.999792
0.999998
1
1
1
1
1
1
1
0.931933
0.999712
0.999862
0.99975
0.999692
0.999708
0.999871
0.999952
0.999994
1
0.92572
0.998975
0.99834
0.991484
0.980932
0.974927
0.972737
0.984983
0.995026
0.999653
0.900718
0.995559
0.995069
0.992372
0.981327
0.953591
0.925902
0.923957
0.913545
0.937495
0.858622
0.987308
0.986136
0.988513
0.983971
0.963622
0.964903
0.964371
0.960548
0.941527
0.799331
0.973346
0.970969
0.974599
0.97935
0.977032
0.973405
0.96878
0.962088
0.947208
0.795066
0.949885
0.937158
0.940132
0.952919
0.951437
0.946128
0.941388
0.931409
0.913574
0.801836
0.921191
0.891055
0.892218
0.900074
0.908005
0.904821
0.902798
0.895784
0.887848
0.791096
0.901291
0.880603
0.867487
0.864929
0.86169
0.849045
0.845205
0.865675
0.961583
0.834595
0.918259
0.876154
0.873386
0.866477
0.855905
0.847122
0.849726
0.875809
0.949328
0.84933
0.95188
0.931804
0.929285
0.923054
0.909168
0.882764
0.872541
0.879578
0.913609
0.831571
0.965982
0.966223
0.961849
0.953659
0.942872
0.92984
0.916863
0.911805
0.917326
0.793916
0.96727
0.982282
0.984107
0.983485
0.980018
0.970316
0.954561
0.935488
0.929339
0.793877
0.972427
0.995677
0.997736
0.996217
0.992896
0.989162
0.980651
0.965373
0.950811
0.847267
0.992681
0.99962
0.998708
0.995194
0.987484
0.978146
0.97652
0.97359
0.967065
0.886246
0.998243
0.999814
0.998167
0.992755
0.982727
0.95902
0.957759
0.959496
0.954164
0.903464
0.999535
0.999808
0.998225
0.995476
0.99153
0.988043
0.987807
0.997869
0.999842
0.90821
0.999625
0.999997
0.999992
0.999987
0.999985
0.99999
0.999998
1
1
0.892912
0.999513
1
1
1
1
1
1
1
1
0.882004
0.999354
1
1
1
1
1
1
1
1
0.922866
0.999793
0.999998
1
1
1
1
1
1
1
0.931969
0.999712
0.999863
0.999751
0.999694
0.99971
0.999872
0.999952
0.999994
1
0.925735
0.998972
0.998337
0.991482
0.980937
0.974953
0.972778
0.985026
0.995045
0.999657
0.90067
0.99554
0.995054
0.99237
0.981329
0.9536
0.925882
0.923881
0.913444
0.937835
0.858354
0.987232
0.9861
0.988507
0.983975
0.963626
0.964901
0.964361
0.960547
0.941466
0.798672
0.973186
0.970922
0.974601
0.979374
0.977058
0.973384
0.968728
0.962071
0.947248
0.79508
0.950039
0.937597
0.940419
0.952959
0.951437
0.94616
0.941541
0.931837
0.914246
0.803265
0.921888
0.891522
0.892843
0.900579
0.908742
0.90577
0.903932
0.897256
0.889353
0.791997
0.902426
0.881117
0.868241
0.866315
0.863562
0.85081
0.846233
0.866708
0.962295
0.832685
0.917502
0.874999
0.872439
0.86578
0.855741
0.847686
0.850406
0.876512
0.949496
0.846901
0.951249
0.931189
0.928961
0.922826
0.908914
0.882581
0.872604
0.879675
0.913556
0.828572
0.965723
0.966299
0.96208
0.953908
0.943108
0.930054
0.916962
0.911647
0.917147
0.791594
0.967715
0.982883
0.984466
0.983719
0.980177
0.970527
0.954935
0.93593
0.929472
0.792273
0.973694
0.995959
0.997779
0.996267
0.992934
0.989209
0.980841
0.965753
0.951113
0.847586
0.992731
0.999617
0.998704
0.995184
0.987485
0.97813
0.976555
0.973662
0.967173
0.886363
0.998278
0.999814
0.998167
0.992758
0.982737
0.959033
0.957761
0.959521
0.954203
0.903548
0.999537
0.999808
0.998226
0.995484
0.991539
0.988048
0.987807
0.997866
0.999841
0.908418
0.999627
0.999997
0.999992
0.999987
0.999985
0.99999
0.999998
1
1
0.893145
0.999516
1
1
1
1
1
1
1
1
0.882053
0.999355
1
1
1
1
1
1
1
1
)
;
    }
    outlet
    {
        type            calculated;
        value           nonuniform List<scalar> 
100
(
1
1
1
1
1
1
1
1
1
1
1
1
1
1
1
0.937495
0.890154
0.876391
0.890105
0.937835
0.941527
0.924163
0.903967
0.924014
0.941466
0.947208
0.887409
0.822926
0.887251
0.947248
0.913574
0.821375
0.731007
0.822622
0.914246
0.887848
0.773771
0.699218
0.776543
0.889353
0.961583
0.890351
0.832417
0.891205
0.962295
0.949328
0.824588
0.74095
0.824441
0.949496
0.913609
0.79108
0.712444
0.791202
0.913556
0.917326
0.806196
0.723541
0.805755
0.917147
0.929339
0.846582
0.792888
0.84674
0.929472
0.950811
0.913746
0.897165
0.914226
0.951113
0.967065
0.949657
0.944851
0.949799
0.967173
0.954164
0.940866
0.935377
0.940919
0.954203
1
1
1
1
1
1
1
1
1
1
1
1
1
1
1
1
1
1
1
1
)
;
    }
}


// ************************************************************************* //
