/*--------------------------------*- C++ -*----------------------------------*\
| =========                 |                                                 |
| \\      /  F ield         | OpenFOAM: The Open Source CFD Toolbox           |
|  \\    /   O peration     | Version:  2.3.0                                 |
|   \\  /    A nd           | Web:      www.OpenFOAM.org                      |
|    \\/     M anipulation  |                                                 |
\*---------------------------------------------------------------------------*/
FoamFile
{
    version     2.0;
    format      ascii;
    class       volScalarField;
    location    "1.90108";
    object      epsilon.air;
}
// * * * * * * * * * * * * * * * * * * * * * * * * * * * * * * * * * * * * * //

dimensions      [0 2 -3 0 0 0 0];

internalField   nonuniform List<scalar> 
1000
(
0.00770139
0.0205348
0.0535413
0.10628
0.0890801
0.0754363
0.0594619
0.0296529
0.0140201
0.0161176
0.0230231
0.0320476
0.0586048
0.0624401
0.0653383
0.0830467
0.0918057
0.0373994
0.0188978
0.00755931
0.0188186
0.051925
0.0643741
0.073918
0.0422993
0.0261675
0.0228671
0.0197717
0.0202704
0.0167898
0.0248018
0.0219341
0.021208
0.0359157
0.0625986
0.102723
0.102969
0.0649738
0.0306983
0.00817767
0.0431465
0.092299
0.0730361
0.0425672
0.0291834
0.0293515
0.0376215
0.0499022
0.0326819
0.016409
0.0166467
0.0356326
0.0331148
0.0746207
0.151281
0.151228
0.152961
0.121291
0.0753208
0.0245219
0.057595
0.122082
0.0437808
0.0307607
0.0251609
0.0270923
0.0441355
0.0800219
0.0759787
0.0341488
0.0157085
0.0350226
0.0332538
0.102276
0.116387
0.124295
0.140767
0.162334
0.124066
0.0449291
0.0643597
0.1447
0.0398041
0.0210717
0.0187989
0.0220759
0.04448
0.105535
0.125761
0.0570821
0.0259102
0.028057
0.032098
0.0796091
0.0591536
0.0604751
0.104261
0.192799
0.167155
0.057207
0.0632589
0.154863
0.0402839
0.0176092
0.0177559
0.0224644
0.0625682
0.12785
0.146631
0.0846816
0.0610348
0.0479537
0.0401905
0.0496368
0.0290781
0.0280719
0.0686284
0.209228
0.187152
0.0648221
0.0533106
0.152552
0.0291299
0.00777084
0.0177549
0.0338592
0.0859842
0.127822
0.129264
0.0953494
0.105873
0.101534
0.0776183
0.0424397
0.0189071
0.00779911
0.0393061
0.191211
0.192771
0.0560194
0.0384099
0.124098
0.0207959
0.0122496
0.0203809
0.0414497
0.0874647
0.114337
0.0742736
0.082339
0.122044
0.149406
0.128753
0.0562038
0.0176697
0.00881622
0.0273305
0.147834
0.159023
0.0398914
0.0195833
0.0839502
0.0227342
0.0205764
0.0263092
0.0476551
0.0771034
0.0977889
0.0482035
0.0619944
0.116207
0.171843
0.1474
0.0813412
0.0251853
0.00878647
0.0399047
0.0799329
0.102978
0.0193422
0.00338584
0.0219579
0.0154836
0.0150387
0.0371758
0.0563331
0.0665302
0.0761046
0.00784029
0.0230269
0.10009
0.175811
0.129907
0.0920829
0.0367404
0.0201924
0.019246
0.0182449
0.0191537
0.0036266
0.00410376
0.00765058
0.0114687
0.0220556
0.0166192
0.00986647
0.00559101
0.00513275
0.00495715
0.00476537
0.00471344
0.00526059
0.00559147
0.00749972
0.0115576
0.0161015
0.0208776
0.0107663
0.00706416
0.00407892
0.0152745
0.0243886
0.0248852
0.025808
0.013636
0.00898725
0.00855029
0.00420801
0.00314434
0.00279162
0.00250735
0.00463106
0.00961804
0.00793109
0.0287052
0.0510152
0.0507772
0.0441006
0.0292725
0.0105622
0.0193111
0.0296897
0.0198877
0.013226
0.00977448
0.0101571
0.0148015
0.0132759
0.00587393
0.00439917
0.00513207
0.0211475
0.0127636
0.0121007
0.0499387
0.048692
0.0535905
0.064205
0.0527502
0.0167952
0.0192487
0.0297936
0.0121481
0.00914656
0.00808799
0.00907885
0.0160971
0.0245558
0.0153476
0.0100408
0.00623101
0.0243218
0.0110661
0.019448
0.0280701
0.0244163
0.0283408
0.0549703
0.0542849
0.0181988
0.0152493
0.0278968
0.0118231
0.00855137
0.0068024
0.00756372
0.0151072
0.0292251
0.02605
0.0168084
0.00749131
0.0220468
0.0106541
0.0158139
0.0136309
0.0136196
0.016695
0.0461764
0.0443386
0.0158245
0.0108099
0.0255477
0.0109483
0.00821344
0.00697244
0.00798811
0.0172864
0.0346513
0.0361111
0.025735
0.0159817
0.0202783
0.0117992
0.0124904
0.00945582
0.0106608
0.0131033
0.036121
0.0365586
0.0112927
0.00675542
0.0196907
0.00766627
0.00596934
0.0074682
0.0109084
0.0240991
0.0381219
0.0376789
0.0306073
0.030463
0.0242736
0.0158501
0.0122803
0.00792985
0.00636618
0.0113408
0.0249828
0.0272607
0.00678925
0.00409565
0.0132077
0.00556284
0.00853487
0.00892043
0.0141539
0.0288227
0.0382175
0.0299901
0.0293595
0.0372228
0.0351699
0.0258425
0.0160639
0.00848601
0.00667332
0.0098656
0.0163594
0.0180667
0.00392881
0.00169216
0.00702895
0.00354846
0.0126999
0.0119864
0.0182634
0.0304532
0.0367376
0.0211884
0.0246745
0.0402467
0.044109
0.0360817
0.0239
0.0113791
0.00746571
0.00957499
0.00640437
0.00749254
0.00161873
0.00148422
0.00235463
0.00247967
0.0106651
0.0160303
0.0222492
0.0280692
0.0304047
0.00536005
0.0126699
0.0393284
0.0521915
0.0392404
0.0283078
0.0165846
0.0118238
0.00556802
0.00218296
0.0023709
0.00148569
0.00287164
0.0050863
0.00701205
0.0115281
0.0105008
0.0106005
0.00870434
0.00680065
0.009034
0.00502193
0.00639959
0.012017
0.00838311
0.00738714
0.00953195
0.0113116
0.0112091
0.00659366
0.00506753
0.00321635
0.00828859
0.00896632
0.0119192
0.0116836
0.00677114
0.00750878
0.00776515
0.00654163
0.00681713
0.00388844
0.00523176
0.00821076
0.00683201
0.005716
0.0182531
0.0267873
0.0261176
0.0196635
0.0148324
0.00765469
0.00816015
0.00849068
0.00692025
0.00627954
0.00530741
0.00653829
0.00821249
0.00628472
0.00473007
0.00384182
0.00429444
0.00632917
0.0066459
0.00607497
0.0185667
0.0164124
0.016051
0.0209199
0.0173634
0.00812444
0.00581661
0.00754949
0.00517106
0.00473916
0.00461633
0.0057575
0.0102138
0.00847553
0.00522148
0.00618804
0.00425306
0.0069424
0.00645215
0.00758197
0.00904373
0.00735461
0.00674201
0.012047
0.0108898
0.00619858
0.00408371
0.00594996
0.00561363
0.00514166
0.00429557
0.00486239
0.0100206
0.0127226
0.00789456
0.00970262
0.00488737
0.00778028
0.00627533
0.00678294
0.00615969
0.00614409
0.00582848
0.00842435
0.00684883
0.00426711
0.00277315
0.0048451
0.00542426
0.00552389
0.00465181
0.00516815
0.010859
0.0163441
0.0141028
0.0141336
0.00914383
0.00867695
0.0067833
0.00649815
0.0058484
0.00657213
0.00673014
0.00646534
0.00495537
0.00272707
0.001954
0.00374201
0.00481571
0.0053344
0.00506995
0.00627876
0.013768
0.019395
0.0196313
0.0178921
0.0172177
0.0101205
0.0081223
0.00683399
0.00543269
0.00543107
0.00725673
0.00495952
0.00312108
0.00196942
0.00165113
0.00254381
0.00393607
0.00757409
0.00623881
0.00909842
0.017389
0.0218156
0.0190651
0.0183918
0.0212479
0.0139261
0.011503
0.00871492
0.00594828
0.00572697
0.00742091
0.0040888
0.00222467
0.00157572
0.00132441
0.00177031
0.00240082
0.0108287
0.00886845
0.0127373
0.0197466
0.0225953
0.015486
0.0167471
0.0240063
0.0174163
0.0153526
0.0112384
0.00771169
0.00660334
0.00708669
0.00233863
0.00147687
0.0013499
0.0013852
0.00139955
0.00204714
0.0096215
0.0117838
0.0155895
0.0189866
0.02022
0.00512382
0.0104218
0.0247241
0.024706
0.020075
0.0159472
0.011345
0.00958158
0.00168987
0.00152993
0.00130022
0.00139163
0.00410743
0.00766201
0.0115
0.0220953
0.0166368
0.00984931
0.00561678
0.00510372
0.0049234
0.0047721
0.00473501
0.00527039
0.00556693
0.00765327
0.0115337
0.016086
0.020877
0.0107474
0.00706243
0.00408089
0.0152752
0.0244242
0.0249326
0.0259029
0.0136807
0.00896573
0.00855818
0.00426521
0.00310316
0.00283798
0.00260886
0.00467807
0.00991791
0.00804408
0.0292612
0.0508082
0.0510016
0.0437934
0.0292825
0.0105584
0.0193137
0.0296944
0.0198998
0.013243
0.00979587
0.0101597
0.0148973
0.0131518
0.00589099
0.00437421
0.00464867
0.0193737
0.0129354
0.0125643
0.0497736
0.0486404
0.0536132
0.0640715
0.052716
0.0168035
0.019253
0.0298065
0.0121319
0.00913925
0.0080827
0.00907094
0.0161004
0.024463
0.0153574
0.0100936
0.00609146
0.0238221
0.0112539
0.0199066
0.0280777
0.0243507
0.0283142
0.0549757
0.0542643
0.0182
0.015257
0.0279169
0.0118073
0.00853988
0.00679411
0.00755221
0.0150947
0.0290231
0.0257648
0.0168692
0.00745829
0.0217937
0.0107409
0.016086
0.0136367
0.013602
0.0166988
0.0460976
0.0442729
0.0158263
0.0108176
0.0255439
0.0109364
0.00820544
0.00696654
0.0079784
0.0172638
0.0342585
0.0356555
0.02563
0.016076
0.0201005
0.0118864
0.0125951
0.00946805
0.0106573
0.0131066
0.0361018
0.0365028
0.0112933
0.00675349
0.0197003
0.00766156
0.00597751
0.00746837
0.0109096
0.0240324
0.0376338
0.0372055
0.0303693
0.0304155
0.024064
0.0159243
0.0123635
0.00793782
0.0063683
0.011348
0.0250054
0.0272603
0.0067886
0.00408823
0.0132118
0.00556198
0.00855544
0.00893223
0.0141492
0.0286968
0.037704
0.0296185
0.0290818
0.0370309
0.0349471
0.0258299
0.0161128
0.00849289
0.00667646
0.00987032
0.0163859
0.0181516
0.00392625
0.00169621
0.00702868
0.00355306
0.0127112
0.012031
0.0182745
0.0302216
0.0362218
0.020878
0.0243682
0.0399269
0.0437674
0.0359739
0.0238693
0.0113734
0.00746925
0.0095677
0.00640623
0.00755136
0.00161896
0.00148336
0.00235149
0.00248215
0.0106181
0.0160604
0.0222402
0.0278119
0.0299416
0.00528026
0.0125459
0.039053
0.0519325
0.0390848
0.0282103
0.0165795
0.0118463
0.00557745
0.00218338
0.0023884
0.00148543
0.00770764
0.0205213
0.0536456
0.106387
0.0890943
0.0753647
0.0594831
0.0288494
0.0149513
0.0153516
0.0210778
0.034984
0.0463841
0.071018
0.0654447
0.0831595
0.0917494
0.0373179
0.018827
0.00756378
0.0188448
0.0519963
0.0644147
0.073887
0.0422721
0.0263545
0.0229752
0.019961
0.0205535
0.0178497
0.0309877
0.0289347
0.0275432
0.0346431
0.0637473
0.102457
0.103269
0.0646364
0.03086
0.00818885
0.0431488
0.0923382
0.0729494
0.0424841
0.0291913
0.029394
0.0375332
0.0500737
0.0325752
0.0166685
0.018363
0.0376921
0.0344762
0.077434
0.151005
0.151342
0.153228
0.121123
0.0753767
0.024537
0.0575901
0.122144
0.0437532
0.0307338
0.0251377
0.0270984
0.0439682
0.079217
0.075095
0.0346158
0.0161433
0.0362695
0.034335
0.103832
0.116373
0.124078
0.140689
0.162315
0.124007
0.0449332
0.0643538
0.144728
0.0397813
0.021055
0.018783
0.022064
0.0443892
0.104489
0.123844
0.0574858
0.0260477
0.0282179
0.0324935
0.0805766
0.0590916
0.0604782
0.104364
0.192736
0.167071
0.0572091
0.0632577
0.154908
0.0402656
0.0176047
0.0177518
0.0224534
0.06253
0.126099
0.144101
0.0845017
0.0613941
0.0473953
0.0405074
0.0500249
0.029112
0.0280715
0.0686884
0.209189
0.187032
0.064821
0.0533123
0.152561
0.0291274
0.00779147
0.0177612
0.033888
0.0857618
0.125799
0.127202
0.0946059
0.105951
0.100916
0.077376
0.0425937
0.0189204
0.00780062
0.0393527
0.191264
0.192678
0.0560179
0.0384064
0.124121
0.0208299
0.0122876
0.0204118
0.0414305
0.0870747
0.112344
0.0731806
0.0815146
0.121717
0.149034
0.128227
0.0561286
0.017652
0.00881372
0.0273418
0.147947
0.159005
0.0398846
0.0195928
0.083934
0.0228674
0.020577
0.0264127
0.0476372
0.0764211
0.0958209
0.0472748
0.0611499
0.115733
0.171648
0.147138
0.0808113
0.0251209
0.0087821
0.0399339
0.0799493
0.102942
0.0193348
0.00336373
0.0219677
0.0157281
0.0148915
0.0372194
0.0562788
0.0655838
0.0744663
0.00765902
0.0228306
0.0997133
0.175724
0.129525
0.0916794
0.0366456
0.020209
0.01929
0.0182507
0.0191873
0.00362091
)
;

boundaryField
{
    aeration
    {
        type            fixedValue;
        value           uniform 0.00015;
    }
    xsides
    {
        type            epsilonWallFunction;
        value           nonuniform List<scalar> 
100
(
0.0103642
0.112151
0.210477
0.253552
0.26526
0.235286
0.1908
0.129984
0.0672624
0.0169035
0.00176818
0.0140763
0.0175999
0.0176346
0.0139587
0.00983575
0.00673305
0.00385387
0.00272373
0.00187573
0.00135209
0.00686845
0.00761675
0.0068977
0.00472777
0.00385684
0.00287686
0.00232957
0.00209488
0.0018179
0.0017711
0.014128
0.0176461
0.0176831
0.0139885
0.00986778
0.00673757
0.00385503
0.00272037
0.00187565
0.0103878
0.112347
0.210365
0.253476
0.265196
0.235288
0.190794
0.129973
0.0672977
0.0168642
0.0101035
0.0541857
0.144254
0.216671
0.247584
0.245414
0.200224
0.13552
0.066919
0.0171729
0.00174836
0.0100359
0.0159792
0.0174168
0.014413
0.010231
0.0067655
0.00396606
0.00275727
0.00187767
0.00153078
0.006163
0.00764
0.00730355
0.00491129
0.0039678
0.00288663
0.00242266
0.00212596
0.00182508
0.00174986
0.0100565
0.0159851
0.017429
0.0144188
0.0102357
0.00676428
0.00396697
0.00275668
0.00187772
0.0101185
0.0543372
0.14428
0.216681
0.247577
0.245401
0.20021
0.135503
0.0668998
0.0171623
)
;
        Cmu             0.09;
        kappa           0.41;
        E               9.8;
        value           nonuniform List<scalar> 
100
(
0.0103642
0.112151
0.210477
0.253552
0.26526
0.235286
0.1908
0.129984
0.0672624
0.0169035
0.00176818
0.0140763
0.0175999
0.0176346
0.0139587
0.00983575
0.00673305
0.00385387
0.00272373
0.00187573
0.00135209
0.00686845
0.00761675
0.0068977
0.00472777
0.00385684
0.00287686
0.00232957
0.00209488
0.0018179
0.0017711
0.014128
0.0176461
0.0176831
0.0139885
0.00986778
0.00673757
0.00385503
0.00272037
0.00187565
0.0103878
0.112347
0.210365
0.253476
0.265196
0.235288
0.190794
0.129973
0.0672977
0.0168642
0.0101035
0.0541857
0.144254
0.216671
0.247584
0.245414
0.200224
0.13552
0.066919
0.0171729
0.00174836
0.0100359
0.0159792
0.0174168
0.014413
0.010231
0.0067655
0.00396606
0.00275727
0.00187767
0.00153078
0.006163
0.00764
0.00730355
0.00491129
0.0039678
0.00288663
0.00242266
0.00212596
0.00182508
0.00174986
0.0100565
0.0159851
0.017429
0.0144188
0.0102357
0.00676428
0.00396697
0.00275668
0.00187772
0.0101185
0.0543372
0.14428
0.216681
0.247577
0.245401
0.20021
0.135503
0.0668998
0.0171623
)
;
    }
    zsides
    {
        type            epsilonWallFunction;
        value           nonuniform List<scalar> 
400
(
0.0103642
0.112151
0.210477
0.253552
0.26526
0.235286
0.1908
0.129984
0.0672624
0.0169035
0.0368783
0.372446
0.583225
0.695648
0.757443
0.78186
0.696876
0.5027
0.297302
0.0779449
0.0772492
0.373348
0.435299
0.1686
0.110226
0.103137
0.0718452
0.0503752
0.0491814
0.0593436
0.202629
0.29116
0.174484
0.136572
0.0768331
0.0611289
0.039749
0.0570799
0.0808499
0.0654242
1.46992e-19
0.0984294
0.0974351
0.0922042
0.0692824
0.0562251
0.0611152
0.0745611
0.104169
0.126493
5.28064e-20
0.0036306
0.077851
0.0808487
0.0724605
0.0729871
0.10212
0.137299
0.167976
0.186635
5.28064e-20
7.70784e-20
0.0882911
0.119315
0.12794
0.158979
0.228016
0.24887
0.226682
0.195904
5.28064e-20
5.32762e-20
0.098731
0.176063
0.223543
0.279497
0.302311
0.290015
0.268541
0.209447
5.28064e-20
5.2807e-20
0.0546348
0.150568
0.256786
0.330016
0.310944
0.204992
0.131587
0.0227864
5.28064e-20
5.30066e-20
0.0242029
0.068488
0.127644
0.202027
0.23287
0.209001
0.156004
0.0702436
5.28064e-20
7.91284e-20
1.34154e-05
0.00184951
0.0285445
0.133266
0.240983
0.280487
0.270826
0.245315
5.28064e-20
8.78933e-20
8.70926e-20
8.55897e-20
0.0139673
0.0766063
0.183557
0.297202
0.362302
0.409988
5.28064e-20
8.895e-20
4.67132e-16
2.43584e-08
0.047422
0.0996017
0.184428
0.304643
0.341866
0.326531
5.28064e-20
4.12642e-15
0.220586
0.541534
0.393454
0.216432
0.157632
0.171733
0.235947
0.270142
5.28064e-20
0.129032
1.02675
0.783923
0.30788
0.113612
0.0713742
0.0734514
0.0958068
0.138529
7.00659e-19
0.456515
1.10009
0.741241
0.240087
0.0973109
0.0430613
0.0471465
0.0530866
0.08883
0.161951
0.771078
1.08889
0.76581
0.37944
0.201621
0.116598
0.0937587
0.226831
0.0420882
0.0580206
0.473344
0.90842
1.03013
1.132
1.10558
0.877364
0.603236
0.288759
0.0447234
0.0344896
0.263082
0.578066
0.839232
0.972359
1.00494
0.873247
0.63469
0.353785
0.0809471
0.0101035
0.0541857
0.144254
0.216671
0.247584
0.245414
0.200224
0.13552
0.066919
0.0171729
0.0103878
0.112347
0.210365
0.253476
0.265196
0.235288
0.190794
0.129973
0.0672977
0.0168642
0.0369246
0.373287
0.583453
0.6963
0.757745
0.782155
0.696896
0.50285
0.297212
0.0779677
0.0776123
0.373685
0.433809
0.168214
0.110092
0.103073
0.0718648
0.0504742
0.0496659
0.0605769
0.202916
0.290775
0.174187
0.136333
0.0766976
0.061082
0.0398787
0.0574017
0.0809513
0.0647222
1.47512e-19
0.0982393
0.0974894
0.0920622
0.0692052
0.0561903
0.0611344
0.0747549
0.104942
0.126795
5.28064e-20
0.00325821
0.0778089
0.0807316
0.0723155
0.0729027
0.102154
0.137143
0.168109
0.186543
5.28064e-20
7.72816e-20
0.0888271
0.119361
0.127736
0.158678
0.227216
0.247603
0.224669
0.193119
5.28064e-20
5.33758e-20
0.0987929
0.174316
0.220992
0.275177
0.297115
0.284711
0.263225
0.204808
5.28064e-20
5.28075e-20
0.0547441
0.148851
0.252765
0.324627
0.306099
0.201463
0.128473
0.0220637
5.28064e-20
5.29676e-20
0.0237698
0.0689289
0.128141
0.200936
0.230508
0.206269
0.153082
0.069112
5.28064e-20
7.85214e-20
1.29659e-06
0.00152202
0.0285788
0.133973
0.240511
0.278665
0.268115
0.243257
5.28064e-20
8.77644e-20
8.70789e-20
8.56555e-20
0.0135249
0.0754064
0.182044
0.296038
0.360737
0.408517
5.28064e-20
8.90724e-20
3.68015e-16
3.97801e-08
0.0479003
0.100182
0.184272
0.304561
0.3416
0.32529
5.28064e-20
1.60972e-13
0.23702
0.559476
0.402914
0.219661
0.159128
0.172421
0.235035
0.269334
5.28064e-20
0.134561
1.02262
0.782534
0.307555
0.113766
0.0714343
0.0735412
0.095718
0.138521
4.55938e-19
0.460065
1.0978
0.738712
0.239891
0.0973495
0.0431515
0.0472599
0.0532585
0.0892683
0.161963
0.772651
1.09245
0.76465
0.380023
0.201981
0.11692
0.094052
0.227793
0.0422915
0.0578593
0.469142
0.904941
1.0299
1.13111
1.10515
0.877874
0.604105
0.288819
0.0447485
0.0343939
0.264468
0.577881
0.838344
0.971403
1.00395
0.872605
0.634677
0.353623
0.0810146
0.0101185
0.0543372
0.14428
0.216681
0.247577
0.245401
0.20021
0.135503
0.0668998
0.0171623
)
;
        Cmu             0.09;
        kappa           0.41;
        E               9.8;
        value           nonuniform List<scalar> 
400
(
0.0103642
0.112151
0.210477
0.253552
0.26526
0.235286
0.1908
0.129984
0.0672624
0.0169035
0.0368783
0.372446
0.583225
0.695648
0.757443
0.78186
0.696876
0.5027
0.297302
0.0779449
0.0772492
0.373348
0.435299
0.1686
0.110226
0.103137
0.0718452
0.0503752
0.0491814
0.0593436
0.202629
0.29116
0.174484
0.136572
0.0768331
0.0611289
0.039749
0.0570799
0.0808499
0.0654242
1.46992e-19
0.0984294
0.0974351
0.0922042
0.0692824
0.0562251
0.0611152
0.0745611
0.104169
0.126493
5.28064e-20
0.0036306
0.077851
0.0808487
0.0724605
0.0729871
0.10212
0.137299
0.167976
0.186635
5.28064e-20
7.70784e-20
0.0882911
0.119315
0.12794
0.158979
0.228016
0.24887
0.226682
0.195904
5.28064e-20
5.32762e-20
0.098731
0.176063
0.223543
0.279497
0.302311
0.290015
0.268541
0.209447
5.28064e-20
5.2807e-20
0.0546348
0.150568
0.256786
0.330016
0.310944
0.204992
0.131587
0.0227864
5.28064e-20
5.30066e-20
0.0242029
0.068488
0.127644
0.202027
0.23287
0.209001
0.156004
0.0702436
5.28064e-20
7.91284e-20
1.34154e-05
0.00184951
0.0285445
0.133266
0.240983
0.280487
0.270826
0.245315
5.28064e-20
8.78933e-20
8.70926e-20
8.55897e-20
0.0139673
0.0766063
0.183557
0.297202
0.362302
0.409988
5.28064e-20
8.895e-20
4.67132e-16
2.43584e-08
0.047422
0.0996017
0.184428
0.304643
0.341866
0.326531
5.28064e-20
4.12642e-15
0.220586
0.541534
0.393454
0.216432
0.157632
0.171733
0.235947
0.270142
5.28064e-20
0.129032
1.02675
0.783923
0.30788
0.113612
0.0713742
0.0734514
0.0958068
0.138529
7.00659e-19
0.456515
1.10009
0.741241
0.240087
0.0973109
0.0430613
0.0471465
0.0530866
0.08883
0.161951
0.771078
1.08889
0.76581
0.37944
0.201621
0.116598
0.0937587
0.226831
0.0420882
0.0580206
0.473344
0.90842
1.03013
1.132
1.10558
0.877364
0.603236
0.288759
0.0447234
0.0344896
0.263082
0.578066
0.839232
0.972359
1.00494
0.873247
0.63469
0.353785
0.0809471
0.0101035
0.0541857
0.144254
0.216671
0.247584
0.245414
0.200224
0.13552
0.066919
0.0171729
0.0103878
0.112347
0.210365
0.253476
0.265196
0.235288
0.190794
0.129973
0.0672977
0.0168642
0.0369246
0.373287
0.583453
0.6963
0.757745
0.782155
0.696896
0.50285
0.297212
0.0779677
0.0776123
0.373685
0.433809
0.168214
0.110092
0.103073
0.0718648
0.0504742
0.0496659
0.0605769
0.202916
0.290775
0.174187
0.136333
0.0766976
0.061082
0.0398787
0.0574017
0.0809513
0.0647222
1.47512e-19
0.0982393
0.0974894
0.0920622
0.0692052
0.0561903
0.0611344
0.0747549
0.104942
0.126795
5.28064e-20
0.00325821
0.0778089
0.0807316
0.0723155
0.0729027
0.102154
0.137143
0.168109
0.186543
5.28064e-20
7.72816e-20
0.0888271
0.119361
0.127736
0.158678
0.227216
0.247603
0.224669
0.193119
5.28064e-20
5.33758e-20
0.0987929
0.174316
0.220992
0.275177
0.297115
0.284711
0.263225
0.204808
5.28064e-20
5.28075e-20
0.0547441
0.148851
0.252765
0.324627
0.306099
0.201463
0.128473
0.0220637
5.28064e-20
5.29676e-20
0.0237698
0.0689289
0.128141
0.200936
0.230508
0.206269
0.153082
0.069112
5.28064e-20
7.85214e-20
1.29659e-06
0.00152202
0.0285788
0.133973
0.240511
0.278665
0.268115
0.243257
5.28064e-20
8.77644e-20
8.70789e-20
8.56555e-20
0.0135249
0.0754064
0.182044
0.296038
0.360737
0.408517
5.28064e-20
8.90724e-20
3.68015e-16
3.97801e-08
0.0479003
0.100182
0.184272
0.304561
0.3416
0.32529
5.28064e-20
1.60972e-13
0.23702
0.559476
0.402914
0.219661
0.159128
0.172421
0.235035
0.269334
5.28064e-20
0.134561
1.02262
0.782534
0.307555
0.113766
0.0714343
0.0735412
0.095718
0.138521
4.55938e-19
0.460065
1.0978
0.738712
0.239891
0.0973495
0.0431515
0.0472599
0.0532585
0.0892683
0.161963
0.772651
1.09245
0.76465
0.380023
0.201981
0.11692
0.094052
0.227793
0.0422915
0.0578593
0.469142
0.904941
1.0299
1.13111
1.10515
0.877874
0.604105
0.288819
0.0447485
0.0343939
0.264468
0.577881
0.838344
0.971403
1.00395
0.872605
0.634677
0.353623
0.0810146
0.0101185
0.0543372
0.14428
0.216681
0.247577
0.245401
0.20021
0.135503
0.0668998
0.0171623
)
;
    }
    outlet
    {
        type            inletOutlet;
        phi             phi.air;
        inletValue      uniform 0.00015;
        value           nonuniform List<scalar> 
100
(
0.00015
0.00015
0.00015
0.00015
0.00015
0.00015
0.00015
0.00015
0.00015
0.00015
0.00015
0.00015
0.00015
0.00015
0.00015
0.0150387
0.0106651
0.0096215
0.0106181
0.0148915
0.0371758
0.0160303
0.0117838
0.0160604
0.0372194
0.0563331
0.0222492
0.0155895
0.0222402
0.0562788
0.0665302
0.0280692
0.0189866
0.0278119
0.0655838
0.0761046
0.0304047
0.02022
0.0299416
0.0744663
0.00784029
0.00536005
0.00512382
0.00528026
0.00765902
0.0230269
0.0126699
0.0104218
0.0125459
0.0228306
0.10009
0.0393284
0.0247241
0.039053
0.0997133
0.175811
0.0521915
0.024706
0.0519325
0.175724
0.129907
0.0392404
0.020075
0.0390848
0.129525
0.0920829
0.0283078
0.0159472
0.0282103
0.0916794
0.0367404
0.0165846
0.011345
0.0165795
0.0366456
0.0201924
0.0118238
0.00958158
0.0118463
0.020209
0.00015
0.00015
0.00015
0.00015
0.00015
0.00015
0.00015
0.00015
0.00015
0.00015
0.00015
0.00015
0.00015
0.00015
0.00015
0.00015
0.00015
0.00015
0.00015
0.00015
)
;
    }
}


// ************************************************************************* //
