/*--------------------------------*- C++ -*----------------------------------*\
| =========                 |                                                 |
| \\      /  F ield         | OpenFOAM: The Open Source CFD Toolbox           |
|  \\    /   O peration     | Version:  2.3.0                                 |
|   \\  /    A nd           | Web:      www.OpenFOAM.org                      |
|    \\/     M anipulation  |                                                 |
\*---------------------------------------------------------------------------*/
FoamFile
{
    version     2.0;
    format      ascii;
    class       surfaceScalarField;
    location    "1.90108";
    object      phi.air;
}
// * * * * * * * * * * * * * * * * * * * * * * * * * * * * * * * * * * * * * //

dimensions      [0 3 -1 0 0 0 0];

internalField   nonuniform List<scalar> 
2650
(
4.49047e-08
-1.63854e-08
-2.21526e-08
1.08681e-07
-3.64624e-08
-2.05196e-08
1.41668e-07
-1.73812e-08
-8.77508e-09
1.32728e-07
2.004e-08
-4.70302e-09
1.1514e-07
2.87284e-08
-5.13768e-09
7.6775e-08
1.3618e-08
3.0418e-08
4.32148e-08
-7.88393e-09
4.68128e-08
7.36553e-09
-1.5039e-08
5.64835e-08
-2.57458e-08
-8.25438e-09
4.7013e-08
-3.69535e-08
-2.30877e-08
3.99663e-08
-5.33788e-08
-3.09747e-08
5.32547e-08
-7.28798e-08
-2.31479e-08
4.81094e-08
-1.00286e-07
-2.38477e-09
3.48758e-08
-1.36226e-07
1.66477e-08
2.48188e-08
-1.50609e-07
3.48068e-08
-1.45155e-08
-1.43989e-07
1.30919e-08
-1.29953e-08
-1.15539e-07
-7.33553e-09
-1.44061e-08
-6.69277e-08
-2.12452e-08
-2.06156e-08
-2.80917e-08
-1.19091e-08
-2.06155e-08
-4.82627e-09
-1.70917e-08
3.90732e-08
-5.14931e-08
-3.51383e-09
7.47698e-08
-6.6366e-08
-5.71574e-09
1.03657e-07
-4.75561e-08
1.28621e-09
1.11339e-07
9.0736e-09
3.41335e-09
1.06585e-07
3.74343e-08
-3.56459e-09
1.08563e-07
4.24645e-08
-3.03392e-08
8.82709e-08
3.00263e-08
-1.7402e-08
4.02327e-08
2.32957e-08
1.0079e-08
-1.79676e-08
2.8255e-08
2.24297e-08
-7.24715e-08
9.45015e-09
2.27641e-08
-1.13504e-07
-1.15881e-08
2.23628e-08
-1.50194e-07
-2.25849e-09
1.61014e-08
-1.64572e-07
3.24726e-08
-2.01984e-08
-1.44853e-07
5.54409e-08
-5.84228e-08
-1.3687e-07
3.00578e-08
-2.68261e-09
-1.22624e-07
-3.69099e-09
2.86183e-09
-9.23201e-08
-3.67596e-08
-6.8952e-10
-6.18973e-08
-4.92695e-08
-2.26313e-09
-2.65729e-08
-4.17874e-08
-6.31174e-09
-2.55832e-08
-6.42456e-09
4.1122e-08
-9.26567e-08
-9.3007e-10
7.48506e-08
-9.62306e-08
-3.93595e-09
8.65149e-08
-6.35665e-08
4.30639e-09
8.77372e-08
4.94546e-09
2.80127e-09
8.22312e-08
4.13642e-08
1.51685e-09
7.74503e-08
5.83437e-08
-1.11838e-08
6.72875e-08
6.90136e-08
-2.9053e-08
3.07094e-08
8.60246e-08
-2.63449e-08
-1.05815e-08
7.73171e-08
-7.83712e-09
-4.0205e-08
4.59741e-08
-6.84564e-09
-8.06529e-08
3.32112e-08
-3.93947e-09
-1.26503e-07
3.72353e-08
6.6732e-09
-1.28059e-07
7.42671e-08
-4.00855e-08
-1.29584e-07
7.79273e-08
-2.07657e-08
-1.4088e-07
3.29646e-08
8.3827e-09
-1.4148e-07
-8.71717e-09
5.68545e-09
-1.16984e-07
-5.91684e-08
-2.1061e-09
-7.81303e-08
-8.39288e-08
-3.99e-09
-3.49634e-08
-7.84363e-08
-8.11971e-09
-5.71209e-08
-4.9625e-09
3.67191e-08
-1.30759e-07
9.4094e-13
7.03865e-08
-1.28342e-07
-1.56578e-09
7.4711e-08
-7.79482e-08
9.96375e-09
7.51596e-08
2.9242e-09
1.39432e-09
7.0546e-08
4.4965e-08
8.93566e-10
6.53766e-08
6.83757e-08
-4.99473e-09
5.45136e-08
9.60562e-08
-1.62367e-08
2.83917e-08
1.23828e-07
-1.16789e-08
-1.84064e-09
1.11371e-07
-3.84224e-09
-3.0942e-08
6.7964e-08
7.33374e-09
-7.00466e-08
7.05418e-08
2.04942e-09
-1.00574e-07
7.96376e-08
-1.17642e-08
-9.68333e-08
1.09642e-07
-3.9001e-08
-1.12118e-07
9.41475e-08
-7.45616e-10
-1.30984e-07
4.17571e-08
9.94922e-09
-1.37456e-07
-7.59573e-09
5.20377e-09
-1.23127e-07
-8.29684e-08
9.41893e-09
-8.3446e-08
-1.20932e-07
-2.40063e-09
-4.11415e-08
-1.18978e-07
-2.11116e-09
-9.76248e-08
-1.23647e-09
2.828e-08
-1.58599e-07
-7.93904e-10
5.47881e-08
-1.53678e-07
-1.03827e-09
6.30656e-08
-9.77293e-08
1.11778e-08
5.86757e-08
5.3837e-09
1.56486e-09
5.54752e-08
4.67883e-08
1.31533e-09
4.69982e-08
7.62191e-08
5.30936e-10
3.55164e-08
1.16595e-07
-8.96128e-09
1.73547e-08
1.47433e-07
-5.40456e-09
6.95904e-09
1.23326e-07
-1.54526e-09
-9.97692e-09
7.97407e-08
5.27749e-09
-4.25097e-08
9.83655e-08
4.82149e-09
-6.83962e-08
1.25205e-07
-1.97813e-08
-6.54396e-08
1.32249e-07
-2.56211e-08
-8.41488e-08
1.05533e-07
7.24375e-09
-1.07408e-07
5.65669e-08
8.25133e-09
-1.16754e-07
-3.58539e-09
4.89162e-09
-1.18868e-07
-1.03429e-07
2.24297e-08
-8.0072e-08
-1.56722e-07
-2.69005e-09
-3.91987e-08
-1.57807e-07
-1.91806e-09
-1.36089e-07
-7.041e-10
1.70034e-08
-1.74698e-07
-8.7643e-10
3.15776e-08
-1.68024e-07
-7.29936e-11
3.83e-08
-1.13356e-07
8.63291e-09
3.13722e-08
6.80763e-09
4.90186e-09
2.40027e-08
5.11759e-08
2.69072e-09
8.75409e-09
8.84564e-08
2.8363e-09
-9.39001e-10
1.34699e-07
-8.353e-09
1.79784e-09
1.45945e-07
-1.37007e-09
1.49327e-08
1.11872e-07
-1.72147e-09
1.06282e-08
8.09145e-08
3.12484e-09
-4.895e-09
1.10096e-07
3.78619e-09
-3.26993e-08
1.69622e-07
-1.67322e-08
-4.53039e-08
1.59328e-07
-1.45662e-08
-5.47537e-08
1.08342e-07
6.41004e-09
-7.11305e-08
6.73914e-08
5.23013e-09
-8.23596e-08
4.21768e-09
2.59197e-09
-9.6113e-08
-1.20653e-07
3.06729e-08
-6.27984e-08
-1.85792e-07
-3.92062e-09
-3.10498e-08
-1.87742e-07
-1.57625e-09
-1.66297e-07
-7.30537e-10
7.98817e-09
-1.82e-07
-6.36222e-10
1.14626e-08
-1.71172e-07
-3.59751e-10
8.83459e-10
-1.03601e-07
5.80479e-10
-1.47543e-08
1.87736e-08
3.4672e-09
-2.05289e-08
5.26475e-08
4.0784e-09
-3.03828e-08
9.2591e-08
5.52083e-09
-2.30142e-08
1.29357e-07
-2.16733e-09
-1.04421e-08
1.33573e-07
-3.09599e-10
2.30005e-08
8.22396e-08
-3.85197e-09
2.81868e-08
7.33618e-08
2.35291e-09
2.11258e-08
1.13234e-07
4.01517e-09
1.08589e-08
1.84259e-07
-4.67189e-09
-3.44746e-09
1.81891e-07
-8.41972e-09
-1.87976e-08
1.18603e-07
4.80573e-09
-1.39262e-08
5.71726e-08
5.0758e-09
-2.57166e-08
1.30141e-08
2.45181e-09
-5.40173e-08
-1.12757e-07
1.98892e-08
-3.76919e-08
-1.99372e-07
-2.42904e-09
-1.96407e-08
-2.04035e-07
-1.57126e-09
-1.84954e-07
-9.08892e-10
1.58806e-09
-1.83572e-07
-4.3914e-12
-9.87212e-10
-1.67858e-07
-8.27631e-10
-7.30058e-09
-9.38894e-08
-3.49706e-09
-2.17776e-08
3.13312e-08
2.00056e-09
-3.0193e-08
5.98871e-08
1.02676e-09
-3.24154e-08
9.45494e-08
7.87966e-11
-2.19469e-08
1.18716e-07
5.41335e-11
-2.27757e-09
1.13862e-07
-9.84381e-11
2.89726e-08
5.42343e-08
-3.19011e-09
3.55346e-08
6.57237e-08
1.11937e-09
3.02038e-08
1.15492e-07
3.09911e-09
2.85316e-08
1.85386e-07
1.50708e-10
3.5907e-08
1.78113e-07
-3.82476e-09
1.68175e-08
1.303e-07
7.02015e-09
1.21115e-08
5.79471e-08
3.70163e-09
4.41241e-09
1.87821e-08
1.86013e-09
-1.74814e-08
-9.34153e-08
2.268e-09
-1.69625e-08
-2.00849e-07
3.0368e-10
-9.88329e-09
-2.10346e-07
-6.69868e-10
-1.94329e-07
-4.80696e-10
-1.60659e-10
-1.84014e-07
-2.90422e-11
-3.28446e-09
-1.65969e-07
-7.16415e-10
-5.3134e-09
-8.98099e-08
-2.0087e-09
-1.60862e-08
3.77946e-08
4.47875e-09
-2.65707e-08
6.88947e-08
1.39958e-09
-2.81304e-08
9.53258e-08
7.36902e-10
-1.30114e-08
1.01345e-07
2.21467e-09
4.95609e-09
9.51159e-08
7.25136e-10
3.69117e-08
2.9391e-08
-6.74055e-09
3.89078e-08
6.22538e-08
1.69433e-09
2.65193e-08
1.25365e-07
2.4839e-09
2.71082e-08
1.85077e-07
-5.94764e-10
4.23449e-08
1.66693e-07
-4.02156e-09
3.44646e-08
1.3391e-07
4.04769e-09
2.01978e-08
6.9778e-08
2.23102e-09
1.91596e-09
3.54449e-08
1.71089e-09
-2.19584e-09
-8.70122e-08
-2.38125e-09
-6.24267e-09
-1.97243e-07
-2.05562e-09
-4.43597e-09
-2.12715e-07
-6.15488e-10
-1.99382e-07
-3.32116e-10
-5.02359e-11
1.11669e-10
-5.1028e-10
-2.46281e-10
-1.48768e-09
5.74505e-10
-3.45173e-09
7.90521e-10
-1.05328e-08
1.70182e-09
-1.25797e-08
-1.47974e-10
-3.90911e-09
7.19956e-10
5.18136e-09
-1.22424e-09
1.81453e-08
-3.95256e-09
2.38249e-08
-9.00387e-10
1.46183e-08
1.40407e-09
1.55742e-08
-4.5384e-10
2.91639e-08
-2.01799e-09
2.839e-08
2.66479e-09
1.75828e-08
6.43719e-10
7.24725e-10
1.84779e-09
-2.40907e-10
3.47337e-09
-9.17005e-10
-9.98785e-10
-7.27238e-10
-1.90101e-10
-1.79038e-11
4.43889e-08
-4.13286e-08
-1.87065e-08
1.06293e-07
-6.13938e-08
-1.42177e-08
1.49704e-07
-3.8581e-08
-6.60712e-09
1.41977e-07
1.36256e-08
-4.2336e-09
1.10597e-07
3.17939e-08
8.50299e-10
6.52903e-08
5.67474e-08
2.46214e-08
3.44643e-08
4.89329e-08
3.37898e-08
-2.43698e-09
6.47015e-08
3.38894e-08
-2.93875e-08
4.79754e-08
3.13859e-08
-2.51186e-08
9.99549e-09
3.11552e-08
-2.9281e-08
2.62007e-08
3.66756e-08
-5.68013e-08
4.44274e-08
3.64841e-08
-8.46156e-08
3.77223e-08
3.00986e-08
-1.28438e-07
5.21882e-08
2.21911e-08
-1.56311e-07
2.65257e-08
-6.27823e-09
-1.524e-07
-2.27678e-09
-8.19941e-09
-1.16532e-07
-3.25088e-08
-1.08761e-08
-6.4119e-08
-5.22837e-08
-1.38819e-08
-2.86632e-08
-3.42877e-08
-1.53988e-08
-2.42552e-08
-1.52391e-08
4.22012e-08
-8.78477e-08
-1.72377e-10
7.74038e-08
-9.87484e-08
-3.4921e-09
1.0932e-07
-7.02646e-08
9.418e-10
1.21833e-07
2.94145e-09
1.64164e-09
1.18093e-07
3.6196e-08
-4.07656e-09
9.76042e-08
6.69384e-08
-1.95028e-08
4.47346e-08
8.58804e-08
-9.08566e-10
1.15496e-10
1.05381e-07
1.44158e-08
-2.42626e-08
7.97408e-08
1.54659e-08
-4.09574e-08
4.2943e-08
6.81646e-09
-6.32079e-08
5.66126e-08
1.44938e-08
-8.53196e-08
6.08437e-08
2.13207e-08
-1.31689e-07
7.38221e-08
-1.03598e-08
-1.68828e-07
7.37799e-08
-4.17984e-08
-1.54608e-07
9.55762e-09
8.2096e-11
-1.31291e-07
-2.35892e-08
8.50545e-10
-1.00934e-07
-6.32252e-08
-3.91205e-10
-6.853e-08
-8.43759e-08
-2.54775e-09
-3.02948e-08
-7.67433e-08
-3.41977e-09
-5.79896e-08
-4.20367e-09
4.37725e-08
-1.36135e-07
1.89487e-09
7.66591e-08
-1.34021e-07
-1.52751e-09
9.21937e-08
-8.50715e-08
3.49802e-09
9.54457e-08
6.21421e-10
1.77518e-09
9.07391e-08
4.20232e-08
2.88666e-10
8.50589e-08
7.04655e-08
-9.01179e-09
5.77754e-08
1.01848e-07
-1.73642e-08
1.75523e-08
1.32484e-07
-1.30249e-08
-1.31538e-08
1.10091e-07
-7.57085e-09
-3.03223e-08
5.75042e-08
-4.22249e-09
-5.09246e-08
8.06748e-08
-7.34464e-09
-8.10814e-08
9.778e-08
-7.54101e-10
-1.39223e-07
1.21483e-07
-2.94104e-08
-1.5189e-07
8.0146e-08
-1.43989e-08
-1.53496e-07
1.57755e-08
3.60422e-09
-1.50509e-07
-2.42397e-08
3.3601e-09
-1.2346e-07
-9.24286e-08
5.33097e-11
-8.30343e-08
-1.26767e-07
-1.86441e-09
-3.88391e-08
-1.26822e-07
-4.0318e-09
-1.02906e-07
-6.59949e-10
3.55765e-08
-1.72804e-07
7.06855e-10
6.67497e-08
-1.6605e-07
-4.98346e-10
8.07896e-08
-9.63028e-08
6.9995e-09
8.23291e-08
-5.28215e-10
8.33365e-10
7.94439e-08
4.48087e-08
8.50398e-10
7.45726e-08
7.49659e-08
-4.77423e-09
5.12384e-08
1.20749e-07
-1.15339e-08
2.17766e-08
1.60836e-07
-1.04212e-08
-2.87672e-10
1.36548e-07
-8.24581e-09
-1.52222e-08
7.7303e-08
2.54641e-09
-2.88863e-08
1.01104e-07
-4.53723e-09
-7.47926e-08
1.46938e-07
-1.51258e-08
-1.19602e-07
1.52266e-07
-2.46228e-08
-1.28119e-07
8.93467e-08
-1.95685e-09
-1.40457e-07
3.26063e-08
5.27235e-09
-1.44926e-07
-1.83541e-08
3.66446e-09
-1.2229e-07
-1.13102e-07
7.41504e-09
-8.45916e-08
-1.66304e-07
-3.71503e-10
-4.26255e-08
-1.7104e-07
1.14841e-10
-1.47971e-07
1.13284e-09
2.62523e-08
-2.00026e-07
1.05923e-10
5.05495e-08
-1.90845e-07
-1.38916e-10
7.01712e-08
-1.11765e-07
6.59235e-09
6.70844e-08
2.89667e-09
9.20759e-10
6.36692e-08
4.873e-08
6.90103e-10
5.73041e-08
8.21422e-08
-4.99214e-10
3.38303e-08
1.41575e-07
-6.11091e-09
1.56594e-08
1.7895e-07
-5.17842e-09
1.05156e-08
1.43975e-07
-3.72736e-09
8.25139e-10
8.96154e-08
2.68533e-09
-1.05481e-08
1.16665e-07
1.02757e-09
-6.03747e-08
1.91808e-07
-1.43023e-08
-8.65331e-08
1.6972e-07
-1.66256e-08
-9.6753e-08
1.02445e-07
3.93051e-09
-1.15999e-07
5.44663e-08
5.44603e-09
-1.27533e-07
-5.61125e-09
3.35427e-09
-1.10835e-07
-1.2224e-07
1.4488e-08
-7.62528e-08
-2.02299e-07
-1.02196e-09
-3.84669e-08
-2.1082e-07
1.11956e-10
-1.87612e-07
4.39906e-10
1.52492e-08
-2.16005e-07
-1.34524e-10
2.95972e-08
-2.05273e-07
3.8319e-10
4.24259e-08
-1.20903e-07
4.57232e-09
3.96395e-08
7.35632e-09
2.60878e-09
3.32155e-08
5.59425e-08
1.60479e-09
1.7578e-08
9.97732e-08
5.52797e-10
-3.51464e-09
1.59629e-07
-5.11041e-09
3.54318e-09
1.72045e-07
-1.48373e-09
1.96356e-08
1.28177e-07
-1.94975e-09
1.76086e-08
9.29116e-08
1.88534e-09
1.03602e-08
1.25706e-07
2.29975e-09
-2.74449e-08
2.23321e-07
-9.72299e-09
-5.8767e-08
1.95935e-07
-9.24108e-09
-6.5044e-08
1.1103e-07
3.68576e-09
-7.97335e-08
7.13774e-08
2.65836e-09
-9.40533e-08
8.9687e-09
1.69823e-09
-8.25256e-08
-1.21473e-07
1.75876e-08
-5.68129e-08
-2.30159e-07
-1.27979e-09
-2.86143e-08
-2.40563e-07
6.85897e-11
-2.17135e-07
2.01278e-10
6.87978e-09
-2.23506e-07
-3.47093e-11
1.0667e-08
-2.09629e-07
3.54454e-10
1.29535e-09
-1.11624e-07
4.93803e-10
-1.19488e-08
2.19133e-08
1.94788e-09
-1.84713e-08
6.3454e-08
2.8901e-09
-2.85708e-08
1.11964e-07
3.16271e-09
-2.2462e-08
1.52064e-07
-6.92757e-10
-3.57087e-09
1.53488e-07
-6.46742e-10
2.71152e-08
9.57745e-08
-2.06412e-09
3.26475e-08
8.84277e-08
1.2839e-09
2.80665e-08
1.32715e-07
1.68262e-09
1.69273e-08
2.32866e-07
-2.69574e-09
-1.03325e-08
2.19499e-07
-4.61423e-09
-2.62534e-08
1.29052e-07
2.33353e-09
-1.78333e-08
6.53872e-08
2.37477e-09
-2.852e-08
2.0444e-08
1.05701e-09
-4.41512e-08
-9.75327e-08
1.0466e-08
-3.32238e-08
-2.42793e-07
-4.08446e-10
-1.74497e-08
-2.57866e-07
2.39568e-12
-2.35433e-07
-8.18308e-11
1.53236e-09
-2.25228e-07
1.22944e-10
-7.73158e-10
-2.08125e-07
8.24076e-11
-7.43515e-09
-1.07134e-07
-1.26509e-09
-2.10817e-08
3.61878e-08
1.45164e-09
-2.929e-08
7.16434e-08
1.03837e-09
-3.19853e-08
1.1415e-07
6.43095e-10
-1.74052e-08
1.36823e-07
7.28797e-10
4.98422e-09
1.31338e-07
-3.76567e-10
3.24673e-08
6.7124e-08
-1.9438e-09
3.72341e-08
8.42643e-08
5.00965e-10
2.88393e-08
1.42478e-07
1.73362e-09
3.04612e-08
2.31755e-07
-3.2243e-10
3.33343e-08
2.14804e-07
-1.81604e-09
1.47461e-08
1.50145e-07
4.09532e-09
1.2255e-08
6.9089e-08
2.34577e-09
6.56053e-09
2.66582e-08
1.23897e-09
-1.63171e-08
-7.43279e-08
1.68525e-09
-1.47046e-08
-2.44703e-07
5.7108e-10
-8.34104e-09
-2.65131e-07
2.14345e-10
-2.44311e-07
-9.2834e-12
-6.26525e-11
-2.26749e-07
2.43797e-11
-2.95896e-09
-2.08572e-07
8.9541e-11
-6.02527e-09
-1.05167e-07
-7.60241e-10
-1.66632e-08
4.91117e-08
2.26804e-09
-2.50646e-08
8.03741e-08
1.033e-09
-2.69807e-08
1.15906e-07
9.70735e-10
-8.43541e-09
1.18598e-07
1.88526e-09
1.06721e-08
1.13165e-07
-2.72264e-10
3.75177e-08
3.76348e-08
-3.83572e-09
3.7043e-08
8.56879e-08
7.71296e-10
2.15487e-08
1.59257e-07
1.15066e-09
2.59685e-08
2.27922e-07
-1.11903e-09
4.36455e-08
1.95195e-07
-2.03885e-09
3.59028e-08
1.58883e-07
2.90986e-09
2.09187e-08
8.46326e-08
1.5443e-09
4.31873e-09
4.3898e-08
1.16983e-09
-8.91103e-10
-7.31661e-08
2.32741e-09
-5.77331e-09
-2.4352e-07
-2.59273e-10
-3.86754e-09
-2.70705e-07
2.92595e-11
-2.50842e-07
-4.12582e-11
-3.96202e-11
-1.45709e-12
-7.79202e-10
-7.02031e-11
-1.95393e-09
3.60345e-10
-4.04615e-09
6.98367e-10
-8.73912e-09
1.32985e-09
-1.13415e-08
4.57911e-10
-2.07094e-09
5.28982e-10
6.31683e-09
-8.90174e-10
1.67777e-08
-2.51249e-09
1.96946e-08
-7.09769e-10
8.4435e-09
5.80779e-10
1.2328e-08
-6.99631e-10
2.84839e-08
-4.83067e-10
2.941e-08
1.54051e-09
1.66542e-08
6.48848e-10
2.20861e-09
9.91938e-10
7.96395e-10
4.73829e-09
-6.86556e-10
-1.30912e-10
-6.58845e-10
3.28594e-11
-4.18752e-11
4.38368e-08
-7.4124e-08
1.85451e-08
1.03e-07
-8.05342e-08
1.41807e-08
1.48566e-07
-5.18207e-08
6.77286e-09
1.35472e-07
1.13549e-08
4.17744e-09
1.06894e-07
3.72231e-08
-7.52032e-10
7.21742e-08
8.94859e-08
-2.39041e-08
4.073e-08
1.04411e-07
-3.36631e-08
8.3923e-10
1.12643e-07
-3.33144e-08
-2.3245e-08
9.61538e-08
-3.51127e-08
-4.33772e-09
4.72017e-08
-2.97037e-08
-1.22689e-08
8.19792e-08
-3.18802e-08
-5.13534e-08
1.14295e-07
-3.28986e-08
-9.1537e-08
1.06344e-07
-3.03415e-08
-1.30873e-07
9.2381e-08
-2.34016e-08
-1.54719e-07
1.93844e-08
5.82187e-09
-1.51692e-07
-1.2647e-08
8.14637e-09
-1.14997e-07
-5.13834e-08
1.08519e-08
-6.17462e-08
-7.35997e-08
1.35387e-08
-2.80706e-08
-5.74786e-08
1.50783e-08
-5.18471e-08
1.51749e-08
4.29418e-08
-1.18908e-07
2.39486e-10
7.65517e-08
-1.21033e-07
3.49323e-09
1.09746e-07
-8.34142e-08
-8.67613e-10
1.24628e-07
-1.32107e-10
-1.85251e-09
1.1737e-07
3.7048e-08
3.91355e-09
8.33164e-08
8.64821e-08
1.92025e-08
4.86748e-08
1.38206e-07
3.46675e-10
7.02124e-09
1.8139e-07
-1.23631e-08
-1.58738e-08
1.49233e-07
-1.46601e-08
-1.92332e-08
6.47333e-08
-6.84198e-09
-3.09757e-08
1.22576e-07
-1.39752e-08
-5.45893e-08
1.8165e-07
-2.24205e-08
-1.11172e-07
1.46627e-07
7.8882e-09
-1.75755e-07
7.82109e-08
4.05061e-08
-1.59246e-07
1.50156e-09
1.21747e-09
-1.34237e-07
-3.56124e-08
-1.2284e-09
-1.04209e-07
-8.23711e-08
4.34128e-10
-7.15432e-08
-1.11647e-07
2.75392e-09
-3.16116e-08
-1.05796e-07
3.47514e-09
-9.32145e-08
4.21354e-09
4.39206e-08
-1.60773e-07
-1.84257e-09
7.43487e-08
-1.54442e-07
1.51991e-09
9.32449e-08
-9.53423e-08
-3.57537e-09
9.76461e-08
-9.99013e-10
-1.89568e-09
9.34165e-08
4.1716e-08
-2.71239e-10
8.08793e-08
8.13712e-08
8.85568e-09
5.22531e-08
1.32006e-07
1.80162e-08
1.81771e-08
1.90554e-07
1.20613e-08
-9.76093e-09
1.5961e-07
1.012e-08
-2.03517e-08
6.73509e-08
3.7159e-09
-3.17572e-08
1.20604e-07
6.11186e-09
-5.81013e-08
2.09754e-07
-1.44951e-09
-1.30673e-07
1.64485e-07
2.80455e-08
-1.59125e-07
7.77957e-08
1.47559e-08
-1.57479e-07
6.43208e-09
-3.24274e-09
-1.52597e-07
-3.38501e-08
-3.31172e-09
-1.23088e-07
-1.1172e-07
-1.80144e-10
-8.38924e-08
-1.54446e-07
2.00692e-09
-3.9857e-08
-1.59806e-07
4.1409e-09
-1.36168e-07
6.9578e-10
3.29461e-08
-1.92341e-07
-6.89044e-10
6.10829e-08
-1.83395e-07
5.48941e-10
8.26197e-08
-1.03103e-07
-7.06124e-09
8.4948e-08
-1.78171e-09
-8.98309e-10
8.35623e-08
4.45948e-08
-8.4955e-10
7.5366e-08
7.98989e-08
4.784e-09
4.45529e-08
1.39358e-07
1.25055e-08
2.01759e-08
1.95086e-07
9.67684e-09
1.55491e-10
1.63235e-07
8.29903e-09
-1.00564e-08
8.30148e-08
-2.85545e-09
-1.66728e-08
1.19053e-07
3.73957e-09
-5.87552e-08
2.24419e-07
1.33166e-08
-1.20631e-07
1.78702e-07
2.44816e-08
-1.33034e-07
8.54833e-08
2.27257e-09
-1.43057e-07
2.6786e-08
-5.26622e-09
-1.45969e-07
-2.37525e-08
-3.61076e-09
-1.16968e-07
-1.2609e-07
-7.35478e-09
-8.23672e-08
-1.89495e-07
3.96904e-10
-4.1557e-08
-2.00403e-07
-8.2296e-11
-1.7547e-07
-1.105e-09
2.53221e-08
-2.17353e-07
-9.3962e-11
4.84022e-08
-2.06392e-07
1.13667e-10
7.31378e-08
-1.15131e-07
-6.59195e-09
7.09971e-08
1.8576e-09
-9.05087e-10
6.78198e-08
4.89329e-08
-6.30284e-10
6.03823e-08
8.60259e-08
5.41637e-10
3.09682e-08
1.56538e-07
6.41686e-09
1.62469e-08
1.99343e-07
5.50678e-09
1.26359e-08
1.59562e-07
3.69753e-09
5.13143e-09
9.60764e-08
-2.9091e-09
6.57571e-11
1.26796e-07
-1.50049e-09
-4.88259e-08
2.4528e-07
1.43732e-08
-9.54712e-08
1.92633e-07
1.6652e-08
-1.02381e-07
9.93411e-08
-3.66767e-09
-1.18317e-07
5.35568e-08
-5.61976e-09
-1.30813e-07
-5.01414e-09
-3.24152e-09
-1.02093e-07
-1.26469e-07
-1.44896e-08
-7.23111e-08
-2.20902e-07
1.06923e-09
-3.67292e-08
-2.35629e-07
-8.14814e-11
-2.11253e-07
-4.34283e-10
1.44312e-08
-2.31902e-07
1.36448e-10
2.85669e-08
-2.19476e-07
-3.94069e-10
4.4416e-08
-1.22251e-07
-4.62499e-09
4.36455e-08
7.14032e-09
-2.53403e-09
3.91613e-08
5.62777e-08
-1.54525e-09
2.14051e-08
1.04588e-07
-5.53705e-10
-4.45196e-09
1.72594e-07
4.95899e-09
4.98458e-09
1.86932e-07
1.4813e-09
2.28444e-08
1.37969e-07
1.86421e-09
2.1434e-08
1.01275e-07
-1.92208e-09
1.7221e-08
1.36025e-07
-2.60333e-09
-2.1556e-08
2.65002e-07
9.89398e-09
-6.34943e-08
2.16382e-07
9.16219e-09
-6.97617e-08
1.12353e-07
-3.55671e-09
-8.38182e-08
7.27994e-08
-2.87841e-09
-9.8938e-08
1.27092e-08
-1.61922e-09
-7.55497e-08
-1.15746e-07
-1.76086e-08
-5.32468e-08
-2.451e-07
1.31337e-09
-2.67959e-08
-2.61701e-07
-2.58115e-11
-2.37491e-07
-1.98675e-10
6.50582e-09
-2.38382e-07
3.15081e-11
1.03789e-08
-2.22653e-07
-3.50666e-10
1.54376e-09
-1.12697e-07
-5.11366e-10
-1.0526e-08
2.28529e-08
-1.92539e-09
-1.63792e-08
6.76778e-08
-2.88205e-09
-2.76803e-08
1.21931e-07
-3.23224e-09
-2.05247e-08
1.64089e-07
5.06091e-10
-6.24099e-10
1.65754e-07
5.32834e-10
2.94085e-08
1.03996e-07
1.99206e-09
3.41262e-08
9.90635e-08
-1.2672e-09
2.75053e-08
1.46283e-07
-1.85614e-09
1.97064e-08
2.67118e-07
2.87345e-09
-1.33455e-08
2.40093e-07
4.74016e-09
-2.96576e-08
1.32952e-07
-2.34822e-09
-2.05237e-08
6.83402e-08
-2.53886e-09
-3.0431e-08
2.41309e-08
-1.08539e-09
-4.12715e-08
-8.53246e-08
-1.04046e-08
-3.17503e-08
-2.54911e-07
3.91847e-10
-1.66436e-08
-2.76578e-07
-2.31551e-12
-2.54208e-07
8.59295e-11
1.47383e-09
-2.39566e-07
-1.23252e-10
-8.64852e-10
-2.20215e-07
-7.59598e-11
-7.51894e-09
-1.0849e-07
1.19471e-09
-2.08796e-08
3.92379e-08
-1.54526e-09
-2.82501e-08
7.69958e-08
-1.03537e-09
-3.09256e-08
1.25895e-07
-7.52058e-10
-1.34145e-08
1.48041e-07
-8.96491e-10
9.35596e-09
1.423e-07
2.05553e-10
3.44331e-08
7.50334e-08
2.01845e-09
3.72346e-08
9.71545e-08
-4.39923e-10
2.56072e-08
1.6149e-07
-1.78947e-09
2.90027e-08
2.62598e-07
4.69647e-10
3.17535e-08
2.33573e-07
1.78512e-09
1.30117e-08
1.59445e-07
-4.11361e-09
1.17071e-08
7.43205e-08
-2.47327e-09
7.68887e-09
3.05054e-08
-1.26594e-09
-1.54133e-08
-5.92902e-08
-1.64414e-09
-1.41064e-08
-2.55015e-07
-5.85553e-10
-7.95187e-09
-2.82171e-07
-2.21693e-10
-2.62131e-07
9.97719e-12
-1.31337e-10
-2.4125e-07
-2.41905e-11
-3.10617e-09
-2.19995e-07
-7.98436e-11
-6.39735e-09
-1.06598e-07
7.27483e-10
-1.67221e-08
5.43105e-08
-2.44064e-09
-2.39873e-08
8.62549e-08
-1.0551e-09
-2.54289e-08
1.29174e-07
-9.81081e-10
-4.17066e-09
1.3063e-07
-2.02e-09
1.3794e-08
1.23825e-07
2.28205e-10
3.80217e-08
4.31243e-08
4.00953e-09
3.4413e-08
1.02059e-07
-5.24155e-10
1.67066e-08
1.81488e-07
-1.21132e-09
2.30226e-08
2.53717e-07
1.21391e-09
4.32843e-08
2.0904e-07
2.04444e-09
3.57644e-08
1.72449e-07
-2.81873e-09
2.10416e-08
9.20416e-08
-1.58185e-09
6.19862e-09
4.77462e-08
-1.17472e-09
-8.60718e-10
-4.75656e-08
-2.34449e-09
-5.54041e-09
-2.50697e-07
2.4689e-10
-3.69345e-09
-2.87583e-07
-3.84249e-11
-2.68864e-07
4.25332e-11
-4.73407e-11
1.06218e-12
-8.61488e-10
7.31397e-11
-2.21268e-09
-3.79902e-10
-4.51687e-09
-6.96589e-10
-7.66435e-09
-1.37728e-09
-9.63982e-09
-4.79624e-10
1.64901e-10
-5.91554e-10
7.17785e-09
8.43242e-10
1.64337e-08
2.40124e-09
1.57949e-08
9.15444e-10
4.57428e-09
-6.03515e-10
9.5978e-09
7.27986e-10
2.76017e-08
4.60593e-10
2.91844e-08
-1.53071e-09
1.66584e-08
-6.33714e-10
3.10781e-09
-1.01459e-09
8.05976e-10
-4.74516e-09
-6.76014e-10
1.23647e-10
-6.11764e-10
-4.1729e-11
4.23803e-11
4.43939e-08
-4.13986e-08
2.2057e-08
1.063e-07
-6.14026e-08
2.04912e-08
1.49758e-07
-3.85269e-08
8.83872e-09
1.41903e-07
1.37423e-08
4.65911e-09
1.10624e-07
3.17364e-08
5.1968e-09
6.50241e-08
5.75503e-08
-3.02103e-08
3.37646e-08
4.94061e-08
-4.6735e-08
-2.55112e-09
6.49187e-08
-5.67249e-08
-2.93238e-08
4.46931e-08
-4.76225e-08
-2.46614e-08
1.02841e-08
-3.92269e-08
-2.81122e-08
2.8885e-08
-5.1917e-08
-5.70162e-08
4.85741e-08
-4.72379e-08
-8.50268e-08
3.73412e-08
-3.45075e-08
-1.29044e-07
5.1333e-08
-2.4941e-08
-1.56398e-07
2.61807e-08
1.38462e-08
-1.52288e-07
-2.433e-09
1.29017e-08
-1.16605e-07
-3.24017e-08
1.44659e-08
-6.41264e-08
-5.24884e-08
2.0413e-08
-2.86411e-08
-3.44312e-08
2.0411e-08
-2.42636e-08
1.70582e-08
4.22075e-08
-8.7886e-08
3.54161e-09
7.74011e-08
-9.87508e-08
5.7202e-09
1.09354e-07
-7.02306e-08
-1.22558e-09
1.21811e-07
3.00617e-09
-3.52129e-09
1.18048e-07
3.61493e-08
3.41275e-09
9.76799e-08
6.71905e-08
3.04719e-08
4.56443e-08
8.47163e-08
1.76212e-08
3.72238e-10
1.07487e-07
-9.22238e-09
-2.41095e-08
7.74853e-08
-2.2582e-08
-4.0154e-08
4.31118e-08
-2.33391e-08
-6.15845e-08
5.86153e-08
-2.1956e-08
-8.33822e-08
6.3771e-08
-1.62102e-08
-1.32452e-07
7.40733e-08
1.99423e-08
-1.69291e-07
7.29203e-08
5.67857e-08
-1.54309e-07
9.70276e-09
2.73803e-09
-1.31316e-07
-2.36655e-08
-2.97484e-09
-1.00961e-07
-6.3242e-08
8.52841e-10
-6.8506e-08
-8.44961e-08
2.33391e-09
-3.03188e-08
-7.68459e-08
6.37336e-09
-5.80196e-08
6.43214e-09
4.37687e-08
-1.36145e-07
9.58252e-10
7.66544e-08
-1.34032e-07
3.9378e-09
9.2184e-08
-8.50732e-08
-4.34326e-09
9.54241e-08
6.38811e-10
-2.86242e-09
9.07207e-08
4.20113e-08
-1.5384e-09
8.50859e-08
7.05535e-08
1.11499e-08
5.8038e-08
1.01193e-07
2.89475e-08
1.80445e-08
1.33066e-07
2.6676e-08
-1.2628e-08
1.10019e-07
8.15326e-09
-2.99676e-08
5.77102e-08
6.47734e-09
-4.99622e-08
8.13541e-08
3.44354e-09
-8.07415e-08
9.92338e-08
-6.76103e-09
-1.39815e-07
1.21474e-07
3.99076e-08
-1.51856e-07
7.94857e-08
2.0275e-08
-1.53465e-07
1.59637e-08
-8.06122e-09
-1.505e-07
-2.43288e-08
-5.60412e-09
-1.23476e-07
-9.24481e-08
2.00769e-09
-8.30387e-08
-1.26809e-07
4.04298e-09
-3.88457e-08
-1.26877e-07
8.18365e-09
-1.02927e-07
4.9818e-09
3.55736e-08
-1.72802e-07
9.52722e-12
6.67655e-08
-1.66055e-07
1.59078e-09
8.0782e-08
-9.63156e-08
-9.99135e-09
8.23104e-08
-5.32079e-10
-1.42664e-09
7.94319e-08
4.47914e-08
-8.93653e-10
7.46178e-08
7.4992e-08
5.01092e-09
5.13336e-08
1.20605e-07
1.66441e-08
2.2105e-08
1.60561e-07
1.15522e-08
-3.62514e-11
1.36537e-07
3.91939e-09
-1.50335e-08
7.74744e-08
-7.54059e-09
-2.87956e-08
1.01396e-07
-2.34695e-09
-7.48229e-08
1.46908e-07
1.15489e-08
-1.19597e-07
1.52288e-07
3.87672e-08
-1.28084e-07
8.89715e-08
7.51373e-10
-1.40462e-07
3.27775e-08
-9.88287e-09
-1.44917e-07
-1.84469e-08
-5.16072e-09
-1.22285e-07
-1.13106e-07
-9.3718e-09
-8.4579e-08
-1.66339e-07
2.41088e-09
-4.26228e-08
-1.7108e-07
2.13924e-09
-1.47969e-07
1.24513e-09
2.62534e-08
-2.00018e-07
7.99253e-10
5.05288e-08
-1.90845e-07
1.0292e-09
7.01575e-08
-1.1178e-07
-1.11834e-08
6.70689e-08
2.9025e-09
-1.55701e-09
6.36788e-08
4.87141e-08
-1.28201e-09
5.73718e-08
8.21489e-08
-5.29755e-10
3.37994e-08
1.41659e-07
9.13954e-09
1.57221e-08
1.78746e-07
5.56638e-09
1.05637e-08
1.43938e-07
1.5569e-09
8.97796e-10
8.96763e-08
-5.41524e-09
-1.05431e-08
1.16816e-07
-5.08157e-09
-6.03148e-08
1.91776e-07
1.97848e-08
-8.63842e-08
1.69708e-07
2.55778e-08
-9.66636e-08
1.023e-07
-7.15338e-09
-1.16003e-07
5.45927e-08
-8.28491e-09
-1.27525e-07
-5.66417e-09
-4.83141e-09
-1.10832e-07
-1.22231e-07
-2.24386e-08
-7.6247e-08
-2.02317e-07
2.71721e-09
-3.84658e-08
-2.10857e-07
1.95081e-09
-1.87609e-07
7.10653e-10
1.52489e-08
-2.15997e-07
8.78304e-10
2.95973e-08
-2.05281e-07
7.13485e-11
4.2416e-08
-1.20925e-07
-8.66752e-09
3.96536e-08
7.37658e-09
-4.86537e-09
3.32393e-08
5.59421e-08
-2.65694e-09
1.75899e-08
9.97836e-08
-2.82884e-09
-3.52747e-09
1.5964e-07
8.29901e-09
3.55637e-09
1.71808e-07
1.37014e-09
1.96204e-08
1.28133e-07
1.67356e-09
1.76409e-08
9.29174e-08
-3.15509e-09
1.03231e-08
1.25804e-07
-3.97042e-09
-2.75637e-08
2.23399e-07
1.68681e-08
-5.86672e-08
1.95693e-07
1.44938e-08
-6.49755e-08
1.10961e-07
-6.3261e-09
-7.973e-08
7.14374e-08
-5.31797e-09
-9.40465e-08
8.95399e-09
-2.55395e-09
-8.25173e-08
-1.21463e-07
-3.06974e-08
-5.68038e-08
-2.30158e-07
3.93433e-09
-2.861e-08
-2.4058e-07
1.60388e-09
-2.17129e-07
7.33292e-10
6.87919e-09
-2.23499e-07
6.34591e-10
1.06653e-08
-2.09634e-07
3.60582e-10
1.29933e-09
-1.11653e-07
-5.98062e-10
-1.19407e-08
2.19344e-08
-3.44995e-09
-1.84688e-08
6.34674e-08
-4.07844e-09
-2.86038e-08
1.11982e-07
-5.56364e-09
-2.24701e-08
1.51939e-07
2.09265e-09
-3.61546e-09
1.53227e-07
2.55565e-10
2.70936e-08
9.5709e-08
3.77826e-09
3.26558e-08
8.84238e-08
-2.35752e-09
2.80393e-08
1.32808e-07
-4.14806e-09
1.6889e-08
2.33005e-07
4.80036e-09
-1.03377e-08
2.19332e-07
8.43703e-09
-2.62147e-08
1.2891e-07
-4.79062e-09
-1.7813e-08
6.53823e-08
-5.15634e-09
-2.85162e-08
2.04342e-08
-2.46898e-09
-4.41419e-08
-9.74997e-08
-1.98574e-08
-3.32235e-08
-2.42784e-07
2.4135e-09
-1.74502e-08
-2.57872e-07
1.56004e-09
-2.35426e-07
9.12223e-10
1.5326e-09
-2.25221e-07
3.50771e-12
-7.71519e-10
-2.08133e-07
8.36176e-10
-7.4308e-09
-1.07169e-07
3.43108e-09
-2.10809e-08
3.61763e-08
-2.05795e-09
-2.92902e-08
7.16639e-08
-1.02822e-09
-3.19971e-08
1.14141e-07
-1.47149e-10
-1.74147e-08
1.36592e-07
-1.18617e-10
4.86673e-09
1.31092e-07
2.2583e-11
3.24642e-08
6.7032e-08
3.17978e-09
3.7251e-08
8.42863e-08
-1.10482e-09
2.88141e-08
1.42609e-07
-3.15054e-09
3.04982e-08
2.31905e-07
-7.78199e-11
3.32735e-08
2.14734e-07
3.79522e-09
1.4754e-08
1.49914e-07
-7.01766e-09
1.22596e-08
6.90266e-08
-3.76829e-09
6.56404e-09
2.66352e-08
-1.87282e-09
-1.63155e-08
-7.42864e-08
-2.23346e-09
-1.4705e-08
-2.44694e-07
-3.15767e-10
-8.34094e-09
-2.65122e-07
6.48567e-10
-2.44303e-07
4.79291e-10
-6.23422e-11
-2.26738e-07
2.58175e-11
-2.95759e-09
-2.08591e-07
7.30964e-10
-6.02562e-09
-1.05204e-07
1.97961e-09
-1.66633e-08
4.90804e-08
-4.63233e-09
-2.50572e-08
8.03861e-08
-1.42128e-09
-2.69684e-08
1.15899e-07
-7.5314e-10
-8.46129e-09
1.18357e-07
-2.3005e-09
1.05473e-08
1.13014e-07
-7.65818e-10
3.74955e-08
3.75487e-08
6.80884e-09
3.70583e-08
8.57759e-08
-1.55653e-09
2.1518e-08
1.59421e-07
-2.53152e-09
2.59992e-08
2.28062e-07
6.35896e-10
4.36355e-08
1.9519e-07
4.00025e-09
3.58953e-08
1.58706e-07
-4.0156e-09
2.09166e-08
8.45447e-08
-2.2476e-09
4.321e-09
4.38659e-08
-1.71044e-09
-8.8884e-10
-7.31338e-08
2.37481e-09
-5.77193e-09
-2.4358e-07
2.04652e-09
-3.86784e-09
-2.70687e-07
5.98201e-10
-2.50831e-07
3.31066e-10
-3.98493e-11
-1.16491e-10
-7.77102e-10
2.49105e-10
-1.95007e-09
-5.92009e-10
-4.0345e-09
-7.98448e-10
-8.72427e-09
-1.74302e-09
-1.13358e-08
1.35573e-10
-2.0875e-09
-7.62033e-10
6.2894e-09
1.18491e-09
1.67276e-08
3.85063e-09
1.96865e-08
1.04006e-09
8.41391e-09
-1.42046e-09
1.23288e-08
4.68543e-10
2.85005e-08
2.00099e-09
2.94041e-08
-2.67153e-09
1.66556e-08
-6.32924e-10
2.21185e-09
-1.85795e-09
7.98133e-10
-3.48559e-09
-6.86204e-10
9.94843e-10
-6.58698e-10
1.79528e-10
1.64199e-11
4.48822e-08
-1.64594e-08
1.08692e-07
-3.65236e-08
1.41725e-07
-1.73636e-08
1.32638e-07
2.01426e-08
1.14938e-07
2.89038e-08
7.67334e-08
1.36587e-08
4.33555e-08
-7.99253e-09
7.77096e-09
-1.55507e-08
-2.54988e-08
-8.70131e-09
-3.62946e-08
-2.27689e-08
-5.23123e-08
-3.0064e-08
-7.19583e-08
-2.21126e-08
-9.94613e-08
-1.91629e-09
-1.35728e-07
1.68821e-08
-1.50529e-07
3.457e-08
-1.4389e-07
1.29599e-08
-1.15524e-07
-7.19315e-09
-6.69229e-08
-2.14373e-08
-2.80823e-08
-1.21171e-08
-4.85109e-09
3.90849e-08
-5.15519e-08
7.47698e-08
-6.64109e-08
1.03712e-07
-4.7534e-08
1.11322e-07
9.14199e-09
1.06558e-07
3.74707e-08
1.08664e-07
4.25132e-08
8.86589e-08
2.98561e-08
4.10303e-08
2.32131e-08
-1.72018e-08
2.76696e-08
-7.21919e-08
9.68888e-09
-1.12669e-07
-1.08138e-08
-1.49159e-07
-1.52518e-09
-1.63634e-07
3.2779e-08
-1.44908e-07
5.5082e-08
-1.36962e-07
2.99194e-08
-1.22818e-07
-3.85063e-09
-9.22314e-08
-3.67352e-08
-6.18789e-08
-4.93187e-08
-2.65955e-08
-4.18985e-08