/*--------------------------------*- C++ -*----------------------------------*\
| =========                 |                                                 |
| \\      /  F ield         | OpenFOAM: The Open Source CFD Toolbox           |
|  \\    /   O peration     | Version:  2.3.0                                 |
|   \\  /    A nd           | Web:      www.OpenFOAM.org                      |
|    \\/     M anipulation  |                                                 |
\*---------------------------------------------------------------------------*/
FoamFile
{
    version     2.0;
    format      ascii;
    class       volScalarField;
    location    "0.11";
    object      p;
}
// * * * * * * * * * * * * * * * * * * * * * * * * * * * * * * * * * * * * * //

dimensions      [1 -1 -2 0 0 0 0];

internalField   nonuniform List<scalar> 
6000
(
101193
101195
101196
101198
101200
101202
101203
101204
101205
101206
101206
101207
101207
101207
101207
101207
101207
101207
101207
101206
101206
101205
101204
101203
101202
101200
101198
101196
101195
101193
101149
101153
101154
101155
101157
101158
101160
101161
101162
101163
101163
101163
101163
101163
101163
101163
101163
101163
101163
101163
101163
101162
101161
101160
101158
101157
101155
101154
101153
101149
101122
101122
101122
101122
101123
101124
101126
101127
101128
101128
101128
101128
101128
101128
101128
101128
101128
101128
101128
101128
101128
101128
101127
101126
101124
101123
101122
101122
101122
101122
101103
101102
101101
101100
101099
101098
101097
101097
101097
101097
101096
101096
101096
101095
101095
101095
101095
101096
101096
101096
101097
101097
101097
101097
101098
101099
101100
101101
101102
101103
101088
101087
101086
101085
101083
101080
101078
101076
101075
101073
101072
101072
101071
101071
101071
101071
101071
101071
101072
101072
101073
101075
101076
101078
101080
101083
101085
101086
101087
101088
101074
101075
101074
101072
101069
101066
101064
101061
101059
101057
101056
101055
101055
101055
101054
101054
101055
101055
101055
101056
101057
101059
101061
101064
101066
101069
101072
101074
101075
101074
101062
101063
101062
101060
101057
101053
101050
101047
101045
101044
101042
101042
101041
101041
101040
101040
101041
101041
101042
101042
101044
101045
101047
101050
101053
101057
101060
101062
101063
101062
101050
101050
101049
101046
101043
101039
101036
101034
101032
101030
101029
101028
101028
101027
101027
101027
101027
101028
101028
101029
101030
101032
101033
101036
101039
101043
101046
101049
101050
101050
101035
101034
101032
101030
101027
101024
101022
101019
101018
101016
101015
101015
101014
101014
101014
101014
101014
101014
101015
101016
101016
101018
101019
101022
101024
101027
101030
101032
101034
101035
101016
101014
101011
101009
101008
101007
101005
101004
101003
101002
101001
101001
101000
101000
101000
101000
101000
101000
101001
101001
101002
101003
101004
101005
101007
101008
101009
101011
101013
101016
100991
100988
100985
100985
100986
100987
100987
100987
100986
100985
100985
100985
100984
100984
100984
100984
100984
100984
100985
100985
100986
100986
100987
100987
100987
100986
100984
100984
100987
100991
100961
100958
100956
100957
100960
100964
100966
100967
100967
100967
100966
100966
100966
100966
100966
100966
100966
100966
100966
100967
100967
100967
100967
100966
100964
100960
100956
100955
100957
100960
100926
100925
100924
100927
100931
100937
100941
100943
100944
100945
100945
100945
100945
100945
100945
100945
100945
100945
100945
100945
100945
100945
100944
100941
100937
100932
100927
100925
100924
100926
100891
100891
100892
100895
100900
100906
100912
100916
100918
100919
100920
100920
100920
100920
100920
100920
100920
100920
100920
100920
100919
100918
100916
100913
100907
100901
100897
100894
100892
100890
100853
100855
100858
100862
100867
100873
100879
100884
100887
100889
100890
100891
100891
100891
100891
100891
100891
100891
100891
100890
100889
100888
100884
100880
100874
100868
100864
100861
100858
100854
100816
100817
100822
100827
100832
100837
100843
100848
100852
100855
100856
100857
100858
100858
100858
100858
100858
100858
100857
100857
100855
100853
100849
100844
100838
100834
100830
100827
100823
100818
100782
100782
100786
100791
100796
100801
100806
100811
100815
100818
100820
100821
100822
100822
100822
100822
100822
100822
100821
100820
100818
100815
100811
100806
100802
100798
100794
100790
100785
100783
100747
100748
100751
100756
100760
100764
100768
100772
100776
100779
100781
100782
100783
100784
100784
100784
100784
100783
100782
100781
100779
100776
100772
100768
100764
100760
100756
100751
100748
100749
100713
100716
100718
100722
100725
100728
100731
100734
100737
100739
100741
100743
100744
100745
100745
100745
100745
100744
100743
100741
100739
100736
100733
100730
100727
100723
100718
100714
100713
100715
100681
100685
100688
100690
100691
100692
100694
100696
100698
100700
100702
100704
100705
100705
100706
100706
100706
100705
100704
100702
100700
100698
100695
100692
100690
100686
100682
100679
100677
100678
100649
100653
100656
100657
100657
100656
100657
100658
100660
100662
100663
100665
100666
100667
100667
100667
100667
100666
100665
100663
100662
100660
100658
100656
100654
100652
100650
100647
100644
100643
100613
100617
100619
100620
100620
100619
100620
100621
100622
100624
100625
100626
100627
100628
100628
100628
100628
100627
100627
100625
100624
100622
100621
100619
100619
100620
100620
100617
100613
100610
100578
100579
100576
100576
100579
100581
100582
100583
100585
100586
100587
100589
100590
100590
100591
100591
100590
100590
100589
100588
100587
100585
100584
100583
100583
100585
100586
100584
100580
100576
100543
100541
100537
100537
100538
100542
100544
100546
100548
100549
100551
100552
100553
100553
100554
100554
100553
100553
100552
100551
100550
100549
100548
100547
100546
100545
100543
100545
100545
100541
100506
100502
100501
100501
100502
100505
100508
100510
100512
100513
100515
100516
100517
100517
100518
100518
100517
100517
100516
100515
100514
100513
100512
100510
100508
100504
100503
100504
100507
100506
100468
100465
100465
100465
100467
100469
100472
100474
100476
100478
100479
100480
100481
100482
100482
100482
100482
100482
100481
100480
100479
100478
100476
100474
100472
100468
100467
100467
100470
100472
100434
100432
100430
100431
100433
100435
100438
100440
100442
100444
100445
100446
100447
100447
100448
100448
100448
100447
100447
100446
100445
100443
100442
100439
100437
100435
100433
100433
100433
100436
100400
100401
100399
100399
100401
100403
100405
100407
100409
100410
100411
100412
100413
100414
100414
100414
100414
100414
100413
100412
100411
100410
100408
100406
100404
100402
100400
100399
100398
100401
100365
100368
100369
100369
100370
100371
100373
100375
100376
100378
100379
100380
100381
100381
100381
100381
100381
100381
100380
100380
100379
100377
100376
100374
100372
100370
100368
100367
100368
100370
100331
100331
100336
100338
100339
100341
100342
100344
100345
100346
100347
100348
100349
100349
100349
100349
100349
100349
100349
100348
100347
100346
100345
100344
100342
100341
100339
100339
100340
100343
100300
100298
100303
100307
100309
100311
100312
100314
100315
100316
100317
100317
100318
100318
100318
100319
100318
100318
100318
100317
100316
100316
100315
100314
100313
100312
100312
100312
100312
100314
100270
100270
100272
100276
100280
100282
100284
100285
100286
100286
100287
100288
100288
100288
100288
100288
100288
100288
100288
100287
100287
100286
100286
100285
100285
100284
100284
100284
100284
100284
100242
100243
100244
100248
100252
100254
100256
100257
100257
100258
100258
100259
100259
100259
100259
100259
100259
100259
100259
100259
100258
100258
100257
100257
100257
100257
100256
100256
100255
100255
100216
100217
100220
100224
100226
100228
100229
100229
100230
100230
100230
100231
100231
100231
100231
100231
100231
100231
100231
100230
100230
100230
100230
100230
100229
100229
100229
100228
100227
100227
100194
100195
100199
100202
100204
100204
100203
100203
100203
100203
100203
100203
100203
100203
100204
100204
100204
100203
100203
100203
100203
100203
100203
100203
100203
100203
100202
100202
100202
100201
100172
100174
100179
100184
100184
100181
100179
100177
100177
100177
100177
100177
100177
100177
100177
100177
100177
100177
100177
100177
100177
100176
100177
100177
100177
100177
100178
100178
100178
100176
100147
100150
100157
100162
100163
100157
100154
100152
100151
100151
100151
100151
100151
100151
100151
100151
100151
100151
100151
100151
100151
100151
100151
100151
100152
100153
100154
100155
100155
100152
100122
100127
100130
100132
100131
100130
100128
100126
100126
100126
100126
100126
100126
100126
100126
100126
100126
100126
100126
100126
100126
100126
100126
100126
100127
100128
100130
100132
100130
100126
100100
100103
100102
100097
100096
100100
100101
100101
100101
100101
100101
100101
100101
100101
100102
100102
100102
100102
100101
100101
100101
100101
100101
100102
100102
100103
100105
100105
100102
100100
100079
100078
100073
100067
100068
100073
100075
100076
100077
100077
100077
100078
100078
100078
100078
100078
100078
100078
100078
100078
100078
100078
100077
100077
100077
100077
100077
100075
100075
100076
100057
100056
100048
100044
100046
100049
100051
100053
100053
100054
100054
100055
100055
100055
100055
100055
100055
100055
100055
100055
100055
100054
100054
100054
100053
100052
100051
100049
100050
100053
100037
100031
100025
100024
100025
100027
100029
100030
100031
100032
100032
100033
100033
100033
100033
100033
100033
100033
100033
100033
100032
100032
100032
100031
100031
100030
100028
100027
100028
100030
100017
100010
100005
100004
100005
100006
100008
100009
100010
100010
100011
100011
100011
100011
100012
100012
100012
100011
100011
100011
100011
100011
100010
100010
100009
100008
100007
100006
100007
100009
99999.9
99991.1
99985.8
99985.2
99986.1
99986.8
99987.8
99988.6
99989.2
99989.7
99990.1
99990.4
99990.6
99990.7
99990.8
99990.8
99990.8
99990.7
99990.5
99990.3
99990
99989.7
99989.2
99988.6
99987.9
99987
99985.8
99984.8
99984.8
99987
99978.5
99972.6
99968.7
99967.6
99967.8
99968.1
99968.6
99969.1
99969.5
99969.9
99970.2
99970.4
99970.6
99970.7
99970.7
99970.7
99970.7
99970.6
99970.4
99970.2
99969.9
99969.6
99969.1
99968.6
99967.9
99967
99966
99965
99964.9
99965.7
99956.4
99954.8
99952.4
99950.9
99950.3
99950.1
99950.2
99950.3
99950.6
99950.8
99951
99951.2
99951.3
99951.4
99951.4
99951.4
99951.3
99951.2
99951
99950.8
99950.6
99950.2
99949.8
99949.4
99948.8
99948.1
99947.4
99946.9
99947
99947.3
99937.7
99938.4
99936.6
99934.5
99933.4
99932.7
99932.4
99932.3
99932.3
99932.4
99932.5
99932.6
99932.7
99932.8
99932.8
99932.7
99932.7
99932.6
99932.4
99932.2
99932
99931.7
99931.3
99931
99930.6
99930.2
99929.9
99929.9
99930.1
99930.1
99919.3
99921.4
99920.4
99918
99916.6
99915.7
99915.1
99914.8
99914.7
99914.7
99914.8
99914.8
99914.9
99914.9
99914.9
99914.8
99914.8
99914.7
99914.5
99914.3
99914.1
99913.8
99913.6
99913.3
99913.1
99912.9
99913.1
99913.6
99914.1
99913.4
99900
99901.7
99902.6
99900.8
99899.6
99898.7
99898.2
99897.9
99897.7
99897.7
99897.7
99897.7
99897.8
99897.8
99897.7
99897.7
99897.6
99897.5
99897.3
99897.2
99896.9
99896.7
99896.5
99896.3
99896.2
99896.2
99896.6
99897.5
99898.2
99896.6
99880.4
99879.5
99882.5
99882.9
99882.5
99881.9
99881.6
99881.4
99881.3
99881.3
99881.3
99881.3
99881.3
99881.3
99881.3
99881.3
99881.2
99881
99880.9
99880.7
99880.5
99880.3
99880.1
99879.9
99879.8
99879.8
99880.2
99881.1
99881.3
99879.1
99862
99860.4
99863.1
99865.3
99865.5
99865.5
99865.5
99865.5
99865.5
99865.5
99865.6
99865.6
99865.6
99865.6
99865.6
99865.5
99865.4
99865.3
99865.2
99865
99864.8
99864.5
99864.3
99864
99863.8
99863.7
99863.8
99864
99862.7
99861.2
99845.9
99844.8
99845.9
99848.4
99849.3
99849.7
99850
99850.2
99850.3
99850.4
99850.5
99850.6
99850.6
99850.6
99850.6
99850.5
99850.4
99850.3
99850.1
99849.9
99849.7
99849.4
99849.1
99848.8
99848.4
99848
99847.6
99846.6
99843.9
99844.1
99831.1
99830.2
99830.8
99832.6
99833.9
99834.7
99835.2
99835.5
99835.8
99835.9
99836.1
99836.2
99836.2
99836.2
99836.2
99836.2
99836.1
99835.9
99835.7
99835.5
99835.3
99835
99834.6
99834.2
99833.7
99833
99832.2
99830.3
99827.9
99828.8
99817.1
99816.5
99817
99818
99819.4
99820.4
99821.1
99821.5
99821.9
99822.1
99822.3
99822.4
99822.5
99822.5
99822.5
99822.5
99822.4
99822.2
99822
99821.8
99821.5
99821.2
99820.8
99820.3
99819.6
99818.8
99817.7
99815.9
99814.3
99815.3
99803.9
99803.4
99803.8
99804.7
99805.9
99806.9
99807.7
99808.3
99808.7
99809
99809.2
99809.3
99809.4
99809.5
99809.5
99809.4
99809.3
99809.2
99809
99808.7
99808.4
99808.1
99807.6
99807.1
99806.4
99805.5
99804.2
99803
99801.9
99802.9
99791.8
99791.1
99791.3
99792.3
99793.3
99794.3
99795.1
99795.7
99796.2
99796.5
99796.7
99796.9
99797
99797
99797
99797
99796.9
99796.8
99796.6
99796.3
99796
99795.6
99795.2
99794.6
99793.9
99793
99791.8
99790.9
99790.2
99791.1
99781
99780.3
99780.2
99780.9
99781.7
99782.6
99783.4
99784
99784.4
99784.7
99784.9
99785.1
99785.2
99785.3
99785.3
99785.2
99785.1
99785
99784.8
99784.6
99784.2
99783.9
99783.4
99782.8
99782.1
99781.2
99780.3
99779.5
99779
99779.9
99771.1
99770.9
99770.5
99770.7
99771.2
99771.8
99772.4
99772.9
99773.3
99773.6
99773.8
99774
99774.1
99774.2
99774.2
99774.1
99774
99773.9
99773.7
99773.4
99773.1
99772.7
99772.3
99771.7
99771.1
99770.3
99769.5
99768.8
99768.6
99769.4
99761.9
99762.5
99761.7
99761.3
99761.5
99761.8
99762.2
99762.5
99762.9
99763.1
99763.3
99763.5
99763.6
99763.7
99763.7
99763.6
99763.5
99763.4
99763.2
99762.9
99762.6
99762.3
99761.9
99761.3
99760.8
99760.1
99759.6
99759.2
99759.6
99759.9
99752.8
99754.4
99753.4
99752.5
99752.3
99752.4
99752.6
99752.8
99753.1
99753.3
99753.5
99753.6
99753.7
99753.8
99753.8
99753.7
99753.6
99753.5
99753.3
99753.1
99752.8
99752.5
99752.1
99751.6
99751.2
99750.7
99750.5
99750.7
99751.8
99751
99743.1
99745.6
99744.9
99743.9
99743.5
99743.4
99743.5
99743.7
99743.9
99744.1
99744.2
99744.4
99744.5
99744.5
99744.5
99744.5
99744.4
99744.2
99744.1
99743.8
99743.6
99743.3
99742.9
99742.5
99742.2
99741.9
99742
99742.8
99744.2
99742.1
99733
99735.5
99735.8
99735.2
99734.9
99734.9
99734.9
99735.1
99735.3
99735.4
99735.6
99735.7
99735.8
99735.8
99735.8
99735.8
99735.7
99735.6
99735.4
99735.2
99735
99734.7
99734.3
99734
99733.7
99733.6
99733.7
99734.6
99735.4
99732.5
99723.3
99724.3
99726
99726.4
99726.6
99726.7
99726.8
99727
99727.2
99727.4
99727.5
99727.6
99727.7
99727.8
99727.8
99727.7
99727.6
99727.5
99727.4
99727.2
99726.9
99726.7
99726.3
99726
99725.7
99725.5
99725.5
99725.8
99725
99723
99714.4
99714.2
99716.6
99717.9
99718.5
99718.9
99719.2
99719.5
99719.7
99719.9
99720
99720.1
99720.2
99720.2
99720.2
99720.2
99720.1
99720
99719.9
99719.7
99719.5
99719.2
99718.9
99718.6
99718.3
99717.9
99717.4
99716.7
99714.2
99714
99706.6
99706.2
99708.5
99710.1
99711.1
99711.7
99712.2
99712.5
99712.8
99713
99713.1
99713.2
99713.3
99713.3
99713.3
99713.3
99713.2
99713.1
99713
99712.8
99712.6
99712.4
99712.1
99711.7
99711.3
99710.8
99709.9
99708.4
99705.6
99706.1
99700.2
99699.7
99701.9
99703.4
99704.5
99705.2
99705.7
99706.1
99706.4
99706.6
99706.7
99706.8
99706.9
99706.9
99706.9
99706.9
99706.8
99706.8
99706.6
99706.5
99706.3
99706.1
99705.8
99705.5
99705
99704.4
99703.4
99701.8
99699.1
99699.8
99695.3
99694.5
99696.3
99697.7
99698.7
99699.4
99699.9
99700.3
99700.6
99700.8
99700.9
99701
99701
99701.1
99701.1
99701
99701
99700.9
99700.8
99700.7
99700.6
99700.4
99700.1
99699.8
99699.4
99698.7
99697.8
99696.6
99694.3
99695.1
99691.3
99690.4
99691.6
99692.7
99693.6
99694.3
99694.7
99695.1
99695.3
99695.5
99695.6
99695.7
99695.7
99695.7
99695.7
99695.7
99695.7
99695.6
99695.6
99695.5
99695.3
99695.2
99695
99694.7
99694.3
99693.8
99693
99692.1
99690.5
99691.3
99687.8
99686.9
99687.7
99688.4
99689.2
99689.8
99690.1
99690.4
99690.6
99690.7
99690.8
99690.9
99690.9
99690.9
99690.9
99690.9
99690.9
99690.8
99690.8
99690.7
99690.6
99690.5
99690.3
99690.1
99689.8
99689.4
99688.7
99688.1
99687.2
99687.8
99684.9
99684.2
99684.4
99684.8
99685.4
99685.8
99686.1
99686.3
99686.4
99686.5
99686.6
99686.6
99686.6
99686.6
99686.6
99686.6
99686.6
99686.5
99686.5
99686.5
99686.4
99686.3
99686.2
99686
99685.8
99685.5
99684.9
99684.4
99684.1
99684.6
99682.6
99681.9
99681.9
99681.9
99682.2
99682.4
99682.6
99682.7
99682.7
99682.8
99682.8
99682.8
99682.8
99682.8
99682.8
99682.7
99682.7
99682.7
99682.7
99682.7
99682.7
99682.6
99682.6
99682.5
99682.3
99682.1
99681.7
99681.4
99681.4
99681.9
99680.8
99680.5
99680
99679.7
99679.7
99679.7
99679.6
99679.6
99679.5
99679.5
99679.5
99679.5
99679.4
99679.4
99679.4
99679.4
99679.4
99679.4
99679.4
99679.4
99679.4
99679.4
99679.4
99679.4
99679.4
99679.3
99679.1
99679.2
99679.5
99679.8
99679.3
99679.8
99679
99678.2
99677.7
99677.4
99677.1
99676.9
99676.8
99676.7
99676.6
99676.6
99676.6
99676.5
99676.5
99676.5
99676.5
99676.5
99676.5
99676.5
99676.6
99676.6
99676.7
99676.9
99677
99677.2
99677.4
99677.9
99678.5
99678.1
99677.7
99679.5
99678.6
99677.3
99676.3
99675.5
99675
99674.7
99674.5
99674.3
99674.2
99674.2
99674.1
99674.1
99674.1
99674.1
99674.1
99674.1
99674.1
99674.1
99674.2
99674.3
99674.5
99674.8
99675.1
99675.7
99676.4
99677.4
99678
99676.4
99675.4
99678.3
99679
99676.8
99675.1
99674
99673.3
99672.8
99672.5
99672.4
99672.3
99672.2
99672.2
99672.2
99672.1
99672.1
99672.1
99672.1
99672.1
99672.2
99672.2
99672.4
99672.6
99673
99673.6
99674.6
99676.2
99678.1
99677.1
99674.1
99673.3
99674.7
99676.8
99675.6
99673.7
99672.5
99671.7
99671.3
99671
99670.8
99670.7
99670.7
99670.7
99670.7
99670.6
99670.6
99670.6
99670.6
99670.6
99670.6
99670.7
99670.8
99671.1
99671.5
99672.3
99673.5
99675.4
99676.4
99673.6
99672.3
99670.7
99669.5
99672.2
99673.1
99672
99671
99670.4
99670
99669.8
99669.7
99669.6
99669.6
99669.6
99669.6
99669.6
99669.6
99669.6
99669.5
99669.5
99669.5
99669.6
99669.7
99669.9
99670.3
99670.9
99672
99673.1
99672
99669.2
99670.6
99666.9
99665.5
99667.5
99670.1
99670.2
99669.6
99669.3
99669
99668.9
99668.9
99668.9
99668.9
99668.9
99668.9
99669
99668.9
99668.9
99668.9
99668.8
99668.8
99668.8
99668.8
99668.9
99669.2
99669.6
99670.2
99670
99667.4
99665.8
99667.5
99663.8
99663
99664.5
99667.3
99668.5
99668.4
99668.4
99668.4
99668.4
99668.5
99668.6
99668.6
99668.7
99668.7
99668.7
99668.7
99668.7
99668.7
99668.6
99668.5
99668.4
99668.3
99668.3
99668.3
99668.4
99668.6
99667.3
99664.6
99663.5
99664.5
99661.7
99661.5
99662.7
99665.3
99667.1
99667.6
99667.8
99668.1
99668.3
99668.5
99668.7
99668.8
99668.9
99669
99669
99669
99668.9
99668.9
99668.8
99668.6
99668.4
99668.2
99668
99667.8
99667.5
99667.1
99665.3
99662.9
99661.9
99662.3
99660.3
99660.2
99661.5
99663.9
99666.1
99667.1
99667.7
99668.2
99668.6
99669
99669.2
99669.4
99669.5
99669.6
99669.7
99669.6
99669.6
99669.5
99669.4
99669.2
99668.9
99668.6
99668.1
99667.7
99667
99666.1
99663.8
99661.7
99660.6
99660.7
99659.9
99659.6
99660.8
99663
99665.6
99667.1
99668
99668.8
99669.3
99669.8
99670.1
99670.4
99670.6
99670.7
99670.7
99670.7
99670.7
99670.5
99670.3
99670.1
99669.7
99669.3
99668.7
99668
99667
99665.5
99662.8
99660.9
99659.9
99660.2
99660.8
99660.1
99661.2
99662.9
99665.6
99667.6
99668.9
99669.8
99670.5
99671.1
99671.5
99671.8
99672.1
99672.2
99672.3
99672.3
99672.2
99672
99671.8
99671.5
99671
99670.5
99669.7
99668.8
99667.4
99665.5
99662.8
99661.1
99660.1
99660.9
99663
99661.9
99662.6
99664.1
99666.5
99668.7
99670.2
99671.3
99672.2
99672.9
99673.4
99673.7
99674
99674.2
99674.2
99674.2
99674.1
99674
99673.7
99673.3
99672.8
99672.1
99671.2
99670.1
99668.5
99666.4
99663.9
99662.4
99661.7
99662.9
99666.3
99664.9
99665.2
99666.4
99668.5
99670.6
99672.2
99673.4
99674.3
99675.1
99675.6
99676.1
99676.4
99676.5
99676.6
99676.6
99676.5
99676.3
99676
99675.6
99675
99674.3
99673.3
99672.1
99670.4
99668.3
99666.2
99664.9
99664.7
99666.1
99670.4
99669.2
99668.8
99669.6
99671.4
99673.3
99674.9
99676.1
99677.1
99677.8
99678.4
99678.9
99679.2
99679.4
99679.5
99679.5
99679.4
99679.1
99678.8
99678.4
99677.8
99677
99676
99674.7
99673.2
99671.2
99669.4
99668.6
99668.9
99670.1
99675.1
99674.3
99673.5
99673.8
99675.3
99676.9
99678.3
99679.4
99680.4
99681.1
99681.7
99682.2
99682.5
99682.7
99682.8
99682.8
99682.7
99682.5
99682.1
99681.7
99681.1
99680.3
99679.3
99678.1
99676.7
99675.1
99673.6
99673.2
99674.1
99674.8
99679.7
99679.7
99678.8
99678.7
99679.9
99681.2
99682.3
99683.4
99684.3
99685
99685.6
99686
99686.3
99686.6
99686.7
99686.7
99686.5
99686.3
99685.9
99685.5
99684.9
99684.2
99683.3
99682.2
99681
99679.7
99678.5
99678.5
99679.5
99679.5
99684.3
99684.9
99684.1
99684
99685
99686
99687
99688
99688.8
99689.4
99690
99690.4
99690.7
99690.9
99691
99691
99690.9
99690.7
99690.3
99689.9
99689.3
99688.7
99687.9
99686.9
99685.9
99684.9
99683.8
99683.9
99684.7
99684.1
99689.1
99690
99689.5
99689.6
99690.5
99691.4
99692.3
99693.1
99693.8
99694.4
99694.9
99695.3
99695.6
99695.7
99695.8
99695.8
99695.7
99695.5
99695.2
99694.8
99694.3
99693.7
99693
99692.1
99691.2
99690.3
99689.4
99689.4
99689.8
99688.9
99694.1
99695
99695.1
99695.4
99696.3
99697.1
99697.9
99698.7
99699.3
99699.8
99700.3
99700.6
99700.9
99701.1
99701.1
99701.1
99701
99700.9
99700.6
99700.2
99699.8
99699.2
99698.5
99697.8
99697
99696.2
99695.2
99694.9
99694.8
99693.9
99699.4
99700.1
99700.7
99701.4
99702.4
99703.3
99704
99704.7
99705.3
99705.8
99706.2
99706.5
99706.7
99706.8
99706.9
99706.9
99706.8
99706.6
99706.4
99706.1
99705.7
99705.2
99704.6
99703.9
99703.2
99702.3
99701.3
99700.6
99699.9
99699.2
99705.3
99705.7
99706.8
99708
99709
99709.8
99710.5
99711.1
99711.7
99712.1
99712.4
99712.7
99712.9
99713
99713.1
99713
99713
99712.8
99712.6
99712.3
99712
99711.6
99711
99710.4
99709.7
99708.8
99707.8
99706.6
99705.5
99705.1
99712
99712.2
99713.6
99715
99716
99716.7
99717.4
99717.9
99718.4
99718.8
99719
99719.3
99719.4
99719.5
99719.6
99719.6
99719.5
99719.4
99719.2
99719
99718.7
99718.3
99717.8
99717.3
99716.6
99715.8
99714.9
99713.4
99712
99711.8
99719.6
99719.6
99721.2
99722.6
99723.5
99724.2
99724.7
99725.2
99725.6
99725.9
99726.1
99726.3
99726.4
99726.5
99726.5
99726.5
99726.5
99726.4
99726.2
99726
99725.8
99725.5
99725.1
99724.6
99724
99723.3
99722.4
99721.1
99719.5
99719.4
99727.7
99728.1
99729.5
99730.7
99731.5
99732.1
99732.5
99732.9
99733.1
99733.4
99733.5
99733.7
99733.8
99733.8
99733.8
99733.8
99733.8
99733.7
99733.6
99733.4
99733.3
99733
99732.7
99732.4
99731.9
99731.3
99730.5
99729.3
99727.9
99727.5
99736.2
99737
99738.4
99739.3
99740
99740.4
99740.7
99740.9
99741.1
99741.2
99741.3
99741.4
99741.4
99741.5
99741.5
99741.5
99741.5
99741.4
99741.3
99741.2
99741.1
99740.9
99740.8
99740.5
99740.2
99739.8
99739.1
99738.2
99736.8
99736
99746.4
99747.1
99748.1
99748.5
99748.9
99749.1
99749.2
99749.3
99749.4
99749.4
99749.4
99749.5
99749.5
99749.5
99749.5
99749.5
99749.5
99749.4
99749.4
99749.4
99749.3
99749.3
99749.2
99749.1
99748.9
99748.7
99748.3
99747.9
99746.9
99746.2
99758.6
99758.1
99758.4
99758.2
99758.2
99758.1
99758.1
99758
99758
99757.9
99757.8
99757.8
99757.8
99757.8
99757.8
99757.7
99757.7
99757.7
99757.7
99757.8
99757.8
99757.8
99757.9
99757.9
99758
99758
99758
99758.2
99757.9
99758.4
99771.1
99769.5
99769
99768.1
99767.8
99767.4
99767.2
99766.9
99766.7
99766.6
99766.5
99766.4
99766.3
99766.3
99766.2
99766.2
99766.2
99766.3
99766.3
99766.4
99766.5
99766.6
99766.8
99767
99767.2
99767.6
99767.9
99768.7
99769.3
99770.9
99782.9
99780.8
99779.5
99778
99777.4
99776.8
99776.4
99776
99775.7
99775.4
99775.3
99775.1
99775
99774.9
99774.9
99774.9
99774.9
99774.9
99775
99775.2
99775.3
99775.5
99775.8
99776.2
99776.6
99777.2
99777.8
99779.2
99780.5
99782.6
99793.9
99791.9
99789.8
99787.9
99787
99786.2
99785.6
99785.1
99784.7
99784.4
99784.1
99783.9
99783.8
99783.6
99783.6
99783.6
99783.6
99783.7
99783.8
99784
99784.3
99784.5
99784.9
99785.4
99786
99786.8
99787.6
99789.5
99791.6
99793.6
99804.1
99802.6
99799.8
99797.6
99796.5
99795.5
99794.8
99794.2
99793.7
99793.3
99793
99792.8
99792.6
99792.5
99792.4
99792.4
99792.4
99792.6
99792.7
99793
99793.2
99793.6
99794
99794.6
99795.3
99796.3
99797.4
99799.5
99802.3
99803.8
99812.9
99812.4
99809.5
99807.2
99805.9
99804.8
99804
99803.3
99802.8
99802.3
99802
99801.7
99801.4
99801.2
99801.1
99801.1
99801.2
99801.4
99801.6
99801.9
99802.2
99802.7
99803.2
99803.8
99804.6
99805.7
99806.9
99809.1
99812
99812.5
99820.7
99820.9
99818.7
99816.6
99815.2
99814
99813.1
99812.3
99811.8
99811.3
99810.9
99810.7
99810.5
99810.4
99810.3
99810.3
99810.3
99810.4
99810.6
99810.9
99811.2
99811.6
99812.2
99812.9
99813.8
99815
99816.3
99818.3
99820.5
99820.2
99828.5
99829
99827.6
99825.8
99824.6
99823.4
99822.4
99821.7
99821.1
99820.7
99820.5
99820.3
99820.2
99820.2
99820.2
99820.2
99820.1
99820.2
99820.3
99820.4
99820.7
99821.1
99821.6
99822.3
99823.1
99824.3
99825.5
99827.2
99828.4
99828
99836.7
99837.1
99836.6
99835.2
99834.1
99833.1
99832.4
99831.8
99831.3
99831
99830.7
99830.6
99830.5
99830.5
99830.6
99830.6
99830.5
99830.5
99830.5
99830.7
99830.9
99831.3
99831.7
99832.2
99832.9
99833.8
99834.8
99836.2
99836.5
99836.1
99845.2
99845.6
99845.7
99844.8
99844
99843.4
99842.8
99842.3
99841.9
99841.6
99841.4
99841.3
99841.2
99841.2
99841.2
99841.2
99841.2
99841.2
99841.3
99841.4
99841.6
99841.9
99842.2
99842.7
99843.2
99843.8
99844.4
99845.3
99845.1
99844.6
99854.3
99854.8
99855.1
99854.7
99854.3
99853.8
99853.4
99853
99852.7
99852.5
99852.4
99852.3
99852.1
99852.1
99852
99852
99852.1
99852.2
99852.3
99852.4
99852.5
99852.7
99853
99853.3
99853.7
99854.1
99854.4
99854.7
99854.2
99853.6
99864
99864.6
99865
99864.9
99864.8
99864.6
99864.3
99864
99863.8
99863.7
99863.5
99863.3
99863.2
99863
99862.9
99862.9
99863
99863.2
99863.4
99863.6
99863.7
99863.8
99864
99864.3
99864.5
99864.7
99864.6
99864.6
99864
99863.4
99874.6
99874.9
99875.2
99875.4
99875.6
99875.6
99875.4
99875.2
99875.1
99874.9
99874.7
99874.5
99874.3
99874.1
99874.1
99874.1
99874.2
99874.4
99874.6
99874.8
99875
99875.2
99875.3
99875.5
99875.5
99875.5
99875.2
99874.8
99874.5
99874.1
99886
99885.6
99885.9
99886.4
99886.7
99886.8
99886.7
99886.6
99886.5
99886.3
99886.1
99885.9
99885.8
99885.7
99885.7
99885.7
99885.8
99885.9
99886
99886.2
99886.4
99886.6
99886.8
99886.9
99886.9
99886.7
99886.3
99885.7
99885.3
99885.4
99897.9
99897
99897.5
99898
99898.3
99898.5
99898.6
99898.5
99898.4
99898.2
99898.1
99898
99897.9
99897.9
99897.9
99897.9
99898
99898.1
99898.2
99898.3
99898.4
99898.6
99898.7
99898.8
99898.8
99898.5
99898.2
99897.6
99896.9
99897.4
99910.4
99909.4
99910.4
99910.9
99911.4
99911.6
99911.7
99911.6
99911.5
99911.3
99911.1
99910.9
99910.8
99910.8
99910.9
99911
99911.1
99911.2
99911.4
99911.7
99912
99912.1
99912.2
99912.2
99912.1
99911.9
99911.5
99910.9
99909.8
99910.9
99924
99923.1
99924.5
99925.5
99926.1
99926.5
99926.5
99926.5
99926.3
99926.2
99926
99925.9
99925.8
99925.8
99925.8
99925.9
99925.9
99926.1
99926.3
99926.6
99926.9
99927.2
99927.2
99927.2
99927.1
99926.9
99926.1
99925.4
99924.1
99925.2
99937.4
99937.1
99938.2
99939.5
99941
99941.8
99942.1
99942.2
99942.2
99942.2
99942.1
99942
99941.9
99941.8
99941.8
99941.9
99942
99942.1
99942.3
99942.5
99942.7
99942.8
99942.9
99942.8
99942.5
99941.7
99940.3
99939.3
99938.3
99938.5
99949.3
99949.8
99950.1
99950.7
99951.8
99952.6
99953.1
99953.4
99953.5
99953.6
99953.5
99953.5
99953.4
99953.4
99953.3
99953.4
99953.4
99953.6
99953.7
99953.8
99953.9
99954
99954
99953.8
99953.4
99952.6
99951.7
99951.3
99950.9
99950.6
99959.6
99960.2
99960.4
99960.7
99961.2
99961.5
99961.5
99961.6
99961.6
99961.6
99961.5
99961.4
99961.3
99961.2
99961.2
99961.2
99961.3
99961.4
99961.6
99961.7
99961.8
99962
99962.1
99962.1
99962.1
99962
99961.7
99961.8
99961.7
99961.2
99968.7
99968.8
99969.2
99969.2
99969.3
99969.3
99969
99968.9
99968.8
99968.6
99968.4
99968.2
99968
99967.9
99967.8
99967.9
99967.9
99968.2
99968.5
99968.7
99968.9
99969.2
99969.4
99969.6
99969.9
99970.1
99970.1
99970.4
99970.3
99970.3
99976.7
99976.1
99976.3
99976.1
99976
99975.6
99975.2
99974.9
99974.7
99974.5
99974.2
99973.9
99973.7
99973.4
99973.4
99973.4
99973.6
99973.9
99974.2
99974.4
99974.8
99975.2
99975.4
99975.6
99976.1
99976.7
99977
99977.3
99977.2
99978
99983.3
99982.5
99982.7
99982.3
99981.8
99981.4
99980.9
99980.6
99980.2
99979.8
99979.4
99979.1
99978.9
99978.7
99978.5
99978.6
99978.7
99979.1
99979.5
99979.8
99980.2
99980.7
99981.1
99981.4
99981.9
99982.3
99982.8
99983.3
99983.2
99984
99988.5
99987.8
99988
99987.7
99987.2
99986.7
99986.4
99986
99985.7
99985.3
99984.9
99984.7
99984.4
99984.2
99984
99984
99984.1
99984.5
99984.9
99985.1
99985.5
99985.9
99986.3
99986.8
99987.2
99987.6
99988
99988.3
99988.3
99988.9
99992.2
99991.8
99992
99991.8
99991.5
99991.2
99990.9
99990.6
99990.3
99990.1
99990
99989.8
99989.6
99989.4
99989.2
99989.2
99989.2
99989.4
99989.6
99989.8
99990
99990.3
99990.6
99991.1
99991.5
99991.8
99992.2
99992.3
99992.1
99992.6
99994.8
99994.5
99994.7
99994.7
99994.4
99994.2
99994
99993.8
99993.5
99993.5
99993.5
99993.4
99993.2
99993.1
99993.1
99993.1
99993.1
99993.1
99993.1
99993.3
99993.3
99993.4
99993.7
99994
99994.4
99994.7
99994.9
99994.9
99994.8
99995.2
99996.3
99996.1
99996.1
99996.2
99996.1
99995.9
99995.8
99995.6
99995.5
99995.4
99995.4
99995.4
99995.3
99995.3
99995.3
99995.3
99995.3
99995.3
99995.2
99995.3
99995.4
99995.5
99995.6
99995.9
99996.1
99996.3
99996.5
99996.4
99996.4
99996.6
99997
99996.9
99996.8
99996.9
99996.8
99996.7
99996.6
99996.5
99996.4
99996.4
99996.3
99996.3
99996.3
99996.3
99996.3
99996.3
99996.4
99996.3
99996.3
99996.4
99996.5
99996.6
99996.7
99996.8
99997
99997.1
99997.1
99997
99997.1
99997.2
99997.2
99997.2
99997.1
99997.1
99997.1
99997
99996.9
99996.9
99996.8
99996.7
99996.7
99996.7
99996.7
99996.7
99996.7
99996.7
99996.7
99996.8
99996.8
99996.8
99996.9
99997
99997.1
99997.2
99997.3
99997.3
99997.3
99997.3
99997.4
99997.4
99997.2
99997.2
99997.2
99997.1
99997.1
99997.1
99997
99996.9
99996.9
99996.8
99996.8
99996.7
99996.7
99996.8
99996.8
99996.8
99996.8
99996.9
99996.9
99996.9
99997
99997.1
99997.2
99997.3
99997.3
99997.4
99997.4
99997.4
99997.5
99997.4
99997.2
99997.2
99997.2
99997.1
99997.1
99997.1
99997
99996.9
99996.9
99996.8
99996.8
99996.8
99996.8
99996.8
99996.8
99996.8
99996.9