/*--------------------------------*- C++ -*----------------------------------*\
| =========                 |                                                 |
| \\      /  F ield         | OpenFOAM: The Open Source CFD Toolbox           |
|  \\    /   O peration     | Version:  2.3.0                                 |
|   \\  /    A nd           | Web:      www.OpenFOAM.org                      |
|    \\/     M anipulation  |                                                 |
\*---------------------------------------------------------------------------*/
FoamFile
{
    version     2.0;
    format      ascii;
    class       volVectorField;
    location    "0.11";
    object      U.airMean;
}
// * * * * * * * * * * * * * * * * * * * * * * * * * * * * * * * * * * * * * //

dimensions      [0 1 -1 0 0 0 0];

internalField   nonuniform List<vector> 
6000
(
(-0.00682595 0.338018 0)
(0.0136941 0.322259 0)
(0.0403744 0.333024 0)
(0.0537057 0.33922 0)
(0.0609275 0.343656 0)
(0.0642211 0.3467 0)
(0.0646083 0.348917 0)
(0.0624635 0.35094 0)
(0.0579768 0.352756 0)
(0.0515343 0.354133 0)
(0.0436184 0.355078 0)
(0.0347041 0.355694 0)
(0.025162 0.356055 0)
(0.0152441 0.356296 0)
(0.00510353 0.35644 0)
(-0.00515819 0.356445 0)
(-0.0153286 0.356286 0)
(-0.0252637 0.356045 0)
(-0.0348181 0.355677 0)
(-0.0437414 0.355065 0)
(-0.0516663 0.354114 0)
(-0.0581156 0.352738 0)
(-0.0626138 0.350914 0)
(-0.0647722 0.348892 0)
(-0.0644005 0.346665 0)
(-0.0611139 0.343621 0)
(-0.0538915 0.339204 0)
(-0.0405417 0.333014 0)
(-0.0138401 0.322245 0)
(0.00675588 0.338038 0)
(0.0193112 0.849587 0)
(0.0371944 0.813075 0)
(0.064542 0.828873 0)
(0.0798541 0.8377 0)
(0.0867273 0.845285 0)
(0.0871154 0.852202 0)
(0.0836966 0.85806 0)
(0.0774841 0.862475 0)
(0.0696712 0.86593 0)
(0.0605296 0.868355 0)
(0.0503972 0.870094 0)
(0.0395993 0.871085 0)
(0.0284083 0.87176 0)
(0.0170244 0.871981 0)
(0.00562398 0.872163 0)
(-0.00574477 0.872185 0)
(-0.0171528 0.872024 0)
(-0.0285412 0.87176 0)
(-0.0397377 0.87112 0)
(-0.0505443 0.870092 0)
(-0.060687 0.868393 0)
(-0.0698435 0.865931 0)
(-0.0776755 0.862527 0)
(-0.0839118 0.858075 0)
(-0.0873478 0.852249 0)
(-0.0869575 0.845271 0)
(-0.0800332 0.837687 0)
(-0.0646423 0.828801 0)
(-0.0372215 0.813058 0)
(-0.0193131 0.849371 0)
(0.0239318 0.784858 0)
(0.044853 0.742464 0)
(0.07728 0.76635 0)
(0.0998398 0.78809 0)
(0.109179 0.805613 0)
(0.107507 0.817894 0)
(0.0995182 0.82677 0)
(0.0890394 0.83351 0)
(0.0777054 0.838723 0)
(0.065956 0.842547 0)
(0.0539616 0.845017 0)
(0.0418612 0.846596 0)
(0.0297584 0.847413 0)
(0.017721 0.847823 0)
(0.00579513 0.847867 0)
(-0.00601764 0.847906 0)
(-0.0179019 0.847818 0)
(-0.0299169 0.847443 0)
(-0.0420099 0.846593 0)
(-0.0541105 0.845057 0)
(-0.0661143 0.842557 0)
(-0.0778814 0.838779 0)
(-0.0892416 0.833541 0)
(-0.0997546 0.826841 0)
(-0.10777 0.817911 0)
(-0.109428 0.805584 0)
(-0.100003 0.78796 0)
(-0.0773088 0.7662 0)
(-0.0447638 0.742353 0)
(-0.023847 0.784771 0)
(0.0222014 0.743637 0)
(0.0419276 0.712356 0)
(0.0758787 0.734147 0)
(0.104594 0.764364 0)
(0.120339 0.795094 0)
(0.121321 0.817478 0)
(0.111936 0.829976 0)
(0.0979655 0.836733 0)
(0.0831038 0.841024 0)
(0.0687503 0.843938 0)
(0.0551189 0.845769 0)
(0.042129 0.846764 0)
(0.0296603 0.847251 0)
(0.0175725 0.847341 0)
(0.00573754 0.847252 0)
(-0.00598202 0.847212 0)
(-0.017763 0.847329 0)
(-0.0298162 0.847242 0)
(-0.0422638 0.846787 0)
(-0.0552422 0.845791 0)
(-0.0688736 0.843998 0)
(-0.0832403 0.841093 0)
(-0.0981283 0.836847 0)
(-0.112147 0.830096 0)
(-0.121599 0.817557 0)
(-0.120653 0.795035 0)
(-0.104831 0.764129 0)
(-0.0759455 0.733842 0)
(-0.0418303 0.712177 0)
(-0.0220898 0.743683 0)
(0.0182964 0.722861 0)
(0.037053 0.685922 0)
(0.0725281 0.708344 0)
(0.102347 0.747115 0)
(0.12048 0.79042 0)
(0.124444 0.825399 0)
(0.116636 0.84643 0)
(0.102182 0.856446 0)
(0.0857162 0.860626 0)
(0.0697269 0.862395 0)
(0.0550088 0.863137 0)
(0.0415078 0.86324 0)
(0.0289748 0.863025 0)
(0.0171034 0.862674 0)
(0.00559679 0.862338 0)
(-0.00578145 0.862264 0)
(-0.0172625 0.862623 0)
(-0.0291083 0.862992 0)
(-0.0416146 0.863232 0)
(-0.0550894 0.863154 0)
(-0.0697867 0.862447 0)
(-0.0857709 0.860716 0)
(-0.102261 0.856588 0)
(-0.116788 0.84664 0)
(-0.124737 0.825635 0)
(-0.120908 0.790484 0)
(-0.102785 0.746868 0)
(-0.0728145 0.707911 0)
(-0.0370893 0.685653 0)
(-0.0182318 0.722983 0)
(0.0189734 0.705263 0)
(0.0379919 0.661007 0)
(0.0691872 0.685103 0)
(0.0960738 0.733126 0)
(0.112715 0.788689 0)
(0.116838 0.834842 0)
(0.110129 0.862963 0)
(0.0969539 0.875698 0)
(0.0814885 0.879775 0)
(0.0661346 0.880045 0)
(0.0519413 0.879016 0)
(0.0390275 0.877659 0)
(0.0271654 0.876403 0)
(0.0160231 0.875419 0)
(0.00526938 0.874812 0)
(-0.00537668 0.874736 0)
(-0.0161363 0.875352 0)
(-0.0272657 0.876346 0)
(-0.0391 0.877617 0)
(-0.0519742 0.878996 0)
(-0.0661233 0.880068 0)
(-0.0814423 0.879866 0)
(-0.096908 0.875902 0)
(-0.110155 0.863317 0)
(-0.117029 0.835274 0)
(-0.113131 0.78895 0)
(-0.0966857 0.732956 0)
(-0.0698801 0.684562 0)
(-0.0384731 0.660541 0)
(-0.0191457 0.705272 0)
(0.0249039 0.684319 0)
(0.045212 0.644046 0)
(0.0656587 0.668651 0)
(0.083593 0.722982 0)
(0.0956875 0.78764 0)
(0.0997077 0.844363 0)
(0.0952151 0.880432 0)
(0.0846366 0.896393 0)
(0.0716733 0.900596 0)
(0.0585171 0.89965 0)
(0.0461578 0.897069 0)
(0.0347863 0.894405 0)
(0.0242599 0.892223 0)
(0.0143311 0.890674 0)
(0.00472701 0.889827 0)
(-0.00480168 0.889768 0)
(-0.0144231 0.890598 0)
(-0.0243424 0.892145 0)
(-0.0348364 0.89432 0)
(-0.0461537 0.89699 0)
(-0.0584374 0.899601 0)
(-0.0715023 0.90062 0)
(-0.0843757 0.896561 0)
(-0.0949173 0.880831 0)
(-0.0994782 0.844925 0)
(-0.0957256 0.788149 0)
(-0.0841214 0.723194 0)
(-0.0667563 0.668381 0)
(-0.0464344 0.643377 0)
(-0.0255992 0.683875 0)
(0.030561 0.653926 0)
(0.0531498 0.636207 0)
(0.0629409 0.665605 0)
(0.0682405 0.723267 0)
(0.0714545 0.79043 0)
(0.0736519 0.851867 0)
(0.0724887 0.893852 0)
(0.0666358 0.913886 0)
(0.057913 0.919332 0)
(0.048184 0.918007 0)
(0.0385204 0.914604 0)
(0.0292986 0.911099 0)
(0.0205593 0.908225 0)
(0.0121862 0.906227 0)
(0.00401723 0.905192 0)
(-0.00410702 0.905148 0)
(-0.0122895 0.906146 0)
(-0.0206499 0.908112 0)
(-0.0293515 0.910955 0)
(-0.0385033 0.914436 0)
(-0.0480547 0.917836 0)
(-0.0576159 0.919201 0)
(-0.0661201 0.913886 0)
(-0.0717319 0.894128 0)
(-0.0727351 0.852459 0)
(-0.0706466 0.791257 0)
(-0.0682429 0.724323 0)
(-0.0641592 0.666161 0)
(-0.0548957 0.635448 0)
(-0.0317699 0.652377 0)
(0.0319598 0.619387 0)
(0.0556118 0.632957 0)
(0.059034 0.673697 0)
(0.0527215 0.734766 0)
(0.0461811 0.79911 0)
(0.045117 0.859167 0)
(0.0463979 0.903442 0)
(0.0456478 0.926814 0)
(0.0420855 0.934326 0)
(0.0364838 0.933629 0)
(0.0300091 0.930083 0)
(0.0232596 0.926189 0)
(0.0165161 0.922933 0)
(0.00985129 0.920675 0)
(0.00323807 0.919515 0)
(-0.00336752 0.91949 0)
(-0.00998647 0.920585 0)
(-0.01664 0.922796 0)
(-0.0233476 0.925986 0)
(-0.0300258 0.929818 0)
(-0.0363704 0.933295 0)
(-0.0417656 0.933961 0)
(-0.0449871 0.926487 0)
(-0.0453019 0.903371 0)
(-0.0435277 0.859487 0)
(-0.0442376 0.799982 0)
(-0.0515595 0.736985 0)
(-0.0595503 0.675487 0)
(-0.05706 0.632364 0)
(-0.0330246 0.61634 0)
(0.0289273 0.585515 0)
(0.0507712 0.631163 0)
(0.0504037 0.688777 0)
(0.0368449 0.753722 0)
(0.0238461 0.811854 0)
(0.0206466 0.866808 0)
(0.0231006 0.909931 0)
(0.0260539 0.935087 0)
(0.0269147 0.945007 0)
(0.0252514 0.945975 0)
(0.0218511 0.943193 0)
(0.0175127 0.93959 0)
(0.0126931 0.936397 0)
(0.0076475 0.93413 0)
(0.00250159 0.93297 0)
(-0.00267502 0.932941 0)
(-0.00782344 0.934042 0)
(-0.0128647 0.936232 0)
(-0.0176652 0.939345 0)
(-0.0219531 0.94283 0)
(-0.0252555 0.945485 0)
(-0.0267166 0.944357 0)
(-0.0255243 0.934339 0)
(-0.0220294 0.909264 0)
(-0.0188056 0.866444 0)
(-0.0211035 0.812286 0)
(-0.0339833 0.756407 0)
(-0.0488356 0.692493 0)
(-0.0509711 0.631247 0)
(-0.029373 0.5815 0)
(0.0218421 0.557 0)
(0.0393781 0.630685 0)
(0.0362221 0.705879 0)
(0.0208454 0.774478 0)
(0.00738607 0.825946 0)
(0.00348998 0.874367 0)
(0.00600526 0.914367 0)
(0.0107712 0.940016 0)
(0.0143944 0.952091 0)
(0.0156764 0.955221 0)
(0.0148089 0.953861 0)
(0.0125249 0.951078 0)
(0.00937619 0.948308 0)
(0.00574391 0.94625 0)
(0.00186996 0.945103 0)
(-0.00207728 0.945084 0)
(-0.00595732 0.946151 0)
(-0.00960138 0.948148 0)
(-0.0127584 0.950802 0)
(-0.0150416 0.953458 0)
(-0.0158741 0.954606 0)
(-0.0144984 0.95123 0)
(-0.0106589 0.938899 0)
(-0.00545191 0.913056 0)
(-0.00213545 0.873048 0)
(-0.00494326 0.825334 0)
(-0.0168265 0.776159 0)
(-0.032605 0.710556 0)
(-0.0374843 0.632301 0)
(-0.0215814 0.552763 0)
(0.012714 0.537977 0)
(0.024694 0.632778 0)
(0.0214518 0.722318 0)
(0.00872072 0.791685 0)
(-0.00108348 0.839637 0)
(-0.00560222 0.882198 0)
(-0.00418381 0.918177 0)
(0.000533346 0.94317 0)
(0.00527043 0.956813 0)
(0.00820152 0.961967 0)
(0.00910868 0.962341 0)
(0.00838877 0.960681 0)
(0.00659884 0.958621 0)
(0.00414621 0.956962 0)
(0.00134431 0.95608 0)
(-0.00157096 0.956055 0)
(-0.00438771 0.956891 0)
(-0.00687018 0.958467 0)
(-0.00870523 0.96044 0)
(-0.00948357 0.961941 0)
(-0.00864301 0.961355 0)
(-0.00576686 0.955883 0)
(-0.00103634 0.941873 0)
(0.00384535 0.916401 0)
(0.00582749 0.879978 0)
(0.00255891 0.837607 0)
(-0.00502371 0.791296 0)
(-0.0159228 0.726707 0)
(-0.0206468 0.637255 0)
(-0.011674 0.534517 0)
(0.0051698 0.530761 0)
(0.0135545 0.636234 0)
(0.0108697 0.734904 0)
(0.00401951 0.804312 0)
(-0.002933 0.85234 0)
(-0.00803555 0.890811 0)
(-0.00847189 0.922647 0)
(-0.00512934 0.946052 0)
(-0.000684299 0.960364 0)
(0.00282435 0.967127 0)
(0.00469913 0.969094 0)
(0.00506106 0.968688 0)
(0.00429678 0.967437 0)
(0.0028051 0.966285 0)
(0.000903382 0.965667 0)
(-0.00113478 0.96566 0)
(-0.00305798 0.966223 0)
(-0.00459813 0.967342 0)
(-0.00544069 0.968499 0)
(-0.00519727 0.9688 0)
(-0.00349261 0.966621 0)
(-0.000210606 0.959571 0)
(0.0039651 0.944821 0)
(0.00706871 0.920822 0)
(0.00672724 0.888045 0)
(0.00268848 0.848819 0)
(-0.00162547 0.801331 0)
(-0.00438651 0.735822 0)
(-0.00849587 0.643355 0)
(-0.0028902 0.529752 0)
(0.0017025 0.530117 0)
(0.00805818 0.641759 0)
(0.00819275 0.742695 0)
(0.00488071 0.814845 0)
(-0.000944043 0.864344 0)
(-0.00654629 0.90032 0)
(-0.00869527 0.928478 0)
(-0.00722009 0.949637 0)
(-0.00393727 0.963726 0)
(-0.000712412 0.971463 0)
(0.00148102 0.974727 0)
(0.00246353 0.975433 0)
(0.00242793 0.975025 0)
(0.00168466 0.974344 0)
(0.000534213 0.973916 0)
(-0.000752809 0.9739 0)
(-0.00192932 0.974334 0)
(-0.00273251 0.974974 0)
(-0.00287259 0.975366 0)
(-0.00205502 0.974571 0)
(-0.000114674 0.971208 0)
(0.00273077 0.963245 0)
(0.00547416 0.948854 0)
(0.00624558 0.927094 0)
(0.00342777 0.897767 0)
(-0.00191342 0.859705 0)
(-0.00478807 0.808314 0)
(-0.00240126 0.739211 0)
(0.000622496 0.65044 0)
(0.0041212 0.533348 0)
(0.00494345 0.531519 0)
(0.00803268 0.64582 0)
(0.00951729 0.74978 0)
(0.00666985 0.825 0)
(0.00133574 0.87592 0)
(-0.00393128 0.910271 0)
(-0.00683269 0.935461 0)
(-0.00690533 0.954322 0)
(-0.00505952 0.967492 0)
(-0.002635 0.975566 0)
(-0.000632021 0.979675 0)
(0.000572447 0.981293 0)
(0.000987363 0.981586 0)
(0.000797928 0.981418 0)
(0.000245411 0.981206 0)
(-0.000433005 0.981231 0)
(-0.00101389 0.981422 0)
(-0.00126544 0.98163 0)
(-0.000960431 0.981329 0)
(6.18439e-05 0.979744 0)
(0.00176937 0.975612 0)
(0.00371125 0.967541 0)
(0.00478669 0.954265 0)
(0.00352299 0.935103 0)
(-0.00111803 0.908863 0)
(-0.00785288 0.871716 0)
(-0.0117073 0.8158 0)
(-0.00861552 0.740039 0)
(0.00213167 0.650074 0)
(0.00460334 0.545224 0)
(0.0107028 0.530192 0)
(0.00968069 0.652991 0)
(0.00777907 0.758009 0)
(0.00532157 0.83492 0)
(0.00160706 0.886306 0)
(-0.00185759 0.919727 0)
(-0.00438819 0.943012 0)
(-0.00527946 0.959936 0)
(-0.00466816 0.971962 0)
(-0.0032344 0.97981 0)
(-0.00173118 0.98434 0)
(-0.00061812 0.986534 0)
(-9.47742e-06 0.987403 0)
(0.000158638 0.987608 0)
(4.12943e-05 0.987615 0)
(-0.00018148 0.987621 0)
(-0.000321311 0.987671 0)
(-0.000203675 0.987495 0)
(0.000313227 0.986726 0)
(0.00126963 0.984599 0)
(0.00250033 0.980238 0)
(0.00346228 0.972588 0)
(0.0032252 0.960896 0)
(0.000824682 0.944256 0)
(-0.00426654 0.920729 0)
(-0.0115752 0.884608 0)
(-0.017528 0.82599 0)
(-0.017024 0.74345 0)
(-0.00878225 0.64744 0)
(-0.000578435 0.555199 0)
(0.00793288 0.524884 0)
(0.00842749 0.663811 0)
(0.00440557 0.766131 0)
(0.00186025 0.842104 0)
(0.0010075 0.893716 0)
(-0.000150887 0.927889 0)
(-0.00181594 0.950502 0)
(-0.00304764 0.966192 0)
(-0.00334874 0.977135 0)
(-0.00285363 0.984492 0)
(-0.00199495 0.98901 0)
(-0.00116955 0.991507 0)
(-0.000574116 0.992694 0)
(-0.00023292 0.993201 0)
(-7.86289e-05 0.99333 0)
(4.30623e-06 0.993374 0)
(0.00014728 0.993265 0)
(0.000462574 0.992867 0)
(0.0010125 0.991765 0)
(0.0017547 0.989457 0)
(0.00246414 0.985185 0)
(0.00268088 0.978302 0)
(0.00181823 0.968102 0)
(-0.000555891 0.953544 0)
(-0.00448679 0.932055 0)
(-0.00992503 0.897326 0)
(-0.0160804 0.838005 0)
(-0.0195436 0.752208 0)
(-0.0188418 0.647423 0)
(-0.0154262 0.551015 0)
(-0.00340296 0.526525 0)
(0.00104313 0.670517 0)
(0.000248963 0.77173 0)
(-2.9373e-05 0.845835 0)
(0.00224119 0.899293 0)
(0.00281807 0.934915 0)
(0.00127939 0.957878 0)
(-0.00043282 0.972904 0)
(-0.00152105 0.983 0)
(-0.00185556 0.989691 0)
(-0.00164682 0.993965 0)
(-0.00121188 0.996449 0)
(-0.000764845 0.997799 0)
(-0.000400696 0.998424 0)
(-0.000122038 0.99869 0)
(0.000122899 0.998705 0)
(0.00040543 0.998528 0)
(0.000778683 0.997957 0)
(0.00124572 0.996759 0)
(0.00171788 0.994439 0)
(0.00198779 0.990509 0)
(0.00175473 0.984348 0)
(0.000793356 0.97528 0)
(-0.000885701 0.961865 0)
(-0.00288163 0.941253 0)
(-0.00467916 0.906822 0)
(-0.0092844 0.849698 0)
(-0.0165069 0.765706 0)
(-0.0211661 0.659166 0)
(-0.0185523 0.535806 0)
(-0.0121652 0.53891 0)
(-0.00681925 0.671116 0)
(-0.00580705 0.773855 0)
(0.00217271 0.845054 0)
(0.0082813 0.90252 0)
(0.00788722 0.942082 0)
(0.00520784 0.965756 0)
(0.0024649 0.980265 0)
(0.000511978 0.98952 0)
(-0.000563164 0.995494 0)
(-0.00094988 0.999284 0)
(-0.00091454 1.0016 0)
(-0.000687941 1.00288 0)
(-0.000399974 1.00357 0)
(-0.000109205 1.00384 0)
(0.000181601 1.00388 0)
(0.00049089 1.00363 0)
(0.000822261 1.00304 0)
(0.00113755 1.00182 0)
(0.0013338 0.99968 0)
(0.00124034 0.996105 0)
(0.000692931 0.990582 0)
(-0.000310503 0.982109 0)
(-0.00149652 0.969064 0)
(-0.00206924 0.947927 0)
(-0.00119858 0.912578 0)
(-0.00343167 0.858423 0)
(-0.0111775 0.777225 0)
(-0.0142997 0.665074 0)
(-0.00718315 0.526768 0)
(-0.0105037 0.55837 0)
(-0.0116823 0.676125 0)
(-0.00323305 0.767768 0)
(0.0125045 0.842617 0)
(0.0186455 0.908886 0)
(0.0151784 0.95168 0)
(0.00952732 0.974964 0)
(0.00529296 0.988495 0)
(0.00243508 0.996735 0)
(0.000715695 1.00182 0)
(-0.000155956 1.00503 0)
(-0.00047128 1.00697 0)
(-0.000467016 1.00812 0)
(-0.000302454 1.00871 0)
(-6.85291e-05 1.009 0)
(0.000192034 1.00899 0)
(0.00045444 1.00877 0)
(0.00068426 1.00818 0)
(0.000816039 1.00709 0)
(0.000737862 1.00516 0)
(0.000299689 1.00202 0)
(-0.000619687 0.996972 0)
(-0.00198888 0.988908 0)
(-0.00348609 0.975754 0)
(-0.00417271 0.953486 0)
(-0.00266972 0.916449 0)
(0.000262948 0.862453 0)
(0.000221721 0.781675 0)
(-0.00326637 0.668584 0)
(0.00830081 0.526679 0)
(-0.00898032 0.568975 0)
(-0.00366745 0.675366 0)
(0.0177621 0.759569 0)
(0.0281565 0.847535 0)
(0.0288223 0.920292 0)
(0.0219397 0.965059 0)
(0.013035 0.986003 0)
(0.00738817 0.997701 0)
(0.00382762 1.00454 0)
(0.00168661 1.00862 0)
(0.0005006 1.01109 0)
(-5.30653e-05 1.01261 0)
(-0.000223884 1.01348 0)
(-0.000178639 1.01398 0)
(-2.47057e-05 1.01417 0)
(0.000170026 1.01419 0)
(0.000350466 1.01396 0)
(0.000456861 1.01348 0)
(0.000404002 1.01254 0)
(6.71732e-05 1.01094 0)
(-0.000716494 1.00823 0)
(-0.00210364 1.00377 0)
(-0.00421481 0.996207 0)
(-0.00703589 0.983292 0)
(-0.0100231 0.960192 0)
(-0.0106072 0.919025 0)
(-0.00251622 0.859956 0)
(0.0102437 0.781202 0)
(0.0081539 0.670195 0)
(0.0159044 0.541648 0)
(0.000788356 0.577201 0)
(0.0240901 0.662704 0)
(0.0386421 0.762323 0)
(0.037648 0.860688 0)
(0.0295938 0.934957 0)
(0.0209878 0.980552 0)
(0.0131498 0.998524 0)
(0.00765375 1.00761 0)
(0.00418519 1.01268 0)
(0.00206331 1.01561 0)
(0.000837259 1.01736 0)
(0.000205276 1.01837 0)
(-5.02142e-05 1.01899 0)
(-8.25265e-05 1.0193 0)
(5.12485e-06 1.01945 0)
(0.000133773 1.01943 0)
(0.000232957 1.01928 0)
(0.000229056 1.01889 0)
(2.64718e-05 1.0182 0)
(-0.000514461 1.01695 0)
(-0.00158335 1.01482 0)
(-0.00342813 1.01108 0)
(-0.00641769 1.00451 0)
(-0.011123 0.992744 0)
(-0.0184989 0.971173 0)
(-0.02342 0.927364 0)
(-0.0165368 0.857178 0)
(0.00213735 0.771865 0)
(0.0125204 0.67488 0)
(0.0125171 0.560462 0)
(0.0220849 0.558994 0)
(0.037953 0.649619 0)
(0.0446905 0.778613 0)
(0.0338569 0.884537 0)
(0.0193883 0.952602 0)
(0.0120197 0.993326 0)
(0.00902441 1.00983 0)
(0.00568491 1.0169 0)
(0.00331838 1.0205 0)
(0.00174568 1.0225 0)
(0.000773965 1.02358 0)
(0.000242189 1.02419 0)
(6.70873e-06 1.02452 0)
(-4.0874e-05 1.0247 0)
(1.56418e-05 1.02476 0)
(0.00010172 1.02476 0)
(0.000147668 1.02465 0)
(7.77004e-05 1.02443 0)
(-0.000203441 1.02397 0)
(-0.00083684 1.02316 0)
(-0.0020248 1.02164 0)
(-0.00407011 1.01889 0)
(-0.00751245 1.01379 0)
(-0.0132245 1.00445 0)
(-0.0227464 0.986439 0)
(-0.030687 0.940507 0)
(-0.0348514 0.86341 0)
(-0.026434 0.766173 0)
(-0.00792319 0.669921 0)
(0.00967948 0.568377 0)
(0.0187698 0.538658 0)
(0.0308758 0.649096 0)
(0.0336736 0.796063 0)
(0.0255173 0.904633 0)
(0.00966463 0.96725 0)
(0.00444174 1.0017 0)
(0.0040888 1.01806 0)
(0.00286296 1.0245 0)
(0.00178054 1.02752 0)
(0.000953485 1.02895 0)
(0.000401709 1.02962 0)
(8.41587e-05 1.02991 0)
(-4.80497e-05 1.03006 0)
(-5.29998e-05 1.0301 0)
(1.15158e-05 1.03013 0)
(9.00386e-05 1.03011 0)
(0.000124534 1.0301 0)
(4.96591e-05 1.03 0)
(-0.000215099 1.02981 0)
(-0.000785431 1.02939 0)
(-0.00182663 1.02852 0)
(-0.00358214 1.02673 0)
(-0.00643834 1.02334 0)
(-0.0108644 1.01657 0)
(-0.0162177 1.00143 0)
(-0.0248593 0.9581 0)
(-0.0378865 0.88463 0)
(-0.0441049 0.773546 0)
(-0.0303772 0.655756 0)
(-0.011764 0.568897 0)
(0.0113184 0.532539 0)
(0.0174594 0.650824 0)
(0.0266085 0.805055 0)
(0.0141332 0.915065 0)
(0.00391353 0.978873 0)
(0.000877251 1.00854 0)
(0.000558163 1.02406 0)
(0.000527819 1.03072 0)
(0.00030122 1.03364 0)
(7.09443e-05 1.03489 0)
(-9.34366e-05 1.03535 0)
(-0.000172347 1.0355 0)
(-0.000167788 1.03551 0)
(-9.73434e-05 1.03549 0)
(5.96135e-06 1.03547 0)
(0.000107616 1.03549 0)
(0.000170503 1.03552 0)
(0.000149296 1.03557 0)
(-1.02996e-05 1.03557 0)
(-0.000378331 1.03548 0)
(-0.00104362 1.03508 0)
(-0.00210417 1.03403 0)
(-0.00363902 1.03167 0)
(-0.00564232 1.02625 0)
(-0.00664247 1.01186 0)
(-0.0142689 0.975538 0)
(-0.0299415 0.910382 0)
(-0.0396346 0.791221 0)
(-0.0338077 0.646729 0)
(-0.0191671 0.544467 0)
(0.00635326 0.523511 0)
(0.0226997 0.649518 0)
(0.0150202 0.809302 0)
(0.00438817 0.92406 0)
(-0.000711063 0.986674 0)
(-0.00112711 1.0149 0)
(-0.00134824 1.02918 0)
(-0.000977326 1.03604 0)
(-0.000742453 1.03911 0)
(-0.00062028 1.04037 0)
(-0.000520604 1.04081 0)
(-0.00041594 1.0409 0)
(-0.000288166 1.04088 0)
(-0.000139707 1.04081 0)
(1.28892e-05 1.0408 0)
(0.000153679 1.04082 0)
(0.000268985 1.04092 0)
(0.000336835 1.04103 0)
(0.000328337 1.04118 0)
(0.000220608 1.04127 0)
(-5.34733e-06 1.04115 0)
(-0.000346999 1.0404 0)
(-0.000719757 1.0383 0)
(-0.00098853 1.03299 0)
(-0.00119526 1.01933 0)
(-0.00556251 0.988887 0)
(-0.0182978 0.924265 0)
(-0.026807 0.804421 0)
(-0.022202 0.648542 0)
(-0.0115584 0.537113 0)
(-0.000561465 0.515323 0)
(0.0152041 0.649298 0)
(0.00236097 0.815033 0)
(-0.00226333 0.930347 0)
(-0.00290851 0.991701 0)
(-0.00223988 1.02032 0)
(-0.00202723 1.03414 0)
(-0.00167486 1.04097 0)
(-0.00129396 1.04423 0)
(-0.00100683 1.04558 0)
(-0.000774664 1.04606 0)
(-0.000564553 1.04617 0)
(-0.000355754 1.04613 0)
(-0.000150756 1.04608 0)
(4.24284e-05 1.04608 0)
(0.000217254 1.04613 0)
(0.000386474 1.04622 0)
(0.000545264 1.0464 0)
(0.000681923 1.04658 0)
(0.000802699 1.04675 0)
(0.000932255 1.04666 0)
(0.00112327 1.04593 0)
(0.00149474 1.04367 0)
(0.00195419 1.03825 0)
(0.00196018 1.02575 0)
(0.0010298 0.997484 0)
(-0.0068865 0.93246 0)
(-0.02045 0.812066 0)
(-0.0184019 0.647051 0)
(-0.00770769 0.531303 0)
(-0.00733238 0.516341 0)
(0.0146979 0.658314 0)
(0.00160711 0.822786 0)
(0.0012575 0.936091 0)
(-0.000949108 0.995948 0)
(-0.00155886 1.025 0)
(-0.00169351 1.03913 0)
(-0.00164703 1.04588 0)
(-0.00139324 1.04921 0)
(-0.00110212 1.05064 0)
(-0.000832674 1.0512 0)
(-0.000583495 1.05133 0)
(-0.000346364 1.05134 0)
(-0.000119651 1.05129 0)
(9.24016e-05 1.05133 0)
(0.000286805 1.05137 0)
(0.000490287 1.05146 0)
(0.000712163 1.05163 0)
(0.000949705 1.05181 0)
(0.00122545 1.05194 0)
(0.00157885 1.05177 0)
(0.0020708 1.05086 0)
(0.00278395 1.04831 0)
(0.00356501 1.04294 0)
(0.00450728 1.03066 0)
(0.00595528 1.00302 0)
(0.00267278 0.94095 0)
(-0.00910929 0.819051 0)
(-0.0228656 0.646699 0)
(-0.00534698 0.520376 0)
(0.0114824 0.518249 0)
(0.0171423 0.655702 0)
(0.0112358 0.829442 0)
(0.0089597 0.945451 0)
(0.00291125 1.00263 0)
(0.000213386 1.03055 0)
(-0.000800287 1.04444 0)
(-0.00114178 1.051 0)
(-0.00114076 1.05421 0)
(-0.000952552 1.05567 0)
(-0.000723803 1.05627 0)
(-0.000485974 1.05644 0)
(-0.000261607 1.05648 0)
(-4.87034e-05 1.05645 0)
(0.000156301 1.05651 0)
(0.000352048 1.05657 0)
(0.000562215 1.05663 0)
(0.000802837 1.05677 0)
(0.00108361 1.05689 0)
(0.00142675 1.05694 0)
(0.00186587 1.05663 0)
(0.00244614 1.05551 0)
(0.00313987 1.05273 0)
(0.00403513 1.04715 0)
(0.0054012 1.03415 0)
(0.00731924 1.00629 0)
(0.00728081 0.946622 0)
(0.00137249 0.83027 0)
(-0.0187617 0.651717 0)
(-0.00309888 0.511901 0)
(0.0225344 0.505319 0)
(0.0164748 0.668816 0)
(0.0136881 0.845463 0)
(0.00903328 0.958713 0)
(0.00395099 1.01147 0)
(0.0011592 1.03729 0)
(-0.000107459 1.05016 0)
(-0.000585145 1.0564 0)
(-0.000716159 1.05935 0)
(-0.000645482 1.06076 0)
(-0.000488285 1.06136 0)
(-0.000298987 1.06155 0)
(-0.000114309 1.06161 0)
(6.22787e-05 1.0616 0)
(0.000232955 1.06167 0)
(0.000406577 1.06173 0)
(0.000592793 1.06176 0)
(0.000809691 1.06185 0)
(0.0010712 1.06191 0)
(0.00139465 1.06186 0)
(0.00179734 1.06142 0)
(0.0022877 1.06013 0)
(0.00277621 1.05728 0)
(0.00343828 1.05122 0)
(0.00431524 1.03762 0)
(0.00492574 1.00945 0)
(0.0037178 0.951336 0)
(0.00146533 0.839257 0)
(-0.016473 0.663882 0)
(-0.00534948 0.50557 0)
(0.00936212 0.496693 0)
(0.0114296 0.682298 0)
(0.0103321 0.860647 0)
(0.00396748 0.969679 0)
(0.00183613 1.02001 0)
(0.000597456 1.04407 0)
(-1.40618e-05 1.05599 0)
(-0.000249806 1.06187 0)
(-0.000314533 1.06463 0)
(-0.000279399 1.06596 0)
(-0.000175292 1.06653 0)
(-4.9447e-05 1.06674 0)
(7.6927e-05 1.06682 0)
(0.000196927 1.06683 0)
(0.000311618 1.06689 0)
(0.000436325 1.06694 0)
(0.000573024 1.06695 0)
(0.00073273 1.06699 0)
(0.000928164 1.067 0)
(0.00116728 1.06686 0)
(0.00144933 1.06633 0)
(0.00173892 1.06496 0)
(0.00196963 1.06213 0)
(0.00219344 1.05575 0)
(0.00219766 1.04217 0)
(0.00119345 1.01467 0)
(-0.00152531 0.958661 0)
(-0.00433912 0.848583 0)
(-0.0130206 0.671464 0)
(-0.0122284 0.500096 0)
(-0.00113261 0.497452 0)
(0.00720494 0.687591 0)
(0.0037139 0.870996 0)
(-0.00161037 0.977072 0)
(-0.00126439 1.02646 0)
(-0.000658799 1.04988 0)
(-0.000242167 1.06149 0)
(-2.94949e-05 1.06726 0)
(7.1298e-05 1.07 0)
(0.000128159 1.07129 0)
(0.000187107 1.07185 0)
(0.000239751 1.07207 0)
(0.000289866 1.07216 0)
(0.000335576 1.07218 0)
(0.000377691 1.07224 0)
(0.000433747 1.07228 0)
(0.000502599 1.07227 0)
(0.000585799 1.07227 0)
(0.000688693 1.07223 0)
(0.000813132 1.07204 0)
(0.000942409 1.07147 0)
(0.00102458 1.07011 0)
(0.00103027 1.06732 0)
(0.000899425 1.06099 0)
(0.000362511 1.04796 0)
(-0.000954508 1.02167 0)
(-0.00321916 0.967858 0)
(-0.00563074 0.8603 0)
(-0.010147 0.683681 0)
(-0.0103381 0.496179 0)
(-0.00977187 0.499302 0)
(0.00341311 0.688649 0)
(-0.00539798 0.876154 0)
(-0.00672455 0.980184 0)
(-0.00376255 1.03062 0)
(-0.00147324 1.05445 0)
(-0.000176544 1.0665 0)
(0.00040209 1.07253 0)
(0.000596512 1.07541 0)
(0.000627714 1.07675 0)
(0.000603608 1.07733 0)
(0.000558658 1.07757 0)
(0.000514429 1.07766 0)
(0.000468857 1.0777 0)
(0.000427632 1.07775 0)
(0.000406404 1.07776 0)
(0.000395459 1.07774 0)
(0.000389844 1.07772 0)
(0.000390833 1.07765 0)
(0.000392999 1.07743 0)
(0.000374095 1.07687 0)
(0.000293574 1.07557 0)
(0.000132522 1.07284 0)
(-0.00017293 1.06673 0)
(-0.000741605 1.05427 0)
(-0.00152904 1.02885 0)
(-0.00250487 0.976095 0)
(-0.00496052 0.870109 0)
(-0.00739731 0.693199 0)
(-0.00496658 0.493194 0)
(-0.0135506 0.505796 0)
(-0.000375071 0.690175 0)
(-0.0136898 0.87676 0)
(-0.00942589 0.981007 0)
(-0.00381009 1.03253 0)
(-0.000569263 1.05809 0)
(0.000875048 1.07121 0)
(0.00137254 1.0778 0)
(0.0013986 1.08094 0)
(0.00126067 1.08237 0)
(0.00108052 1.08298 0)
(0.00089955 1.08323 0)
(0.00074032 1.08331 0)
(0.000593878 1.08336 0)
(0.000464012 1.08339 0)
(0.00036287 1.08339 0)
(0.000266201 1.08336 0)
(0.00016791 1.08332 0)
(6.5071e-05 1.08325 0)
(-5.26706e-05 1.08302 0)
(-0.000209118 1.08249 0)
(-0.00043203 1.08126 0)
(-0.000724763 1.0786 0)
(-0.00111883 1.07268 0)
(-0.00159503 1.06049 0)
(-0.00188491 1.03523 0)
(-0.00188105 0.982556 0)
(-0.00330531 0.877074 0)
(-0.00621031 0.698536 0)
(0.00131217 0.49493 0)
(-0.00898013 0.515139 0)
(-0.00658693 0.698293 0)
(-0.0186163 0.876197 0)
(-0.00815263 0.976523 0)
(0.000111758 1.03298 0)
(0.00297883 1.06183 0)
(0.00337187 1.07629 0)
(0.00302577 1.08345 0)
(0.00250597 1.08678 0)
(0.00201268 1.08824 0)
(0.00159443 1.08884 0)
(0.00124358 1.08907 0)
(0.000952064 1.08911 0)
(0.000702453 1.08915 0)
(0.000488384 1.08915 0)
(0.000307068 1.08914 0)
(0.000127835 1.08911 0)
(-6.06529e-05 1.08907 0)
(-0.000263643 1.089 0)
(-0.000497407 1.08879 0)
(-0.000785075 1.0883 0)
(-0.0011555 1.08714 0)
(-0.00160983 1.08454 0)
(-0.00216512 1.07873 0)
(-0.00277171 1.06656 0)
(-0.00321389 1.04109 0)
(-0.00290892 0.987993 0)
(-0.00243259 0.881781 0)
(-0.00564064 0.700667 0)
(0.00370329 0.498826 0)
(-0.00637215 0.526944 0)
(-0.0144233 0.712094 0)
(-0.0153394 0.873441 0)
(0.00039323 0.97209 0)
(0.0090439 1.03401 0)
(0.00971053 1.06765 0)
(0.00719525 1.08288 0)
(0.00515067 1.08998 0)
(0.00374348 1.09314 0)
(0.0027685 1.09444 0)
(0.00207107 1.09492 0)
(0.00154805 1.09507 0)
(0.00112927 1.09506 0)
(0.000783441 1.09507 0)
(0.000496452 1.09503 0)
(0.000241376 1.095 0)
(-1.21731e-05 1.09498 0)
(-0.000280857 1.09494 0)
(-0.000574102 1.09488 0)
(-0.00091322 1.09471 0)
(-0.00132784 1.09429 0)
(-0.00186231 1.09322 0)
(-0.00254068 1.0907 0)
(-0.00341127 1.08503 0)
(-0.00451002 1.07291 0)
(-0.00573781 1.04722 0)
(-0.00634237 0.993125 0)
(-0.00401937 0.885725 0)
(-0.00521925 0.703717 0)
(0.00192135 0.503976 0)
(-0.00680359 0.53809 0)
(-0.0106 0.716984 0)
(0.00703196 0.869686 0)
(0.0172205 0.977646 0)
(0.0209706 1.04375 0)
(0.0174982 1.07838 0)
(0.0109995 1.0919 0)
(0.00698538 1.09769 0)
(0.00470953 1.1001 0)
(0.00332125 1.10099 0)
(0.00240254 1.10122 0)
(0.00175016 1.10123 0)
(0.00124433 1.10113 0)
(0.000829324 1.10108 0)
(0.000482927 1.101 0)
(0.000166293 1.10096 0)
(-0.000148089 1.10094 0)
(-0.000481167 1.10092 0)
(-0.00084591 1.10089 0)
(-0.00127173 1.10077 0)
(-0.00179952 1.10043 0)
(-0.00249127 1.09951 0)
(-0.00342179 1.09716 0)
(-0.00471543 1.09178 0)
(-0.00655324 1.07999 0)
(-0.00901663 1.05452 0)
(-0.0111494 0.999561 0)
(-0.00866763 0.888564 0)
(-0.00481015 0.706559 0)
(0.000222478 0.509212 0)
(0.00239544 0.539697 0)
(0.0138356 0.716438 0)
(0.023219 0.875196 0)
(0.0294801 0.990903 0)
(0.0248639 1.05724 0)
(0.0181992 1.09241 0)
(0.0116527 1.10274 0)
(0.00736404 1.10622 0)
(0.0049201 1.10745 0)
(0.00345382 1.10774 0)
(0.00248845 1.10766 0)
(0.00180215 1.10748 0)
(0.00127138 1.1073 0)
(0.000828269 1.10717 0)
(0.000442951 1.10706 0)
(8.35258e-05 1.107 0)
(-0.000272777 1.10699 0)
(-0.000647036 1.10699 0)
(-0.00105917 1.10699 0)
(-0.00154129 1.10694 0)
(-0.00214584 1.10672 0)
(-0.00294866 1.10599 0)
(-0.00408111 1.10394 0)
(-0.00576762 1.09907 0)
(-0.00836956 1.08807 0)
(-0.0123847 1.06373 0)
(-0.0161221 1.0091 0)
(-0.0139816 0.894696 0)
(-0.00809947 0.707709 0)
(-0.000775629 0.513233 0)
(0.00878867 0.525672 0)
(0.014188 0.708483 0)
(0.0273542 0.887311 0)
(0.0271058 1.00967 0)
(0.0177464 1.07529 0)
(0.00967161 1.10497 0)
(0.0081974 1.11279 0)
(0.00583163 1.11443 0)
(0.00420427 1.1147 0)
(0.00309414 1.11447 0)
(0.00229754 1.11411 0)
(0.00169053 1.11377 0)
(0.0011962 1.11351 0)
(0.000766667 1.11332 0)
(0.000375443 1.11318 0)
(-1.27991e-07 1.1131 0)
(-0.000373085 1.1131 0)
(-0.000763802 1.11313 0)
(-0.00119489 1.11317 0)
(-0.00169531 1.1132 0)
(-0.00231568 1.1131 0)
(-0.00314249 1.1126 0)
(-0.0043287 1.11094 0)
(-0.00613798 1.10676 0)
(-0.00898923 1.09698 0)
(-0.0135976 1.07456 0)
(-0.0182018 1.02036 0)
(-0.0180301 0.90365 0)
(-0.0149054 0.708127 0)
(-0.00661631 0.513951 0)
(0.00193198 0.527787 0)
(0.0084665 0.705522 0)
(0.0217044 0.895439 0)
(0.0140704 1.0214 0)
(0.00631992 1.08861 0)
(0.00150492 1.1124 0)
(0.00370054 1.12006 0)
(0.00348152 1.12144 0)
(0.00295655 1.12142 0)
(0.0024015 1.12097 0)
(0.00189826 1.12046 0)
(0.00144675 1.12003 0)
(0.00103356 1.11971 0)
(0.000651418 1.11949 0)
(0.00028525 1.11934 0)
(-7.84843e-05 1.11926 0)
(-0.000444334 1.11926 0)
(-0.000826298 1.11931 0)
(-0.00124537 1.11939 0)
(-0.00172263 1.11948 0)
(-0.00229429 1.11951 0)
(-0.00303336 1.11921 0)
(-0.00406569 1.11795 0)
(-0.00558951 1.11444 0)
(-0.00787051 1.10584 0)
(-0.010911 1.08515 0)
(-0.016235 1.03264 0)
(-0.0178116 0.913908 0)
(-0.0148351 0.711845 0)
(-0.0128041 0.504817 0)
(0.00434849 0.532613 0)
(0.0170321 0.704408 0)
(0.0193282 0.900727 0)
(0.00788082 1.0318 0)
(-0.00192143 1.09494 0)
(-0.00153764 1.11673 0)
(0.000645165 1.12522 0)
(0.00150295 1.12733 0)
(0.00171805 1.12753 0)
(0.00163235 1.12714 0)
(0.00141562 1.12665 0)
(0.00113518 1.12622 0)
(0.000824722 1.1259 0)
(0.000507426 1.12567 0)
(0.000183732 1.12551 0)
(-0.00015026 1.12544 0)
(-0.000491396 1.12545 0)
(-0.000843279 1.12551 0)
(-0.00121951 1.12562 0)
(-0.00163717 1.12576 0)
(-0.00211072 1.12586 0)
(-0.00267431 1.12572 0)
(-0.00339518 1.12473 0)
(-0.00434576 1.12166 0)
(-0.00556164 1.11372 0)
(-0.00654766 1.09386 0)
(-0.00968576 1.04274 0)