/*--------------------------------*- C++ -*----------------------------------*\
| =========                 |                                                 |
| \\      /  F ield         | OpenFOAM: The Open Source CFD Toolbox           |
|  \\    /   O peration     | Version:  2.3.0                                 |
|   \\  /    A nd           | Web:      www.OpenFOAM.org                      |
|    \\/     M anipulation  |                                                 |
\*---------------------------------------------------------------------------*/
FoamFile
{
    version     2.0;
    format      ascii;
    class       volScalarField;
    location    "0.781942";
    object      epsilon.air;
}
// * * * * * * * * * * * * * * * * * * * * * * * * * * * * * * * * * * * * * //

dimensions      [0 2 -3 0 0 0 0];

internalField   nonuniform List<scalar> 
1000
(
0.0629898
0.0938103
0.093448
0.0934548
0.0934594
0.0934623
0.0934631
0.093463
0.0934628
0.093463
0.0934637
0.093465
0.0934666
0.0934675
0.0934662
0.0934613
0.0934539
0.0934449
0.0938066
0.0629861
0.00613658
0.00518338
0.00494917
0.00493707
0.00493123
0.00492748
0.00492513
0.00492394
0.00492338
0.00492316
0.00492315
0.00492337
0.00492391
0.00492505
0.00492727
0.00493082
0.00493644
0.00494843
0.00518263
0.00613497
0.000509825
0.00065896
0.00052663
0.000526942
0.00052773
0.000528028
0.000527845
0.000527617
0.000527449
0.000527361
0.000527349
0.000527412
0.000527554
0.000527754
0.000527912
0.000527595
0.0005268
0.000526499
0.000658715
0.000509702
0.000312188
0.00047112
0.000391747
0.000367179
0.000355809
0.000352781
0.000352331
0.00035253
0.000352759
0.000352882
0.000352893
0.000352798
0.00035261
0.000352444
0.000352889
0.000355872
0.000367176
0.000391697
0.000471019
0.000312099
0.000256749
0.000528566
0.00052024
0.000517031
0.0005114
0.000508825
0.000507503
0.000506938
0.000506707
0.000506631
0.000506647
0.000506753
0.000507015
0.000507602
0.000508929
0.00051149
0.000517094
0.00052028
0.00052859
0.000256729
0.000258139
0.000528494
0.00052781
0.000527921
0.000525223
0.000523525
0.00052243
0.00052183
0.000521522
0.000521401
0.00052142
0.000521576
0.000521914
0.000522537
0.000523641
0.000525337
0.000528027
0.000527908
0.000528585
0.000258148
0.000257791
0.000516992
0.000518566
0.000519465
0.00051838
0.000517726
0.000517014
0.000516532
0.000516243
0.000516118
0.00051614
0.000516295
0.000516609
0.000517117
0.000517841
0.000518514
0.000519602
0.000518707
0.000517138
0.000257813
0.000259707
0.000515552
0.000517454
0.000518037
0.000517682
0.000517429
0.000516975
0.000516625
0.0005164
0.000516295
0.000516318
0.000516452
0.000516702
0.000517079
0.000517548
0.000517815
0.000518187
0.000517613
0.000515724
0.000259741
0.000260103
0.000516642
0.000518489
0.000518961
0.000518891
0.000518546
0.000518213
0.000517974
0.000517826
0.00051775
0.000517762
0.000517878
0.000518072
0.000518319
0.000518669
0.000519032
0.000519111
0.000518646
0.000516802
0.000260144
0.000260571
0.000515939
0.000517467
0.000517821
0.000517851
0.000517752
0.000517582
0.000517401
0.000517274
0.000517206
0.000517229
0.000517328
0.000517488
0.000517693
0.000517886
0.000518002
0.000517984
0.000517637
0.000516111
0.000260614
0.0373872
0.0503727
0.047173
0.0462603
0.0460644
0.0460116
0.0460001
0.0459984
0.0459989
0.0459997
0.046001
0.046003
0.0460057
0.0460093
0.0460199
0.0460689
0.0462596
0.0471681
0.050363
0.037385
0.00732894
0.00788462
0.00795338
0.00802277
0.00802669
0.00801961
0.00801333
0.00800966
0.0080078
0.00800704
0.00800706
0.00800785
0.00800969
0.00801325
0.00801928
0.00802604
0.00802186
0.00795233
0.00788358
0.00732805
0.00143649
0.000865803
0.000824352
0.00083903
0.000841322
0.000840885
0.000839797
0.000838949
0.000838436
0.000838194
0.000838172
0.00083837
0.00083883
0.000839613
0.000840617
0.00084098
0.00083866
0.000823995
0.00086546
0.00143627
0.00096912
0.000465269
0.000427572
0.000419798
0.000415251
0.000413906
0.000413523
0.00041344
0.000413427
0.000413423
0.000413418
0.000413417
0.000413429
0.000413505
0.000413861
0.000415164
0.000419673
0.000427426
0.000465108
0.000968752
0.000231496
0.000255584
0.000250276
0.000249165
0.000247722
0.000247084
0.000246764
0.000246624
0.000246564
0.000246543
0.000246546
0.000246572
0.000246638
0.000246782
0.000247101
0.000247733
0.000249168
0.000250273
0.000255575
0.000231456
0.000194503
0.000247481
0.000245638
0.000245526
0.000244888
0.000244499
0.00024425
0.000244111
0.000244039
0.00024401
0.000244014
0.00024405
0.000244128
0.000244271
0.000244521
0.000244908
0.000245544
0.000245653
0.000247492
0.000194496
0.000191916
0.000244911
0.000243788
0.000243904
0.000243637
0.000243466
0.000243297
0.000243182
0.000243113
0.000243083
0.000243087
0.000243123
0.000243197
0.000243317
0.000243489
0.000243662
0.000243929
0.000243813
0.000244934
0.000191915
0.000192442
0.000244398
0.000243382
0.000243437
0.000243354
0.000243289
0.000243188
0.000243109
0.000243057
0.000243031
0.000243036
0.000243066
0.000243122
0.000243207
0.000243311
0.000243378
0.000243465
0.000243411
0.000244427
0.000192446
0.000192607
0.00024462
0.000243598
0.000243629
0.000243611
0.000243542
0.000243467
0.000243413
0.000243381
0.000243363
0.000243365
0.00024339
0.000243432
0.000243486
0.000243564
0.000243636
0.000243656
0.000243626
0.000244646
0.000192614
0.000192811
0.000244494
0.000243411
0.000243414
0.000243418
0.000243394
0.000243353
0.000243311
0.000243282
0.000243266
0.000243271
0.000243292
0.000243328
0.000243373
0.000243418
0.000243446
0.000243444
0.000243441
0.000244522
0.000192819
0.0325664
0.170743
0.127429
0.104637
0.100308
0.0991756
0.098918
0.098862
0.0988536
0.09886
0.0988805
0.0989218
0.0989837
0.0990746
0.0993164
0.100387
0.104638
0.127343
0.170505
0.0325636
0.00624226
0.00764575
0.00755637
0.00771291
0.00774316
0.00774524
0.00774203
0.00773955
0.00773815
0.00773751
0.00773736
0.00773766
0.00773863
0.00774073
0.00774388
0.007742
0.00771212
0.00755598
0.00764475
0.00624166
0.00131875
0.00097111
0.000914248
0.000928567
0.000930152
0.000929256
0.000927825
0.000926766
0.000926134
0.000925838
0.000925808
0.000926045
0.000926605
0.000927576
0.000928902
0.00092971
0.0009281
0.000913805
0.000970631
0.00131861
0.00112784
0.000494529
0.000458554
0.00045374
0.000450269
0.000449134
0.000448699
0.000448528
0.000448452
0.000448416
0.000448406
0.000448426
0.000448488
0.000448637
0.000449035
0.000450126
0.000453567
0.000458369
0.000494318
0.00112755
0.000235455
0.000199877
0.000194101
0.000193223
0.000192356
0.000191995
0.000191822
0.000191747
0.000191715
0.000191703
0.000191703
0.000191717
0.000191752
0.000191827
0.000191998
0.000192354
0.000193216
0.00019409
0.000199861
0.000235415
0.000177112
0.000184536
0.000182152
0.000182017
0.000181731
0.00018156
0.000181452
0.000181391
0.00018136
0.000181347
0.000181348
0.000181364
0.000181398
0.00018146
0.000181568
0.000181738
0.000182024
0.000182157
0.000184537
0.000177114
0.000173556
0.000183181
0.000181208
0.000181192
0.000181074
0.000180997
0.000180922
0.000180872
0.000180841
0.000180828
0.00018083
0.000180845
0.000180878
0.00018093
0.000181006
0.000181084
0.000181202
0.000181217
0.000183187
0.000173563
0.000173754
0.000182932
0.00018101
0.000180971
0.000180935
0.000180906
0.000180863
0.000180829
0.000180807
0.000180795
0.000180797
0.00018081
0.000180835
0.000180871
0.000180915
0.000180944
0.000180982
0.000181021
0.000182939
0.000173763
0.000173863
0.000183026
0.000181101
0.000181052
0.000181042
0.000181015
0.000180983
0.00018096
0.000180947
0.000180939
0.00018094
0.000180951
0.000180968
0.000180991
0.000181024
0.000181052
0.000181062
0.000181112
0.000183033
0.000173874
0.000174004
0.000182991
0.000181041
0.00018098
0.00018098
0.00018097
0.000180952
0.000180934
0.000180922
0.000180915
0.000180917
0.000180926
0.000180941
0.00018096
0.000180979
0.000180991
0.000180992
0.000181053
0.000182999
0.000174014
0.0373884
0.0503691
0.0471694
0.046257
0.0460615
0.0460089
0.0459975
0.0459959
0.0459963
0.0459973
0.0459987
0.046001
0.0460038
0.0460073
0.0460174
0.0460661
0.0462571
0.0471653
0.0503606
0.0373855
0.00732995
0.00788463
0.00795351
0.00802294
0.00802686
0.00801977
0.00801347
0.00800979
0.00800792
0.00800716
0.00800717
0.00800794
0.00800976
0.00801328
0.00801933
0.00802613
0.00802201
0.0079525
0.00788361
0.00732959
0.00143654
0.000865804
0.000824336
0.000839027
0.00084132
0.00084088
0.000839789
0.000838939
0.000838425
0.000838184
0.000838161
0.000838356
0.000838809
0.000839585
0.00084059
0.000840965
0.00083866
0.000823999
0.000865427
0.00143649
0.000969085
0.000465254
0.000427557
0.000419787
0.000415241
0.000413897
0.000413513
0.00041343
0.000413417
0.000413413
0.000413409
0.000413409
0.00041342
0.000413493
0.000413847
0.000415151
0.000419665
0.00042742
0.00046509
0.000968887
0.000231562
0.000255602
0.000250293
0.000249183
0.000247741
0.000247103
0.000246784
0.000246644
0.000246584
0.000246562
0.000246565
0.000246592
0.000246658
0.000246801
0.00024712
0.000247752
0.000249187
0.000250291
0.000255592
0.000231544
0.000194672
0.000247532
0.000245683
0.000245572
0.000244934
0.000244546
0.000244297
0.000244158
0.000244086
0.000244057
0.00024406
0.000244096
0.000244174
0.000244317
0.000244567
0.000244954
0.00024559
0.000245699
0.000247542
0.000194682
0.000192112
0.000244971
0.000243839
0.000243955
0.000243688
0.000243517
0.000243348
0.000243234
0.000243164
0.000243134
0.000243138
0.000243174
0.000243248
0.000243368
0.000243539
0.000243713
0.00024398
0.000243864
0.000244992
0.000192126
0.000192641
0.000244443
0.00024342
0.000243474
0.00024339
0.000243326
0.000243225
0.000243146
0.000243093
0.000243068
0.000243073
0.000243103
0.000243159
0.000243244
0.000243348
0.000243415
0.000243502
0.000243448
0.00024447
0.000192659
0.000192806
0.000244678
0.000243646
0.000243677
0.000243658
0.000243589
0.000243515
0.000243461
0.000243429
0.000243411
0.000243412
0.000243438
0.00024348
0.000243534
0.000243611
0.000243684
0.000243703
0.000243673
0.000244701
0.000192827
0.000193009
0.000244551
0.000243458
0.000243462
0.000243466
0.000243441
0.0002434
0.000243358
0.00024333
0.000243314
0.000243318
0.00024334
0.000243375
0.00024342
0.000243465
0.000243493
0.000243491
0.000243489
0.000244577
0.00019303
0.0629902
0.093809
0.0934459
0.0934525
0.0934572
0.0934602
0.0934611
0.093461
0.0934609
0.0934611
0.0934619
0.0934634
0.0934652
0.093466
0.0934644
0.0934592
0.093452
0.0934433
0.0938049
0.0629866
0.00613384
0.00518263
0.00494848
0.00493638
0.00493055
0.0049268
0.00492443
0.00492325
0.00492269
0.00492247
0.00492247
0.00492271
0.00492328
0.0049244
0.00492658
0.00493011
0.00493579
0.00494782
0.00518197
0.00613376
0.000509757
0.000658605
0.000526474
0.000526793
0.000527583
0.000527879
0.000527695
0.000527466
0.000527297
0.000527212
0.000527204
0.000527272
0.000527415
0.000527614
0.000527765
0.000527448
0.000526663
0.000526361
0.000658394
0.000509656
0.000312103
0.000471017
0.000391678
0.000367108
0.000355743
0.000352718
0.000352269
0.000352467
0.000352697
0.000352822
0.000352836
0.000352747
0.000352562
0.000352393
0.000352831
0.00035581
0.000367119
0.000391642
0.000470938
0.000312086
0.000256849
0.000528578
0.000520252
0.000517044
0.000511415
0.000508841
0.00050752
0.000506955
0.000506724
0.000506648
0.000506665
0.000506771
0.000507033
0.000507619
0.000508945
0.000511505
0.000517111
0.000520296
0.000528607
0.000256838
0.000258359
0.000528525
0.00052784
0.000527953
0.000525256
0.000523558
0.000522464
0.000521863
0.000521555
0.000521434
0.000521453
0.000521608
0.000521946
0.000522568
0.000523671
0.000525368
0.000528059
0.000527939
0.00052862
0.000258372
0.000258038
0.000517023
0.000518594
0.000519494
0.000518408
0.000517753
0.000517041
0.000516559
0.00051627
0.000516145
0.000516167
0.000516322
0.000516636
0.000517143
0.000517867
0.000518541
0.00051963
0.000518734
0.00051717
0.000258062
0.000259953
0.00051558
0.00051748
0.000518062
0.000517706
0.000517454
0.000516999
0.00051665
0.000516425
0.000516319
0.000516342
0.000516477
0.000516726
0.000517103
0.000517573
0.00051784
0.000518212
0.000517637
0.000515753
0.00025999
0.00026035
0.000516673
0.000518515
0.000518986
0.000518916
0.000518572
0.000518238
0.000517999
0.000517852
0.000517776
0.000517788
0.000517904
0.000518097
0.000518345
0.000518695
0.000519057
0.000519136
0.000518671
0.00051683
0.000260393
0.000260823
0.000515967
0.000517491
0.000517844
0.000517874
0.000517774
0.000517605
0.000517424
0.000517297
0.00051723
0.000517252
0.000517351
0.000517512
0.000517716
0.000517908
0.000518024
0.000518006
0.00051766
0.000516141
0.000260868
)
;

boundaryField
{
    aeration
    {
        type            fixedValue;
        value           uniform 0.00015;
    }
    xsides
    {
        type            epsilonWallFunction;
        value           nonuniform List<scalar> 
100
(
0.0451744
2.45536e-05
7.13489e-05
0.00182212
0.00267307
0.00290962
0.0029267
0.0029333
0.00293458
0.0029358
0.00653275
1.54892e-06
3.5131e-07
0.000233278
0.000607499
0.000679091
0.000686945
0.000688286
0.000688533
0.000688677
0.00643156
5.70646e-06
4.4579e-07
0.000146864
0.000547792
0.000625175
0.000634072
0.00063536
0.000635581
0.000635686
0.0065328
1.54896e-06
3.51364e-07
0.000233289
0.000607458
0.000679028
0.000686877
0.000688217
0.000688464
0.000688609
0.0451747
2.45717e-05
7.14364e-05
0.00182223
0.00267296
0.00290942
0.00292647
0.00293306
0.00293434
0.00293557
0.045173
2.45665e-05
7.13954e-05
0.00182227
0.00267308
0.00290963
0.00292673
0.00293335
0.00293463
0.00293586
0.0065324
1.54921e-06
3.51514e-07
0.000233338
0.000607512
0.00067909
0.000686945
0.000688287
0.000688535
0.00068868
0.00643123
5.70688e-06
4.45917e-07
0.000146907
0.000547805
0.000625172
0.000634068
0.000635357
0.000635578
0.000635685
0.00653253
1.54899e-06
3.51422e-07
0.000233327
0.000607465
0.000679024
0.000686874
0.000688215
0.000688463
0.000688609
0.0451734
2.45698e-05
7.14163e-05
0.00182228
0.00267296
0.00290943
0.00292649
0.0029331
0.00293438
0.00293561
)
;
        Cmu             0.09;
        kappa           0.41;
        E               9.8;
        value           nonuniform List<scalar> 
100
(
0.0451744
2.45536e-05
7.13489e-05
0.00182212
0.00267307
0.00290962
0.0029267
0.0029333
0.00293458
0.0029358
0.00653275
1.54892e-06
3.5131e-07
0.000233278
0.000607499
0.000679091
0.000686945
0.000688286
0.000688533
0.000688677
0.00643156
5.70646e-06
4.4579e-07
0.000146864
0.000547792
0.000625175
0.000634072
0.00063536
0.000635581
0.000635686
0.0065328
1.54896e-06
3.51364e-07
0.000233289
0.000607458
0.000679028
0.000686877
0.000688217
0.000688464
0.000688609
0.0451747
2.45717e-05
7.14364e-05
0.00182223
0.00267296
0.00290942
0.00292647
0.00293306
0.00293434
0.00293557
0.045173
2.45665e-05
7.13954e-05
0.00182227
0.00267308
0.00290963
0.00292673
0.00293335
0.00293463
0.00293586
0.0065324
1.54921e-06
3.51514e-07
0.000233338
0.000607512
0.00067909
0.000686945
0.000688287
0.000688535
0.00068868
0.00643123
5.70688e-06
4.45917e-07
0.000146907
0.000547805
0.000625172
0.000634068
0.000635357
0.000635578
0.000635685
0.00653253
1.54899e-06
3.51422e-07
0.000233327
0.000607465
0.000679024
0.000686874
0.000688215
0.000688463
0.000688609
0.0451734
2.45698e-05
7.14163e-05
0.00182228
0.00267296
0.00290943
0.00292649
0.0029331
0.00293438
0.00293561
)
;
    }
    zsides
    {
        type            epsilonWallFunction;
        value           nonuniform List<scalar> 
400
(
0.0451744
2.45536e-05
7.13489e-05
0.00182212
0.00267307
0.00290962
0.0029267
0.0029333
0.00293458
0.0029358
0.0744044
1.27339e-05
4.83053e-05
0.00454604
0.00535009
0.00561465
0.00559285
0.00558855
0.00559292
0.0055902
0.0735489
1.57631e-05
8.71727e-05
0.00461729
0.0053118
0.00557065
0.00555762
0.00555367
0.00555854
0.00555578
0.0738454
1.74865e-05
0.000101344
0.00463828
0.00531736
0.00557144
0.0055591
0.00555324
0.00555803
0.0055548
0.0739479
1.7889e-05
0.000105743
0.00463894
0.00530831
0.00556537
0.00555679
0.00555231
0.00555785
0.00555473
0.0739869
1.80068e-05
0.000106826
0.00463875
0.00530379
0.00556198
0.005555
0.00555137
0.00555732
0.0055544
0.0739992
1.80275e-05
0.000107047
0.00463819
0.00530045
0.00555924
0.00555316
0.00555043
0.0055565
0.00555387
0.0740026
1.80262e-05
0.000107058
0.00463777
0.00529842
0.00555749
0.00555174
0.00554954
0.00555596
0.00555334
0.0740032
1.80225e-05
0.000107038
0.0046375
0.00529727
0.00555645
0.00555077
0.00554888
0.00555576
0.005553
0.074003
1.80209e-05
0.000107024
0.00463736
0.00529675
0.00555599
0.00555033
0.00554852
0.00555553
0.00555279
0.0740029
1.80198e-05
0.000107016
0.00463737
0.00529679
0.00555603
0.00555039
0.00554858
0.00555553
0.00555283
0.0740026
1.802e-05
0.000107014
0.00463751
0.00529737
0.00555657
0.00555088
0.00554895
0.00555582
0.00555307
0.0740017
1.802e-05
0.00010701
0.00463778
0.00529858
0.00555767
0.00555187
0.0055496
0.00555619
0.00555346
0.0739982
1.80188e-05
0.00010698
0.00463821
0.00530065
0.00555947
0.00555336
0.00555057
0.00555662
0.00555399
0.073986
1.79968e-05
0.000106755
0.0046388
0.00530402
0.00556222
0.00555522
0.00555154
0.00555746
0.00555455
0.0739474
1.78818e-05
0.000105694
0.00463902
0.00530851
0.00556559
0.00555702
0.00555247
0.00555803
0.00555491
0.0738454
1.7485e-05
0.000101338
0.0046384
0.00531752
0.00557164
0.00555932
0.00555345
0.00555822
0.00555499
0.0735494
1.57658e-05
8.7188e-05
0.00461741
0.00531191
0.00557082
0.00555783
0.00555388
0.00555873
0.00555599
0.0744052
1.27357e-05
4.83208e-05
0.00454617
0.00535017
0.0056148
0.00559306
0.00558878
0.00559306
0.00559039
0.045173
2.45665e-05
7.13954e-05
0.00182227
0.00267308
0.00290963
0.00292673
0.00293335
0.00293463
0.00293586
0.0451747
2.45717e-05
7.14364e-05
0.00182223
0.00267296
0.00290942
0.00292647
0.00293306
0.00293434
0.00293557
0.0744038
1.27398e-05
4.83525e-05
0.00454619
0.00535008
0.00561459
0.00559279
0.00558847
0.00559284
0.00559011
0.0735483
1.57781e-05
8.72722e-05
0.00461741
0.00531178
0.00557061
0.00555758
0.00555362
0.00555847
0.00555571
0.0738447
1.75055e-05
0.000101472
0.00463841
0.00531735
0.00557141
0.00555907
0.00555319
0.00555797
0.00555473
0.0739472
1.79074e-05
0.000105869
0.00463905
0.0053083
0.00556534
0.00555675
0.00555226
0.00555778
0.00555466
0.0739862
1.80253e-05
0.00010695
0.00463886
0.00530379
0.00556195
0.00555496
0.00555132
0.00555725
0.00555432
0.0739985
1.80455e-05
0.000107169
0.0046383
0.00530044
0.00555922
0.00555312
0.00555037
0.00555643
0.0055538
0.0740019
1.80448e-05
0.000107181
0.00463788
0.00529842
0.00555746
0.0055517
0.00554948
0.00555589
0.00555327
0.0740024
1.8041e-05
0.00010716
0.00463761
0.00529726
0.00555643
0.00555073
0.00554882
0.00555569
0.00555293
0.0740023
1.80381e-05
0.000107141
0.00463747
0.00529675
0.00555596
0.0055503
0.00554847
0.00555546
0.00555272
0.0740022
1.80358e-05
0.000107126
0.00463747
0.00529679
0.00555601
0.00555035
0.00554853
0.00555546
0.00555276
0.0740019
1.80344e-05
0.000107114
0.0046376
0.00529737
0.00555654
0.00555084
0.0055489
0.00555575
0.00555299
0.074001
1.80342e-05
0.000107104
0.00463787
0.00529858
0.00555764
0.00555183
0.00554954
0.00555612
0.00555339
0.0739976
1.80324e-05
0.000107075
0.0046383
0.00530064
0.00555943
0.00555332
0.00555051
0.00555656
0.00555392
0.0739853
1.80132e-05
0.000106864
0.0046389
0.00530401
0.00556218
0.00555517
0.00555149
0.00555739
0.00555448
0.0739467
1.78988e-05
0.000105811
0.00463913
0.0053085
0.00556556
0.00555698
0.00555242
0.00555796
0.00555483
0.0738448
1.75006e-05
0.000101443
0.00463851
0.00531751
0.00557161
0.00555929
0.00555339
0.00555815
0.00555492
0.0735488
1.57785e-05
8.72752e-05
0.00461752
0.00531191
0.00557078
0.0055578
0.00555383
0.00555866
0.00555591
0.0744046
1.27439e-05
4.83652e-05
0.00454628
0.00535016
0.00561475
0.005593
0.00558872
0.00559297
0.00559031
0.0451734
2.45698e-05
7.14163e-05
0.00182228
0.00267296
0.00290943
0.00292649
0.0029331
0.00293438
0.00293561
)
;
        Cmu             0.09;
        kappa           0.41;
        E               9.8;
        value           nonuniform List<scalar> 
400
(
0.0451744
2.45536e-05
7.13489e-05
0.00182212
0.00267307
0.00290962
0.0029267
0.0029333
0.00293458
0.0029358
0.0744044
1.27339e-05
4.83053e-05
0.00454604
0.00535009
0.00561465
0.00559285
0.00558855
0.00559292
0.0055902
0.0735489
1.57631e-05
8.71727e-05
0.00461729
0.0053118
0.00557065
0.00555762
0.00555367
0.00555854
0.00555578
0.0738454
1.74865e-05
0.000101344
0.00463828
0.00531736
0.00557144
0.0055591
0.00555324
0.00555803
0.0055548
0.0739479
1.7889e-05
0.000105743
0.00463894
0.00530831
0.00556537
0.00555679
0.00555231
0.00555785
0.00555473
0.0739869
1.80068e-05
0.000106826
0.00463875
0.00530379
0.00556198
0.005555
0.00555137
0.00555732
0.0055544
0.0739992
1.80275e-05
0.000107047
0.00463819
0.00530045
0.00555924
0.00555316
0.00555043
0.0055565
0.00555387
0.0740026
1.80262e-05
0.000107058
0.00463777
0.00529842
0.00555749
0.00555174
0.00554954
0.00555596
0.00555334
0.0740032
1.80225e-05
0.000107038
0.0046375
0.00529727
0.00555645
0.00555077
0.00554888
0.00555576
0.005553
0.074003
1.80209e-05
0.000107024
0.00463736
0.00529675
0.00555599
0.00555033
0.00554852
0.00555553
0.00555279
0.0740029
1.80198e-05
0.000107016
0.00463737
0.00529679
0.00555603
0.00555039
0.00554858
0.00555553
0.00555283
0.0740026
1.802e-05
0.000107014
0.00463751
0.00529737
0.00555657
0.00555088
0.00554895
0.00555582
0.00555307
0.0740017
1.802e-05
0.00010701
0.00463778
0.00529858
0.00555767
0.00555187
0.0055496
0.00555619
0.00555346
0.0739982
1.80188e-05
0.00010698
0.00463821
0.00530065
0.00555947
0.00555336
0.00555057
0.00555662
0.00555399
0.073986
1.79968e-05
0.000106755
0.0046388
0.00530402
0.00556222
0.00555522
0.00555154
0.00555746
0.00555455
0.0739474
1.78818e-05
0.000105694
0.00463902
0.00530851
0.00556559
0.00555702
0.00555247
0.00555803
0.00555491
0.0738454
1.7485e-05
0.000101338
0.0046384
0.00531752
0.00557164
0.00555932
0.00555345
0.00555822
0.00555499
0.0735494
1.57658e-05
8.7188e-05
0.00461741
0.00531191
0.00557082
0.00555783
0.00555388
0.00555873
0.00555599
0.0744052
1.27357e-05
4.83208e-05
0.00454617
0.00535017
0.0056148
0.00559306
0.00558878
0.00559306
0.00559039
0.045173
2.45665e-05
7.13954e-05
0.00182227
0.00267308
0.00290963
0.00292673
0.00293335
0.00293463
0.00293586
0.0451747
2.45717e-05
7.14364e-05
0.00182223
0.00267296
0.00290942
0.00292647
0.00293306
0.00293434
0.00293557
0.0744038
1.27398e-05
4.83525e-05
0.00454619
0.00535008
0.00561459
0.00559279
0.00558847
0.00559284
0.00559011
0.0735483
1.57781e-05
8.72722e-05
0.00461741
0.00531178
0.00557061
0.00555758
0.00555362
0.00555847
0.00555571
0.0738447
1.75055e-05
0.000101472
0.00463841
0.00531735
0.00557141
0.00555907
0.00555319
0.00555797
0.00555473
0.0739472
1.79074e-05
0.000105869
0.00463905
0.0053083
0.00556534
0.00555675
0.00555226
0.00555778
0.00555466
0.0739862
1.80253e-05
0.00010695
0.00463886
0.00530379
0.00556195
0.00555496
0.00555132
0.00555725
0.00555432
0.0739985
1.80455e-05
0.000107169
0.0046383
0.00530044
0.00555922
0.00555312
0.00555037
0.00555643
0.0055538
0.0740019
1.80448e-05
0.000107181
0.00463788
0.00529842
0.00555746
0.0055517
0.00554948
0.00555589
0.00555327
0.0740024
1.8041e-05
0.00010716
0.00463761
0.00529726
0.00555643
0.00555073
0.00554882
0.00555569
0.00555293
0.0740023
1.80381e-05
0.000107141
0.00463747
0.00529675
0.00555596
0.0055503
0.00554847
0.00555546
0.00555272
0.0740022
1.80358e-05
0.000107126
0.00463747
0.00529679
0.00555601
0.00555035
0.00554853
0.00555546
0.00555276
0.0740019
1.80344e-05
0.000107114
0.0046376
0.00529737
0.00555654
0.00555084
0.0055489
0.00555575
0.00555299
0.074001
1.80342e-05
0.000107104
0.00463787
0.00529858
0.00555764
0.00555183
0.00554954
0.00555612
0.00555339
0.0739976
1.80324e-05
0.000107075
0.0046383
0.00530064
0.00555943
0.00555332
0.00555051
0.00555656
0.00555392
0.0739853
1.80132e-05
0.000106864
0.0046389
0.00530401
0.00556218
0.00555517
0.00555149
0.00555739
0.00555448
0.0739467
1.78988e-05
0.000105811
0.00463913
0.0053085
0.00556556
0.00555698
0.00555242
0.00555796
0.00555483
0.0738448
1.75006e-05
0.000101443
0.00463851
0.00531751
0.00557161
0.00555929
0.00555339
0.00555815
0.00555492
0.0735488
1.57785e-05
8.72752e-05
0.00461752
0.00531191
0.00557078
0.0055578
0.00555383
0.00555866
0.00555591
0.0744046
1.27439e-05
4.83652e-05
0.00454628
0.00535016
0.00561475
0.005593
0.00558872
0.00559297
0.00559031
0.0451734
2.45698e-05
7.14163e-05
0.00182228
0.00267296
0.00290943
0.00292649
0.0029331
0.00293438
0.00293561
)
;
    }
    outlet
    {
        type            inletOutlet;
        phi             phi.air;
        inletValue      uniform 0.00015;
        value           nonuniform List<scalar> 
100
(
0.000260571
0.000192811
0.000174004
0.000193009
0.000260823
0.000515939
0.000244494
0.000182991
0.000244551
0.000515967
0.000517467
0.000243411
0.000181041
0.000243458
0.000517491
0.000517821
0.000243414
0.00018098
0.000243462
0.000517844
0.000517851
0.000243418
0.00018098
0.000243466
0.000517874
0.000517752
0.000243394
0.00018097
0.000243441
0.000517774
0.000517582
0.000243353
0.000180952
0.0002434
0.000517605
0.000517401
0.000243311
0.000180934
0.000243358
0.000517424
0.000517274
0.000243282
0.000180922
0.00024333
0.000517297
0.000517206
0.000243266
0.000180915
0.000243314
0.00051723
0.000517229
0.000243271
0.000180917
0.000243318
0.000517252
0.000517328
0.000243292
0.000180926
0.00024334
0.000517351
0.000517488
0.000243328
0.000180941
0.000243375
0.000517512
0.000517693
0.000243373
0.00018096
0.00024342
0.000517716
0.000517886
0.000243418
0.000180979
0.000243465
0.000517908
0.000518002
0.000243446
0.000180991
0.000243493
0.000518024
0.000517984
0.000243444
0.000180992
0.000243491
0.000518006
0.000517637
0.000243441
0.000181053
0.000243489
0.00051766
0.000516111
0.000244522
0.000182999
0.000244577
0.000516141
0.000260614
0.000192819
0.000174014
0.00019303
0.000260868
)
;
    }
}


// ************************************************************************* //
