/*--------------------------------*- C++ -*----------------------------------*\
| =========                 |                                                 |
| \\      /  F ield         | OpenFOAM: The Open Source CFD Toolbox           |
|  \\    /   O peration     | Version:  2.3.0                                 |
|   \\  /    A nd           | Web:      www.OpenFOAM.org                      |
|    \\/     M anipulation  |                                                 |
\*---------------------------------------------------------------------------*/
FoamFile
{
    version     2.0;
    format      ascii;
    class       volScalarField;
    location    "0.781942";
    object      nut.water;
}
// * * * * * * * * * * * * * * * * * * * * * * * * * * * * * * * * * * * * * //

dimensions      [0 2 -1 0 0 0 0];

internalField   nonuniform List<scalar> 
1000
(
2.86686e-06
1.98206e-06
1.95011e-06
1.95962e-06
1.96314e-06
1.96452e-06
1.96498e-06
1.96512e-06
1.96515e-06
1.96514e-06
1.96512e-06
1.96508e-06
1.965e-06
1.96484e-06
1.9644e-06
1.96307e-06
1.95964e-06
1.9502e-06
1.98218e-06
2.8669e-06
1.62476e-09
3.8183e-10
5.9816e-10
7.19164e-10
7.49398e-10
7.57293e-10
7.58379e-10
7.58057e-10
7.57684e-10
7.57509e-10
7.5744e-10
7.5751e-10
7.5765e-10
7.57798e-10
7.56654e-10
7.48984e-10
7.19141e-10
5.98365e-10
3.81945e-10
1.62674e-09
8.47455e-09
8.74765e-10
3.48122e-09
4.74509e-09
5.1471e-09
5.2234e-09
5.22717e-09
5.21931e-09
5.21335e-09
5.21057e-09
5.20992e-09
5.21134e-09
5.21508e-09
5.22117e-09
5.21698e-09
5.1428e-09
4.74452e-09
3.48199e-09
8.75466e-10
8.48008e-09
4.04469e-07
5.48853e-07
6.81422e-07
7.26794e-07
7.47377e-07
7.52722e-07
7.53436e-07
7.53037e-07
7.52615e-07
7.52393e-07
7.52375e-07
7.52548e-07
7.52898e-07
7.53244e-07
7.52548e-07
7.47304e-07
7.26856e-07
6.81553e-07
5.49009e-07
4.04655e-07
1.28107e-06
8.56572e-07
8.65479e-07
8.70507e-07
8.76017e-07
8.78367e-07
8.79432e-07
8.79803e-07
8.79912e-07
8.79931e-07
8.79918e-07
8.79873e-07
8.79735e-07
8.79345e-07
8.78279e-07
8.75946e-07
8.70462e-07
8.65456e-07
8.56564e-07
1.2812e-06
1.52368e-06
9.23673e-07
9.16696e-07
9.16564e-07
9.18855e-07
9.20287e-07
9.2115e-07
9.21589e-07
9.21796e-07
9.21871e-07
9.21855e-07
9.21751e-07
9.21517e-07
9.21059e-07
9.20188e-07
9.18757e-07
9.16473e-07
9.16609e-07
9.23587e-07
1.52366e-06
1.56188e-06
9.39956e-07
9.30003e-07
9.28936e-07
9.29868e-07
9.30375e-07
9.3094e-07
9.313e-07
9.31501e-07
9.31585e-07
9.31567e-07
9.31455e-07
9.31229e-07
9.3085e-07
9.30273e-07
9.29747e-07
9.28809e-07
9.29869e-07
9.39813e-07
1.56181e-06
1.56045e-06
9.41738e-07
9.31199e-07
9.30262e-07
9.30557e-07
9.30732e-07
9.3112e-07
9.31401e-07
9.31571e-07
9.31646e-07
9.31626e-07
9.31522e-07
9.31324e-07
9.31021e-07
9.3062e-07
9.30427e-07
9.30119e-07
9.31046e-07
9.41567e-07
1.56033e-06
1.55998e-06
9.41e-07
9.30547e-07
9.29717e-07
9.29776e-07
9.30095e-07
9.30372e-07
9.30572e-07
9.30712e-07
9.3077e-07
9.30757e-07
9.30663e-07
9.30491e-07
9.30269e-07
9.29976e-07
9.29641e-07
9.29571e-07
9.30394e-07
9.40836e-07
1.55984e-06
1.55861e-06
9.41586e-07
9.31433e-07
9.30676e-07
9.30641e-07
9.3072e-07
9.30852e-07
9.30994e-07
9.31098e-07
9.31149e-07
9.31128e-07
9.31046e-07
9.30912e-07
9.30743e-07
9.30589e-07
9.30493e-07
9.30516e-07
9.31266e-07
9.41413e-07
1.55846e-06
1.67178e-06
4.09652e-07
4.01411e-07
4.11205e-07
4.13626e-07
4.14335e-07
4.14507e-07
4.14538e-07
4.14535e-07
4.14525e-07
4.14513e-07
4.14494e-07
4.14467e-07
4.14417e-07
4.14253e-07
4.13581e-07
4.11213e-07
4.01455e-07
4.09738e-07
1.67175e-06
1.30247e-10
1.18761e-08
1.0024e-08
9.74815e-09
9.68631e-09
9.67466e-09
9.67521e-09
9.67708e-09
9.67835e-09
9.67888e-09
9.67876e-09
9.678e-09
9.67657e-09
9.67476e-09
9.67454e-09
9.68673e-09
9.74914e-09
1.00255e-08
1.18783e-08
1.30301e-10
2.62222e-12
4.76624e-09
5.13072e-09
5.1649e-09
5.19221e-09
5.2005e-09
5.20516e-09
5.20788e-09
5.20938e-09
5.21003e-09
5.20993e-09
5.20906e-09
5.20734e-09
5.20458e-09
5.20024e-09
5.19257e-09
5.16589e-09
5.13206e-09
4.76755e-09
2.62321e-12
1.56535e-08
1.40978e-07
1.76837e-07
1.85951e-07
1.91106e-07
1.92658e-07
1.93147e-07
1.93283e-07
1.93322e-07
1.93334e-07
1.93334e-07
1.93317e-07
1.93269e-07
1.93132e-07
1.92664e-07
1.91151e-07
1.86033e-07
1.76935e-07
1.41062e-07
1.56746e-08
9.6022e-07
7.9548e-07
8.10227e-07
8.16465e-07
8.22584e-07
8.24988e-07
8.26065e-07
8.26473e-07
8.26623e-07
8.26668e-07
8.26658e-07
8.26594e-07
8.26423e-07
8.26002e-07
8.24933e-07
8.22555e-07
8.16471e-07
8.10258e-07
7.95534e-07
9.60467e-07
1.50026e-06
9.4354e-07
9.28634e-07
9.28609e-07
9.30916e-07
9.32199e-07
9.3297e-07
9.33369e-07
9.33564e-07
9.33638e-07
9.33625e-07
9.33528e-07
9.33312e-07
9.32898e-07
9.32122e-07
9.30842e-07
9.28542e-07
9.28575e-07
9.43493e-07
1.50032e-06
1.57481e-06
9.67052e-07
9.46419e-07
9.45191e-07
9.46122e-07
9.46671e-07
9.472e-07
9.47532e-07
9.47721e-07
9.47801e-07
9.47787e-07
9.47684e-07
9.47475e-07
9.47128e-07
9.46591e-07
9.4603e-07
9.45097e-07
9.46322e-07
9.66962e-07
1.57482e-06
1.57978e-06
9.70554e-07
9.48885e-07
9.47744e-07
9.4802e-07
9.48218e-07
9.4854e-07
9.48783e-07
9.48936e-07
9.49005e-07
9.4899e-07
9.489e-07
9.4873e-07
9.48467e-07
9.48134e-07
9.47925e-07
9.47637e-07
9.48772e-07
9.7044e-07
1.57976e-06
1.58003e-06
9.70101e-07
9.48359e-07
9.47277e-07
9.4735e-07
9.47595e-07
9.47839e-07
9.48017e-07
9.48133e-07
9.48188e-07
9.48178e-07
9.48097e-07
9.47955e-07
9.47766e-07
9.47509e-07
9.4725e-07
9.4717e-07
9.48246e-07
9.69995e-07
1.58e-06
1.57909e-06
9.70527e-07
9.48946e-07
9.47937e-07
9.47924e-07
9.48022e-07
9.48159e-07
9.48291e-07
9.48383e-07
9.4843e-07
9.48415e-07
9.48345e-07
9.48229e-07
9.4808e-07
9.47927e-07
9.47817e-07
9.4782e-07
9.48824e-07
9.70414e-07
1.57905e-06
1.88152e-06
7.39927e-08
8.56043e-08
1.03592e-07
1.07912e-07
1.09102e-07
1.09377e-07
1.09437e-07
1.09446e-07
1.0944e-07
1.09419e-07
1.09376e-07
1.09311e-07
1.09215e-07
1.08957e-07
1.07832e-07
1.0359e-07
8.56587e-08
7.40914e-08
1.88159e-06
1.14605e-09
8.46783e-09
8.45714e-09
8.63068e-09
8.62576e-09
8.62214e-09
8.62123e-09
8.62114e-09
8.62123e-09
8.62122e-09
8.62099e-09
8.62049e-09
8.61985e-09
8.61967e-09
8.62085e-09
8.62529e-09
8.6312e-09
8.45913e-09
8.47551e-09
1.14619e-09
4.51477e-12
3.93515e-09
4.18506e-09
4.17634e-09
4.18632e-09
4.19032e-09
4.19395e-09
4.19646e-09
4.19794e-09
4.1986e-09
4.19856e-09
4.1978e-09
4.19628e-09
4.19385e-09
4.19048e-09
4.18688e-09
4.17723e-09
4.18614e-09
3.93656e-09
4.51341e-12
3.06477e-09
6.36504e-08
8.08347e-08
8.47873e-08
8.74452e-08
8.8336e-08
8.86778e-08
8.88096e-08
8.88648e-08
8.88868e-08
8.88869e-08
8.88634e-08
8.88059e-08
8.86763e-08
8.8348e-08
8.7478e-08
8.48372e-08
8.08919e-08
6.37007e-08
3.06871e-09
7.92343e-07
7.61034e-07
7.80327e-07
7.87106e-07
7.93482e-07
7.95926e-07
7.97012e-07
7.97441e-07
7.97611e-07
7.97671e-07
7.97665e-07
7.97594e-07
7.97409e-07
7.96975e-07
7.95905e-07
7.93495e-07
7.87156e-07
7.80403e-07
7.6114e-07
7.92554e-07
1.47737e-06
9.86094e-07
9.67802e-07
9.67778e-07
9.6981e-07
9.70883e-07
9.71512e-07
9.71844e-07
9.72009e-07
9.72073e-07
9.72064e-07
9.71983e-07
9.71803e-07
9.71461e-07
9.70831e-07
9.69762e-07
9.67737e-07
9.67769e-07
9.86089e-07
1.47734e-06
1.57205e-06
1.01449e-06
9.89297e-07
9.88042e-07
9.88804e-07
9.89269e-07
9.89711e-07
9.89977e-07
9.9013e-07
9.90196e-07
9.90185e-07
9.90104e-07
9.89936e-07
9.8966e-07
9.89213e-07
9.8874e-07
9.87977e-07
9.89231e-07
1.01445e-06
1.57195e-06
1.58001e-06
1.01847e-06
9.92122e-07
9.9091e-07
9.91123e-07
9.91294e-07
9.91544e-07
9.91735e-07
9.91856e-07
9.91912e-07
9.91901e-07
9.91832e-07
9.91699e-07
9.91493e-07
9.91236e-07
9.91058e-07
9.90836e-07
9.92045e-07
1.01842e-06
1.57991e-06
1.58061e-06
1.01822e-06
9.91743e-07
9.90571e-07
9.9063e-07
9.90809e-07
9.90998e-07
9.91138e-07
9.91227e-07
9.91273e-07
9.91265e-07
9.91203e-07
9.91095e-07
9.90948e-07
9.9075e-07
9.90562e-07
9.90497e-07
9.91667e-07
1.01817e-06
1.58049e-06
1.5799e-06
1.01848e-06
9.92081e-07
9.90965e-07
9.90957e-07
9.91043e-07
9.91159e-07
9.91265e-07
9.91337e-07
9.91376e-07
9.91366e-07
9.91311e-07
9.91222e-07
9.91105e-07
9.90979e-07
9.90884e-07
9.90885e-07
9.91999e-07
1.01843e-06
1.5798e-06
1.67171e-06
4.09703e-07
4.01466e-07
4.11262e-07
4.1368e-07
4.14386e-07
4.14557e-07
4.14587e-07
4.14584e-07
4.14574e-07
4.14558e-07
4.14536e-07
4.14505e-07
4.14457e-07
4.14299e-07
4.13633e-07
4.1126e-07
4.01502e-07
4.09777e-07
1.67177e-06
1.30222e-10
1.18767e-08
1.00245e-08
9.74863e-09
9.68684e-09
9.67523e-09
9.67579e-09
9.67767e-09
9.67895e-09
9.67948e-09
9.67934e-09
9.67858e-09
9.67715e-09
9.67535e-09
9.67512e-09
9.68728e-09
9.74965e-09
1.0026e-08
1.18791e-08
1.30199e-10
2.62272e-12
4.76648e-09
5.13101e-09
5.16517e-09
5.19244e-09
5.20073e-09
5.2054e-09
5.20813e-09
5.20964e-09
5.21027e-09
5.21015e-09
5.20926e-09
5.20757e-09
5.20484e-09
5.20055e-09
5.19284e-09
5.16607e-09
5.13223e-09
4.76784e-09
2.62104e-12
1.56571e-08
1.40992e-07
1.76852e-07
1.85965e-07
1.91119e-07
1.9267e-07
1.93159e-07
1.93295e-07
1.93334e-07
1.93346e-07
1.93345e-07
1.93326e-07
1.9328e-07
1.93145e-07
1.92679e-07
1.91165e-07
1.86042e-07
1.76944e-07
1.41076e-07
1.56689e-08
9.59781e-07
7.95394e-07
8.10141e-07
8.16375e-07
8.22487e-07
8.2489e-07
8.25967e-07
8.26374e-07
8.26524e-07
8.26569e-07
8.26559e-07
8.26494e-07
8.26323e-07
8.25904e-07
8.24837e-07
8.22461e-07
8.16378e-07
8.10168e-07
7.95451e-07
9.59906e-07
1.49854e-06
9.43252e-07
9.28389e-07
9.28362e-07
9.30666e-07
9.31948e-07
9.3272e-07
9.33118e-07
9.33313e-07
9.33387e-07
9.33374e-07
9.33277e-07
9.33062e-07
9.32649e-07
9.31873e-07
9.30594e-07
9.28296e-07
9.28329e-07
9.43219e-07
1.49845e-06
1.57272e-06
9.66718e-07
9.46141e-07
9.44915e-07
9.45844e-07
9.46392e-07
9.46919e-07
9.47251e-07
9.4744e-07
9.4752e-07
9.47506e-07
9.47404e-07
9.47195e-07
9.46849e-07
9.46313e-07
9.45752e-07
9.44821e-07
9.46044e-07
9.66638e-07
1.57258e-06
1.57767e-06
9.70288e-07
9.48675e-07
9.47536e-07
9.47812e-07
9.4801e-07
9.48332e-07
9.48575e-07
9.48727e-07
9.48796e-07
9.48781e-07
9.48692e-07
9.48522e-07
9.48259e-07
9.47926e-07
9.47717e-07
9.47429e-07
9.48563e-07
9.70186e-07
1.57751e-06
1.57792e-06
9.69773e-07
9.48091e-07
9.47013e-07
9.47086e-07
9.47331e-07
9.47574e-07
9.47752e-07
9.47867e-07
9.47923e-07
9.47913e-07
9.47832e-07
9.4769e-07
9.47501e-07
9.47245e-07
9.46987e-07
9.46906e-07
9.47979e-07
9.69679e-07
1.57775e-06
1.577e-06
9.702e-07
9.48678e-07
9.47671e-07
9.47659e-07
9.47757e-07
9.47893e-07
9.48025e-07
9.48117e-07
9.48165e-07
9.4815e-07
9.48079e-07
9.47963e-07
9.47815e-07
9.47662e-07
9.47552e-07
9.47555e-07
9.48557e-07
9.701e-07
1.57683e-06
2.86682e-06
1.98204e-06
1.9501e-06
1.95961e-06
1.96312e-06
1.9645e-06
1.96497e-06
1.9651e-06
1.96513e-06
1.96513e-06
1.9651e-06
1.96506e-06
1.96498e-06
1.96482e-06
1.96438e-06
1.96306e-06
1.95963e-06
1.95019e-06
1.98218e-06
2.8669e-06
1.62815e-09
3.82112e-10
5.99014e-10
7.20326e-10
7.50539e-10
7.58433e-10
7.59492e-10
7.59201e-10
7.58816e-10
7.58574e-10
7.58433e-10
7.58405e-10
7.58519e-10
7.58643e-10
7.5767e-10
7.50037e-10
7.20089e-10
5.99085e-10
3.82302e-10
1.62744e-09
8.48783e-09
8.76657e-10
3.48727e-09
4.75446e-09
5.15661e-09
5.23273e-09
5.23634e-09
5.22852e-09
5.22246e-09
5.2193e-09
5.2181e-09
5.21871e-09
5.222e-09
5.22808e-09
5.22519e-09
5.15159e-09
4.75213e-09
3.4873e-09
8.77098e-10
8.4826e-09
4.04632e-07
5.49018e-07
6.81572e-07
7.26965e-07
7.47543e-07
7.52883e-07
7.53597e-07
7.53196e-07
7.52773e-07
7.52547e-07
7.52521e-07
7.52682e-07
7.53023e-07
7.53374e-07
7.52697e-07
7.47462e-07
7.26994e-07
6.81675e-07
5.49141e-07
4.0467e-07
1.28046e-06
8.56543e-07
8.65448e-07
8.70473e-07
8.75982e-07
8.7833e-07
8.79394e-07
8.79765e-07
8.79874e-07
8.79892e-07
8.79879e-07
8.79833e-07
8.79695e-07
8.79306e-07
8.78241e-07
8.7591e-07
8.70426e-07
8.65421e-07
8.56531e-07
1.28053e-06
1.52209e-06
9.23591e-07
9.16626e-07
9.16493e-07
9.18782e-07
9.20213e-07
9.21076e-07
9.21515e-07
9.21722e-07
9.21796e-07
9.21781e-07
9.21677e-07
9.21444e-07
9.20987e-07
9.20117e-07
9.18686e-07
9.16402e-07
9.16538e-07
9.23505e-07
1.52204e-06
1.56002e-06
9.39872e-07
9.29932e-07
9.28865e-07
9.29798e-07
9.30305e-07
9.30871e-07
9.31231e-07
9.31431e-07
9.31515e-07
9.31498e-07
9.31385e-07
9.31159e-07
9.3078e-07
9.30204e-07
9.29677e-07
9.28739e-07
9.29799e-07
9.39726e-07
1.55993e-06
1.5586e-06
9.41651e-07
9.31129e-07
9.30193e-07
9.30488e-07
9.30662e-07
9.31051e-07
9.31332e-07
9.31501e-07
9.31576e-07
9.31557e-07
9.31453e-07
9.31255e-07
9.30952e-07
9.3055e-07
9.30358e-07
9.3005e-07
9.30977e-07
9.4148e-07
1.55845e-06
1.55813e-06
9.40908e-07
9.30472e-07
9.29643e-07
9.29703e-07
9.30021e-07
9.30297e-07
9.30498e-07
9.30637e-07
9.30696e-07
9.30682e-07
9.30588e-07
9.30417e-07
9.30194e-07
9.29902e-07
9.29567e-07
9.29498e-07
9.3032e-07
9.40745e-07
1.55796e-06
1.55672e-06
9.41497e-07
9.3136e-07
9.30604e-07
9.30569e-07
9.30649e-07
9.30781e-07
9.30922e-07
9.31026e-07
9.31077e-07
9.31056e-07
9.30974e-07
9.3084e-07
9.30672e-07
9.30519e-07
9.30423e-07
9.30446e-07
9.31195e-07
9.41322e-07
1.55656e-06
)
;

boundaryField
{
    aeration
    {
        type            calculated;
        value           uniform 8.4375e-07;
    }
    xsides
    {
        type            nutkWallFunction;
        Cmu             0.09;
        kappa           0.41;
        E               9.8;
        value           nonuniform List<scalar> 
100
(
1.41625e-06
0
0
0
0
0
0
0
0
0
1.05978e-06
0
0
0
0
0
0
0
0
0
1.05386e-06
0
0
0
0
0
0
0
0
0
1.05978e-06
0
0
0
0
0
0
0
0
0
1.41625e-06
0
0
0
0
0
0
0
0
0
1.41624e-06
0
0
0
0
0
0
0
0
0
1.05976e-06
0
0
0
0
0
0
0
0
0
1.05385e-06
0
0
0
0
0
0
0
0
0
1.05976e-06
0
0
0
0
0
0
0
0
0
1.41624e-06
0
0
0
0
0
0
0
0
0
)
;
    }
    zsides
    {
        type            nutkWallFunction;
        Cmu             0.09;
        kappa           0.41;
        E               9.8;
        value           nonuniform List<scalar> 
400
(
5.76398e-08
0
0
0
0
0
0
0
0
0
6.00482e-08
0
0
0
0
0
0
0
0
0
5.83883e-08
0
0
0
0
0
0
0
0
0
5.8795e-08
0
0
0
0
0
0
0
0
0
5.89467e-08
0
0
0
0
0
0
0
0
0
5.90074e-08
0
0
0
0
0
0
0
0
0
5.90275e-08
0
0
0
0
0
0
0
0
0
5.90333e-08
0
0
0
0
0
0
0
0
0
5.90344e-08
0
0
0
0
0
0
0
0
0
5.90343e-08
0
0
0
0
0
0
0
0
0
5.90339e-08
0
0
0
0
0
0
0
0
0
5.90333e-08
0
0
0
0
0
0
0
0
0
5.90316e-08
0
0
0
0
0
0
0
0
0
5.90255e-08
0
0
0
0
0
0
0
0
0
5.90058e-08
0
0
0
0
0
0
0
0
0
5.89459e-08
0
0
0
0
0
0
0
0
0
5.87951e-08
0
0
0
0
0
0
0
0
0
5.83893e-08
0
0
0
0
0
0
0
0
0
6.00498e-08
0
0
0
0
0
0
0
0
0
5.76364e-08
0
0
0
0
0
0
0
0
0
5.76394e-08
0
0
0
0
0
0
0
0
0
6.00464e-08
0
0
0
0
0
0
0
0
0
5.83862e-08
0
0
0
0
0
0
0
0
0
5.87927e-08
0
0
0
0
0
0
0
0
0
5.89444e-08
0
0
0
0
0
0
0
0
0
5.9005e-08
0
0
0
0
0
0
0
0
0
5.90251e-08
0
0
0
0
0
0
0
0
0
5.90308e-08
0
0
0
0
0
0
0
0
0
5.9032e-08
0
0
0
0
0
0
0
0
0
5.90319e-08
0
0
0
0
0
0
0
0
0
5.90316e-08
0
0
0
0
0
0
0
0
0
5.90311e-08
0
0
0
0
0
0
0
0
0
5.90295e-08
0
0
0
0
0
0
0
0
0
5.90235e-08
0
0
0
0
0
0
0
0
0
5.90036e-08
0
0
0
0
0
0
0
0
0
5.89436e-08
0
0
0
0
0
0
0
0
0
5.87929e-08
0
0
0
0
0
0
0
0
0
5.83874e-08
0
0
0
0
0
0
0
0
0
6.00482e-08
0
0
0
0
0
0
0
0
0
5.76369e-08
0
0
0
0
0
0
0
0
0
)
;
    }
    outlet
    {
        type            calculated;
        value           nonuniform List<scalar> 
100
(
1.55861e-06
1.57909e-06
1.5799e-06
1.577e-06
1.55672e-06
9.41586e-07
9.70527e-07
1.01848e-06
9.702e-07
9.41497e-07
9.31433e-07
9.48946e-07
9.92081e-07
9.48678e-07
9.3136e-07
9.30676e-07
9.47937e-07
9.90965e-07
9.47671e-07
9.30604e-07
9.30641e-07
9.47924e-07
9.90957e-07
9.47659e-07
9.30569e-07
9.3072e-07
9.48022e-07
9.91043e-07
9.47757e-07
9.30649e-07
9.30852e-07
9.48159e-07
9.91159e-07
9.47893e-07
9.30781e-07
9.30994e-07
9.48291e-07
9.91265e-07
9.48025e-07
9.30922e-07
9.31098e-07
9.48383e-07
9.91337e-07
9.48117e-07
9.31026e-07
9.31149e-07
9.4843e-07
9.91376e-07
9.48165e-07
9.31077e-07
9.31128e-07
9.48415e-07
9.91366e-07
9.4815e-07
9.31056e-07
9.31046e-07
9.48345e-07
9.91311e-07
9.48079e-07
9.30974e-07
9.30912e-07
9.48229e-07
9.91222e-07
9.47963e-07
9.3084e-07
9.30743e-07
9.4808e-07
9.91105e-07
9.47815e-07
9.30672e-07
9.30589e-07
9.47927e-07
9.90979e-07
9.47662e-07
9.30519e-07
9.30493e-07
9.47817e-07
9.90884e-07
9.47552e-07
9.30423e-07
9.30516e-07
9.4782e-07
9.90885e-07
9.47555e-07
9.30446e-07
9.31266e-07
9.48824e-07
9.91999e-07
9.48557e-07
9.31195e-07
9.41413e-07
9.70414e-07
1.01843e-06
9.701e-07
9.41322e-07
1.55846e-06
1.57905e-06
1.5798e-06
1.57683e-06
1.55656e-06
)
;
    }
}


// ************************************************************************* //
