/*--------------------------------*- C++ -*----------------------------------*\
| =========                 |                                                 |
| \\      /  F ield         | OpenFOAM: The Open Source CFD Toolbox           |
|  \\    /   O peration     | Version:  2.3.0                                 |
|   \\  /    A nd           | Web:      www.OpenFOAM.org                      |
|    \\/     M anipulation  |                                                 |
\*---------------------------------------------------------------------------*/
FoamFile
{
    version     2.0;
    format      ascii;
    class       surfaceScalarField;
    location    "0.781942";
    object      phi.water;
}
// * * * * * * * * * * * * * * * * * * * * * * * * * * * * * * * * * * * * * //

dimensions      [0 3 -1 0 0 0 0];

internalField   nonuniform List<scalar> 
2650
(
1.43999e-09
-1.44742e-09
1.78399e-09
2.31131e-10
-4.75397e-09
7.68762e-09
5.95965e-12
-6.17825e-09
8.17541e-09
-2.24513e-11
-6.43778e-09
8.25434e-09
-1.80917e-11
-6.47343e-09
8.26103e-09
-1.02748e-11
-6.47118e-09
8.25638e-09
-5.05966e-12
-6.46394e-09
8.25196e-09
-2.1618e-12
-6.45874e-09
8.24909e-09
-6.03189e-13
-6.45589e-09
8.24757e-09
3.85598e-13
-6.45475e-09
8.24699e-09
1.35787e-12
-6.4549e-09
8.24716e-09
2.80784e-12
-6.4563e-09
8.24809e-09
5.41568e-12
-6.45926e-09
8.2499e-09
1.01831e-11
-6.46441e-09
8.25287e-09
1.75834e-11
-6.47146e-09
8.25707e-09
2.17479e-11
-6.47362e-09
8.26141e-09
-6.5544e-12
-6.43814e-09
8.2546e-09
-2.31488e-10
-6.17835e-09
8.17531e-09
-1.4401e-09
-4.75386e-09
7.68726e-09
-1.44939e-09
1.78563e-09
-2.98862e-10
-8.95976e-10
9.89913e-10
4.54238e-11
1.90641e-10
-4.29259e-09
5.68504e-11
-1.44088e-09
-3.7845e-09
1.80216e-11
-1.91954e-09
-3.51125e-09
8.43305e-12
-2.02126e-09
-3.47254e-09
5.56651e-12
-2.01872e-09
-3.47889e-09
4.02018e-12
-2.00296e-09
-3.48844e-09
2.64868e-12
-1.99114e-09
-3.49508e-09
1.25828e-12
-1.98456e-09
-3.4987e-09
-1.52814e-13
-1.98179e-09
-3.50028e-09
-1.5631e-12
-1.98179e-09
-3.50044e-09
-2.93511e-12
-1.98441e-09
-3.49933e-09
-4.22828e-12
-1.99054e-09
-3.49634e-09
-5.64492e-12
-2.0019e-09
-3.4902e-09
-8.39459e-12
-2.01762e-09
-3.48049e-09
-1.79186e-11
-2.02074e-09
-3.4734e-09
-5.67759e-11
-1.91996e-09
-3.51127e-09
-4.53742e-11
-1.44171e-09
-3.78385e-09
2.98759e-10
1.89588e-10
-4.2914e-09
-8.97732e-10
9.89365e-10
-7.93153e-10
1.05748e-09
-8.63132e-10
1.0158e-10
2.49721e-09
-2.99571e-09
1.54262e-10
1.94683e-09
-3.2303e-09
8.2906e-11
1.67645e-09
-3.30702e-09
3.37481e-11
1.57198e-09
-3.32475e-09
1.38197e-11
1.5499e-09
-3.32927e-09
5.98533e-12
1.55044e-09
-3.32635e-09
2.61755e-12
1.55476e-09
-3.32346e-09
5.43977e-13
1.55805e-09
-3.32155e-09
-1.21396e-12
1.55963e-09
-3.32072e-09
-2.94194e-12
1.55971e-09
-3.32084e-09
-4.85354e-12
1.55837e-09
-3.3219e-09
-7.82702e-12
1.55545e-09
-3.32398e-09
-1.50703e-11
1.55145e-09
-3.32691e-09
-3.44554e-11
1.55089e-09
-3.32975e-09
-8.33176e-11
1.57257e-09
-3.32514e-09
-1.54641e-10
1.67641e-09
-3.30748e-09
-1.01921e-10
1.94636e-09
-3.23073e-09
7.92905e-10
2.49653e-09
-2.99622e-09
1.05677e-09
-8.64466e-10
-6.74285e-10
2.19515e-09
-4.47168e-10
-1.32004e-10
2.8537e-09
-8.85085e-10
4.54832e-11
2.7671e-09
-9.86397e-10
7.00441e-11
2.71478e-09
-1.05171e-09
4.89859e-11
2.66693e-09
-1.06276e-09
2.94373e-11
2.64794e-09
-1.06738e-09
1.62144e-11
2.64066e-09
-1.06588e-09
8.23948e-12
2.63866e-09
-1.06482e-09
3.02153e-12
2.63837e-09
-1.06401e-09
-1.04425e-12
2.63848e-09
-1.06369e-09
-5.06024e-12
2.63857e-09
-1.06375e-09
-1.00849e-11
2.63867e-09
-1.06418e-09
-1.76615e-11
2.63918e-09
-1.06505e-09
-3.03392e-11
2.64135e-09
-1.06612e-09
-4.94008e-11
2.64865e-09
-1.06759e-09
-7.0198e-11
2.66748e-09
-1.06299e-09
-4.56112e-11
2.71507e-09
-1.05208e-09
1.31769e-10
2.76718e-09
-9.86852e-10
6.74023e-10
2.85372e-09
-8.85778e-10
2.1949e-09
-4.47905e-10
-2.70159e-10
2.56314e-09
-9.77691e-11
-7.04818e-11
2.82664e-09
-1.72547e-10
2.29753e-13
2.81159e-09
-1.15144e-10
2.86716e-11
2.80587e-09
-1.19478e-10
2.73963e-11
2.78213e-09
-1.13871e-10
2.06587e-11
2.7694e-09
-1.14669e-10
1.34064e-11
2.76173e-09
-1.13767e-10
7.67488e-12
2.75807e-09
-1.13624e-10
3.14203e-12
2.75643e-09
-1.1347e-10
-7.47161e-13
2.75588e-09
-1.13461e-10
-4.58565e-12
2.75601e-09
-1.1355e-10
-8.95379e-12
2.75681e-09
-1.13726e-10
-1.43974e-11
2.75868e-09
-1.14013e-10
-2.1307e-11
2.76251e-09
-1.14204e-10
-2.77512e-11
2.77024e-09
-1.15097e-10
-2.88796e-11
2.78292e-09
-1.14264e-10
-3.92073e-13
2.80656e-09
-1.19928e-10
7.03126e-11
2.81218e-09
-1.15659e-10
2.69929e-10
2.82713e-09
-1.72971e-10
2.56335e-09
-9.84703e-11
-1.0867e-10
2.68648e-09
-1.46686e-11
-4.20492e-11
2.77912e-09
-1.90743e-11
-1.26448e-11
2.78287e-09
-6.64598e-13
8.01386e-12
2.78738e-09
-2.15226e-12
1.2766e-11
2.77735e-09
4.25319e-14
1.21624e-11
2.77074e-09
-7.17931e-13
9.12936e-12
2.76533e-09
-5.55784e-13
5.75472e-12
2.76211e-09
-6.51102e-13
2.50207e-12
2.76036e-09
-6.63302e-13
-5.65364e-13
2.75966e-09
-6.99385e-13
-3.59207e-12
2.75979e-09
-7.40082e-13
-6.7049e-12
2.76071e-09
-7.78391e-13
-9.8714e-12
2.76265e-09
-7.97136e-13
-1.26855e-11
2.76603e-09
-6.97902e-13
-1.31062e-11
2.77151e-09
-8.41139e-13
-8.26731e-12
2.7782e-09
-1.09733e-13
1.24227e-11
2.78824e-09
-2.3671e-12
4.18652e-11
2.78377e-09
-1.02228e-12
1.08513e-10
2.78009e-09
-1.96014e-11
2.68692e-09
-1.50507e-11
-4.0741e-11
2.7362e-09
-8.95947e-12
-2.15788e-11
2.77259e-09
-1.26443e-11
-1.02783e-11
2.77895e-09
-7.36986e-12
1.56638e-12
2.78389e-09
-8.34644e-12
6.01108e-12
2.78027e-09
-7.36166e-12
7.06964e-12
2.77716e-09
-7.47678e-12
5.96915e-12
2.77376e-09
-7.32031e-12
4.05892e-12
2.77136e-09
-7.33736e-12
1.85413e-12
2.7699e-09
-7.32871e-12
-3.79304e-13
2.76926e-09
-7.35769e-12
-2.58908e-12
2.76939e-09
-7.38221e-12
-4.69436e-12
2.77023e-09
-7.40808e-12
-6.47083e-12
2.77187e-09
-7.43226e-12
-7.44793e-12
2.77441e-09
-7.40201e-12
-6.30155e-12
2.7779e-09
-7.53559e-12
-1.79762e-12
2.78117e-09
-7.4681e-12
1.0104e-11
2.78487e-09
-8.5234e-12
2.14933e-11
2.77999e-09
-7.60928e-12
4.06566e-11
2.7737e-09
-1.27781e-11
2.73683e-09
-9.25035e-12
-1.58668e-11
2.75163e-09
4.28668e-13
-1.07467e-11
2.76852e-09
-1.03377e-12
-6.52738e-12
2.77464e-09
8.58429e-14
-4.91501e-13
2.7783e-09
-4.46881e-13
2.41707e-12
2.7774e-09
-3.73668e-14
3.67812e-12
2.77597e-09
-7.03676e-14
3.4981e-12
2.77387e-09
7.45402e-14
2.53412e-12
2.7722e-09
1.27094e-13
1.18168e-12
2.77111e-09
1.51735e-13
-2.90416e-13
2.7706e-09
1.38647e-13
-1.71731e-12
2.77072e-09
9.90991e-14
-2.99744e-12
2.77146e-09
5.81377e-14
-3.89785e-12
2.77277e-09
3.43665e-15
-3.99583e-12
2.77459e-09
-7.15142e-14
-2.68436e-12
2.77681e-09
-2.13745e-13
2.71659e-13
2.77837e-09
-1.58633e-13
6.37093e-12
2.77936e-09
-5.89265e-13
1.06476e-11
2.77577e-09
-5.84293e-14
1.58702e-11
2.7698e-09
-1.31671e-12
2.75236e-09
3.35037e-13
-6.19127e-12
2.75737e-09
4.63359e-13
-5.16897e-12
2.76767e-09
-1.8039e-13
-3.47393e-12
2.77244e-09
5.11875e-13
-6.82104e-13
2.77514e-09
3.67533e-13
9.09774e-13
2.77528e-09
5.29193e-13
1.7359e-12
2.77451e-09
6.39953e-13
1.79055e-12
2.77316e-09
6.5454e-13
1.35305e-12
2.77198e-09
6.67815e-13
6.42652e-13
2.77116e-09
6.66687e-13
-1.72292e-13
2.77076e-09
6.56292e-13
-9.61046e-13
2.77089e-09
6.24883e-13
-1.6289e-12
2.77154e-09
5.92527e-13
-2.03259e-12
2.77261e-09
5.66671e-13
-1.92171e-12
2.77396e-09
5.20611e-13
-1.04371e-12
2.77545e-09
4.8269e-13
5.88629e-13
2.77633e-09
4.02415e-13
3.42323e-12
2.77627e-09
2.50083e-13
5.15877e-12
2.7736e-09
4.32974e-13
6.19632e-12
2.76885e-09
-8.85312e-14
2.75821e-09
3.57505e-13
-2.85826e-12
3.22324e-13
-2.09796e-12
-6.85496e-13
-1.34675e-12
-5.13647e-13
-3.83005e-13
-6.36292e-13
2.49421e-13
-6.01026e-13
5.74176e-13
-5.23931e-13
5.91081e-13
-5.08476e-13
4.56672e-13
-5.11346e-13
2.35519e-13
-5.12236e-13
-1.84248e-14
-5.22943e-13
-2.85608e-13
-5.28176e-13
-5.00743e-13
-5.37892e-13
-6.15511e-13
-5.49488e-13
-5.91152e-13
-5.5408e-13
-2.61198e-13
-5.83273e-13
3.82396e-13
-6.65172e-13
1.35366e-12
-6.83434e-13
2.09707e-12
-5.41363e-13
2.8516e-12
-7.07577e-13
3.19942e-13
2.16908e-09
2.21972e-10
1.08187e-09
3.74263e-10
5.55112e-09
5.27943e-09
-2.87929e-11
4.58203e-09
5.40056e-09
-6.72821e-11
4.41001e-09
5.32424e-09
-4.87288e-11
4.39321e-09
5.29998e-09
-2.80334e-11
4.40082e-09
5.28849e-09
-1.45998e-11
4.4097e-09
5.2833e-09
-6.83716e-12
4.41538e-09
5.28069e-09
-2.28429e-12
4.41839e-09
5.27944e-09
9.02845e-13
4.4196e-09
5.27904e-09
4.04223e-12
4.41949e-09
5.27935e-09
8.33527e-12
4.41813e-09
5.28042e-09
1.54376e-11
4.41512e-09
5.28229e-09
2.78766e-11
4.40955e-09
5.2852e-09
4.76622e-11
4.40075e-09
5.29003e-09
6.57986e-11
4.39312e-09
5.30083e-09
2.74903e-11
4.40981e-09
5.32459e-09
-3.75085e-10
4.582e-09
5.40011e-09
-2.16927e-09
5.55146e-09
5.27849e-09
2.21942e-10
1.08326e-09
-1.68256e-10
2.18256e-09
5.0684e-10
6.62484e-12
7.07935e-09
-4.45156e-09
4.6241e-11
6.12427e-09
-3.95822e-09
1.91932e-11
5.86966e-09
-3.56743e-09
1.37396e-11
5.79488e-09
-3.49799e-09
9.95091e-12
5.7855e-09
-3.49009e-09
7.06835e-12
5.78766e-09
-3.49378e-09
4.51489e-12
5.79034e-09
-3.49757e-09
2.18506e-12
5.79194e-09
-3.49988e-09
-3.20159e-14
5.79264e-09
-3.50099e-09
-2.25942e-12
5.79273e-09
-3.50131e-09
-4.60017e-12
5.79231e-09
-3.50102e-09
-7.13353e-12
5.79111e-09
-3.49971e-09
-9.96236e-12
5.78876e-09
-3.4966e-09
-1.37009e-11
5.78652e-09
-3.49258e-09
-1.91518e-11
5.79538e-09
-3.49931e-09
-4.62114e-11
5.86951e-09
-3.5675e-09
-6.60957e-12
6.12372e-09
-3.95712e-09
1.68091e-10
7.07864e-09
-4.44925e-09
2.18219e-09
5.06435e-10
-6.15882e-10
2.49691e-09
-2.37769e-10
4.05232e-11
5.0497e-09
-1.26351e-09
8.81872e-11
4.5744e-09
-1.36709e-09
5.26971e-11
4.35571e-09
-1.39113e-09
2.88717e-11
4.25978e-09
-1.39847e-09
1.61834e-11
4.23713e-09
-1.40106e-09
9.78538e-12
4.23494e-09
-1.40039e-09
5.71973e-12
4.23711e-09
-1.39954e-09
2.47985e-12
4.23909e-09
-1.39894e-09
-5.07184e-13
4.24005e-09
-1.39868e-09
-3.48409e-12
4.24009e-09
-1.39874e-09
-6.65745e-12
4.23926e-09
-1.39914e-09
-1.05587e-11
4.23753e-09
-1.39984e-09
-1.67034e-11
4.23555e-09
-1.4007e-09
-2.91543e-11
4.23765e-09
-1.40127e-09
-5.28503e-11
4.25991e-09
-1.39862e-09
-8.8325e-11
4.35531e-09
-1.39136e-09
-4.06568e-11
4.5736e-09
-1.3673e-09
6.15717e-10
5.04871e-09
-1.26373e-09
2.49623e-09
-2.38971e-10
-7.55945e-10
2.98271e-09
-1.50764e-10
-1.63091e-10
4.00345e-09
-3.81891e-10
5.28214e-11
3.8474e-09
-4.30605e-10
7.659e-11
3.78021e-09
-4.55563e-10
5.71583e-11
3.72054e-09
-4.59806e-10
3.48291e-11
3.69787e-09
-4.61577e-10
2.01067e-11
3.68899e-09
-4.61065e-10
1.08777e-11
3.68629e-09
-4.60667e-10
4.75048e-12
3.68564e-09
-4.60365e-10
-1.16913e-13
3.68554e-09
-4.60238e-10
-4.99563e-12
3.68554e-09
-4.60262e-10
-1.10949e-11
3.68567e-09
-4.60424e-10
-2.01637e-11
3.68639e-09
-4.60749e-10
-3.45882e-11
3.68913e-09
-4.61135e-10
-5.66208e-11
3.6979e-09
-4.61609e-10
-7.59124e-11
3.72032e-09
-4.59851e-10
-5.22475e-11
3.77965e-09
-4.55692e-10
1.63325e-10
3.84657e-09
-4.30715e-10
7.55857e-10
4.00248e-09
-3.82317e-10
2.98164e-09
-1.51228e-10
-2.67936e-10
3.23982e-09
-8.68039e-11
-8.30295e-11
3.76857e-09
-1.22261e-10
5.19985e-12
3.74517e-09
-1.0088e-10
3.27243e-11
3.73701e-09
-1.03548e-10
3.2799e-11
3.70792e-09
-1.01075e-10
2.43904e-11
3.69299e-09
-1.01136e-10
1.63366e-11
3.68414e-09
-1.00614e-10
9.8636e-12
3.67984e-09
-1.00459e-10
4.80439e-12
3.67782e-09
-1.00348e-10
4.27599e-13
3.67701e-09
-1.0032e-10
-3.97649e-12
3.67699e-09
-1.00353e-10
-9.08599e-12
3.67773e-09
-1.00441e-10
-1.55664e-11
3.67971e-09
-1.00609e-10
-2.3562e-11
3.68393e-09
-1.0078e-10
-3.18904e-11
3.69267e-09
-1.01302e-10
-3.18052e-11
3.70742e-09
-1.0122e-10
-4.44248e-12
3.73631e-09
-1.03709e-10
8.35094e-11
3.74426e-09
-1.01061e-10
2.68098e-10
3.7675e-09
-1.22291e-10
3.23843e-09
-8.70538e-11
-1.0849e-10
3.34444e-09
-1.08071e-11
-4.76408e-11
3.70102e-09
-1.23467e-11
-1.19818e-11
3.71299e-09
-4.13073e-12
9.33999e-12
3.71822e-09
-4.66631e-12
1.53618e-11
3.70563e-09
-3.67563e-12
1.44057e-11
3.6972e-09
-3.96819e-12
1.11174e-11
3.69078e-09
-3.89702e-12
7.36394e-12
3.68689e-09
-3.92864e-12
3.76799e-12
3.6847e-09
-3.92944e-12
3.34797e-13
3.6837e-09
-3.93935e-12
-3.12119e-12
3.68367e-09
-3.95129e-12
-6.74453e-12
3.68456e-09
-3.96676e-12
-1.04985e-11
3.68665e-09
-3.97131e-12
-1.37589e-11
3.69045e-09
-3.93932e-12
-1.46739e-11
3.69675e-09
-3.99914e-12
-8.65528e-12
3.70501e-09
-3.71098e-12
1.25905e-11
3.71743e-09
-4.73334e-12
4.80134e-11
3.71206e-09
-4.23531e-12
1.0861e-10
3.69998e-09
-1.26689e-11
3.34287e-09
-1.08872e-11
-4.16136e-11
3.38176e-09
-4.63128e-12
-2.39542e-11
3.67627e-09
-5.55457e-12
-1.01194e-11
3.69499e-09
-3.19038e-12
2.36379e-12
3.701e-09
-3.60831e-12
7.6511e-12
3.69618e-09
-3.20096e-12
8.69001e-12
3.69202e-09
-3.3293e-12
7.46765e-12
3.68795e-09
-3.2595e-12
5.3052e-12
3.68499e-09
-3.26496e-12
2.83334e-12
3.68311e-09
-3.25779e-12
2.96169e-13
3.68216e-09
-3.26632e-12
-2.26759e-12
3.68213e-09
-3.27199e-12
-4.76483e-12
3.68293e-09
-3.27955e-12
-6.93721e-12
3.68468e-09
-3.28665e-12
-8.16379e-12
3.68755e-09
-3.27216e-12
-7.11966e-12
3.6915e-09
-3.32903e-12
-1.84077e-12
3.69549e-09
-3.21856e-12
1.05586e-11
3.70017e-09
-3.656e-12
2.42711e-11
3.69401e-09
-3.26985e-12
4.17764e-11
3.67515e-09
-5.45335e-12
3.38017e-09
-4.75481e-12
-1.6216e-11
3.39871e-09
-3.25186e-13
-1.14757e-11
3.67099e-09
-4.76335e-13
-6.39835e-12
3.69014e-09
-1.46413e-13
-1.05875e-14
3.69452e-09
-3.48692e-13
3.26449e-12
3.69305e-09
-1.74635e-13
4.53926e-12
3.69078e-09
-9.55356e-14
4.34932e-12
3.68824e-09
-1.80365e-14
3.31083e-12
3.68615e-09
1.18087e-14
1.84006e-12
3.68472e-09
2.48924e-14
2.13645e-13
3.68391e-09
2.30213e-14
-1.40189e-12
3.68384e-09
1.15037e-14
-2.89056e-12
3.68449e-09
-1.00311e-15
-3.97977e-12
3.6858e-09
-2.23118e-14
-4.19514e-12
3.68775e-09
-5.2096e-14
-2.94466e-12
3.69017e-09
-1.27752e-13
3.00182e-13
3.69229e-09
-2.04722e-13
6.63611e-12
3.69363e-09
-3.90533e-13
1.16272e-11
3.68914e-09
-1.84574e-13
1.63001e-11
3.66985e-09
-6.80606e-13
3.3971e-09
-3.03806e-13
-6.28943e-12
3.40526e-09
2.21492e-13
-5.49606e-12
3.67015e-09
-1.51117e-13
-3.42012e-12
3.68831e-09
2.6424e-13
-4.15827e-13
3.69168e-09
1.98753e-13
1.38483e-12
3.69151e-09
2.66261e-13
2.24798e-12
3.69025e-09
3.08439e-13
2.31541e-12
3.68854e-09
2.93689e-13
1.85156e-12
3.68699e-09
2.93942e-13
1.08022e-12
3.68587e-09
2.91446e-13
1.76819e-13
3.68518e-09
2.89393e-13
-7.22369e-13
3.68509e-09
2.77016e-13
-1.51312e-12
3.68561e-09
2.66982e-13
-2.02459e-12
3.68661e-09
2.64133e-13
-1.98775e-12
3.68798e-09
2.54177e-13
-1.16158e-12
3.68956e-09
2.62184e-13
5.92037e-13
3.69071e-09
2.24528e-13
3.55079e-12
3.69077e-09
1.563e-13
5.60158e-12
3.6873e-09
2.25752e-13
6.37944e-12
3.66901e-09
-3.58787e-14
3.40368e-09
1.55387e-13
-3.00281e-12
1.08426e-13
-2.30483e-12
-2.74034e-13
-1.36934e-12
-1.9047e-13
-3.22446e-13
-2.3648e-13
3.9527e-13
-2.23108e-13
7.42677e-13
-2.62009e-13
7.65382e-13
-2.71011e-13
6.1957e-13
-2.76455e-13
3.815e-13
-2.7765e-13
9.77863e-14
-2.82434e-13
-2.0922e-13
-2.84871e-13
-4.62999e-13
-2.88338e-13
-6.11874e-13
-2.89544e-13
-6.10012e-13
-2.87642e-13
-2.90279e-13
-2.83768e-13
4.05409e-13
-2.48385e-13
1.43546e-12
-2.55849e-13
2.3458e-12
-1.98716e-13
3.0066e-12
-3.29235e-13
1.10602e-13
3.92262e-09
-1.42218e-10
-1.08626e-09
7.74435e-10
1.45247e-08
-5.2832e-09
-1.34289e-10
1.27629e-08
-5.40407e-09
-1.95135e-10
1.18753e-08
-5.32807e-09
-1.36101e-10
1.17329e-08
-5.30359e-09
-7.93679e-11
1.17199e-08
-5.29195e-09
-4.27449e-11
1.17319e-08
-5.28672e-09
-2.10032e-11
1.17422e-08
-5.28407e-09
-7.64554e-12
1.17483e-08
-5.28279e-09
2.13593e-12
1.17511e-08
-5.28232e-09
1.18072e-11
1.17516e-08
-5.28247e-09
2.4544e-11
1.17501e-08
-5.28328e-09
4.4682e-11
1.17458e-08
-5.28497e-09
7.88766e-11
1.17367e-08
-5.28796e-09
1.33399e-10
1.17242e-08
-5.29318e-09
1.91414e-10
1.1735e-08
-5.30421e-09
1.30887e-10
1.1875e-08
-5.32772e-09
-7.76418e-10
1.27606e-08
-5.40335e-09
-3.92175e-09
1.452e-08
-5.281e-09
-1.42046e-10
-1.0845e-09
-2.39628e-10
2.40983e-09
-5.05812e-10
1.74902e-11
8.64359e-09
4.45249e-09
5.44981e-11
7.78627e-09
3.95919e-09
2.10592e-11
7.53552e-09
3.56848e-09
1.46239e-11
7.46253e-09
3.49897e-09
1.04222e-11
7.45221e-09
3.49103e-09
7.36487e-12
7.4534e-09
3.49471e-09
4.70097e-12
7.45541e-09
3.49848e-09
2.28902e-12
7.45665e-09
3.50078e-09
-3.46387e-15
7.4572e-09
3.50187e-09
-2.31253e-12
7.45731e-09
3.50215e-09
-4.75228e-12
7.45708e-09
3.50178e-09
-7.41086e-12
7.45627e-09
3.50041e-09
-1.0417e-11
7.45459e-09
3.49732e-09
-1.45738e-11
7.45327e-09
3.4934e-09
-2.10249e-11
7.46305e-09
3.50024e-09
-5.44759e-11
7.53541e-09
3.56836e-09
-1.74688e-11
7.78571e-09
3.95794e-09
2.39347e-10
8.64268e-09
4.44999e-09
2.40966e-09
-5.06145e-10
-6.15872e-10
2.86105e-09
2.40274e-10
2.89883e-11
5.84963e-09
1.26459e-09
7.8905e-11
5.37923e-09
1.3682e-09
4.83659e-11
5.16624e-09
1.39236e-09
2.84551e-11
5.06889e-09
1.3996e-09
1.67979e-11
5.045e-09
1.4021e-09
1.05423e-11
5.04182e-09
1.4014e-09
6.29537e-12
5.04331e-09
1.40053e-09
2.8104e-12
5.0449e-09
1.3999e-09
-4.24963e-13
5.04571e-09
1.39961e-09
-3.65333e-12
5.04575e-09
1.3996e-09
-7.0857e-12
5.0451e-09
1.39988e-09
-1.12013e-11
5.04377e-09
1.40052e-09
-1.72542e-11
5.04246e-09
1.40144e-09
-2.87229e-11
5.04555e-09
1.40221e-09
-4.85349e-11
5.06905e-09
1.39968e-09
-7.90468e-11
5.16591e-09
1.3923e-09
-2.91253e-11
5.3785e-09
1.36812e-09
6.15682e-10
5.84873e-09
1.26438e-09
2.86057e-09
2.39171e-10
-7.9997e-10
3.38478e-09
1.51635e-10
-1.68073e-10
4.51537e-09
3.8262e-10
5.34469e-11
4.35294e-09
4.31005e-10
7.78887e-11
4.28669e-09
4.56111e-10
5.86696e-11
4.22441e-09
4.60312e-10
3.60297e-11
4.20035e-09
4.62046e-10
2.09382e-11
4.19058e-09
4.61522e-10
1.13242e-11
4.18734e-09
4.61116e-10
4.81243e-12
4.18641e-09
4.60808e-10
-4.23644e-13
4.18619e-09
4.60668e-10
-5.6556e-12
4.18622e-09
4.60659e-10
-1.20861e-11
4.1865e-09
4.60779e-10
-2.14662e-11
4.18753e-09
4.61061e-10
-3.61829e-11
4.19082e-09
4.61465e-10
-5.84615e-11
4.2005e-09
4.62029e-10
-7.7491e-11
4.22431e-09
4.60319e-10
-5.31001e-11
4.28625e-09
4.56109e-10
1.68185e-10
4.35223e-09
4.31083e-10
7.9978e-10
4.51448e-09
3.82441e-10
3.38398e-09
1.51273e-10
-2.70492e-10
3.48146e-09
8.71539e-11
-8.42477e-11
4.08502e-09
1.22273e-10
6.46183e-12
4.06055e-09
1.01169e-10
3.36794e-11
4.05241e-09
1.03859e-10
3.38765e-11
4.02211e-09
1.01369e-10
2.51483e-11
4.00685e-09
1.01428e-10
1.68797e-11
3.99767e-09
1.009e-10
1.01795e-11
3.99318e-09
1.00747e-10
4.90311e-12
3.99104e-09
1.00636e-10
3.15476e-13
3.99019e-09
1.00605e-10
-4.29247e-12
3.99018e-09
1.00625e-10
-9.5989e-12
3.991e-09
1.00695e-10
-1.62806e-11
3.99311e-09
1.00827e-10
-2.44644e-11
3.99756e-09
1.00997e-10
-3.30913e-11
4.00664e-09
1.01516e-10
-3.28656e-11
4.02174e-09
1.01456e-10
-5.7826e-12
4.05184e-09
1.03954e-10
8.46736e-11
4.05979e-09
1.01273e-10
2.706e-10
4.08412e-09
1.22554e-10
3.48042e-09
8.7224e-11
-1.08746e-10
3.56876e-09
1.06395e-11
-4.82194e-11
3.9995e-09
1.26726e-11
-1.19e-11
4.01596e-09
4.1504e-12
9.5533e-12
4.02161e-09
4.68897e-12
1.57754e-11
4.00854e-09
3.6835e-12
1.4775e-11
3.99993e-09
3.96132e-12
1.1418e-11
3.99326e-09
3.88709e-12
7.54982e-12
3.98921e-09
3.91986e-12
3.8229e-12
3.98693e-09
3.92277e-12
2.53243e-13
3.9859e-09
3.93251e-12
-3.33413e-12
3.98588e-09
3.9452e-12
-7.07545e-12
3.98683e-09
3.95099e-12
-1.09254e-11
3.98904e-09
3.96084e-12
-1.42358e-11
3.99302e-09
3.92653e-12
-1.51782e-11
3.99959e-09
4.00364e-12
-8.94451e-12
4.00807e-09
3.73336e-12
1.24416e-11
4.02099e-09
4.73914e-12
4.85561e-11
4.0152e-09
4.24367e-12
1.08834e-10
3.99862e-09
1.25666e-11
3.5676e-09
1.07676e-11
-4.2291e-11
3.60163e-09
4.80659e-12
-2.44508e-11
3.97082e-09
5.28441e-12
-1.02028e-11
3.99534e-09
3.19259e-12
2.46631e-12
4.00176e-09
3.57976e-12
7.92597e-12
3.99673e-09
3.15508e-12
8.97875e-12
3.99228e-09
3.27526e-12
7.71424e-12
3.98806e-09
3.20835e-12
5.46525e-12
3.98499e-09
3.2146e-12
2.8896e-12
3.98305e-09
3.21196e-12
2.42655e-13
3.98207e-09
3.2211e-12
-2.42865e-12
3.98206e-09
3.22811e-12
-5.02199e-12
3.98292e-09
3.23505e-12
-7.26834e-12
3.98476e-09
3.24845e-12
-8.52558e-12
3.98776e-09
3.24203e-12
-7.45816e-12
3.99189e-09
3.31243e-12
-1.99667e-12
3.99619e-09
3.19708e-12
1.06035e-11
4.00111e-09
3.62353e-12
2.47368e-11
3.99456e-09
3.23747e-12
4.24388e-11
3.96994e-09
5.5231e-12
3.6005e-09
4.79375e-12
-1.64536e-11
3.61763e-09
1.12331e-13
-1.16132e-11
3.96482e-09
6.95336e-13
-6.45162e-12
3.98993e-09
1.07034e-13
2.96372e-14
3.99462e-09
3.15159e-13
3.37824e-12
3.99307e-09
1.35281e-13
4.66262e-12
3.99084e-09
6.48079e-14
4.46192e-12
3.98826e-09
-8.0057e-15
3.38489e-12
3.98612e-09
-3.07032e-14
1.85672e-12
3.98465e-09
-4.11683e-14
1.67341e-13
3.98383e-09
-3.62509e-14
-1.50808e-12
3.98378e-09
-2.58554e-14
-3.04672e-12
3.98448e-09
-1.25474e-14
-4.16569e-12
3.98585e-09
6.77288e-15
-4.37936e-12
3.98788e-09
4.41212e-14
-3.108e-12
3.99037e-09
1.17609e-13
2.19094e-13
3.99248e-09
1.80379e-13
6.65561e-12
3.99392e-09
3.6189e-13
1.175e-11
3.98913e-09
1.59378e-13
1.65287e-11
3.9639e-09
5.90027e-13
3.61653e-09
1.87844e-13
-6.40719e-12
3.62427e-09
7.99669e-15
-5.58981e-12
3.96385e-09
-1.01598e-14
-3.44426e-12
3.98827e-09
-2.24495e-13
-3.87684e-13
3.99193e-09
-1.75899e-13
1.45527e-12
3.99174e-09
-2.42594e-13
2.32712e-12
3.99056e-09
-2.83714e-13
2.38966e-12
3.98876e-09
-2.65081e-13
1.9023e-12
3.98716e-09
-2.62301e-13
1.09447e-12
3.98601e-09
-2.59348e-13
1.4964e-13
3.98532e-09
-2.57329e-13
-7.89118e-13
3.98525e-09
-2.48558e-13
-1.61238e-12
3.98581e-09
-2.42598e-13
-2.14187e-12
3.98689e-09
-2.40833e-13
-2.10033e-12
3.98833e-09
-2.30628e-13
-1.25447e-12
3.99003e-09
-2.43364e-13
5.49865e-13
3.99111e-09
-2.13503e-13
3.56909e-12
3.99121e-09
-1.50961e-13
5.68645e-12
3.98745e-09
-2.17961e-13
6.49402e-12
3.96293e-09
1.20186e-13
3.6232e-09
-1.81458e-14
-3.06934e-12
-2.78772e-13
-2.35314e-12
3.57054e-13
-1.39341e-12
1.64876e-13
-3.17722e-13
2.11373e-13
4.20851e-13
2.00538e-13
7.75718e-13
2.42197e-13
7.95808e-13
2.55787e-13
6.40994e-13
2.632e-13
3.91168e-13
2.66146e-13
9.30438e-14
2.69238e-13
-2.29235e-13
2.68876e-13
-4.94878e-13
2.68424e-13
-6.50383e-13
2.67225e-13
-6.48792e-13
2.60652e-13
-3.19027e-13
2.4865e-13
3.99493e-13
2.0711e-13
1.45776e-12
2.15008e-13
2.39522e-12
1.69689e-13
3.07377e-12
2.96103e-13
-2.66296e-13
2.16909e-09
2.22533e-10
-1.7895e-09
3.74226e-10
5.55131e-09
-7.6902e-09
-2.87947e-11
4.58229e-09
-8.17843e-09
-6.72688e-11
4.41029e-09
-8.25779e-09
-4.87198e-11
4.39363e-09
-8.26441e-09
-2.80292e-11
4.40129e-09
-8.25968e-09
-1.45972e-11
4.41018e-09
-8.25523e-09
-6.83557e-12
4.41586e-09
-8.25233e-09
-2.28237e-12
4.41888e-09
-8.25078e-09
9.06136e-13
4.42009e-09
-8.25014e-09
4.04719e-12
4.42e-09
-8.25018e-09
8.33827e-12
4.41866e-09
-8.25088e-09
1.54339e-11
4.41563e-09
-8.25248e-09
2.78648e-11
4.40997e-09
-8.25547e-09
4.76506e-11
4.40107e-09
-8.25997e-09
6.57967e-11
4.39343e-09
-8.26457e-09
2.74929e-11
4.41024e-09
-8.25759e-09
-3.75059e-10
4.58243e-09
-8.17805e-09
-2.16925e-09
5.55185e-09
-7.68957e-09
2.22949e-10
-1.78778e-09
-1.68242e-10
2.18261e-09
-9.88348e-10
6.62297e-12
7.07948e-09
4.29383e-09
4.62425e-11
6.12446e-09
3.7857e-09
1.91903e-11
5.86988e-09
3.51254e-09
1.3738e-11
5.79518e-09
3.47387e-09
9.9504e-12
5.78583e-09
3.48023e-09
7.06808e-12
5.788e-09
3.48977e-09
4.51454e-12
5.79067e-09
3.49641e-09
2.18424e-12
5.79228e-09
3.50003e-09
-3.35602e-14
5.79298e-09
3.50159e-09
-2.26201e-12
5.79308e-09
3.50172e-09
-4.6019e-12
5.79267e-09
3.50054e-09
-7.13314e-12
5.79146e-09
3.49748e-09
-9.95783e-12
5.78906e-09
3.49128e-09
-1.36978e-11
5.78676e-09
3.48159e-09
-1.91533e-11
5.79562e-09
3.47459e-09
-4.62107e-11
5.8698e-09
3.51248e-09
-6.61493e-12
6.12398e-09
3.78504e-09
1.68047e-10
7.07884e-09
4.29261e-09
2.18272e-09
-9.88547e-10
-6.15874e-10
2.49671e-09
8.65907e-10
4.05152e-11
5.04957e-09
2.9971e-09
8.81855e-11
4.57432e-09
3.23175e-09
5.26889e-11
4.35562e-09
3.30865e-09
2.88679e-11
4.25972e-09
3.32631e-09
1.61823e-11
4.23708e-09
3.33077e-09
9.7847e-12
4.2349e-09
3.32783e-09
5.71905e-12
4.23707e-09
3.32492e-09
2.47852e-12
4.23904e-09
3.32299e-09
-5.0998e-13
4.24001e-09
3.32212e-09
-3.4882e-12
4.24006e-09
3.32216e-09
-6.65974e-12
4.23924e-09
3.32309e-09
-1.05543e-11
4.23752e-09
3.32508e-09
-1.66952e-11
4.23552e-09
3.32805e-09
-2.915e-11
4.23759e-09
3.33106e-09
-5.28533e-11
4.25984e-09
3.32658e-09
-8.83239e-11
4.35527e-09
3.30881e-09
-4.06666e-11
4.57357e-09
3.23193e-09
6.15657e-10
5.04869e-09
2.99718e-09
2.4963e-09
8.65065e-10
-7.55961e-10
2.9826e-09
4.47969e-10
-1.63081e-10
4.0034e-09
8.8571e-10
5.28142e-11
3.84732e-09
9.8681e-10
7.65875e-11
3.78012e-09
1.05225e-09
5.71568e-11
3.72046e-09
1.06328e-09
3.48286e-11
3.69779e-09
1.06787e-09
2.01066e-11
3.68892e-09
1.06637e-09
1.08777e-11
3.68622e-09
1.0653e-09
4.75011e-12
3.68556e-09
1.06449e-09
-1.17688e-13
3.68546e-09
1.06415e-09
-4.99747e-12
3.68547e-09
1.06419e-09
-1.10949e-11
3.68561e-09
1.06458e-09
-2.01612e-11
3.68634e-09
1.06541e-09
-3.45852e-11
3.68907e-09
1.06648e-09
-5.66198e-11
3.69783e-09
1.06802e-09
-7.59152e-11
3.72024e-09
1.06347e-09
-5.22518e-11
3.77959e-09
1.05253e-09
1.63322e-10
3.84651e-09
9.87244e-10
7.55846e-10
4.00242e-09
8.85954e-10
2.98162e-09
4.48035e-10
-2.67946e-10
3.23986e-09
9.79712e-11
-8.30318e-11
3.76855e-09
1.7252e-10
5.2022e-12
3.74518e-09
1.15333e-10
3.27247e-11
3.73702e-09
1.19682e-10
3.27991e-11
3.70793e-09
1.14063e-10
2.43909e-11
3.693e-09
1.14859e-10
1.63365e-11
3.68416e-09
1.13953e-10
9.86352e-12
3.67986e-09
1.13811e-10
4.80405e-12
3.67784e-09
1.13658e-10
4.2716e-13
3.67703e-09
1.13647e-10
-3.97714e-12
3.67701e-09
1.13729e-10
-9.08512e-12
3.67775e-09
1.13893e-10
-1.55662e-11
3.67972e-09
1.14152e-10
-2.35616e-11
3.68395e-09
1.14339e-10
-3.18923e-11
3.69268e-09
1.15227e-10
-3.18079e-11
3.70744e-09
1.14412e-10
-4.44131e-12
3.73632e-09
1.20087e-10
8.35111e-11
3.74428e-09
1.15796e-10
2.68107e-10
3.76753e-09
1.73137e-10
3.23847e-09
9.85895e-11
-1.08505e-10
3.34447e-09
1.45371e-11
-4.76332e-11
3.70107e-09
1.93085e-11
-1.19863e-11
3.71301e-09
6.87452e-13
9.34055e-12
3.71823e-09
2.16897e-12
1.53627e-11
3.70564e-09
-3.45315e-14
1.44059e-11
3.69722e-09
7.14345e-13
1.11173e-11
3.69079e-09
5.49066e-13
7.36374e-12
3.6869e-09
6.45244e-13
3.76795e-12
3.68471e-09
6.59435e-13
3.34688e-13
3.68372e-09
6.95695e-13
-3.1206e-12
3.68368e-09
7.36797e-13
-6.74456e-12
3.68457e-09
7.67542e-13
-1.04985e-11
3.68666e-09
7.89415e-13
-1.37601e-11
3.69046e-09
6.88283e-13
-1.46758e-11
3.69676e-09
8.44778e-13
-8.65549e-12
3.70503e-09
1.27525e-13
1.2589e-11
3.71745e-09
2.37504e-12
4.80173e-11
3.71207e-09
1.02849e-12
1.08618e-10
3.69998e-09
1.95224e-11
3.3429e-09
1.49556e-11
-4.16094e-11
3.38182e-09
9.08206e-12
-2.39625e-11
3.67626e-09
1.2446e-11
-1.01144e-11
3.69499e-09
7.3679e-12
2.36525e-12
3.70101e-09
8.32585e-12
7.652e-12
3.69619e-09
7.32299e-12
8.68998e-12
3.69203e-09
7.43057e-12
7.4676e-12
3.68796e-09
7.27575e-12
5.30498e-12
3.685e-09
7.29381e-12
2.83342e-12
3.68312e-09
7.28909e-12
2.96315e-13
3.68216e-09
7.31898e-12
-2.26722e-12
3.68214e-09
7.34459e-12
-4.76521e-12
3.68294e-09
7.37025e-12
-6.9381e-12
3.68469e-09
7.39979e-12
-8.16547e-12
3.68756e-09
7.37687e-12
-7.1202e-12
3.69151e-09
7.52167e-12
-1.84005e-12
3.6955e-09
7.45026e-12
1.05608e-11
3.70018e-09
8.4948e-12
2.42719e-11
3.69402e-09
7.58106e-12
4.17838e-11
3.67517e-09
1.2822e-11
3.38022e-09
9.26809e-12
-1.62231e-11
3.39873e-09
-5.83155e-13
-1.14671e-11
3.67101e-09
1.19351e-12
-6.40097e-12
3.69015e-09
-1.12913e-13
-9.63804e-15
3.69452e-09
4.16719e-13
3.26488e-12
3.69305e-09
4.18228e-15
4.53935e-12
3.69078e-09
4.32113e-14
4.34908e-12
3.68824e-09
-9.7758e-14
3.31079e-12
3.68616e-09
-1.44386e-13
1.84001e-12
3.68472e-09
-1.66548e-13
2.13784e-13
3.68391e-09
-1.50857e-13
-1.40203e-12
3.68385e-09
-1.12076e-13
-2.89105e-12
3.68449e-09
-7.03065e-14
-3.98122e-12
3.6858e-09
-1.64949e-14
-4.19607e-12
3.68775e-09
6.48755e-14
-2.9442e-12
3.69017e-09
2.05229e-13
3.0052e-13
3.69229e-09
1.3861e-13
6.6348e-12
3.69364e-09
5.65902e-13
1.1628e-11
3.68915e-09
3.70325e-14
1.63047e-11
3.66984e-09
1.24849e-12
3.39712e-09
-4.16541e-13
-6.2836e-12
3.40532e-09
-2.92853e-13
-5.50287e-12
3.67016e-09
6.00641e-14
-3.41588e-12
3.68832e-09
-4.86697e-13
-4.14653e-13
3.69169e-09
-3.49822e-13
1.38497e-12
3.69152e-09
-5.13231e-13
2.24797e-12
3.69026e-09
-6.21887e-13
2.31529e-12
3.68855e-09
-6.32892e-13
1.85152e-12
3.687e-09
-6.43308e-13
1.08011e-12
3.68588e-09
-6.41473e-13
1.76817e-13
3.68519e-09
-6.31063e-13
-7.22557e-13
3.6851e-09
-6.02502e-13
-1.51379e-12
3.68562e-09
-5.73587e-13
-2.02565e-12
3.68662e-09
-5.48734e-13
-1.98819e-12
3.68799e-09
-5.03017e-13
-1.16111e-12
3.68957e-09
-4.6982e-13
5.92666e-13
3.69072e-09
-3.96947e-13
3.55198e-12
3.69078e-09
-2.50125e-13
5.60097e-12
3.68731e-09
-4.29925e-13
6.3808e-12
3.66903e-09
1.48998e-13
3.40375e-09
-2.57626e-13
-3.00501e-12
-4.45819e-13
-2.30094e-12
7.44611e-13
-1.37021e-12
4.97244e-13
-3.22187e-13
6.1759e-13
3.95355e-13
5.85398e-13
7.42663e-13
5.11121e-13
7.6541e-13
4.99322e-13
6.1953e-13
5.03845e-13
3.81501e-13
5.05975e-13
9.77714e-14
5.15436e-13
-2.09312e-13
5.18498e-13
-4.63407e-13
5.25134e-13
-6.12332e-13
5.34922e-13
-6.10097e-13
5.35603e-13
-2.89945e-13
5.58155e-13
4.05645e-13
6.3485e-13
1.43435e-12
6.54096e-13
2.34322e-12
5.22572e-13
3.00944e-12
6.85998e-13
-4.35688e-13
1.43975e-09
-1.45309e-09
2.31082e-10
-4.75693e-09
5.95653e-12
-6.1815e-09
-2.24341e-11
-6.44148e-09
-1.80797e-11
-6.47705e-09
-1.02694e-11
-6.47472e-09
-5.05595e-12
-6.46746e-09
-2.15969e-12
-6.46222e-09
-6.00478e-13
-6.45934e-09
3.90855e-13
-6.45815e-09
1.36641e-12
-6.45815e-09
2.814e-12
-6.45931e-09
5.41109e-12
-6.46205e-09
1.01655e-11
-6.46721e-09
1.75654e-11
-6.47456e-09
2.17459e-11
-6.47698e-09
-6.5512e-12
-6.44132e-09
-2.31461e-10
-6.18132e-09
-1.43991e-09
-4.75642e-09
-1.45118e-09
-2.98913e-10
-9.00095e-10
4.54332e-11
1.88949e-10
5.68652e-11
-1.44285e-09
1.80183e-11
-1.92186e-09
8.42884e-12
-2.02345e-09
5.56447e-12
-2.02081e-09
4.01841e-12
-2.00503e-09
2.64749e-12
-1.99318e-09
1.25668e-12
-1.98657e-09
-1.56238e-13
-1.98375e-09
-1.56912e-12
-1.98363e-09
-2.9405e-12
-1.98606e-09
-4.22867e-12
-1.99205e-09
-5.63605e-12
-2.00347e-09
-8.38554e-12
-2.01947e-09
-1.792e-11
-2.02279e-09
-5.67826e-11
-1.92182e-09
-4.53983e-11
-1.44336e-09
2.98712e-10
1.88384e-10
-8.98516e-10
-7.93411e-10
1.05633e-09
1.01564e-10
2.49663e-09
1.54294e-10
1.94624e-09
8.29014e-11
1.67576e-09
3.37417e-11
1.57133e-09
1.3817e-11
1.54927e-09
5.98262e-12
1.54983e-09
2.61474e-12
1.55415e-09
5.39188e-13
1.55744e-09