/*--------------------------------*- C++ -*----------------------------------*\
| =========                 |                                                 |
| \\      /  F ield         | OpenFOAM: The Open Source CFD Toolbox           |
|  \\    /   O peration     | Version:  2.3.0                                 |
|   \\  /    A nd           | Web:      www.OpenFOAM.org                      |
|    \\/     M anipulation  |                                                 |
\*---------------------------------------------------------------------------*/
FoamFile
{
    version     2.0;
    format      ascii;
    class       volVectorField;
    location    "30";
    object      U.air;
}
// * * * * * * * * * * * * * * * * * * * * * * * * * * * * * * * * * * * * * //

dimensions      [0 1 -1 0 0 0 0];

internalField   nonuniform List<vector> 
1875
(
(0.00470277 0.0816789 0)
(-0.00494191 0.0919234 0)
(0.00923319 0.100845 0)
(0.0113721 0.10606 0)
(0.0236023 0.106799 0)
(0.0341785 0.107273 0)
(0.0454342 0.107778 0)
(0.0559491 0.108589 0)
(0.0651392 0.109542 0)
(0.0726594 0.110506 0)
(0.0778034 0.111016 0)
(0.0803519 0.111666 0)
(0.079714 0.1123 0)
(0.076989 0.113469 0)
(0.0705249 0.118008 0)
(0.0607842 0.121234 0)
(0.0496189 0.120986 0)
(0.0402552 0.117354 0)
(0.033301 0.113194 0)
(0.0284707 0.104677 0)
(0.0253353 0.0831589 0)
(0.0238967 0.0781785 0)
(0.0198573 0.09026 0)
(0.0176953 0.109203 0)
(0.00394224 0.122909 0)
(-0.00244848 0.353021 0)
(0.00816628 0.334209 0)
(0.0178314 0.308585 0)
(0.0343171 0.295894 0)
(0.0520082 0.288421 0)
(0.0680717 0.287388 0)
(0.0820443 0.289735 0)
(0.0932007 0.29399 0)
(0.101221 0.300211 0)
(0.105408 0.308328 0)
(0.105469 0.31889 0)
(0.102567 0.329196 0)
(0.097953 0.337864 0)
(0.0926728 0.345927 0)
(0.0871572 0.352797 0)
(0.0827345 0.356035 0)
(0.0786304 0.357447 0)
(0.0719147 0.357729 0)
(0.0622794 0.357712 0)
(0.0520753 0.358727 0)
(0.0409372 0.367158 0)
(0.0274628 0.372664 0)
(0.0170402 0.367359 0)
(0.00805741 0.36528 0)
(0.00265719 0.363875 0)
(0.0187794 0.160435 0)
(0.0391475 0.146168 0)
(0.0676765 0.140294 0)
(0.0851009 0.142563 0)
(0.0982227 0.149145 0)
(0.10706 0.159176 0)
(0.112185 0.171005 0)
(0.113646 0.182991 0)
(0.112103 0.194489 0)
(0.108925 0.204694 0)
(0.105998 0.213109 0)
(0.102759 0.221105 0)
(0.0969382 0.229018 0)
(0.0892798 0.235623 0)
(0.0817219 0.240104 0)
(0.0747718 0.242551 0)
(0.0671034 0.247198 0)
(0.0574574 0.253526 0)
(0.0457639 0.257338 0)
(0.0341703 0.257774 0)
(0.0267856 0.256359 0)
(0.0238724 0.251584 0)
(0.0219831 0.245796 0)
(0.0166987 0.250209 0)
(0.00686773 0.258837 0)
(0.0182206 0.197026 0)
(0.0368064 0.185304 0)
(0.0688705 0.175575 0)
(0.0923937 0.17618 0)
(0.111669 0.184646 0)
(0.126006 0.198744 0)
(0.135197 0.216987 0)
(0.13889 0.237953 0)
(0.137288 0.259737 0)
(0.129856 0.281067 0)
(0.11815 0.300861 0)
(0.105331 0.31659 0)
(0.092082 0.327871 0)
(0.0791319 0.334035 0)
(0.0677787 0.335986 0)
(0.0578323 0.336711 0)
(0.0484005 0.340073 0)
(0.0386599 0.345965 0)
(0.0270124 0.350151 0)
(0.0188213 0.347672 0)
(0.0152082 0.341647 0)
(0.0144642 0.337063 0)
(0.0118793 0.336048 0)
(0.0075402 0.340827 0)
(0.00176442 0.347371 0)
(0.0211153 0.0973993 0)
(0.0444943 0.0935568 0)
(0.0778032 0.0969015 0)
(0.0984056 0.110042 0)
(0.113335 0.129757 0)
(0.122479 0.154228 0)
(0.126087 0.182005 0)
(0.124962 0.21081 0)
(0.119 0.239088 0)
(0.110472 0.265273 0)
(0.0991963 0.289619 0)
(0.085277 0.310197 0)
(0.0709177 0.325006 0)
(0.0569026 0.332404 0)
(0.0444017 0.333406 0)
(0.0342409 0.332936 0)
(0.0246654 0.335951 0)
(0.0137326 0.341578 0)
(0.00397017 0.343068 0)
(-0.00282344 0.333542 0)
(-0.00521972 0.319082 0)
(-0.00548073 0.309115 0)
(-0.00497246 0.30592 0)
(-0.00259052 0.309416 0)
(-0.00221382 0.316464 0)
(0.0204301 0.0495408 0)
(0.0445629 0.0551872 0)
(0.0704996 0.0702883 0)
(0.0857109 0.0928832 0)
(0.0959873 0.120984 0)
(0.102408 0.153998 0)
(0.104807 0.190245 0)
(0.102784 0.228281 0)
(0.0960785 0.266496 0)
(0.0850676 0.301265 0)
(0.070262 0.329822 0)
(0.0538578 0.352082 0)
(0.0380922 0.366619 0)
(0.0241583 0.373174 0)
(0.0121753 0.372632 0)
(0.000941145 0.370852 0)
(-0.0109161 0.372752 0)
(-0.0241881 0.377246 0)
(-0.0332944 0.372257 0)
(-0.0362881 0.355005 0)
(-0.0361388 0.335137 0)
(-0.0357986 0.320825 0)
(-0.033471 0.309421 0)
(-0.0192828 0.302812 0)
(-0.010622 0.304092 0)
(0.014062 -0.00383582 0)
(0.0343087 0.00961473 0)
(0.0492963 0.033393 0)
(0.058523 0.0635828 0)
(0.0637777 0.0991229 0)
(0.0649358 0.138379 0)
(0.0620239 0.180536 0)
(0.0547436 0.224739 0)
(0.0431155 0.269208 0)
(0.0275091 0.310724 0)
(0.0115131 0.346177 0)
(-0.00417263 0.37432 0)
(-0.0188279 0.392078 0)
(-0.0314322 0.399837 0)
(-0.0435477 0.40086 0)
(-0.0571046 0.400204 0)
(-0.0747455 0.406735 0)
(-0.0857353 0.408935 0)
(-0.09021 0.392192 0)
(-0.0878569 0.364776 0)
(-0.0843639 0.335722 0)
(-0.0777812 0.308715 0)
(-0.0633164 0.282899 0)
(-0.0334046 0.26592 0)
(-0.0164507 0.261423 0)
(0.00841023 -0.0321987 0)
(0.0212177 -0.0138623 0)
(0.0240352 0.0154814 0)
(0.0259968 0.0500662 0)
(0.0248285 0.090293 0)
(0.0188178 0.135543 0)
(0.00715389 0.185054 0)
(-0.00912174 0.236924 0)
(-0.0268938 0.288839 0)
(-0.0442024 0.335723 0)
(-0.0602598 0.372846 0)
(-0.0745496 0.400656 0)
(-0.0871257 0.418247 0)
(-0.0988365 0.427044 0)
(-0.111787 0.431357 0)
(-0.129285 0.440437 0)
(-0.140312 0.442259 0)
(-0.144791 0.427105 0)
(-0.139677 0.397853 0)
(-0.131866 0.35943 0)
(-0.122154 0.319491 0)
(-0.105974 0.278188 0)
(-0.0799833 0.24032 0)
(-0.0406318 0.215971 0)
(-0.0185516 0.209167 0)
(0.00224084 -0.0457785 0)
(0.00628541 -0.0221335 0)
(-0.00474468 0.0114055 0)
(-0.0118798 0.0492621 0)
(-0.0233468 0.0943132 0)
(-0.0397857 0.145329 0)
(-0.0591817 0.200475 0)
(-0.0789824 0.256282 0)
(-0.0968043 0.309201 0)
(-0.112424 0.35601 0)
(-0.127285 0.39392 0)
(-0.140499 0.423429 0)
(-0.151884 0.44253 0)
(-0.164608 0.456175 0)
(-0.177049 0.467367 0)
(-0.185518 0.466071 0)
(-0.187792 0.450407 0)
(-0.180901 0.424323 0)
(-0.170005 0.382562 0)
(-0.157222 0.335584 0)
(-0.139392 0.28513 0)
(-0.113325 0.235082 0)
(-0.0802874 0.194154 0)
(-0.0386186 0.170333 0)
(-0.0168835 0.163572 0)
(-0.0058204 -0.0238907 0)
(-0.0100416 0.00268109 0)
(-0.0339355 0.0382011 0)
(-0.049738 0.0778884 0)
(-0.0695698 0.125216 0)
(-0.0908187 0.176882 0)
(-0.110722 0.230751 0)
(-0.128641 0.284662 0)
(-0.145464 0.336386 0)
(-0.161005 0.382425 0)
(-0.174625 0.418769 0)
(-0.185347 0.44641 0)
(-0.195286 0.468495 0)
(-0.20162 0.479887 0)
(-0.206411 0.479062 0)
(-0.206405 0.465721 0)
(-0.200748 0.441043 0)
(-0.191774 0.402312 0)
(-0.178724 0.353352 0)
(-0.161481 0.297685 0)
(-0.13617 0.239619 0)
(-0.105085 0.187197 0)
(-0.0718718 0.147634 0)
(-0.0331505 0.125636 0)
(-0.0148044 0.119837 0)
(-0.0116247 0.0193567 0)
(-0.023089 0.0471391 0)
(-0.0516561 0.0820625 0)
(-0.0708599 0.121134 0)
(-0.0912694 0.167436 0)
(-0.110104 0.216598 0)
(-0.127063 0.267055 0)
(-0.142662 0.317697 0)
(-0.156855 0.366008 0)
(-0.168853 0.408375 0)
(-0.17715 0.441817 0)
(-0.183919 0.465098 0)
(-0.188667 0.481092 0)
(-0.191843 0.486548 0)
(-0.193325 0.479749 0)
(-0.19073 0.460698 0)
(-0.185765 0.426105 0)
(-0.176647 0.375036 0)
(-0.164847 0.318346 0)
(-0.146066 0.255223 0)
(-0.12068 0.193409 0)
(-0.0936309 0.140516 0)
(-0.0665414 0.101503 0)
(-0.0326168 0.0788018 0)
(-0.015501 0.0717511 0)
(-0.014715 0.0734798 0)
(-0.030094 0.101395 0)
(-0.0583035 0.133152 0)
(-0.0764095 0.169148 0)
(-0.09357 0.211938 0)
(-0.108383 0.257107 0)
(-0.121597 0.303144 0)
(-0.133177 0.348585 0)
(-0.142958 0.390883 0)
(-0.14974 0.426561 0)
(-0.154011 0.454175 0)
(-0.156411 0.474533 0)
(-0.157857 0.48197 0)
(-0.158251 0.480332 0)
(-0.15508 0.467507 0)
(-0.149783 0.438733 0)
(-0.143432 0.39749 0)
(-0.136684 0.347113 0)
(-0.129059 0.285682 0)
(-0.116786 0.218335 0)
(-0.101526 0.154044 0)
(-0.0847857 0.0992485 0)
(-0.0649622 0.0571895 0)
(-0.0359986 0.0292391 0)
(-0.0171963 0.0172458 0)
(-0.0145003 0.126647 0)
(-0.0293331 0.152501 0)
(-0.0538654 0.179434 0)
(-0.0688763 0.210763 0)
(-0.0811775 0.248815 0)
(-0.0899705 0.289863 0)
(-0.0967006 0.331855 0)
(-0.101409 0.37254 0)
(-0.103949 0.409214 0)
(-0.104297 0.438747 0)
(-0.102591 0.460878 0)
(-0.0992431 0.472898 0)
(-0.0962246 0.474665 0)
(-0.0916271 0.465585 0)
(-0.0853119 0.445771 0)
(-0.0792689 0.414961 0)
(-0.0745707 0.374336 0)
(-0.0719785 0.322977 0)
(-0.0712065 0.259747 0)
(-0.0706552 0.190075 0)
(-0.0686793 0.122968 0)
(-0.0634018 0.0642535 0)
(-0.0530971 0.016767 0)
(-0.0349515 -0.0187932 0)
(-0.0163322 -0.0377031 0)
(-0.0113535 0.170364 0)
(-0.0223151 0.193452 0)
(-0.040915 0.215528 0)
(-0.0517182 0.240815 0)
(-0.0585317 0.272268 0)
(-0.0604488 0.307612 0)
(-0.0587475 0.344977 0)
(-0.054404 0.381296 0)
(-0.048102 0.413167 0)
(-0.0409754 0.436985 0)
(-0.0333948 0.450933 0)
(-0.0256642 0.456234 0)
(-0.0184165 0.454997 0)
(-0.0111651 0.444311 0)
(-0.00412444 0.422533 0)
(0.00186374 0.391784 0)
(0.00609727 0.352268 0)
(0.00743445 0.302504 0)
(0.00392214 0.240965 0)
(-0.00515073 0.171523 0)
(-0.0164287 0.102486 0)
(-0.0243876 0.040268 0)
(-0.0278936 -0.0117625 0)
(-0.0273215 -0.0523691 0)
(-0.0121885 -0.0765568 0)
(-0.00772424 0.200962 0)
(-0.0141779 0.221335 0)
(-0.0258361 0.238686 0)
(-0.0318707 0.257148 0)
(-0.0337697 0.280374 0)
(-0.0302533 0.307558 0)
(-0.0213659 0.338145 0)
(-0.00843681 0.369696 0)
(0.00697974 0.398642 0)
(0.0227594 0.421181 0)
(0.0370976 0.434824 0)
(0.0494554 0.439371 0)
(0.0598496 0.435019 0)
(0.0683948 0.421122 0)
(0.0748358 0.398135 0)
(0.0794386 0.367542 0)
(0.0823695 0.330197 0)
(0.082907 0.285078 0)
(0.078368 0.230276 0)
(0.0654776 0.166884 0)
(0.0456911 0.100516 0)
(0.0260046 0.0375404 0)
(0.0096718 -0.0180233 0)
(-0.0146407 -0.0636074 0)
(-0.00756999 -0.0922777 0)
(-0.00495924 0.219596 0)
(-0.00808544 0.234706 0)
(-0.0130304 0.248676 0)
(-0.0138051 0.260905 0)
(-0.0111307 0.276063 0)
(-0.00403503 0.294285 0)
(0.00822932 0.316089 0)
(0.0255128 0.340587 0)
(0.0463744 0.365522 0)
(0.068688 0.387598 0)
(0.0899987 0.403777 0)
(0.10853 0.412092 0)
(0.123583 0.411349 0)
(0.134472 0.400709 0)
(0.140721 0.380602 0)
(0.143157 0.352174 0)
(0.142566 0.317071 0)
(0.139195 0.276524 0)
(0.13179 0.230521 0)
(0.117828 0.178903 0)
(0.0970407 0.12251 0)
(0.0729053 0.0655392 0)
(0.0507166 0.0124248 0)
(0.00942258 -0.0355392 0)
(0.00261274 -0.0660459 0)
(-0.004115 0.226736 0)
(-0.00415918 0.238732 0)
(-0.00198929 0.246056 0)
(0.00346838 0.25246 0)
(0.0113852 0.261611 0)
(0.0218145 0.273397 0)
(0.0350672 0.288184 0)
(0.0519063 0.305674 0)
(0.0719776 0.325098 0)
(0.0941109 0.344357 0)
(0.116897 0.361141 0)
(0.138384 0.373454 0)
(0.156762 0.379195 0)
(0.170667 0.376901 0)
(0.178928 0.363203 0)
(0.181312 0.341052 0)
(0.178106 0.314939 0)
(0.170334 0.28378 0)
(0.159048 0.247527 0)
(0.143628 0.208447 0)
(0.123115 0.165032 0)
(0.0984469 0.118261 0)
(0.0750169 0.0721088 0)
(0.030034 0.0269252 0)
(0.0132808 -0.0044293 0)
(-0.000511735 0.22694 0)
(0.0020383 0.230269 0)
(0.0136396 0.230093 0)
(0.0258554 0.232069 0)
(0.0388347 0.2383 0)
(0.052526 0.247758 0)
(0.0664598 0.260003 0)
(0.0810581 0.27442 0)
(0.0966038 0.290643 0)
(0.112984 0.307315 0)
(0.130045 0.323113 0)
(0.147222 0.33662 0)
(0.163193 0.34637 0)
(0.175957 0.350936 0)
(0.184556 0.3512 0)
(0.186384 0.342396 0)
(0.183338 0.323283 0)
(0.175666 0.300205 0)
(0.162991 0.274826 0)
(0.14702 0.247575 0)
(0.127432 0.21692 0)
(0.103767 0.181134 0)
(0.0807705 0.143231 0)
(0.0385347 0.103268 0)
(0.0186136 0.0700282 0)
(0.00477157 0.211387 0)
(0.0128486 0.203649 0)
(0.0324608 0.199917 0)
(0.0503338 0.201145 0)
(0.0677962 0.20759 0)
(0.0843109 0.218489 0)
(0.0990974 0.232704 0)
(0.111874 0.248912 0)
(0.123203 0.266353 0)
(0.133622 0.283345 0)
(0.143118 0.297688 0)
(0.151896 0.311224 0)
(0.160034 0.324204 0)
(0.16722 0.333243 0)
(0.17269 0.337853 0)
(0.174762 0.340261 0)
(0.172178 0.336104 0)
(0.164602 0.322469 0)
(0.152541 0.305266 0)
(0.137392 0.287655 0)
(0.119475 0.267814 0)
(0.0982116 0.242069 0)
(0.0766387 0.212214 0)
(0.0375213 0.178112 0)
(0.0191259 0.145262 0)
(0.00898799 0.178944 0)
(0.0201005 0.169546 0)
(0.0453837 0.162391 0)
(0.067469 0.163443 0)
(0.0878531 0.172021 0)
(0.105905 0.186623 0)
(0.120972 0.205558 0)
(0.132336 0.227025 0)
(0.14038 0.248439 0)
(0.146166 0.269565 0)
(0.149261 0.28997 0)
(0.15047 0.30661 0)
(0.151983 0.318598 0)
(0.152639 0.328676 0)
(0.152701 0.335814 0)
(0.151518 0.338912 0)
(0.148144 0.339338 0)
(0.141842 0.337903 0)
(0.131754 0.33194 0)
(0.118804 0.323594 0)
(0.103565 0.312944 0)
(0.0855973 0.296016 0)
(0.0667411 0.273617 0)
(0.0320249 0.244931 0)
(0.0167735 0.213861 0)
(0.0126229 0.141593 0)
(0.0273357 0.129658 0)
(0.0559443 0.121975 0)
(0.0783999 0.125661 0)
(0.0977202 0.138223 0)
(0.113832 0.15749 0)
(0.126609 0.181656 0)
(0.135854 0.209013 0)
(0.140638 0.237412 0)
(0.142036 0.264598 0)
(0.142037 0.289497 0)
(0.14052 0.308713 0)
(0.13733 0.321976 0)
(0.133883 0.333212 0)
(0.130529 0.342371 0)
(0.127071 0.348779 0)
(0.122675 0.353015 0)
(0.116628 0.35562 0)
(0.108388 0.355739 0)
(0.0978731 0.354102 0)
(0.0855311 0.350537 0)
(0.0709549 0.341003 0)
(0.0551761 0.32517 0)
(0.0254839 0.300999 0)
(0.0135417 0.271122 0)
(0.0172844 0.0927695 0)
(0.0370421 0.0845954 0)
(0.0667769 0.0828557 0)
(0.0861668 0.0933315 0)
(0.100749 0.11211 0)
(0.111498 0.136686 0)
(0.119214 0.165538 0)
(0.124283 0.197571 0)
(0.126921 0.231684 0)
(0.125664 0.263275 0)
(0.121802 0.289068 0)
(0.117043 0.310508 0)
(0.111809 0.328125 0)
(0.107202 0.340754 0)
(0.103146 0.350318 0)
(0.0995372 0.358119 0)
(0.0958 0.364588 0)
(0.0912759 0.369914 0)
(0.0853148 0.374284 0)
(0.0775019 0.37793 0)
(0.0680738 0.380074 0)
(0.0567179 0.376756 0)
(0.0439831 0.366594 0)
(0.0194303 0.346164 0)
(0.0104837 0.316677 0)
(0.0195726 0.0362519 0)
(0.0449537 0.0360971 0)
(0.0726512 0.0462793 0)
(0.0879773 0.066649 0)
(0.097201 0.093614 0)
(0.102183 0.124527 0)
(0.104243 0.158074 0)
(0.104304 0.193905 0)
(0.102659 0.230479 0)
(0.0985289 0.266059 0)
(0.0923227 0.296362 0)
(0.0858237 0.319571 0)
(0.0803156 0.336172 0)
(0.0764106 0.347504 0)
(0.0737995 0.356225 0)
(0.0718222 0.364068 0)
(0.0698518 0.371808 0)
(0.0672732 0.37967 0)
(0.0634567 0.387741 0)
(0.0580312 0.395772 0)
(0.0512127 0.402521 0)
(0.0427236 0.404218 0)
(0.0327548 0.398735 0)
(0.0137958 0.381023 0)
(0.00754726 0.351434 0)
(0.0184634 -0.018145 0)
(0.0451092 -0.0091214 0)
(0.0666687 0.0131014 0)
(0.0775694 0.0441065 0)
(0.0828001 0.0800612 0)
(0.0838114 0.118168 0)
(0.0818684 0.157074 0)
(0.0780393 0.196726 0)
(0.0729759 0.236885 0)
(0.0666891 0.275021 0)
(0.0597344 0.306147 0)
(0.0535556 0.328289 0)
(0.0492838 0.342345 0)
(0.0472734 0.351143 0)
(0.0468917 0.358231 0)
(0.0470073 0.365897 0)
(0.0467922 0.374884 0)
(0.0457267 0.385272 0)
(0.043357 0.396782 0)
(0.0395419 0.408593 0)
(0.0345262 0.419047 0)
(0.028208 0.424391 0)
(0.0206337 0.422008 0)
(0.00786593 0.405902 0)
(0.00447762 0.375771 0)
(0.0139856 -0.0605046 0)
(0.034993 -0.0453064 0)
(0.0474136 -0.014204 0)
(0.0541896 0.0254334 0)
(0.0570808 0.0693364 0)
(0.0560761 0.114353 0)
(0.0521341 0.158679 0)
(0.0464632 0.202183 0)
(0.0394496 0.244918 0)
(0.0323009 0.283842 0)
(0.0266678 0.31416 0)
(0.0229256 0.333986 0)
(0.0214858 0.344817 0)
(0.0222248 0.350765 0)
(0.0241394 0.356455 0)
(0.0259644 0.364506 0)
(0.0267988 0.375301 0)
(0.0263011 0.388502 0)
(0.0243828 0.403245 0)
(0.0212941 0.418083 0)
(0.0174426 0.431025 0)
(0.0130954 0.438411 0)
(0.0082325 0.436889 0)
(0.00195036 0.417456 0)
(0.00149001 0.386766 0)
(0.00775683 -0.0888915 0)
(0.0201218 -0.0697057 0)
(0.0239558 -0.0334431 0)
(0.0271294 0.0112143 0)
(0.0279688 0.0607906 0)
(0.0252917 0.111402 0)
(0.0198021 0.160482 0)
(0.0123283 0.207461 0)
(0.00402555 0.251596 0)
(-0.00192427 0.289282 0)
(-0.00408342 0.316852 0)
(-0.00381458 0.333518 0)
(-0.00158433 0.341446 0)
(0.00197065 0.34573 0)
(0.00546019 0.351641 0)
(0.00774467 0.361432 0)
(0.00842602 0.37486 0)
(0.0075341 0.390942 0)
(0.00542596 0.408193 0)
(0.00272187 0.424721 0)
(6.95696e-06 0.438108 0)
(-0.0024182 0.445231 0)
(-0.00353735 0.442472 0)
(-0.00366451 0.422812 0)
(-0.00118973 0.390524 0)
(0.00481161 -0.101935 0)
(0.00890849 -0.0802954 0)
(0.00439619 -0.0418385 0)
(0.00388004 0.00508052 0)
(0.00103234 0.0579519 0)
(-0.00486511 0.112127 0)
(-0.0124658 0.164068 0)
(-0.0203701 0.2122 0)
(-0.0262961 0.255106 0)
(-0.0286678 0.2891 0)
(-0.0274106 0.31246 0)
(-0.0236485 0.326116 0)
(-0.0186701 0.332655 0)
(-0.013671 0.337555 0)
(-0.0102174 0.345849 0)
(-0.00896477 0.358736 0)
(-0.00954698 0.375254 0)
(-0.0115092 0.393792 0)
(-0.0140882 0.4125 0)
(-0.0165213 0.428835 0)
(-0.0180971 0.441533 0)
(-0.0183965 0.446217 0)
(-0.0158415 0.43921 0)
(-0.00796934 0.418402 0)
(-0.00295034 0.385729 0)
(0.00181398 -0.103407 0)
(0.000904115 -0.0784893 0)
(-0.0113416 -0.0383719 0)
(-0.016345 0.00931256 0)
(-0.023394 0.06362 0)
(-0.0315402 0.118655 0)
(-0.0384963 0.170166 0)
(-0.0434603 0.216072 0)
(-0.0454852 0.254755 0)
(-0.0448239 0.284011 0)
(-0.0416085 0.303396 0)
(-0.0361562 0.314975 0)
(-0.0303276 0.321959 0)
(-0.0260769 0.329709 0)
(-0.0245434 0.342068 0)
(-0.0255099 0.358883 0)
(-0.0282576 0.378346 0)
(-0.0318601 0.398467 0)
(-0.0352123 0.416533 0)
(-0.0375566 0.431327 0)
(-0.0378934 0.439513 0)
(-0.0355726 0.438949 0)
(-0.0288698 0.426105 0)
(-0.0126982 0.399154 0)
(-0.00469074 0.367761 0)
(-0.00214533 -0.0909492 0)
(-0.00694778 -0.0636737 0)
(-0.0232897 -0.024869 0)
(-0.0311457 0.0218942 0)
(-0.0403806 0.07535 0)
(-0.0478206 0.128203 0)
(-0.0524289 0.1763 0)
(-0.0549847 0.218049 0)
(-0.0554345 0.252464 0)
(-0.0535137 0.27756 0)
(-0.04926 0.293526 0)
(-0.0436456 0.304256 0)
(-0.0390276 0.313739 0)
(-0.0374738 0.326239 0)
(-0.0392548 0.343582 0)
(-0.04337 0.364182 0)
(-0.0486795 0.385678 0)
(-0.0538541 0.40496 0)
(-0.0578256 0.421019 0)
(-0.0592386 0.431766 0)
(-0.0576289 0.433933 0)
(-0.0511779 0.42412 0)
(-0.0393083 0.40324 0)
(-0.0163656 0.371477 0)
(-0.00594038 0.342674 0)
(-0.00535911 -0.0692014 0)
(-0.0135962 -0.0419574 0)
(-0.0300217 -0.00568466 0)
(-0.0387602 0.0387965 0)
(-0.0474382 0.0894828 0)
(-0.0533165 0.138231 0)
(-0.0570197 0.181892 0)
(-0.0590699 0.219225 0)
(-0.0593325 0.248141 0)
(-0.0573543 0.269103 0)
(-0.0533748 0.283706 0)
(-0.0494029 0.297061 0)
(-0.0479776 0.311452 0)
(-0.05032 0.329741 0)
(-0.0558452 0.351888 0)
(-0.0631064 0.375156 0)
(-0.0703949 0.396177 0)
(-0.0764426 0.413539 0)
(-0.0795818 0.424506 0)
(-0.0794029 0.42658 0)
(-0.073992 0.417861 0)
(-0.0628467 0.399966 0)
(-0.0457123 0.371626 0)
(-0.0178214 0.339156 0)
(-0.0064379 0.31392 0)
(-0.00747706 -0.0444472 0)
(-0.0168613 -0.0169793 0)
(-0.0320946 0.0156418 0)
(-0.0406155 0.05682 0)
(-0.0479838 0.103675 0)
(-0.0531608 0.148146 0)
(-0.0568192 0.187871 0)
(-0.0591041 0.221714 0)
(-0.0598663 0.248825 0)
(-0.0586452 0.26769 0)
(-0.0565814 0.282261 0)
(-0.0558389 0.297443 0)
(-0.0584932 0.317091 0)
(-0.0648159 0.341012 0)
(-0.0734593 0.366637 0)
(-0.082574 0.389828 0)
(-0.0905824 0.408159 0)
(-0.0955259 0.418436 0)
(-0.0967446 0.422162 0)
(-0.0932372 0.413055 0)
(-0.0838829 0.395642 0)
(-0.068652 0.367757 0)
(-0.0475625 0.334009 0)
(-0.0173353 0.302483 0)
(-0.00632746 0.282118 0)
(-0.00781719 -0.0181551 0)
(-0.0156331 0.00819648 0)
(-0.0300683 0.0372821 0)
(-0.038582 0.074832 0)
(-0.0452508 0.117926 0)
(-0.0504728 0.158944 0)
(-0.0546652 0.195523 0)
(-0.0577183 0.226347 0)
(-0.0590042 0.251094 0)
(-0.0585511 0.269459 0)
(-0.0587293 0.285802 0)
(-0.0619021 0.305521 0)
(-0.0682583 0.330762 0)
(-0.0772366 0.35858 0)
(-0.0872165 0.384812 0)
(-0.0964586 0.405708 0)
(-0.103047 0.417886 0)
(-0.106397 0.420556 0)
(-0.10536 0.411825 0)
(-0.0985922 0.394488 0)
(-0.0860971 0.366212 0)
(-0.0680246 0.330863 0)
(-0.0446795 0.294453 0)
(-0.0150401 0.265801 0)
(-0.00531418 0.250538 0)
(-0.00673769 0.00728052 0)
(-0.0128576 0.0320124 0)
(-0.026844 0.0585563 0)
(-0.0351917 0.0926045 0)
(-0.0411471 0.13243 0)
(-0.0462127 0.170786 0)
(-0.0506121 0.204965 0)
(-0.0540359 0.23325 0)
(-0.0557621 0.254795 0)
(-0.0566893 0.273443 0)
(-0.0594324 0.293386 0)
(-0.064754 0.319468 0)
(-0.0723188 0.34879 0)
(-0.0813771 0.378074 0)
(-0.0905896 0.402597 0)
(-0.0985114 0.417993 0)
(-0.103232 0.422715 0)
(-0.105856 0.419092 0)
(-0.104055 0.399471 0)
(-0.096134 0.37087 0)
(-0.0823736 0.333849 0)
(-0.0630269 0.293194 0)
(-0.0399471 0.256495 0)
(-0.0132311 0.231618 0)
(-0.0050876 0.220861 0)
(-0.00540576 0.0299915 0)
(-0.0103135 0.0536039 0)
(-0.0234795 0.0787635 0)
(-0.0315035 0.109284 0)
(-0.0364592 0.145942 0)
(-0.0406282 0.182169 0)
(-0.0444793 0.214768 0)
(-0.0476573 0.241879 0)
(-0.0498284 0.263416 0)
(-0.0520441 0.283423 0)
(-0.0558463 0.307127 0)
(-0.0614006 0.335521 0)
(-0.0683124 0.366595 0)
(-0.0760352 0.395296 0)
(-0.0838072 0.417271 0)
(-0.0902661 0.428662 0)
(-0.0944566 0.429239 0)
(-0.0974709 0.413763 0)
(-0.0949654 0.385425 0)
(-0.0876839 0.347064 0)
(-0.0741477 0.302501 0)
(-0.055736 0.258403 0)
(-0.0358201 0.222486 0)
(-0.0135061 0.200579 0)
(-0.00628409 0.193206 0)
(-0.00434431 0.0489759 0)
(-0.00832218 0.0723619 0)
(-0.0200039 0.0965964 0)
(-0.0274709 0.123853 0)
(-0.0313739 0.157242 0)
(-0.0339466 0.191507 0)
(-0.0363587 0.223126 0)
(-0.0386518 0.24991 0)
(-0.0406588 0.271739 0)
(-0.0429415 0.293505 0)
(-0.0461527 0.319797 0)
(-0.0500494 0.350088 0)
(-0.0545846 0.382287 0)
(-0.0598005 0.411155 0)
(-0.0651346 0.429991 0)
(-0.0699398 0.435075 0)
(-0.0749292 0.428111 0)
(-0.0780233 0.407235 0)
(-0.0774487 0.372641 0)
(-0.0720632 0.326359 0)
(-0.0611055 0.276045 0)
(-0.0468355 0.229549 0)
(-0.0326051 0.193621 0)
(-0.0151088 0.172097 0)
(-0.00763862 0.164534 0)
(-0.00353346 0.0648799 0)
(-0.0068502 0.0882841 0)
(-0.0163892 0.111843 0)
(-0.0225698 0.135999 0)
(-0.0257076 0.165739 0)
(-0.0265661 0.197527 0)
(-0.0267897 0.228185 0)
(-0.0272799 0.255196 0)
(-0.0283455 0.278072 0)
(-0.0297255 0.301261 0)
(-0.0312243 0.328418 0)
(-0.0324006 0.35948 0)
(-0.0333327 0.392185 0)
(-0.0345173 0.420442 0)
(-0.0364494 0.437835 0)
(-0.0394811 0.442308 0)
(-0.0434825 0.432022 0)
(-0.0466118 0.405716 0)
(-0.0482402 0.364067 0)
(-0.047165 0.312016 0)
(-0.0425887 0.257444 0)
(-0.0358269 0.208502 0)
(-0.0280544 0.170796 0)
(-0.0169329 0.146861 0)
(-0.00829147 0.135756 0)
(-0.00286373 0.077711 0)
(-0.00553024 0.101171 0)
(-0.0129408 0.12388 0)
(-0.0176702 0.145494 0)
(-0.020528 0.171515 0)
(-0.0201782 0.200178 0)
(-0.0181414 0.22903 0)
(-0.016222 0.256038 0)
(-0.0153697 0.279927 0)
(-0.0150932 0.30417 0)
(-0.0144807 0.331555 0)
(-0.012951 0.362253 0)
(-0.0106485 0.394383 0)
(-0.00827606 0.422383 0)
(-0.00668456 0.439978 0)
(-0.00667175 0.444449 0)
(-0.00779931 0.433563 0)
(-0.00894544 0.405381 0)
(-0.0111418 0.360995 0)
(-0.0146842 0.305775 0)
(-0.0176201 0.248472 0)
(-0.0189567 0.197444 0)
(-0.018351 0.157895 0)
(-0.015784 0.130259 0)
(-0.00745529 0.114785 0)
(-0.00235032 0.088263 0)
(-0.00427745 0.111505 0)
(-0.0103731 0.133231 0)
(-0.0139963 0.152653 0)
(-0.0164647 0.174867 0)
(-0.0158046 0.198406 0)
(-0.0126849 0.225771 0)
(-0.00853524 0.251984 0)
(-0.00532192 0.276539 0)
(-0.00333176 0.299769 0)
(-0.00130837 0.326543 0)
(0.00151272 0.356927 0)
(0.00541045 0.389665 0)
(0.0100971 0.417556 0)
(0.0145128 0.43587 0)
(0.0181957 0.440969 0)
(0.020843 0.430306 0)
(0.0225838 0.40198 0)
(0.0220743 0.359019 0)
(0.0179792 0.307058 0)
(0.0111812 0.249858 0)
(0.00415233 0.197973 0)
(-0.00214655 0.156719 0)
(-0.00962459 0.127284 0)
(-0.00529366 0.109949 0)
(-0.00229963 0.0973339 0)
(-0.00375141 0.120035 0)
(-0.00944071 0.140304 0)
(-0.0121176 0.157779 0)
(-0.0139044 0.176761 0)
(-0.0136721 0.197834 0)
(-0.0109655 0.22065 0)
(-0.00605892 0.245123 0)
(-0.00131048 0.270046 0)
(0.00143093 0.296046 0)
(0.00352411 0.323133 0)
(0.00592161 0.351451 0)
(0.00979467 0.380802 0)
(0.014803 0.407224 0)
(0.0203861 0.425312 0)
(0.0264187 0.431092 0)
(0.0319592 0.421858 0)
(0.0366596 0.396551 0)
(0.0397552 0.357492 0)
(0.0392925 0.306789 0)
(0.0341312 0.25399 0)
(0.025647 0.20524 0)
(0.0160313 0.165932 0)
(0.00152482 0.135415 0)
(-0.000752408 0.116982 0)
(-0.0026614 0.106908 0)
(-0.00413225 0.128434 0)
(-0.0102624 0.146929 0)
(-0.0125722 0.16215 0)
(-0.0139755 0.178398 0)
(-0.0140532 0.197343 0)
(-0.0121561 0.215929 0)
(-0.00850147 0.238424 0)
(-0.0043823 0.263125 0)
(-0.00121758 0.291216 0)
(0.000491786 0.3191 0)
(0.00204051 0.346547 0)
(0.00433309 0.372616 0)
(0.00784658 0.396865 0)
(0.0128635 0.413514 0)
(0.0193769 0.418911 0)
(0.0261201 0.411274 0)
(0.0329319 0.388769 0)
(0.0386186 0.353115 0)
(0.0419793 0.307605 0)
(0.0421093 0.2603 0)
(0.0376345 0.215754 0)
(0.0297068 0.178455 0)
(0.0151145 0.149886 0)
(0.00590914 0.131818 0)
(-0.00319149 0.117772 0)
(-0.00491558 0.137845 0)
(-0.0118411 0.154236 0)
(-0.0143537 0.167023 0)
(-0.0157807 0.180617 0)
(-0.0159474 0.195898 0)
(-0.0152304 0.213048 0)
(-0.0136987 0.233765 0)
(-0.0117892 0.257814 0)
(-0.0100993 0.283555 0)
(-0.00948815 0.310678 0)
(-0.0096687 0.337685 0)
(-0.0102878 0.363561 0)
(-0.00947544 0.385096 0)
(-0.0066273 0.398804 0)
(-0.00161591 0.403828 0)
(0.00568712 0.394241 0)
(0.0141684 0.372457 0)
(0.0224592 0.341093 0)
(0.0293113 0.303769 0)
(0.0331493 0.262053 0)
(0.0327547 0.223123 0)
(0.0288954 0.191478 0)
(0.0217073 0.166073 0)
(0.0110423 0.150971 0)
(-0.00355114 0.130192 0)
(-0.00562451 0.148455 0)
(-0.0131639 0.162769 0)
(-0.015912 0.17306 0)
(-0.0173887 0.184329 0)
(-0.0178787 0.197454 0)
(-0.0181152 0.214166 0)
(-0.0181132 0.234513 0)
(-0.0179598 0.258459 0)
(-0.0180574 0.284742 0)
(-0.0189918 0.312657 0)
(-0.0208316 0.340401 0)
(-0.0228761 0.366008 0)
(-0.0240667 0.385269 0)
(-0.0238849 0.394856 0)
(-0.0217927 0.392332 0)
(-0.017504 0.380659 0)
(-0.0118339 0.358 0)
(-0.00547797 0.326996 0)
(0.00159349 0.292595 0)
(0.00782014 0.255809 0)
(0.0115075 0.221837 0)
(0.0129201 0.194577 0)
(0.0128806 0.174549 0)
(0.00667357 0.163978 0)
(-0.00371342 0.143387 0)
(-0.00589185 0.15957 0)
(-0.0128272 0.171723 0)
(-0.0155239 0.179607 0)
(-0.0169462 0.188764 0)
(-0.0175446 0.200595 0)
(-0.017815 0.217156 0)
(-0.0179579 0.237434 0)
(-0.0179241 0.261466 0)
(-0.0180272 0.288287 0)
(-0.0186613 0.316863 0)
(-0.020017 0.344803 0)
(-0.0214994 0.369581 0)
(-0.0225633 0.387804 0)
(-0.0231641 0.396607 0)
(-0.0234884 0.393412 0)
(-0.0234331 0.380489 0)
(-0.0227918 0.357066 0)
(-0.0213597 0.325369 0)
(-0.0190161 0.287157 0)
(-0.0162822 0.249848 0)
(-0.0139523 0.215242 0)
(-0.0106907 0.187071 0)
(-0.00413736 0.169119 0)
(-0.00194036 0.159853 0)
(-0.00395243 0.1549 0)
(-0.00601784 0.167837 0)
(-0.010312 0.178313 0)
(-0.0119125 0.184941 0)
(-0.0127657 0.193052 0)
(-0.0128233 0.204162 0)
(-0.0125886 0.219551 0)
(-0.0123047 0.239244 0)
(-0.0116463 0.263228 0)
(-0.0106314 0.290808 0)
(-0.00983602 0.319378 0)
(-0.00957518 0.34643 0)
(-0.00965955 0.369763 0)
(-0.00993371 0.38727 0)
(-0.0108009 0.395948 0)
(-0.0122751 0.395983 0)
(-0.0141586 0.383481 0)
(-0.0165882 0.360414 0)
(-0.0187217 0.328738 0)
(-0.0204516 0.290756 0)
(-0.022184 0.251651 0)
(-0.0223972 0.214704 0)
(-0.0217243 0.182757 0)
(-0.0178171 0.156096 0)
(-0.00782919 0.13995 0)
(-0.00502657 0.16257 0)
(-0.00650691 0.171862 0)
(-0.00458002 0.179827 0)
(-0.00305793 0.18536 0)
(-0.00203766 0.193023 0)
(-0.000416459 0.203832 0)
(0.00143109 0.218977 0)
(0.00319228 0.238502 0)
(0.00537011 0.262127 0)
(0.00846328 0.289308 0)
(0.0121886 0.318239 0)
(0.0157645 0.346171 0)
(0.0184637 0.370429 0)
(0.0198703 0.388451 0)
(0.019546 0.398069 0)
(0.0173971 0.396724 0)
(0.0134231 0.384319 0)
(0.00770868 0.362119 0)
(0.00067591 0.330948 0)
(-0.00640412 0.295081 0)
(-0.0117881 0.254917 0)
(-0.0143204 0.215927 0)
(-0.0163486 0.18189 0)
(-0.0200732 0.152669 0)
(-0.00865268 0.131344 0)
(-0.00349215 0.162187 0)
(-0.00271242 0.166156 0)
(0.00697115 0.170885 0)
(0.0141844 0.176569 0)
(0.0190724 0.185511 0)
(0.0230123 0.197891 0)
(0.0263746 0.21427 0)
(0.02954 0.23446 0)
(0.0326304 0.257964 0)
(0.0366677 0.284542 0)
(0.0420858 0.313172 0)
(0.0479567 0.341892 0)
(0.053328 0.368329 0)
(0.0574743 0.389301 0)
(0.0597125 0.401799 0)
(0.0590096 0.403678 0)
(0.0553607 0.394569 0)
(0.0486925 0.373364 0)
(0.0392101 0.342606 0)
(0.0271638 0.304332 0)
(0.0158537 0.262604 0)
(0.00801738 0.221823 0)
(0.00209269 0.185875 0)
(-0.0130927 0.156677 0)
(-0.00705926 0.135363 0)
(0.00225513 0.147714 0)
(0.00789958 0.146351 0)
(0.0256575 0.150083 0)
(0.0385876 0.159146 0)
(0.0474897 0.172393 0)
(0.0531693 0.188987 0)
(0.0569331 0.208387 0)
(0.0601729 0.230176 0)
(0.0630116 0.254123 0)
(0.0660881 0.279944 0)
(0.0704943 0.307276 0)
(0.0763653 0.335156 0)
(0.0825615 0.35972 0)
(0.0880181 0.382178 0)
(0.0917637 0.398239 0)
(0.0927667 0.406508 0)
(0.0904675 0.403994 0)
(0.0844771 0.389071 0)
(0.0750968 0.362292 0)
(0.0627402 0.326338 0)
(0.0477973 0.284388 0)
(0.033954 0.241888 0)
(0.0235907 0.204023 0)
(0.00077508 0.170944 0)
(-0.00122819 0.149412 0)
(0.00841023 0.116036 0)
(0.01892 0.116384 0)
(0.0428479 0.123731 0)
(0.0597406 0.137213 0)
(0.0720332 0.155674 0)
(0.0800245 0.176669 0)
(0.0842776 0.199797 0)
(0.0865842 0.224137 0)
(0.0882724 0.249105 0)
(0.0896453 0.274577 0)
(0.0914792 0.300512 0)
(0.094779 0.326569 0)
(0.0992791 0.354243 0)
(0.103706 0.378321 0)
(0.107272 0.397695 0)
(0.108906 0.409029 0)
(0.107418 0.410976 0)
(0.102808 0.403968 0)
(0.0944314 0.384192 0)
(0.0835892 0.353267 0)
(0.069362 0.314144 0)
(0.052782 0.272281 0)
(0.0383543 0.234099 0)
(0.0104456 0.200197 0)
(0.00296366 0.17692 0)
(0.0129688 0.0749407 0)
(0.0312024 0.0816921 0)
(0.0555212 0.0951939 0)
(0.0710258 0.114877 0)
(0.0825992 0.138747 0)
(0.0904917 0.165438 0)
(0.0949814 0.193398 0)
(0.0968028 0.22137 0)
(0.0972614 0.24877 0)
(0.0969864 0.275452 0)
(0.0964698 0.301408 0)
(0.0962986 0.326766 0)
(0.0977958 0.353117 0)
(0.100735 0.376846 0)
(0.10362 0.397563 0)
(0.105506 0.41295 0)
(0.105011 0.420302 0)
(0.102275 0.417135 0)
(0.0958314 0.403195 0)
(0.0869202 0.379279 0)
(0.0757138 0.346161 0)
(0.0605685 0.307563 0)
(0.0450313 0.270697 0)
(0.0147225 0.237174 0)
(0.00472606 0.213163 0)
(0.0150105 0.0377673 0)
(0.041251 0.0507079 0)
(0.0573383 0.0708425 0)
(0.0666208 0.0956376 0)
(0.0738095 0.123437 0)
(0.0806319 0.154377 0)
(0.0856783 0.185706 0)
(0.0883369 0.216597 0)
(0.0890694 0.246416 0)
(0.0886873 0.274774 0)
(0.0877806 0.301539 0)
(0.0868496 0.326938 0)
(0.0865911 0.349066 0)
(0.0874733 0.371475 0)
(0.0889649 0.392655 0)
(0.0906729 0.41049 0)
(0.0909676 0.421594 0)