/*--------------------------------*- C++ -*----------------------------------*\
| =========                 |                                                 |
| \\      /  F ield         | OpenFOAM: The Open Source CFD Toolbox           |
|  \\    /   O peration     | Version:  2.3.0                                 |
|   \\  /    A nd           | Web:      www.OpenFOAM.org                      |
|    \\/     M anipulation  |                                                 |
\*---------------------------------------------------------------------------*/
FoamFile
{
    version     2.0;
    format      ascii;
    class       volVectorField;
    location    "30";
    object      U.airMean;
}
// * * * * * * * * * * * * * * * * * * * * * * * * * * * * * * * * * * * * * //

dimensions      [0 1 -1 0 0 0 0];

internalField   nonuniform List<vector> 
1875
(
(0.0897996 0.0233842 0)
(0.18294 0.0300496 0)
(0.285592 0.0515784 0)
(0.33477 0.0764692 0)
(0.346501 0.102337 0)
(0.330403 0.124738 0)
(0.295669 0.140395 0)
(0.250689 0.153711 0)
(0.202403 0.162155 0)
(0.154059 0.166805 0)
(0.103383 0.170814 0)
(0.0510646 0.169824 0)
(-0.00317199 0.16694 0)
(-0.0582275 0.163464 0)
(-0.113498 0.159676 0)
(-0.169404 0.156444 0)
(-0.226359 0.150197 0)
(-0.281213 0.14093 0)
(-0.328345 0.130134 0)
(-0.361291 0.115102 0)
(-0.372984 0.0965872 0)
(-0.358332 0.074984 0)
(-0.305823 0.0516227 0)
(-0.197952 0.0258665 0)
(-0.0981396 0.0133765 0)
(0.0703249 0.0365429 0)
(0.153379 0.0967281 0)
(0.216994 0.187987 0)
(0.241157 0.264765 0)
(0.237618 0.329944 0)
(0.218165 0.386597 0)
(0.189502 0.428015 0)
(0.156554 0.458978 0)
(0.126597 0.483424 0)
(0.0986181 0.500381 0)
(0.0707486 0.509974 0)
(0.0430351 0.515865 0)
(0.0115601 0.518649 0)
(-0.0223854 0.514637 0)
(-0.0580366 0.507523 0)
(-0.0950468 0.494984 0)
(-0.13269 0.477935 0)
(-0.171727 0.454356 0)
(-0.208134 0.421959 0)
(-0.236591 0.379215 0)
(-0.250963 0.326308 0)
(-0.249603 0.267261 0)
(-0.222254 0.191464 0)
(-0.158023 0.0930813 0)
(-0.0742226 0.0225498 0)
(0.035405 -0.160332 0)
(0.0692171 -0.0595703 0)
(0.0818108 0.0473382 0)
(0.0852167 0.138808 0)
(0.0796663 0.218815 0)
(0.0705573 0.287945 0)
(0.0617341 0.346829 0)
(0.0539627 0.390558 0)
(0.0505073 0.421126 0)
(0.048135 0.445898 0)
(0.0432319 0.4623 0)
(0.0346375 0.46788 0)
(0.0223077 0.468105 0)
(0.0085319 0.458546 0)
(-0.00558676 0.442741 0)
(-0.017571 0.419508 0)
(-0.0311434 0.38991 0)
(-0.0430274 0.356188 0)
(-0.0566743 0.312755 0)
(-0.0676871 0.259441 0)
(-0.0757138 0.201332 0)
(-0.0825548 0.141959 0)
(-0.080402 0.065878 0)
(-0.0739022 -0.0470877 0)
(-0.0371365 -0.166743 0)
(0.0142337 -0.18854 0)
(0.0266577 -0.0534962 0)
(0.0246597 0.0615405 0)
(0.0212451 0.157914 0)
(0.0178731 0.240576 0)
(0.0157568 0.311313 0)
(0.0166093 0.368345 0)
(0.0191926 0.41068 0)
(0.0256912 0.440745 0)
(0.033393 0.465461 0)
(0.040206 0.484313 0)
(0.0444703 0.496883 0)
(0.0439524 0.501738 0)
(0.0405622 0.493297 0)
(0.0366542 0.476967 0)
(0.0326414 0.456815 0)
(0.0279023 0.431259 0)
(0.0230146 0.396674 0)
(0.016172 0.353698 0)
(0.006249 0.298686 0)
(-0.00392665 0.234878 0)
(-0.0143771 0.165332 0)
(-0.0213785 0.078297 0)
(-0.0305995 -0.0446678 0)
(-0.0155671 -0.204996 0)
(0.00534338 -0.205339 0)
(0.0105567 -0.0673831 0)
(0.0099108 0.0484842 0)
(0.00158314 0.139775 0)
(-0.00480228 0.212763 0)
(-0.00691515 0.277426 0)
(-0.00471496 0.333208 0)
(-0.000829671 0.37297 0)
(0.00523701 0.401886 0)
(0.0130911 0.425427 0)
(0.0224473 0.443888 0)
(0.0309827 0.461374 0)
(0.0376088 0.468327 0)
(0.0443332 0.46319 0)
(0.0502392 0.446928 0)
(0.0552032 0.425331 0)
(0.0590458 0.39588 0)
(0.0606008 0.364173 0)
(0.0575481 0.326254 0)
(0.0495929 0.281274 0)
(0.0361746 0.22592 0)
(0.0202465 0.1666 0)
(0.00453363 0.0843945 0)
(-0.00635353 -0.040281 0)
(-0.00343953 -0.207448 0)
(0.00397985 -0.200084 0)
(0.0070518 -0.0463128 0)
(0.0106841 0.0833149 0)
(0.00163059 0.176458 0)
(-0.00940033 0.237916 0)
(-0.0189805 0.288422 0)
(-0.021996 0.332294 0)
(-0.0221721 0.369503 0)
(-0.0194414 0.394475 0)
(-0.013619 0.413628 0)
(-0.00539458 0.430111 0)
(0.00617878 0.446412 0)
(0.0201948 0.4534 0)
(0.0360721 0.446304 0)
(0.0506273 0.434143 0)
(0.0622389 0.416104 0)
(0.0698758 0.395164 0)
(0.0728126 0.371283 0)
(0.0691859 0.345314 0)
(0.0594465 0.313666 0)
(0.0427226 0.274711 0)
(0.0230817 0.225043 0)
(0.00594503 0.141818 0)
(-0.0012717 0.00487693 0)
(-0.000951593 -0.184489 0)
(0.000946482 -0.198901 0)
(0.00430046 -0.0457486 0)
(0.00790488 0.0925088 0)
(0.00374744 0.195861 0)
(-0.00975075 0.256426 0)
(-0.0222839 0.29912 0)
(-0.0316881 0.333652 0)
(-0.0373391 0.360747 0)
(-0.0382521 0.378333 0)
(-0.0353441 0.39226 0)
(-0.0283825 0.403192 0)
(-0.0159299 0.410345 0)
(0.00150276 0.411064 0)
(0.0203401 0.404963 0)
(0.0377882 0.397152 0)
(0.051703 0.386871 0)
(0.0608465 0.373797 0)
(0.0633481 0.361906 0)
(0.059572 0.348139 0)
(0.0492007 0.331526 0)
(0.0317067 0.304635 0)
(0.011305 0.263086 0)
(-0.000593122 0.169899 0)
(-0.00276669 0.0241615 0)
(0.000185086 -0.168945 0)
(0.00177717 -0.193769 0)
(0.00260923 -0.0343895 0)
(0.0052686 0.113024 0)
(0.00425689 0.230493 0)
(-0.00826449 0.294723 0)
(-0.0221588 0.32891 0)
(-0.0357249 0.35259 0)
(-0.0428442 0.371116 0)
(-0.0459565 0.380805 0)
(-0.0432667 0.384628 0)
(-0.0356569 0.385446 0)
(-0.0243386 0.384119 0)
(-0.00811808 0.380802 0)
(0.00884747 0.376702 0)
(0.0246062 0.373557 0)
(0.0373447 0.370943 0)
(0.0453281 0.369572 0)
(0.0466778 0.368543 0)
(0.0422836 0.367837 0)
(0.030974 0.367533 0)
(0.0129332 0.35845 0)
(-0.00438445 0.315377 0)
(-0.0129493 0.206891 0)
(-0.00747317 0.0396165 0)
(-0.00448912 -0.160835 0)
(0.00097506 -0.192621 0)
(0.00216359 -0.0316383 0)
(0.00315374 0.117445 0)
(0.00759586 0.246494 0)
(0.000860283 0.323314 0)
(-0.0112815 0.357086 0)
(-0.0248516 0.373402 0)
(-0.0331215 0.376832 0)
(-0.0371211 0.373139 0)
(-0.0358592 0.367619 0)
(-0.0307045 0.362669 0)
(-0.021092 0.353412 0)
(-0.00817897 0.344971 0)
(0.00476581 0.341532 0)
(0.0147467 0.34351 0)
(0.0220006 0.349441 0)
(0.0259208 0.358586 0)
(0.0251938 0.371083 0)
(0.0181254 0.384816 0)
(0.00593742 0.397736 0)
(-0.00904519 0.392834 0)
(-0.0195687 0.34229 0)
(-0.0193776 0.214454 0)
(-0.0114225 0.0369615 0)
(-0.00587843 -0.167306 0)
(0.0021557 -0.191239 0)
(0.00567413 -0.0272266 0)
(0.00732962 0.123029 0)
(0.0131895 0.258958 0)
(0.0137052 0.351861 0)
(0.00528026 0.390373 0)
(-0.00390748 0.398599 0)
(-0.0116152 0.392825 0)
(-0.0168302 0.380338 0)
(-0.0188042 0.365466 0)
(-0.0176446 0.349215 0)
(-0.0131062 0.332807 0)
(-0.00809468 0.323449 0)
(-0.000925755 0.323934 0)
(0.00428308 0.33237 0)
(0.00865306 0.343708 0)
(0.00797427 0.360306 0)
(0.00339865 0.382766 0)
(-0.00639434 0.406892 0)
(-0.0194305 0.425329 0)
(-0.0307669 0.419564 0)
(-0.035577 0.354846 0)
(-0.0265663 0.21204 0)
(-0.0168567 0.0295258 0)
(-0.0063211 -0.179611 0)
(0.0039149 -0.200785 0)
(0.00966404 -0.0348548 0)
(0.0141387 0.116704 0)
(0.0202721 0.255701 0)
(0.0241701 0.360505 0)
(0.0233984 0.408763 0)
(0.0178848 0.417308 0)
(0.0131345 0.406075 0)
(0.00895489 0.387103 0)
(0.00553694 0.365272 0)
(0.00409394 0.343719 0)
(0.0014225 0.325201 0)
(-0.00229624 0.308913 0)
(-0.00223731 0.304128 0)
(-0.00174361 0.311216 0)
(0.000610697 0.331237 0)
(-0.00220777 0.358929 0)
(-0.0101053 0.39319 0)
(-0.0227352 0.425985 0)
(-0.0360687 0.447998 0)
(-0.0456117 0.431998 0)
(-0.0437148 0.346089 0)
(-0.030457 0.189783 0)
(-0.0193239 0.00624072 0)
(-0.00535839 -0.201617 0)
(0.00529242 -0.212909 0)
(0.0126599 -0.0462149 0)
(0.0174984 0.107361 0)
(0.0250622 0.247505 0)
(0.0308931 0.358913 0)
(0.0345467 0.418564 0)
(0.033324 0.432767 0)
(0.0306253 0.420209 0)
(0.0289663 0.399898 0)
(0.0266289 0.374109 0)
(0.0241629 0.348472 0)
(0.0190762 0.327228 0)
(0.0122301 0.309072 0)
(0.00604964 0.300943 0)
(-0.001222 0.309265 0)
(-0.00630871 0.33153 0)
(-0.0125154 0.367463 0)
(-0.018479 0.409757 0)
(-0.0309468 0.449267 0)
(-0.0416801 0.467042 0)
(-0.0478263 0.436071 0)
(-0.0408924 0.326172 0)
(-0.0284906 0.165451 0)
(-0.0177625 -0.0204566 0)
(-0.00545039 -0.221436 0)
(0.0057452 -0.229237 0)
(0.0130911 -0.0606429 0)
(0.0175588 0.0907087 0)
(0.0242735 0.228997 0)
(0.0325792 0.345955 0)
(0.0382308 0.414934 0)
(0.0417247 0.438478 0)
(0.0411093 0.427581 0)
(0.0394082 0.403125 0)
(0.0382587 0.373647 0)
(0.0355312 0.348731 0)
(0.0311349 0.328789 0)
(0.0254942 0.31071 0)
(0.0153279 0.306598 0)
(0.00264335 0.316717 0)
(-0.0071091 0.338916 0)
(-0.014422 0.374797 0)
(-0.0202942 0.421375 0)
(-0.0294542 0.465712 0)
(-0.037478 0.476891 0)
(-0.037793 0.427471 0)
(-0.0277549 0.301264 0)
(-0.0194225 0.141355 0)
(-0.012224 -0.0417488 0)
(-0.00441849 -0.234483 0)
(0.00505323 -0.244498 0)
(0.0121631 -0.0727859 0)
(0.0167437 0.0763283 0)
(0.0217935 0.210366 0)
(0.0304576 0.326124 0)
(0.0387352 0.403569 0)
(0.0447555 0.433619 0)
(0.0481824 0.431787 0)
(0.0479426 0.408619 0)
(0.0453311 0.38005 0)
(0.0414732 0.352628 0)
(0.0378745 0.329954 0)
(0.0332253 0.317365 0)
(0.0241938 0.323023 0)
(0.0114277 0.33448 0)
(0.000655854 0.355346 0)
(-0.0102018 0.38819 0)
(-0.0185364 0.434992 0)
(-0.0255551 0.480128 0)
(-0.0293515 0.478847 0)
(-0.0248858 0.409798 0)
(-0.0161412 0.279804 0)
(-0.0114963 0.128315 0)
(-0.00827024 -0.0477677 0)
(-0.00370284 -0.239183 0)
(0.00415807 -0.258464 0)
(0.0102095 -0.0855297 0)
(0.0140951 0.0618444 0)
(0.0177039 0.191842 0)
(0.022639 0.301728 0)
(0.0311888 0.383675 0)
(0.038673 0.41946 0)
(0.045758 0.422611 0)
(0.0492158 0.409097 0)
(0.0499766 0.380691 0)
(0.0475115 0.355302 0)
(0.0427851 0.332789 0)
(0.0381019 0.321387 0)
(0.0324868 0.331404 0)
(0.0224836 0.348186 0)
(0.0107666 0.37444 0)
(-0.00363525 0.408786 0)
(-0.0138765 0.452173 0)
(-0.0201189 0.484384 0)
(-0.0191414 0.47045 0)
(-0.0133612 0.393531 0)
(-0.00727976 0.265865 0)
(-0.00692849 0.123897 0)
(-0.00560476 -0.0486453 0)
(-0.00281312 -0.241774 0)
(0.00259863 -0.266702 0)
(0.00725826 -0.0924171 0)
(0.00820307 0.0540948 0)
(0.00850462 0.182328 0)
(0.0100643 0.286575 0)
(0.0162547 0.362735 0)
(0.0249282 0.403722 0)
(0.0334627 0.410202 0)
(0.0421895 0.398641 0)
(0.0489342 0.377741 0)
(0.0472556 0.359875 0)
(0.0434687 0.3397 0)
(0.0375247 0.330405 0)
(0.0307609 0.344043 0)
(0.0219376 0.369454 0)
(0.0109941 0.399449 0)
(0.000367207 0.431371 0)
(-0.00636371 0.465787 0)
(-0.0108277 0.486225 0)
(-0.00826083 0.458835 0)
(-0.00133453 0.377625 0)
(0.000446498 0.263157 0)
(-0.00286858 0.128242 0)
(-0.00256491 -0.0457278 0)
(-0.00141192 -0.239895 0)
(0.000886472 -0.268106 0)
(0.00325195 -0.0927792 0)
(0.0027676 0.055326 0)
(0.000411272 0.179102 0)
(5.92849e-05 0.275559 0)
(0.00271705 0.345622 0)
(0.0112801 0.383901 0)
(0.0202429 0.38996 0)
(0.0301017 0.379233 0)
(0.0375694 0.368847 0)
(0.0391068 0.358508 0)
(0.0363696 0.343749 0)
(0.0312603 0.340144 0)
(0.0232397 0.355797 0)
(0.016222 0.382148 0)
(0.00911761 0.413277 0)
(0.00254726 0.442532 0)
(-0.00128273 0.472753 0)
(-0.00150169 0.482796 0)
(0.00312194 0.446274 0)
(0.00639204 0.371817 0)
(0.00507216 0.269914 0)
(0.00258287 0.134263 0)
(0.000276724 -0.04002 0)
(-0.000658834 -0.234903 0)
(0.000170675 -0.26544 0)
(0.00124235 -0.0889034 0)
(0.00078949 0.0624822 0)
(-0.000981505 0.182802 0)
(-0.00213538 0.273224 0)
(-0.000589869 0.334191 0)
(0.00647091 0.367192 0)
(0.0134692 0.375909 0)
(0.019587 0.369137 0)
(0.0222578 0.360267 0)
(0.0245562 0.352546 0)
(0.0218632 0.343106 0)
(0.0184789 0.343854 0)
(0.0123827 0.365378 0)
(0.00587342 0.394313 0)
(-0.00022323 0.426176 0)
(-0.00420163 0.452706 0)
(-0.00451631 0.472372 0)
(0.000936308 0.473463 0)
(0.00602446 0.439888 0)
(0.00828409 0.37166 0)
(0.00710332 0.275077 0)
(0.00620231 0.142015 0)
(0.00114871 -0.0288688 0)
(-0.000677346 -0.225553 0)
(0.000789338 -0.263271 0)
(0.00168577 -0.0870229 0)
(0.00120672 0.0651438 0)
(0.00261601 0.185825 0)
(0.00417087 0.269621 0)
(0.00715583 0.324286 0)
(0.0114563 0.35536 0)
(0.0149453 0.365752 0)
(0.0159319 0.36147 0)
(0.0140158 0.352764 0)
(0.0115905 0.345166 0)
(0.00515149 0.340352 0)
(-0.00229277 0.344355 0)
(-0.00890128 0.369805 0)
(-0.0133902 0.402547 0)
(-0.0174544 0.430351 0)
(-0.0170474 0.454723 0)
(-0.0122204 0.466636 0)
(-0.0049821 0.462678 0)
(0.00176828 0.433662 0)
(0.00650483 0.371595 0)
(0.00636684 0.281279 0)
(0.00588169 0.150163 0)
(-1.30613e-05 -0.0160487 0)
(-0.00148086 -0.217415 0)
(0.00105042 -0.262065 0)
(0.00126079 -0.0851891 0)
(0.000846186 0.0642222 0)
(0.00296238 0.180626 0)
(0.0070293 0.263578 0)
(0.0119374 0.31724 0)
(0.0155796 0.348327 0)
(0.0176894 0.361119 0)
(0.0169403 0.361689 0)
(0.0114783 0.355068 0)
(0.00312441 0.352266 0)
(-0.00886227 0.351463 0)
(-0.0215478 0.355472 0)
(-0.0307826 0.374831 0)
(-0.0333063 0.403025 0)
(-0.0334701 0.426808 0)
(-0.0292351 0.44373 0)
(-0.0208402 0.452876 0)
(-0.0141807 0.45283 0)
(-0.00551012 0.422482 0)
(0.000578128 0.365863 0)
(0.00273742 0.281313 0)
(0.00199729 0.157603 0)
(-0.00246177 -0.0056572 0)
(-0.0020095 -0.212981 0)
(0.000980259 -0.259258 0)
(-0.000120442 -0.0825512 0)
(-0.00115103 0.0636001 0)
(-0.000526245 0.174517 0)
(0.00263896 0.253792 0)
(0.00748202 0.305416 0)
(0.0126816 0.339417 0)
(0.0139003 0.356557 0)
(0.0128562 0.363846 0)
(0.00675771 0.366638 0)
(-0.00254184 0.368907 0)
(-0.0133087 0.369817 0)
(-0.024378 0.369114 0)
(-0.0342654 0.378909 0)
(-0.0385728 0.397483 0)
(-0.0374174 0.415908 0)
(-0.0321123 0.427603 0)
(-0.025426 0.438689 0)
(-0.0177346 0.436596 0)
(-0.0088659 0.409285 0)
(-0.003659 0.357816 0)
(-0.0020837 0.280295 0)
(-0.00278199 0.163536 0)
(-0.00455356 -0.000260292 0)
(-0.00290213 -0.211522 0)
(0.00044909 -0.254017 0)
(-0.00140964 -0.0767191 0)
(-0.0043847 0.0644073 0)
(-0.00426649 0.170972 0)
(-0.00325598 0.244961 0)
(0.000237803 0.294229 0)
(0.00252715 0.333257 0)
(0.00282766 0.35594 0)
(0.00129782 0.370045 0)
(-0.00106665 0.377174 0)
(-0.00443216 0.381376 0)
(-0.010022 0.382817 0)
(-0.0163268 0.380772 0)
(-0.0233009 0.387109 0)
(-0.0285481 0.396966 0)
(-0.0284071 0.406204 0)
(-0.0259541 0.414592 0)
(-0.0218321 0.423738 0)
(-0.0145338 0.419583 0)
(-0.00659468 0.395981 0)
(-0.00345362 0.352229 0)
(-0.0034634 0.278441 0)
(-0.00397836 0.164144 0)
(-0.00476016 0.00137957 0)
(-0.00239809 -0.211387 0)
(-0.00104909 -0.243883 0)
(-0.00404965 -0.0647769 0)
(-0.00825414 0.0704889 0)
(-0.00954402 0.172567 0)
(-0.00928525 0.244087 0)
(-0.00745504 0.293967 0)
(-0.00666274 0.334742 0)
(-0.00596654 0.360392 0)
(-0.004769 0.373656 0)
(-0.00255842 0.380789 0)
(-0.00151779 0.387427 0)
(-0.0033399 0.38891 0)
(-0.006528 0.384454 0)
(-0.0107089 0.388511 0)
(-0.0138046 0.394816 0)
(-0.0152221 0.4017 0)
(-0.0155965 0.408268 0)
(-0.0129583 0.412139 0)
(-0.00696685 0.405927 0)
(-0.0016053 0.384592 0)
(0.000647947 0.348387 0)
(-0.00128163 0.279435 0)
(-0.00100769 0.163728 0)
(-0.00226259 0.00484315 0)
(-0.000469608 -0.209049 0)
(-0.00147758 -0.232706 0)
(-0.00438019 -0.0515112 0)
(-0.00854275 0.0817166 0)
(-0.0109159 0.176527 0)
(-0.0102357 0.242447 0)
(-0.00783911 0.292267 0)
(-0.00563571 0.331586 0)
(-0.00233721 0.355849 0)
(0.00196449 0.371025 0)
(0.00524719 0.380407 0)
(0.00714697 0.38947 0)
(0.00561942 0.392002 0)
(0.00363184 0.388602 0)
(3.3536e-05 0.390568 0)
(-0.00307815 0.394438 0)
(-0.00541395 0.40037 0)
(-0.00636556 0.404872 0)
(-0.00629204 0.404355 0)
(-0.00334483 0.396518 0)
(-0.000785643 0.377497 0)
(0.000688006 0.345127 0)
(0.000491887 0.277689 0)
(0.0026472 0.163402 0)
(-4.96223e-05 0.0099504 0)
(0.000962202 -0.202644 0)
(-0.000632801 -0.223778 0)
(-0.00274716 -0.0403232 0)
(-0.00413829 0.0946713 0)
(-0.00633011 0.184086 0)
(-0.00564605 0.244091 0)
(-0.00365263 0.292065 0)
(-0.000362224 0.327523 0)
(0.00425144 0.351833 0)
(0.00816061 0.367472 0)
(0.010298 0.380471 0)
(0.0120728 0.39178 0)
(0.0121483 0.394441 0)
(0.0121939 0.389206 0)
(0.00969435 0.391905 0)
(0.0062802 0.395743 0)
(0.00144242 0.399728 0)
(-0.00214951 0.402901 0)
(-0.00464456 0.40071 0)
(-0.00419676 0.391479 0)
(-0.00354175 0.372036 0)
(-0.00145605 0.33997 0)
(0.000329993 0.274512 0)
(0.00388558 0.165809 0)
(0.00102161 0.0178224 0)
(0.00169467 -0.194149 0)
(0.000435498 -0.219773 0)
(0.000259114 -0.0365597 0)
(0.00136257 0.0986446 0)
(0.00219908 0.189037 0)
(0.00269185 0.246192 0)
(0.00381688 0.291065 0)
(0.00682007 0.322366 0)
(0.0106023 0.346736 0)
(0.013197 0.366551 0)
(0.0140891 0.379971 0)
(0.0166304 0.388293 0)
(0.0185356 0.390208 0)
(0.0197559 0.387506 0)
(0.0179455 0.39357 0)
(0.0143336 0.401073 0)
(0.00712831 0.406506 0)
(0.000351881 0.406212 0)
(-0.00382653 0.399238 0)
(-0.00593761 0.387261 0)
(-0.005886 0.369296 0)
(-0.00452175 0.335494 0)
(-0.00101383 0.270763 0)
(0.0020335 0.167451 0)
(0.000738801 0.0232565 0)
(0.00168499 -0.185694 0)
(0.00118534 -0.220039 0)
(0.00281973 -0.0371903 0)
(0.00463935 0.0977227 0)
(0.00768142 0.189851 0)
(0.00970323 0.249483 0)
(0.0110403 0.291897 0)
(0.0138273 0.320649 0)
(0.0165037 0.343555 0)
(0.0186564 0.363095 0)
(0.0198303 0.375387 0)
(0.0211904 0.382378 0)
(0.0221472 0.385227 0)
(0.0223967 0.385208 0)
(0.019858 0.394498 0)
(0.0152331 0.405748 0)
(0.00864786 0.413846 0)
(0.00199971 0.411643 0)
(-0.00375801 0.403755 0)
(-0.00860459 0.389503 0)
(-0.00875223 0.368501 0)
(-0.00763024 0.335368 0)
(-0.00362002 0.267747 0)
(-0.00102817 0.171751 0)
(-0.000618686 0.0274365 0)
(0.00143468 -0.178165 0)
(0.00147924 -0.222372 0)
(0.00327553 -0.0403407 0)
(0.00511475 0.093358 0)
(0.00888899 0.183285 0)
(0.01282 0.245073 0)
(0.01594 0.288578 0)
(0.0190427 0.317256 0)
(0.021481 0.339984 0)
(0.0234241 0.360565 0)
(0.0241664 0.372734 0)
(0.0248603 0.379638 0)
(0.0242852 0.382751 0)
(0.0217447 0.384888 0)
(0.0163152 0.396979 0)
(0.00874689 0.410815 0)
(0.00217889 0.419898 0)
(-0.00456988 0.420089 0)
(-0.0104663 0.412449 0)
(-0.0148763 0.39535 0)
(-0.0168099 0.370628 0)
(-0.014738 0.332217 0)
(-0.00933355 0.264399 0)
(-0.00583533 0.170821 0)
(-0.00174182 0.0264385 0)
(0.000623569 -0.173429 0)
(0.00113945 -0.223647 0)
(0.00257399 -0.0427555 0)
(0.00346867 0.0876374 0)
(0.00739451 0.174614 0)
(0.0111698 0.236896 0)
(0.0154474 0.280906 0)
(0.0189376 0.312357 0)
(0.0214459 0.336048 0)
(0.0234534 0.356201 0)
(0.0255652 0.368691 0)
(0.025254 0.377758 0)
(0.0232105 0.383632 0)
(0.0177644 0.391211 0)
(0.00906514 0.407649 0)
(-0.00117658 0.421331 0)
(-0.00888638 0.428219 0)
(-0.0156712 0.428694 0)
(-0.020185 0.420434 0)
(-0.0236021 0.403038 0)
(-0.0253935 0.373228 0)
(-0.0220367 0.326906 0)
(-0.0157502 0.257427 0)
(-0.00996599 0.163897 0)
(-0.00318201 0.0209899 0)
(-0.000436537 -0.171098 0)
(0.000595246 -0.222931 0)
(0.00149482 -0.0430668 0)
(0.00126718 0.0826993 0)
(0.00479776 0.166547 0)
(0.00792262 0.227782 0)
(0.0118556 0.27125 0)
(0.0162568 0.304698 0)
(0.0192218 0.329684 0)
(0.0218282 0.349805 0)
(0.0229614 0.364648 0)
(0.0213911 0.376954 0)
(0.0172159 0.38708 0)
(0.0094458 0.400779 0)
(-1.22019e-05 0.420104 0)
(-0.0104147 0.435026 0)
(-0.0195858 0.440569 0)
(-0.0260868 0.436755 0)
(-0.0295494 0.425598 0)
(-0.0308479 0.405437 0)
(-0.0298235 0.370535 0)
(-0.0257072 0.318071 0)
(-0.0197526 0.24534 0)
(-0.012244 0.151069 0)
(-0.00465345 0.0140148 0)
(-0.00102003 -0.171327 0)
(7.46371e-05 -0.220172 0)
(0.000776841 -0.0410872 0)
(-0.00097229 0.0794491 0)
(0.000972996 0.159244 0)
(0.00357881 0.220812 0)
(0.00658536 0.262568 0)
(0.0106565 0.296331 0)
(0.0134224 0.32301 0)
(0.0158057 0.34638 0)
(0.0150109 0.365895 0)
(0.0124517 0.381757 0)
(0.0071051 0.396512 0)
(-0.000802546 0.412467 0)
(-0.0105016 0.433643 0)
(-0.0201141 0.448363 0)
(-0.0272527 0.450825 0)
(-0.0318915 0.444459 0)
(-0.0346463 0.429032 0)
(-0.0335572 0.403304 0)
(-0.0298716 0.363038 0)
(-0.0249466 0.308313 0)
(-0.019514 0.234733 0)
(-0.0121792 0.138696 0)
(-0.00507328 0.008219 0)
(-0.00129163 -0.172739 0)
(-0.000344286 -0.215255 0)
(-0.000238031 -0.0366021 0)
(-0.00268328 0.081179 0)
(-0.00356907 0.155299 0)
(-0.00240315 0.21392 0)
(-0.000638026 0.254032 0)
(0.00116805 0.28811 0)
(0.00265215 0.316626 0)
(0.00386341 0.342196 0)
(0.00321277 0.364699 0)
(0.00106513 0.385334 0)
(-0.00348203 0.404533 0)
(-0.00942629 0.423995 0)
(-0.0169712 0.44647 0)
(-0.0239975 0.458643 0)
(-0.0292301 0.457741 0)
(-0.0323827 0.447533 0)
(-0.0333716 0.426851 0)
(-0.0310114 0.394947 0)
(-0.0265577 0.353176 0)
(-0.0216976 0.297246 0)
(-0.016202 0.222543 0)
(-0.010154 0.12985 0)
(-0.00429082 0.00355955 0)
(-0.00160862 -0.173788 0)
(-0.00102587 -0.20772 0)
(-0.00237558 -0.029627 0)
(-0.00495256 0.0872302 0)
(-0.00761778 0.158574 0)
(-0.00911203 0.212498 0)
(-0.00940438 0.253169 0)
(-0.00991057 0.286998 0)
(-0.0103949 0.314496 0)
(-0.0107585 0.341047 0)
(-0.0106985 0.365259 0)
(-0.0106806 0.388434 0)
(-0.0124902 0.410623 0)
(-0.015811 0.431067 0)
(-0.0201143 0.453774 0)
(-0.0241472 0.463277 0)
(-0.0259873 0.459632 0)
(-0.0263681 0.446335 0)
(-0.0252523 0.422653 0)
(-0.0230301 0.386977 0)
(-0.019435 0.341697 0)
(-0.0153939 0.287121 0)
(-0.0111572 0.213922 0)
(-0.00728707 0.124107 0)
(-0.00361838 0.00134814 0)
(-0.00180933 -0.174153 0)
(-0.00107943 -0.199442 0)
(-0.00345628 -0.02166 0)
(-0.00658332 0.0943251 0)
(-0.00933994 0.16531 0)
(-0.0118879 0.216728 0)
(-0.0130615 0.254698 0)
(-0.0142983 0.286647 0)
(-0.0163976 0.31434 0)
(-0.0182589 0.338415 0)
(-0.0190988 0.360769 0)
(-0.0190272 0.385643 0)
(-0.0197887 0.41053 0)
(-0.0204734 0.43295 0)
(-0.0213431 0.455167 0)
(-0.0216449 0.462619 0)
(-0.0204538 0.455815 0)
(-0.0183487 0.439771 0)
(-0.0154735 0.415016 0)
(-0.0128699 0.379003 0)
(-0.00990036 0.333605 0)
(-0.00786182 0.279419 0)
(-0.00501102 0.210559 0)
(-0.00408776 0.123903 0)
(-0.0026183 0.002192 0)
(-0.00166566 -0.173643 0)
(-0.00112344 -0.18988 0)
(-0.00402016 -0.0112896 0)
(-0.00759351 0.103777 0)
(-0.0105744 0.173195 0)
(-0.0127452 0.222068 0)
(-0.0133458 0.258919 0)
(-0.0140758 0.292375 0)
(-0.0162589 0.321937 0)
(-0.0186885 0.345748 0)
(-0.0214673 0.364929 0)
(-0.0230597 0.385657 0)
(-0.0232922 0.408197 0)
(-0.0223467 0.427927 0)
(-0.0207882 0.44951 0)
(-0.0184122 0.453669 0)
(-0.0146422 0.44604 0)
(-0.0117975 0.430328 0)
(-0.00757298 0.404656 0)
(-0.00482768 0.368993 0)
(-0.00132707 0.325006 0)
(-0.000993893 0.276212 0)
(0.000158333 0.21007 0)
(-0.00111843 0.125868 0)
(-0.00160498 0.00292544 0)
(-0.00106774 -0.172693 0)
(-0.000825395 -0.180348 0)
(-0.00373046 -0.000976138 0)
(-0.00621945 0.112254 0)
(-0.00848988 0.180986 0)
(-0.0110077 0.226931 0)
(-0.0108438 0.262082 0)
(-0.0104564 0.295947 0)
(-0.010764 0.324992 0)
(-0.0111463 0.34789 0)
(-0.013905 0.366838 0)
(-0.017212 0.385703 0)
(-0.0196973 0.405217 0)
(-0.0191425 0.421682 0)
(-0.0160377 0.441883 0)
(-0.0120483 0.444463 0)
(-0.00700756 0.436358 0)
(-0.00303606 0.420448 0)
(0.0011288 0.39461 0)
(0.00354643 0.361602 0)
(0.00562537 0.321481 0)
(0.00538602 0.275915 0)
(0.00524345 0.212697 0)
(0.00320236 0.130396 0)
(0.000827475 0.00640994 0)
(2.90016e-05 -0.16815 0)
(0.00015757 -0.173099 0)
(-0.0024739 0.00659313 0)
(-0.00325045 0.118099 0)
(-0.00368559 0.188004 0)
(-0.00651574 0.232635 0)
(-0.00696044 0.264387 0)
(-0.00666983 0.297174 0)
(-0.00571631 0.326065 0)
(-0.00570825 0.352071 0)
(-0.00863338 0.373299 0)
(-0.0130805 0.390966 0)
(-0.017331 0.404947 0)
(-0.0176401 0.413253 0)
(-0.0140337 0.42868 0)
(-0.00883294 0.430081 0)
(-0.00351507 0.421868 0)
(0.00151694 0.408558 0)
(0.00526185 0.38586 0)
(0.00756816 0.356011 0)
(0.00931149 0.318929 0)
(0.0091076 0.277342 0)
(0.00849807 0.216499 0)
(0.00770492 0.135313 0)
(0.00356343 0.0135176 0)
(0.00147211 -0.160044 0)
(0.000779002 -0.167574 0)
(-0.00141526 0.013077 0)
(-0.00206309 0.119805 0)
(-6.58368e-05 0.193101 0)
(-0.00288261 0.239076 0)
(-0.00491637 0.269497 0)
(-0.00701713 0.299235 0)
(-0.00722408 0.32616 0)
(-0.00743814 0.352881 0)
(-0.00906853 0.377565 0)
(-0.0116892 0.395337 0)
(-0.0142314 0.405882 0)
(-0.014038 0.407405 0)
(-0.0114174 0.418377 0)
(-0.00786693 0.419449 0)
(-0.00467919 0.410851 0)
(-0.000705012 0.397263 0)
(0.00323496 0.376598 0)
(0.00600732 0.349829 0)
(0.00769064 0.316466 0)
(0.00827528 0.278438 0)
(0.00791643 0.218979 0)
(0.00917357 0.139677 0)
(0.00455194 0.0229849 0)
(0.00234283 -0.149078 0)
(0.000541322 -0.163873 0)
(-0.000503887 0.0181495 0)
(-0.00204653 0.118887 0)
(0.00101534 0.194563 0)
(-0.000656308 0.24566 0)
(-0.0024457 0.276307 0)
(-0.00538645 0.303957 0)
(-0.00715689 0.327426 0)
(-0.00898365 0.353768 0)
(-0.0102476 0.376592 0)
(-0.0104336 0.392825 0)
(-0.011586 0.401348 0)
(-0.0117097 0.39985 0)
(-0.0101381 0.408795 0)
(-0.00664082 0.410346 0)
(-0.00448161 0.402503 0)
(-0.00216274 0.388294 0)
(0.000501924 0.369317 0)
(0.00288818 0.345242 0)
(0.00427712 0.315361 0)
(0.00549976 0.278757 0)
(0.00692723 0.219307 0)
(0.0090794 0.141891 0)
(0.00441982 0.0316855 0)
(0.00256598 -0.138229 0)
(-0.000324243 -0.159425 0)
(-0.000770639 0.0231379 0)
(-0.00327464 0.120085 0)
(-0.000903944 0.193059 0)
(0.000105764 0.247115 0)
(-0.00128544 0.278971 0)
(-0.0028395 0.308375 0)
(-0.00563311 0.33255 0)
(-0.0078158 0.357055 0)
(-0.00879512 0.376535 0)
(-0.0085203 0.391178 0)
(-0.00990259 0.399518 0)
(-0.0108929 0.394411 0)
(-0.0109396 0.398601 0)
(-0.00925344 0.399344 0)
(-0.0074638 0.396307 0)
(-0.00613653 0.383074 0)
(-0.00454169 0.363891 0)
(-0.00230889 0.341096 0)
(-8.48426e-05 0.311352 0)
(0.00362803 0.274076 0)
(0.00670829 0.213825 0)
(0.00800539 0.143636 0)
(0.0036753 0.0392903 0)
(0.00231823 -0.12824 0)
(-0.000947552 -0.15364 0)
(-0.00185109 0.0283145 0)
(-0.0052519 0.122433 0)
(-0.00448346 0.189017 0)
(-0.00229611 0.247192 0)
(-0.00311909 0.281621 0)
(-0.00442356 0.312429 0)
(-0.00687896 0.336047 0)
(-0.0079792 0.357759 0)
(-0.00855749 0.374306 0)
(-0.00865642 0.388372 0)
(-0.00984574 0.395486 0)
(-0.010406 0.389266 0)
(-0.011822 0.394329 0)
(-0.0128894 0.394321 0)
(-0.0123745 0.390291 0)
(-0.0105953 0.37905 0)
(-0.00859976 0.361076 0)
(-0.00633149 0.337614 0)
(-0.00208383 0.303857 0)
(0.00439457 0.26575 0)
(0.00689352 0.211319 0)
(0.00732586 0.147962 0)
(0.00345402 0.0474884 0)
(0.00216657 -0.11909 0)
(-0.00160148 -0.146787 0)
(-0.0024415 0.0349863 0)
(-0.00755071 0.127219 0)
(-0.00900182 0.188628 0)
(-0.00855858 0.245669 0)
(-0.00843521 0.283333 0)
(-0.00927786 0.315594 0)
(-0.0100438 0.338184 0)
(-0.0107107 0.357331 0)
(-0.0108894 0.37345 0)
(-0.0122372 0.386939 0)
(-0.0134665 0.393831 0)
(-0.0141442 0.387702 0)
(-0.0166231 0.393566 0)
(-0.0182712 0.392568 0)
(-0.0184507 0.385982 0)
(-0.0165204 0.372431 0)
(-0.0138216 0.353419 0)
(-0.00968233 0.328383 0)
(-0.00422072 0.290618 0)
(0.00183608 0.25642 0)
(0.00264786 0.209861 0)
(0.00431492 0.14987 0)
(0.002062 0.0545606 0)
(0.00171785 -0.111001 0)
(-0.00253788 -0.136286 0)
(-0.00347245 0.0455416 0)
(-0.0098779 0.135967 0)
(-0.012653 0.194054 0)
(-0.0153153 0.247676 0)
(-0.0146689 0.283381 0)
(-0.0151012 0.316192 0)
(-0.0154306 0.33815 0)
(-0.0158751 0.357865 0)
(-0.0164945 0.374545 0)
(-0.0182177 0.388197 0)
(-0.0186528 0.392013 0)
(-0.0202616 0.388455 0)
(-0.0227021 0.394558 0)
(-0.0241797 0.390919 0)
(-0.0231137 0.381266 0)
(-0.020015 0.365485 0)
(-0.016339 0.34386 0)
(-0.0115446 0.316894 0)
(-0.00710486 0.279876 0)
(-0.00390172 0.251885 0)
(-0.00342365 0.208301 0)
(-0.000437088 0.14968 0)
(-0.000763029 0.0574353 0)
(0.000796603 -0.106765 0)
(-0.00308467 -0.125114 0)
(-0.00419265 0.0555666 0)
(-0.00935496 0.146354 0)
(-0.012631 0.20246 0)
(-0.016174 0.251965 0)
(-0.0156897 0.284954 0)
(-0.0156269 0.319262 0)
(-0.0164299 0.340654 0)
(-0.0172999 0.359232 0)
(-0.0186849 0.375978 0)
(-0.0192377 0.388753 0)
(-0.0189964 0.393468 0)
(-0.0216442 0.39055 0)
(-0.023806 0.395002 0)
(-0.0245104 0.386792 0)
(-0.0219993 0.373122 0)
(-0.0182176 0.354318 0)
(-0.0138256 0.331145 0)
(-0.00930598 0.306678 0)
(-0.00699489 0.273148 0)
(-0.00576518 0.248965 0)
(-0.00481504 0.205135 0)
(-0.00241689 0.149305 0)
(-0.00168235 0.0596113 0)
(0.00051225 -0.103932 0)
(-0.00282693 -0.114377 0)
(-0.00395774 0.0625266 0)
(-0.00723719 0.15388 0)
(-0.00934782 0.210013 0)
(-0.0117646 0.255152 0)
(-0.0107163 0.284193 0)
(-0.00942632 0.319197 0)
(-0.00887829 0.342079 0)
(-0.00942615 0.362704 0)
(-0.0109725 0.378898 0)
(-0.0109322 0.388867 0)
(-0.0111803 0.395074 0)
(-0.0124232 0.393918 0)
(-0.0149301 0.395287 0)
(-0.0158495 0.380516 0)
(-0.015008 0.36355 0)
(-0.0126063 0.343454 0)
(-0.00963192 0.320024 0)
(-0.00577669 0.298509 0)
(-0.00458624 0.269025 0)
(-0.00349271 0.246344 0)
(-0.00316244 0.204128 0)
(-0.00303472 0.150259 0)
(-0.00162614 0.0598571 0)
(0.000372637 -0.101137 0)
(-0.00229152 -0.105105 0)
(-0.00313933 0.0690354 0)
(-0.00563941 0.158129 0)
(-0.00528224 0.214278 0)
(-0.00538963 0.256306 0)
(-0.00353868 0.281878 0)
(-0.00174907 0.316517 0)
(-0.000944591 0.340645 0)
(-0.00160357 0.362943 0)
(-0.00230134 0.37912 0)
(-0.00229955 0.389157 0)
(-0.00279107 0.395192 0)
(-0.00299985 0.394265 0)
(-0.00368357 0.397166 0)
(-0.00533636 0.38113 0)
(-0.00702025 0.361198 0)
(-0.0070712 0.338443 0)
(-0.00515292 0.312882 0)
(-0.00296741 0.292672 0)
(-0.00183952 0.265272 0)
(-0.000592006 0.244819 0)
(-0.00174663 0.208209 0)
(-0.00192209 0.152912 0)
(-0.00116116 0.0601767 0)
(2.97167e-05 -0.0986546 0)
(-0.00189087 -0.0980499 0)
(-0.0016474 0.0725678 0)
(-0.0029877 0.158456 0)
(-0.00107602 0.211247 0)
(0.00147696 0.253276 0)
(0.00331806 0.277432 0)
(0.00419639 0.313396 0)
(0.00419694 0.34002 0)
(0.0026698 0.363718 0)
(0.00235347 0.378014 0)
(0.00242598 0.387845 0)
(0.0030147 0.394312 0)
(0.00354285 0.390736 0)
(0.00445142 0.395223 0)
(0.00404311 0.382514 0)
(0.00193921 0.362313 0)
(0.00134843 0.335914 0)
(0.00156658 0.30929 0)
(0.00196948 0.288878 0)
(0.00138983 0.26289 0)
(0.000823391 0.24622 0)
(-0.000966881 0.210853 0)
(-8.81216e-05 0.153483 0)
(-0.000196933 0.0609971 0)
(-0.00025287 -0.0957459 0)
(-0.00195496 -0.0924453 0)
(-0.000620858 0.0739909 0)
(-0.00133448 0.156134 0)
(0.00125904 0.206333 0)
(0.00356271 0.249205 0)
(0.00450051 0.276475 0)
(0.00406294 0.31398 0)
(0.00368449 0.340212 0)
(0.00428847 0.362148 0)
(0.00613097 0.376093 0)
(0.0079246 0.384395 0)
(0.00994065 0.389912 0)
(0.0113657 0.387783 0)
(0.013311 0.391232 0)
(0.0145164 0.380965 0)
(0.0131612 0.361694 0)
(0.0120945 0.335891 0)
(0.0101911 0.309164 0)
(0.00833628 0.290799 0)
(0.00501528 0.266777 0)
(0.00317545 0.249841 0)
(0.00157034 0.212622 0)
(0.0031186 0.153541 0)
(0.00121067 0.0643183 0)
(0.000162234 -0.0908597 0)
(-0.00199128 -0.0858749 0)
(-0.00109819 0.0765178 0)
(-0.00145851 0.155588 0)
(1.47351e-06 0.203595 0)
(0.0015539 0.247377 0)
(0.00204862 0.276608 0)