/*--------------------------------*- C++ -*----------------------------------*\
| =========                 |                                                 |
| \\      /  F ield         | OpenFOAM: The Open Source CFD Toolbox           |
|  \\    /   O peration     | Version:  2.3.0                                 |
|   \\  /    A nd           | Web:      www.OpenFOAM.org                      |
|    \\/     M anipulation  |                                                 |
\*---------------------------------------------------------------------------*/
FoamFile
{
    version     2.0;
    format      ascii;
    class       volVectorField;
    location    "30";
    object      U.waterMean;
}
// * * * * * * * * * * * * * * * * * * * * * * * * * * * * * * * * * * * * * //

dimensions      [0 1 -1 0 0 0 0];

internalField   nonuniform List<vector> 
1875
(
(0.0797516 -0.250954 0)
(0.134291 -0.242057 0)
(0.214936 -0.211138 0)
(0.267313 -0.179379 0)
(0.293313 -0.148729 0)
(0.296922 -0.122785 0)
(0.282269 -0.103194 0)
(0.25208 -0.0839615 0)
(0.209938 -0.0701403 0)
(0.156222 -0.0600736 0)
(0.0973358 -0.0514537 0)
(0.0370745 -0.0516505 0)
(-0.0249408 -0.0557349 0)
(-0.084256 -0.0621785 0)
(-0.1405 -0.0709244 0)
(-0.192112 -0.0794086 0)
(-0.235875 -0.0899109 0)
(-0.270242 -0.103225 0)
(-0.293039 -0.116266 0)
(-0.302502 -0.131653 0)
(-0.295806 -0.15093 0)
(-0.270212 -0.17604 0)
(-0.219225 -0.207796 0)
(-0.13927 -0.245855 0)
(-0.0852704 -0.263443 0)
(0.0391255 -0.309776 0)
(0.0873924 -0.233484 0)
(0.129392 -0.122384 0)
(0.153735 -0.0315144 0)
(0.162162 0.0428239 0)
(0.160706 0.105022 0)
(0.150279 0.149748 0)
(0.131619 0.182363 0)
(0.109143 0.20705 0)
(0.0816442 0.22287 0)
(0.0520292 0.231013 0)
(0.022804 0.23661 0)
(-0.00818565 0.240598 0)
(-0.037922 0.238245 0)
(-0.0666296 0.23318 0)
(-0.0930077 0.222571 0)
(-0.11454 0.205813 0)
(-0.132304 0.180924 0)
(-0.145785 0.144738 0)
(-0.153464 0.0965499 0)
(-0.153125 0.0343475 0)
(-0.146122 -0.0342068 0)
(-0.123174 -0.123866 0)
(-0.0841889 -0.242996 0)
(-0.0380473 -0.330651 0)
(0.0155644 -0.448454 0)
(0.0259773 -0.333086 0)
(0.0280204 -0.221314 0)
(0.0305085 -0.127985 0)
(0.0323898 -0.0490446 0)
(0.035055 0.0170178 0)
(0.0369074 0.0737315 0)
(0.0351516 0.115536 0)
(0.0322445 0.143024 0)
(0.0292143 0.166113 0)
(0.0242193 0.181574 0)
(0.0170011 0.186088 0)
(0.00929964 0.186133 0)
(0.00162723 0.17671 0)
(-0.0053192 0.161819 0)
(-0.00803246 0.139755 0)
(-0.0110781 0.112459 0)
(-0.011737 0.0811718 0)
(-0.0133908 0.0396606 0)
(-0.0125485 -0.0118339 0)
(-0.0115539 -0.0674169 0)
(-0.0158812 -0.126163 0)
(-0.0181999 -0.200744 0)
(-0.0238879 -0.315536 0)
(-0.013955 -0.451567 0)
(0.0022687 -0.447458 0)
(-0.00258198 -0.302341 0)
(-0.00947943 -0.188517 0)
(-0.0116832 -0.0954904 0)
(-0.00948677 -0.0160107 0)
(-0.0042438 0.0525729 0)
(0.0036591 0.107791 0)
(0.00919856 0.148497 0)
(0.0148644 0.176931 0)
(0.0209249 0.200749 0)
(0.0261305 0.219227 0)
(0.030372 0.23316 0)
(0.0322321 0.239376 0)
(0.033553 0.23197 0)
(0.0351783 0.216724 0)
(0.0371316 0.197791 0)
(0.0392547 0.174055 0)
(0.0412525 0.140409 0)
(0.0430672 0.0983681 0)
(0.0432991 0.0440133 0)
(0.0410215 -0.0185528 0)
(0.0336674 -0.0854796 0)
(0.0245698 -0.165662 0)
(0.00959477 -0.283398 0)
(0.00210436 -0.456206 0)
(-6.48394e-05 -0.458002 0)
(-0.00595506 -0.315111 0)
(-0.0146715 -0.19941 0)
(-0.0248131 -0.112206 0)
(-0.0291797 -0.0432009 0)
(-0.0275986 0.0189327 0)
(-0.0209935 0.0736041 0)
(-0.0138518 0.112649 0)
(-0.00640918 0.14129 0)
(0.00169885 0.164791 0)
(0.0110993 0.183748 0)
(0.0202851 0.202786 0)
(0.028497 0.211103 0)
(0.0381201 0.206441 0)
(0.0476314 0.190361 0)
(0.0564727 0.169291 0)
(0.06533 0.140806 0)
(0.0736887 0.110108 0)
(0.078325 0.0729704 0)
(0.0780006 0.0284111 0)
(0.0710778 -0.025409 0)
(0.0585387 -0.0816 0)
(0.038891 -0.156264 0)
(0.0177538 -0.276976 0)
(0.0051884 -0.451391 0)
(0.00168504 -0.45477 0)
(-0.00413248 -0.297297 0)
(-0.0103165 -0.165091 0)
(-0.023847 -0.0727487 0)
(-0.0344303 -0.013763 0)
(-0.0408183 0.0342525 0)
(-0.039697 0.0764354 0)
(-0.036322 0.113089 0)
(-0.0303724 0.137748 0)
(-0.0221806 0.156611 0)
(-0.0121623 0.17348 0)
(0.000732861 0.189912 0)
(0.0154644 0.197523 0)
(0.0316925 0.191048 0)
(0.0474416 0.179266 0)
(0.061504 0.161254 0)
(0.072928 0.141132 0)
(0.0816256 0.118263 0)
(0.0850424 0.0929862 0)
(0.0827183 0.0619953 0)
(0.0724359 0.0239667 0)
(0.0552138 -0.02247 0)
(0.0321863 -0.100223 0)
(0.0138214 -0.236875 0)
(0.00299488 -0.431915 0)
(-0.000947337 -0.457335 0)
(-0.00293336 -0.302205 0)
(-0.00791457 -0.16174 0)
(-0.0183179 -0.0572664 0)
(-0.0336359 0.00278965 0)
(-0.0437368 0.0439539 0)
(-0.0493455 0.0772882 0)
(-0.0505152 0.103142 0)
(-0.0474649 0.11954 0)
(-0.0410348 0.131995 0)
(-0.0313329 0.141538 0)
(-0.017626 0.148067 0)
(0.000446953 0.148327 0)
(0.0194269 0.142538 0)
(0.0368753 0.135258 0)
(0.0516974 0.125778 0)
(0.0633349 0.113717 0)
(0.0700134 0.103065 0)
(0.0720993 0.0894987 0)
(0.0677695 0.0719902 0)
(0.0554775 0.0457607 0)
(0.0362878 0.00603414 0)
(0.0186855 -0.0835359 0)
(0.0064581 -0.230261 0)
(0.00145691 -0.426898 0)
(0.000430701 -0.45352 0)
(-0.00235036 -0.292316 0)
(-0.00599369 -0.143317 0)
(-0.0126263 -0.0237284 0)
(-0.02856 0.0408601 0)
(-0.0412936 0.073475 0)
(-0.0516313 0.0962226 0)
(-0.0549536 0.113221 0)
(-0.0544391 0.120874 0)
(-0.0482383 0.122385 0)
(-0.0382869 0.121305 0)
(-0.025355 0.117972 0)
(-0.00780615 0.113705 0)
(0.0100661 0.109302 0)
(0.0261789 0.106822 0)
(0.0394029 0.105137 0)
(0.0494747 0.105267 0)
(0.0539556 0.105653 0)
(0.0535852 0.104698 0)
(0.0467641 0.103068 0)
(0.0329462 0.0935072 0)
(0.0157552 0.051214 0)
(0.00172478 -0.0544873 0)
(-0.000574979 -0.223267 0)
(-0.00313341 -0.426116 0)
(-0.000396501 -0.454995 0)
(-0.00100653 -0.29276 0)
(-0.00343554 -0.143188 0)
(-0.00435541 -0.0130714 0)
(-0.0148361 0.0662066 0)
(-0.0285548 0.0996574 0)
(-0.0402697 0.114787 0)
(-0.0458738 0.116209 0)
(-0.0471886 0.110408 0)
(-0.0434561 0.102451 0)
(-0.036082 0.0951297 0)
(-0.0243745 0.0839734 0)
(-0.0101067 0.0745736 0)
(0.00441272 0.0710431 0)
(0.0166672 0.0734244 0)
(0.0254744 0.0800489 0)
(0.030819 0.0901607 0)
(0.0329776 0.103265 0)
(0.0293852 0.116576 0)
(0.0208419 0.127639 0)
(0.0084556 0.121351 0)
(-0.00301823 0.0708633 0)
(-0.00763187 -0.0545073 0)
(-0.00551164 -0.231919 0)
(-0.00346238 -0.437663 0)
(0.00133121 -0.456985 0)
(0.00325318 -0.291477 0)
(0.00305938 -0.141249 0)
(0.00553349 -0.00507989 0)
(0.00276679 0.0900333 0)
(-0.00790355 0.129942 0)
(-0.0173871 0.137763 0)
(-0.0245846 0.13162 0)
(-0.0286745 0.118177 0)
(-0.0294227 0.101252 0)
(-0.0267761 0.0822397 0)
(-0.0200689 0.0638289 0)
(-0.0130822 0.0541412 0)
(-0.00428445 0.0556521 0)
(0.00316866 0.0639983 0)
(0.0109127 0.07533 0)
(0.0135511 0.0920386 0)
(0.0122682 0.114064 0)
(0.00528545 0.136908 0)
(-0.00439837 0.153789 0)
(-0.0139065 0.146273 0)
(-0.0203339 0.0811124 0)
(-0.0152904 -0.0601526 0)
(-0.0102177 -0.241434 0)
(-0.00353009 -0.452219 0)
(0.00263079 -0.469373 0)
(0.00634665 -0.302742 0)
(0.00956138 -0.151459 0)
(0.0147771 -0.0128142 0)
(0.0170485 0.0932452 0)
(0.0141822 0.143502 0)
(0.00656886 0.153066 0)
(0.000180999 0.1425 0)
(-0.00477781 0.123556 0)
(-0.00856443 0.100568 0)
(-0.00919031 0.0774668 0)
(-0.0101203 0.0584637 0)
(-0.00950761 0.0404769 0)
(-0.0045004 0.0348524 0)
(-0.000839218 0.0419901 0)
(0.00390437 0.0634322 0)
(0.00312479 0.0927954 0)
(-0.00169041 0.127168 0)
(-0.0103632 0.157856 0)
(-0.0206382 0.178254 0)
(-0.0292227 0.159523 0)
(-0.0290409 0.0720154 0)
(-0.0189521 -0.0834356 0)
(-0.0112861 -0.264986 0)
(-0.00206871 -0.472555 0)
(0.00314871 -0.4816 0)
(0.00760669 -0.313708 0)
(0.01195 -0.161242 0)
(0.0198986 -0.0217362 0)
(0.025061 0.0898975 0)
(0.0276241 0.150917 0)
(0.0248122 0.167082 0)
(0.0191392 0.156055 0)
(0.0152447 0.136782 0)
(0.0112381 0.111347 0)
(0.00881827 0.0857666 0)
(0.00775826 0.0640826 0)
(0.00644152 0.0461855 0)
(0.00486778 0.0376844 0)
(0.00172885 0.04613 0)
(-0.000196449 0.0684244 0)
(-0.00374945 0.105563 0)
(-0.00849663 0.148975 0)
(-0.0188369 0.18679 0)
(-0.0277701 0.202215 0)
(-0.0335028 0.167459 0)
(-0.0268486 0.0562058 0)
(-0.0158603 -0.10284 0)
(-0.00716741 -0.285722 0)
(-0.00154008 -0.486129 0)
(0.00301502 -0.496475 0)
(0.00694487 -0.326369 0)
(0.0110425 -0.176677 0)
(0.0185251 -0.040103 0)
(0.0269594 0.0769137 0)
(0.0319395 0.146379 0)
(0.0342176 0.171329 0)
(0.0309462 0.163156 0)
(0.0273011 0.139696 0)
(0.0249622 0.11118 0)
(0.0225968 0.0879569 0)
(0.0206546 0.0689732 0)
(0.0202324 0.0520597 0)
(0.0162324 0.049491 0)
(0.00896254 0.0591174 0)
(0.00250075 0.0806626 0)
(-0.00467872 0.116074 0)
(-0.0112103 0.161637 0)
(-0.0181705 0.204952 0)
(-0.0247346 0.214047 0)
(-0.0244571 0.161968 0)
(-0.0138018 0.0358579 0)
(-0.00539804 -0.12229 0)
(-0.000827286 -0.301163 0)
(-0.000100852 -0.493921 0)
(0.00241185 -0.50913 0)
(0.00621151 -0.336089 0)
(0.0096057 -0.188176 0)
(0.0156157 -0.0561313 0)
(0.0250435 0.05848 0)
(0.0327623 0.136784 0)
(0.0375121 0.167749 0)
(0.039371 0.168788 0)
(0.0375535 0.148245 0)
(0.0346079 0.1211 0)
(0.0318805 0.0947446 0)
(0.0305997 0.0731343 0)
(0.0290992 0.0624183 0)
(0.0251105 0.0692661 0)
(0.0176022 0.0809778 0)
(0.0103308 0.101198 0)
(-0.000214894 0.132598 0)
(-0.00933113 0.177823 0)
(-0.0160124 0.22018 0)
(-0.0179841 0.216766 0)
(-0.0116796 0.147009 0)
(-0.00209456 0.0179849 0)
(0.00192661 -0.131758 0)
(0.00205021 -0.304236 0)
(0.00017709 -0.496263 0)
(0.001427 -0.519445 0)
(0.00382284 -0.345266 0)
(0.00632616 -0.199133 0)
(0.0102757 -0.0707255 0)
(0.0166188 0.0376532 0)
(0.0256133 0.120107 0)
(0.0319328 0.157082 0)
(0.036651 0.161878 0)
(0.0386181 0.150213 0)
(0.0405093 0.12304 0)
(0.0395463 0.0995856 0)
(0.037633 0.0780252 0)
(0.0357277 0.0675217 0)
(0.0326562 0.0782804 0)
(0.026037 0.0962728 0)
(0.0179365 0.123238 0)
(0.00559854 0.156898 0)
(-0.00347636 0.197657 0)
(-0.00982405 0.226071 0)
(-0.00789766 0.210447 0)
(-0.000271687 0.133307 0)
(0.00631433 0.00641923 0)
(0.00523774 -0.134335 0)
(0.00344019 -0.30429 0)
(0.000964476 -0.497726 0)
(4.6068e-06 -0.523595 0)
(0.000315383 -0.347888 0)
(-0.00017827 -0.202222 0)
(0.00100035 -0.0754054 0)
(0.00447069 0.0274581 0)
(0.0112019 0.102726 0)
(0.0195952 0.143901 0)
(0.0260811 0.150892 0)
(0.0323332 0.139612 0)
(0.0382087 0.121128 0)
(0.0383535 0.105684 0)
(0.0373734 0.0866414 0)
(0.0347359 0.0780342 0)
(0.0306324 0.0924172 0)
(0.0245262 0.119111 0)
(0.016905 0.148695 0)
(0.00885839 0.179484 0)
(0.00299464 0.212022 0)
(0.00019853 0.229577 0)
(0.00362288 0.20078 0)
(0.0109042 0.119072 0)
(0.013098 0.00597165 0)
(0.00852486 -0.129361 0)
(0.00561395 -0.299587 0)
(0.00208356 -0.493716 0)
(-0.000922003 -0.523713 0)
(-0.00226275 -0.346909 0)
(-0.00521906 -0.198143 0)
(-0.00704993 -0.0757846 0)
(-0.00567553 0.0190929 0)
(-0.00204851 0.0872621 0)
(0.00692433 0.124617 0)
(0.0140974 0.130195 0)
(0.0199671 0.119477 0)
(0.0248372 0.110458 0)
(0.0278804 0.101406 0)
(0.0299451 0.0885762 0)
(0.0306776 0.0861183 0)
(0.0262888 0.102453 0)
(0.022136 0.128799 0)
(0.0168313 0.159945 0)
(0.0112779 0.188795 0)
(0.00810078 0.218896 0)
(0.0080767 0.227106 0)
(0.0135337 0.189471 0)
(0.0169812 0.114492 0)
(0.0154796 0.0127042 0)
(0.0124618 -0.121969 0)
(0.00780629 -0.291832 0)
(0.00244883 -0.487076 0)
(-0.00138047 -0.520879 0)
(-0.00315214 -0.343332 0)
(-0.00591226 -0.192077 0)
(-0.00836326 -0.0720863 0)
(-0.00838351 0.0168787 0)
(-0.0052697 0.0760641 0)
(0.00166946 0.107931 0)
(0.00641964 0.115915 0)
(0.0097499 0.108725 0)
(0.0109851 0.0998396 0)
(0.0149261 0.0932127 0)
(0.016321 0.0856632 0)
(0.0179418 0.0877048 0)
(0.016158 0.110446 0)
(0.0129631 0.140116 0)
(0.00871846 0.171639 0)
(0.00541115 0.198263 0)
(0.00460245 0.216674 0)
(0.00894386 0.216886 0)
(0.0138788 0.18322 0)
(0.0166925 0.114387 0)
(0.0156019 0.0175529 0)
(0.0140752 -0.114345 0)
(0.00789306 -0.279226 0)
(0.0021309 -0.47758 0)
(-0.000962663 -0.517882 0)
(-0.00315443 -0.341055 0)
(-0.00478653 -0.190618 0)
(-0.00418935 -0.0704111 0)
(-0.00368998 0.0132608 0)
(-0.00104887 0.0674274 0)
(0.00267802 0.0974375 0)
(0.005339 0.107276 0)
(0.00602384 0.103039 0)
(0.00519379 0.0948848 0)
(0.00480928 0.088009 0)
(0.00238485 0.0844586 0)
(-0.000474282 0.0892516 0)
(-0.00431954 0.114635 0)
(-0.00606691 0.147475 0)
(-0.00757499 0.174374 0)
(-0.00559539 0.197887 0)
(-0.00132148 0.209094 0)
(0.00345822 0.204793 0)
(0.00886446 0.175449 0)
(0.013342 0.112908 0)
(0.0132994 0.0211844 0)
(0.0124716 -0.106375 0)
(0.00633982 -0.267449 0)
(0.00110647 -0.470994 0)
(-0.0011545 -0.514929 0)
(-0.00401882 -0.337557 0)
(-0.00551408 -0.19028 0)
(-0.00462599 -0.0755687 0)
(-0.00208101 0.00749951 0)
(0.00160519 0.0620977 0)
(0.00497808 0.0942168 0)
(0.00654809 0.107298 0)
(0.00581963 0.109109 0)
(0.0016356 0.103977 0)
(-0.00392963 0.102814 0)
(-0.0123049 0.103131 0)
(-0.0195499 0.104985 0)
(-0.0243231 0.120713 0)
(-0.0241435 0.147381 0)
(-0.0221742 0.170177 0)
(-0.0172077 0.185344 0)
(-0.00968337 0.193608 0)
(-0.00484437 0.193259 0)
(0.00243083 0.162102 0)
(0.0077295 0.104933 0)
(0.00955915 0.0200246 0)
(0.00862367 -0.100257 0)
(0.00380876 -0.259651 0)
(0.000940508 -0.468081 0)
(-0.00145508 -0.509483 0)
(-0.00571357 -0.332003 0)
(-0.00805739 -0.18851 0)
(-0.00798541 -0.0792407 0)
(-0.0058303 -0.000802812 0)
(-0.00196762 0.0513106 0)
(0.00253975 0.0870679 0)
(0.00268283 0.106069 0)
(0.000996836 0.115558 0)
(-0.0041632 0.120594 0)
(-0.0116849 0.123728 0)
(-0.0187234 0.123733 0)
(-0.0242805 0.120711 0)
(-0.0285652 0.128106 0)
(-0.0294735 0.143664 0)
(-0.0266621 0.159733 0)
(-0.020642 0.169803 0)
(-0.0144598 0.180101 0)
(-0.00754056 0.176872 0)
(0.000652881 0.149167 0)
(0.00563649 0.0970397 0)
(0.00686171 0.019037 0)
(0.00556264 -0.0936081 0)
(0.00308274 -0.254248 0)
(0.00085387 -0.466599 0)
(-0.00181048 -0.501955 0)
(-0.00704526 -0.323159 0)
(-0.0112269 -0.184528 0)
(-0.0115605 -0.0801491 0)
(-0.011195 -0.00675311 0)
(-0.00808784 0.0429832 0)
(-0.00596204 0.0834246 0)
(-0.00577707 0.107283 0)
(-0.00802409 0.123199 0)
(-0.0108741 0.131625 0)
(-0.0139215 0.135686 0)
(-0.0175171 0.136298 0)
(-0.0202054 0.133002 0)
(-0.0217511 0.137886 0)
(-0.0220251 0.145692 0)
(-0.0192791 0.152663 0)
(-0.0154185 0.159519 0)
(-0.0109198 0.167463 0)
(-0.00378583 0.161844 0)
(0.00306029 0.138005 0)
(0.00632806 0.0939311 0)
(0.00681045 0.0207989 0)
(0.00582205 -0.0912534 0)
(0.00364491 -0.251398 0)
(0.00192129 -0.465224 0)
(-0.00220199 -0.491948 0)
(-0.00802033 -0.31106 0)
(-0.0139961 -0.177107 0)
(-0.0159366 -0.0769465 0)
(-0.0164238 -0.00588025 0)
(-0.014662 0.0447393 0)
(-0.0136967 0.0858645 0)
(-0.0122135 0.111824 0)
(-0.0115747 0.125028 0)
(-0.0111717 0.131802 0)
(-0.0112252 0.138877 0)
(-0.0126299 0.140156 0)
(-0.0130387 0.135057 0)
(-0.0127016 0.138096 0)
(-0.0110993 0.143179 0)
(-0.00846196 0.149319 0)
(-0.00643727 0.15477 0)
(-0.00375074 0.157127 0)
(0.00172833 0.150078 0)
(0.00625452 0.128641 0)
(0.00871597 0.0921744 0)
(0.00847477 0.0232467 0)
(0.00869231 -0.0904327 0)
(0.00525061 -0.246935 0)
(0.00336668 -0.461517 0)
(-0.00146669 -0.483551 0)
(-0.00577296 -0.301002 0)
(-0.0118312 -0.168079 0)
(-0.0152055 -0.0747696 0)
(-0.0157715 -0.00954826 0)
(-0.014419 0.0404155 0)
(-0.0119794 0.079387 0)
(-0.00850307 0.103226 0)
(-0.00522048 0.118563 0)
(-0.00439102 0.128494 0)
(-0.00403266 0.13814 0)
(-0.00492479 0.140483 0)
(-0.0042923 0.1368 0)
(-0.003813 0.138057 0)
(-0.00254792 0.141248 0)
(-0.00152359 0.146503 0)
(0.00010976 0.150484 0)
(0.00149732 0.149211 0)
(0.00457144 0.141203 0)
(0.00723379 0.12177 0)
(0.0090457 0.0890395 0)
(0.00975091 0.0222866 0)
(0.0109572 -0.0902974 0)
(0.00617419 -0.241028 0)
(0.00402924 -0.453949 0)
(-0.000711108 -0.477705 0)
(-0.00358958 -0.293628 0)
(-0.00614803 -0.15839 0)
(-0.00946686 -0.0699906 0)
(-0.0103949 -0.010611 0)
(-0.00984875 0.0369904 0)
(-0.00721668 0.0717746 0)
(-0.00363541 0.0961887 0)
(-0.000957614 0.112125 0)
(-0.000872529 0.12598 0)
(-0.000142401 0.13754 0)
(0.000987686 0.140193 0)
(0.00381138 0.135029 0)
(0.00445496 0.137914 0)
(0.00476264 0.141579 0)
(0.00364129 0.145093 0)
(0.00334208 0.148098 0)
(0.00370201 0.146072 0)
(0.00537994 0.136636 0)
(0.00664679 0.117302 0)
(0.00904319 0.0844977 0)
(0.010164 0.0197424 0)
(0.0111178 -0.0875201 0)
(0.00633044 -0.232751 0)
(0.00408424 -0.444687 0)
(4.40369e-05 -0.476076 0)
(-0.000676594 -0.292658 0)
(-0.000575518 -0.157501 0)
(-0.000713407 -0.0672959 0)
(-0.00228947 -0.0103447 0)
(-0.00314816 0.0339715 0)
(-0.00148234 0.0649977 0)
(0.000905405 0.0896953 0)
(0.00264672 0.110213 0)
(0.00336038 0.123365 0)
(0.00556024 0.131195 0)
(0.00849882 0.133644 0)
(0.0120862 0.132019 0)
(0.0128744 0.138993 0)
(0.0127421 0.147181 0)
(0.00995342 0.153201 0)
(0.00746118 0.153088 0)
(0.00654597 0.146247 0)
(0.0056696 0.13456 0)
(0.00665885 0.115905 0)
(0.00765128 0.0811834 0)
(0.00878899 0.016754 0)
(0.00820025 -0.0854664 0)
(0.00501284 -0.227448 0)
(0.00341854 -0.436441 0)
(0.000226867 -0.477166 0)
(0.000505386 -0.294197 0)
(0.00134157 -0.159476 0)
(0.0034003 -0.0674588 0)
(0.00406581 -0.00789399 0)
(0.00373123 0.0341632 0)
(0.00485689 0.0629977 0)
(0.00622359 0.086401 0)
(0.00787321 0.106238 0)
(0.00948444 0.118164 0)
(0.0115412 0.125215 0)
(0.0136232 0.128607 0)
(0.0159972 0.129444 0)
(0.0163899 0.139843 0)
(0.0153556 0.152249 0)
(0.0133497 0.161201 0)
(0.0106426 0.15975 0)
(0.00756285 0.152433 0)
(0.00402774 0.137554 0)
(0.00336452 0.115074 0)
(0.00330421 0.081491 0)
(0.00508682 0.0138495 0)
(0.00456088 -0.0813525 0)
(0.00350032 -0.223597 0)
(0.00287968 -0.429304 0)
(-0.00017506 -0.478827 0)
(-0.000190344 -0.296834 0)
(0.000668218 -0.163586 0)
(0.00336742 -0.0742299 0)
(0.00631924 -0.0123302 0)
(0.00848618 0.0309729 0)
(0.0100817 0.0600397 0)
(0.0114122 0.0833959 0)
(0.0133663 0.104412 0)
(0.0144343 0.116818 0)
(0.0155091 0.123634 0)
(0.0162004 0.126945 0)
(0.016258 0.129788 0)
(0.01442 0.142663 0)
(0.0105881 0.157194 0)
(0.00784256 0.166985 0)
(0.00450554 0.167778 0)
(0.00100978 0.160457 0)
(-0.00298006 0.142614 0)
(-0.00541753 0.116439 0)
(-0.00466718 0.0772941 0)
(-0.00190204 0.00952319 0)
(-0.000396264 -0.0835846 0)
(0.00218624 -0.225797 0)
(0.00162604 -0.425349 0)
(-0.00107287 -0.478408 0)
(-0.00175853 -0.297513 0)
(-0.00170608 -0.167986 0)
(0.00112362 -0.0814486 0)
(0.0039499 -0.0193577 0)
(0.00748909 0.0245283 0)
(0.01007 0.0561825 0)
(0.0116625 0.0804269 0)
(0.0130664 0.101161 0)
(0.0151516 0.113738 0)
(0.015369 0.122991 0)
(0.0151003 0.129177 0)
(0.0125153 0.137664 0)
(0.00801961 0.154868 0)
(0.00215937 0.168891 0)
(-0.00201625 0.17578 0)
(-0.00588176 0.176246 0)
(-0.00884411 0.167408 0)
(-0.0120097 0.149532 0)
(-0.0139755 0.11876 0)
(-0.0120592 0.0715716 0)
(-0.00773781 0.00189439 0)
(-0.00376676 -0.0909467 0)
(0.00090297 -0.231465 0)
(0.000749317 -0.423256 0)
(-0.00182147 -0.475743 0)
(-0.00325579 -0.295618 0)
(-0.00458759 -0.171024 0)
(-0.00215699 -0.087607 0)
(0.000540003 -0.0265779 0)
(0.00366921 0.0167665 0)
(0.00714017 0.0504561 0)
(0.00927019 0.0757951 0)
(0.0114385 0.0959603 0)
(0.0121969 0.111475 0)
(0.0113886 0.124501 0)
(0.00908254 0.135258 0)
(0.00488731 0.149231 0)
(-0.000432634 0.16856 0)
(-0.00615258 0.183697 0)
(-0.0113619 0.189042 0)
(-0.0153639 0.18449 0)
(-0.0181291 0.173176 0)
(-0.0194106 0.152417 0)
(-0.0181464 0.116436 0)
(-0.0143284 0.063073 0)
(-0.0096963 -0.00992376 0)
(-0.00430139 -0.103243 0)
(-5.77245e-05 -0.237809 0)
(0.000161999 -0.423338 0)
(-0.00237702 -0.471049 0)
(-0.00437029 -0.291518 0)
(-0.00718163 -0.172147 0)
(-0.00633667 -0.0931393 0)
(-0.00411092 -0.031681 0)
(-0.00163154 0.00981266 0)
(0.00147953 0.0439305 0)
(0.00325494 0.071151 0)
(0.00499303 0.0951327 0)
(0.00451365 0.11514 0)
(0.00346273 0.131809 0)
(2.98027e-05 0.147461 0)
(-0.00471486 0.163471 0)
(-0.0103495 0.184575 0)
(-0.0158146 0.19839 0)
(-0.0197902 0.200025 0)
(-0.0220645 0.193428 0)
(-0.0235794 0.177055 0)
(-0.021863 0.150525 0)
(-0.0179986 0.109484 0)
(-0.0131391 0.0543276 0)
(-0.00829833 -0.0192137 0)
(-0.00311702 -0.114159 0)
(-0.000259759 -0.243113 0)
(-0.000352409 -0.424376 0)
(-0.00272859 -0.464514 0)
(-0.00566732 -0.285121 0)
(-0.00928028 -0.16771 0)
(-0.0112593 -0.0947266 0)
(-0.0105382 -0.0367919 0)
(-0.00904212 0.00328687 0)
(-0.00817338 0.0377465 0)
(-0.00736799 0.0667131 0)
(-0.00662673 0.0928151 0)
(-0.00657579 0.115936 0)
(-0.00711593 0.136839 0)
(-0.00966471 0.156342 0)
(-0.0129151 0.175769 0)
(-0.0168067 0.197757 0)
(-0.0200997 0.209234 0)
(-0.0222104 0.207513 0)
(-0.0230752 0.196426 0)
(-0.0220894 0.175122 0)
(-0.0186318 0.142325 0)
(-0.0140788 0.100174 0)
(-0.00951352 0.0439269 0)
(-0.00481994 -0.0309138 0)
(-0.00153613 -0.122419 0)
(0.000277949 -0.247819 0)
(-0.000542845 -0.425178 0)
(-0.00293237 -0.455888 0)
(-0.00716242 -0.277129 0)
(-0.0111951 -0.160258 0)
(-0.0145367 -0.0893291 0)
(-0.0169123 -0.0359398 0)
(-0.0179163 0.00476525 0)
(-0.0188206 0.0385587 0)
(-0.0194866 0.0660869 0)
(-0.0194238 0.0922044 0)
(-0.0183121 0.116108 0)
(-0.0171263 0.139237 0)
(-0.0174901 0.161689 0)
(-0.0188535 0.182208 0)
(-0.0201358 0.204477 0)
(-0.0205253 0.21322 0)
(-0.0195902 0.208851 0)
(-0.0178359 0.194969 0)
(-0.0149413 0.171013 0)
(-0.0112555 0.135019 0)
(-0.00681145 0.0896276 0)
(-0.00269755 0.0349658 0)
(0.000416652 -0.0381798 0)
(0.00121865 -0.127501 0)
(0.00120807 -0.249746 0)
(-0.00035907 -0.425476 0)
(-0.00259221 -0.446672 0)
(-0.00730893 -0.268383 0)
(-0.0118706 -0.152658 0)
(-0.0155005 -0.0817636 0)
(-0.0185483 -0.0303635 0)
(-0.0200638 0.0072021 0)
(-0.0214916 0.0390188 0)
(-0.0235052 0.0664559 0)
(-0.0250617 0.0899628 0)
(-0.0260107 0.111641 0)
(-0.0252348 0.136322 0)
(-0.0242818 0.160812 0)
(-0.0228976 0.183009 0)
(-0.0211641 0.205012 0)
(-0.018556 0.211972 0)
(-0.0149551 0.204702 0)
(-0.0110532 0.188349 0)
(-0.00636394 0.163654 0)
(-0.00209558 0.127769 0)
(0.00204178 0.0824058 0)
(0.00396809 0.027939 0)
(0.00556194 -0.0408609 0)
(0.00348097 -0.127416 0)
(0.00216297 -0.248929 0)
(0.000241537 -0.42504 0)
(-0.00241894 -0.436652 0)
(-0.00735176 -0.257358 0)
(-0.0120483 -0.142645 0)
(-0.0157179 -0.0735934 0)
(-0.018774 -0.0249856 0)
(-0.0200878 0.0118804 0)
(-0.0212106 0.0454706 0)
(-0.0235909 0.0749474 0)
(-0.0252476 0.0980719 0)
(-0.0270308 0.116416 0)
(-0.0274257 0.136123 0)
(-0.0260747 0.157993 0)
(-0.0235706 0.177107 0)
(-0.0200218 0.198526 0)
(-0.0153007 0.202465 0)
(-0.00949547 0.194808 0)
(-0.00520383 0.179303 0)
(0.000150222 0.153475 0)
(0.00413552 0.118152 0)
(0.00860319 0.0743559 0)
(0.00885379 0.0254929 0)
(0.00905778 -0.0407477 0)
(0.00572394 -0.124671 0)
(0.00359438 -0.247846 0)
(0.00160189 -0.423409 0)
(-0.0016538 -0.427979 0)
(-0.00615801 -0.248007 0)
(-0.00966724 -0.135109 0)
(-0.0124789 -0.0666989 0)
(-0.0158971 -0.021123 0)
(-0.0169585 0.0137116 0)
(-0.0176684 0.0476798 0)
(-0.018323 0.076611 0)
(-0.0184237 0.0992457 0)
(-0.0200155 0.117731 0)
(-0.0216554 0.135879 0)
(-0.0221328 0.1546 0)
(-0.0195525 0.170412 0)
(-0.0146193 0.190646 0)
(-0.00894985 0.193205 0)
(-0.00259239 0.185349 0)
(0.0026561 0.169433 0)
(0.00772904 0.143818 0)
(0.01136 0.111339 0)
(0.0138716 0.0712902 0)
(0.0136102 0.0259464 0)
(0.0126714 -0.037017 0)
(0.0092636 -0.119097 0)
(0.00609781 -0.242906 0)
(0.00323137 -0.417364 0)
(-0.000915434 -0.421832 0)
(-0.00484983 -0.241982 0)
(-0.00677129 -0.130893 0)
(-0.00803017 -0.0610914 0)
(-0.0117121 -0.0163896 0)
(-0.0135302 0.0150145 0)
(-0.0145975 0.0473587 0)
(-0.0144461 0.0759339 0)
(-0.0145859 0.102199 0)
(-0.0163447 0.123819 0)
(-0.0184623 0.141524 0)
(-0.0198488 0.154972 0)
(-0.0173538 0.16204 0)
(-0.0122076 0.176545 0)
(-0.00600238 0.178168 0)
(9.81219e-05 0.169944 0)
(0.00610612 0.157258 0)
(0.0109517 0.13521 0)
(0.0141234 0.105643 0)
(0.0162569 0.0689637 0)
(0.01599 0.0277588 0)
(0.0142873 -0.0326074 0)
(0.0121673 -0.113682 0)
(0.00794649 -0.234554 0)
(0.00447572 -0.408116 0)
(-0.000732311 -0.417114 0)
(-0.00421424 -0.236167 0)
(-0.00603637 -0.130319 0)
(-0.00520329 -0.0565606 0)
(-0.00914683 -0.0103306 0)
(-0.0124154 0.0197827 0)
(-0.0156152 0.0492624 0)
(-0.0164837 0.0760351 0)
(-0.016952 0.102996 0)
(-0.017332 0.128036 0)
(-0.0173745 0.145461 0)
(-0.0169463 0.155501 0)
(-0.0143593 0.156092 0)
(-0.00985857 0.166703 0)
(-0.00470636 0.167862 0)
(-0.000296575 0.159494 0)
(0.00440921 0.146052 0)
(0.00883975 0.125716 0)
(0.0120822 0.0995885 0)
(0.0138472 0.0666176 0)
(0.0139823 0.0290356 0)
(0.01267 -0.0302933 0)
(0.0126556 -0.109284 0)
(0.00815226 -0.224611 0)
(0.00492221 -0.396491 0)
(-0.00135847 -0.413337 0)
(-0.00397156 -0.230847 0)
(-0.00664509 -0.131015 0)
(-0.00506852 -0.0553765 0)
(-0.00742199 -0.00369362 0)
(-0.00996228 0.0270666 0)
(-0.0131089 0.0546633 0)
(-0.015275 0.0779737 0)
(-0.0169997 0.104367 0)
(-0.0171529 0.126803 0)
(-0.0157407 0.14283 0)
(-0.0145353 0.15106 0)
(-0.0119045 0.148987 0)
(-0.00802776 0.157541 0)
(-0.00280205 0.15953 0)
(0.000693645 0.152327 0)
(0.00383569 0.138165 0)
(0.00649301 0.119427 0)
(0.008882 0.0956628 0)
(0.0099501 0.0658873 0)
(0.0106802 0.0291524 0)
(0.0112522 -0.0305458 0)
(0.0122506 -0.107115 0)
(0.00763708 -0.215992 0)
(0.00472774 -0.385446 0)
(-0.00240356 -0.407894 0)
(-0.00473219 -0.225003 0)
(-0.008019 -0.128742 0)
(-0.00724211 -0.0560651 0)
(-0.00671695 -0.00153005 0)
(-0.00885405 0.0307126 0)
(-0.0108373 0.0601976 0)
(-0.0136876 0.0845808 0)
(-0.0152836 0.108568 0)
(-0.0155304 0.127317 0)
(-0.0142537 0.141798 0)
(-0.0133763 0.150256 0)
(-0.0109106 0.144874 0)
(-0.0079707 0.148982 0)
(-0.00469339 0.149656 0)
(-0.00155742 0.147153 0)
(0.000444161 0.134151 0)
(0.00187927 0.114996 0)
(0.00320179 0.0921226 0)
(0.0050846 0.0620771 0)
(0.00857543 0.0245052 0)
(0.0110619 -0.0356107 0)
(0.0111454 -0.104454 0)
(0.00679957 -0.207757 0)
(0.00423703 -0.375005 0)
(-0.00304184 -0.400823 0)
(-0.0057352 -0.219119 0)
(-0.00988665 -0.125282 0)
(-0.0105348 -0.0593935 0)
(-0.00924455 -0.000778374 0)
(-0.0107689 0.0342852 0)
(-0.0126141 0.0654964 0)
(-0.0148607 0.0891222 0)
(-0.0155436 0.110356 0)
(-0.0155338 0.126542 0)
(-0.0146678 0.140575 0)
(-0.0136794 0.147667 0)
(-0.0113069 0.141462 0)
(-0.00975665 0.146286 0)
(-0.00898427 0.146102 0)
(-0.00744201 0.141692 0)
(-0.00480534 0.130483 0)
(-0.00251923 0.112502 0)
(-0.000285229 0.0887304 0)
(0.00357641 0.0542144 0)
(0.00930995 0.0160993 0)
(0.0108733 -0.0369337 0)
(0.0106517 -0.0993588 0)
(0.00627662 -0.198859 0)
(0.00369423 -0.365461 0)
(-0.00401353 -0.392848 0)
(-0.00663653 -0.211036 0)
(-0.0121396 -0.11934 0)
(-0.0145198 -0.0584147 0)
(-0.0152492 -0.00153024 0)
(-0.0155619 0.0366303 0)
(-0.0166867 0.0691507 0)
(-0.0175598 0.0916888 0)
(-0.0180879 0.110659 0)
(-0.0179903 0.126629 0)
(-0.0185807 0.140201 0)
(-0.0181 0.146926 0)
(-0.0167532 0.140612 0)
(-0.0167432 0.14623 0)
(-0.0160567 0.144594 0)
(-0.0144052 0.13729 0)
(-0.011329 0.123222 0)
(-0.00809891 0.103979 0)
(-0.00351092 0.0784114 0)
(0.00184536 0.0401792 0)
(0.00656501 0.00693552 0)
(0.00651891 -0.0386739 0)
(0.00746289 -0.0979284 0)
(0.00416751 -0.192203 0)
(0.00262071 -0.3578 0)
(-0.00482281 -0.381769 0)
(-0.00767159 -0.199585 0)
(-0.0140838 -0.109564 0)
(-0.0172474 -0.0519073 0)
(-0.0208808 0.00143792 0)
(-0.0206915 0.0368879 0)
(-0.0215453 0.0699323 0)
(-0.0222045 0.0918243 0)
(-0.0227341 0.111399 0)
(-0.0231077 0.128101 0)
(-0.0239873 0.141821 0)
(-0.0232729 0.14526 0)
(-0.023506 0.141605 0)
(-0.0234938 0.147135 0)
(-0.0227874 0.142763 0)
(-0.0200544 0.132428 0)
(-0.0157078 0.116119 0)
(-0.0111439 0.0939931 0)
(-0.00546977 0.0670309 0)
(-0.000825992 0.0302867 0)
(0.00178156 0.00304637 0)
(0.00211518 -0.040161 0)
(0.00396731 -0.0979923 0)
(0.00180495 -0.189225 0)
(0.00153975 -0.353483 0)
(-0.00481435 -0.370823 0)
(-0.00728895 -0.190218 0)
(-0.0122003 -0.0995911 0)
(-0.0158882 -0.0435553 0)
(-0.019752 0.00547664 0)
(-0.0200725 0.0382321 0)
(-0.0204825 0.0728351 0)
(-0.0214362 0.0943318 0)
(-0.0219448 0.112678 0)
(-0.0231009 0.129323 0)
(-0.0233858 0.14194 0)
(-0.0228733 0.14678 0)
(-0.0242023 0.143845 0)
(-0.0243159 0.147999 0)
(-0.022784 0.138691 0)
(-0.0187622 0.124278 0)
(-0.0137434 0.105134 0)
(-0.00831404 0.0819908 0)
(-0.00278633 0.0580837 0)
(0.000341564 0.0248362 0)
(0.00200167 0.00101278 0)
(0.00278082 -0.0425085 0)
(0.00323807 -0.0978853 0)
(0.00156378 -0.186984 0)
(0.00132383 -0.350417 0)
(-0.00443531 -0.360387 0)
(-0.00646511 -0.183904 0)
(-0.00948849 -0.0928663 0)
(-0.0117116 -0.0365449 0)
(-0.0144457 0.00815713 0)
(-0.0141845 0.0366804 0)
(-0.0131002 0.0717067 0)
(-0.012241 0.0945933 0)
(-0.0122083 0.115439 0)
(-0.0131323 0.13144 0)
(-0.013023 0.141223 0)
(-0.0132145 0.147825 0)
(-0.0132417 0.14699 0)
(-0.0141089 0.14806 0)
(-0.0133188 0.132828 0)
(-0.011084 0.11543 0)
(-0.007683 0.0951211 0)
(-0.00403247 0.0715813 0)
(0.000416527 0.0504939 0)
(0.00257758 0.0214166 0)
(0.00433367 -0.000992345 0)
(0.00413809 -0.0429784 0)
(0.00241981 -0.0966545 0)
(0.00148785 -0.187312 0)
(0.00131371 -0.348055 0)
(-0.00389455 -0.3512 0)
(-0.00539916 -0.177511 0)
(-0.00751761 -0.0892335 0)
(-0.0075776 -0.0331466 0)
(-0.00784005 0.00871089 0)
(-0.00676386 0.033818 0)
(-0.00555812 0.0684768 0)
(-0.00455732 0.0927928 0)
(-0.00487332 0.115066 0)
(-0.00501247 0.131149 0)
(-0.00471699 0.141224 0)
(-0.00444938 0.147412 0)
(-0.00343575 0.146746 0)
(-0.00217587 0.150032 0)
(-0.00207917 0.134189 0)
(-0.00240738 0.114138 0)
(-0.0014965 0.0910052 0)
(0.000839796 0.065228 0)
(0.00322125 0.0450934 0)
(0.00497041 0.0178682 0)
(0.00640373 -0.0023191 0)
(0.0045091 -0.0385086 0)
(0.00295908 -0.094089 0)
(0.00208429 -0.186908 0)
(0.00142668 -0.345294 0)
(-0.00348015 -0.344051 0)
(-0.0041141 -0.173953 0)
(-0.00524337 -0.0891487 0)
(-0.00390068 -0.0367499 0)
(-0.00185838 0.00536816 0)
(-0.000835244 0.0296112 0)
(-0.000591385 0.0657918 0)
(-0.000236528 0.0927818 0)
(-0.000616171 0.116722 0)
(4.35545e-05 0.130684 0)
(0.000543023 0.139974 0)
(0.00204538 0.146636 0)
(0.00348163 0.143005 0)
(0.00552899 0.147725 0)
(0.00698196 0.135721 0)
(0.00681807 0.115788 0)
(0.00738403 0.0890393 0)
(0.0077586 0.0623421 0)
(0.0084151 0.0420968 0)
(0.0081579 0.0163084 0)
(0.00743718 -0.000295132 0)
(0.00501233 -0.0356145 0)
(0.00470434 -0.0930262 0)
(0.00357065 -0.185018 0)
(0.00174505 -0.341439 0)
(-0.00340036 -0.337841 0)
(-0.00348413 -0.171815 0)
(-0.00462067 -0.0904935 0)
(-0.00281601 -0.0407928 0)
(-0.00118561 0.00207088 0)
(-0.000970735 0.0298576 0)
(-0.0013177 0.0675843 0)
(-0.000647193 0.0937287 0)
(0.00134598 0.115265 0)
(0.00412218 0.128849 0)