/*--------------------------------*- C++ -*----------------------------------*\
| =========                 |                                                 |
| \\      /  F ield         | OpenFOAM: The Open Source CFD Toolbox           |
|  \\    /   O peration     | Version:  2.3.0                                 |
|   \\  /    A nd           | Web:      www.OpenFOAM.org                      |
|    \\/     M anipulation  |                                                 |
\*---------------------------------------------------------------------------*/
FoamFile
{
    version     2.0;
    format      ascii;
    class       volScalarField;
    location    "0.162";
    object      epsilon;
}
// * * * * * * * * * * * * * * * * * * * * * * * * * * * * * * * * * * * * * //

dimensions      [0 2 -3 0 0 0 0];

internalField   nonuniform List<scalar> 
545
(
2.07303e+08
1.97408e+08
1.81619e+08
1.67997e+08
1.58674e+08
2.11315e+08
1.97864e+08
1.81136e+08
1.67166e+08
1.57117e+08
2.18214e+08
1.98234e+08
1.79977e+08
1.6544e+08
1.54331e+08
2.28646e+08
1.97933e+08
1.78118e+08
1.62971e+08
1.50073e+08
2.4411e+08
1.96234e+08
1.75978e+08
1.60325e+08
1.44073e+08
1.53908e+08
1.51303e+08
1.50473e+08
1.5021e+08
1.50125e+08
1.50097e+08
1.50085e+08
1.5008e+08
1.50076e+08
1.50072e+08
1.50069e+08
1.50066e+08
1.50063e+08
1.5006e+08
1.50057e+08
1.50055e+08
1.50052e+08
1.5005e+08
1.50047e+08
1.50045e+08
1.50043e+08
1.50041e+08
1.50039e+08
1.50037e+08
1.50035e+08
1.50033e+08
1.50032e+08
1.5003e+08
1.50029e+08
1.50027e+08
1.50026e+08
1.50025e+08
1.50024e+08
1.50023e+08
1.50022e+08
1.50021e+08
1.5002e+08
1.5002e+08
1.50019e+08
1.50019e+08
1.50018e+08
1.50018e+08
1.50018e+08
1.50017e+08
1.50017e+08
1.52716e+08
1.50938e+08
1.50358e+08
1.50174e+08
1.50114e+08
1.50093e+08
1.50084e+08
1.50079e+08
1.50075e+08
1.50072e+08
1.50069e+08
1.50066e+08
1.50063e+08
1.5006e+08
1.50057e+08
1.50055e+08
1.50052e+08
1.5005e+08
1.50047e+08
1.50045e+08
1.50043e+08
1.50041e+08
1.50039e+08
1.50037e+08
1.50035e+08
1.50033e+08
1.50032e+08
1.5003e+08
1.50029e+08
1.50027e+08
1.50026e+08
1.50025e+08
1.50024e+08
1.50023e+08
1.50022e+08
1.50021e+08
1.5002e+08
1.50019e+08
1.50019e+08
1.50018e+08
1.50018e+08
1.50018e+08
1.50017e+08
1.50017e+08
1.50017e+08
1.50981e+08
1.50327e+08
1.50162e+08
1.50112e+08
1.50095e+08
1.50087e+08
1.50082e+08
1.50078e+08
1.50075e+08
1.50072e+08
1.50069e+08
1.50066e+08
1.50063e+08
1.5006e+08
1.50057e+08
1.50055e+08
1.50052e+08
1.5005e+08
1.50047e+08
1.50045e+08
1.50043e+08
1.50041e+08
1.50039e+08
1.50037e+08
1.50035e+08
1.50033e+08
1.50032e+08
1.5003e+08
1.50029e+08
1.50027e+08
1.50026e+08
1.50025e+08
1.50024e+08
1.50023e+08
1.50022e+08
1.50021e+08
1.5002e+08
1.50019e+08
1.50019e+08
1.50018e+08
1.50018e+08
1.50018e+08
1.50017e+08
1.50017e+08
1.50017e+08
1.48725e+08
1.49614e+08
1.49942e+08
1.50044e+08
1.50074e+08
1.5008e+08
1.5008e+08
1.50078e+08
1.50075e+08
1.50072e+08
1.50069e+08
1.50066e+08
1.50063e+08
1.5006e+08
1.50057e+08
1.50055e+08
1.50052e+08
1.5005e+08
1.50047e+08
1.50045e+08
1.50043e+08
1.50041e+08
1.50039e+08
1.50037e+08
1.50035e+08
1.50033e+08
1.50032e+08
1.5003e+08
1.50029e+08
1.50027e+08
1.50026e+08
1.50025e+08
1.50024e+08
1.50023e+08
1.50022e+08
1.50021e+08
1.5002e+08
1.50019e+08
1.50019e+08
1.50018e+08
1.50018e+08
1.50017e+08
1.50017e+08
1.50017e+08
1.50017e+08
1.46095e+08
1.4901e+08
1.49767e+08
1.49991e+08
1.50057e+08
1.50075e+08
1.50079e+08
1.50077e+08
1.50075e+08
1.50072e+08
1.50069e+08
1.50066e+08
1.50063e+08
1.5006e+08
1.50057e+08
1.50055e+08
1.50052e+08
1.5005e+08
1.50047e+08
1.50045e+08
1.50043e+08
1.50041e+08
1.50039e+08
1.50037e+08
1.50035e+08
1.50033e+08
1.50032e+08
1.5003e+08
1.50029e+08
1.50027e+08
1.50026e+08
1.50025e+08
1.50024e+08
1.50023e+08
1.50022e+08
1.50021e+08
1.5002e+08
1.50019e+08
1.50019e+08
1.50018e+08
1.50018e+08
1.50017e+08
1.50017e+08
1.50017e+08
1.50017e+08
1.46388e+08
1.48827e+08
1.49696e+08
1.49968e+08
1.5005e+08
1.50073e+08
1.50078e+08
1.50077e+08
1.50074e+08
1.50072e+08
1.50069e+08
1.50066e+08
1.50063e+08
1.5006e+08
1.50057e+08
1.50054e+08
1.50052e+08
1.5005e+08
1.50047e+08
1.50045e+08
1.50043e+08
1.50041e+08
1.50039e+08
1.50037e+08
1.50035e+08
1.50033e+08
1.50032e+08
1.5003e+08
1.50029e+08
1.50027e+08
1.50026e+08
1.50025e+08
1.50024e+08
1.50023e+08
1.50022e+08
1.50021e+08
1.5002e+08
1.50019e+08
1.50019e+08
1.50018e+08
1.50018e+08
1.50017e+08
1.50017e+08
1.50017e+08
1.50017e+08
2.4411e+08
1.96234e+08
1.75978e+08
1.60325e+08
1.44073e+08
2.28646e+08
1.97933e+08
1.78118e+08
1.62971e+08
1.50073e+08
2.18214e+08
1.98234e+08
1.79977e+08
1.6544e+08
1.54331e+08
2.11315e+08
1.97864e+08
1.81136e+08
1.67165e+08
1.57117e+08
2.07303e+08
1.97408e+08
1.81619e+08
1.67997e+08
1.58674e+08
1.46095e+08
1.4901e+08
1.49767e+08
1.49991e+08
1.50057e+08
1.50075e+08
1.50079e+08
1.50077e+08
1.50075e+08
1.50072e+08
1.50069e+08
1.50066e+08
1.50063e+08
1.5006e+08
1.50057e+08
1.50055e+08
1.50052e+08
1.5005e+08
1.50047e+08
1.50045e+08
1.50043e+08
1.50041e+08
1.50039e+08
1.50037e+08
1.50035e+08
1.50033e+08
1.50032e+08
1.5003e+08
1.50029e+08
1.50027e+08
1.50026e+08
1.50025e+08
1.50024e+08
1.50023e+08
1.50022e+08
1.50021e+08
1.5002e+08
1.50019e+08
1.50019e+08
1.50018e+08
1.50018e+08
1.50017e+08
1.50017e+08
1.50017e+08
1.50017e+08
1.48725e+08
1.49614e+08
1.49942e+08
1.50044e+08
1.50074e+08
1.5008e+08
1.5008e+08
1.50078e+08
1.50075e+08
1.50072e+08
1.50069e+08
1.50066e+08
1.50063e+08
1.5006e+08
1.50057e+08
1.50055e+08
1.50052e+08
1.5005e+08
1.50047e+08
1.50045e+08
1.50043e+08
1.50041e+08
1.50039e+08
1.50037e+08
1.50035e+08
1.50033e+08
1.50032e+08
1.5003e+08
1.50029e+08
1.50027e+08
1.50026e+08
1.50025e+08
1.50024e+08
1.50023e+08
1.50022e+08
1.50021e+08
1.5002e+08
1.50019e+08
1.50019e+08
1.50018e+08
1.50018e+08
1.50017e+08
1.50017e+08
1.50017e+08
1.50017e+08
1.50981e+08
1.50327e+08
1.50162e+08
1.50112e+08
1.50095e+08
1.50087e+08
1.50082e+08
1.50078e+08
1.50075e+08
1.50072e+08
1.50069e+08
1.50066e+08
1.50063e+08
1.5006e+08
1.50057e+08
1.50055e+08
1.50052e+08
1.5005e+08
1.50047e+08
1.50045e+08
1.50043e+08
1.50041e+08
1.50039e+08
1.50037e+08
1.50035e+08
1.50033e+08
1.50032e+08
1.5003e+08
1.50029e+08
1.50027e+08
1.50026e+08
1.50025e+08
1.50024e+08
1.50023e+08
1.50022e+08
1.50021e+08
1.5002e+08
1.50019e+08
1.50019e+08
1.50018e+08
1.50018e+08
1.50018e+08
1.50017e+08
1.50017e+08
1.50017e+08
1.52716e+08
1.50938e+08
1.50358e+08
1.50174e+08
1.50114e+08
1.50093e+08
1.50084e+08
1.50079e+08
1.50075e+08
1.50072e+08
1.50069e+08
1.50066e+08
1.50063e+08
1.5006e+08
1.50057e+08
1.50055e+08
1.50052e+08
1.5005e+08
1.50047e+08
1.50045e+08
1.50043e+08
1.50041e+08
1.50039e+08
1.50037e+08
1.50035e+08
1.50033e+08
1.50032e+08
1.5003e+08
1.50029e+08
1.50027e+08
1.50026e+08
1.50025e+08
1.50024e+08
1.50023e+08
1.50022e+08
1.50021e+08
1.5002e+08
1.50019e+08
1.50019e+08
1.50018e+08
1.50018e+08
1.50018e+08
1.50017e+08
1.50017e+08
1.50017e+08
1.53908e+08
1.51303e+08
1.50473e+08
1.5021e+08
1.50125e+08
1.50097e+08
1.50085e+08
1.5008e+08
1.50075e+08
1.50072e+08
1.50069e+08
1.50066e+08
1.50063e+08
1.5006e+08
1.50057e+08
1.50055e+08
1.50052e+08
1.5005e+08
1.50047e+08
1.50045e+08
1.50043e+08
1.50041e+08
1.50039e+08
1.50037e+08
1.50035e+08
1.50033e+08
1.50032e+08
1.5003e+08
1.50029e+08
1.50027e+08
1.50026e+08
1.50025e+08
1.50024e+08
1.50023e+08
1.50022e+08
1.50021e+08
1.5002e+08
1.5002e+08
1.50019e+08
1.50018e+08
1.50018e+08
1.50018e+08
1.50017e+08
1.50017e+08
1.50017e+08
)
;

boundaryField
{
    AirInlet
    {
        type            fixedValue;
        value           uniform 0.1;
    }
    WaterInlet
    {
        type            fixedValue;
        value           uniform 0.1;
    }
    ChannelWall
    {
        type            fixedValue;
        value           uniform 0.1;
    }
    Outlet
    {
        type            inletOutlet;
        inletValue      uniform 0.1;
        value           nonuniform List<scalar> 
11
(
1.50017e+08
1.50017e+08
1.50017e+08
1.50017e+08
1.50017e+08
1.50017e+08
1.50017e+08
1.50017e+08
1.50017e+08
1.50017e+08
1.50017e+08
)
;
    }
    FrontAndBack
    {
        type            empty;
    }
}


// ************************************************************************* //
