/*--------------------------------*- C++ -*----------------------------------*\
| =========                 |                                                 |
| \\      /  F ield         | OpenFOAM: The Open Source CFD Toolbox           |
|  \\    /   O peration     | Version:  2.3.0                                 |
|   \\  /    A nd           | Web:      www.OpenFOAM.org                      |
|    \\/     M anipulation  |                                                 |
\*---------------------------------------------------------------------------*/
FoamFile
{
    version     2.0;
    format      ascii;
    class       volScalarField;
    location    "0.428";
    object      alpha.water;
}
// * * * * * * * * * * * * * * * * * * * * * * * * * * * * * * * * * * * * * //

dimensions      [0 0 0 0 0 0 0];

internalField   nonuniform List<scalar> 
545
(
1
1
1
1
1
1
1
1
1
1
1
1
1
1
1
1
1
1
1
1
1
1
1
1
1
1
1
1
1
1
1
1
1
1
1
1
1
1
1
1
1
1
1
1
1
1
1
1
1
1
1
1
1
1
1
1
1
1
1
1
1
1
1
1
1
1
1
1
1
1
1
1
1
1
1
1
1
1
1
1
1
1
1
1
1
1
1
1
1
1
1
1
1
1
1
1
1
1
1
1
1
1
1
1
1
1
1
1
1
1
1
1
1
1
1
1
1
1
1
1
0.999999
0.999999
0.999999
0.999999
0.999999
0.999999
0.999999
0.999999
0.999999
0.999999
0.999999
0.999999
0.999999
0.999999
0.999999
0.999999
0.999999
0.999999
0.999999
0.999999
0.999999
0.999999
0.999999
0.999999
0.999999
0.999999
0.999999
0.999999
0.999999
0.999999
0.999999
0.999999
0.999999
0.999999
0.999999
0.999999
0.999999
0.999999
0.999999
0.999999
1
1
0.999986
0.999965
0.999958
0.999951
0.999945
0.999939
0.999937
0.999935
0.999936
0.999936
0.999937
0.999938
0.999938
0.999938
0.999938
0.999938
0.999938
0.999938
0.999937
0.999937
0.999937
0.999937
0.999937
0.999937
0.999937
0.999937
0.999937
0.999937
0.999937
0.999937
0.999937
0.999937
0.999937
0.999937
0.999936
0.999936
0.999936
0.999936
0.999936
0.999936
0.999936
0.999936
0.999936
1
1
0.99834
0.99668
0.996795
0.996929
0.996505
0.995592
0.995143
0.995015
0.995024
0.99513
0.995243
0.995329
0.995367
0.995376
0.995349
0.995323
0.995291
0.995277
0.99526
0.99524
0.995211
0.995194
0.995168
0.995158
0.995139
0.995136
0.995123
0.995137
0.995145
0.995152
0.995148
0.995131
0.9951
0.995069
0.995032
0.995016
0.994994
0.994997
0.994997
0.995009
0.995004
0.994992
0.994961
0.277921
0.376471
0.391281
0.425319
0.72873
0.997076
0.702489
0.499243
0.492084
0.492074
0.492081
0.662091
0.995378
0.75384
0.495195
0.547626
0.546498
0.546858
0.546526
0.735256
0.995406
0.949589
0.642604
0.410111
0.312745
0.365831
0.439961
0.386962
0.386965
0.483868
0.892303
0.99531
0.995333
0.982906
0.90641
0.44162
0.418388
0.480451
0.457827
0.459392
0.524747
0.890119
0.994462
0.671693
0.647431
1
1
1
1
1
1
1
1
1
1
1
1
1
1
1
1
1
1
1
1
1
1
1
1
1
1
1
0.998348
0.996693
0.996767
0.996903
0.996501
0.995574
0.995145
0.995008
0.995032
0.995131
0.99525
0.995332
0.995378
0.995376
0.995358
0.995319
0.995295
0.995271
0.995256
0.995233
0.99521
0.99518
0.995168
0.995144
0.995139
0.995123
0.995127
0.995127
0.995142
0.995148
0.995145
0.995127
0.995096
0.995055
0.995031
0.995
0.994992
0.99498
0.994993
0.994998
0.994996
0.994979
0.994954
1
1
0.999986
0.999966
0.999957
0.999951
0.999944
0.999939
0.999936
0.999935
0.999936
0.999936
0.999937
0.999938
0.999938
0.999938
0.999938
0.999938
0.999938
0.999937
0.999937
0.999937
0.999937
0.999937
0.999937
0.999937
0.999937
0.999937
0.999937
0.999937
0.999937
0.999937
0.999937
0.999937
0.999937
0.999936
0.999936
0.999936
0.999936
0.999936
0.999936
0.999936
0.999936
0.999936
0.999936
1
1
1
1
1
0.999999
0.999999
0.999999
0.999999
0.999999
0.999999
0.999999
0.999999
0.999999
0.999999
0.999999
0.999999
0.999999
0.999999
0.999999
0.999999
0.999999
0.999999
0.999999
0.999999
0.999999
0.999999
0.999999
0.999999
0.999999
0.999999
0.999999
0.999999
0.999999
0.999999
0.999999
0.999999
0.999999
0.999999
0.999999
0.999999
0.999999
0.999999
0.999999
0.999999
1
1
1
1
1
1
1
1
1
1
1
1
1
1
1
1
1
1
1
1
1
1
1
1
1
1
1
1
1
1
1
1
1
1
1
1
1
1
1
1
1
1
1
1
1
1
1
1
1
1
1
1
1
1
1
1
1
1
1
1
1
1
1
1
1
1
1
1
1
1
1
1
1
1
1
1
1
1
1
1
1
1
1
1
1
1
1
1
1
1
)
;

boundaryField
{
    AirInlet
    {
        type            fixedValue;
        value           uniform 0;
    }
    WaterInlet
    {
        type            fixedValue;
        value           uniform 1;
    }
    ChannelWall
    {
        type            zeroGradient;
    }
    Outlet
    {
        type            inletOutlet;
        inletValue      uniform 0;
        value           nonuniform List<scalar> 
11
(
1
1
0.999999
0.999936
0.994961
0.647431
0.994954
0.999936
0.999999
1
1
)
;
    }
    FrontAndBack
    {
        type            empty;
    }
}


// ************************************************************************* //
