/*--------------------------------*- C++ -*----------------------------------*\
| =========                 |                                                 |
| \\      /  F ield         | OpenFOAM: The Open Source CFD Toolbox           |
|  \\    /   O peration     | Version:  2.3.0                                 |
|   \\  /    A nd           | Web:      www.OpenFOAM.org                      |
|    \\/     M anipulation  |                                                 |
\*---------------------------------------------------------------------------*/
FoamFile
{
    version     2.0;
    format      ascii;
    class       volScalarField;
    location    "0.428";
    object      p_rgh;
}
// * * * * * * * * * * * * * * * * * * * * * * * * * * * * * * * * * * * * * //

dimensions      [1 -1 -2 0 0 0 0];

internalField   nonuniform List<scalar> 
545
(
-6.42643e+07
-1.20285e+07
-1.80866e+06
-2.29661e+06
-7.08012e+06
4.58532e+07
-2.6255e+06
-2.0957e+06
-2.21571e+06
-5.79945e+06
7.98975e+07
2.65454e+06
-515712
-557192
-6.076e+06
4.62567e+07
-2.77068e+06
-1.72109e+06
-339362
-5.45581e+06
-7.39132e+07
-2.10134e+06
-589403
3.14833e+06
9.1192e+06
-5.86111e+06
-1.69372e+06
-836375
-291084
-204292
-186297
-189695
-190189
-188125
-183252
-177223
-170809
-164467
-158304
-152591
-147273
-142335
-137757
-133491
-129323
-125355
-121295
-117417
-113328
-109448
-105143
-101012
-96683.3
-92255.7
-87539.7
-82813.1
-77572.8
-72279.3
-66525.4
-60793.8
-54559.7
-48566.1
-42087.4
-35969.6
-29608.1
-23773.3
-17712.1
-12356.7
-6602.8
-2174.66
-5.19235e+06
-1.14345e+06
-803266
-384631
-286160
-229863
-209068
-197450
-190572
-183682
-177370
-170571
-164508
-158047
-152578
-147044
-142366
-137581
-133553
-129146
-125458
-121104
-117490
-113150
-109524
-105024
-101088
-96552.1
-92351.6
-87420.8
-82965.6
-77429
-72391
-66362.2
-60879.1
-54428.6
-48612.8
-41944.7
-36028.3
-29501.2
-23798.1
-17633.4
-12324.4
-6544.75
-2189.59
-6.0512e+06
-677009
-578150
-279527
-260700
-225651
-210507
-197538
-191803
-183296
-178155
-169925
-165275
-157272
-153224
-146310
-143068
-136873
-134311
-128427
-126301
-120284
-118253
-112356
-110262
-104245
-101827
-95812.5
-93125.1
-86679.3
-83867.1
-76596.5
-73233
-65455.6
-61672.5
-53547.1
-49360.5
-41080.7
-36806.8
-28677.9
-24643.1
-16764.1
-13306.7
-5383.42
-2739.89
-6.39139e+06
252690
-122416
-92283.9
-203343
-206270
-206988
-194341
-193554
-181655
-180179
-168105
-167387
-155271
-155117
-144405
-145027
-134971
-136379
-126448
-128526
-118137
-120294
-110288
-112266
-102199
-103805
-93834.9
-95172.3
-84629.6
-86189.5
-74347.7
-75481.4
-63117.9
-63803.9
-51304.3
-51405.6
-38907.7
-38885.4
-26577.6
-26839.2
-14635
-15544.3
-2997.85
-4708.3
-1.68564e+06
2.37925e+06
658793
70800.4
-172728
-193321
-207435
-192398
-196284
-179835
-182560
-165941
-169924
-152798
-157385
-142211
-147309
-132740
-138880
-124049
-131280
-115420
-122828
-107704
-114758
-99729.3
-106105
-91534.2
-97597.9
-82109.4
-89089.9
-71460.8
-78350.8
-60113.3
-66486.6
-48386.6
-54016
-36230.5
-41460.1
-23974.2
-29645.2
-11950.1
-18567.4
256.694
-7224.31
-1.11974e+07
3.50477e+06
1.25905e+06
170785
-155862
-197930
-201402
-194622
-188339
-180290
-174220
-169314
-164218
-156867
-148708
-143439
-140140
-134024
-130475
-128305
-125321
-121190
-115006
-109029
-102862
-100966
-98350.6
-91330.7
-87900
-84441.2
-82574.9
-77694.7
-72048.6
-66223.7
-59710.4
-50106.3
-42753.9
-38480.3
-32134.2
-26194.1
-20893.3
-17990.8
-12330.8
-5255.62
8.27092
-7.39045e+07
-2.09242e+06
-580182
3.15832e+06
9.12955e+06
4.62654e+07
-2.76181e+06
-1.71184e+06
-329462
-5.44563e+06
7.99062e+07
2.66352e+06
-506384
-547433
-6.06641e+06
4.5862e+07
-2.61647e+06
-2.08627e+06
-2.20614e+06
-5.79042e+06
-6.42556e+07
-1.20192e+07
-1.79916e+06
-2.28713e+06
-7.07139e+06
-1.67426e+06
2.37174e+06
668382
62109.6
-162662
-203597
-197375
-202001
-186496
-189698
-172672
-176295
-158811
-163592
-147237
-152794
-136868
-143467
-128330
-135281
-119606
-127246
-111723
-118422
-104226
-110433
-95119.3
-102357
-86660.3
-93159.9
-76881.1
-83742.8
-65881.5
-72397
-54011.9
-59454.2
-42684.2
-47584
-30057.4
-35391.1
-18260.7
-24657.4
-6474.04
-15020.7
1448.21
-6.38134e+06
250112
-115994
-96447.4
-197377
-211683
-201380
-199504
-188120
-187111
-174786
-173827
-161341
-161255
-149741
-150404
-139443
-141048
-130772
-132746
-122286
-124683
-114309
-116209
-106437
-108113
-97645.3
-99765.4
-89061.5
-90596.7
-79371.1
-80898.5
-68622.2
-69597.3
-56765.7
-57104.9
-44994
-45082
-32541.5
-32891.6
-20820.1
-21889.7
-9588.2
-11869.7
27.7972
-6.0437e+06
-674995
-574628
-279648
-258284
-226936
-208620
-198927
-190113
-184941
-176630
-171705
-163524
-159249
-151887
-148380
-141664
-138968
-132933
-130545
-124608
-122440
-116564
-114155
-108521
-105967
-99886.1
-97489.6
-91203.9
-88282.5
-81629.7
-78389.7
-70982.8
-67145.9
-59189.3
-54914.6
-47179.6
-42773.3
-34814.2
-30639.7
-23106
-19540.5
-12073.3
-9592.13
-2907.11
-5.18544e+06
-1.1397e+06
-800340
-383260
-284799
-229654
-208407
-197532
-190141
-184019
-177148
-171039
-164296
-158682
-152648
-147812
-142446
-138371
-133649
-129890
-125378
-121756
-117293
-113549
-109164
-105303
-100587
-96766.4
-91831.2
-87548.9
-82292.9
-77564.4
-71681.5
-66358.6
-59956
-54257.1
-47837.3
-42048.8
-35527.9
-29956.9
-23859.3
-18778.7
-13085
-8567.01
-2839.52
-5.8546e+06
-1.68913e+06
-833594
-289114
-203233
-185592
-189361
-189900
-188028
-183218
-177360
-170909
-164718
-158597
-153053
-147713
-142854
-138218
-134021
-129700
-125762
-121541
-117620
-113363
-109454
-105026
-100899
-96496.3
-92104.5
-87251.2
-82592.3
-77221.1
-71978.4
-66031
-60277
-53980
-48127.2
-41752.4
-35827.8
-29713.8
-24175.1
-18597.1
-13446.1
-8605.76
-4015.1
)
;

boundaryField
{
    AirInlet
    {
        type            fixedFluxPressure;
        gradient        uniform 3.62798e+08;
        value           uniform -1.11937e+07;
    }
    WaterInlet
    {
        type            fixedFluxPressure;
        gradient        nonuniform List<scalar> 10(0 -0.0922837 0 -0.0338249 -0.018085 0 -0.0676498 -0.0319657 0 -0.204125);
        value           nonuniform List<scalar> 10(-6.42643e+07 4.58532e+07 7.98975e+07 4.62567e+07 -7.39132e+07 -7.39045e+07 4.62654e+07 7.99062e+07 4.5862e+07 -6.42556e+07);
    }
    ChannelWall
    {
        type            fixedFluxPressure;
        gradient        uniform 0;
        value           nonuniform List<scalar> 
110
(
-7.39132e+07
-2.10134e+06
-589403
3.14833e+06
9.1192e+06
-7.39045e+07
-2.09242e+06
-580182
3.15832e+06
9.12955e+06
-6.42556e+07
-1.20192e+07
-1.79916e+06
-2.28713e+06
-7.07139e+06
-5.8546e+06
-1.68913e+06
-833594
-289114
-203233
-185592
-189361
-189900
-188028
-183218
-177360
-170909
-164718
-158597
-153053
-147713
-142854
-138218
-134021
-129700
-125762
-121541
-117620
-113363
-109454
-105026
-100899
-96496.3
-92104.5
-87251.2
-82592.3
-77221.1
-71978.4
-66031
-60277
-53980
-48127.2
-41752.4
-35827.8
-29713.8
-24175.1
-18597.1
-13446.1
-8605.76
-4015.1
-6.42643e+07
-1.20285e+07
-1.80866e+06
-2.29661e+06
-7.08012e+06
-5.86111e+06
-1.69372e+06
-836375
-291084
-204292
-186297
-189695
-190189
-188125
-183252
-177223
-170809
-164467
-158304
-152591
-147273
-142335
-137757
-133491
-129323
-125355
-121295
-117417
-113328
-109448
-105143
-101012
-96683.3
-92255.7
-87539.7
-82813.1
-77572.8
-72279.3
-66525.4
-60793.8
-54559.7
-48566.1
-42087.4
-35969.6
-29608.1
-23773.3
-17712.1
-12356.7
-6602.8
-2174.66
)
;
    }
    Outlet
    {
        type            totalPressure;
        rho             rho;
        psi             none;
        gamma           1;
        p0              uniform 0;
        value           uniform 0;
    }
    FrontAndBack
    {
        type            empty;
    }
}


// ************************************************************************* //
