/*--------------------------------*- C++ -*----------------------------------*\
| =========                 |                                                 |
| \\      /  F ield         | OpenFOAM: The Open Source CFD Toolbox           |
|  \\    /   O peration     | Version:  2.3.0                                 |
|   \\  /    A nd           | Web:      www.OpenFOAM.org                      |
|    \\/     M anipulation  |                                                 |
\*---------------------------------------------------------------------------*/
FoamFile
{
    version     2.0;
    format      ascii;
    class       volScalarField;
    location    "1.59";
    object      nut.particles;
}
// * * * * * * * * * * * * * * * * * * * * * * * * * * * * * * * * * * * * * //

dimensions      [0 2 -1 0 0 0 0];

internalField   nonuniform List<scalar> 
6000
(
1.32275e-05
1.43648e-05
1.48137e-05
1.53048e-05
1.58001e-05
1.58457e-05
1.35044e-05
1.8903e-05
1.82261e-05
1.29428e-05
1.57809e-05
1.69487e-05
1.06403e-05
1.0225e-05
8.1228e-06
6.49661e-06
5.30774e-06
4.97708e-06
5.03326e-06
4.84096e-06
5.22988e-06
6.00547e-06
7.46954e-06
7.25449e-06
6.92895e-06
6.00639e-06
6.70249e-06
1.15562e-05
1.61088e-05
2.79291e-05
1.1922e-06
1.52439e-06
1.77511e-06
1.99024e-06
1.85897e-06
1.40431e-06
1.1183e-06
1.13695e-06
4.0678e-06
6.44179e-06
3.6484e-06
2.07114e-06
1.89628e-06
1.53845e-06
1.31833e-06
1.21219e-06
1.06585e-06
1.13362e-06
1.09057e-06
1.09036e-06
1.04907e-06
1.13835e-06
1.43225e-06
1.58479e-06
1.85895e-06
1.94578e-06
1.79441e-06
2.46325e-06
5.7373e-06
1.13867e-05
4.0931e-07
1.42852e-07
1.34193e-07
3.96616e-07
6.47325e-07
7.75478e-07
5.93263e-07
6.83735e-07
3.31812e-06
1.23684e-05
4.57327e-06
7.18317e-07
3.20599e-07
7.72688e-07
2.19629e-06
2.90887e-06
3.32683e-06
3.51022e-06
2.48665e-06
2.16408e-06
1.07467e-06
1.17907e-06
1.45191e-06
1.50097e-06
9.31063e-07
5.07198e-07
4.62055e-07
1.58058e-06
9.65312e-06
1.7494e-05
6.59262e-07
8.77059e-07
6.59236e-07
4.00726e-07
3.17115e-07
2.62208e-07
2.03286e-07
1.41964e-07
1.76548e-06
1.32454e-05
6.79954e-06
5.29882e-07
4.32445e-07
2.22129e-06
8.59772e-06
7.77925e-05
0.000100057
0.00010636
9.90304e-05
0.000101348
8.49659e-05
1.81156e-06
1.44783e-06
1.33977e-06
1.10808e-06
8.06435e-07
7.76717e-07
1.99731e-06
1.18232e-05
2.18184e-05
7.06576e-07
1.08604e-06
1.91736e-06
8.15234e-07
5.4204e-07
4.57598e-07
3.21909e-07
2.77343e-07
3.27324e-07
8.79067e-06
9.4303e-06
6.80224e-07
1.04053e-06
2.3578e-06
7.5842e-06
2.43757e-05
0.000131625
0.000111534
0.000131526
0.000110037
0.000126245
0.000102202
0.000103306
4.39274e-05
2.65814e-06
1.25999e-06
4.73312e-07
3.03188e-05
1.61008e-05
9.54188e-06
7.99221e-07
0.000338671
0.000309449
3.03976e-06
1.1434e-06
5.22513e-07
3.04033e-07
4.22586e-07
4.21815e-07
1.20538e-06
4.78602e-06
6.53085e-07
9.56195e-07
1.28626e-06
1.41592e-06
3.38359e-06
9.30924e-06
1.20749e-05
1.29868e-05
2.24648e-05
5.8946e-05
0.000115033
9.95784e-05
9.90469e-05
4.99038e-06
3.35412e-05
9.84772e-05
4.8539e-05
6.30662e-06
1.323e-06
0.00265374
0.00445108
0.00366958
0.00127954
3.14741e-06
1.24016e-06
3.33477e-07
2.82726e-07
6.03486e-07
3.18715e-07
1.288e-06
8.01011e-07
1.41388e-06
1.29648e-06
3.87777e-07
2.31112e-07
3.10688e-07
5.7376e-07
7.98449e-07
1.0787e-06
1.59665e-06
5.7543e-06
0.000110302
9.85483e-05
7.07811e-05
9.70274e-05
0.000109487
8.91253e-06
8.13183e-07
5.72697e-07
0.00957709
0.00958005
0.00866415
0.00671989
0.00188202
2.59532e-06
9.85547e-07
2.49356e-07
5.39148e-07
4.10269e-07
2.23607e-07
1.29227e-06
2.06773e-06
7.46125e-07
3.83427e-07
3.20914e-07
2.50456e-07
4.11064e-07
5.70579e-07
5.90417e-07
7.70221e-07
8.61167e-07
7.55855e-06
0.000109631
9.92588e-05
0.00011479
1.28023e-05
9.16444e-07
9.97193e-08
4.99882e-07
0.00960498
0.00957624
0.00863388
0.00861855
0.0081216
0.00160654
1.95762e-06
3.79073e-07
7.38069e-07
6.32489e-07
2.94212e-07
2.04628e-06
1.97104e-06
5.15772e-07
4.59548e-07
4.10927e-07
3.01007e-07
7.21726e-07
1.23274e-06
1.12417e-06
1.04021e-06
1.26993e-06
4.12039e-05
0.000105514
0.000112564
0.00010144
2.29313e-06
1.09687e-07
1.49454e-07
4.36355e-07
0.00718986
0.0033467
0.00468304
0.0056983
0.00772473
0.00716671
0.000734571
8.74674e-07
6.75564e-07
8.29115e-07
1.35919e-06
2.5972e-06
1.2657e-06
5.18743e-07
6.07113e-07
4.95398e-07
2.95211e-07
9.93492e-07
3.34875e-06
3.21894e-06
2.20662e-06
8.58851e-06
0.000108237
0.00013071
0.000101209
5.64687e-06
2.85724e-07
2.3906e-07
1.72552e-07
4.48062e-07
3.74512e-05
2.59012e-05
0.00132672
0.00173587
0.00427946
0.00609075
0.00461236
0.000120027
1.34687e-06
9.14098e-07
1.44778e-06
1.87123e-06
3.38074e-07
5.93729e-07
6.70547e-07
5.86608e-07
2.7373e-07
3.70395e-07
2.82844e-06
4.63045e-06
9.34882e-06
1.35975e-05
0.000153686
0.000102708
0.000111145
1.29573e-06
3.20494e-07
3.33685e-07
2.54362e-07
5.92895e-07
4.09338e-06
5.19804e-06
1.70641e-05
0.000233348
0.00164884
0.00331481
0.00446489
0.00164932
3.70313e-06
8.80564e-07
3.26446e-07
7.40378e-07
4.66032e-07
5.55554e-07
9.96325e-07
6.81693e-07
2.31413e-07
7.83316e-08
1.85517e-06
8.06929e-06
5.01373e-06
4.44616e-06
0.000118806
0.000150839
7.65841e-05
8.4141e-07
5.00016e-07
5.46614e-07
5.37892e-07
8.57541e-07
5.69148e-07
1.8987e-07
1.28764e-06
8.36139e-06
3.37428e-05
0.00195898
0.00254282
0.00254515
4.36794e-06
1.39179e-06
1.11368e-07
3.37588e-07
4.62783e-07
8.66121e-07
1.30027e-06
5.00939e-07
2.17548e-07
3.51805e-07
1.94667e-06
2.49567e-06
7.69166e-07
2.09008e-06
1.79518e-05
0.000108903
9.21951e-05
8.1937e-07
8.27355e-07
8.81172e-07
9.32401e-07
9.28941e-07
2.99131e-07
1.82881e-08
2.44392e-08
2.274e-07
3.60162e-06
1.30148e-05
2.87849e-05
0.00246069
5.85977e-05
2.87351e-06
5.55671e-07
3.33022e-07
4.7412e-07
1.06718e-06
9.60099e-07
3.16687e-07
2.5163e-07
9.35127e-07
1.14932e-06
4.39058e-07
2.94768e-07
6.41759e-07
3.70632e-06
3.38887e-05
0.000103828
1.03159e-06
1.15375e-06
1.12022e-06
9.30321e-07
8.00434e-07
2.77427e-07
2.33335e-08
3.17653e-08
3.55778e-08
3.49525e-08
6.88341e-07
3.6942e-06
1.33032e-05
4.02176e-05
5.75935e-06
1.46517e-06
1.32948e-07
5.09749e-07
8.51888e-07
7.69567e-07
4.06455e-07
6.19444e-07
9.72884e-07
4.45679e-07
2.23474e-07
1.92933e-07
2.75367e-07
8.42738e-07
4.86711e-06
2.77064e-05
1.3097e-05
5.09695e-07
1.37495e-06
1.02323e-06
8.10517e-07
2.54707e-07
2.86579e-08
3.55729e-08
4.37545e-08
5.16845e-08
6.5824e-08
8.04914e-08
1.03979e-06
7.44387e-06
8.85863e-06
2.79198e-06
7.3665e-08
4.9611e-07
8.3446e-07
9.47626e-07
8.32275e-07
1.08831e-06
5.98392e-07
2.04153e-07
1.75907e-07
1.57817e-07
1.40116e-07
2.6647e-07
6.8162e-07
3.75378e-06
1.79361e-05
1.05469e-05
8.78911e-07
1.35611e-06
1.05394e-06
2.29687e-07
3.44746e-08
4.44611e-08
6.48944e-08
1.03737e-07
1.18361e-07
1.3909e-07
1.60954e-07
1.40551e-06
7.11641e-06
6.05072e-05
6.08104e-07
5.54084e-07
1.24209e-06
1.75105e-06
1.52557e-06
7.90016e-07
3.02392e-07
1.89931e-07
1.95035e-07
1.57348e-07
1.29466e-07
1.50685e-07
1.74913e-07
4.39e-07
2.48982e-06
1.88771e-05
3.88314e-05
3.50685e-06
1.32557e-06
1.96412e-07
4.18145e-08
7.41419e-08
1.60715e-07
2.30739e-07
1.91909e-07
1.8555e-07
1.96771e-07
5.83417e-07
2.09032e-06
7.85267e-05
1.26582e-06
9.09017e-07
2.33908e-06
2.76476e-06
1.34279e-06
5.06007e-07
2.98883e-07
2.0557e-07
2.05541e-07
1.98325e-07
1.37077e-07
1.50206e-07
1.22514e-07
1.10708e-07
2.50544e-07
4.29266e-06
4.75129e-05
0.000412032
0.000414425
1.54647e-07
7.63053e-08
1.5072e-07
3.45395e-07
5.12197e-07
3.08054e-07
2.54015e-07
2.84082e-07
4.30048e-07
8.85456e-07
7.66578e-05
1.51219e-06
1.95562e-06
3.96797e-06
2.34065e-06
8.91116e-07
4.76415e-07
3.73569e-07
2.73142e-07
2.18059e-07
2.18652e-07
1.85166e-07
1.35413e-07
1.13316e-07
1.13428e-07
1.40102e-07
7.11368e-07
4.32512e-06
0.000416664
9.38216e-06
1.20074e-07
1.4483e-07
2.8497e-07
4.47773e-07
8.32339e-07
7.63977e-07
5.90429e-07
5.70111e-07
7.24146e-07
9.62315e-07
9.21236e-05
1.66139e-06
5.41803e-06
5.06047e-06
1.50969e-06
8.27258e-07
6.41734e-07
6.33993e-07
4.83494e-07
2.23359e-07
2.69328e-07
2.68207e-07
1.96003e-07
1.36082e-07
9.92105e-08
1.53701e-07
2.72895e-07
1.14243e-06
5.15581e-06
1.11184e-06
1.48829e-07
2.17643e-07
4.66554e-07
8.14858e-07
1.14894e-06
1.13492e-06
9.26218e-07
8.49739e-07
1.05328e-06
1.24999e-06
0.000107045
2.73398e-06
5.21315e-05
3.96525e-06
1.2553e-06
1.06819e-06
1.10008e-06
1.25396e-06
1.08252e-06
3.39729e-07
2.58555e-07
3.97338e-07
3.39375e-07
2.3592e-07
1.84254e-07
2.39647e-07
3.16113e-07
5.9509e-07
1.31183e-06
5.51804e-07
2.89382e-07
3.43464e-07
6.25747e-07
8.36105e-07
1.09823e-06
1.44231e-06
1.17481e-06
1.52833e-06
2.37017e-06
4.57695e-06
0.000107455
5.68277e-06
5.97405e-05
2.47085e-06
1.52484e-06
1.51462e-06
1.71063e-06
2.01045e-06
2.5596e-06
9.2614e-07
2.06003e-07
3.66057e-07
4.59608e-07
3.71819e-07
3.71445e-07
3.48501e-07
2.53451e-07
4.77704e-07
1.35326e-06
5.41595e-07
7.44111e-07
6.29003e-07
7.93797e-07
4.68912e-05
0.000177773
0.000240752
0.000231317
0.000176904
8.85389e-05
3.05988e-05
0.000145795
8.65156e-06
5.73239e-05
2.3554e-06
2.03366e-06
7.00891e-05
0.000298888
0.000436267
0.000229319
4.02453e-06
5.10096e-07
2.27298e-07
3.75846e-07
3.51355e-07
3.59279e-07
2.9694e-07
2.12037e-07
7.38624e-07
2.39164e-06
1.07924e-06
2.05913e-06
1.3724e-05
0.00032758
0.000607529
0.000752334
0.000788801
0.00072978
0.000578915
0.000365532
0.000173816
0.000344519
0.000760027
0.000375809
9.68228e-05
0.000689484
0.00183269
0.0026496
0.00264933
0.00190627
0.000303208
3.19597e-06
2.01849e-07
2.73373e-07
2.99763e-07
2.54688e-07
2.51903e-07
2.6403e-07
1.73333e-06
4.89468e-06
2.74899e-06
0.000193263
0.000728249
0.00126571
0.00150859
0.00157509
0.00154779
0.00144373
0.00131465
0.00123784
0.00124933
0.00203452
0.00395789
0.00382243
0.00329746
0.00390909
0.00398312
0.00391878
0.00395494
0.00374321
0.00235608
3.85424e-05
1.5931e-06
4.05561e-07
4.2637e-07
3.90035e-07
3.79062e-07
5.42709e-07
3.86071e-06
0.000621132
0.000336076
0.000823354
0.00157581
0.00242494
0.00274169
0.00271345
0.00255922
0.00235523
0.0022139
0.0024712
0.00347136
0.00395654
0.00391744
0.00403668
0.00392064
0.00413455
0.00392626
0.00425165
0.00392463
0.00399498
0.00389563
0.00199556
6.6877e-06
1.9394e-06
2.16849e-06
1.92747e-06
1.38589e-06
2.40519e-06
0.000693737
0.000862232
0.000864906
0.00189757
0.00279173
0.00397443
0.00440965
0.00422647
0.00374823
0.00312806
0.00251766
0.00234906
0.00394889
0.00391673
0.00423919
0.00392206
0.00429976
0.00392875
0.00469988
0.00393176
0.00460432
0.00392591
0.00394772
0.00214292
0.00137001
0.000113189
3.51026e-05
0.000383966
0.000846902
0.000864313
0.000866645
0.000868887
0.000871969
0.00466947
0.00518738
0.00644704
0.00682059
0.00624897
0.00508431
0.00366742
0.00245916
0.00130649
0.00390295
0.00418048
0.00392046
0.00433029
0.00392644
0.00470854
0.00393048
0.00471633
0.00388149
0.00448429
0.00304458
0.000541712
3.66566e-05
2.50629e-05
1.9462e-05
2.50273e-05
3.4877e-05
4.10957e-05
4.28211e-05
0.000211605
0.000879973
0.012486
0.0113328
0.0118804
0.0116772
0.010018
0.00745358
0.00482989
0.00296503
0.00127878
0.00174196
0.00391292
0.00431083
0.00190126
0.00465465
0.0038887
0.00253232
3.26545e-05
2.23876e-05
1.82446e-05
1.44448e-05
1.11585e-05
5.6454e-06
1.95282e-06
1.23567e-06
1.72904e-06
3.66408e-06
5.42969e-06
5.09436e-06
4.73502e-06
8.1776e-06
0.0346449
0.0296197
0.0279495
0.0258819
0.0214354
0.0152613
0.00921838
0.00526747
0.00295217
0.000838596
0.00426464
0.00391378
0.00200514
0.00385012
3.64558e-05
8.7005e-06
2.91682e-06
2.08603e-06
1.84189e-06
1.11926e-06
3.41887e-07
4.06046e-08
4.24846e-08
4.23429e-08
3.47131e-08
2.68198e-08
3.02076e-08
3.12477e-08
4.21048e-08
9.10535e-07
0.0767021
0.0733523
0.068145
0.0640848
0.0566277
0.0437641
0.0270989
0.0134847
0.00585064
0.00084923
0.0029913
0.00426542
0.00227834
3.30448e-05
5.51713e-06
2.33628e-07
1.05414e-07
1.04155e-07
9.09265e-08
7.87568e-08
7.54811e-08
7.34811e-08
7.19209e-08
6.62401e-08
6.44456e-08
6.20638e-08
6.70449e-08
7.28161e-08
9.35073e-08
5.22004e-07
0.0844644
0.0841789
0.0839002
0.0838666
0.0838043
0.0818183
0.0758852
0.0436826
0.0159264
0.00348173
0.00154399
0.00390402
0.00270674
9.75383e-06
3.85214e-07
1.74229e-07
1.64319e-07
1.47931e-07
1.27018e-07
1.11782e-07
9.85529e-08
8.59504e-08
7.81252e-08
7.42971e-08
7.18838e-08
7.46173e-08
7.62573e-08
8.18261e-08
1.12866e-07
3.67226e-07
0.0844918
0.083224
0.0827762
0.0831
0.0836296
0.0836699
0.0835912
0.0814226
0.0467775
0.0100944
0.00153786
0.00414244
1.86412e-05
1.6618e-06
2.47182e-07
2.68259e-07
2.41724e-07
2.33899e-07
2.09174e-07
1.82671e-07
1.49783e-07
1.25577e-07
1.0847e-07
9.67259e-08
8.86391e-08
8.61979e-08
8.57015e-08
9.47586e-08
1.31639e-07
2.29716e-07
0.0804532
0.0285564
0.0231081
0.0161745
0.0183491
0.0439888
0.083066
0.0834078
0.0813946
0.0334624
0.00198555
1.72659e-05
5.4343e-06
3.23849e-07
3.67311e-07
4.29017e-07
3.89766e-07
3.85821e-07
3.64053e-07
3.18163e-07
2.6319e-07
2.16533e-07
1.76547e-07
1.50261e-07
1.31561e-07
1.17808e-07
1.10107e-07
1.20282e-07
1.44861e-07
1.40984e-07
0.0128513
8.75798e-05
5.22937e-05
4.15795e-06
4.9349e-06
3.5357e-05
0.00447974
0.0738167
0.0815206
0.0800106
0.00426273
9.15543e-06
2.98269e-06
3.65074e-07
5.05e-07
6.62536e-07
6.42869e-07
5.86543e-07
5.66826e-07
5.3517e-07
4.67999e-07
3.87588e-07
3.19957e-07
2.61349e-07
2.13419e-07
1.79168e-07
1.55348e-07
1.55123e-07
1.53257e-07
1.51208e-07
4.51728e-05
1.03559e-06
3.95886e-06
5.49493e-06
5.46144e-06
4.1168e-06
3.68032e-06
0.000908189
0.0768444
0.0803314
0.0200432
1.30724e-05
1.80158e-06
4.19833e-07
5.40271e-07
7.85139e-07
8.32779e-07
7.87535e-07
7.51636e-07
7.34727e-07
6.81986e-07
5.93916e-07
5.16402e-07
4.52582e-07
3.77357e-07
2.98354e-07
2.39694e-07
1.86085e-07
1.58949e-07
2.27542e-07
3.14909e-06
9.05433e-07
4.71976e-06
6.42572e-06
6.36953e-06
9.74122e-06
2.77107e-06
2.47655e-06
0.0084991
0.0799005
0.0795534
0.000208917
1.5734e-06
8.78291e-07
5.99245e-07
3.95159e-07
8.49387e-07
9.08994e-07
9.48721e-07
1.03699e-06
1.0871e-06
9.66843e-07
7.78579e-07
6.78586e-07
6.32343e-07
4.99297e-07
3.35272e-07
2.1999e-07
1.8256e-07
3.61168e-07
5.34631e-06
3.32252e-06
3.14443e-06
3.7403e-06
0.00373629
0.00894135
9.99337e-05
9.77995e-06
4.08201e-05
0.0466956
0.0798041
0.0174013
4.67433e-06
1.46406e-06
1.10072e-06
1.32061e-05
0.000119746
0.000122986
0.000108576
8.47201e-05
5.46516e-05
2.7412e-05
6.10203e-06
1.13098e-06
8.91889e-07
6.90852e-07
4.27989e-07
2.74335e-07
2.41491e-07
6.12875e-07
4.65638e-06
3.24487e-06
7.08011e-06
0.00857577
0.0701994
0.0495835
0.0225545
5.80261e-05
1.34749e-05
0.01096
0.079448
0.0792634
0.00205486
1.93268e-06
1.82692e-06
1.87034e-06
0.000209327
0.000372853
0.000406796
0.000411435
0.000476775
0.00058571
0.000684531
0.000689132
0.000203581
1.48943e-06
6.87102e-07
3.51616e-07
3.90394e-07
1.22653e-06
4.73013e-06
6.96613e-06
0.0144604
0.0820464
0.0817924
0.0475731
0.0338308
0.000738877
2.43346e-05
0.00333256
0.0573014
0.0793847
0.0387755
0.000260872
2.02639e-06
1.69143e-06
7.4488e-05
0.000507877
0.000845534
0.00105353
0.00132012
0.00156405
0.00158786
0.00156087
0.000384188
2.2041e-05
2.6555e-06
6.80106e-07
6.99337e-07
2.79844e-06
7.41783e-06
0.0157218
0.0827128
0.0823621
0.0805465
0.0309683
0.0252749
0.000284805
1.84987e-05
0.000750935
0.0249042
0.075174
0.0742575
0.0119778
4.19334e-05
1.98868e-06
1.69126e-06
0.000466293
0.00117681
0.00157296
0.00156598
0.00162556
0.00156461
9.51567e-05
5.91278e-06
7.74154e-06
7.46383e-06
3.35494e-06
1.56389e-06
6.42266e-06
0.00177513
0.082555
0.0825768
0.0831338
0.0398428
0.00606703
0.00130504
2.50762e-05
2.81195e-06
0.000146023
0.0108797
0.051986
0.0737425
0.0382536
0.00294211
1.16325e-05
1.91713e-06
0.000221968
0.00116118
0.00156507
0.00165743
0.00156625
0.000277758
3.55288e-06
2.51978e-06
2.32082e-06
4.86728e-06
6.1816e-06
4.51977e-06
1.22454e-05
0.0575632
0.0827181
0.0837205
0.0784005
0.00130523
9.59031e-05
1.60756e-05
5.677e-06
3.55124e-06
9.46691e-05
0.00478257
0.0333009
0.061564
0.0531706
0.0131521
0.000636464
1.23747e-05
4.59282e-05
0.000708878
0.00163472
0.00156704
0.00164435
1.77901e-05
2.34402e-06
1.98269e-06
1.94295e-06
2.9116e-06
6.04289e-06
6.83317e-06
4.68262e-05
0.0829756
0.0838026
0.0820761
0.00278609
1.1936e-05
1.10628e-05
4.16418e-06
4.97256e-06
7.65588e-06
0.000394535
0.00479199
0.0255609
0.0509277
0.05618
0.0257693
0.00360441
0.000189972
4.68016e-05
0.00011896
0.00117968
0.00166434
0.000769742
4.61769e-06
3.64991e-06
2.69377e-06
3.13705e-06
3.62778e-06
5.74525e-06
7.11697e-06
4.54651e-05
0.0836686
0.0827278
0.013183
1.10239e-05
1.01836e-05
1.90831e-06
1.39739e-06
6.67761e-06
0.000696009
0.00397608
0.0119214
0.0321049
0.052323
0.0580519
0.0377778
0.0101104
0.00104865
7.83064e-05
3.72237e-05
0.000192104
0.0013084
0.000177967
3.50686e-06
2.44279e-06
2.52397e-06
2.82856e-06
3.31614e-06
3.8606e-06
4.63821e-06
4.23357e-05
0.0786454
0.0115528
7.1959e-05
8.26387e-06
3.62542e-06
4.89082e-06
6.59575e-06
0.000383318
0.00115137
0.00902447
0.0242199
0.0446443
0.0596646
0.0597673
0.049646
0.0202571
0.00389521
0.000360748
3.1965e-05
2.42457e-05
0.000120572
5.42139e-06
1.89686e-06
1.76078e-06
1.83629e-06
2.62447e-06
3.03374e-06
2.8636e-06
2.6472e-06
4.58233e-05
9.23164e-05
3.01543e-05
1.11552e-05
2.12558e-05
0.000468836
0.000466471
0.000470225
0.000467131
3.26596e-05
4.81095e-05
0.00687175
0.0285276
0.0585992
0.0600152
0.0588344
0.0324722
0.00965784
0.00155722
0.000101348
2.11981e-06
2.72152e-06
2.24801e-06
1.97252e-06
1.95527e-06
2.35202e-06
2.81821e-06
2.53252e-06
2.46675e-06
2.34698e-06
0.0012232
6.85218e-06
4.86818e-06
1.0354e-05
2.59065e-05
3.80133e-05
4.06987e-05
3.74991e-05
3.18602e-05
1.26128e-05
7.17904e-06
2.24412e-05
0.002693
0.0303973
0.0591722
0.0595176
0.0441079
0.0175348
0.00405034
0.000397081
2.19182e-06
1.06876e-06
1.31521e-06
2.33446e-06
2.45915e-06
2.68781e-06
2.15832e-06
2.17568e-06
3.1624e-06
0.00124406
0.00803843
1.47071e-06
2.35646e-07
2.52429e-06
3.78379e-06
4.62687e-06
5.24794e-06
4.72315e-06
3.62719e-06
1.8576e-06
7.02215e-07
4.56323e-06
2.43639e-05
0.00463478
0.0368928
0.0586028
0.0520964
0.0259068
0.00731709
0.000997242
1.03916e-05
1.38923e-06
9.1221e-07
1.98955e-06
2.01977e-06
1.78519e-06
1.80087e-06
9.12676e-06
0.00253375
0.0083697
0.00523846
1.53092e-06
5.43752e-08
6.457e-08
6.13115e-07
8.99898e-07
1.04564e-06
1.00814e-06
8.21424e-07
3.39335e-07
5.75241e-08
9.22141e-07
9.34347e-06
0.000424927
0.00946825
0.0402772
0.0501554
0.0329357
0.010669
0.00137795
1.8487e-05
1.54767e-06
9.83212e-07
1.32252e-06
1.22708e-06
1.8248e-06
0.000105198
0.00346415
0.0109292
0.00835359
0.000156415
1.72596e-06
6.40831e-08
2.89882e-08
3.60731e-08
6.36882e-08
8.87761e-08
1.39594e-07
2.094e-07
1.33084e-07
3.21394e-08
1.51958e-07
2.28399e-06
1.39754e-05
0.00285041
0.0213588
0.0379702
0.0361501
0.0148722
0.00133741
4.12811e-06
5.47254e-07
1.01576e-06
1.11307e-06
1.8681e-06
0.000325313
0.00376192
0.0107288
0.0109842
0.00219393
1.00231e-06
1.80433e-06
7.35438e-08
2.50869e-08
4.15584e-08
6.22143e-08
5.85006e-08
9.81873e-08
2.21273e-07
5.76927e-08
1.79742e-08
6.27577e-08
1.38197e-06
9.64273e-06
0.00194388
0.0130664
0.0277925
0.0357707
0.0214143
0.00176558
2.94962e-06
7.63574e-07
1.11086e-06
1.73529e-06
0.000448117
0.00329425
0.00928367
0.0139611
0.00836011
0.00050238
2.01282e-06
1.75651e-06
8.38842e-08
2.11638e-08
4.38969e-08
4.56019e-08
4.43327e-08
1.83633e-07
1.01113e-07
3.14357e-08
9.08933e-08
1.1172e-07
2.24921e-06
3.87764e-05
0.00483854
0.00625534
0.0171855
0.0307523
0.0294615
0.00629495
1.35828e-05
1.1204e-06
1.33765e-06
0.000265152
0.00238055
0.00752522
0.013474
0.0141796
0.00513497
0.000100941
6.09672e-06
1.71429e-06
1.30264e-07
2.51726e-08
4.51609e-08
4.35997e-08
7.86147e-08
6.20065e-08
2.43571e-08
8.15355e-08
3.16794e-07
6.20003e-07
1.41791e-06
1.51725e-05
0.000115679
0.000364137
0.00334182
0.0204221
0.029324
0.0168491
0.00195172
3.98248e-05
7.55588e-05
0.00112421
0.00543383
0.0120262
0.0149386
0.0141936
0.00223845
7.72209e-06
9.28915e-06
1.7146e-06
2.48974e-07
4.51594e-08
5.77219e-08
4.63037e-08
4.51615e-08
1.80404e-08
5.0355e-08
1.42169e-07
3.69704e-07
1.17644e-06
1.84119e-06
1.6402e-06
4.37138e-06
8.40795e-06
2.96472e-05
0.00254023
0.0174429
0.017516
0.00729856
0.00142565
0.000658617
0.00309881
0.0100545
0.0149208
0.0149714
0.00856196
0.000518476
4.08988e-06
8.87672e-06
2.08524e-06
2.63302e-07
5.75592e-08
8.13314e-08
7.19927e-08
1.32851e-08
3.34123e-08
8.36631e-08
1.23679e-07
2.53105e-07
9.53862e-07
1.30697e-06
5.4454e-07
3.22829e-07
1.15532e-06
4.39727e-06
2.40691e-05
0.00188291
0.0108038
0.00736148
0.00334666
0.00268363
0.0074724
0.0147371
0.0151123
0.0134002
0.00279802
1.40743e-05
1.27032e-06
8.2064e-06
3.38562e-06
1.62965e-07
6.56405e-08
5.18738e-08
1.39964e-08
1.91453e-08
6.6332e-08
9.76888e-08
1.20268e-07
5.81879e-07
7.19098e-07
3.74098e-07
5.09816e-08
9.94797e-09
6.9123e-09
1.13962e-06
4.78967e-06
3.21523e-05
0.00164547
0.0032871
0.00339433
0.00636152
0.0130929
0.0150478
0.0147688
0.00314973
0.0001741
2.64605e-06
1.16987e-06
6.79408e-06
4.57576e-06
1.85394e-07
3.47732e-08
2.16133e-08
2.32485e-08
6.54655e-08
9.69816e-08
9.87743e-08
5.00167e-07
8.69124e-07
4.26326e-07
5.53559e-08
1.38781e-08
9.54115e-09
1.25373e-08
1.23856e-08
1.33067e-06
6.07193e-06
3.70614e-05
0.000573497
0.00332303
0.00986719
0.014682
0.0145909
0.00310699
1.51616e-05
5.36101e-06
1.42324e-06
9.91115e-07
5.43298e-06
4.39477e-06
3.71281e-07
3.99028e-08
3.0393e-08
5.06748e-08
8.30434e-08
9.40723e-08
4.23502e-07
1.15319e-06
8.61463e-07
1.90254e-07
1.73395e-08
1.04526e-08
1.25746e-08
1.40564e-08
1.83806e-08
1.00004e-08
1.13891e-06
7.79599e-06
9.39825e-05
0.00606818
0.00983648
0.00642339
0.00157577
1.18645e-05
4.78516e-06
2.43135e-06
1.47248e-06
8.63812e-07
4.90108e-06
2.67329e-06
6.10644e-07
4.43839e-07
2.68366e-07
2.08407e-07
2.55872e-07
6.26823e-07
1.60616e-06
1.39172e-06
5.37627e-07
5.20985e-08
1.51723e-08
1.41689e-08
1.34089e-08
1.46534e-08
1.80308e-08
1.54066e-08
4.82021e-09
1.65035e-06
1.54212e-05
0.00169252
0.00407701
1.64622e-05
9.13432e-06
5.62601e-06
4.36783e-06
2.29586e-06
1.62657e-06
9.65819e-07
4.86499e-06
1.85534e-06
6.55765e-07
1.96978e-06
1.66688e-06
1.62448e-06
1.82619e-06
2.19398e-06
1.68939e-06
6.52788e-07
9.61115e-08
1.6568e-08
1.24558e-08
1.32547e-08
1.23182e-08
1.53002e-08
1.57049e-08
1.15931e-08
1.38335e-08
1.13653e-08
3.06746e-06
1.94493e-05
2.06777e-05
4.97925e-06
1.56059e-06
2.74838e-06
3.15839e-06
2.79744e-06
1.9822e-06
1.59919e-06
4.33494e-06
1.59848e-06
9.38343e-07
1.68337e-06
1.65989e-06
1.67591e-06
1.68739e-06
1.31484e-06
5.1013e-07
5.89997e-08
1.66036e-08
1.56678e-08
1.13414e-08
1.33678e-08
1.14582e-08
1.44059e-08
1.55337e-08
1.15169e-08
1.33138e-08
3.47006e-08
6.61607e-07
2.81948e-06
5.72029e-06
8.0738e-07
8.87603e-07
1.33585e-06
1.8181e-06
2.01883e-06
2.24848e-06
2.11049e-06
8.99964e-05
1.26082e-06
1.51706e-06
3.62378e-07
3.79119e-07
4.14636e-07
3.36463e-07
1.72885e-07
2.07078e-08
1.60021e-08
1.82564e-08
1.58838e-08
1.46288e-08
1.12651e-08
1.17623e-08
1.50364e-08
1.31762e-08
1.05301e-08
1.416e-08
2.64568e-07
1.97234e-06
4.26393e-06
9.77369e-07
1.02673e-06
1.25056e-06
1.78906e-06
5.28398e-06
4.74616e-06
0.000192574
0.000723173
0.00874781
1.04738e-06
9.88495e-07
3.07714e-08
5.33665e-09
9.3614e-09
7.67662e-09
8.91439e-09
1.26798e-08
1.7463e-08
1.77801e-08
1.36747e-08
1.53188e-08
1.24802e-08
1.18848e-08
1.46939e-08
1.13966e-08
1.34088e-08
1.31178e-08
7.17609e-07
3.78535e-06
5.53209e-06
3.00987e-05
0.000355735
0.000970304
0.00150804
0.00187008
0.00270445
0.00578289
0.00874823
0.00876936
8.31087e-07
1.80382e-07
1.77434e-08
1.06409e-08
8.59831e-09
7.88898e-09
8.33716e-09
1.14795e-08
1.47271e-08
1.22057e-08
1.20415e-08
1.66902e-08
1.43868e-08
1.2314e-08
1.45905e-08
1.18696e-08
1.39917e-08
1.01998e-08
9.96411e-07
6.49841e-06
0.000218737
0.00118244
0.0032318
0.00532095
0.00591412
0.0059117
0.00658337
0.00660343
0.0057581
0.000513448
6.24699e-07
2.62797e-08
1.76906e-08
9.77991e-09
8.33326e-09
6.9134e-09
6.65771e-09
9.31717e-09
1.2985e-08
1.22895e-08
1.38176e-08
1.6544e-08
1.4852e-08
1.41233e-08
1.53424e-08
1.20348e-08
1.26865e-08
1.17149e-08
9.88214e-07
8.09613e-06
0.000593222
0.00354573
0.00527029
0.00528199
0.00344834
0.00235428
0.00220185
0.00141914
0.000132083
4.81705e-06
6.74788e-07
1.45408e-08
8.05694e-09
6.63937e-09
6.20862e-09
6.65106e-09
8.10733e-09
1.04484e-08
1.17032e-08
1.40047e-08
1.25508e-08
1.54337e-08
1.63888e-08
1.71695e-08
1.63384e-08
1.26194e-08
1.08551e-08
1.4846e-08
4.79336e-07
4.38522e-06
0.000181675
0.00352109
0.00218383
5.70062e-05
1.07785e-05
8.78012e-06
1.57385e-05
4.81788e-06
2.17181e-06
5.02188e-06
5.69686e-07
1.15312e-08
1.04285e-08
7.97097e-09
7.69193e-09
7.97299e-09
8.16685e-09
9.35155e-09
1.18709e-08
1.23924e-08
1.31923e-08
1.58261e-08
1.71964e-08
1.93743e-08
1.78055e-08
1.39135e-08
1.06287e-08
1.92926e-08
1.93948e-08
1.15383e-06
9.57962e-06
6.77312e-05
8.23045e-06
4.21261e-06
4.76946e-06
4.48742e-06
4.01947e-06
2.81572e-06
2.46146e-06
0.000193523
5.25623e-07
1.17887e-08
8.89884e-09
8.06642e-09
7.15773e-09
8.04773e-09
9.45023e-09
1.0233e-08
1.28351e-08
1.33246e-08
1.47583e-08
1.56498e-08
1.60632e-08
2.05501e-08
2.07144e-08
1.41326e-08
1.35529e-08
2.15753e-08
1.67479e-08
7.07419e-08
1.16999e-06
4.7394e-06
4.54396e-06
4.06048e-06
2.60241e-06
2.03085e-06
2.21929e-06
3.25384e-06
0.000185328
0.00590498
5.2495e-07
9.02158e-09
8.03125e-09
8.56811e-09
7.92563e-09
9.19652e-09
1.01659e-08
1.03997e-08
1.2954e-08
1.34949e-08
1.35757e-08
1.65764e-08
1.6398e-08
2.22668e-08
2.29261e-08
1.34624e-08
2.00097e-08
2.22668e-08
1.98758e-08
1.24845e-07
5.81859e-07
2.06859e-06
4.06699e-06
3.28989e-06
2.25503e-06
2.19196e-06
3.07341e-06
0.000985135
0.00861202
0.022301
4.49481e-07
8.62265e-09
8.06791e-09
8.55862e-09
8.86826e-09
8.58183e-09
1.10272e-08
1.25609e-08
1.22779e-08
1.32288e-08
1.57417e-08
1.70446e-08
1.68473e-08
2.37326e-08
2.21402e-08
1.52057e-08
2.67022e-08
2.17812e-08
8.52006e-08
7.34852e-07
3.01818e-06
5.47604e-06
4.77623e-06
2.7685e-06
5.32004e-06
0.00047969
0.00406462
0.014179
0.0246991
0.0251276
4.41831e-07
8.02079e-09
9.47244e-09
9.61027e-09
1.09042e-08
9.62068e-09
1.20419e-08
1.26402e-08
1.19207e-08
1.47018e-08
1.62177e-08
1.6366e-08
1.83289e-08
2.68075e-08
2.18942e-08
1.98285e-08
3.25652e-08
2.15605e-08
3.99229e-07
2.7608e-06
9.76733e-06
0.000347029
0.00152336
0.00277187
0.00577378
0.0125227
0.020711
0.024999
0.0251392
0.0251594
3.7726e-07
7.90825e-09
8.71577e-09
1.00572e-08
1.13946e-08
1.01042e-08
1.16036e-08
1.59084e-08
1.21124e-08
1.3983e-08
1.721e-08
1.7604e-08
2.10489e-08
2.87174e-08
2.3151e-08
2.48709e-08
3.84316e-08
4.60185e-08
1.46192e-06
8.38211e-06
0.000452098
0.00426931
0.0108507
0.0172444
0.0227417
0.0249617
0.0250679
0.0251206
0.0251285
0.025141
3.57323e-07
8.36651e-09
9.91804e-09
1.05685e-08
1.17617e-08
1.14445e-08
1.22062e-08
1.56844e-08
1.41431e-08
1.43587e-08
1.82815e-08
1.86022e-08
2.32604e-08
2.96025e-08
2.4364e-08
3.14168e-08
4.58325e-08
5.96792e-07
3.1912e-06
0.00010521
0.00587109
0.0155911
0.0224917
0.0240931
0.024212
0.0243525
0.0239338
0.0243537
0.0229507
0.0229914
3.23447e-07
8.32144e-09
1.06236e-08
1.1326e-08
1.25332e-08
1.15618e-08
1.48489e-08
1.54906e-08
1.40359e-08
1.53695e-08
1.74685e-08
2.26764e-08
2.65952e-08
2.8092e-08
2.91085e-08
4.17137e-08
5.47816e-08
1.23209e-06
8.28388e-06
0.00251543
0.0127045
0.0128777
0.00721182
0.00597415
0.0070514
0.00897566
0.0102378
0.0105285
0.00669608
0.00505634
2.88826e-07
8.43107e-09
1.07255e-08
1.18153e-08
1.35205e-08
1.30639e-08
1.43223e-08
1.77399e-08
1.40877e-08
1.50057e-08
2.05993e-08
2.51782e-08
2.71869e-08
2.78701e-08
3.83596e-08
5.66656e-08
7.01395e-08
1.10961e-06
1.61994e-05
0.00492202
0.00513119
0.000636647
0.000118014
0.000119763
0.000501763
0.00188513
0.00293138
0.0032209
0.00322403
0.00556472
2.49186e-07
9.00888e-09
1.1062e-08
1.21052e-08
1.42925e-08
1.42758e-08
1.70801e-08
1.83183e-08
1.51446e-08
1.68282e-08
2.20434e-08
2.74276e-08
2.87658e-08
3.28447e-08
5.27386e-08
7.35358e-08
1.04708e-07
1.44111e-07
7.48364e-06
0.000254369
0.00100871
0.000584595
0.000558072
0.000376747
0.000412071
0.000634774
0.00115251
0.00192412
0.00401551
0.0147985
2.2044e-07
9.14543e-09
1.23485e-08
1.29645e-08
1.49341e-08
1.53653e-08
1.81549e-08
1.91852e-08
1.72345e-08
1.94828e-08
2.44856e-08
2.77615e-08
3.30485e-08
4.20241e-08
6.03428e-08
9.7527e-08
1.40158e-07
9.76371e-07
7.18431e-06
4.50425e-05
0.000635809
0.00240799
0.00407895
0.00450552
0.00392527
0.00369091
0.00461316
0.00698982
0.0149142
0.0447252
1.9988e-07
9.23199e-09
1.23885e-08
1.33434e-08
1.62607e-08
1.85044e-08
1.87801e-08
1.93587e-08
1.94788e-08
2.44229e-08
2.61747e-08
3.09048e-08
4.10616e-08
5.28702e-08
7.33818e-08
1.26997e-07
3.26225e-07
4.16847e-06
1.855e-05
0.000986218
0.00268395
0.00822194
0.0144344
0.0188093
0.0215934
0.0235696
0.0273655
0.0358416
0.0578325
0.0810281
1.64217e-07
9.92913e-09
1.31826e-08
1.45281e-08
1.60331e-08
2.16059e-08
2.06145e-08
2.01864e-08
2.42833e-08
2.62629e-08
3.30949e-08
3.63499e-08
4.7697e-08
7.1875e-08
1.02104e-07
2.24191e-07
3.69566e-06
1.57527e-05
0.00160274
0.00775839
0.0150376
0.0275447
0.0401998
0.0506414
0.0606138
0.0706476
0.0766168
0.0802368
0.0857426
0.0928054
1.26888e-07
1.09935e-08
1.40977e-08
1.51996e-08
1.87528e-08
2.44148e-08
2.13816e-08
2.3222e-08
2.83343e-08
3.42579e-08
3.5774e-08
4.35873e-08
7.17627e-08
1.01686e-07
1.52956e-07
2.97628e-06
1.26052e-05
0.00138717
0.0165871
0.0353939
0.0528981
0.0715512
0.0783605
0.0821514
0.0848536
0.0865179
0.0881618
0.0907857
0.0955873
0.101995
1.00596e-07
1.21022e-08
1.49287e-08
1.65403e-08
1.99131e-08
2.87712e-08
2.42876e-08
2.69947e-08
3.80683e-08
4.08678e-08
4.22773e-08
6.97502e-08
1.0569e-07
1.38548e-07
1.76967e-06
8.90144e-06
0.000722021
0.0214219
0.0569524
0.0776342
0.0824078
0.0866866
0.0919459
0.0974981
0.0997887
0.0996988
0.0981949
0.098381
0.10219
0.108531
7.50586e-08
1.31945e-08
1.61333e-08
1.86251e-08
2.37196e-08
3.00909e-08
2.9517e-08
3.70062e-08
5.02982e-08
5.30014e-08
7.29218e-08
1.02968e-07
1.45104e-07
3.20016e-07
4.78855e-06
3.54495e-05
0.0213578
0.0761532
0.082929
0.0872088
0.0921843
0.098464
0.105936
0.111366
0.111611
0.11134
0.105454
0.102212
0.104587
0.110665
5.19022e-08
1.46879e-08
1.79799e-08
2.12781e-08
2.92563e-08
3.46857e-08
3.76833e-08
5.36956e-08
7.17105e-08
9.03913e-08
1.13909e-07
1.61777e-07
3.13831e-07
3.11941e-06
1.21724e-05
0.0103712
0.0834547
0.0895296
0.090487
0.0933392
0.0993011
0.106693
0.110079
0.111113
0.110881
0.107312
0.0992234
0.0976745
0.100722
0.107099
3.40031e-08
1.68829e-08