/*--------------------------------*- C++ -*----------------------------------*\
| =========                 |                                                 |
| \\      /  F ield         | OpenFOAM: The Open Source CFD Toolbox           |
|  \\    /   O peration     | Version:  2.3.0                                 |
|   \\  /    A nd           | Web:      www.OpenFOAM.org                      |
|    \\/     M anipulation  |                                                 |
\*---------------------------------------------------------------------------*/
FoamFile
{
    version     2.0;
    format      ascii;
    class       volVectorField;
    location    "1.59";
    object      U.air;
}
// * * * * * * * * * * * * * * * * * * * * * * * * * * * * * * * * * * * * * //

dimensions      [0 1 -1 0 0 0 0];

internalField   nonuniform List<vector> 
6000
(
(-0.0303674 0.208599 0)
(-0.00630441 0.122828 0)
(0.07303 0.126708 0)
(0.136012 0.126578 0)
(0.171131 0.119546 0)
(0.138696 0.138453 0)
(0.00918424 0.234261 0)
(-0.170683 0.252465 0)
(-0.188841 0.169369 0)
(0.00700719 0.118439 0)
(0.156177 0.134421 0)
(0.0773822 0.225787 0)
(-0.161016 0.290637 0)
(-0.37044 0.186053 0)
(-0.48407 0.179834 0)
(-0.527189 0.195889 0)
(-0.504815 0.209126 0)
(-0.423547 0.19963 0)
(-0.299959 0.204005 0)
(-0.167488 0.203471 0)
(-0.0356344 0.205431 0)
(0.0697269 0.177542 0)
(0.131824 0.139457 0)
(0.160408 0.164885 0)
(0.136058 0.203786 0)
(0.0432826 0.261513 0)
(-0.108708 0.26677 0)
(-0.222444 0.218637 0)
(-0.216114 0.192767 0)
(-0.0711701 0.249534 0)
(0.046639 0.944609 0)
(0.114575 0.872965 0)
(0.20301 0.908067 0)
(0.234651 0.959747 0)
(0.214406 1.03111 0)
(0.164646 1.13417 0)
(0.120824 1.187 0)
(0.0558615 1.20439 0)
(-0.027837 0.939622 0)
(-0.0335698 0.782278 0)
(0.0158302 1.00025 0)
(-0.100491 1.26737 0)
(-0.371911 1.29288 0)
(-0.610923 1.24526 0)
(-0.730911 1.05892 0)
(-0.705631 0.929676 0)
(-0.595368 0.807389 0)
(-0.47179 0.750123 0)
(-0.327944 0.707478 0)
(-0.194033 0.720549 0)
(-0.0524056 0.729593 0)
(0.0583377 0.815323 0)
(0.135797 0.896943 0)
(0.208894 0.941943 0)
(0.237394 0.998867 0)
(0.199299 1.06574 0)
(0.132743 1.12413 0)
(0.0507176 1.08625 0)
(0.0106229 1.02056 0)
(0.0018947 0.966983 0)
(0.0317799 0.732855 0)
(0.129093 0.563357 0)
(0.26624 0.620312 0)
(0.305183 0.743172 0)
(0.270174 0.835069 0)
(0.229118 0.907922 0)
(0.217104 0.990765 0)
(0.194594 1.06306 0)
(0.0515844 0.955568 0)
(-0.0681911 0.582969 0)
(-0.0361211 0.804264 0)
(-0.110162 1.31484 0)
(-0.363193 1.3661 0)
(-0.534706 1.18206 0)
(-0.542521 0.804691 0)
(-0.428193 0.646919 0)
(-0.304025 0.538138 0)
(-0.211351 0.502459 0)
(-0.137562 0.485955 0)
(-0.0767219 0.493484 0)
(-0.0107078 0.511409 0)
(0.0634325 0.557428 0)
(0.150482 0.596361 0)
(0.258953 0.655422 0)
(0.31784 0.827389 0)
(0.311195 0.95935 0)
(0.298784 0.99081 0)
(0.303258 0.942353 0)
(0.269597 0.911529 0)
(0.107587 1.02795 0)
(0.0683965 0.65357 0)
(0.125446 0.453018 0)
(0.203482 0.527402 0)
(0.315882 0.731707 0)
(0.336746 0.871941 0)
(0.31491 0.94544 0)
(0.297803 1.01529 0)
(0.264078 1.11351 0)
(0.170455 1.16728 0)
(0.0202656 0.700223 0)
(-0.0592184 0.840618 0)
(-0.0689761 1.45694 0)
(-0.188487 1.47524 0)
(-0.234912 1.29436 0)
(-0.278876 0.816751 0)
(-0.225729 0.641564 0)
(-0.140268 0.576892 0)
(-0.0781267 0.569365 0)
(-0.0397375 0.565198 0)
(-0.0101074 0.564572 0)
(0.0137327 0.565088 0)
(0.0542065 0.591916 0)
(0.116166 0.606574 0)
(0.21894 0.639237 0)
(0.296875 0.82947 0)
(0.366668 0.970899 0)
(0.439237 0.998952 0)
(0.508233 1.0038 0)
(0.465377 1.13651 0)
(0.188049 1.36727 0)
(0.0453954 0.604078 0)
(0.068064 0.449686 0)
(0.106956 0.455566 0)
(0.17902 0.61474 0)
(0.32037 0.830648 0)
(0.359785 0.92735 0)
(0.349914 1.01367 0)
(0.332075 1.12474 0)
(0.33797 1.25615 0)
(0.199429 0.891738 0)
(-0.0530673 0.920618 0)
(-0.0508968 1.47016 0)
(0.000335074 1.44593 0)
(0.1158 1.29494 0)
(0.0304448 0.844444 0)
(-0.106237 0.614535 0)
(-0.125591 0.536297 0)
(-0.0565306 0.567288 0)
(-0.0136362 0.592807 0)
(0.0133313 0.602751 0)
(0.0251895 0.611477 0)
(0.0497913 0.590099 0)
(0.110238 0.542254 0)
(0.191804 0.562458 0)
(0.27034 0.76647 0)
(0.379971 0.905139 0)
(0.499185 0.938069 0)
(0.607076 1.00974 0)
(0.552201 1.30397 0)
(0.233976 1.66564 0)
(0.0397154 0.569096 0)
(0.0428956 0.480015 0)
(0.0119771 0.47486 0)
(0.0575751 0.539333 0)
(0.160936 0.70417 0)
(0.312035 0.89291 0)
(0.361091 1.00406 0)
(0.37243 1.1131 0)
(0.420191 1.22369 0)
(0.345749 1.1825 0)
(0.0981565 1.08473 0)
(0.0267388 1.42686 0)
(0.149387 1.32747 0)
(0.310052 1.19971 0)
(0.310204 0.998619 0)
(0.166328 0.764793 0)
(0.0414868 0.488324 0)
(0.0193173 0.490568 0)
(0.0407944 0.534334 0)
(0.0682242 0.553 0)
(0.0429354 0.612709 0)
(0.02873 0.582397 0)
(0.0965013 0.490219 0)
(0.18087 0.518774 0)
(0.262057 0.704638 0)
(0.372569 0.811944 0)
(0.503535 0.863343 0)
(0.558125 1.00392 0)
(0.372531 1.44251 0)
(0.0968416 1.95995 0)
(0.0155769 0.566491 0)
(-0.000987304 0.529627 0)
(-0.0478832 0.520845 0)
(-0.0710849 0.538293 0)
(0.00555824 0.616039 0)
(0.137799 0.758269 0)
(0.302597 0.935552 0)
(0.364051 1.05191 0)
(0.372984 1.19526 0)
(0.361362 1.23704 0)
(0.235465 1.26676 0)
(0.173777 1.36565 0)
(0.248912 1.24953 0)
(0.321381 1.09103 0)
(0.335814 0.994633 0)
(0.289758 0.847774 0)
(0.138207 0.637148 0)
(0.0136517 0.534948 0)
(0.0245005 0.530147 0)
(0.0696524 0.550865 0)
(0.0601528 0.653001 0)
(0.0597285 0.561798 0)
(0.0878631 0.391737 0)
(0.175537 0.457649 0)
(0.241791 0.629026 0)
(0.33141 0.728489 0)
(0.42856 0.791166 0)
(0.309518 1.06338 0)
(0.0282474 1.67108 0)
(-0.0675704 1.87076 0)
(-0.00825283 0.580419 0)
(-0.0473516 0.581058 0)
(-0.100202 0.572727 0)
(-0.144895 0.567717 0)
(-0.14381 0.580558 0)
(-0.0423955 0.649682 0)
(0.126017 0.78113 0)
(0.287252 0.984048 0)
(0.320149 1.17369 0)
(0.346957 1.26708 0)
(0.286823 1.31642 0)
(0.284206 1.34067 0)
(0.311282 1.18818 0)
(0.332523 1.07425 0)
(0.300949 0.996226 0)
(0.238123 0.893297 0)
(0.117691 0.728885 0)
(0.0364989 0.48635 0)
(0.0862758 0.395966 0)
(0.169501 0.457532 0)
(0.19359 0.589928 0)
(0.179281 0.602188 0)
(0.174642 0.330788 0)
(0.171036 0.435282 0)
(0.180942 0.59938 0)
(0.257225 0.670323 0)
(0.231537 0.764812 0)
(-0.00450669 1.33058 0)
(-0.193479 1.6624 0)
(-0.0985799 1.67361 0)
(-0.0237745 0.62664 0)
(-0.0900584 0.646853 0)
(-0.159615 0.625865 0)
(-0.206777 0.606481 0)
(-0.231978 0.585739 0)
(-0.204332 0.583672 0)
(-0.0788058 0.650817 0)
(0.123162 0.823454 0)
(0.260658 1.10801 0)
(0.326789 1.25648 0)
(0.325195 1.33576 0)
(0.341735 1.32472 0)
(0.362623 1.18111 0)
(0.353262 1.06831 0)
(0.30618 1.02061 0)
(0.252524 0.921384 0)
(0.172739 0.798687 0)
(0.114148 0.475728 0)
(0.150811 0.296923 0)
(0.221607 0.382957 0)
(0.256939 0.568968 0)
(0.255289 0.618977 0)
(0.211898 0.371346 0)
(0.113274 0.490609 0)
(0.090223 0.597865 0)
(0.136595 0.615753 0)
(-0.00590317 0.917929 0)
(-0.255758 1.48026 0)
(-0.226772 1.53604 0)
(-0.0990998 1.50247 0)
(-0.0485069 0.677631 0)
(-0.151181 0.727063 0)
(-0.241111 0.671879 0)
(-0.27633 0.636517 0)
(-0.296566 0.597222 0)
(-0.295255 0.564891 0)
(-0.24057 0.558216 0)
(-0.0666459 0.652802 0)
(0.141944 0.974468 0)
(0.278767 1.23272 0)
(0.325151 1.32098 0)
(0.371501 1.30647 0)
(0.391721 1.15041 0)
(0.386694 1.09336 0)
(0.359641 1.00406 0)
(0.351051 0.926286 0)
(0.336071 0.838605 0)
(0.27926 0.515249 0)
(0.249018 0.270585 0)
(0.258684 0.369467 0)
(0.296105 0.587049 0)
(0.21435 0.750963 0)
(0.0556639 0.502058 0)
(-0.0623727 0.594497 0)
(-0.0583176 0.596383 0)
(-0.0916158 0.621223 0)
(-0.257545 1.15877 0)
(-0.339196 1.44231 0)
(-0.234334 1.41922 0)
(-0.0964321 1.34018 0)
(-0.114641 0.780678 0)
(-0.225594 0.861394 0)
(-0.331104 0.732152 0)
(-0.356251 0.636071 0)
(-0.350091 0.592533 0)
(-0.340859 0.55113 0)
(-0.315367 0.51757 0)
(-0.220099 0.518425 0)
(0.0133499 0.762646 0)
(0.204904 1.17492 0)
(0.280973 1.25535 0)
(0.36912 1.2378 0)
(0.399799 1.13287 0)
(0.410898 1.06777 0)
(0.426509 0.965361 0)
(0.462955 0.880222 0)
(0.510291 0.833302 0)
(0.483353 0.590615 0)
(0.402084 0.320813 0)
(0.366711 0.373657 0)
(0.322647 0.642684 0)
(0.0147866 1.01296 0)
(-0.2688 0.659244 0)
(-0.287962 0.671964 0)
(-0.269432 0.588283 0)
(-0.324032 0.736695 0)
(-0.403064 1.20995 0)
(-0.343473 1.37748 0)
(-0.208412 1.27501 0)
(-0.0776524 1.18538 0)
(-0.08229 0.773716 0)
(-0.202279 0.772337 0)
(-0.327525 0.659345 0)
(-0.382392 0.669153 0)
(-0.370349 0.568911 0)
(-0.357929 0.529444 0)
(-0.335577 0.494951 0)
(-0.291592 0.442668 0)
(-0.124533 0.563587 0)
(0.122157 1.05503 0)
(0.260883 1.19054 0)
(0.353294 1.1556 0)
(0.394703 1.08137 0)
(0.440579 1.02266 0)
(0.483569 0.89115 0)
(0.565443 0.79599 0)
(0.653904 0.772328 0)
(0.689681 0.628256 0)
(0.614378 0.417539 0)
(0.460594 0.39407 0)
(0.179651 0.803375 0)
(-0.215019 1.39517 0)
(-0.430133 0.752722 0)
(-0.468098 0.711194 0)
(-0.458102 0.621509 0)
(-0.491387 0.799999 0)
(-0.453937 1.15926 0)
(-0.305508 1.2568 0)
(-0.148835 1.13103 0)
(-0.050963 1.08641 0)
(-0.0388149 0.969561 0)
(-0.139117 0.9729 0)
(-0.273499 0.797908 0)
(-0.314644 0.504582 0)
(-0.345198 0.556018 0)
(-0.312455 0.540372 0)
(-0.329509 0.487492 0)
(-0.320462 0.405577 0)
(-0.239893 0.434441 0)
(0.0243115 0.82479 0)
(0.25221 1.10393 0)
(0.34067 1.05483 0)
(0.397674 1.02107 0)
(0.448253 0.942127 0)
(0.530691 0.781722 0)
(0.637162 0.693692 0)
(0.756463 0.673939 0)
(0.826054 0.611105 0)
(0.751332 0.532894 0)
(0.446924 0.618619 0)
(0.0659049 1.20256 0)
(-0.0819878 1.50763 0)
(-0.326684 0.943888 0)
(-0.549476 0.758257 0)
(-0.55376 0.695208 0)
(-0.564968 0.812197 0)
(-0.464678 1.04311 0)
(-0.274825 1.1075 0)
(-0.126627 1.01855 0)
(-0.0457886 1.02228 0)
(-0.0157545 0.838081 0)
(-0.0558438 0.82975 0)
(-0.109424 0.79708 0)
(-0.210418 0.663038 0)
(-0.246439 0.478837 0)
(-0.240975 0.422201 0)
(-0.277821 0.528983 0)
(-0.298088 0.416233 0)
(-0.315309 0.362026 0)
(-0.081985 0.558663 0)
(0.190532 0.935888 0)
(0.342669 0.995563 0)
(0.398206 0.940005 0)
(0.45124 0.848073 0)
(0.557966 0.669698 0)
(0.682052 0.578597 0)
(0.784751 0.574132 0)
(0.824535 0.596285 0)
(0.684361 0.691557 0)
(0.390233 1.01328 0)
(0.132143 1.22677 0)
(0.148386 1.46483 0)
(-0.027283 1.39525 0)
(-0.376499 0.864608 0)
(-0.545161 0.807792 0)
(-0.567006 0.826387 0)
(-0.48995 0.921651 0)
(-0.302893 0.965346 0)
(-0.155029 0.92559 0)
(-0.0593415 0.940491 0)
(-0.0219295 0.85067 0)
(-0.0623024 0.79817 0)
(-0.0540948 0.714115 0)
(-0.0436684 0.573366 0)
(-0.0514213 0.465405 0)
(-0.127874 0.521296 0)
(-0.18264 0.484212 0)
(-0.238508 0.402059 0)
(-0.290515 0.308503 0)
(-0.153846 0.368826 0)
(0.0866233 0.657966 0)
(0.338551 0.904356 0)
(0.398731 0.878436 0)
(0.453765 0.756671 0)
(0.580646 0.551196 0)
(0.694888 0.465899 0)
(0.769923 0.512404 0)
(0.727055 0.613027 0)
(0.546079 0.871578 0)
(0.330955 1.1167 0)
(0.240937 1.288 0)
(0.238491 1.40382 0)
(0.250796 1.50288 0)
(0.00585281 1.24191 0)
(-0.368018 0.937258 0)
(-0.533912 0.907856 0)
(-0.503593 0.835613 0)
(-0.36086 0.815699 0)
(-0.19942 0.817796 0)
(-0.0708456 0.826685 0)
(-0.0326839 0.904956 0)
(-0.0780663 0.805499 0)
(-0.035152 0.669837 0)
(0.0293252 0.517352 0)
(0.0762515 0.393412 0)
(0.070907 0.447726 0)
(0.00134231 0.550119 0)
(-0.136137 0.498634 0)
(-0.17708 0.244327 0)
(-0.149808 0.258548 0)
(0.0239061 0.421986 0)
(0.259808 0.731897 0)
(0.371279 0.8376 0)
(0.463206 0.666993 0)
(0.590534 0.419381 0)
(0.679728 0.391112 0)
(0.688278 0.492951 0)
(0.592806 0.688253 0)
(0.46209 1.03736 0)
(0.345357 1.19476 0)
(0.307345 1.28619 0)
(0.308012 1.40595 0)
(0.328017 1.4698 0)
(0.294875 1.49177 0)
(-0.0113857 1.29013 0)
(-0.331928 0.989581 0)
(-0.446338 0.81531 0)
(-0.357645 0.69721 0)
(-0.215215 0.692238 0)
(-0.0714236 0.69576 0)
(-0.0406892 0.977681 0)
(-0.082123 0.786881 0)
(-0.022339 0.609898 0)
(0.0611942 0.45026 0)
(0.133957 0.355386 0)
(0.163731 0.431815 0)
(0.143339 0.532677 0)
(0.0696086 0.534092 0)
(0.00929757 0.243353 0)
(-0.022025 0.182094 0)
(0.053044 0.289901 0)
(0.17453 0.560183 0)
(0.308002 0.77982 0)
(0.462369 0.540364 0)
(0.570116 0.322458 0)
(0.609957 0.365295 0)
(0.560043 0.520236 0)
(0.480714 0.748175 0)
(0.429905 1.06512 0)
(0.388127 1.19666 0)
(0.367172 1.31458 0)
(0.342435 1.37428 0)
(0.346796 1.45448 0)
(0.35361 1.49439 0)
(0.275983 1.50424 0)
(-0.0271164 1.3132 0)
(-0.256711 0.821846 0)
(-0.318603 0.643861 0)
(-0.188002 0.584598 0)
(-0.0591584 0.585293 0)
(-0.035703 1.06003 0)
(-0.0639032 0.767654 0)
(-0.0105325 0.552529 0)
(0.0693367 0.395948 0)
(0.119162 0.314469 0)
(0.163985 0.436058 0)
(0.190441 0.579458 0)
(0.207731 0.548812 0)
(0.171685 0.29625 0)
(0.107958 0.18113 0)
(0.0969966 0.249617 0)
(0.12434 0.473753 0)
(0.253307 0.660787 0)
(0.458854 0.397587 0)
(0.517323 0.287704 0)
(0.492697 0.374634 0)
(0.428244 0.543901 0)
(0.398077 0.738316 0)
(0.44642 1.0371 0)
(0.451829 1.21537 0)
(0.408884 1.30888 0)
(0.376473 1.39636 0)
(0.348908 1.42564 0)
(0.351033 1.51076 0)
(0.336029 1.50864 0)
(0.282711 1.49572 0)
(0.0266274 1.01133 0)
(-0.205461 0.62066 0)
(-0.13767 0.487991 0)
(-0.030834 0.528266 0)
(-0.010924 1.10988 0)
(-0.0123522 0.752487 0)
(0.0315221 0.521791 0)
(0.0917067 0.349253 0)
(0.0839911 0.280415 0)
(0.107224 0.390989 0)
(0.15677 0.508656 0)
(0.23079 0.486547 0)
(0.225639 0.327182 0)
(0.166337 0.227904 0)
(0.122455 0.251364 0)
(0.100741 0.455446 0)
(0.224114 0.495649 0)
(0.392088 0.298566 0)
(0.396222 0.304197 0)
(0.333288 0.414893 0)
(0.288464 0.543126 0)
(0.316273 0.667304 0)
(0.433233 0.923983 0)
(0.499068 1.21799 0)
(0.451346 1.35091 0)
(0.387736 1.39716 0)
(0.347185 1.45407 0)
(0.322008 1.4806 0)
(0.314431 1.51333 0)
(0.342589 1.47797 0)
(0.246708 1.32529 0)
(-0.00319619 0.711703 0)
(-0.0436633 0.409144 0)
(-0.00532387 0.470945 0)
(0.0187982 1.11501 0)
(0.0775486 0.773826 0)
(0.107347 0.468959 0)
(0.146574 0.341456 0)
(0.144498 0.307684 0)
(0.141637 0.382154 0)
(0.178628 0.468722 0)
(0.23573 0.470328 0)
(0.23378 0.371894 0)
(0.17736 0.29218 0)
(0.125734 0.279598 0)
(0.0974182 0.461893 0)
(0.210065 0.367544 0)
(0.262636 0.271789 0)
(0.233879 0.351868 0)
(0.157666 0.441056 0)
(0.148628 0.510328 0)
(0.201721 0.564782 0)
(0.326917 0.752901 0)
(0.488563 1.19662 0)
(0.468853 1.3721 0)
(0.401253 1.44569 0)
(0.332835 1.45084 0)
(0.286508 1.48897 0)
(0.267532 1.48093 0)
(0.269614 1.44924 0)
(0.266195 1.36384 0)
(0.12786 0.878928 0)
(0.0427763 0.385031 0)
(-0.0115643 0.472655 0)
(0.0815083 1.10081 0)
(0.14049 0.702322 0)
(0.22045 0.453256 0)
(0.231953 0.361784 0)
(0.202164 0.340695 0)
(0.178528 0.394977 0)
(0.189413 0.454827 0)
(0.216958 0.460909 0)
(0.212115 0.408434 0)
(0.162971 0.354725 0)
(0.10818 0.317825 0)
(0.0973621 0.463651 0)
(0.160869 0.313455 0)
(0.13629 0.309583 0)
(0.082073 0.403584 0)
(0.0284431 0.455388 0)
(0.0317374 0.479346 0)
(0.064519 0.497323 0)
(0.138388 0.592352 0)
(0.337949 1.02778 0)
(0.449711 1.39111 0)
(0.384003 1.45805 0)
(0.322729 1.49178 0)
(0.248785 1.48931 0)
(0.205556 1.4849 0)
(0.169634 1.42593 0)
(0.137783 1.40606 0)
(0.100413 0.933376 0)
(0.073602 0.459755 0)
(-0.00236339 0.455186 0)
(0.114451 1.0129 0)
(0.217994 0.639549 0)
(0.278333 0.456497 0)
(0.269994 0.398084 0)
(0.232795 0.390087 0)
(0.19887 0.420781 0)
(0.189631 0.455154 0)
(0.193882 0.461323 0)
(0.182376 0.437862 0)
(0.143601 0.408125 0)
(0.0945611 0.369537 0)
(0.097143 0.459195 0)
(0.089056 0.332226 0)
(0.0472525 0.359887 0)
(-0.0174434 0.436183 0)
(-0.0379246 0.458446 0)
(-0.0411989 0.475125 0)
(-0.041495 0.488418 0)
(-0.0280043 0.518608 0)
(0.0916017 0.785362 0)
(0.339244 1.32627 0)
(0.357441 1.49387 0)
(0.289323 1.52524 0)
(0.195003 1.53976 0)
(0.115837 1.50072 0)
(0.0453972 1.47492 0)
(0.000317808 1.42076 0)
(0.0413878 0.893673 0)
(0.0700967 0.48254 0)
(0.013095 0.481057 0)
(0.127078 0.891541 0)
(0.235629 0.611956 0)
(0.278501 0.482518 0)
(0.262564 0.442667 0)
(0.227156 0.435102 0)
(0.195937 0.447958 0)
(0.178255 0.464418 0)
(0.167526 0.469314 0)
(0.150837 0.46166 0)
(0.119908 0.450226 0)
(0.0844526 0.425648 0)
(0.0773188 0.467566 0)
(0.0483918 0.377391 0)
(-0.00722198 0.412595 0)
(-0.0469028 0.451019 0)
(-0.0554205 0.466248 0)
(-0.0701912 0.48998 0)
(-0.097439 0.515235 0)
(-0.132934 0.535596 0)
(-0.108225 0.644837 0)
(0.0833389 1.10348 0)
(0.267203 1.49187 0)
(0.226543 1.59978 0)
(0.110976 1.59518 0)
(0.0173394 1.561 0)
(-0.0488853 1.51757 0)
(-0.0318922 1.42066 0)
(0.0522077 0.827909 0)
(0.0641851 0.50358 0)
(0.00673969 0.526178 0)
(0.115219 0.788851 0)
(0.215838 0.601933 0)
(0.239069 0.512076 0)
(0.220842 0.477496 0)
(0.195637 0.466544 0)
(0.172619 0.470279 0)
(0.153864 0.479208 0)
(0.1363 0.485463 0)
(0.116437 0.48732 0)
(0.0952779 0.489122 0)
(0.0747115 0.483241 0)
(0.0696588 0.499614 0)
(0.0398751 0.461849 0)
(-0.000617727 0.468896 0)
(-0.0247812 0.467912 0)
(-0.0454117 0.481529 0)
(-0.07696 0.513969 0)
(-0.123099 0.556988 0)
(-0.188964 0.599827 0)
(-0.240137 0.663679 0)
(-0.168316 0.904538 0)
(0.0368617 1.40827 0)
(0.10292 1.68989 0)
(0.0246994 1.71102 0)
(-0.0391614 1.63295 0)
(-0.0378331 1.5624 0)
(0.0602613 1.35648 0)
(0.126912 0.822744 0)
(0.0776444 0.588217 0)
(-0.0046779 0.578092 0)
(0.0746497 0.69052 0)
(0.155109 0.590858 0)
(0.17208 0.525189 0)
(0.16638 0.494989 0)
(0.154141 0.485086 0)
(0.139631 0.487963 0)
(0.123705 0.497718 0)
(0.104996 0.508908 0)
(0.0843961 0.517501 0)
(0.0695087 0.522911 0)
(0.0606505 0.523632 0)
(0.0580492 0.521654 0)
(0.0415596 0.503545 0)
(0.020798 0.498894 0)
(0.000276503 0.495825 0)
(-0.0282584 0.515839 0)
(-0.0681119 0.561406 0)
(-0.124798 0.620389 0)
(-0.203564 0.685736 0)
(-0.300199 0.762203 0)
(-0.329836 0.906824 0)
(-0.247756 1.3008 0)
(-0.110024 1.73195 0)
(-0.0726721 1.79952 0)
(-0.0405037 1.63328 0)
(0.0641418 1.53538 0)
(0.195392 1.29338 0)
(0.212539 0.917339 0)
(0.120577 0.717898 0)
(0.0166929 0.63344 0)
(0.0391051 0.61648 0)
(0.0943488 0.562782 0)
(0.113718 0.519775 0)
(0.116824 0.499227 0)
(0.113061 0.494428 0)
(0.105863 0.500912 0)
(0.0962203 0.515427 0)
(0.0834597 0.533147 0)
(0.0682743 0.546317 0)
(0.061906 0.547367 0)
(0.0644781 0.549614 0)
(0.0649512 0.547701 0)
(0.0558793 0.540196 0)
(0.0411791 0.535857 0)
(0.0224889 0.542261 0)
(-0.00381044 0.576052 0)
(-0.0462199 0.635047 0)
(-0.105977 0.707031 0)
(-0.18225 0.7844 0)
(-0.274799 0.87668 0)
(-0.375987 1.0234 0)
(-0.381579 1.3105 0)
(-0.262006 1.75172 0)
(-0.107899 1.85592 0)
(-0.000618434 1.64116 0)
(0.136131 1.53211 0)
(0.252308 1.33022 0)
(0.232738 1.05819 0)
(0.124839 0.872737 0)
(0.0302053 0.722484 0)
(0.0209989 0.561729 0)
(0.0571649 0.534292 0)
(0.0718941 0.509368 0)
(0.0758051 0.497965 0)
(0.075355 0.498164 0)
(0.0732614 0.50846 0)
(0.0705924 0.527578 0)
(0.067357 0.551009 0)
(0.0583611 0.568376 0)
(0.0566498 0.556746 0)
(0.0679594 0.558021 0)
(0.0769013 0.566266 0)
(0.075026 0.573977 0)
(0.0675024 0.57497 0)
(0.0582347 0.598387 0)
(0.0378843 0.648857 0)
(-0.00783777 0.73807 0)
(-0.0767136 0.813153 0)
(-0.145447 0.888458 0)
(-0.205184 0.97126 0)
(-0.260245 1.12559 0)
(-0.298003 1.39725 0)
(-0.228909 1.80053 0)
(-0.058291 1.93812 0)
(0.00694813 1.74531 0)
(0.0894682 1.59879 0)
(0.164221 1.41141 0)
(0.145571 1.21778 0)
(0.0681409 1.03162 0)
(0.0241287 0.843566 0)
(0.0112091 0.53184 0)
(0.032717 0.516626 0)
(0.040228 0.502227 0)
(0.0408372 0.49642 0)
(0.0396734 0.499517 0)
(0.0392071 0.511632 0)
(0.0410261 0.53289 0)
(0.0467847 0.55955 0)
(0.0477539 0.584181 0)
(0.0514415 0.559214 0)
(0.0676541 0.553464 0)
(0.0924107 0.568561 0)
(0.102371 0.58985 0)
(0.109772 0.603022 0)
(0.120077 0.65472 0)
(0.11562 0.728279 0)
(0.047754 0.850116 0)
(-0.0534531 0.914538 0)
(-0.13427 0.965039 0)
(-0.180393 1.04231 0)
(-0.145248 1.18156 0)
(-0.075802 1.3532 0)
(-0.0284525 1.54711 0)
(0.00928566 1.71158 0)
(0.0106837 1.57481 0)
(0.0108425 1.46252 0)
(0.064757 1.33881 0)
(0.0879604 1.23078 0)
(0.0447946 1.07476 0)
(0.0131632 0.89616 0)
(0.00483699 0.51921 0)
(0.0139149 0.510762 0)
(0.0135506 0.502334 0)
(0.00856168 0.499082 0)
(0.00363702 0.50249 0)
(0.00140183 0.513775 0)
(0.00384417 0.53436 0)
(0.012664 0.561651 0)
(0.0256756 0.59377 0)
(0.0372638 0.568 0)
(0.0565265 0.535851 0)
(0.0930836 0.545366 0)
(0.138659 0.58364 0)
(0.186391 0.593756 0)
(0.214035 0.679483 0)
(0.161284 0.833968 0)
(0.0264737 0.947465 0)
(-0.040451 0.93001 0)
(-0.072736 0.931527 0)
(-0.0577056 0.884388 0)
(-0.0264006 0.903014 0)
(-0.00516748 1.15033 0)
(0.0210663 1.52142 0)
(0.097181 1.70138 0)
(0.16536 1.6113 0)
(0.17437 1.36415 0)
(0.167757 1.15859 0)
(0.141943 1.09886 0)
(0.0849504 0.991818 0)
(0.0273393 0.769041 0)
(5.8001e-06 0.519282 0)
(-0.00245158 0.51624 0)
(-0.0112316 0.51238 0)
(-0.0234648 0.510338 0)
(-0.0345451 0.512101 0)
(-0.0408227 0.519854 0)
(-0.0396726 0.536286 0)
(-0.0301651 0.560033 0)
(-0.00734451 0.583922 0)
(-0.00457574 0.570699 0)
(0.0106137 0.509021 0)
(0.0591132 0.494607 0)
(0.138749 0.513897 0)
(0.229767 0.526387 0)
(0.252343 0.705876 0)
(0.139688 0.859604 0)
(0.0755962 0.99258 0)
(0.0614722 0.972576 0)
(0.0606002 0.956242 0)
(0.0532023 0.961115 0)
(0.0149117 1.01338 0)
(-0.005248 1.16557 0)
(0.0513951 1.30659 0)
(0.17939 1.38486 0)
(0.305058 1.37628 0)
(0.364437 1.309 0)
(0.339084 1.24459 0)
(0.269692 1.20898 0)
(0.184652 1.13067 0)
(0.0675258 0.947399 0)
(-0.00363395 0.527177 0)
(-0.0162319 0.530134 0)
(-0.0344846 0.530853 0)
(-0.0558225 0.529954 0)
(-0.0755398 0.529286 0)
(-0.0890951 0.531514 0)
(-0.0927601 0.540494 0)
(-0.0849878 0.557558 0)
(-0.0657719 0.578785 0)
(-0.0537076 0.594991 0)
(-0.0582527 0.490602 0)
(-0.0205141 0.434093 0)
(0.0551048 0.420929 0)
(0.171117 0.506032 0)
(0.022837 0.78292 0)
(-0.0807219 0.966382 0)
(-0.10886 0.908035 0)
(-0.0637118 0.83769 0)
(-0.00772768 0.819639 0)
(0.0232748 0.812701 0)
(0.0430369 0.857261 0)
(0.069567 0.95061 0)
(0.138006 1.04787 0)
(0.233395 1.11744 0)
(0.315906 1.12987 0)
(0.354083 1.11591 0)
(0.331329 1.09809 0)
(0.273357 1.0935 0)
(0.192492 1.05536 0)
(0.0709124 0.915438 0)
(-0.00475843 0.539911 0)
(-0.0252346 0.553835 0)
(-0.0550339 0.559604 0)
(-0.0880761 0.560814 0)
(-0.120279 0.556885 0)
(-0.146035 0.54978 0)
(-0.159537 0.546765 0)
(-0.159564 0.554594 0)
(-0.147802 0.570606 0)
(-0.121165 0.591151 0)
(-0.134299 0.514689 0)
(-0.132655 0.406419 0)
(-0.0686486 0.378971 0)
(-0.191872 0.60588 0)
(-0.319843 0.915671 0)
(-0.36274 0.888267 0)
(-0.29469 0.796469 0)
(-0.208498 0.731618 0)
(-0.106765 0.732483 0)
(-0.0333236 0.729509 0)
(0.0391173 0.788823 0)
(0.111759 0.880272 0)
(0.189683 0.970305 0)
(0.269349 1.03914 0)
(0.327364 1.08048 0)
(0.345867 1.10476 0)
(0.321737 1.12742 0)
(0.262306 1.14857 0)
(0.18835 1.12037 0)
(0.0709929 1.04138 0)
(-0.000646035 0.553283 0)
(-0.0260964 0.586589 0)
(-0.0708227 0.594388 0)
(-0.118943 0.599643 0)
(-0.172053 0.598059 0)
(-0.217694 0.585797 0)
(-0.242173 0.565886 0)
(-0.250274 0.557452 0)
(-0.248027 0.564327 0)
(-0.219474 0.578852 0)
(-0.205329 0.545482 0)
(-0.235678 0.418553 0)
(-0.354828 0.512418 0)
(-0.526619 0.850899 0)
(-0.59457 0.910464 0)
(-0.522081 0.807045 0)
(-0.431976 0.707951 0)
(-0.338623 0.635445 0)
(-0.234616 0.637476 0)
(-0.13405 0.673256 0)
(-0.040094 0.728458 0)
(0.0651702 0.819936 0)
(0.165588 0.889071 0)
(0.256479 0.967496 0)
(0.320975 1.03633 0)
(0.343798 1.10824 0)
(0.322407 1.16564 0)
(0.274973 1.21478 0)
(0.191278 1.19641 0)
(0.0646451 1.16617 0)
(0.00410313 0.543227 0)
(-0.024564 0.618249 0)
(-0.0905846 0.620391 0)
(-0.151835 0.63424 0)
(-0.226662 0.637307 0)
(-0.297672 0.620487 0)
(-0.345435 0.590812 0)
(-0.364552 0.5761 0)
(-0.369011 0.563511 0)
(-0.361258 0.564661 0)
(-0.327892 0.572549 0)
(-0.350625 0.575818 0)
(-0.634291 0.782884 0)
(-0.697362 0.966403 0)
(-0.674321 0.851274 0)
(-0.580479 0.74545 0)
(-0.497376 0.656048 0)
(-0.429245 0.574193 0)
(-0.352578 0.561688 0)
(-0.258992 0.594497 0)
(-0.168179 0.63426 0)
(-0.0595882 0.710082 0)
(0.0578559 0.798939 0)
(0.171961 0.895184 0)
(0.268447 0.999071 0)
(0.328892 1.12105 0)
(0.323591 1.19353 0)
(0.275638 1.27262 0)
(0.191278 1.32983 0)
(0.0596318 1.29718 0)
(-0.0138308 0.51579 0)
(-0.0562577 0.656684 0)
(-0.162841 0.639643 0)
(-0.248364 0.647484 0)
(-0.320568 0.657379 0)
(-0.371848 0.640048 0)
(-0.440248 0.614913 0)
(-0.487825 0.593219 0)
(-0.512312 0.578627 0)
(-0.520979 0.567296 0)
(-0.486977 0.598281 0)
(-0.445189 0.794242 0)
(-0.63307 0.984028 0)
(-0.678153 1.01147 0)
(-0.658923 0.808516 0)
(-0.592153 0.702183 0)
(-0.523873 0.623106 0)
(-0.477956 0.551453 0)
(-0.434619 0.518326 0)
(-0.369702 0.54259 0)
(-0.294624 0.57616 0)
(-0.206849 0.629212 0)
(-0.0996031 0.698994 0)
(0.023077 0.784841 0)
(0.149202 0.89945 0)
(0.256362 1.06418 0)
(0.29598 1.23356 0)
(0.253594 1.36492 0)
(0.163525 1.42482 0)
(0.0471944 1.41443 0)
(-0.0828261 0.546335 0)
(-0.142115 0.741241 0)
(-0.275066 0.743822 0)
(-0.395568 0.739693 0)
(-0.497657 0.680368 0)
(-0.549808 0.637436 0)
(-0.568831 0.642731 0)
(-0.586047 0.609909 0)
(-0.633445 0.592999 0)
(-0.663697 0.601163 0)
(-0.64855 0.626783 0)
(-0.504047 0.835493 0)
(-0.528299 1.10793 0)
(-0.573003 1.0643 0)
(-0.595122 0.796547 0)
(-0.563102 0.677711 0)
(-0.521243 0.607318 0)
(-0.488553 0.545353 0)
(-0.467223 0.508197 0)
(-0.433759 0.514775 0)
(-0.385258 0.536832 0)
(-0.322782 0.57318 0)
(-0.24174 0.620553 0)
(-0.137334 0.683796 0)
(-0.0117451 0.786051 0)
(0.116245 0.976467 0)
(0.197667 1.22749 0)
(0.17939 1.42581 0)
(0.0988285 1.52354 0)
(0.0182706 1.49504 0)
(-0.120379 0.674918 0)
(-0.191158 0.771489 0)
(-0.315848 0.829881 0)
(-0.484201 0.798385 0)
(-0.529259 0.74525 0)
(-0.550079 0.656809 0)
(-0.579438 0.584409 0)
(-0.60568 0.635514 0)
(-0.66767 0.615248 0)
(-0.740686 0.642253 0)
(-0.760986 0.666289 0)
(-0.631405 0.798252 0)
(-0.473738 1.1436 0)
(-0.438473 1.13308 0)
(-0.501282 0.829635 0)
(-0.526656 0.6705 0)
(-0.506487 0.601317 0)
(-0.490054 0.546525 0)
(-0.479191 0.513463 0)
(-0.465198 0.510544 0)
(-0.436243 0.524415 0)
(-0.392795 0.548701 0)
(-0.335741 0.580188 0)
(-0.264706 0.619863 0)
(-0.175098 0.692271 0)
(-0.0663475 0.877276 0)
(0.03528 1.19769 0)
(0.0588744 1.47358 0)
(-0.00322804 1.6084 0)
(-0.0166602 1.52512 0)
(-0.0987999 0.833757 0)
(-0.221785 0.86905 0)
(-0.365055 0.935625 0)
(-0.341997 0.868161 0)
(-0.307647 0.769584 0)
(-0.32441 0.74271 0)
(-0.346429 0.729572 0)
(-0.520547 0.736604 0)
(-0.607205 0.716612 0)
(-0.748952 0.688629 0)
(-0.815432 0.715446 0)
(-0.767379 0.769691 0)
(-0.550311 1.00746 0)
(-0.369665 1.13078 0)
(-0.405449 0.899669 0)
(-0.478346 0.687141 0)
(-0.498126 0.603836 0)
(-0.496366 0.548162 0)
(-0.491355 0.51529 0)
(-0.480125 0.505251 0)
(-0.457234 0.511202 0)
(-0.422264 0.52944 0)
(-0.381274 0.559763 0)
(-0.339579 0.600734 0)
(-0.303194 0.665906 0)
(-0.255338 0.820144 0)
(-0.176721 1.14481 0)
(-0.106065 1.49738 0)
(-0.110861 1.65821 0)
(-0.0405594 1.48252 0)
(-0.0910914 0.960358 0)
(-0.197838 0.972125 0)
(-0.174116 0.925875 0)
(-0.106883 0.84583 0)
(-0.117881 0.848514 0)
(-0.203288 0.885182 0)
(-0.256492 0.907553 0)
(-0.312346 0.922083 0)
(-0.549692 0.956711 0)
(-0.677967 0.782514 0)
(-0.795383 0.768446 0)
(-0.815235 0.779727 0)
(-0.68278 0.86508 0)
(-0.448573 1.04711 0)
(-0.359623 0.945229 0)
(-0.440517 0.732018 0)
(-0.49298 0.608657 0)
(-0.505979 0.546879 0)
(-0.502901 0.508836 0)
(-0.488361 0.490888 0)
(-0.463314 0.490044 0)
(-0.430821 0.508346 0)
(-0.399749 0.549838 0)
(-0.385724 0.613764 0)
(-0.402739 0.704018 0)
(-0.421334 0.83423 0)
(-0.378778 1.10855 0)
(-0.285848 1.47085 0)
(-0.200577 1.63808 0)
(-0.0403745 1.38793 0)
(-0.046229 1.09432 0)
(-0.0785485 0.962351 0)
(0.0316949 0.916056 0)
(0.0498443 0.930414 0)
(-0.0171713 0.9645 0)
(-0.117149 1.01838 0)
(-0.226555 1.04412 0)
(-0.220197 1.20287 0)
(-0.545712 1.27364 0)
(-0.629186 0.93109 0)
(-0.765992 0.822208 0)
(-0.807936 0.795846 0)
(-0.761062 0.805866 0)
(-0.587631 0.882195 0)
(-0.416975 0.928148 0)
(-0.418886 0.784625 0)
(-0.485458 0.624477 0)
(-0.51232 0.54285 0)
(-0.510815 0.495492 0)
(-0.494876 0.469436 0)
(-0.469878 0.462589 0)
(-0.437139 0.479845 0)
(-0.400344 0.536373 0)
(-0.399954 0.646546 0)
(-0.455813 0.782843 0)
(-0.512924 0.910958 0)
(-0.518101 1.11892 0)
(-0.418319 1.40937 0)
(-0.256988 1.5486 0)
(-0.0469145 1.30317 0)
(0.0614136 1.13468 0)
(0.109459 0.943329 0)
(0.152398 0.971532 0)
(0.120207 1.02847 0)
(0.0350732 1.08943 0)
(-0.0916265 1.15476 0)
(-0.243738 1.17667 0)
(-0.339289 1.48137 0)
(-0.610421 1.54649 0)
(-0.648205 1.07226 0)
(-0.755308 0.86961 0)
(-0.793101 0.802839 0)
(-0.775773 0.772042 0)
(-0.686362 0.780602 0)
(-0.535522 0.8233 0)
(-0.444399 0.789132 0)
(-0.474743 0.652394 0)
(-0.509788 0.540816 0)
(-0.515895 0.481949 0)
(-0.504815 0.448736 0)
(-0.479033 0.437182 0)
(-0.434594 0.451346 0)
(-0.391837 0.51202 0)
(-0.395099 0.66989 0)
(-0.433379 0.835448 0)
(-0.533458 0.976758 0)
(-0.573126 1.14218 0)
(-0.477703 1.34458 0)
(-0.286606 1.427 0)
(-0.0593967 1.2177 0)
(0.146146 1.05687 0)
(0.193803 0.97329 0)
(0.189825 1.03732 0)
(0.160223 1.11027 0)
(0.0543822 1.21146 0)
(-0.125044 1.29544 0)
(-0.360469 1.40247 0)
(-0.74672 1.72247 0)
(-0.706011 1.61346 0)
(-0.711642 1.13493 0)
(-0.754689 0.894623 0)
(-0.781285 0.799303 0)
(-0.770191 0.748174 0)
(-0.723325 0.719594 0)
(-0.621938 0.725182 0)
(-0.511859 0.736817 0)
(-0.474388 0.654181 0)
(-0.500726 0.544836 0)
(-0.5169 0.473375 0)
(-0.509897 0.432271 0)
(-0.479997 0.41267 0)
(-0.435705 0.41374 0)
(-0.400564 0.489977 0)
(-0.393699 0.69096 0)
(-0.464079 0.897563 0)
(-0.524683 1.04537 0)
(-0.546562 1.14445 0)
(-0.461375 1.25166 0)
(-0.287333 1.29044 0)
(-0.0879386 1.12087 0)
(0.0832079 0.984101 0)
(0.154835 0.999694 0)
(0.181122 1.06843 0)
(0.140436 1.149 0)
(-0.0134149 1.33313 0)
(-0.342611 1.50486 0)
(-0.728103 1.82602 0)
(-0.870885 1.7942 0)
(-0.78823 1.51744 0)
(-0.74144 1.11938 0)
(-0.742881 0.897158 0)
(-0.767223 0.788762 0)
(-0.761203 0.726731 0)
(-0.731026 0.679283 0)
(-0.668077 0.657358 0)
(-0.572796 0.659335 0)
(-0.502364 0.627602 0)
(-0.498205 0.543653 0)
(-0.511324 0.470815 0)
(-0.507935 0.415405 0)
(-0.477459 0.385545 0)
(-0.440922 0.383191 0)
(-0.425281 0.499106 0)
(-0.457482 0.733454 0)
(-0.489986 0.928579 0)
(-0.491405 1.05471 0)
(-0.465781 1.12066 0)
(-0.386044 1.16291 0)
(-0.272281 1.17446 0)
(-0.0975821 0.973922 0)
(0.0450691 0.906156 0)
(0.106523 0.989879 0)
(0.111695 1.06282 0)
(-0.00079682 1.23269 0)
(-0.280006 1.58657 0)
(-0.629477 1.84641 0)
(-0.764582 1.91237 0)
(-0.773263 1.78838 0)
(-0.757362 1.40459 0)
(-0.696102 1.09653 0)
(-0.714924 0.896706 0)
(-0.747795 0.780267 0)
(-0.751327 0.707813 0)
(-0.731112 0.64901 0)
(-0.688616 0.607802 0)