/*--------------------------------*- C++ -*----------------------------------*\
| =========                 |                                                 |
| \\      /  F ield         | OpenFOAM: The Open Source CFD Toolbox           |
|  \\    /   O peration     | Version:  2.3.0                                 |
|   \\  /    A nd           | Web:      www.OpenFOAM.org                      |
|    \\/     M anipulation  |                                                 |
\*---------------------------------------------------------------------------*/
FoamFile
{
    version     2.0;
    format      ascii;
    class       volVectorField;
    location    "1.59";
    object      Ur;
}
// * * * * * * * * * * * * * * * * * * * * * * * * * * * * * * * * * * * * * //

dimensions      [0 1 -1 0 0 0 0];

internalField   nonuniform List<vector> 
6000
(
(0.0290344 -0.58421 0)
(0.0195916 -0.566728 0)
(-0.0386482 -0.592359 0)
(-0.0934735 -0.612016 0)
(-0.128746 -0.629252 0)
(-0.101743 -0.639345 0)
(0.00580851 -0.671518 0)
(0.135363 -0.627723 0)
(0.110374 -0.564778 0)
(-0.0817806 -0.504319 0)
(-0.212833 -0.559287 0)
(-0.183658 -0.658628 0)
(-0.0297842 -0.730022 0)
(0.140949 -0.604521 0)
(0.247315 -0.558163 0)
(0.299976 -0.523779 0)
(0.30871 -0.479203 0)
(0.277252 -0.455079 0)
(0.212509 -0.442277 0)
(0.1379 -0.448157 0)
(0.070841 -0.452883 0)
(0.0178202 -0.478078 0)
(-0.015387 -0.55153 0)
(-0.024221 -0.60904 0)
(0.00448464 -0.634228 0)
(0.101019 -0.646818 0)
(0.26153 -0.605565 0)
(0.363998 -0.540811 0)
(0.336657 -0.534522 0)
(0.140226 -0.542756 0)
(-0.0170388 -0.999853 0)
(-0.0774844 -0.923116 0)
(-0.152125 -0.94392 0)
(-0.185558 -0.978154 0)
(-0.167481 -1.03104 0)
(-0.115143 -1.12601 0)
(-0.0597042 -1.20437 0)
(0.000545888 -1.24136 0)
(0.0553846 -0.935867 0)
(-0.036454 -0.709781 0)
(-0.181913 -0.901649 0)
(-0.108814 -1.26447 0)
(0.0995767 -1.27961 0)
(0.318291 -1.13945 0)
(0.46734 -0.959149 0)
(0.488509 -0.850714 0)
(0.435846 -0.76106 0)
(0.356396 -0.71289 0)
(0.273303 -0.699466 0)
(0.184626 -0.706422 0)
(0.0983724 -0.727582 0)
(0.0278579 -0.775975 0)
(-0.0138875 -0.841134 0)
(-0.0324188 -0.888548 0)
(-0.0226656 -0.942078 0)
(0.0214039 -0.995835 0)
(0.0884089 -1.02531 0)
(0.166323 -0.969931 0)
(0.178047 -0.871466 0)
(0.0772015 -0.887724 0)
(-0.0138365 -0.785401 0)
(-0.0997129 -0.643243 0)
(-0.221059 -0.697801 0)
(-0.265708 -0.82408 0)
(-0.229675 -0.934091 0)
(-0.175072 -1.01074 0)
(-0.134479 -1.0927 0)
(-0.0958164 -1.13975 0)
(0.0230262 -0.993058 0)
(0.00934385 -0.539061 0)
(-0.153741 -0.687628 0)
(-0.137792 -1.20278 0)
(0.0941706 -1.26922 0)
(0.309838 -1.13845 0)
(0.372799 -0.816431 0)
(0.32243 -0.672646 0)
(0.253808 -0.59907 0)
(0.197549 -0.564025 0)
(0.155135 -0.557522 0)
(0.114434 -0.559646 0)
(0.0726382 -0.574663 0)
(0.0285064 -0.613295 0)
(-0.0188202 -0.666803 0)
(-0.0567784 -0.72187 0)
(-0.0679665 -0.819423 0)
(-0.0401146 -0.897317 0)
(-0.0181129 -0.926033 0)
(-0.0215621 -0.861455 0)
(-0.0278932 -0.77135 0)
(-0.0156747 -0.879039 0)
(-0.00659609 -0.722021 0)
(-0.0661842 -0.514818 0)
(-0.189922 -0.55684 0)
(-0.297438 -0.768145 0)
(-0.306146 -0.928673 0)
(-0.262907 -1.02143 0)
(-0.212854 -1.10122 0)
(-0.156761 -1.18204 0)
(-0.0583923 -1.18516 0)
(-0.0324314 -0.635975 0)
(-0.117277 -0.699968 0)
(-0.137594 -1.29839 0)
(-0.0335717 -1.35937 0)
(0.102517 -1.26373 0)
(0.179855 -0.848 0)
(0.184801 -0.691823 0)
(0.150882 -0.642286 0)
(0.122529 -0.625434 0)
(0.103257 -0.619259 0)
(0.0862962 -0.609575 0)
(0.0701874 -0.599278 0)
(0.0509672 -0.613222 0)
(0.0161507 -0.637002 0)
(-0.0272362 -0.676875 0)
(-0.0614939 -0.799983 0)
(-0.0851039 -0.872196 0)
(-0.134333 -0.879856 0)
(-0.204739 -0.862513 0)
(-0.223944 -0.963536 0)
(-0.103682 -1.19833 0)
(-0.0223086 -0.63024 0)
(-0.0406909 -0.457908 0)
(-0.0796105 -0.450241 0)
(-0.212759 -0.618379 0)
(-0.342689 -0.881131 0)
(-0.353251 -1.01537 0)
(-0.312822 -1.10374 0)
(-0.256223 -1.18702 0)
(-0.220329 -1.27158 0)
(-0.115817 -0.825263 0)
(-0.0703747 -0.777526 0)
(-0.122448 -1.33271 0)
(-0.148712 -1.40349 0)
(-0.142451 -1.42373 0)
(-0.0447475 -1.06533 0)
(0.108639 -0.816199 0)
(0.160901 -0.749487 0)
(0.127734 -0.763252 0)
(0.112902 -0.769342 0)
(0.105834 -0.751432 0)
(0.0987139 -0.723593 0)
(0.0898293 -0.679764 0)
(0.0536456 -0.639219 0)
(0.00355822 -0.641668 0)
(-0.0413599 -0.754473 0)
(-0.106283 -0.79254 0)
(-0.208686 -0.794904 0)
(-0.333534 -0.84107 0)
(-0.381308 -1.12887 0)
(-0.188857 -1.51169 0)
(-0.0224408 -0.574503 0)
(-0.0281221 -0.462273 0)
(0.00170373 -0.44026 0)
(-0.0476385 -0.494258 0)
(-0.22019 -0.706174 0)
(-0.368887 -0.957764 0)
(-0.396474 -1.07373 0)
(-0.374522 -1.1583 0)
(-0.334977 -1.23274 0)
(-0.233369 -1.10795 0)
(-0.0948251 -0.937553 0)
(-0.124153 -1.29149 0)
(-0.200664 -1.33542 0)
(-0.268763 -1.40111 0)
(-0.268487 -1.30838 0)
(-0.108607 -1.10825 0)
(0.0349697 -0.8506 0)
(0.0877523 -0.847053 0)
(0.105547 -0.867187 0)
(0.115729 -0.850269 0)
(0.148081 -0.856322 0)
(0.170123 -0.755551 0)
(0.108733 -0.643095 0)
(0.0241465 -0.621045 0)
(-0.0415512 -0.68505 0)
(-0.134257 -0.695963 0)
(-0.272537 -0.718718 0)
(-0.392138 -0.834982 0)
(-0.334157 -1.2898 0)
(-0.11044 -1.82946 0)
(-0.00930892 -0.557836 0)
(0.00156763 -0.498159 0)
(0.0443505 -0.4702 0)
(0.0635859 -0.47226 0)
(-0.0216387 -0.543554 0)
(-0.215549 -0.757152 0)
(-0.379301 -0.994446 0)
(-0.424086 -1.09685 0)
(-0.364703 -1.13889 0)
(-0.257904 -1.12907 0)
(-0.17566 -1.10028 0)
(-0.17857 -1.21737 0)
(-0.253719 -1.2796 0)
(-0.293176 -1.31932 0)
(-0.29838 -1.31416 0)
(-0.220175 -1.22199 0)
(-0.0371714 -1.04459 0)
(0.117248 -0.946679 0)
(0.151168 -0.925248 0)
(0.150187 -0.911516 0)
(0.177971 -0.971496 0)
(0.211862 -0.795158 0)
(0.154822 -0.5762 0)
(0.0362892 -0.559643 0)
(-0.0595503 -0.586447 0)
(-0.17327 -0.601403 0)
(-0.318733 -0.64788 0)
(-0.294758 -0.918762 0)
(-0.0715458 -1.53581 0)
(0.0351338 -1.74575 0)
(0.00627792 -0.564181 0)
(0.0325902 -0.538945 0)
(0.0745253 -0.510023 0)
(0.111086 -0.48882 0)
(0.102656 -0.49287 0)
(-0.00805434 -0.566258 0)
(-0.208782 -0.789504 0)
(-0.376347 -1.01703 0)
(-0.38244 -1.07011 0)
(-0.281533 -1.11764 0)
(-0.221512 -1.12932 0)
(-0.244365 -1.18943 0)
(-0.307908 -1.24234 0)
(-0.323511 -1.30605 0)
(-0.253993 -1.28016 0)
(-0.136821 -1.23204 0)
(0.0268797 -1.11357 0)
(0.135474 -0.882949 0)
(0.123166 -0.777175 0)
(0.0787238 -0.801578 0)
(0.0789727 -0.87773 0)
(0.137411 -0.827321 0)
(0.112271 -0.492953 0)
(0.0191122 -0.483975 0)
(-0.0817548 -0.501602 0)
(-0.20701 -0.524208 0)
(-0.256499 -0.628538 0)
(-0.0872867 -1.20734 0)
(0.127048 -1.53418 0)
(0.05622 -1.56055 0)
(0.0128772 -0.602399 0)
(0.0571771 -0.592836 0)
(0.108628 -0.551008 0)
(0.142938 -0.517978 0)
(0.160767 -0.491143 0)
(0.127032 -0.492234 0)
(0.00034998 -0.583024 0)
(-0.213715 -0.832148 0)
(-0.362495 -1.04985 0)
(-0.320087 -1.11577 0)
(-0.263217 -1.14802 0)
(-0.295419 -1.18043 0)
(-0.364875 -1.25212 0)
(-0.341569 -1.27581 0)
(-0.234763 -1.27859 0)
(-0.102359 -1.25878 0)
(0.0225935 -1.18797 0)
(0.0994856 -0.871222 0)
(0.0845134 -0.670891 0)
(0.0345875 -0.709353 0)
(0.0317563 -0.82144 0)
(0.0511798 -0.796969 0)
(0.0389357 -0.461778 0)
(-0.0121304 -0.444647 0)
(-0.106102 -0.440369 0)
(-0.196733 -0.459606 0)
(-0.110523 -0.780018 0)
(0.132192 -1.34702 0)
(0.160582 -1.40599 0)
(0.0580168 -1.40052 0)
(0.024611 -0.641576 0)
(0.0977149 -0.653843 0)
(0.157522 -0.582524 0)
(0.18166 -0.538048 0)
(0.198135 -0.499011 0)
(0.194877 -0.474998 0)
(0.136428 -0.48844 0)
(-0.0258989 -0.617021 0)
(-0.259107 -0.947532 0)
(-0.33007 -1.13347 0)
(-0.295524 -1.16645 0)
(-0.346218 -1.20561 0)
(-0.402708 -1.24465 0)
(-0.357662 -1.25555 0)
(-0.238449 -1.23979 0)
(-0.147812 -1.27178 0)
(-0.0785858 -1.24047 0)
(-0.00814637 -0.923337 0)
(0.0223526 -0.661774 0)
(0.00687044 -0.694485 0)
(-0.000742224 -0.818508 0)
(0.0473683 -0.885692 0)
(0.0684197 -0.511235 0)
(0.00983484 -0.443328 0)
(-0.0747955 -0.394089 0)
(-0.092951 -0.457148 0)
(0.0576746 -1.01444 0)
(0.214181 -1.28902 0)
(0.170686 -1.28006 0)
(0.0612643 -1.24117 0)
(0.0332979 -0.713522 0)
(0.127183 -0.756689 0)
(0.205808 -0.621464 0)
(0.228512 -0.527754 0)
(0.231159 -0.491423 0)
(0.227964 -0.46442 0)
(0.203719 -0.458304 0)
(0.113834 -0.495248 0)
(-0.0932357 -0.759464 0)
(-0.288564 -1.12797 0)
(-0.326813 -1.19938 0)
(-0.372354 -1.21338 0)
(-0.408782 -1.22974 0)
(-0.343136 -1.18169 0)
(-0.262875 -1.18116 0)
(-0.230784 -1.22502 0)
(-0.227001 -1.23955 0)
(-0.182436 -1.00314 0)
(-0.107464 -0.719295 0)
(-0.0950334 -0.713065 0)
(-0.0647635 -0.892517 0)
(0.145785 -1.14488 0)
(0.214622 -0.56041 0)
(0.101736 -0.452073 0)
(0.03283 -0.363527 0)
(0.0615846 -0.549202 0)
(0.167469 -1.04961 0)
(0.209305 -1.21907 0)
(0.144896 -1.13514 0)
(0.044287 -1.08739 0)
(0.0614155 -0.939844 0)
(0.190293 -1.00015 0)
(0.24171 -0.719181 0)
(0.242311 -0.552132 0)
(0.245451 -0.464045 0)
(0.245802 -0.447538 0)
(0.232184 -0.4446 0)
(0.196028 -0.441674 0)
(0.0522041 -0.593922 0)
(-0.187804 -1.03792 0)
(-0.322262 -1.17443 0)
(-0.366722 -1.19161 0)
(-0.371006 -1.15122 0)
(-0.315629 -1.10834 0)
(-0.295189 -1.11044 0)
(-0.316146 -1.15929 0)
(-0.361759 -1.18284 0)
(-0.378882 -1.04126 0)
(-0.311013 -0.816865 0)
(-0.208914 -0.745717 0)
(-0.0145499 -1.08586 0)
(0.307828 -1.55604 0)
(0.293141 -0.608564 0)
(0.217433 -0.462482 0)
(0.167895 -0.375186 0)
(0.184533 -0.593718 0)
(0.196565 -0.994826 0)
(0.157117 -1.11284 0)
(0.077097 -1.00481 0)
(0.0158788 -0.999928 0)
(0.0661561 -1.28167 0)
(0.180481 -1.29763 0)
(0.331 -1.13695 0)
(0.342668 -0.757777 0)
(0.254258 -0.498219 0)
(0.2226 -0.461259 0)
(0.248637 -0.443442 0)
(0.250343 -0.423709 0)
(0.170069 -0.507241 0)
(-0.0440326 -0.830919 0)
(-0.281457 -1.0808 0)
(-0.340893 -1.112 0)
(-0.325824 -1.0701 0)
(-0.305069 -1.03855 0)
(-0.326528 -1.05582 0)
(-0.38319 -1.07366 0)
(-0.463185 -1.07833 0)
(-0.527649 -1.01131 0)
(-0.48251 -0.9203 0)
(-0.260005 -0.965463 0)
(0.0510119 -1.49293 0)
(0.161733 -1.69333 0)
(0.221648 -0.830407 0)
(0.300542 -0.501919 0)
(0.258674 -0.432898 0)
(0.246146 -0.587914 0)
(0.190914 -0.880193 0)
(0.105725 -0.997661 0)
(0.0370025 -0.932425 0)
(0.00537137 -0.967731 0)
(0.0467048 -1.12881 0)
(0.109065 -1.14191 0)
(0.189204 -1.13578 0)
(0.337306 -1.0273 0)
(0.37295 -0.818528 0)
(0.291113 -0.584794 0)
(0.259452 -0.502053 0)
(0.27589 -0.450953 0)
(0.251807 -0.470812 0)
(0.0948212 -0.598902 0)
(-0.175579 -0.896855 0)
(-0.314103 -1.00555 0)
(-0.300234 -0.993693 0)
(-0.309239 -0.983253 0)
(-0.347483 -0.983347 0)
(-0.427707 -0.963893 0)
(-0.524349 -0.958268 0)
(-0.577336 -0.96881 0)
(-0.495503 -1.03601 0)
(-0.256356 -1.32638 0)
(-0.0375374 -1.48991 0)
(-0.0713958 -1.65238 0)
(0.0548762 -1.42516 0)
(0.232422 -0.655609 0)
(0.291263 -0.53385 0)
(0.268796 -0.579934 0)
(0.211546 -0.751658 0)
(0.117615 -0.876217 0)
(0.05368 -0.876581 0)
(0.0177534 -0.91816 0)
(0.055171 -1.11812 0)
(0.120266 -1.09583 0)
(0.139065 -1.03875 0)
(0.18617 -0.9221 0)
(0.219331 -0.817752 0)
(0.294854 -0.855725 0)
(0.363233 -0.771411 0)
(0.354657 -0.53807 0)
(0.312089 -0.446088 0)
(0.195629 -0.442022 0)
(-0.0253764 -0.645362 0)
(-0.251041 -0.892867 0)
(-0.299394 -0.941643 0)
(-0.305617 -0.914461 0)
(-0.365415 -0.875474 0)
(-0.465732 -0.83705 0)
(-0.545746 -0.881266 0)
(-0.54095 -0.960211 0)
(-0.409177 -1.17938 0)
(-0.222258 -1.39012 0)
(-0.155356 -1.51854 0)
(-0.163728 -1.57688 0)
(-0.179828 -1.5827 0)
(0.0478049 -1.17896 0)
(0.271532 -0.718273 0)
(0.325617 -0.645567 0)
(0.261691 -0.642512 0)
(0.175531 -0.71864 0)
(0.0972586 -0.779682 0)
(0.0339825 -0.818849 0)
(0.0679151 -1.15002 0)
(0.137362 -1.09023 0)
(0.128779 -0.979639 0)
(0.113218 -0.850074 0)
(0.100321 -0.720249 0)
(0.115553 -0.755547 0)
(0.21107 -0.840369 0)
(0.363733 -0.722792 0)
(0.330204 -0.418438 0)
(0.240392 -0.349597 0)
(0.0693215 -0.430845 0)
(-0.150258 -0.725686 0)
(-0.264175 -0.88401 0)
(-0.290013 -0.831134 0)
(-0.386126 -0.740468 0)
(-0.484944 -0.738149 0)
(-0.523076 -0.830581 0)
(-0.478384 -0.984496 0)
(-0.372676 -1.29276 0)
(-0.263383 -1.41745 0)
(-0.235191 -1.47553 0)
(-0.237067 -1.5574 0)
(-0.252837 -1.55563 0)
(-0.185972 -1.48821 0)
(0.0888249 -1.19327 0)
(0.308797 -0.780827 0)
(0.323905 -0.61872 0)
(0.210715 -0.580592 0)
(0.125155 -0.653058 0)
(0.0417948 -0.691281 0)
(0.0770353 -1.20026 0)
(0.141746 -1.05573 0)
(0.121977 -0.900468 0)
(0.0752402 -0.750573 0)
(0.0265728 -0.642758 0)
(0.0128066 -0.689308 0)
(0.0631861 -0.77313 0)
(0.1811 -0.720873 0)
(0.206624 -0.400912 0)
(0.16765 -0.267326 0)
(0.0830708 -0.303445 0)
(-0.0580717 -0.550729 0)
(-0.198146 -0.808877 0)
(-0.278699 -0.711676 0)
(-0.394967 -0.620457 0)
(-0.470294 -0.677735 0)
(-0.469054 -0.800784 0)
(-0.412071 -0.991596 0)
(-0.370245 -1.26519 0)
(-0.333552 -1.36166 0)
(-0.31171 -1.45698 0)
(-0.285421 -1.4869 0)
(-0.271181 -1.53252 0)
(-0.247217 -1.4909 0)
(-0.156077 -1.45396 0)
(0.140641 -1.17851 0)
(0.285569 -0.662441 0)
(0.234117 -0.531756 0)
(0.127681 -0.544387 0)
(0.0418879 -0.57879 0)
(0.0719535 -1.25811 0)
(0.12698 -1.01281 0)
(0.10947 -0.804861 0)
(0.0537526 -0.636236 0)
(-0.0213031 -0.52232 0)
(-0.0519854 -0.607741 0)
(-0.0365329 -0.701525 0)
(-0.00899334 -0.628519 0)
(0.0227891 -0.370864 0)
(0.0557334 -0.234446 0)
(0.0523588 -0.247755 0)
(-0.00471942 -0.448778 0)
(-0.141404 -0.682689 0)
(-0.282258 -0.592919 0)
(-0.388831 -0.556649 0)
(-0.413733 -0.636513 0)
(-0.386818 -0.766437 0)
(-0.366363 -0.919473 0)
(-0.41891 -1.1764 0)
(-0.428625 -1.31639 0)
(-0.381837 -1.39239 0)
(-0.335638 -1.46875 0)
(-0.283991 -1.47186 0)
(-0.251459 -1.48579 0)
(-0.220674 -1.452 0)
(-0.128278 -1.39572 0)
(0.11567 -0.901255 0)
(0.201322 -0.530278 0)
(0.113403 -0.457629 0)
(0.0278503 -0.525908 0)
(0.0469075 -1.27541 0)
(0.0884144 -0.955021 0)
(0.0549323 -0.709221 0)
(-0.00182757 -0.496076 0)
(-0.0407786 -0.413688 0)
(-0.0659585 -0.497829 0)
(-0.0931154 -0.589772 0)
(-0.109033 -0.551964 0)
(-0.0846847 -0.373581 0)
(-0.0243334 -0.252478 0)
(0.0135219 -0.234337 0)
(0.00756489 -0.419608 0)
(-0.115933 -0.525515 0)
(-0.274729 -0.493369 0)
(-0.337444 -0.524533 0)
(-0.31927 -0.60384 0)
(-0.291174 -0.693175 0)
(-0.3211 -0.778503 0)
(-0.443045 -0.996592 0)
(-0.520756 -1.25026 0)
(-0.462748 -1.36882 0)
(-0.375942 -1.41925 0)
(-0.305288 -1.46464 0)
(-0.245141 -1.43555 0)
(-0.217082 -1.43313 0)
(-0.198562 -1.38865 0)
(-0.0834295 -1.24366 0)
(0.07098 -0.62694 0)
(0.0586611 -0.396169 0)
(0.00406968 -0.542907 0)
(0.0229 -1.2345 0)
(0.00862958 -0.896245 0)
(-0.0537799 -0.580696 0)
(-0.0759668 -0.435559 0)
(-0.0581557 -0.375089 0)
(-0.055038 -0.427018 0)
(-0.085322 -0.493099 0)
(-0.118542 -0.481719 0)
(-0.109012 -0.37669 0)
(-0.057038 -0.287115 0)
(-0.00950332 -0.249779 0)
(-0.00534684 -0.423404 0)
(-0.107492 -0.406214 0)
(-0.230193 -0.426341 0)
(-0.232636 -0.499789 0)
(-0.191089 -0.555864 0)
(-0.187755 -0.583671 0)
(-0.246863 -0.601358 0)
(-0.382865 -0.756554 0)
(-0.563251 -1.16485 0)
(-0.535737 -1.32275 0)
(-0.426822 -1.41453 0)
(-0.309501 -1.42727 0)
(-0.229472 -1.42549 0)
(-0.179311 -1.38359 0)
(-0.160179 -1.37085 0)
(-0.136171 -1.28394 0)
(-0.0682596 -0.775661 0)
(-0.0115842 -0.411549 0)
(-0.00410776 -0.591704 0)
(-0.0125401 -1.12814 0)
(-0.0886599 -0.748043 0)
(-0.132169 -0.505241 0)
(-0.117579 -0.396497 0)
(-0.0855414 -0.355248 0)
(-0.0656402 -0.388684 0)
(-0.0748968 -0.430476 0)
(-0.0985222 -0.427289 0)
(-0.0974954 -0.375415 0)
(-0.0589162 -0.322085 0)
(-0.0133512 -0.282073 0)
(-0.0299627 -0.423457 0)
(-0.112001 -0.356583 0)
(-0.161716 -0.399815 0)
(-0.127492 -0.482176 0)
(-0.0900919 -0.492402 0)
(-0.0978507 -0.473509 0)
(-0.143323 -0.451283 0)
(-0.242018 -0.519853 0)
(-0.472359 -0.933078 0)
(-0.583991 -1.26658 0)
(-0.462057 -1.33621 0)
(-0.320358 -1.39861 0)
(-0.200945 -1.38185 0)
(-0.143469 -1.36521 0)
(-0.11013 -1.32838 0)
(-0.088479 -1.25795 0)
(-0.0760627 -0.800797 0)
(-0.0513729 -0.468589 0)
(-0.0139662 -0.535562 0)
(-0.0520279 -0.976276 0)
(-0.133819 -0.630215 0)
(-0.162596 -0.457259 0)
(-0.141277 -0.390055 0)
(-0.104382 -0.367531 0)
(-0.0744257 -0.381709 0)
(-0.0679909 -0.400655 0)
(-0.0756014 -0.397648 0)
(-0.0732289 -0.374444 0)
(-0.047469 -0.348826 0)
(-0.0118667 -0.313962 0)
(-0.0488185 -0.409589 0)
(-0.118139 -0.360441 0)
(-0.107332 -0.404345 0)
(-0.0678562 -0.450696 0)
(-0.0500541 -0.432127 0)
(-0.0494171 -0.40545 0)
(-0.0590818 -0.377915 0)
(-0.0953763 -0.37712 0)
(-0.264879 -0.62429 0)
(-0.540009 -1.13185 0)
(-0.511797 -1.26653 0)
(-0.337912 -1.30831 0)
(-0.19561 -1.33185 0)
(-0.112599 -1.30945 0)
(-0.0558273 -1.27371 0)
(0.000530314 -1.17927 0)
(-0.0145016 -0.737488 0)
(-0.0562927 -0.433816 0)
(-0.0342441 -0.506222 0)
(-0.06279 -0.810453 0)
(-0.147865 -0.5704 0)
(-0.168889 -0.460134 0)
(-0.1433 -0.41563 0)
(-0.105247 -0.395436 0)
(-0.0742917 -0.392865 0)
(-0.0587863 -0.394026 0)
(-0.0527576 -0.3872 0)
(-0.0456215 -0.37442 0)
(-0.030858 -0.363631 0)
(-0.0138744 -0.336223 0)
(-0.0607929 -0.38752 0)
(-0.109717 -0.364731 0)
(-0.0844015 -0.402251 0)
(-0.056298 -0.406858 0)
(-0.0482259 -0.390134 0)
(-0.0372119 -0.379163 0)
(-0.0179867 -0.367446 0)
(0.00485141 -0.352827 0)
(-0.0533521 -0.430351 0)
(-0.320302 -0.849256 0)
(-0.498124 -1.19135 0)
(-0.362034 -1.26528 0)
(-0.192134 -1.27411 0)
(-0.079424 -1.2388 0)
(0.00695951 -1.20211 0)
(0.0471824 -1.12204 0)
(-0.0152181 -0.62756 0)
(-0.0643062 -0.386366 0)
(-0.0384353 -0.494545 0)
(-0.0628643 -0.717707 0)
(-0.142545 -0.566739 0)
(-0.149554 -0.487165 0)
(-0.120198 -0.445624 0)
(-0.088168 -0.421065 0)
(-0.0620935 -0.407845 0)
(-0.0438857 -0.399053 0)
(-0.0309494 -0.389711 0)
(-0.0205727 -0.380521 0)
(-0.0147113 -0.376209 0)
(-0.0172433 -0.362127 0)
(-0.0542098 -0.377161 0)
(-0.082626 -0.36735 0)
(-0.0752373 -0.389153 0)
(-0.0704563 -0.381142 0)
(-0.0608864 -0.377117 0)
(-0.0406014 -0.381265 0)
(-0.00676488 -0.388358 0)
(0.0469591 -0.392735 0)
(0.0821035 -0.418312 0)
(-0.0427188 -0.615367 0)
(-0.302114 -1.06695 0)
(-0.311279 -1.29222 0)
(-0.146804 -1.30685 0)
(-0.0405986 -1.21904 0)
(0.0134926 -1.18007 0)
(-0.0182329 -1.01018 0)
(-0.0930744 -0.565672 0)
(-0.0881104 -0.411912 0)
(-0.0348779 -0.504022 0)
(-0.0476695 -0.659632 0)
(-0.103053 -0.568214 0)
(-0.103592 -0.503543 0)
(-0.0851935 -0.464675 0)
(-0.063769 -0.439494 0)
(-0.044073 -0.422868 0)
(-0.0278515 -0.411508 0)
(-0.0150836 -0.403409 0)
(-0.0071854 -0.398399 0)
(-0.0122021 -0.397556 0)
(-0.0315193 -0.394364 0)
(-0.0521925 -0.393354 0)
(-0.0620213 -0.387744 0)
(-0.0678799 -0.396507 0)
(-0.0730968 -0.393093 0)
(-0.0691384 -0.398142 0)
(-0.0541814 -0.414301 0)
(-0.0205644 -0.434816 0)
(0.0405807 -0.459111 0)
(0.124944 -0.49635 0)
(0.134905 -0.602837 0)
(-0.00814881 -0.935279 0)
(-0.11948 -1.2921 0)
(-0.0558457 -1.32267 0)
(-0.0260882 -1.18141 0)
(-0.057052 -1.12593 0)
(-0.144834 -0.914211 0)
(-0.186137 -0.620122 0)
(-0.115449 -0.517699 0)
(-0.0283561 -0.54819 0)
(-0.0262807 -0.605127 0)
(-0.0592902 -0.551858 0)
(-0.0631879 -0.505277 0)
(-0.0537616 -0.473915 0)
(-0.0400967 -0.451986 0)
(-0.0265871 -0.436378 0)
(-0.0158877 -0.426243 0)
(-0.00977743 -0.421287 0)
(-0.00918628 -0.420191 0)
(-0.0183959 -0.416429 0)
(-0.0347338 -0.416649 0)
(-0.0506467 -0.41681 0)
(-0.0611536 -0.418099 0)
(-0.070517 -0.4237 0)
(-0.0803378 -0.430145 0)
(-0.0860799 -0.448543 0)
(-0.0782584 -0.477455 0)
(-0.049082 -0.509197 0)
(0.00263203 -0.543333 0)
(0.08112 -0.595345 0)
(0.174588 -0.708693 0)
(0.161799 -0.962164 0)
(0.0484668 -1.29132 0)
(-0.0018183 -1.35979 0)
(-0.0321624 -1.1849 0)
(-0.11638 -1.12471 0)
(-0.205851 -0.949567 0)
(-0.191702 -0.746826 0)
(-0.0929575 -0.655639 0)
(-0.0205154 -0.632228 0)
(-0.0157828 -0.562223 0)
(-0.0354298 -0.534296 0)
(-0.0367375 -0.502717 0)
(-0.0293002 -0.478767 0)
(-0.0193444 -0.460599 0)
(-0.0103731 -0.447097 0)
(-0.00503369 -0.438675 0)
(-0.00608149 -0.435552 0)
(-0.0115343 -0.437144 0)
(-0.0217054 -0.424736 0)
(-0.0401993 -0.426108 0)
(-0.0571872 -0.43532 0)
(-0.0676446 -0.448689 0)
(-0.0801136 -0.459408 0)
(-0.100033 -0.483243 0)
(-0.11759 -0.51905 0)
(-0.115487 -0.578096 0)
(-0.0861796 -0.612859 0)
(-0.0436876 -0.646374 0)
(0.00151133 -0.685418 0)
(0.0600402 -0.801868 0)
(0.107745 -1.06176 0)
(0.0610876 -1.42623 0)
(-0.00599435 -1.59651 0)
(-0.0263331 -1.38791 0)
(-0.0770758 -1.23168 0)
(-0.129482 -1.05251 0)
(-0.0950481 -0.911128 0)
(-0.021558 -0.823139 0)
(0.00308084 -0.766011 0)
(-0.00965629 -0.538094 0)
(-0.0204121 -0.523821 0)
(-0.0179006 -0.501847 0)
(-0.00945823 -0.482904 0)
(-0.000214252 -0.467503 0)
(0.00688363 -0.455648 0)
(0.00915989 -0.448191 0)
(0.0033572 -0.445021 0)
(-0.0115293 -0.450496 0)
(-0.0262649 -0.429721 0)
(-0.0480968 -0.427546 0)
(-0.074518 -0.441367 0)
(-0.0862043 -0.463883 0)
(-0.107253 -0.490829 0)
(-0.143291 -0.544934 0)
(-0.182987 -0.605842 0)
(-0.172359 -0.690139 0)
(-0.117424 -0.712627 0)
(-0.0669547 -0.724566 0)
(-0.0372898 -0.770032 0)
(-0.0481845 -0.884149 0)
(-0.0440972 -1.15769 0)
(-0.0230427 -1.59484 0)
(-0.0342241 -1.81343 0)
(-0.0279241 -1.61662 0)
(-0.0180182 -1.35256 0)
(-0.0383004 -1.15025 0)
(-0.0300179 -1.07096 0)
(0.019503 -0.991601 0)
(0.0240696 -0.889673 0)
(-0.00430221 -0.526759 0)
(-0.00757223 -0.519896 0)
(-0.00172283 -0.504311 0)
(0.00867262 -0.488464 0)
(0.0190256 -0.474428 0)
(0.026378 -0.46312 0)
(0.027752 -0.455855 0)
(0.019897 -0.451751 0)
(-0.00287632 -0.456308 0)
(-0.0287691 -0.448321 0)
(-0.059702 -0.423086 0)
(-0.0921768 -0.42616 0)
(-0.123053 -0.4617 0)
(-0.172324 -0.493531 0)
(-0.214808 -0.581325 0)
(-0.201977 -0.727529 0)
(-0.179475 -0.853412 0)
(-0.151938 -0.865151 0)
(-0.124245 -0.864454 0)
(-0.0966949 -0.94502 0)
(-0.0775648 -1.10743 0)
(-0.0671705 -1.45653 0)
(-0.0703191 -1.85054 0)
(-0.122888 -2.0222 0)
(-0.165822 -1.91726 0)
(-0.158832 -1.6399 0)
(-0.13758 -1.39896 0)
(-0.0971856 -1.33489 0)
(-0.0316155 -1.22218 0)
(0.00218263 -0.978973 0)
(0.000459627 -0.52526 0)
(0.00412431 -0.522427 0)
(0.0133913 -0.511419 0)
(0.0262815 -0.49743 0)
(0.0387832 -0.482971 0)
(0.0472513 -0.469802 0)
(0.0483789 -0.460126 0)
(0.0393381 -0.453501 0)
(0.0109652 -0.450789 0)
(-0.0215095 -0.458608 0)
(-0.0519615 -0.406466 0)
(-0.100281 -0.386683 0)
(-0.163025 -0.41246 0)
(-0.215397 -0.434725 0)
(-0.269893 -0.653857 0)
(-0.349394 -1.10127 0)
(-0.313837 -1.33349 0)
(-0.269515 -1.33713 0)
(-0.241561 -1.32549 0)
(-0.201209 -1.32763 0)
(-0.141146 -1.38065 0)
(-0.0921236 -1.52074 0)
(-0.11772 -1.64841 0)
(-0.21414 -1.71023 0)
(-0.312161 -1.69276 0)
(-0.349012 -1.61729 0)
(-0.307271 -1.53676 0)
(-0.221796 -1.48773 0)
(-0.131337 -1.37776 0)
(-0.0434626 -1.20197 0)
(0.00343707 -0.529986 0)
(0.0125567 -0.530826 0)
(0.0262039 -0.523863 0)
(0.0428395 -0.511305 0)
(0.0587773 -0.495066 0)
(0.069953 -0.476998 0)
(0.0727099 -0.460282 0)
(0.0652398 -0.446329 0)
(0.045018 -0.434933 0)
(0.0100179 -0.43716 0)
(-0.0287399 -0.389761 0)
(-0.0824788 -0.339497 0)
(-0.155923 -0.327147 0)
(-0.239891 -0.444417 0)
(-0.368924 -1.04599 0)
(-0.251519 -1.28784 0)
(-0.186625 -1.2265 0)
(-0.205421 -1.16559 0)
(-0.213781 -1.14125 0)
(-0.21435 -1.14163 0)
(-0.193526 -1.17591 0)
(-0.186013 -1.25998 0)
(-0.216492 -1.34513 0)
(-0.274159 -1.40262 0)
(-0.325071 -1.40787 0)
(-0.337131 -1.38565 0)
(-0.29981 -1.3509 0)
(-0.22181 -1.32522 0)
(-0.140691 -1.25884 0)
(-0.0495096 -1.11903 0)
(0.00311387 -0.537591 0)
(0.0151713 -0.544842 0)
(0.034976 -0.541657 0)
(0.0572672 -0.531604 0)
(0.0790885 -0.513349 0)
(0.0961498 -0.487584 0)
(0.103797 -0.460056 0)
(0.101083 -0.43606 0)
(0.087898 -0.415245 0)
(0.0511993 -0.405425 0)
(0.0151695 -0.376464 0)
(-0.0339839 -0.315006 0)
(-0.110413 -0.318064 0)
(-0.174149 -0.717638 0)
(-0.116559 -1.15284 0)
(-0.0337899 -1.15401 0)
(-0.045076 -1.05303 0)
(-0.10059 -1.00737 0)
(-0.147326 -1.00807 0)
(-0.187779 -1.01108 0)
(-0.21532 -1.06303 0)
(-0.244257 -1.14235 0)
(-0.28434 -1.22515 0)
(-0.32301 -1.28285 0)
(-0.344692 -1.31179 0)
(-0.334846 -1.32412 0)
(-0.28565 -1.3262 0)
(-0.212925 -1.32553 0)
(-0.137591 -1.26134 0)
(-0.0533318 -1.18079 0)
(-0.0022181 -0.545169 0)
(0.0108653 -0.565935 0)
(0.040196 -0.563595 0)
(0.0710714 -0.558106 0)
(0.105039 -0.543651 0)
(0.131555 -0.514398 0)
(0.140233 -0.47254 0)
(0.140592 -0.431792 0)
(0.135677 -0.399975 0)
(0.105885 -0.373349 0)
(0.063962 -0.339864 0)
(0.0336087 -0.322299 0)
(-0.000867875 -0.542218 0)
(0.0241424 -1.01071 0)
(0.104269 -1.09349 0)
(0.0921764 -1.01724 0)
(0.0513434 -0.917181 0)
(0.00235242 -0.861091 0)
(-0.0554216 -0.864788 0)
(-0.105884 -0.896175 0)
(-0.157153 -0.948835 0)
(-0.218646 -1.03357 0)
(-0.272698 -1.09279 0)
(-0.321285 -1.16262 0)
(-0.345854 -1.21984 0)
(-0.338459 -1.2744 0)
(-0.290504 -1.31143 0)
(-0.226755 -1.33444 0)
(-0.146933 -1.27862 0)
(-0.0541827 -1.24388 0)
(-0.00670649 -0.529337 0)
(0.0117927 -0.58773 0)
(0.0537734 -0.579015 0)
(0.0891376 -0.582416 0)
(0.128064 -0.574741 0)
(0.16531 -0.544999 0)
(0.187986 -0.494446 0)
(0.191636 -0.446163 0)
(0.189701 -0.394214 0)
(0.181857 -0.349415 0)
(0.153537 -0.304788 0)
(0.108085 -0.435973 0)
(0.0919113 -0.86282 0)
(0.187639 -1.07419 0)
(0.180116 -0.979203 0)
(0.127355 -0.90813 0)
(0.0978912 -0.825966 0)
(0.0685361 -0.759685 0)
(0.0324835 -0.747474 0)
(-0.00551199 -0.772251 0)
(-0.053337 -0.809815 0)
(-0.116556 -0.876938 0)
(-0.188962 -0.955803 0)
(-0.258413 -1.03846 0)
(-0.313378 -1.12656 0)
(-0.337299 -1.22912 0)
(-0.300938 -1.27683 0)
(-0.241061 -1.32593 0)
(-0.160653 -1.34486 0)
(-0.0572431 -1.31278 0)
(0.0031731 -0.494375 0)
(0.0458041 -0.615216 0)
(0.112708 -0.58886 0)
(0.166588 -0.583741 0)
(0.202133 -0.583057 0)
(0.210308 -0.56204 0)
(0.214079 -0.532709 0)
(0.237633 -0.466214 0)
(0.25354 -0.411431 0)
(0.261596 -0.352783 0)
(0.229445 -0.324879 0)
(0.14244 -0.530997 0)
(0.105578 -1.01622 0)
(0.183746 -1.07164 0)
(0.175271 -0.885139 0)
(0.128586 -0.816302 0)
(0.106838 -0.756962 0)
(0.0968446 -0.692985 0)
(0.0828665 -0.664264 0)
(0.062827 -0.677411 0)
(0.0360586 -0.699797 0)
(-0.00504085 -0.74229 0)
(-0.064575 -0.800126 0)
(-0.1393 -0.871959 0)
(-0.219928 -0.968929 0)
(-0.286059 -1.11064 0)
(-0.291233 -1.25252 0)
(-0.238568 -1.34541 0)
(-0.156024 -1.37126 0)
(-0.0569617 -1.37031 0)
(0.0421763 -0.509978 0)
(0.132108 -0.663109 0)
(0.203342 -0.616433 0)
(0.240246 -0.542388 0)
(0.238652 -0.497051 0)
(0.218971 -0.474994 0)
(0.227841 -0.526317 0)
(0.253846 -0.497521 0)
(0.291213 -0.434403 0)
(0.321034 -0.399715 0)
(0.30014 -0.389409 0)
(0.150298 -0.539828 0)
(0.018877 -1.09561 0)
(0.106616 -1.10008 0)
(0.147931 -0.837877 0)
(0.122377 -0.743445 0)
(0.0983418 -0.706395 0)
(0.0985146 -0.661628 0)
(0.104632 -0.627789 0)
(0.104491 -0.625784 0)
(0.0957906 -0.632536 0)
(0.0764906 -0.648904 0)
(0.0389216 -0.675349 0)
(-0.0209689 -0.71693 0)
(-0.101603 -0.795091 0)
(-0.185708 -0.952701 0)
(-0.22756 -1.1661 0)
(-0.20045 -1.32457 0)
(-0.124817 -1.40134 0)
(-0.038071 -1.39597 0)
(0.0595481 -0.616585 0)
(0.160335 -0.683436 0)
(0.234104 -0.656211 0)
(0.270205 -0.524512 0)
(0.267819 -0.413564 0)
(0.19225 -0.385555 0)
(0.106287 -0.427221 0)
(0.148645 -0.51698 0)
(0.252785 -0.468154 0)
(0.324294 -0.460818 0)
(0.345068 -0.457569 0)
(0.204645 -0.556851 0)
(-0.0131308 -1.00822 0)
(-0.0252221 -1.15154 0)
(0.0742997 -0.858519 0)
(0.104298 -0.713453 0)
(0.0938524 -0.681949 0)
(0.0975084 -0.653636 0)
(0.112423 -0.625939 0)
(0.12546 -0.615609 0)
(0.130009 -0.611628 0)
(0.124817 -0.608545 0)
(0.106139 -0.605878 0)
(0.0701786 -0.608378 0)
(0.0144014 -0.643445 0)
(-0.0596351 -0.78246 0)
(-0.119484 -1.04558 0)
(-0.120039 -1.29484 0)
(-0.0586788 -1.41814 0)
(-0.0038757 -1.38106 0)
(0.0466148 -0.745959 0)
(0.153046 -0.723255 0)
(0.235152 -0.646022 0)
(0.244543 -0.499597 0)
(0.203232 -0.439976 0)
(0.174327 -0.455281 0)
(0.0921468 -0.481719 0)
(-0.000583992 -0.572107 0)
(0.113345 -0.579685 0)
(0.271056 -0.518313 0)
(0.343584 -0.53316 0)
(0.286871 -0.594412 0)
(0.0640581 -0.831362 0)
(-0.110431 -1.1305 0)
(-0.0259287 -0.95001 0)
(0.0697085 -0.741166 0)
(0.0957802 -0.679748 0)
(0.107244 -0.655558 0)
(0.121997 -0.633399 0)
(0.136212 -0.619922 0)
(0.143804 -0.609897 0)
(0.143194 -0.599171 0)
(0.135954 -0.587482 0)
(0.121912 -0.574589 0)
(0.100901 -0.578101 0)
(0.0689585 -0.665487 0)
(0.0251649 -0.924147 0)
(0.000363136 -1.24089 0)
(0.0225504 -1.39746 0)
(0.0238009 -1.29786 0)
(0.0858182 -0.857928 0)
(0.211488 -0.731006 0)
(0.184408 -0.596839 0)
(0.0758156 -0.51353 0)
(0.0630412 -0.531709 0)
(0.126614 -0.590832 0)
(0.148513 -0.645968 0)
(0.0472301 -0.740773 0)
(0.00825793 -0.793446 0)
(0.167236 -0.617355 0)
(0.295329 -0.605166 0)
(0.318593 -0.633176 0)
(0.178396 -0.741673 0)
(-0.0511954 -0.969851 0)
(-0.0879102 -0.995426 0)
(0.0274105 -0.813717 0)
(0.0979538 -0.696643 0)
(0.120622 -0.658062 0)
(0.133638 -0.634214 0)
(0.14169 -0.617117 0)
(0.143893 -0.602163 0)
(0.13985 -0.589302 0)
(0.134026 -0.583822 0)
(0.137937 -0.588367 0)
(0.162156 -0.604863 0)
(0.188456 -0.659121 0)
(0.182473 -0.850065 0)
(0.138499 -1.15297 0)
(0.0950694 -1.31958 0)
(0.0399688 -1.16354 0)
(0.114132 -0.900874 0)
(0.14053 -0.701414 0)
(-0.000522987 -0.617926 0)
(-0.0458908 -0.617067 0)
(0.00575827 -0.650974 0)
(0.085519 -0.713521 0)
(0.174115 -0.747582 0)
(0.133607 -0.916412 0)
(0.00696982 -1.05885 0)
(0.110121 -0.764299 0)
(0.258265 -0.66613 0)
(0.309172 -0.664721 0)
(0.264402 -0.710957 0)
(0.0905082 -0.818795 0)
(-0.0540356 -0.936511 0)
(-0.00109583 -0.874163 0)
(0.0915929 -0.732758 0)
(0.131625 -0.661635 0)
(0.144393 -0.628732 0)
(0.147277 -0.605848 0)
(0.143999 -0.587339 0)
(0.133397 -0.576517 0)
(0.11541 -0.585349 0)
(0.12557 -0.628223 0)
(0.192398 -0.695777 0)
(0.275883 -0.746267 0)
(0.305271 -0.858407 0)
(0.250418 -1.06843 0)
(0.146239 -1.19855 0)
(0.0446669 -1.04354 0)
(0.013913 -0.927066 0)
(-0.0396596 -0.715928 0)
(-0.108938 -0.698528 0)
(-0.0940776 -0.725039 0)
(-0.0226472 -0.772518 0)
(0.079354 -0.836785 0)
(0.186958 -0.846922 0)
(0.178502 -1.10836 0)
(0.0691745 -1.30036 0)
(0.134478 -0.901661 0)
(0.254706 -0.720297 0)
(0.302985 -0.683706 0)
(0.292206 -0.689716 0)
(0.204927 -0.737343 0)
(0.0612207 -0.820065 0)
(0.0143291 -0.865808 0)
(0.0813814 -0.775543 0)
(0.135524 -0.670627 0)
(0.15543 -0.624911 0)
(0.159937 -0.598533 0)
(0.152204 -0.582287 0)
(0.12651 -0.576175 0)
(0.0980504 -0.597341 0)
(0.120744 -0.706085 0)
(0.219782 -0.812313 0)
(0.328902 -0.874055 0)
(0.375754 -0.932743 0)
(0.31664 -1.02441 0)
(0.179456 -1.08046 0)
(0.0492624 -0.94814 0)
(-0.0667 -0.950453 0)
(-0.139222 -0.780863 0)
(-0.14865 -0.782173 0)
(-0.125666 -0.812153 0)
(-0.029059 -0.88787 0)
(0.123815 -0.953701 0)
(0.246251 -1.03183 0)
(0.215789 -1.29907 0)