/*--------------------------------*- C++ -*----------------------------------*\
| =========                 |                                                 |
| \\      /  F ield         | OpenFOAM: The Open Source CFD Toolbox           |
|  \\    /   O peration     | Version:  2.3.0                                 |
|   \\  /    A nd           | Web:      www.OpenFOAM.org                      |
|    \\/     M anipulation  |                                                 |
\*---------------------------------------------------------------------------*/
FoamFile
{
    version     2.0;
    format      ascii;
    class       volScalarField;
    location    "0.8";
    object      nut;
}
// * * * * * * * * * * * * * * * * * * * * * * * * * * * * * * * * * * * * * //

dimensions      [0 2 -1 0 0 0 0];

internalField   nonuniform List<scalar> 
2268
(
5.25219e-05
4.8991e-05
5.84112e-05
6.57962e-05
7.17458e-05
7.66719e-05
8.08641e-05
8.44832e-05
8.76087e-05
9.02763e-05
9.25044e-05
9.43128e-05
9.57354e-05
9.68312e-05
9.77284e-05
9.8413e-05
9.87259e-05
9.85405e-05
9.75151e-05
9.50936e-05
8.96857e-05
7.79635e-05
5.1952e-05
0.000105224
0.000259704
0.000389436
0.000496991
0.000578694
0.000641394
0.000691872
0.000734502
0.000771622
0.000804479
0.000833789
0.00086018
0.000884585
0.000908035
0.000930244
0.000947535
0.000960346
0.000964291
0.000950316
0.000902497
0.000792802
0.000571543
0.000160937
0.000116208
0.000456293
0.000714703
0.000933999
0.00111131
0.00125336
0.00136942
0.00146693
0.00155068
0.00162366
0.00168789
0.00174503
0.00179682
0.00184432
0.00188573
0.00191443
0.00192326
0.00189674
0.00181028
0.00163187
0.00132584
0.000856036
0.000189775
0.000122495
0.000609855
0.000985036
0.00130785
0.00157602
0.00179513
0.00197567
0.00212703
0.00225588
0.00236679
0.002463
0.00254695
0.00262056
0.00268403
0.00273308
0.00275657
0.00273829
0.00265166
0.00246126
0.00213212
0.00164434
0.00100069
0.000218051
0.000126004
0.000727391
0.00121217
0.00163194
0.0019842
0.00227467
0.00251511
0.00271639
0.00288667
0.00303191
0.00315636
0.00326298
0.00335346
0.0034267
0.00347556
0.00348397
0.00342778
0.00327191
0.00297491
0.00250454
0.00185917
0.00108034
0.000252501
0.000127677
0.000818217
0.0014079
0.00191873
0.00234824
0.00270392
0.00299907
0.0032458
0.00345357
0.00362961
0.003779
0.00390498
0.00400888
0.00408824
0.00413326
0.00412333
0.00402819
0.0038074
0.00341696
0.00282731
0.00204637
0.0011463
0.000300175
0.000128277
0.000890644
0.00158159
0.00217722
0.0026772
0.00309208
0.00343677
0.00372449
0.003966
0.0041697
0.00434135
0.00448433
0.00459958
0.00468349
0.00472417
0.00469708
0.00456799
0.00429463
0.00383478
0.00316198
0.00228014
0.00126207
0.000364875
0.000128735
0.000952566
0.00174059
0.00241385
0.0029775
0.00344579
0.00383506
0.00415953
0.00443138
0.00466009
0.00485195
0.00501043
0.00513608
0.00522437
0.00526226
0.00522161
0.00506625
0.00475627
0.00425806
0.00355646
0.00264795
0.0015351
0.000443939
0.000161161
0.000209212
0.000227105
0.000235542
0.000239632
0.000242433
0.000246047
0.000251685
0.000257088
0.000261065
0.0002615
0.000254145
0.000235591
0.000210684
0.000188728
0.000173632
0.000160482
0.00013413
0.000132232
0.000593429
0.00106283
0.00130488
0.00151664
0.00167392
0.00178374
0.00186708
0.0019451
0.00202372
0.00211921
0.0022016
0.00221
0.00207997
0.00183875
0.00158529
0.00138069
0.00118347
0.000885803
0.000263394
0.00068105
0.0017798
0.00227998
0.00264161
0.00287299
0.0030317
0.00317609
0.00335393
0.00358102
0.00382196
0.00400915
0.00404884
0.00383791
0.00339156
0.00286468
0.00238596
0.00190755
0.00127045
0.000298169
0.000736175
0.00229179
0.0029508
0.00335571
0.00359388
0.00375469
0.00390889
0.00413642
0.004481
0.00485613
0.00514751
0.00524758
0.00503661
0.00449328
0.00377967
0.00306727
0.00233243
0.00143935
0.000327236
0.000770395
0.00260513
0.00336719
0.00379937
0.00405173
0.0042267
0.00437371
0.00459794
0.00498943
0.00544414
0.00581244
0.00598022
0.0058155
0.00525087
0.00442913
0.00354181
0.00260279
0.00153056
0.000344163
0.000784447
0.0027371
0.00358092
0.00405657
0.00434864
0.0045823
0.004749
0.00495525
0.00533757
0.00580566
0.00619886
0.00641077
0.00630882
0.00576951
0.00489842
0.00389308
0.00280243
0.00160019
0.000356354
0.000775637
0.00270808
0.00360272
0.00411601
0.00445327
0.00474716
0.0050211
0.00529758
0.00564569
0.00607642
0.00643755
0.00665723
0.00661613
0.00612647
0.00524694
0.00417264
0.00297413
0.0016677
0.000367627
0.000746823
0.00253912
0.00341226
0.00391352
0.00427309
0.00461392
0.00507967
0.00558191
0.00596282
0.00631055
0.00660032
0.00680304
0.00680806
0.00637587
0.0055139
0.0044103
0.0031415
0.00174404
0.000381021
0.000133169
0.00104808
0.00197635
0.00275807
0.00341106
0.00395499
0.00440738
0.00478394
0.00509934
0.00536445
0.00558605
0.00576762
0.00590915
0.00600446
0.00603711
0.005976
0.00578554
0.00543511
0.00491406
0.00424289
0.00345385
0.00253341
0.00144188
0.000151303
0.00120277
0.0022476
0.00312788
0.00387043
0.00449513
0.0050155
0.00545006
0.00581789
0.00613035
0.00639391
0.0066119
0.00678403
0.00690181
0.00694261
0.00687134
0.00665721
0.00629184
0.005809
0.00528215
0.00476882
0.00424246
0.00363983
0.000175407
0.0013308
0.00247011
0.00342211
0.00423504
0.00492683
0.00549925
0.0059832
0.0064007
0.00676034
0.00706798
0.00732688
0.00753606
0.00768233
0.00773167
0.00764226
0.00738977
0.00699555
0.00654191
0.00613014
0.00576513
0.00533392
0.00476676
0.000180072
0.001311
0.00253092
0.00354038
0.00442055
0.00518519
0.005834
0.00638238
0.00685503
0.00726711
0.00762602
0.0079343
0.0081884
0.00836446
0.00841154
0.00828256
0.00797295
0.00755668
0.00717974
0.00693166
0.00662994
0.00608963
0.00534596
0.00018679
0.00132519
0.00254628
0.00357792
0.00448863
0.00529514
0.00600506
0.00662719
0.00717086
0.00765218
0.00807815
0.00845087
0.00876035
0.0089647
0.00899715
0.00882041
0.00848648
0.00813116
0.00795268
0.00780266
0.00728901
0.00658708
0.00567715
0.000193701
0.00141362
0.00262727
0.00365489
0.00456402
0.00537966
0.00611056
0.0067734
0.00737915
0.00793122
0.00843261
0.00888204
0.00925889
0.00950325
0.00953399
0.0093285
0.0090069
0.00871732
0.0084101
0.00802334
0.00762892
0.00687494
0.00594255
0.000199041
0.00149865
0.00274301
0.00378269
0.0046917
0.00550628
0.00624271
0.00691834
0.00754905
0.00814438
0.00870291
0.00921743
0.00965875
0.00996089
0.010051
0.00992681
0.00967456
0.00932335
0.00878703
0.00820264
0.00785553
0.00721238
0.00632796
0.000202367
0.00156291
0.00286471
0.00393796
0.00485911
0.00567453
0.00640945
0.00708434
0.00771786
0.00832363
0.00890857
0.00946319
0.00995243
0.0103115
0.0104726
0.0104237
0.0102042
0.00980565
0.00919392
0.00859889
0.00832928
0.00780538
0.00696309
0.000204297
0.00161612
0.00298272
0.00410134
0.00504559
0.00586799
0.00660102
0.00726908
0.00789351
0.00849164
0.00907455
0.00964004
0.0101541
0.0105543
0.0107741
0.0107848
0.0105972
0.0102058
0.00961683
0.00906693
0.00892688
0.00859636
0.00783913
0.000205376
0.00166399
0.00309328
0.00426045
0.005234
0.0060692
0.00680325
0.00746393
0.00807477
0.00865579
0.00922146
0.00977438
0.0102918
0.0107161
0.0109817
0.0110471
0.0109052
0.0105565
0.0100255
0.00950344
0.00937357
0.00936541
0.00883564
0.000205847
0.0017065
0.00319291
0.00440698
0.00541205
0.00626409
0.00700295
0.00765873
0.00825648
0.0088178
0.00935962
0.00988901
0.0103927
0.0108273
0.0111293
0.0112497
0.0111684
0.0108848
0.010424
0.00991842
0.00969389
0.00982941
0.0097463
0.000205803
0.00174219
0.00327842
0.00453528
0.0055715
0.00644264
0.00718978
0.00784433
0.00843216
0.00897564
0.00949318
0.00999537
0.010477
0.0109086
0.0112386
0.0114142
0.0114025
0.0111982
0.0108174
0.0103403
0.00999427
0.0100259
0.0102395
0.000205275
0.0017697
0.00334757
0.00464188
0.0057073
0.00659835
0.00735639
0.00801337
0.00859543
0.0091251
0.00962142
0.0100975
0.0105545
0.0109747
0.0113191
0.0115396
0.0115976
0.0114768
0.0111824
0.010759
0.0103448
0.010166
0.0102973
0.00020429
0.00178832
0.00339925
0.00472511
0.0058168
0.00672743
0.00749801
0.00816043
0.0087407
0.00926109
0.00974073
0.0101942
0.0106273
0.0110317
0.0113808
0.0116352
0.0117558
0.0117176
0.0115139
0.011164
0.0107408
0.0103971
0.0102908
0.000202886
0.00179812
0.00343347
0.00478466
0.00589905
0.00682807
0.00761187
0.00828183
0.00886352
0.00937871
0.00984622
0.0102813
0.0106929
0.0110798
0.0114261
0.0117027
0.0118751
0.0119139
0.011803
0.0115441
0.0111708
0.0107708
0.0104774
0.000201121
0.00179981
0.00345109
0.00482125
0.00595432
0.00689984
0.00769667
0.00837534
0.00896069
0.0094738
0.00993299
0.0103537
0.0107467
0.0111156
0.0114533
0.0117407
0.0119506
0.0120551
0.0120325
0.0118735
0.0115892
0.0112247
0.0108658
0.000199059
0.00179439
0.0034535
0.00483625
0.0059837
0.00694328
0.00775226
0.00843994
0.00903019
0.00954327
0.00999689
0.0104063
0.0107833
0.0111348
0.0114596
0.0117473
0.0119793
0.0121323
0.0121844
0.0121207
0.0119396
0.0116608
0.0113322
0.000196775
0.00178299
0.00344233
0.00483145
0.00598882
0.00695967
0.00777935
0.00847561
0.00907113
0.00958524
0.0100349
0.0104351
0.0107981
0.0111326
0.0114418
0.0117217
0.0119611
0.0121432
0.0122492
0.0122633
0.0121771
0.0119962
0.0117439
0.000194344
0.00176665
0.00341929
0.00480885
0.00597173
0.00695082
0.00777934
0.00848319
0.00908364
0.00959896
0.0100454
0.0104374
0.0107875
0.0111056
0.0113974
0.0116635
0.0118986
0.012092
0.0122294
0.0122966
0.0122832
0.0121867
0.0120158
0.000191847
0.00174642
0.00338614
0.00477065
0.00593477
0.00691903
0.00775425
0.0084643
0.0090688
0.00958486
0.0100279
0.0104119
0.0107496
0.0110514
0.0113248
0.0115734
0.0117962
0.0119871
0.0121366
0.012233
0.0122659
0.0122294
0.0121237
0.000189365
0.00172326
0.00334465
0.00471922
0.00588063
0.00686703
0.00770671
0.00842128
0.00902861
0.00954449
0.00998347
0.0103592
0.0106842
0.0109695
0.0112238
0.0114529
0.0116585
0.0118383
0.0119862
0.0120936
0.0121511
0.0121513
0.0120904
0.000186977
0.00169813
0.00329668
0.00465708
0.00581226
0.00679798
0.00763986
0.00835719
0.00896592
0.00948042
0.00991435
0.0102809
0.0105926
0.010861
0.0110958
0.0113043
0.0114904
0.0116546
0.0117935
0.0119009
0.0119691
0.0119904
0.0119592
0.000184758
0.00167199
0.00324419
0.00458698
0.00573292
0.00671539
0.00755737
0.00827569
0.00888432
0.00939616
0.00982392
0.0101803
0.010478
0.0107288
0.0109437
0.0111311
0.011297
0.0114439
0.0115708
0.0116737
0.0117463
0.0117815
0.011773
0.000182772
0.00164579
0.0031892
0.00451178
0.00564607
0.00662311
0.00746326
0.00818093
0.00878806
0.00929601
0.0097165
0.0100618
0.0103445
0.0105772
0.0107716
0.0109378
0.0110834
0.0112129
0.0113276
0.0114252
0.0115011
0.0115489
0.0115621
0.000181067
0.0016204
0.00313373
0.00443445
0.00555528
0.00652512
0.0073618
0.00807736
0.00868175
0.00918476
0.00959708
0.00993045
0.0101976
0.0104116
0.0105852
0.0107299
0.0108553
0.0109679
0.0110709
0.0111641
0.0112442
0.011306
0.0113427
0.000179681
0.00159659
0.00307977
0.00435788
0.00546413
0.00642544
0.00725731
0.00796956
0.00857019
0.00906747
0.00947099
0.00979195
0.0100431
0.010238
0.0103904
0.0105136
0.0106187
0.0107144
0.0108062
0.0108956
0.0109811
0.0110581
0.0111202
0.000178632
0.00157507
0.00302913
0.00428485
0.00537606
0.00632798
0.00715402
0.007862
0.00845811
0.00894913
0.00934355
0.00965196
0.00988698
0.0100627
0.0101939
0.0102952
0.0103797
0.0104582
0.0105382
0.0106235
0.0107139
0.0108061
0.0108938
0.000177927
0.00155647
0.00298353
0.00421793
0.0052943
0.0062364
0.00705591
0.0077589
0.00834994
0.00883443
0.00921977
0.00951587
0.00973511
0.0098919
0.0100019
0.010081
0.0101443
0.0102045
0.0102713
0.0103507
0.0104441
0.0105493
0.0106604
0.000177564
0.00154133
0.00294447
0.00415949
0.00522183
0.00615414
0.00696668
0.00766413
0.00824972
0.0087276
0.00910413
0.00938848
0.00959266
0.00973119
0.00982037
0.00987725
0.00991844
0.00995877
0.0100101
0.0100804
0.010173
0.010287
0.0104172
0.000177537
0.00153021
0.00291342
0.00411176
0.0051615
0.00608443
0.00688981
0.00758127
0.00816104
0.00863228
0.00900042
0.00927385
0.00946404
0.00958538
0.00965448
0.00968925
0.00970765
0.00972631
0.00975917
0.0098163
0.00990312
0.0100201
0.010163
0.000177844
0.0015237
0.00289186
0.00407704
0.0051162
0.00603055
0.00682869
0.00751367
0.00808713
0.00855158
0.00891172
0.00917516
0.00935273
0.00945835
0.00950859
0.00952181
0.00951696
0.0095122
0.0095234
0.00956277
0.00963785
0.0097509
0.00989891
0.000178501
0.00152257
0.00288157
0.00405796
0.00508915
0.005996
0.00678683
0.00746462
0.00803095
0.00848811
0.00884038
0.00909472
0.00926117
0.00935293
0.00938609
0.00937894
0.00935095
0.00932142
0.00930793
0.0093248
0.00938183
0.00948338
0.00962807
0.000179551
0.00152792
0.00288491
0.00405782
0.00508425
0.00598482
0.00676804
0.00743744
0.00799517
0.00844393
0.00878797
0.00903381
0.0091907
0.00927081
0.00928928
0.00926375
0.00921363
0.0091588
0.00911817
0.00910809
0.00914075
0.00922298
0.00935551
0.000181088
0.00154136
0.0029051
0.00408097
0.00510631
0.00600171
0.00677647
0.00743541
0.0079821
0.00842036
0.00875503
0.0089925
0.00914123
0.0092122
0.00921908
0.00917824
0.00910824
0.00902889
0.00895985
0.00891914
0.00892145
0.00897652
0.00908785
0.000183268
0.00156511
0.00294641
0.00413276
0.00516086
0.00605165
0.00681605
0.00746119
0.00799307
0.00841753
0.00874066
0.00896916
0.00911088
0.00917541
0.00917456
0.00912272
0.0090368
0.00893562
0.00883887
0.00876571
0.00873296
0.00875326
0.00883346
0.000186338
0.001602
0.00301367
0.00421871
0.00525299
0.00613859
0.00688921
0.0075156
0.00802739
0.00843342
0.00874173
0.00895987
0.00909531
0.00915623
0.00915225
0.00909514
0.00899926
0.00888134
0.00876006
0.00865479
0.00858398
0.00856324
0.00860326
0.000190651
0.00165438
0.0031099
0.00434152
0.00538432
0.00626264
0.00699448
0.00759574
0.00808094
0.00846286
0.00875221
0.00895785
0.00908724
0.00914731
0.00914535
0.00909004
0.00899229
0.00886572
0.00872661
0.00859316
0.0084843
0.00841803
0.00840919
0.000196624
0.0017207
0.00323112
0.00449583
0.00554844
0.00641645
0.00712383
0.00769322
0.00814519
0.00849721
0.00876322
0.00895378
0.0090768
0.00913831
0.00914354
0.00909799
0.00900842
0.0088844
0.00873853
0.00858606
0.00844437
0.00833215
0.0082676
0.000204562
0.00179017
0.00336044
0.00466344
0.00572735
0.00658295
0.00726166
0.00779422
0.00820813
0.00852599
0.00876515
0.00893816
0.00905377
0.00911775
0.00913408
0.00910594
0.0090354
0.00892746
0.0087903
0.00863462
0.00847365
0.00832342
0.00820252
0.000214314
0.00184168
0.00346954
0.00481525
0.00589353
0.00673762
0.00738743
0.00788268
0.00825804
0.0085411
0.00875239
0.00890638
0.00901284
0.00907783
0.00910563
0.00909992
0.00905747
0.00897877
0.00886824
0.00873163
0.0085759
0.00841043
0.00824846
0.000224575
0.00186087
0.0035343
0.00492342
0.00601893
0.00685553
0.00748171
0.00794572
0.00828857
0.00854192
0.00872874
0.00886488
0.00896068
0.0090223
0.00905593
0.00907103
0.00905936
0.00901768
0.00894912
0.00885611
0.00873982
0.00860137
0.00844364
0.000232605
0.00185264
0.00355496
0.00497546
0.00608502
0.00691877
0.00753157
0.00797738
0.00830112
0.00853682
0.00870866
0.008833
0.00891989
0.00897446
0.00900412
0.00902457
0.00903276
0.00902393
0.00900275
0.00897065
0.00892688
0.00886935
0.00879508
0.000485347
0.000466136
0.000454124
0.000511233
0.00307149
0.00282942
0.00253523
0.00210854
0.00426759
0.00401046
0.00377933
0.00352488
0.00479389
0.0045728
0.00447632
0.00449674
0.00510468
0.0049327
0.00493045
0.00506398
0.00537762
0.00522881
0.00524637
0.00539184
0.0057357
0.00555727
0.00553767
0.00565657
0.00628485
0.00601525
0.00589246
0.00591749
0.00709231
0.0067086
0.00643504
0.00629562
0.00813395
0.00769323
0.00729301
0.00697628
0.00924031
0.00885781
0.0084444
0.0080389
0.0100941
0.00990316
0.00961097
0.0092765
0.0104124
0.0104661
0.0104496
0.0103049
0.0103631
0.0104769
0.0106019
0.010695
0.0103832
0.0103913
0.0104593
0.0105705
0.0106501
0.0105405
0.0104793
0.0104654
0.0110817
0.0109143
0.0107691
0.0106502
0.0115193
0.01135
0.0111833
0.0110241
0.0118391
0.0116939
0.0115401
0.0113813
0.0119926
0.0118758
0.0117451
0.0116021
0.0119942
0.0119014
0.0117928
0.0116687
0.011889
0.0118156
0.0117264
0.0116212
0.0117247
0.0116687
0.011598
0.0115123
0.0115358
0.0114976
0.0114465
0.0113819
0.0113404
0.0113213
0.0112915
0.01125
0.0111436
0.011145
0.0111377
0.0111206
0.0109434
0.0109654
0.010981
0.0109888
0.0107348
0.0107765
0.010814
0.0108458
0.0105133
0.0105725
0.0106297
0.0106834
0.0102761
0.0103494
0.0104232
0.0104956
0.010023
0.0101065
0.0101927
0.0102799
0.0097565
0.00984553
0.0099396
0.0100369
0.0094812
0.00957097
0.00966801
0.0097706
0.00920346
0.00928907
0.00938412
0.00948692
0.00893116
0.00900759
0.00909555
0.00919347
0.00867431
0.00873574
0.00881099
0.00889858
0.00844487
0.00848528
0.0085412
0.00861173
0.00825862
0.00827114
0.00830018
0.00834557
0.00814132
0.00811887
0.00811201
0.00812171
0.00813737
0.00807716
0.0080275
0.00799052
0.00831328
0.00823038
0.00814786
0.00806752
0.00872441
0.00867404
0.00861783
0.00855525
0.000905962
0.00217432
0.00291085
0.00333349
0.00369873
0.00419512
0.00491556
0.00584546
0.00647483
0.00668352
0.00681631
0.00695042
0.00698118
0.00662587
0.00581653
0.00471149
0.00338044
0.00186888
0.000399821
0.00155523
0.0022636
0.00277894
0.00317032
0.00362485
0.00430304
0.00514642
0.00618288
0.007107
0.00727132
0.00713489
0.00711669
0.00710868
0.00679097
0.00608358
0.00509166
0.00381696
0.00219491
0.000439618
0.00306403
0.00335854
0.00371019
0.00408266
0.00458555
0.00527688
0.00602031
0.00691536
0.00770422
0.00778455
0.00746578
0.00734047
0.0072416
0.00684495
0.00621113
0.00540574
0.00425787
0.00266111
0.000494656
0.00463424
0.00490143
0.00510944
0.00538704
0.0058026
0.00633613
0.00694151
0.00764655
0.00821741
0.00814048
0.00777971
0.00764768
0.00743781
0.00685496
0.0061681
0.00542157
0.00442217
0.00283645
0.000535895
0.0053888
0.005774
0.00598338
0.00624311
0.00663073
0.00711022
0.00767036
0.00825708
0.00859322
0.00838572
0.0081177
0.0080432
0.00768666
0.00687609
0.0060402
0.00521136
0.00422462
0.00281397
0.000508485
0.00569053
0.006182
0.00656465
0.00687462
0.00727941
0.00776057
0.00828168
0.00875793
0.0088305
0.00857921
0.00851253
0.00850472
0.0079709
0.00697892
0.0060283
0.00515587
0.0041181
0.00266996
0.000526556
0.0059699
0.00654647
0.00705131
0.00742381
0.00783317
0.008292
0.00875933
0.00909792
0.00900043
0.0088004
0.00896452
0.00899525
0.0083153
0.00724764
0.00629209
0.0054592
0.00439433
0.00276331
0.000603081
0.00616862
0.00679599
0.00739154
0.00783533
0.00824607
0.00865428
0.00901068
0.00917685
0.0090992
0.00909528
0.0094119
0.00943348
0.00873853
0.00775023
0.00691808
0.00619082
0.00509312
0.00314846
0.000686234
0.00635123
0.00684685
0.00752317
0.0080554
0.00847892
0.00880055
0.00900876
0.00906708
0.00912168
0.00938005
0.00977236
0.00977077
0.00919378
0.00843947
0.00788137
0.00738325
0.00616669
0.00373902
0.000754658
0.00676309
0.00684801
0.00738868
0.00801748
0.0084393
0.00871084
0.00889934
0.0090149
0.00917657
0.0096235
0.0100531
0.0100545
0.00963289
0.00915143
0.00893915
0.00853263
0.00743928
0.00449424
0.000808876
0.00759572
0.00720254
0.00728858
0.00772424
0.0081918
0.00854619
0.00879106
0.00898592
0.00937963
0.00992113
0.0102999
0.0103128
0.0100383
0.00976223
0.00967172
0.00943996
0.00850535
0.00524634
0.0008502
0.00878855
0.00807786
0.007712
0.00773291
0.00799758
0.00834757
0.00868316
0.00918153
0.00976746
0.0102601
0.0105398
0.0105689
0.0104329
0.0103296
0.0103825
0.0104221
0.00951814
0.00601528
0.00088406
0.00997963
0.00927922
0.00867626
0.00838061
0.00839671
0.00864546
0.00908185
0.00967454
0.0102061
0.010575
0.0107733
0.0108426
0.0108392
0.0109008
0.0111559
0.0112418
0.0102294
0.00675313
0.000907119
0.0107265
0.0103152
0.009786
0.0094032
0.00929741
0.00945029
0.00979119
0.0101996
0.010555
0.0108124
0.0109824
0.0111136
0.0112174
0.0114169
0.011764
0.0117219
0.0105069
0.00690862
0.000903582
0.0108086
0.0108511
0.0105384
0.010272
0.0101739
0.0102187
0.0103464
0.0105251
0.0107477
0.0109441
0.0111617
0.011354
0.0115292
0.0118019
0.0120719
0.0118184
0.010387
0.00663497
0.000849135
0.010546
0.0106906
0.0107298
0.0106385
0.0105731
0.0105409
0.0105699
0.0106585
0.0108043
0.0110343
0.0113084
0.0115515
0.0117705
0.0120326
0.0121455
0.0116849
0.0100918
0.00628286
0.000809006
0.0105347
0.0105291
0.0106181
0.0107285
0.0107432
0.0107025
0.0106791
0.0106909
0.0108183
0.0110848
0.0114096
0.0116869
0.0119296
0.0121339
0.0121006
0.0114758
0.00978624
0.00603449
0.000784917
0.0108069
0.0106575
0.0106193
0.0106463
0.0106502
0.0106197
0.0106031
0.010626
0.0107786
0.0110802
0.0114357
0.0117458
0.012003
0.0121535
0.0120127
0.011277
0.00953542
0.00588663
0.000773483
0.0111379
0.0109032
0.0107344
0.0106177
0.0105234
0.0104573
0.0104445
0.010502
0.01069
0.0110128
0.0113876
0.0117336
0.0120086
0.0121269
0.0119171
0.0111217
0.00936069
0.00580177
0.000766872
0.0113678
0.0110946
0.0108385
0.0106081
0.0104172
0.0102969
0.010273
0.0103569
0.0105728
0.0109036
0.0112915
0.0116739
0.0119717
0.0120786
0.0118375
0.0110132
0.00925004
0.00574888
0.000760692
0.0114568
0.0111781
0.0108841
0.0105959
0.0103484
0.0101866
0.0101435
0.0102319
0.0104562
0.0107913
0.0111945
0.0116028
0.0119215
0.0120303
0.0117761
0.0109417
0.00917777
0.00570712
0.000754129
0.0114372
0.0111764
0.0108841
0.0105858
0.0103219
0.0101408
0.0100804
0.0101585
0.0103764
0.010712
0.0111254
0.0115482
0.0118773
0.0119857
0.0117224
0.0108836
0.00911155
0.00565794
0.000750358
0.0113605
0.011134
0.0108694
0.0105916
0.0103391
0.0101576
0.0100868
0.0101505
0.0103546
0.0106829
0.0110952
0.0115173
0.0118398
0.0119357
0.0116571
0.0108118
0.00902736
0.00559075
0.000764254
0.0112666
0.0110854
0.0108635
0.0106229
0.0103974
0.0102283
0.0101549
0.0102059
0.0103932
0.0107057
0.0111024
0.0115052
0.0118033
0.0118726
0.0115705
0.0107169
0.00894691
0.00558541
0.000796138
0.0111749
0.0110459
0.0108751
0.01068
0.0104898
0.0103411
0.0102721
0.0103142
0.0104837
0.0107727
0.0111403
0.0115079
0.0117673
0.0118008
0.0114736
0.0106149
0.00888254
0.00557965
0.000801024
0.011088
0.0110155
0.0109001
0.0107552
0.0106051
0.0104824
0.0104236
0.0104607
0.0106124
0.0108725
0.0112012
0.0115228
0.0117359
0.0117309
0.0113814
0.010518
0.00881063
0.00555619
0.000786201
0.0109991
0.010985
0.0109276
0.0108359
0.0107295
0.0106375
0.0105938
0.0106297
0.0107643
0.0109922
0.0112762
0.0115464
0.0117103
0.0116663
0.0112933
0.010417
0.00870403
0.00547474
0.000765798
0.0108978
0.010942
0.0109436
0.0109072
0.0108481
0.010791
0.0107669
0.0108052
0.0109239
0.0111185
0.0113553
0.0115719
0.011685
0.0115991
0.0111954
0.010293
0.00855674
0.00533498
0.000742589
0.010774
0.0108742
0.0109343
0.0109545
0.0109453
0.0109271
0.0109268
0.0109709
0.0110757
0.0112374
0.0114266
0.0115889
0.0116494
0.0115171
0.0110745
0.0101367
0.00837122
0.00516323
0.000717241
0.01062
0.0107718
0.0108878
0.0109642
0.0110066
0.0110303
0.0110574
0.0111107
0.0112042
0.0113349
0.0114779
0.0115861
0.0115924
0.0114101
0.0109235
0.00994845
0.00815741
0.00498241
0.000692019
0.0104317
0.0106285
0.0107957
0.0109256
0.0110191
0.0110861
0.0111434
0.0112091
0.0112947
0.0113977
0.0114973
0.0115532
0.0115057
0.0112727
0.0107425
0.00973466
0.00793213
0.00480986
0.000667226
0.0102089
0.010442
0.0106533
0.0108318
0.0109737
0.0110834
0.0111721
0.0112529
0.0113344
0.0114141
0.0114748
0.0114825
0.011384
0.011103
0.0105334
0.00950053
0.00770439
0.00464958
0.000642895
0.00995462
0.0102142
0.010461
0.0106808
0.0108658
0.0110153
0.0111348
0.0112325
0.0113136
0.0113752
0.0114029
0.0113677
0.0112231
0.0108995
0.0102968
0.0092481
0.00747217
0.0044994
0.000619074
0.00967486
0.00995041
0.0102228
0.0104753
0.0106965
0.0108808
0.0110288
0.0111435
0.0112271
0.0112757
0.0112764
0.0112044
0.0110191
0.0106585
0.0100294
0.00897649
0.00723214
0.00434975
0.000595586
0.00937709
0.00965794
0.00994601
0.0102223
0.0104719
0.010685
0.0108573
0.0109879
0.0110754
0.0111146
0.0110933
0.0109897
0.0107684
0.0103756
0.00972629
0.00867959
0.00697956
0.00419223
0.000571788
0.00906931
0.00934477
0.00963924
0.00993129
0.0102022
0.010438
0.0106301
0.0107736
0.0108644
0.0108956
0.0108547
0.0107218
0.0104665
0.0100444
0.0093807
0.00834769
0.00670184
0.00401975
0.00054637
0.00875925
0.00901761
0.00930976
0.00961152
0.00989947
0.010154
0.0103617
0.0105146
0.0106059
0.010627
0.0105646
0.0103998
0.0101073
0.00965525
0.00898103
0.00796711
0.00638068
0.00382268
0.000519478
0.00845604
0.00868064
0.00896029
0.00926821
0.00957444
0.00984902
0.0100712
0.01023
0.0103175
0.0103231
0.0102314
0.0100236
0.00968281
0.0091952
0.00851261
0.00752494
0.00600975
0.0035949
0.000489838
0.00817614
0.00833817
0.00858619
0.00889602
0.00923054
0.0095381
0.00978006
0.00994395
0.0100229
0.0100045
0.00986935
0.00959593
0.00918247
0.00864973
0.00796571
0.00702394
0.00560324
0.00334298
0.000456544
0.00796418
0.00801483
0.00818267
0.00847223
0.00885163
0.00923128
0.0095115
0.00968442
0.00975163
0.00970035
0.00950255
0.009127
0.00858735
0.0080047
0.0073531
0.0065113
0.00523124
0.0031156
0.000418463
0.00795021
0.00782759
0.00780986
0.00797187
0.00836776
0.00893005
0.00928945
0.00948162
0.00953818
0.0094497
0.00917247
0.00864225
0.00785998
0.00727967
0.00678883
0.00620317
0.00519546
0.0031666
0.000383485
0.00844144
0.00823667
0.00798048
0.00769477
0.00761928
0.0086513
0.00914572
0.00936605
0.00941794
0.00930166
0.00895327
0.00823646
0.00712123
0.00707126
0.00713418
0.00710388
0.00667644
0.0047454
0.000373789
)
;

boundaryField
{
    leftWall
    {
        type            nutkWallFunction;
        Cmu             0.09;
        kappa           0.41;
        E               9.8;
        value           nonuniform List<scalar> 
50
(
9.86629e-06
1.24719e-05
1.36397e-05
1.42629e-05
1.45593e-05
1.46415e-05
1.46146e-05
1.46176e-05
1.51771e-05
1.744e-05
1.97681e-05
1.77667e-05
1.84185e-05
1.93741e-05
2.0051e-05
2.04487e-05
2.06705e-05
2.07835e-05
2.0816e-05
2.07781e-05
2.06737e-05
2.05066e-05
2.02831e-05
2.00111e-05
1.97001e-05
1.93602e-05
1.90026e-05
1.86388e-05
1.82807e-05
1.794e-05
1.76271e-05
1.7351e-05
1.71184e-05
1.69339e-05
1.67998e-05
1.67163e-05
1.66824e-05
1.66967e-05
1.67585e-05
1.68694e-05
1.70359e-05
1.72711e-05
1.75979e-05
1.80526e-05
1.86891e-05
1.95779e-05
2.07866e-05
2.23171e-05
2.39809e-05
2.5323e-05
)
;
    }
    rightWall
    {
        type            nutkWallFunction;
        Cmu             0.09;
        kappa           0.41;
        E               9.8;
        value           nonuniform List<scalar> 
50
(
2.54691e-05
2.99698e-05
3.36768e-05
3.66469e-05
3.83576e-05
3.95362e-05
4.0501e-05
4.14966e-05
4.2805e-05
4.55666e-05
4.96238e-05
5.43142e-05
5.40284e-05
5.35641e-05
5.77935e-05
6.42707e-05
7.04917e-05
7.55837e-05
7.96037e-05
8.52043e-05
0.000100726
0.000103013
9.7988e-05
8.43012e-05
8.17513e-05
8.01935e-05
7.92106e-05
7.84881e-05
7.78082e-05
7.74409e-05
8.32754e-05
9.20328e-05
9.34636e-05
9.37784e-05
9.30191e-05
9.13392e-05
8.89223e-05
8.61349e-05
8.32123e-05
8.01841e-05
7.71163e-05
7.40565e-05
7.09422e-05
6.76218e-05
6.40862e-05
6.0163e-05
5.57052e-05
5.05752e-05
4.54998e-05
4.38235e-05
)
;
    }
    lowerWall
    {
        type            nutkWallFunction;
        Cmu             0.09;
        kappa           0.41;
        E               9.8;
        value           nonuniform List<scalar> 
62
(
4.69835e-06
5.9664e-06
7.09341e-06
7.95795e-06
8.64717e-06
9.21574e-06
9.69917e-06
1.01168e-05
1.04781e-05
1.07872e-05
1.10454e-05
1.12536e-05
1.14137e-05
1.153e-05
1.16127e-05
1.16665e-05
1.16725e-05
1.16191e-05
1.14722e-05
1.11759e-05
1.05681e-05
9.28651e-06
6.44296e-06
6.44296e-06
1.87023e-05
2.17085e-05
2.45911e-05
2.79715e-05
3.24675e-05
3.84233e-05
4.56116e-05
4.98083e-05
4.86024e-05
4.80383e-05
5.21708e-05
1.9938e-05
6.47485e-05
7.31603e-05
7.81112e-05
8.05761e-05
8.06643e-05
7.86421e-05
7.58499e-05
1.9938e-05
2.52304e-05
2.71749e-05
2.78744e-05
2.78861e-05
2.76236e-05
2.74501e-05
2.76187e-05
2.80541e-05
2.85081e-05
2.8732e-05
2.8345e-05
2.69405e-05
2.47139e-05
2.24538e-05
2.068e-05
1.908e-05
1.60912e-05
1.15009e-05
)
;
    }
    atmosphere
    {
        type            calculated;
        value           nonuniform List<scalar> 
46
(
0.000232605
0.00185264
0.00355496
0.00497546
0.00608502
0.00691877
0.00753157
0.00797738
0.00830112
0.00853682
0.00870866
0.008833
0.00891989
0.00897446
0.00900412
0.009
0.009
0.009
0.009
0.009
0.009
0.009
0.009
0.009
0.009
0.009
0.009
0.009
0.009
0.009
0.009
0.009
0.0086513
0.00914572
0.00936605
0.00941794
0.00930166
0.00895327
0.00823646
0.009
0.009
0.009
0.009
0.009
0.009
0.000373789
)
;
    }
    defaultFaces
    {
        type            empty;
    }
}


// ************************************************************************* //
