/*--------------------------------*- C++ -*----------------------------------*\
| =========                 |                                                 |
| \\      /  F ield         | OpenFOAM: The Open Source CFD Toolbox           |
|  \\    /   O peration     | Version:  2.3.0                                 |
|   \\  /    A nd           | Web:      www.OpenFOAM.org                      |
|    \\/     M anipulation  |                                                 |
\*---------------------------------------------------------------------------*/
FoamFile
{
    version     2.0;
    format      ascii;
    class       surfaceScalarField;
    location    "0.268";
    object      phi;
}
// * * * * * * * * * * * * * * * * * * * * * * * * * * * * * * * * * * * * * //

dimensions      [0 3 -1 0 0 0 0];

internalField   nonuniform List<scalar> 
1024
(
2.44359e-12
5.64082e-14
2.5431e-12
-9.95049e-14
2.57781e-12
-3.47168e-14
2.61698e-12
-3.91644e-14
4.01512e-14
2.57683e-12
2.575e-12
-1.85902e-14
2.55787e-12
-8.23814e-14
2.56185e-12
-3.8695e-14
2.58286e-12
-6.01701e-14
6.78143e-14
2.5552e-12
2.59532e-12
-1.13914e-13
2.53628e-12
-2.33339e-14
2.52366e-12
-2.60827e-14
2.53803e-12
-7.45371e-14
9.15676e-14
2.51428e-12
2.52428e-12
-1.38195e-13
2.46623e-12
3.47184e-14
2.4602e-12
-2.00511e-14
2.46256e-12
-7.69003e-14
9.91044e-14
2.45502e-12
2.36181e-12
2.39652e-12
2.37647e-12
2.29957e-12
2.39868e-12
2.36679e-12
2.10041e-13
2.3222e-12
4.45823e-14
2.32244e-12
-2.3366e-16
2.33127e-12
-8.83587e-15
2.33661e-12
-5.33352e-15
2.33895e-12
-2.34772e-15
2.33974e-12
-7.87028e-16
2.33995e-12
-2.1213e-16
2.34e-12
-4.90776e-17
2.34001e-12
-2.76893e-18
2.34001e-12
-1.7649e-18
2.34e-12
7.35637e-18
2.34e-12
-1.36903e-18
2.34e-12
5.77851e-18
2.34e-12
-3.04122e-18
2.33999e-12
5.70614e-18
2.34e-12
-4.98941e-18
2.33999e-12
4.85593e-18
2.34e-12
-6.08713e-18
2.33999e-12
5.53773e-18
2.34e-12
-6.30761e-18
2.33999e-12
5.39967e-18
2.34e-12
-5.71268e-18
2.33999e-12
5.95296e-18
2.34e-12
-6.14976e-18
2.33999e-12
5.79718e-18
2.34e-12
-5.81891e-18
2.33999e-12
5.63127e-18
2.34e-12
-6.58931e-18
2.33999e-12
6.32996e-18
2.34e-12
-6.24358e-18
2.33999e-12
7.4334e-18
2.34e-12
-6.43078e-18
2.33999e-12
7.34202e-18
2.34e-12
-7.25937e-18
2.33999e-12
5.67255e-18
2.34e-12
-5.98035e-18
2.33999e-12
5.97265e-18
2.34e-12
-8.86927e-18
2.33999e-12
8.74068e-18
2.34e-12
-8.02302e-18
2.33999e-12
8.30469e-18
2.34e-12
-8.31086e-18
2.34e-12
3.90256e-18
-3.79752e-17
2.3618e-12
4.03434e-13
2.32326e-12
8.31212e-14
2.3266e-12
-3.56956e-15
2.33319e-12
-1.54305e-14
2.33732e-12
-9.46065e-15
2.33912e-12
-4.14718e-15
2.33976e-12
-1.42232e-15
2.33995e-12
-4.01529e-16
2.33999e-12
-9.13134e-17
2.34e-12
-1.89588e-17
2.34e-12
4.2416e-18
2.34e-12
7.81221e-19
2.34e-12
7.60495e-18
2.34e-12
-3.22124e-18
2.34e-12
4.77909e-18
2.34001e-12
-3.84011e-18
2.34e-12
4.00852e-18
2.34001e-12
-4.33009e-18
2.34e-12
3.8605e-18
2.34001e-12
-3.34192e-18
2.34e-12
3.56941e-18
2.34001e-12
-4.77655e-18
2.33999e-12
5.17713e-18
2.34001e-12
-4.71453e-18
2.33999e-12
5.0291e-18
2.34001e-12
-5.83728e-18
2.33999e-12
5.81446e-18
2.34001e-12
-6.40902e-18
2.33999e-12
4.86067e-18
2.34001e-12
-5.7916e-18
2.33999e-12
6.04325e-18
2.34001e-12
-4.36824e-18
2.33999e-12
6.44161e-18
2.34001e-12
-4.97353e-18
2.33999e-12
5.28037e-18
2.34001e-12
-8.43591e-18
2.33999e-12
7.65441e-18
2.34001e-12
-7.76942e-18
2.34e-12
2.76112e-18
2.34001e-12
-3.52375e-18
2.33999e-12
5.50214e-18
2.34001e-12
-4.92449e-18
2.33999e-12
7.58896e-18
2.34e-12
-5.79399e-18
2.85865e-17
2.34132e-12
5.76389e-13
2.32712e-12
9.73231e-14
2.33376e-12
-1.02074e-14
2.33756e-12
-1.92349e-14
2.3392e-12
-1.10991e-14
2.33976e-12
-4.71086e-15
2.33994e-12
-1.59731e-15
2.33998e-12
-4.43319e-16
2.34e-12
-1.06776e-16
2.34e-12
-2.01617e-17
2.34e-12
-1.1142e-18
2.34e-12
4.65349e-18
2.34e-12
3.7122e-18
2.34e-12
1.13126e-18
2.34e-12
4.56207e-21
2.34e-12
1.17033e-18
2.34e-12
-1.66068e-18
2.34e-12
1.39275e-18
2.34001e-12
-2.48182e-18
2.34e-12
3.8735e-18
2.34e-12
-3.42812e-18
2.34e-12
1.58814e-18
2.34e-12
-1.04916e-18
2.34e-12
2.30736e-18
2.34e-12
-1.94555e-18
2.34e-12
8.35877e-19
2.34e-12
-8.73163e-19
2.34e-12
1.32782e-18
2.34001e-12
-3.42427e-18
2.34e-12
2.10232e-18
2.34001e-12
-1.75272e-18
2.34e-12
4.30436e-18
2.34e-12
-1.48463e-18
2.34e-12
3.96747e-18
2.34e-12
-3.0498e-18
2.34e-12
-4.33915e-19
2.34e-12
-1.01337e-19
2.33999e-12
1.15664e-18
2.34001e-12
-9.03837e-18
2.34e-12
7.64298e-18
2.34001e-12
-4.93727e-18
2.34e-12
5.04265e-18
2.34001e-12
-2.66523e-18
2.34e-12
9.61136e-19
-2.78324e-17
2.31868e-12
7.12731e-13
2.33655e-12
7.9454e-14
2.3442e-12
-1.78581e-14
2.34323e-12
-1.8259e-14
2.34149e-12
-9.3637e-15
2.34054e-12
-3.76391e-15
2.34015e-12
-1.20628e-15
2.34004e-12
-3.29416e-16
2.34e-12
-6.54795e-17
2.34e-12
-2.74783e-17
2.33999e-12
1.10056e-17
2.34001e-12
-1.03478e-17
2.33999e-12
1.79106e-17
2.34001e-12
-1.44264e-17
2.33999e-12
1.50418e-17
2.34001e-12
-1.43505e-17
2.33999e-12
1.35533e-17
2.34001e-12
-1.43183e-17
2.33999e-12
1.31618e-17
2.34001e-12
-1.10389e-17
2.33999e-12
1.21902e-17
2.34001e-12
-1.49112e-17
2.33999e-12
1.65018e-17
2.34001e-12
-1.52113e-17
2.33999e-12
1.57736e-17
2.34001e-12
-1.77575e-17
2.33999e-12
1.78573e-17
2.34001e-12
-1.65997e-17
2.33999e-12
1.46518e-17
2.34001e-12
-1.64213e-17
2.33999e-12
1.70895e-17
2.34001e-12
-1.44203e-17
2.33999e-12
1.76712e-17
2.34001e-12
-1.51299e-17
2.33999e-12
1.64395e-17
2.34001e-12
-2.13702e-17
2.33999e-12
2.12254e-17
2.34001e-12
-1.76963e-17
2.33999e-12
7.523e-18
2.34001e-12
-9.62169e-18
2.33999e-12
1.38806e-17
2.34001e-12
-1.46803e-17
2.33999e-12
1.92805e-17
2.34e-12
-1.50596e-17
4.37093e-17
2.31305e-12
7.98353e-13
2.35973e-12
3.27761e-14
2.35734e-12
-1.5467e-14
2.34839e-12
-9.31201e-15
2.34325e-12
-4.21983e-15
2.34104e-12
-1.55608e-15
2.34027e-12
-4.35208e-16
2.34006e-12
-1.22045e-16
2.34e-12
-4.4249e-18
2.34e-12
-2.42374e-17
2.33999e-12
1.87042e-17
2.34e-12
-2.10205e-17
2.34e-12
2.55572e-17
2.34e-12
-2.39018e-17
2.34e-12
2.25925e-17
2.34001e-12
-2.20568e-17
2.34e-12
2.06219e-17
2.34e-12
-2.04698e-17
2.34e-12
1.8042e-17
2.34e-12
-1.46068e-17
2.34e-12
1.6594e-17
2.34e-12
-2.07355e-17
2.34e-12
2.28039e-17
2.34e-12
-2.15214e-17
2.34e-12
2.25546e-17
2.34001e-12
-2.56844e-17
2.34e-12
2.55385e-17
2.34e-12
-2.18927e-17
2.34e-12
1.96417e-17
2.34e-12
-2.175e-17
2.34e-12
2.1934e-17
2.34e-12
-1.98125e-17
2.34e-12
2.17054e-17
2.34001e-12
-2.06246e-17
2.34e-12
2.29704e-17
2.34001e-12
-2.89972e-17
2.34e-12
2.88878e-17
2.34e-12
-2.03633e-17
2.34e-12
6.31348e-18
2.34e-12
-7.23893e-18
2.34e-12
1.41299e-17
2.34e-12
-1.73149e-17
2.34e-12
2.23131e-17
2.34001e-12
-2.05575e-17
4.0309e-19
2.59669e-12
-7.98333e-13
2.66228e-12
-3.28193e-14
2.63131e-12
1.55096e-14
2.61272e-12
9.27247e-15
2.60424e-12
4.26306e-15
2.60117e-12
1.5116e-15
2.60026e-12
4.79535e-16
2.60006e-12
7.53532e-17
2.6e-12
5.13208e-17
2.6e-12
-2.24014e-17
2.59999e-12
2.7163e-17
2.6e-12
-2.57055e-17
2.6e-12
2.18281e-17
2.6e-12
-2.35773e-17
2.6e-12
2.59528e-17
2.6e-12
-2.70344e-17
2.59999e-12
2.8487e-17
2.6e-12
-2.86255e-17
2.59999e-12
3.13009e-17
2.60001e-12
-3.51011e-17
2.59999e-12
3.3322e-17
2.6e-12
-2.9784e-17
2.6e-12
2.85638e-17
2.6e-12
-3.04454e-17
2.6e-12
2.9084e-17
2.6e-12
-2.54042e-17
2.6e-12
2.59163e-17
2.60001e-12
-2.98358e-17
2.59999e-12
3.23821e-17
2.6e-12
-3.03761e-17
2.59999e-12
3.0726e-17
2.60001e-12
-3.38891e-17
2.6e-12
3.2237e-17
2.60001e-12
-3.34316e-17
2.6e-12
3.0507e-17
2.6e-12
-2.34185e-17
2.6e-12
2.36461e-17
2.60001e-12
-3.22946e-17
2.59997e-12
4.64948e-17
2.60001e-12
-4.54932e-17
2.59999e-12
3.90834e-17
2.6e-12
-3.62307e-17
2.59999e-12
3.38505e-17
2.6e-12
-2.89388e-17
6.17009e-17
2.36181e-12
1.38195e-13
2.39652e-12
-3.47184e-14
2.37647e-12
2.00514e-14
2.29957e-12
7.68983e-14
-9.91051e-14
2.39868e-12
2.52428e-12
1.13914e-13
2.46623e-12
2.33334e-14
2.4602e-12
2.6083e-14
2.46256e-12
7.4534e-14
-9.15687e-14
2.45503e-12
2.59532e-12
1.85905e-14
2.53628e-12
8.23809e-14
2.52366e-12
3.86956e-14
2.53803e-12
6.01678e-14
-6.78153e-14
2.51428e-12
2.575e-12
-5.64077e-14
2.55788e-12
9.95041e-14
2.56185e-12
3.47173e-14
2.58286e-12
3.91636e-14
-4.01515e-14
2.55519e-12
2.44359e-12
2.5431e-12
2.57781e-12
2.61698e-12
2.57683e-12
2.31307e-12
-7.12723e-13
2.35972e-12
-7.94697e-14
2.35735e-12
1.78748e-14
2.34838e-12
1.82453e-14
2.34326e-12
9.38031e-15
2.34103e-12
3.746e-15
2.34029e-12
1.22396e-15
2.34005e-12
3.09764e-16
2.34002e-12
8.48524e-17
2.33999e-12
8.55693e-18
2.34001e-12
6.95569e-18
2.33999e-12
-8.28507e-18
2.34001e-12
1.16747e-18
2.33999e-12
-4.45494e-18
2.34001e-12
4.79222e-18
2.33999e-12
-5.63205e-18
2.34001e-12
6.20112e-18
2.33999e-12
-5.31755e-18
2.34001e-12
6.50919e-18
2.33999e-12
-8.79939e-18
2.34001e-12
7.70934e-18
2.33999e-12
-5.49148e-18
2.34001e-12
4.53736e-18
2.33999e-12
-6.16754e-18
2.34001e-12
5.03657e-18
2.33999e-12
-2.44454e-18
2.34001e-12
2.61249e-18
2.33999e-12
-3.93266e-18
2.34001e-12
6.09113e-18
2.33999e-12
-4.36122e-18
2.34001e-12
4.11307e-18
2.33999e-12
-7.75693e-18
2.34002e-12
4.63387e-18
2.33999e-12
-7.09517e-18
2.34001e-12
5.06073e-18
2.33999e-12
9.56926e-19
2.34001e-12
-7.24403e-19
2.33999e-12
-2.79105e-18
2.34002e-12
1.31133e-17
2.33998e-12
-1.09992e-17
2.34002e-12
7.16386e-18
2.33999e-12
-6.86851e-18
2.34002e-12
4.01744e-18
2.34e-12
-8.60973e-18
-2.26012e-17
2.31869e-12
-5.76383e-13
2.33654e-12
-9.73277e-14
2.34421e-12
1.02123e-14
2.34322e-12
1.92324e-14
2.3415e-12
1.11033e-14
2.34054e-12
4.70551e-15
2.34016e-12
1.60182e-15
2.34003e-12
4.3763e-16
2.34e-12
1.12046e-16
2.34e-12
1.50605e-17
2.34e-12
5.44668e-18
2.34e-12
-9.4518e-18
2.34e-12
1.38555e-18
2.34e-12
-5.87435e-18
2.34e-12
5.33694e-18
2.34e-12
-6.41681e-18
2.34e-12
6.78797e-18
2.34e-12
-6.51261e-18
2.34e-12
7.54883e-18
2.34e-12
-9.04311e-18
2.34e-12
8.53638e-18
2.34e-12
-6.89248e-18
2.34e-12
6.60571e-18
2.34e-12
-8.04361e-18
2.34e-12
7.36593e-18
2.34e-12
-5.95258e-18
2.34e-12
6.2381e-18
2.34e-12
-6.63973e-18
2.34e-12
8.8429e-18
2.34e-12
-7.45815e-18
2.34e-12
7.20511e-18
2.34e-12
-1.02383e-17
2.34e-12
7.3431e-18
2.34e-12
-9.85761e-18
2.34e-12
8.69949e-18
2.34e-12
-4.6907e-18
2.34e-12
5.4213e-18
2.34e-12
-6.40351e-18
2.34e-12
1.43382e-17
2.34e-12
-1.27892e-17
2.34e-12
1.01892e-17
2.34e-12
-1.02587e-17
2.34e-12
8.15792e-18
2.34e-12
-7.32474e-18
3.41753e-17
2.34132e-12
-4.03432e-13
2.32712e-12
-8.31206e-14
2.33376e-12
3.57003e-15
2.33756e-12
1.54322e-14
2.3392e-12
9.46091e-15
2.33976e-12
4.14538e-15
2.33994e-12
1.42269e-15
2.33998e-12
4.00061e-16
2.34e-12
9.20916e-17
2.34e-12
1.81087e-17
2.34001e-12
-3.81627e-18
2.34e-12
-1.54324e-18
2.34001e-12
-6.55383e-18
2.34e-12
2.65582e-18
2.34001e-12
-3.88092e-18
2.34e-12
3.10882e-18
2.34001e-12
-3.19592e-18
2.34e-12
3.44613e-18
2.34001e-12
-3.10496e-18
2.34e-12
2.48378e-18
2.34001e-12
-2.79872e-18
2.34e-12
3.9708e-18
2.34001e-12
-4.34468e-18
2.34e-12
3.75301e-18
2.34001e-12
-4.17176e-18
2.34e-12
5.08074e-18
2.34001e-12
-4.87046e-18
2.33999e-12
5.60208e-18
2.34001e-12
-3.94726e-18
2.34e-12
4.95815e-18
2.34001e-12
-5.31345e-18
2.33999e-12
3.39456e-18
2.34001e-12
-5.60019e-18
2.33999e-12
4.03402e-18
2.34001e-12
-4.27173e-18
2.33999e-12
7.5917e-18
2.34001e-12
-6.64971e-18
2.33999e-12
6.83511e-18
2.34001e-12
-1.75122e-18
2.33999e-12
2.53446e-18
2.34001e-12
-4.39384e-18
2.33999e-12
3.84537e-18
2.34001e-12
-6.29251e-18
2.34e-12
3.43142e-18
-3.0838e-17
2.3618e-12
-2.10039e-13
2.32326e-12
-4.45826e-14
2.3266e-12
2.34427e-16
2.33319e-12
8.83603e-15
2.33732e-12
5.33312e-15
2.33912e-12
2.34658e-15
2.33976e-12
7.86599e-16
2.33995e-12
2.11711e-16
2.33999e-12
4.92165e-17
2.34e-12
2.85035e-18
2.34e-12
1.4907e-18
2.34e-12
-7.2447e-18
2.34e-12
1.36921e-18
2.34e-12
-5.50084e-18
2.34e-12
3.39938e-18
2.34001e-12
-5.25506e-18
2.34e-12
4.94611e-18
2.34001e-12
-4.96528e-18
2.34e-12
5.75454e-18
2.34e-12
-5.60427e-18
2.34e-12
6.18094e-18
2.34001e-12
-5.30433e-18
2.34e-12
5.64979e-18
2.34e-12
-5.91051e-18
2.33999e-12
6.05872e-18
2.34001e-12
-5.63656e-18
2.33999e-12
5.80502e-18
2.34001e-12
-5.50794e-18
2.34e-12
6.52699e-18
2.34001e-12
-6.27519e-18
2.34e-12
6.09056e-18
2.34001e-12
-7.42451e-18
2.33999e-12
6.31933e-18
2.34001e-12
-7.20813e-18
2.33999e-12
7.18288e-18
2.34001e-12
-5.54356e-18
2.33999e-12
5.92725e-18
2.34001e-12
-5.79474e-18
2.34e-12
8.71614e-18
2.34001e-12
-8.43423e-18
2.34e-12
7.71638e-18
2.34001e-12
-7.79434e-18
2.33999e-12
7.69053e-18
2.34e-12
-3.44403e-18
3.97524e-17
2.36679e-12
2.3222e-12
2.32244e-12
2.33127e-12
2.33661e-12
2.33895e-12
2.33974e-12
2.33995e-12
2.34e-12
2.34e-12
2.34001e-12
2.34e-12
2.34e-12
2.33999e-12
2.34e-12
2.33999e-12
2.34e-12
2.33999e-12
2.34e-12
2.33999e-12
2.34e-12
2.33999e-12
2.34e-12
2.33999e-12
2.34e-12
2.33999e-12
2.34e-12
2.33999e-12
2.34e-12
2.33999e-12
2.34e-12
2.33999e-12
2.34e-12
2.33999e-12
2.34e-12
2.33999e-12
2.34e-12
2.33999e-12
2.34e-12
2.33999e-12
2.34e-12
2.33999e-12
2.34e-12
2.34e-12
)
;

boundaryField
{
    AirInlet
    {
        type            calculated;
        value           uniform -1e-12;
    }
    WaterInlet
    {
        type            calculated;
        value           nonuniform List<scalar> 10(-2.5e-12 -2.5e-12 -2.5e-12 -2.5e-12 -2.5e-12 -2.5e-12 -2.5e-12 -2.5e-12 -2.5e-12 -2.5e-12);
    }
    ChannelWall
    {
        type            calculated;
        value           uniform 0;
    }
    Outlet
    {
        type            calculated;
        value           nonuniform List<scalar> 
11
(
2.34004e-12
2.33994e-12
2.34006e-12
2.33993e-12
2.34005e-12
2.59994e-12
2.34008e-12
2.33994e-12
2.34006e-12
2.33993e-12
2.34004e-12
)
;
    }
    FrontAndBack
    {
        type            empty;
        value           nonuniform 0();
    }
}


// ************************************************************************* //
