/*--------------------------------*- C++ -*----------------------------------*\
| =========                 |                                                 |
| \\      /  F ield         | OpenFOAM: The Open Source CFD Toolbox           |
|  \\    /   O peration     | Version:  2.3.0                                 |
|   \\  /    A nd           | Web:      www.OpenFOAM.org                      |
|    \\/     M anipulation  |                                                 |
\*---------------------------------------------------------------------------*/
FoamFile
{
    version     2.0;
    format      ascii;
    class       volScalarField;
    location    "1.25";
    object      pMean;
}
// * * * * * * * * * * * * * * * * * * * * * * * * * * * * * * * * * * * * * //

dimensions      [1 -1 -2 0 0 0 0];

internalField   nonuniform List<scalar> 
6000
(
106420
106419
106417
106415
106413
106412
106412
106412
106411
106412
106413
106412
106412
106411
106413
106415
106416
106415
106415
106415
106415
106415
106415
106414
106414
106415
106417
106419
106419
106420
106351
106349
106347
106345
106343
106343
106342
106340
106340
106341
106341
106341
106341
106341
106343
106344
106346
106346
106346
106346
106345
106344
106343
106341
106342
106344
106347
106349
106349
106351
106299
106298
106296
106295
106295
106294
106293
106292
106292
106293
106294
106293
106293
106293
106294
106296
106298
106300
106300
106299
106298
106296
106293
106291
106294
106297
106299
106300
106299
106300
106245
106244
106242
106242
106243
106242
106241
106241
106241
106242
106243
106243
106242
106242
106243
106246
106249
106250
106249
106248
106246
106243
106240
106240
106242
106245
106247
106247
106246
106248
106191
106190
106189
106189
106190
106190
106189
106190
106190
106191
106192
106193
106192
106193
106195
106198
106200
106199
106198
106196
106193
106191
106190
106190
106191
106192
106194
106194
106194
106195
106138
106137
106136
106135
106136
106137
106138
106139
106139
106140
106141
106142
106144
106147
106149
106151
106151
106149
106147
106145
106143
106142
106141
106140
106139
106139
106140
106141
106142
106143
106085
106084
106083
106081
106083
106086
106088
106088
106089
106090
106092
106094
106098
106101
106103
106103
106100
106099
106097
106095
106093
106092
106091
106089
106087
106086
106087
106089
106091
106094
106035
106033
106030
106029
106033
106036
106039
106040
106040
106041
106044
106048
106051
106054
106055
106053
106050
106048
106046
106045
106043
106042
106042
106040
106039
106038
106038
106041
106044
106047
105984
105981
105978
105980
105984
105989
105992
105993
105993
105995
105997
106001
106005
106006
106006
106003
105999
105998
105996
105994
105994
105994
105994
105994
105992
105992
105992
105995
105999
106001
105935
105932
105930
105931
105936
105942
105946
105948
105949
105950
105952
105956
105958
105958
105957
105953
105951
105949
105947
105946
105947
105947
105948
105948
105947
105947
105948
105950
105955
105958
105887
105884
105882
105884
105889
105894
105900
105904
105905
105905
105907
105910
105911
105910
105908
105905
105904
105902
105901
105900
105901
105902
105902
105902
105902
105902
105904
105907
105912
105915
105840
105838
105837
105838
105842
105847
105854
105858
105860
105860
105860
105862
105863
105862
105861
105859
105858
105857
105856
105855
105856
105856
105855
105856
105857
105858
105860
105865
105870
105873
105796
105794
105793
105793
105796
105801
105807
105812
105814
105814
105813
105814
105816
105816
105815
105814
105814
105812
105811
105811
105810
105809
105808
105809
105810
105813
105817
105822
105828
105831
105753
105752
105750
105750
105752
105756
105760
105765
105769
105768
105766
105766
105768
105770
105770
105770
105769
105768
105766
105766
105764
105762
105761
105761
105763
105768
105773
105779
105784
105787
105711
105710
105709
105708
105709
105712
105715
105720
105723
105723
105721
105720
105722
105725
105726
105726
105726
105724
105722
105720
105718
105715
105713
105712
105715
105720
105727
105732
105737
105739
105670
105669
105669
105668
105668
105669
105672
105675
105678
105678
105677
105676
105678
105680
105682
105682
105682
105680
105678
105674
105671
105667
105664
105664
105666
105672
105678
105683
105687
105689
105629
105629
105629
105628
105627
105627
105629
105631
105634
105635
105634
105633
105633
105636
105637
105638
105637
105636
105633
105629
105623
105619
105615
105614
105617
105622
105627
105631
105634
105636
105589
105589
105589
105588
105587
105586
105587
105588
105590
105592
105591
105590
105590
105591
105592
105592
105592
105590
105587
105582
105576
105570
105566
105565
105567
105571
105575
105578
105580
105582
105548
105548
105549
105548
105546
105545
105545
105546
105547
105548
105548
105547
105546
105547
105547
105547
105546
105544
105540
105534
105527
105521
105517
105516
105517
105520
105522
105524
105526
105528
105507
105507
105508
105507
105505
105504
105504
105503
105503
105504
105505
105504
105503
105502
105502
105500
105499
105497
105492
105486
105479
105473
105469
105468
105468
105469
105471
105472
105473
105475
105465
105465
105466
105465
105464
105462
105462
105461
105459
105459
105460
105460
105459
105458
105456
105454
105451
105449
105444
105437
105431
105426
105422
105420
105419
105419
105421
105422
105423
105424
105422
105423
105423
105423
105422
105420
105419
105417
105415
105414
105415
105415
105414
105413
105411
105408
105405
105402
105396
105389
105383
105379
105376
105373
105372
105371
105372
105374
105375
105375
105379
105379
105380
105380
105379
105377
105375
105373
105371
105370
105370
105370
105370
105369
105366
105362
105358
105355
105348
105341
105335
105332
105329
105327
105325
105324
105325
105326
105327
105326
105334
105335
105335
105336
105336
105334
105331
105328
105327
105325
105325
105325
105325
105324
105321
105317
105312
105307
105300
105293
105287
105284
105282
105280
105278
105277
105278
105279
105279
105277
105289
105289
105290
105292
105292
105289
105285
105283
105282
105281
105280
105280
105280
105278
105276
105272
105266
105260
105251
105244
105238
105235
105233
105232
105231
105230
105230
105230
105229
105227
105244
105244
105245
105246
105246
105244
105240
105238
105237
105236
105236
105236
105234
105233
105230
105226
105219
105211
105203
105196
105191
105188
105185
105184
105182
105181
105180
105179
105177
105175
105199
105198
105198
105199
105199
105197
105194
105192
105192
105192
105192
105191
105189
105187
105184
105180
105172
105164
105156
105150
105146
105143
105141
105138
105136
105133
105131
105128
105125
105124
105153
105152
105152
105152
105152
105150
105148
105146
105146
105147
105147
105146
105144
105140
105137
105132
105125
105119
105112
105107
105102
105100
105098
105095
105091
105088
105085
105082
105079
105078
105106
105105
105105
105104
105103
105102
105101
105100
105100
105101
105101
105100
105097
105094
105090
105085
105080
105075
105069
105064
105059
105057
105055
105052
105048
105045
105041
105038
105036
105035
105059
105057
105057
105056
105055
105054
105053
105053
105053
105054
105054
105054
105051
105047
105043
105038
105035
105031
105026
105021
105016
105014
105012
105008
105004
105002
104998
104995
104993
104992
105012
105010
105009
105007
105007
105007
105006
105006
105007
105007
105008
105007
105005
105001
104996
104992
104990
104988
104983
104977
104973
104970
104968
104964
104961
104959
104956
104953
104951
104951
104965
104963
104961
104960
104960
104960
104960
104959
104960
104961
104961
104960
104958
104955
104950
104947
104945
104944
104939
104934
104930
104927
104924
104921
104919
104917
104914
104912
104910
104910
104917
104915
104914
104913
104913
104914
104913
104913
104914
104914
104914
104914
104912
104909
104905
104902
104901
104899
104895
104890
104887
104884
104881
104879
104878
104876
104874
104871
104869
104869
104869
104868
104867
104867
104867
104867
104867
104867
104868
104868
104868
104867
104866
104863
104860
104857
104856
104854
104850
104847
104844
104842
104840
104838
104838
104836
104833
104830
104828
104828
104820
104820
104820
104820
104820
104821
104822
104822
104822
104822
104822
104821
104819
104817
104815
104812
104811
104809
104806
104804
104803
104801
104800
104798
104798
104795
104792
104789
104787
104787
104772
104771
104772
104773
104774
104776
104777
104777
104777
104777
104776
104775
104774
104772
104769
104767
104766
104764
104763
104761
104761
104760
104759
104759
104758
104754
104751
104747
104746
104746
104723
104724
104724
104726
104729
104731
104732
104733
104732
104732
104731
104730
104728
104726
104724
104723
104721
104720
104719
104719
104719
104719
104719
104719
104717
104713
104709
104706
104704
104704
104676
104677
104678
104680
104683
104687
104689
104688
104687
104686
104685
104684
104683
104681
104679
104678
104677
104676
104676
104676
104677
104678
104679
104679
104676
104671
104667
104665
104663
104663
104632
104632
104633
104635
104638
104642
104645
104644
104642
104641
104640
104639
104638
104636
104634
104633
104633
104632
104633
104634
104635
104636
104638
104637
104634
104629
104626
104623
104622
104622
104588
104589
104590
104591
104594
104598
104601
104600
104598
104596
104595
104594
104593
104591
104590
104589
104589
104589
104590
104591
104593
104595
104596
104595
104592
104587
104584
104583
104582
104583
104545
104545
104546
104548
104551
104554
104557
104556
104554
104552
104551
104550
104548
104547
104545
104545
104545
104545
104547
104549
104550
104553
104554
104553
104550
104546
104544
104543
104542
104543
104502
104501
104502
104504
104507
104510
104513
104512
104510
104508
104507
104505
104504
104502
104501
104500
104501
104502
104503
104506
104507
104509
104510
104510
104508
104505
104503
104503
104503
104504
104458
104457
104459
104461
104463
104466
104468
104468
104466
104464
104463
104461
104459
104457
104456
104455
104456
104458
104460
104462
104464
104466
104467
104467
104466
104464
104463
104463
104463
104464
104414
104414
104415
104417
104420
104422
104423
104423
104421
104419
104418
104416
104413
104411
104410
104410
104411
104413
104415
104418
104420
104422
104423
104424
104424
104423
104423
104423
104423
104424
104370
104370
104372
104373
104375
104377
104377
104377
104376
104374
104372
104370
104367
104365
104364
104364
104365
104367
104370
104374
104377
104378
104380
104381
104382
104382
104382
104382
104382
104382
104327
104327
104328
104330
104331
104331
104331
104330
104329
104327
104325
104323
104320
104318
104317
104317
104318
104321
104324
104328
104332
104334
104336
104338
104339
104339
104340
104340
104340
104340
104283
104284
104285
104285
104286
104285
104284
104283
104281
104279
104277
104274
104271
104269
104268
104269
104271
104274
104277
104281
104286
104288
104291
104293
104295
104295
104296
104296
104297
104297
104240
104240
104241
104241
104240
104239
104237
104235
104232
104229
104226
104223
104220
104219
104219
104220
104223
104226
104229
104234
104238
104242
104245
104248
104249
104250
104250
104251
104251
104251
104195
104195
104195
104194
104193
104191
104188
104185
104181
104177
104173
104170
104168
104167
104168
104171
104174
104177
104181
104186
104190
104194
104198
104200
104201
104202
104203
104204
104204
104204
104149
104149
104148
104147
104145
104142
104138
104132
104127
104122
104118
104116
104115
104116
104118
104121
104124
104128
104133
104138
104142
104145
104148
104151
104152
104153
104154
104156
104156
104156
104101
104101
104099
104097
104094
104090
104085
104078
104071
104065
104063
104061
104062
104064
104067
104070
104074
104079
104085
104089
104092
104094
104097
104100
104101
104103
104105
104107
104107
104107
104050
104049
104047
104044
104041
104036
104030
104022
104013
104009
104008
104008
104010
104013
104016
104020
104024
104029
104035
104039
104041
104042
104044
104047
104050
104052
104054
104057
104057
104057
103996
103994
103991
103989
103986
103981
103975
103966
103958
103955
103955
103957
103960
103962
103965
103969
103973
103979
103984
103987
103989
103990
103992
103995
103999
104001
104004
104006
104007
104007
103939
103937
103935
103932
103930
103926
103920
103912
103906
103905
103906
103908
103910
103912
103915
103918
103922
103927
103931
103934
103935
103937
103939
103943
103947
103950
103953
103956
103957
103957
103884
103881
103880
103878
103876
103872
103867
103861
103858
103858
103859
103861
103862
103864
103865
103868
103871
103874
103877
103880
103881
103883
103887
103891
103896
103900
103903
103905
103906
103906
103829
103828
103827
103825
103823
103820
103817
103813
103812
103812
103813
103814
103815
103815
103816
103817
103818
103819
103822
103825
103827
103830
103835
103840
103845
103850
103853
103855
103856
103857
103778
103778
103776
103775
103773
103771
103769
103768
103767
103767
103767
103768
103768
103768
103768
103767
103767
103766
103768
103771
103774
103778
103784
103790
103796
103800
103803
103805
103806
103807
103730
103728
103727
103725
103724
103724
103724
103723
103722
103721
103721
103721
103721
103720
103719
103718
103716
103716
103717
103720
103724
103729
103734
103741
103746
103751
103753
103755
103757
103758
103682
103680
103678
103677
103677
103678
103679
103678
103677
103676
103675
103675
103674
103673
103672
103670
103669
103669
103670
103673
103677
103682
103687
103693
103698
103702
103704
103706
103708
103709
103633
103631
103630
103629
103630
103632
103633
103634
103633
103631
103630
103628
103627
103626
103625
103624
103623
103624
103625
103628
103632
103636
103642
103647
103651
103654
103655
103656
103658
103660
103584
103583
103582
103581
103582
103585
103588
103588
103588
103586
103584
103582
103581
103580
103579
103578
103578
103580
103581
103583
103587
103591
103597
103601
103605
103607
103608
103608
103609
103611
103533
103533
103532
103533
103534
103538
103541
103542
103542
103541
103538
103536
103535
103534
103533
103533
103533
103535
103537
103538
103541
103546
103551
103556
103560
103561
103560
103561
103561
103562
103481
103481
103481
103483
103485
103489
103493
103495
103496
103495
103493
103491
103489
103488
103487
103487
103488
103489
103491
103493
103496
103501
103506
103510
103514
103514
103513
103514
103514
103513
103428
103428
103429
103432
103435
103439
103443
103446
103448
103448
103446
103444
103442
103441
103441
103441
103442
103444
103446
103448
103450
103455
103459
103463
103466
103466
103465
103465
103465
103465
103374
103374
103376
103379
103383
103387
103392
103395
103397
103398
103397
103395
103395
103394
103393
103394
103395
103397
103399
103402
103404
103408
103412
103415
103416
103416
103415
103415
103414
103414
103321
103321
103323
103326
103330
103334
103338
103341
103344
103345
103345
103344
103343
103344
103344
103345
103347
103349
103352
103354
103356
103359
103362
103364
103365
103364
103362
103362
103361
103361
103268
103268
103270
103272
103276
103279
103283
103286
103289
103290
103291
103290
103290
103291
103293
103295
103298
103300
103303
103305
103307
103309
103310
103311
103311
103310
103308
103306
103306
103306
103216
103215
103216
103218
103221
103225
103228
103230
103232
103234
103235
103235
103235
103237
103239
103243
103246
103249
103252
103254
103256
103256
103257
103257
103256
103255
103252
103250
103249
103250
103165
103164
103164
103165
103167
103170
103173
103174
103175
103177
103178
103178
103179
103181
103184
103189
103193
103197
103200
103201
103202
103202
103202
103202
103201
103199
103196
103194
103192
103193
103114
103113
103113
103113
103114
103116
103118
103118
103118
103119
103120
103121
103122
103124
103128
103133
103138
103143
103145
103146
103147
103147
103147
103147
103146
103144
103141
103138
103136
103136
103063
103063
103062
103062
103062
103063
103063
103062
103061
103061
103061
103062
103063
103066
103071
103077
103083
103087
103088
103089
103090
103092
103092
103093
103092
103089
103086
103083
103080
103080
103010
103011
103011
103010
103010
103010
103008
103006
103003
103001
103001
103002
103005
103008
103014
103020
103025
103029
103031
103032
103033
103036
103038
103039
103038
103036
103033
103029
103026
103026
102956
102957
102958
102957
102957
102956
102954
102950
102945
102942
102941
102943
102946
102951
102957
102963
102968
102972
102973
102975
102977
102979
102983
102985
102986
102984
102981
102978
102975
102974
102900
102901
102902
102902
102901
102900
102898
102894
102888
102884
102884
102886
102890
102896
102902
102907
102912
102915
102917
102918
102920
102923
102928
102932
102934
102933
102931
102929
102926
102924
102842
102844
102844
102844
102845
102844
102842
102837
102832
102830
102831
102834
102838
102844
102849
102854
102857
102860
102861
102863
102864
102868
102873
102878
102881
102882
102882
102880
102877
102875
102785
102786
102787
102787
102787
102787
102785
102781
102779
102779
102782
102785
102790
102795
102799
102803
102806
102807
102808
102808
102809
102812
102817
102823
102828
102830
102831
102830
102828
102827
102729
102730
102730
102731
102731
102731
102730
102728
102728
102730
102734
102738
102743
102747
102752
102755
102756
102756
102756
102756
102756
102757
102762
102768
102773
102776
102779
102779
102778
102776
102675
102675
102676
102677
102678
102678
102678
102678
102680
102683
102688
102692
102697
102701
102705
102707
102708
102708
102706
102705
102705
102705
102708
102713
102718
102722
102724
102725
102726
102724
102623
102624
102625
102626
102626
102628
102629
102631
102634
102638
102643
102648
102652
102656
102659
102661
102662
102661
102659
102657
102657
102656
102657
102659
102663
102667
102669
102669
102671
102671
102574
102574
102575
102576
102578
102580
102583
102586
102591
102595
102600
102604
102608
102611
102613
102614
102614
102613
102612
102611
102610
102609
102608
102608
102611
102613
102614
102614
102615
102616
102525
102525
102526
102528
102531
102533
102536
102541
102547
102552
102557
102560
102563
102565
102566
102566
102565
102565
102565
102564
102563
102563
102561
102559
102559
102560
102561
102560
102560
102560
102476
102476
102477
102480
102484
102486
102490
102495
102502
102508
102512
102515
102516
102517
102518
102517
102517
102517
102517
102517
102516
102515
102513
102511
102508
102508
102508
102507
102506
102506
102427
102426
102428
102432
102436
102440
102444
102449
102456
102462
102466
102469
102470
102471
102471
102470
102470
102469
102469
102469
102468
102467
102465
102462
102458
102456
102455
102454
102452
102452
102376
102376
102379
102383
102388
102393
102398
102403
102409
102414
102418
102421
102423
102424
102424
102423
102422
102421
102421
102420
102420
102418
102415
102411
102406
102403
102400
102399
102397
102397
102325
102327
102329
102333
102338
102343
102350
102356
102361
102366
102369
102372
102375
102376
102376
102375
102374
102373
102373
102372
102370
102367
102364
102359
102354
102350
102346
102344
102343
102342
102275
102276
102279
102283
102288
102293
102299
102306
102311
102315
102319
102322
102324
102326
102327
102326
102325
102324
102323
102321
102318
102315
102312
102307
102301
102297
102293
102290
102288
102287
102224
102226
102229
102232
102236
102241
102247
102254
102260
102264
102267
102270
102272
102274
102276
102276
102275
102274
102271
102268
102265
102263
102259
102254
102249
102244
102240
102236
102234
102233
102172
102174
102177
102180
102184
102188
102194
102201
102207
102212
102215
102218
102220
102222
102224
102224
102223
102221
102218
102215
102213
102210
102207
102202
102197
102192
102187
102184
102181
102180
102119
102121
102123
102126
102129
102133
102140
102148
102154
102159
102163
102166
102167
102169
102170
102171
102169
102166
102164
102162
102160
102158
102154
102150
102145
102140
102135
102131
102128
102127
102065
102066
102068
102071
102074
102079
102086
102094
102100
102106
102110
102112
102114
102115
102116
102116
102114
102112
102110
102109
102109
102107
102103
102099
102094
102088
102082
102078
102075
102073
102010
102011
102012
102015
102019
102025
102032
102040
102046
102052
102056
102058
102060
102061
102061
102061
102060
102058
102058
102059
102059
102057
102053
102048
102043
102037
102030
102026
102023
102022
101954
101955
101956
101959
101965
101972
101980
101986
101992
101998
102001
102004
102006
102006
102007
102007
102006
102006
102007
102008
102009
102007
102003
101998
101992
101985
101979
101974
101972
101971
101898
101899
101901
101904
101911
101920
101927
101933
101939
101943
101946
101949
101951
101952
101952
101953
101953
101954
101955
101956
101956
101955
101951
101946
101939
101933
101927
101924
101922
101922
101843
101844
101846
101850
101857
101865
101873
101879
101884
101888
101890
101893
101895
101896
101897
101898
101899
101901
101902
101903
101903
101901
101898
101893
101887
101881
101876
101873
101872
101872
101788
101789
101791
101794
101801
101809
101817
101823
101828
101832
101834
101835
101837
101839
101841
101842
101844
101846
101848
101849
101849
101847
101844
101840
101835
101830
101825
101823
101822
101822
101734
101734
101735
101739
101745
101753
101760
101767
101771
101775
101776
101777
101778
101780
101781
101784
101787
101790
101793
101795
101795
101794
101791
101787
101783
101779
101774
101771
101771
101770
101679
101679
101680
101683
101690
101697
101704
101711
101715
101718
101719
101720
101719
101719
101721
101724
101728
101733
101737
101740
101741
101739
101737
101734
101731
101726
101722
101719
101717
101716
101624
101624
101626
101630
101636
101643
101650
101656
101660
101662
101663
101663
101662
101661
101662
101664
101669
101674
101680
101683
101685
101684
101682
101680
101677
101673
101668
101664
101661
101659
101572
101571
101574
101578
101585
101591
101597
101602
101606
101607
101608
101608
101608
101606
101606
101607
101609
101615
101621
101626
101628
101628
101626
101624
101622
101617
101611
101606
101602
101599
101522
101522
101525
101530
101537
101542
101547
101552
101555
101556
101557
101557
101556
101555
101554
101553
101554
101557
101563
101569
101572
101572
101571
101569
101566
101561
101555
101549
101544
101540
101476
101478
101481
101486
101492
101496
101501
101505
101507
101508
101509
101509
101508
101508
101507
101505
101503
101505
101509
101514
101518
101519
101518
101515
101512
101506
101499
101493
101487
101484
101433
101435
101438
101443
101449
101453
101456
101459
101460
101462
101462
101462
101462
101462
101461
101459
101457
101456
101458
101461
101464
101466
101465
101462
101458
101452
101445
101439
101434
101430
101391
101392
101396
101401
101406
101409
101412
101414
101415
101416
101416
101416
101416
101416
101416
101414
101412
101410
101409
101411
101412
101413
101412
101409
101404
101397
101391
101385
101381
101379
101349
101350
101353
101358
101363
101366
101368
101370
101370
101370
101370
101370
101369
101370
101370
101368
101367
101364
101362
101362
101362
101361
101359
101356
101351
101344
101337
101332
101331
101331
101307
101308
101311
101315
101319
101322
101324
101325
101326
101325
101324
101322
101321
101321
101322
101321
101319
101318
101316
101314
101312
101311
101308
101305
101299
101292
101286
101284
101283
101284
101265
101266
101268
101272
101276
101278
101279
101280
101280
101279
101276
101273
101271
101271
101271
101271
101270
101269
101268
101266
101264
101261
101258
101255
101250
101244
101240
101239
101238
101238
101223
101223
101226
101228
101231
101233
101233
101234
101234
101231
101227
101223
101220
101218
101218
101218
101218
101218
101218
101217
101215
101212
101209
101207
101203
101199
101197
101196
101195
101194
101181
101181
101183
101184
101187
101187
101188
101188
101186
101183
101178
101173
101169
101167
101166
101166
101166
101166
101167
101166
101166
101164
101162
101160
101159
101157
101156
101155
101153
101152
101139
101139
101139
101141
101142
101142
101141
101140
101137
101133
101128
101124
101121
101119
101118
101117
101117
101117
101116
101115
101116
101117
101116
101115
101115
101115
101115
101114
101112
101112
101097
101096
101096
101096
101096
101095
101092
101090
101087
101084
101080
101078
101076
101075
101073
101072
101071
101071
101069
101069
101069
101070
101071
101071
101071
101073
101074
101074
101072
101072
101054
101053
101052
101051
101050
101046
101043
101041
101040
101038
101036
101035
101034
101034
101032
101031
101030
101029
101027
101026
101025
101026
101027
101027
101027
101028
101031
101032
101032
101032
101010
101009
101007
101005
101003
101000
100997
100996
100996
100996
100996
100996
100996
100995
100994
100993
100991
100990
100987
100985
100984
100984
100985
100985
100984
100984
100985
100988
100989
100991
100963
100963
100961
100959
100957
100956
100955
100955
100956
100957
100958
100958
100958
100958
100957
100956
100954
100952
100949
100946
100944
100944
100944
100944
100943
100942
100941
100942
100944
100946
100916
100916
100915
100914
100913
100914
100915
100916
100918
100920
100921
100922
100922
100922
100921
100920
100918
100915
100912
100908
100905
100904
100904
100905
100904
100902
100900
100900
100900
100902
100870
100871
100871
100871
100873
100875
100877
100879
100881
100883
100884
100885
100886
100885
100885
100884
100882
100879
100875
100871
100868
100865
100865
100866
100865
100864
100862
100861
100860
100860
100828
100830
100831
100831
100833
100837
100840
100843
100845
100847
100848
100848
100849
100849
100848
100847
100845
100842
100838
100834
100831
100828
100826
100827
100827
100826
100824
100823
100822
100821
100790
100791
100791
100792
100795
100800
100803
100806
100808
100810
100810
100811
100812
100811
100810
100809
100807
100804
100801
100797
100793
100790
100788
100787
100787
100787
100786
100784
100782
100781
100753
100753
100752
100753
100757
100762
100766
100769
100771
100773
100773
100773
100774
100773
100772
100771
100768
100766
100762
100758
100755
100751
100748
100747
100746
100745
100745
100743
100741
100739
100715
100715
100714
100715
100718
100723
100728
100731
100733
100735
100735
100735
100735
100735
100734
100732
100729
100726
100723
100719
100716
100712
100708
100705
100703
100702
100701
100700
100698
100697
100677
100677
100676
100676
100678
100684
100689
100693
100695
100696
100697
100697
100697
100696
100695
100693
100690
100686
100683
100680
100676
100672
100668
100664
100661
100658
100657
100655
100654
100654
100639
100638
100638
100638
100640
100645
100650
100654
100656
100658
100658
100658
100658
100658
100656
100654
100650
100647
100643
100640
100637
100633
100628
100623
100619
100616
100614
100612
100611
100612
100601
100600
100600
100601
100602
100607
100612
100616
100618
100619
100620
100620
100620
100619
100618
100615
100611
100607
100604
100601
100598
100594
100589
100584
100580
100577
100575
100573
100572
100572
100566
100565
100565
100565
100566
100570
100574
100578
100581
100582
100582
100582
100582
100582
100580
100577
100574
100570
100566
100563
100560
100557
100552
100547
100543
100540
100538
100536
100535
100535
100533
100532
100532
100532
100532
100535
100539
100542
100545
100546
100546
100546
100546
100546
100544
100541
100538
100534
100530
100527
100524
100521
100517
100512
100508
100505
100503
100501
100500
100500
100502
100501
100500
100499
100500
100502
100505
100508
100510
100512
100513
100513
100512
100512
100510
100507
100504
100501
100497
100493
100491
100488
100484
100479
100475
100472
100470
100468
100467
100467
100471
100470
100469
100468
100468
100470
100472
100475
100478
100480
100481
100481
100481
100480
100478
100476
100473
100469
100466
100462
100459
100456
100452
100447
100443
100440
100438
100436
100435
100435
100440
100439
100438
100437
100437
100438
100441
100444
100447
100449
100450
100451
100450
100449
100448
100446
100443
100439
100436
100432
100428
100425
100421
100416
100412
100409
100407
100405
100405
100405
100410
100409
100407
100406
100406
100408
100410
100414
100417
100420
100421
100422
100421
100420
100419
100417
100414
100411
100407
100402
100398
100395
100391
100386
100381
100378
100376
100375
100375
100376
100380
100379
100377
100377
100377
100379
100382
100385
100389
100392
100394
100395
100394
100393
100392
100390
100387
100384
100379
100375
100370
100366
100362
100357
100352
100349
100347
100346
100347
100347
100351
100350
100349
100349
100350
100351
100354
100358
100362
100366
100367
100369
100368
100367
100366
100364
100362
100358
100353
100348
100343
100339
100335
100329
100325
100322
100321
100320
100320
100320
100323
100323
100323
100323
100324
100325
100328
100332
100336
100340
100342
100344
100344
100342
100341
100340
100337
100333
100328
100323
100318
100313
100309
100304
100300
100298
100297
100296
100294
100294
100298
100298
100299
100299
100299
100300
100302
100306
100311
100315
100318
100319
100320
100319
100318
100316
100313
100309
100304
100299
100294
100289
100285
100281
100278
100276
100274
100273
100271
100270
100274
100274
100274
100274
100274
100276
100278
100282
100287
100292
100295
100297
100297
100296
100295
100294
100291
100286
100281
100276
100271
100266
100261
100258
100255
100253
100252
100250
100249
100248
100250
100249
100249
100249
100250
100252
100254
100259
100264
100269
100272
100274
100275
100275
100274
100272
100269
100264
100259
100254
100249
100243
100239
100235
100232
100230
100228
100227
100226
100226
100225
100224
100224
100225
100226
100229
100232
100237
100242
100247
100250
100253
100254
100253
100253
100251
100248
100243
100238
100233
100227
100222
100217
100213
100209
100206
100204
100204
100204
100204
100200
100200
100200
100202
100204
100207
100211
100216
100222
100226
100229
100232
100233
100233
100232
100230
100227
100223
100218
100212
100206
100201
100196
100191
100187
100183
100181
100181
100182
100183
100178
100178
100179
100181
100184
100188
100192
100197
100202
100206
100209
100212
100213
100213
100212
100210
100207
100203
100198
100193
100188
100182
100177
100172
100166
100162
100160
100161
100162
100163
100159
100159
100160
100163
100166
100169
100174
100179
100184
100188
100191
100194
100195
100195
100194
100192
100189
100185
100181
100176
100170
100165
100159
100154
100148
100144
100142
100142
100144
100144
100142
100142
100143
100146
100149
100152
100157
100162
100167
100171
100174
100176
100178
100178
100176
100174
100172
100168
100164
100159
100154
100149