/*--------------------------------*- C++ -*----------------------------------*\
| =========                 |                                                 |
| \\      /  F ield         | OpenFOAM: The Open Source CFD Toolbox           |
|  \\    /   O peration     | Version:  2.3.0                                 |
|   \\  /    A nd           | Web:      www.OpenFOAM.org                      |
|    \\/     M anipulation  |                                                 |
\*---------------------------------------------------------------------------*/
FoamFile
{
    version     2.0;
    format      ascii;
    class       volScalarField;
    location    "1.25";
    object      Theta.particles;
}
// * * * * * * * * * * * * * * * * * * * * * * * * * * * * * * * * * * * * * //

dimensions      [0 2 -2 0 0 0 0];

internalField   nonuniform List<scalar> 
6000
(
0.000338894
0.00024575
0.000348235
0.00109928
0.000533043
0.00041927
0.000358366
0.000276332
0.000335313
0.000448687
0.000510587
0.000654817
0.00102226
0.00150311
0.00177165
0.00169405
0.0015289
0.00136726
0.00128207
0.00154392
0.00218068
0.00229981
0.00139942
0.000694255
0.000492258
0.000520222
0.000580384
0.000589953
0.000764714
0.00106656
1.14505e-05
1.94902e-05
1.84743e-05
1.64863e-05
1.87594e-05
3.01866e-05
4.55993e-05
5.02724e-05
5.24602e-05
5.60395e-05
5.4258e-05
6.28472e-05
6.04265e-05
4.28568e-05
3.14624e-05
2.34533e-05
1.69369e-05
1.20704e-05
9.24942e-06
1.0855e-05
1.96309e-05
2.68928e-05
3.11974e-05
1.73909e-05
4.69529e-06
2.83197e-06
4.76457e-06
9.91573e-06
2.40992e-05
1.26851e-05
4.65238e-05
8.29728e-05
4.88939e-05
2.60215e-07
3.96391e-06
4.61516e-05
7.46107e-05
0.000135903
0.000226211
0.000280105
0.000351936
0.000225823
6.23322e-05
1.89871e-05
7.43809e-06
4.76963e-06
3.31848e-06
1.47083e-06
7.67103e-07
1.28105e-06
1.37538e-06
4.94264e-07
2.60817e-05
0.000116256
0.000142899
0.000125877
0.000123495
0.000196794
0.000203411
0.000186838
2.33731e-05
5.64564e-05
5.00397e-05
2.26645e-06
2.95912e-06
4.59999e-06
9.67938e-06
0.000110469
0.00027507
0.000215647
8.10815e-05
8.82443e-06
1.40036e-06
9.70873e-07
1.37311e-06
1.56354e-06
1.46794e-06
1.46093e-06
1.87572e-06
2.64681e-06
2.82781e-06
2.19179e-06
1.58841e-06
1.69014e-06
2.93139e-06
2.27329e-06
2.71148e-06
8.60129e-06
9.07062e-06
0.000117477
0.000105303
7.17552e-05
0.000105278
2.6269e-05
4.0095e-06
5.85399e-06
2.35102e-05
0.000225554
0.00028873
7.28362e-05
6.94699e-06
2.43493e-06
1.9537e-06
2.00364e-06
1.88666e-06
1.66166e-06
1.64911e-06
1.44874e-06
1.80742e-06
2.33846e-06
3.36938e-06
3.31577e-06
2.34194e-06
2.80743e-06
3.35327e-06
2.2281e-06
1.66828e-06
2.90795e-06
2.52329e-06
8.7926e-05
0.000125991
1.51572e-05
1.56203e-05
2.56323e-05
5.57884e-06
1.96168e-05
9.25063e-05
0.000239215
0.000129267
1.64458e-05
3.34278e-06
2.62277e-06
2.58027e-06
3.14264e-06
2.58252e-06
1.98782e-06
2.19799e-06
2.45414e-06
2.35667e-06
2.54424e-06
2.79868e-06
3.06248e-06
3.51028e-06
4.54969e-06
3.53963e-06
2.32025e-06
2.6835e-06
4.20855e-06
5.56842e-06
3.38826e-05
0.000112021
3.94511e-06
2.7557e-06
1.30458e-05
6.07187e-06
4.56146e-05
0.000171088
0.000163883
3.04034e-05
9.6973e-06
3.51697e-06
2.7585e-06
3.11383e-06
4.02623e-06
3.33028e-06
2.99117e-06
3.19051e-06
2.92392e-06
2.22866e-06
2.23616e-06
2.6012e-06
3.13665e-06
3.49859e-06
3.10455e-06
2.15531e-06
1.897e-06
3.45132e-06
6.39839e-06
8.23967e-06
1.3376e-05
0.000123852
8.05614e-07
5.08062e-06
8.87892e-06
6.89515e-06
6.61397e-05
0.000132187
4.53463e-05
9.14294e-06
8.87279e-06
4.19095e-06
2.61411e-06
3.41285e-06
3.6245e-06
3.77492e-06
5.6449e-06
4.76427e-06
2.95004e-06
2.19405e-06
1.89138e-06
2.59031e-06
3.20872e-06
3.23265e-06
2.39813e-06
1.47095e-06
1.65429e-06
4.71533e-06
9.58104e-06
8.29288e-06
1.62529e-05
0.000124735
1.57776e-06
1.27402e-05
2.2167e-05
2.4608e-05
7.1859e-05
1.93273e-05
3.7054e-06
6.53942e-06
9.76369e-06
4.66973e-06
2.82553e-06
3.66174e-06
3.34779e-06
3.89422e-06
7.2714e-06
5.15674e-06
2.18756e-06
1.32783e-06
1.3121e-06
1.82469e-06
2.24017e-06
2.76794e-06
2.55965e-06
5.88349e-07
5.6428e-07
3.85048e-06
1.06311e-05
7.87258e-06
3.31154e-05
9.89292e-05
4.96381e-06
2.53462e-05
1.67225e-05
1.54912e-05
2.64551e-05
5.05145e-06
4.74539e-06
8.73454e-06
1.09513e-05
3.52815e-06
3.22884e-06
3.67049e-06
2.71411e-06
3.01092e-06
5.73813e-06
4.84315e-06
1.93695e-06
4.78545e-07
1.33245e-06
2.22094e-06
1.92733e-06
5.30286e-06
3.95451e-06
2.72153e-06
4.49867e-06
9.26357e-06
1.23641e-05
7.8091e-06
5.83639e-05
5.22889e-05
6.65603e-06
3.61175e-05
1.55212e-05
3.19333e-06
1.57368e-05
6.89173e-06
8.36977e-06
1.3523e-05
9.1986e-06
2.84541e-06
3.30302e-06
2.6929e-06
1.11594e-06
1.07937e-06
6.04912e-06
9.3715e-06
6.39938e-06
6.72282e-06
1.12834e-05
1.38647e-05
1.42608e-05
2.01079e-05
3.13689e-05
3.36919e-05
5.68686e-05
9.9163e-05
0.000127403
0.000135448
0.00031539
1.56118e-05
2.86051e-06
3.85429e-06
5.68401e-05
6.85187e-06
7.13939e-06
7.41881e-06
1.18321e-05
1.39522e-05
6.48115e-06
2.50841e-06
1.94837e-06
7.88066e-07
6.57912e-08
4.26772e-06
1.2693e-05
1.78206e-05
1.82593e-05
2.94476e-05
4.97367e-05
6.44694e-05
7.03331e-05
0.000108363
9.43846e-05
9.98125e-05
0.000141813
0.000328788
0.000649986
0.0009453
0.00101937
1.95423e-05
2.23761e-06
1.61393e-05
1.37934e-05
2.09171e-05
2.67269e-06
4.4285e-06
7.05638e-06
6.0062e-06
3.35536e-06
1.2475e-06
6.70675e-07
1.59586e-06
1.63921e-05
2.53341e-05
4.01704e-05
4.21213e-05
6.99872e-05
9.13956e-05
0.000135331
0.000132188
0.000176381
0.000171286
0.000129109
0.000103411
0.000122379
0.000168196
0.000265762
0.000387612
0.000540736
3.08612e-05
6.65601e-05
0.000185272
0.000313497
0.000662364
0.000234923
6.39978e-06
1.74329e-06
4.39294e-06
7.92248e-06
1.23151e-05
3.21092e-05
9.10485e-05
0.000147745
0.000267743
0.000269967
0.000347229
0.000344344
0.000336075
0.000223751
0.000215211
8.76916e-05
2.70771e-05
1.38056e-05
1.59049e-06
1.79872e-07
4.63539e-07
1.0119e-06
8.8505e-07
0.00013022
1.88463e-05
9.54903e-05
0.00142431
0.00188408
0.00200588
0.00223633
0.00112212
0.000483522
0.000376269
0.000526119
0.000470503
0.000620137
0.000705964
0.000870048
0.000935776
0.000897921
0.000851443
0.000677989
0.000431993
0.000337712
8.54119e-05
8.182e-07
3.14756e-07
2.63903e-06
2.31945e-06
1.64456e-06
1.52522e-06
1.96592e-06
2.61556e-06
6.7695e-05
5.23735e-05
0.00136654
0.00125475
0.000620959
0.000561188
0.00213283
0.00320482
0.00277618
0.00257272
0.00234466
0.00186018
0.00152484
0.0012686
0.000969071
0.000569453
0.000381519
0.000180633
5.88517e-05
2.09787e-05
9.12479e-05
9.57356e-05
8.74667e-06
1.54067e-06
4.02235e-06
3.27832e-06
1.99645e-06
1.97131e-06
2.05886e-06
2.38421e-06
4.2488e-05
0.000882517
0.00129886
1.65078e-06
1.7466e-06
1.26537e-06
4.93353e-05
0.000873171
0.00181568
0.0016752
0.00102659
0.000794254
0.000399114
0.00013207
9.38689e-06
9.72808e-08
2.56054e-07
7.29789e-07
8.5245e-07
4.79865e-07
2.35225e-05
9.15131e-05
3.15024e-05
3.66415e-06
4.87927e-06
4.29518e-06
2.12101e-06
1.93368e-06
2.27353e-06
2.59826e-06
2.54265e-05
0.00145587
3.05033e-06
2.24122e-06
2.28525e-06
1.67045e-06
1.24214e-06
5.84405e-07
2.51702e-05
2.40571e-05
7.69011e-06
3.42601e-06
3.0089e-06
1.41016e-06
1.21361e-06
9.83811e-07
7.12414e-07
7.41981e-07
9.03106e-07
4.52137e-07
6.80896e-06
6.17963e-05
4.86262e-05
9.16056e-06
5.76797e-06
4.8757e-06
2.41624e-06
1.90357e-06
2.1797e-06
2.61541e-06
1.45783e-05
0.00033046
2.49333e-06
1.53779e-06
2.39714e-06
3.14231e-06
2.58377e-06
1.66611e-06
1.09245e-06
2.68404e-06
3.17871e-06
3.4944e-06
3.26263e-06
1.74867e-06
1.42305e-06
1.10364e-06
6.52006e-07
6.3019e-07
9.61963e-07
6.18806e-07
3.7302e-06
3.22488e-05
3.75362e-05
1.25929e-05
6.49101e-06
5.05121e-06
3.14991e-06
2.15418e-06
1.9762e-06
2.19916e-06
7.95045e-06
0.000219836
2.26301e-07
8.69553e-07
1.62407e-06
2.71798e-06
1.92124e-06
3.91612e-06
1.05377e-06
2.71435e-06
2.66824e-06
4.07626e-06
3.7633e-06
1.803e-06
1.2593e-06
1.33252e-06
9.67515e-07
7.63283e-07
1.06036e-06
1.0741e-06
5.90851e-06
2.02777e-05
2.05177e-05
9.17651e-06
4.46574e-06
3.66835e-06
3.14606e-06
2.27986e-06
1.57998e-06
1.3528e-06
3.96601e-06
0.000225699
1.04164e-07
1.53247e-06
2.38127e-06
5.08916e-06
1.06992e-06
4.3961e-06
1.63999e-06
2.2345e-06
2.2592e-06
3.91774e-06
2.95512e-06
1.70105e-06
1.1291e-06
1.28348e-06
1.2993e-06
9.91199e-07
1.49437e-06
4.21732e-06
1.31251e-05
1.65582e-05
7.8588e-06
2.36033e-06
1.5948e-06
1.80935e-06
1.8996e-06
1.49378e-06
9.00955e-07
5.86076e-07
1.74611e-06
0.000163274
7.70571e-07
1.90119e-06
1.89079e-06
4.41836e-06
2.36994e-06
1.4365e-06
2.68385e-06
2.26077e-06
2.47799e-06
3.69361e-06
2.57891e-06
1.34563e-06
9.26071e-07
9.23737e-07
1.28947e-06
1.92608e-06
5.20732e-06
2.01426e-05
2.28713e-05
4.53741e-06
1.42878e-06
8.02251e-07
6.37226e-07
5.69904e-07
5.11108e-07
4.1164e-07
3.15115e-07
2.43933e-07
4.00213e-07
0.000110892
2.68635e-06
2.18972e-06
1.20111e-06
2.48034e-06
2.33086e-06
5.70762e-07
1.62325e-06
2.11342e-06
2.49053e-06
3.00303e-06
2.32433e-06
1.23541e-06
8.18573e-07
8.00004e-07
1.11486e-06
4.43515e-06
3.18651e-05
3.35321e-05
4.65804e-06
1.04661e-06
5.59739e-07
4.05725e-07
3.49881e-07
3.38163e-07
2.83465e-07
2.38927e-07
1.85059e-07
1.22849e-07
9.22491e-08
4.85448e-05
3.3785e-06
3.51076e-06
1.61737e-06
1.85981e-06
1.58802e-06
7.88922e-07
7.56535e-07
1.49919e-06
2.54422e-06
2.80776e-06
2.01073e-06
1.26721e-06
8.36578e-07
1.21216e-06
1.48343e-06
3.72989e-05
4.14125e-05
6.17883e-06
8.93459e-07
5.72687e-07
1.34561e-06
1.74021e-06
1.64509e-06
6.99854e-07
3.8909e-07
2.56469e-07
1.62919e-07
7.53528e-08
2.51714e-08
1.30694e-05
3.95479e-06
4.19484e-06
1.52853e-06
1.72055e-06
1.71473e-06
1.37583e-06
1.28956e-06
2.0424e-06
3.03736e-06
2.34058e-06
1.97084e-06
1.51643e-06
2.17513e-06
1.69413e-06
2.15657e-05
3.61187e-05
9.37404e-06
1.17294e-06
1.33484e-06
2.09366e-06
4.66647e-06
5.99134e-06
4.7678e-06
2.83158e-06
9.08367e-07
3.1313e-07
1.38155e-07
4.91423e-08
2.33148e-08
3.8602e-06
3.74566e-06
4.00189e-06
1.19353e-06
1.47574e-06
2.07073e-06
1.91401e-06
2.34048e-06
2.18746e-06
2.87311e-06
3.17461e-06
3.46574e-06
3.64006e-06
3.60151e-06
4.26928e-06
2.45707e-05
1.18983e-05
1.77979e-06
1.14677e-06
1.96184e-06
5.6279e-06
6.06646e-06
6.99216e-06
5.95857e-06
4.14699e-06
2.24378e-06
5.80251e-07
9.20378e-08
3.36434e-08
2.96151e-08
4.08465e-06
4.1142e-06
4.60917e-06
2.18919e-06
3.08902e-06
2.27468e-06
2.07877e-06
2.00804e-06
2.99835e-06
4.09326e-06
2.9991e-06
2.34228e-06
2.27633e-06
2.29751e-06
8.67715e-06
6.35128e-06
3.70021e-06
7.62917e-07
1.07124e-06
4.06516e-06
5.94442e-06
1.00194e-05
1.08836e-05
8.11584e-06
4.993e-06
3.1681e-06
1.35547e-06
2.72784e-07
2.09837e-08
7.80396e-09
7.30386e-06
6.64923e-06
5.97018e-06
4.81949e-06
5.19979e-06
3.63733e-06
4.33884e-06
4.4149e-06
6.03619e-06
5.78887e-06
4.11261e-06
1.75842e-06
1.32494e-06
1.36805e-06
1.5256e-06
2.05125e-06
1.13519e-06
9.98329e-07
1.89487e-06
5.6072e-06
1.56923e-05
1.69933e-05
9.41007e-06
6.55652e-06
4.44061e-06
3.32012e-06
2.26266e-06
1.27521e-06
6.09166e-07
3.06453e-07
1.01873e-05
1.36287e-05
5.95154e-06
4.08738e-06
5.88017e-06
7.5316e-06
6.61416e-06
7.98373e-06
7.22265e-06
8.69973e-06
2.68131e-06
2.08233e-06
3.6361e-06
1.88339e-06
6.59396e-07
1.80697e-06
5.05239e-07
7.72947e-07
5.42712e-06
1.76008e-05
2.05138e-05
1.04927e-05
4.51649e-06
2.37468e-06
1.87873e-06
2.32188e-06
2.12699e-06
1.63792e-06
1.3532e-06
1.09098e-06
9.72423e-06
1.1538e-05
1.37436e-06
4.47562e-06
9.15451e-06
1.0281e-05
6.81548e-06
4.99676e-06
5.54323e-06
4.14225e-06
3.29467e-06
4.46536e-06
4.85669e-06
1.71938e-06
2.17742e-06
4.83155e-07
3.07982e-07
1.74012e-06
1.32823e-05
2.35158e-05
1.13646e-05
3.62369e-06
2.66779e-06
3.44482e-06
4.59781e-06
6.33692e-06
7.08823e-06
5.09256e-06
3.94064e-06
3.34903e-06
7.26112e-06
5.2569e-06
5.55813e-07
7.16421e-06
1.55818e-05
1.22968e-05
7.12897e-06
4.74834e-06
5.38282e-06
7.69154e-06
7.1986e-06
6.26388e-06
5.37669e-06
3.96819e-06
5.47679e-06
6.46783e-08
2.09608e-07
4.21341e-06
1.42401e-05
1.23879e-05
3.95496e-06
3.60773e-06
3.21613e-06
3.81044e-06
6.40251e-06
1.05285e-05
1.27678e-05
1.02626e-05
6.31394e-06
5.38891e-06
1.02488e-05
4.23958e-06
9.982e-07
9.12225e-06
1.95103e-05
1.45069e-05
9.49115e-06
7.29247e-06
8.47632e-06
1.11797e-05
9.96096e-06
5.8457e-06
7.1302e-06
2.92399e-05
3.3567e-06
1.17448e-08
4.57759e-07
3.63229e-06
7.19632e-06
3.43864e-06
3.45464e-06
2.19341e-06
2.07494e-06
2.2153e-06
3.23503e-06
1.67155e-05
2.61346e-05
6.94979e-06
4.76226e-06
6.49404e-06
2.08155e-05
1.87394e-06
1.77047e-06
1.15898e-05
2.01999e-05
1.66702e-05
1.30623e-05
1.05372e-05
7.96666e-06
6.91849e-06
5.3151e-06
3.42512e-06
2.70883e-05
3.02101e-05
1.70874e-06
3.0083e-09
4.63414e-07
2.42306e-06
2.27379e-06
2.09811e-06
1.34754e-06
8.43364e-07
5.50345e-07
8.40082e-07
9.01575e-06
4.72299e-05
8.27881e-05
3.20306e-05
2.68557e-06
1.83605e-06
1.31187e-05
2.24431e-06
4.57751e-06
1.22521e-05
1.69871e-05
1.63036e-05
1.17908e-05
7.03858e-06
4.02397e-06
8.31584e-06
7.29596e-06
1.22567e-05
3.28588e-05
1.39795e-05
1.49137e-06
2.19288e-07
7.08022e-07
1.44809e-06
1.31489e-06
1.11867e-06
6.59686e-07
3.66568e-07
3.80084e-07
2.97591e-06
8.72191e-06
1.59612e-05
0.000111906
0.000321557
2.68227e-05
2.32645e-05
6.32755e-06
3.77461e-06
6.34462e-06
9.20083e-06
1.02442e-05
9.83019e-06
5.78582e-06
1.20905e-06
5.67715e-06
6.38608e-06
5.76668e-06
1.63154e-05
2.16847e-05
8.21388e-06
1.20219e-06
4.97731e-07
9.4734e-07
1.15131e-06
1.12748e-06
7.78048e-07
4.12173e-07
3.77637e-07
1.69554e-06
4.6136e-06
5.38374e-06
7.92147e-06
9.25889e-06
0.000334982
0.000932436
0.00137619
1.60389e-06
5.15069e-06
4.85745e-06
3.91376e-06
2.61797e-06
2.11658e-06
8.83355e-07
2.95081e-07
4.05633e-06
6.81809e-06
1.34445e-05
1.99159e-05
2.1741e-05
7.35287e-06
6.75793e-07
4.06076e-07
8.68273e-07
1.08541e-06
1.04146e-06
6.44135e-07
4.50982e-07
1.04957e-06
3.38284e-06
3.78163e-06
3.46429e-06
7.14113e-06
0.000123507
0.000603946
0.00139436
0.00457466
5.55056e-07
2.31468e-06
1.84582e-06
1.49868e-06
1.34165e-06
4.74613e-07
4.90878e-07
4.29718e-06
1.04138e-05
1.70281e-05
3.05589e-05
3.54159e-05
1.93751e-05
8.869e-06
8.40187e-07
3.50642e-07
7.71759e-07
1.21939e-06
9.5391e-07
7.68541e-07
9.36233e-07
2.59452e-06
3.7473e-06
3.00379e-06
0.000107133
0.000731387
0.00154914
0.00267081
0.00412769
0.0117355
3.41727e-07
5.83558e-07
7.43236e-06
3.03178e-05
2.22991e-06
2.31363e-07
4.70254e-06
1.33784e-05
2.04912e-05
2.60776e-05
4.7984e-05
6.06392e-05
3.37647e-05
3.72037e-05
6.48562e-06
1.02587e-06
1.41849e-06
1.21726e-06
9.01882e-07
1.10062e-06
1.90887e-06
3.48294e-06
2.45569e-05
0.00103406
0.00335318
0.0046466
0.00585499
0.00777479
0.00418053
0.0037702
2.24054e-06
1.25466e-05
6.58807e-05
0.000497491
0.00138299
0.000512043
0.000169521
0.0001363
0.000178543
9.91898e-05
0.000209695
0.000375066
0.000547537
5.35954e-05
1.40219e-05
2.6078e-06
2.31708e-06
9.95384e-07
9.15655e-07
1.52237e-06
3.28333e-06
0.00058721
0.00399369
0.008235
0.0102703
0.00694009
0.000346883
7.4155e-07
1.63971e-06
0.000162429
1.61267e-05
7.5874e-05
0.00101552
0.00237232
0.00314881
0.00352738
0.00300025
0.00271567
0.00274213
0.00256995
0.00248703
0.00198901
0.000273962
2.06765e-05
4.78661e-06
3.34206e-06
2.51411e-06
6.39393e-07
1.53389e-06
1.34179e-05
0.00249547
0.00758521
0.0102755
0.0030812
3.70814e-06
3.5102e-06
3.15105e-06
2.27743e-06
1.74566e-06
8.32275e-05
0.000185644
0.000996689
0.00176398
0.000867144
0.000369279
0.00126419
0.00261366
0.00287613
0.00250341
0.00259729
0.00243526
0.000714191
3.11597e-05
1.11515e-05
1.23105e-06
3.48431e-06
3.10579e-06
5.7318e-07
1.84587e-05
0.00372344
0.00846373
0.00311653
4.11715e-06
9.05134e-07
2.77838e-06
4.83393e-06
5.45739e-06
2.62253e-06
1.0274e-06
2.86708e-05
0.000852545
0.00150023
8.17351e-05
1.90494e-07
2.29759e-07
2.79665e-07
1.31565e-06
7.22234e-06
2.15354e-06
5.16714e-06
1.37256e-05
4.23096e-05
3.21097e-05
4.68334e-06
9.79873e-07
4.61688e-06
2.14245e-06
5.32243e-06
0.00250242
0.00658434
0.000441317
1.71685e-07
5.45457e-07
1.83844e-06
3.50032e-06
4.07675e-06
4.49052e-06
2.78755e-06
9.40951e-07
8.42923e-06
0.000786167
9.89191e-05
6.27097e-07
3.78655e-07
2.59253e-07
3.50602e-07
3.00892e-07
2.68017e-07
3.5386e-07
1.06001e-06
9.18455e-06
4.18283e-05
2.69936e-05
1.75394e-06
1.54362e-06
4.63206e-06
2.47088e-06
0.000361372
0.00340992
0.000514395
5.83894e-07
3.81031e-07
6.2087e-07
1.47794e-06
3.35229e-06
5.50469e-06
5.4508e-06
3.23552e-06
9.80549e-07
2.13836e-06
0.000530041
6.30493e-05
3.9176e-07
4.76224e-07
2.99397e-07
3.93545e-07
2.60823e-07
3.21103e-07
5.77448e-07
9.26751e-07
1.4982e-05
4.0983e-05
1.7794e-05
9.31388e-07
2.15867e-06
3.21095e-06
6.81251e-06
0.000750399
0.00130699
4.23148e-05
3.99216e-07
4.03634e-07
6.93502e-07
1.4609e-06
2.6852e-06
4.88842e-06
6.06961e-06
4.24559e-06
1.14579e-06
3.87051e-07
0.000771884
2.08995e-05
1.01086e-06
6.08754e-07
3.56211e-07
3.48116e-07
2.78821e-07
3.0835e-07
5.70527e-07
7.3393e-07
2.11266e-05
4.29697e-05
7.88962e-06
9.63055e-07
2.01833e-06
1.48646e-06
1.86468e-05
0.00110766
0.000987805
4.28148e-06
3.70581e-07
3.67017e-07
6.21286e-07
1.2921e-06
2.83932e-06
5.70308e-06
7.02878e-06
5.14086e-06
1.51782e-06
6.92667e-08
0.00089201
2.86949e-06
1.93232e-06
5.48666e-07
3.97274e-07
3.01152e-07
3.58859e-07
4.21865e-07
6.40047e-07
5.11867e-07
2.71276e-05
5.73305e-05
4.6128e-06
1.32568e-06
1.77855e-06
4.23604e-06
4.26395e-05
0.00153763
0.000555833
6.62587e-07
3.85438e-07
4.14263e-07
6.67104e-07
1.1947e-06
2.28574e-06
4.96863e-06
8.08644e-06
6.73915e-06
2.50177e-06
8.03572e-08
0.000703457
2.10864e-06
1.07384e-06
4.30633e-07
4.15321e-07
4.05049e-07
4.01201e-07
4.82922e-07
6.04538e-07
4.97617e-07
2.93593e-05
7.90093e-05
4.55597e-06
1.82954e-06
2.87215e-06
7.84336e-06
0.000204871
0.00152783
0.000128194
5.25128e-07
3.77455e-07
4.06049e-07
5.70775e-07
9.80154e-07
2.15456e-06
4.66702e-06
7.67671e-06
8.06704e-06
4.09536e-06
2.29989e-07
0.000427811
7.16107e-07
4.35381e-07
5.71066e-07
4.67728e-07
4.66843e-07
4.77582e-07
5.37166e-07
6.05714e-07
6.05078e-07
3.22353e-05
9.98197e-05
6.00176e-06
2.62551e-06
4.08896e-06
1.01572e-05
0.000534097
0.000935942
1.30981e-05
4.92101e-07
3.35959e-07
3.98857e-07
5.55177e-07
8.99052e-07
1.89287e-06
4.53092e-06
7.49794e-06
7.89238e-06
5.52081e-06
6.75467e-07
0.000355869
1.2268e-06
8.07604e-07
4.60766e-07
5.08232e-07
5.14275e-07
5.80298e-07
6.06817e-07
7.03813e-07
7.87454e-07
3.19451e-05
0.000111948
6.35182e-06
3.62608e-06
5.33185e-06
1.19473e-05
0.000695894
0.000634017
2.53094e-06
5.67231e-07
3.72892e-07
4.00267e-07
5.04927e-07
7.81419e-07
1.61775e-06
4.01243e-06
7.96688e-06
7.82556e-06
5.72502e-06
1.62443e-06
0.000273509
1.234e-06
4.18137e-07
4.06349e-07
5.53591e-07
6.3461e-07
6.73549e-07
7.37506e-07
8.82153e-07
1.12249e-06
1.85531e-05
0.000131106
7.52911e-06
4.38334e-06
7.14443e-06
1.8641e-05
0.000936477
0.000421494
1.29675e-06
5.77916e-07
3.74568e-07
3.85296e-07
4.57553e-07
7.18523e-07
1.46423e-06
3.39431e-06
7.42276e-06
8.71643e-06
6.11638e-06
3.07623e-06
0.000182477
4.6423e-07
2.68493e-07
5.29068e-07
5.69059e-07
7.56246e-07
8.37299e-07
9.25626e-07
1.15694e-06
1.47062e-06
3.19956e-06
6.91082e-05
4.51533e-05
4.57817e-06
7.77007e-06
0.000151379
0.000894507
8.11197e-05
1.33279e-06
6.05026e-07
4.00439e-07
3.96943e-07
4.34587e-07
6.46017e-07
1.25444e-06
2.95764e-06
6.82574e-06
8.70316e-06
6.65576e-06
4.63071e-06
0.000141325
4.13867e-07
5.10143e-07
4.90762e-07
7.43789e-07
9.02772e-07
1.02338e-06
1.2097e-06
1.52084e-06
1.93191e-06
3.04804e-06
1.85297e-05
3.90276e-05
7.83957e-06
4.3083e-06
0.000462437
0.000383976
7.75081e-06
1.49965e-06
6.39738e-07
4.54276e-07
4.23161e-07
4.26591e-07
6.24098e-07
1.10079e-06
2.32559e-06
5.99227e-06
8.60704e-06
6.47387e-06
5.84821e-06
9.69105e-05
5.71421e-07
6.71899e-07
6.98364e-07
8.38623e-07
1.10691e-06
1.33166e-06
1.61749e-06
1.9739e-06
2.56501e-06
4.65045e-06
1.37868e-05
2.42761e-05
1.42143e-05
6.96461e-05
0.000267643
6.69496e-05
8.24467e-06
1.80812e-06
7.24562e-07
5.36612e-07
4.64448e-07
4.46099e-07
6.05063e-07
1.00267e-06
1.9868e-06
4.95858e-06
8.10206e-06
6.04738e-06
5.99432e-06
5.67319e-05
5.94802e-07
7.868e-07
9.07601e-07
1.05448e-06
1.42862e-06
1.82933e-06
2.20178e-06
2.54118e-06
3.34441e-06
6.45861e-06
1.53886e-05
2.68999e-05
3.31507e-05
6.79692e-05
7.59469e-05
3.64887e-05
9.87934e-06
2.30311e-06
8.96087e-07
6.25338e-07
5.36272e-07
4.94264e-07
5.86932e-07
8.99402e-07
1.70817e-06
3.79431e-06
6.87211e-06
5.51082e-06
5.55546e-06
3.33672e-05
7.77554e-07
1.19682e-06
1.18915e-06
1.35598e-06
2.00703e-06
2.59569e-06
2.91189e-06
3.16288e-06
4.02474e-06
7.90391e-06
1.70812e-05
2.90508e-05
4.00306e-05
4.46937e-05
4.72544e-05
3.2333e-05
1.18365e-05
3.27747e-06
1.17754e-06
7.47589e-07
6.13068e-07
5.5089e-07
5.91173e-07
8.66064e-07
1.64355e-06
3.371e-06
5.22582e-06
4.797e-06
5.71028e-06
1.35111e-05
9.60758e-07
1.42465e-06
1.41421e-06
1.87288e-06
2.90124e-06
3.45053e-06
3.50377e-06
3.47908e-06
4.21271e-06
8.03954e-06
1.57376e-05
2.40512e-05
3.18138e-05
3.82006e-05
3.95087e-05
2.97669e-05
1.46328e-05
5.07588e-06
1.70152e-06
9.5393e-07
6.94065e-07
6.21376e-07
6.36442e-07
8.00845e-07
1.40248e-06
3.45498e-06
4.24678e-06
4.15829e-06
5.93785e-06
4.49046e-06
9.47854e-07
1.68103e-06
1.85991e-06
3.04094e-06
4.16113e-06
4.11596e-06
3.65659e-06
3.36445e-06
4.05587e-06
6.90796e-06
1.08065e-05
1.47954e-05
2.04265e-05
2.72695e-05
3.26573e-05
3.00465e-05
2.00829e-05
8.9838e-06
2.83916e-06
1.38568e-06
8.50583e-07
6.80938e-07
6.86266e-07
8.06773e-07
1.09231e-06
2.7477e-06
3.51797e-06
2.6466e-06
5.41017e-06
5.02027e-06
8.72369e-07
1.91093e-06
2.9769e-06
4.57879e-06
4.7695e-06
3.99756e-06
3.3112e-06
3.19737e-06
4.10265e-06
5.86038e-06
7.33702e-06
8.83013e-06
1.1202e-05
1.45411e-05
1.99427e-05
2.55702e-05
2.8202e-05
2.04864e-05
6.58462e-06
2.10412e-06
1.27891e-06
7.82818e-07
7.23417e-07
8.75113e-07
1.06313e-06
1.61803e-06
3.14569e-06
1.34599e-06
4.46968e-06
5.08058e-06
1.76191e-06
2.97579e-06
4.12872e-06
4.70569e-06
3.85814e-06
3.0911e-06
2.75301e-06
3.03989e-06
3.96767e-06
5.06414e-06
5.87116e-06
6.3864e-06
6.62791e-06
6.72226e-06
7.30994e-06
1.01024e-05
1.79606e-05
3.54645e-05
2.4886e-05
4.4395e-06
1.94363e-06
1.10982e-06
7.82424e-07
9.14576e-07
1.26758e-06
1.19019e-06
1.88397e-06
5.89344e-07
4.07706e-06
5.92326e-06
2.97276e-06
3.92616e-06
4.04146e-06
3.09887e-06
2.41607e-06
2.25051e-06
2.34153e-06
2.56434e-06
2.9056e-06
3.1904e-06
3.20175e-06
2.97251e-06
2.747e-06
2.62378e-06
2.6657e-06
3.26222e-06
5.32049e-06
1.45383e-05
4.92787e-05
2.77105e-05
2.99232e-06
1.74564e-06
1.02171e-06
9.33347e-07
1.52741e-06
1.62986e-06
1.60746e-06
3.28503e-07
2.92006e-06
8.99131e-06
3.87557e-06
3.12808e-06
2.11389e-06
1.52083e-06
1.46838e-06
1.39036e-06
1.37614e-06
1.4673e-06
1.5683e-06
1.60478e-06
1.59709e-06
1.59376e-06
1.71065e-06
2.19684e-06
2.40065e-06
2.28419e-06
3.09222e-06
5.6144e-06
2.53073e-05
6.5643e-05
1.66587e-05
2.64745e-06
1.67936e-06
1.12317e-06
1.26769e-06
1.9687e-06
1.71421e-06
4.03063e-07
5.68752e-06
1.30082e-05
2.58297e-06
1.48947e-06
8.94642e-07
7.41647e-07
6.67993e-07
6.43006e-07
6.93185e-07
8.01629e-07
9.32824e-07
1.06626e-06
1.25592e-06
1.52326e-06
1.91768e-06
2.3146e-06
2.58568e-06
3.4547e-06
4.84668e-06
6.56582e-06
1.47909e-05
7.80368e-05
3.39497e-05
3.38903e-06
2.36993e-06
1.6219e-06
1.47748e-06
1.84275e-06
1.27152e-06
3.04256e-07
1.15833e-05
1.69563e-05
2.8284e-06
1.32526e-06
4.28311e-07
2.89085e-07
2.54644e-07
2.68208e-07
3.22684e-07
4.16892e-07
5.49153e-07
7.40863e-07
9.7649e-07
1.32125e-06
1.72036e-06
2.11074e-06
3.4618e-06
5.91745e-06
8.58173e-06
1.07335e-05
1.75314e-05
4.52497e-05
2.45719e-05
5.42379e-06
2.96679e-06
1.99717e-06
1.78668e-06
2.36213e-06
1.28203e-06
3.8428e-07
1.36809e-05
2.5661e-05
5.99346e-06
6.88959e-07
2.25038e-07
1.11716e-07
8.67662e-08
9.74239e-08
1.34615e-07
1.96628e-07
2.87937e-07
4.12743e-07
6.29437e-07
9.97856e-07
1.63189e-06
2.76587e-06
4.81144e-06
7.74398e-06
1.12525e-05
1.38009e-05
1.58672e-05
1.62862e-05
1.38744e-05
9.14293e-06
5.43203e-06
2.67508e-06
1.84502e-06
3.08452e-06
1.99316e-06
8.05214e-07
2.52733e-05
2.63276e-05
1.55692e-06
3.84523e-07
1.35923e-07
4.72555e-08
2.74493e-08
3.45763e-08
5.82772e-08
9.84276e-08
1.5963e-07
2.6076e-07
4.26187e-07
7.19398e-07
1.25022e-06
2.1657e-06
3.57878e-06
5.53108e-06
7.8919e-06
1.04299e-05
1.22943e-05
1.32764e-05
1.31522e-05
1.10347e-05
9.63174e-06
5.73931e-06
2.69145e-06
2.68911e-06
3.87284e-06
1.52981e-06
6.20438e-05
1.40883e-05
8.32356e-07
2.47508e-07
8.50735e-08
2.3629e-08
1.04137e-08
1.52438e-08
3.2036e-08
6.23813e-08
1.11671e-07
1.94697e-07
3.34215e-07
5.60177e-07
9.08684e-07
1.40647e-06
2.05454e-06
2.91405e-06
4.05634e-06
5.57727e-06
7.2967e-06
8.53853e-06
1.07885e-05
1.31637e-05
1.1507e-05
1.07041e-05
6.06321e-06
3.38103e-06
4.42656e-06
2.87759e-06
0.000120107
9.20798e-06
6.44349e-07
1.72711e-07
6.07442e-08
1.693e-08
6.85021e-09
1.06234e-08
2.51211e-08
5.34112e-08
1.00568e-07
1.7537e-07
2.87125e-07
4.39354e-07
6.26304e-07
8.34808e-07
1.05877e-06
1.3224e-06
1.67242e-06
2.18975e-06
2.98883e-06
3.98876e-06
5.38157e-06
8.53182e-06
1.11697e-05
1.19663e-05
1.13941e-05
6.0032e-06
5.4104e-06
3.17555e-06
0.000171687
6.69962e-06
5.43092e-07
1.42233e-07
5.69356e-08
1.98847e-08
1.00298e-08
1.39662e-08
2.94596e-08
5.97469e-08
1.0884e-07
1.79716e-07
2.71625e-07
3.77428e-07
4.84975e-07
5.83524e-07
6.71233e-07
7.5835e-07
8.68015e-07
1.03708e-06
1.32623e-06
1.79793e-06
2.36475e-06
3.18201e-06
5.14401e-06
8.70629e-06
1.41029e-05
1.10383e-05
5.19904e-06
1.87326e-06
0.000231213
4.28921e-06
5.19046e-07
1.50614e-07
7.02172e-08
3.32978e-08
2.24668e-08
2.75682e-08
4.61298e-08
8.00036e-08
1.30726e-07
1.97088e-07
2.74162e-07
3.54228e-07
4.29379e-07
4.94713e-07
5.49531e-07
5.99031e-07
6.52448e-07
7.21441e-07
8.20862e-07
9.64627e-07
1.13427e-06
1.28954e-06
1.6136e-06
2.74546e-06
9.19065e-06
2.44461e-05
1.06097e-05
1.13058e-06
0.000263837
2.7948e-06
5.39385e-07
1.84304e-07
9.87992e-08
6.0248e-08
4.89845e-08
5.58191e-08
7.76085e-08
1.1398e-07
1.63525e-07
2.22678e-07
2.86331e-07
3.4967e-07
4.09864e-07
4.65253e-07
5.16504e-07
5.64991e-07
6.10467e-07
6.50272e-07
6.78932e-07
6.92654e-07
6.96099e-07
7.04422e-07
7.47133e-07
9.11017e-07
1.78869e-06
1.9587e-05
3.95714e-05
3.72012e-06
0.000213997
1.99238e-06
5.72406e-07
2.33268e-07
1.41544e-07
1.02314e-07
9.16866e-08
1.00195e-07
1.23806e-07
1.59931e-07
2.04905e-07
2.5447e-07
3.05421e-07
3.56443e-07
4.08293e-07
4.62292e-07
5.18912e-07
5.75016e-07
6.23033e-07
6.51753e-07
6.50661e-07
6.18405e-07
5.72132e-07
5.4787e-07
5.85181e-07
7.324e-07
1.56474e-06
1.86575e-05
4.6944e-05
6.03875e-06
0.000148633
1.55957e-06
6.02358e-07
2.88891e-07
1.95357e-07
1.57697e-07
1.48895e-07
1.59002e-07
1.83113e-07
2.16979e-07
2.55789e-07
2.96207e-07
3.37226e-07
3.79143e-07
4.25793e-07
4.79749e-07
5.39687e-07
5.97712e-07
6.39976e-07
6.50038e-07
6.18102e-07
5.51923e-07
4.86407e-07
4.82172e-07
6.5694e-07
1.36602e-06
6.18246e-06
5.24752e-05
1.42311e-05
1.26615e-05
0.000135688
1.3096e-06
6.22498e-07
3.42962e-07
2.54645e-07
2.22229e-07
2.17731e-07
2.31158e-07
2.56811e-07
2.9006e-07
3.23653e-07
3.59579e-07
3.94478e-07
4.37758e-07
4.86448e-07
5.40214e-07
5.95586e-07
6.43196e-07
6.64601e-07
6.36361e-07
5.46739e-07
4.17405e-07
3.01075e-07
3.08994e-07
6.36394e-07
2.4916e-06
3.18503e-05
2.99055e-05
3.50946e-07
1.45173e-05
0.000123453
1.14295e-06
6.30312e-07
3.89622e-07
3.14608e-07
2.93093e-07
2.97701e-07
3.19627e-07
3.50493e-07
3.90724e-07
4.27126e-07
4.6532e-07
5.35348e-07
5.83301e-07
6.64922e-07
7.40087e-07
7.89885e-07
8.02945e-07
7.67288e-07
6.66634e-07
4.99387e-07
3.01946e-07
1.17436e-07
4.87734e-08
3.59942e-07
3.4735e-06
3.36722e-05
8.53707e-06
1.47519e-06
8.09676e-06
0.000161311
1.0083e-06
6.27132e-07
4.28861e-07
3.75077e-07
3.70834e-07
3.91029e-07
4.28213e-07
4.72599e-07
5.30168e-07
6.52695e-07
6.99404e-07
7.59874e-07
8.75543e-07
9.62912e-07
1.03337e-06
1.05738e-06
1.00526e-06
8.99792e-07
7.47092e-07
5.49118e-07
3.04001e-07
1.13813e-07
2.40826e-08
1.90873e-07
2.62985e-06
2.76408e-05
8.94415e-06
3.29391e-06
7.60732e-06
0.000219876
8.848e-07
6.18377e-07
4.66146e-07
4.38393e-07
4.55511e-07
4.9515e-07
5.50356e-07
6.84647e-07
7.51107e-07
8.08889e-07
9.79682e-07
1.22874e-06
1.59349e-06
1.89185e-06
2.00248e-06
1.96502e-06
1.57671e-06
1.11825e-06
7.73672e-07
5.52947e-07
3.85537e-07
2.32683e-07
1.61981e-07
3.06728e-07
2.89224e-06
2.01778e-05
2.32093e-05
1.12766e-05
1.29375e-05
0.000274915
7.68042e-07
6.089e-07
5.03116e-07
4.98765e-07
5.34297e-07
5.91089e-07
6.89372e-07
7.67991e-07
9.46701e-07
1.13627e-06
1.48798e-06
2.13158e-06
3.12281e-06
4.01729e-06
4.13282e-06
3.56778e-06
2.71665e-06
1.47119e-06
7.41822e-07
4.9416e-07
3.87575e-07
3.42955e-07
3.02317e-07
4.33618e-07
3.63291e-06
1.67882e-05
3.73012e-05
3.32195e-05
2.38638e-05
0.000349607
6.61139e-07
5.94181e-07
5.25395e-07
5.25906e-07
5.5384e-07
5.97771e-07
6.5919e-07
7.56313e-07
9.12921e-07
1.16283e-06
1.59975e-06
2.28351e-06
3.08529e-06
3.96937e-06
4.70753e-06
4.76568e-06
4.08397e-06
2.60995e-06
1.04946e-06
4.51952e-07
3.63132e-07
3.50463e-07
5.41907e-07
5.68484e-07
3.69713e-06
1.58788e-05
4.81498e-05
8.06408e-05
0.00010243
0.000479049
5.70936e-07
5.64908e-07
5.11606e-07
4.86673e-07
4.69134e-07
4.58562e-07
4.5619e-07
4.94892e-07
6.22224e-07
9.23265e-07
1.42225e-06
2.02398e-06
2.56427e-06
3.03925e-06
3.58025e-06
4.42498e-06
5.31461e-06
4.69703e-06
2.2956e-06
6.88582e-07
3.67567e-07
3.54107e-07
6.46467e-07
1.19539e-06
2.66286e-06
1.24449e-05
4.00973e-05
0.000104536
0.000157164
0.000308192
5.11328e-07
5.33343e-07
4.80306e-07
4.25587e-07
3.68e-07
3.14811e-07
2.92562e-07
3.37111e-07
5.72497e-07
1.0753e-06
1.52269e-06
1.60877e-06
1.47079e-06
1.3348e-06
1.44151e-06
1.89532e-06
3.06666e-06
4.80765e-06
4.2653e-06
1.44975e-06
4.7166e-07
3.69667e-07
5.73308e-07
1.67648e-06
1.58999e-06
8.72801e-06
2.04613e-05
3.92139e-05
2.43254e-05
0.000118282
5.14926e-07
5.56227e-07
5.09414e-07
4.51563e-07
4.02953e-07
3.50352e-07
3.28252e-07
3.4919e-07
5.44879e-07
1.25726e-06
2.26914e-06
2.42957e-06
1.96451e-06
1.51825e-06
1.05655e-06
8.95238e-07
1.37232e-06
3.22418e-06
4.52101e-06
2.32526e-06
6.94347e-07
4.03488e-07
4.61753e-07
1.44194e-06
1.28695e-06
3.77622e-06
1.23709e-05
5.11238e-06
7.52492e-07
6.99875e-05
6.02196e-07
6.57446e-07
6.37938e-07
5.98918e-07
6.29095e-07
8.09311e-07
1.49643e-06
1.26495e-06
8.65438e-07
1.15578e-06
2.37439e-06
3.34191e-06
2.90125e-06
2.06908e-06
1.04835e-06
8.23171e-07
8.25554e-07
1.9334e-06
3.60853e-06
3.04591e-06
9.66033e-07
4.85646e-07
4.13889e-07
1.1431e-06
1.7331e-06