/*--------------------------------*- C++ -*----------------------------------*\
| =========                 |                                                 |
| \\      /  F ield         | OpenFOAM: The Open Source CFD Toolbox           |
|  \\    /   O peration     | Version:  2.3.0                                 |
|   \\  /    A nd           | Web:      www.OpenFOAM.org                      |
|    \\/     M anipulation  |                                                 |
\*---------------------------------------------------------------------------*/
FoamFile
{
    version     2.0;
    format      ascii;
    class       volScalarField;
    location    "4.39933";
    object      alpha.water;
}
// * * * * * * * * * * * * * * * * * * * * * * * * * * * * * * * * * * * * * //

dimensions      [0 0 0 0 0 0 0];

internalField   nonuniform List<scalar> 
18816
(
0.544331
0.514382
0.524247
0.524512
0.52917
0.530103
0.53206
0.532457
0.53222
0.534395
0.537948
0.541552
0.545817
0.554228
0.564151
0.576498
0.590206
0.60539
0.621094
0.636062
0.64775
0.654196
0.644632
0.644929
0.631995
0.600974
0.559885
0.543473
0.555994
0.541325
0.550898
0.550903
0.554986
0.555324
0.554973
0.554704
0.558743
0.563765
0.5675
0.571975
0.59346
0.611934
0.63327
0.656095
0.679569
0.701617
0.719091
0.730153
0.734391
0.734201
0.71657
0.71259
0.69438
0.655678
0.595405
0.561835
0.557163
0.578388
0.578826
0.580966
0.584361
0.5848
0.583665
0.584703
0.592615
0.5988
0.608011
0.610876
0.627394
0.653828
0.677333
0.698791
0.716
0.728488
0.736673
0.741888
0.745382
0.747602
0.740777
0.748547
0.73395
0.694971
0.623264
0.572857
0.558618
0.567112
0.585003
0.584567
0.58679
0.586632
0.586151
0.591896
0.599566
0.608981
0.626959
0.648781
0.661382
0.684095
0.705531
0.72302
0.736103
0.745334
0.751351
0.755429
0.757756
0.754222
0.748322
0.756008
0.74735
0.718573
0.642924
0.578125
0.561156
0.53284
0.573199
0.586865
0.589093
0.589029
0.589567
0.593593
0.60236
0.614941
0.64259
0.675217
0.69374
0.721419
0.759
0.804382
0.856539
0.907463
0.938638
0.949167
0.931296
0.895935
0.836061
0.779251
0.758579
0.733412
0.658544
0.58196
0.564006
0.514824
0.546801
0.573986
0.579671
0.58152
0.584858
0.596523
0.607071
0.62359
0.655268
0.69768
0.730359
0.782323
0.860453
0.934777
0.973075
0.9862
0.992584
0.995324
0.995887
0.980468
0.935194
0.839971
0.758254
0.737864
0.667297
0.58393
0.565596
0.514841
0.531849
0.550154
0.5612
0.566278
0.572635
0.592295
0.603357
0.622587
0.66547
0.716582
0.765778
0.835804
0.905005
0.930746
0.939847
0.93669
0.971967
0.994701
0.999561
0.997785
0.97944
0.902357
0.778395
0.74274
0.673499
0.585471
0.566505
0.514847
0.526425
0.53652
0.549688
0.556686
0.56541
0.582489
0.594989
0.619001
0.674746
0.731858
0.792542
0.856261
0.894632
0.905663
0.905017
0.879646
0.921338
0.977247
0.999658
0.999882
0.995653
0.955223
0.83358
0.746872
0.677949
0.586963
0.566957
0.514847
0.523878
0.534192
0.547094
0.555233
0.564698
0.576436
0.590412
0.61997
0.679525
0.73895
0.798451
0.852174
0.864851
0.882004
0.868971
0.869261
0.884808
0.952439
0.999254
0.999993
0.999246
0.981509
0.876045
0.736288
0.678525
0.586962
0.567305
0.515155
0.523486
0.532884
0.54712
0.555406
0.565177
0.576814
0.590797
0.625471
0.687976
0.745029
0.794402
0.841709
0.844945
0.863031
0.873555
0.8668
0.874091
0.928816
0.998794
1
0.999907
0.994209
0.921101
0.725014
0.677666
0.586998
0.567347
0.515214
0.523889
0.532424
0.547064
0.555663
0.564872
0.577771
0.592525
0.644941
0.687729
0.743388
0.782795
0.825875
0.829758
0.84596
0.871712
0.861456
0.861098
0.91259
0.998386
1
0.99999
0.99852
0.963715
0.804674
0.677918
0.587451
0.567351
0.514871
0.525073
0.532417
0.547101
0.55592
0.564814
0.577974
0.596598
0.654009
0.687832
0.741085
0.774362
0.816891
0.821259
0.833637
0.86101
0.848791
0.848078
0.912506
0.998189
1
0.999999
0.999603
0.981496
0.851837
0.678667
0.58818
0.567354
0.514871
0.525754
0.532729
0.547076
0.556118
0.564527
0.578132
0.60165
0.66206
0.691607
0.740693
0.766538
0.808331
0.812502
0.820044
0.834176
0.841725
0.863959
0.960381
0.999471
1
1
0.9999
0.990168
0.875598
0.678248
0.588655
0.567356
0.516192
0.525889
0.533556
0.547165
0.556345
0.564292
0.578088
0.607101
0.670744
0.700298
0.740547
0.759561
0.799778
0.800958
0.802972
0.80474
0.864738
0.929714
0.990435
0.99993
1
1
0.999981
0.995455
0.899585
0.676622
0.588966
0.567345
0.518954
0.525242
0.533972
0.547291
0.556448
0.563902
0.577788
0.614559
0.682262
0.711695
0.740939
0.758223
0.795069
0.788605
0.796496
0.834891
0.928658
0.981123
0.998948
0.999997
1
1
0.999998
0.998321
0.926093
0.674226
0.588862
0.567315
0.517636
0.523802
0.5341
0.547547
0.556661
0.563744
0.577976
0.624118
0.694975
0.721608
0.742251
0.773809
0.782841
0.791795
0.846334
0.927018
0.983578
0.998065
0.999961
1
1
1
1
0.999591
0.954678
0.673301
0.588661
0.56725
0.515464
0.522795
0.533908
0.547768
0.556654
0.56302
0.57883
0.638452
0.711993
0.734257
0.770755
0.887194
0.786863
0.859371
0.945563
0.986552
0.998361
0.99991
0.999999
1
1
1
1
0.999949
0.978877
0.673847
0.588467
0.567179
0.51547
0.523505
0.533927
0.548373
0.556793
0.562701
0.582601
0.658408
0.728601
0.756893
0.82605
0.974209
0.914092
0.969366
0.993205
0.99918
0.999956
0.999999
1
1
1
1
1
0.999998
0.99308
0.675002
0.58842
0.567176
0.518821
0.525943
0.533812
0.548356
0.556262
0.562237
0.589115
0.677192
0.74765
0.782402
0.85901
0.995499
0.994303
0.999063
0.999874
0.999992
1
1
1
1
1
1
1
1
0.997826
0.677325
0.588509
0.567174
0.520015
0.528015
0.534114
0.548825
0.556521
0.563145
0.602919
0.723986
0.837389
0.847818
0.895908
0.998758
0.99995
0.999997
1
1
1
1
1
1
1
1
1
1
0.997315
0.689228
0.588765
0.567121
0.518623
0.528852
0.535408
0.549794
0.556699
0.568059
0.648692
0.842939
0.968389
0.97033
0.978118
0.999932
1
1
1
1
1
1
1
1
1
1
1
1
0.99636
0.714725
0.589263
0.567081
0.517643
0.527883
0.536058
0.549994
0.557072
0.572161
0.690918
0.881562
0.954458
0.962033
0.986174
0.999865
0.999998
0.999998
0.999998
0.999998
0.999999
1
1
1
1
1
1
1
0.994677
0.754847
0.590343
0.567107
0.518293
0.525249
0.536752
0.550559
0.55855
0.579333
0.726243
0.901489
0.940212
0.954507
0.99073
0.999124
0.999994
0.999999
0.999999
1
1
1
1
1
1
1
1
0.999999
0.99224
0.765857
0.590966
0.567221
0.518777
0.52349
0.536711
0.550459
0.558498
0.586919
0.747093
0.89522
0.928889
0.955491
0.992823
0.997273
0.999979
1
1
1
1
1
1
1
1
1
1
0.999998
0.988522
0.744146
0.590836
0.567354
0.518858
0.524239
0.536519
0.550592
0.559083
0.597912
0.765514
0.894033
0.926843
0.956994
0.988819
0.995049
0.99996
1
1
1
1
1
1
1
1
1
1
0.999997
0.984665
0.712898
0.590345
0.567562
0.518953
0.527129
0.536241
0.550497
0.559495
0.605622
0.77369
0.87922
0.912052
0.94731
0.978253
0.994495
0.999956
1
1
1
1
1
1
1
1
1
1
0.999998
0.992359
0.75198
0.589645
0.567823
0.519013
0.528379
0.536136
0.550642
0.561184
0.62134
0.773024
0.876282
0.926784
0.928678
0.952943
0.995406
0.999976
1
1
1
1
1
1
1
1
1
1
1
0.9995
0.898537
0.590763
0.568451
0.520192
0.528551
0.536771
0.550773
0.562854
0.647631
0.778582
0.953207
0.991636
0.929982
0.960304
0.999065
0.999998
1
1
1
1
1
1
1
1
1
1
1
0.999989
0.946465
0.593696
0.521218
0.536324
0.523658
0.523075
0.522736
0.52301
0.525646
0.531625
0.54349
0.557697
0.574406
0.59271
0.612429
0.634336
0.656943
0.680225
0.702385
0.722786
0.741114
0.756563
0.767328
0.772097
0.762693
0.763271
0.745339
0.698353
0.625725
0.529409
0.520987
0.53633
0.535832
0.534171
0.540709
0.549736
0.57036
0.600481
0.636978
0.67484
0.710782
0.743783
0.779764
0.812913
0.83989
0.861312
0.87838
0.892553
0.902426
0.907554
0.909582
0.909005
0.899494
0.896572
0.875331
0.822617
0.734259
0.583268
0.533435
0.535084
0.545546
0.552403
0.573156
0.597641
0.639502
0.684705
0.718758
0.733885
0.742201
0.785537
0.816091
0.832288
0.846171
0.860737
0.875714
0.889637
0.903809
0.917459
0.927048
0.930747
0.929224
0.933862
0.92688
0.885691
0.779979
0.619621
0.543367
0.554367
0.559233
0.576776
0.596932
0.627836
0.676849
0.716179
0.732772
0.735101
0.739045
0.769447
0.795264
0.805657
0.809062
0.815174
0.822274
0.832161
0.846833
0.86191
0.872165
0.879744
0.886772
0.894371
0.916344
0.886367
0.787859
0.625666
0.551925
0.594148
0.581158
0.583239
0.610184
0.654096
0.707991
0.734576
0.74017
0.734945
0.731059
0.746198
0.773187
0.791685
0.811117
0.842467
0.889045
0.934162
0.959308
0.965918
0.953553
0.928256
0.881243
0.840262
0.89306
0.884565
0.79838
0.630647
0.556255
0.606268
0.608536
0.602165
0.631302
0.674942
0.714388
0.731403
0.734466
0.726957
0.721028
0.741056
0.778062
0.815376
0.873546
0.941456
0.97532
0.985426
0.992606
0.996845
0.997877
0.990074
0.95898
0.883525
0.813745
0.868032
0.797219
0.632622
0.556198
0.601986
0.619367
0.628084
0.65218
0.688586
0.724631
0.739879
0.733143
0.727243
0.721962
0.746314
0.794344
0.85363
0.909221
0.930733
0.936279
0.93034
0.965387
0.992018
0.999641
0.999278
0.989388
0.935493
0.846218
0.860642
0.795219
0.635308
0.556041
0.59658
0.615408
0.627056
0.650186
0.683853
0.717474
0.732325
0.726534
0.726408
0.726014
0.756584
0.811195
0.865369
0.892071
0.893087
0.900105
0.874852
0.915721
0.973419
0.999676
0.999969
0.998308
0.975223
0.896178
0.862408
0.791169
0.636355
0.555768
0.592798
0.610735
0.623424
0.646444
0.677921
0.707067
0.718423
0.717468
0.717205
0.727624
0.759044
0.809389
0.859995
0.865813
0.871427
0.865202
0.866326
0.885815
0.9496
0.999233
0.999999
0.999803
0.991692
0.924095
0.835175
0.785329
0.638076
0.555507
0.590281
0.608365
0.620747
0.645484
0.678143
0.704801
0.710185
0.705256
0.703337
0.732052
0.765718
0.803093
0.845918
0.86088
0.885408
0.88244
0.872876
0.879935
0.929692
0.998832
1
0.999987
0.998219
0.955385
0.791188
0.776691
0.639309
0.555235
0.588379
0.607373
0.619667
0.645681
0.678947
0.702319
0.70169
0.682792
0.725592
0.74206
0.777805
0.793586
0.827965
0.833036
0.865539
0.901779
0.88664
0.87167
0.917042
0.998504
1
0.999999
0.999748
0.987175
0.885462
0.769447
0.6406
0.55522
0.586675
0.606824
0.619836
0.646195
0.679811
0.700908
0.693009
0.676261
0.735663
0.748383
0.787739
0.795283
0.834331
0.832934
0.862595
0.896431
0.882545
0.873038
0.927728
0.998366
1
1
0.999944
0.994418
0.921411
0.765536
0.640712
0.555278
0.585057
0.606655
0.620284
0.646603
0.680374
0.699054
0.687037
0.67337
0.736554
0.754055
0.787587
0.796374
0.826539
0.823474
0.83565
0.847072
0.871453
0.89558
0.970655
0.999606
1
1
0.999988
0.997261
0.934365
0.761592
0.640449
0.555424
0.583857
0.606695
0.620825
0.647002
0.680827
0.697525
0.681028
0.671144
0.742
0.763476
0.790102
0.801239
0.817228
0.814593
0.816451
0.826101
0.899204
0.953146
0.993974
0.999957
1
1
0.999998
0.998886
0.950877
0.756094
0.639937
0.555655
0.582879
0.606716
0.621062
0.647333
0.680921
0.695362
0.673772
0.671653
0.750371
0.774252
0.789337
0.80404
0.813389
0.81624
0.827429
0.866594
0.949949
0.988348
0.99942
0.999998
1
1
1
0.999633
0.966501
0.757983
0.639288
0.555946
0.58139
0.60694
0.621286
0.647777
0.680913
0.692965
0.666056
0.674479
0.761887
0.784045
0.788237
0.865332
0.800616
0.832147
0.886579
0.948781
0.990167
0.99881
0.999978
1
1
1
1
0.999925
0.98162
0.766599
0.639728
0.556255
0.579756
0.60738
0.621557
0.648363
0.680803
0.688162
0.657204
0.683708
0.791055
0.812244
0.842622
0.95016
0.845766
0.897276
0.969852
0.994452
0.999328
0.99996
0.999999
1
1
1
1
0.999992
0.992211
0.777761
0.640782
0.556465
0.578105
0.608151
0.622345
0.649662
0.680335
0.680143
0.648729
0.702284
0.819563
0.856107
0.90121
0.990895
0.948643
0.982636
0.996628
0.999694
0.999987
1
1
1
1
1
1
1
0.997461
0.786323
0.642195
0.556762
0.575754
0.608875
0.62337
0.650472
0.67718
0.671607
0.646758
0.724412
0.861239
0.912378
0.894357
0.99923
0.996802
0.999638
0.99994
0.999996
1
1
1
1
1
1
1
1
0.998808
0.789719
0.644043
0.556882
0.573701
0.609664
0.624865
0.653014
0.678083
0.666897
0.654297
0.793474
0.983175
0.986317
0.978841
0.999874
0.99998
0.999999
1
1
1
1
1
1
1
1
1
1
0.997762
0.793065
0.646394
0.557228
0.573699
0.61091
0.627553
0.65758
0.677754
0.66754
0.694814
0.923144
0.9975
0.998219
0.999154
0.999973
1
1
1
1
1
1
1
1
1
1
1
1
0.996356
0.806225
0.647823
0.557156
0.574022
0.612093
0.630478
0.662481
0.679134
0.670351
0.719589
0.927202
0.970225
0.977855
0.99296
0.999844
0.999998
0.999999
0.999999
0.999999
1
1
1
1
1
1
1
0.999999
0.994402
0.845377
0.649381
0.557248
0.575647
0.613902
0.634161
0.667229
0.682019
0.676906
0.757446
0.940392
0.968745
0.978907
0.994676
0.998907
0.999988
1
1
1
1
1
1
1
1
1
1
0.999997
0.99191
0.862388
0.649396
0.557201
0.578503
0.615866
0.637724
0.670597
0.681769
0.682152
0.787023
0.949609
0.972827
0.983509
0.994551
0.997408
0.999976
1
1
1
1
1
1
1
1
1
1
0.999996
0.987955
0.830764
0.6494
0.557237
0.582955
0.618295
0.641343
0.673093
0.681438
0.690311
0.818755
0.96416
0.976466
0.984365
0.990358
0.996375
0.99997
1
1
1
1
1
1
1
1
1
1
0.999996
0.984435
0.753418
0.650308
0.557178
0.588645
0.620476
0.644499
0.67371
0.680382
0.702291
0.843801
0.949683
0.952699
0.980972
0.984602
0.996262
0.999979
1
1
1
1
1
1
1
1
1
1
0.999998
0.991969
0.761869
0.650388
0.557036
0.592537
0.622229
0.647293
0.675019
0.679701
0.70427
0.845679
0.907397
0.947084
0.969302
0.964705
0.997258
0.999994
1
1
1
1
1
1
1
1
1
1
1
0.999382
0.877338
0.650807
0.557673
0.596829
0.625809
0.651209
0.674475
0.677758
0.703072
0.853356
0.965628
0.994384
0.954025
0.965201
0.999532
1
1
1
1
1
1
1
1
1
1
1
1
0.999998
0.961119
0.652618
0.522016
0.529405
0.547699
0.558401
0.572057
0.583591
0.596193
0.609237
0.6248
0.642882
0.662746
0.683254
0.703989
0.725467
0.746125
0.766195
0.784563
0.800627
0.814306
0.825438
0.833217
0.836534
0.829811
0.82893
0.811714
0.765934
0.697381
0.572553
0.559967
0.655826
0.692548
0.704135
0.724284
0.741662
0.759759
0.779409
0.799375
0.819703
0.839875
0.861672
0.886271
0.907591
0.925876
0.941423
0.954433
0.964827
0.972334
0.976866
0.979194
0.979686
0.977749
0.977097
0.969236
0.934914
0.860331
0.692661
0.622256
0.732752
0.777065
0.80624
0.832537
0.852185
0.872506
0.890525
0.903034
0.909141
0.912086
0.920937
0.933798
0.944023
0.951705
0.958629
0.964812
0.969762
0.973028
0.974399
0.973228
0.970394
0.969658
0.966921
0.96778
0.962462
0.915079
0.758908
0.662522
0.787297
0.82918
0.849926
0.872144
0.888651
0.901985
0.910615
0.913093
0.91008
0.908225
0.912927
0.916579
0.917012
0.909304
0.903027
0.901876
0.907997
0.918136
0.924764
0.926854
0.925518
0.913574
0.906196
0.924694
0.952725
0.917331
0.768829
0.688797
0.772374
0.842499
0.876889
0.890175
0.898807
0.909829
0.91428
0.914628
0.905192
0.890827
0.878371
0.872153
0.865646
0.867075
0.895892
0.932171
0.964517
0.979274
0.983355
0.980077
0.969603
0.94153
0.903554
0.87932
0.932814
0.915506
0.778646
0.697244
0.750526
0.81398
0.854258
0.865102
0.878198
0.898533
0.909969
0.907622
0.885976
0.857819
0.84134
0.847671
0.869446
0.903147
0.953773
0.976817
0.982176
0.990871
0.997606
0.999441
0.997944
0.986465
0.941559
0.870901
0.911368
0.909457
0.783196
0.702164
0.732954
0.782087
0.811398
0.8262
0.850922
0.882455
0.898316
0.887998
0.864236
0.843052
0.833539
0.852904
0.888253
0.919765
0.930944
0.930031
0.920585
0.956553
0.988679
0.999805
0.999914
0.997329
0.97439
0.920267
0.911426
0.902929
0.788463
0.701402
0.719644
0.755712
0.772412
0.792273
0.825859
0.861322
0.873395
0.857806
0.842966
0.84062
0.836767
0.851639
0.883168
0.892984
0.892882
0.901458
0.872416
0.9161
0.971048
0.999597
0.999997
0.999706
0.991757
0.946296
0.912943
0.897195
0.791038
0.701173
0.711058
0.739084
0.750834
0.775635
0.811394
0.843731
0.848229
0.836209
0.819057
0.830673
0.823046
0.836854
0.872909
0.881605
0.871267
0.865218
0.866916
0.897492
0.95217
0.999239
1
0.999979
0.997893
0.962375
0.876338
0.891732
0.794237
0.701378
0.705929
0.730922
0.742147
0.771426
0.811647
0.838927
0.835763
0.813967
0.788141
0.818365
0.829533
0.819805
0.851436
0.892015
0.909338
0.885068
0.887533
0.907309
0.939409
0.998927
1
0.999999
0.999723
0.984683
0.885304
0.884699
0.796307
0.702025
0.702747
0.726986
0.73873
0.771825
0.812427
0.836166
0.821524
0.783985
0.816554
0.816057
0.845808
0.849978
0.863883
0.89393
0.934127
0.928041
0.936142
0.91502
0.934325
0.998722
1
1
0.999987
0.998218
0.964429
0.877452
0.797945
0.703039
0.700766
0.725652
0.738983
0.772816
0.813318
0.834246
0.807604
0.77118
0.815438
0.808016
0.845741
0.889767
0.90793
0.906887
0.938742
0.946756
0.949958
0.941668
0.956333
0.99867
1
1
0.999997
0.999267
0.977188
0.876847
0.797599
0.704216
0.699727
0.725529
0.739811
0.773835
0.813813
0.831829
0.797073
0.762351
0.807186
0.804031
0.847196
0.924056
0.903688
0.90372
0.918475
0.925383
0.948938
0.953834
0.984356
0.999766
1
1
0.999999
0.999636
0.980462
0.876336
0.796819
0.705572
0.699814
0.725861
0.741078
0.774984
0.813974
0.829627
0.786655
0.754319
0.806845
0.810871
0.852192
0.938547
0.888271
0.900607
0.912257
0.918508
0.958802
0.981267
0.997546
0.999983
1
1
1
0.999867
0.986324
0.877194
0.795313
0.707052
0.699864
0.726249
0.742265
0.776102
0.813935
0.826581
0.773544
0.745197
0.811356
0.834629
0.86971
0.941582
0.878685
0.904264
0.908755
0.928383
0.976946
0.995325
0.999809
1
1
1
1
0.999961
0.991359
0.883241
0.795327
0.708401
0.69897
0.726739
0.743441
0.777458
0.81382
0.822884
0.758461
0.736068
0.832858
0.86959
0.866083
0.972286
0.841918
0.923772
0.947698
0.974351
0.995818
0.99949
0.999993
1
1
1
1
0.999994
0.995908
0.896304
0.795934
0.709602
0.696769
0.727361
0.744601
0.779007
0.813412
0.8156
0.742559
0.740439
0.902014
0.931369
0.93319
0.991144
0.946055
0.957494
0.989906
0.998362
0.999823
0.999988
1
1
1
1
1
0.999999
0.998455
0.909425
0.797166
0.710586
0.693872
0.728871
0.746495
0.781824
0.812308
0.801259
0.72625
0.760989
0.942494
0.962373
0.957208
0.998332
0.983453
0.994328
0.998981
0.999921
0.999997
1
1
1
1
1
1
1
0.999291
0.919352
0.798721
0.71174
0.690915
0.73077
0.748581
0.78267
0.807631
0.784742
0.713667
0.787994
0.965304
0.984582
0.94562
0.999859
0.998596
0.999899
0.99998
0.999998
1
1
1
1
1
1
1
1
0.99922
0.922478
0.800628
0.71243
0.689648
0.73297
0.751113
0.785959
0.806683
0.767152
0.720154
0.849488
0.996876
0.997838
0.994626
0.999941
0.999988
1
1
1
1
1
1
1
1
1
1
1
0.997604
0.919022
0.802979
0.713443
0.690152
0.735732
0.755625
0.790611
0.80099
0.76268
0.759206
0.953274
0.997767
0.998854
0.999639
0.99996
0.999999
1
1
1
1
1
1
1
1
1
1
1
0.995821
0.923571
0.804449
0.713757
0.691424
0.737836
0.760859
0.795836
0.799149
0.763247
0.795051
0.95778
0.97921
0.987378
0.996589
0.999794
0.999997
0.999999
1
1
1
1
1
1
1
1
1
0.999998
0.993821
0.949944
0.805581
0.71442
0.695264
0.740351
0.766797
0.798388
0.796935
0.76662
0.84122
0.973149
0.984338
0.989771
0.99667
0.999023
0.999989
1
1
1
1
1
1
1
1
1
1
0.999996
0.991076
0.959319
0.805149
0.714979
0.701026
0.742988
0.772246
0.800379
0.792391
0.770147
0.874567
0.982541
0.986918
0.989843
0.993097
0.998197
0.999986
1
1
1
1
1
1
1
1
1
1
0.999994
0.987067
0.931493
0.805399
0.715619
0.707948
0.746465
0.776525
0.800125
0.788232
0.777543
0.905131
0.981466
0.984466
0.986197
0.987348
0.997519
0.999985
1
1
1
1
1
1
1
1
1
1
0.999994
0.984365
0.827321
0.806931
0.716497
0.71439
0.750057
0.779745
0.798743
0.784668
0.784436
0.925325
0.971265
0.965567
0.981602
0.982502
0.997385
0.999993
1
1
1
1
1
1
1
1
1
1
0.999998
0.991907
0.801157
0.806919
0.716718
0.718104
0.753008
0.782189
0.797864
0.783741
0.795417
0.920562
0.930012
0.964757
0.976149
0.967237
0.998205
0.999998
1
1
1
1
1
1
1
1
1
1
1
0.999436
0.890133
0.806495
0.718145
0.723773
0.758284
0.784881
0.794998
0.781196
0.815444
0.928128
0.986318
0.9973
0.967719
0.96944
0.999702
1
1
1
1
1
1
1
1
1
1
1
1
1
0.973231
0.807034
0.521517
0.551346
0.577032
0.592521
0.612179
0.628458
0.645997
0.663141
0.681244
0.700301
0.720197
0.740356
0.760371
0.780302
0.799161
0.817023
0.83278
0.846117
0.85687
0.865228
0.870726
0.873007
0.867956
0.866346
0.851797
0.812061
0.750146
0.597745
0.618504
0.770351
0.800813
0.81322
0.833239
0.849208
0.865223
0.881187
0.896355
0.911205
0.925645
0.940328
0.95509
0.966678
0.975479
0.98196
0.986536
0.99003
0.99244
0.993891
0.994584
0.994295
0.993719
0.99323
0.990888
0.97897
0.937731
0.750319
0.707304
0.860376
0.899242
0.919709
0.936778
0.947054
0.956384
0.963699
0.968298
0.970476
0.971514
0.973369
0.976393
0.97881
0.980255
0.981315
0.98174
0.978374
0.974758
0.971322
0.969086
0.967823
0.964073
0.962409
0.964786
0.973081
0.963304
0.817975
0.758925
0.91174
0.932025
0.947207
0.955707
0.961812
0.966884
0.969911
0.970834
0.970239
0.969156
0.967742
0.964337
0.957193
0.947095
0.938288
0.935791
0.942555
0.953298
0.960736
0.965348
0.96686
0.95649
0.947685
0.935513
0.955414
0.958751
0.839523
0.789961
0.906463
0.948106
0.956879
0.962388
0.96604
0.968742
0.969657
0.968266
0.962942
0.953444
0.938848
0.922301
0.910474
0.90918
0.935965
0.96156
0.980433
0.988834
0.993688
0.994913
0.993184
0.983196
0.960596
0.924509
0.94042
0.954385
0.852619
0.803383
0.887936
0.937389
0.954366
0.959963
0.963053
0.965738
0.965867
0.956544
0.942428
0.923355
0.904964
0.897812
0.911186
0.933675
0.965061
0.975025
0.976621
0.988055
0.997192
0.999822
0.999865
0.997597
0.97956
0.930751
0.930258
0.949289
0.858802
0.810193
0.869796
0.916166
0.939395
0.947225
0.953055
0.958201
0.958176
0.94117
0.923751
0.9074
0.898982
0.897573
0.917686
0.929696
0.933264
0.923654
0.914377
0.955265
0.987369
0.999839
0.999996
0.999705
0.993692
0.962145
0.92996
0.944495
0.863996
0.813066
0.855168
0.891603
0.909563
0.921302
0.934516
0.945928
0.946487
0.925212
0.910802
0.90453
0.899399
0.892111
0.902645
0.896911
0.898609
0.905849
0.871828
0.928855
0.974247
0.999568
1
0.999976
0.998311
0.97622
0.932082
0.940754
0.867016
0.815008
0.84559
0.873469
0.886101
0.904019
0.921938
0.934346
0.931663
0.910065
0.890489
0.893327
0.878963
0.862829
0.882993
0.893536
0.875045
0.871954
0.865327
0.922246
0.963376
0.999313
1
0.999999
0.999688
0.986946
0.919584
0.938697
0.869818
0.816627
0.840462
0.86341
0.87543
0.897349
0.918962
0.931042
0.921581
0.888142
0.852924
0.879017
0.882997
0.90156
0.860654
0.899575
0.907987
0.845823
0.907574
0.95923
0.958287
0.999133
1
1
0.999977
0.996998
0.955257
0.935574
0.871499
0.818246
0.837089
0.858377
0.870637
0.897171
0.918451
0.929207
0.908149
0.856262
0.869563
0.878886
0.871838
0.97116
0.900918
0.963226
0.949946
0.897167
0.975451
0.973954
0.961729
0.999062
1
1
0.999999
0.999788
0.990807
0.933537
0.872445
0.820018
0.837018
0.856849
0.870847
0.89781
0.918568
0.927779
0.895203
0.842141
0.867388
0.85585
0.870561
0.989074
0.954971
0.972467
0.981377
0.975448
0.990711
0.988356
0.980836
0.99927
1
1
1
0.999896
0.993381
0.934587
0.872817
0.821882
0.83739
0.856551
0.871748
0.898755
0.918551
0.925977
0.884756
0.83064
0.853691
0.839552
0.871993
0.993569
0.95548
0.972293
0.982805
0.983066
0.992438
0.991018
0.994405
0.999879
1
1
1
0.999947
0.994229
0.935911
0.872779
0.823837
0.838894
0.856917
0.873115
0.899954
0.918452
0.924375
0.874324
0.81979
0.859047
0.869796
0.869028
0.994801
0.930001
0.973325
0.980185
0.982332
0.993452
0.996599
0.99938
0.999995
1
1
1
0.999981
0.995952
0.937363
0.872667
0.825878
0.84016
0.857446
0.874411
0.901108
0.918298
0.922144
0.859773
0.810476
0.89957
0.933129
0.903967
0.996245
0.91521
0.978168
0.97856
0.982026
0.995296
0.999082
0.999964
1
1
1
1
0.999995
0.997532
0.94152
0.872785
0.8277
0.839942
0.858206
0.875735
0.902487
0.918114
0.919224
0.841795
0.799214
0.936682
0.96872
0.920636
0.997978
0.913407
0.98473
0.98685
0.991834
0.999003
0.999855
0.999998
1
1
1
1
0.999999
0.998924
0.9494
0.873202
0.82933
0.838028
0.859146
0.87711
0.903893
0.917665
0.912987
0.820352
0.79983
0.977156
0.98476
0.971447
0.998927
0.980882
0.991282
0.998076
0.999451
0.999952
0.999994
1
1
1
1
1
1
0.99963
0.958792
0.873912
0.830671
0.835183
0.860974
0.879212
0.906693
0.916591
0.897285
0.799774
0.816577
0.989005
0.991481
0.980494
0.999763
0.997574
0.99907
0.999844
0.999987
1
1
1
1
1
1
1
1
0.999803
0.967026
0.874807
0.832068
0.833192
0.863151
0.881478
0.906517
0.912569
0.876291
0.781244
0.840954
0.993635
0.996098
0.977351
0.999912
0.999598
0.999977
0.999995
0.999999
1
1
1
1
1
1
1
1
0.999308
0.972458
0.875879
0.832857
0.832923
0.86558
0.883936
0.90803
0.910294
0.853221
0.785806
0.890508
0.997759
0.998373
0.997064
0.999935
0.999991
1
1
1
1
1
1
1
1
1
1
1
0.998171
0.97519
0.877276
0.833891
0.833695
0.86863
0.888277
0.910088
0.900014
0.836108
0.821261
0.971178
0.997151
0.998614
0.999622
0.999953
0.999999
1
1
1
1
1
1
1
1
1
1
1
0.996906
0.980141
0.878599
0.834192
0.835776
0.871091
0.893187
0.913655
0.888978
0.83567
0.850251
0.975797
0.987581
0.993745
0.998107
0.999748
0.999997
1
1
1
1
1
1
1
1
1
1
0.999999
0.99552
0.984069
0.880309
0.834697
0.840951
0.874014
0.8978
0.912984
0.87819
0.837071
0.89064
0.988066
0.991586
0.993773
0.996527
0.999236
0.999994
1
1
1
1
1
1
1
1
1
1
0.999998
0.993559
0.979926
0.8805
0.834948
0.84758
0.877072
0.901605
0.911098
0.868591
0.83895
0.91848
0.985728
0.98639
0.990324
0.993378
0.998707
0.999993
1
1
1
1
1
1
1
1
1
1
0.999997
0.990979
0.955314
0.880541
0.835288
0.85424
0.880881
0.903801
0.907482
0.861867
0.844679
0.942252
0.977824
0.978095
0.984127
0.988539
0.998237
0.999994
1
1
1
1
1
1
1
1
1
1
0.999997
0.989531
0.868877
0.880969
0.835867
0.859601
0.884759
0.904477
0.902333
0.855996
0.850396
0.949402
0.96116
0.961979
0.977184
0.982519
0.998141
0.999998
1
1
1
1
1
1
1
1
1
1
0.999999
0.995169
0.840154
0.880658
0.836211
0.862991
0.887914
0.905164
0.897424
0.855464
0.859129
0.945427
0.948763
0.977308
0.974619
0.967163
0.998847
0.999999
1
1
1
1
1
1
1
1
1
1
1
0.99974
0.921246
0.879528
0.837728
0.86871
0.892487
0.904883
0.889146
0.853451
0.87444
0.956859
0.995769
0.999158
0.972228
0.974192
0.999815
1
1
1
1
1
1
1
1
1
1
1
1
1
0.982636
0.879734
0.530067
0.585296
0.617391
0.636714
0.658847
0.67669
0.6948
0.711995
0.729482
0.747348
0.765486
0.783716
0.801571
0.81902
0.835218
0.850213
0.863122
0.873941
0.882313
0.888671
0.892664
0.894267
0.889991
0.887629
0.874747
0.841066
0.786206
0.622
0.675287
0.86197
0.891661
0.903058
0.918673
0.929434
0.939524
0.949083
0.957879
0.96614
0.973539
0.980098
0.985733
0.989823
0.992708
0.994915
0.996473
0.997447
0.997797
0.997775
0.997782
0.997541
0.997052
0.996623
0.995302
0.991446
0.971844
0.783427
0.771638
0.945902
0.970326
0.978571
0.983503
0.985465
0.986945
0.987924
0.988345
0.988382
0.98798
0.98783
0.988384
0.988703
0.988141
0.986285
0.98439
0.983182
0.984471
0.988271
0.991227
0.992257
0.990126
0.988264
0.981741
0.984384
0.980775
0.84854
0.820454
0.97444
0.981742
0.983253
0.984089
0.985405
0.986454
0.986853
0.986167
0.984607
0.982146
0.978212
0.971909
0.963424
0.955639
0.951786
0.955684
0.96706
0.977626
0.985092
0.98991
0.99194
0.988741
0.983896
0.970587
0.97079
0.97597
0.870851
0.849473
0.972574
0.982333
0.982822
0.98391
0.984273
0.982639
0.979391
0.974585
0.968357
0.960006
0.948834
0.937746
0.932093
0.939301
0.960274
0.977445
0.987772
0.993663
0.997634
0.999193
0.999274
0.99723
0.988783
0.965783
0.962358
0.971656
0.883397
0.864203
0.964318
0.97933
0.982078
0.982735
0.979604
0.973713
0.965824
0.956478
0.946272
0.936272
0.928477
0.926245
0.938978
0.955298
0.969043
0.970609
0.968792
0.984851
0.996639
0.999934
0.999995
0.999746
0.9952
0.97008
0.947248
0.966571
0.889134
0.872165
0.954572
0.973404
0.979829
0.980006
0.972792
0.963019
0.952671
0.943545
0.936073
0.930325
0.928085
0.92789
0.936719
0.937037
0.927092
0.918346
0.91069
0.956268
0.989376
0.999804
1
0.999976
0.998799
0.986004
0.96029
0.963441
0.893628
0.876619
0.945768
0.963919
0.972866
0.973749
0.965483
0.956326
0.947144
0.939415
0.932692
0.929708
0.928521
0.921045
0.917058
0.899294
0.902215
0.908739
0.866058
0.928514
0.98251
0.99963
1
0.999998
0.999726
0.992482
0.966306
0.961875
0.8961
0.879645
0.939641
0.955259
0.964682
0.968283
0.96099
0.952684
0.943746
0.934285
0.920773
0.916304
0.913164
0.879638
0.890424
0.864955
0.870277
0.859824
0.850659
0.913437
0.978171
0.999507
1
1
0.999961
0.996523
0.963339
0.961077
0.898122
0.882097
0.936315
0.949685
0.960247
0.965687
0.95872
0.950916
0.940677
0.922095
0.890606
0.876415
0.870824
0.886606
0.82013
0.802364
0.802363
0.802363
0.885114
0.93262
0.97659
0.999462
1
1
0.999999
0.999605
0.986118
0.958901
0.899094
0.884206
0.934496
0.947076
0.957929
0.964385
0.958059
0.950691
0.935001
0.901085
0.880579
0.941861
0.838259
0.996436
0.82022
0.999747
0.80237
0.802363
0.999958
0.930577
0.984436
0.99956
1
1
1
0.999955
0.996588
0.95762
0.899748
0.88619
0.934688
0.945749
0.958002
0.964392
0.958217
0.950865
0.929963
0.890979
1
0.998434
1
0.999037
1
0.999988
1
1
0.999934
1
0.993419
0.999759
1
1
1
0.999974
0.997226
0.958548
0.900139
0.888094
0.935384
0.945819
0.958325
0.964492
0.95856
0.951149
0.925274
0.880443
0.99985
0.998812
0.998723
0.999978
0.999714
0.999985
0.999954
0.99991
0.999901
0.999958
0.998585
0.999956
1
1
1
0.999987
0.997549
0.959493
0.900341
0.889926
0.936754
0.946113
0.958738
0.964691
0.95905
0.951673
0.920557
0.871592
1
0.987486
1
0.999989
1
0.999988
1
1
0.999914
1
0.999916
0.999997
1
1
1
0.999995
0.998241
0.959876
0.900225
0.891685
0.937477
0.946544
0.959107
0.964939
0.959608
0.952048
0.911281
0.85737
0.999885
0.999978
0.999899
0.999975
0.999912
0.99998
0.999957
0.999942
0.999967
0.999979
0.999998
1
1
1
1
0.999999
0.998935
0.961463
0.900235
0.893206
0.93731
0.947203
0.959514
0.965243
0.960107
0.951735
0.897657
0.844425
1
0.999986
1
0.999982
1
0.999986
1
1
0.999992
1
1
1
1
1
1
1
0.999577
0.966202
0.900364
0.894537
0.936235
0.947909
0.959964
0.965543
0.960618
0.9496
0.877682
0.830277
1
0.999969
1
0.999977
1
0.999977
1
1
1
1
1
1
1
1
1
1
0.999889
0.97623
0.900564
0.895579
0.935365
0.948963
0.960634
0.966044
0.960432
0.940538
0.851411
0.821544
0.999969
0.999979
0.999955
0.999987
0.999993
1
1
1
1
1
1
1
1
1
1
1
0.999931
0.985695
0.900964
0.896527
0.935345
0.95013
0.961361
0.965954
0.958918
0.922169
0.82799
0.824262
1
0.999955
1
0.999994
1
0.999871
1
1
0.999986
1
1
1
1
1
1
1
0.99959
0.989873
0.901629
0.897039
0.93557
0.951458
0.962025
0.966116
0.95467
0.896766
0.828502
0.845487
1
0.998851
1
0.999718
1
0.999758
1
1
0.999985
1
1
1
1
1
1
1
0.998927
0.990741
0.902686
0.897749
0.936746
0.953259
0.963116
0.965421
0.939771
0.87413
0.851033
0.961373
0.997596
0.998902
0.999663
0.999953
0.999999
1
1
1
1
1
1
1
1
1
1
1
0.998177
0.990694
0.903945
0.898218
0.938982
0.954904
0.963851
0.962854
0.922165
0.870561
0.873115
0.983918
0.993297
0.996197
0.998576
0.999771
0.999998
1
1
1
1
1
1
1
1
1
1
1
0.997368
0.986761
0.905782
0.899051
0.942509
0.956751
0.964514
0.956941
0.907526
0.871514
0.912054
0.98999
0.99114
0.994137
0.997323
0.999488
0.999998
1
1
1
1
1
1
1
1
1
1
0.999999
0.996164