/*--------------------------------*- C++ -*----------------------------------*\
| =========                 |                                                 |
| \\      /  F ield         | OpenFOAM: The Open Source CFD Toolbox           |
|  \\    /   O peration     | Version:  2.3.0                                 |
|   \\  /    A nd           | Web:      www.OpenFOAM.org                      |
|    \\/     M anipulation  |                                                 |
\*---------------------------------------------------------------------------*/
FoamFile
{
    version     2.0;
    format      ascii;
    class       volScalarField;
    location    "4.39933";
    object      rhom;
}
// * * * * * * * * * * * * * * * * * * * * * * * * * * * * * * * * * * * * * //

dimensions      [1 -3 0 0 0 0 0];

internalField   nonuniform List<scalar> 
18816
(
793.629
778.283
783.338
783.474
785.861
786.339
787.342
787.545
787.424
788.538
790.359
792.205
794.391
798.701
803.785
810.111
817.136
824.915
832.962
840.632
846.62
849.924
845.023
845.175
838.548
822.653
801.599
793.19
799.605
792.089
796.994
796.997
799.089
799.262
799.082
798.944
801.014
803.587
805.501
807.794
818.803
828.269
839.201
850.896
862.924
874.222
883.175
888.844
891.015
890.918
881.884
879.844
870.514
850.683
819.799
802.598
800.204
811.08
811.304
812.401
814.141
814.365
813.783
814.316
818.37
821.539
826.259
827.726
836.19
849.735
861.779
872.773
881.591
887.99
892.184
894.856
896.647
897.784
894.287
898.268
890.789
870.816
834.074
808.246
800.95
805.302
814.469
814.246
815.385
815.304
815.058
818.001
821.931
826.755
835.967
847.149
853.605
865.244
876.227
885.188
891.892
896.622
899.705
901.794
902.987
901.176
898.153
902.091
897.655
882.91
844.147
810.945
802.25
787.741
808.421
815.423
816.565
816.532
816.808
818.871
823.363
829.809
843.976
860.694
870.185
884.368
903.625
926.878
953.603
979.696
995.67
1001.07
991.908
973.789
943.11
914.001
903.409
890.513
852.151
812.91
803.711
778.51
794.895
808.824
811.737
812.684
814.395
820.372
825.777
834.241
850.473
872.204
888.949
915.575
955.608
993.692
1013.32
1020.04
1023.31
1024.72
1025
1017.1
993.905
945.113
903.242
892.794
856.636
813.92
804.525
778.519
787.233
796.613
802.273
804.874
808.132
818.206
823.874
833.727
855.7
881.889
907.097
942.978
978.436
991.626
996.289
994.672
1012.75
1024.4
1026.89
1025.98
1016.58
977.08
913.562
895.292
859.814
814.709
804.991
778.521
784.454
789.627
796.374
799.959
804.43
813.181
819.586
831.889
860.453
889.717
920.811
953.46
973.121
978.774
978.443
965.443
986.805
1015.45
1026.94
1027.05
1024.88
1004.17
941.838
897.41
862.094
815.473
805.222
778.521
783.149
788.434
795.045
799.215
804.065
810.079
817.241
832.386
862.901
893.351
923.839
951.366
957.862
966.651
959.973
960.121
968.087
1002.74
1026.73
1027.11
1026.73
1017.64
963.598
891.987
862.389
815.473
805.4
778.679
782.948
787.763
795.058
799.303
804.31
810.273
817.438
835.205
867.232
896.466
921.764
946.004
947.662
956.929
962.322
958.86
962.596
990.637
1026.49
1027.11
1027.06
1024.14
986.684
886.21
861.949
815.491
805.422
778.709
783.154
787.527
795.029
799.435
804.154
810.763
818.323
845.181
867.105
895.624
915.816
937.89
939.88
948.182
961.377
956.122
955.939
982.323
1026.28
1027.11
1027.11
1026.35
1008.52
927.027
862.078
815.723
805.424
778.533
783.761
787.524
795.048
799.567
804.124
810.867
820.41
849.827
867.158
894.444
911.495
933.287
935.525
941.868
955.894
949.632
949.267
982.28
1026.18
1027.11
1027.11
1026.91
1017.63
951.193
862.462
816.097
805.425
778.533
784.11
787.684
795.035
799.668
803.977
810.948
822.998
853.952
869.092
894.244
907.486
928.901
931.038
934.903
942.144
946.012
957.404
1006.81
1026.84
1027.11
1027.11
1027.06
1022.07
963.368
862.247
816.34
805.426
779.21
784.179
788.108
795.081
799.785
803.856
810.926
825.792
858.402
873.545
894.169
903.911
924.518
925.123
926.155
927.061
957.803
991.097
1022.21
1027.08
1027.11
1027.11
1027.1
1024.78
975.659
861.414
816.499
805.421
780.625
783.847
788.32
795.145
799.837
803.657
810.772
829.613
864.304
879.385
894.37
903.226
922.105
918.793
922.837
942.51
990.556
1017.44
1026.57
1027.11
1027.11
1027.11
1027.11
1026.25
989.242
860.186
816.446
805.405
779.95
783.109
788.386
795.276
799.946
803.575
810.868
834.511
870.818
884.465
895.042
911.212
915.84
920.428
948.373
989.715
1018.7
1026.12
1027.09
1027.11
1027.11
1027.11
1027.11
1026.9
1003.89
859.712
816.343
805.372
778.837
782.593
788.288
795.39
799.942
803.204
811.305
841.856
879.538
890.945
909.647
969.31
917.901
955.054
999.218
1020.22
1026.27
1027.07
1027.11
1027.11
1027.11
1027.11
1027.11
1027.09
1016.29
859.992
816.244
805.336
778.84
782.957
788.297
795.699
800.014
803.041
813.238
852.081
888.047
902.544
937.98
1013.9
983.092
1011.41
1023.63
1026.69
1027.09
1027.11
1027.11
1027.11
1027.11
1027.11
1027.11
1027.11
1023.57
860.584
816.219
805.334
780.557
784.206
788.238
795.691
799.742
802.803
816.575
861.706
897.808
915.615
954.869
1024.81
1024.19
1026.63
1027.05
1027.11
1027.11
1027.11
1027.11
1027.11
1027.11
1027.11
1027.11
1027.11
1026
861.774
816.265
805.333
781.169
785.268
788.393
795.931
799.875
803.268
823.649
885.683
943.79
949.134
973.775
1026.48
1027.09
1027.11
1027.11
1027.11
1027.11
1027.11
1027.11
1027.11
1027.11
1027.11
1027.11
1027.11
1025.74
867.873
816.396
805.306
780.455
785.697
789.056
796.427
799.965
805.787
847.102
946.634
1010.91
1011.91
1015.9
1027.08
1027.11
1027.11
1027.11
1027.11
1027.11
1027.11
1027.11
1027.11
1027.11
1027.11
1027.11
1027.11
1025.25
880.937
816.651
805.285
779.953
785.2
789.389
796.53
800.156
807.888
868.739
966.424
1003.78
1007.66
1020.03
1027.04
1027.11
1027.11
1027.11
1027.11
1027.11
1027.11
1027.11
1027.11
1027.11
1027.11
1027.11
1027.11
1024.38
901.496
817.204
805.298
780.286
783.85
789.745
796.819
800.914
811.563
886.839
976.635
996.476
1003.8
1022.36
1026.66
1027.11
1027.11
1027.11
1027.11
1027.11
1027.11
1027.11
1027.11
1027.11
1027.11
1027.11
1027.11
1023.13
907.137
817.524
805.357
780.534
782.949
789.723
796.768
800.887
815.45
897.523
973.422
990.674
1004.31
1023.43
1025.71
1027.1
1027.11
1027.11
1027.11
1027.11
1027.11
1027.11
1027.11
1027.11
1027.11
1027.11
1027.11
1021.23
896.013
817.457
805.425
780.576
783.333
789.625
796.836
801.187
821.083
906.961
972.814
989.626
1005.08
1021.38
1024.57
1027.09
1027.11
1027.11
1027.11
1027.11
1027.11
1027.11
1027.11
1027.11
1027.11
1027.11
1027.11
1019.25
880.001
817.205
805.532
780.624
784.814
789.482
796.787
801.398
825.033
911.151
965.224
982.047
1000.11
1015.97
1024.29
1027.09
1027.11
1027.11
1027.11
1027.11
1027.11
1027.11
1027.11
1027.11
1027.11
1027.11
1027.11
1023.2
900.026
816.847
805.665
780.655
785.454
789.429
796.862
802.263
833.087
910.809
963.718
989.595
990.566
1003
1024.76
1027.1
1027.11
1027.11
1027.11
1027.11
1027.11
1027.11
1027.11
1027.11
1027.11
1027.11
1027.11
1026.85
975.122
817.419
805.987
781.259
785.542
789.754
796.929
803.119
846.558
913.657
1003.13
1022.83
991.234
1006.77
1026.63
1027.11
1027.11
1027.11
1027.11
1027.11
1027.11
1027.11
1027.11
1027.11
1027.11
1027.11
1027.11
1027.11
999.68
818.922
781.786
789.527
783.037
782.738
782.564
782.704
784.055
787.119
793.199
800.478
809.04
818.419
828.523
839.747
851.331
863.261
874.615
885.069
894.46
902.376
907.892
910.335
905.517
905.813
896.625
872.549
835.335
785.983
781.668
789.53
789.274
788.423
791.773
796.399
806.966
822.4
841.101
860.501
878.918
895.827
914.264
931.249
945.072
956.049
964.794
972.056
977.115
979.743
980.782
980.486
975.613
974.116
963.232
936.221
890.947
813.581
788.046
788.891
794.252
797.765
808.399
820.945
842.394
865.556
883.004
890.756
895.016
917.222
932.878
941.177
948.29
955.754
963.428
970.562
977.824
984.818
989.731
991.627
990.846
993.223
989.645
968.54
914.374
832.207
793.135
798.772
801.265
810.254
820.581
836.417
861.531
881.683
890.185
891.379
893.399
908.977
922.206
927.531
929.276
932.407
936.046
941.112
948.629
956.355
961.609
965.493
969.094
972.988
984.246
968.886
918.412
835.305
797.52
819.155
812.499
813.565
827.372
849.872
877.488
891.11
893.976
891.299
889.307
897.065
910.894
920.372
930.329
946.392
970.259
993.376
1006.26
1009.65
1003.31
990.35
966.261
945.262
972.316
967.963
923.802
837.857
799.739
825.365
826.527
823.263
838.193
860.554
880.765
889.484
891.053
887.205
884.168
894.43
913.391
932.511
962.317
997.114
1014.47
1019.64
1023.32
1025.49
1026.02
1022.03
1006.09
967.43
931.675
959.492
923.207
838.869
799.709
823.171
832.077
836.544
848.89
867.545
886.014
893.827
890.375
887.352
884.646
897.124
921.735
952.112
980.597
991.619
994.461
991.418
1009.38
1023.02
1026.93
1026.74
1021.67
994.058
948.314
955.705
922.183
840.245
799.629
820.401
830.048
836.017
847.868
865.119
882.347
889.956
886.989
886.924
886.722
902.386
930.369
958.127
971.809
972.33
975.926
962.986
983.927
1013.49
1026.95
1027.1
1026.24
1014.42
973.914
956.61
920.107
840.782
799.489
818.463
827.654
834.156
845.951
862.079
877.014
882.833
882.343
882.209
887.547
903.647
929.443
955.374
958.354
961.231
958.041
958.618
968.603
1001.29
1026.72
1027.11
1027.01
1022.85
988.218
942.656
917.115
841.664
799.355
817.173
826.439
832.784
845.459
862.194
875.853
878.611
876.086
875.103
889.816
907.067
926.217
948.161
955.827
968.395
966.874
961.974
965.591
991.086
1026.51
1027.11
1027.1
1026.2
1004.25
920.117
912.689
842.295
799.216
816.199
825.931
832.23
845.56
862.605
874.581
874.258
864.575
886.506
894.944
913.26
921.346
938.961
941.56
958.214
976.783
969.026
961.356
984.604
1026.34
1027.11
1027.11
1026.98
1020.54
968.423
908.977
842.956
799.208
815.326
825.65
832.317
845.823
863.048
873.858
869.81
861.229
891.667
898.184
918.35
922.215
942.223
941.507
956.705
974.043
966.928
962.057
990.079
1026.27
1027.11
1027.11
1027.08
1024.25
986.843
906.973
843.014
799.238
814.496
825.563
832.547
846.032
863.336
872.908
866.751
859.748
892.123
901.09
918.272
922.774
938.231
936.66
942.899
948.752
961.244
973.607
1012.07
1026.91
1027.11
1027.11
1027.11
1025.71
993.48
904.952
842.879
799.313
813.881
825.583
832.824
846.237
863.568
872.125
863.671
858.607
894.913
905.917
919.561
925.267
933.46
932.11
933.062
938.006
975.464
1003.1
1024.02
1027.09
1027.11
1027.11
1027.11
1026.54
1001.94
902.135
842.617
799.431
813.38
825.594
832.945
846.406
863.617
871.016
859.954
858.868
899.202
911.439
919.169
926.702
931.492
932.954
938.687
958.755
1001.47
1021.14
1026.81
1027.11
1027.11
1027.11
1027.11
1026.92
1009.95
903.103
842.284
799.58
812.617
825.709
833.06
846.634
863.612
869.788
856
860.316
905.103
916.457
918.605
958.108
924.948
941.104
968.995
1000.87
1022.07
1026.5
1027.1
1027.11
1027.11
1027.11
1027.11
1027.07
1017.69
907.517
842.509
799.738
811.78
825.935
833.199
846.934
863.556
867.327
851.464
865.044
920.049
930.906
946.471
1001.57
948.082
974.476
1011.66
1024.27
1026.77
1027.09
1027.11
1027.11
1027.11
1027.11
1027.11
1027.11
1023.12
913.237
843.049
799.846
810.934
826.329
833.602
847.6
863.316
863.218
847.121
874.563
934.656
953.381
976.492
1022.45
1000.8
1018.21
1025.38
1026.95
1027.1
1027.11
1027.11
1027.11
1027.11
1027.11
1027.11
1027.11
1025.81
917.624
843.774
799.998
809.729
826.7
834.127
848.014
861.7
858.844
846.111
885.901
956.011
982.214
972.98
1026.72
1025.47
1026.93
1027.08
1027.11
1027.11
1027.11
1027.11
1027.11
1027.11
1027.11
1027.11
1027.11
1026.5
919.364
844.721
800.059
808.677
827.105
834.894
849.317
862.162
856.43
849.974
921.288
1018.49
1020.1
1016.27
1027.05
1027.1
1027.11
1027.11
1027.11
1027.11
1027.11
1027.11
1027.11
1027.11
1027.11
1027.11
1027.11
1025.96
921.079
845.925
800.236
808.676
827.743
836.271
851.657
861.993
856.76
870.735
987.731
1025.83
1026.2
1026.68
1027.1
1027.11
1027.11
1027.11
1027.11
1027.11
1027.11
1027.11
1027.11
1027.11
1027.11
1027.11
1027.11
1025.24
927.822
846.657
800.2
808.842
828.349
837.769
854.168
862.7
858.2
883.43
989.81
1011.85
1015.76
1023.5
1027.03
1027.11
1027.11
1027.11
1027.11
1027.11
1027.11
1027.11
1027.11
1027.11
1027.11
1027.11
1027.11
1024.24
947.883
847.455
800.247
809.674
829.276
839.656
856.6
864.179
861.559
902.828
996.568
1011.1
1016.3
1024.38
1026.55
1027.11
1027.11
1027.11
1027.11
1027.11
1027.11
1027.11
1027.11
1027.11
1027.11
1027.11
1027.11
1022.97
956.599
847.463
800.223
811.138
830.282
841.482
858.326
864.051
864.247
917.982
1001.29
1013.19
1018.66
1024.32
1025.78
1027.1
1027.11
1027.11
1027.11
1027.11
1027.11
1027.11
1027.11
1027.11
1027.11
1027.11
1027.11
1020.94
940.395
847.465
800.241
813.419
831.527
843.337
859.605
863.881
868.428
934.242
1008.75
1015.05
1019.1
1022.17
1025.25
1027.1
1027.11
1027.11
1027.11
1027.11
1027.11
1027.11
1027.11
1027.11
1027.11
1027.11
1027.11
1019.14
900.764
847.93
800.211
816.334
832.644
844.954
859.921
863.34
874.566
947.075
1001.33
1002.87
1017.36
1019.22
1025.2
1027.1
1027.11
1027.11
1027.11
1027.11
1027.11
1027.11
1027.11
1027.11
1027.11
1027.11
1027.11
1023
905.094
847.971
800.138
818.328
833.543
846.385
860.592
862.991
875.58
948.038
979.662
999.997
1011.38
1009.03
1025.71
1027.11
1027.11
1027.11
1027.11
1027.11
1027.11
1027.11
1027.11
1027.11
1027.11
1027.11
1027.11
1026.79
964.26
848.186
800.464
820.527
835.377
848.392
860.313
861.996
874.966
951.971
1009.5
1024.23
1003.55
1009.28
1026.87
1027.11
1027.11
1027.11
1027.11
1027.11
1027.11
1027.11
1027.11
1027.11
1027.11
1027.11
1027.11
1027.11
1007.19
849.114
782.195
785.981
795.355
800.839
807.836
813.746
820.203
826.887
834.861
844.126
854.304
864.813
875.437
886.442
897.027
907.311
916.723
924.954
931.963
937.667
941.653
943.352
939.908
939.456
930.635
907.177
872.051
808.09
801.641
850.759
869.575
875.512
885.836
894.74
904.013
914.082
924.312
934.729
945.064
956.233
968.837
979.762
989.131
997.097
1003.76
1009.09
1012.94
1015.26
1016.45
1016.7
1015.71
1015.38
1011.35
993.762
955.546
869.633
833.557
890.175
912.881
927.83
941.304
951.372
961.784
971.017
977.427
980.556
982.065
986.6
993.19
998.429
1002.37
1005.91
1009.08
1011.62
1013.29
1013.99
1013.39
1011.94
1011.56
1010.16
1010.6
1007.88
983.598
903.577
854.19
918.124
939.584
950.214
961.599
970.057
976.889
981.311
982.581
981.037
980.087
982.496
984.367
984.589
980.639
977.423
976.833
979.97
985.165
988.561
989.632
988.947
982.827
979.047
988.525
1002.89
984.752
908.661
867.653
910.477
946.409
964.03
970.838
975.261
980.908
983.189
983.367
978.532
971.172
964.79
961.603
958.269
959.001
973.767
992.356
1008.93
1016.49
1018.58
1016.9
1011.54
997.152
977.693
965.276
992.686
983.817
913.691
871.981
899.282
931.796
952.434
957.99
964.701
975.12
980.98
979.777
968.686
954.259
945.815
949.059
960.216
977.485
1003.43
1015.23
1017.98
1022.43
1025.88
1026.82
1026.06
1020.18
997.166
960.962
981.697
980.717
916.022
874.502
890.278
915.454
930.473
938.057
950.725
966.882
975.009
969.722
957.547
946.692
941.818
951.74
969.853
986
991.727
991.26
986.42
1004.85
1021.31
1027.01
1027.07
1025.74
1013.99
986.257
981.726
977.373
918.721
874.111
883.458
901.94
910.497
920.673
937.882
956.054
962.24
954.252
946.648
945.446
943.472
951.092
967.247
972.277
972.225
976.619
961.738
984.121
1012.28
1026.9
1027.11
1026.96
1022.89
999.594
982.504
974.435
920.041
873.994
879.059
893.419
899.44
912.148
930.471
947.04
949.344
943.186
934.397
940.349
936.441
943.516
961.99
966.447
961.149
958.05
958.92
974.587
1002.6
1026.72
1027.11
1027.1
1026.03
1007.83
963.747
971.636
921.679
874.099
876.431
889.237
894.989
909.991
930.6
944.578
942.957
931.789
918.556
934.042
939.765
934.78
950.988
971.78
980.657
968.221
969.484
979.617
996.065
1026.56
1027.11
1027.11
1026.97
1019.26
968.342
968.032
922.74
874.43
874.801
887.22
893.238
910.195
931
943.164
935.661
916.426
933.114
932.86
948.104
950.241
957.365
972.762
993.358
990.24
994.391
983.568
993.46
1026.46
1027.11
1027.11
1027.1
1026.2
1008.88
964.318
923.579
874.95
873.785
886.537
893.367
910.703
931.456
942.18
928.529
909.865
932.542
928.74
948.07
970.628
979.935
979.401
995.723
999.83
1001.47
997.222
1004.74
1026.43
1027.11
1027.11
1027.11
1026.74
1015.42
964.008
923.402
875.553
873.253
886.474
893.792
911.226
931.71
940.941
923.133
905.341
928.314
926.698
948.815
988.198
977.761
977.778
985.338
988.878
1000.95
1003.46
1019.1
1026.99
1027.11
1027.11
1027.11
1026.92
1017.1
963.747
923.002
876.248
873.297
886.644
894.441
911.814
931.792
939.813
917.794
901.226
928.139
930.202
951.375
995.623
969.862
976.183
982.152
985.355
1006
1017.51
1025.85
1027.1
1027.11
1027.11
1027.11
1027.04
1020.1
964.186
922.231
877.006
873.323
886.843
895.049
912.387
931.772
938.252
911.076
896.551
930.451
942.376
960.351
997.178
964.95
978.057
980.358
990.415
1015.3
1024.72
1027.01
1027.11
1027.11
1027.11
1027.11
1027.09
1022.68
967.285
922.238
877.697
872.865
887.093
895.651
913.082
931.713
936.358
903.348
891.874
941.468
960.29
958.493
1012.91
946.111
988.053
1000.31
1013.97
1024.97
1026.85
1027.11
1027.11
1027.11
1027.11
1027.11
1027.11
1025.01
973.978
922.549
878.313
871.737
887.412
896.246
913.875
931.504
932.625
895.2
894.113
976.904
991.945
992.878
1022.57
999.47
1005.33
1021.94
1026.27
1027.02
1027.11
1027.11
1027.11
1027.11
1027.11
1027.11
1027.11
1026.32
980.701
923.18
878.816
870.252
888.186
897.216
915.319
930.939
925.277
886.843
904.643
997.645
1007.83
1005.18
1026.26
1018.63
1024.2
1026.59
1027.07
1027.11
1027.11
1027.11
1027.11
1027.11
1027.11
1027.11
1027.11
1026.75
985.788
923.977
879.408
868.737
889.159
898.285
915.752
928.542
916.814
880.395
918.48
1009.33
1019.21
999.247
1027.04
1026.39
1027.06
1027.1
1027.11
1027.11
1027.11
1027.11
1027.11
1027.11
1027.11
1027.11
1027.11
1026.71
987.389
924.954
879.762
868.088
890.286
899.583
917.437
928.056
907.801
883.719
949.99
1025.51
1026
1024.36
1027.08
1027.11
1027.11
1027.11
1027.11
1027.11
1027.11
1027.11
1027.11
1027.11
1027.11
1027.11
1027.11
1025.88
985.619
926.159
880.28
868.346
891.701
901.894
919.821
925.139
905.509
903.729
1003.17
1025.97
1026.52
1026.93
1027.09
1027.11
1027.11
1027.11
1027.11
1027.11
1027.11
1027.11
1027.11
1027.11
1027.11
1027.11
1027.11
1024.97
987.949
926.912
880.441
868.998
892.779
904.576
922.498
924.196
905.8
922.096
1005.48
1016.46
1020.64
1025.36
1027.01
1027.11
1027.11
1027.11
1027.11
1027.11
1027.11
1027.11
1027.11
1027.11
1027.11
1027.11
1027.11
1023.94
1001.46
927.492
880.781
870.965
894.068
907.619
923.806
923.062
907.528
945.753
1013.35
1019.09
1021.87
1025.4
1026.61
1027.11
1027.11
1027.11
1027.11
1027.11
1027.11
1027.11
1027.11
1027.11
1027.11
1027.11
1027.11
1022.54
1006.27
927.27
881.067
873.918
895.419
910.411
924.826
920.733
909.335
962.84
1018.17
1020.41
1021.91
1023.57
1026.19
1027.1
1027.11
1027.11
1027.11
1027.11
1027.11
1027.11
1027.11
1027.11
1027.11
1027.11
1027.11
1020.48
992.009
927.398
881.395
877.465
897.201
912.603
924.696
918.602
913.125
978.501
1017.61
1019.15
1020.04
1020.63
1025.84
1027.1
1027.11
1027.11
1027.11
1027.11
1027.11
1027.11
1027.11
1027.11
1027.11
1027.11
1027.11
1019.1
938.631
928.183
881.845
880.766
899.041
914.253
923.988
916.776
916.657
988.848
1012.39
1009.47
1017.68
1018.15
1025.77
1027.11
1027.11
1027.11
1027.11
1027.11
1027.11
1027.11
1027.11
1027.11
1027.11
1027.11
1027.11
1022.96
925.225
928.177
881.958
882.669
900.553
915.506
923.537
916.301
922.283
986.408
991.249
1009.05
1014.89
1010.32
1026.19
1027.11
1027.11
1027.11
1027.11
1027.11
1027.11
1027.11
1027.11
1027.11
1027.11
1027.11
1027.11
1026.82
970.816
927.96
882.689
885.573
903.256
916.885
922.069
914.997
932.545
990.284
1020.1
1025.73
1010.57
1011.45
1026.96
1027.11
1027.11
1027.11
1027.11
1027.11
1027.11
1027.11
1027.11
1027.11
1027.11
1027.11
1027.11
1027.11
1013.39
928.236
781.94
797.224
810.385
818.321
828.394
836.736
845.723
854.507
863.783
873.547
883.742
894.071
904.327
914.539
924.203
933.355
941.429
948.263
953.773
958.055
960.872
962.041
959.453
958.628
951.173
930.813
899.088
820.999
831.635
909.441
925.049
931.407
941.664
949.846
958.052
966.232
974.004
981.613
989.012
996.536
1004.1
1010.04
1014.55
1017.87
1020.21
1022
1023.24
1023.98
1024.34
1024.19
1023.89
1023.64
1022.44
1016.34
995.205
899.176
877.136
955.569
975.484
985.971
994.717
999.982
1004.76
1008.51
1010.87
1011.98
1012.52
1013.47
1015.02
1016.25
1016.99
1017.54
1017.76
1016.03
1014.18
1012.42
1011.27
1010.62
1008.7
1007.85
1009.07
1013.32
1008.31
933.843
903.586
981.888
992.282
1000.06
1004.42
1007.54
1010.14
1011.69
1012.17
1011.86
1011.31
1010.58
1008.84
1005.18
1000
995.491
994.211
997.677
1003.18
1006.99
1009.36
1010.13
1004.82
1000.31
994.069
1004.27
1005.98
944.884
919.489
979.183
1000.52
1005.02
1007.84
1009.71
1011.09
1011.56
1010.85
1008.12
1003.26
995.778
987.299
981.239
980.576
994.3
1007.41
1017.09
1021.39
1023.88
1024.5
1023.62
1018.5
1006.92
988.43
996.583
1003.74
951.594
926.366
969.69
995.03
1003.73
1006.6
1008.18
1009.56
1009.62
1004.84
997.612
987.839
978.415
974.751
981.603
993.127
1009.21
1014.31
1015.13
1020.99
1025.67
1027.02
1027.04
1025.88
1016.64
991.628
991.376
1001.13
954.762
929.855
960.395
984.155
996.058
1000.07
1003.06
1005.69
1005.68
996.967
988.042
979.663
975.35
974.628
984.934
991.088
992.916
987.992
983.239
1004.19
1020.64
1027.03
1027.11
1026.96
1023.88
1007.71
991.223
998.671
957.424
931.327
952.9
971.569
980.772
986.787
993.558
999.405
999.692
988.791
981.407
978.193
975.564
971.829
977.227
974.289
975.159
978.869
961.436
990.657
1013.92
1026.89
1027.11
1027.1
1026.25
1014.93
992.31
996.754
958.971
932.322
947.992
962.278
968.75
977.931
987.113
993.47
992.096
981.029
970.999
972.453
965.093
956.825
967.158
972.56
963.085
961.501
958.106
987.271
1008.35
1026.76
1027.11
1027.11
1026.95
1020.42
985.907
995.7
960.407
933.152
945.365
957.123
963.282
974.514
985.588
991.777
986.93
969.796
951.75
965.12
967.159
976.671
955.711
975.654
979.964
948.112
979.753
1006.22
1005.74
1026.67
1027.11
1027.11
1027.1
1025.57
1004.19
994.1
961.268
933.981
943.637
954.544
960.827
974.422
985.326
990.837
980.047
953.461
960.276
965.053
961.442
1012.33
976.342
1008.27
1001.46
974.42
1014.53
1013.77
1007.5
1026.63
1027.11
1027.11
1027.11
1027
1022.4
993.056
961.753
934.89
943.6
953.761
960.934
974.75
985.386
990.106
973.414
946.225
959.161
953.25
960.787
1021.51
1004.04
1013
1017.57
1014.53
1022.35
1021.15
1017.29
1026.74
1027.11
1027.11
1027.11
1027.06
1023.72
993.594
961.943
935.844
943.791
953.609
961.396
975.234
985.377
989.182
968.061
940.332
952.143
944.898
961.521
1023.82
1004.3
1012.91
1018.3
1018.43
1023.24
1022.51
1024.24
1027.05
1027.11
1027.11
1027.11
1027.08
1024.15
994.272
961.924
936.846
944.561
953.796
962.096
975.848
985.326
988.362
962.716
934.772
954.888
960.395
960.002
1024.45
991.244
1013.44
1016.96
1018.06
1023.76
1025.37
1026.79
1027.11
1027.11
1027.11
1027.11
1027.1
1025.04
995.016
961.867
937.892
945.21
954.067
962.76
976.44
985.248
987.218
955.26
930
975.651
992.847
977.904
1025.19
983.665
1015.92
1016.13
1017.9
1024.7
1026.64
1027.09
1027.11
1027.11
1027.11
1027.11
1027.11
1025.85
997.146
961.927
938.826
945.098
954.457
963.438
977.146
985.153
985.722
946.048
924.23
994.668
1011.08
986.445
1026.08
982.741
1019.29
1020.37
1022.93
1026.6
1027.04
1027.11
1027.11
1027.11
1027.11
1027.11
1027.11
1026.56
1001.18
962.141
939.661
944.118
954.938
964.143
977.866
984.923
982.526
935.06
924.545
1015.41
1019.3
1012.48
1026.56
1017.32
1022.64
1026.13
1026.83
1027.09
1027.11
1027.11
1027.11
1027.11
1027.11
1027.11
1027.11
1026.92
1006
962.504
940.348
942.66
955.875
965.22
979.301
984.373
974.48
924.516
933.126
1021.48
1022.75
1017.12
1026.99
1025.87
1026.63
1027.03
1027.1
1027.11
1027.11
1027.11
1027.11
1027.11
1027.11
1027.11
1027.11
1027.01
1010.22
962.963
941.064
941.64
956.99
966.381
979.211
982.312
963.723
915.021
945.617
1023.85
1025.11
1015.51
1027.07
1026.91
1027.1
1027.11
1027.11
1027.11
1027.11
1027.11
1027.11
1027.11
1027.11
1027.11
1027.11
1026.76
1013
963.512
941.468
941.501
958.235
967.64
979.986
981.146
951.902
917.359
971.008
1025.96
1026.28
1025.61
1027.08
1027.11
1027.11
1027.11
1027.11
1027.11
1027.11
1027.11
1027.11
1027.11
1027.11
1027.11
1027.11
1026.17
1014.4
964.228
941.998
941.897
959.798
969.865
981.04
975.879
943.133
935.526
1012.34
1025.65
1026.4
1026.92
1027.09
1027.11
1027.11
1027.11
1027.11
1027.11
1027.11
1027.11
1027.11
1027.11
1027.11
1027.11
1027.11
1025.53
1016.94
964.906
942.152
942.963
961.059
972.381
982.868
970.224
942.909
950.38
1014.71
1020.75
1023.91
1026.14
1026.98
1027.11
1027.11
1027.11
1027.11
1027.11
1027.11
1027.11
1027.11
1027.11
1027.11
1027.11
1027.11
1024.82
1018.95
965.782
942.411
945.615
962.556
974.744
982.525
964.696
943.627
971.075
1021
1022.8
1023.92
1025.33
1026.72
1027.11
1027.11
1027.11
1027.11
1027.11
1027.11
1027.11
1027.11
1027.11
1027.11
1027.11
1027.11
1023.81
1016.83
965.88
942.539
949.011
964.123
976.694
981.558
959.778
944.59
985.34
1019.8
1020.14
1022.15
1023.72
1026.45
1027.11
1027.11
1027.11
1027.11
1027.11
1027.11
1027.11
1027.11
1027.11
1027.11
1027.11
1027.11
1022.49
1004.21
965.901
942.713
952.424
966.075
977.819
979.705
956.332
947.525
997.521
1015.75
1015.89
1018.98
1021.24
1026.21
1027.11
1027.11
1027.11
1027.11
1027.11
1027.11
1027.11
1027.11
1027.11
1027.11
1027.11
1027.11
1021.75
959.924
966.12
943.01
955.171
968.062
978.166
977.067
953.324
950.454
1001.18
1007.21
1007.63
1015.42
1018.15
1026.16
1027.11
1027.11
1027.11
1027.11
1027.11
1027.11
1027.11
1027.11
1027.11
1027.11
1027.11
1027.11
1024.64
945.207
965.961
943.186
956.908
969.678
978.517
974.551
953.051
954.929
999.148
1000.86
1015.48
1014.11
1010.29
1026.52
1027.11
1027.11
1027.11
1027.11
1027.11
1027.11
1027.11
1027.11
1027.11
1027.11
1027.11
1027.11
1026.98
986.758
965.382
943.963
959.839
972.022
978.374
970.31
952.02
962.775
1005.01
1024.94
1026.68
1012.88
1013.89
1027.02
1027.11
1027.11
1027.11
1027.11
1027.11
1027.11
1027.11
1027.11
1027.11
1027.11
1027.11
1027.11
1027.11
1018.21
965.487
786.32
814.62
831.065
840.966
852.306
861.449
870.729
879.539
888.5
897.654
906.948
916.289
925.438
934.378
942.678
950.362
956.976
962.519
966.809
970.067
972.113
972.934
970.743
969.533
962.933
945.674
917.565
833.426
860.73
956.386
971.599
977.439
985.44
990.954
996.124
1001.02
1005.53
1009.76
1013.55
1016.91
1019.8
1021.9
1023.38
1024.51
1025.3
1025.8
1025.98
1025.97
1025.97
1025.85
1025.6
1025.38
1024.7
1022.73
1012.68
916.14
910.1
999.392
1011.91
1016.13
1018.66
1019.66
1020.42
1020.92
1021.14
1021.16
1020.95
1020.88
1021.16
1021.32
1021.04
1020.08
1019.11
1018.49
1019.15
1021.1
1022.62
1023.14
1022.05
1021.1
1017.76
1019.11
1017.26
949.504
935.113
1014.01
1017.76
1018.53
1018.96
1019.63
1020.17
1020.37
1020.02
1019.22
1017.96
1015.95
1012.72
1008.37
1004.38
1002.41
1004.4
1010.23
1015.65
1019.47
1021.94
1022.98
1021.34
1018.86
1012.04
1012.14
1014.8
960.936
949.982
1013.06
1018.06
1018.31
1018.87
1019.05
1018.22
1016.55
1014.09
1010.9
1006.62
1000.89
995.213
992.316
996.01
1006.76
1015.55
1020.85
1023.86
1025.9
1026.7
1026.74
1025.69
1021.36
1009.58
1007.82
1012.59
967.364
957.53
1008.83
1016.52
1017.93
1018.26
1016.66
1013.64
1009.6
1004.81
999.581
994.457
990.463
989.32
995.844
1004.21
1011.25
1012.05
1011.12
1019.35
1025.39
1027.08
1027.11
1026.98
1024.65
1011.78
1000.08
1009.98
970.304
961.609
1003.83
1013.48
1016.78
1016.87
1013.17
1008.16
1002.86
998.184
994.356
991.41
990.263
990.163
994.686
994.85
989.754
985.272
981.349
1004.7
1021.67
1027.01
1027.11
1027.1
1026.5
1019.94
1006.76
1008.38
972.607
963.891
999.323
1008.62
1013.21
1013.66
1009.43
1004.73
1000.03
996.068
992.623
991.094
990.486
986.655
984.612
975.51
977.007
980.35
958.48
990.482
1018.15
1026.92
1027.11
1027.11
1026.97
1023.26
1009.85
1007.58
973.873
965.442
996.184
1004.19
1009.01
1010.86
1007.12
1002.87
998.287
993.439
986.516
984.226
982.617
965.438
970.965
957.915
960.642
955.286
950.59
982.757
1015.93
1026.86
1027.11
1027.11
1027.09
1025.33
1008.33
1007.17
974.909
966.698
994.48
1001.33
1006.74
1009.53
1005.96
1001.96
996.714
987.193
971.058
963.787
960.922
969.009
934.947
925.844
925.843
925.843
968.244
992.586
1015.12
1026.84
1027.11
1027.11
1027.11
1026.91
1020
1006.05
975.407
967.779
993.547
999.993
1005.55
1008.86
1005.62
1001.85
993.806
976.428
965.921
997.321
944.236
1025.29
934.993
1026.98
925.847
925.843
1027.09
991.539
1019.14
1026.89
1027.11
1027.11
1027.11
1027.09
1025.36
1005.4
975.742
968.796
993.646
999.313
1005.59
1008.87
1005.7
1001.93
991.225
971.249
1027.11
1026.31
1027.11
1026.62
1027.11
1027.11
1027.11
1027.11
1027.08
1027.11
1023.74
1026.99
1027.11
1027.11
1027.11
1027.1
1025.69
1005.87
975.943
969.771
994.002
999.349
1005.76
1008.92
1005.88
1002.08
988.822
965.851
1027.03
1026.5
1026.46
1027.1
1026.96
1027.1
1027.09
1027.07
1027.06
1027.09
1026.39
1027.09
1027.11
1027.11
1027.11
1027.1
1025.86
1006.36
976.046
970.71
994.704
999.5
1005.97
1009.02
1006.13
1002.35
986.405
961.316
1027.11
1020.7
1027.11
1027.11
1027.11
1027.11
1027.11
1027.11
1027.07
1027.11
1027.07
1027.11
1027.11
1027.11
1027.11
1027.11
1026.21
1006.55
975.987
971.611
995.075
999.721
1006.16
1009.15
1006.41
1002.54
981.652
954.028
1027.05
1027.1
1027.06
1027.1
1027.07
1027.1
1027.09
1027.08
1027.09
1027.1
1027.11
1027.11
1027.11
1027.11
1027.11
1027.11
1026.57
1007.37
975.992
972.39
994.989
1000.06
1006.37
1009.3
1006.67
1002.38
974.671
947.395
1027.11
1027.1
1027.11
1027.1
1027.11
1027.1
1027.11
1027.11
1027.11
1027.11
1027.11
1027.11
1027.11
1027.11
1027.11
1027.11
1026.89
1009.79
976.058
973.072
994.438
1000.42
1006.6
1009.46
1006.93
1001.29
964.436
940.146
1027.11
1027.1
1027.11
1027.1
1027.11
1027.1
1027.11
1027.11
1027.11
1027.11
1027.11
1027.11
1027.11
1027.11
1027.11
1027.11
1027.05
1014.93
976.161
973.606
993.993
1000.96
1006.94
1009.71
1006.84
996.643
950.975
935.671
1027.1
1027.1
1027.09
1027.1
1027.11
1027.11
1027.11
1027.11
1027.11
1027.11
1027.11
1027.11
1027.11
1027.11
1027.11
1027.11
1027.08
1019.78
976.366
974.092
993.982
1001.56
1007.31
1009.67
1006.06
987.231
938.974
937.064
1027.11
1027.09
1027.11
1027.11
1027.11
1027.04
1027.11
1027.11
1027.1
1027.11
1027.11
1027.11
1027.11
1027.11
1027.11
1027.11
1026.9
1021.92
976.706
974.355
994.097
1002.24
1007.65
1009.75
1003.88
974.215
939.236
947.939
1027.11
1026.52
1027.11
1026.97
1027.11
1026.99
1027.11
1027.11
1027.1
1027.11
1027.11
1027.11
1027.11
1027.11
1027.11