/*--------------------------------*- C++ -*----------------------------------*\
| =========                 |                                                 |
| \\      /  F ield         | OpenFOAM: The Open Source CFD Toolbox           |
|  \\    /   O peration     | Version:  2.3.0                                 |
|   \\  /    A nd           | Web:      www.OpenFOAM.org                      |
|    \\/     M anipulation  |                                                 |
\*---------------------------------------------------------------------------*/
FoamFile
{
    version     2.0;
    format      ascii;
    class       volScalarField;
    location    "77";
    object      alpha.airMean;
}
// * * * * * * * * * * * * * * * * * * * * * * * * * * * * * * * * * * * * * //

dimensions      [0 0 0 0 0 0 0];

internalField   nonuniform List<scalar> 
1875
(
0.243393
0.223544
0.215591
0.221034
0.229317
0.238775
0.247792
0.255387
0.261368
0.265836
0.269272
0.270877
0.269485
0.26804
0.267737
0.267031
0.263073
0.256258
0.246851
0.235812
0.225853
0.22132
0.227639
0.243206
0.239433
0.192175
0.18038
0.171163
0.172023
0.177403
0.186219
0.195024
0.202626
0.208716
0.214263
0.218674
0.222402
0.22694
0.231542
0.238278
0.245275
0.247414
0.243599
0.232174
0.216881
0.200592
0.186068
0.179393
0.183433
0.169682
0.159618
0.162435
0.168243
0.17462
0.179983
0.184107
0.186527
0.188594
0.192158
0.197703
0.202161
0.20616
0.212154
0.220207
0.231945
0.243884
0.252309
0.253002
0.246039
0.234668
0.221987
0.206286
0.194017
0.182132
0.16343
0.123827
0.143011
0.167173
0.178378
0.18319
0.185988
0.188335
0.189753
0.192439
0.19737
0.201493
0.206585
0.212787
0.220975
0.232354
0.246967
0.258706
0.261498
0.257029
0.247926
0.235246
0.222646
0.210308
0.189456
0.163256
0.101576
0.131996
0.166828
0.178667
0.18426
0.188489
0.191919
0.194629
0.1964
0.199092
0.20246
0.207205
0.213259
0.22049
0.2323
0.245314
0.257109
0.260546
0.259662
0.251801
0.240375
0.227391
0.214762
0.193108
0.164166
0.0950834
0.134584
0.173316
0.18341
0.191272
0.196412
0.19934
0.200841
0.201568
0.202414
0.204686
0.208399
0.213938
0.2216
0.231743
0.242226
0.249085
0.254054
0.254723
0.25065
0.242277
0.23157
0.217577
0.196399
0.166587
0.0956805
0.147226
0.182963
0.189635
0.200615
0.20675
0.209283
0.210062
0.209363
0.209386
0.210876
0.214011
0.218191
0.223085
0.228871
0.234063
0.239292
0.242838
0.244398
0.242039
0.238536
0.231173
0.218084
0.200019
0.171287
0.0995632
0.166964
0.194799
0.200394
0.21534
0.221623
0.222917
0.22201
0.220024
0.219145
0.219446
0.219622
0.219747
0.220291
0.221881
0.224707
0.227089
0.229249
0.231369
0.23293
0.232669
0.227073
0.214619
0.2012
0.17781
0.108271
0.186834
0.206595
0.213375
0.230452
0.235228
0.234898
0.231981
0.227926
0.223956
0.220947
0.218406
0.216464
0.21537
0.215048
0.214585
0.214564
0.216005
0.219574
0.224786
0.227336
0.221759
0.210637
0.201223
0.183335
0.120334
0.204176
0.217206
0.223557
0.238216
0.241332
0.238958
0.234336
0.228842
0.223796
0.219816
0.215731
0.212251
0.209794
0.207104
0.205372
0.20463
0.206696
0.211552
0.219085
0.222334
0.217234
0.207914
0.201797
0.187071
0.131731
0.218508
0.226049
0.228815
0.239854
0.240738
0.237633
0.232534
0.227663
0.222451
0.217583
0.212629
0.2083
0.203852
0.200506
0.198143
0.198765
0.202447
0.208419
0.215714
0.218994
0.213703
0.207001
0.203203
0.190741
0.14041
0.225907
0.232033
0.231604
0.239861
0.239146
0.2352
0.230031
0.224681
0.219109
0.213871
0.208975
0.203772
0.199274
0.195731
0.194535
0.195939
0.200382
0.207163
0.214267
0.216507
0.212642
0.207502
0.205239
0.197939
0.14614
0.230033
0.236467
0.234056
0.239955
0.238409
0.233647
0.227574
0.220632
0.214015
0.208803
0.204164
0.199371
0.195894
0.193458
0.19282
0.194404
0.199478
0.207152
0.212957
0.215185
0.211641
0.208431
0.20985
0.208014
0.149731
0.232092
0.2408
0.237154
0.240545
0.238481
0.233414
0.225775
0.216663
0.208677
0.203274
0.199517
0.196546
0.1949
0.193407
0.193566
0.195315
0.20049
0.207525
0.212636
0.213886
0.211249
0.210556
0.217177
0.212552
0.152179
0.232878
0.241787
0.239546
0.241937
0.239058
0.233496
0.224327
0.214094
0.205527
0.199801
0.196871
0.19528
0.194383
0.194765
0.195143
0.197033
0.20182
0.208037
0.212363
0.213339
0.21224
0.214314
0.22097
0.209832
0.153246
0.2324
0.241496
0.240491
0.243051
0.239927
0.233843
0.223863
0.213903
0.206213
0.200276
0.196675
0.194827
0.194604
0.195017
0.196729
0.198808
0.202956
0.208492
0.212654
0.214939
0.21599
0.216571
0.214354
0.196061
0.153767
0.230887
0.23985
0.240242
0.242659
0.239685
0.233991
0.225105
0.21561
0.208633
0.202335
0.198302
0.196099
0.195273
0.196235
0.197403
0.199866
0.204691
0.21043
0.214576
0.218058
0.218947
0.217536
0.201763
0.171119
0.154924
0.227094
0.237821
0.239514
0.241599
0.238291
0.233677
0.226578
0.218584
0.211777
0.205962
0.201
0.198332
0.197718
0.19778
0.199137
0.201615
0.206245
0.212151
0.21696
0.219081
0.219393
0.219092
0.194033
0.148215
0.156867
0.22029
0.235199
0.237984
0.240289
0.238057
0.234211
0.229388
0.22334
0.217302
0.210988
0.205489
0.202676
0.201349
0.201205
0.202016
0.20376
0.20728
0.212323
0.216556
0.218103
0.217405
0.220067
0.19674
0.136661
0.159969
0.211355
0.230788
0.236678
0.239611
0.23885
0.23694
0.233627
0.229365
0.223997
0.218443
0.213538
0.20927
0.20641
0.205129
0.204918
0.205328
0.207401
0.21136
0.214525
0.215894
0.215275
0.219946
0.203946
0.133643
0.164246
0.2022
0.22341
0.234816
0.239172
0.239918
0.238612
0.236474
0.233828
0.230801
0.226789
0.221693
0.21666
0.212004
0.208898
0.206943
0.206517
0.207649
0.209904
0.212653
0.214676
0.214483
0.219227
0.210052
0.133828
0.169607
0.194916
0.213424
0.228707
0.236847
0.239218
0.238913
0.237473
0.235644
0.23397
0.231558
0.228819
0.224238
0.21881
0.213528
0.209803
0.207943
0.207785
0.209022
0.211551
0.214377
0.214437
0.219341
0.213822
0.136018
0.17588
0.190432
0.203937
0.219104
0.230543
0.236031
0.237643
0.237252
0.235706
0.233789
0.232575
0.231431
0.230031
0.225565
0.219914
0.214205
0.210457
0.208171
0.208499
0.210732
0.214217
0.215179
0.219754
0.216447
0.139946
0.183148
0.188309
0.197454
0.208811
0.220866
0.22891
0.233501
0.234963
0.234187
0.233108
0.232215
0.23212
0.230753
0.228975
0.224497
0.21938
0.214078
0.210498
0.209169
0.211147
0.214911
0.216374
0.220174
0.218345
0.143813
0.192368
0.187945
0.194141
0.200966
0.210577
0.2194
0.226147
0.229887
0.231609
0.232104
0.232561
0.231806
0.231152
0.229398
0.227426
0.224004
0.219199
0.214514
0.212266
0.212651
0.215326
0.216223
0.220066
0.219555
0.146605
0.198608
0.188842
0.192739
0.196367
0.202651
0.210193
0.217692
0.223701
0.228088
0.231366
0.232364
0.23206
0.230715
0.230032
0.229178
0.227897
0.224247
0.219627
0.215972
0.214581
0.215379
0.215073
0.219722
0.219407
0.148306
0.20097
0.191222
0.192474
0.194719
0.198021
0.203441
0.210105
0.217197
0.224112
0.229337
0.232183
0.231559
0.230988
0.23042
0.230919
0.230559
0.228266
0.223915
0.219222
0.216028
0.215235
0.213985
0.219564
0.218301
0.149469
0.200188
0.196074
0.192706
0.194247
0.196489
0.19988
0.204863
0.212176
0.220061
0.227278
0.231366
0.231731
0.231327
0.231877
0.232361
0.232457
0.230467
0.226767
0.222131
0.217563
0.215011
0.213006
0.219445
0.216537
0.150558
0.196555
0.201788
0.197045
0.195029
0.196033
0.198485
0.202689
0.209479
0.217928
0.226128
0.23143
0.231921
0.232486
0.233479
0.233894
0.2335
0.232193
0.228803
0.223956
0.218438
0.214798
0.211854
0.219149
0.214395
0.152013
0.188706
0.205218
0.20443
0.197535
0.195705
0.19776
0.202151
0.209355
0.218013
0.226576
0.231922
0.232939
0.233713
0.234975
0.23504
0.234217
0.232223
0.228951
0.224524
0.218913
0.214171
0.211041
0.21807
0.211759
0.154246
0.17738
0.207073
0.209172
0.199811
0.1964
0.198246
0.203124
0.211266
0.220719
0.229214
0.233376
0.234299
0.235186
0.236111
0.235894
0.234025
0.231916
0.22829
0.223934
0.218041
0.213446
0.210315
0.217057
0.208405
0.156963
0.165865
0.208518
0.211436
0.200403
0.197851
0.200448
0.206591
0.215626
0.225505
0.232873
0.235292
0.235068
0.235545
0.236354
0.235807
0.233846
0.230937
0.227142
0.221664
0.216133
0.211946
0.209538
0.215342
0.204797
0.160141
0.157458
0.209698
0.21195
0.200095
0.199226
0.204146
0.212382
0.222303
0.231195
0.235741
0.235758
0.234939
0.235431
0.236011
0.235228
0.232523
0.229494
0.224929
0.219914
0.214338
0.210783
0.209138
0.215825
0.201837
0.163218
0.153066
0.210032
0.210835
0.199783
0.201503
0.208935
0.219191
0.228637
0.234646
0.23623
0.235694
0.234866
0.234787
0.234978
0.233569
0.230826
0.227281
0.22332
0.21834
0.213672
0.210377
0.209697
0.217538
0.200886
0.165173
0.150834
0.210006
0.209625
0.200274
0.204847
0.21473
0.224899
0.232629
0.235746
0.236479
0.23545
0.23433
0.233782
0.233354
0.231915
0.228977
0.225774
0.221693
0.217362
0.213419
0.211175
0.21136
0.220677
0.201991
0.166751
0.14927
0.209944
0.2091
0.201966
0.209502
0.219484
0.228285
0.233579
0.235754
0.236251
0.235469
0.234333
0.233121
0.232282
0.230068
0.227494
0.224163
0.220686
0.216861
0.213692
0.212191
0.213587
0.222168
0.205176
0.167821
0.14777
0.210363
0.209482
0.205033
0.214719
0.22275
0.229195
0.233237
0.235622
0.236733
0.236192
0.234227
0.232486
0.230412
0.228451
0.225737
0.223254
0.220048
0.216706
0.214033
0.213148
0.214843
0.223973
0.208286
0.168452
0.146321
0.211697
0.210842
0.208924
0.219433
0.225392
0.229819
0.233351
0.23565
0.237008
0.236057
0.234171
0.231351
0.229648
0.227049
0.224674
0.222227
0.219608
0.216648
0.214458
0.21329
0.215485
0.223094
0.211174
0.168456
0.145424
0.2139
0.213474
0.212632
0.223015
0.227731
0.231085
0.233184
0.2352
0.236388
0.236075
0.234121
0.231111
0.228869
0.226748
0.224295
0.221792
0.219048
0.216649
0.214537
0.213721
0.215669
0.224342
0.214829
0.167903
0.145553
0.215372
0.21676
0.215751
0.22528
0.229311
0.231849
0.233425
0.234851
0.235763
0.23553
0.234456
0.231686
0.229341
0.226969
0.22469
0.221786
0.218941
0.216677
0.214845
0.214116
0.216472
0.224348
0.219629
0.167673
0.146953
0.216555
0.218985
0.217611
0.226473
0.229796
0.232189
0.23338
0.234766
0.235331
0.235426
0.234439
0.23226
0.230203
0.22835
0.225673
0.222515
0.219379
0.216991
0.21477
0.214257
0.217393
0.226687
0.221729
0.167921
0.149558
0.217642
0.220521
0.218493
0.226473
0.229802
0.232036
0.233391
0.234633
0.235438
0.235729
0.234796
0.232722
0.231597
0.229364
0.226636
0.22306
0.219644
0.216805
0.214432
0.214504
0.218547
0.227335
0.223536
0.167106
0.151528
0.219206
0.221633
0.218766
0.225841
0.229142
0.231749
0.233175
0.234669
0.235612
0.235946
0.234894
0.233347
0.232503
0.230088
0.226886
0.223314
0.219854
0.216693
0.214447
0.21539
0.219546
0.228903
0.223553
0.165316
0.153172
0.220551
0.222666
0.218985
0.225103
0.228254
0.231091
0.233001
0.234313
0.235271
0.235604
0.234938
0.233664
0.232697
0.230009
0.226737
0.223075
0.219724
0.216875
0.214899
0.216
0.220149
0.227857
0.223252
0.163023
0.154202
0.221594
0.22349
0.219457
0.224579
0.22741
0.230539
0.232533
0.233986
0.234979
0.235271
0.234856
0.233913
0.232851
0.229944
0.226662
0.223004
0.219463
0.216927
0.215254
0.21642
0.220311
0.228142
0.222052
0.16095
0.154733
0.222382
0.224204
0.21995
0.22428
0.226748
0.230013
0.232226
0.233943
0.234982
0.235322
0.234959
0.234019
0.233183
0.230426
0.2269
0.222946
0.21926
0.216869
0.215469
0.216703
0.220736
0.227218
0.222045
0.159733
0.154062
0.22302
0.224693
0.220224
0.223906
0.226328
0.229908
0.232543
0.234556
0.235406
0.235591
0.235153
0.233909
0.233168
0.230852
0.227381
0.223388
0.219467
0.217334
0.215897
0.217437
0.221457
0.228571
0.22218
0.158527
0.152323
0.22287
0.224811
0.220286
0.223653
0.226476
0.230539
0.233503
0.235059
0.235602
0.235757
0.23515
0.233802
0.233076
0.231158
0.227904
0.223768
0.220187
0.2183
0.217065
0.218422
0.222135
0.228338
0.22322
0.156717
0.150692
0.222277
0.224885
0.220358
0.223948
0.227099
0.231443
0.234144
0.235582
0.235714
0.235758
0.235283
0.233674
0.232602
0.231152
0.228315
0.224343
0.221146
0.219306
0.217985
0.219356
0.222342
0.229134
0.223477
0.154607
0.149181
0.22165
0.22512
0.220982
0.224793
0.228068
0.232219
0.234598
0.235703
0.235654
0.235419
0.235044
0.233286
0.232019
0.230755
0.228736
0.225798
0.222268
0.220196
0.218839
0.220094
0.2227
0.228815
0.22433
0.152361
0.148155
0.221214
0.225758
0.222237
0.225831
0.229
0.232752
0.234486
0.235339
0.235306
0.235296
0.234743
0.232847
0.231562
0.230463
0.22883
0.226402
0.223448
0.221234
0.219626
0.22079
0.22307
0.230117
0.225152
0.150369
0.147425
0.221175
0.226681
0.223718
0.227117
0.229376
0.232725
0.234317
0.235394
0.235581
0.235077
0.234218
0.232279
0.231474
0.230806
0.229171
0.226811
0.224209
0.221822
0.220185
0.22151
0.223541
0.230443
0.22672
0.148813
0.147028
0.221743
0.228093
0.225209
0.228307
0.230004
0.232811
0.234327
0.235647
0.235671
0.234982
0.23397
0.232656
0.232407
0.2314
0.229512
0.227163
0.224423
0.221948
0.220267
0.221858
0.224179
0.231886
0.228245
0.147362
0.148809
0.224659
0.230918
0.228191
0.231241
0.232331
0.234811
0.236117
0.237159
0.237232
0.236979
0.236593
0.235554
0.235111
0.233783
0.231789
0.229227
0.226056
0.223502
0.221979
0.223777
0.226457
0.233936
0.231428
0.147667
0.152344
0.229441
0.234581
0.231699
0.234659
0.235795
0.237991
0.238974
0.239785
0.240062
0.24031
0.240031
0.238879
0.238474
0.237018
0.234604
0.231718
0.228387
0.226259
0.225021
0.227112
0.229891
0.237963
0.23486
0.149574
0.156333
0.234099
0.237799
0.234808
0.237809
0.239177
0.241277
0.241723
0.24248
0.242899
0.243332
0.242785
0.241935
0.241348
0.239596
0.237131
0.234075
0.230922
0.22936
0.228668
0.231065
0.233562
0.241236
0.23839
0.151748
0.160161
0.238099
0.240989
0.237864
0.241181
0.24254
0.244186
0.244395
0.244983
0.245562
0.245814
0.245909
0.244896
0.244008
0.241995
0.239679
0.237034
0.234409
0.23322
0.232638
0.235008
0.237012
0.244715
0.241011
0.153729
0.163863
0.241919
0.244339
0.241202
0.244925
0.246297
0.247502
0.247155
0.247771
0.248451
0.248769
0.248644
0.247798
0.246681
0.245034
0.243133
0.241357
0.238688
0.237234
0.236366
0.238342
0.239863
0.247175
0.243475
0.155241
0.167763
0.245248
0.247822
0.24479
0.248393
0.250023
0.250904
0.250193
0.250668
0.251226
0.251187
0.251246
0.250597
0.250255
0.24865
0.247183
0.245534
0.242965
0.241046
0.239921
0.241153
0.242395
0.250146
0.245934
0.156399
0.171932
0.248429
0.251016
0.247919
0.251395
0.252762
0.253934
0.253528
0.253866
0.254096
0.254473
0.254834
0.254632
0.25383
0.252214
0.250774
0.249439
0.246691
0.244837
0.243292
0.24425
0.245198
0.253141
0.249012
0.157214
0.17587
0.251037
0.2539
0.250886
0.254031
0.255108
0.256444
0.256668
0.25722
0.25758
0.258402
0.259011
0.258202
0.257336
0.255598
0.254131
0.252254
0.249982
0.248344
0.246875
0.247608
0.248708
0.256308
0.251689
0.15798
0.179151
0.253552
0.256635
0.25365
0.256526
0.257413
0.25882
0.259432
0.261015
0.262082
0.263176
0.263283
0.262209
0.260742
0.259217
0.257244
0.255102
0.252882
0.251396
0.249772
0.250847
0.25203
0.259314
0.254592
0.158752
0.182232
0.256521
0.260093
0.256688
0.259272
0.260112
0.261767
0.262928
0.264711
0.266267
0.267477
0.267564
0.26609
0.264592
0.262764
0.261051
0.258973
0.256504
0.254833
0.253279
0.254282
0.255361
0.261986
0.257566
0.159838
0.185665
0.260247
0.264198
0.260833
0.263039
0.263873
0.26571
0.266967
0.268796
0.269929
0.27069
0.270623
0.270031
0.268672
0.267108
0.265145
0.263608
0.261381
0.259612
0.257663
0.2581
0.25847
0.264349
0.260833
0.161428
0.188738
0.262335
0.267013
0.264327
0.266389
0.267327
0.269062
0.270234
0.271601
0.271916
0.272089
0.272253
0.272192
0.271556
0.269633
0.267608
0.266027
0.264612
0.263156
0.260817
0.260037
0.259353
0.265552
0.26173
0.16345
0.189856
0.259535
0.262825
0.260506
0.262557
0.2632
0.264475
0.265365
0.266388
0.26642
0.26621
0.26607
0.266216
0.265892
0.264552
0.262778
0.2614
0.260225
0.259058
0.256767
0.255079
0.253183
0.257989
0.256045
0.16467
0.204965
0.261918
0.257228
0.254765
0.255071
0.254872
0.255245
0.255893
0.256576
0.25648
0.255735
0.255085
0.255329
0.255866
0.256365
0.256723
0.257518
0.25792
0.257428
0.255937
0.253846
0.25054
0.251833
0.255974
0.183157
0.401533
0.412043
0.396876
0.39549
0.394159
0.390993
0.388099
0.386375
0.385193
0.384986
0.38414
0.384003
0.385198
0.38726
0.390825
0.394301
0.398397
0.402443
0.403923
0.405882
0.406549
0.403675
0.406663
0.418988
0.401256
0.824243
0.789694
0.773598
0.773289
0.774512
0.774286
0.777702
0.781715
0.78115
0.779869
0.7761
0.775185
0.775426
0.776465
0.777814
0.782951
0.789399
0.793424
0.796656
0.79853
0.800516
0.801119
0.801061
0.815236
0.844701
0.988297
0.981633
0.978147
0.977993
0.978259
0.97833
0.978604
0.978911
0.978827
0.978721
0.97826
0.97828
0.978447
0.978697
0.979042
0.979937
0.980642
0.981186
0.981748
0.981997
0.982116
0.982072
0.982169
0.985196
0.99073
0.999945
0.999798
0.999535
0.99943
0.999438
0.999463
0.999489
0.999507
0.999514
0.999517
0.999512
0.999509
0.999511
0.999516
0.999528
0.999545
0.999556
0.999563
0.999566
0.999558
0.999542
0.999531
0.999594
0.999821
0.99996
1
1
0.999998
0.999997
0.999996
0.999997
0.999997
0.999998
0.999998
0.999998
0.999998
0.999998
0.999998
0.999998
0.999998
0.999998
0.999998
0.999998
0.999997
0.999997
0.999997
0.999997
0.999998
1
1
1
1
1
1
1
1
1
1
1
1
1
1
1
1
1
1
1
1
1
1
1
1
1
1
1
1
1
1
1
1
1
1
1
1
1
1
1
1
1
1
1
1
1
1
1
1
1
1
1
1
1
1
1
1
1
1
1
1
1
1
1
1
1
1
1
1
1
1
1
1
1
1
1
1
1
)
;

boundaryField
{
    inlet
    {
        type            calculated;
        value           uniform 0.5;
    }
    outlet
    {
        type            calculated;
        value           nonuniform List<scalar> 
25
(
1
1
1
1
1
1
1
1
1
1
1
1
1
1
1
1
1
1
1
1
1
1
1
1
1
)
;
    }
    walls
    {
        type            calculated;
        value           nonuniform List<scalar> 
150
(
0.243393
0.192175
0.159618
0.123827
0.101576
0.0950834
0.0956805
0.0995632
0.108271
0.120334
0.131731
0.14041
0.14614
0.149731
0.152179
0.153246
0.153767
0.154924
0.156867
0.159969
0.164246
0.169607
0.17588
0.183148
0.192368
0.198608
0.20097
0.200188
0.196555
0.188706
0.17738
0.165865
0.157458
0.153066
0.150834
0.14927
0.14777
0.146321
0.145424
0.145553
0.146953
0.149558
0.151528
0.153172
0.154202
0.154733
0.154062
0.152323
0.150692
0.149181
0.148155
0.147425
0.147028
0.148809
0.152344
0.156333
0.160161
0.163863
0.167763
0.171932
0.17587
0.179151
0.182232
0.185665
0.188738
0.189856
0.204965
0.401533
0.824243
0.988297
0.999945
1
1
1
1
0.239433
0.169682
0.16343
0.163256
0.164166
0.166587
0.171287
0.17781
0.183335
0.187071
0.190741
0.197939
0.208014
0.212552
0.209832
0.196061
0.171119
0.148215
0.136661
0.133643
0.133828
0.136018
0.139946
0.143813
0.146605
0.148306
0.149469
0.150558
0.152013
0.154246
0.156963
0.160141
0.163218
0.165173
0.166751
0.167821
0.168452
0.168456
0.167903
0.167673
0.167921
0.167106
0.165316
0.163023
0.16095
0.159733
0.158527
0.156717
0.154607
0.152361
0.150369
0.148813
0.147362
0.147667
0.149574
0.151748
0.153729
0.155241
0.156399
0.157214
0.15798
0.158752
0.159838
0.161428
0.16345
0.16467
0.183157
0.401256
0.844701
0.99073
0.99996
1
1
1
1
)
;
    }
    defaultFaces
    {
        type            empty;
    }
}


// ************************************************************************* //
