/*--------------------------------*- C++ -*----------------------------------*\
| =========                 |                                                 |
| \\      /  F ield         | OpenFOAM: The Open Source CFD Toolbox           |
|  \\    /   O peration     | Version:  2.3.0                                 |
|   \\  /    A nd           | Web:      www.OpenFOAM.org                      |
|    \\/     M anipulation  |                                                 |
\*---------------------------------------------------------------------------*/
FoamFile
{
    version     2.0;
    format      ascii;
    class       volScalarField;
    location    "77";
    object      nut.water;
}
// * * * * * * * * * * * * * * * * * * * * * * * * * * * * * * * * * * * * * //

dimensions      [0 2 -1 0 0 0 0];

internalField   nonuniform List<scalar> 
1875
(
0.00101485
0.00106808
0.00115734
0.00123982
0.00131451
0.00137968
0.00143602
0.00148452
0.00152641
0.00156304
0.00159558
0.00162375
0.0016471
0.00166624
0.00167325
0.00167515
0.00166481
0.0016323
0.00158094
0.00151061
0.00142214
0.0013152
0.00118622
0.00102473
0.000832069
0.00106505
0.00123412
0.00137432
0.00147329
0.00154262
0.00158967
0.00162086
0.00164135
0.0016538
0.00165931
0.00166567
0.00167114
0.00167616
0.00168204
0.00168737
0.00169176
0.00169218
0.00167746
0.00164924
0.00159112
0.00150503
0.00138786
0.0012307
0.00102459
0.000788607
0.00135764
0.00155951
0.00170835
0.00180055
0.00185294
0.00187662
0.00188179
0.00187467
0.0018595
0.00184043
0.00182088
0.00180183
0.00178201
0.00176444
0.00174907
0.00173312
0.00171516
0.00169261
0.00166232
0.00161024
0.00153213
0.00142798
0.00129271
0.00113666
0.000993805
0.00175637
0.00196166
0.00206053
0.00209691
0.00209852
0.00208013
0.00205206
0.00201772
0.00198147
0.00194547
0.00191048
0.00187601
0.00184314
0.00181311
0.00178523
0.00175827
0.00173014
0.00169713
0.0016574
0.00160169
0.00152509
0.00142881
0.00131439
0.0011871
0.00106597
0.00222712
0.00229268
0.00228903
0.00225934
0.00221522
0.00216394
0.00211075
0.00205914
0.00201089
0.0019662
0.00192424
0.00188461
0.00184731
0.00181243
0.00177996
0.00174754
0.00171135
0.00167224
0.00162658
0.00157006
0.00149975
0.00141369
0.00131354
0.00120717
0.00110456
0.00251969
0.00250584
0.00243851
0.00235461
0.00226683
0.00218213
0.00210494
0.00203744
0.00197904
0.00192942
0.00188694
0.00184863
0.00181243
0.00177713
0.00174046
0.001702
0.00166445
0.0016262
0.00158033
0.00152565
0.00146171
0.0013863
0.00130395
0.00121767
0.00113281
0.00266747
0.00260746
0.00249264
0.0023726
0.00225663
0.00215017
0.00205575
0.00197563
0.0019109
0.00185849
0.00181553
0.00177856
0.00174418
0.0017103
0.0016769
0.00164431
0.00161018
0.00157462
0.00153075
0.00148157
0.00142602
0.00136219
0.00129432
0.00122489
0.0011575
0.00281494
0.0026838
0.00252037
0.00236701
0.00222673
0.00209644
0.00198673
0.00189762
0.00182515
0.00177129
0.00173073
0.00169677
0.00166522
0.00163762
0.00161033
0.00158454
0.0015581
0.00152482
0.00148558
0.00144133
0.00139202
0.00133618
0.00127822
0.00121754
0.0011516
0.00285111
0.00269631
0.0025091
0.00233887
0.00217904
0.00203513
0.00191352
0.00181573
0.00173774
0.00168965
0.00165219
0.00162186
0.00159802
0.0015765
0.00155676
0.00153711
0.00151061
0.00147889
0.00144359
0.00140433
0.00136018
0.00130978
0.00125612
0.00119694
0.00112971
0.00288618
0.00269768
0.00249505
0.00231143
0.00213468
0.00197714
0.0018463
0.00174123
0.00166894
0.00162269
0.00159467
0.00157459
0.00155604
0.00153978
0.00152336
0.00150289
0.00147972
0.0014532
0.00142183
0.00138486
0.00134231
0.0012935
0.00123918
0.00117691
0.00110503
0.00293458
0.00270598
0.00248251
0.00228698
0.0021027
0.00194113
0.0018101
0.00171093
0.00164206
0.00160199
0.00157662
0.00155946
0.00154737
0.00153752
0.00152568
0.00151037
0.00149016
0.00146419
0.00143215
0.00139391
0.00134839
0.00129685
0.00123758
0.00116909
0.00109064
0.00294769
0.00269485
0.0024636
0.00226636
0.00208625
0.00193115
0.00180749
0.00171688
0.00165804
0.00162496
0.00160799
0.00159935
0.0015941
0.00158838
0.00157937
0.00156519
0.00154453
0.00151662
0.00148069
0.0014372
0.00138547
0.00132522
0.0012553
0.00117415
0.00108073
0.00279163
0.00260447
0.00241317
0.00224019
0.00207906
0.00193896
0.00182759
0.00174994
0.0017035
0.00168129
0.00167457
0.00167543
0.00167796
0.00167773
0.00167149
0.00165769
0.00163602
0.00160505
0.00156438
0.00151376
0.00145297
0.00138158
0.00129865
0.00120158
0.00108891
0.00257005
0.00247093
0.00234227
0.00220888
0.00207783
0.00196138
0.00187086
0.00181
0.00177767
0.00176715
0.0017698
0.00177799
0.00178594
0.00178946
0.00178522
0.00177313
0.00175124
0.00171857
0.00167446
0.00161838
0.00154981
0.00146855
0.00137616
0.00126877
0.0011535
0.00239615
0.00235337
0.00227533
0.00218213
0.00208393
0.00199408
0.00192414
0.00187991
0.0018605
0.00185981
0.00187004
0.00188425
0.00189723
0.00190538
0.00190549
0.00189727
0.00187868
0.00184836
0.0018052
0.00174805
0.0016762
0.00158932
0.00148698
0.00136641
0.00124046
0.00231539
0.00228738
0.00223433
0.00216806
0.00209617
0.00203009
0.00197924
0.00194966
0.00194068
0.00194712
0.00196278
0.00198196
0.00200009
0.0020139
0.00202053
0.00201916
0.00200798
0.00198486
0.00194821
0.00189615
0.00182646
0.0017369
0.001625
0.00148746
0.00133607
0.00226323
0.00224678
0.00221226
0.00216707
0.00211554
0.00206798
0.00203198
0.00201319
0.00201176
0.0020235
0.00204321
0.00206626
0.00208912
0.0021091
0.0021235
0.00213084
0.00213
0.00211868
0.00209492
0.00205626
0.00199995
0.00192139
0.0018149
0.00167328
0.00149217
0.00223761
0.00222877
0.0022073
0.0021754
0.00213885
0.00210488
0.00207973
0.00206842
0.00207159
0.00208638
0.00210885
0.00213512
0.00216205
0.00218725
0.00220881
0.00222485
0.00223439
0.00223583
0.00222788
0.00220892
0.00217658
0.00212713
0.00205352
0.0019454
0.00177925
0.0022478
0.00223595
0.00221845
0.00219661
0.00217072
0.00214554
0.0021266
0.00211863
0.00212296
0.00213839
0.00216172
0.00218958
0.00221912
0.00224811
0.00227466
0.00229722
0.00231443
0.0023252
0.00232933
0.00232685
0.00231652
0.0022964
0.00226332
0.00221498
0.00213631
0.00227322
0.00225866
0.00224342
0.00222594
0.0022068
0.00218752
0.00217236
0.00216494
0.00216811
0.00218175
0.00220416
0.00223217
0.00226294
0.00229417
0.0023239
0.00235054
0.00237276
0.00238957
0.00240087
0.00240649
0.0024064
0.00240007
0.00238661
0.00236986
0.00234729
0.00224915
0.00224997
0.00224622
0.00223804
0.00222853
0.00221623
0.00220602
0.0022004
0.00220309
0.00221543
0.00223609
0.00226323
0.00229468
0.00232756
0.00235976
0.00238952
0.00241532
0.00243625
0.00245166
0.0024614
0.0024644
0.00245932
0.00244395
0.00242024
0.00238909
0.00218518
0.00220011
0.00221133
0.00221581
0.00221612
0.00221522
0.00221384
0.00221469
0.00221949
0.00223229
0.00225329
0.00227985
0.00231295
0.0023484
0.00238375
0.00241698
0.00244646
0.00247093
0.00248933
0.00250067
0.00250379
0.00249615
0.00247402
0.00243778
0.00239073
0.00202973
0.00207226
0.00210973
0.00213994
0.0021634
0.00217861
0.00218733
0.0021978
0.0022107
0.00222821
0.00225155
0.00228039
0.00231633
0.00235588
0.00239597
0.00243411
0.00246837
0.00249757
0.00251995
0.00253428
0.00253854
0.00253088
0.00250656
0.00246304
0.00240427
0.00177618
0.00186936
0.00194456
0.00200723
0.00205778
0.00209943
0.00213256
0.00215647
0.0021782
0.00220014
0.00222847
0.00226395
0.00230535
0.00235073
0.00239694
0.00244142
0.0024824
0.00251782
0.00254609
0.00256557
0.00257454
0.00257075
0.0025509
0.00251227
0.00245875
0.00155071
0.00168092
0.00178896
0.00187708
0.00194999
0.00200764
0.00205566
0.00209728
0.00213308
0.00216763
0.00220226
0.00224114
0.00228705
0.00233815
0.00239131
0.00244302
0.00249067
0.00253336
0.00256923
0.00259575
0.00261197
0.00261595
0.00260558
0.00257969
0.00254126
0.00142204
0.00157623
0.0017042
0.00180799
0.00189107
0.00195706
0.00201021
0.00205542
0.00209666
0.0021365
0.00217854
0.00222349
0.00227296
0.00232745
0.00238525
0.00244356
0.0024978
0.00254744
0.00259089
0.00262551
0.00265018
0.0026637
0.00266453
0.00265419
0.00263407
0.00139736
0.0015617
0.0017008
0.00181404
0.00190101
0.00196806
0.00201863
0.00206053
0.00209863
0.00213687
0.0021777
0.00222311
0.00227345
0.00232854
0.0023877
0.00244898
0.00250853
0.00256364
0.00261364
0.00265621
0.00268905
0.00271213
0.00272457
0.00272963
0.00272799
0.00144502
0.00161761
0.00176339
0.00187973
0.00196804
0.00203192
0.00207551
0.00210796
0.00213574
0.00216437
0.00219831
0.00223911
0.0022875
0.0023424
0.00240197
0.00246423
0.0025264
0.00258524
0.00264025
0.0026889
0.00272877
0.00275988
0.00278223
0.00280198
0.00281791
0.00154935
0.00172719
0.00187706
0.00199357
0.00207833
0.00213526
0.00216992
0.00219082
0.00220646
0.00222376
0.00224836
0.00228184
0.00232445
0.00237507
0.00243183
0.00249243
0.00255426
0.0026143
0.00267154
0.00272347
0.00276764
0.00280392
0.00283352
0.00286573
0.002896
0.00170481
0.00188016
0.00202652
0.0021391
0.00221743
0.00226524
0.00228977
0.0022996
0.00230338
0.00230871
0.00232228
0.00234597
0.00238009
0.00242353
0.00247455
0.00253083
0.0025896
0.00264837
0.00270548
0.00275831
0.00280445
0.0028434
0.00287751
0.00291776
0.00295841
0.00190935
0.00206836
0.0022025
0.00230572
0.0023729
0.00240924
0.00242225
0.00242072
0.00241304
0.002407
0.0024096
0.00242307
0.00244806
0.00248373
0.00252819
0.00257892
0.00263305
0.00268809
0.00274201
0.00279258
0.00283734
0.0028755
0.00291044
0.00295435
0.00300377
0.00214645
0.00228268
0.00239686
0.00248439
0.00253741
0.00256024
0.00256038
0.00254678
0.00252773
0.00251152
0.00250419
0.00250825
0.00252445
0.00255202
0.00258905
0.00263294
0.0026809
0.00273032
0.00277891
0.00282441
0.00286442
0.00289761
0.00292716
0.00296375
0.00300283
0.00239255
0.00251403
0.00260811
0.00267476
0.00270984
0.00271622
0.00270166
0.00267498
0.00264486
0.00261882
0.00260223
0.00259762
0.00260537
0.00262484
0.00265419
0.0026907
0.0027316
0.00277409
0.00281591
0.00285446
0.00288714
0.00291221
0.00293271
0.00295892
0.00298644
0.00269907
0.00278503
0.00284433
0.00287996
0.00289038
0.00287647
0.00284501
0.00280439
0.0027631
0.00272763
0.0027023
0.00268956
0.00268932
0.00270103
0.00272278
0.0027519
0.00278555
0.00282096
0.00285563
0.00288667
0.00291097
0.00292626
0.00293512
0.00294595
0.00295728
0.0030524
0.00308271
0.00309484
0.00309286
0.003074
0.00303741
0.00298799
0.00293379
0.00288168
0.00283729
0.00280394
0.00278359
0.00277626
0.00278085
0.00279562
0.002818
0.00284506
0.00287428
0.00290283
0.00292761
0.00294503
0.00295249
0.00295177
0.00294906
0.00293541
0.00338281
0.00336106
0.00333002
0.00329443
0.00324921
0.00319222
0.00312733
0.00306119
0.00300011
0.00294832
0.00290805
0.0028805
0.00286684
0.0028654
0.00287427
0.00289101
0.00291287
0.00293739
0.00296169
0.00298263
0.0029967
0.00300185
0.00300104
0.00300212
0.00299675
0.00364386
0.00358933
0.00353092
0.00347308
0.00340942
0.00333733
0.00326072
0.00318564
0.00311746
0.00305958
0.00301375
0.0029813
0.00296256
0.00295621
0.0029603
0.00297258
0.00299054
0.0030116
0.00303293
0.00305136
0.00306349
0.00306767
0.00306727
0.00306859
0.00306866
0.00382786
0.00376909
0.0037013
0.00363214
0.00355684
0.00347439
0.00338954
0.00330806
0.00323437
0.00317167
0.00312216
0.00308661
0.00306414
0.00305409
0.00305459
0.00306346
0.00307832
0.00309656
0.00311527
0.00313113
0.0031408
0.00314255
0.00313896
0.00313513
0.00312545
0.00401152
0.00394331
0.00386546
0.00378603
0.00370066
0.00360972
0.00351849
0.00343234
0.00335484
0.00328865
0.00323631
0.00319802
0.00317284
0.00315993
0.00315759
0.00316372
0.00317594
0.0031916
0.00320765
0.00322073
0.0032278
0.00322752
0.00322298
0.00322103
0.0032212
0.00420381
0.00412309
0.00403321
0.00394271
0.00384727
0.00374865
0.00365237
0.00356272
0.00348281
0.00341495
0.00335983
0.00331819
0.00329034
0.00327482
0.00326993
0.00327352
0.0032832
0.0032962
0.00330932
0.00331924
0.00332316
0.00332002
0.00331294
0.00330776
0.00330614
0.00440981
0.00431298
0.00420856
0.0041058
0.00400019
0.00389438
0.00379329
0.00370026
0.00361771
0.00354742
0.00349039
0.00344694
0.00341688
0.00339904
0.0033917
0.00339276
0.00339973
0.00340971
0.00341935
0.00342527
0.00342492
0.00341649
0.00340218
0.00338866
0.00337481
0.00462574
0.00451092
0.00439086
0.00427547
0.00416012
0.00404765
0.0039421
0.00384588
0.0037609
0.00368861
0.00362977
0.00358451
0.00355247
0.00353243
0.0035227
0.00352117
0.0035253
0.00353202
0.0035379
0.00353955
0.00353405
0.00352034
0.00350022
0.00347772
0.00345331
0.00484418
0.00471181
0.00457684
0.00444986
0.00432605
0.00420787
0.0040984
0.00399936
0.00391224
0.00383813
0.00377758
0.0037306
0.00369668
0.00367452
0.00366245
0.00365835
0.00365962
0.0036631
0.00366533
0.00366303
0.00365383
0.00363715
0.00361485
0.00359044
0.00356642
0.0050578
0.00491055
0.00476276
0.00462646
0.0044961
0.00437351
0.00426091
0.00415957
0.00407068
0.00399503
0.00393297
0.00388437
0.00384864
0.00382442
0.00381006
0.00380342
0.00380188
0.00380224
0.00380108
0.0037953
0.00378363
0.00376369
0.00373723
0.00371005
0.00368377
0.0052662
0.005106
0.00494734
0.00480341
0.0046682
0.00454247
0.00442765
0.00432472
0.00423459
0.00415779
0.00409448
0.00404444
0.00400703
0.00398088
0.00396434
0.00395531
0.00395113
0.00394867
0.00394469
0.00393624
0.00392088
0.00389689
0.00386494
0.00382834
0.00378691
0.00546136
0.00529345
0.0051273
0.00497802
0.0048399
0.00471241
0.00459643
0.00449273
0.00440197
0.0043245
0.00426031
0.0042091
0.00417026
0.00414242
0.00412393
0.00411275
0.00410622
0.00410133
0.00409505
0.00408447
0.00406684
0.00404191
0.00401047
0.00397523
0.00393877
0.00564729
0.00547347
0.00530166
0.00514882
0.00500944
0.0048815
0.00476537
0.00466159
0.00457078
0.00449311
0.00442847
0.00437654
0.00433662
0.00430741
0.00428729
0.00427424
0.0042658
0.00425916
0.00425099
0.00423887
0.0042212
0.00419648
0.00416591
0.00413262
0.00409729
0.00581764
0.00564175
0.00546831
0.00531455
0.00517527
0.00504808
0.00493268
0.00482951
0.00473915
0.00466178
0.00459727
0.004545
0.00450439
0.00447422
0.00445294
0.00443872
0.00442864
0.00442019
0.00441105
0.00439855
0.00438057
0.00435627
0.00432721
0.00429611
0.00426414
0.005973
0.00579839
0.00562616
0.00547328
0.00533508
0.00520864
0.00509494
0.00499415
0.00490538
0.00482934
0.00476548
0.00471326
0.00467263
0.00464191
0.00461948
0.00460342
0.00459188
0.00458229
0.00457297
0.00456047
0.00454239
0.00451873
0.00449142
0.00446297
0.00443476
0.00611866
0.00594623
0.0057764
0.0056252
0.00548872
0.00536519
0.00525366
0.00515427
0.00506776
0.00499288
0.00492959
0.00487844
0.00483809
0.00480708
0.00478408
0.00476729
0.00475551
0.00474645
0.00473679
0.00472421
0.0047065
0.00468351
0.00465789
0.00463072
0.004603
0.00625429
0.00608582
0.00591893
0.0057711
0.00563762
0.00551686
0.00540791
0.00531065
0.00522559
0.00515212
0.00509103
0.00504101
0.00500064
0.00497004
0.00494774
0.0049323
0.004921
0.00491181
0.00490212
0.00488988
0.0048729
0.00485113
0.00482746
0.00480249
0.00477782
0.0063923
0.00622268
0.00605674
0.00591031
0.00577904
0.00566022
0.00555426
0.00546076
0.00537823
0.00530815
0.00524928
0.00520074
0.0051624
0.00513324
0.00511193
0.00509685
0.00508588
0.00507683
0.00506826
0.00505724
0.00504181
0.00502207
0.00500077
0.00497763
0.00495362
0.00651706
0.006346
0.00618278
0.00603905
0.00591147
0.0057976
0.0056954
0.0056046
0.00552618
0.00545878
0.00540162
0.00535568
0.00532043
0.0052933
0.00527321
0.00525863
0.00524912
0.00524237
0.00523559
0.00522657
0.00521374
0.00519715
0.00517924
0.00515918
0.00513722
0.00658195
0.00643698
0.00628874
0.00615534
0.00603496
0.00592651
0.00582929
0.00574314
0.00566815
0.00560362
0.00555068
0.00550761
0.00547369
0.00544869
0.00543122
0.00542014
0.00541308
0.00540841
0.00540401
0.00539789
0.0053888
0.0053768
0.00536408
0.00534957
0.00533286
0.0067099
0.00655268
0.00640164
0.00626904
0.00615178
0.00604722
0.00595488
0.00587414
0.0058034
0.0057442
0.00569517
0.00565575
0.00562533
0.00560334
0.00558871
0.00558014
0.00557576
0.00557393
0.00557281
0.00557065
0.00556638
0.00556026
0.00555401
0.00554654
0.00553688
0.00680465
0.00664401
0.00649622
0.00636789
0.00625672
0.00615967
0.00607346
0.00599756
0.00593298
0.00587833
0.0058329
0.00579761
0.00577184
0.00575364
0.00574222
0.00573635
0.00573577
0.00573788
0.00574084
0.00574346
0.005745
0.00574554
0.00574673
0.00574748
0.0057463
0.00679577
0.0066806
0.00655959
0.00644937
0.00635036
0.00626225
0.00618381
0.00611495
0.00605598
0.00600615
0.00596662
0.00593583
0.00591312
0.00589862
0.00589131
0.00589031
0.00589348
0.00589963
0.00590714
0.00591506
0.00592274
0.00593038
0.00593968
0.00594969
0.00595811
0.00688865
0.00675946
0.0066377
0.00653164
0.00643883
0.00635708
0.00628592
0.00622475
0.00617196
0.00612913
0.00609504
0.00606924
0.00605141
0.00604122
0.00603789
0.00604046
0.00604743
0.00605791
0.00607026
0.00608374
0.00609776
0.0061126
0.0061298
0.00614857
0.00616601
0.00693331
0.00680974
0.00669753
0.00660044
0.00651706
0.00644522
0.00638217
0.00632749
0.00628224
0.00624518
0.00621585
0.00619531
0.00618315
0.00617756
0.00617816
0.00618407
0.00619555
0.00621071
0.00622834
0.0062477
0.00626831
0.00629055
0.00631591
0.00634353
0.00636962
0.00688931
0.00681418
0.00673177
0.00665519
0.00658578
0.00652435
0.00647032
0.00642365
0.00638469
0.00635298
0.00632981
0.00631422
0.00630524
0.00630355
0.00630854
0.00631973
0.00633552
0.00635537
0.00637857
0.00640425
0.00643207
0.00646247
0.00649666
0.00653352
0.00656804
0.00695268
0.0068667
0.00678509
0.00671328
0.00665018
0.00659514
0.00654841
0.00650953
0.00647705
0.00645255
0.00643495
0.00642397
0.00641942
0.00642144
0.00642968
0.00644378
0.00646301
0.00648725
0.00651598
0.00654857
0.0065849
0.00662542
0.00667083
0.00671928
0.00676331
0.00698618
0.00690277
0.00682624
0.00675936
0.00670253
0.00665503
0.00661519
0.00658239
0.00655696
0.00653821
0.00652518
0.00651772
0.00651718
0.00652199
0.0065322
0.00654766
0.00656955
0.00659747
0.0066314
0.00667148
0.00671837
0.00677303
0.00683614
0.00690523
0.0069691
0.0069728
0.00691172
0.00684541
0.00678608
0.00673546
0.00669442
0.00666158
0.00663582
0.00661695
0.00660332
0.00659547
0.00659235
0.00659345
0.0065991
0.00660949
0.00662511
0.00664624
0.00667399
0.00670988
0.0067556
0.00681363
0.00688694
0.00697789
0.00708494
0.00719089
0.00705065
0.00694534
0.00685289
0.00678198
0.00673071
0.00669526
0.00667185
0.00665728
0.00664862
0.00664433
0.00664327
0.00664493
0.0066479
0.00665254
0.00665908
0.00666833
0.00668128
0.00670042
0.00672892
0.00677116
0.00683319
0.00692307
0.00704982
0.00721967
0.00741228
0.00709072
0.0068933
0.00675942
0.00668054
0.00663988
0.00662391
0.00662295
0.0066303
0.00664144
0.00665355
0.00666433
0.00667257
0.00667774
0.00667941
0.00667769
0.00667326
0.00666778
0.00666398
0.00666629
0.00668142
0.00671978
0.00679736
0.00693752
0.00716993
0.00749483
0.00674595
0.00650754
0.00640798
0.00639116
0.00641646
0.00646111
0.00651211
0.00656206
0.00660682
0.00664412
0.00667255
0.0066913
0.0066997
0.0066975
0.00668443
0.00666048
0.00662601
0.00658247
0.00653283
0.00648256
0.00644168
0.00642825
0.00647469
0.00664054
0.00699572
0.00544875
0.00554735
0.00573146
0.00592585
0.00610538
0.00626213
0.00639446
0.00650353
0.00659111
0.00665879
0.00670775
0.00673888
0.00675229
0.00674763
0.00672415
0.00668059
0.00661543
0.00652653
0.00641172
0.00626847
0.00609537
0.00589386
0.00567303
0.0054602
0.00533944
0.00351138
0.00441419
0.00508416
0.00555832
0.00590536
0.00616705
0.00636824
0.00652427
0.00664466
0.00673547
0.00680053
0.00684219
0.00686152
0.00685789
0.00683042
0.0067768
0.00669341
0.0065749
0.00641387
0.00619945
0.00591507
0.00553581
0.00502314
0.00431516
0.00339686
0.00596262
0.00576383
0.00585684
0.00603581
0.00624166
0.00644056
0.00661662
0.00676484
0.00688516
0.00697928
0.00704915
0.00709631
0.00712178
0.00712428
0.00710327
0.00705649
0.00698047
0.00687057
0.00672169
0.0065306
0.00629927
0.00604416
0.00581224
0.00569126
0.00591875
0.0144323
0.00857046
0.00715234
0.00671078
0.00665825
0.00674434
0.00687216
0.00699768
0.00710757
0.00719803
0.00726858
0.00731993
0.0073542
0.00736764
0.0073618
0.00733512
0.00728386
0.00720118
0.00708083
0.00692631
0.00676838
0.00670375
0.00698229
0.00843609
0.0153575
0.0499084
0.0164423
0.00897681
0.00735181
0.00703493
0.00708118
0.00719121
0.00729226
0.00738009
0.00745611
0.00751895
0.00757161
0.0076183
0.00765119
0.00767387
0.007689
0.00768621
0.00762581
0.00746876
0.0072242
0.00695193
0.00690887
0.00765323
0.0117584
0.0288525
0.0426839
0.0178581
0.00938067
0.00718545
0.00648213
0.00591691
0.00550356
0.0053414
0.00529461
0.00528237
0.00527145
0.00523768
0.00518492
0.00514808
0.00515026
0.00519965
0.00540202
0.00596907
0.00693088
0.00756333
0.00758746
0.0072715
0.00808538
0.0133101
0.0314415
0.0189213
0.0135552
0.00809723
0.00487651
0.00300133
0.00161391
0.00101486
0.000817202
0.000769335
0.000745757
0.000716673
0.000661557
0.000593268
0.000537751
0.000515882
0.000526482
0.000626541
0.00103337
0.00226293
0.00427202
0.0057198
0.00630638
0.00755648
0.0116398
0.0171184
0.0116005
0.0104678
0.00529827
0.00185818
0.000475899
5.8087e-05
1.72541e-05
9.48281e-06
7.5385e-06
6.3993e-06
5.33951e-06
4.12542e-06
3.24148e-06
3.08018e-06
3.81413e-06
1.21437e-05
7.68022e-05
0.00033345
0.00112172
0.00327577
0.00526267
0.00605182
0.007252
0.0106662
0.0123908
0.00595185
0.0061748
0.00312184
0.000615824
9.11768e-06
6.96401e-07
6.62329e-07
6.48295e-07
6.43068e-07
6.47294e-07
6.56644e-07
6.69555e-07
6.87288e-07
7.67023e-07
9.31667e-07
1.55358e-06
4.9237e-05
0.000413245
0.0015175
0.00314284
0.00473146
0.0055589
0.00676262
0.00861172
0.00754782
)
;

boundaryField
{
    inlet
    {
        type            calculated;
        value           uniform 8.4375e-07;
    }
    outlet
    {
        type            calculated;
        value           nonuniform List<scalar> 
25
(
0.00595185
0.0061748
0.00312184
0.000615824
8.4375e-07
8.4375e-07
8.4375e-07
8.4375e-07
8.4375e-07
8.4375e-07
8.4375e-07
8.4375e-07
8.4375e-07
8.4375e-07
8.4375e-07
8.4375e-07
8.4375e-07
8.4375e-07
0.0015175
0.00314284
0.00473146
0.0055589
0.00676262
0.00861172
0.00754782
)
;
    }
    walls
    {
        type            nutkWallFunction;
        Cmu             0.09;
        kappa           0.41;
        E               9.8;
        value           nonuniform List<scalar> 
150
(
1.67982e-05
1.91025e-05
1.97886e-05
2.00181e-05
2.02042e-05
2.05737e-05
2.09336e-05
2.12485e-05
2.14306e-05
2.15618e-05
2.15539e-05
2.14754e-05
2.13956e-05
2.13128e-05
2.12184e-05
2.11245e-05
2.10643e-05
2.1034e-05
2.10163e-05
2.1002e-05
2.09614e-05
2.08325e-05
2.05688e-05
2.02073e-05
1.98381e-05
1.96174e-05
1.95934e-05
1.97736e-05
2.01003e-05
2.04935e-05
2.08938e-05
2.12546e-05
2.15978e-05
2.19326e-05
2.22395e-05
2.2517e-05
2.27605e-05
2.29775e-05
2.31783e-05
2.33712e-05
2.35597e-05
2.37463e-05
2.39297e-05
2.41022e-05
2.42624e-05
2.44168e-05
2.45645e-05
2.47071e-05
2.48478e-05
2.4986e-05
2.51216e-05
2.52527e-05
2.53817e-05
2.55043e-05
2.56202e-05
2.57361e-05
2.58488e-05
2.5961e-05
2.60823e-05
2.62122e-05
2.63586e-05
2.65377e-05
2.67576e-05
2.70377e-05
2.74087e-05
2.79203e-05
2.86738e-05
2.97248e-05
2.97702e-05
2.91946e-05
2.738e-05
2.58516e-05
2.47404e-05
2.40693e-05
2.26364e-05
1.42648e-05
1.68713e-05
1.77924e-05
1.82184e-05
1.83955e-05
1.84601e-05
1.84415e-05
1.83762e-05
1.82432e-05
1.81204e-05
1.8099e-05
1.82298e-05
1.8548e-05
1.89878e-05
1.94492e-05
1.98357e-05
2.01544e-05
2.04864e-05
2.07907e-05
2.10173e-05
2.11479e-05
2.12312e-05
2.12948e-05
2.13595e-05
2.14341e-05
2.15175e-05
2.16073e-05
2.1693e-05
2.17569e-05
2.18e-05
2.1833e-05
2.18614e-05
2.18904e-05
2.19329e-05
2.20004e-05
2.21e-05
2.22308e-05
2.23622e-05
2.24884e-05
2.26309e-05
2.2783e-05
2.2948e-05
2.31274e-05
2.33085e-05
2.34979e-05
2.36947e-05
2.38935e-05
2.4093e-05
2.42908e-05
2.44857e-05
2.46773e-05
2.48656e-05
2.50507e-05
2.5233e-05
2.54126e-05
2.55903e-05
2.5768e-05
2.59481e-05
2.61344e-05
2.63321e-05
2.65488e-05
2.67941e-05
2.70811e-05
2.74292e-05
2.78744e-05
2.84874e-05
2.94056e-05
3.06708e-05
3.08317e-05
3.04108e-05
2.90342e-05
2.7498e-05
2.63803e-05
2.60231e-05
2.52635e-05
)
;
    }
    defaultFaces
    {
        type            empty;
    }
}


// ************************************************************************* //
