/*--------------------------------*- C++ -*----------------------------------*\
| =========                 |                                                 |
| \\      /  F ield         | OpenFOAM: The Open Source CFD Toolbox           |
|  \\    /   O peration     | Version:  2.3.0                                 |
|   \\  /    A nd           | Web:      www.OpenFOAM.org                      |
|    \\/     M anipulation  |                                                 |
\*---------------------------------------------------------------------------*/
FoamFile
{
    version     2.0;
    format      ascii;
    class       volScalarField;
    location    "1.51";
    object      alpha.particles;
}
// * * * * * * * * * * * * * * * * * * * * * * * * * * * * * * * * * * * * * //

dimensions      [0 0 0 0 0 0 0];

internalField   nonuniform List<scalar> 
6000
(
0.472005
0.472005
0.472005
0.471006
0.453531
0.415387
0.418753
0.453071
0.446794
0.440129
0.435195
0.458041
0.458208
0.458412
0.468112
0.471598
0.472093
0.472093
0.472093
0.472093
0.470547
0.468849
0.474071
0.474207
0.474205
0.457065
0.421272
0.397318
0.392788
0.353665
0.467294
0.453795
0.436379
0.414726
0.393883
0.393732
0.393583
0.393435
0.382364
0.359212
0.333638
0.3886
0.406132
0.406286
0.409745
0.425753
0.44774
0.461322
0.471851
0.471085
0.469046
0.468849
0.469046
0.474257
0.440449
0.4153
0.383684
0.35392
0.35392
0.353664
0.496975
0.497169
0.49701
0.490762
0.466687
0.451684
0.448876
0.454693
0.440208
0.389547
0.33019
0.380389
0.45536
0.45554
0.455716
0.455893
0.456162
0.468187
0.47415
0.474082
0.474206
0.474143
0.474257
0.474199
0.341775
0.416597
0.438003
0.393166
0.385477
0.363838
0.470153
0.497001
0.497568
0.497227
0.497773
0.497273
0.490799
0.48874
0.480854
0.405092
0.333612
0.335798
0.452636
0.448448
0.421908
0.388247
0.376736
0.385772
0.398953
0.413884
0.43741
0.46262
0.474144
0.438553
0.294817
0.361555
0.473805
0.445931
0.423877
0.391235
0.30991
0.355317
0.422598
0.492242
0.497441
0.498158
0.497654
0.497948
0.496968
0.40458
0.328345
0.333592
0.3602
0.368605
0.342094
0.333634
0.333058
0.333673
0.334163
0.343584
0.359573
0.370984
0.36514
0.303692
0.288686
0.294666
0.493827
0.497994
0.468133
0.440942
0.195924
0.219138
0.251964
0.333433
0.471645
0.497652
0.49875
0.497863
0.495408
0.390268
0.333592
0.327772
0.3336
0.332701
0.333612
0.333003
0.333634
0.340853
0.363346
0.374107
0.372025
0.349963
0.304269
0.290533
0.29466
0.289661
0.502781
0.519617
0.490142
0.481413
0.191699
0.191952
0.195383
0.20829
0.297686
0.482279
0.497863
0.499203
0.495775
0.378333
0.328501
0.33357
0.330091
0.333592
0.333446
0.333612
0.354822
0.396765
0.433498
0.442611
0.433229
0.388069
0.306335
0.29466
0.286672
0.294417
0.470469
0.523119
0.489469
0.483928
0.191864
0.192042
0.193549
0.19372
0.202915
0.34336
0.499315
0.498071
0.497616
0.377936
0.33357
0.327582
0.33357
0.333306
0.358157
0.380415
0.422538
0.464082
0.485781
0.491448
0.485177
0.434613
0.320504
0.289812
0.294413
0.286997
0.385253
0.52304
0.498054
0.484084
0.192048
0.193492
0.201328
0.199787
0.200222
0.24195
0.461904
0.499542
0.498069
0.383137
0.328757
0.333539
0.330739
0.363061
0.430932
0.457336
0.482855
0.497299
0.502088
0.502089
0.493628
0.446896
0.333673
0.294413
0.286484
0.294279
0.298563
0.523111
0.52066
0.486742
0.192048
0.20049
0.220808
0.220783
0.215477
0.238166
0.359191
0.498281
0.498718
0.397997
0.333571
0.328077
0.333571
0.428213
0.49784
0.505338
0.503627
0.496207
0.493801
0.490787
0.477011
0.435956
0.340104
0.290498
0.294279
0.286475
0.294286
0.503852
0.535627
0.513907
0.192048
0.213746
0.250014
0.257452
0.250874
0.262874
0.32809
0.499627
0.498108
0.419141
0.329531
0.333571
0.332016
0.473141
0.515429
0.516197
0.507718
0.4923
0.48335
0.472756
0.457491
0.426994
0.346281
0.294413
0.287042
0.294279
0.290018
0.454214
0.535706
0.535259
0.19251
0.232369
0.283251
0.302478
0.298645
0.307547
0.347321
0.493442
0.499396
0.429503
0.333597
0.330418
0.333597
0.451686
0.517384
0.521185
0.512972
0.497551
0.480415
0.464784
0.451559
0.431609
0.360388
0.292123
0.294413
0.28668
0.294414
0.391926
0.535666
0.535746
0.205679
0.257318
0.316434
0.34862
0.352016
0.359362
0.383371
0.462354
0.497876
0.422141
0.331676
0.333597
0.333432
0.419249
0.51288
0.524406
0.518758
0.505435
0.486516
0.471323
0.460483
0.446597
0.385564
0.29466
0.28879
0.294413
0.289137
0.33709
0.511018
0.535733
0.238545
0.290504
0.351113
0.392697
0.40502
0.414238
0.424612
0.448476
0.496566
0.394668
0.333627
0.333188
0.353762
0.418949
0.501892
0.524502
0.522432
0.512126
0.49829
0.487888
0.479989
0.469404
0.421465
0.293981
0.29466
0.288477
0.29466
0.308502
0.427072
0.535682
0.284625
0.33354
0.391556
0.435345
0.450782
0.463153
0.45366
0.423745
0.446113
0.373147
0.333078
0.335587
0.392679
0.433801
0.483018
0.522333
0.526138
0.520698
0.513571
0.507828
0.502005
0.493338
0.460245
0.314794
0.29191
0.29466
0.291261
0.295569
0.393212
0.508395
0.335262
0.385092
0.438737
0.476174
0.486525
0.494327
0.454982
0.415462
0.414959
0.371513
0.33365
0.353797
0.427213
0.446857
0.470319
0.519762
0.532733
0.531762
0.529356
0.526216
0.521793
0.514539
0.489972
0.373791
0.294814
0.292623
0.294814
0.29478
0.411582
0.457035
0.387464
0.440743
0.486495
0.508618
0.510954
0.510061
0.440806
0.418277
0.433285
0.380435
0.339553
0.388546
0.451852
0.4543
0.468448
0.520998
0.538713
0.540479
0.540482
0.539343
0.535974
0.53064
0.517413
0.446582
0.320236
0.294814
0.294241
0.316008
0.454221
0.458176
0.440172
0.492412
0.519912
0.524786
0.52117
0.509004
0.459819
0.473644
0.469761
0.406067
0.373371
0.421269
0.452016
0.447952
0.462507
0.520818
0.540823
0.54109
0.540845
0.541221
0.540835
0.539866
0.534539
0.505887
0.406023
0.33413
0.330696
0.401992
0.50476
0.498548
0.489088
0.526067
0.535133
0.529383
0.518602
0.512963
0.508298
0.531418
0.514098
0.462966
0.430215
0.439384
0.440838
0.441031
0.457037
0.52218
0.541137
0.540847
0.541661
0.540799
0.541048
0.540695
0.540666
0.539895
0.499854
0.435005
0.427504
0.514532
0.528145
0.528149
0.52571
0.541368
0.538367
0.522089
0.511986
0.510769
0.523979
0.541375
0.540483
0.522161
0.495614
0.463179
0.441031
0.441189
0.455373
0.52405
0.540827
0.541577
0.536105
0.492548
0.495002
0.537469
0.540548
0.540538
0.535804
0.490945
0.464791
0.508143
0.52808
0.528113
0.54408
0.544228
0.531134
0.506712
0.503535
0.494391
0.505346
0.54139
0.541768
0.541544
0.535033
0.512032
0.476654
0.456498
0.465649
0.522107
0.539497
0.461045
0.309143
0.259361
0.27345
0.35997
0.435342
0.450885
0.415793
0.358037
0.331113
0.33044
0.36936
0.420828
0.5466
0.541853
0.509614
0.497354
0.496584
0.469321
0.460453
0.536251
0.541567
0.54197
0.541565
0.540143
0.522977
0.501603
0.495932
0.50665
0.410093
0.241612
0.176135
0.162145
0.162021
0.17566
0.205772
0.221339
0.203062
0.183316
0.175892
0.169371
0.17668
0.211832
0.540762
0.515102
0.506383
0.497461
0.498523
0.459548
0.434361
0.50261
0.542327
0.541581
0.542128
0.54157
0.538246
0.526616
0.5249
0.434637
0.239567
0.186085
0.171094
0.161041
0.160419
0.160154
0.160419
0.159914
0.160419
0.159578
0.160419
0.159541
0.160419
0.184729
0.536552
0.509616
0.509592
0.497576
0.503646
0.475127
0.434325
0.444294
0.541482
0.542775
0.541584
0.542151
0.541467
0.529768
0.517741
0.314341
0.196942
0.187427
0.177605
0.16992
0.16542
0.160419
0.160241
0.160419
0.16007
0.160419
0.159969
0.160419
0.160304
0.2045
0.534704
0.509505
0.509476
0.505594
0.520645
0.519832
0.463097
0.443749
0.52193
0.541564
0.54288
0.541583
0.54188
0.534594
0.453268
0.234467
0.194932
0.189155
0.184105
0.18362
0.181478
0.172785
0.164774
0.161062
0.160419
0.160364
0.160419
0.160287
0.166503
0.236616
0.527355
0.509607
0.51776
0.531252
0.543835
0.548047
0.522295
0.460321
0.470922
0.542411
0.541586
0.542697
0.541567
0.530957
0.347539
0.213462
0.196156
0.192051
0.190012
0.195296
0.199182
0.193815
0.185414
0.180874
0.178862
0.176994
0.173692
0.17143
0.180501
0.269476
0.504451
0.521671
0.538848
0.55022
0.553649
0.553815
0.552221
0.513983
0.471019
0.499942
0.542869
0.541585
0.541911
0.487243
0.284875
0.217528
0.202496
0.196906
0.196959
0.206077
0.214443
0.215265
0.214208
0.214038
0.213016
0.210167
0.205437
0.199396
0.202594
0.293006
0.468872
0.537117
0.551631
0.55432
0.554141
0.554318
0.553845
0.552159
0.507727
0.500632
0.541525
0.542873
0.541453
0.420182
0.278277
0.23622
0.217531
0.207884
0.208139
0.219531
0.232384
0.238197
0.244549
0.24938
0.250331
0.248506
0.244252
0.236829
0.23817
0.308026
0.434161
0.544868
0.554512
0.554418
0.55479
0.554161
0.554896
0.553842
0.550296
0.513787
0.52087
0.541525
0.520612
0.389014
0.306301
0.274798
0.247328
0.231788
0.230204
0.244046
0.260417
0.26977
0.278917
0.286136
0.289019
0.2898
0.28717
0.281147
0.282928
0.331406
0.426601
0.548944
0.554675
0.555168
0.554429
0.555411
0.554169
0.555188
0.553821
0.545729
0.522413
0.534543
0.455638
0.389437
0.362163
0.333049
0.295985
0.27575
0.272524
0.291432
0.309497
0.319494
0.324901
0.328431
0.331155
0.334103
0.334521
0.331878
0.332507
0.362189
0.452032
0.551973
0.555385
0.55472
0.555555
0.554443
0.55541
0.554169
0.555181
0.553783
0.540317
0.48516
0.43327
0.425849
0.430851
0.405078
0.365193
0.345953
0.346165
0.368076
0.381504
0.387019
0.384622
0.379926
0.380032
0.385241
0.387867
0.389759
0.385043
0.398739
0.510329
0.555621
0.555042
0.55587
0.554728
0.555841
0.546098
0.555139
0.553822
0.553769
0.524202
0.456364
0.442652
0.472887
0.484832
0.472024
0.444301
0.430243
0.441783
0.4579
0.459773
0.457173
0.449446
0.438603
0.434619
0.441628
0.446366
0.449513
0.429808
0.436433
0.55419
0.555363
0.556114
0.555052
0.555907
0.492034
0.440126
0.520737
0.539409
0.52793
0.467645
0.456137
0.473283
0.501677
0.511919
0.50756
0.49685
0.496354
0.512939
0.516129
0.511772
0.506108
0.498633
0.489771
0.486106
0.491914
0.493912
0.490138
0.45182
0.467951
0.555705
0.556076
0.555368
0.556112
0.554465
0.456359
0.423791
0.432356
0.477468
0.475346
0.467082
0.47193
0.513162
0.524314
0.52748
0.519579
0.51264
0.5201
0.531162
0.532391
0.528776
0.523102
0.517948
0.515928
0.516063
0.516659
0.511802
0.496802
0.454238
0.489418
0.548002
0.544422
0.548241
0.554894
0.552059
0.485072
0.425172
0.431669
0.469842
0.470779
0.468147
0.508992
0.538648
0.542428
0.541606
0.533349
0.525664
0.528887
0.536395
0.537649
0.532469
0.525507
0.52179
0.522675
0.522621
0.517428
0.5002
0.485515
0.453989
0.502526
0.410693
0.434922
0.514662
0.539141
0.517718
0.439767
0.403834
0.450752
0.497269
0.497075
0.493466
0.496963
0.521768
0.542362
0.542675
0.542441
0.537455
0.537342
0.540849
0.539303
0.530108
0.520257
0.516445
0.519023
0.51445
0.491417
0.469659
0.463888
0.454317
0.507129
0.154185
0.178741
0.287893
0.343925
0.312674
0.272775
0.281156
0.358244
0.449951
0.476676
0.454979
0.347083
0.338725
0.473402
0.542309
0.542711
0.542453
0.542539
0.542437
0.531287
0.511166
0.49444
0.491712
0.489902
0.475817
0.458249
0.454308
0.454397
0.453882
0.504052
0.0516659
0.0596724
0.0931269
0.130082
0.142157
0.142469
0.145194
0.167012
0.213465
0.256816
0.230134
0.133783
0.118965
0.238352
0.463099
0.542329
0.542815
0.542453
0.532419
0.500831
0.47683
0.468275
0.462717
0.457825
0.454566
0.454373
0.454481
0.454293
0.454398
0.481656
0.044427
0.0482747
0.0641895
0.0801666
0.106672
0.115188
0.105726
0.0909158
0.0823507
0.0869864
0.0808429
0.0669461
0.0654467
0.0873414
0.248223
0.486265
0.542367
0.541036
0.501444
0.468731
0.461137
0.457076
0.454608
0.454649
0.454526
0.454566
0.45442
0.454481
0.454175
0.478062
0.044427
0.0506244
0.0643867
0.0665032
0.0961182
0.112826
0.105209
0.0862599
0.0689028
0.065981
0.0659038
0.0654252
0.0660088
0.0657227
0.119674
0.33023
0.507166
0.520128
0.480897
0.462739
0.457785
0.454753
0.454734
0.454656
0.454649
0.454589
0.45465
0.458621
0.463276
0.493778
0.0456679
0.0558508
0.0649564
0.0649927
0.0835583
0.10723
0.106565
0.0924299
0.0724466
0.0659202
0.0655357
0.0659038
0.06555
0.0660088
0.0975552
0.243499
0.444859
0.507167
0.482333
0.466979
0.458062
0.455669
0.459546
0.465279
0.473098
0.480734
0.483188
0.487562
0.490208
0.509701
0.0510711
0.0619986
0.0649648
0.0640666
0.0703301
0.0951102
0.106555
0.100685
0.0791214
0.0664366
0.0658392
0.0654533
0.0659038
0.0697284
0.109538
0.241585
0.428777
0.504156
0.494923
0.47679
0.473061
0.482903
0.496646
0.508213
0.51464
0.515489
0.511243
0.508478
0.493034
0.509596
0.0598218
0.0674928
0.0648804
0.065031
0.0646995
0.0803701
0.102118
0.104433
0.0854173
0.0679702
0.0654389
0.0658392
0.0657695
0.079279
0.14627
0.316625
0.477239
0.514765
0.508628
0.50786
0.51652
0.525545
0.529209
0.530703
0.529367
0.523842
0.513628
0.503211
0.492857
0.502494
0.0698694
0.0732723
0.065031
0.0640008
0.0650934
0.0692335
0.0934581
0.104456
0.0891277
0.0697987
0.0657801
0.0655212
0.0681214
0.0959713
0.187841
0.37743
0.510942
0.522868
0.528564
0.532744
0.534895
0.536785
0.536755
0.53361
0.525418
0.513257
0.502236
0.493563
0.493355
0.494705
0.0817137
0.0799149
0.0647455
0.0650934
0.0646233
0.0651471
0.0845539
0.102224
0.0902545
0.071053
0.0653188
0.0657801
0.0766012
0.124726
0.235469
0.413275
0.523414
0.5338
0.537042
0.53773
0.537769
0.537287
0.531717
0.521568
0.51037
0.497978
0.493617
0.493673
0.493156
0.503343
0.0958849
0.0870109
0.0650934
0.0640027
0.0651471
0.0648808
0.0772364
0.0959145
0.0886798
0.0712881
0.0657218
0.0662256
0.0928144
0.16785
0.293251
0.4415
0.528056
0.536203
0.53618
0.535569
0.531368
0.523394
0.512249
0.501876
0.497607
0.493963
0.493993
0.493461
0.49373
0.537458
0.112224
0.0946865
0.0645389
0.0651471
0.0646504
0.0652066
0.0715946
0.0873974
0.083648
0.0687922
0.0652827
0.0704027
0.118698
0.224913
0.351496
0.456568
0.514481
0.524018
0.52183
0.518319
0.511528
0.502635
0.495892
0.494663
0.494508
0.494312
0.493916
0.505863
0.540617
0.555674
0.130236
0.103397
0.0651471
0.0641114
0.0652066
0.0649222
0.06777
0.0791581
0.0763285
0.0652172
0.0656601
0.0783977
0.154422
0.291319
0.406077
0.469377
0.489773
0.499276
0.501268
0.501252
0.49923
0.496854
0.496757
0.498119
0.498577
0.507418
0.530553
0.547348
0.555693
0.555778
0.149464
0.113068
0.0643649
0.0652066
0.0647312
0.0652512
0.0657822
0.0725866
0.0697912
0.0656005
0.0652514
0.0892993
0.195852
0.354257
0.448799
0.478758
0.482906
0.488264
0.493381
0.498015
0.504705
0.514135
0.522752
0.52911
0.5341
0.542201
0.551824
0.555647
0.555778
0.553991
0.169972
0.12141
0.0652066
0.0643196
0.0652512
0.0650468
0.0653417
0.0682308
0.0658784
0.0646119
0.0656005
0.103021
0.243387
0.405839
0.472745
0.485509
0.496733
0.50397
0.514335
0.524141
0.531211
0.537738
0.542674
0.546064
0.54883
0.55215
0.554768
0.555738
0.555615
0.544518
0.19216
0.125234
0.0643097
0.0652512
0.0649023
0.0652919
0.0653602
0.0661367
0.0652284
0.0655408
0.0654256
0.124031
0.301198
0.453595
0.494918
0.506654
0.517601
0.526457
0.534261
0.540876
0.544868
0.548154
0.54912
0.54913
0.548588
0.548535
0.549846
0.550648
0.544545
0.544448
0.215706
0.124075
0.0652512
0.0645534
0.0652919
0.0652359
0.0654142
0.0653556
0.0654804
0.0647272
0.0668152
0.170349
0.380581
0.501067
0.524623
0.530327
0.534887
0.539916
0.544205
0.547476
0.548092
0.54811
0.545281
0.538988
0.537319
0.539894
0.543032
0.543028
0.543018
0.547123
0.242709
0.112087
0.0644192
0.0652919
0.0651769
0.0654003
0.0654616
0.0654834
0.0649574
0.0655408
0.074658
0.253648
0.471812
0.529139
0.541299
0.544314
0.54519
0.54662
0.547424
0.547452
0.545905
0.536382
0.525225
0.525374
0.531259
0.543251
0.547397
0.548279
0.549477
0.550067
0.271523
0.0911767
0.0652919
0.0648833
0.0654003
0.06541
0.0654678
0.0652406
0.0655301
0.0652869
0.0936479
0.317531
0.513647
0.541225
0.547224
0.547257
0.547399
0.547294
0.545067
0.540157
0.529283
0.523812
0.523958
0.536883
0.546796
0.550974
0.551214
0.551152
0.549935
0.544245
0.291523
0.0746141
0.0646468
0.0654003
0.0656175
0.0656613
0.0654756
0.0655301
0.0653665
0.0685655
0.122439
0.281033
0.478162
0.519844
0.508559
0.525356
0.54721
0.547346
0.529407
0.521753
0.521801
0.525266
0.542197
0.549428
0.551172
0.551297
0.551148
0.547799
0.542087
0.528889
0.295888
0.0690378
0.0654003
0.0651685
0.0658578
0.0661655
0.0657203
0.0655165
0.0673321
0.0916481
0.159965
0.232751
0.275884
0.269143
0.251167
0.314507
0.512998
0.542123
0.505711
0.511577
0.531468
0.544857
0.551214
0.551172
0.551244
0.549012
0.539029
0.527541
0.5249
0.524576
0.298111
0.0679899
0.0649624
0.0654611
0.0656231
0.0701414
0.0710844
0.0744423
0.0938687
0.153235
0.202809
0.190608
0.141746
0.105309
0.0955194
0.111206
0.297373
0.52967
0.505686
0.527696
0.544047
0.551164
0.551131
0.546921
0.53908
0.525756
0.509341
0.509039
0.509454
0.524413
0.306922
0.0685712
0.0654611
0.0653567
0.0713251
0.0973578
0.106417
0.125083
0.166787
0.21701
0.209012
0.151373
0.0984378
0.0864038
0.0864219
0.0864406
0.125086
0.435745
0.506454
0.541813
0.544235
0.544225
0.5314
0.520229
0.510434
0.50922
0.508986
0.509333
0.512512
0.533849
0.329914
0.0699161
0.0653425
0.0668517
0.0959084
0.160856
0.187925
0.212333
0.221527
0.219928
0.166467
0.105807
0.0863669
0.0863854
0.0873484
0.0876314
0.0976164
0.226208
0.530703
0.542122
0.541982
0.509306
0.509009
0.509073
0.509116
0.508986
0.509226
0.509105
0.524113
0.542693
0.361017
0.0760194
0.067279
0.0817414
0.143253
0.206052
0.237164
0.237136
0.221532
0.162341
0.105388
0.0845243
0.0850596
0.0900829
0.0939351
0.0959068
0.0983975
0.133562
0.421346
0.540117
0.508882
0.508897
0.508996
0.514074
0.511371
0.509229
0.509105
0.514497
0.536328
0.550168
0.399233
0.0993966
0.0889619
0.118223
0.173077
0.192366
0.189641
0.171869
0.13987
0.0969067
0.0815554
0.0818797
0.0883011
0.0969952
0.101297
0.104915
0.110397
0.115888
0.20951
0.490932
0.507966
0.522741
0.533547
0.538037
0.535674
0.523865
0.523687
0.534327
0.547101
0.556194
0.449971
0.159598
0.153892
0.163808
0.163754
0.140019
0.110166
0.0927601
0.080777
0.0758103
0.0788882
0.0848009
0.0950095
0.103143
0.10813
0.114508
0.124272
0.121603
0.160295
0.394421
0.529103
0.537128
0.540277
0.541372
0.541503
0.540876
0.541303
0.546471
0.553975
0.560355
0.494053
0.257256
0.229325
0.19058
0.128254
0.0843981
0.0690812
0.0666595
0.0692544
0.0740669
0.0810809
0.0904696
0.101132
0.108074
0.115706
0.125094
0.135776
0.137085
0.162651
0.352896
0.532256
0.5323
0.519096
0.521548
0.532271
0.53948
0.544437
0.550876
0.557972
0.563301
0.400139
0.321302
0.233033
0.151739
0.0833367
0.0625199
0.061268
0.0637988
0.0699456
0.0767172
0.0847639
0.0956066
0.105527
0.113336
0.124142
0.13562
0.146499
0.155663
0.166879
0.282599
0.52234
0.48648
0.486548
0.492704
0.51765
0.5348
0.545793
0.554649
0.561538
0.565913
0.164874
0.222481
0.149516
0.0879063
0.0618538
0.0595844
0.0611537
0.0657432
0.0731077
0.0806691
0.0885084
0.099508
0.10899
0.118903
0.132579
0.144988
0.159277
0.1793
0.179146
0.229162
0.409545
0.486543
0.52675
0.532142
0.536495
0.543664
0.552087
0.559613
0.565132
0.56836
0.0610482
0.0835932
0.0712407
0.0596716
0.0576853
0.0595564
0.0633804
0.069764
0.0775603
0.0845014
0.091985
0.102653
0.112154
0.124298
0.139805
0.154274
0.171725
0.20122
0.206622
0.241484
0.387042
0.534654
0.548076
0.550863
0.551543
0.55415
0.55916
0.564466
0.568497
0.570929
0.0467217
0.0507859
0.0531037
0.0545912
0.0575937
0.0616941
0.0677711
0.0745496
0.0816076
0.0881482
0.0960315
0.105733
0.115752
0.129577
0.146506
0.161895
0.182523
0.220129
0.234041
0.295502
0.455571
0.541092
0.545291
0.55188
0.556722
0.560735
0.564925
0.56892
0.572228
0.574637
0.0489924
0.0507321
0.0531439
0.0561028
0.0602165
0.0661669
0.0728037
0.0791822
0.0855642
0.092586
0.100928
0.110149
0.120825
0.135159
0.152147
0.168363
0.192527
0.238892
0.257633
0.325389
0.49497
0.54583
0.547196
0.5551
0.561769
0.566456
0.570343
0.573907
0.577317
0.580165
0.0542647
0.0542772
0.0564481
0.0604482
0.0653756
0.0714311
0.0777191
0.0838981
0.0904305
0.0985105
0.107435
0.117264
0.128487
0.142591
0.158047
0.17468
0.204477
0.253413
0.279821
0.343276
0.535012
0.552088
0.555677
0.562665
0.568316
0.572567
0.576269
0.579812
0.583431
0.586582
0.0604808
0.0600753
0.0621113
0.0661451
0.0712053
0.0767634
0.082762
0.0894149
0.0971312
0.106111
0.116986
0.128208
0.140597
0.153245
0.166641
0.184778
0.220983
0.261381
0.314421
0.381806
0.541451
0.557576
0.564665
0.570776
0.575472
0.579297
0.582634
0.585865
0.5893
0.592319
0.0661032
0.0656909
0.0677799
0.0717719
0.0768136
0.0824053
0.0886839
0.0963346
0.105717
0.116508
0.13085
0.145135
0.157385
0.169027
0.182498
0.20372
0.242866
0.269952
0.334554
0.441778
0.546404
0.5649
0.573478
0.57898
0.583067
0.586173
0.588636
0.591148
0.594046
0.596628
0.0710335
0.0706905
0.0730045
0.0772493
0.0825851
0.0888455
0.0960797
0.105229
0.116335
0.130256
0.149704
0.168796
0.182115
0.193984
0.208974
0.234793
0.266863
0.28761
0.339034
0.526251
0.562951
0.576637
0.583129
0.587255
0.590061
0.591848
0.592943
0.594668
0.597278
0.599126
0.0758348
0.075506
0.0783875
0.0832455
0.0891498
0.0966889
0.10543
0.116112
0.129414
0.147855
0.174138
0.200199
0.21773
0.231667
0.250752
0.277659
0.296751
0.328021
0.412942
0.549842
0.58225
0.588504
0.591267
0.593486
0.594293
0.594257
0.593739
0.595453
0.598912
0.599611
0.0809863
0.0807619
0.0844468
0.0902664
0.0973049
0.106452
0.117104
0.129675
0.145712
0.169455
0.204775
0.241788
0.266439
0.285313
0.307738
0.326225
0.34478
0.393488
0.532983
0.581457
0.592955
0.594013
0.594436
0.594391
0.594337
0.591894
0.588776
0.592963
0.599214
0.599618
0.086833
0.086901
0.0916258
0.0987602
0.107664
0.118954
0.132141
0.147168
0.166396
0.196132
0.24164
0.292698
0.328515
0.351942
0.369217
0.37837
0.405129
0.509834
0.574675
0.592972
0.594209
0.594239
0.594097
0.591654
0.584864
0.574242
0.576057
0.587044
0.597636
0.599542
0.0936852
0.0942566
0.100451
0.109391
0.120522
0.135151
0.152664
0.171052
0.193949
0.229705
0.283715
0.348802
0.396968
0.417194
0.422702
0.431009
0.493429
0.564021
0.589258
0.59291
0.591882
0.587419
0.569366
0.543217
0.54267
0.548987
0.565441
0.581067
0.590278
0.593795
0.101914
0.103333
0.111358
0.12266
0.137127
0.156733
0.180762
0.205565
0.233209
0.27369
0.332661
0.403162
0.451231
0.465465
0.460114
0.489775
0.557092
0.584844
0.589388
0.588381
0.582799
0.564235
0.53058
0.529322
0.53773
0.555801
0.56864
0.571803
0.564382
0.53977
0.112118
0.114762
0.125089
0.139702
0.159152
0.186154
0.219907
0.255738
0.292241
0.334666
0.389219
0.449229
0.484802
0.491617
0.495841
0.548722
0.578575
0.585508
0.58563
0.58109
0.569508
0.536419
0.529099
0.542868
0.560525
0.565252
0.565356
0.547658
0.500476
0.348865
0.125186
0.12962
0.142946
0.16245
0.189198
0.226756
0.274409
0.326296
0.373315
0.411161
0.446369
0.480918
0.503963
0.504582
0.537346
0.567945
0.580806
0.583025
0.580405
0.573909
0.5572
0.524674
0.532024
0.559101
0.560716
0.56007
0.535178
0.517694
0.36489
0.155326
0.142475
0.149575
0.167346
0.194178
0.231352
0.282281
0.345107
0.411055
0.46296
0.48533
0.490423
0.496947
0.509058
0.520661
0.554143
0.572306
0.579154
0.578743
0.575682
0.56769
0.547173
0.52451
0.547625
0.559145
0.556121
0.535175
0.506523
0.385616
0.15505
0.100712
0.166487
0.17747
0.202429
0.240536
0.29081
0.353348
0.422649
0.482681
0.51597
0.52381
0.516945
0.505417
0.511412
0.532434
0.55878
0.572622
0.576972
0.575705
0.571631
0.561965
0.539559
0.528841
0.55091
0.551387
0.529618
0.460655
0.328771
0.133274
0.0947349
0.101033
0.201515
0.218223
0.25474
0.30798
0.369567
0.431473
0.484087
0.516574
0.530856
0.53453
0.529565
0.513744
0.514449
0.534539
0.559807
0.572738
0.575223
0.573062
0.567389
0.555916
0.535887
0.527801
0.52805
0.478525
0.365373
0.216008
0.0884467
0.0611125
0.0894009
0.110322
0.253961
0.278608
0.329901
0.395732
0.454744
0.493051
0.512686
0.525067
0.535256
0.539841
0.536088
0.52255
0.516226
0.535307
0.560963
0.572939
0.573099
0.569751
0.562224
0.54984
0.534859
0.506755
0.395536
0.234625
0.113078
0.0436611
0.0241768
0.046666
0.0934216
0.122631
0.328774
0.361342
0.422061
0.479428
0.510498
0.519551
0.521363
0.527093
0.536881
0.54262
0.539881
0.528353
0.518177
0.538442
0.563073
0.572325
0.570562
0.565151
0.556006
0.543647
0.521094
0.387247
0.165345
0.0528116
0.021193
0.0116602
0.0134198
0.0403362
0.0967798
0.136608
0.416491
0.449377
0.495315
0.519617
0.52304
0.523105
0.523171
0.527965
0.537488
0.543648
0.541661
0.531867
0.524272
0.545063
0.56517
0.570001
0.566596
0.55927
0.549131
0.534776
0.423358
0.176642
0.0381205
0.0127619
0.0108367
0.0106099
0.0108408
0.0340177
0.100958
0.152978
0.480539
0.499775
0.512076
0.515302
0.515247
0.516093
0.520303
0.527971
0.537604
0.543785
0.542663
0.535526
0.534698
0.551787
0.565225
0.565506
0.560585
0.552198
0.540512
0.46826
0.225301
0.0479411
0.0119324
0.0108242
0.0106226
0.0108351
0.0106428
0.0286071
0.10955
0.16845
0.491058
0.497115
0.502022
0.49797
0.498667
0.506721
0.518618
0.528449
0.537621
0.543866
0.543635
0.540071
0.542989
0.555525
0.56267
0.559757
0.552413
0.542441
0.504691
0.291492
0.0708976
0.0142196
0.0108157
0.0106451
0.0108238
0.0106279
0.0108351
0.0247867
0.114533
0.182361
0.482796
0.487744
0.494645
0.494553
0.499127
0.509899
0.520139
0.528887
0.537895
0.54417
0.544851
0.544036
0.548132
0.556135
0.557502
0.552004
0.542438
0.522268
0.356074
0.100836
0.0176737
0.0108156
0.0106633
0.0108153
0.0106639
0.0108238
0.0107047
0.0228781
0.111537
0.197158
0.476993
0.491892
0.508813
0.509766
0.513591
0.519223
0.52333
0.528062
0.537172
0.545
0.546286
0.546514
0.550688
0.554936
0.551407
0.541386
0.525369
0.395463
0.125979
0.0214888
0.0108153
0.0107229
0.0108047
0.0106881
0.0108153
0.0106716
0.0108238
0.0219802
0.0895425
0.215934
0.486671
0.498334
0.523138
0.526441
0.526757
0.527462
0.527435
0.526308
0.530276
0.540908
0.546201
0.54717
0.551348
0.55203
0.541034
0.515436
0.380797
0.121082
0.0228772
0.0113015
0.010785
0.0108047
0.0106974
0.0108047
0.0107219
0.0108153
0.0107109
0.0185716
0.0754484
0.237493
0.50771
0.492759
0.52182
0.52754
0.527626
0.527543
0.527619
0.512411
0.502661
0.520955
0.537276
0.540514
0.545064
0.535967
0.464982
0.265464
0.0781744
0.0215319
0.0129702
0.0114405
0.0108047
0.0107563
0.010796
0.0107284
0.0108047
0.0107159
0.0108153
0.0141468
0.0699268
0.257675
0.516947
0.454449
0.483561
0.511695
0.51659
0.506561
0.478682
0.458905
0.471044
0.499501
0.522062
0.531728
0.518093
0.377978
0.150736
0.0499545
0.0292357
0.0232369
0.016746
0.0127191
0.0110373
0.010796
0.0107422
0.010796
0.0107508
0.0108047
0.0107255
0.0112229
0.0666762
0.276584
0.499407
0.433076
0.432411
0.436183
0.438431
0.433076
0.432943
0.43933
0.468515
0.497697
0.520123
0.529042
0.414773
0.173457
0.0655778
0.041295
0.034695
0.0281588
0.0209233
0.0151471
0.011949
0.0107963
0.0107853
0.0107591
0.010796
0.0107389
0.0108047
0.0107232
0.0607155
0.29535
0.439041
0.432035
0.433074
0.432105
0.433075
0.432778
0.435641
0.457909
0.486425
0.506248
0.522849
0.496941
0.285491
0.128256
0.0941786
0.0752646
0.0514138
0.0333296
0.023014
0.0171473
0.0133534
0.0112124
0.0107572
0.0107853
0.0107678
0.010796
0.01072
0.0108047
0.05333
0.314299
0.443207
0.433075
0.432607
0.433074
0.4328
0.440712
0.464273
0.489139
0.504229
0.513067
0.522877
0.412901
0.216921
0.176041
0.190145
0.166381
0.0998492
0.0450496
0.0236041
0.0178144
0.0144552
0.0118193
0.0107784
0.0107701
0.0107853
0.0107442
0.010796
0.0107218
0.0497356
0.330751
0.509334
0.455202
0.444621
0.442798
0.460133
0.482486
0.4996
0.510149
0.515041
0.517992
0.50119
0.310533
0.205743
0.236314
0.276635
0.264922
0.162239
0.055913
0.022476
0.0170874
0.0148429
0.0121005
0.0107706
0.0107798
0.010764
0.0107883
0.0107501
0.0107981
0.0494875
0.342612
0.539962
0.521231
0.504776
0.499285
0.506154
0.513013
0.517365
0.52004
0.520453
0.520527
0.438408
0.258833
0.2063
0.287324
0.339032
0.340971
0.208331
0.0573332
0.018549
0.0143173
0.0147744
0.0118143
0.0107747
0.0107762
0.0107839
0.0107518
0.0107925
0.0107432
0.051767
0.351437
0.535459
0.542629
0.534711
0.527264
0.524623
0.524839
0.525736
0.527078
0.526897
0.508221
0.347745
0.258577
0.29242
0.361693
0.393119
0.377743
0.222526
0.0504221
0.0133489
0.0111389
0.0138213
0.010995
0.0107814
0.0107938
0.0107772
0.0107925
0.0107735
0.0108022
0.0569751
0.358811
0.520424
0.54258
0.541353
0.535459
0.531145
0.530403
0.530835
0.53092
0.529952
0.450871
0.316877
0.308428
0.389838
0.434498
0.445592
0.385716
0.195091
0.0372533
0.0107521
0.0108091
0.0118749
0.0107902
0.0107657
0.0108293
0.0107925
0.0107735
0.0108022
0.0107956
0.0648907
0.365814
0.520466
0.537719
0.541421
0.537657
0.533367
0.532474
0.532545
0.529856
0.490112
0.394681
0.364289
0.423222
0.466654
0.479298
0.471188
0.362328
0.12646
0.0238534
0.0108091
0.0107467
0.0108005
0.0107399
0.0107902
0.0108598
0.010795
0.0108022
0.0107913
0.0108117
0.0750533
0.372187
0.520461
0.533921
0.540163
0.53788
0.533706
0.532972
0.530842
0.485799
0.422533
0.422853
0.469421
0.498186
0.504975
0.501566
0.469441
0.282165
0.0733531
0.0170606
0.0107473
0.0108091
0.0107366
0.0108005
0.0107633
0.0108745
0.0108022
0.0108026
0.0108117
0.0110062
0.0875961
0.377606
0.520459
0.531918
0.538611
0.537347
0.533746
0.531558
0.493314
0.434194
0.434436
0.493766
0.520216
0.520805
0.517255
0.50942
0.430847
0.186814
0.0489897
0.0159987
0.0108199
0.0107748
0.0108091
0.0107427
0.0108005
0.0108863
0.0109917
0.0111003
0.0111091
0.011805
0.101827
0.38324
0.520614
0.530253
0.537502
0.536399
0.533517
0.504306
0.443835
0.439873
0.493639
0.523888
0.52724
0.527306
0.525937
0.512521
0.36248
0.13402
0.045637
0.0205468
0.0123596
0.0108199
0.0107467
0.0108091
0.0107817
0.0109051
0.0116792
0.0123605
0.0125224
0.0142086
0.11637
0.389303
0.520727
0.528224
0.53709
0.533251
0.515863
0.459503
0.449026
0.485197
0.514676
0.527554
0.52874
0.528743
0.528726
0.48801
0.290193
0.129312
0.0696714
0.0397868
0.0199771
0.011229
0.0108199
0.0107508
0.0108091
0.0110567
0.0132119
0.0152938
0.0158473
0.0190732
0.129141
0.395908
0.522112
0.523993
0.532546
0.509445
0.46914
0.459458
0.486487
0.505466
0.51501
0.523907
0.528734
0.528142
0.518118
0.420882
0.264576
0.17748
0.131752
0.0861226
0.0402353
0.0137572
0.0107675
0.0108199
0.0109593
0.0119538
0.0160212
0.0202158
0.0210272
0.0256958
0.140354
0.403839
0.530333
0.490765
0.482905
0.470197
0.469039
0.488139
0.50429
0.510115
0.510738
0.505256
0.497613
0.495958
0.478468
0.394193
0.312906
0.262205
0.21845
0.15599
0.07571
0.0197706
0.0108265
0.0107619
0.0116991
0.014516
0.0206062
0.0267748
0.0268335
0.0324379
0.15023
0.413796
0.515751
0.449316
0.449554
0.46546
0.485589
0.499723
0.50487
0.505809
0.500732
0.482783
0.460981
0.456591
0.456578
0.446461
0.413017
0.36592
0.305974
0.226047
0.115092
0.0293532
0.0108205
0.0108265
0.0128352
0.0189685
0.0270537
0.034144
0.0318972