/*--------------------------------*- C++ -*----------------------------------*\
| =========                 |                                                 |
| \\      /  F ield         | OpenFOAM: The Open Source CFD Toolbox           |
|  \\    /   O peration     | Version:  2.3.0                                 |
|   \\  /    A nd           | Web:      www.OpenFOAM.org                      |
|    \\/     M anipulation  |                                                 |
\*---------------------------------------------------------------------------*/
FoamFile
{
    version     2.0;
    format      ascii;
    class       volVectorField;
    location    "1.51";
    object      U;
}
// * * * * * * * * * * * * * * * * * * * * * * * * * * * * * * * * * * * * * //

dimensions      [0 1 -1 0 0 0 0];

internalField   nonuniform List<vector> 
6000
(
(-0.0272993 0.025129 0)
(-0.0451024 -0.0712428 0)
(-0.052055 -0.0873639 0)
(-0.0569682 -0.0902416 0)
(-0.06236 -0.0941328 0)
(-0.0698303 -0.0922736 0)
(-0.0567025 -0.103618 0)
(-0.0078146 -0.0789154 0)
(0.0583952 -0.080775 0)
(0.0610666 -0.119057 0)
(-0.048916 -0.0890033 0)
(-0.138488 -0.13649 0)
(-0.1361 -0.137739 0)
(-0.123219 -0.114264 0)
(-0.133163 -0.0919911 0)
(-0.14776 -0.0368584 0)
(-0.146274 0.00971674 0)
(-0.111607 0.0244346 0)
(-0.0585418 0.0206239 0)
(0.00692296 0.0212376 0)
(0.0674468 0.00468473 0)
(0.111329 -0.0239202 0)
(0.141812 -0.0125418 0)
(0.182107 0.0453721 0)
(0.114348 0.120958 0)
(0.0549507 0.0670194 0)
(0.0603791 0.0491443 0)
(0.0529706 -0.0134668 0)
(0.0333777 -0.0518589 0)
(0.0292568 0.0217757 0)
(-0.0249938 0.68163 0)
(-0.0767613 0.710856 0)
(-0.103598 0.704724 0)
(-0.127598 0.702544 0)
(-0.123161 0.708892 0)
(-0.0942348 0.653667 0)
(-0.0376481 0.607353 0)
(0.0300842 0.536743 0)
(0.10061 0.595708 0)
(0.144453 0.775095 0)
(0.0410466 0.920098 0)
(-0.148534 0.744489 0)
(-0.211604 0.669185 0)
(-0.178285 0.694003 0)
(-0.160943 0.725747 0)
(-0.156481 0.706849 0)
(-0.138248 0.624563 0)
(-0.0997335 0.579864 0)
(-0.0365705 0.531187 0)
(0.0314887 0.532335 0)
(0.0962717 0.5612 0)
(0.149927 0.606395 0)
(0.193673 0.604046 0)
(0.242546 0.557124 0)
(0.0649957 0.707068 0)
(-0.0865253 0.688041 0)
(-0.0688741 0.583482 0)
(0.00710626 0.661867 0)
(0.00572477 0.650376 0)
(-0.0259071 0.631816 0)
(-0.0673443 0.666157 0)
(-0.130965 0.573411 0)
(-0.160611 0.531153 0)
(-0.18415 0.487375 0)
(-0.175599 0.455635 0)
(-0.136269 0.413393 0)
(-0.0823024 0.346298 0)
(-0.0299904 0.269791 0)
(0.0369957 0.292796 0)
(0.113714 0.524169 0)
(0.0967474 0.913001 0)
(-0.104377 0.735296 0)
(-0.188345 0.417023 0)
(-0.139278 0.418217 0)
(-0.0920131 0.433811 0)
(-0.0540106 0.424192 0)
(-0.0284562 0.365559 0)
(0.00148265 0.299825 0)
(0.0486085 0.264957 0)
(0.091994 0.277836 0)
(0.146961 0.298969 0)
(0.213085 0.333037 0)
(0.299043 0.383838 0)
(0.332806 0.453354 0)
(0.100948 1.02967 0)
(-0.124459 0.591956 0)
(-0.18704 0.343325 0)
(-0.0907711 0.442061 0)
(-0.0221305 0.452015 0)
(-0.00789515 0.524891 0)
(-0.0577886 0.667498 0)
(-0.153801 0.54418 0)
(-0.229993 0.552445 0)
(-0.24849 0.518621 0)
(-0.226013 0.453388 0)
(-0.183953 0.381777 0)
(-0.131311 0.332202 0)
(-0.0785498 0.262184 0)
(-0.0266928 0.25683 0)
(0.0150145 0.533761 0)
(0.0699488 0.961396 0)
(0.0157839 0.912618 0)
(-0.097667 0.410912 0)
(-0.105567 0.385761 0)
(-0.0667764 0.403326 0)
(-0.00660998 0.430207 0)
(0.0463253 0.404755 0)
(0.0995209 0.331157 0)
(0.143632 0.284513 0)
(0.187626 0.275507 0)
(0.233741 0.266209 0)
(0.2678 0.273722 0)
(0.27849 0.314763 0)
(0.20521 0.488318 0)
(0.000281071 1.27242 0)
(-0.0843329 0.823485 0)
(-0.225513 0.33627 0)
(-0.139066 0.386141 0)
(-0.0658756 0.432518 0)
(-0.0301886 0.515583 0)
(-0.0331839 0.830901 0)
(-0.132067 0.660539 0)
(-0.218107 0.539323 0)
(-0.281614 0.447236 0)
(-0.313241 0.414444 0)
(-0.263093 0.334562 0)
(-0.200863 0.267106 0)
(-0.139556 0.203106 0)
(-0.103174 0.190149 0)
(-0.0942904 0.505742 0)
(-0.0212249 0.939332 0)
(0.0413605 0.890451 0)
(-0.023405 0.554985 0)
(-0.0654404 0.425317 0)
(-0.0476078 0.42525 0)
(-3.28786e-05 0.418655 0)
(0.0697066 0.367709 0)
(0.157702 0.304594 0)
(0.25473 0.277073 0)
(0.355936 0.279953 0)
(0.4307 0.29571 0)
(0.443399 0.350209 0)
(0.343388 0.488065 0)
(0.140239 0.868056 0)
(-0.0124921 1.24875 0)
(-0.0373397 1.1103 0)
(-0.153608 0.294154 0)
(-0.119584 0.311653 0)
(-0.0721711 0.387925 0)
(-0.0426997 0.453491 0)
(0.00337536 1.06643 0)
(-0.0354679 0.945672 0)
(-0.123388 0.828894 0)
(-0.227427 0.601227 0)
(-0.284776 0.335637 0)
(-0.31133 0.264134 0)
(-0.254129 0.210548 0)
(-0.193006 0.160237 0)
(-0.182569 0.170806 0)
(-0.176956 0.514707 0)
(-0.130653 0.859481 0)
(-0.0481928 0.83928 0)
(-0.0774621 0.614577 0)
(-0.0738376 0.463293 0)
(-0.0612821 0.367297 0)
(-0.0087015 0.331538 0)
(0.0662901 0.270479 0)
(0.167816 0.195996 0)
(0.271185 0.130101 0)
(0.37715 0.140075 0)
(0.471988 0.201912 0)
(0.522736 0.374297 0)
(0.431344 0.74663 0)
(0.244403 1.00902 0)
(0.119934 1.18209 0)
(0.0883781 1.23097 0)
(-0.05457 0.328572 0)
(-0.0970619 0.28939 0)
(-0.0576938 0.36659 0)
(-0.0390361 0.390078 0)
(0.023898 0.893558 0)
(0.0333851 0.873481 0)
(0.0225135 0.854002 0)
(-0.0519188 0.861185 0)
(-0.205067 0.555379 0)
(-0.215284 0.194285 0)
(-0.249595 0.157759 0)
(-0.208896 0.128645 0)
(-0.207231 0.152523 0)
(-0.20751 0.531176 0)
(-0.186713 0.826793 0)
(-0.154603 0.763556 0)
(-0.160154 0.631813 0)
(-0.140007 0.439239 0)
(-0.106784 0.316701 0)
(-0.0190266 0.284753 0)
(0.0812019 0.185982 0)
(0.171027 0.0808243 0)
(0.236556 0.0237365 0)
(0.296277 0.035768 0)
(0.36292 0.0934712 0)
(0.429584 0.305449 0)
(0.442069 0.855389 0)
(0.34617 1.11703 0)
(0.249001 1.25737 0)
(0.237242 1.28904 0)
(0.0103099 0.481308 0)
(-0.0956417 0.287347 0)
(-0.0443967 0.340896 0)
(-0.0320379 0.348829 0)
(0.00460258 0.872186 0)
(-0.00190459 0.840138 0)
(0.0153785 0.798774 0)
(0.0512989 0.794546 0)
(-0.0363132 0.773918 0)
(-0.157416 0.320358 0)
(-0.190076 0.11488 0)
(-0.203577 0.10691 0)
(-0.203923 0.152105 0)
(-0.205473 0.540123 0)
(-0.205744 0.801028 0)
(-0.208791 0.76801 0)
(-0.224345 0.64228 0)
(-0.217738 0.416463 0)
(-0.134466 0.211754 0)
(0.0159309 0.148129 0)
(0.115767 0.0686275 0)
(0.185618 0.00327658 0)
(0.222745 -0.0194322 0)
(0.250387 -0.00801862 0)
(0.274639 0.0343222 0)
(0.310355 0.224889 0)
(0.373583 0.873196 0)
(0.359949 1.22711 0)
(0.311392 1.26562 0)
(0.347091 1.3658 0)
(0.101352 0.756529 0)
(-0.0950315 0.286342 0)
(-0.0604917 0.318556 0)
(-0.032834 0.304996 0)
(-0.0097642 0.891051 0)
(-0.0396596 0.834281 0)
(-0.0142173 0.772633 0)
(0.0505762 0.754482 0)
(0.0877763 0.765447 0)
(-0.0196974 0.544961 0)
(-0.0643718 0.125123 0)
(-0.142018 0.104974 0)
(-0.181024 0.15874 0)
(-0.168083 0.539738 0)
(-0.18256 0.829839 0)
(-0.215514 0.770859 0)
(-0.240749 0.706235 0)
(-0.211072 0.329156 0)
(-0.0865639 0.0538207 0)
(0.0497589 0.00318242 0)
(0.140275 -0.0175969 0)
(0.194621 -0.0371365 0)
(0.216865 -0.0393875 0)
(0.22933 -0.0258501 0)
(0.232426 0.0157 0)
(0.227942 0.191885 0)
(0.274468 0.818121 0)
(0.308375 1.23185 0)
(0.304844 1.31493 0)
(0.332632 1.33637 0)
(0.156883 1.18321 0)
(-0.059559 0.325388 0)
(-0.0612598 0.295116 0)
(-0.0274849 0.279072 0)
(-0.0260735 0.936831 0)
(-0.0784839 0.866159 0)
(-0.0339556 0.691121 0)
(0.0482225 0.682946 0)
(0.12588 0.727498 0)
(0.127176 0.606396 0)
(0.0269701 0.265602 0)
(-0.0471914 0.12496 0)
(-0.131326 0.186991 0)
(-0.119502 0.529921 0)
(-0.135521 0.851857 0)
(-0.178401 0.81669 0)
(-0.175271 0.744556 0)
(-0.123215 0.170508 0)
(-0.0132201 -0.0594709 0)
(0.0623354 -0.0889032 0)
(0.131958 -0.0880931 0)
(0.181874 -0.0727058 0)
(0.208431 -0.0556344 0)
(0.215359 -0.0279857 0)
(0.20311 0.0333133 0)
(0.180277 0.203076 0)
(0.209975 0.758842 0)
(0.252377 1.23037 0)
(0.258713 1.29054 0)
(0.272327 1.36353 0)
(0.210037 1.34621 0)
(-0.0114092 0.421052 0)
(-0.0446064 0.28578 0)
(-0.026562 0.240342 0)
(-0.032766 1.00915 0)
(-0.0714915 0.846998 0)
(-0.0106542 0.604309 0)
(0.066437 0.577049 0)
(0.153595 0.646455 0)
(0.204631 0.61234 0)
(0.141071 0.417513 0)
(0.0520047 0.181677 0)
(-0.0670871 0.230754 0)
(-0.0718374 0.517549 0)
(-0.0820832 0.888488 0)
(-0.10707 0.811102 0)
(-0.0631765 0.742872 0)
(-0.0316471 0.0555688 0)
(0.0262415 -0.118533 0)
(0.0805927 -0.142643 0)
(0.129039 -0.134457 0)
(0.172288 -0.101291 0)
(0.197353 -0.0677716 0)
(0.197933 -0.0182513 0)
(0.180511 0.0617452 0)
(0.157203 0.221268 0)
(0.184272 0.699049 0)
(0.217836 1.20418 0)
(0.234447 1.32071 0)
(0.254048 1.33445 0)
(0.26944 1.44292 0)
(0.0511059 0.589355 0)
(-0.0244452 0.291656 0)
(-0.0123696 0.210265 0)
(-0.0176103 1.07479 0)
(-0.0203539 0.803264 0)
(0.0462175 0.535701 0)
(0.103289 0.490989 0)
(0.180663 0.564965 0)
(0.244147 0.572938 0)
(0.242061 0.502934 0)
(0.139756 0.279165 0)
(0.00960969 0.29122 0)
(-0.0257761 0.529546 0)
(-0.0325763 0.901413 0)
(-0.0352554 0.829495 0)
(0.0576794 0.706283 0)
(0.0351614 0.0428749 0)
(0.0559644 -0.162536 0)
(0.0945412 -0.184466 0)
(0.125577 -0.170204 0)
(0.156304 -0.13179 0)
(0.17173 -0.0777085 0)
(0.170365 -0.00420621 0)
(0.153446 0.084299 0)
(0.139609 0.224386 0)
(0.172925 0.62445 0)
(0.211772 1.21402 0)
(0.222579 1.28379 0)
(0.250584 1.36143 0)
(0.321888 1.42587 0)
(0.147352 0.81644 0)
(0.00656093 0.30648 0)
(-0.00292892 0.209074 0)
(0.0257194 1.11198 0)
(0.0630404 0.746635 0)
(0.11635 0.49106 0)
(0.149887 0.433428 0)
(0.206854 0.496291 0)
(0.266595 0.523038 0)
(0.296611 0.537417 0)
(0.210249 0.412549 0)
(0.0741251 0.357284 0)
(0.0197684 0.565512 0)
(0.00376418 0.912873 0)
(0.00848163 0.81032 0)
(0.128308 0.638346 0)
(0.107791 0.0836185 0)
(0.0961086 -0.188398 0)
(0.109428 -0.20874 0)
(0.124636 -0.191092 0)
(0.136672 -0.149486 0)
(0.140021 -0.0796076 0)
(0.132367 0.00692975 0)
(0.117458 0.103014 0)
(0.102774 0.223745 0)
(0.143043 0.536442 0)
(0.1977 1.19617 0)
(0.219578 1.29032 0)
(0.234757 1.28825 0)
(0.324397 1.38252 0)
(0.269677 1.0636 0)
(0.0398754 0.374261 0)
(-0.0117605 0.211596 0)
(0.0664052 1.0178 0)
(0.133402 0.686051 0)
(0.175664 0.463321 0)
(0.192824 0.403156 0)
(0.222432 0.448648 0)
(0.268039 0.479814 0)
(0.284558 0.545748 0)
(0.236527 0.521972 0)
(0.108829 0.42799 0)
(0.0461466 0.652482 0)
(0.0135729 0.898967 0)
(0.0482271 0.779778 0)
(0.149269 0.53734 0)
(0.175253 0.127645 0)
(0.130516 -0.177624 0)
(0.118287 -0.217441 0)
(0.120106 -0.197262 0)
(0.119612 -0.149485 0)
(0.112436 -0.0729997 0)
(0.0979781 0.0211028 0)
(0.0772066 0.120875 0)
(0.0545284 0.229809 0)
(0.0697045 0.452229 0)
(0.162033 1.16214 0)
(0.203842 1.26985 0)
(0.196951 1.29188 0)
(0.270916 1.28446 0)
(0.27883 1.2008 0)
(0.0364348 0.539157 0)
(0.000843131 0.213177 0)
(0.0801674 0.886528 0)
(0.162838 0.616484 0)
(0.209103 0.440025 0)
(0.219574 0.391926 0)
(0.224488 0.426893 0)
(0.253756 0.45502 0)
(0.245156 0.549434 0)
(0.230652 0.60383 0)
(0.115195 0.515119 0)
(0.0594681 0.710735 0)
(0.0302801 0.887768 0)
(0.0903797 0.732796 0)
(0.144417 0.39393 0)
(0.203583 0.140049 0)
(0.140665 -0.132512 0)
(0.1115 -0.211767 0)
(0.107286 -0.193865 0)
(0.0992063 -0.13897 0)
(0.0855428 -0.0560207 0)
(0.0637437 0.0449277 0)
(0.0337399 0.151878 0)
(-0.00363402 0.256786 0)
(-0.026802 0.408432 0)
(0.0704574 1.03607 0)
(0.155711 1.29848 0)
(0.130013 1.29125 0)
(0.177558 1.27705 0)
(0.142345 1.27416 0)
(0.023603 0.698473 0)
(0.0681567 0.269947 0)
(0.0806689 0.765994 0)
(0.167074 0.539345 0)
(0.217196 0.416243 0)
(0.221698 0.39497 0)
(0.208974 0.428612 0)
(0.218941 0.449028 0)
(0.196017 0.568347 0)
(0.159338 0.6278 0)
(0.123623 0.603003 0)
(0.0734289 0.752778 0)
(0.0699496 0.878983 0)
(0.14387 0.680855 0)
(0.160454 0.323217 0)
(0.188552 0.152964 0)
(0.140456 -0.063178 0)
(0.0991146 -0.196262 0)
(0.0879609 -0.181859 0)
(0.0709714 -0.120792 0)
(0.0477043 -0.0314094 0)
(0.0165498 0.0790119 0)
(-0.0241469 0.195485 0)
(-0.0731367 0.305723 0)
(-0.12189 0.427991 0)
(-0.0734864 0.837499 0)
(0.0576834 1.29308 0)
(0.0491673 1.34205 0)
(-0.00394011 1.31587 0)
(-0.0526884 1.30528 0)
(0.00716113 0.629355 0)
(0.0168139 0.318124 0)
(0.0813154 0.646008 0)
(0.164022 0.462007 0)
(0.205642 0.398512 0)
(0.197375 0.410947 0)
(0.17194 0.446558 0)
(0.148627 0.463106 0)
(0.103681 0.614762 0)
(0.0791342 0.671762 0)
(0.0626089 0.636768 0)
(0.0596407 0.768729 0)
(0.132766 0.869836 0)
(0.194078 0.618555 0)
(0.181167 0.312922 0)
(0.164754 0.185284 0)
(0.127496 -0.0162991 0)
(0.0814345 -0.177485 0)
(0.0642079 -0.16207 0)
(0.0374057 -0.0949792 0)
(0.000625506 0.000306857 0)
(-0.0462566 0.11982 0)
(-0.102252 0.24527 0)
(-0.162214 0.364134 0)
(-0.219949 0.480792 0)
(-0.227457 0.718091 0)
(-0.124281 1.23834 0)
(-0.0622092 1.4441 0)
(-0.133803 1.4489 0)
(-0.0578051 1.24251 0)
(0.00951423 0.564704 0)
(3.49288e-05 0.363743 0)
(0.0833785 0.522764 0)
(0.153974 0.400081 0)
(0.173768 0.394549 0)
(0.155735 0.436028 0)
(0.117801 0.485244 0)
(0.0452499 0.527119 0)
(-0.0462958 0.698878 0)
(-0.132566 0.648462 0)
(-0.10629 0.599281 0)
(-0.00718941 0.705431 0)
(0.135086 0.783666 0)
(0.204026 0.556942 0)
(0.187708 0.337461 0)
(0.15479 0.217841 0)
(0.113667 0.0317959 0)
(0.0693565 -0.157238 0)
(0.0500841 -0.135977 0)
(0.0156347 -0.0560734 0)
(-0.036673 0.0524474 0)
(-0.109214 0.18789 0)
(-0.190718 0.316333 0)
(-0.26314 0.427357 0)
(-0.322168 0.537043 0)
(-0.350739 0.684176 0)
(-0.301607 1.05434 0)
(-0.204985 1.44652 0)
(-0.127991 1.4887 0)
(0.013148 1.03153 0)
(0.0430198 0.573282 0)
(0.00493129 0.399149 0)
(0.0792504 0.405322 0)
(0.124435 0.364034 0)
(0.129456 0.399694 0)
(0.106261 0.469106 0)
(0.0523301 0.552725 0)
(-0.0581711 0.66075 0)
(-0.220786 0.753642 0)
(-0.267885 0.632627 0)
(-0.24426 0.555103 0)
(-0.169842 0.564461 0)
(0.0110466 0.603812 0)
(0.131945 0.498304 0)
(0.162346 0.369361 0)
(0.150239 0.256787 0)
(0.122634 0.0824438 0)
(0.0761025 -0.134341 0)
(0.0540799 -0.103784 0)
(0.0131208 0.000749005 0)
(-0.0596938 0.125978 0)
(-0.172375 0.27784 0)
(-0.291439 0.398874 0)
(-0.363516 0.483297 0)
(-0.39546 0.584292 0)
(-0.414685 0.6897 0)
(-0.394482 0.91956 0)
(-0.272049 1.3064 0)
(-0.0295111 1.35967 0)
(0.0690769 0.895991 0)
(0.0696803 0.633208 0)
(0.0243994 0.434838 0)
(0.0533122 0.322348 0)
(0.0814769 0.343673 0)
(0.0812008 0.407428 0)
(0.053484 0.508599 0)
(-0.0255139 0.651752 0)
(-0.125613 0.807012 0)
(-0.277639 0.81698 0)
(-0.285917 0.637566 0)
(-0.272988 0.534691 0)
(-0.235809 0.476535 0)
(-0.132565 0.436538 0)
(0.0106439 0.399397 0)
(0.109528 0.35116 0)
(0.141465 0.267514 0)
(0.149876 0.116629 0)
(0.112298 -0.114271 0)
(0.0884723 -0.0718566 0)
(0.0444113 0.0441639 0)
(-0.0803277 0.184272 0)
(-0.273623 0.40593 0)
(-0.406429 0.522226 0)
(-0.426069 0.544608 0)
(-0.411462 0.608859 0)
(-0.396848 0.701098 0)
(-0.348064 0.838958 0)
(-0.182829 1.0002 0)
(0.00518089 1.03974 0)
(0.0517099 0.817868 0)
(0.02573 0.654557 0)
(0.0179412 0.472484 0)
(0.022779 0.273714 0)
(0.0379129 0.330356 0)
(0.0259122 0.422807 0)
(-0.0435395 0.593512 0)
(-0.114779 0.732913 0)
(-0.142737 0.908024 0)
(-0.262047 0.894193 0)
(-0.269797 0.635056 0)
(-0.247328 0.516433 0)
(-0.215278 0.423871 0)
(-0.1662 0.347275 0)
(-0.096665 0.289147 0)
(0.00749495 0.261179 0)
(0.10656 0.226009 0)
(0.173379 0.113289 0)
(0.180147 -0.103972 0)
(0.10605 -0.0643729 0)
(0.0465967 0.104688 0)
(-0.108976 0.399466 0)
(-0.258117 0.589728 0)
(-0.357 0.548428 0)
(-0.406406 0.394492 0)
(-0.40114 0.52617 0)
(-0.340105 0.61146 0)
(-0.234036 0.614607 0)
(-0.153339 0.750898 0)
(-0.0399189 0.886257 0)
(0.0183159 0.741391 0)
(-0.0101962 0.533123 0)
(0.0160951 0.305484 0)
(0.00319352 0.256275 0)
(-0.00719324 0.335514 0)
(-0.0711291 0.496432 0)
(-0.168708 0.679134 0)
(-0.163878 0.74557 0)
(-0.154484 0.943549 0)
(-0.207137 0.991391 0)
(-0.227248 0.628007 0)
(-0.211849 0.484601 0)
(-0.175181 0.391585 0)
(-0.141967 0.303348 0)
(-0.108458 0.22237 0)
(-0.0567394 0.173578 0)
(0.0310945 0.131473 0)
(0.138626 0.0354943 0)
(0.213574 -0.0975523 0)
(0.0989301 0.00395125 0)
(-0.0115182 0.402584 0)
(-0.201193 0.700784 0)
(-0.284378 0.795432 0)
(-0.311792 0.781754 0)
(-0.363105 0.697206 0)
(-0.394931 0.628179 0)
(-0.374056 0.621242 0)
(-0.358447 0.824132 0)
(-0.295295 1.05898 0)
(-0.169696 1.14549 0)
(-0.0469761 1.08837 0)
(-0.0255734 0.909189 0)
(0.0102783 0.591573 0)
(-0.00672764 0.265467 0)
(-0.0458596 0.398194 0)
(-0.191119 0.61748 0)
(-0.203816 0.692602 0)
(-0.191863 0.723097 0)
(-0.169547 0.913974 0)
(-0.146924 1.02985 0)
(-0.180327 0.640394 0)
(-0.185263 0.443216 0)
(-0.151573 0.35769 0)
(-0.117574 0.275423 0)
(-0.0883457 0.191434 0)
(-0.0573211 0.117208 0)
(0.0033657 0.0523055 0)
(0.0968881 -0.0685022 0)
(0.0924102 -0.106724 0)
(0.0115029 0.335843 0)
(-0.247166 0.566367 0)
(-0.350843 0.659454 0)
(-0.363685 0.688359 0)
(-0.343542 0.651175 0)
(-0.353619 0.611089 0)
(-0.377191 0.610041 0)
(-0.39978 0.640394 0)
(-0.401632 0.705872 0)
(-0.33291 0.781356 0)
(-0.230151 0.804347 0)
(-0.127231 0.784241 0)
(-0.0824689 0.707768 0)
(-0.00377296 0.426179 0)
(-0.0166704 0.303749 0)
(-0.0818667 0.528688 0)
(-0.207836 0.652924 0)
(-0.205683 0.692874 0)
(-0.201003 0.708887 0)
(-0.170113 0.853566 0)
(-0.0958079 1.00237 0)
(-0.104077 0.740641 0)
(-0.14951 0.42003 0)
(-0.143723 0.328746 0)
(-0.117956 0.249865 0)
(-0.0922542 0.163023 0)
(-0.0651271 0.0801995 0)
(-0.0179283 -0.000310228 0)
(0.0570249 -0.149529 0)
(-0.0588087 0.0580408 0)
(-0.246478 0.524696 0)
(-0.396083 0.618782 0)
(-0.452636 0.662144 0)
(-0.445493 0.661505 0)
(-0.410033 0.620569 0)
(-0.390619 0.602476 0)
(-0.377696 0.576821 0)
(-0.371888 0.57221 0)
(-0.355556 0.602801 0)
(-0.292735 0.644355 0)
(-0.220814 0.673622 0)
(-0.156191 0.679031 0)
(-0.133949 0.655189 0)
(-0.0264397 0.313398 0)
(-0.0571542 0.355086 0)
(-0.128748 0.618065 0)
(-0.190898 0.683906 0)
(-0.183552 0.709459 0)
(-0.180771 0.713267 0)
(-0.150974 0.758189 0)
(-0.080864 0.912178 0)
(-0.0386462 0.808094 0)
(-0.113606 0.439003 0)
(-0.159747 0.311846 0)
(-0.148776 0.229801 0)
(-0.130851 0.140668 0)
(-0.108895 0.0474037 0)
(-0.0693983 -0.0504239 0)
(-0.0637214 -0.135135 0)
(-0.223929 0.344854 0)
(-0.40825 0.619002 0)
(-0.491235 0.678266 0)
(-0.517899 0.687213 0)
(-0.511705 0.627539 0)
(-0.473306 0.571087 0)
(-0.437161 0.566605 0)
(-0.397332 0.572206 0)
(-0.362438 0.57557 0)
(-0.315546 0.5852 0)
(-0.250499 0.603427 0)
(-0.191255 0.62988 0)
(-0.14091 0.659139 0)
(-0.127547 0.633652 0)
(-0.0157286 0.184477 0)
(-0.128918 0.481848 0)
(-0.159697 0.681007 0)
(-0.176587 0.698799 0)
(-0.171865 0.704896 0)
(-0.169343 0.708529 0)
(-0.164416 0.72797 0)
(-0.113339 0.787614 0)
(-0.0543182 0.840117 0)
(-0.112942 0.533869 0)
(-0.191496 0.321625 0)
(-0.209687 0.22058 0)
(-0.195212 0.123551 0)
(-0.181828 0.0253433 0)
(-0.132387 -0.0876916 0)
(-0.253688 0.0111656 0)
(-0.402316 0.531539 0)
(-0.49854 0.679204 0)
(-0.541954 0.717913 0)
(-0.557981 0.698724 0)
(-0.54135 0.603699 0)
(-0.509127 0.516702 0)
(-0.468158 0.502395 0)
(-0.41117 0.507972 0)
(-0.351619 0.504777 0)
(-0.279325 0.508297 0)
(-0.212435 0.524573 0)
(-0.144166 0.573261 0)
(-0.0852015 0.618836 0)
(-0.0587611 0.6081 0)
(0.00934899 0.111201 0)
(-0.120885 0.644447 0)
(-0.156592 0.695318 0)
(-0.153772 0.694888 0)
(-0.154523 0.700274 0)
(-0.163416 0.712689 0)
(-0.173463 0.72824 0)
(-0.167929 0.745953 0)
(-0.126562 0.79381 0)
(-0.141386 0.68878 0)
(-0.206455 0.3743 0)
(-0.280559 0.214864 0)
(-0.282742 0.11918 0)
(-0.274269 0.0111592 0)
(-0.264821 -0.0697578 0)
(-0.459009 0.225025 0)
(-0.548324 0.600234 0)
(-0.576914 0.72292 0)
(-0.577175 0.727886 0)
(-0.58617 0.694555 0)
(-0.56194 0.595368 0)
(-0.517701 0.49107 0)
(-0.466297 0.461972 0)
(-0.392175 0.447862 0)
(-0.317579 0.430261 0)
(-0.23759 0.433694 0)
(-0.16858 0.455169 0)
(-0.0975311 0.503159 0)
(-0.0348371 0.542616 0)
(0.019265 0.595945 0)
(0.0390572 0.109718 0)
(-0.108082 0.778825 0)
(-0.135036 0.686314 0)
(-0.126011 0.690253 0)
(-0.13582 0.70979 0)
(-0.155266 0.731671 0)
(-0.179772 0.746487 0)
(-0.200562 0.748193 0)
(-0.204671 0.73983 0)
(-0.200849 0.749871 0)
(-0.276033 0.472406 0)
(-0.342985 0.240054 0)
(-0.387626 0.124574 0)
(-0.377178 0.0156572 0)
(-0.507269 0.0783596 0)
(-0.67355 0.413614 0)
(-0.690277 0.601224 0)
(-0.658961 0.705493 0)
(-0.617962 0.751444 0)
(-0.602541 0.701627 0)
(-0.540605 0.551135 0)
(-0.473021 0.428146 0)
(-0.403646 0.388031 0)
(-0.317321 0.360637 0)
(-0.247236 0.342702 0)
(-0.182724 0.351244 0)
(-0.122768 0.375827 0)
(-0.0610756 0.4224 0)
(-0.00827187 0.49136 0)
(0.0612086 0.534765 0)
(0.056171 0.179241 0)
(-0.0869172 0.915869 0)
(-0.0938978 0.669331 0)
(-0.0911043 0.695337 0)
(-0.107293 0.731044 0)
(-0.136881 0.7603 0)
(-0.174502 0.779173 0)
(-0.215088 0.778081 0)
(-0.250059 0.752563 0)
(-0.26872 0.710722 0)
(-0.311535 0.649859 0)
(-0.40292 0.306038 0)
(-0.481675 0.156265 0)
(-0.536592 0.0856691 0)
(-0.792488 0.235031 0)
(-0.864228 0.449351 0)
(-0.797312 0.528117 0)
(-0.722131 0.640302 0)
(-0.644136 0.702747 0)
(-0.581386 0.647859 0)
(-0.483359 0.47196 0)
(-0.382373 0.350783 0)
(-0.297602 0.31399 0)
(-0.214291 0.290697 0)
(-0.157032 0.291245 0)
(-0.117083 0.304743 0)
(-0.0762662 0.326428 0)
(-0.0379327 0.367991 0)
(0.0145591 0.428357 0)
(0.0669345 0.473657 0)
(0.0558324 0.254067 0)
(-0.032303 0.988662 0)
(-0.0265898 0.665467 0)
(-0.0378754 0.711975 0)
(-0.0646117 0.759809 0)
(-0.104072 0.80025 0)
(-0.155267 0.82578 0)
(-0.217157 0.832308 0)
(-0.27737 0.797419 0)
(-0.323741 0.736595 0)
(-0.370921 0.656846 0)
(-0.455903 0.518154 0)
(-0.570185 0.231567 0)
(-0.845332 0.28085 0)
(-0.979941 0.398308 0)
(-0.954718 0.385202 0)
(-0.855908 0.408996 0)
(-0.744438 0.541222 0)
(-0.64002 0.616387 0)
(-0.519013 0.551347 0)
(-0.3823 0.354 0)
(-0.268843 0.245672 0)
(-0.18093 0.226669 0)
(-0.119025 0.227734 0)
(-0.0826942 0.253815 0)
(-0.06221 0.279248 0)
(-0.0398315 0.29594 0)
(-0.0126451 0.329659 0)
(0.025902 0.380463 0)
(0.0650263 0.446249 0)
(0.0443312 0.329958 0)
(0.0455688 0.979988 0)
(0.0616079 0.690489 0)
(0.025797 0.743701 0)
(-0.012727 0.7985 0)
(-0.0557179 0.844468 0)
(-0.115447 0.892914 0)
(-0.211987 0.911735 0)
(-0.303143 0.863287 0)
(-0.362347 0.786882 0)
(-0.413359 0.699866 0)
(-0.477714 0.601761 0)
(-0.717436 0.494099 0)
(-0.917557 0.48692 0)
(-0.988859 0.409987 0)
(-0.885277 0.281951 0)
(-0.819835 0.2839 0)
(-0.711004 0.41571 0)
(-0.587319 0.473109 0)
(-0.425445 0.391723 0)
(-0.268326 0.209445 0)
(-0.17051 0.148622 0)
(-0.10541 0.153312 0)
(-0.0647664 0.189182 0)
(-0.0424719 0.236992 0)
(-0.0293993 0.266734 0)
(-0.0178238 0.277079 0)
(0.00225279 0.303438 0)
(0.0335832 0.341208 0)
(0.052026 0.43439 0)
(0.0261535 0.387572 0)
(0.158131 0.806489 0)
(0.109725 0.731201 0)
(0.0641453 0.788528 0)
(0.0246334 0.833501 0)
(0.0092599 0.876096 0)
(-0.0395942 0.946899 0)
(-0.206558 1.01004 0)
(-0.341785 0.910074 0)
(-0.394706 0.831486 0)
(-0.445331 0.754625 0)
(-0.534884 0.774148 0)
(-0.860905 0.68248 0)
(-0.891234 0.585476 0)
(-0.860478 0.336065 0)
(-0.791318 0.202365 0)
(-0.725051 0.20692 0)
(-0.644216 0.289946 0)
(-0.498407 0.320831 0)
(-0.312617 0.202381 0)
(-0.197029 0.0811127 0)
(-0.131983 0.0763327 0)
(-0.0913175 0.104774 0)
(-0.0662416 0.155159 0)
(-0.0479427 0.216407 0)
(-0.0305423 0.253064 0)
(-0.0105174 0.257327 0)
(0.00838032 0.280702 0)
(0.0299232 0.311959 0)
(0.0280949 0.445808 0)
(0.00436005 0.415908 0)
(0.0563964 0.668204 0)
(0.0525008 0.773639 0)
(0.0224805 0.826939 0)
(0.00753921 0.850566 0)
(0.0264961 0.859841 0)
(0.0390445 1.07709 0)
(-0.14137 1.31647 0)
(-0.316976 0.998759 0)
(-0.438566 0.875494 0)
(-0.544735 0.843234 0)
(-0.814512 0.964009 0)
(-0.833022 0.815002 0)
(-0.839778 0.540798 0)
(-0.742885 0.278889 0)
(-0.700273 0.153173 0)
(-0.643069 0.124535 0)
(-0.555551 0.151578 0)
(-0.399109 0.131951 0)
(-0.261501 0.0422853 0)
(-0.188587 0.0110908 0)
(-0.143689 0.0361884 0)
(-0.11417 0.0806427 0)
(-0.0954081 0.136733 0)
(-0.0748511 0.192206 0)
(-0.0449262 0.224519 0)
(-0.0171833 0.232936 0)
(0.000288172 0.261265 0)
(0.00689728 0.300416 0)
(-0.008482 0.474405 0)
(-0.0144696 0.411869 0)
(-0.0232864 0.674156 0)
(-0.0566044 0.806782 0)
(-0.0837668 0.851245 0)
(-0.0882019 0.847637 0)
(-0.0762623 0.844946 0)
(-0.0656693 1.19557 0)
(-0.149355 1.4341 0)
(-0.270343 1.30829 0)
(-0.44612 1.07738 0)
(-0.628303 1.0576 0)
(-0.769897 1.0394 0)
(-0.714678 0.810521 0)
(-0.696008 0.48163 0)
(-0.655414 0.252513 0)
(-0.634568 0.117936 0)
(-0.59129 0.0646206 0)
(-0.501783 0.0536568 0)
(-0.367268 0.0240929 0)
(-0.284254 -0.0255253 0)
(-0.230667 -0.0259499 0)
(-0.193698 0.00947483 0)
(-0.168646 0.0627009 0)
(-0.147847 0.11892 0)
(-0.118399 0.161492 0)
(-0.0794489 0.188802 0)
(-0.0473954 0.211952 0)
(-0.0337945 0.252217 0)
(-0.037467 0.30502 0)
(-0.0480537 0.495336 0)
(-0.0225356 0.376856 0)
(-0.125567 0.71715 0)
(-0.208417 0.858476 0)
(-0.222091 0.849984 0)
(-0.199367 0.831664 0)
(-0.19741 0.854187 0)
(-0.224393 1.18603 0)
(-0.289166 1.50079 0)
(-0.31039 1.40619 0)
(-0.323986 1.19985 0)
(-0.363254 1.19465 0)
(-0.401471 1.17203 0)
(-0.455245 0.78658 0)
(-0.515446 0.479467 0)
(-0.571735 0.261143 0)
(-0.583681 0.1001 0)
(-0.560594 0.00905374 0)
(-0.491617 -0.041345 0)
(-0.3908 -0.0727925 0)
(-0.317696 -0.0857849 0)
(-0.270021 -0.0653952 0)
(-0.237405 -0.0148288 0)
(-0.212875 0.0464272 0)
(-0.185676 0.0983149 0)
(-0.146653 0.127224 0)
(-0.105486 0.150403 0)
(-0.0781758 0.186929 0)
(-0.0729008 0.249452 0)
(-0.081387 0.311997 0)
(-0.0760078 0.480325 0)
(-0.0239574 0.326732 0)
(-0.247142 0.88942 0)
(-0.290952 0.912127 0)
(-0.300604 0.881369 0)
(-0.24712 0.838748 0)
(-0.243049 0.896169 0)
(-0.331773 1.07286 0)
(-0.431664 1.42462 0)
(-0.402266 1.31244 0)
(-0.303711 1.14561 0)
(-0.190203 1.14206 0)
(-0.0663467 1.12782 0)
(-0.111106 0.918714 0)
(-0.381302 0.598023 0)
(-0.548402 0.297948 0)
(-0.59081 0.0953562 0)
(-0.557579 -0.0379844 0)
(-0.498659 -0.112388 0)
(-0.418891 -0.149263 0)
(-0.3521 -0.146152 0)
(-0.307742 -0.105117 0)
(-0.277849 -0.0412707 0)
(-0.249056 0.0205693 0)
(-0.210154 0.0595013 0)
(-0.166353 0.0769826 0)
(-0.134754 0.106952 0)
(-0.123603 0.176616 0)
(-0.120724 0.258098 0)
(-0.110764 0.317309 0)
(-0.0823895 0.432911 0)
(-0.0140806 0.27489 0)
(-0.162236 1.34136 0)
(-0.319348 1.09035 0)
(-0.359079 0.748995 0)
(-0.313056 0.691804 0)
(-0.34015 0.824467 0)
(-0.409089 1.27337 0)
(-0.379929 1.45008 0)
(-0.312895 1.08184 0)
(-0.258499 0.848483 0)
(-0.157532 0.896333 0)
(-0.0188972 0.952718 0)
(-0.0556531 0.995643 0)
(-0.378215 0.823655 0)
(-0.573635 0.353938 0)
(-0.62621 0.0457574 0)
(-0.597473 -0.090163 0)
(-0.525936 -0.179689 0)
(-0.449812 -0.218935 0)
(-0.387329 -0.202964 0)
(-0.349624 -0.13974 0)
(-0.317873 -0.071142 0)
(-0.272658 -0.0212947 0)
(-0.228081 0.0133369 0)
(-0.204349 0.0430758 0)
(-0.192947 0.101121 0)
(-0.180219 0.180995 0)
(-0.150814 0.239479 0)
(-0.111689 0.292046 0)
(-0.069866 0.367099 0)
(0.0123796 0.229028 0)
(-0.115524 1.75384 0)
(-0.291059 1.46771 0)
(-0.415382 1.07642 0)
(-0.501026 0.959992 0)
(-0.55311 1.14246 0)
(-0.479411 1.4426 0)
(-0.283366 1.59316 0)
(-0.166164 1.38733 0)
(-0.181761 1.05173 0)
(-0.20025 0.854571 0)
(-0.197591 1.01195 0)
(-0.301623 1.4826 0)
(-0.506191 1.47899 0)
(-0.707309 0.659116 0)
(-0.672898 0.00366992 0)
(-0.630798 -0.177586 0)
(-0.566685 -0.253616 0)
(-0.485701 -0.292125 0)
(-0.430782 -0.253508 0)
(-0.395235 -0.171582 0)
(-0.347941 -0.108592 0)
(-0.31843 -0.0525523 0)
(-0.291519 -0.00880111 0)
(-0.264846 0.0357481 0)
(-0.234892 0.0864275 0)
(-0.196029 0.142175 0)
(-0.149826 0.193392 0)
(-0.101109 0.246409 0)
(-0.0593519 0.298487 0)
(0.0260838 0.216086 0)
(-0.0883676 1.64315 0)
(-0.208033 1.37086 0)
(-0.315738 1.06018 0)
(-0.467578 0.985931 0)
(-0.526748 0.981926 0)
(-0.455253 1.11524 0)
(-0.271138 1.28107 0)
(-0.153154 1.32962 0)
(-0.198318 1.26719 0)
(-0.368759 1.18966 0)
(-0.544163 1.28806 0)
(-0.619357 1.47437 0)
(-0.602235 1.40267 0)
(-0.757238 0.961565 0)
(-0.803025 0.113526 0)
(-0.663561 -0.276817 0)
(-0.586695 -0.342192 0)
(-0.522962 -0.367373 0)
(-0.480524 -0.30266 0)
(-0.426077 -0.198751 0)
(-0.400303 -0.137923 0)
(-0.365872 -0.087688 0)
(-0.324224 -0.0453866 0)
(-0.280062 -0.00557879 0)
(-0.236761 0.0414289 0)
(-0.18888 0.0936194 0)
(-0.138007 0.145497 0)
(-0.080877 0.196385 0)
(-0.0465981 0.239982 0)
(0.0297902 0.210578 0)
(-0.0672249 1.7022 0)
(-0.102669 1.38771 0)
(-0.155809 1.1088 0)
(-0.312805 1.08006 0)
(-0.39827 0.951088 0)
(-0.414786 0.944808 0)
(-0.338343 1.05326 0)
(-0.277547 1.15562 0)
(-0.308501 1.21506 0)
(-0.462757 1.20685 0)
(-0.620935 1.2506 0)
(-0.680964 1.31211 0)
(-0.645963 1.21942 0)
(-0.728683 0.894232 0)
(-0.929624 0.264856 0)
(-0.72029 -0.392741 0)
(-0.631773 -0.462862 0)
(-0.568145 -0.428759 0)
(-0.503171 -0.337022 0)
(-0.463622 -0.233752 0)
(-0.422247 -0.177437 0)
(-0.377464 -0.132055 0)
(-0.329842 -0.0913488 0)
(-0.280589 -0.0506225 0)
(-0.227195 -0.00599784 0)
(-0.166376 0.042652 0)
(-0.105958 0.0960216 0)
(-0.0556418 0.148988 0)
(-0.0213021 0.210908 0)
(0.00796502 0.204118 0)
(0.00713146 1.79748 0)
(0.0329361 1.40183 0)
(0.00314768 1.20533 0)
(-0.1228 1.19337 0)
(-0.249822 1.06354 0)
(-0.356084 0.956497 0)
(-0.379899 1.01234 0)
(-0.368011 1.12612 0)
(-0.385906 1.26838 0)
(-0.486597 1.3177 0)
(-0.605935 1.33431 0)
(-0.680193 1.33465 0)
(-0.692562 1.22699 0)
(-0.744122 0.897887 0)
(-0.864258 0.266313 0)
(-0.763057 -0.38371 0)
(-0.558458 -0.623598 0)
(-0.559506 -0.526752 0)
(-0.500438 -0.366768 0)
(-0.457141 -0.27432 0)
(-0.410796 -0.217986 0)
(-0.360329 -0.177713 0)
(-0.301017 -0.141109 0)
(-0.23532 -0.109768 0)
(-0.169458 -0.0704656 0)
(-0.113777 -0.0190916 0)
(-0.0716226 0.0419236 0)
(-0.0300695 0.109875 0)
(-0.0123145 0.185781 0)
(-0.0014285 0.197019 0)
(0.0864985 1.73387 0)
(0.160565 1.36215 0)
(0.129144 1.29491 0)
(0.0237449 1.31259 0)
(-0.119426 1.24339 0)
(-0.286404 1.07543 0)
(-0.372768 1.03801 0)
(-0.401085 1.12061 0)
(-0.420243 1.31786 0)
(-0.49493 1.43625 0)
(-0.591321 1.43929 0)
(-0.676152 1.40196 0)
(-0.713176 1.25943 0)
(-0.730743 0.896748 0)
(-0.713002 0.21612 0)
(-0.580247 -0.4474 0)
(-0.424265 -0.676696 0)
(-0.462675 -0.561377 0)
(-0.446022 -0.414016 0)
(-0.39392 -0.327062 0)
(-0.330875 -0.276473 0)
(-0.264072 -0.241562 0)
(-0.199338 -0.215051 0)
(-0.147526 -0.175361 0)
(-0.108955 -0.122947 0)
(-0.0775118 -0.0576969 0)
(-0.0578469 0.0163025 0)
(-0.0423471 0.082209 0)
(-0.0231211 0.166821 0)
(-0.0152823 0.188871 0)
(0.138234 1.52484 0)
(0.234483 1.31481 0)
(0.210384 1.38147 0)
(0.113902 1.40986 0)
(-0.0138105 1.40271 0)
(-0.200393 1.25884 0)
(-0.330603 1.11166 0)
(-0.401496 1.14233 0)
(-0.437205 1.35299 0)
(-0.503901 1.52686 0)