/*--------------------------------*- C++ -*----------------------------------*\
| =========                 |                                                 |
| \\      /  F ield         | OpenFOAM: The Open Source CFD Toolbox           |
|  \\    /   O peration     | Version:  2.3.0                                 |
|   \\  /    A nd           | Web:      www.OpenFOAM.org                      |
|    \\/     M anipulation  |                                                 |
\*---------------------------------------------------------------------------*/
FoamFile
{
    version     2.0;
    format      ascii;
    class       volVectorField;
    location    "1.51";
    object      U.particlesMean;
}
// * * * * * * * * * * * * * * * * * * * * * * * * * * * * * * * * * * * * * //

dimensions      [0 1 -1 0 0 0 0];

internalField   nonuniform List<vector> 
6000
(
(-0.00231122 -0.321412 0)
(0.00601513 -0.341604 0)
(0.0264316 -0.336802 0)
(0.0383955 -0.346264 0)
(0.0412668 -0.357965 0)
(0.039333 -0.394379 0)
(0.0291039 -0.419754 0)
(0.0102973 -0.432113 0)
(-4.34631e-05 -0.426956 0)
(-0.00592629 -0.42489 0)
(-0.0113055 -0.42926 0)
(-0.00914194 -0.432781 0)
(-0.0218173 -0.42367 0)
(-0.0472243 -0.403295 0)
(-0.056178 -0.385876 0)
(-0.048384 -0.386288 0)
(-0.0407232 -0.387251 0)
(-0.0288495 -0.393952 0)
(-0.0310843 -0.401256 0)
(-0.031861 -0.394233 0)
(-0.0291488 -0.38427 0)
(-0.0283128 -0.372693 0)
(-0.0263398 -0.366441 0)
(-0.0207485 -0.354687 0)
(-0.0142895 -0.347187 0)
(-0.0172834 -0.343703 0)
(-0.015843 -0.355023 0)
(-0.00953504 -0.370211 0)
(-0.0137531 -0.37266 0)
(-0.00315169 -0.309303 0)
(0.0120492 5.26948e-05 0)
(0.0234787 0.0157412 0)
(0.0427977 0.0120532 0)
(0.0526246 0.0083678 0)
(0.0529105 0.00738151 0)
(0.0517072 0.0102814 0)
(0.0445104 0.00714276 0)
(0.023115 0.00466233 0)
(0.00991529 0.0106442 0)
(-0.00519263 0.0102521 0)
(-0.0189049 0.0108036 0)
(-0.0305545 0.0102132 0)
(-0.0466833 -0.00710876 0)
(-0.0585207 -0.0123016 0)
(-0.0584566 -0.0108355 0)
(-0.0585758 -0.00961226 0)
(-0.0587877 0.00118181 0)
(-0.0546832 0.0165684 0)
(-0.0506227 0.00746521 0)
(-0.0470028 0.0192781 0)
(-0.0381139 0.0275448 0)
(-0.0317856 0.019547 0)
(-0.0207242 0.0210509 0)
(-0.0144281 0.0203881 0)
(-0.01821 0.0208392 0)
(-0.0259271 0.00892166 0)
(-0.0285223 -0.000102302 0)
(-0.0290865 0.00219284 0)
(-0.022901 0.0176604 0)
(-0.016117 -0.00798357 0)
(-0.00658971 -0.057327 0)
(0.0218184 -0.0919839 0)
(0.0362013 -0.0978079 0)
(0.045675 -0.080476 0)
(0.0465894 -0.0646779 0)
(0.0404721 -0.0551309 0)
(0.0373286 -0.0505495 0)
(0.0256019 -0.0404068 0)
(0.0159066 -0.035146 0)
(0.000469129 -0.0418666 0)
(-0.0162712 -0.0409639 0)
(-0.0297786 -0.0399262 0)
(-0.043249 -0.0467332 0)
(-0.0514651 -0.0503562 0)
(-0.05092 -0.066075 0)
(-0.055522 -0.0698667 0)
(-0.0641238 -0.0643366 0)
(-0.0667703 -0.0623459 0)
(-0.0592403 -0.0719516 0)
(-0.0483117 -0.0786526 0)
(-0.0354308 -0.084483 0)
(-0.0251317 -0.0782007 0)
(-0.0169994 -0.079081 0)
(-0.0121587 -0.0833389 0)
(-0.0153159 -0.0705045 0)
(-0.0158534 -0.0717304 0)
(-0.0175496 -0.0823866 0)
(-0.0177726 -0.0807234 0)
(-0.00721492 -0.0651854 0)
(0.00768664 -0.0757887 0)
(-0.00392757 -0.064914 0)
(0.0203209 -0.100488 0)
(0.0231971 -0.102099 0)
(0.0377676 -0.0857838 0)
(0.0416203 -0.0659491 0)
(0.0393765 -0.0547232 0)
(0.0349192 -0.0425165 0)
(0.0274108 -0.0296389 0)
(0.0202148 -0.0206613 0)
(0.00346002 -0.0257809 0)
(-0.0162174 -0.0300765 0)
(-0.0303013 -0.0323463 0)
(-0.042603 -0.0425828 0)
(-0.045118 -0.0516818 0)
(-0.0467297 -0.0667608 0)
(-0.0537529 -0.0679842 0)
(-0.0633687 -0.0649975 0)
(-0.0680696 -0.0643828 0)
(-0.0618854 -0.0742744 0)
(-0.0473243 -0.0835044 0)
(-0.0363204 -0.089243 0)
(-0.0328344 -0.0875451 0)
(-0.0305959 -0.0928561 0)
(-0.0252099 -0.0949596 0)
(-0.0177288 -0.0861655 0)
(-0.00481781 -0.0876258 0)
(-0.000454603 -0.0942398 0)
(-0.00551014 -0.0916751 0)
(0.00219103 -0.0710059 0)
(0.0136239 -0.0754179 0)
(0.00760997 -0.0943506 0)
(0.0184002 -0.127454 0)
(0.0185952 -0.130012 0)
(0.0285747 -0.103185 0)
(0.030097 -0.0760881 0)
(0.0271416 -0.061244 0)
(0.025645 -0.0479687 0)
(0.0203013 -0.0312607 0)
(0.0131048 -0.0205286 0)
(-0.00408838 -0.0240521 0)
(-0.0237213 -0.0302345 0)
(-0.0359243 -0.0382845 0)
(-0.0467235 -0.048816 0)
(-0.0456212 -0.0611889 0)
(-0.0472178 -0.0710928 0)
(-0.0544585 -0.0732537 0)
(-0.0604606 -0.0751131 0)
(-0.0642337 -0.0758199 0)
(-0.0589885 -0.0952395 0)
(-0.0449993 -0.115036 0)
(-0.0376025 -0.118498 0)
(-0.0365167 -0.111196 0)
(-0.0367757 -0.111518 0)
(-0.032899 -0.1068 0)
(-0.0172143 -0.103142 0)
(-0.00171054 -0.111591 0)
(0.00519067 -0.118459 0)
(-0.00170006 -0.119388 0)
(0.00628706 -0.0905213 0)
(0.0146063 -0.0869015 0)
(0.00751181 -0.112186 0)
(0.0222589 -0.135145 0)
(0.0133649 -0.132313 0)
(0.0193568 -0.108687 0)
(0.0188153 -0.0808114 0)
(0.0144124 -0.0632841 0)
(0.0137135 -0.0497022 0)
(0.00956354 -0.0354631 0)
(-0.00131321 -0.0206232 0)
(-0.0193499 -0.0219956 0)
(-0.0367264 -0.0298439 0)
(-0.0474409 -0.0355419 0)
(-0.0543296 -0.0480566 0)
(-0.0458724 -0.062972 0)
(-0.045513 -0.0710012 0)
(-0.0496039 -0.0753935 0)
(-0.0522647 -0.0783583 0)
(-0.053396 -0.0828593 0)
(-0.0466377 -0.109479 0)
(-0.0388219 -0.127826 0)
(-0.0362325 -0.129026 0)
(-0.0361841 -0.118419 0)
(-0.0364109 -0.110757 0)
(-0.032352 -0.104622 0)
(-0.0128472 -0.109437 0)
(0.00234668 -0.120524 0)
(0.00352146 -0.126651 0)
(-0.00185842 -0.129115 0)
(0.00664398 -0.0970774 0)
(0.0142335 -0.0856907 0)
(0.00486164 -0.123721 0)
(0.0218008 -0.141177 0)
(0.0199406 -0.134945 0)
(0.0197805 -0.110775 0)
(0.0229202 -0.0833236 0)
(0.0125257 -0.0632569 0)
(0.00426448 -0.0447117 0)
(-0.00267417 -0.0286684 0)
(-0.0172764 -0.0174677 0)
(-0.0351728 -0.019488 0)
(-0.0521217 -0.0264629 0)
(-0.0589901 -0.0299043 0)
(-0.0603948 -0.0429135 0)
(-0.0461516 -0.0604192 0)
(-0.0457193 -0.0693977 0)
(-0.051668 -0.0811406 0)
(-0.0524876 -0.0883546 0)
(-0.0460736 -0.101402 0)
(-0.0381438 -0.124294 0)
(-0.0348687 -0.134791 0)
(-0.033431 -0.129892 0)
(-0.0348232 -0.116023 0)
(-0.0339749 -0.109624 0)
(-0.0271772 -0.108656 0)
(-0.0104895 -0.11456 0)
(-0.000116508 -0.124359 0)
(-0.000263256 -0.129167 0)
(-0.00574028 -0.128871 0)
(-0.00180182 -0.0973035 0)
(0.00973853 -0.0828356 0)
(0.00632784 -0.129414 0)
(0.0184201 -0.141742 0)
(0.0154025 -0.131638 0)
(0.0221672 -0.11176 0)
(0.0219268 -0.079577 0)
(0.011687 -0.054234 0)
(-0.00546241 -0.0307586 0)
(-0.0177418 -0.0155671 0)
(-0.0318001 -0.00948708 0)
(-0.0499814 -0.0127935 0)
(-0.0658939 -0.0211223 0)
(-0.0668965 -0.0265012 0)
(-0.0629397 -0.0353639 0)
(-0.0491197 -0.0545327 0)
(-0.0459908 -0.0671142 0)
(-0.0501625 -0.0817562 0)
(-0.0523025 -0.0972509 0)
(-0.0438466 -0.112118 0)
(-0.0342994 -0.12614 0)
(-0.0334147 -0.131711 0)
(-0.0306259 -0.124783 0)
(-0.0295856 -0.111496 0)
(-0.0271807 -0.105913 0)
(-0.0235714 -0.107019 0)
(-0.0146932 -0.113174 0)
(-0.00798 -0.123499 0)
(-0.00665098 -0.126148 0)
(-0.0125839 -0.121917 0)
(-0.0104115 -0.0951027 0)
(0.00507198 -0.0851039 0)
(0.00551415 -0.128405 0)
(0.014527 -0.139848 0)
(0.00912385 -0.12207 0)
(0.0175314 -0.100174 0)
(0.020061 -0.0664032 0)
(0.00122827 -0.0343401 0)
(-0.0145642 -0.0119056 0)
(-0.0351738 -0.00100518 0)
(-0.0459363 -0.000896186 0)
(-0.0617105 -0.00811587 0)
(-0.0746949 -0.0188625 0)
(-0.0694177 -0.0249315 0)
(-0.0632266 -0.0367367 0)
(-0.0473088 -0.056483 0)
(-0.0446535 -0.0687189 0)
(-0.0471258 -0.0836293 0)
(-0.0500025 -0.0970013 0)
(-0.0443587 -0.111582 0)
(-0.0336552 -0.125067 0)
(-0.031893 -0.130436 0)
(-0.027954 -0.122041 0)
(-0.0244629 -0.10523 0)
(-0.024917 -0.0978315 0)
(-0.0269164 -0.102204 0)
(-0.0210109 -0.110455 0)
(-0.0194435 -0.12223 0)
(-0.0177031 -0.121579 0)
(-0.0219055 -0.114236 0)
(-0.0160596 -0.0932279 0)
(0.00256182 -0.0911388 0)
(0.00386885 -0.124948 0)
(0.0120356 -0.133011 0)
(0.00600507 -0.111363 0)
(0.0108373 -0.0824482 0)
(0.014698 -0.0516125 0)
(-0.00013057 -0.021894 0)
(-0.0178588 -0.00252121 0)
(-0.0448361 0.00549896 0)
(-0.0536785 0.00677372 0)
(-0.0655454 -0.000627702 0)
(-0.0750435 -0.0161728 0)
(-0.0705371 -0.0261859 0)
(-0.0597922 -0.0421189 0)
(-0.0426547 -0.0598962 0)
(-0.0409041 -0.0682341 0)
(-0.0455483 -0.0805207 0)
(-0.0473838 -0.0928574 0)
(-0.0404323 -0.110121 0)
(-0.0326795 -0.125354 0)
(-0.0319104 -0.128996 0)
(-0.0291228 -0.119245 0)
(-0.0283464 -0.100909 0)
(-0.0290292 -0.0941764 0)
(-0.0306579 -0.0956198 0)
(-0.0306439 -0.103587 0)
(-0.0307579 -0.115677 0)
(-0.0297738 -0.114691 0)
(-0.0272001 -0.104378 0)
(-0.018004 -0.0901129 0)
(-0.00161379 -0.091656 0)
(0.00231688 -0.118533 0)
(0.00987659 -0.127108 0)
(0.00281212 -0.106193 0)
(0.00803972 -0.0782037 0)
(0.0173161 -0.0469016 0)
(0.000909181 -0.0154735 0)
(-0.016642 0.00670509 0)
(-0.0381978 0.012659 0)
(-0.0515761 0.0138545 0)
(-0.0596717 0.00452786 0)
(-0.0680202 -0.0115479 0)
(-0.0661877 -0.0266311 0)
(-0.0546267 -0.0462044 0)
(-0.0409549 -0.0629141 0)
(-0.0375574 -0.0666473 0)
(-0.0423519 -0.0772459 0)
(-0.0427959 -0.0888751 0)
(-0.0346551 -0.104297 0)
(-0.0340729 -0.122064 0)
(-0.0367493 -0.124846 0)
(-0.0398586 -0.114995 0)
(-0.0415129 -0.100459 0)
(-0.0374726 -0.0923911 0)
(-0.0388644 -0.0899805 0)
(-0.0406653 -0.0964137 0)
(-0.0421881 -0.108065 0)
(-0.0387239 -0.10797 0)
(-0.0298054 -0.100993 0)
(-0.020689 -0.0892033 0)
(-0.00546232 -0.0908643 0)
(0.00473396 -0.113316 0)
(0.00946357 -0.122661 0)
(0.000559945 -0.102887 0)
(0.0122306 -0.0829001 0)
(0.0175169 -0.0502717 0)
(0.00622513 -0.0152526 0)
(-0.0086256 0.00761544 0)
(-0.0216971 0.0148539 0)
(-0.0410484 0.0192383 0)
(-0.0462236 0.0120774 0)
(-0.0555894 -0.00411702 0)
(-0.0587071 -0.0215213 0)
(-0.0474822 -0.0408749 0)
(-0.0394252 -0.0575479 0)
(-0.0364312 -0.0647168 0)
(-0.039382 -0.0751681 0)
(-0.0369 -0.0869825 0)
(-0.0321926 -0.0996408 0)
(-0.0332257 -0.116657 0)
(-0.0428382 -0.119087 0)
(-0.0507004 -0.112317 0)
(-0.0487315 -0.103824 0)
(-0.0475752 -0.0921634 0)
(-0.0507114 -0.0851517 0)
(-0.0522713 -0.0883828 0)
(-0.0514932 -0.0950879 0)
(-0.0461451 -0.0967287 0)
(-0.0312369 -0.0939527 0)
(-0.0214974 -0.0882087 0)
(-0.00620202 -0.0957591 0)
(0.00544397 -0.112298 0)
(0.00841654 -0.121531 0)
(5.66684e-05 -0.103416 0)
(0.0128926 -0.0832806 0)
(0.0160549 -0.0556051 0)
(0.013749 -0.0175395 0)
(0.00116486 0.00707358 0)
(-0.00794779 0.0191354 0)
(-0.0295521 0.0256153 0)
(-0.0351152 0.0188502 0)
(-0.0392587 0.000630145 0)
(-0.0478441 -0.0175724 0)
(-0.0421848 -0.035798 0)
(-0.0367433 -0.0533989 0)
(-0.0352181 -0.0654056 0)
(-0.0358166 -0.0747534 0)
(-0.032818 -0.0832557 0)
(-0.0322393 -0.096324 0)
(-0.033898 -0.111121 0)
(-0.0495347 -0.116434 0)
(-0.05318 -0.114678 0)
(-0.0540599 -0.104842 0)
(-0.0557445 -0.090186 0)
(-0.0598351 -0.0799476 0)
(-0.0614019 -0.0797314 0)
(-0.0583113 -0.0824192 0)
(-0.0515662 -0.0855654 0)
(-0.0346984 -0.0859489 0)
(-0.0266131 -0.0847625 0)
(-0.00363435 -0.103183 0)
(0.0057806 -0.110323 0)
(0.00610233 -0.120247 0)
(-0.000720056 -0.105155 0)
(0.011757 -0.0854876 0)
(0.0179427 -0.0591248 0)
(0.0218077 -0.0224709 0)
(0.0110013 0.0076951 0)
(0.00418911 0.0241762 0)
(-0.00730251 0.0304547 0)
(-0.0210664 0.0286698 0)
(-0.0226111 0.0078445 0)
(-0.0349232 -0.0101097 0)
(-0.0356077 -0.0273254 0)
(-0.0350614 -0.0454642 0)
(-0.0368341 -0.0622498 0)
(-0.0360012 -0.0726566 0)
(-0.0341586 -0.081628 0)
(-0.0305105 -0.092571 0)
(-0.0383564 -0.104923 0)
(-0.0479278 -0.11537 0)
(-0.0519377 -0.115142 0)
(-0.056535 -0.102853 0)
(-0.0618982 -0.0857682 0)
(-0.0689132 -0.0748956 0)
(-0.069019 -0.0736697 0)
(-0.0644431 -0.0761559 0)
(-0.0551559 -0.0796699 0)
(-0.0381234 -0.0822849 0)
(-0.0291776 -0.0930822 0)
(-0.00484193 -0.115149 0)
(0.00838912 -0.109799 0)
(0.00624501 -0.11951 0)
(-0.000885998 -0.106697 0)
(0.0113225 -0.0872674 0)
(0.0225079 -0.0595102 0)
(0.0292792 -0.0260969 0)
(0.023808 0.00413499 0)
(0.0149929 0.0245509 0)
(0.0112554 0.0355608 0)
(-0.00442901 0.0349382 0)
(-0.00905564 0.0141454 0)
(-0.0196941 -0.0037026 0)
(-0.0291052 -0.0198275 0)
(-0.0319502 -0.0369829 0)
(-0.0381994 -0.0600194 0)
(-0.0381688 -0.0701253 0)
(-0.0328283 -0.0802847 0)
(-0.0298218 -0.0898295 0)
(-0.0393002 -0.103241 0)
(-0.0433201 -0.11512 0)
(-0.0499322 -0.112919 0)
(-0.0568341 -0.101162 0)
(-0.06662 -0.0840346 0)
(-0.0748896 -0.076455 0)
(-0.0749871 -0.0776328 0)
(-0.0695434 -0.0794613 0)
(-0.0596707 -0.0843703 0)
(-0.0407792 -0.0938329 0)
(-0.0259396 -0.11446 0)
(-0.00262199 -0.133519 0)
(0.0100558 -0.10856 0)
(0.00462608 -0.117531 0)
(-0.00183441 -0.107172 0)
(0.0121586 -0.0893087 0)
(0.0264897 -0.0576752 0)
(0.0404027 -0.0299291 0)
(0.041044 0.00308002 0)
(0.0307263 0.0234882 0)
(0.0269618 0.0365372 0)
(0.0171087 0.0448934 0)
(0.00743781 0.023907 0)
(-0.00205456 0.00227996 0)
(-0.0190756 -0.0122944 0)
(-0.0277306 -0.0282507 0)
(-0.0345319 -0.0507578 0)
(-0.038718 -0.0638206 0)
(-0.0315654 -0.0776035 0)
(-0.033325 -0.0880998 0)
(-0.0365251 -0.102799 0)
(-0.0392115 -0.116341 0)
(-0.046253 -0.114952 0)
(-0.0545958 -0.106639 0)
(-0.064979 -0.0914488 0)
(-0.0750682 -0.0861737 0)
(-0.07433 -0.0932309 0)
(-0.06726 -0.0998648 0)
(-0.0559904 -0.112216 0)
(-0.0363137 -0.126154 0)
(-0.0214832 -0.149001 0)
(-0.00147208 -0.161861 0)
(0.00647906 -0.110347 0)
(-0.00310297 -0.118242 0)
(-0.00296407 -0.10984 0)
(0.0115029 -0.0915032 0)
(0.0285152 -0.05879 0)
(0.0465778 -0.0325853 0)
(0.0557492 0.00515616 0)
(0.0493584 0.0254495 0)
(0.0386533 0.038502 0)
(0.0332756 0.0455397 0)
(0.0285181 0.0321285 0)
(0.0140531 0.00800467 0)
(-0.00155669 -0.00557404 0)
(-0.0187249 -0.017088 0)
(-0.0262341 -0.0373805 0)
(-0.0340251 -0.0548824 0)
(-0.0293454 -0.074326 0)
(-0.0325708 -0.0881247 0)
(-0.033689 -0.101962 0)
(-0.0364632 -0.115363 0)
(-0.0436018 -0.116672 0)
(-0.054906 -0.106312 0)
(-0.0677478 -0.0941938 0)
(-0.0697097 -0.092883 0)
(-0.064593 -0.104791 0)
(-0.058524 -0.111064 0)
(-0.0465564 -0.127884 0)
(-0.0281259 -0.145222 0)
(-0.014191 -0.167882 0)
(-0.00235248 -0.179006 0)
(-0.00481269 -0.114808 0)
(-0.00768756 -0.120062 0)
(-0.00203356 -0.113692 0)
(0.0123152 -0.0948778 0)
(0.0286148 -0.0638392 0)
(0.0484722 -0.0390496 0)
(0.0664956 0.00270181 0)
(0.0677711 0.0304313 0)
(0.0521114 0.0414018 0)
(0.0461193 0.0458411 0)
(0.0410214 0.0371656 0)
(0.0339705 0.016489 0)
(0.014868 0.00527728 0)
(-0.00455418 -0.00266689 0)
(-0.0145062 -0.019541 0)
(-0.0246932 -0.0432364 0)
(-0.023624 -0.0683021 0)
(-0.0287605 -0.0842862 0)
(-0.0292554 -0.0981702 0)
(-0.0340411 -0.109279 0)
(-0.0430287 -0.109489 0)
(-0.0583523 -0.099538 0)
(-0.0723236 -0.0867915 0)
(-0.0646714 -0.0848409 0)
(-0.0546862 -0.103882 0)
(-0.0494633 -0.112509 0)
(-0.0365489 -0.13468 0)
(-0.0220231 -0.15681 0)
(-0.00946451 -0.177443 0)
(-0.000466924 -0.189296 0)
(-0.00726256 -0.118797 0)
(-0.00587407 -0.121044 0)
(0.000843694 -0.117904 0)
(0.0152728 -0.0996957 0)
(0.0301342 -0.0711365 0)
(0.0533636 -0.0517203 0)
(0.0727119 -0.0164351 0)
(0.0827922 0.0273923 0)
(0.075222 0.0449691 0)
(0.0603305 0.0475832 0)
(0.0529606 0.0434228 0)
(0.0468784 0.0269071 0)
(0.0295216 0.0151472 0)
(0.0105305 0.0113108 0)
(-0.00164486 -0.00279944 0)
(-0.0127933 -0.0318857 0)
(-0.0134543 -0.0588033 0)
(-0.0209275 -0.080431 0)
(-0.023952 -0.0919227 0)
(-0.0311259 -0.102098 0)
(-0.0431149 -0.101588 0)
(-0.0591922 -0.0902254 0)
(-0.0715258 -0.0786709 0)
(-0.0588746 -0.0803602 0)
(-0.0472604 -0.105781 0)
(-0.0386633 -0.11763 0)
(-0.0274493 -0.140117 0)
(-0.0179228 -0.162653 0)
(-0.00518216 -0.180805 0)
(0.00364261 -0.193508 0)
(-0.00380292 -0.118128 0)
(-0.00189455 -0.120302 0)
(0.0051832 -0.121013 0)
(0.0203191 -0.107379 0)
(0.0335636 -0.0776698 0)
(0.0587502 -0.0583692 0)
(0.0736806 -0.0280324 0)
(0.0907255 0.0105713 0)
(0.0902732 0.0448255 0)
(0.0776617 0.049996 0)
(0.0648288 0.0477408 0)
(0.0594106 0.0363325 0)
(0.0452615 0.0223858 0)
(0.0234666 0.025458 0)
(0.0134069 0.00823847 0)
(0.00160209 -0.019987 0)
(-0.00163611 -0.0491187 0)
(-0.0107011 -0.0749258 0)
(-0.0190826 -0.084901 0)
(-0.0322421 -0.0952547 0)
(-0.04464 -0.0940781 0)
(-0.058411 -0.0810648 0)
(-0.065778 -0.072016 0)
(-0.0484607 -0.0781427 0)
(-0.038089 -0.110632 0)
(-0.0301101 -0.127887 0)
(-0.0217084 -0.147992 0)
(-0.0141194 -0.164783 0)
(-0.00286451 -0.179839 0)
(0.00985576 -0.196421 0)
(-0.000503736 -0.117237 0)
(0.00484371 -0.118234 0)
(0.0137933 -0.120999 0)
(0.0256815 -0.114141 0)
(0.0383207 -0.0879456 0)
(0.0599635 -0.066576 0)
(0.0763861 -0.0347577 0)
(0.0906597 -0.00170312 0)
(0.0962153 0.0381427 0)
(0.0887266 0.0499432 0)
(0.0765283 0.0507079 0)
(0.0686277 0.0457846 0)
(0.0592691 0.032365 0)
(0.0383126 0.033352 0)
(0.0243169 0.0203382 0)
(0.0157506 -0.00990421 0)
(0.00971779 -0.0402063 0)
(-0.00244194 -0.0693973 0)
(-0.0174582 -0.079858 0)
(-0.0312826 -0.0858922 0)
(-0.045241 -0.085182 0)
(-0.0561789 -0.0743432 0)
(-0.0591179 -0.0686492 0)
(-0.0400529 -0.0813164 0)
(-0.0332516 -0.116634 0)
(-0.0235352 -0.132495 0)
(-0.0169717 -0.151848 0)
(-0.00998639 -0.165275 0)
(0.000597666 -0.177622 0)
(0.0157179 -0.193439 0)
(0.00422451 -0.121158 0)
(0.0127674 -0.123158 0)
(0.0229686 -0.123373 0)
(0.0354762 -0.121809 0)
(0.0439189 -0.0969526 0)
(0.0613842 -0.0698255 0)
(0.0775529 -0.0431615 0)
(0.0914103 -0.0100781 0)
(0.0968967 0.0313706 0)
(0.0951794 0.0496994 0)
(0.0832466 0.0543487 0)
(0.0745163 0.0532779 0)
(0.0695107 0.0433247 0)
(0.052915 0.0394247 0)
(0.0338439 0.0274988 0)
(0.0239705 0.00119398 0)
(0.0187349 -0.0329336 0)
(0.00054218 -0.0643554 0)
(-0.0159259 -0.0704165 0)
(-0.0317543 -0.0747612 0)
(-0.0445918 -0.0758151 0)
(-0.0503417 -0.0651754 0)
(-0.0507232 -0.0627664 0)
(-0.0356184 -0.0791622 0)
(-0.0322628 -0.117478 0)
(-0.0195143 -0.133317 0)
(-0.0153188 -0.150095 0)
(-0.00853754 -0.16031 0)
(0.00268721 -0.169491 0)
(0.0152265 -0.184542 0)
(0.00446757 -0.126463 0)
(0.0150189 -0.134074 0)
(0.0274797 -0.13316 0)
(0.0414425 -0.128902 0)
(0.0480174 -0.103221 0)
(0.0633631 -0.0721027 0)
(0.0771807 -0.047366 0)
(0.0920015 -0.0186763 0)
(0.0986165 0.0276387 0)
(0.100033 0.0495666 0)
(0.0887983 0.0574104 0)
(0.0795214 0.0587262 0)
(0.0736785 0.0517907 0)
(0.0649819 0.0424603 0)
(0.0379249 0.0294276 0)
(0.029403 0.00920431 0)
(0.0234861 -0.0255063 0)
(0.00459687 -0.0552973 0)
(-0.0146923 -0.0614641 0)
(-0.0257834 -0.0648651 0)
(-0.0389431 -0.0663361 0)
(-0.0449046 -0.057315 0)
(-0.0432291 -0.056255 0)
(-0.0326707 -0.07283 0)
(-0.0299272 -0.112776 0)
(-0.0151976 -0.132503 0)
(-0.0148059 -0.147017 0)
(-0.00979822 -0.153792 0)
(0.00141567 -0.168026 0)
(0.013759 -0.174003 0)
(0.00447012 -0.131581 0)
(0.0167226 -0.146876 0)
(0.0294004 -0.145746 0)
(0.0440306 -0.137413 0)
(0.0493163 -0.1093 0)
(0.0615153 -0.0745694 0)
(0.0744907 -0.0552715 0)
(0.0856722 -0.022544 0)
(0.0966651 0.0232383 0)
(0.101691 0.0483648 0)
(0.0933961 0.0588925 0)
(0.083946 0.0620915 0)
(0.0749925 0.0588412 0)
(0.0660804 0.048255 0)
(0.0479201 0.0286439 0)
(0.0327352 0.0139226 0)
(0.0252836 -0.0156148 0)
(0.00569012 -0.0455126 0)
(-0.00967581 -0.0557192 0)
(-0.0184675 -0.0574582 0)
(-0.0316581 -0.0579399 0)
(-0.0395824 -0.0486642 0)
(-0.0392415 -0.0518802 0)
(-0.0285032 -0.0706651 0)
(-0.0259605 -0.112994 0)
(-0.0154431 -0.13054 0)
(-0.0137024 -0.140185 0)
(-0.00727283 -0.146977 0)
(0.000373272 -0.166787 0)
(0.0102756 -0.163795 0)
(0.00509864 -0.133859 0)
(0.0205425 -0.154009 0)
(0.0348372 -0.1576 0)
(0.0455974 -0.146572 0)
(0.0465435 -0.117337 0)
(0.0543176 -0.0811119 0)
(0.0668578 -0.0575708 0)
(0.0748887 -0.0234821 0)
(0.0909088 0.0177785 0)
(0.0988564 0.0462621 0)
(0.0942274 0.0606531 0)
(0.0854788 0.0654829 0)
(0.0734659 0.0636498 0)
(0.0663133 0.0532562 0)
(0.0522671 0.0326488 0)
(0.0371717 0.0173901 0)
(0.0273717 -0.00501489 0)
(0.0116047 -0.0392533 0)
(-0.00312265 -0.0513971 0)
(-0.0137881 -0.0533078 0)
(-0.0253707 -0.0514925 0)
(-0.0318063 -0.0418689 0)
(-0.0358747 -0.0503209 0)
(-0.0252858 -0.080998 0)
(-0.0242769 -0.117566 0)
(-0.0158153 -0.130022 0)
(-0.0114143 -0.138111 0)
(-0.00280846 -0.14982 0)
(0.00117071 -0.170854 0)
(0.00958671 -0.15727 0)
(0.00872005 -0.137605 0)
(0.0286315 -0.160693 0)
(0.0396899 -0.163043 0)
(0.0457511 -0.153108 0)
(0.0439392 -0.126625 0)
(0.0446322 -0.0869755 0)
(0.0570998 -0.0570274 0)
(0.0654379 -0.0216906 0)
(0.0818595 0.0130371 0)
(0.0922352 0.0435787 0)
(0.0906838 0.0609347 0)
(0.08238 0.0676166 0)
(0.0710813 0.0656647 0)
(0.0642933 0.0570192 0)
(0.0526576 0.037989 0)
(0.0478657 0.0231166 0)
(0.0330736 -0.000188111 0)
(0.0172293 -0.0349442 0)
(0.00143495 -0.0485154 0)
(-0.0128323 -0.0518132 0)
(-0.0203432 -0.0520496 0)
(-0.0245926 -0.0420452 0)
(-0.029116 -0.0539469 0)
(-0.0217249 -0.0899256 0)
(-0.0192249 -0.123341 0)
(-0.010925 -0.139167 0)
(-0.00645877 -0.146075 0)
(0.00235188 -0.163865 0)
(0.00174484 -0.174675 0)
(0.00843416 -0.151607 0)
(0.0116111 -0.142739 0)
(0.0318217 -0.166593 0)
(0.042221 -0.165629 0)
(0.0441723 -0.156897 0)
(0.0376252 -0.131316 0)
(0.0338392 -0.0911071 0)
(0.0421851 -0.0540047 0)
(0.0542283 -0.0204609 0)
(0.0672593 0.0124058 0)
(0.0808347 0.0421859 0)
(0.0814216 0.0609895 0)
(0.0745157 0.0675066 0)
(0.0660505 0.0668627 0)
(0.0582273 0.05672 0)
(0.0545654 0.0415596 0)
(0.0543147 0.0281429 0)
(0.035666 0.00148899 0)
(0.0119174 -0.0352885 0)
(0.000998187 -0.0509317 0)
(-0.0100012 -0.0571643 0)
(-0.0155277 -0.0573325 0)
(-0.0185792 -0.0471242 0)
(-0.0217333 -0.0563824 0)
(-0.014285 -0.0881838 0)
(-0.00671817 -0.127345 0)
(-0.0011022 -0.154053 0)
(0.00305401 -0.165365 0)
(0.00900765 -0.181064 0)
(0.00423217 -0.18989 0)
(0.00521862 -0.154868 0)
(0.0111251 -0.154951 0)
(0.0318025 -0.174532 0)
(0.0398695 -0.167188 0)
(0.0390343 -0.158323 0)
(0.0275531 -0.132968 0)
(0.0193221 -0.09348 0)
(0.025704 -0.0500763 0)
(0.0409091 -0.0222087 0)
(0.0530953 0.0128567 0)
(0.0667133 0.0410817 0)
(0.0656366 0.0586063 0)
(0.0637046 0.0630117 0)
(0.0583324 0.0609618 0)
(0.0510329 0.0529025 0)
(0.0513599 0.0409487 0)
(0.0523277 0.0283926 0)
(0.0353877 0.00023024 0)
(0.0107492 -0.0370974 0)
(0.002494 -0.0505969 0)
(-0.00727941 -0.0535867 0)
(-0.014928 -0.053324 0)
(-0.0179447 -0.0467697 0)
(-0.0200177 -0.059701 0)
(-0.0122358 -0.0907368 0)
(0.0020813 -0.125649 0)
(0.00739428 -0.155398 0)
(0.00996338 -0.168739 0)
(0.0122748 -0.182679 0)
(0.00639987 -0.190735 0)
(0.00788264 -0.164792 0)
(0.00807142 -0.168901 0)
(0.0278226 -0.186537 0)
(0.0333639 -0.171521 0)
(0.0320996 -0.157898 0)
(0.0176552 -0.13343 0)
(0.00648304 -0.0939636 0)
(0.0105064 -0.0456177 0)
(0.0248727 -0.0211994 0)
(0.0371999 0.0102647 0)
(0.0458738 0.038114 0)
(0.0474373 0.0548185 0)
(0.0504615 0.0571609 0)
(0.0475815 0.0538553 0)
(0.0471569 0.0472085 0)
(0.045398 0.0382129 0)
(0.0474901 0.0250828 0)
(0.0307076 0.00347953 0)
(0.00907492 -0.0339569 0)
(0.00284087 -0.0436134 0)
(-0.00749242 -0.0458302 0)
(-0.0162088 -0.0455634 0)
(-0.0182809 -0.0474556 0)
(-0.0192861 -0.0678491 0)
(-0.0154104 -0.0999143 0)
(0.00460782 -0.127322 0)
(0.0121925 -0.153218 0)
(0.0145235 -0.162991 0)
(0.0149481 -0.172644 0)
(0.00787627 -0.183562 0)
(0.00919494 -0.161895 0)
(0.00257346 -0.178573 0)
(0.0223572 -0.192634 0)
(0.0267093 -0.173671 0)
(0.0262845 -0.157197 0)
(0.0113531 -0.136564 0)
(-0.00302427 -0.0973096 0)
(-0.00193855 -0.0490775 0)
(0.0113324 -0.0228182 0)
(0.021552 0.00365286 0)
(0.0264643 0.0344891 0)
(0.0318973 0.0484208 0)
(0.0369633 0.050389 0)
(0.0397071 0.0479884 0)
(0.0442174 0.0429124 0)
(0.0463133 0.0331678 0)
(0.0408673 0.0220014 0)
(0.0273764 0.0115962 0)
(0.0107162 -0.0248505 0)
(0.00248842 -0.0340169 0)
(-0.0108142 -0.034573 0)
(-0.0170662 -0.0391573 0)
(-0.0180671 -0.0491461 0)
(-0.0199793 -0.0746481 0)
(-0.0116491 -0.103873 0)
(0.00510996 -0.129272 0)
(0.0146094 -0.149479 0)
(0.0172839 -0.154617 0)
(0.0171265 -0.162051 0)
(0.00817986 -0.17357 0)
(0.00816641 -0.154166 0)
(-0.00527091 -0.182031 0)
(0.0164003 -0.193951 0)
(0.0210597 -0.1728 0)
(0.02079 -0.155677 0)
(0.00673407 -0.139464 0)
(-0.00838025 -0.105785 0)
(-0.00933749 -0.0593019 0)
(0.00402669 -0.0310144 0)
(0.010334 -0.000320734 0)
(0.0150357 0.028565 0)
(0.0211871 0.0427683 0)
(0.0259159 0.0448868 0)
(0.034681 0.0446202 0)
(0.039205 0.0375807 0)
(0.0443374 0.027289 0)
(0.0318 0.0231231 0)
(0.0221625 0.017807 0)
(0.00919256 -0.017862 0)
(-0.0010723 -0.0205769 0)
(-0.00956802 -0.0228412 0)
(-0.015189 -0.0339629 0)
(-0.0164504 -0.0510068 0)
(-0.0194042 -0.0779218 0)
(-0.00575155 -0.104343 0)
(0.00775819 -0.129728 0)
(0.0150717 -0.146971 0)
(0.017792 -0.147915 0)
(0.0162658 -0.154267 0)
(0.00699254 -0.166267 0)
(0.00648296 -0.148913 0)
(-0.00725014 -0.178928 0)
(0.0119863 -0.189508 0)
(0.0138641 -0.170554 0)
(0.0138702 -0.154102 0)
(0.000361561 -0.141126 0)
(-0.0139476 -0.112376 0)
(-0.01629 -0.066532 0)
(-0.00199715 -0.0342197 0)
(0.00452386 -0.00403166 0)
(0.00970212 0.0234408 0)
(0.0165785 0.0366028 0)
(0.023596 0.0421644 0)
(0.0315001 0.0405918 0)
(0.0407258 0.0336111 0)
(0.0414635 0.0244332 0)
(0.0265726 0.0263248 0)
(0.0189202 0.0245316 0)
(0.00831664 -0.00954236 0)
(-0.00367233 -0.0117704 0)
(-0.0100155 -0.0127728 0)
(-0.0138059 -0.0309879 0)
(-0.0146811 -0.0505601 0)
(-0.0164845 -0.078445 0)
(-0.0018454 -0.102222 0)
(0.00986146 -0.129271 0)
(0.0136433 -0.144075 0)
(0.0160908 -0.14137 0)
(0.0144171 -0.145584 0)
(0.00579131 -0.158306 0)
(0.00569501 -0.142308 0)
(-0.00481016 -0.179439 0)
(0.00770902 -0.182085 0)
(0.00718887 -0.165305 0)
(0.00429384 -0.149217 0)
(-0.00684743 -0.139322 0)
(-0.0202097 -0.116831 0)
(-0.0262533 -0.0694679 0)
(-0.0109725 -0.0360306 0)
(0.00118725 -0.00720746 0)
(0.00877288 0.0190868 0)
(0.0178986 0.0363187 0)
(0.0278286 0.0412153 0)
(0.0340216 0.0399079 0)
(0.0444014 0.0299745 0)
(0.039299 0.0258279 0)
(0.0254013 0.0303796 0)
(0.0168559 0.0281444 0)
(0.00456372 -0.00677074 0)
(-0.0101704 -0.00867897 0)
(-0.0133462 -0.01312 0)
(-0.0144112 -0.0307429 0)
(-0.013745 -0.0499304 0)
(-0.0127478 -0.0755805 0)
(0.00113946 -0.0998872 0)
(0.0102674 -0.127517 0)
(0.0119894 -0.141416 0)
(0.0142754 -0.136826 0)
(0.012285 -0.138784 0)
(0.00425735 -0.150838 0)
(0.00570759 -0.136818 0)
(-0.0059744 -0.179834 0)
(0.00285828 -0.17453 0)
(0.00131996 -0.159846 0)
(-0.00551621 -0.142101 0)
(-0.0143319 -0.134768 0)
(-0.0281513 -0.116263 0)
(-0.036 -0.0713933 0)
(-0.0189954 -0.0368504 0)
(-0.000607252 -0.0123333 0)
(0.00943515 0.0150252 0)
(0.0215287 0.036881 0)
(0.0327599 0.0441781 0)
(0.0378532 0.0419161 0)
(0.0441397 0.033623 0)
(0.0380489 0.0296614 0)
(0.026432 0.0353002 0)
(0.0158219 0.0305668 0)
(0.00132009 -0.00205954 0)
(-0.0125049 -0.00743894 0)
(-0.0138609 -0.0118756 0)
(-0.0139546 -0.0289193 0)
(-0.0123835 -0.0454174 0)
(-0.00699771 -0.072157 0)
(0.00556053 -0.0957539 0)
(0.0109408 -0.124765 0)
(0.011171 -0.136132 0)
(0.0121322 -0.131489 0)
(0.00903764 -0.132237 0)
(0.00180239 -0.142909 0)
(0.00574402 -0.129888 0)
(-0.00844216 -0.176418 0)
(-0.000156234 -0.168638 0)
(-0.00396736 -0.153349 0)
(-0.0126508 -0.137098 0)
(-0.021396 -0.129621 0)
(-0.0341419 -0.114008 0)
(-0.0424444 -0.0738444 0)
(-0.021064 -0.0381219 0)
(0.00106096 -0.0161018 0)
(0.011391 0.0113051 0)
(0.0224028 0.0348926 0)
(0.0355066 0.0427689 0)
(0.0391676 0.0430757 0)
(0.0422594 0.0338571 0)
(0.0393946 0.0340228 0)
(0.0298556 0.0418586 0)
(0.0160824 0.0318211 0)
(0.00153786 0.0037807 0)
(-0.0124483 -0.00278846 0)
(-0.0149365 -0.0087475 0)
(-0.0163757 -0.0254105 0)
(-0.0140376 -0.0484613 0)
(-0.00180567 -0.0710159 0)
(0.0109036 -0.0924629 0)
(0.0145533 -0.121523 0)
(0.015576 -0.130328 0)
(0.0124848 -0.122286 0)
(0.00647077 -0.123673 0)
(-0.000243629 -0.136104 0)
(0.00594155 -0.127089 0)
(-0.00926276 -0.171768 0)
(-0.00159542 -0.167685 0)
(-0.0103092 -0.150538 0)
(-0.0166398 -0.135876 0)
(-0.025948 -0.126835 0)
(-0.0373438 -0.112066 0)
(-0.0422728 -0.0768108 0)
(-0.0196586 -0.039775 0)
(0.00237097 -0.0173748 0)
(0.0129298 0.00982854 0)
(0.0215515 0.0327829 0)
(0.0316162 0.0374372 0)
(0.0380386 0.0416344 0)
(0.0421707 0.0332513 0)
(0.0412754 0.0381824 0)
(0.0329049 0.0475802 0)
(0.018144 0.0312879 0)
(0.00450074 0.0115223 0)
(-0.0112718 0.00249351 0)
(-0.0164343 -0.00506184 0)
(-0.0184996 -0.0283476 0)
(-0.0129872 -0.0540318 0)
(0.00135148 -0.0730788 0)
(0.0169535 -0.0912534 0)
(0.0190353 -0.119598 0)
(0.0103441 -0.122512 0)
(0.0073272 -0.118587 0)
(0.00582547 -0.119633 0)
(0.000651221 -0.129239 0)
(0.00648184 -0.124489 0)
(-0.00721625 -0.165722 0)
(0.00017255 -0.168596 0)
(-0.00675979 -0.151541 0)
(-0.0162885 -0.135082 0)
(-0.0258175 -0.123886 0)
(-0.0347544 -0.11074 0)
(-0.0381503 -0.0757162 0)
(-0.0180414 -0.0403265 0)
(0.000753631 -0.0171978 0)
(0.0142682 0.00559611 0)
(0.0226935 0.0295495 0)
(0.0309718 0.0330276 0)
(0.0394411 0.0415898 0)
(0.0435439 0.037179 0)
(0.0423364 0.0442418 0)
(0.0344618 0.0518768 0)
(0.0215031 0.0332531 0)
(0.00879205 0.0188724 0)
(-0.00887322 0.0100034 0)
(-0.0157203 0.000774458 0)
(-0.0159195 -0.029418 0)
(-0.00663604 -0.0572888 0)
(0.00749254 -0.0761882 0)
(0.0219425 -0.0921565 0)
(0.0158678 -0.115439 0)
(0.00654822 -0.118216 0)
(0.00485561 -0.117013 0)
(0.00398449 -0.116976 0)
(0.00040099 -0.127326 0)
(0.00987379 -0.120465 0)
(-0.00674844 -0.157832 0)
(0.00204407 -0.163856 0)
(-0.00612936 -0.146554 0)
(-0.0187159 -0.130355 0)
(-0.0292918 -0.118794 0)
(-0.030802 -0.106061 0)
(-0.0330829 -0.069996 0)
(-0.020838 -0.0387646 0)
(-0.00136742 -0.0151658 0)
(0.0147758 0.00703578 0)
(0.0247951 0.028221 0)
(0.0326681 0.0347635 0)
(0.04163 0.0432605 0)
(0.0454994 0.0430827 0)
(0.0438044 0.0504949 0)
(0.0346494 0.0560103 0)
(0.0241034 0.0367693 0)
(0.014883 0.0270362 0)
(-0.00446557 0.0171068 0)
(-0.0127011 0.00621781 0)
(-0.00975732 -0.0318601 0)
(0.00176777 -0.059082 0)
(0.0138086 -0.077655 0)
(0.023001 -0.0920025 0)
(0.0126607 -0.108251 0)
(0.00499843 -0.115102 0)
(0.00133257 -0.113411 0)
(0.00198595 -0.115641 0)
(-0.001699 -0.12565 0)
(0.011124 -0.115375 0)
(-0.00720971 -0.147496 0)
(0.00128613 -0.15698 0)
(-0.00733179 -0.137616 0)
(-0.0184524 -0.121041 0)
(-0.0274205 -0.110881 0)
(-0.0264859 -0.0965993 0)
(-0.0331816 -0.0625497 0)
(-0.023831 -0.034723 0)
(-0.00171374 -0.011477 0)
(0.0120709 0.00847465 0)
(0.0245316 0.030963 0)
(0.0358044 0.0418344 0)
(0.043267 0.0527386 0)
(0.0472879 0.051787 0)
(0.0463602 0.0566653 0)
(0.0360909 0.0584959 0)
(0.0262816 0.0418754 0)
(0.019667 0.0337226 0)
(0.00136002 0.0242039 0)
(-0.00912182 0.0107865 0)
(-0.00174299 -0.0332029 0)
(0.00755304 -0.0620509 0)
(0.0166584 -0.0770382 0)
(0.0208991 -0.0876793 0)