/*--------------------------------*- C++ -*----------------------------------*\
| =========                 |                                                 |
| \\      /  F ield         | OpenFOAM: The Open Source CFD Toolbox           |
|  \\    /   O peration     | Version:  2.3.0                                 |
|   \\  /    A nd           | Web:      www.OpenFOAM.org                      |
|    \\/     M anipulation  |                                                 |
\*---------------------------------------------------------------------------*/
FoamFile
{
    version     2.0;
    format      ascii;
    class       volScalarField;
    location    "0.0999448";
    object      epsilon.air;
}
// * * * * * * * * * * * * * * * * * * * * * * * * * * * * * * * * * * * * * //

dimensions      [0 2 -3 0 0 0 0];

internalField   nonuniform List<scalar> 
10000
(
7.58375
6.07821
6.38415
6.04057
2.69811
1.92293
1.62979
2.14214
1.64371
1.61267
1.9943
1.60245
1.50028
1.50298
1.59535
2.24408
6.95437
7.53667
6.2616
6.69196
34.6779
30.5356
130.937
30.6404
46.1806
36.3237
14.4619
51.0468
16.452
11.9167
46.1356
10.431
5.08313
4.379
4.45116
5.83274
23.7269
184.894
80.7855
30.2259
125.442
25.6948
341.315
46.5239
25.6668
14.393
81.1193
17.2517
95.6669
33.6947
25.596
27.1018
11.7299
6.88685
5.54165
19.9126
21.462
1268.92
287.951
59.6028
596.234
12.6663
50.067
0.423259
1.91807
6.30576
60.2696
5.19882
74.7054
65.4305
14.3949
72.6516
25.8082
10.3436
5.0696
96.1123
11.7768
197.406
50.258
58.705
3166.35
37.3041
353.029
1.24229
0.256004
4.24577
47.9673
2.39873
59.4149
64.6776
9.19025
65.9064
21.5696
18.0753
12.7914
18.3359
28.0453
33.281
43.7346
30.8128
1465.95
282.158
1141.48
14.1883
0.0327966
0.65583
21.282
0.270485
27.5799
29.6132
1.60285
30.8009
10.1545
7.22851
15.1093
9.77788
131.897
7.08009
125.281
257.55
97.5818
1062.27
302.921
13.4169
0.0486689
0.0572594
11.7719
0.114599
16.2978
14.6181
0.103776
14.7652
13.1685
5.91101
6.72812
5.10218
590.644
17.9989
239.739
1192.43
133.563
896.738
14.9186
6.76729
0.0242337
0.0105005
1.9729
0.0135098
3.27426
2.8181
0.0129884
2.81121
5.02189
6.43895
6.3959
1.67339
138.971
22.4505
173.944
1117.92
36.2003
728.937
6.7415
5.20159
0.0827666
0.0944606
0.254792
0.0875265
0.420615
0.37173
0.0875074
0.384774
0.700606
0.854541
1.09572
0.5342
92.5401
9.57918
22.5464
1084.95
192.481
35.9584
5.3384
5.67215
6.53935
6.70384
6.01655
6.15199
5.69973
5.76475
6.086
5.76246
5.51583
5.47349
5.75522
10.7058
34.2527
2.46084
4.90598
286.883
1284.42
28.9867
17.1776
9.72581
10.8301
4.43869
4.02663
4.14177
3.9192
3.93705
4.20027
3.99801
3.97081
4.05527
4.51322
6.5434
8.62053
0.35371
0.828884
19.454
1230.47
170.307
152.544
18.294
11.7006
4.00837
2.34385
3.7898
2.32407
2.33501
3.84754
2.37521
2.38366
2.46308
2.93109
9.02546
4.77202
0.231039
0.60932
26.5168
656.294
1964.24
1526.14
41.9827
12.7332
2.41178
2.20792
3.26019
2.23936
2.24819
3.30053
2.29019
2.32893
2.42353
3.03394
15.6592
5.51267
1.10537
1.33416
159.855
46.0351
2600.77
730.603
204.573
13.7721
2.52545
2.44108
2.14305
2.49764
2.49254
2.15723
2.52674
2.64819
2.76536
3.34966
9.43369
21.7739
9.79138
4.72792
901.551
83.4858
2410.58
3614.43
1355.28
17.837
2.95063
3.29467
2.5292
3.21346
3.08812
2.42587
3.13645
3.14824
3.48164
3.91827
8.8125
189.169
86.2745
10.5354
428.991
1018.5
26.3371
3998.27
106.815
15.6176
4.86463
8.14551
3.56492
6.05361
5.26968
2.21429
5.42442
4.59809
8.1559
9.08811
12.7459
1473.79
255.614
14.6616
544.663
1260
12.2083
326.645
0.65672
11.8788
3.22777
8.11342
4.72465
8.39521
8.3692
4.71103
8.40134
8.63436
8.89101
9.20338
21.7393
1336.97
5.77704
12.0274
692.994
1142.03
24.2445
9.42202
0.0997147
12.353
3.79334
6.51308
4.18075
6.37233
6.3637
4.19121
6.35991
6.50393
6.48818
6.73109
15.2733
1083.91
3.0896
2.85272
580.902
484.922
487.881
0.454849
1.99852
10.8846
4.11478
4.50721
2.15874
3.99757
3.95432
2.10313
3.97329
4.082
4.11552
4.56227
11.1569
527.694
1.08066
0.730799
219.688
35.8383
1176
0.970695
0.502859
1.26254
1.56166
1.46461
1.54545
2.57077
2.70729
1.50821
1.82951
3.43933
3.50156
3.95614
3.08316
41.3055
0.0317462
0.0704835
28.9089
7.46478
5.41603
4.74408
5.80686
2.41375
1.73089
1.61338
1.76727
1.61155
1.60208
1.69317
1.60103
1.52275
1.52968
1.62422
2.27947
6.83795
5.36317
5.26176
6.68864
31.0997
27.7645
92.6689
28.6696
20.9569
16.6747
9.79068
22.896
10.7369
9.5699
20.1368
8.824
4.68833
4.20154
4.23567
5.27916
22.1657
74.3029
58.6667
28.2518
107.625
23.513
226.805
64.7018
16.8742
11.1344
33.2634
12.9417
37.7735
24.055
15.6909
20.1174
9.11028
6.47825
5.36714
14.4614
19.3632
410.472
186.386
55.0849
426.137
9.94897
36.2738
6.26978
5.16997
6.69889
25.0128
6.30787
29.2511
23.5039
10.2166
23.5711
16.5953
8.56438
4.26704
35.9167
10.0752
145.392
59.013
53.2008
1414.37
20.2334
92.727
7.96804
2.29111
5.30985
19.8515
4.34615
23.0274
24.8904
7.83079
25.4881
16.7337
14.5465
8.64575
13.6928
19.965
45.5841
45.0707
19.9447
454.899
93.0101
397.667
15.9935
0.127422
2.28821
9.83217
1.69567
11.409
11.9234
3.11812
12.1888
7.87098
6.16691
11.0596
8.4331
82.0806
21.8942
71.3868
74.0197
82.4227
411.682
210.147
13.6489
0.145083
0.598651
5.9914
0.89389
7.02695
6.63051
0.90298
6.6762
7.62392
4.7537
5.14828
6.07456
261.279
23.1559
112.517
392.491
111.601
415.961
12.6685
6.97138
0.104579
0.0576515
1.89328
0.0968804
2.29695
2.17664
0.0883316
2.18832
2.73277
3.04204
3.19778
3.14904
88.4065
22.8027
84.9297
435.927
27.0393
363.797
5.30484
5.29966
0.478746
0.307767
1.04593
0.29948
1.2319
1.19276
0.30642
1.20759
1.41555
1.49203
1.63795
1.88726
58.5854
9.74489
20.8428
424.021
98.3458
31.4769
4.39513
5.75313
6.68139
5.12217
4.78084
4.75969
4.61784
4.65705
4.72172
4.66398
4.54357
4.53498
4.78132
8.29885
31.7279
2.46392
4.38994
194.485
526.607
20.1869
9.3069
9.71915
8.36741
3.84707
3.6576
3.6288
3.59361
3.6085
3.67454
3.6622
3.66142
3.73799
4.13325
6.08537
8.65541
0.312049
0.685602
16.5437
585.124
81.7886
40.7857
17.7519
9.56065
3.64261
2.36751
3.47208
2.34591
2.35721
3.5189
2.39812
2.40599
2.48645
2.96056
7.92779
4.63579
0.0939951
0.384898
17.2059
416.529
698.522
282.144
35.3207
10.9059
2.43631
2.22889
3.05369
2.25898
2.26809
3.08878
2.31093
2.35013
2.44662
3.05881
13.5545
4.56531
0.144216
0.631188
80.5018
37.1447
1109.13
469.024
119.28
12.1348
2.55732
2.47251
2.16523
2.5285
2.52351
2.17874
2.55836
2.68236
2.80336
3.41061
9.63092
11.8923
1.02349
2.44791
352.667
40.117
893.499
1387.17
539.111
14.802
2.99846
3.32708
2.57896
3.28429
3.1656
2.48351
3.21443
3.23888
3.54066
3.98051
8.94285
73.7737
10.2095
8.95734
235.031
269.444
17.2719
1892.23
130.486
13.8748
4.25651
6.14589
3.52429
5.02825
4.38467
2.58603
4.38325
3.93157
5.93287
6.71043
10.9737
526.591
38.119
13.7802
268.867
503.874
9.09068
278.717
7.99187
10.6979
3.30887
6.1572
4.08661
6.25135
6.24184
4.07056
6.25584
6.33923
6.47796
6.66445
15.2844
610.919
2.58075
11.2116
318.685
460.024
7.85312
7.70325
1.55346
11.6445
3.90886
5.15965
3.74702
4.97822
4.96084
3.73573
4.94205
4.9024
4.87528
5.00168
10.8962
522.021
2.06967
2.4481
252.669
159.779
64.272
0.167512
4.51446
11.1026
4.27838
3.878
2.20046
3.47374
3.44876
2.14257
3.43465
3.48081
3.4975
3.80929
8.37276
215.345
0.548083
0.776139
85.9281
8.59115
292.976
0.115277
0.81464
1.63548
1.68697
1.53423
1.62578
2.2243
2.37997
1.57618
1.59151
2.95371
3.00646
3.33973
3.55433
9.53576
0.010096
0.173501
7.72641
6.94464
4.82094
4.02471
5.36098
2.27904
1.63577
1.52742
1.5913
1.51765
1.51306
1.55219
1.51357
1.46774
1.47987
1.57343
2.20218
6.42564
4.60567
4.72284
6.35274
26.469
23.6838
59.2308
22.3546
11.5018
9.22092
6.65436
11.7277
6.99842
6.76665
10.6268
6.52058
4.13424
3.84713
3.80043
4.59574
19.9139
27.461
36.5166
25.2409
86.4419
20.4631
127.4
60.6841
12.0366
8.98464
16.3123
10.0037
17.6054
15.024
10.8474
13.4232
6.77604
5.55138
4.89223
10.0044
17.3378
126.41
109.839
47.8115
279.669
7.61136
25.9875
16.4961
5.31098
6.02324
12.0769
5.74482
13.2642
11.6491
7.43407
10.9089
8.71849
6.06524
3.48234
15.4004
8.2688
106.253
57.4414
45.1292
635.894
10.9739
38.3738
14.5296
3.19437
4.93567
9.6142
4.26697
10.4134
10.9324
6.08554
11.1873
10.1707
9.32641
5.00738
7.91187
12.7101
48.6767
44.5458
14.653
153.43
36.8413
137.208
17.5045
0.374349
2.47186
5.17735
2.07415
5.5643
5.66431
2.97205
5.70381
4.88799
4.25678
6.35426
5.15078
42.631
30.1744
50.2629
28.1298
62.7778
168.855
113.393
13.8371
0.232583
1.09154
3.38025
1.26994
3.61497
3.51347
1.35553
3.52308
3.79779
3.06913
3.22266
4.14682
112.422
26.9921
62.3427
118.013
80.5434
201.99
10.5881
7.1357
0.189718
0.167975
1.56022
0.287216
1.69602
1.66642
0.264358
1.67792
1.82743
1.88562
2.03131
2.8424
58.0827
22.5986
49.9161
166.435
21.3093
177.138
4.34352
5.4157
0.914316
0.504803
1.32262
0.502667
1.44208
1.41998
0.518508
1.43015
1.55477
1.60001
1.72464
2.63454
41.8637
9.58587
19.0541
167.886
49.2105
26.5174
3.72041
5.90037
7.06437
4.44231
4.16104
4.16591
4.07175
4.09742
4.14267
4.10792
4.04954
4.05719
4.28279
7.2358
27.5459
2.34246
3.86535
101.125
226.496
14.7298
6.26228
9.75119
7.51211
3.58077
3.478
3.39579
3.43357
3.4472
3.43568
3.49713
3.50805
3.58001
3.94473
6.34226
8.5897
0.299063
0.558771
13.335
291.497
40.9488
19.5995
17.2353
8.7224
3.46306
2.41264
3.3123
2.387
2.39897
3.35401
2.44119
2.4474
2.5297
3.01579
7.88784
4.47536
0.066282
0.224465
11.7018
225.36
254.56
81.3009
30.3178
9.97567
2.48322
2.26749
2.94814
2.2951
2.30474
2.98089
2.34911
2.38878
2.48864
3.10732
12.2893
4.0432
0.048129
0.257015
34.7781
29.1892
482.027
255.24
70.0378
11.2378
2.61551
2.52929
2.20441
2.58402
2.57925
2.21735
2.61529
2.7437
2.87161
3.51971
10.0031
7.53756
0.102089
0.817205
135.778
24.6144
340.032
577.81
206.397
13.1487
3.0931
3.41707
2.66584
3.42264
3.3132
2.58071
3.36345
3.40799
3.67831
4.13649
9.32721
30.5873
0.471369
3.37141
137.081
94.5741
9.6676
939.734
128.72
13.1764
3.97772
5.14879
3.51521
4.58364
4.12262
2.85986
4.17512
3.87503
5.0554
5.57372
10.0562
190.276
1.51167
6.69005
147.634
215.014
5.44531
207.313
21.5366
10.4867
3.45796
5.17617
3.78852
5.20995
5.20742
3.77663
5.21533
5.25482
5.3391
5.48324
12.1792
290.712
1.25834
5.21224
161.834
193.646
2.9836
5.73451
6.55173
11.4446
4.11524
4.46343
3.53424
4.2836
4.26542
3.51469
4.24111
4.15297
4.12793
4.23005
9.2207
263.939
1.28279
0.613898
118.35
51.4563
6.58982
0.0931596
5.76385
11.4646
4.56928
3.59862
2.27605
3.23864
3.22254
2.21419
3.19845
3.22273
3.23452
3.51071
7.9021
87.4848
0.255667
0.197558
35.7602
0.522678
27.7578
0.00726272
0.713167
2.33825
1.91184
1.65628
1.76808
2.03955
2.2058
1.69697
1.58097
2.73625
2.78632
3.07781
4.41651
0.760389
0.00196939
0.0668261
1.60731
6.74694
4.42824
3.50917
5.18472
2.23897
1.60447
1.49326
1.51717
1.47348
1.47164
1.49755
1.47447
1.45295
1.46791
1.5649
2.19211
6.29688
4.35314
4.43132
6.24827
21.365
19.1248
37.5355
15.7553
7.34531
5.99411
4.64525
6.8873
4.72071
4.69369
6.56664
4.61961
3.45012
3.21758
3.17216
3.87356
17.3041
11.7977
21.6833
21.4079
67.4357
17.0729
71.6055
46.3906
8.99514
7.28021
9.08422
7.7412
9.34079
8.92626
7.91042
8.4413
4.92503
4.34075
4.06879
6.39276
15.3221
50.0743
64.1775
39.6272
175.767
5.79851
17.7829
22.1924
4.82378
5.0483
6.44844
4.80594
6.66285
6.34129
5.52502
6.01931
4.59588
3.89845
2.67855
6.89815
6.83538
73.0741
52.1664
36.3511
284.136
6.67014
16.4204
18.6371
3.27422
4.19908
5.12238
3.79068
5.22065
5.28431
4.62764
5.34084
5.21839
4.96492
2.90734
4.15241
8.44606
48.6179
41.8977
12.3661
63.4098
16.8387
48.4817
18.5095
1.03613
2.29578
2.96258
2.00867
3.0162
3.01376
2.51704
3.00763
2.78052
2.59302
3.32299
3.12822
21.7763
34.5518
39.9923
15.1198
45.8786
72.8237
53.7274
13.8986
0.445399
1.22614
2.09127
1.3023
2.12771
2.10828
1.40575
2.11178
2.1064
1.92842
2.01643
2.95727
49.7395
29.2465
41.1509
35.541
53.3323
105.529
8.61245
7.26862
0.297845
0.364006
1.32209
0.504949
1.38352
1.3802
0.495952
1.39139
1.44438
1.44819
1.56668
2.65142
40.7922
21.9125
34.4295
59.9179
17.9759
95.5232
3.61426
5.54156
1.28376
0.662266
1.46066
0.67333
1.54477
1.52991
0.697115
1.53665
1.62229
1.65379
1.77056
3.097
32.122
9.24432
17.4417
64.6246
30.5008
21.8751
3.2014
6.08929
7.62493
4.29099
3.95483
4.05091
3.89378
3.91305
4.03617
3.9241
3.88995
3.90355
4.11536
6.96583
23.4521
2.19648
3.49117
46.781
105.973
11.4107
4.88043
9.83415
7.51927
3.52336
3.42771
3.34432
3.38782
3.40127
3.3826
3.44976
3.46313
3.53279
3.88644
6.72537
8.48974
0.288019
0.497689
10.785
155.189
22.6393
12.296
16.8688
8.62601
3.40926
2.47094
3.2613
2.43965
2.45251
3.30164
2.49639
2.50001
2.58453
3.08472
8.164
4.27573
0.0553212
0.159258
9.33946
123.502
102.834
37.9542
27.2861
9.65741
2.53972
2.31618
2.91313
2.34075
2.35108
2.94545
2.39739
2.43733
2.54131
3.16979
11.6362
3.61946
0.0330085
0.146589
17.1829
22.7445
209.728
127.894
47.7331
10.8879
2.68379
2.60023
2.24948
2.65322
2.64871
2.26204
2.6862
2.81996
2.95638
3.65405
10.4869
5.40932
0.0518218
0.28198
61.2915
16.6864
133.233
289.702
101.605
12.5119
3.20978
3.55585
2.76588
3.60571
3.50556
2.6902
3.55637
3.62411
3.86922
4.36724
9.89705
16.3105
0.155105
0.755065
86.4209
44.8816
4.25446
485.629
111.268
13.0518
3.90493
4.74455
3.55087
4.48759
4.14008
3.1138
4.24294
4.04313
4.80743
5.14883
9.94754
76.5174
0.431011
1.28508
90.6467
95.332
2.62296
135.973
30.2096
10.7619
3.63494
4.78076
3.70983
4.81451
4.81562
3.70441
4.82208
4.86767
4.9266
5.06631
10.9342
144.432
0.647915
0.973994
91.6238
79.0048
0.838509
3.90407
11.9688
11.5354
4.35621
4.18488
3.46869
4.02687
4.01111
3.44885
3.9877
3.91113
3.89311
4.01175
8.83384
137.254
0.67128
0.142074
59.7976
10.1889
0.705097
0.0521471
6.23102
11.8573
4.90921
3.53829
2.36425
3.19168
3.17863
2.298
3.15401
3.18223
3.19568
3.48646
8.36387
33.8697
0.109615
0.031466
14.8746
0.0599568
0.722803
0.00314584
0.570949
3.29213
2.17744
1.7974
1.93386
1.97043
2.14098
1.83766
1.6549
2.68823
2.73956
3.03267
5.42752
0.095177
0.00152097
0.0129856
0.247752
6.47516
3.97848
3.09053
4.9652
2.21074
1.58567
1.46206
1.47202
1.43634
1.43573
1.46238
1.43904
1.42836
1.44578
1.54529
2.15824
6.072
4.145
4.13119
6.05559
17.6158
14.6519
24.1264
10.9242
5.2278
4.33739
3.27665
4.542
3.23455
3.24974
4.52346
3.22518
2.64253
2.49752
2.48378
2.93673
14.7746
7.57609
12.9253
18.2732
52.5219
13.6606
42.9142
32.4217
6.80925
5.81217
5.3777
5.86133
5.30792
5.24856
5.84637
5.11869
3.45764
3.14811
3.09243
4.03838
13.224
25.863
40.6095
32.0139
105.482
4.40877
12.0568
24.8222
4.03869
4.08709
3.66232
3.86885
3.59347
3.51214
4.11028
3.4076
2.61915
2.40314
1.90693
3.24936
5.8168
49.6979
44.8998
29.0851
125.842
4.52195
7.62172
20.6494
3.00619
3.41546
2.89409
3.151
2.81421
2.7723
3.45689
2.76196
2.59702
2.50234
1.78914
2.38985
6.39657
46.6473
37.9828
11.2869
33.1172
9.32439
16.2012
18.8599
1.60145
1.94992
1.84336
1.78656
1.82119
1.80346
2.01484
1.7956
1.67168
1.60277
1.83204
2.11424
12.7118
36.5276
33.4798
10.7416
34.3571
34.1326
22.4538
13.7277
0.924303
1.20234
1.45653
1.22532
1.45735
1.46028
1.32041
1.46561
1.41858
1.35985
1.43048
2.35406
26.2577
30.206
30.5265
14.913
35.7264
59.1054
6.3895
7.34779
0.524973
0.558604
1.19303
0.67089
1.24837
1.25082
0.676913
1.26357
1.302
1.29407
1.39474
2.58228
29.2757
20.8785
26.3066
22.7271
16.1377
56.7128
2.93291
5.65669
1.59291
0.818136
1.56422
0.847854
1.63731
1.62558
0.876845
1.63258
1.70619
1.72622
1.84135
3.42821
25.5071
8.78107
15.737
25.3555
21.9194
17.7742
2.7326
6.29012
8.13819
4.37262
3.97317
4.14359
3.91778
3.93455
4.13302
3.94487
3.91591
3.93006
4.1314
7.10244
20.0993
2.05844
3.20525
21.752
57.105
9.03599
4.13716
9.96032
7.78484
3.56134
3.44271
3.37696
3.40043
3.41414
3.41561
3.46249
3.47412
3.543
3.89554
7.03139
8.39226
0.281407
0.474684
9.78267
88.7964
13.5536
8.94129
16.6463
8.78307
3.41844
2.52836
3.2669
2.49133
2.50508
3.30767
2.55061
2.55147
2.63793
3.14931
8.49182
3.99548
0.051427
0.147159
8.84548
73.7122
45.5232
22.3851
25.4304
9.64718
2.58351
2.36351
2.91536
2.38524
2.39625
2.9481
2.44448
2.48456
2.59231
3.22903
11.3975
3.1312
0.0273265
0.127481
11.7662
17.0408
88.2509
66.7826
38.4248
10.8413
2.73584
2.66908
2.28353
2.72027
2.71602
2.29584
2.75486
2.89362
3.03801
3.78074
10.9811
3.98348
0.0317169
0.17669
34.3532
10.4356
51.972
165.337
66.4594
12.3887
3.30203
3.70947
2.84257
3.79214
3.70051
2.77227
3.75088
3.83932
4.06695
4.61476
10.5096
9.83875
0.0818873
0.321243
57.6206
20.3222
1.7894
255.345
89.1676
13.182
3.92838
4.67097
3.62289
4.58321
4.30547
3.30045
4.42728
4.30786
4.84744
5.10087
10.2627
36.888
0.213867
0.418623
60.3413
37.71
1.22532
79.65
35.3547
11.1339
3.77262
4.71362
3.73645
4.77114
4.77433
3.73638
4.78102
4.85125
4.89923
5.04644
10.6636
73.6577
0.314797
0.274329
56.3401
26.4733
0.23142
2.38104
15.4218
11.7031
4.54166
4.14564
3.4779
4.01562
4.00281
3.46069
3.98344
3.94012
3.92987
4.07569
9.02742
70.8404
0.32126
0.0496758
31.1711
0.755032
0.140478
0.0328803
6.17697
12.1509
5.17102
3.57579
2.43133
3.22964
3.21691
2.36191
3.19389
3.23505
3.25203
3.57067
9.003
11.9423
0.0423589
0.00592457
5.32307
0.00661278
0.0378988
0.00296831
0.414302
4.15066
2.38372
1.90505
2.06135
1.96517
2.13707
1.94567
1.72565
2.71744
2.77131
3.08056
6.20771
0.0346249
0.00147121
0.00269858
0.0992244
6.27272
3.66351
2.80916
4.85999
2.1968
1.57516
1.43978
1.44451
1.41026
1.41024
1.44007
1.41359
1.40826
1.42761
1.52964
2.13305
5.89616
4.06129
3.94788
5.88767
14.5044
10.6823
15.6977
7.54186
3.93555
3.31057
2.32267
3.20556
2.2396
2.26378
3.30125
2.25281
1.94727
1.86379
1.86494
2.13966
12.3941
5.63639
8.61724
15.5002
40.3391
10.5107
27.1779
23.4001
5.14345
4.52618
3.26824
4.32271
3.11889
3.1175
4.29207
3.0763
2.34145
2.17759
2.18098
2.54063
11.1223
15.8178
27.9436
25.7613
61.6012
3.36581
8.41224
25.0429
3.22666
3.20902
2.17957
3.02369
2.06683
2.02563
3.02949
1.98862
1.5839
1.49124
1.33038
1.8465
5.17507
36.6041
36.9303
23.7374
56.1514
3.25003
3.35949
21.1452
2.49114
2.67612
1.73112
2.52196
1.64029
1.59618
2.54028
1.58081
1.42077
1.37161
1.18623
1.62659
5.61542
42.9543
33.6955
10.8957
21.0579
5.7152
4.59725
18.6188
1.68051
1.60019
1.26049
1.50728
1.23458
1.22085
1.58237
1.21817
1.13383
1.09883
1.17125
1.63926
9.39742
37.1884
28.6017
8.97373
26.8805
17.8868
7.3893
13.2942
1.335
1.11318
1.14339
1.09825
1.14374
1.15203
1.16707
1.15963
1.11525
1.07874
1.13679
2.05182
16.8144
30.282
24.2387
8.70684
26.0385
35.1411
3.9664
7.35174
0.922566
0.692924
1.17069
0.766356
1.23561
1.23953
0.783136
1.25522
1.29233
1.27844
1.3734
2.61138
21.4953
19.6101
21.2805
11.4022
14.7158
35.7779
2.28778
5.74052
1.62664
0.868313
1.61996
0.929055
1.71734
1.70772
0.95785
1.7211
1.79751
1.80154
1.92123
3.56152
20.6941
8.20781
14.0292
12.3447
16.9189
14.3268
2.32817
6.4709
0.76161
0.000699628
4.06562
0.000699628
4.00633
4.02292
0.000699628
4.03231
3.99995
4.01193
4.20314
7.35453
17.4543
1.93557
2.97556
11.844
34.9581
7.08505
3.63006
10.1154
0.649224
0.000699628
0.000699628
0.000699628
0.000699628
0.000699628
0.000699628
0.000699628
0.000699628
0.000699628
0.000699628
0.734008
8.3036
0.28477
0.504163
8.59829
54.5854
8.34988
6.98669
16.5335
0.559773
0.000699628
2.56582
0.000699628
2.52523
2.53961
0.000699628
2.58628
2.5855
2.67284
3.18653
8.73489
3.62702
0.0588656
0.18934
7.70868
47.8363
20.0169
14.8748
24.1627
0.705568
0.000699628
2.39436
0.000699628
2.41437
2.42589
0.000699628
2.47542
2.51577
2.62553
3.26121
11.3943
2.53681
0.030162
0.160519
9.70083
11.922
33.8772
37.9118
33.5424
1.01125
0.000699628
2.71488
0.000699628
2.76475
2.76069
0.000699628
2.8003
2.94207
3.09113
3.85741
11.344
2.80784
0.0244514
0.15184
23.0244
4.58059
18.428
96.627
50.762
1.47468
0.000699628
3.82408
0.000699628
3.92467
3.83864
0.000699628
3.88825
3.98859
4.20705
4.78883
10.9715
6.00882
0.0397089
0.198875
39.7601
5.46207
0.801463
133.856
70.0654
2.19114
0.000699628
4.73515
0.000699628
4.72636
4.48161
0.000699628
4.60721
4.53486
4.97252
5.1872
10.6327
19.69
0.10231
0.251711
41.9198
9.07233
0.572767
42.6911
38.5867
3.19286
0.000699628
4.78181
0.000699628
4.86286
4.86722
0.000699628
4.87435
4.96677
5.01095
5.16099
10.8126
37.3531
0.140875
0.143763
36.0654
4.62314
0.0704515
1.28189
17.1871
5.70591
0.000699628
4.20295
0.000699628
4.09598
4.08531
0.000699628
4.06987
4.05664
4.05207
4.21579
9.39491
35.1202
0.139904
0.0171753
15.0989
0.0347759
0.0387325
0.0251368
5.73472
11.9821
0.000699628
0.000699628
0.000699628
0.000699628
0.000699628
0.000699628
0.000699628
0.000699628
0.000699628
0.000699628
1.37887
3.93432
0.0154988
0.00244106
1.42504
0.00224282
0.00749105
0.0031563
0.243455
0.207156
0.000841961
0.000841961
0.000841961
0.000841961
0.000841961
0.000841961
0.000841961
0.000841961
0.000841961
0.000841961
3.99309
0.0286016
0.00147672
0.00152778
0.0665087
6.10559
3.38132
2.54265
4.81132
2.18684
1.56656
1.42343
1.42537
1.3915
1.39175
1.42327
1.39503
1.39256
1.41305
1.51712
2.11219
5.73594
3.99649
3.80056
5.72752
11.929
7.61972
10.29
5.64091
3.03625
2.57445
1.66631
2.33846
1.58283
1.60711
2.47147
1.60215
1.42973
1.38359
1.39372
1.59928
10.2403
4.73427
6.5417
13.0691
29.3997
7.80351
17.7743
18.025
3.85295
3.42673
2.03707
3.10293
1.90056
1.91114
3.10835
1.89479
1.55675
1.47444
1.49169
1.6906
9.2007
12.0198
19.8346
20.9744
38.16
2.57903
6.3349
23.5324
2.5218
2.45011
1.37601
2.3067
1.28891
1.26502
2.20689
1.2509
1.04593
0.998091
0.959802
1.31288
4.83393
29.199
29.8253
19.9727
28.0932
2.36808
1.54666
20.7031
2.0145
2.03758
1.12661
1.96296
1.06876
1.043
1.84605
1.03633
0.930052
0.899695
0.868046
1.27343
5.52305
39.4363
29.2228
10.9952
15.7997
3.64714
1.33561
17.8942
1.60563
1.29852
0.95158
1.25335
0.932384
0.921773
1.25029
0.922159
0.859838
0.835931
0.8706
1.43103
8.33554
37.1338
24.5977
8.14478
22.1058
10.1691
2.05578
12.6511
1.48124
1.00614
0.967818
0.987144
0.980236
0.990927
1.03375
1.00152
0.969116
0.938525
0.993223
1.89368
12.3957
29.9208
19.9916
6.62973
20.8403
21.7496
1.98624
7.28029
1.21357
0.775162
1.20241
0.830123
1.27328
1.27993
0.854648
1.29958
1.32375
1.29732
1.39231
2.6362
16.5659
18.1829
17.7174
7.72878
13.2788
23.2718
1.65964
5.7934
1.71447
0.961119
1.74935
1.04756
1.87471
1.87197
1.07575
1.89594
1.96055
1.94125
2.07232
3.70863
17.0716
7.54623
12.3935
8.09373
13.2763
11.5802
2.06815
6.65516
1.41971
0.000699628
0.000699628
0.000699628
0.000699628
0.000699628
0.000699628
0.000699628
0.000699628
0.000699628
0.000699628
1.65235
15.3144
1.83728
2.78497
8.11
22.5428
5.32729
3.1986
10.329
1.15376
0.000699628
0.000699628
0.000699628
0.000699628
0.000699628
0.000699628
0.000699628
0.000699628
0.000699628
0.000699628
1.24332
8.20108
0.328219
0.612204
7.84989
35.4068
5.16307
5.64738
16.5176
0.840208
0.000699628
0.000699628
0.000699628
0.000699628
0.000699628
0.000699628
0.000699628
0.000699628
0.000699628
0.000699628
0.975032
3.19126
0.124969
0.360698
6.31024
32.3643
8.17635
10.4171
23.2321
0.880304
0.000699628
0.000699628
0.000699628
0.000699628
0.000699628
0.000699628
0.000699628
0.000699628
0.000699628
0.000699628
1.20344
1.82956
0.0856454
0.345931
7.46081
7.49838
11.1406
22.4353
30.3089
1.14367
0.000699628
0.000699628
0.000699628
0.000699628
0.000699628
0.000699628
0.000699628
0.000699628
0.000699628
0.000699628
1.85219
1.775
0.0279413
0.182753
15.0485
1.16629
4.74808
53.935
41.4953
1.59149
0.000699628
0.000699628
0.000699628
0.000699628
0.000699628
0.000699628
0.000699628
0.000699628
0.000699628
0.000699628
2.05278
3.26256
0.0197209
0.12467
27.5985
0.580822
0.360057
68.5214
55.5366
2.22084
0.000699628
0.000699628
0.000699628
0.000699628
0.000699628
0.000699628
0.000699628
0.000699628
0.000699628
0.000699628
1.72315
10.045
0.0419985
0.145081
29.225
0.689759
0.197983
21.3237
40.0535
3.16973
0.000699628
0.000699628
0.000699628
0.000699628
0.000699628
0.000699628
0.000699628
0.000699628
0.000699628
0.000699628
1.13435
17.8801
0.0577146
0.0782067
22.3243
0.281704
0.027036
0.624444
17.6075
5.39897
0.000699628
0.000699628
0.000699628
0.000699628
0.000699628
0.000699628
0.000699628
0.000699628
0.000699628
0.000699628
1.02407
16.0871
0.0555864
0.00694359
5.61151
0.00526376
0.0146211
0.0199394
5.04096
10.0218
0.000699628
0.000699628
0.000699628
0.000699628
0.000699628
0.000699628
0.000699628
0.000699628
0.000699628
0.000699628
1.17011
1.33644
0.00655169
0.002116
0.326881
0.001915
0.003232
0.00279731
0.149923
0.308644
0.000841961
0.000841961
0.000841961
0.000841961
0.000841961
0.000841961
0.000841961
0.000841961
0.000841961
0.000841961
5.0955
0.032837
0.00149707
0.00147969
0.0329714
5.98057
3.18237
2.34461
4.79824
2.17966
1.5593
1.41258
1.41173
1.37918
1.37936
1.41032
1.38244
1.3817
1.40292
1.5086
2.09582
5.59032
3.97902
3.68062
5.58175
10.1348
5.43103
6.81176
4.8303
2.37191
2.00636
1.2374
1.73825
1.17273
1.19317
1.87255
1.19258
1.09243
1.06727
1.08552
1.27753
8.37764
4.41741
5.07361
10.9871
21.6868
5.65717
11.7712
14.2229
2.86698
2.53078
1.33139
2.18599
1.23671
1.2489
2.22662
1.2439
1.08132
1.04109
1.06384
1.26536
7.62242
10.9626
14.3732
17.4262
26.2522
1.95498
5.03331
20.9011
1.97726
1.82954
0.946017
1.73229
0.89526
0.883661
1.59963
0.880194
0.778894
0.754313
0.758115
1.09478
4.73142
25.4919
24.1095
17.2667
17.9428
1.67936
0.986703
19.4992
1.65878
1.52475
0.821752
1.5017
0.795343
0.783871
1.34453
0.783693
0.721772
0.703078
0.708423
1.12257
5.93257
37.0049
24.8943
11.3771
13.4973
2.29055
0.647924
16.7886
1.49695
1.06627
0.76829
1.04802
0.761644
0.756527
1.0154
0.759695
0.71742
0.699602
0.727432
1.33582
8.11841
36.859
21.2705
7.83785
18.841
5.94912
0.734558
11.8691
1.53295
0.923239
0.876194
0.915473
0.897823
0.907884
0.947219
0.919669
0.890911
0.861317
0.914647
1.79783
10.2608
29.4147
16.8279
5.76182
17.801
13.7513
0.988953
7.13746
1.43377
0.850462
1.24291
0.91119
1.30844
1.32126
0.94132
1.34557
1.34281
1.30239
1.40044
2.63961
13.411
16.6609
14.9281
6.35161
11.4351
15.3698
1.26543
5.83066
1.87988
1.10161
1.91242
1.23918
2.0471
2.0581
1.27289
2.09527
2.12408
2.07085
2.22212
3.85856
14.3793
6.82959
10.8671
6.59651
10.0623
9.20037
1.83332
6.86941
2.40969
0.000699628
0.000699628
0.000699628
0.000699628
0.000699628
0.000699628
0.000699628
0.000699628
0.000699628
0.000699628
2.78561
13.5941
1.78036
2.63398
6.89843
14.1634
3.78281
2.81492
10.6299
1.97881
0.000699628
0.000699628
0.000699628
0.000699628
0.000699628
0.000699628
0.000699628
0.000699628
0.000699628
0.000699628
2.17535
7.98713
0.47647
0.821266
7.30893
23.2741
3.05645
4.65542
16.5912
1.3885
0.000699628
0.000699628
0.000699628
0.000699628
0.000699628
0.000699628
0.000699628
0.000699628
0.000699628
0.000699628
1.78294
2.82348
0.372777
0.69347
4.63414
21.6633
3.16649
7.49084
22.5346
1.21818
0.000699628
0.000699628
0.000699628
0.000699628
0.000699628
0.000699628
0.000699628
0.000699628
0.000699628
0.000699628
2.26983
1.33137
0.354036
0.767273
4.75563
4.36629
3.04755
13.3176
27.9281
1.39473
0.000699628
0.000699628
0.000699628
0.000699628
0.000699628
0.000699628
0.000699628
0.000699628
0.000699628
0.000699628
3.2856
1.14536
0.0693032
0.364959
9.65154
0.339596
0.788929
27.7108
35.1986
1.82178
0.000699628
0.000699628
0.000699628
0.000699628
0.000699628
0.000699628
0.000699628
0.000699628
0.000699628
0.000699628
3.43997
1.60702
0.0144109
0.090267
18.5775
0.0598598
0.154029
33.3175
45.298
2.30279
0.000699628
0.000699628
0.000699628
0.000699628
0.000699628
0.000699628
0.000699628
0.000699628
0.000699628
0.000699628
2.73033
4.1459
0.0158629
0.0686065
19.6187
0.0391458
0.0776227
9.74934
39.7884
3.10002
0.000699628
0.000699628
0.000699628
0.000699628
0.000699628
0.000699628
0.000699628
0.000699628
0.000699628
0.000699628
1.70056
7.25773
0.0208589
0.0392526
12.0752
0.0222291
0.0129099
0.298575
17.1413
5.00365
0.000699628
0.000699628
0.000699628
0.000699628
0.000699628
0.000699628
0.000699628
0.000699628
0.000699628
0.000699628
1.22065
6.36333
0.0190038
0.00590365
1.40697
0.00394262
0.0076106
0.0159414
4.07622
8.22334
0.000699628
0.000699628
0.000699628
0.000699628
0.000699628
0.000699628
0.000699628
0.000699628
0.000699628
0.000699628
1.04222
0.47695
0.00317514
0.00254302
0.0762326
0.00200854
0.0022485
0.00276822
0.0840051
0.670572
0.000841961
0.000841961
0.000841961
0.000841961
0.000841961
0.000841961
0.000841961
0.000841961
0.000841961
0.000841961
5.72702
0.0377783
0.00154201
0.00158317
0.0151571
5.88443
3.02465
2.13708
4.80112
2.17435
1.55335
1.40644
1.40248
1.37225
1.37204
1.40055
1.37483
1.37546
1.39669
1.50379
2.08229
5.45747
3.98296
3.58042
5.45232
8.76353
3.88159
4.67997
4.38185
1.87991
1.5668
0.982421
1.32437
0.946554
0.959846
1.44047
0.962549
0.911918
0.900189
0.926568
1.1184
6.84893
4.44166
3.97672
9.2382
17.231
4.06326
7.8755
11.6013
2.14141
1.83963
0.956601
1.54139
0.909264
0.918907
1.5957
0.921034
0.850113
0.832972
0.859713
1.08405
6.46276
11.2102
10.6636
14.8318
20.5447
1.44244
3.97734
18.2202
1.58992
1.35451
0.728651
1.29986
0.710519
0.708117
1.17568
0.710864
0.668223
0.657614
0.675083
1.01549
4.86079
24.2321
19.6233
15.1653
14.8658
1.10986
0.773768
17.8007
1.43322
1.14361
0.670898
1.15139
0.666618
0.663316
1.00974
0.666286
0.634532
0.624699
0.641755
1.0704
6.75947
35.8318
21.1775
12.0275
13.3219
1.34623
0.461004
15.4672
1.40104
0.900011
0.66363
0.903292
0.670095
0.669502
0.859007
0.673543
0.646287
0.633324
0.658775
1.28803
8.37608
36.729
18.6236
7.76265
16.3287
3.40648
0.447886
11.0132
1.57069
0.873783
0.821205
0.864605
0.848331
0.856267
0.893041
0.867424
0.835016
0.804694
0.856597
1.72249
9.31858
29.0302
14.334
5.34475
15.5557
8.69045
0.603713
6.95635
1.64202
0.958417
1.25535
1.03737
1.31053
1.32943
1.06872
1.35712
1.32074
1.26258
1.36568
2.59058
11.3073
15.1146
12.6076
5.76846
9.4467
10.1593
0.992823
5.87305
2.14711
1.35352
2.04465
1.55221
2.16123
2.1939
1.58936
2.24661
2.21247
2.12343
2.29635
3.95765
12.4288
6.10724
9.46325
6.08913
6.33215
6.96803
1.59729
7.14111
3.49094
0.000699628
0.000699628
0.000699628
0.000699628
0.000699628
0.000699628
0.000699628
0.000699628
0.000699628
0.000699628
4.03409
12.2107
1.80445
2.53754
6.70437
8.32959
2.48407
2.47133
11.0444
3.05295
0.000699628
0.000699628
0.000699628
0.000699628
0.000699628
0.000699628
0.000699628
0.000699628
0.000699628
0.000699628
3.43297
7.66968
0.815258
1.12506
7.25559
14.4353
1.48144
3.89501
16.743
2.32737
0.000699628
0.000699628
0.000699628
0.000699628
0.000699628
0.000699628
0.000699628
0.000699628
0.000699628
0.000699628
3.17428
2.56644
0.933119
1.15054
2.87739
13.6346
1.13772
5.49859
22.0226
1.91875
0.000699628
0.000699628
0.000699628
0.000699628
0.000699628
0.000699628
0.000699628
0.000699628
0.000699628
0.000699628
3.88462
1.09431