/*--------------------------------*- C++ -*----------------------------------*\
| =========                 |                                                 |
| \\      /  F ield         | OpenFOAM: The Open Source CFD Toolbox           |
|  \\    /   O peration     | Version:  2.3.0                                 |
|   \\  /    A nd           | Web:      www.OpenFOAM.org                      |
|    \\/     M anipulation  |                                                 |
\*---------------------------------------------------------------------------*/
FoamFile
{
    version     2.0;
    format      ascii;
    class       volVectorField;
    location    "0.0999448";
    object      U.air;
}
// * * * * * * * * * * * * * * * * * * * * * * * * * * * * * * * * * * * * * //

dimensions      [0 1 -1 0 0 0 0];

internalField   nonuniform List<vector> 
10000
(
(-0.143716 -0.588738 -0.406528)
(-0.0138034 -0.594218 -0.426295)
(0.0105773 -0.635666 -0.484635)
(0.0688251 -0.575168 -0.412947)
(0.0775874 -0.353793 -0.287153)
(0.0159195 -0.316956 -0.26729)
(0.00617662 -0.345269 -0.256497)
(0.00179664 -0.32899 -0.246201)
(-0.00204892 -0.350083 -0.251055)
(0.0034791 -0.348613 -0.250646)
(-5.57872e-05 -0.32282 -0.243954)
(-0.004364 -0.347996 -0.251043)
(-0.00240548 -0.35199 -0.253575)
(-0.00617028 -0.351969 -0.257381)
(-0.0153543 -0.349223 -0.271756)
(-0.0560139 -0.385777 -0.288385)
(-0.0526207 -0.529423 -0.392814)
(-0.00196554 -0.62987 -0.441955)
(0.0189085 -0.594429 -0.411329)
(0.135663 -0.539399 -0.375021)
(0.00331804 -0.614579 -0.0444725)
(0.00339819 -0.55701 -0.0382151)
(0.00651618 -0.506553 -0.0324335)
(-0.0161583 -0.473496 -0.00636025)
(-4.42678e-06 -0.130534 0.00147495)
(-0.00281217 -0.120596 0.000692595)
(-0.00090859 -0.260407 -0.0109667)
(-0.000190038 -0.132469 0.00177003)
(-0.00121786 -0.265225 -0.0124544)
(0.00110681 -0.26607 -0.0135944)
(-2.32538e-05 -0.131751 -0.000106593)
(-0.00141074 -0.268552 -0.0143523)
(-0.000116291 -0.299597 -0.0203532)
(0.000472386 -0.306496 -0.0217938)
(0.00195264 -0.304251 -0.0236299)
(0.00903376 -0.323876 -0.0201467)
(0.00371731 -0.488079 -0.0295621)
(0.00676778 -0.586253 -0.0414312)
(-0.00148282 -0.497342 -0.0133377)
(-0.00370087 -0.497985 -0.0300319)
(-0.00355384 -0.637537 -0.0102692)
(-0.00315159 -0.627991 -0.00663272)
(0.00633429 -0.431352 -0.00324671)
(0.000152058 -0.0657393 0.0666165)
(-0.00320852 -0.100033 0.0128537)
(0.00109576 -0.0826086 0.014479)
(0.00021754 -0.157047 0.000835204)
(5.18219e-05 -0.0862179 0.0152074)
(8.15926e-05 -0.167085 -0.000501225)
(-0.000426598 -0.204245 -0.00129214)
(-3.80232e-05 -0.102711 0.0101059)
(-0.000102639 -0.215558 -0.00173393)
(-0.000688948 -0.278902 -0.00498292)
(-0.000581308 -0.292809 -0.00644187)
(-0.000338298 -0.29548 -0.00828999)
(-0.000622741 -0.277212 -0.00313717)
(0.0076291 -0.575887 -0.00743036)
(0.0105122 -0.405393 0.0077993)
(-0.0012329 -0.190873 0.0394328)
(0.000708219 -0.498156 -0.00629503)
(0.00176916 -0.607254 -0.00306866)
(-0.00693659 -0.676602 -0.0118904)
(-0.000760063 -0.591382 -0.014729)
(0.000276707 -0.0094337 0.0678416)
(-0.000840683 -0.041328 0.0206294)
(-0.000398649 -0.0614484 0.01723)
(2.37261e-05 -0.143034 0.00172386)
(-3.16652e-05 -0.0564438 0.0184619)
(-0.00101121 -0.154609 0.000167585)
(0.000869004 -0.1739 -1.67715e-05)
(4.74965e-05 -0.0833974 0.0122217)
(-0.000496677 -0.180444 8.0943e-05)
(0.000224749 -0.246849 -0.00073288)
(-0.000467604 -0.276704 -0.00103184)
(-0.0002498 -0.290014 -0.00267832)
(-0.000476122 -0.174207 0.000195374)
(0.00985197 -0.618643 -0.00183803)
(0.00502815 -0.168863 0.0441567)
(-0.00307075 -0.0878115 0.0548663)
(-0.000825198 -0.519744 -0.00419945)
(-0.00060049 -0.496843 -0.000621805)
(-0.00248484 -0.66451 -0.0115137)
(-0.00586278 -0.562621 -0.000117494)
(-6.20125e-05 -0.0213447 0.0285442)
(0.000211001 -0.0230105 0.0224665)
(-0.000320246 -0.0541918 0.0177842)
(0.000119121 -0.133489 0.00163642)
(-1.34919e-05 -0.043936 0.0204478)
(-0.00073985 -0.14444 5.12265e-05)
(0.000619835 -0.147525 -8.49184e-05)
(3.01802e-05 -0.0699851 0.0151628)
(-0.000394165 -0.147916 -4.9361e-05)
(0.00024047 -0.206853 -0.00185593)
(0.000212958 -0.219395 -0.00194786)
(-0.000987094 -0.242356 -0.00148269)
(-0.00102534 -0.199376 -0.00178359)
(0.00622108 -0.610189 -0.00839948)
(0.000896454 -0.0739719 0.0531155)
(-0.00434237 -0.0964697 0.0307378)
(-0.00282017 -0.602228 -0.00860947)
(-0.00272104 -0.463481 0.0025364)
(0.000524009 -0.572159 -0.00174577)
(-0.00764585 -0.401727 0.009334)
(0.00118391 -0.124813 -0.0041207)
(0.000436064 -0.0154591 0.0258281)
(-0.000181094 -0.0320754 0.021441)
(-5.7352e-05 -0.104115 0.00286071)
(4.94232e-06 -0.0250139 0.0218935)
(-0.000658484 -0.114194 0.00109016)
(0.00073345 -0.117081 0.000957806)
(-4.18427e-06 -0.039986 0.0204037)
(-0.000731161 -0.118915 0.000672392)
(-0.000139122 -0.177335 -0.00154616)
(0.000353972 -0.192774 -0.00310941)
(1.13739e-05 -0.173126 -0.0017039)
(0.000209283 -0.145911 -0.00158068)
(-0.000693214 -0.532851 -0.00581106)
(-0.00068078 -0.0428381 0.0445695)
(-0.00398154 -0.168557 0.00587639)
(-0.00228343 -0.573097 -0.00139606)
(0.00193399 -0.536621 0.000187313)
(-0.00504301 -0.369951 0.00663821)
(-0.0101789 -0.486646 -0.00104121)
(0.00496845 -0.313231 -0.0262383)
(0.000428054 -0.0140451 0.0267988)
(4.45638e-05 -0.0158594 0.0268955)
(-8.41903e-05 -0.0883754 0.00323561)
(8.45314e-06 -0.0203421 0.0229604)
(-0.000636915 -0.0991927 0.000888041)
(0.00076223 -0.095551 0.00184478)
(1.67644e-06 -0.018118 0.0256173)
(-0.000705793 -0.0957807 0.00195279)
(-6.62957e-05 -0.128601 -0.000849513)
(-0.000206965 -0.163207 -0.00199053)
(-0.000125747 -0.162397 -0.00158855)
(0.00175495 -0.12468 -0.00171208)
(-0.00328555 -0.275696 0.0111965)
(-0.0024286 -0.0815656 0.0194232)
(-0.0012413 -0.214824 0.00307311)
(-0.00110501 -0.404073 0.00477778)
(0.00249099 -0.531174 -0.00177939)
(-0.00195892 -0.332429 0.0127682)
(-0.00541411 -0.694355 -0.00918944)
(0.00478285 -0.50311 -0.0290284)
(0.000198741 -0.0126612 0.0341485)
(1.68951e-05 -0.0134225 0.0339255)
(-2.20038e-05 -0.0528561 0.00764562)
(6.62342e-06 -0.0136516 0.0313196)
(-0.000605757 -0.0622885 0.00484473)
(0.000579538 -0.0591171 0.00593049)
(-5.80783e-07 -0.0137834 0.0307101)
(-0.000574309 -0.0588337 0.00619985)
(-5.33993e-05 -0.0712968 0.00249891)
(7.00236e-05 -0.0756092 0.00135346)
(-9.54762e-05 -0.074128 0.00244662)
(0.000961914 -0.0548244 0.00325446)
(-0.00418485 -0.161172 0.0269471)
(-0.00448819 -0.251911 -0.0201751)
(0.0026571 -0.201874 0.00624121)
(0.000524803 -0.378015 0.00790895)
(0.000773737 -0.592391 -0.00818799)
(0.00120347 -0.362937 0.00195398)
(0.00633542 -0.799476 -0.00608566)
(0.00267272 -0.655989 -0.0140343)
(0.000590934 -0.0101101 0.06294)
(0.00013586 -0.00817054 0.0548954)
(-6.90815e-06 -0.0199548 0.0277031)
(1.04286e-05 -0.00850287 0.0520656)
(-0.000163589 -0.0251328 0.0239015)
(0.000138199 -0.0237942 0.0249402)
(4.70651e-07 -0.00867896 0.0507081)
(-0.000158496 -0.024097 0.0248383)
(-6.08681e-05 -0.0308005 0.0208243)
(-1.93225e-05 -0.0333901 0.0193709)
(0.000232158 -0.0357858 0.0189949)
(-0.000602843 -0.0154145 0.0323981)
(-0.00726052 -0.151907 0.0172548)
(-0.00402563 -0.510251 -0.0640016)
(0.00740199 -0.380352 -0.0320051)
(0.00422113 -0.38005 0.00676444)
(-0.000181245 -0.546913 -0.00285127)
(-0.00168837 -0.549639 -0.014931)
(0.0108151 -0.82643 -0.0117711)
(0.00394973 -0.687325 -0.00520308)
(0.00502025 -0.0872946 -0.000104674)
(0.000926601 -0.053896 0.00168941)
(0.000126776 -0.0518542 0.00709806)
(8.86986e-05 -0.0523449 0.00264943)
(0.000592152 -0.050349 0.00780521)
(-0.000588093 -0.0505914 0.00766492)
(7.87936e-06 -0.0521698 0.00288745)
(0.000661003 -0.0505033 0.00773918)
(0.000102294 -0.0491997 0.00834625)
(-2.94593e-05 -0.0488395 0.00852961)
(-0.000857814 -0.0491412 0.00807743)
(-0.00434418 -0.0622423 0.00435288)
(-0.00865572 -0.318901 -0.0149528)
(0.0023357 -0.805986 -0.0454195)
(0.00835188 -0.688454 -0.0440169)
(0.00637925 -0.476501 -0.000168064)
(-0.0003541 -0.387681 0.00550666)
(-0.0033202 -0.607307 -0.0142432)
(0.00924696 -0.827258 -0.0170656)
(0.00659447 -0.691002 -0.0107153)
(0.00294535 -0.0673 0.000780378)
(8.51762e-05 -0.0415614 0.00178336)
(7.87171e-05 -0.0367408 0.00196107)
(1.79076e-05 -0.0401173 0.00203182)
(-0.000256654 -0.0354878 0.00199727)
(0.000244096 -0.0355785 0.00199889)
(-1.8099e-05 -0.0403443 0.00197608)
(-0.000266776 -0.0357369 0.00192631)
(-3.28946e-05 -0.0348886 0.00189242)
(-0.000188499 -0.0350267 0.00174062)
(-0.000418991 -0.0364731 0.00093712)
(-0.00541716 -0.0621936 0.000331353)
(-0.000695778 -0.531974 -0.0355272)
(0.00435071 -0.893469 -0.00810645)
(0.00426879 -0.799056 -0.0107879)
(0.00373562 -0.624719 -0.0149086)
(0.000482815 -0.363991 0.0117529)
(0.000457074 -0.584088 -0.00277893)
(0.00602745 -0.791967 -0.00914598)
(0.00581134 -0.679801 -0.0172881)
(0.00218676 -0.0642387 0.00044796)
(-0.000176167 -0.0361363 0.000765833)
(0.000336915 -0.044056 -0.000551176)
(1.85395e-06 -0.0347764 0.000952396)
(-0.0004523 -0.042098 -0.000550572)
(0.000447757 -0.0423194 -0.000558908)
(-1.94493e-05 -0.0350744 0.00093621)
(-0.000490652 -0.0426787 -0.000636635)
(-4.4774e-05 -0.0414893 -0.000663116)
(-0.00010963 -0.0421144 -0.00076632)
(0.000460714 -0.0460351 -0.00157988)
(-0.00368038 -0.0668842 -5.56676e-05)
(0.00511655 -0.628262 -0.0233683)
(0.00102745 -0.909064 -0.0204627)
(0.00448809 -0.809755 -0.00924635)
(0.00242874 -0.645305 -0.0223591)
(0.00273085 -0.426218 0.000682507)
(0.00713506 -0.469982 0.00145344)
(0.00523972 -0.643831 -0.000271501)
(0.00121687 -0.649518 -0.0239384)
(0.00140442 -0.0572958 0.000935514)
(-0.00017319 -0.0373071 -5.79393e-05)
(1.79657e-05 -0.0411492 -0.000350692)
(-1.97287e-05 -0.0308764 0.000379232)
(0.000137574 -0.0399951 -0.000501848)
(-0.000123937 -0.0401648 -0.000469307)
(3.31203e-06 -0.0311029 0.000442415)
(0.000109996 -0.0406395 -0.000455444)
(-2.94616e-05 -0.0402839 -0.000678457)
(-4.88038e-05 -0.0415355 -0.000794163)
(0.000181027 -0.0472457 -0.00141292)
(-0.00136621 -0.0579673 0.000268634)
(0.00537913 -0.638874 -0.00976428)
(-0.000912156 -0.909269 -0.0290058)
(0.00674718 -0.801873 -0.0214211)
(0.00132902 -0.597702 -0.0113039)
(0.00319047 -0.558732 -0.0115553)
(0.00987092 -0.481483 0.00215809)
(0.00949005 -0.625063 -0.00195948)
(-0.00192902 -0.593809 -0.0257448)
(9.68394e-05 -0.0526896 0.000673178)
(-0.000384211 -0.0397727 -0.00106566)
(-0.000312634 -0.0477452 -0.00253091)
(-3.57869e-05 -0.0343366 -0.00109749)
(0.000150898 -0.0470718 -0.00282757)
(-0.00015577 -0.0469423 -0.00280917)
(8.85995e-06 -0.0341087 -0.00108701)
(0.000154205 -0.0472673 -0.00274706)
(3.03808e-05 -0.0482465 -0.00299524)
(0.000136031 -0.0503887 -0.00294782)
(-4.86347e-05 -0.0591583 -0.00295548)
(0.00108336 -0.0740955 -0.00205724)
(0.00164292 -0.625083 -0.00947014)
(-0.00199049 -0.898095 -0.0255807)
(0.00764848 -0.751052 -0.021292)
(0.000608627 -0.340356 0.0148565)
(-0.000898327 -0.56585 -0.00857402)
(0.00568892 -0.510348 0.00260395)
(0.0144182 -0.575821 0.00177931)
(-0.00421868 -0.398538 0.0164965)
(-0.00426474 -0.052716 0.000394878)
(-1.74713e-05 -0.0494981 -0.000266861)
(-0.000219803 -0.0669028 -0.00194943)
(-7.12261e-05 -0.0469563 -0.00171492)
(0.000122493 -0.0683019 -0.00239876)
(-0.000261025 -0.0682652 -0.0025851)
(1.20126e-05 -0.0469979 -0.0019663)
(0.000172731 -0.0683175 -0.00248675)
(0.000112161 -0.0704366 -0.00294801)
(0.000411226 -0.0711057 -0.00230311)
(-0.000193485 -0.0775899 -0.00106822)
(0.00278042 -0.0849908 -0.00267868)
(-0.0052713 -0.576935 -0.00504474)
(-0.00361947 -0.847273 -0.00533107)
(0.000773904 -0.652984 -0.010005)
(0.000862333 -0.245691 0.0222145)
(-0.00348124 -0.445192 -0.00128462)
(-0.00123042 -0.596607 -0.00351829)
(0.00966588 -0.545032 0.00910015)
(-0.00180591 -0.0869568 0.0957392)
(-0.00845971 -0.0530136 0.000399314)
(0.000140999 -0.0414303 0.000239732)
(0.000243437 -0.0568517 -4.04303e-05)
(-2.33946e-05 -0.0508984 -0.000101636)
(0.000105691 -0.0602235 -0.000139564)
(-0.000112233 -0.0624569 -0.000136316)
(-4.4403e-07 -0.0542342 -0.000102583)
(0.000113075 -0.0616761 -0.000136946)
(1.17674e-05 -0.0696107 -0.000139317)
(0.00014807 -0.0621795 -0.000144239)
(-9.13226e-05 -0.0601621 0.000821367)
(0.00470209 -0.0960548 -0.000874672)
(-0.00692159 -0.424834 0.00201604)
(-0.00288003 -0.787986 -8.73125e-05)
(-0.00200247 -0.615529 -0.00107369)
(0.000586686 -0.274067 0.00772571)
(-0.000496804 -0.386617 0.000969085)
(-0.0116271 -0.581321 -0.00732687)
(-0.00926211 -0.698805 -0.00109552)
(0.000380166 -0.00510267 0.112128)
(-0.00763965 -0.0503101 0.000929488)
(-0.000237147 -0.0554816 -0.000583778)
(0.000570009 -0.056757 0.000618479)
(4.97336e-05 -0.0419267 0.00100165)
(-3.29599e-05 -0.0583771 0.000811707)
(0.000181212 -0.0582876 0.000959046)
(-1.31363e-05 -0.0421997 0.00121369)
(-9.12408e-05 -0.0584174 0.0008724)
(-9.8694e-05 -0.0596594 0.00108357)
(-0.000187771 -0.0603469 0.000615878)
(0.0002109 -0.0612611 0.000786434)
(0.00429992 -0.0719325 0.000369645)
(-0.00249433 -0.37366 0.00729392)
(-0.000681426 -0.886572 -0.00219317)
(-0.00199967 -0.615758 -0.00249718)
(0.00044293 -0.301493 0.00160664)
(0.000126514 -0.372466 0.00152653)
(-0.0110829 -0.521652 -0.00254771)
(-0.0097774 -0.813899 -0.0101334)
(0.000308153 -0.00723312 0.0445483)
(-0.00349218 -0.0430513 0.000267249)
(0.000239828 -0.0609956 -0.000758475)
(-0.000112099 -0.0518788 0.00247703)
(5.41122e-05 -0.0376886 0.000466166)
(0.000593974 -0.0525038 0.00287237)
(-0.00056268 -0.0526364 0.00289904)
(-8.5444e-06 -0.0382768 0.00061379)
(0.000573875 -0.0527706 0.00291084)
(1.4434e-05 -0.0549243 0.00289967)
(-1.19958e-05 -0.0550837 0.002933)
(-0.000373719 -0.0563063 0.00309928)
(0.00230345 -0.0686453 0.00190099)
(0.00263707 -0.341778 0.00976739)
(0.000856318 -0.897391 -0.0023402)
(-0.00154566 -0.620933 -0.00266615)
(-0.000204166 -0.288115 0.0019779)
(0.00112793 -0.294279 0.00165184)
(4.24451e-05 -0.430963 -9.40112e-05)
(-0.00215018 -0.837564 -0.00587369)
(-0.000473477 -0.0690141 -0.0166164)
(0.00239488 -0.0543288 -0.0047697)
(0.000617533 -0.0659418 -0.000620986)
(-0.000275901 -0.0426809 0.00165152)
(0.000286505 -0.0437594 -0.00109272)
(0.000703378 -0.040778 0.00272716)
(-0.000574716 -0.0404481 0.00284489)
(-0.000188424 -0.0429932 -0.000714986)
(0.00065465 -0.041268 0.0025088)
(0.000234843 -0.0424646 0.00279572)
(-3.75146e-05 -0.0428025 0.00279734)
(-0.000524552 -0.0451558 0.00259584)
(-0.0011658 -0.0661869 0.00151518)
(0.00452281 -0.281008 0.00789424)
(0.00117789 -0.901064 -0.00272478)
(-0.000274534 -0.601395 -0.00109904)
(-0.00142749 -0.214955 0.00388701)
(0.000484835 -0.150974 0.0013623)
(0.000681253 -0.443232 0.00436819)
(0.000768437 -0.912906 -0.0017967)
(-0.00155167 -0.106346 -0.0124616)
(0.00308247 -0.108601 -0.00421053)
(-0.000308337 -0.0651989 -0.000197511)
(-0.000159597 -0.0515049 -0.000260261)
(-0.000180966 -0.0557284 -0.00108422)
(-0.000237074 -0.036713 0.00075732)
(0.000196212 -0.0356766 0.000815447)
(0.000147318 -0.0525006 -0.000913802)
(-0.000341461 -0.0413532 0.000378794)
(-9.16468e-05 -0.0396186 0.000575841)
(4.37929e-05 -0.0398003 0.00061366)
(0.000438856 -0.0423915 0.000627188)
(0.00010395 -0.0907484 -0.000610762)
(0.00274874 -0.156408 0.00161874)
(0.000222147 -0.99006 -0.000995242)
(-0.000101482 -0.625281 -0.000545645)
(-0.00138193 -0.13596 0.00164608)
(-0.160311 -0.586363 -0.353342)
(-0.0160136 -0.598533 -0.374965)
(0.0116395 -0.642585 -0.428003)
(0.075514 -0.573988 -0.364429)
(0.0812578 -0.359595 -0.26117)
(0.0165517 -0.322793 -0.242884)
(0.00657712 -0.34817 -0.227249)
(0.0018979 -0.335975 -0.223568)
(-0.00209173 -0.353124 -0.222076)
(0.00358017 -0.351831 -0.2217)
(-6.20374e-05 -0.329907 -0.221726)
(-0.00453119 -0.351159 -0.221801)
(-0.00255492 -0.354108 -0.222534)
(-0.00660672 -0.353686 -0.225452)
(-0.0163712 -0.350568 -0.23821)
(-0.0608386 -0.387547 -0.252536)
(-0.05795 -0.531462 -0.345294)
(-0.00261949 -0.633675 -0.383095)
(0.0205269 -0.599651 -0.363152)
(0.149494 -0.541759 -0.329977)
(0.00186017 -0.615192 -0.0423731)
(0.00319559 -0.561351 -0.0365294)
(0.0061718 -0.529529 -0.0378671)
(-0.0125984 -0.504534 -0.0253813)
(0.000588773 -0.19504 -0.00763303)
(-0.00376539 -0.18295 -0.00746641)
(-0.000818315 -0.281916 -0.0174488)
(-0.000254711 -0.196033 -0.00665819)
(-0.00114375 -0.28728 -0.018544)
(0.00122388 -0.285761 -0.0186112)
(-3.74825e-06 -0.193095 -0.00725192)
(-0.00139752 -0.286631 -0.0188227)
(-2.72678e-05 -0.310343 -0.0226092)
(0.000446302 -0.315751 -0.0235412)
(0.00193272 -0.313753 -0.025435)
(0.00801884 -0.333709 -0.0237248)
(0.00348201 -0.490335 -0.0272864)
(0.0061645 -0.608191 -0.0456165)
(-0.00131353 -0.522779 -0.0260132)
(-0.00214072 -0.504015 -0.0309781)
(-0.003849 -0.644283 -0.010691)
(-0.00312011 -0.637091 -0.00275806)
(0.0064224 -0.465064 -0.000613836)
(0.000114733 -0.165938 0.0506887)
(-0.00454547 -0.171437 0.00924647)
(0.00203355 -0.150896 0.0118525)
(0.000326542 -0.218176 -0.00298048)
(0.000146033 -0.157954 0.012044)
(0.00035167 -0.226096 -0.00388295)
(-0.000508166 -0.238103 -0.00414702)
(-3.32128e-05 -0.168961 0.00810361)
(-3.65009e-05 -0.245525 -0.00433676)
(-0.000710873 -0.296468 -0.0070071)
(-0.000606509 -0.307711 -0.00769513)
(-0.000542756 -0.309613 -0.00901179)
(-0.000341876 -0.304994 -0.00833037)
(0.00730828 -0.583827 -0.00348043)
(0.0114995 -0.500386 -0.00414129)
(-0.00196879 -0.302439 0.0275539)
(0.00112727 -0.509271 -0.00576987)
(0.00199373 -0.618742 -0.00343689)
(-0.00762453 -0.693536 -0.0101965)
(-0.00188338 -0.620098 -0.00971761)
(0.00148941 -0.0636774 0.0654767)
(-0.00309148 -0.122059 0.0173517)
(-0.00075269 -0.129839 0.0159827)
(-1.78493e-07 -0.204207 0.000729853)
(-8.11635e-05 -0.127461 0.0167162)
(-0.00114582 -0.213228 -0.000860095)
(0.00102932 -0.225841 -0.0014454)
(6.54993e-05 -0.150304 0.0109756)
(-0.000546298 -0.232233 -0.00167771)
(0.000259818 -0.271946 -0.00341404)
(-0.00043505 -0.292573 -0.00389018)
(-0.000309498 -0.302696 -0.00457777)
(-0.000537232 -0.241822 -0.00300802)
(0.00976989 -0.627198 -0.000588119)
(0.00676631 -0.276007 0.0319735)
(-0.00582034 -0.185975 0.050621)
(-0.000701797 -0.528259 -0.000510673)
(-0.000529607 -0.542873 -0.00248589)
(-0.00309834 -0.691286 -0.0152992)
(-0.00739016 -0.625018 -0.00456635)
(0.00113003 -0.0918925 0.0325341)
(-0.000640812 -0.0975478 0.0210949)
(-0.000628293 -0.121582 0.0165607)
(0.000142297 -0.195979 6.73276e-05)
(-4.35838e-05 -0.113648 0.0191557)
(-0.000766224 -0.204598 -0.00163798)
(0.000655262 -0.207595 -0.00237886)
(4.55993e-05 -0.138138 0.0134625)
(-0.000354887 -0.20808 -0.00258098)
(0.000246584 -0.233966 -0.00445498)
(0.000214832 -0.242685 -0.00497518)
(-0.00105441 -0.267514 -0.00588478)
(-0.00158133 -0.244927 -0.00384685)
(0.00600703 -0.622641 -0.011836)
(0.00135882 -0.170742 0.0481165)
(-0.00681062 -0.180218 0.0336653)
(-0.00292706 -0.614679 -0.00610836)
(-0.00331926 -0.528178 -0.000351635)
(0.000829977 -0.620726 -0.00966703)
(-0.00986057 -0.50598 0.0064768)
(0.00150514 -0.17198 0.00585941)
(0.00156179 -0.051541 0.0254178)
(-0.000740385 -0.0959914 0.0197875)
(-0.00010141 -0.170721 0.000946116)
(-5.27987e-05 -0.0887247 0.0208709)
(-0.000831029 -0.178504 -0.000982453)
(0.000978252 -0.180902 -0.00143687)
(-4.98597e-06 -0.107238 0.0182082)
(-0.000950881 -0.182238 -0.00165762)
(-0.000153746 -0.2071 -0.0044308)
(0.000331165 -0.21709 -0.00520455)
(3.36273e-05 -0.20552 -0.00479481)
(-0.000516677 -0.212507 -0.00438437)
(-0.00136527 -0.55298 -0.0157416)
(-0.00161905 -0.130959 0.0445046)
(-0.00430104 -0.230764 0.0100509)
(-0.00298304 -0.609916 -0.00640514)
(0.00246433 -0.551667 0.000387299)
(-0.00590487 -0.450911 0.0011815)
(-0.0107459 -0.529095 0.00595514)
(0.00483526 -0.328458 -0.013517)
(0.00204253 -0.0500755 0.0268007)
(-0.000429472 -0.0683434 0.0259912)
(-8.84928e-05 -0.152956 0.00101198)
(-5.39186e-05 -0.0779379 0.0223172)
(-0.000903353 -0.161242 -0.00155779)
(0.00112964 -0.158578 -0.000755747)
(5.53917e-06 -0.0751682 0.0244289)
(-0.00105385 -0.158742 -0.000704646)
(-0.000124849 -0.174066 -0.00467145)
(-0.000212085 -0.190997 -0.00617507)
(-0.000154445 -0.191455 -0.00514235)
(0.0007254 -0.191882 -0.00507913)
(-0.00464426 -0.350976 0.000351914)
(-0.00389557 -0.156506 0.0260177)
(-0.00113742 -0.267059 0.00420091)
(-0.00111922 -0.496562 0.000422026)
(0.00261689 -0.546991 0.000492751)
(-0.00180616 -0.400827 0.0127584)
(-0.00538711 -0.706025 0.00372057)
(0.00447136 -0.50775 -0.0177362)
(0.00208622 -0.0423081 0.0340984)
(-0.000167621 -0.0422376 0.0334526)
(-3.34086e-05 -0.10824 0.00475918)
(-2.56388e-05 -0.0475296 0.0306733)
(-0.00117473 -0.11605 0.0016728)
(0.00119006 -0.113044 0.00286938)
(3.91017e-06 -0.0467842 0.0302092)
(-0.00120806 -0.112681 0.00317177)
(-0.000205507 -0.123308 -0.00149125)
(3.85692e-05 -0.127594 -0.00385508)
(-0.000151776 -0.125738 -0.00286839)
(0.00171615 -0.131043 -0.00119675)
(-0.00575897 -0.240369 0.0220937)
(-0.00472668 -0.274749 -0.00602858)
(0.00301358 -0.258257 0.0101254)
(0.000971648 -0.460357 0.00722298)
(0.000287436 -0.608507 -0.00718533)
(0.00148477 -0.413226 0.00607257)
(0.00709641 -0.808892 -0.000312514)
(0.00260025 -0.657473 -0.00762267)
(0.00277026 -0.0318396 0.0653123)
(9.96761e-07 -0.0283943 0.0567626)
(-8.64236e-05 -0.0613551 0.0275126)
(-1.10864e-05 -0.0296944 0.0537816)
(-0.000894796 -0.0677198 0.0232179)
(0.000885547 -0.0663023 0.0244022)
(1.99081e-06 -0.0304978 0.0524363)
(-0.000988963 -0.0666057 0.0243287)
(-0.000236646 -0.0725882 0.0197573)
(-6.145e-05 -0.0745889 0.0180963)
(0.000767493 -0.0753787 0.0178586)
(-0.00142849 -0.059405 0.0328059)
(-0.00891553 -0.221758 0.0213758)
(-0.00420212 -0.514986 -0.0461949)
(0.00804417 -0.393606 -0.0161105)
(0.00454687 -0.457586 0.00774767)
(-0.000344444 -0.5822 -0.00718021)
(-0.00180788 -0.559849 -0.00892947)
(0.0116487 -0.835413 -0.0108768)
(0.00376178 -0.688249 -0.00382642)
(0.00460075 -0.0808014 0.00198885)
(0.000884351 -0.0564216 0.00292812)
(0.000128772 -0.0571189 0.00739303)
(8.60088e-05 -0.0552097 0.00364033)
(0.000636317 -0.0553702 0.00786236)
(-0.000631809 -0.0556079 0.0077648)
(7.59781e-06 -0.0551415 0.00384427)
(0.000705718 -0.0554819 0.00780826)
(0.000104789 -0.0539427 0.00820474)
(-2.81075e-05 -0.0534881 0.00832675)
(-0.000888738 -0.0534649 0.00797934)
(-0.0046203 -0.0677643 0.00594723)
(-0.00869674 -0.33487 -0.00266235)
(0.00229325 -0.804892 -0.0326595)
(0.00889061 -0.692328 -0.0280654)
(0.00640071 -0.512411 0.00583743)
(-0.000124705 -0.455256 0.0019957)
(-0.00362111 -0.623226 -0.0127118)
(0.00964448 -0.837537 -0.0187145)
(0.00642381 -0.691559 -0.0107593)
(0.00277787 -0.0671958 0.000674977)
(3.55891e-05 -0.0422523 0.00135361)
(7.23757e-05 -0.0362251 0.00151378)
(1.732e-05 -0.0406742 0.00152105)
(-0.000256514 -0.0348422 0.00153861)
(0.000245274 -0.0349422 0.00153849)
(-1.72474e-05 -0.0409113 0.00148534)
(-0.00026603 -0.035095 0.00148604)
(-2.92514e-05 -0.0341479 0.00146167)
(-0.00016978 -0.0342578 0.00135395)
(-0.000361235 -0.0356225 0.000790365)
(-0.00501 -0.060009 0.000694203)
(-0.000243927 -0.53338 -0.0256802)
(0.00500411 -0.89311 -0.00384096)
(0.00382654 -0.809018 -0.00553512)
(0.00321855 -0.64572 -0.00847081)
(0.000825383 -0.423268 0.011447)
(7.3817e-05 -0.617153 -0.00419239)
(0.00615636 -0.814475 -0.0134226)
(0.00557776 -0.679269 -0.0184898)
(0.00184195 -0.0628635 0.00036302)
(-0.000185911 -0.0354862 0.000520843)
(0.000322206 -0.0416096 -0.00057109)
(1.60503e-06 -0.0341532 0.000739945)
(-0.000436822 -0.0397628 -0.000569026)
(0.000432645 -0.039972 -0.000575137)
(-1.80133e-05 -0.0344774 0.000726627)
(-0.000473213 -0.0403114 -0.00063207)
(-4.20266e-05 -0.0391886 -0.000649938)
(-0.000101921 -0.0397756 -0.00072548)
(0.0004491 -0.0434596 -0.00130266)
(-0.00331831 -0.0659161 -0.000186445)
(0.00494513 -0.634286 -0.0197401)
(0.00106031 -0.910043 -0.0198951)
(0.00448749 -0.826833 -0.0097649)
(0.00197575 -0.668639 -0.0231152)
(0.00286673 -0.458116 0.0042583)
(0.00870901 -0.538801 0.00124692)
(0.00594422 -0.726218 -0.00516225)
(0.00122546 -0.649603 -0.0265895)
(0.00100248 -0.0559576 0.000613956)
(-0.000163749 -0.0343383 -4.26662e-05)
(1.54851e-05 -0.0388252 -0.000246271)
(-1.70533e-05 -0.0298643 0.000200344)
(0.000134895 -0.0377401 -0.00035501)
(-0.000122122 -0.0379004 -0.000331503)
(3.06575e-06 -0.0301083 0.000244197)
(0.000109201 -0.0383484 -0.000321045)
(-2.74721e-05 -0.0380124 -0.000480612)
(-4.48282e-05 -0.0391895 -0.000562448)
(0.000160309 -0.0445501 -0.00098754)
(-0.00113728 -0.0576016 -1.38813e-05)
(0.00477269 -0.649251 -0.00969874)
(-0.00158538 -0.909789 -0.0295031)
(0.00698451 -0.826985 -0.0232471)
(0.00100129 -0.630572 -0.0192102)
(0.00277053 -0.575443 -0.00784581)
(0.0106491 -0.531956 0.00349086)
(0.00981738 -0.657636 -0.00191102)
(-0.00211293 -0.600391 -0.0308113)
(-0.000343895 -0.0514523 0.000386396)
(-0.000353648 -0.0365384 -0.000695563)
(-0.000300362 -0.0450008 -0.00180095)
(-3.3137e-05 -0.0315993 -0.000787636)
(0.000146964 -0.0443722 -0.00201358)
(-0.000151414 -0.044247 -0.00200103)
(8.21714e-06 -0.0313952 -0.000778294)
(0.000150241 -0.0445534 -0.00195525)
(2.87185e-05 -0.0454573 -0.00212957)
(0.000128438 -0.0474776 -0.00209267)
(-6.32652e-05 -0.0557108 -0.00208718)
(0.00101047 -0.0699174 -0.00163265)
(0.00114611 -0.643555 -0.0116275)
(-0.00247632 -0.90487 -0.0276931)
(0.00794884 -0.795116 -0.028391)
(0.000227672 -0.43142 0.00540638)
(-0.00182395 -0.590993 -0.0101659)
(0.00583662 -0.565429 0.00229538)
(0.014942 -0.628163 0.00327479)
(-0.00475939 -0.462015 0.00350958)
(-0.00406182 -0.0521078 8.33074e-05)
(-1.79134e-06 -0.0455161 -0.000163905)
(-0.000210601 -0.0630698 -0.00143231)
(-6.78513e-05 -0.0431331 -0.00110182)
(0.000113059 -0.0644023 -0.00177965)
(-0.000244121 -0.0643783 -0.00191067)
(1.16464e-05 -0.0431678 -0.00133419)
(0.000158448 -0.0644182 -0.00183885)
(0.000108136 -0.0664204 -0.00213732)
(0.000390997 -0.0670229 -0.00168449)
(-0.000192518 -0.0731517 -0.000848742)
(0.00260514 -0.0800251 -0.00188234)
(-0.00547086 -0.608964 -0.0083332)
(-0.00458815 -0.891027 -0.00825713)
(0.000188736 -0.707856 -0.0160649)
(0.000531218 -0.327438 0.0195623)
(-0.00403324 -0.521863 -0.00451758)
(-0.00452452 -0.638184 -0.00682269)
(0.00823446 -0.592689 0.00917283)
(-0.00285249 -0.174869 0.0806514)
(-0.00769146 -0.0546566 0.000120768)
(0.000170297 -0.0413678 0.000139751)
(0.00027524 -0.060236 -0.000104159)
(-2.19809e-05 -0.0486762 -5.58975e-05)
(0.000105328 -0.064147 -0.00019254)
(-0.000111498 -0.0660021 -0.000197951)
(-4.83579e-07 -0.0517297 -5.4461e-05)
(0.000112142 -0.0657427 -0.000198787)
(1.02372e-05 -0.0713821 -0.000233705)
(0.000140834 -0.0660548 -0.000218275)
(-8.247e-05 -0.0646119 0.000404379)
(0.00445117 -0.0897129 -0.00077381)
(-0.00744761 -0.494988 -0.00164975)
(-0.00354022 -0.872263 0.000764027)
(-0.00258468 -0.663956 -0.00278509)
(0.00046735 -0.33259 0.00941205)
(-0.000253832 -0.450047 -0.000825925)
(-0.0118345 -0.64296 -0.00909839)
(-0.00995 -0.705357 0.00255875)
(0.00122702 -0.0359097 0.10811)
(-0.00625404 -0.0526942 0.0006421)
(-0.000208037 -0.0510322 -0.00042498)
(0.000599841 -0.060252 0.000437772)
(4.94789e-05 -0.042393 0.000702378)
(-3.94453e-05 -0.0626118 0.000583269)
(0.000192282 -0.0625571 0.00069005)
(-1.28687e-05 -0.0427809 0.000907405)
(-9.95529e-05 -0.0626931 0.000617224)
(-0.000108702 -0.0645733 0.000694694)
(-0.000202382 -0.0651531 0.000339091)
(0.000222891 -0.0664387 0.000463037)
(0.00476965 -0.0791159 -0.000226567)
(-0.00241751 -0.429834 0.00492792)
(-0.00022293 -0.895986 0.00192906)
(-0.00232568 -0.673606 -0.00156383)
(0.000404226 -0.351275 0.00187757)
(0.000186944 -0.437662 -0.00158709)
(-0.00819168 -0.625621 -0.00626737)
(-0.0105826 -0.811663 -0.00517559)
(0.00184167 -0.0339158 0.0467792)
(-0.0023122 -0.0429662 0.000212798)
(0.000240244 -0.0560166 -0.00054201)
(-0.000147374 -0.0550873 0.00200545)
(4.65903e-05 -0.0372233 0.000301469)
(0.000613164 -0.0564418 0.00228539)
(-0.000584264 -0.0566516 0.00230092)
(-8.29027e-06 -0.0379251 0.000400475)
(0.000593815 -0.0568776 0.0023158)
(1.15561e-05 -0.0600242 0.00229996)
(-1.94128e-05 -0.0603505 0.00231192)
(-0.000398311 -0.0623767 0.00241832)
(0.00259763 -0.0818935 0.00147575)
(0.00295624 -0.400175 0.00653177)
(0.00243414 -0.899537 -0.00157968)
(-0.00177223 -0.725831 -0.00222498)
(-7.80942e-05 -0.342927 -0.00147364)
(0.000532119 -0.409414 -0.0060839)
(0.00232174 -0.585246 -0.000665287)
(-0.00300548 -0.831537 -0.00480375)
(-0.00161335 -0.10745 -0.0127696)
(0.00231223 -0.0499525 -0.00304065)
(0.000566183 -0.0605684 -0.000397516)
(-0.000283853 -0.0430067 0.00138457)
(0.000271874 -0.0402552 -0.000747689)
(0.000671353 -0.0414185 0.00228551)
(-0.000550381 -0.0411085 0.00235422)
(-0.000171218 -0.0395622 -0.000489586)
(0.000625511 -0.0418515 0.00217851)
(0.000232535 -0.0436731 0.00230157)
(-3.84783e-05 -0.0441217 0.00230409)
(-0.000528219 -0.0471055 0.00216402)
(-0.00217916 -0.0748734 0.00175999)
(0.00503752 -0.369205 0.00166564)
(0.00229191 -0.903234 -0.00228784)
(-0.00092918 -0.740782 -0.00156622)
(-0.00113588 -0.29265 -0.0021472)
(-0.000801984 -0.41643 -0.00566544)
(0.000623192 -0.551455 0.00139758)
(0.000732073 -0.905297 -0.00168292)
(-0.00360222 -0.142659 -0.01083)
(0.002688 -0.0984282 -0.00230068)
(-0.000288044 -0.0598926 -0.000123737)
(-0.000145371 -0.0473933 -0.000156365)
(-0.000175936 -0.0511328 -0.000711002)
(-0.000275 -0.0358252 0.000335705)
(0.000231781 -0.0348649 0.00037745)
(0.000136863 -0.0481903 -0.00060284)
(-0.00036374 -0.0400095 8.06286e-05)
(-9.84629e-05 -0.0396399 0.000196863)
(4.49215e-05 -0.039894 0.000223381)
(0.0004874 -0.0427817 0.000253781)
(0.000258971 -0.0837592 -0.00013005)
(0.00308883 -0.371834 -0.00530294)
(0.000377349 -0.992658 -0.000792855)
(-0.000287645 -0.801102 -0.000647241)
(-0.00129208 -0.272059 -0.00238126)
(-0.172511 -0.585497 -0.325525)
(-0.0176904 -0.603143 -0.35161)
(0.0120604 -0.647978 -0.405275)
(0.0796602 -0.573005 -0.339621)
(0.084083 -0.36412 -0.244385)
(0.0172814 -0.327581 -0.226746)
(0.00692537 -0.351195 -0.208822)
(0.00198943 -0.341262 -0.208632)
(-0.00198163 -0.356208 -0.203738)
(0.00353196 -0.355047 -0.203317)
(-5.78758e-05 -0.335598 -0.206845)
(-0.00446651 -0.354371 -0.203258)
(-0.00261718 -0.35657 -0.203111)
(-0.0069729 -0.355828 -0.20554)
(-0.0172615 -0.352306 -0.217553)
(-0.0646877 -0.389807 -0.231151)
(-0.0621328 -0.534804 -0.319078)
(-0.00330591 -0.636511 -0.35715)
(0.0213124 -0.603764 -0.340927)
(0.160334 -0.545094 -0.304948)