/*--------------------------------*- C++ -*----------------------------------*\
| =========                 |                                                 |
| \\      /  F ield         | OpenFOAM: The Open Source CFD Toolbox           |
|  \\    /   O peration     | Version:  2.3.0                                 |
|   \\  /    A nd           | Web:      www.OpenFOAM.org                      |
|    \\/     M anipulation  |                                                 |
\*---------------------------------------------------------------------------*/
FoamFile
{
    version     2.0;
    format      ascii;
    class       volVectorField;
    location    "60";
    object      U.airMean;
}
// * * * * * * * * * * * * * * * * * * * * * * * * * * * * * * * * * * * * * //

dimensions      [0 1 -1 0 0 0 0];

internalField   nonuniform List<vector> 
1875
(
(0.0521752 0.0637799 0)
(0.110708 0.0649796 0)
(0.186609 0.0755093 0)
(0.232978 0.0894757 0)
(0.257755 0.10538 0)
(0.264774 0.120434 0)
(0.258077 0.132573 0)
(0.241661 0.143524 0)
(0.218545 0.151574 0)
(0.190619 0.157323 0)
(0.158181 0.162205 0)
(0.123198 0.164429 0)
(0.0866452 0.164683 0)
(0.0493895 0.162938 0)
(0.0101252 0.160311 0)
(-0.0323341 0.158507 0)
(-0.0770212 0.155255 0)
(-0.120045 0.149971 0)
(-0.156585 0.142893 0)
(-0.182102 0.13268 0)
(-0.192774 0.120182 0)
(-0.185948 0.105497 0)
(-0.157139 0.0909371 0)
(-0.102783 0.0769418 0)
(-0.0505132 0.0712577 0)
(0.0480732 0.121422 0)
(0.105236 0.150682 0)
(0.159255 0.19781 0)
(0.188584 0.240411 0)
(0.201355 0.279006 0)
(0.203172 0.314936 0)
(0.196724 0.344786 0)
(0.184188 0.370742 0)
(0.169233 0.39441 0)
(0.152166 0.413619 0)
(0.132744 0.426835 0)
(0.111566 0.435365 0)
(0.0877636 0.440793 0)
(0.0620498 0.442945 0)
(0.0339884 0.444503 0)
(0.00350135 0.442062 0)
(-0.0280794 0.433758 0)
(-0.0605299 0.417918 0)
(-0.0904997 0.394951 0)
(-0.114169 0.365844 0)
(-0.128057 0.331877 0)
(-0.131312 0.296426 0)
(-0.119123 0.254699 0)
(-0.0865197 0.203499 0)
(-0.0403628 0.166454 0)
(0.0284257 -0.0378762 0)
(0.0625809 0.0166944 0)
(0.0868018 0.0766887 0)
(0.101213 0.13097 0)
(0.108131 0.181312 0)
(0.11056 0.227978 0)
(0.110455 0.271317 0)
(0.108039 0.308814 0)
(0.10497 0.340752 0)
(0.100339 0.368916 0)
(0.0934142 0.390025 0)
(0.0843743 0.402169 0)
(0.0726471 0.409075 0)
(0.0590138 0.410159 0)
(0.0441891 0.408159 0)
(0.0294619 0.400111 0)
(0.0127571 0.384404 0)
(-0.00335483 0.361385 0)
(-0.0192468 0.329874 0)
(-0.0317588 0.292213 0)
(-0.0408331 0.252667 0)
(-0.0471923 0.214524 0)
(-0.0469485 0.170397 0)
(-0.042278 0.108304 0)
(-0.02022 0.0446852 0)
(0.0160775 -0.0691351 0)
(0.0378812 0.00515057 0)
(0.0450379 0.0720949 0)
(0.0497207 0.131903 0)
(0.0526707 0.187121 0)
(0.0535924 0.238542 0)
(0.0531545 0.285063 0)
(0.0513881 0.325723 0)
(0.0508815 0.360631 0)
(0.0512746 0.391097 0)
(0.05185 0.4148 0)
(0.0516845 0.431587 0)
(0.0491769 0.442177 0)
(0.0450342 0.445538 0)
(0.0402333 0.444911 0)
(0.0347658 0.4398 0)
(0.0280412 0.426818 0)
(0.0204957 0.40352 0)
(0.0115298 0.37142 0)
(0.00122328 0.330745 0)
(-0.00766269 0.285082 0)
(-0.0146547 0.237748 0)
(-0.0179974 0.184258 0)
(-0.0214942 0.115166 0)
(-0.0100775 0.0297503 0)
(0.00850608 -0.0905732 0)
(0.0204132 -0.0144524 0)
(0.0171416 0.0538106 0)
(0.012867 0.112351 0)
(0.00908489 0.164407 0)
(0.0051352 0.214574 0)
(0.0017409 0.261874 0)
(-0.00102578 0.30198 0)
(-0.00170017 0.336084 0)
(0.000236678 0.365305 0)
(0.00446798 0.388797 0)
(0.00892189 0.408846 0)
(0.0123819 0.42175 0)
(0.0156659 0.427652 0)
(0.0189547 0.427038 0)
(0.0225481 0.421234 0)
(0.02596 0.406934 0)
(0.0278733 0.385549 0)
(0.0262339 0.355782 0)
(0.0211249 0.319262 0)
(0.0131559 0.276726 0)
(0.00462874 0.233178 0)
(-0.00297972 0.180826 0)
(-0.00800625 0.110493 0)
(-0.0036743 0.021356 0)
(0.00599919 -0.0861796 0)
(0.00998389 -0.00129325 0)
(-0.00123727 0.0753217 0)
(-0.0108649 0.135798 0)
(-0.0217133 0.182608 0)
(-0.0331706 0.22523 0)
(-0.0411739 0.2652 0)
(-0.0466118 0.301589 0)
(-0.0487009 0.330784 0)
(-0.0470933 0.355049 0)
(-0.0426155 0.375566 0)
(-0.0356085 0.394139 0)
(-0.0269137 0.406729 0)
(-0.01671 0.41109 0)
(-0.00595873 0.41155 0)
(0.00502981 0.406827 0)
(0.0152422 0.396958 0)
(0.0230219 0.380964 0)
(0.0262178 0.359629 0)
(0.0248512 0.332177 0)
(0.018432 0.299495 0)
(0.00931612 0.261781 0)
(0.00108102 0.209039 0)
(-0.00339383 0.131737 0)
(-0.00189865 0.0311447 0)
(0.00220802 -0.0738428 0)
(0.00116392 0.0114781 0)
(-0.0157768 0.0933651 0)
(-0.0255263 0.158902 0)
(-0.0405651 0.204043 0)
(-0.0555012 0.240623 0)
(-0.0677222 0.272815 0)
(-0.076434 0.30034 0)
(-0.0805538 0.321786 0)
(-0.0806618 0.339921 0)
(-0.0771192 0.355292 0)
(-0.0695335 0.367501 0)
(-0.058237 0.375246 0)
(-0.0448686 0.378233 0)
(-0.0304422 0.378763 0)
(-0.015871 0.376114 0)
(-0.00236927 0.369509 0)
(0.00812785 0.360746 0)
(0.0145596 0.348137 0)
(0.015943 0.331419 0)
(0.0119403 0.307859 0)
(0.00437364 0.27683 0)
(9.0169e-05 0.220899 0)
(-0.00123611 0.139535 0)
(-2.47052e-05 0.0370782 0)
(0.000954465 -0.0522157 0)
(-0.00412027 0.0372339 0)
(-0.0234889 0.12403 0)
(-0.0328918 0.195774 0)
(-0.0491416 0.241156 0)
(-0.0655848 0.270423 0)
(-0.080338 0.292929 0)
(-0.0897899 0.31164 0)
(-0.095094 0.324996 0)
(-0.0954739 0.334429 0)
(-0.0915473 0.341278 0)
(-0.0840268 0.346469 0)
(-0.0723569 0.349811 0)
(-0.0586618 0.351465 0)
(-0.0439706 0.351893 0)
(-0.0292807 0.351117 0)
(-0.0158185 0.349561 0)
(-0.0052388 0.346806 0)
(0.00192139 0.342905 0)
(0.00405623 0.337964 0)
(0.000591908 0.327297 0)
(-0.00444703 0.298784 0)
(-0.00608872 0.237749 0)
(-0.00249092 0.147568 0)
(-0.00156844 0.0419353 0)
(-0.00103947 -0.0298597 0)
(-0.00692834 0.060911 0)
(-0.0262665 0.148088 0)
(-0.033176 0.224331 0)
(-0.0464543 0.273903 0)
(-0.0611733 0.300071 0)
(-0.0751195 0.315366 0)
(-0.0847331 0.32251 0)
(-0.0903496 0.324714 0)
(-0.0914139 0.32519 0)
(-0.0886193 0.326185 0)
(-0.0815661 0.324366 0)
(-0.0710721 0.321958 0)
(-0.0589779 0.321099 0)
(-0.0469126 0.321876 0)
(-0.0352022 0.323871 0)
(-0.0244712 0.326981 0)
(-0.0159425 0.331536 0)
(-0.0110792 0.336495 0)
(-0.00996627 0.340635 0)
(-0.0119119 0.335433 0)
(-0.0132487 0.3065 0)
(-0.0101822 0.23849 0)
(-0.00479524 0.145437 0)
(-0.00217878 0.0391105 0)
(-0.00136965 -0.00747065 0)
(-0.00599907 0.0853354 0)
(-0.0231843 0.172408 0)
(-0.0287254 0.250687 0)
(-0.0371571 0.306352 0)
(-0.0485376 0.332194 0)
(-0.0589919 0.34023 0)
(-0.0672972 0.339321 0)
(-0.0730539 0.334359 0)
(-0.0753158 0.327538 0)
(-0.074391 0.318329 0)
(-0.0702324 0.308281 0)
(-0.0638368 0.302034 0)
(-0.0546321 0.300313 0)
(-0.0454823 0.302782 0)
(-0.0361102 0.306629 0)
(-0.0291041 0.313327 0)
(-0.0242304 0.323353 0)
(-0.0223573 0.334767 0)
(-0.0228096 0.343712 0)
(-0.0234514 0.34038 0)
(-0.0220209 0.306832 0)
(-0.0145064 0.2337 0)
(-0.00801415 0.140363 0)
(-0.00256321 0.0333676 0)
(-0.000679047 0.00779547 0)
(-0.00311067 0.101724 0)
(-0.0163157 0.188844 0)
(-0.0205669 0.267431 0)
(-0.0257928 0.32706 0)
(-0.0320027 0.35513 0)
(-0.0396446 0.360324 0)
(-0.0458535 0.353409 0)
(-0.0506003 0.340955 0)
(-0.0535326 0.326268 0)
(-0.0537 0.311606 0)
(-0.0528037 0.298379 0)
(-0.0511636 0.286361 0)
(-0.0466052 0.280686 0)
(-0.0411031 0.281238 0)
(-0.0343252 0.288892 0)
(-0.0301706 0.301075 0)
(-0.0287547 0.317308 0)
(-0.0298997 0.333679 0)
(-0.0316299 0.34546 0)
(-0.0319062 0.338547 0)
(-0.0271349 0.29617 0)
(-0.017287 0.218178 0)
(-0.0095976 0.126413 0)
(-0.00216341 0.0219956 0)
(0.000351125 0.0189949 0)
(0.000293902 0.113405 0)
(-0.00969829 0.200876 0)
(-0.0118663 0.278966 0)
(-0.0147921 0.340147 0)
(-0.0177309 0.371718 0)
(-0.0224926 0.377305 0)
(-0.0272362 0.367034 0)
(-0.0303955 0.351261 0)
(-0.0325656 0.33174 0)
(-0.0334095 0.312387 0)
(-0.0344097 0.295715 0)
(-0.0353556 0.281126 0)
(-0.0352369 0.272287 0)
(-0.035194 0.272638 0)
(-0.0339158 0.280908 0)
(-0.0332652 0.296996 0)
(-0.0325403 0.317122 0)
(-0.0350062 0.336813 0)
(-0.0364769 0.346649 0)
(-0.0355639 0.332765 0)
(-0.028214 0.279302 0)
(-0.0182849 0.200327 0)
(-0.00986278 0.109084 0)
(-0.00289596 0.0100423 0)
(0.00118156 0.0246959 0)
(0.00257256 0.120013 0)
(-0.00480382 0.205941 0)
(-0.00597541 0.282168 0)
(-0.00643196 0.344796 0)
(-0.00746984 0.379457 0)
(-0.00925418 0.387862 0)
(-0.0125515 0.376348 0)
(-0.0155253 0.356359 0)
(-0.0171825 0.333138 0)
(-0.0186344 0.312321 0)
(-0.0201265 0.294694 0)
(-0.021676 0.278847 0)
(-0.0250666 0.27112 0)
(-0.0294244 0.271665 0)
(-0.0321887 0.279443 0)
(-0.0336605 0.295041 0)
(-0.0342571 0.316859 0)
(-0.0363011 0.33846 0)
(-0.0374591 0.344435 0)
(-0.0343447 0.320915 0)
(-0.0256304 0.259177 0)
(-0.0173762 0.180859 0)
(-0.0095736 0.0916657 0)
(-0.00404049 -0.00239957 0)
(0.00139242 0.0276883 0)
(0.00382588 0.124269 0)
(-0.000885166 0.208534 0)
(-0.00136157 0.282049 0)
(-0.000297708 0.343262 0)
(0.000924639 0.381196 0)
(0.00109214 0.391799 0)
(0.000251065 0.383565 0)
(-0.00188959 0.362798 0)
(-0.00462289 0.338638 0)
(-0.0073721 0.315322 0)
(-0.00949102 0.295222 0)
(-0.0118328 0.281327 0)
(-0.0160877 0.277712 0)
(-0.0219569 0.278284 0)
(-0.0266051 0.284768 0)
(-0.0310448 0.298304 0)
(-0.0339694 0.319636 0)
(-0.0359889 0.340987 0)
(-0.0360627 0.339983 0)
(-0.0315208 0.305726 0)
(-0.0241347 0.241062 0)
(-0.0179917 0.165847 0)
(-0.0108835 0.07891 0)
(-0.00566772 -0.015962 0)
(0.00148898 0.0279764 0)
(0.00429751 0.124652 0)
(0.00189742 0.207571 0)
(0.00225321 0.278656 0)
(0.0028781 0.336643 0)
(0.00533837 0.376602 0)
(0.00704674 0.389662 0)
(0.00849249 0.383378 0)
(0.00822164 0.366845 0)
(0.00669735 0.34205 0)
(0.00378487 0.318939 0)
(7.60051e-05 0.298184 0)
(-0.00334314 0.284116 0)
(-0.00699743 0.282087 0)
(-0.0125535 0.284681 0)
(-0.0186099 0.293247 0)
(-0.0256556 0.30693 0)
(-0.0303587 0.326034 0)
(-0.0328415 0.340349 0)
(-0.0314624 0.332285 0)
(-0.0272592 0.293045 0)
(-0.0223055 0.228016 0)
(-0.0192324 0.155489 0)
(-0.0125464 0.0674886 0)
(-0.00637765 -0.031284 0)
(0.00129525 0.0273258 0)
(0.00424634 0.124179 0)
(0.00303065 0.206596 0)
(0.00317247 0.276668 0)
(0.00353776 0.331804 0)
(0.00603076 0.369036 0)
(0.00925786 0.384995 0)
(0.0119185 0.380631 0)
(0.0142385 0.365163 0)
(0.0152556 0.344052 0)
(0.0120891 0.324359 0)
(0.00816247 0.304249 0)
(0.00342906 0.290768 0)
(-0.00147745 0.289907 0)
(-0.00712545 0.296218 0)
(-0.0134564 0.305987 0)
(-0.0192415 0.317841 0)
(-0.0227609 0.331917 0)
(-0.0249176 0.339872 0)
(-0.0233272 0.324473 0)
(-0.0191953 0.282077 0)
(-0.0172439 0.222236 0)
(-0.0171818 0.151263 0)
(-0.0124484 0.0597121 0)
(-0.00559774 -0.0426921 0)
(0.000912627 0.0270166 0)
(0.00365138 0.123968 0)
(0.00426089 0.20684 0)
(0.00446236 0.274783 0)
(0.00515996 0.326303 0)
(0.00700868 0.361098 0)
(0.011068 0.37659 0)
(0.0144589 0.372944 0)
(0.0175013 0.358634 0)
(0.0187981 0.343198 0)
(0.0169124 0.32728 0)
(0.0131317 0.309606 0)
(0.00844633 0.298496 0)
(0.00250981 0.298152 0)
(-0.00267221 0.304236 0)
(-0.00753595 0.313856 0)
(-0.0117304 0.323639 0)
(-0.0142034 0.334972 0)
(-0.0145896 0.337189 0)
(-0.0122417 0.316646 0)
(-0.0101292 0.276964 0)
(-0.00989041 0.222549 0)
(-0.0101875 0.150022 0)
(-0.00970444 0.0565453 0)
(-0.00436705 -0.0479505 0)
(0.000989673 0.0256699 0)
(0.00402275 0.122842 0)
(0.00727107 0.207023 0)
(0.00895008 0.273632 0)
(0.0103507 0.322885 0)
(0.0125594 0.354125 0)
(0.0166601 0.368177 0)
(0.0196857 0.367194 0)
(0.0212391 0.356041 0)
(0.0203611 0.342178 0)
(0.0188764 0.327969 0)
(0.0148263 0.312844 0)
(0.0107228 0.303645 0)
(0.00547354 0.305788 0)
(0.000248341 0.312677 0)
(-0.00446334 0.321989 0)
(-0.0077806 0.329718 0)
(-0.00892863 0.335079 0)
(-0.00682112 0.332145 0)
(-0.00444918 0.312431 0)
(-0.00297752 0.275309 0)
(-0.00267373 0.223084 0)
(-0.00222609 0.151236 0)
(-0.00566419 0.0586315 0)
(-0.00328953 -0.0474124 0)
(0.00160881 0.020558 0)
(0.00544646 0.117207 0)
(0.0111322 0.202208 0)
(0.0155276 0.269812 0)
(0.01918 0.316736 0)
(0.0228309 0.34609 0)
(0.0262281 0.360636 0)
(0.0281801 0.362074 0)
(0.027729 0.353705 0)
(0.0249288 0.341053 0)
(0.0212831 0.327641 0)
(0.0153233 0.315216 0)
(0.00887139 0.307579 0)
(0.00306769 0.311432 0)
(-0.001429 0.31971 0)
(-0.00546952 0.326477 0)
(-0.00702034 0.332542 0)
(-0.00605988 0.333451 0)
(-0.00351068 0.327314 0)
(-0.000741714 0.30922 0)
(0.00151379 0.274606 0)
(0.00188988 0.225153 0)
(0.00242889 0.15408 0)
(-0.00269258 0.0633713 0)
(-0.00250437 -0.0453569 0)
(0.00178949 0.012817 0)
(0.0057182 0.109442 0)
(0.0132988 0.193427 0)
(0.0192325 0.259872 0)
(0.0249731 0.307686 0)
(0.030208 0.338014 0)
(0.0338551 0.354208 0)
(0.0357877 0.358474 0)
(0.0351999 0.354117 0)
(0.0312133 0.344019 0)
(0.024942 0.334187 0)
(0.0162764 0.3245 0)
(0.00702687 0.317242 0)
(-0.00042885 0.317988 0)
(-0.00429953 0.323787 0)
(-0.00675972 0.328166 0)
(-0.00680933 0.330087 0)
(-0.00449696 0.329056 0)
(-0.00272366 0.324263 0)
(0.000445283 0.304891 0)
(0.00270506 0.272533 0)
(0.00337979 0.225734 0)
(0.00308191 0.158375 0)
(-0.00187024 0.0690781 0)
(-0.0017197 -0.0429992 0)
(0.00162488 0.00500985 0)
(0.00472117 0.101055 0)
(0.0128718 0.183407 0)
(0.0191485 0.247873 0)
(0.0252732 0.295167 0)
(0.0311391 0.326142 0)
(0.0361409 0.345493 0)
(0.0381984 0.35372 0)
(0.0381703 0.354382 0)
(0.0346001 0.350509 0)
(0.0284526 0.344697 0)
(0.0206922 0.337152 0)
(0.0121602 0.32831 0)
(0.00404195 0.324701 0)
(-0.00114864 0.325707 0)
(-0.00335187 0.327257 0)
(-0.00322048 0.326196 0)
(-0.00213148 0.325714 0)
(-0.000257942 0.319433 0)
(0.00250982 0.30113 0)
(0.0037203 0.27098 0)
(0.00328497 0.227516 0)
(0.00211175 0.163738 0)
(-0.00186367 0.0743463 0)
(-0.00138973 -0.0398656 0)
(0.00115497 -0.00146354 0)
(0.00320704 0.0940976 0)
(0.0101641 0.173616 0)
(0.0168148 0.236273 0)
(0.0226576 0.281997 0)
(0.0285828 0.313334 0)
(0.0327761 0.336847 0)
(0.0349289 0.34959 0)
(0.0352394 0.355549 0)
(0.0341806 0.35573 0)
(0.0316385 0.352428 0)
(0.0269654 0.346571 0)
(0.021093 0.33838 0)
(0.0143591 0.333792 0)
(0.00832912 0.330793 0)
(0.00518892 0.327698 0)
(0.00352609 0.324826 0)
(0.00300298 0.32306 0)
(0.0043533 0.315394 0)
(0.00629037 0.298586 0)
(0.00604222 0.271985 0)
(0.00428541 0.230223 0)
(0.00260115 0.167737 0)
(-0.00123949 0.0791346 0)
(-0.000644974 -0.0358281 0)
(0.000177803 -0.00462336 0)
(0.000830763 0.0907679 0)
(0.00615889 0.166665 0)
(0.0119913 0.227063 0)
(0.0179295 0.272184 0)
(0.0237159 0.304989 0)
(0.027868 0.331017 0)
(0.0308392 0.347012 0)
(0.0329956 0.35444 0)
(0.0346436 0.3566 0)
(0.0346867 0.356822 0)
(0.0324084 0.35268 0)
(0.0286271 0.344231 0)
(0.0236853 0.33946 0)
(0.0188036 0.335293 0)
(0.014632 0.331293 0)
(0.0111819 0.327436 0)
(0.00957896 0.322832 0)
(0.00999777 0.31384 0)
(0.0103922 0.297863 0)
(0.00943363 0.274773 0)
(0.00643431 0.235289 0)
(0.00480354 0.17211 0)
(0.000450941 0.0856459 0)
(0.00057474 -0.0298043 0)
(-0.00025067 -0.0059398 0)
(-0.000288734 0.0892162 0)
(0.0037431 0.163086 0)
(0.0083691 0.219408 0)
(0.014429 0.261918 0)
(0.0208731 0.295521 0)
(0.026334 0.322195 0)
(0.0312338 0.339194 0)
(0.0354308 0.34959 0)
(0.0379455 0.355015 0)
(0.0386882 0.358293 0)
(0.0367873 0.35645 0)
(0.0340092 0.350276 0)
(0.0298443 0.345453 0)
(0.0253887 0.340796 0)
(0.0209218 0.336709 0)
(0.0170473 0.331907 0)
(0.013906 0.324962 0)
(0.012566 0.314884 0)
(0.0113976 0.299763 0)
(0.00993105 0.278365 0)
(0.00769286 0.23948 0)
(0.00684661 0.176953 0)
(0.00170495 0.0932977 0)
(0.00137526 -0.0212773 0)
(-5.77212e-06 -0.0070151 0)
(-9.56651e-05 0.0879001 0)
(0.00408072 0.161481 0)
(0.00787745 0.214336 0)
(0.013345 0.253736 0)
(0.0194465 0.286905 0)
(0.0256437 0.312725 0)
(0.0315694 0.331402 0)
(0.0359522 0.343805 0)
(0.0381396 0.353065 0)
(0.0389927 0.359289 0)
(0.0381015 0.359372 0)
(0.0365395 0.353805 0)
(0.033245 0.350725 0)
(0.0290992 0.346928 0)
(0.0237901 0.342425 0)
(0.018826 0.337156 0)
(0.0144311 0.329273 0)
(0.011784 0.318235 0)
(0.00962615 0.302578 0)
(0.00849094 0.281036 0)
(0.00730231 0.242953 0)
(0.00719583 0.18315 0)
(0.00220319 0.102268 0)
(0.00173089 -0.0117253 0)
(0.000638918 -0.00965056 0)
(0.00149416 0.0839667 0)
(0.00576021 0.156538 0)
(0.0100581 0.20907 0)
(0.0145458 0.246682 0)
(0.0195671 0.278543 0)
(0.0252329 0.303093 0)
(0.0305734 0.323164 0)
(0.0343146 0.339514 0)
(0.0360237 0.350793 0)
(0.0373633 0.357513 0)
(0.0375518 0.358849 0)
(0.0368026 0.355944 0)
(0.03411 0.355637 0)
(0.03017 0.354618 0)
(0.0241392 0.35143 0)
(0.0180725 0.344718 0)
(0.0132096 0.334362 0)
(0.00953203 0.321683 0)
(0.00723413 0.306427 0)
(0.00590183 0.283731 0)
(0.00578453 0.245813 0)
(0.00563094 0.188589 0)
(0.00194279 0.109657 0)
(0.00168869 -0.00266964 0)
(0.00151144 -0.0138807 0)
(0.00347134 0.0788319 0)
(0.00692212 0.150393 0)
(0.0114203 0.203104 0)
(0.0157144 0.241548 0)
(0.0198629 0.272285 0)
(0.02455 0.296172 0)
(0.0286738 0.316539 0)
(0.0317972 0.334235 0)
(0.0334964 0.346646 0)
(0.0342605 0.354331 0)
(0.0340895 0.357635 0)
(0.0330763 0.357243 0)
(0.0302476 0.359607 0)
(0.0261091 0.361299 0)
(0.0208653 0.360004 0)
(0.0154714 0.352553 0)
(0.0104368 0.34173 0)
(0.00591178 0.327664 0)
(0.00391074 0.310578 0)
(0.00278919 0.287935 0)
(0.00325896 0.248384 0)
(0.00321187 0.194697 0)
(0.00111638 0.1157 0)
(0.0015324 0.00526374 0)
(0.00221441 -0.0189245 0)
(0.00448358 0.0732374 0)
(0.00684216 0.143756 0)
(0.0108811 0.194906 0)
(0.0152273 0.23413 0)
(0.0192402 0.265467 0)
(0.0230159 0.289771 0)
(0.0260593 0.310856 0)
(0.0283238 0.330123 0)
(0.029281 0.343873 0)
(0.0294951 0.352862 0)
(0.028566 0.357437 0)
(0.0263376 0.359242 0)
(0.0223478 0.363789 0)
(0.0171437 0.367341 0)
(0.0124662 0.366878 0)
(0.00770566 0.360773 0)
(0.00334002 0.350038 0)
(-0.00027118 0.334368 0)
(-0.00255777 0.315175 0)
(-0.00270811 0.28965 0)
(-0.00109995 0.249827 0)
(-0.000266054 0.197268 0)
(0.000374876 0.118282 0)
(0.00110491 0.0109347 0)
(0.00239605 -0.023334 0)
(0.00468782 0.0686843 0)
(0.00558989 0.137592 0)
(0.0088412 0.18715 0)
(0.0122587 0.22652 0)
(0.01587 0.258222 0)
(0.0187861 0.284314 0)
(0.0208107 0.306518 0)
(0.0221054 0.326334 0)
(0.0229726 0.341096 0)
(0.0222879 0.352062 0)
(0.0205698 0.358875 0)
(0.017016 0.364013 0)
(0.0117534 0.371235 0)
(0.00575967 0.374968 0)
(0.00115934 0.373533 0)
(-0.00288177 0.367616 0)
(-0.00577806 0.356532 0)
(-0.00812427 0.340617 0)
(-0.00962807 0.318721 0)
(-0.00852309 0.289094 0)
(-0.00595129 0.248312 0)
(-0.00347883 0.195745 0)
(-0.000537923 0.117566 0)
(0.000563871 0.0143753 0)
(0.00224633 -0.0261656 0)
(0.00435341 0.0661634 0)
(0.00370728 0.133233 0)
(0.00599597 0.181217 0)
(0.00826188 0.22014 0)
(0.010711 0.251752 0)
(0.0130541 0.279209 0)
(0.0142479 0.302535 0)
(0.0148176 0.322902 0)
(0.0143956 0.339338 0)
(0.0126875 0.352334 0)
(0.00983426 0.361522 0)
(0.00531494 0.369928 0)
(0.000153288 0.378661 0)
(-0.00529384 0.382977 0)
(-0.00994359 0.380766 0)
(-0.013103 0.372634 0)
(-0.0147022 0.36007 0)
(-0.0152392 0.342711 0)
(-0.0146468 0.318202 0)
(-0.0125357 0.285429 0)
(-0.00958542 0.242972 0)
(-0.00574344 0.190061 0)
(-0.00147027 0.115062 0)
(0.000282991 0.01558 0)
(0.00192355 -0.0268399 0)
(0.00374674 0.0661126 0)
(0.00138415 0.130967 0)
(0.00232343 0.177187 0)
(0.00352726 0.216549 0)
(0.00455317 0.24764 0)
(0.00571356 0.275598 0)
(0.0057674 0.3001 0)
(0.00531164 0.322325 0)
(0.0033206 0.341106 0)
(0.000883843 0.355699 0)
(-0.0024794 0.366937 0)
(-0.00672526 0.376136 0)
(-0.0114796 0.385543 0)
(-0.0159025 0.389476 0)
(-0.0188814 0.385545 0)
(-0.0204578 0.375978 0)
(-0.0210258 0.361212 0)
(-0.0197197 0.341107 0)
(-0.0171926 0.313947 0)
(-0.014116 0.280079 0)
(-0.0108823 0.237283 0)
(-0.0066931 0.183516 0)
(-0.00194264 0.112058 0)
(8.73355e-05 0.0152908 0)
(0.00139668 -0.0249145 0)
(0.0025177 0.0684543 0)
(-0.000910599 0.132485 0)
(-0.00183303 0.176371 0)
(-0.00211509 0.214642 0)
(-0.00258131 0.245265 0)
(-0.00348061 0.273675 0)
(-0.00495495 0.299255 0)
(-0.00662666 0.322447 0)
(-0.00879072 0.342292 0)
(-0.0109623 0.358582 0)
(-0.0136685 0.371292 0)
(-0.0165371 0.381593 0)
(-0.0197442 0.391027 0)
(-0.0223475 0.393285 0)
(-0.0238428 0.387408 0)
(-0.024175 0.375785 0)
(-0.0233806 0.358363 0)
(-0.0209516 0.335198 0)
(-0.0175718 0.307362 0)
(-0.0140578 0.272982 0)
(-0.0102875 0.229737 0)
(-0.00646642 0.177804 0)
(-0.0020049 0.108551 0)
(-0.000269922 0.0141249 0)
(0.000573644 -0.0203938 0)
(0.000506217 0.0732165 0)
(-0.00344499 0.137513 0)
(-0.00565349 0.180494 0)
(-0.00797317 0.216847 0)
(-0.0102432 0.248083 0)
(-0.0130699 0.276547 0)
(-0.0160693 0.301521 0)
(-0.018686 0.324701 0)
(-0.0203192 0.34454 0)
(-0.0210926 0.360936 0)
(-0.0220971 0.374255 0)
(-0.0233205 0.384161 0)
(-0.0245746 0.392987 0)
(-0.0253444 0.393428 0)
(-0.024817 0.385884 0)
(-0.0234703 0.372608 0)
(-0.0213522 0.353698 0)
(-0.0187079 0.328675 0)
(-0.0154616 0.299174 0)
(-0.0120456 0.265527 0)
(-0.00853408 0.223069 0)
(-0.00566574 0.172754 0)
(-0.00234617 0.105539 0)
(-0.000854125 0.0124984 0)
(4.45879e-05 -0.0143976 0)
(-0.000897896 0.0797018 0)
(-0.00540009 0.144049 0)
(-0.00804219 0.187356 0)
(-0.0115001 0.222945 0)
(-0.0148781 0.253055 0)
(-0.0185178 0.280548 0)
(-0.0223344 0.305209 0)
(-0.0253373 0.326314 0)
(-0.0269627 0.34398 0)
(-0.0273883 0.36015 0)
(-0.0276216 0.373675 0)
(-0.0273184 0.383621 0)
(-0.0266568 0.391543 0)
(-0.0254148 0.390504 0)
(-0.0232608 0.381119 0)
(-0.0205927 0.36636 0)
(-0.0175313 0.346881 0)
(-0.0146192 0.321774 0)
(-0.0115998 0.292263 0)
(-0.00909696 0.258885 0)
(-0.00618434 0.218706 0)
(-0.00449947 0.16996 0)
(-0.00231928 0.10358 0)
(-0.00123872 0.01079 0)
(-0.000298094 -0.00678444 0)
(-0.00171829 0.0881482 0)
(-0.00668712 0.152514 0)
(-0.00984353 0.195525 0)
(-0.0135869 0.230232 0)
(-0.0170407 0.259901 0)
(-0.0203371 0.287822 0)
(-0.0237173 0.312673 0)
(-0.0264284 0.332533 0)
(-0.0286093 0.347427 0)
(-0.0296021 0.360563 0)
(-0.0294159 0.371737 0)
(-0.0281894 0.379355 0)
(-0.0262879 0.38643 0)
(-0.0237297 0.383349 0)
(-0.0203364 0.373349 0)
(-0.0173648 0.358653 0)
(-0.0137143 0.338735 0)
(-0.010862 0.313838 0)
(-0.00770136 0.285044 0)
(-0.00615384 0.25434 0)
(-0.00416938 0.215512 0)
(-0.00320551 0.1681 0)
(-0.00201415 0.10127 0)
(-0.0012327 0.0087821 0)
(-0.000329636 0.00126332 0)
(-0.00187823 0.096915 0)
(-0.00642068 0.160822 0)
(-0.00957243 0.203951 0)
(-0.0137108 0.237452 0)
(-0.016609 0.266185 0)
(-0.0187932 0.293774 0)
(-0.0206107 0.317399 0)
(-0.0218306 0.335641 0)
(-0.0236919 0.349389 0)
(-0.0254121 0.360171 0)
(-0.0262337 0.368951 0)
(-0.0252134 0.374521 0)
(-0.0226551 0.380365 0)
(-0.0194468 0.376174 0)
(-0.0155975 0.365745 0)
(-0.0122346 0.350956 0)
(-0.0088071 0.330977 0)
(-0.00635919 0.307406 0)
(-0.00412911 0.280481 0)
(-0.00301776 0.251265 0)
(-0.00177902 0.213778 0)
(-0.0011562 0.16744 0)
(-0.00101425 0.100078 0)
(-0.000754914 0.00856462 0)
(5.76922e-05 0.00825052 0)
(-0.00141538 0.104404 0)
(-0.00503722 0.167861 0)
(-0.00745949 0.211913 0)
(-0.0115596 0.244842 0)
(-0.0141398 0.271548 0)
(-0.0156922 0.29789 0)
(-0.0163446 0.320455 0)
(-0.0170133 0.339228 0)
(-0.0187582 0.353044 0)
(-0.0209186 0.362403 0)
(-0.0227267 0.367902 0)
(-0.0222954 0.368785 0)
(-0.0196795 0.371803 0)
(-0.0160892 0.366727 0)
(-0.012347 0.356162 0)
(-0.0087027 0.342616 0)
(-0.00575138 0.32422 0)
(-0.00360476 0.302221 0)
(-0.001758 0.276709 0)
(-0.000786482 0.249246 0)
(7.49633e-05 0.212763 0)
(0.00111451 0.166936 0)
(0.000194131 0.101112 0)
(4.55368e-05 0.0104152 0)
(0.000278222 0.0142337 0)
(-0.000965644 0.111144 0)
(-0.0042362 0.172582 0)
(-0.0053937 0.218471 0)
(-0.00897788 0.251977 0)
(-0.011604 0.277512 0)
(-0.0137561 0.301548 0)
(-0.0145677 0.322309 0)
(-0.0150573 0.340653 0)
(-0.0160069 0.355473 0)
(-0.0172809 0.364402 0)
(-0.0183502 0.367545 0)
(-0.0178709 0.364562 0)
(-0.015971 0.364944 0)
(-0.0134579 0.359527 0)
(-0.011048 0.348675 0)
(-0.00823408 0.334959 0)
(-0.00545163 0.317569 0)
(-0.00327243 0.297078 0)
(-0.00160886 0.273294 0)
(-0.000387691 0.247435 0)
(0.000440489 0.211479 0)
(0.00222193 0.166616 0)
(0.000689807 0.103842 0)
(0.000508072 0.0141354 0)
(6.80493e-05 0.0189527 0)
(-0.00056201 0.116781 0)
(-0.00381462 0.175419 0)
(-0.00413453 0.222488 0)
(-0.00651362 0.258263 0)
(-0.00837043 0.283339 0)
(-0.0104498 0.305647 0)
(-0.0116723 0.324045 0)
(-0.012726 0.341619 0)
(-0.0133952 0.35503 0)
(-0.013476 0.362816 0)
(-0.0139735 0.364653 0)
(-0.0138372 0.35978 0)
(-0.0127042 0.35893 0)
(-0.0105036 0.353533 0)
(-0.00890086 0.342927 0)
(-0.00719239 0.328915 0)
(-0.0052865 0.312343 0)
(-0.0034548 0.293055 0)
(-0.00205951 0.270882 0)
(-0.000643302 0.245679 0)
(0.000908747 0.209734 0)
(0.00286189 0.165968 0)
(0.000813436 0.106567 0)
(0.000629701 0.0182917 0)
(-0.00051675 0.0236183 0)
(-0.000868637 0.121825 0)
(-0.00395043 0.178625 0)
(-0.00406463 0.224221 0)
(-0.00449639 0.260986 0)
(-0.00565281 0.2861 0)
(-0.00662825 0.308766 0)
(-0.00802487 0.327076 0)
(-0.00904457 0.343434 0)
(-0.00949172 0.354954 0)
(-0.00935879 0.361715 0)
(-0.0100745 0.363255 0)
(-0.0105413 0.356424 0)
(-0.0104659 0.353001 0)
(-0.00944726 0.347056 0)
(-0.00830296 0.33873 0)
(-0.00732847 0.325064 0)
(-0.00613357 0.308288 0)
(-0.00451647 0.289597 0)
(-0.00281705 0.267439 0)
(-0.000327778 0.241828 0)
(0.00183692 0.20559 0)
(0.00305704 0.165609 0)
(0.000657614 0.109256 0)
(0.000518202 0.0221402 0)
(-0.00101613 0.0284355 0)
(-0.00169326 0.126381 0)
(-0.00452684 0.181641 0)
(-0.00474977 0.223724 0)
(-0.00402222 0.262096 0)
(-0.0044796 0.287983 0)
(-0.0049897 0.310962 0)
(-0.00596084 0.328736 0)
(-0.00627171 0.343593 0)
(-0.00642771 0.353626 0)
(-0.00646586 0.360114 0)
(-0.00714129 0.360986 0)
(-0.00755273 0.35351 0)
(-0.00838668 0.350376 0)
(-0.00897961 0.343896 0)
(-0.00870808 0.334957 0)
(-0.00769338 0.322118 0)
(-0.00643962 0.305818 0)
(-0.00493945 0.286758 0)
(-0.00237336 0.262613 0)
(0.00127612 0.236721 0)
(0.00284995 0.203596 0)
(0.00325491 0.167167 0)
(0.000608881 0.112871 0)
(0.000415172 0.0258951 0)
(-0.0013309 0.0332209 0)
(-0.00205896 0.131034 0)
(-0.00524609 0.185077 0)
(-0.00594745 0.224163 0)
(-0.00556514 0.26155 0)
(-0.00518173 0.288732 0)
(-0.00519915 0.312187 0)
(-0.00515351 0.329345 0)
(-0.00515134 0.342913 0)
(-0.00502286 0.352837 0)
(-0.00563396 0.35911 0)
(-0.00636991 0.359966 0)
(-0.00696388 0.352609 0)
(-0.00850058 0.349882 0)
(-0.00957127 0.342793 0)
(-0.00981418 0.3324 0)
(-0.00889625 0.318268 0)
(-0.00744781 0.301326 0)
(-0.00516465 0.281417 0)
(-0.00218996 0.25535 0)
(0.000988356 0.231638 0)
(0.00141997 0.202676 0)
(0.00210139 0.168204 0)
(-9.39375e-05 0.116258 0)
(0.000200873 0.0294363 0)
(-0.00155701 0.0393531 0)
(-0.0023411 0.137013 0)
(-0.00589798 0.189904 0)
(-0.00683159 0.226892 0)
(-0.00757778 0.262137 0)
(-0.00662034 0.288075 0)
(-0.00624771 0.311686 0)
(-0.00590105 0.328533 0)
(-0.0057348 0.342583 0)
(-0.00577318 0.352984 0)
(-0.00653217 0.359654 0)
(-0.00686877 0.359203 0)
(-0.00796347 0.353144 0)
(-0.00955929 0.350538 0)
(-0.0106525 0.342089 0)
(-0.0104014 0.330041 0)
(-0.00901522 0.314643 0)
(-0.00719962 0.296313 0)
(-0.00476268 0.275443 0)
(-0.00253959 0.249867 0)
(-0.00105478 0.229442 0)
(-0.00106907 0.202214 0)
(8.59253e-05 0.168582 0)
(-0.00135134 0.118089 0)
(-0.000148351 0.0314367 0)
(-0.00156225 0.0453932 0)
(-0.0022942 0.142281 0)
(-0.00508776 0.194981 0)
(-0.00613367 0.23056 0)
(-0.00709032 0.263503 0)
(-0.00600214 0.287954 0)
(-0.00527112 0.312315 0)
(-0.00514248 0.328998 0)
(-0.00517539 0.3426 0)
(-0.00556761 0.353339 0)
(-0.00569163 0.359849 0)
(-0.00560874 0.360074 0)
(-0.00714581 0.354496 0)
(-0.00856884 0.351069 0)
(-0.00930923 0.340305 0)
(-0.00839521 0.326198 0)
(-0.00673297 0.309209 0)
(-0.00465396 0.290043 0)
(-0.00250421 0.270466 0)
(-0.00155225 0.246802 0)
(-0.00128244 0.228499 0)
(-0.00126258 0.201375 0)
(-0.000512146 0.169266 0)
(-0.00148001 0.119917 0)
(-9.25278e-05 0.0333232 0)
(-0.00116952 0.0506341 0)
(-0.00164855 0.145585 0)
(-0.00349528 0.198196 0)
(-0.00406739 0.233519 0)
(-0.00448493 0.264029 0)
(-0.00303679 0.286463 0)
(-0.00162665 0.311241 0)
(-0.000783459 0.328846 0)
(-0.000640688 0.343609 0)
(-0.00109064 0.354186 0)
(-0.00086759 0.359453 0)
(-0.000939621 0.360718 0)
(-0.00165918 0.356363 0)
(-0.0031364 0.351594 0)
(-0.00392168 0.337559 0)
(-0.00384139 0.32179 0)
(-0.00289881 0.304085 0)
(-0.00161375 0.284793 0)
(8.10948e-05 0.2668 0)
(0.00031818 0.245316 0)
(0.000360335 0.227984 0)
(-5.33558e-05 0.201823 0)
(-0.000513291 0.170789 0)
(-0.00115385 0.120988 0)
(-6.08616e-06 0.03545 0)
(-0.000633807 0.0547106 0)
(-0.000676056 0.148397 0)
(-0.00229598 0.199809 0)
(-0.00181049 0.234796 0)
(-0.0012896 0.263438 0)
(0.000424801 0.284013 0)
(0.00203904 0.308637 0)
(0.0030078 0.327004 0)
(0.00308471 0.342834 0)
(0.00304459 0.353577 0)
(0.00328061 0.359115 0)
(0.00317616 0.360482 0)
(0.00312685 0.356467 0)
(0.00275195 0.352725 0)
(0.00177835 0.338297 0)
(0.000709918 0.321001 0)
(0.000452508 0.301995 0)
(0.00117048 0.281708 0)
(0.00194853 0.264507 0)
(0.00204464 0.244265 0)
(0.00206576 0.228228 0)
(0.000856254 0.204973 0)
(0.000195854 0.173295 0)
(-0.000785221 0.122201 0)
(-0.000113524 0.0375302 0)
(-0.000204189 0.0577698 0)
(0.000563169 0.149897 0)
(-0.00075115 0.199376 0)
(0.000337458 0.232481 0)
(0.00192726 0.261037 0)
(0.00332932 0.280722 0)
(0.00425075 0.305977 0)
(0.00467471 0.325606 0)
(0.00425767 0.342282 0)
(0.00439899 0.352275 0)
(0.00472291 0.357875 0)
(0.00527537 0.359614 0)
(0.00575271 0.354391 0)
(0.0063736 0.351599 0)
(0.00625311 0.338938 0)
(0.00517467 0.321751 0)
(0.00475354 0.301117 0)
(0.00464819 0.280464 0)
(0.00450503 0.263348 0)
(0.00368942 0.244031 0)
(0.00276792 0.230031 0)
(0.00124297 0.207485 0)
(0.0011255 0.174716 0)
(-0.00030484 0.123695 0)
(-0.000271862 0.0398436 0)
(-0.000117616 0.0600907 0)
(0.00132006 0.150199 0)
(9.90977e-07 0.197909 0)
(0.00122569 0.229632 0)
(0.002446 0.258367 0)
(0.0030985 0.279492 0)
(0.00306613 0.305448 0)
(0.00308945 0.324811 0)
(0.00363784 0.340573 0)
(0.00485492 0.350397 0)
(0.00611408 0.355266 0)
(0.0075093 0.356682 0)
(0.00859755 0.352338 0)
(0.00992474 0.349178 0)
(0.0108103 0.337912 0)
(0.0102988 0.32145 0)
(0.00979396 0.301326 0)
(0.00871348 0.280865 0)
(0.00746339 0.265025 0)
(0.00528781 0.246894 0)
(0.00375263 0.232924 0)
(0.00235218 0.209509 0)
(0.00263053 0.175932 0)
(0.000315906 0.1264 0)
(-0.0001273 0.043167 0)
(-0.000216256 0.0632024 0)
(0.000923195 0.151312 0)
(-0.000446675 0.197772 0)
(3.13839e-05 0.228257 0)
(0.000626558 0.257164 0)
(0.000751745 0.279147 0)
(0.000374798 0.303814 0)
(0.00090759 0.32142 0)
(0.00255012 0.335662 0)
(0.00472188 0.34496 0)