/*--------------------------------*- C++ -*----------------------------------*\
| =========                 |                                                 |
| \\      /  F ield         | OpenFOAM: The Open Source CFD Toolbox           |
|  \\    /   O peration     | Version:  2.3.0                                 |
|   \\  /    A nd           | Web:      www.OpenFOAM.org                      |
|    \\/     M anipulation  |                                                 |
\*---------------------------------------------------------------------------*/
FoamFile
{
    version     2.0;
    format      ascii;
    class       volVectorField;
    location    "60";
    object      U.water;
}
// * * * * * * * * * * * * * * * * * * * * * * * * * * * * * * * * * * * * * //

dimensions      [0 1 -1 0 0 0 0];

internalField   nonuniform List<vector> 
1875
(
(0.0215156 -0.101145 0)
(0.039339 -0.107672 0)
(0.0718891 -0.109666 0)
(0.104878 -0.108443 0)
(0.13671 -0.104951 0)
(0.166217 -0.100108 0)
(0.19264 -0.0945499 0)
(0.215519 -0.0886572 0)
(0.234512 -0.0825937 0)
(0.249347 -0.0763463 0)
(0.259754 -0.0698386 0)
(0.265491 -0.0629851 0)
(0.266082 -0.0558466 0)
(0.26097 -0.0485608 0)
(0.249814 -0.0411875 0)
(0.232739 -0.0338868 0)
(0.210489 -0.0276249 0)
(0.184345 -0.0234217 0)
(0.156116 -0.0222078 0)
(0.128205 -0.0247211 0)
(0.102622 -0.0300303 0)
(0.0801664 -0.0360772 0)
(0.0596876 -0.0397199 0)
(0.0359501 -0.0415874 0)
(0.0205049 -0.0451471 0)
(0.0283004 -0.0584662 0)
(0.048922 -0.0659916 0)
(0.0773096 -0.0710335 0)
(0.103363 -0.0701553 0)
(0.127448 -0.0647946 0)
(0.149336 -0.0562428 0)
(0.168847 -0.0457195 0)
(0.18586 -0.033929 0)
(0.200223 -0.0212256 0)
(0.211671 -0.00773873 0)
(0.219834 0.00665975 0)
(0.224015 0.0221154 0)
(0.223968 0.0381945 0)
(0.220295 0.0542413 0)
(0.212769 0.0698293 0)
(0.201044 0.084366 0)
(0.184222 0.0963241 0)
(0.163009 0.104117 0)
(0.138892 0.107128 0)
(0.113854 0.106028 0)
(0.0893282 0.1025 0)
(0.0663703 0.0988242 0)
(0.0457666 0.098458 0)
(0.0258998 0.102604 0)
(0.0119006 0.0999299 0)
(0.0229315 -0.179678 0)
(0.0490748 -0.175205 0)
(0.074804 -0.166572 0)
(0.0951044 -0.154738 0)
(0.112012 -0.140731 0)
(0.126183 -0.125118 0)
(0.137861 -0.108422 0)
(0.147131 -0.09094 0)
(0.15411 -0.0727713 0)
(0.15902 -0.0538206 0)
(0.162146 -0.0339318 0)
(0.164089 -0.012843 0)
(0.164302 0.00991447 0)
(0.161522 0.0341222 0)
(0.155633 0.0588122 0)
(0.146258 0.0824657 0)
(0.133515 0.102722 0)
(0.117789 0.116574 0)
(0.0997428 0.122972 0)
(0.0803533 0.12189 0)
(0.0612413 0.11548 0)
(0.0438693 0.107888 0)
(0.0288843 0.103244 0)
(0.0165329 0.1014 0)
(0.00845013 0.0962582 0)
(0.00942111 -0.218394 0)
(0.0348153 -0.207902 0)
(0.0518807 -0.191795 0)
(0.0649758 -0.173813 0)
(0.0757893 -0.154412 0)
(0.0845174 -0.133632 0)
(0.0911181 -0.11172 0)
(0.0956178 -0.0889736 0)
(0.0981339 -0.0656344 0)
(0.0988136 -0.0417439 0)
(0.0977585 -0.0170814 0)
(0.0947976 0.00862743 0)
(0.0904245 0.0353038 0)
(0.0851083 0.0631437 0)
(0.0786571 0.0916775 0)
(0.0709156 0.119395 0)
(0.0618034 0.143548 0)
(0.051998 0.159689 0)
(0.0420116 0.166942 0)
(0.0320902 0.165064 0)
(0.022949 0.155699 0)
(0.015358 0.143535 0)
(0.009511 0.134061 0)
(0.00521193 0.127129 0)
(0.00217179 0.119531 0)
(1.35645e-06 -0.243045 0)
(0.0161529 -0.232624 0)
(0.0224293 -0.214548 0)
(0.0273926 -0.194008 0)
(0.0314879 -0.171486 0)
(0.033993 -0.147232 0)
(0.0347691 -0.121695 0)
(0.0339623 -0.0954099 0)
(0.0317447 -0.0686557 0)
(0.0282706 -0.0415105 0)
(0.0237015 -0.0137912 0)
(0.0181786 0.0148373 0)
(0.0119001 0.0446097 0)
(0.00513771 0.0752824 0)
(-0.00170223 0.105998 0)
(-0.00795794 0.134862 0)
(-0.0127606 0.15861 0)
(-0.0155979 0.17244 0)
(-0.0167189 0.176682 0)
(-0.016181 0.171566 0)
(-0.0142421 0.159313 0)
(-0.0116016 0.145256 0)
(-0.00856664 0.134237 0)
(-0.00498536 0.126193 0)
(-0.00334187 0.118546 0)
(-0.00445171 -0.247537 0)
(3.67021e-05 -0.236455 0)
(-0.00408483 -0.216819 0)
(-0.00745438 -0.194794 0)
(-0.0110881 -0.169887 0)
(-0.0160202 -0.142732 0)
(-0.0221044 -0.114299 0)
(-0.0290309 -0.0853002 0)
(-0.0365819 -0.0561751 0)
(-0.0445568 -0.0270441 0)
(-0.0527716 0.00225993 0)
(-0.0609555 0.031972 0)
(-0.0686819 0.0620216 0)
(-0.0753302 0.0918979 0)
(-0.0800063 0.120182 0)
(-0.0816718 0.144379 0)
(-0.0794857 0.161255 0)
(-0.0738714 0.168737 0)
(-0.0655551 0.167546 0)
(-0.0551739 0.158265 0)
(-0.0439161 0.144021 0)
(-0.0330753 0.12973 0)
(-0.0229135 0.11884 0)
(-0.0127287 0.111298 0)
(-0.00765773 0.104598 0)
(-0.011677 -0.237083 0)
(-0.0141959 -0.224557 0)
(-0.026619 -0.204044 0)
(-0.037961 -0.181089 0)
(-0.0495723 -0.154458 0)
(-0.0621616 -0.125439 0)
(-0.0751451 -0.095567 0)
(-0.0880975 -0.0657014 0)
(-0.100671 -0.0362973 0)
(-0.112479 -0.00746203 0)
(-0.12307 0.0209008 0)
(-0.131878 0.0487222 0)
(-0.138175 0.0754763 0)
(-0.141092 0.100066 0)
(-0.139821 0.120783 0)
(-0.13397 0.135745 0)
(-0.123746 0.143629 0)
(-0.110001 0.14386 0)
(-0.0937471 0.137244 0)
(-0.0762447 0.125431 0)
(-0.0591542 0.111701 0)
(-0.0435232 0.0994461 0)
(-0.029317 0.090458 0)
(-0.0159178 0.0845302 0)
(-0.00936203 0.0799437 0)
(-0.0183269 -0.210563 0)
(-0.0250248 -0.196342 0)
(-0.0442339 -0.17547 0)
(-0.0623104 -0.151953 0)
(-0.0808004 -0.124244 0)
(-0.09969 -0.0946579 0)
(-0.118064 -0.0650257 0)
(-0.135358 -0.0363368 0)
(-0.15089 -0.00917279 0)
(-0.16384 0.0162012 0)
(-0.17345 0.0395136 0)
(-0.179106 0.0606632 0)
(-0.180295 0.0789464 0)
(-0.176713 0.093717 0)
(-0.168282 0.104097 0)
(-0.155371 0.109407 0)
(-0.138738 0.109126 0)
(-0.11948 0.103726 0)
(-0.0989233 0.0944399 0)
(-0.0785781 0.0831709 0)
(-0.0597415 0.0723404 0)
(-0.0428983 0.0638212 0)
(-0.0279102 0.0585366 0)
(-0.0145816 0.056633 0)
(-0.00815256 0.056018 0)
(-0.0228623 -0.171674 0)
(-0.0319973 -0.156418 0)
(-0.0555048 -0.135491 0)
(-0.0780058 -0.111782 0)
(-0.100734 -0.083995 0)
(-0.122981 -0.0554237 0)
(-0.143574 -0.0281291 0)
(-0.161636 -0.00344308 0)
(-0.176235 0.0178375 0)
(-0.186737 0.0353141 0)
(-0.192618 0.0493313 0)
(-0.193526 0.0603633 0)
(-0.189302 0.0686217 0)
(-0.180197 0.0733939 0)
(-0.166622 0.0742884 0)
(-0.149504 0.0716637 0)
(-0.129885 0.0658885 0)
(-0.109043 0.0579213 0)
(-0.0883087 0.0489603 0)
(-0.0688582 0.0404179 0)
(-0.0513815 0.0336249 0)
(-0.0359996 0.0294913 0)
(-0.0226426 0.0286561 0)
(-0.0113321 0.031628 0)
(-0.00617535 0.0356267 0)
(-0.0249879 -0.125335 0)
(-0.0347823 -0.109347 0)
(-0.059886 -0.0884214 0)
(-0.0839217 -0.0650513 0)
(-0.107647 -0.0384778 0)
(-0.129895 -0.0127913 0)
(-0.149394 0.00973199 0)
(-0.165233 0.0276969 0)
(-0.176689 0.0407019 0)
(-0.183323 0.0491164 0)
(-0.185099 0.0533009 0)
(-0.182002 0.0542232 0)
(-0.173967 0.0511052 0)
(-0.161758 0.0456894 0)
(-0.146325 0.0387602 0)
(-0.128494 0.0309014 0)
(-0.109445 0.0226077 0)
(-0.090351 0.0146595 0)
(-0.0721574 0.00782493 0)
(-0.055517 0.00283883 0)
(-0.0407223 0.000276126 0)
(-0.0278288 0.000596807 0)
(-0.0169097 0.00440411 0)
(-0.00813232 0.012544 0)
(-0.00435882 0.0212078 0)
(-0.0241914 -0.0770568 0)
(-0.0335716 -0.0604557 0)
(-0.0575851 -0.0396779 0)
(-0.0803306 -0.017432 0)
(-0.102186 0.00636286 0)
(-0.121937 0.0273728 0)
(-0.138577 0.0432688 0)
(-0.151514 0.0528624 0)
(-0.1597 0.0561597 0)
(-0.163556 0.0546153 0)
(-0.162645 0.0482987 0)
(-0.157187 0.0388967 0)
(-0.147974 0.0278236 0)
(-0.135706 0.0161132 0)
(-0.121283 0.00464253 0)
(-0.105641 -0.00589042 0)
(-0.0896228 -0.0148666 0)
(-0.0739394 -0.0218018 0)
(-0.0590921 -0.0263455 0)
(-0.0454012 -0.028206 0)
(-0.0330456 -0.0271356 0)
(-0.0221764 -0.0228058 0)
(-0.0130359 -0.0145967 0)
(-0.00592214 -0.00158423 0)
(-0.00298435 0.0113306 0)
(-0.0213057 -0.0320861 0)
(-0.0294633 -0.0148536 0)
(-0.0504398 0.00548646 0)
(-0.0699964 0.0258785 0)
(-0.0883799 0.046186 0)
(-0.104665 0.0622778 0)
(-0.11818 0.0720142 0)
(-0.128442 0.0744232 0)
(-0.135005 0.069691 0)
(-0.137494 0.0586532 0)
(-0.135835 0.0431275 0)
(-0.130599 0.0257226 0)
(-0.12255 0.0081809 0)
(-0.112461 -0.00838084 0)
(-0.101088 -0.0230219 0)
(-0.0890602 -0.0351715 0)
(-0.0768283 -0.0445368 0)
(-0.0646916 -0.0509365 0)
(-0.0528415 -0.0542285 0)
(-0.0414281 -0.0542475 0)
(-0.0306155 -0.0507674 0)
(-0.0206393 -0.0433916 0)
(-0.0118891 -0.0314113 0)
(-0.00488526 -0.0138415 0)
(-0.00197245 0.00355436 0)
(-0.0177103 0.00602563 0)
(-0.0241729 0.0240093 0)
(-0.0413428 0.0437401 0)
(-0.0570833 0.0620013 0)
(-0.0716514 0.078875 0)
(-0.0844823 0.0905673 0)
(-0.0951469 0.0950072 0)
(-0.103284 0.0912302 0)
(-0.108421 0.0794759 0)
(-0.11023 0.0610937 0)
(-0.108989 0.0389216 0)
(-0.105359 0.0158376 0)
(-0.0999567 -0.0061574 0)
(-0.0933357 -0.0258601 0)
(-0.0859255 -0.0426297 0)
(-0.0779871 -0.0561986 0)
(-0.0696567 -0.0664843 0)
(-0.060993 -0.0734423 0)
(-0.0520147 -0.0769751 0)
(-0.0427534 -0.0768762 0)
(-0.0332982 -0.0727721 0)
(-0.0238402 -0.0640132 0)
(-0.0147663 -0.0495613 0)
(-0.0068517 -0.0280231 0)
(-0.00323482 -0.00488485 0)
(-0.0138196 0.0363847 0)
(-0.0183405 0.0552916 0)
(-0.0310959 0.0742876 0)
(-0.0426745 0.0902895 0)
(-0.0533892 0.104179 0)
(-0.0628589 0.112487 0)
(-0.0708254 0.113129 0)
(-0.0770701 0.105003 0)
(-0.0811842 0.0881534 0)
(-0.0830173 0.0647264 0)
(-0.0830175 0.0382516 0)
(-0.0816989 0.0116608 0)
(-0.0794296 -0.0131347 0)
(-0.0764552 -0.0350723 0)
(-0.0729046 -0.0536893 0)
(-0.0688223 -0.06887 0)
(-0.0642107 -0.0806405 0)
(-0.0590444 -0.0890398 0)
(-0.0532571 -0.0940193 0)
(-0.0467614 -0.0952455 0)
(-0.0394537 -0.0922255 0)
(-0.0313295 -0.0841747 0)
(-0.0226743 -0.0696474 0)
(-0.0140068 -0.0465516 0)
(-0.00898294 -0.0208867 0)
(-0.00910913 0.0582574 0)
(-0.0116698 0.0774857 0)
(-0.0195195 0.0957396 0)
(-0.0267641 0.110202 0)
(-0.0336569 0.122094 0)
(-0.0397687 0.12815 0)
(-0.0451666 0.126529 0)
(-0.0496593 0.115897 0)
(-0.0530753 0.0961419 0)
(-0.055452 0.070087 0)
(-0.0571464 0.0413939 0)
(-0.0583335 0.012888 0)
(-0.0590496 -0.0136218 0)
(-0.0592892 -0.0371624 0)
(-0.059026 -0.0573282 0)
(-0.0582282 -0.0740325 0)
(-0.0568686 -0.0873349 0)
(-0.0549112 -0.0973426 0)
(-0.0522823 -0.104124 0)
(-0.0488462 -0.107593 0)
(-0.044456 -0.107359 0)
(-0.0387765 -0.10224 0)
(-0.0316776 -0.0908995 0)
(-0.0221296 -0.0716445 0)
(-0.015032 -0.0517321 0)
(-0.00396472 0.0701325 0)
(-0.00467833 0.0893388 0)
(-0.00773941 0.107414 0)
(-0.010696 0.121291 0)
(-0.0136355 0.13226 0)
(-0.0163862 0.137483 0)
(-0.0191365 0.135262 0)
(-0.0219105 0.124141 0)
(-0.0247822 0.103896 0)
(-0.027798 0.0775171 0)
(-0.0309965 0.0483721 0)
(-0.0342377 0.0190751 0)
(-0.0373148 -0.00852296 0)
(-0.0400582 -0.033339 0)
(-0.0423522 -0.0548822 0)
(-0.0441407 -0.0730119 0)
(-0.0454169 -0.0877888 0)
(-0.0462001 -0.0993862 0)
(-0.0464818 -0.108017 0)
(-0.0461619 -0.113787 0)
(-0.0450237 -0.116506 0)
(-0.0424528 -0.116075 0)
(-0.0374877 -0.111234 0)
(-0.027443 -0.101427 0)
(-0.0173507 -0.0906736 0)
(0.000533207 0.0719614 0)
(0.00172354 0.0912872 0)
(0.00330079 0.109391 0)
(0.00446632 0.12339 0)
(0.00533061 0.134451 0)
(0.00587778 0.14028 0)
(0.0058014 0.139089 0)
(0.0048403 0.129496 0)
(0.00269688 0.110951 0)
(-0.000599098 0.0859835 0)
(-0.00473422 0.0576645 0)
(-0.00934459 0.0285287 0)
(-0.014085 0.000515702 0)
(-0.0186681 -0.0251438 0)
(-0.0228878 -0.0477811 0)
(-0.0266559 -0.0670952 0)
(-0.0299965 -0.0830601 0)
(-0.033022 -0.0958598 0)
(-0.0357679 -0.105897 0)
(-0.0380146 -0.113647 0)
(-0.0392903 -0.119607 0)
(-0.038896 -0.12433 0)
(-0.0356869 -0.127985 0)
(-0.0269549 -0.130505 0)
(-0.013979 -0.130857 0)
(0.00398043 0.0653577 0)
(0.00721243 0.0838673 0)
(0.0133199 0.102168 0)
(0.018251 0.117052 0)
(0.0225038 0.129099 0)
(0.0260671 0.136573 0)
(0.0285375 0.137777 0)
(0.0295125 0.131489 0)
(0.0285747 0.116604 0)
(0.0255744 0.0946952 0)
(0.0209974 0.0685025 0)
(0.0154327 0.0404823 0)
(0.00941409 0.0126797 0)
(0.00337342 -0.0134645 0)
(-0.00237837 -0.0370212 0)
(-0.00768265 -0.0574287 0)
(-0.012525 -0.0744913 0)
(-0.0169998 -0.0883783 0)
(-0.0210497 -0.0998582 0)
(-0.0242812 -0.109766 0)
(-0.0261557 -0.118947 0)
(-0.026308 -0.128201 0)
(-0.0244983 -0.138344 0)
(-0.0191096 -0.149966 0)
(-0.00628961 -0.158511 0)
(0.00671867 0.0506274 0)
(0.0115664 0.0673029 0)
(0.0213295 0.0864478 0)
(0.0296195 0.10317 0)
(0.0367986 0.117083 0)
(0.0429391 0.127053 0)
(0.0477252 0.131662 0)
(0.0506604 0.129411 0)
(0.0512639 0.119664 0)
(0.0491826 0.102415 0)
(0.0447481 0.0797223 0)
(0.0386714 0.0538766 0)
(0.031704 0.0270197 0)
(0.0244759 0.000833163 0)
(0.0174503 -0.0234561 0)
(0.0109215 -0.0449907 0)
(0.00503308 -0.0633637 0)
(-0.000123159 -0.0787199 0)
(-0.00444362 -0.0920617 0)
(-0.00775254 -0.104467 0)
(-0.00975598 -0.116665 0)
(-0.010291 -0.128979 0)
(-0.00981854 -0.142212 0)
(-0.0086545 -0.157916 0)
(-0.000407783 -0.170058 0)
(0.00820499 0.0312042 0)
(0.0140301 0.0453979 0)
(0.0262892 0.0645036 0)
(0.037466 0.0832013 0)
(0.0471767 0.0995752 0)
(0.0554697 0.112516 0)
(0.0621865 0.120908 0)
(0.0669903 0.123483 0)
(0.0691864 0.119419 0)
(0.068605 0.108143 0)
(0.0650323 0.0903343 0)
(0.0590388 0.0678832 0)
(0.0515029 0.0428596 0)
(0.0433368 0.0171731 0)
(0.0352392 -0.0076366 0)
(0.0276928 -0.0304013 0)
(0.020983 -0.0504696 0)
(0.0153226 -0.0678948 0)
(0.010786 -0.0833992 0)
(0.00725488 -0.0980287 0)
(0.00466534 -0.112509 0)
(0.00305636 -0.12696 0)
(0.00198879 -0.141458 0)
(-0.000205722 -0.158237 0)
(0.00205397 -0.172166 0)
(0.00873014 0.00910675 0)
(0.0147195 0.0201385 0)
(0.0282436 0.0380957 0)
(0.041607 0.0584368 0)
(0.0534592 0.0776585 0)
(0.0635165 0.0940526 0)
(0.0717467 0.106553 0)
(0.0779227 0.114051 0)
(0.0817344 0.115502 0)
(0.0826825 0.110668 0)
(0.0805373 0.0990398 0)
(0.0752161 0.0813512 0)
(0.0675951 0.0592861 0)
(0.0588168 0.0348297 0)
(0.0498457 0.00986157 0)
(0.0413897 -0.0140809 0)
(0.0338906 -0.0359784 0)
(0.0275542 -0.0556124 0)
(0.0224011 -0.0733463 0)
(0.0182342 -0.0899789 0)
(0.0147486 -0.106153 0)
(0.011736 -0.121822 0)
(0.00890518 -0.136591 0)
(0.00509101 -0.153189 0)
(0.00420261 -0.168408 0)
(0.00851534 -0.0132784 0)
(0.0138434 -0.00603028 0)
(0.0273344 0.00953075 0)
(0.0418335 0.0305445 0)
(0.0553226 0.0525309 0)
(0.066864 0.0726348 0)
(0.076313 0.0894194 0)
(0.0835818 0.101868 0)
(0.0884076 0.108864 0)
(0.0905016 0.109717 0)
(0.0896243 0.104947 0)
(0.0856082 0.0934264 0)
(0.0787671 0.0754362 0)
(0.0700354 0.0530529 0)
(0.0605472 0.0284555 0)
(0.0513044 0.00358417 0)
(0.0429939 -0.0200797 0)
(0.0358937 -0.0418378 0)
(0.0299861 -0.061673 0)
(0.0250594 -0.0799718 0)
(0.0206908 -0.0972379 0)
(0.0165058 -0.113482 0)
(0.0123786 -0.128351 0)
(0.00766987 -0.144461 0)
(0.00580535 -0.16026 0)
(0.00736448 -0.0332968 0)
(0.0115255 -0.0305035 0)
(0.0235945 -0.0185367 0)
(0.0377227 0.00158185 0)
(0.0519198 0.0254946 0)
(0.0645902 0.0492576 0)
(0.0750522 0.0705026 0)
(0.0831411 0.0879718 0)
(0.0887298 0.100695 0)
(0.0915777 0.10793 0)
(0.0916728 0.108589 0)
(0.0893519 0.102813 0)
(0.0840821 0.0899651 0)
(0.0763146 0.0708549 0)
(0.0670194 0.0475001 0)
(0.0573678 0.0222056 0)
(0.0483726 -0.00297765 0)
(0.0405725 -0.0266919 0)
(0.0340024 -0.0484735 0)
(0.0284316 -0.0682982 0)
(0.0234605 -0.086413 0)
(0.0186694 -0.102967 0)
(0.0138867 -0.117805 0)
(0.00868962 -0.133414 0)
(0.00646927 -0.148782 0)
(0.00524422 -0.0489134 0)
(0.00822447 -0.0513182 0)
(0.0177011 -0.0437846 0)
(0.0297837 -0.0262348 0)
(0.0433408 -0.0020891 0)
(0.0564834 0.0245038 0)
(0.0678091 0.050149 0)
(0.0767101 0.0727093 0)
(0.0830001 0.090822 0)
(0.0867704 0.103488 0)
(0.0879371 0.109737 0)
(0.0866861 0.109193 0)
(0.0830729 0.101869 0)
(0.0767999 0.0869583 0)
(0.0685513 0.0659942 0)
(0.059247 0.0410906 0)
(0.0500458 0.0147862 0)
(0.0418351 -0.0107638 0)
(0.0348743 -0.0343857 0)
(0.0289588 -0.0557027 0)
(0.0237414 -0.0747081 0)
(0.0188181 -0.091563 0)
(0.0139223 -0.106344 0)
(0.00864082 -0.121535 0)
(0.00644252 -0.136344 0)
(0.00290489 -0.0594444 0)
(0.00499464 -0.0670948 0)
(0.0118002 -0.0637765 0)
(0.0210597 -0.0502365 0)
(0.0325788 -0.0279535 0)
(0.044879 -0.000340058 0)
(0.0562783 0.0287971 0)
(0.0656372 0.0562445 0)
(0.0724678 0.0797196 0)
(0.0766897 0.0976607 0)
(0.0785267 0.109292 0)
(0.0780369 0.113678 0)
(0.0756398 0.110906 0)
(0.0710838 0.100507 0)
(0.064457 0.0825806 0)
(0.0564159 0.0589846 0)
(0.047868 0.0322271 0)
(0.0398501 0.00512607 0)
(0.0329423 -0.0202633 0)
(0.0271063 -0.0430807 0)
(0.0220144 -0.063065 0)
(0.0173197 -0.0803404 0)
(0.0127425 -0.095139 0)
(0.00784682 -0.110057 0)
(0.00579716 -0.124387 0)
(0.00206128 -0.0662702 0)
(0.00374978 -0.0783066 0)
(0.00819682 -0.0787856 0)
(0.0145923 -0.0689641 0)
(0.0230735 -0.0494539 0)
(0.0330208 -0.0225355 0)
(0.0431046 0.00845156 0)
(0.0519667 0.0397958 0)
(0.0587461 0.068253 0)
(0.0630929 0.0914803 0)
(0.0651533 0.107726 0)
(0.0652327 0.116373 0)
(0.0635305 0.117195 0)
(0.0603851 0.110658 0)
(0.0554834 0.0959394 0)
(0.0492212 0.0742808 0)
(0.0421304 0.0478731 0)
(0.0350685 0.0197628 0)
(0.0287957 -0.00718171 0)
(0.0234966 -0.0313876 0)
(0.0188909 -0.0523469 0)
(0.0147119 -0.0701523 0)
(0.0107753 -0.085079 0)
(0.00662894 -0.0998131 0)
(0.00473144 -0.113838 0)
(0.00315807 -0.0738971 0)
(0.0049156 -0.0863303 0)
(0.00705131 -0.0887816 0)
(0.0104573 -0.0814648 0)
(0.0156093 -0.0646451 0)
(0.0224493 -0.0394438 0)
(0.0301442 -0.00828942 0)
(0.0374826 0.0253409 0)
(0.043441 0.0575948 0)
(0.0474594 0.085233 0)
(0.0495183 0.105662 0)
(0.0498932 0.1179 0)
(0.0488174 0.121915 0)
(0.046633 0.117923 0)
(0.0432848 0.105798 0)
(0.0388657 0.0860483 0)
(0.0336434 0.0604873 0)
(0.0281377 0.0319827 0)
(0.0230364 0.00388231 0)
(0.0187014 -0.0214807 0)
(0.0149493 -0.0432775 0)
(0.0115411 -0.061659 0)
(0.00844297 -0.0768524 0)
(0.00527239 -0.0914683 0)
(0.00349935 -0.105294 0)
(0.00483391 -0.0846533 0)
(0.00747522 -0.0929922 0)
(0.00788759 -0.0947503 0)
(0.0082844 -0.0884724 0)
(0.0102473 -0.0736701 0)
(0.0138815 -0.0503714 0)
(0.0187367 -0.0200147 0)
(0.0238497 0.0144978 0)
(0.0282593 0.0491656 0)
(0.0313405 0.0800419 0)
(0.0329828 0.10362 0)
(0.0334085 0.11857 0)
(0.0328511 0.124844 0)
(0.0315313 0.122679 0)
(0.029519 0.112306 0)
(0.0268453 0.0940258 0)
(0.0235903 0.0693884 0)
(0.0199551 0.0409478 0)
(0.0164031 0.0121546 0)
(0.0133419 -0.014061 0)
(0.0107017 -0.0364294 0)
(0.00825288 -0.055229 0)
(0.00607539 -0.0707344 0)
(0.00398363 -0.0852315 0)
(0.00235131 -0.0988384 0)
(0.0049868 -0.0978598 0)
(0.00934117 -0.0994543 0)
(0.0094525 -0.0967276 0)
(0.00805103 -0.0901273 0)
(0.00740372 -0.0766052 0)
(0.00804948 -0.0551586 0)
(0.00984391 -0.0260779 0)
(0.0122295 0.00831607 0)
(0.0144012 0.0440968 0)
(0.0159017 0.0768528 0)
(0.0167125 0.102374 0)
(0.0169794 0.11887 0)
(0.0168156 0.12641 0)
(0.0163065 0.125217 0)
(0.0155239 0.115675 0)
(0.0144748 0.0982501 0)
(0.0131334 0.0743761 0)
(0.0115207 0.0462774 0)
(0.00978446 0.017269 0)
(0.00816809 -0.00937696 0)
(0.00671625 -0.0319672 0)
(0.00525375 -0.0509373 0)
(0.00387076 -0.0666539 0)
(0.00277245 -0.0811584 0)
(0.0014557 -0.0942211 0)
(0.00315058 -0.109877 0)
(0.00866922 -0.104661 0)
(0.00894663 -0.097057 0)
(0.007282 -0.0881427 0)
(0.00515708 -0.0748834 0)
(0.0036398 -0.054377 0)
(0.00274567 -0.0264297 0)
(0.0022851 0.00736621 0)
(0.00194973 0.0432677 0)
(0.00167727 0.0764294 0)
(0.00157893 0.102259 0)
(0.00164733 0.118965 0)
(0.00183834 0.126633 0)
(0.00214002 0.125533 0)
(0.00254574 0.116031 0)
(0.0030138 0.0988577 0)
(0.00346205 0.0753339 0)
(0.00381395 0.0476119 0)
(0.00396958 0.0189094 0)
(0.00391095 -0.00762585 0)
(0.00365852 -0.0300174 0)
(0.00308772 -0.0486695 0)
(0.00198756 -0.064285 0)
(0.00148339 -0.0791238 0)
(0.000744095 -0.0914768 0)
(0.000434832 -0.115887 0)
(0.00586019 -0.106122 0)
(0.00522684 -0.0953576 0)
(0.00363997 -0.0841791 0)
(0.00126099 -0.0701406 0)
(-0.00142452 -0.0496473 0)
(-0.00421338 -0.0220776 0)
(-0.00694286 0.0111306 0)
(-0.00933656 0.046256 0)
(-0.0110079 0.0783747 0)
(-0.0117826 0.103093 0)
(-0.0117965 0.11878 0)
(-0.011212 0.125504 0)
(-0.0101086 0.123652 0)
(-0.00857262 0.113541 0)
(-0.0067018 0.096051 0)
(-0.0046392 0.0725251 0)
(-0.00256997 0.0451129 0)
(-0.000718834 0.016969 0)
(0.000720489 -0.00883288 0)
(0.00164617 -0.0303337 0)
(0.00197045 -0.0481043 0)
(0.000636512 -0.0630994 0)
(9.16458e-05 -0.0791088 0)
(0.000182447 -0.0905215 0)
(-0.00206981 -0.116855 0)
(0.00193717 -0.104749 0)
(8.61677e-05 -0.0919076 0)
(-0.00164933 -0.0791279 0)
(-0.00416168 -0.063654 0)
(-0.00760431 -0.0423601 0)
(-0.0116802 -0.0146097 0)
(-0.015916 0.0180596 0)
(-0.0196134 0.0518238 0)
(-0.0220798 0.0818325 0)
(-0.0231318 0.104306 0)
(-0.0230045 0.117958 0)
(-0.0219575 0.122955 0)
(-0.0200889 0.119674 0)
(-0.0175543 0.108442 0)
(-0.0145087 0.0902335 0)
(-0.0111542 0.0664669 0)
(-0.00777451 0.0393615 0)
(-0.00471905 0.0120118 0)
(-0.00228199 -0.0126748 0)
(-0.000550498 -0.0328412 0)
(0.00042623 -0.0489225 0)
(-0.000148668 -0.062223 0)
(-0.00034648 -0.0801241 0)
(0.000112856 -0.0909081 0)
(-0.0040138 -0.113626 0)
(-0.00205308 -0.100578 0)
(-0.00461444 -0.0865973 0)
(-0.00691042 -0.0728879 0)
(-0.00987777 -0.0559162 0)
(-0.0140549 -0.0334 0)
(-0.0191155 -0.00518555 0)
(-0.0243171 0.0268423 0)
(-0.0286023 0.0586091 0)
(-0.0312216 0.0856709 0)
(-0.0321298 0.105185 0)
(-0.0316271 0.116204 0)
(-0.0300259 0.119037 0)
(-0.0274286 0.113894 0)
(-0.024036 0.101244 0)
(-0.0200415 0.0821465 0)
(-0.0157072 0.0581308 0)
(-0.0114111 0.0315099 0)
(-0.00759554 0.00525898 0)
(-0.00459534 -0.0180211 0)
(-0.00243819 -0.0367938 0)
(-0.00114309 -0.0512211 0)
(-0.000606325 -0.0632826 0)
(-0.000262249 -0.0813282 0)
(0.000116601 -0.0916522 0)
(-0.00512721 -0.107348 0)
(-0.00482696 -0.0939619 0)
(-0.00806284 -0.0796752 0)
(-0.0110466 -0.0653793 0)
(-0.0147766 -0.0469781 0)
(-0.0197922 -0.0232108 0)
(-0.0256609 0.00542006 0)
(-0.0313023 0.0363573 0)
(-0.0355324 0.0654323 0)
(-0.0378124 0.0890157 0)
(-0.0382696 0.105182 0)
(-0.0372947 0.113225 0)
(-0.0351039 0.113706 0)
(-0.0318781 0.10652 0)
(-0.0277732 0.0923328 0)
(-0.0230303 0.0723226 0)
(-0.0179678 0.0481688 0)
(-0.0130404 0.0222807 0)
(-0.00872845 -0.00254486 0)
(-0.00532906 -0.0240554 0)
(-0.00281252 -0.0410652 0)
(-0.00110973 -0.0536787 0)
(-0.000122126 -0.06414 0)
(-0.000175624 -0.0814491 0)
(1.31679e-05 -0.0916071 0)
(-0.0060196 -0.0988416 0)
(-0.00634483 -0.0855166 0)
(-0.0101908 -0.0712638 0)
(-0.0139459 -0.056353 0)
(-0.0186219 -0.0367435 0)
(-0.0244481 -0.011942 0)
(-0.0307277 0.0166015 0)
(-0.0361569 0.0456369 0)
(-0.0398094 0.0713555 0)
(-0.0415067 0.0911211 0)
(-0.041489 0.103777 0)
(-0.0401156 0.109116 0)
(-0.0374632 0.107131 0)
(-0.0337238 0.0978568 0)
(-0.02909 0.082129 0)
(-0.0238448 0.0612706 0)
(-0.0183595 0.0371283 0)
(-0.0131274 0.0121485 0)
(-0.00859662 -0.0111407 0)
(-0.00497201 -0.0308799 0)
(-0.00218423 -0.0461743 0)
(-0.000124018 -0.0570966 0)
(0.00119024 -0.0658975 0)
(0.000399596 -0.081223 0)
(8.27266e-05 -0.09191 0)
(-0.0064968 -0.0886363 0)
(-0.00712532 -0.075637 0)
(-0.0115008 -0.0615413 0)
(-0.0159786 -0.0459489 0)
(-0.0214846 -0.0254104 0)
(-0.0278226 -0.000136731 0)
(-0.0339087 0.0274133 0)
(-0.0385851 0.0537632 0)
(-0.0414077 0.0759435 0)
(-0.0425121 0.092223 0)
(-0.0421336 0.101799 0)
(-0.040402 0.104232 0)
(-0.0373729 0.0996652 0)
(-0.0333048 0.0883209 0)
(-0.0284051 0.0711605 0)
(-0.0229851 0.0496223 0)
(-0.0174481 0.0256806 0)
(-0.0122718 0.00171858 0)
(-0.00781607 -0.020066 0)
(-0.00418667 -0.0381738 0)
(-0.00131364 -0.0518979 0)
(0.000856916 -0.061181 0)
(0.00223173 -0.0678559 0)
(0.000993371 -0.0807677 0)
(0.000173309 -0.0924028 0)
(-0.00667798 -0.0775814 0)
(-0.00748787 -0.0649415 0)
(-0.0123199 -0.0508727 0)
(-0.0174047 -0.0347225 0)
(-0.0234103 -0.0135409 0)
(-0.0297375 0.0114227 0)
(-0.0351202 0.0370369 0)
(-0.0388646 0.0602819 0)
(-0.0409108 0.0791078 0)
(-0.041425 0.09242 0)
(-0.0405435 0.0989173 0)
(-0.0383937 0.0986138 0)
(-0.0352042 0.0917286 0)
(-0.0310849 0.0785634 0)
(-0.0262738 0.0602255 0)
(-0.0210945 0.0382679 0)
(-0.0159554 0.0147366 0)
(-0.011278 -0.00813662 0)
(-0.00732289 -0.0284879 0)
(-0.00412793 -0.0450939 0)
(-0.00163126 -0.0573131 0)
(0.000150105 -0.064946 0)
(0.00128032 -0.0692554 0)
(0.000771737 -0.0795555 0)
(0.000451858 -0.0922928 0)
(-0.00662594 -0.0661853 0)
(-0.00760873 -0.0538497 0)
(-0.0127409 -0.039619 0)
(-0.0182155 -0.0230781 0)
(-0.0242689 -0.00176422 0)
(-0.0300016 0.021984 0)
(-0.0343972 0.0450503 0)
(-0.037225 0.0651674 0)
(-0.0385364 0.0808643 0)
(-0.038435 0.090978 0)
(-0.0371353 0.0947528 0)
(-0.0348477 0.0925239 0)
(-0.03167 0.083821 0)
(-0.0277075 0.0692498 0)
(-0.0232341 0.0501122 0)
(-0.018574 0.0280742 0)
(-0.0141111 0.00519051 0)
(-0.010182 -0.0165138 0)
(-0.00694447 -0.0354779 0)
(-0.00438812 -0.0506945 0)
(-0.00246112 -0.0615854 0)
(-0.00119449 -0.0679555 0)
(-0.000396521 -0.0711962 0)
(-3.43876e-05 -0.0796451 0)
(0.000311183 -0.0923482 0)
(-0.00640026 -0.0548831 0)
(-0.00753998 -0.0427632 0)
(-0.0127576 -0.0283559 0)
(-0.0182632 -0.0116906 0)
(-0.0238538 0.00904832 0)
(-0.0286012 0.030871 0)
(-0.0319567 0.0512123 0)
(-0.0339385 0.0684073 0)
(-0.0346366 0.081226 0)
(-0.0341619 0.0887205 0)
(-0.032726 0.0906678 0)
(-0.0304118 0.0865806 0)
(-0.0273232 0.0763349 0)
(-0.0236248 0.0607235 0)
(-0.0196024 0.041152 0)
(-0.0155673 0.0193382 0)
(-0.011852 -0.00273603 0)
(-0.00868447 -0.0232836 0)
(-0.00610648 -0.0409888 0)
(-0.00406916 -0.0549635 0)
(-0.00255342 -0.0646543 0)
(-0.00161562 -0.0699128 0)
(-0.00100623 -0.0722642 0)
(-0.000478596 -0.0802552 0)
(0.000125914 -0.0924905 0)
(-0.00602795 -0.0440193 0)
(-0.00727311 -0.0320624 0)
(-0.0123567 -0.0175541 0)
(-0.0175382 -0.00115539 0)
(-0.0223317 0.0183002 0)
(-0.0260327 0.0378639 0)
(-0.02848 0.055646 0)
(-0.0297619 0.0703431 0)
(-0.0299752 0.0808979 0)
(-0.0292607 0.0863649 0)
(-0.0277037 0.086464 0)
(-0.0254081 0.0808007 0)
(-0.0224797 0.0693536 0)
(-0.0191276 0.0530797 0)
(-0.0156318 0.0334126 0)
(-0.0122795 0.0120565 0)
(-0.00932962 -0.00915226 0)
(-0.00687751 -0.0286779 0)
(-0.00487203 -0.0453784 0)
(-0.00326825 -0.0583781 0)
(-0.00207899 -0.0671277 0)
(-0.00143494 -0.0715482 0)
(-0.00100776 -0.0737746 0)
(-0.000525304 -0.0813747 0)
(0.000215216 -0.0933995 0)
(-0.0055208 -0.033867 0)
(-0.00681505 -0.0220445 0)
(-0.0115575 -0.00762714 0)
(-0.0161221 0.00807552 0)
(-0.0200124 0.0258059 0)
(-0.0228053 0.043109 0)
(-0.0245229 0.0585884 0)
(-0.0252445 0.0711018 0)
(-0.0250527 0.0796634 0)
(-0.0240902 0.0834669 0)
(-0.0224431 0.0821276 0)
(-0.0202096 0.0752717 0)
(-0.0175087 0.0630143 0)
(-0.0145688 0.0464371 0)
(-0.0116512 0.0269625 0)
(-0.00900184 0.00622532 0)
(-0.00676536 -0.0141438 0)
(-0.00492751 -0.032831 0)
(-0.00342359 -0.0487286 0)
(-0.00223515 -0.0609396 0)
(-0.00139614 -0.0689165 0)
(-0.00107084 -0.0725055 0)
(-0.000860171 -0.074629 0)
(-0.000438777 -0.0820315 0)
(0.000163433 -0.0939574 0)
(-0.00490059 -0.02467 0)
(-0.00619421 -0.0129554 0)
(-0.0104373 0.00111408 0)
(-0.0142163 0.0157735 0)
(-0.0172335 0.0316578 0)
(-0.0192739 0.0468854 0)
(-0.020398 0.060345 0)
(-0.0206695 0.0709841 0)
(-0.0201751 0.0778735 0)
(-0.0190452 0.0803145 0)
(-0.0173658 0.0778386 0)
(-0.0152426 0.0701232 0)
(-0.0128168 0.0574067 0)
(-0.0103215 0.0408326 0)
(-0.00799019 0.0217703 0)
(-0.00598447 0.00171543 0)
(-0.00433928 -0.0179206 0)
(-0.00300998 -0.0358996 0)
(-0.00194094 -0.0511334 0)
(-0.00113831 -0.0627066 0)
(-0.000703895 -0.0700938 0)
(-0.000787507 -0.0733633 0)
(-0.000817109 -0.0757298 0)
(-0.000417987 -0.08303 0)
(0.000329543 -0.0945476 0)
(-0.00421582 -0.0167013 0)
(-0.00546782 -0.00505366 0)
(-0.00911349 0.00841207 0)
(-0.0120679 0.0218442 0)
(-0.0143101 0.0359932 0)
(-0.0157251 0.0494045 0)
(-0.0163652 0.0611247 0)
(-0.0162847 0.0701802 0)
(-0.0155722 0.075706 0)
(-0.014345 0.0770532 0)
(-0.0126976 0.0737187 0)
(-0.0107447 0.0654389 0)
(-0.00863977 0.0525632 0)
(-0.00660925 0.0362366 0)
(-0.00482645 0.0177164 0)
(-0.00336048 -0.00168713 0)
(-0.00220744 -0.020665 0)
(-0.00131694 -0.0380526 0)
(-0.0006303 -0.0527506 0)
(-0.000189145 -0.0637395 0)
(-0.000128029 -0.0703691 0)
(-0.00056507 -0.0733311 0)
(-0.000779711 -0.0763085 0)
(-0.000430847 -0.0840639 0)
(0.00048448 -0.0953952 0)
(-0.0034739 -0.0101559 0)
(-0.00457486 0.00148245 0)
(-0.0075009 0.0141548 0)
(-0.00969923 0.026356 0)
(-0.0113086 0.0389962 0)
(-0.0122293 0.0508725 0)
(-0.0125032 0.0611296 0)
(-0.0121794 0.068863 0)
(-0.0113458 0.0732714 0)
(-0.0101075 0.0737746 0)
(-0.00856519 0.0698733 0)
(-0.00684217 0.0613117 0)
(-0.00510007 0.0485285 0)
(-0.00353119 0.032618 0)
(-0.00224037 0.0146709 0)
(-0.00125259 -0.00410128 0)
(-0.000546576 -0.0224899 0)
(-6.23421e-05 -0.0393684 0)
(0.000220837 -0.0535637 0)
(0.000260943 -0.0640264 0)
(-4.39197e-05 -0.0702982 0)
(-0.000592377 -0.0730597 0)
(-0.000761932 -0.0770413 0)
(-0.000459191 -0.084875 0)
(0.000434164 -0.0960792 0)
(-0.00269345 -0.00497723 0)
(-0.00345511 0.00660629 0)
(-0.00550998 0.0184897 0)
(-0.00709639 0.0296199 0)
(-0.00822907 0.0410034 0)
(-0.00879855 0.0516029 0)
(-0.00883318 0.0606522 0)
(-0.00837725 0.0673215 0)
(-0.0075171 0.0708802 0)
(-0.00634374 0.0707568 0)
(-0.00497134 0.0664839 0)
(-0.00352336 0.0578559 0)
(-0.00216272 0.0453461 0)
(-0.00103229 0.0299385 0)
(-0.000193671 0.0125993 0)
(0.00034433 -0.00556496 0)
(0.000634342 -0.0234079 0)
(0.000731735 -0.0397776 0)
(0.00062037 -0.0534955 0)
(0.000263069 -0.0635398 0)
(-0.000360216 -0.0697721 0)
(-0.000861888 -0.0730068 0)
(-0.000868508 -0.0774426 0)
(-0.000575138 -0.085663 0)
(0.000525021 -0.0967124 0)
(-0.00190447 -0.0010853 0)
(-0.0023347 0.0102332 0)
(-0.00361648 0.0215808 0)
(-0.00468442 0.0319205 0)
(-0.00540232 0.0422933 0)
(-0.00567972 0.0518419 0)
(-0.0055296 0.0598958 0)
(-0.00498795 0.0656989 0)
(-0.00413157 0.0685917 0)
(-0.00305062 0.0680293 0)
(-0.00186057 0.0635917 0)
(-0.000695137 0.055089 0)
(0.000304519 0.0429896 0)
(0.00103951 0.0281495 0)
(0.00146864 0.0114425 0)
(0.00160167 -0.00613033 0)
(0.00150921 -0.0234736 0)
(0.00124143 -0.0394013 0)
(0.000745097 -0.0527452 0)
(-1.27483e-05 -0.0626302 0)
(-0.000805214 -0.0689228 0)
(-0.00118177 -0.0729207 0)
(-0.00106129 -0.0779796 0)
(-0.000732171 -0.0865019 0)
(0.000663736 -0.0975344 0)
(-0.00120699 0.00152657 0)
(-0.0014344 0.0125877 0)
(-0.00217775 0.0235519 0)
(-0.0027723 0.0332859 0)
(-0.00308011 0.0428834 0)
(-0.00305726 0.0516115 0)
(-0.00271242 0.058885 0)
(-0.00207479 0.0640234 0)
(-0.00121024 0.0664369 0)
(-0.000207049 0.0656153 0)
(0.000823154 0.061185 0)
(0.00174594 0.0529661 0)
(0.00244361 0.0413644 0)
(0.00285431 0.0271459 0)
(0.00294412 0.0110892 0)
(0.00273163 -0.00589823 0)