/*--------------------------------*- C++ -*----------------------------------*\
| =========                 |                                                 |
| \\      /  F ield         | OpenFOAM: The Open Source CFD Toolbox           |
|  \\    /   O peration     | Version:  2.3.0                                 |
|   \\  /    A nd           | Web:      www.OpenFOAM.org                      |
|    \\/     M anipulation  |                                                 |
\*---------------------------------------------------------------------------*/
FoamFile
{
    version     2.0;
    format      ascii;
    class       surfaceScalarField;
    location    "0.21";
    object      phi.air;
}
// * * * * * * * * * * * * * * * * * * * * * * * * * * * * * * * * * * * * * //

dimensions      [0 3 -1 0 0 0 0];

internalField   nonuniform List<scalar> 
11770
(
-2.95151e-06
9.41785e-05
4.23799e-06
8.49347e-05
8.81684e-06
8.69106e-05
1.14064e-05
8.96777e-05
1.10948e-05
9.27982e-05
8.62389e-06
9.48302e-05
4.77256e-06
9.59587e-05
1.31877e-06
9.49608e-05
-8.95162e-07
9.31847e-05
-1.95237e-06
9.17312e-05
-2.2594e-06
9.0849e-05
-2.08431e-06
9.03407e-05
-1.62565e-06
9.00943e-05
-8.50364e-07
8.98574e-05
-6.12031e-08
8.9847e-05
7.25613e-07
8.98531e-05
1.50707e-06
8.98588e-05
1.96677e-06
9.00981e-05
2.11952e-06
9.03654e-05
1.81256e-06
9.08496e-05
7.41838e-07
9.17411e-05
-1.46712e-06
9.31794e-05
-4.96086e-06
9.49834e-05
-8.7958e-06
9.59362e-05
-1.13136e-05
9.48684e-05
-1.16104e-05
9.27863e-05
-9.01956e-06
8.968e-05
-4.42038e-06
8.68915e-05
2.83316e-06
8.4878e-05
9.40862e-05
2.23118e-06
8.24101e-05
7.10614e-06
7.16284e-05
1.3529e-05
7.14516e-05
1.66232e-05
7.56141e-05
1.44003e-05
8.18279e-05
7.72245e-06
8.73833e-05
1.64367e-06
8.8597e-05
-2.29963e-06
8.62116e-05
-4.09203e-06
8.28326e-05
-4.36133e-06
8.01642e-05
-3.77645e-06
7.86044e-05
-2.86727e-06
7.78475e-05
-1.91621e-06
7.75454e-05
-1.01192e-06
7.72997e-05
-6.40146e-08
7.72458e-05
8.91605e-07
7.72494e-05
1.78142e-06
7.73129e-05
2.71386e-06
7.75674e-05
3.61839e-06
7.7881e-05
4.17155e-06
7.86359e-05
3.90844e-06
8.01762e-05
2.07169e-06
8.28737e-05
-1.83142e-06
8.62135e-05
-7.95614e-06
8.86232e-05
-1.47055e-05
8.74982e-05
-1.69032e-05
8.18155e-05
-1.38376e-05
7.56566e-05
-7.39953e-06
7.14166e-05
-2.40943e-06
7.1468e-05
8.21457e-05
6.53259e-07
8.99068e-05
5.87782e-06
7.87675e-05
9.35161e-06
8.08091e-05
1.149e-05
8.61388e-05
1.11498e-05
9.3321e-05
6.73999e-06
0.000100725
3.8164e-07
0.000101699
-3.67043e-06
9.61983e-05
-4.96733e-06
8.9825e-05
-4.66381e-06
8.52059e-05
-3.64447e-06
8.25208e-05
-2.66214e-06
8.13337e-05
-1.75295e-06
8.07686e-05
-9.1412e-07
8.03765e-05
-5.22648e-08
8.01946e-05
8.05229e-07
8.02021e-05
1.6298e-06
8.04139e-05
2.52515e-06
8.08117e-05
3.49524e-06
8.13877e-05
4.48585e-06
8.25889e-05
4.81586e-06
8.52103e-05
3.4515e-06
8.99333e-05
-5.16058e-07
9.61332e-05
-6.88615e-06
0.000101745
-1.14156e-05
0.000100907
-1.1698e-05
9.32811e-05
-9.75364e-06
8.63495e-05
-6.20571e-06
8.07789e-05
-9.08946e-07
7.85556e-05
8.94762e-05
7.65643e-06
9.45141e-05
1.03161e-05
8.69461e-05
1.06812e-05
9.17307e-05
8.86787e-06
9.86606e-05
7.15922e-06
0.000106145
3.14621e-06
0.000114484
-2.45512e-06
0.000114843
-6.10819e-06
0.000105782
-7.34943e-06
9.60044e-05
-6.73648e-06
8.87459e-05
-5.2653e-06
8.47702e-05
-3.7863e-06
8.32548e-05
-2.42308e-06
8.26474e-05
-1.20471e-06
8.23135e-05
-4.55196e-08
8.21577e-05
1.10629e-06
8.21693e-05
2.30297e-06
8.23639e-05
3.64473e-06
8.26982e-05
5.15047e-06
8.32828e-05
6.56253e-06
8.48722e-05
7.25001e-06
8.86858e-05
5.83684e-06
9.62002e-05
2.45533e-06
0.000105514
-3.40278e-06
0.000115054
-7.19497e-06
0.000114574
-9.25563e-06
0.000106461
-1.11727e-05
9.91323e-05
-1.0921e-05
9.19184e-05
-8.07047e-06
8.66531e-05
9.37784e-05
1.26319e-05
9.24656e-05
1.54671e-05
9.18358e-05
1.4158e-05
9.98229e-05
1.1056e-05
0.000108855
6.11173e-06
0.000120037
-2.50082e-06
0.000133769
-1.04749e-05
0.000134373
-1.20527e-05
0.000118698
-1.27167e-05
0.00010509
-1.02526e-05
9.32131e-05
-7.83475e-06
8.83847e-05
-5.33813e-06
8.63805e-05
-3.44702e-06
8.59538e-05
-1.57131e-06
8.5513e-05
-1.20595e-07
8.55958e-05
1.57988e-06
8.54366e-05
3.15247e-06
8.57678e-05
5.33823e-06
8.57959e-05
7.55015e-06
8.65958e-05
1.02654e-05
8.82677e-05
1.23749e-05
9.3396e-05
1.20712e-05
0.000105059
1.02945e-05
0.000118567
2.3233e-06
0.000134513
-5.95324e-06
0.000133471
-1.13692e-05
0.000120493
-1.47354e-05
0.000109145
-1.63709e-05
9.98932e-05
-1.32008e-05
9.10392e-05
9.11192e-05
1.44056e-05
6.72867e-05
2.14852e-05
6.99296e-05
2.3091e-05
8.07562e-05
1.97288e-05
9.38183e-05
1.22247e-05
0.000109172
1.89134e-06
0.000128051
-1.0453e-05
0.000135735
-1.82846e-05
0.000125248
-1.93694e-05
0.000113591
-1.30647e-05
9.92055e-05
-9.31601e-06
9.53169e-05
-6.62346e-06
9.33337e-05
-4.08953e-06
9.26764e-05
-2.1444e-06
9.24204e-05
-1.49506e-08
9.23272e-05
1.77424e-06
9.23755e-05
4.05734e-06
9.24786e-05
6.30223e-06
9.26909e-05
9.29018e-06
9.33934e-05
1.28945e-05
9.52579e-05
1.90677e-05
9.9486e-05
1.81001e-05
0.000113337
9.56382e-06
0.00012533
-2.01755e-06
0.000135195
-1.28801e-05
0.000127893
-1.99722e-05
0.000109064
-2.3849e-05
9.41939e-05
-2.21822e-05
8.05334e-05
-1.48301e-05
6.87773e-05
6.55765e-05
2.41581e-05
3.11881e-05
4.2815e-05
3.77702e-05
4.76888e-05
5.97167e-05
3.97465e-05
8.3363e-05
3.05959e-05
0.000100151
2.26978e-05
0.000117603
1.78946e-05
0.000122279
7.7216e-06
0.0001159
-3.06647e-06
0.000108486
-1.18499e-05
0.000101122
-9.54914e-06
9.64344e-05
-6.82137e-06
9.7528e-05
-4.42827e-06
9.88779e-05
-2.26892e-06
9.99171e-05
-1.25061e-07
0.000100266
1.92881e-06
0.000100416
4.18695e-06
9.98027e-05
6.51572e-06
9.89656e-05
9.28039e-06
9.74313e-05
1.13305e-05
9.64419e-05
2.64595e-06
0.000101196
-9.05573e-06
0.000108864
-1.81907e-05
0.000115379
-2.49999e-05
0.000123352
-3.13941e-05
0.000116576
-4.13881e-05
0.000100863
-4.8937e-05
8.37044e-05
-4.40742e-05
5.97326e-05
-2.48424e-05
3.63755e-05
2.91623e-05
2.2066e-05
9.94231e-06
4.53788e-05
1.44932e-05
5.74565e-05
4.60102e-05
5.2507e-05
8.49251e-05
4.53715e-05
0.000104337
4.70963e-05
0.000114001
4.97212e-05
0.00011549
4.38077e-05
0.000112888
2.87628e-05
0.00010921
1.41947e-05
9.80756e-05
5.90131e-06
8.84375e-05
2.53751e-06
8.68206e-05
7.21975e-07
8.81488e-05
2.98173e-07
8.91338e-05
-4.17816e-07
9.00715e-05
-6.19511e-07
8.99084e-05
-1.62181e-06
8.93523e-05
-2.9627e-06
8.79323e-05
-7.03491e-06
8.7161e-05
-1.51297e-05
8.84296e-05
-3.07684e-05
9.91213e-05
-4.48956e-05
0.00010908
-5.18104e-05
0.000113328
-4.78721e-05
0.000115672
-4.70482e-05
0.000113507
-5.32573e-05
0.000104519
-5.78479e-05
8.49432e-05
-4.57269e-05
4.60268e-05
-2.20191e-05
1.28138e-05
8.11888e-06
1.41884e-05
-2.38326e-06
3.25223e-05
-1.88585e-06
4.94206e-05
3.01063e-05
5.80136e-05
7.66033e-05
5.00985e-05
0.000110292
4.78487e-05
0.000114298
4.78819e-05
0.00011398
4.81983e-05
0.00011178
4.90122e-05
0.000107147
4.28906e-05
9.90275e-05
3.00692e-05
9.10275e-05
1.86171e-05
8.51717e-05
1.07677e-05
8.13319e-05
4.32613e-06
7.97081e-05
-7.02118e-07
7.8933e-05
-6.25259e-06
7.9132e-05
-1.22409e-05
7.96709e-05
-2.08277e-05
8.17233e-05
-3.17363e-05
8.52311e-05
-4.52708e-05
9.16323e-05
-5.03889e-05
9.92746e-05
-5.00706e-05
0.000107408
-4.94374e-05
0.000111954
-4.91964e-05
0.000113936
-5.17843e-05
0.000114169
-5.82334e-05
0.000109125
-4.95393e-05
7.65263e-05
-3.21615e-05
2.95229e-05
-1.36132e-05
-3.87483e-06
-3.80345e-06
8.96612e-06
-1.02669e-05
2.09699e-05
-1.30312e-05
3.29224e-05
1.77058e-05
5.0152e-05
6.03786e-05
4.57276e-05
0.000112189
4.23934e-05
0.000115634
4.07324e-05
0.000114114
4.02464e-05
0.000111522
3.95455e-05
0.000107652
3.62715e-05
0.000102394
3.05265e-05
9.66955e-05
2.31648e-05
9.14341e-05
1.49028e-05
8.73993e-05
6.87361e-06
8.49353e-05
-1.12258e-06
8.37646e-05
-8.95013e-06
8.38583e-05
-1.71381e-05
8.50112e-05
-2.51523e-05
8.76263e-05
-3.27425e-05
9.16572e-05
-3.81034e-05
9.70189e-05
-4.1454e-05
0.000102643
-4.20876e-05
0.000107779
-4.25025e-05
0.000111678
-4.42826e-05
0.000114102
-4.69697e-05
0.000114916
-5.13508e-05
0.000110999
-3.30461e-05
5.93131e-05
-2.01654e-05
1.62363e-05
-7.91768e-06
-1.53793e-05
-1.08698e-05
5.91085e-06
-1.58655e-05
1.31332e-05
-2.02012e-05
2.05995e-05
8.92133e-06
3.54572e-05
4.52977e-05
3.70213e-05
0.000108634
3.47047e-05
0.000116126
3.26461e-05
0.000114702
3.15517e-05
0.000111992
3.01741e-05
0.000108743
2.77355e-05
0.000104819
2.38258e-05
0.000100549
1.85e-05
9.65943e-05
1.22421e-05
9.33673e-05
5.66307e-06
9.11693e-05
-1.06872e-06
9.0106e-05
-7.72335e-06
9.01331e-05
-1.43446e-05
9.12727e-05
-2.05207e-05
9.35274e-05
-2.58217e-05
9.67686e-05
-2.96703e-05
0.000100811
-3.21602e-05
0.000105059
-3.36194e-05
0.000108963
-3.48922e-05
0.000112235
-3.7012e-05
0.000114822
-4.00696e-05
0.000116203
-3.71833e-05
0.000106335
-2.09624e-05
4.30626e-05
-1.2003e-05
6.27799e-06
-4.45701e-06
-2.29984e-05
-1.5295e-05
3.56733e-06
-1.92972e-05
6.83356e-06
-2.38941e-05
1.2518e-05
2.19268e-06
2.05483e-05
3.60185e-05
2.79078e-05
0.000100446
2.64673e-05
0.000115766
2.53233e-05
0.000114567
2.42617e-05
0.000112343
2.30045e-05
0.000109684
2.09649e-05
0.000106648
1.79086e-05
0.000103406
1.39009e-05
0.000100297
9.24243e-06
9.76676e-05
4.18879e-06
9.5791e-05
-9.89825e-07
9.4848e-05
-6.19023e-06
9.48779e-05
-1.11946e-05
9.58677e-05
-1.58581e-05
9.78089e-05
-1.98479e-05
0.000100474
-2.29143e-05
0.000103646
-2.50086e-05
0.000106944
-2.64723e-05
0.000110041
-2.76932e-05
0.000112771
-2.94515e-05
0.000115226
-3.10324e-05
0.000116086
-2.26999e-05
9.74927e-05
-1.30732e-05
3.24902e-05
-5.92518e-06
-1.45908e-06
-2.12994e-06
-2.7362e-05
-1.7697e-05
1.5582e-06
-2.07543e-05
2.43055e-06
-2.51287e-05
6.76865e-06
-2.82707e-06
1.05147e-05
3.05552e-05
1.86001e-05
9.15721e-05
1.93872e-05
0.000113343
1.9018e-05
0.000113667
1.85058e-05
0.000112136
1.74447e-05
0.000110265
1.58049e-05
0.000107945
1.33676e-05
0.000105478
1.03153e-05
0.000102953
6.75353e-06
0.000100749
2.98119e-06
9.9072e-05
-9.61552e-07
9.82528e-05
-4.85059e-06
9.82553e-05
-8.65919e-06
9.91574e-05
-1.21474e-05
0.000100846
-1.52341e-05
0.000103135
-1.76384e-05
0.000105708
-1.93982e-05
0.00010831
-2.05359e-05
0.000110709
-2.14441e-05
0.000112887
-2.20164e-05
0.000114573
-2.22779e-05
0.000114581
-1.25364e-05
8.71938e-05
-7.52517e-06
2.60393e-05
-2.27197e-06
-7.00431e-06
-6.29503e-07
-2.94917e-05
-1.89075e-05
-3.85613e-07
-2.02596e-05
-8.73638e-07
-2.48606e-05
1.94837e-06
-6.4177e-06
4.59073e-06
2.62045e-05
1.24486e-05
8.27333e-05
1.40115e-05
0.000110161
1.44791e-05
0.000112013
1.41013e-05
0.000111651
1.32526e-05
0.000110519
1.17734e-05
0.000108902
9.8183e-06
0.000106956
7.37234e-06
0.000104859
4.7374e-06
0.000102842
1.90176e-06
0.000101307
-8.91452e-07
0.000100466
-3.75989e-06
0.000100512
-6.49336e-06
0.000101325
-9.17624e-06
0.000102954
-1.15218e-05
0.000104975
-1.35245e-05
0.000107198
-1.49255e-05
0.000109218
-1.59508e-05
0.000111083
-1.63356e-05
0.000112438
-1.64362e-05
0.000113379
-1.5141e-05
0.00011161
-5.7731e-06
7.71214e-05
-2.98292e-06
2.16935e-05
2.3697e-07
-1.06913e-05
4.96513e-07
-3.00928e-05
-1.9231e-05
-2.43289e-06
-1.78283e-05
-4.39609e-06
-2.3334e-05
-1.91067e-06
-9.36399e-06
1.48758e-06
2.14621e-05
9.47222e-06
7.39279e-05
1.13341e-05
0.000106768
1.15291e-05
0.000110518
1.11489e-05
0.000111104
1.00982e-05
0.000110793
8.69995e-06
0.000109661
6.88178e-06
0.000108132
4.95872e-06
0.000106174
2.90197e-06
0.000104241
1.00221e-06
0.000102576
-9.08695e-07
0.000101704
-2.70757e-06
0.000101673
-4.67694e-06
0.000102624
-6.59145e-06
0.000104248
-8.54087e-06
0.000106279
-1.01893e-05
0.000108242
-1.15698e-05
0.000109925
-1.24341e-05
0.000111205
-1.28781e-05
0.00011188
-1.24448e-05
0.000111663
-1.10865e-05
0.000108454
-1.47293e-06
6.69962e-05
7.18421e-07
1.80835e-05
2.64047e-06
-1.29259e-05
1.45071e-06
-2.89438e-05
-1.87005e-05
-4.5585e-06
-1.36573e-05
-7.84698e-06
-2.09467e-05
-4.80198e-06
-1.21539e-05
2.26711e-07
1.56793e-05
9.10131e-06
6.44443e-05
1.02776e-05
0.000103894
1.0238e-05
0.000109238
9.22831e-06
0.000111008
7.90458e-06
0.000111245
6.19229e-06
0.000110563
4.46293e-06
0.000109143
2.66522e-06
0.000107232
1.20648e-06
0.00010501
-1.34883e-08
0.000103069
-8.27619e-07
0.000101831
-1.73284e-06
0.000101851
-2.82438e-06
0.00010303
-4.33269e-06
0.000105025
-5.92236e-06
0.00010717
-7.61349e-06
0.000109172
-9.00014e-06
0.000110545
-1.01626e-05
0.000111446
-1.06655e-05
0.000111317
-1.04615e-05
0.000110019
-8.26455e-06
0.000104448
1.14271e-06
5.72423e-05
3.44143e-06
1.4693e-05
4.1131e-06
-1.34396e-05
1.90415e-06
-2.62494e-05
-1.75935e-05
-6.02743e-06
-8.95646e-06
-1.06785e-05
-1.82195e-05
-7.22794e-06
-1.46177e-05
-5.53231e-07
8.87076e-06
9.0208e-06
5.43808e-05
1.11439e-05
0.00010012
9.96428e-06
0.000108942
8.29917e-06
0.000111486
6.23704e-06
0.000112258
4.19344e-06
0.00011171
2.10899e-06
0.000110358
3.99449e-07
0.000108162
-8.90983e-07
0.000105509
-1.25373e-06
0.000102735
-8.92046e-07
0.000100874
-4.56353e-07
0.000100848
-8.37274e-07
0.000102681
-1.92718e-06
0.000105365
-3.63021e-06
0.000108049
-5.39496e-06
0.000110112
-7.25351e-06
0.00011146
-8.74852e-06
0.00011194
-1.00049e-05
0.000111331
-1.00826e-05
0.000108627
-5.38803e-06
9.82602e-05
3.28227e-06
4.80628e-05
6.04836e-06
1.13315e-05
5.3071e-06
-1.26438e-05
3.1016e-06
-2.39412e-05
-1.53878e-05
-5.55418e-06
-5.20964e-06
-1.13826e-05
-1.62812e-05
-9.00864e-06
-1.53163e-05
-1.59353e-06
2.42694e-06
7.47213e-06
4.48734e-05
1.31677e-05
9.37185e-05
1.06761e-05
0.000109944
7.70482e-06
0.000113107
5.01975e-06
0.000113828
2.25867e-06
0.000113417
-1.75727e-07
0.000111877
-2.37821e-06
0.000109472
-3.21191e-06
0.000105732
-2.42604e-06
0.000101754
-8.77613e-07
9.93786e-05
6.76169e-07
9.9338e-05
1.50453e-06
0.000101662
6.63425e-07
0.000105558
-1.25914e-06
0.000109119
-3.60514e-06
0.00011149
-5.88667e-06
0.000112732
-8.22111e-06
0.000113103
-1.01179e-05
0.000111928
-1.16113e-05
0.000108456
-1.72216e-06
8.82991e-05
5.05196e-06
4.06463e-05
7.90366e-06
8.07731e-06
6.95284e-06
-1.16904e-05
5.12571e-06
-2.26927e-05
-1.18212e-05
-3.42629e-06
-2.94185e-06
-8.73036e-06
-1.51885e-05
-9.15868e-06
-1.45955e-05
-3.54723e-06
-6.43669e-07
3.6169e-06
3.76272e-05
1.34726e-05
8.42807e-05
1.0685e-05
0.000110973
7.24888e-06
0.000115144
3.74314e-06
0.000116062
5.07233e-07
0.000115559
-2.61509e-06
0.000113953
-4.46173e-06
0.000110639
-4.06783e-06
0.000105348
-2.49377e-06
0.000100679
-8.6352e-07
9.83617e-05
7.65286e-07
9.83227e-05
2.32561e-06
0.000100599
2.75489e-06
0.000105142
9.15898e-07
0.00011024
-1.86934e-06
0.000113276
-4.96597e-06
0.000114673
-7.83543e-06
0.000114752
-1.06961e-05
0.00011331
-1.13511e-05
0.000107377
1.22945e-06
7.65037e-05
5.95795e-06
3.53218e-05
7.99158e-06
5.81267e-06
8.27868e-06
-1.11435e-05
5.2911e-06
-2.05652e-05
-7.96125e-06
-1.61734e-06
-6.75908e-07
-5.82518e-06
-1.28102e-05
-8.11179e-06
-1.2757e-05
-6.91035e-06
2.13852e-08
-1.48187e-06
3.26258e-05
8.62174e-06
7.45833e-05
1.03377e-05
0.000108376
6.38463e-06
0.000117571
2.64525e-06
0.000118513
-1.1915e-06
0.00011818
-3.72568e-06
0.000115727
-3.83067e-06
0.000110769
-2.57354e-06
0.000104657
-1.58636e-06
0.000100293
-8.26854e-07
9.81859e-05
-1.12981e-07
9.81884e-05
8.38184e-07
0.000100255
2.01336e-06
0.000104536
1.90715e-06
0.000110384
-6.02678e-07
0.000115003
-4.13496e-06
0.000117022
-7.77055e-06
0.000117034
-1.10074e-05
0.000115047
-6.95201e-06
0.000102626
3.72897e-06
6.63208e-05
6.2377e-06
3.23922e-05
7.43194e-06
5.2135e-06
8.29859e-06
-9.6937e-06
3.47387e-06
-1.66728e-05
-4.5582e-06
-6.29072e-07
2.03631e-06
-3.82691e-06
-9.85864e-06
-7.0837e-06
-9.39554e-06
-9.87022e-06
3.97312e-06
-7.26881e-06
3.06882e-05
-3.04637e-08
6.76897e-05
6.74394e-06
0.000102252
5.05635e-06
0.000118507
1.55011e-06
0.000121078
-1.24258e-06
0.000120388
-1.94772e-06
0.000116541
-9.48631e-07
0.000110432
-4.89047e-07
0.000104746
-5.76669e-07
0.000100789
-7.93251e-07
9.87781e-05
-1.05731e-06
9.88255e-05
-1.21686e-06
0.000100827
-8.83145e-07
0.00010476
-1.02646e-07
0.000110279
-8.5161e-07
0.00011592
-3.63834e-06
0.000119273
-6.89554e-06
0.000119483
-8.07341e-06
0.000115499
5.95334e-07
9.49562e-05
6.51037e-06
6.07361e-05
7.23612e-06
3.17285e-05
7.37875e-06
7.26522e-06
6.41011e-06
-7.07754e-06
1.88464e-06
-1.26194e-05
-1.1013e-06
-7.59538e-07
5.20221e-06
-3.00016e-06
-6.37626e-06
-7.01039e-06
-4.66377e-06
-1.19142e-05
9.77372e-06
-1.26268e-05
3.21236e-05
-8.08377e-06
6.38265e-05
-8.46506e-07
9.63208e-05
1.66739e-06
0.000116802
9.18041e-07
0.000122246
5.86582e-07
0.0001214
1.2843e-06
0.000116788
1.5375e-06
0.000110889
9.61112e-07
0.000105745
1.29511e-07
0.000101948
-7.32895e-07
9.99496e-05
-1.63438e-06
0.000100037
-2.54343e-06
0.00010207
-3.2325e-06
0.000105886
-3.13217e-06
0.000110916
-2.67256e-06
0.000116446
-3.07239e-06
0.000120486
-3.79636e-06
0.000120751
-3.06636e-07
0.000112998
7.70874e-06
8.85411e-05
1.03183e-05
5.86538e-05
1.03209e-05
3.25182e-05
7.81544e-06
1.15982e-05
4.7857e-06
-3.4245e-06
1.41364e-06
-8.86764e-06
2.53547e-06
-1.58958e-06
1.06785e-05
-3.18511e-06
-1.79462e-06
-8.25809e-06
1.6962e-06
-1.43703e-05
1.6658e-05
-1.7421e-05
3.59089e-05
-1.43972e-05
6.1828e-05
-7.98551e-06
9.12575e-05
-2.80443e-06
0.000113281
-1.15101e-08
0.000120987
1.8837e-06
0.000120896
2.8067e-06
0.0001169
2.50463e-06
0.000111822
1.6323e-06
0.00010707
5.43126e-07
0.000103423
-6.34658e-07
0.000101488
-1.8417e-06
0.000101608
-2.99057e-06
0.000103614
-3.92909e-06
0.0001073
-4.31835e-06
0.000111974
-3.58847e-06
0.000116788
-1.93117e-06
0.000120251
1.01975e-06
0.000119389
7.17084e-06
0.000108743
1.31594e-05
8.40308e-05
1.46372e-05
5.80153e-05
1.33753e-05
3.49233e-05
7.9547e-06
1.75782e-05
4.05617e-06
1.16595e-06
1.48177e-06
-4.71615e-06
6.74377e-06
-4.44227e-06
1.91764e-05
-5.01106e-06
4.25211e-06
-1.08143e-05
8.97229e-06
-1.72462e-05
2.39064e-05
-2.14851e-05
4.09694e-05
-1.96596e-05
6.13214e-05
-1.32527e-05
8.63841e-05
-6.88842e-06
0.000108489
-2.04141e-06
0.000117755
1.01669e-06
0.000119157
2.29666e-06
0.000116558
2.37478e-06
0.000112445
1.79184e-06
0.000108234
7.63116e-07
0.000104948
-4.99754e-07
0.000103204
-1.77744e-06
0.000103342
-2.82834e-06
0.000105173
-3.42728e-06
0.000108512
-3.40446e-06
0.000112693
-2.27198e-06
0.000116633
5.94845e-07
0.00011872
5.58135e-06
0.00011608
1.26158e-05
0.000103573
1.75532e-05
8.05835e-05
1.84793e-05
5.82517e-05
1.55437e-05
3.88106e-05
9.17602e-06
2.41687e-05
4.37672e-06
6.80395e-06
2.14299e-06
2.61828e-07
1.29725e-05
-5.24039e-06
2.84178e-05
-1.02726e-05
1.12564e-05
-1.49721e-05
1.4178e-05
-2.07295e-05
2.96341e-05
-2.49555e-05
4.59524e-05
-2.43085e-05
6.21521e-05
-1.7637e-05
8.16283e-05
-1.04207e-05
0.000102791
-4.92839e-06
0.000113667
-1.10273e-06
0.000116563
9.46671e-07
0.000115517
1.76473e-06
0.000112491
1.63029e-06
0.000109095
8.18967e-07
0.000106372
-3.42471e-07
0.000104918
-1.4971e-06
0.000105054
-2.29305e-06
0.0001066
-2.39579e-06
0.000109372
-1.59805e-06
0.000112791
3.56e-07
0.000115719
4.00927e-06
0.000116328
9.9041e-06
0.000111751
1.68104e-05
9.83954e-05
2.12693e-05
7.78006e-05
2.09579e-05
5.98837e-05
1.68934e-05
4.37048e-05
1.17949e-05
2.96101e-05
6.66614e-06
1.25524e-05
5.57622e-06
5.31803e-06
2.2528e-05
-3.56657e-06
3.09463e-05
-1.23918e-05
2.20401e-05
-1.9603e-05
2.13959e-05
-2.27866e-05
3.26265e-05
-2.66285e-05
5.00808e-05
-2.77725e-05
6.45828e-05
-2.18558e-05
7.79112e-05
-1.38119e-05
9.65846e-05
-7.8423e-06
0.000109151
-3.38653e-06
0.000113447
-5.31049e-07
0.000113851
9.18768e-07
0.000112064
1.21764e-06
0.000109653
7.19751e-07
0.000107595
-1.82156e-07
0.000106474
-1.05874e-06
0.000106591
-1.5161e-06
0.000107796
-1.1624e-06
0.000109896
3.18048e-07
0.000112353
3.11318e-06
0.000114124
7.59798e-06
0.00011322
1.39172e-05
0.000107066
2.06214e-05
9.35037e-05
2.42165e-05
7.60857e-05
2.21625e-05
6.30788e-05
1.77451e-05
4.8726e-05
1.51397e-05
3.29338e-05
1.12021e-05
1.62747e-05
1.09023e-05
7.69192e-06
3.46998e-05
-1.3394e-06
3.08892e-05
-8.79504e-06
2.76828e-05
-2.14239e-05
3.37803e-05
-2.28105e-05
3.57845e-05
-2.59243e-05
5.31527e-05
-2.8819e-05
6.79546e-05
-2.50533e-05
7.62009e-05
-1.70241e-05
9.0805e-05
-1.04712e-05
0.000104284
-5.50137e-06
0.000109998
-2.07406e-06
0.000111766
-1.74856e-07
0.000111301
5.5761e-07
0.000109874
4.65542e-07
0.000108505
-3.56389e-08
0.000107722
-5.07482e-07
0.000107816
-5.53381e-07
0.00010867
2.29306e-07
0.000110076
2.18862e-06
0.000111538
5.68514e-06
0.000111972
1.08594e-05
0.000109606
1.73805e-05
0.00010234
2.36737e-05
8.92189e-05
2.56609e-05
7.58736e-05
2.21643e-05
6.71706e-05
1.85242e-05
5.27412e-05
1.73227e-05
3.47109e-05
1.49256e-05
1.84935e-05
1.08755e-05
1.31025e-05
4.30289e-05
-1.55403e-06
3.12325e-05
-6.19259e-06
3.08661e-05
-2.05481e-05
4.59418e-05
-2.30611e-05
3.9947e-05
-2.37389e-05
5.44634e-05
-2.68204e-05
7.07158e-05
-2.61067e-05
7.67084e-05
-1.95882e-05
8.65325e-05
-1.27843e-05
9.93676e-05
-7.53757e-06
0.000106379
-3.78266e-06
0.000109415
-1.46653e-06
0.00011017
-3.12287e-07
0.000109725
6.96207e-08
0.000109001
8.34423e-08
0.000108523
1.15633e-07
0.000108602
5.34733e-07
0.000109135
1.72487e-06
0.000109896
4.11286e-06
0.000110345
8.04808e-06
0.000109462
1.35581e-05
0.000105781
1.98104e-05
9.79739e-05
2.49212e-05
8.6105e-05
2.47988e-05
7.71172e-05
2.14799e-05
7.04432e-05
1.96098e-05
5.49245e-05
1.84603e-05
3.60839e-05
1.71501e-05
2.02567e-05
6.18636e-06
2.34528e-05
4.8607e-05
-7.68522e-07
3.14631e-05
-4.90218e-06
3.37137e-05
-1.52711e-05
5.53154e-05
-2.18659e-05
4.75231e-05
-2.08032e-05
5.4942e-05
-2.28018e-05
7.23454e-05
-2.43681e-05
7.85687e-05
-2.07129e-05
8.44537e-05
-1.45944e-05
9.50731e-05
-9.46794e-06
0.000102833
-5.57451e-06
0.000106892
-2.92554e-06
0.00010869
-1.30842e-06
0.000109118
-3.9505e-07
0.000108987
1.77188e-07
0.000108798
7.61633e-07
0.000108866
1.6988e-06
0.000109103
3.33587e-06
0.000109274
6.06068e-06
0.000108809
1.01709e-05
0.000106774
1.54408e-05
0.000102167
2.06728e-05
9.44797e-05
2.35306e-05
8.47064e-05
2.19222e-05
7.90323e-05
2.00158e-05
7.20837e-05
2.03889e-05
5.52548e-05
1.8898e-05
3.77352e-05
1.73738e-05
2.24175e-05
3.50419e-06
3.60683e-05
5.19541e-05
-6.72247e-07
3.18933e-05
-3.0476e-06
3.54757e-05
-9.83654e-06
6.1248e-05
-1.9824e-05
5.71413e-05
-1.8648e-05
5.54929e-05
-1.85285e-05
7.21649e-05
-2.03818e-05
8.03e-05
-1.9695e-05
8.44925e-05
-1.54363e-05
9.21817e-05
-1.09589e-05
9.96872e-05
-7.17466e-06
0.000104338
-4.31104e-06
0.000106914
-2.29545e-06
0.000108067
-8.789e-07
0.000108451
2.47053e-07
0.000108511
1.3849e-06
0.000108569
2.82649e-06
0.000108547
4.8754e-06
0.0001082
7.82059e-06
0.000106981
1.17578e-05
0.00010413
1.61021e-05
9.92121e-05
1.95551e-05
9.22694e-05
1.99159e-05
8.5004e-05
1.80953e-05
8.0777e-05
1.80856e-05
7.21181e-05
2.00326e-05
5.44824e-05
1.82238e-05
4.01389e-05
1.45552e-05
2.76422e-05
2.89195e-06
4.63065e-05
5.41029e-05
-1.15457e-06
3.2452e-05
-2.94741e-06
3.6361e-05
-5.85256e-06
6.3161e-05
-1.66834e-05
6.63718e-05
-1.64139e-05
5.65797e-05
-1.42537e-05
7.04304e-05
-1.57797e-05
8.16219e-05
-1.65897e-05
8.5564e-05
-1.47758e-05
9.11151e-05
-1.15848e-05
9.74347e-05
-8.24687e-06
0.000101935
-5.36624e-06
0.000104942
-3.0912e-06
0.000106639
-1.27502e-06
0.000107431
2.94995e-07
0.000107709
1.89141e-06
0.000107743
3.74569e-06
0.000107493
6.08282e-06
0.000106721
9.04004e-06
0.000104954
1.23846e-05
0.000101752
1.52302e-05
9.72654e-05
1.66338e-05
9.1501e-05
1.57779e-05
8.61205e-05
1.42126e-05
8.20952e-05
1.65703e-05
7.05134e-05
1.83394e-05
5.41011e-05
1.6907e-05
4.35098e-05
7.91883e-06
3.79222e-05
2.2505e-06
5.08118e-05
5.50133e-05
-2.25825e-06
3.38966e-05
-4.75758e-06
3.75003e-05
-2.58601e-06
6.08864e-05
-1.13028e-05
7.35785e-05
-1.28107e-05
5.92376e-05
-1.026e-05
6.88194e-05
-1.13467e-05
8.25356e-05
-1.27063e-05
8.69491e-05
-1.25873e-05
9.12486e-05
-1.09476e-05
9.62773e-05
-8.51072e-06
0.00010012
-5.91852e-06
0.000102977
-3.58227e-06
0.000104911
-1.54098e-06
0.000105984
3.24998e-07
0.000106425
2.22426e-06
0.000106429
4.31744e-06
0.000105996
6.73348e-06
0.000104917
9.38029e-06
0.00010293
1.17195e-05
0.000100004
1.30733e-05
9.63125e-05
1.31679e-05
9.16326e-05
1.18361e-05
8.7458e-05
1.13148e-05
8.24251e-05
1.53912e-05
6.78716e-05
1.54548e-05
5.52906e-05
1.36288e-05
4.74738e-05
2.59915e-06
4.82899e-05
-6.94329e-07
5.23739e-05
5.31643e-05
-3.6509e-06
3.70337e-05
-7.123e-06
4.09589e-05
8.90637e-07
5.5663e-05
-4.37947e-06
7.78063e-05
-8.58991e-06
6.46719e-05
-7.54952e-06
6.88943e-05
-7.58712e-06
8.26236e-05
-9.28531e-06
8.84284e-05
-9.82962e-06
9.18036e-05
-9.20846e-06
9.57443e-05
-7.778e-06
9.89284e-05
-5.81509e-06
0.000101371
-3.7067e-06
0.000103174
-1.65442e-06
0.000104288
3.32796e-07
0.000104785
2.351e-06
0.00010476
4.46223e-06
0.00010424
6.65174e-06
0.000103093
8.6548e-06
0.000101264
1.00274e-05
9.88327e-05
1.05689e-05
9.58253e-05
1.01344e-05
9.20938e-05
8.43308e-06
8.88738e-05
9.8611e-06
8.14918e-05
1.31738e-05
6.59998e-05
1.22152e-05
5.77237e-05
5.17328e-06
5.51047e-05
-2.58319e-07
5.27635e-05
-4.75298e-06
5.42374e-05
4.84409e-05
-4.41786e-06
4.13973e-05
-7.65792e-06
4.54299e-05
8.34673e-07
5.26243e-05
2.92156e-06
7.74804e-05
-5.68979e-06
7.29844e-05
-6.22913e-06
7.06513e-05
-5.23464e-06
8.217e-05
-6.55162e-06
8.95661e-05
-7.43575e-06
9.25918e-05
-7.2527e-06
9.5528e-05
-6.47687e-06
9.8138e-05
-5.15137e-06
0.000100114
-3.44244e-06
0.000101605
-1.58188e-06
0.00010259
3.17563e-07
0.000103049
2.24031e-06
0.000103002
4.15426e-06
0.000102488
5.93738e-06
0.000101444
7.33222e-06
9.9922e-05
8.16697e-06
9.79657e-05
8.4231e-06
9.55266e-05
7.67394e-06
9.27305e-05
6.56095e-06
8.97606e-05
9.37586e-06
7.98386e-05
9.85189e-06
6.6675e-05
6.6025e-06
6.22384e-05
-3.0709e-06
6.39736e-05
-1.53806e-06
5.13979e-05
-5.93936e-06
5.57294e-05
4.31861e-05
-4.90141e-06
4.73085e-05
-8.23899e-06
4.97311e-05
-5.52147e-06
5.32191e-05
6.11035e-06
7.22888e-05
-3.15269e-06
8.07461e-05
-4.8092e-06
7.31611e-05
-4.50428e-06
8.2672e-05
-4.74381e-06
9.00041e-05
-5.62815e-06
9.34371e-05
-5.65881e-06
9.55892e-05
-5.20879e-06
9.76909e-05
-4.31623e-06
9.9227e-05
-3.00838e-06
0.000100331
-1.429e-06
0.000101066
2.64639e-07
0.000101419
1.96998e-06
0.000101358
3.59264e-06
0.000100912
4.97764e-06
0.000100075
5.99907e-06
9.88809e-05
6.63609e-06
9.73033e-05
6.79137e-06
9.53633e-05
6.13585e-06
9.32749e-05
6.48586e-06
8.96023e-05
8.53941e-06
7.90411e-05
6.72488e-06
6.98681e-05
-2.74039e-06
7.17682e-05
-8.498e-06
6.95043e-05
-3.12312e-06
4.71928e-05
-3.27405e-06
5.41756e-05
4.03427e-05
-6.11263e-06
5.59781e-05
-1.01909e-05
5.58279e-05
-1.10747e-05
5.55131e-05
-4.74104e-08
6.72508e-05
-1.60081e-06
8.27329e-05
-3.43189e-06
7.54457e-05
-4.48576e-06
8.43636e-05
-3.98285e-06
9.01584e-05
-4.51377e-06
9.41828e-05
-4.63637e-06
9.59229e-05
-4.31128e-06
9.75334e-05
-3.63853e-06
9.86884e-05
-2.60771e-06
9.94373e-05
-1.29248e-06
9.99018e-05
1.57171e-07
0.000100121
1.60971e-06
0.000100049
2.96066e-06
9.96897e-05
4.07971e-06
9.90607e-05
4.93427e-06
9.81231e-05
5.52644e-06
9.6837e-05
5.69801e-06
9.53297e-05
5.62983e-06
9.34734e-05
7.10622e-06
8.8845e-05
7.15888e-06
8.01498e-05
1.80867e-06
7.58948e-05
-9.03529e-06
8.13e-05
-1.01386e-05
7.0702e-05
-5.20932e-06
4.34439e-05
-4.11546e-07
4.90695e-05
4.01298e-05
-8.95615e-06
6.86617e-05
-1.36955e-05
6.37275e-05
-1.37283e-05
5.78555e-05
-8.66459e-06
6.46636e-05
-2.09823e-06
7.82661e-05
-2.01978e-06
7.62229e-05
-3.75852e-06
8.70033e-05
-3.8458e-06
9.10903e-05
-4.0241e-06
9.48602e-05
-4.21369e-06
9.64696e-05
-3.86606e-06
9.75165e-05
-3.21556e-06
9.83322e-05
-2.33153e-06
9.88441e-05
-1.23031e-06
9.91032e-05
-5.30576e-09
9.9201e-05
1.22494e-06
9.91134e-05
2.36825e-06
9.88267e-05
3.35534e-06
9.83375e-05
4.18651e-06
9.75641e-05
4.79505e-06
9.65218e-05
5.10578e-06
9.53025e-05
5.82232e-06
9.31762e-05
7.0026e-06
8.85158e-05
5.15486e-06
8.2808e-05
-3.84194e-06
8.40596e-05
-1.03999e-05
8.71115e-05
-8.03411e-06
6.95605e-05
-6.147e-06
4.17254e-05
3.48117e-07
4.27548e-05
4.05205e-05
-1.6052e-05
8.33847e-05
-2.0804e-05
7.10214e-05
-1.72312e-05
5.75678e-05
-1.30477e-05
6.18138e-05
-3.49347e-06
7.02208e-05
-1.89031e-06
7.56281e-05
-3.57783e-06
8.93754e-05
-4.35816e-06
9.26535e-05
-4.19868e-06
9.5263e-05
-4.18968e-06
9.68245e-05
-3.74574e-06
9.74394e-05
-3.02068e-06
9.79616e-05
-2.18035e-06
9.8338e-05
-1.2316e-06
9.84903e-05
-1.87506e-07
9.84985e-05
8.73755e-07
9.83921e-05
1.87726e-06
9.81572e-05
2.81801e-06
9.77321e-05
3.66044e-06
9.70689e-05
4.2736e-06
9.62488e-05
4.79914e-06
9.51188e-05
5.76345e-06
9.27273e-05
5.94173e-06
8.89727e-05
1.99093e-06
8.68117e-05
-5.08949e-06
9.02917e-05
-8.23919e-06
8.96953e-05
-5.88671e-06
6.82685e-05
-5.27487e-06
4.08493e-05
-2.01864e-07
3.77348e-05
4.04868e-05
-2.11353e-05
9.68167e-05
-2.94078e-05
7.73311e-05
-2.12584e-05
5.12985e-05
-1.31868e-05
5.45166e-05
-5.2457e-06
6.30521e-05
-3.83474e-06
7.45271e-05
-4.78772e-06
9.03558e-05
-5.54733e-06
9.37798e-05
-4.91391e-06
9.50885e-05
-4.39287e-06
9.66142e-05
-3.82887e-06
9.71706e-05
-3.02989e-06
9.74552e-05
-2.15627e-06
9.77332e-05
-1.27146e-06
9.78601e-05
-3.37591e-07
9.78235e-05
6.13163e-07
9.77067e-05
1.53215e-06
9.75082e-05
2.43778e-06
9.71136e-05
3.24487e-06
9.65597e-05
3.8521e-06
9.59269e-05
4.49612e-06
9.48014e-05
5.06639e-06
9.26012e-05
4.30778e-06
9.01697e-05
-2.47832e-07
9.09932e-05
-3.70189e-06
9.34568e-05
-3.64523e-06
8.97271e-05
-4.73742e-06
6.92673e-05
-4.18871e-06
4.04092e-05
-9.17906e-07
3.44441e-05
4.00526e-05
-1.61596e-05
0.000104387
-3.1743e-05
8.23868e-05
-2.07204e-05
4.16389e-05
-1.10281e-05
4.59403e-05
-6.17427e-06
5.84309e-05
-6.46816e-06
7.40134e-05
-6.32083e-06
8.98221e-05
-6.77768e-06
9.42809e-05
-5.68367e-06
9.43973e-05
-4.76177e-06
9.59628e-05
-4.01665e-06
9.66171e-05
-3.14814e-06
9.67912e-05
-2.22431e-06
9.70099e-05
-1.32868e-06
9.7149e-05
-4.35059e-07
9.71151e-05
4.55013e-07
9.70074e-05
1.32558e-06
9.68365e-05
2.17708e-06
9.64787e-05
2.91714e-06
9.60437e-05
3.53328e-06
9.55376e-05
4.14872e-06
9.447e-05
4.34382e-06
9.2781e-05
2.63142e-06
9.2059e-05
-1.46514e-07
9.36347e-05
-1.32789e-06
9.47413e-05
4.15507e-08
8.91959e-05
-3.8124e-06
7.22387e-05
-3.97869e-06
4.09988e-05
-9.95714e-07
3.26737e-05
3.99288e-05
-7.94727e-06
0.00010966
-1.86647e-05
8.72169e-05
-1.26695e-05
3.47936e-05
-7.41963e-06
4.13692e-05
-6.73445e-06
5.7278e-05
-8.86048e-06
7.45317e-05
-7.64174e-06
8.83e-05
-7.26038e-06
9.37156e-05
-6.0874e-06
9.34929e-05
-5.06378e-06
9.51307e-05
-4.14894e-06
9.58717e-05
-3.22245e-06
9.60419e-05
-2.28887e-06
9.62505e-05
-1.37436e-06
9.64013e-05
-4.92414e-07