/*--------------------------------*- C++ -*----------------------------------*\
| =========                 |                                                 |
| \\      /  F ield         | OpenFOAM: The Open Source CFD Toolbox           |
|  \\    /   O peration     | Version:  2.3.0                                 |
|   \\  /    A nd           | Web:      www.OpenFOAM.org                      |
|    \\/     M anipulation  |                                                 |
\*---------------------------------------------------------------------------*/
FoamFile
{
    version     2.0;
    format      ascii;
    class       volScalarField;
    location    "0.21";
    object      pMean;
}
// * * * * * * * * * * * * * * * * * * * * * * * * * * * * * * * * * * * * * //

dimensions      [1 -1 -2 0 0 0 0];

internalField   nonuniform List<scalar> 
6000
(
107498
107499
107498
107497
107495
107494
107493
107493
107493
107493
107493
107493
107493
107493
107493
107493
107493
107493
107493
107493
107493
107493
107493
107493
107494
107495
107497
107498
107499
107498
107428
107430
107429
107427
107426
107424
107424
107424
107424
107424
107425
107425
107425
107425
107425
107425
107425
107425
107425
107425
107424
107424
107424
107424
107425
107426
107428
107429
107430
107429
107368
107370
107369
107369
107367
107367
107366
107367
107367
107368
107369
107369
107369
107369
107369
107369
107369
107369
107369
107369
107368
107368
107367
107366
107367
107368
107369
107370
107370
107368
107307
107307
107307
107306
107305
107304
107304
107305
107307
107308
107309
107309
107310
107310
107310
107310
107310
107310
107310
107309
107308
107307
107305
107304
107304
107305
107306
107307
107308
107308
107251
107251
107250
107248
107246
107245
107244
107244
107246
107247
107248
107249
107249
107249
107249
107249
107249
107249
107249
107248
107247
107246
107244
107244
107245
107246
107248
107250
107251
107252
107203
107202
107201
107199
107196
107194
107191
107190
107189
107190
107190
107191
107191
107191
107191
107191
107191
107191
107191
107191
107190
107189
107190
107192
107194
107197
107199
107201
107203
107204
107159
107159
107157
107154
107151
107148
107145
107142
107140
107138
107138
107137
107137
107137
107137
107137
107137
107137
107137
107138
107139
107140
107143
107145
107148
107151
107154
107157
107159
107160
107115
107114
107112
107109
107105
107102
107099
107096
107094
107092
107090
107089
107088
107087
107087
107087
107087
107088
107089
107090
107092
107094
107097
107099
107102
107105
107109
107112
107114
107116
107069
107067
107063
107060
107057
107054
107051
107049
107047
107045
107044
107043
107042
107041
107041
107041
107041
107042
107043
107044
107046
107048
107050
107052
107054
107057
107060
107064
107067
107069
107018
107016
107012
107009
107006
107004
107002
107000
106999
106998
106996
106995
106995
106994
106994
106994
106994
106995
106996
106997
106998
106999
107001
107002
107004
107007
107009
107012
107016
107019
106964
106961
106958
106955
106954
106952
106951
106950
106949
106948
106947
106947
106946
106946
106946
106946
106946
106946
106947
106948
106948
106949
106950
106951
106953
106954
106956
106958
106962
106964
106907
106905
106902
106900
106899
106899
106899
106898
106898
106897
106897
106896
106896
106896
106896
106896
106896
106896
106896
106897
106897
106898
106899
106899
106900
106900
106901
106903
106905
106907
106848
106847
106845
106845
106844
106845
106845
106845
106845
106845
106844
106844
106844
106844
106844
106844
106844
106844
106844
106845
106845
106845
106846
106846
106846
106846
106846
106847
106848
106849
106789
106788
106788
106788
106789
106790
106790
106791
106791
106791
106791
106791
106791
106791
106791
106791
106791
106791
106791
106791
106791
106791
106791
106791
106791
106790
106790
106790
106790
106790
106729
106729
106730
106731
106732
106733
106734
106735
106736
106736
106736
106736
106736
106736
106736
106736
106736
106736
106736
106736
106736
106736
106736
106735
106734
106733
106733
106733
106732
106730
106669
106669
106670
106672
106674
106676
106677
106678
106679
106679
106679
106679
106680
106680
106680
106680
106680
106680
106680
106680
106679
106679
106679
106678
106677
106675
106674
106673
106671
106670
106608
106608
106610
106612
106615
106617
106619
106620
106620
106621
106621
106621
106621
106622
106622
106622
106622
106622
106622
106621
106621
106621
106620
106619
106617
106615
106613
106611
106609
106609
106547
106547
106549
106552
106554
106557
106558
106560
106560
106561
106561
106562
106562
106562
106562
106562
106562
106562
106562
106562
106561
106561
106560
106558
106556
106554
106551
106548
106547
106547
106483
106485
106488
106491
106493
106495
106497
106498
106499
106499
106500
106500
106500
106500
106501
106501
106501
106501
106500
106500
106500
106499
106498
106496
106494
106491
106488
106485
106484
106485
106419
106422
106426
106428
106430
106431
106433
106434
106435
106436
106437
106437
106437
106437
106437
106437
106437
106437
106437
106437
106437
106436
106435
106433
106431
106428
106425
106422
106421
106420
106352
106356
106360
106363
106365
106366
106368
106369
106370
106371
106372
106372
106372
106373
106373
106373
106373
106373
106373
106372
106372
106371
106370
106368
106366
106364
106362
106359
106356
106354
106283
106287
106290
106293
106296
106298
106300
106302
106303
106304
106305
106306
106306
106306
106306
106306
106306
106306
106306
106306
106305
106304
106303
106301
106299
106298
106297
106294
106289
106286
106214
106216
106217
106220
106223
106227
106230
106233
106235
106236
106237
106238
106238
106238
106239
106239
106239
106238
106238
106238
106237
106236
106234
106232
106231
106229
106227
106225
106221
106216
106143
106142
106143
106146
106151
106155
106159
106162
106164
106166
106167
106168
106169
106169
106169
106169
106169
106169
106169
106168
106167
106166
106164
106162
106159
106156
106153
106152
106150
106146
106071
106069
106069
106073
106078
106082
106086
106090
106093
106095
106096
106097
106098
106098
106099
106099
106099
106098
106098
106097
106096
106094
106092
106089
106086
106082
106078
106077
106076
106074
105998
105996
105996
106000
106004
106009
106013
106017
106020
106022
106024
106025
106026
106026
106027
106027
106027
106026
106026
106025
106023
106021
106019
106016
106012
106008
106004
106001
106000
106000
105927
105925
105924
105927
105931
105935
105940
105943
105946
105949
105951
105952
105953
105953
105954
105954
105954
105953
105952
105951
105950
105948
105945
105942
105938
105934
105930
105926
105924
105926
105855
105854
105854
105855
105858
105862
105866
105869
105872
105875
105876
105878
105879
105879
105880
105880
105880
105879
105878
105877
105875
105873
105871
105867
105864
105860
105856
105852
105851
105853
105783
105783
105783
105783
105786
105789
105792
105795
105798
105800
105802
105803
105804
105805
105805
105805
105805
105804
105803
105802
105801
105798
105796
105793
105790
105787
105783
105780
105779
105781
105710
105710
105711
105711
105713
105716
105718
105720
105723
105725
105726
105728
105729
105729
105730
105730
105729
105729
105728
105727
105725
105723
105721
105719
105717
105714
105711
105710
105710
105711
105636
105636
105637
105638
105640
105642
105644
105646
105648
105649
105651
105652
105653
105654
105654
105654
105654
105653
105652
105651
105650
105648
105647
105645
105644
105642
105640
105640
105640
105640
105561
105561
105563
105565
105566
105568
105570
105571
105573
105574
105575
105576
105577
105578
105578
105578
105578
105577
105577
105576
105575
105573
105572
105571
105570
105569
105568
105568
105569
105570
105485
105486
105488
105491
105493
105494
105496
105497
105498
105499
105500
105500
105501
105502
105502
105502
105502
105501
105501
105500
105499
105498
105497
105497
105496
105495
105495
105496
105497
105498
105410
105411
105415
105418
105420
105421
105421
105422
105423
105423
105424
105425
105425
105425
105426
105426
105425
105425
105425
105424
105423
105423
105422
105422
105421
105421
105422
105423
105423
105424
105334
105336
105341
105345
105347
105347
105347
105347
105347
105348
105348
105348
105349
105349
105349
105349
105349
105349
105349
105348
105348
105347
105347
105346
105346
105347
105348
105349
105350
105350
105257
105260
105267
105272
105274
105274
105272
105272
105271
105272
105272
105272
105272
105273
105273
105273
105273
105273
105272
105272
105272
105271
105271
105271
105271
105272
105273
105275
105275
105274
105180
105183
105190
105196
105198
105198
105196
105195
105195
105195
105195
105196
105196
105196
105196
105196
105196
105196
105196
105196
105195
105195
105195
105195
105195
105196
105198
105200
105199
105198
105104
105108
105113
105117
105118
105118
105119
105118
105118
105119
105119
105119
105119
105120
105120
105120
105120
105120
105119
105119
105119
105119
105118
105118
105119
105120
105122
105123
105122
105120
105032
105035
105037
105037
105037
105039
105040
105041
105041
105042
105042
105042
105043
105043
105043
105043
105043
105043
105043
105043
105042
105042
105042
105042
105042
105043
105044
105045
105044
105042
104961
104962
104960
104958
104958
104960
104962
104963
104964
104965
104965
104966
104966
104966
104966
104967
104967
104966
104966
104966
104966
104965
104965
104965
104965
104965
104965
104965
104965
104964
104889
104886
104882
104880
104880
104883
104885
104886
104887
104888
104889
104889
104889
104890
104890
104890
104890
104890
104890
104889
104889
104889
104889
104888
104888
104888
104887
104886
104886
104887
104813
104808
104804
104803
104804
104806
104808
104809
104810
104811
104812
104813
104813
104813
104813
104813
104813
104813
104813
104813
104813
104812
104812
104811
104811
104810
104809
104808
104808
104810
104736
104730
104727
104727
104728
104730
104732
104733
104734
104735
104736
104736
104736
104737
104737
104737
104737
104737
104737
104736
104736
104736
104735
104735
104734
104733
104732
104730
104731
104733
104660
104655
104652
104652
104653
104655
104656
104657
104658
104659
104659
104660
104660
104660
104660
104660
104660
104660
104660
104660
104660
104659
104659
104658
104658
104657
104655
104654
104655
104657
104584
104580
104578
104578
104578
104579
104580
104581
104582
104582
104583
104583
104584
104584
104584
104584
104584
104584
104584
104583
104583
104583
104582
104582
104581
104580
104579
104578
104579
104581
104508
104506
104505
104504
104504
104504
104505
104505
104506
104506
104507
104507
104507
104507
104508
104508
104508
104507
104507
104507
104507
104506
104506
104506
104505
104504
104503
104503
104504
104505
104433
104432
104431
104430
104429
104429
104429
104430
104430
104430
104431
104431
104431
104431
104431
104431
104431
104431
104431
104431
104430
104430
104430
104429
104429
104428
104428
104428
104429
104429
104358
104358
104357
104355
104354
104354
104354
104354
104354
104354
104355
104355
104355
104355
104355
104355
104355
104355
104355
104354
104354
104354
104353
104353
104353
104352
104352
104353
104353
104354
104283
104283
104282
104280
104279
104278
104278
104278
104278
104279
104279
104279
104279
104279
104279
104279
104279
104279
104278
104278
104278
104278
104277
104277
104277
104276
104276
104277
104277
104277
104208
104207
104207
104205
104203
104202
104202
104202
104203
104203
104203
104203
104203
104203
104203
104203
104203
104202
104202
104202
104202
104201
104201
104201
104200
104200
104200
104201
104201
104201
104132
104131
104130
104129
104127
104127
104126
104127
104127
104127
104127
104127
104127
104127
104127
104126
104126
104126
104126
104126
104125
104125
104125
104124
104124
104124
104124
104125
104125
104124
104055
104054
104053
104053
104051
104051
104050
104051
104051
104051
104051
104051
104051
104050
104050
104050
104050
104050
104050
104049
104049
104049
104048
104048
104048
104047
104048
104048
104047
104047
103977
103976
103975
103976
103975
103975
103974
103974
103974
103974
103974
103974
103974
103974
103974
103974
103974
103974
103973
103973
103973
103972
103972
103972
103971
103971
103971
103970
103970
103969
103899
103898
103898
103899
103899
103898
103898
103898
103898
103898
103898
103898
103898
103898
103898
103898
103898
103897
103897
103897
103896
103896
103896
103895
103895
103894
103894
103893
103892
103892
103822
103821
103821
103822
103822
103822
103822
103822
103822
103822
103822
103822
103822
103822
103822
103822
103821
103821
103821
103821
103820
103820
103819
103819
103818
103818
103817
103816
103815
103816
103746
103745
103745
103746
103746
103746
103746
103746
103746
103746
103746
103746
103746
103746
103746
103745
103745
103745
103745
103744
103744
103743
103743
103742
103742
103741
103740
103739
103738
103740
103671
103670
103669
103670
103670
103670
103670
103670
103670
103670
103670
103670
103670
103670
103669
103669
103669
103669
103668
103668
103668
103667
103667
103666
103665
103665
103663
103662
103662
103664
103595
103595
103594
103594
103594
103594
103594
103594
103594
103594
103594
103594
103594
103593
103593
103593
103593
103593
103592
103592
103591
103591
103590
103590
103589
103588
103587
103586
103586
103588
103520
103520
103519
103518
103518
103519
103518
103518
103518
103518
103518
103517
103517
103517
103517
103517
103517
103516
103516
103516
103515
103515
103514
103514
103513
103512
103511
103510
103511
103512
103443
103444
103444
103443
103442
103442
103442
103442
103442
103442
103441
103441
103441
103441
103441
103441
103440
103440
103440
103439
103439
103439
103438
103438
103437
103436
103435
103435
103435
103435
103367
103367
103368
103367
103366
103366
103366
103366
103365
103365
103365
103365
103365
103365
103365
103364
103364
103364
103364
103363
103363
103363
103362
103362
103361
103360
103360
103360
103360
103358
103291
103291
103291
103291
103290
103290
103290
103289
103289
103289
103289
103289
103289
103288
103288
103288
103288
103288
103287
103287
103287
103286
103286
103286
103285
103285
103285
103285
103284
103282
103215
103215
103215
103214
103213
103213
103213
103213
103213
103213
103213
103212
103212
103212
103212
103212
103212
103211
103211
103211
103211
103210
103210
103210
103209
103209
103209
103210
103209
103207
103138
103138
103138
103137
103137
103136
103136
103136
103136
103136
103136
103136
103136
103136
103136
103136
103135
103135
103135
103135
103135
103134
103134
103134
103134
103133
103134
103134
103133
103133
103061
103060
103060
103060
103060
103060
103060
103060
103060
103060
103060
103060
103060
103060
103059
103059
103059
103059
103059
103059
103058
103058
103058
103058
103057
103057
103058
103058
103058
103059
102984
102983
102983
102983
102983
102983
102983
102983
102983
102983
102983
102983
102983
102983
102983
102983
102983
102983
102983
102982
102982
102982
102982
102981
102981
102981
102981
102981
102981
102982
102905
102904
102905
102906
102906
102906
102907
102907
102907
102907
102907
102907
102907
102907
102907
102907
102907
102907
102906
102906
102906
102906
102905
102905
102905
102905
102904
102904
102904
102905
102826
102826
102827
102829
102829
102830
102830
102830
102831
102831
102831
102831
102831
102831
102831
102831
102830
102830
102830
102830
102830
102829
102829
102829
102828
102828
102828
102827
102826
102826
102748
102749
102750
102752
102753
102753
102754
102754
102754
102754
102754
102754
102754
102754
102754
102754
102754
102754
102754
102754
102753
102753
102753
102753
102752
102752
102751
102750
102748
102748
102672
102673
102674
102675
102676
102677
102677
102678
102678
102678
102678
102678
102678
102678
102678
102678
102678
102678
102678
102677
102677
102677
102677
102676
102676
102676
102675
102674
102672
102671
102597
102597
102598
102599
102600
102601
102601
102601
102602
102602
102602
102602
102602
102602
102602
102602
102602
102602
102601
102601
102601
102601
102601
102600
102600
102600
102599
102598
102597
102597
102524
102523
102523
102523
102524
102524
102525
102525
102525
102525
102525
102525
102526
102526
102525
102525
102525
102525
102525
102525
102525
102525
102524
102524
102524
102524
102523
102523
102523
102523
102450
102449
102448
102448
102448
102448
102449
102449
102449
102449
102449
102449
102449
102449
102449
102449
102449
102449
102449
102449
102449
102448
102448
102448
102448
102448
102447
102448
102448
102449
102375
102374
102373
102372
102372
102372
102372
102372
102373
102373
102373
102373
102373
102373
102373
102373
102373
102373
102372
102372
102372
102372
102372
102372
102372
102372
102372
102373
102373
102375
102300
102298
102298
102297
102296
102296
102296
102296
102296
102296
102296
102296
102296
102296
102296
102296
102296
102296
102296
102296
102296
102296
102295
102295
102295
102295
102296
102296
102297
102299
102223
102222
102221
102220
102219
102219
102219
102219
102220
102220
102220
102220
102220
102220
102220
102220
102220
102220
102220
102219
102219
102219
102219
102219
102219
102219
102219
102219
102221
102222
102145
102145
102144
102144
102143
102143
102143
102143
102143
102143
102143
102143
102144
102144
102144
102144
102143
102143
102143
102143
102143
102143
102142
102142
102142
102142
102142
102143
102144
102144
102066
102067
102067
102066
102066
102066
102066
102066
102066
102067
102067
102067
102067
102067
102067
102067
102067
102067
102067
102066
102066
102066
102066
102065
102065
102065
102065
102066
102066
102065
101987
101988
101989
101989
101989
101989
101989
101989
101990
101990
101990
101990
101991
101991
101991
101991
101991
101991
101990
101990
101990
101989
101989
101988
101988
101988
101988
101988
101988
101987
101910
101909
101910
101911
101911
101911
101912
101912
101913
101913
101914
101914
101914
101914
101914
101914
101914
101914
101914
101913
101913
101913
101912
101911
101911
101911
101910
101910
101908
101909
101831
101829
101831
101832
101834
101834
101835
101836
101836
101837
101837
101838
101838
101838
101838
101838
101838
101838
101837
101837
101836
101836
101835
101834
101834
101833
101832
101830
101829
101830
101750
101749
101751
101754
101756
101757
101758
101759
101760
101760
101761
101761
101762
101762
101762
101762
101762
101761
101761
101761
101760
101759
101758
101757
101756
101755
101753
101750
101748
101750
101669
101669
101671
101674
101678
101679
101681
101682
101683
101684
101684
101685
101685
101686
101686
101686
101686
101685
101685
101684
101684
101683
101682
101680
101679
101677
101674
101671
101668
101669
101588
101589
101592
101596
101600
101602
101604
101605
101607
101607
101608
101609
101609
101610
101610
101610
101609
101609
101609
101608
101607
101606
101605
101604
101602
101599
101595
101591
101588
101587
101508
101510
101514
101518
101522
101525
101527
101529
101530
101531
101532
101533
101533
101533
101534
101534
101533
101533
101533
101532
101531
101530
101529
101527
101525
101522
101517
101513
101510
101508
101431
101433
101436
101441
101445
101449
101451
101453
101454
101455
101456
101457
101457
101458
101458
101458
101457
101457
101457
101456
101455
101454
101452
101451
101448
101445
101440
101436
101433
101431
101357
101358
101361
101364
101369
101372
101375
101377
101378
101379
101380
101381
101381
101382
101382
101382
101382
101381
101381
101380
101379
101378
101376
101374
101372
101369
101364
101360
101357
101356
101283
101283
101285
101289
101293
101297
101299
101301
101302
101303
101304
101305
101306
101306
101306
101306
101306
101305
101305
101304
101303
101302
101301
101299
101296
101293
101288
101285
101283
101283
101210
101210
101211
101213
101217
101221
101223
101225
101227
101228
101229
101229
101230
101230
101230
101230
101230
101230
101229
101229
101228
101226
101225
101223
101221
101217
101213
101210
101209
101210
101137
101137
101137
101139
101142
101145
101148
101150
101151
101152
101153
101154
101154
101154
101154
101154
101154
101154
101154
101153
101152
101151
101149
101148
101145
101142
101138
101137
101136
101137
101064
101064
101064
101065
101067
101070
101073
101074
101075
101076
101077
101078
101078
101079
101079
101079
101079
101078
101078
101077
101076
101075
101074
101072
101070
101067
101065
101064
101064
101064
100992
100991
100992
100992
100994
100996
100997
100999
101000
101001
101002
101002
101003
101003
101003
101003
101003
101003
101002
101002
101001
101000
100999
100997
100995
100993
100992
100992
100991
100991
100919
100919
100920
100920
100920
100921
100923
100924
100925
100926
100926
100927
100927
100928
100928
100928
100928
100927
100927
100926
100926
100925
100924
100923
100921
100920
100920
100920
100919
100919
100847
100846
100847
100847
100847
100848
100848
100849
100850
100851
100851
100852
100852
100852
100852
100852
100852
100852
100852
100851
100851
100850
100849
100848
100848
100847
100847
100847
100846
100847
100774
100773
100774
100774
100774
100774
100774
100775
100775
100776
100776
100776
100777
100777
100777
100777
100777
100776
100776
100776
100775
100775
100775
100774
100774
100774
100774
100774
100773
100773
100700
100699
100700
100700
100700
100700
100700
100700
100700
100700
100701
100701
100701
100701
100701
100701
100701
100701
100701
100700
100700
100700
100700
100700
100700
100700
100700
100700
100699
100699
100624
100625
100625
100625
100625
100625
100624
100624
100624
100625
100625
100625
100625
100625
100625
100625
100625
100625
100625
100625
100624
100624
100624
100624
100625
100625
100625
100625
100624
100624
100548
100549
100550
100550
100550
100549
100549
100549
100549
100549
100549
100549
100549
100549
100549
100549
100549
100549
100549
100549
100548
100548
100549
100549
100549
100549
100550
100550
100549
100548
100475
100476
100476
100476
100476
100475
100475
100475
100475
100475
100475
100475
100475
100475
100475
100475
100475
100475
100475
100475
100475
100475
100475
100475
100475
100476
100476
100476
100475
100475
100413
100414
100414
100414
100414
100413
100413
100413
100413
100413
100413
100413
100413
100413
100413
100413
100413
100413
100413
100413
100413
100413
100413
100413
100413
100414
100414
100414
100414
100413
100369
100369
100370
100370
100370
100370
100370
100370
100370
100370
100370
100370
100370
100370
100370
100370
100370
100370
100370
100370
100370
100370
100370
100370
100370
100370
100369
100369
100369
100368
100332
100333
100334
100335
100335
100335
100336
100336
100336
100336
100336
100336
100336
100336
100335
100335
100335
100336
100336
100336
100336
100336
100335
100335
100335
100335
100335
100334
100333
100332
100301
100303
100305
100305
100306
100306
100307
100307
100307
100307
100307
100307
100307
100307
100307
100307
100307
100307
100307
100307
100307
100307
100307
100307
100306
100306
100305
100304
100303
100301
100276
100278
100279
100280
100281
100282
100282
100282
100282
100282
100282
100282
100282
100282
100282
100282
100282
100282
100282
100282
100282
100282
100282
100282
100281
100281
100280
100279
100278
100275
100254
100256
100258
100259
100259
100260
100260
100260
100261
100261
100261
100261
100261
100261
100261
100261
100261
100261
100261
100261
100261
100261
100260
100260
100260
100259
100259
100258
100256
100254
100235
100236
100239
100240
100241
100241
100241
100242
100242
100242
100242
100242
100242
100242
100243
100243
100242
100242
100242
100242
100242
100242
100242
100241
100241
100240
100240
100239
100236
100235
100219
100220
100223
100224
100224
100225
100225
100226
100226
100226
100226
100226
100226
100227
100227
100227
100227
100226
100226
100226
100226
100226
100225
100225
100225
100224
100223
100222
100219
100218
100205
100206
100208
100210
100210
100211
100211
100212
100212
100212
100212
100212
100212
100212
100213
100213
100213
100212
100212
100212
100212
100212
100212
100211
100211
100210
100209
100208
100205
100205
100194
100194
100196
100197
100198
100199
100199
100199
100199
100200
100200
100200
100200
100200
100200
100200
100200
100200
100200
100200
100200
100199
100199
100199
100198
100198
100197
100196
100193
100193
100185
100184
100185
100186
100187
100188
100188
100188
100188
100189
100189
100189
100189
100189
100189
100189
100189
100189
100189
100189
100189
100188
100188
100188
100188
100187
100186
100185
100183
100184
100176
100176
100176
100177
100177
100178
100178
100178
100179
100179
100179
100179
100179
100179
100179
100179
100179
100179
100179
100179
100179
100179
100178
100178
100178
100177
100177
100176
100175
100177
100170
100168
100168
100169
100169
100169
100169
100170
100170
100170
100170
100171
100171
100171
100171
100171
100171
100171
100171
100170
100170
100170
100170
100169
100169
100169
100169
100169
100168
100170
100164
100162
100161
100161
100161
100161
100161
100162
100162
100162
100163
100163
100163
100163
100163
100163
100163
100163
100163
100163
100162
100162
100162
100161
100161
100161
100161
100162
100162
100164
100157
100155
100155
100154
100154
100154
100154
100155
100155
100156
100156
100156
100157
100157
100157
100157
100157
100157
100156
100156
100156
100155
100155
100154
100154
100154
100154
100155
100156
100157
100149
100148
100147
100147
100147
100147
100148
100149
100149
100150
100151
100151
100152
100152
100152
100152
100152
100152
100151
100151
100150
100150
100149
100148
100148
100147
100147
100148
100149
100150
100137
100136
100136
100137
100138
100140
100141
100142
100143
100144
100145
100146
100146
100146
100147
100147
100146
100146
100146
100145
100144
100143
100142
100141
100140
100139
100138
100137
100138
100139
100120
100119
100120
100123
100125
100128
100130
100131
100133
100135
100136
100137
100137
100138
100138
100138
100138
100137
100137
100136
100135
100133
100132
100130
100128
100126
100124
100122
100121
100121
100097
100097
100100
100104
100108
100111
100114
100117
100119
100121
100122
100124
100124
100125
100125
100125
100125
100124
100123
100122
100121
100119
100117
100114
100111
100108
100104
100101
100098
100098
100072
100072
100075
100080
100085
100090
100094
100098
100100
100103
100105
100106
100107
100108
100108
100108
100108
100107
100106
100104
100102
100100
100098
100094
100091
100086
100080
100075
100072
100072
100049
100047
100050
100054
100060
100066
100071
100075
100078
100081
100083
100085
100086
100087
100087
100087
100087
100086
100084
100082
100080
100077
100074
100071
100066
100060
100055
100050
100048
100049
100029
100027
100028
100031
100036
100041
100046
100050
100054
100057
100059
100061
100063
100064
100064
100064
100063
100062
100060
100058
100055
100053
100049
100046
100041
100036
100031
100028
100028
100030
100016
100014
100015
100016
100018
100021
100025
100028
100031
100033
100036
100038
100039
100040
100041
100041
100040
100039
100037
100035
100032
100030
100027
100024
100021
100018
100016
100015
100015
100016
100010
100010
100010
100010
100010
100010
100011
100013
100014
100016
100018
100019
100020
100021
100022
100022
100021
100020
100018
100017
100015
100014
100012
100011
100010
100010
100010
100009
100010
100010
100008
100008
100008
100007
100007
100007
100007
100007
100008
100008
100009
100009
100009
100010
100010
100010
100010
100009
100009
100008
100008
100008
100007
100007
100007
100007
100007
100007
100008
100008
100007
100006
100006
100006
100006
100006
100006
100006
100006
100006
100006
100006
100006
100006
100006
100006
100006
100006
100006
100006
100006
100006
100006
100006
100006
100006
100006
100006
100006
100007
100006
100006
100006
100005
100005
100005
100005
100005
100005
100005
100005
100005
100005
100005
100005
100005
100005
100005
100005
100005
100005
100005
100005
100005
100005
100005
100005
100006
100006
100006
100005
100005
100005
100005
100005
100005
100005
100005
100005
100005
100005
100005
100005
100005
100005
100005
100005
100005
100005
100005
100005
100005
100005
100005
100005
100005
100005
100005
100005
100005
100005
100005
100005
100004
100004
100004
100004
100004
100004
100004
100004
100004
100004
100004
100004
100004
100004
100004
100004
100004
100004
100004
100004
100004
100004
100004
100004
100005
100005
100005
100004
100004
100004
100004
100004
100004
100004
100004
100004
100004
100004
100004
100004
100004
100004
100004
100004
100004
100004
100004
100004
100004
100004
100004
100004
100004
100004
100004
100004
100004
100004
100004
100004
100004
100004
100004
100004
100004
100004
100004
100004
100004
100004
100004
100004
100004
100004
100004
100004
100004
100004
100004
100004
100004
100004
100004
100004
100004
100004
100004
100004
100004
100004
100004
100004
100004
100004
100004
100004
100004
100004
100004
100004
100004
100004
100004
100004
100004
100004
100004
100004
100004
100004
100004
100004
100004
100004
100004
100004
100004
100004
100004
100004
100004
100004
100004
100004
100004
100004
100004
100004
100004
100004
100004
100004
100004
100004
100004
100004
100004
100004
100004
100004
100004
100004
100004
100004
100004
100004
100004
100004
100004
100004
100004
100004
100004
100004
100004
100004
100004
100004
100004
100004
100004
100004
100004
100004
100004
100004
100004
100004
100004
100004
100004
100004
100004
100004
100004
100004
100004
100004
100004
100004
100004
100004
100004
100004
100004
100004
100004
100004
100004
100004
100004
100004
100004
100004
100004
100004
100004
100004
100004
100004
100004
100004
100004
100004
100004
100004
100004
100004
100004
100004
100004
100004
100004
100004
100004
100004
100004
100004
100004
100004
100004
100004
100004
100004
100004
100004
100004
100004
100004
100004
100004
100004
100004
100004
100004
100004
100004
100004
100004
100004
100004
100004
100004
100003
100003
100003
100003
100003
100003
100003
100003
100003
100003
100003
100003
100003
100003
100003
100003
100003
100003
100004
100004
100004
100004
100004
100004
100003
100003
100003
100003
100003
100003
100003
100003
100003
100003
100003
100003
100003
100003
100003
100003
100003
100003
100003
100003
100003
100003
100003
100003
100003
100003
100003
100003
100003
100004
100003
100003
100003
100003
100003
100003
100003
100003
100003
100003
100003
100003
100003
100003
100003
100003
100003
100003
100003
100003
100003
100003
100003
100003
100003
100003
100003
100003
100003
100003
100003
100003
100003
100003
100003
100003
100003
100003
100003
100003
100003
100003
100003
100003
100003
100003
100003
100003
100003
100003
100003
100003