/*--------------------------------*- C++ -*----------------------------------*\
| =========                 |                                                 |
| \\      /  F ield         | OpenFOAM: The Open Source CFD Toolbox           |
|  \\    /   O peration     | Version:  2.3.0                                 |
|   \\  /    A nd           | Web:      www.OpenFOAM.org                      |
|    \\/     M anipulation  |                                                 |
\*---------------------------------------------------------------------------*/
FoamFile
{
    version     2.0;
    format      ascii;
    class       volVectorField;
    location    "0.21";
    object      U.airMean;
}
// * * * * * * * * * * * * * * * * * * * * * * * * * * * * * * * * * * * * * //

dimensions      [0 1 -1 0 0 0 0];

internalField   nonuniform List<vector> 
6000
(
(-0.0182138 0.302685 0)
(-0.00767326 0.279115 0)
(0.020995 0.287639 0)
(0.0327557 0.287493 0)
(0.0362667 0.288137 0)
(0.033807 0.289294 0)
(0.0281711 0.291166 0)
(0.0223229 0.291127 0)
(0.0184411 0.290686 0)
(0.0159228 0.290306 0)
(0.0138833 0.290127 0)
(0.0116026 0.290147 0)
(0.00884028 0.290078 0)
(0.00555288 0.290147 0)
(0.00179868 0.290266 0)
(-0.0022296 0.290339 0)
(-0.00600754 0.290116 0)
(-0.00929239 0.290117 0)
(-0.0120698 0.290117 0)
(-0.0143281 0.290136 0)
(-0.0163529 0.290254 0)
(-0.0188219 0.29069 0)
(-0.0226729 0.29106 0)
(-0.0284489 0.291173 0)
(-0.0340587 0.289217 0)
(-0.0364892 0.288176 0)
(-0.0329546 0.287429 0)
(-0.0211436 0.287694 0)
(0.00757388 0.278985 0)
(0.0181897 0.302708 0)
(0.00247629 0.962933 0)
(0.00704476 0.903995 0)
(0.0455677 0.920223 0)
(0.0596118 0.937314 0)
(0.0610159 0.946984 0)
(0.0528973 0.951712 0)
(0.0405771 0.951539 0)
(0.030449 0.947131 0)
(0.0247407 0.943065 0)
(0.0217931 0.940719 0)
(0.0195426 0.940393 0)
(0.0166847 0.940803 0)
(0.0127423 0.941866 0)
(0.00785514 0.942518 0)
(0.00248207 0.943113 0)
(-0.00299995 0.943058 0)
(-0.00838268 0.942592 0)
(-0.013285 0.941792 0)
(-0.0172255 0.940875 0)
(-0.0200848 0.940285 0)
(-0.022321 0.940745 0)
(-0.0252306 0.942887 0)
(-0.0308779 0.947132 0)
(-0.0409253 0.951298 0)
(-0.0531913 0.951777 0)
(-0.0613328 0.946831 0)
(-0.0598926 0.937311 0)
(-0.045745 0.919961 0)
(-0.00708208 0.904021 0)
(-0.00245513 0.962687 0)
(0.004476 0.868527 0)
(0.0221269 0.764312 0)
(0.0582635 0.795474 0)
(0.0746064 0.82608 0)
(0.0776563 0.85015 0)
(0.0670111 0.868656 0)
(0.0486389 0.873153 0)
(0.0344529 0.863692 0)
(0.0283189 0.854542 0)
(0.0262739 0.850492 0)
(0.0245192 0.850473 0)
(0.0212027 0.852541 0)
(0.0161642 0.854818 0)
(0.00994912 0.856516 0)
(0.00315547 0.857352 0)
(-0.00374843 0.857413 0)
(-0.0105328 0.856503 0)
(-0.0167454 0.854855 0)
(-0.0217898 0.852494 0)
(-0.0250979 0.850471 0)
(-0.0268563 0.850358 0)
(-0.0288536 0.85443 0)
(-0.0349455 0.863458 0)
(-0.0489621 0.872936 0)
(-0.0672624 0.868621 0)
(-0.0779138 0.85029 0)
(-0.0748555 0.826022 0)
(-0.0585454 0.795456 0)
(-0.022281 0.7641 0)
(-0.00439527 0.868462 0)
(0.0305886 0.843678 0)
(0.0538954 0.736243 0)
(0.0761888 0.779062 0)
(0.0950854 0.816359 0)
(0.103753 0.850335 0)
(0.095179 0.878234 0)
(0.0701106 0.886625 0)
(0.044935 0.872625 0)
(0.0319303 0.859446 0)
(0.0281239 0.853923 0)
(0.0264629 0.854909 0)
(0.0232356 0.858212 0)
(0.0177982 0.861453 0)
(0.0109645 0.863464 0)
(0.00347925 0.864431 0)
(-0.00416156 0.864383 0)
(-0.011613 0.863513 0)
(-0.0184223 0.861394 0)
(-0.0238392 0.858279 0)
(-0.0270735 0.854809 0)
(-0.0287211 0.853947 0)
(-0.0325057 0.859218 0)
(-0.0453228 0.872565 0)
(-0.0701619 0.886207 0)
(-0.095276 0.878543 0)
(-0.104057 0.850128 0)
(-0.0956133 0.816412 0)
(-0.0769998 0.778624 0)
(-0.054782 0.735781 0)
(-0.0310243 0.843382 0)
(0.0426564 0.765446 0)
(0.0778336 0.701597 0)
(0.107296 0.73973 0)
(0.135817 0.783525 0)
(0.152256 0.83617 0)
(0.147216 0.888872 0)
(0.120421 0.911129 0)
(0.0857655 0.889788 0)
(0.0580556 0.864261 0)
(0.0431753 0.853082 0)
(0.0353747 0.853582 0)
(0.0287466 0.858886 0)
(0.0212237 0.863669 0)
(0.0128464 0.866756 0)
(0.00405748 0.868007 0)
(-0.00483301 0.868004 0)
(-0.0135971 0.866685 0)
(-0.021931 0.863686 0)
(-0.0294263 0.858829 0)
(-0.036015 0.853649 0)
(-0.0437073 0.852917 0)
(-0.0584357 0.864137 0)
(-0.085791 0.888997 0)
(-0.120693 0.91018 0)
(-0.147776 0.88885 0)
(-0.153055 0.835903 0)
(-0.13729 0.783599 0)
(-0.108873 0.73942 0)
(-0.0792365 0.700903 0)
(-0.0432733 0.763956 0)
(0.0408403 0.679705 0)
(0.0897418 0.64096 0)
(0.142086 0.677904 0)
(0.182036 0.733386 0)
(0.200886 0.801606 0)
(0.201015 0.876126 0)
(0.185818 0.915071 0)
(0.155626 0.911137 0)
(0.115718 0.884307 0)
(0.0816352 0.865835 0)
(0.0587353 0.86279 0)
(0.0425647 0.866992 0)
(0.0292385 0.871989 0)
(0.0170488 0.874874 0)
(0.00531142 0.876405 0)
(-0.00630682 0.876165 0)
(-0.0180203 0.875021 0)
(-0.0301725 0.871655 0)
(-0.0434091 0.866975 0)
(-0.059493 0.862395 0)
(-0.0823694 0.865488 0)
(-0.116399 0.88355 0)
(-0.156638 0.909975 0)
(-0.187299 0.916423 0)
(-0.202497 0.875877 0)
(-0.2033 0.803393 0)
(-0.184264 0.733666 0)
(-0.144621 0.677988 0)
(-0.0917053 0.639599 0)
(-0.0417642 0.677369 0)
(0.0454957 0.601717 0)
(0.108768 0.568331 0)
(0.173661 0.609958 0)
(0.22013 0.68711 0)
(0.242266 0.781316 0)
(0.239731 0.864884 0)
(0.226662 0.915752 0)
(0.202836 0.923874 0)
(0.167751 0.904171 0)
(0.126491 0.879297 0)
(0.0899272 0.868634 0)
(0.0618806 0.867319 0)
(0.0405169 0.869152 0)
(0.0228581 0.87052 0)
(0.00695907 0.871311 0)
(-0.00848002 0.87112 0)
(-0.0244119 0.870471 0)
(-0.0420294 0.868816 0)
(-0.0634001 0.86725 0)
(-0.0914219 0.868108 0)
(-0.128066 0.879549 0)
(-0.169449 0.903558 0)
(-0.205222 0.92562 0)
(-0.228358 0.913346 0)
(-0.242561 0.867509 0)
(-0.244084 0.780519 0)
(-0.222634 0.687672 0)
(-0.176708 0.609625 0)
(-0.111853 0.566401 0)
(-0.0471581 0.597417 0)
(0.0507856 0.513186 0)
(0.119399 0.492509 0)
(0.177178 0.545813 0)
(0.220268 0.637782 0)
(0.247387 0.753569 0)
(0.248276 0.861014 0)
(0.230519 0.910088 0)
(0.210062 0.929969 0)
(0.183136 0.924038 0)
(0.14784 0.908901 0)
(0.110585 0.890936 0)
(0.0780569 0.881018 0)
(0.0511412 0.875479 0)
(0.0285795 0.87364 0)
(0.00839769 0.872237 0)
(-0.0110482 0.872659 0)
(-0.0312339 0.873054 0)
(-0.053867 0.875818 0)
(-0.0807429 0.880437 0)
(-0.113398 0.891454 0)
(-0.150368 0.907685 0)
(-0.185737 0.925165 0)
(-0.211282 0.926907 0)
(-0.232648 0.913082 0)
(-0.248714 0.859138 0)
(-0.248553 0.75511 0)
(-0.221984 0.63872 0)
(-0.17999 0.5467 0)
(-0.12237 0.490042 0)
(-0.0522127 0.50575 0)
(0.0500345 0.426285 0)
(0.114588 0.439363 0)
(0.157499 0.506338 0)
(0.189667 0.60349 0)
(0.216512 0.736459 0)
(0.222819 0.869935 0)
(0.206331 0.931253 0)
(0.181772 0.942471 0)
(0.159944 0.938961 0)
(0.135113 0.922867 0)
(0.108545 0.909439 0)
(0.0806834 0.897076 0)
(0.0545992 0.890447 0)
(0.0307652 0.885207 0)
(0.00878013 0.883818 0)
(-0.012588 0.883101 0)
(-0.0345934 0.885816 0)
(-0.058279 0.889378 0)
(-0.0844177 0.897604 0)
(-0.111705 0.907729 0)
(-0.13836 0.923607 0)
(-0.161884 0.936107 0)
(-0.183967 0.94413 0)
(-0.206059 0.927439 0)
(-0.223271 0.872272 0)
(-0.215894 0.736773 0)
(-0.189689 0.605379 0)
(-0.158484 0.507804 0)
(-0.116129 0.436854 0)
(-0.0508072 0.416926 0)
(0.0397716 0.357551 0)
(0.0956646 0.401248 0)
(0.126893 0.487691 0)
(0.14391 0.579959 0)
(0.162549 0.717637 0)
(0.173657 0.875517 0)
(0.163781 0.947003 0)
(0.144934 0.964618 0)
(0.126721 0.95748 0)
(0.107606 0.944867 0)
(0.0870816 0.927091 0)
(0.0664215 0.913887 0)
(0.0458355 0.902361 0)
(0.0261889 0.896387 0)
(0.00719647 0.892347 0)
(-0.0114769 0.89298 0)
(-0.0303722 0.895448 0)
(-0.0500376 0.902875 0)
(-0.0702806 0.912389 0)
(-0.0910295 0.92748 0)
(-0.110814 0.942233 0)
(-0.129999 0.957775 0)
(-0.146514 0.960038 0)
(-0.16521 0.947765 0)
(-0.172705 0.872662 0)
(-0.160967 0.718442 0)
(-0.141627 0.581601 0)
(-0.125426 0.490515 0)
(-0.0956057 0.399261 0)
(-0.0396392 0.34714 0)
(0.0258634 0.306961 0)
(0.0685571 0.368902 0)
(0.0911102 0.477564 0)
(0.0966605 0.56802 0)
(0.104555 0.704068 0)
(0.11512 0.871676 0)
(0.11509 0.959738 0)
(0.105606 0.976864 0)
(0.0942614 0.975984 0)
(0.0803299 0.961868 0)
(0.0654809 0.947588 0)
(0.049954 0.932189 0)
(0.0346551 0.921573 0)
(0.0196123 0.913278 0)
(0.00498015 0.910002 0)
(-0.00951789 0.909354 0)
(-0.0241555 0.913643 0)
(-0.0390378 0.920441 0)
(-0.0544007 0.932386 0)
(-0.0695923 0.945475 0)
(-0.0846599 0.961817 0)
(-0.0978877 0.972006 0)
(-0.109522 0.976142 0)
(-0.117306 0.953959 0)
(-0.1166 0.871017 0)
(-0.103495 0.70281 0)
(-0.0930407 0.568438 0)
(-0.0878836 0.480912 0)
(-0.0665128 0.367974 0)
(-0.0248732 0.296191 0)
(0.0131469 0.274429 0)
(0.040302 0.344533 0)
(0.0544464 0.47164 0)
(0.0537941 0.56327 0)
(0.0545427 0.695297 0)
(0.0632431 0.867671 0)
(0.0694526 0.958011 0)
(0.0702906 0.98584 0)
(0.064948 0.985414 0)
(0.0566717 0.976934 0)
(0.0461647 0.961716 0)
(0.035136 0.948441 0)
(0.0240374 0.936159 0)
(0.0133114 0.928697 0)
(0.00280985 0.924158 0)
(-0.00759602 0.924524 0)
(-0.0180511 0.927914 0)
(-0.0287991 0.93626 0)
(-0.0397975 0.946991 0)
(-0.0510216 0.961649 0)
(-0.0614455 0.974188 0)
(-0.0702377 0.984747 0)
(-0.0753954 0.980959 0)
(-0.0751809 0.955881 0)
(-0.0676049 0.862255 0)
(-0.0557648 0.690917 0)
(-0.0512351 0.561515 0)
(-0.0499388 0.475369 0)
(-0.0363231 0.344782 0)
(-0.0108474 0.26488 0)
(0.00418792 0.258275 0)
(0.0177903 0.331011 0)
(0.0217643 0.468826 0)
(0.0200347 0.563269 0)
(0.0160653 0.691065 0)
(0.0231852 0.858052 0)
(0.0342223 0.952953 0)
(0.0409859 0.985054 0)
(0.0412365 0.993153 0)
(0.0368325 0.985321 0)
(0.030175 0.973845 0)
(0.0225337 0.959516 0)
(0.015017 0.948284 0)
(0.00783186 0.939676 0)
(0.000945593 0.93581 0)
(-0.0058617 0.935435 0)
(-0.0127578 0.939735 0)
(-0.0199101 0.947389 0)
(-0.0275322 0.959443 0)
(-0.0352299 0.972175 0)
(-0.0423803 0.985152 0)
(-0.0471104 0.990086 0)
(-0.0480374 0.983983 0)
(-0.0419006 0.9477 0)
(-0.0309982 0.852969 0)
(-0.0208507 0.682931 0)
(-0.0202773 0.557911 0)
(-0.0178224 0.469579 0)
(-0.0124343 0.331463 0)
(-0.000516952 0.252844 0)
(-1.87689e-05 0.254287 0)
(0.00265962 0.331553 0)
(-0.00114301 0.467319 0)
(-0.00429289 0.567702 0)
(-0.0112592 0.689845 0)
(-0.00427021 0.848208 0)
(0.00921412 0.941464 0)
(0.0194305 0.983519 0)
(0.0227587 0.995018 0)
(0.0214986 0.992904 0)
(0.0175002 0.981562 0)
(0.0126511 0.969096 0)
(0.00784569 0.956946 0)
(0.00350751 0.948719 0)
(-0.000511078 0.944251 0)
(-0.00441003 0.944309 0)
(-0.00841981 0.948179 0)
(-0.0127943 0.956776 0)
(-0.0176281 0.968116 0)
(-0.0227179 0.981573 0)
(-0.0269963 0.991322 0)
(-0.0291237 0.995026 0)
(-0.0267221 0.980829 0)
(-0.0182055 0.940098 0)
(-0.00523465 0.84142 0)
(0.00349816 0.678569 0)
(0.000607359 0.558395 0)
(0.00178577 0.464417 0)
(0.00429903 0.331056 0)
(0.00482348 0.255246 0)
(0.000963285 0.254727 0)
(-0.00612669 0.341092 0)
(-0.0171831 0.470742 0)
(-0.0216816 0.575888 0)
(-0.0296743 0.690104 0)
(-0.0221613 0.836591 0)
(-0.00714093 0.931604 0)
(0.00401083 0.977993 0)
(0.0093894 0.996897 0)
(0.0101285 0.996793 0)
(0.00829783 0.988712 0)
(0.00549044 0.975986 0)
(0.00277149 0.96434 0)
(0.000462139 0.955447 0)
(-0.00148198 0.951183 0)
(-0.0032955 0.950936 0)
(-0.00524038 0.955255 0)
(-0.00752681 0.963726 0)
(-0.0102889 0.975799 0)
(-0.0131706 0.987871 0)
(-0.0153163 0.997181 0)
(-0.0150157 0.995975 0)
(-0.010788 0.978738 0)
(-0.000787086 0.929604 0)
(0.0130023 0.831132 0)
(0.02081 0.678104 0)
(0.0135671 0.56523 0)
(0.0126834 0.462369 0)
(0.0138838 0.335467 0)
(0.00446949 0.267029 0)
(0.000541895 0.258927 0)
(-0.012523 0.360578 0)
(-0.0309312 0.478866 0)
(-0.0353708 0.585194 0)
(-0.0413705 0.691892 0)
(-0.0335531 0.825578 0)
(-0.0180308 0.920972 0)
(-0.00647814 0.973836 0)
(-0.000134797 0.996092 0)
(0.0022294 1.00064 0)
(0.00205317 0.993546 0)
(0.000906272 0.98198 0)
(-0.000379169 0.969892 0)
(-0.00134581 0.961031 0)
(-0.00200552 0.956367 0)
(-0.0025359 0.95632 0)
(-0.00316286 0.960704 0)
(-0.00409012 0.969555 0)
(-0.00526639 0.981348 0)
(-0.00638325 0.993491 0)
(-0.0064607 1.0001 0)
(-0.00421828 0.997086 0)
(0.00180828 0.973996 0)
(0.0125419 0.921306 0)
(0.0271337 0.821005 0)
(0.0328808 0.681202 0)
(0.0216676 0.57699 0)
(0.0203584 0.46505 0)
(0.0121111 0.347755 0)
(0.00128497 0.280774 0)
(-0.00647975 0.268753 0)
(-0.01971 0.384486 0)
(-0.0385286 0.49049 0)
(-0.0457776 0.59143 0)
(-0.0477365 0.692759 0)
(-0.0406998 0.815189 0)
(-0.0252265 0.912302 0)
(-0.0138389 0.96886 0)
(-0.00671722 0.996007 0)
(-0.0031575 1.00268 0)
(-0.0018588 0.997851 0)
(-0.00171114 0.986631 0)
(-0.00194998 0.974871 0)
(-0.00213542 0.96583 0)
(-0.00215671 0.961228 0)
(-0.00210673 0.961099 0)
(-0.00208081 0.965505 0)
(-0.00214713 0.97432 0)
(-0.00219083 0.986098 0)
(-0.00171298 0.997072 0)
(5.85129e-05 1.00265 0)
(0.00431292 0.995822 0)
(0.0119914 0.969918 0)
(0.0239387 0.912254 0)
(0.039505 0.81213 0)
(0.0421301 0.688695 0)
(0.0311016 0.590186 0)
(0.0267073 0.473501 0)
(0.00751116 0.368501 0)
(-0.00604056 0.285351 0)
(-0.0161803 0.290361 0)
(-0.030819 0.403297 0)
(-0.0421004 0.503429 0)
(-0.0505163 0.59522 0)
(-0.0498663 0.695408 0)
(-0.0438305 0.806415 0)
(-0.0300988 0.904107 0)
(-0.0190453 0.964943 0)
(-0.0115418 0.994817 0)
(-0.00686877 1.00453 0)
(-0.00429775 1.00093 0)
(-0.00295499 0.990779 0)
(-0.0023296 0.979315 0)
(-0.00205367 0.970311 0)
(-0.00200125 0.965671 0)
(-0.00200831 0.965514 0)
(-0.00189242 0.9699 0)
(-0.00146223 0.978624 0)
(-0.000502917 0.989808 0)
(0.00137279 0.999919 0)
(0.00490317 1.00324 0)
(0.0109592 0.99419 0)
(0.020405 0.964252 0)
(0.0338381 0.903581 0)
(0.0492582 0.804331 0)
(0.0499035 0.698124 0)
(0.0424913 0.601648 0)
(0.0297719 0.49103 0)
(0.00546062 0.396816 0)
(-0.00372701 0.283659 0)
(-0.0251168 0.326722 0)
(-0.0429729 0.41415 0)
(-0.045614 0.515465 0)
(-0.0481735 0.598164 0)
(-0.0458857 0.698024 0)
(-0.0432189 0.801506 0)
(-0.0335333 0.898075 0)
(-0.0232965 0.960926 0)
(-0.0154589 0.993852 0)
(-0.00982154 1.00521 0)
(-0.00593329 1.00331 0)
(-0.00338072 0.99412 0)
(-0.00195 0.983212 0)
(-0.00152888 0.974715 0)
(-0.0017311 0.970294 0)
(-0.00209855 0.970163 0)
(-0.00223365 0.974186 0)
(-0.00162133 0.982316 0)
(0.000177938 0.992757 0)
(0.00341793 1.0014 0)
(0.0084883 1.00286 0)
(0.016083 0.991023 0)
(0.0267621 0.95821 0)
(0.0413352 0.894171 0)
(0.0546482 0.799055 0)
(0.0548527 0.705746 0)
(0.0504996 0.610466 0)
(0.0306358 0.512399 0)
(0.0108138 0.415431 0)
(0.00547391 0.290868 0)
(-0.0263868 0.377691 0)
(-0.0498174 0.425769 0)
(-0.0417581 0.518996 0)
(-0.03654 0.601276 0)
(-0.0372558 0.703688 0)
(-0.040199 0.803652 0)
(-0.036349 0.894142 0)
(-0.0274833 0.958155 0)
(-0.0193708 0.9923 0)
(-0.0126372 1.00527 0)
(-0.0073587 1.00464 0)
(-0.00361995 0.99646 0)
(-0.00166039 0.986774 0)
(-0.00123391 0.979258 0)
(-0.001592 0.97531 0)
(-0.00214055 0.97514 0)
(-0.00244208 0.978624 0)
(-0.00184001 0.985613 0)
(0.000462506 0.99462 0)
(0.00482881 1.00183 0)
(0.0112827 1.00135 0)
(0.0199784 0.987348 0)
(0.0312483 0.951617 0)
(0.045395 0.88517 0)
(0.054166 0.797893 0)
(0.0545421 0.711575 0)
(0.0528811 0.618116 0)
(0.038642 0.53329 0)
(0.0266109 0.428022 0)
(0.0197558 0.310414 0)
(-0.0220454 0.419189 0)
(-0.0371564 0.429467 0)
(-0.023337 0.51752 0)
(-0.0218562 0.61541 0)
(-0.02902 0.718587 0)
(-0.0373798 0.813513 0)
(-0.0393839 0.893652 0)
(-0.0324538 0.955675 0)
(-0.023848 0.990278 0)
(-0.0158247 1.00413 0)
(-0.0092066 1.00463 0)
(-0.00460486 0.998106 0)
(-0.00225753 0.990163 0)
(-0.00155372 0.983673 0)
(-0.0016758 0.979969 0)
(-0.00202607 0.97981 0)
(-0.00211257 0.982935 0)
(-0.00127836 0.988837 0)
(0.00133873 0.995893 0)
(0.00635205 1.00109 0)
(0.0137857 0.998952 0)
(0.0232804 0.983126 0)
(0.0344857 0.945515 0)
(0.0455127 0.879588 0)
(0.0474407 0.801593 0)
(0.0455506 0.715677 0)
(0.0459406 0.623295 0)
(0.0468741 0.545231 0)
(0.045513 0.436003 0)
(0.0306873 0.352213 0)
(-0.0110476 0.448755 0)
(-0.0106994 0.427617 0)
(-0.00531822 0.524917 0)
(-0.0119971 0.632798 0)
(-0.0260646 0.735195 0)
(-0.0382738 0.828276 0)
(-0.0435126 0.896868 0)
(-0.0381672 0.953579 0)
(-0.0291071 0.987169 0)
(-0.0198494 1.00173 0)
(-0.0121829 1.0037 0)
(-0.00689786 0.999286 0)
(-0.00384044 0.992994 0)
(-0.0024292 0.987429 0)
(-0.00194541 0.984174 0)
(-0.00175908 0.983997 0)
(-0.00127667 0.986658 0)
(0.000178805 0.99151 0)
(0.00333797 0.996836 0)
(0.00879124 0.999784 0)
(0.0167108 0.995771 0)
(0.0265274 0.978514 0)
(0.0368056 0.940739 0)
(0.0428804 0.880161 0)
(0.0373743 0.812635 0)
(0.0315772 0.723569 0)
(0.0306185 0.630085 0)
(0.0405561 0.543518 0)
(0.0505927 0.445005 0)
(0.029049 0.403819 0)
(0.00679661 0.45244 0)
(0.00540254 0.42745 0)
(0.000743358 0.543311 0)
(-0.0179474 0.661719 0)
(-0.0360787 0.755583 0)
(-0.0463822 0.844035 0)
(-0.0505575 0.902069 0)
(-0.0448442 0.951915 0)
(-0.0351405 0.983312 0)
(-0.0249365 0.998267 0)
(-0.016395 1.002 0)
(-0.0101366 0.999497 0)
(-0.00605697 0.994687 0)
(-0.00366239 0.990198 0)
(-0.00233241 0.987476 0)
(-0.001364 0.987322 0)
(-6.79826e-05 0.98943 0)
(0.00226878 0.993203 0)
(0.00624953 0.997 0)
(0.0122619 0.998084 0)
(0.0204103 0.992229 0)
(0.0300497 0.974268 0)
(0.0386973 0.938553 0)
(0.0406824 0.886281 0)
(0.0311378 0.828727 0)
(0.0214406 0.737504 0)
(0.00959563 0.643716 0)
(0.0121368 0.537032 0)
(0.0283375 0.442712 0)
(0.0238521 0.441586 0)
(0.0104452 0.444213 0)
(0.00895368 0.440465 0)
(-0.00819071 0.565447 0)
(-0.0245489 0.687956 0)
(-0.0453402 0.77185 0)
(-0.0534102 0.855752 0)
(-0.0569557 0.906764 0)
(-0.0513368 0.949581 0)
(-0.0411271 0.978817 0)
(-0.0303634 0.99392 0)
(-0.0209347 0.999151 0)
(-0.0136444 0.998437 0)
(-0.00847689 0.995265 0)
(-0.00506051 0.991949 0)
(-0.00277306 0.989855 0)
(-0.000880147 0.989711 0)
(0.00134186 0.991274 0)
(0.00460348 0.993898 0)
(0.00945735 0.996215 0)
(0.0161653 0.995624 0)
(0.0246044 0.988496 0)
(0.0339211 0.970692 0)
(0.0412571 0.938674 0)
(0.0419234 0.895183 0)
(0.034179 0.846276 0)
(0.0242076 0.755493 0)
(0.00551993 0.67066 0)
(-0.00465785 0.544304 0)
(0.00675522 0.436156 0)
(0.00965227 0.466958 0)
(0.0112494 0.432465 0)
(0.0131861 0.458915 0)
(-0.010819 0.58483 0)
(-0.0297676 0.706388 0)
(-0.0502201 0.787337 0)
(-0.0579174 0.865087 0)
(-0.0608001 0.910712 0)
(-0.0561516 0.946247 0)
(-0.0458545 0.973694 0)
(-0.0350024 0.98877 0)
(-0.0249824 0.99518 0)
(-0.0168839 0.996252 0)
(-0.0108229 0.994721 0)
(-0.00646572 0.992642 0)
(-0.00321434 0.991193 0)
(-0.00036077 0.991091 0)
(0.00279803 0.992081 0)
(0.00692725 0.993614 0)
(0.0125552 0.994474 0)
(0.0199349 0.992496 0)
(0.0287655 0.984552 0)
(0.0380171 0.967376 0)
(0.0451499 0.939458 0)
(0.0461943 0.904231 0)
(0.0414843 0.858615 0)
(0.0320821 0.773397 0)
(0.0117393 0.699088 0)
(-0.000367481 0.557145 0)
(-0.00160887 0.428227 0)
(0.00116155 0.471032 0)
(0.00929882 0.409117 0)
(0.0274679 0.474317 0)
(-0.00841558 0.607349 0)
(-0.0355066 0.725644 0)
(-0.0538899 0.801906 0)
(-0.0607399 0.872473 0)
(-0.0619768 0.914112 0)
(-0.0582824 0.942723 0)
(-0.0487195 0.968001 0)
(-0.0381214 0.98296 0)
(-0.0280829 0.990495 0)
(-0.0195892 0.993166 0)
(-0.0129059 0.993185 0)
(-0.00775434 0.992247 0)
(-0.00361273 0.991443 0)
(0.000153665 0.99137 0)
(0.00418312 0.991866 0)
(0.00906252 0.992402 0)
(0.0152906 0.991949 0)
(0.0230906 0.988695 0)
(0.0321713 0.980152 0)
(0.0412156 0.963952 0)
(0.0482706 0.939478 0)
(0.0494445 0.911183 0)
(0.0462889 0.867184 0)
(0.0375468 0.789778 0)
(0.0193212 0.715861 0)
(0.0149735 0.570743 0)
(-0.00279147 0.439833 0)
(-0.00255979 0.474096 0)
(0.00363131 0.387546 0)
(0.0266484 0.477733 0)
(-0.00234609 0.637223 0)
(-0.0375803 0.743685 0)
(-0.0561778 0.814932 0)
(-0.0610212 0.877962 0)
(-0.0604015 0.916563 0)
(-0.0575386 0.939766 0)
(-0.0493354 0.962448 0)
(-0.0395832 0.977132 0)
(-0.030029 0.985452 0)
(-0.021569 0.98948 0)
(-0.0145494 0.990818 0)
(-0.00880344 0.990909 0)
(-0.00392245 0.990665 0)
(0.000625072 0.99065 0)
(0.00538641 0.99071 0)
(0.0108546 0.990411 0)
(0.017451 0.988791 0)
(0.0253378 0.984396 0)
(0.034164 0.975439 0)
(0.042601 0.960312 0)
(0.0490285 0.938832 0)
(0.0500681 0.916269 0)
(0.0486106 0.87352 0)
(0.0413773 0.804058 0)
(0.0264825 0.725665 0)
(0.0173549 0.58168 0)
(-0.0078565 0.458635 0)
(-0.00482705 0.464076 0)
(-0.000540833 0.374437 0)
(0.0213833 0.476418 0)
(-0.00246895 0.671858 0)
(-0.0335032 0.769586 0)
(-0.054588 0.825911 0)
(-0.0578839 0.881077 0)
(-0.0564117 0.917911 0)
(-0.0541773 0.937879 0)
(-0.0478514 0.957605 0)
(-0.0393846 0.971702 0)
(-0.0307075 0.980467 0)
(-0.0226417 0.985463 0)
(-0.0155834 0.987872 0)
(-0.009498 0.988804 0)
(-0.00410224 0.989056 0)
(0.00101576 0.989086 0)
(0.0062973 0.988801 0)
(0.0121319 0.987811 0)
(0.0188183 0.985278 0)
(0.0264085 0.98004 0)
(0.0344506 0.970955 0)
(0.0417905 0.956986 0)
(0.0469967 0.9381 0)
(0.0483018 0.919259 0)
(0.0497182 0.877625 0)
(0.0462259 0.815575 0)
(0.0333924 0.73669 0)
(0.0162151 0.593207 0)
(-0.0180031 0.476135 0)
(-0.00372442 0.445726 0)
(0.00862778 0.366469 0)
(0.0130182 0.475282 0)
(-0.00477058 0.688241 0)
(-0.0245934 0.795561 0)
(-0.0477988 0.835466 0)
(-0.0515002 0.883187 0)
(-0.0504154 0.918624 0)
(-0.0487515 0.937148 0)
(-0.0443991 0.953796 0)
(-0.0375506 0.967033 0)
(-0.0300503 0.975838 0)
(-0.0226814 0.981418 0)
(-0.0158877 0.984592 0)
(-0.00975675 0.986178 0)
(-0.00412572 0.986838 0)
(0.00129476 0.986916 0)
(0.0068285 0.986347 0)
(0.0127516 0.984842 0)
(0.0192276 0.981669 0)
(0.0261629 0.975983 0)
(0.033028 0.967108 0)
(0.0389414 0.954392 0)
(0.0426818 0.937974 0)
(0.0445229 0.920086 0)
(0.0480405 0.878794 0)
(0.0476724 0.823533 0)
(0.0363458 0.749675 0)
(0.0140114 0.616856 0)
(-0.0211705 0.486365 0)
(-0.00108594 0.427006 0)
(0.0122537 0.356359 0)
(0.00482429 0.494054 0)
(-0.0154577 0.701655 0)
(-0.0216396 0.820147 0)
(-0.0412349 0.846155 0)
(-0.0450478 0.885724 0)
(-0.043821 0.919197 0)
(-0.042251 0.937169 0)
(-0.0393648 0.95131 0)
(-0.0342385 0.963371 0)
(-0.028089 0.971853 0)
(-0.0216703 0.977641 0)
(-0.015432 0.981282 0)
(-0.00955333 0.983312 0)
(-0.00398711 0.984245 0)
(0.00144207 0.984364 0)
(0.00693658 0.983615 0)
(0.0126512 0.981768 0)
(0.018614 0.978255 0)
(0.0245963 0.972524 0)
(0.030054 0.964204 0)
(0.0343703 0.952695 0)
(0.0367512 0.93836 0)
(0.0386014 0.919736 0)
(0.0420666 0.878685 0)
(0.0416116 0.829735 0)
(0.0292654 0.765257 0)
(0.00949705 0.640777 0)
(-0.0204057 0.493579 0)
(-0.00294716 0.411356 0)
(0.00381428 0.352484 0)
(-0.00570966 0.522018 0)
(-0.0261078 0.70807 0)
(-0.0247809 0.835365 0)
(-0.0364276 0.856853 0)
(-0.0395043 0.888192 0)
(-0.0375994 0.919462 0)
(-0.0355541 0.937557 0)
(-0.0334233 0.950087 0)
(-0.0297669 0.960874 0)
(-0.0250194 0.968776 0)
(-0.0197349 0.974444 0)
(-0.0142964 0.978247 0)
(-0.00893482 0.980512 0)
(-0.00370701 0.981588 0)
(0.00145553 0.981733 0)
(0.00663893 0.980904 0)
(0.0118769 0.9789 0)
(0.0170785 0.975356 0)
(0.0219283 0.969956 0)
(0.0259362 0.962459 0)
(0.028757 0.952135 0)
(0.0299041 0.939372 0)
(0.0311489 0.919661 0)
(0.0328382 0.879824 0)
(0.028927 0.83742 0)
(0.0150169 0.781305 0)
(3.89619e-05 0.657716 0)
(-0.0184463 0.498856 0)
(-0.00813924 0.395096 0)
(-0.00553404 0.35953 0)
(-0.0163983 0.547001 0)
(-0.0344378 0.710273 0)
(-0.0302845 0.840489 0)
(-0.0332438 0.865154 0)
(-0.0347084 0.890192 0)
(-0.0318256 0.919305 0)
(-0.0291305 0.938053 0)
(-0.0272722 0.949857 0)
(-0.0246541 0.959551 0)
(-0.0211922 0.966797 0)
(-0.0171222 0.972086 0)
(-0.0126469 0.975766 0)
(-0.00799878 0.978057 0)
(-0.00332032 0.979199 0)
(0.00135698 0.979344 0)
(0.00601562 0.978505 0)
(0.0105816 0.976534 0)
(0.0148745 0.973229 0)
(0.0185679 0.968419 0)
(0.0213316 0.961851 0)
(0.0229731 0.95271 0)
(0.0231688 0.941238 0)
(0.0237774 0.920772 0)
(0.0230051 0.884419 0)
(0.0159511 0.849557 0)
(0.00291227 0.798463 0)
(-0.0073744 0.672902 0)
(-0.0187229 0.506033 0)
(-0.00762042 0.380831 0)
(-0.0162266 0.378163 0)
(-0.0313183 0.564883 0)
(-0.0456793 0.713327 0)
(-0.039829 0.83523 0)
(-0.0314233 0.868516 0)
(-0.0295007 0.890474 0)
(-0.0255522 0.918893 0)
(-0.0227296 0.938629 0)
(-0.0211428 0.950421 0)
(-0.0194365 0.95933 0)
(-0.0170895 0.965935 0)
(-0.0141541 0.970695 0)
(-0.0106892 0.97403 0)
(-0.00686606 0.976167 0)
(-0.00287026 0.977275 0)
(0.00117949 0.977411 0)
(0.00518017 0.976632 0)
(0.00897881 0.974853 0)
(0.0123597 0.971975 0)
(0.0150815 0.967865 0)
(0.0169268 0.962226 0)
(0.0177082 0.954262 0)
(0.0174037 0.943899 0)
(0.0173374 0.923349 0)
(0.014104 0.89254 0)
(0.00454323 0.863806 0)
(-0.00541241 0.811924 0)
(-0.0119958 0.683135 0)
(-0.0174576 0.508398 0)
(-0.00456842 0.369575 0)
(-0.0253316 0.414568 0)
(-0.0480198 0.578924 0)
(-0.0600437 0.71475 0)
(-0.0500284 0.820967 0)
(-0.0289203 0.864662 0)
(-0.0213431 0.889114 0)
(-0.0171467 0.919304 0)
(-0.0157744 0.939668 0)
(-0.0150279 0.951893 0)
(-0.0144142 0.960146 0)
(-0.0131497 0.96613 0)
(-0.0112236 0.970289 0)
(-0.00868854 0.973139 0)
(-0.00568748 0.974983 0)
(-0.00241407 0.975955 0)
(0.00095467 0.97608 0)
(0.00426369 0.975407 0)
(0.00733205 0.973925 0)
(0.00995154 0.971552 0)
(0.011949 0.968144 0)
(0.0131365 0.963424 0)
(0.0133559 0.956608 0)
(0.0128774 0.94711 0)
(0.0118065 0.927742 0)
(0.00633609 0.903346 0)
(-0.00482408 0.878065 0)
(-0.0114718 0.81958 0)
(-0.0130617 0.688259 0)
(-0.0129634 0.506116 0)
(9.84547e-07 0.364352 0)
(-0.0278652 0.466171 0)
(-0.0657403 0.600722 0)
(-0.078078 0.720385 0)
(-0.0572692 0.79975 0)
(-0.0252486 0.851098 0)
(-0.00789117 0.883678 0)
(-0.00521253 0.922286 0)
(-0.00761733 0.94231 0)
(-0.00889966 0.954727 0)
(-0.00975782 0.962244 0)
(-0.0096398 0.967354 0)
(-0.00862407 0.970798 0)
(-0.00688469 0.973076 0)
(-0.00461306 0.974547 0)
(-0.00201209 0.975322 0)
(0.000713968 0.975426 0)
(0.00339258 0.97487 0)
(0.00584499 0.97371 0)
(0.0078822 0.971834 0)
(0.00934766 0.969101 0)
(0.0100629 0.965263 0)
(0.0099485 0.959458 0)
(0.0092459 0.950749 0)
(0.0067459 0.934097 0)
(-0.000759792 0.915537 0)
(-0.0117803 0.891066 0)
(-0.0155579 0.822764 0)
(-0.0125772 0.687347 0)
(-0.00541024 0.500128 0)
(0.0040375 0.366405 0)
(-0.0273281 0.518698 0)
(-0.0747351 0.634821 0)
(-0.0858021 0.715943 0)
(-0.0496194 0.772053 0)
(-0.0114137 0.831157 0)
(0.00722662 0.880237 0)
(0.00934718 0.930475 0)
(0.00119268 0.948376 0)
(-0.00336766 0.959462 0)
(-0.0059035 0.965545 0)
(-0.00682679 0.969551 0)
(-0.00655484 0.972096 0)
(-0.00543026 0.973732 0)
(-0.00374168 0.974786 0)
(-0.00170475 0.975333 0)
(0.000480075 0.975394 0)
(0.00263736 0.974954 0)
(0.00460242 0.974084 0)
(0.00621149 0.97266 0)
(0.00728627 0.970568 0)
(0.00767235 0.967534 0)
(0.00731017 0.96264 0)
(0.00604749 0.955024 0)
(0.00192303 0.942203 0)
(-0.00716504 0.928194 0)
(-0.0169314 0.901652 0)
(-0.0187585 0.824156 0)
(-0.0105133 0.681513 0)
(0.00201728 0.493477 0)
(0.00571909 0.376971 0)
(-0.0258183 0.558096 0)
(-0.0634332 0.663614 0)
(-0.0522947 0.686301 0)
(-0.0175397 0.752109 0)
(0.00824015 0.817718 0)
(0.0202521 0.879359 0)
(0.0182316 0.942014 0)
(0.00741449 0.95842 0)
(0.000261177 0.966001 0)
(-0.00339893 0.970097 0)
(-0.00501354 0.972399 0)
(-0.00515757 0.973931 0)
(-0.00441296 0.97492 0)
(-0.00312547 0.97555 0)
(-0.00150682 0.975861 0)
(0.000266845 0.975863 0)
(0.00202478 0.975524 0)
(0.00362705 0.974893 0)
(0.00492638 0.973878 0)
(0.00571735 0.972401 0)
(0.00588853 0.970087 0)
(0.00526735 0.966133 0)
(0.00322897 0.960168 0)
(-0.00222749 0.951459 0)
(-0.0114547 0.940381 0)
(-0.0201911 0.910734 0)
(-0.0213479 0.823608 0)
(-0.008646 0.672472 0)
(0.00754233 0.487574 0)
(0.00595385 0.391137 0)
(-0.0309742 0.584752 0)
(-0.036071 0.674469 0)
(-0.018375 0.66526 0)
(0.00719968 0.742386 0)
(0.0160703 0.817614 0)
(0.0182179 0.88588 0)
(0.0130652 0.953667 0)
(0.00639953 0.970549 0)
(-4.4586e-05 0.973251 0)
(-0.00298559 0.974928 0)
(-0.00433728 0.97569 0)
(-0.00452773 0.976031 0)
(-0.00388371 0.976391 0)
(-0.00278731 0.976638 0)
(-0.00141748 0.976727 0)
(8.4502e-05 0.976674 0)
(0.00156716 0.976424 0)
(0.0029166 0.975994 0)
(0.00399142 0.97536 0)
(0.004596 0.974454 0)
(0.0046515 0.972771 0)
(0.00379501 0.969961 0)
(0.00115392 0.966146 0)
(-0.00458229 0.960947 0)
(-0.0122301 0.951013 0)
(-0.0203125 0.919983 0)
(-0.0222997 0.824742 0)
(-0.011446 0.662374 0)
(0.00500814 0.481707 0)
(0.00607944 0.403754 0)
(-0.0309123 0.604887 0)
(-0.0183021 0.650433 0)
(0.011024 0.645067 0)
(0.0224558 0.741928 0)
(0.0129609 0.826724 0)
(0.00460626 0.895001 0)
(0.000319333 0.959779 0)
(-0.000348221 0.980041 0)
(-0.00350015 0.978862 0)
(-0.00448521 0.978935 0)
(-0.00484708 0.978644 0)
(-0.00459425 0.978123 0)
(-0.00381125 0.977901 0)
(-0.00270237 0.97785 0)
(-0.00141908 0.977775 0)
(-6.34107e-05 0.977689 0)
(0.00125394 0.977525 0)
(0.00244097 0.977278 0)
(0.00336969 0.976995 0)
(0.00389774 0.976585 0)
(0.00394598 0.975519 0)
(0.00302855 0.973994 0)
(0.000345662 0.972205 0)
(-0.00414948 0.969239 0)
(-0.00914812 0.959714 0)
(-0.0149336 0.929285 0)
(-0.0179883 0.828292 0)
(-0.014065 0.658217 0)
(-0.00427783 0.475536 0)
(0.00319669 0.411663 0)
(-0.0218999 0.625199 0)
(0.00412803 0.621267 0)
(0.0301937 0.632134 0)
(0.0264457 0.751295 0)
(0.00684482 0.844198 0)
(-0.0103087 0.902531 0)
(-0.0109297 0.961939 0)
(-0.00810737 0.98444 0)
(-0.00757853 0.9821 0)
(-0.00675264 0.981588 0)
(-0.00599374 0.980765 0)
(-0.00507558 0.979846 0)
(-0.00399408 0.979281 0)
(-0.00276763 0.979052 0)
(-0.00147453 0.9789 0)
(-0.000179856 0.978822 0)
(0.00104967 0.978742 0)
(0.00214624 0.978674 0)
(0.00300965 0.978699 0)
(0.00356158 0.978677 0)
(0.00370286 0.978213 0)
(0.00300214 0.977795 0)
(0.00094863 0.977576 0)
(-0.00131315 0.974866 0)
(-0.00387296 0.966465 0)
(-0.00609003 0.934897 0)
(-0.011177 0.83509 0)
(-0.00943358 0.66121 0)
(-0.0111784 0.472397 0)
(-0.00461948 0.409267 0)
(-0.00250906 0.628121 0)
(0.0350687 0.59903 0)
(0.0371703 0.630846 0)
(0.0256908 0.770131 0)
(-0.00237475 0.863583 0)
(-0.0189067 0.907981 0)
(-0.0175298 0.961848 0)
(-0.0134289 0.984398 0)
(-0.0105472 0.983192 0)
(-0.00867422 0.982931 0)
(-0.00706868 0.981998 0)
(-0.00557456 0.981067 0)
(-0.00420357 0.980485 0)
(-0.00285691 0.980208 0)
(-0.00153431 0.980056 0)
(-0.000263416 0.980022 0)
(0.000920981 0.980034 0)
(0.00197474 0.98013 0)
(0.00283595 0.980405 0)
(0.00346865 0.98067 0)
(0.00376588 0.980676 0)
(0.00344054 0.981103 0)
(0.00246284 0.981697 0)
(0.00229962 0.978175 0)
(0.00131282 0.971498 0)
(0.00151252 0.937682 0)
(-0.0018597 0.841585 0)
(-0.00348664 0.66866 0)
(-0.0152656 0.479096 0)
(-0.00767594 0.398312 0)
(0.0171486 0.604505 0)
(0.0697343 0.58812 0)
(0.0469228 0.645624 0)
(0.013953 0.790348 0)
(-0.0114881 0.883611 0)