/*--------------------------------*- C++ -*----------------------------------*\
| =========                 |                                                 |
| \\      /  F ield         | OpenFOAM: The Open Source CFD Toolbox           |
|  \\    /   O peration     | Version:  2.3.0                                 |
|   \\  /    A nd           | Web:      www.OpenFOAM.org                      |
|    \\/     M anipulation  |                                                 |
\*---------------------------------------------------------------------------*/
FoamFile
{
    version     2.0;
    format      ascii;
    class       volScalarField;
    location    "1.5";
    object      alpha.particlesMean;
}
// * * * * * * * * * * * * * * * * * * * * * * * * * * * * * * * * * * * * * //

dimensions      [0 0 0 0 0 0 0];

internalField   nonuniform List<scalar> 
6000
(
0.415696
0.42578
0.42569
0.423661
0.42163
0.411936
0.413059
0.410303
0.413321
0.412529
0.411677
0.413932
0.409099
0.408095
0.416235
0.419875
0.420808
0.417137
0.416678
0.421356
0.423224
0.420323
0.419854
0.425161
0.427363
0.427627
0.426407
0.417854
0.417642
0.418325
0.394373
0.394822
0.395185
0.389357
0.381835
0.380562
0.381616
0.380285
0.378186
0.383116
0.384786
0.381228
0.379703
0.377181
0.382522
0.393124
0.391595
0.38537
0.385033
0.384413
0.387421
0.390256
0.391514
0.393792
0.38908
0.389309
0.38973
0.390277
0.389344
0.398915
0.398206
0.400196
0.397997
0.386407
0.385493
0.388231
0.386761
0.379857
0.379423
0.388745
0.389731
0.38163
0.377291
0.376125
0.382578
0.391699
0.391387
0.386473
0.383996
0.385955
0.387751
0.38788
0.388002
0.382537
0.381506
0.389443
0.396208
0.394995
0.390286
0.402937
0.398524
0.39601
0.388952
0.380529
0.38571
0.387323
0.3827
0.378234
0.378266
0.388677
0.391115
0.379238
0.373183
0.372737
0.376819
0.383194
0.386073
0.381809
0.380634
0.383498
0.382659
0.379928
0.373831
0.365072
0.372723
0.382051
0.394385
0.392322
0.383831
0.401267
0.394219
0.392052
0.378314
0.377966
0.384472
0.383369
0.375851
0.37359
0.376301
0.386453
0.387582
0.374362
0.365582
0.360732
0.365978
0.375333
0.384509
0.379243
0.381032
0.381968
0.379509
0.37315
0.363541
0.360617
0.367648
0.377747
0.390416
0.38927
0.376426
0.392981
0.390384
0.387649
0.37587
0.377576
0.382322
0.378526
0.369224
0.368881
0.372547
0.379162
0.379851
0.365431
0.352984
0.354198
0.36346
0.378878
0.385839
0.380618
0.37958
0.379069
0.373965
0.365679
0.36011
0.357748
0.364445
0.37521
0.389657
0.38479
0.368918
0.384956
0.386736
0.382787
0.377779
0.375355
0.378178
0.374413
0.363784
0.364075
0.364906
0.371971
0.370612
0.356127
0.349724
0.356929
0.369052
0.386787
0.389735
0.374878
0.375094
0.373958
0.370703
0.365269
0.359543
0.357241
0.364623
0.376495
0.386745
0.381886
0.361531
0.378812
0.382606
0.384766
0.377415
0.371553
0.373671
0.371866
0.361012
0.357781
0.35912
0.365702
0.361693
0.350009
0.353038
0.361894
0.376365
0.392381
0.382319
0.373611
0.374905
0.375037
0.371899
0.366226
0.360882
0.362417
0.370853
0.37815
0.38207
0.373893
0.354712
0.374832
0.386838
0.388616
0.376629
0.367741
0.371966
0.37125
0.362724
0.355295
0.353125
0.357022
0.353725
0.349307
0.357013
0.366581
0.383909
0.391483
0.37666
0.372542
0.375398
0.378131
0.375472
0.37025
0.36894
0.372533
0.376894
0.381453
0.377739
0.365326
0.351155
0.374399
0.39313
0.390641
0.374622
0.365533
0.371652
0.373376
0.367725
0.354166
0.348712
0.348863
0.350121
0.353142
0.361258
0.369892
0.385614
0.38666
0.373133
0.371938
0.377376
0.381623
0.380152
0.378891
0.381366
0.382812
0.384629
0.382901
0.373298
0.359731
0.35166
0.374816
0.398293
0.390245
0.371565
0.365079
0.370042
0.374525
0.369305
0.356706
0.345883
0.343198
0.351334
0.36121
0.363625
0.370575
0.383699
0.380408
0.373706
0.375217
0.383601
0.385248
0.387201
0.388677
0.391395
0.392994
0.3909
0.384088
0.369526
0.359559
0.356283
0.376882
0.40157
0.387738
0.365649
0.363149
0.366688
0.37044
0.36846
0.360598
0.345678
0.337463
0.352915
0.365707
0.364722
0.368539
0.377346
0.376518
0.375132
0.381223
0.386744
0.387894
0.393068
0.396481
0.400555
0.401602
0.39695
0.385052
0.370238
0.362531
0.365053
0.384612
0.402504
0.382883
0.360573
0.358379
0.359465
0.364374
0.36699
0.365687
0.344969
0.335124
0.34935
0.367666
0.364478
0.365468
0.371489
0.374385
0.378858
0.385722
0.385394
0.389837
0.398105
0.403831
0.408535
0.409628
0.402247
0.389826
0.374678
0.3705
0.376626
0.397152
0.40217
0.378441
0.358685
0.352517
0.352738
0.357665
0.364343
0.365378
0.347452
0.335831
0.346102
0.362933
0.365822
0.363821
0.368615
0.375606
0.383405
0.386609
0.383359
0.391975
0.403633
0.41139
0.414053
0.41389
0.406384
0.394282
0.383665
0.384316
0.394063
0.415771
0.402783
0.376653
0.358417
0.348468
0.346992
0.35154
0.358045
0.362602
0.349847
0.340256
0.342656
0.356048
0.365245
0.363063
0.368933
0.377574
0.387284
0.384924
0.382923
0.393274
0.409948
0.416883
0.414764
0.410757
0.403498
0.395181
0.39175
0.400503
0.41156
0.43565
0.404627
0.374772
0.360778
0.34724
0.343824
0.34504
0.351189
0.357679
0.35027
0.342165
0.341803
0.345348
0.36166
0.361452
0.369012
0.380248
0.387852
0.383606
0.382209
0.394248
0.409475
0.41137
0.401815
0.39123
0.386626
0.387127
0.393773
0.407989
0.420554
0.447184
0.404972
0.372162
0.365921
0.35215
0.342707
0.342019
0.342435
0.353189
0.34992
0.34245
0.339789
0.339649
0.351988
0.358717
0.36862
0.381545
0.388035
0.383225
0.384038
0.395129
0.407748
0.405493
0.384446
0.371799
0.369746
0.380481
0.392444
0.409908
0.41948
0.446834
0.397984
0.37208
0.373407
0.361422
0.345198
0.342041
0.339571
0.345399
0.35111
0.342565
0.337885
0.335742
0.343131
0.3552
0.366907
0.381088
0.389131
0.387703
0.390569
0.401682
0.410423
0.402626
0.376944
0.365922
0.367151
0.381792
0.3969
0.41077
0.41569
0.44467
0.386499
0.374831
0.379845
0.372425
0.350274
0.344482
0.341066
0.339571
0.348119
0.345162
0.33644
0.333999
0.336208
0.350274
0.36473
0.378963
0.392758
0.396351
0.40033
0.40894
0.413928
0.401799
0.375094
0.362842
0.366499
0.381701
0.401845
0.410698
0.413547
0.445029
0.382033
0.377722
0.385258
0.381062
0.355296
0.347095
0.344096
0.340508
0.342268
0.345138
0.337655
0.331905
0.334218
0.346633
0.361858
0.375077
0.394308
0.406182
0.408028
0.412971
0.416272
0.401624
0.374753
0.360716
0.367435
0.379457
0.402211
0.408328
0.409436
0.444877
0.382557
0.379408
0.389784
0.388628
0.361354
0.350055
0.34708
0.343755
0.337842
0.34171
0.338141
0.330828
0.331728
0.344992
0.359127
0.37046
0.391124
0.4127
0.412962
0.418179
0.417468
0.402003
0.377074
0.361652
0.368303
0.37825
0.401852
0.405115
0.408783
0.443461
0.383026
0.382059
0.393733
0.394347
0.368651
0.353572
0.350777
0.3445
0.335278
0.335344
0.337868
0.33025
0.329794
0.340621
0.358465
0.366165
0.385372
0.415132
0.41846
0.421214
0.417728
0.403548
0.381734
0.364142
0.368533
0.378199
0.402834
0.406502
0.412878
0.447233
0.382995
0.385278
0.397894
0.400142
0.376256
0.357959
0.352721
0.343396
0.330032
0.330638
0.333881
0.331556
0.327803
0.337075
0.354883
0.361473
0.379075
0.415781
0.421885
0.421955
0.417455
0.405512
0.38675
0.368123
0.368208
0.380079
0.405802
0.412954
0.421499
0.453107
0.383553
0.386299
0.399955
0.407864
0.385153
0.362084
0.35348
0.340476
0.325411
0.325299
0.329247
0.331788
0.328596
0.335468
0.348309
0.356517
0.376933
0.413821
0.421822
0.42087
0.416636
0.404588
0.38989
0.373311
0.370601
0.383984
0.408682
0.422818
0.432797
0.458101
0.384012
0.384695
0.401495
0.416734
0.395192
0.364855
0.351351
0.337907
0.321735
0.321017
0.324719
0.330136
0.330543
0.335095
0.345392
0.352987
0.37706
0.409516
0.419613
0.418494
0.412328
0.399995
0.385888
0.375278
0.374195
0.389911
0.413582
0.431945
0.44238
0.461264
0.384583
0.382981
0.403429
0.423588
0.40495
0.367054
0.348012
0.333449
0.320072
0.316708
0.322082
0.327967
0.332474
0.336421
0.344899
0.354054
0.375248
0.403467
0.413037
0.408491
0.401408
0.387656
0.374962
0.367768
0.374068
0.395546
0.419391
0.435668
0.445704
0.464613
0.386022
0.384281
0.406679
0.428204
0.412113
0.369522
0.344594
0.329736
0.317352
0.315144
0.320528
0.327835
0.332295
0.338796
0.346074
0.357254
0.370113
0.393871
0.396136
0.389989
0.384382
0.373946
0.363476
0.360788
0.368525
0.394491
0.418766
0.431345
0.436966
0.462265
0.388286
0.389606
0.411287
0.430023
0.415826
0.371186
0.342508
0.325181
0.315937
0.313788
0.32008
0.327093
0.331741
0.339576
0.348902
0.356935
0.36345
0.381717
0.383288
0.378738
0.375025
0.366996
0.361088
0.361522
0.364855
0.392322
0.415067
0.424388
0.426291
0.445972
0.392243
0.395321
0.414959
0.430131
0.417066
0.371388
0.339112
0.321183
0.311899
0.312895
0.31876
0.325865
0.330468
0.337765
0.349979
0.354864
0.357137
0.37222
0.378189
0.373677
0.369931
0.366334
0.364578
0.365778
0.366508
0.394957
0.414119
0.422615
0.425391
0.439033
0.399231
0.39731
0.415132
0.428768
0.416709
0.370522
0.334763
0.314387
0.30724
0.310377
0.317332
0.324536
0.329105
0.335335
0.347904
0.353354
0.354667
0.37054
0.378178
0.372046
0.369644
0.36936
0.37116
0.368464
0.370618
0.400878
0.416006
0.423367
0.426082
0.435205
0.409391
0.397419
0.414411
0.424952
0.413617
0.370335
0.328568
0.307957
0.301855
0.30762
0.314611
0.322525
0.327345
0.333275
0.343858
0.351268
0.355435
0.374634
0.379597
0.372118
0.370779
0.374345
0.375424
0.371095
0.377141
0.407599
0.418495
0.423987
0.425222
0.431551
0.42008
0.400506
0.415105
0.419074
0.409016
0.36939
0.324149
0.302647
0.299174
0.304119
0.312341
0.320422
0.325153
0.330897
0.340368
0.350419
0.358417
0.380824
0.384164
0.373362
0.372719
0.377464
0.378115
0.373807
0.384055
0.413014
0.419926
0.423509
0.421858
0.428152
0.428511
0.406316
0.416941
0.413384
0.404176
0.370753
0.321768
0.300568
0.297173
0.302455
0.310569
0.318661
0.323802
0.329783
0.339201
0.350802
0.363931
0.388524
0.387445
0.37474
0.374245
0.379002
0.378997
0.375152
0.389128
0.4146
0.419822
0.421197
0.417376
0.425417
0.431411
0.413054
0.420105
0.411684
0.400895
0.372733
0.322106
0.299661
0.297889
0.301364
0.30983
0.31808
0.324056
0.331962
0.340146
0.353852
0.370345
0.393527
0.388461
0.374441
0.37551
0.379527
0.378344
0.374099
0.390783
0.414477
0.417865
0.417715
0.41118
0.423143
0.432093
0.417633
0.422795
0.412768
0.397704
0.376248
0.323947
0.301489
0.299623
0.302479
0.309561
0.318062
0.328074
0.336074
0.344158
0.357323
0.376979
0.396838
0.38904
0.374839
0.376923
0.379907
0.375571
0.370946
0.393486
0.416227
0.419741
0.416734
0.40743
0.419726
0.433835
0.418876
0.422118
0.413344
0.396542
0.378584
0.329597
0.303366
0.302717
0.30453
0.309246
0.319189
0.332763
0.34186
0.348402
0.361388
0.380446
0.398959
0.390179
0.375654
0.378926
0.378656
0.371834
0.370769
0.39985
0.422573
0.422031
0.41609
0.404653
0.415574
0.43497
0.416844
0.419856
0.413316
0.395564
0.382321
0.335201
0.308936
0.305378
0.307706
0.310301
0.321854
0.338714
0.34588
0.353611
0.36409
0.381814
0.398503
0.391649
0.376727
0.37988
0.376493
0.369348
0.37455
0.40938
0.427708
0.422278
0.414061
0.401239
0.411639
0.434069
0.416753
0.416077
0.408236
0.39464
0.385536
0.343057
0.31548
0.309445
0.311262
0.312504
0.327814
0.342904
0.349841
0.357265
0.368292
0.381467
0.396819
0.39253
0.377605
0.378664
0.374555
0.371408
0.38247
0.419073
0.429139
0.420802
0.41124
0.397553
0.408556
0.432222
0.420418
0.411967
0.401649
0.393505
0.389603
0.352033
0.323512
0.313786
0.314578
0.316265
0.332801
0.346687
0.351624
0.360891
0.371126
0.382562
0.39345
0.392496
0.37824
0.376254
0.374046
0.377434
0.392603
0.425315
0.427782
0.417958
0.406791
0.395864
0.405681
0.434459
0.426071
0.41176
0.395532
0.392798
0.39183
0.362388
0.331793
0.319308
0.318387
0.321145
0.338904
0.349422
0.355005
0.362501
0.374322
0.383852
0.389972
0.390828
0.378033
0.37316
0.376179
0.385939
0.402284
0.426609
0.42395
0.412338
0.403174
0.394711
0.403645
0.437335
0.429064
0.410793
0.392704
0.391695
0.393365
0.372559
0.34211
0.325253
0.322233
0.327819
0.345093
0.354405
0.358584
0.366746
0.376014
0.386153
0.386457
0.388085
0.377291
0.371765
0.380618
0.394883
0.408681
0.424865
0.418065
0.407735
0.401081
0.393253
0.404624
0.44063
0.426851
0.407481
0.392813
0.390535
0.39406
0.382322
0.352781
0.331988
0.326999
0.333697
0.352692
0.359942
0.365084
0.371323
0.379995
0.386524
0.384503
0.385274
0.37786
0.371855
0.384554
0.401392
0.410984
0.422485
0.413661
0.404497
0.398989
0.390569
0.406963
0.443788
0.421904
0.403023
0.392407
0.39012
0.396804
0.39008
0.363635
0.339276
0.331169
0.339975
0.358978
0.367089
0.370785
0.376998
0.38228
0.387963
0.383484
0.384422
0.379481
0.372692
0.386866
0.40432
0.412986
0.421071
0.410815
0.403654
0.398748
0.391231
0.409263
0.444946
0.414946
0.398317
0.391807
0.391862
0.399525
0.396694
0.370361
0.346203
0.334432
0.345403
0.364905
0.371165
0.375345
0.379219
0.384756
0.388175
0.384559
0.384818
0.382487
0.375467
0.389204
0.404676
0.414923
0.419683
0.410416
0.40409
0.399223
0.393145
0.411151
0.438732
0.40622
0.395112
0.392127
0.393864
0.400209
0.40026
0.373312
0.351629
0.337149
0.350171
0.369428
0.373435
0.375489
0.380813
0.385458
0.390163
0.386029
0.387015
0.387103
0.383214
0.39138
0.403939
0.417548
0.419612
0.410928
0.405807
0.401617
0.395957
0.413649
0.431168
0.398962
0.393443
0.393518
0.396081
0.399791
0.399897
0.374194
0.355768
0.341951
0.353232
0.373125
0.37268
0.376009
0.380959
0.387456
0.390364
0.38861
0.390121
0.393923
0.39191
0.393686
0.403915
0.420842
0.420863
0.414127
0.410108
0.406395
0.400266
0.417445
0.425707
0.396565
0.394427
0.396416
0.398214
0.399734
0.398588
0.375181
0.36045
0.34816
0.356902
0.374325
0.373408
0.374916
0.38264
0.387804
0.391717
0.390526
0.394101
0.397377
0.398289
0.396626
0.405748
0.425212
0.423979
0.419331
0.415858
0.411969
0.406014
0.421665
0.419943
0.397959
0.39752
0.398851
0.401667
0.401112
0.399328
0.377947
0.366378
0.356195
0.360569
0.376429
0.375724
0.37852
0.382754
0.389959
0.393204
0.393859
0.39494
0.398955
0.401326
0.400223
0.409949
0.431181
0.428614
0.425484
0.422231
0.417328
0.411326
0.425608
0.41823
0.40076
0.400369
0.400875
0.405424
0.405446
0.402907
0.383363
0.373243
0.363377
0.364101
0.378257
0.382588
0.382736
0.387626
0.393546
0.396642
0.394941
0.395725
0.400354
0.40439
0.403248
0.416109
0.438189
0.433561
0.43173
0.428197
0.421041
0.414779
0.427878
0.421474
0.406857
0.404519
0.403874
0.40921
0.411427
0.409156
0.389791
0.378964
0.369602
0.365866
0.379618
0.384747
0.384865
0.389357
0.396921
0.397935
0.397483
0.397671
0.404405
0.40692
0.407252
0.423192
0.444248
0.438452
0.436682
0.430763
0.42496
0.41679
0.428304
0.42674
0.417819
0.414688
0.413419
0.414593
0.418264
0.418041
0.396365
0.382618
0.372424
0.369529
0.377359
0.378005
0.37959
0.388739
0.395903
0.400481
0.400342
0.403165
0.409619
0.412122
0.410885
0.428749
0.447651
0.442341
0.437597
0.433761
0.430428
0.420631
0.42806
0.434574
0.42353
0.425435
0.425289
0.423543
0.425853
0.426568
0.403238
0.382085
0.370959
0.371274
0.373122
0.370128
0.375212
0.38177
0.39235
0.398514
0.40351
0.411619
0.416793
0.417612
0.414948
0.427992
0.447478
0.443135
0.439877
0.437091
0.434233
0.424588
0.428413
0.442472
0.425657
0.427504
0.43262
0.433267
0.434219
0.434009
0.407469
0.37503
0.364656
0.367446
0.365626
0.367762
0.371089
0.380198
0.38993
0.398303
0.408076
0.420079
0.422584
0.422596
0.417101
0.422984
0.445946
0.445285
0.441953
0.439562
0.436995
0.427054
0.429075
0.444777
0.426379
0.42403
0.430151
0.437356
0.441535
0.439539
0.405446
0.363794
0.355883
0.358179
0.361349
0.364696
0.370681
0.378697
0.390475
0.401903
0.416962
0.422067
0.427109
0.424421
0.418604
0.41787
0.440288
0.446019
0.44362
0.441343
0.438725
0.427891
0.429125
0.444308
0.42053
0.417307
0.424139
0.433485
0.443206
0.440118
0.394217
0.356488
0.350534
0.353216
0.354497
0.36069
0.367174
0.378613
0.39171
0.408728
0.422056
0.426061
0.428956
0.426133
0.417371
0.414563
0.429858
0.444593
0.445058
0.443534
0.440124
0.427792
0.427895
0.439104
0.410114
0.411083
0.41877
0.429076
0.439657
0.43112
0.380653
0.354325
0.351295
0.347365
0.343981
0.347232
0.356179
0.371686
0.393182
0.412009
0.421274
0.42912
0.431578
0.426058
0.416012
0.411354
0.420826
0.439225
0.446632
0.44571
0.441171
0.42699
0.426921
0.427102
0.404487
0.407134
0.415299
0.423648
0.434936
0.417755
0.372428
0.353573
0.349381
0.341
0.334704
0.335903
0.339577
0.352855
0.381474
0.408892
0.415788
0.42746
0.431626
0.421399
0.407108
0.406445
0.413967
0.431766
0.447095
0.447476
0.441232
0.425491
0.427755
0.423682
0.402188
0.40389
0.411358
0.419092
0.428549
0.408195
0.369727
0.352383
0.34392
0.335881
0.334328
0.335043
0.339741
0.349046
0.367758
0.391514
0.404329
0.410922
0.418877
0.40552
0.396425
0.396689
0.40774
0.424389
0.446346
0.448038
0.439107
0.425319
0.428539
0.42749
0.401177
0.40298
0.409362
0.41748
0.426038
0.402254
0.371093
0.353022
0.338884
0.336302
0.336752
0.339886
0.342147
0.351404
0.3628
0.375215
0.387823
0.395045
0.407343
0.398507
0.386948
0.386943
0.398851
0.416012
0.441173
0.446757
0.435968
0.424853
0.428618
0.434137
0.404778
0.404393
0.410306
0.417379
0.422887
0.400691
0.375425
0.35638
0.339182
0.338604
0.341609
0.342496
0.345206
0.351661
0.359975
0.365744
0.380404
0.391134
0.40629
0.395773
0.380442
0.380522
0.39349
0.407633
0.432997
0.44316
0.431202
0.423901
0.429313
0.438565
0.410602
0.411981
0.412403
0.416296
0.419857
0.404008
0.380392
0.362675
0.341853
0.341324
0.342295
0.344406
0.345644
0.352503
0.357952
0.362659
0.376564
0.390489
0.405666
0.397844
0.379402
0.379364
0.390922
0.402149
0.425982
0.436197
0.422577
0.418292
0.431918
0.4406
0.417397
0.421158
0.416977
0.416338
0.41986
0.409722
0.387726
0.367677
0.346471
0.341529
0.343784
0.34434
0.346748
0.352473
0.35887
0.362695
0.373521
0.387013
0.404444
0.398357
0.382499
0.380812
0.390968
0.400821
0.421415
0.422352
0.40676
0.39896
0.425777
0.439263
0.420923
0.426298
0.42268
0.418287
0.422645
0.416452
0.39428
0.373951
0.353176
0.34589
0.345245
0.346015
0.347159
0.353864
0.36012
0.36552
0.372186
0.382182
0.398084
0.395408
0.385938
0.385267
0.393663
0.403252
0.418336
0.409876
0.400029
0.392314
0.412473
0.432121
0.419455
0.425655
0.42699
0.42234
0.427315
0.4231
0.400162
0.381929
0.364169
0.353629
0.353481
0.350956
0.350934
0.355415
0.36284
0.367915
0.373269
0.381035
0.388989
0.391141
0.391139
0.389753
0.399781
0.409589
0.421216
0.408649
0.401371
0.392208
0.407177
0.424746
0.415701
0.424106
0.429771
0.427504
0.432596
0.430197
0.406267
0.391193
0.377728
0.36372
0.36078
0.361445
0.358849
0.360137
0.364437
0.370026
0.373436
0.380143
0.381874
0.390961
0.39668
0.396856
0.405712
0.418758
0.426905
0.409817
0.402893
0.393552
0.405169
0.421557
0.413866
0.423213
0.43206
0.431791
0.436961
0.436153
0.412363
0.399111
0.38923
0.374471
0.36893
0.367499
0.369572
0.36776
0.36851
0.371713
0.374213
0.37996
0.386232
0.39461
0.404337
0.403996
0.410979
0.42761
0.428918
0.409522
0.40435
0.393133
0.402872
0.422697
0.413363
0.422245
0.432746
0.436
0.441544
0.440569
0.416766
0.406062
0.396109
0.385652
0.37825
0.374275
0.374605
0.375994
0.37526
0.377454
0.378886
0.389091
0.398019
0.403133
0.408901
0.410321
0.414473
0.433326
0.427
0.409792
0.404225
0.393036
0.401079
0.427342
0.413714
0.420039
0.432156
0.438867
0.44742
0.444039
0.420101
0.409908
0.402011
0.393345
0.387518
0.380813
0.379672
0.380394
0.382705
0.383929
0.386668
0.398951
0.41135
0.411348
0.413015
0.412945
0.41639
0.434925
0.426758
0.409252
0.402886
0.39139
0.399711
0.437301
0.41742
0.418273
0.428443
0.440363
0.452609
0.447697
0.422451
0.41345
0.405774
0.400625
0.393554
0.388063
0.384812
0.385749
0.388114
0.389976
0.393657
0.408563
0.420943
0.419796
0.415695
0.414918
0.415956
0.436935
0.425927
0.408276
0.399816
0.389665
0.397408
0.454124
0.4267
0.423334
0.427289
0.437907
0.454984
0.449979
0.424901
0.414395
0.409675
0.405153
0.39916
0.39256
0.38989
0.389655
0.392304
0.39437
0.400976
0.415646
0.426378
0.424686
0.418557
0.415
0.415113
0.438576
0.424294
0.405711
0.396982
0.386657
0.394784
0.467463
0.443938
0.437213
0.435358
0.438268
0.452837
0.449724
0.426487
0.415684
0.412056
0.408574
0.402765
0.396467
0.391315
0.392791
0.394195
0.399022
0.40655
0.419725
0.427415
0.426683
0.419473
0.416006
0.414926
0.438417
0.421678
0.403588
0.394513
0.383666
0.393814
0.47437
0.461314
0.455472
0.449829
0.447776
0.453932
0.446253
0.427068
0.417543
0.415002
0.409151
0.40281
0.395597
0.390479
0.392672
0.395503
0.401768
0.410147
0.419407
0.425802
0.424485
0.420454
0.41597
0.415974
0.437818
0.419681
0.402255
0.391984
0.380187
0.394736
0.47886
0.47237
0.471824
0.46792
0.462414
0.459331
0.445999
0.427538
0.418151
0.41286
0.406439
0.399385
0.392038
0.385929
0.390318
0.39428
0.401492
0.410747
0.416559
0.420687
0.42268
0.420233
0.417148
0.418307
0.437628
0.418726
0.401482
0.389285
0.376975
0.396897
0.4811
0.479809
0.482307
0.482016
0.476928
0.467471
0.450541
0.430352
0.417401
0.406001
0.39861
0.394222
0.38556
0.381722
0.386068
0.392964
0.399446
0.40901
0.412611
0.417232
0.421857
0.420731
0.417556
0.420756
0.436948
0.421101
0.404227
0.390442
0.376392
0.399246
0.480379
0.483583
0.488543
0.489119
0.486721
0.477051
0.455783
0.433687
0.415964
0.396018
0.390069
0.384549
0.379289
0.378031
0.384927
0.391612
0.399453
0.408692
0.412518
0.416776
0.422426
0.418906
0.418034
0.42308
0.43816
0.427256
0.414602
0.40224
0.385595
0.405648
0.480395
0.485365
0.492638
0.493011
0.49263
0.483369
0.458784
0.43461
0.405931
0.387198
0.381284
0.377703
0.372999
0.376163
0.383145
0.390431
0.397441
0.407692
0.412247
0.416609
0.420533
0.416285
0.416473
0.425106
0.440396
0.434421
0.428181
0.422158
0.403687
0.40979
0.480695
0.486258
0.495716
0.496536
0.495913
0.483722
0.454872
0.422901
0.392689
0.37763
0.374137
0.370023
0.369556
0.372741
0.381866
0.388578
0.395535
0.404362
0.410651
0.414372
0.41638
0.408946
0.412283
0.425571
0.44278
0.440892
0.441326
0.440823
0.419435
0.41253
0.48015
0.481222
0.494288
0.495095
0.497338
0.481985
0.44434
0.409574
0.383888
0.370485
0.367025
0.366151
0.365711
0.370949
0.379558
0.388497
0.394305
0.402078
0.406731
0.410992
0.40628
0.395291
0.402445
0.422935
0.44391
0.446912
0.451135
0.447842
0.426874
0.417197
0.478849
0.474161
0.489592
0.493367
0.494449
0.478973
0.436996
0.400577
0.374843
0.364061
0.363276
0.363078
0.366027
0.371166
0.380852
0.389636
0.395527
0.40013
0.40305
0.403515
0.393436
0.378781
0.388622
0.415159
0.440588
0.449708
0.451465
0.442981
0.427993
0.422664
0.469643
0.467936
0.487694
0.492736
0.491839
0.469523
0.430123
0.39388
0.368775
0.36212
0.3615
0.365203
0.368701
0.375349
0.383091
0.391572
0.395363
0.399663
0.401507
0.396984
0.385404
0.370679
0.374339
0.402457
0.43298
0.444457
0.443353
0.435727
0.423611
0.426999
0.460325
0.466072
0.48805
0.493787
0.489457
0.461499
0.419502
0.387625
0.371604
0.364533
0.364952
0.368669
0.373799
0.378931
0.385833
0.389328
0.394641
0.399432
0.402285
0.394475
0.379704
0.36604
0.365822
0.391779
0.427904
0.43975
0.438712
0.43136
0.421134
0.429548
0.462944
0.466311
0.486561
0.494616
0.488407
0.455327
0.411637
0.386019
0.374344
0.371364
0.370673
0.373807
0.37647
0.381831
0.385983
0.386501
0.391233
0.398359
0.399299
0.389573
0.372943
0.363427
0.364885
0.385483
0.427987
0.443478
0.44014
0.43115
0.424356
0.429366
0.475877
0.467164
0.483141
0.493562
0.489108
0.45094
0.411844
0.385907
0.377772
0.374851
0.376978
0.378724
0.381101
0.383669
0.386131
0.383728
0.388663
0.394214
0.392767
0.38137
0.37017
0.365
0.370195
0.382789
0.422814
0.446225
0.443114
0.433236
0.427034
0.430646
0.483682
0.47124
0.482059
0.49147
0.488046
0.451361
0.416772
0.39109
0.381146
0.378599
0.379489
0.382671
0.384978
0.388146
0.387256
0.384327
0.387341
0.389034
0.383676
0.378259
0.371844
0.36887
0.372829
0.38059
0.411578
0.440914
0.442684
0.435399
0.427817
0.437843
0.48113
0.47524
0.485195
0.49118
0.48456
0.450445
0.419088
0.398612
0.386511
0.380874
0.381879
0.38421
0.388755
0.390755
0.390086
0.386011
0.387147
0.383572
0.37989
0.378803
0.372155
0.368332
0.374717
0.380293
0.399843
0.433995
0.43636
0.436623
0.435733
0.440559
0.472982
0.47267
0.486192
0.494766
0.479404
0.447687
0.416635
0.401788
0.389987
0.382619
0.382023
0.385628
0.38981
0.392517
0.390675
0.388135
0.385256
0.382607
0.379306
0.376796
0.369638
0.36785
0.374483
0.380799
0.390593
0.426941
0.433123
0.433344
0.434603
0.438473
0.464811
0.46926
0.485078
0.496602
0.47667
0.441441
0.414941
0.401435
0.391288
0.381287
0.381283
0.385005
0.389999
0.391049
0.390711
0.387343
0.384363
0.381807
0.376457
0.372431
0.367626
0.366302
0.373955
0.379822
0.385797
0.411747
0.428942
0.425983
0.425297
0.431589
0.459834
0.46625
0.4841
0.495264
0.474442
0.435156
0.413293
0.401695
0.388899
0.379788
0.379233
0.384572
0.388262
0.389707
0.387749
0.385562
0.384191
0.378051
0.370882
0.368358
0.365023
0.364924
0.371004
0.377793
0.382874
0.39872
0.418732
0.416857
0.415275
0.423604
0.457512
0.464605
0.483439
0.493671
0.468665
0.429512
0.410852
0.398927
0.386836
0.379063
0.380005
0.383995
0.388141
0.388784
0.388373
0.388352
0.388791
0.37817
0.371584
0.369339
0.365099
0.361906
0.366467
0.372875
0.378785
0.389789
0.4021
0.403071
0.398768
0.411096
0.459391
0.464497
0.482766
0.492207
0.459546
0.424034
0.406106
0.396302
0.384419
0.379775
0.380127
0.383544
0.385444
0.3892
0.391937
0.396116
0.394209
0.383273
0.376977
0.368829
0.360203
0.355968
0.358279
0.365557
0.373397
0.38556
0.388918
0.385355
0.379292
0.39562
0.464769
0.464971
0.48259
0.488516
0.451576
0.417605
0.402518
0.393439
0.384469
0.379816
0.381167
0.383637
0.387384
0.391205
0.395834
0.395928
0.390985
0.381532
0.371627
0.362136
0.356953
0.352362
0.353967
0.360747
0.371586
0.3848
0.384438
0.375681
0.371574
0.386079
0.46749
0.47419
0.484322
0.478661
0.444162
0.414289
0.400351
0.392081
0.385411
0.382911
0.383236
0.386921
0.389246
0.392573
0.39405
0.39298
0.385337
0.375676
0.367907
0.362687
0.359765
0.356919
0.355493
0.362348
0.373771
0.385227
0.382551
0.372151
0.367677
0.381617
0.464723
0.479063
0.486938
0.46977
0.436832
0.414645
0.401831
0.392545
0.387666
0.384452
0.385027
0.388006
0.391135
0.391275
0.39162
0.388003
0.37937
0.373279
0.370425
0.367644
0.365513
0.362877
0.361105
0.366227
0.376006
0.385544
0.382068
0.372345
0.366096
0.380432
0.460953
0.478279
0.488372
0.462896
0.431277
0.415636
0.403319
0.394436
0.388606
0.385787
0.384259
0.388216
0.389795
0.390139
0.388072
0.383355
0.376059
0.374928
0.375263
0.373289
0.371162
0.368175
0.365302
0.369276
0.377802
0.386008
0.383013
0.375143
0.367297
0.385132
0.459539
0.475992
0.483912
0.453665
0.426446
0.415475
0.404912
0.396122
0.390588
0.386062
0.383832
0.385899
0.387617
0.388289
0.387013
0.379231
0.376931
0.379542
0.380817
0.378571
0.376834
0.373172
0.369998
0.371962
0.381291
0.388343
0.385624
0.380059
0.373153
0.399922
0.459104
0.47289
0.473821
0.442141
0.422577
0.414566
0.404411
0.397537
0.390914
0.387224
0.383049
0.382869
0.382805
0.385974
0.383448
0.378168
0.379579
0.385333
0.387269
0.384984
0.383375
0.379549
0.375465
0.375992
0.386832
0.393711
0.391994
0.390312
0.388018
0.418845
0.453953
0.46166
0.460823
0.432641
0.419869
0.412197
0.403567
0.397078
0.391857
0.387413
0.383051
0.376664
0.375406
0.378465
0.377286
0.3759
0.384219
0.391884
0.394928
0.393152
0.391186
0.386668
0.382626
0.382329
0.395085
0.403611
0.404836
0.406748
0.407475
0.440972
0.445838
0.449168
0.447286
0.426057
0.416507
0.409751
0.40307
0.397947
0.391814
0.388171
0.380596
0.371407
0.365951
0.367838
0.368132
0.374301
0.388611
0.39917
0.403367
0.402576
0.399897
0.394805
0.391151
0.391667
0.406132
0.418309
0.422434
0.424858
0.430236
0.461914
0.438164
0.435655
0.434924
0.421756
0.414647
0.408216
0.403958
0.398616
0.393395
0.389199
0.379356
0.368084
0.363824
0.360957
0.362647
0.373107
0.394175
0.408772
0.413355
0.413694
0.410357
0.404264
0.40129
0.403903
0.420682
0.436409
0.441225
0.44514
0.449946
0.465167
0.42859
0.420562
0.428383
0.419952
0.413396
0.40558
0.403273
0.400451
0.395183
0.389893
0.381469
0.37251
0.367341
0.364327
0.362803
0.37348
0.396928
0.417987
0.426668
0.426928
0.422881
0.415582
0.413115
0.419334
0.43772
0.454878
0.459701
0.455979
0.451704
0.460995
0.420979
0.413108
0.425252
0.418309
0.410567
0.402745
0.402009
0.400719
0.398879
0.395541
0.389929
0.379546
0.375075
0.370095
0.367674
0.370401
0.390131
0.41435
0.431508
0.43889
0.435857
0.428522
0.426964
0.436274
0.454886
0.470694
0.466748
0.455881
0.448565
0.453608
0.415163
0.408518
0.420759
0.416781
0.409394
0.402854
0.402094
0.40231
0.401983
0.401729
0.397142
0.387029
0.37977
0.37506
0.369767
0.37018
0.37985
0.406335
0.42833
0.442799
0.446914
0.442002
0.442505
0.453478
0.470755
0.476679
0.467213
0.452751
0.442821
0.438657
0.408691
0.403983
0.417166
0.417395
0.410778
0.404698
0.403899
0.403536
0.402809
0.401913
0.400163
0.390124
0.38361
0.378111
0.373963
0.370531
0.373157
0.39348
0.421523
0.442241
0.453151
0.454222
0.45825
0.468995
0.479288
0.477792
0.465317
0.446588
0.427495
0.417591
0.403316
0.400896
0.41443
0.418262
0.412896
0.406907
0.405884
0.405263
0.401793
0.400715
0.396952
0.390365
0.385006
0.382028
0.377003
0.372392
0.370365
0.38151
0.412819
0.43941
0.455891
0.463175
0.472087
0.479596
0.482055
0.476402
0.459919
0.432223
0.404435
0.391052
0.399305
0.397505
0.411154
0.418226
0.414926
0.408626
0.40835
0.405183
0.401712
0.39777
0.393359
0.387336
0.38487
0.382767
0.380156
0.373582
0.371958
0.378085
0.404516
0.436085
0.457372
0.467422
0.480709
0.484636
0.480375
0.46833
0.444495
0.406248
0.373178
0.367203
0.39527
0.394379
0.408144
0.417514
0.416244
0.408683
0.407801
0.405842
0.401602
0.395864
0.389739
0.384666
0.381687
0.382077
0.38056
0.376972
0.375032
0.380751
0.399981
0.433468
0.457123
0.469115
0.481886
0.484358
0.475398
0.456644
0.425199
0.378898
0.360735
0.362619
0.391872
0.392015
0.407245
0.417435
0.41723
0.407369
0.406119
0.405934
0.402367
0.39427
0.388705
0.382829
0.380653
0.380018
0.380009
0.378086
0.378484
0.383917
0.398729
0.429908
0.45502
0.467463
0.476066
0.480424
0.470733
0.447182
0.408902
0.373293
0.360847
0.359286
0.390887
0.390731
0.408904
0.419037
0.421164
0.410451
0.408608
0.409847
0.403475
0.39523
0.38881
0.383888
0.379697
0.377004
0.375898
0.377575
0.379188
0.385815
0.398027
0.423698
0.451512
0.46381
0.468321
0.472541
0.467839
0.445562
0.405006
0.377037
0.363436
0.357644
0.392939
0.391778
0.412742
0.423658
0.42846
0.418371
0.415684
0.41432
0.406232
0.396245
0.390322
0.383703
0.376652
0.371244
0.37195
0.373928
0.378626
0.385774
0.395694
0.414505
0.448395
0.462198
0.465009
0.46579
0.463224
0.447846
0.410011
0.383843
0.367698
0.358649
0.399711
0.39624
0.417631
0.429233
0.436032
0.427003
0.421127
0.418366