/*--------------------------------*- C++ -*----------------------------------*\
| =========                 |                                                 |
| \\      /  F ield         | OpenFOAM: The Open Source CFD Toolbox           |
|  \\    /   O peration     | Version:  2.3.0                                 |
|   \\  /    A nd           | Web:      www.OpenFOAM.org                      |
|    \\/     M anipulation  |                                                 |
\*---------------------------------------------------------------------------*/
FoamFile
{
    version     2.0;
    format      ascii;
    class       volScalarField;
    location    "1.5";
    object      p;
}
// * * * * * * * * * * * * * * * * * * * * * * * * * * * * * * * * * * * * * //

dimensions      [1 -1 -2 0 0 0 0];

internalField   nonuniform List<scalar> 
6000
(
106200
106203
106205
106204
106202
106202
106201
106199
106188
106176
106169
106167
106175
106177
106177
106179
106185
106189
106192
106190
106184
106174
106158
106129
106084
106078
106073
106067
106064
106060
106077
106085
106096
106108
106118
106124
106127
106126
106118
106105
106092
106085
106090
106092
106090
106088
106087
106087
106087
106084
106076
106064
106047
106020
105998
106000
106010
106011
106012
106012
105966
105981
106005
106035
106059
106073
106081
106082
106077
106063
106044
106039
106043
106039
106032
106022
106010
106004
105999
105993
105987
105976
105959
105939
105938
105939
105963
105975
105977
105976
105866
105872
105887
105915
105959
105993
106012
106020
106017
106005
105991
105989
105979
105969
105960
105953
105945
105938
105930
105920
105908
105893
105879
105878
105884
105883
105902
105921
105927
105930
105824
105825
105828
105837
105861
105910
105943
105958
105960
105949
105942
105938
105926
105917
105911
105908
105904
105899
105891
105878
105861
105843
105830
105831
105832
105832
105842
105857
105866
105872
105803
105803
105804
105806
105811
105835
105880
105903
105908
105899
105895
105891
105884
105879
105876
105874
105873
105869
105861
105846
105826
105805
105789
105782
105780
105779
105777
105790
105799
105805
105787
105787
105788
105788
105789
105794
105824
105854
105862
105855
105850
105846
105843
105842
105844
105844
105843
105837
105824
105805
105783
105760
105742
105731
105725
105722
105713
105726
105735
105739
105771
105772
105773
105774
105774
105774
105784
105811
105819
105812
105805
105801
105801
105807
105812
105812
105806
105791
105771
105749
105726
105704
105689
105677
105670
105666
105660
105668
105677
105678
105755
105757
105759
105760
105760
105759
105760
105775
105779
105769
105760
105756
105757
105768
105773
105768
105753
105731
105707
105684
105661
105643
105632
105621
105615
105612
105611
105611
105620
105623
105739
105741
105744
105745
105745
105743
105741
105742
105740
105725
105714
105709
105710
105720
105719
105708
105687
105664
105641
105618
105599
105585
105576
105566
105560
105557
105556
105553
105562
105568
105722
105724
105726
105728
105727
105724
105718
105711
105701
105680
105668
105662
105661
105664
105656
105642
105622
105600
105578
105559
105543
105532
105523
105513
105506
105502
105500
105496
105503
105512
105704
105705
105706
105706
105704
105698
105689
105676
105659
105635
105624
105617
105615
105609
105597
105580
105560
105539
105519
105503
105491
105482
105474
105463
105454
105449
105446
105443
105445
105455
105683
105682
105680
105678
105673
105664
105651
105633
105612
105592
105583
105577
105574
105560
105544
105522
105500
105479
105461
105447
105438
105431
105426
105417
105405
105398
105396
105396
105395
105400
105655
105653
105648
105642
105633
105621
105604
105585
105568
105554
105546
105539
105534
105514
105492
105466
105440
105418
105401
105388
105380
105376
105376
105373
105359
105351
105348
105351
105353
105350
105618
105615
105607
105596
105584
105571
105555
105543
105532
105520
105509
105502
105490
105464
105435
105408
105380
105356
105336
105323
105315
105314
105320
105327
105318
105308
105305
105308
105311
105303
105570
105565
105554
105540
105527
105517
105508
105506
105499
105485
105471
105460
105438
105406
105375
105347
105317
105289
105267
105250
105240
105241
105253
105273
105278
105268
105264
105268
105268
105255
105508
105501
105487
105473
105464
105461
105463
105470
105465
105444
105428
105409
105378
105342
105310
105281
105247
105216
105188
105167
105153
105151
105168
105201
105227
105225
105220
105223
105215
105199
105431
105422
105409
105398
105394
105399
105412
105426
105414
105394
105375
105346
105308
105270
105237
105206
105169
105131
105095
105063
105042
105040
105060
105095
105138
105157
105156
105151
105128
105115
105341
105332
105322
105316
105318
105327
105340
105353
105339
105328
105310
105274
105233
105195
105161
105126
105081
105031
104976
104918
104906
104914
104933
104960
104990
105021
105024
105004
104981
104988
105245
105240
105233
105233
105239
105247
105254
105258
105251
105244
105228
105200
105160
105120
105082
105042
104986
104916
104859
104840
104837
104840
104848
104857
104866
104874
104877
104871
104866
104866
105149
105146
105147
105153
105163
105170
105171
105169
105166
105159
105144
105119
105085
105045
105002
104953
104887
104833
104816
104813
104813
104813
104815
104818
104821
104825
104827
104828
104827
104827
105056
105059
105065
105076
105091
105102
105100
105092
105089
105080
105062
105038
105007
104968
104924
104870
104818
104800
104798
104799
104799
104800
104801
104802
104804
104807
104809
104811
104811
104812
104966
104972
104987
105002
105023
105040
105040
105027
105017
105005
104985
104961
104931
104896
104854
104808
104785
104782
104784
104785
104786
104787
104788
104790
104792
104794
104796
104797
104798
104800
104874
104885
104904
104926
104951
104980
104985
104965
104943
104926
104907
104886
104862
104832
104799
104772
104765
104766
104768
104770
104773
104775
104776
104778
104780
104782
104783
104785
104786
104788
104777
104799
104821
104844
104869
104898
104918
104896
104857
104837
104827
104813
104798
104779
104759
104747
104746
104748
104751
104755
104758
104762
104764
104767
104769
104770
104772
104773
104775
104776
104688
104710
104732
104753
104774
104794
104812
104804
104767
104745
104740
104739
104738
104735
104727
104724
104727
104730
104733
104738
104743
104748
104751
104755
104757
104759
104761
104762
104763
104764
104609
104624
104639
104654
104663
104672
104682
104686
104672
104650
104647
104662
104679
104693
104695
104701
104706
104710
104715
104721
104726
104732
104737
104741
104744
104747
104749
104749
104750
104750
104535
104540
104544
104542
104534
104522
104529
104545
104554
104551
104555
104580
104617
104642
104658
104673
104683
104690
104696
104702
104708
104715
104720
104725
104729
104732
104734
104734
104734
104733
104457
104453
104439
104415
104376
104321
104336
104382
104418
104441
104462
104496
104541
104578
104612
104639
104656
104666
104674
104682
104689
104695
104701
104705
104709
104712
104714
104715
104714
104712
104366
104354
104320
104271
104199
104150
104147
104196
104267
104317
104360
104404
104447
104499
104551
104594
104622
104638
104649
104658
104666
104672
104677
104680
104683
104685
104686
104687
104685
104682
104249
104229
104186
104133
104086
104062
104051
104056
104109
104181
104244
104293
104344
104406
104470
104530
104573
104598
104615
104627
104635
104641
104644
104645
104646
104647
104648
104647
104644
104641
104093
104075
104050
104029
104020
104006
103991
103981
103997
104057
104118
104175
104235
104297
104365
104435
104495
104535
104561
104578
104586
104591
104593
104593
104593
104593
104592
104589
104584
104583
103916
103909
103908
103919
103946
103945
103929
103921
103925
103956
104005
104059
104117
104175
104243
104314
104380
104432
104472
104494
104505
104510
104514
104516
104518
104517
104515
104512
104509
104511
103724
103731
103752
103779
103818
103844
103843
103847
103854
103869
103894
103924
103972
104038
104111
104183
104248
104303
104347
104375
104394
104405
104413
104420
104424
104425
104424
104425
104429
104432
103606
103612
103628
103649
103671
103697
103721
103741
103757
103766
103766
103759
103788
103879
103968
104048
104118
104176
104222
104256
104280
104296
104307
104318
104326
104331
104335
104340
104348
104352
103574
103576
103582
103591
103601
103613
103625
103635
103642
103643
103639
103632
103639
103695
103811
103910
103991
104056
104107
104146
104172
104190
104206
104222
104235
104245
104255
104263
104271
104274
103566
103566
103569
103573
103579
103584
103588
103588
103586
103585
103585
103586
103588
103601
103663
103777
103873
103947
104004
104045
104074
104097
104119
104139
104156
104172
104185
104194
104199
104201
103561
103562
103563
103566
103570
103573
103574
103573
103571
103570
103571
103573
103575
103575
103593
103666
103771
103853
103914
103956
103991
104020
104047
104070
104090
104107
104120
104130
104135
104138
103557
103557
103558
103559
103562
103565
103566
103566
103566
103565
103566
103568
103568
103568
103571
103602
103688
103775
103838
103885
103923
103957
103986
104011
104032
104049
104062
104072
104078
104083
103551
103552
103552
103553
103555
103557
103559
103559
103559
103560
103560
103561
103562
103563
103563
103575
103628
103712
103778
103827
103868
103903
103932
103957
103979
103996
104010
104020
104026
104029
103546
103546
103546
103546
103547
103549
103551
103552
103553
103553
103554
103555
103556
103558
103559
103564
103592
103663
103729
103780
103821
103855
103885
103910
103932
103949
103961
103969
103971
103969
103541
103541
103540
103540
103540
103541
103543
103545
103546
103547
103547
103549
103551
103553
103555
103558
103576
103628
103692
103741
103780
103813
103842
103866
103886
103900
103907
103912
103913
103910
103535
103535
103534
103533
103533
103534
103535
103537
103539
103540
103541
103542
103544
103547
103550
103554
103567
103609
103661
103705
103742
103774
103800
103820
103834
103844
103850
103855
103858
103857
103529
103528
103527
103527
103526
103526
103527
103530
103531
103532
103534
103536
103538
103541
103544
103549
103563
103596
103635
103672
103705
103731
103753
103769
103781
103791
103798
103803
103806
103809
103522
103521
103520
103520
103519
103519
103520
103522
103523
103525
103526
103528
103531
103534
103537
103542
103556
103582
103612
103641
103667
103689
103706
103721
103732
103742
103749
103755
103758
103766
103514
103514
103513
103512
103512
103512
103512
103513
103515
103517
103519
103521
103524
103527
103530
103535
103548
103568
103590
103612
103632
103649
103664
103677
103688
103697
103704
103710
103719
103727
103507
103506
103505
103504
103504
103504
103504
103505
103507
103509
103511
103513
103516
103520
103522
103526
103537
103552
103568
103584
103600
103614
103626
103638
103648
103657
103666
103676
103684
103687
103498
103498
103497
103496
103496
103496
103496
103497
103499
103501
103502
103505
103508
103511
103513
103516
103524
103534
103546
103558
103571
103583
103594
103605
103615
103625
103634
103642
103645
103647
103490
103489
103488
103488
103488
103488
103488
103489
103490
103492
103494
103497
103500
103502
103503
103505
103509
103516
103525
103535
103546
103557
103567
103577
103586
103594
103599
103603
103605
103604
103481
103480
103480
103479
103480
103480
103481
103481
103482
103484
103486
103488
103491
103492
103492
103492
103494
103499
103506
103515
103524
103533
103541
103549
103555
103559
103562
103564
103563
103563
103472
103471
103471
103471
103471
103472
103472
103473
103474
103476
103477
103480
103482
103481
103479
103478
103480
103483
103489
103495
103503
103510
103515
103519
103523
103525
103526
103527
103526
103526
103463
103462
103462
103462
103463
103463
103464
103465
103466
103467
103469
103472
103472
103469
103465
103463
103464
103467
103471
103476
103481
103486
103489
103490
103491
103492
103493
103493
103492
103492
103454
103453
103453
103454
103455
103455
103456
103457
103457
103458
103461
103464
103462
103455
103449
103446
103447
103449
103453
103456
103459
103461
103462
103462
103463
103463
103462
103461
103459
103458
103446
103444
103445
103446
103446
103447
103448
103448
103448
103449
103451
103454
103447
103435
103428
103427
103429
103432
103434
103436
103438
103437
103436
103437
103436
103434
103431
103428
103424
103422
103438
103436
103437
103438
103439
103439
103440
103440
103440
103440
103439
103434
103420
103406
103401
103403
103410
103414
103417
103418
103417
103417
103416
103413
103409
103404
103399
103393
103389
103386
103430
103429
103430
103430
103431
103432
103432
103432
103432
103430
103423
103409
103394
103384
103382
103386
103391
103397
103401
103401
103401
103399
103395
103390
103383
103374
103367
103360
103355
103353
103423
103422
103422
103423
103424
103425
103425
103425
103424
103419
103406
103388
103377
103373
103372
103372
103378
103383
103386
103388
103386
103383
103376
103367
103357
103348
103338
103330
103326
103325
103416
103415
103415
103415
103417
103419
103419
103418
103413
103403
103387
103375
103370
103368
103367
103367
103368
103374
103374
103376
103373
103366
103358
103348
103336
103325
103313
103305
103301
103300
103408
103407
103407
103407
103409
103410
103409
103405
103395
103381
103369
103365
103363
103363
103362
103362
103362
103364
103368
103366
103359
103350
103337
103325
103313
103301
103290
103283
103279
103277
103400
103399
103398
103398
103397
103393
103387
103379
103368
103360
103356
103356
103356
103356
103356
103356
103356
103357
103362
103357
103347
103332
103318
103306
103293
103280
103270
103262
103257
103254
103389
103390
103388
103384
103376
103366
103358
103351
103347
103347
103347
103348
103349
103350
103350
103350
103351
103351
103353
103354
103339
103324
103310
103296
103281
103265
103252
103241
103234
103230
103374
103377
103373
103363
103351
103342
103338
103336
103336
103338
103340
103341
103342
103343
103343
103344
103345
103345
103346
103350
103340
103318
103299
103281
103263
103247
103231
103218
103209
103205
103349
103355
103350
103339
103331
103328
103327
103328
103329
103330
103332
103333
103334
103335
103336
103337
103339
103339
103341
103344
103338
103310
103283
103262
103242
103223
103206
103192
103182
103178
103312
103322
103322
103318
103318
103318
103319
103320
103322
103323
103324
103325
103326
103328
103329
103330
103332
103333
103335
103338
103336
103301
103272
103247
103222
103199
103179
103163
103153
103148
103296
103299
103302
103305
103308
103310
103312
103313
103314
103315
103316
103317
103318
103320
103321
103323
103324
103326
103328
103329
103330
103303
103271
103239
103204
103174
103150
103133
103122
103116
103291
103292
103294
103297
103300
103302
103304
103305
103306
103307
103308
103309
103310
103311
103313
103314
103316
103319
103320
103322
103323
103312
103266
103222
103180
103145
103119
103100
103088
103082
103288
103288
103289
103292
103294
103296
103297
103298
103299
103300
103300
103301
103302
103303
103304
103305
103307
103310
103312
103316
103318
103303
103247
103195
103148
103110
103081
103061
103049
103044
103284
103284
103285
103286
103288
103289
103290
103291
103291
103292
103292
103293
103293
103294
103294
103295
103297
103300
103303
103307
103309
103287
103221
103160
103109
103067
103036
103014
103001
102995
103280
103280
103280
103281
103282
103282
103283
103284
103284
103284
103285
103285
103284
103284
103284
103285
103286
103288
103290
103294
103297
103259
103184
103115
103058
103013
102979
102955
102940
102933
103274
103274
103274
103275
103275
103276
103276
103276
103277
103277
103277
103276
103276
103275
103274
103274
103274
103274
103276
103279
103280
103213
103130
103055
102994
102945
102907
102880
102864
102856
103268
103268
103268
103268
103268
103269
103269
103269
103269
103269
103269
103268
103267
103265
103263
103261
103259
103257
103260
103261
103238
103148
103056
102978
102913
102859
102818
102788
102770
102762
103261
103261
103261
103261
103261
103262
103262
103262
103262
103261
103261
103259
103257
103254
103251
103247
103241
103238
103239
103236
103161
103057
102962
102881
102812
102754
102709
102676
102655
102644
103254
103254
103254
103254
103254
103254
103254
103254
103253
103253
103252
103249
103246
103242
103236
103228
103220
103215
103210
103161
103056
102945
102847
102762
102688
102630
102583
102543
102513
102495
103246
103246
103246
103246
103246
103246
103246
103245
103244
103243
103241
103238
103232
103224
103213
103201
103190
103180
103146
103047
102927
102812
102709
102624
102557
102499
102446
102391
102341
102303
103237
103237
103237
103238
103237
103237
103237
103236
103234
103232
103228
103220
103209
103195
103179
103162
103145
103113
103025
102907
102783
102665
102565
102491
102431
102370
102301
102223
102138
102060
103228
103228
103228
103228
103228
103228
103227
103225
103222
103217
103208
103193
103173
103150
103127
103103
103068
102991
102882
102759
102635
102522
102436
102372
102316
102242
102152
102055
101964
101913
103218
103219
103219
103219
103218
103217
103216
103212
103206
103195
103177
103149
103117
103085
103055
103019
102952
102854
102738
102614
102494
102390
102319
102270
102198
102107
102011
101921
101871
101859
103208
103208
103208
103208
103207
103206
103203
103196
103183
103161
103128
103087
103045
103007
102968
102913
102826
102719
102600
102477
102360
102267
102210
102158
102070
101977
101897
101850
101837
101835
103195
103196
103195
103195
103194
103191
103184
103170
103146
103108
103061
103012
102966
102921
102871
102799
102702
102589
102468
102345
102233
102148
102093
102032
101943
101869
101830
101819
101820
101821
103181
103181
103181
103180
103176
103168
103153
103127
103087
103037
102982
102930
102880
102829
102768
102686
102581
102464
102341
102220
102114
102032
101967
101899
101836
101809
101802
101804
101807
101810
103164
103164
103163
103159
103149
103131
103101
103058
103009
102954
102898
102844
102791
102734
102665
102575
102465
102345
102221
102103
102001
101918
101849
101806
101791
101787
101789
101793
101797
101799
103141
103140
103135
103125
103103
103068
103023
102974
102923
102868
102811
102755
102700
102640
102565
102468
102354
102232
102109
101995
101897
101822
101789
101780
101779
101780
101782
101785
101789
101790
103105
103101
103090
103066
103028
102982
102934
102886
102835
102781
102724
102666
102609
102547
102468
102365
102248
102125
102005
101897
101815
101782
101775
101775
101776
101777
101778
101779
101782
101783
103043
103033
103010
102974
102931
102887
102842
102796
102747
102693
102636
102578
102520
102457
102373
102266
102147
102027
101914
101822
101781
101773
101773
101774
101774
101774
101775
101775
101777
101778
102943
102928
102900
102865
102828
102791
102751
102707
102659
102606
102550
102492
102434
102368
102278
102169
102053
101940
101841
101785
101772
101771
101772
101772
101773
101772
101772
101772
101773
101774
102822
102810
102788
102761
102732
102700
102662
102619
102572
102520
102465
102407
102348
102277
102184
102077
101969
101867
101795
101773
101770
101770
101771
101771
101771
101771
101770
101770
101771
101771
102712
102704
102690
102668
102643
102611
102574
102531
102485
102434
102380
102323
102260
102185
102093
101993
101897
101815
101776
101768
101769
101769
101769
101769
101769
101769
101769
101769
101769
101769
102615
102611
102601
102582
102555
102522
102484
102442
102398
102349
102295
102237
102174
102098
102010
101919
101838
101782
101768
101767
101768
101768
101768
101768
101768
101768
101768
101768
101768
101768
102525
102520
102511
102491
102464
102430
102393
102353
102311
102265
102212
102153
102090
102017
101933
101854
101792
101769
101766
101766
101767
101767
101767
101767
101767
101767
101766
101766
101766
101766
102434
102423
102413
102395
102370
102338
102302
102264
102227
102185
102133
102074
102012
101943
101861
101797
101772
101765
101765
101766
101766
101766
101766
101766
101766
101765
101765
101765
101765
101765
102340
102326
102316
102301
102278
102248
102216
102185
102154
102115
102063
102002
101936
101863
101797
101773
101766
101766
101765
101765
101765
101765
101765
101765
101764
101764
101764
101764
101764
101764
102252
102245
102231
102215
102194
102171
102147
102123
102095
102056
102001
101937
101865
101797
101774
101768
101767
101766
101765
101765
101764
101764
101764
101764
101763
101763
101763
101763
101763
101763
102181
102179
102167
102151
102134
102116
102098
102076
102046
102003
101946
101878
101806
101777
101770
101768
101767
101765
101764
101764
101763
101763
101763
101763
101762
101762
101762
101762
101762
101762
102130
102126
102117
102104
102090
102074
102056
102033
101999
101952
101893
101824
101785
101774
101770
101768
101766
101764
101763
101763
101762
101762
101762
101761
101761
101761
101761
101761
101761
101761
102092
102083
102075
102064
102051
102036
102015
101988
101950
101903
101848
101797
101779
101774
101771
101768
101765
101763
101762
101761
101761
101761
101760
101760
101760
101760
101760
101760
101760
101760
102054
102047
102038
102027
102013
101995
101971
101941
101905
101862
101815
101787
101778
101774
101770
101767
101764
101762
101760
101760
101760
101759
101759
101759
101759
101759
101759
101759
101759
101759
102001
102002
101996
101985
101969
101949
101925
101898
101866
101830
101796
101781
101777
101774
101769
101765
101761
101759
101758
101758
101758
101758
101758
101758
101758
101758
101758
101758
101758
101758
101944
101946
101942
101933
101920
101903
101883
101860
101834
101806
101786
101779
101776
101772
101767
101762
101759
101757
101757
101757
101757
101757
101757
101757
101757
101757
101757
101757
101757
101757
101894
101893
101891
101884
101874
101862
101847
101829
101809
101791
101781
101777
101774
101769
101764
101759
101756
101755
101755
101755
101755
101756
101756
101756
101756
101756
101756
101756
101756
101756
101848
101847
101846
101842
101835
101826
101815
101803
101791
101781
101776
101774
101770
101765
101760
101756
101754
101753
101754
101754
101754
101754
101755
101755
101755
101755
101755
101755
101755
101755
101807
101807
101807
101805
101801
101796
101789
101782
101775
101772
101770
101768
101764
101760
101757
101754
101753
101752
101753
101753
101753
101753
101754
101754
101754
101754
101754
101754
101754
101754
101770
101771
101772
101772
101771
101768
101765
101762
101761
101761
101760
101758
101755
101754
101754
101752
101752
101752
101752
101752
101752
101752
101752
101753
101753
101753
101753
101753
101753
101753
101736
101737
101739
101741
101742
101742
101741
101743
101744
101745
101745
101745
101746
101749
101752
101751
101751
101751
101751
101751
101751
101751
101751
101752
101752
101752
101752
101752
101752
101752
101703
101705
101708
101711
101714
101716
101718
101721
101722
101724
101726
101731
101737
101744
101749
101749
101750
101751
101751
101751
101750
101750
101750
101751
101751
101751
101751
101751
101751
101751
101672
101673
101677
101680
101684
101688
101691
101694
101696
101700
101705
101712
101722
101735
101743
101746
101749
101750
101750
101750
101749
101749
101749
101749
101750
101750
101750
101750
101750
101750
101641
101642
101644
101648
101653
101658
101661
101665
101669
101675
101683
101693
101707
101721
101734
101742
101746
101749
101749
101749
101748
101748
101748
101748
101748
101748
101748
101748
101748
101748
101609
101610
101613
101617
101622
101626
101630
101635
101641
101650
101660
101672
101687
101705
101722
101734
101742
101746
101747
101747
101747
101746
101746
101746
101746
101747
101746
101746
101746
101747
101578
101579
101583
101586
101589
101593
101598
101605
101614
101624
101637
101652
101668
101687
101706
101723
101735
101742
101745
101745
101745
101744
101744
101744
101744
101744
101744
101744
101744
101745
101549
101549
101551
101554
101557
101562
101568
101577
101587
101600
101614
101630
101648
101668
101688
101708
101726
101737
101741
101743
101743
101742
101742
101742
101742
101742
101742
101742
101742
101742
101518
101519
101520
101523
101526
101532
101540
101549
101561
101574
101590
101607
101626
101646
101669
101693
101716
101730
101737
101740
101740
101740
101739
101739
101739
101739
101739
101739
101740
101740
101488
101488
101489
101492
101496
101503
101511
101521
101534
101548
101564
101582
101602
101624
101648
101675
101703
101723
101733
101736
101738
101737
101737
101736
101736
101736
101736
101737
101737
101737
101457
101457
101459
101462
101466
101473
101482
101493
101505
101520
101537
101555
101576
101600
101626
101656
101687
101714
101728
101733
101734
101734
101734
101733
101733
101733
101733
101734
101734
101733
101425
101426
101428
101431
101436
101443
101451
101462
101475
101490
101507
101527
101550
101575
101604
101635
101667
101699
101721
101728
101730
101731
101730
101730
101729
101730
101730
101730
101730
101728
101393
101394
101396
101399
101404
101410
101419
101430
101443
101458
101476
101496
101520
101546
101575
101607
101641
101678
101708
101722
101726
101726
101726
101725
101725
101725
101725
101726
101726
101722
101359
101360
101362
101365
101370
101377
101385
101396
101408
101423
101441
101461
101484
101510
101540
101573
101610
101650
101689
101712
101719
101721
101721
101721
101721
101720
101720
101720
101720
101714
101323
101324
101326
101329
101334
101341
101350
101360
101372
101386
101403
101422
101444
101469
101499
101533
101571
101615
101661
101698
101711
101713
101714
101714
101714
101714
101713
101713
101710
101704
101285
101286
101289
101292
101298
101304
101313
101322
101333
101346
101362
101379
101400
101424
101452
101486
101525
101572
101624
101674
101698
101704
101705
101706
101706
101704
101703
101700
101693
101685
101247
101248
101250
101254
101260
101267
101275
101284
101294
101305
101319
101335
101354
101377
101404
101435
101473
101519
101576
101636
101677
101689
101692
101693
101692
101689
101685
101677
101661
101653
101206
101207
101210
101214
101220
101228
101236
101244
101253
101264
101277
101292
101311
101332
101356
101384
101418
101461
101517
101582
101640
101664
101671
101672
101668
101661
101653
101639
101620
101614
101164
101165
101168
101173
101179
101187
101195
101204
101212
101221
101233
101249
101269
101291
101314
101337
101364
101402
101453
101516
101582
101621
101634
101635
101628
101617
101606
101592
101579
101573
101119
101121
101124
101130
101137
101145
101155
101165
101171
101175
101185
101200
101217
101238
101263
101286
101310
101342
101387
101445
101508
101556
101576
101578
101573
101565
101555
101545
101538
101534
101075
101076
101080
101085
101093
101103
101113
101124
101130
101128
101133
101141
101154
101171
101195
101220
101245
101277
101319
101372
101429
101478
101503
101512
101516
101513
101507
101501
101495
101491
101030
101031
101034
101039
101048
101059
101070
101084
101092
101083
101077
101071
101075
101090
101114
101142
101171
101205
101247
101297
101350
101397
101426
101444
101455
101460
101458
101454
101448
101442
100984
100986
100989
100994
101002
101013
101026
101039
101047
101030
101005
100973
100971
100998
101027
101058
101092
101130
101173
101220
101268
101312
101344
101366
101383
101395
101400
101398
101393
101387
100941
100941
100944
100948
100956
100966
100977
100983
100984
100957
100913
100876
100873
100902
100939
100976
101014
101055
101098
101142
101185
101223
101252
101274
101292
101309
101321
101326
101328
101326
100899
100900
100902
100906
100911
100917
100922
100920
100909
100879
100841
100822
100819
100827
100859
100898
100939
100981
101024
101065
101103
101134
101158
101176
101193
101211
101232
101246
101256
101260
100860
100861
100864
100866
100868
100869
100868
100864
100850
100826
100803
100793
100790
100787
100794
100826
100868
100911
100954
100993
101025
101052
101073
101092
101109
101125
101146
101164
101178
101186
100824
100824
100825
100825
100825
100824
100822
100817
100807
100790
100775
100770
100767
100763
100761
100770
100802
100845
100887
100925
100955
100980
101001
101020
101036
101050
101066
101083
101096
101104
100786
100785
100784
100783
100782
100782
100781
100778
100772
100759
100750
100747
100746
100744
100742
100742
100755
100788
100828
100863
100892
100916
100937
100954
100968
100980
100991
101005
101016
101020
100742
100741
100740
100740
100741
100742
100743
100743
100740
100732
100726
100726
100726
100726
100726
100726
100731
100747
100777
100810
100837
100859
100877
100892
100905
100914
100922
100931
100940
100942
100690
100691
100692
100695
100698
100702
100705
100708
100709
100707
100705
100706
100707
100709
100711
100713
100716
100724
100741
100767
100791
100808
100822
100834
100845
100853
100859
100865
100870
100872
100635
100637
100642
100647
100653
100660
100667
100675
100683
100685
100686
100689
100691
100694
100696
100699
100701
100705
100715
100732
100750
100762
100772
100781
100789
100796
100803
100807
100806
100804
100575
100581
100589
100598
100607
100617
100629
100644
100659
100665
100669
100673
100676
100680
100683
100686
100686
100687
100691
100700
100711
100720
100726
100732
100738
100744
100750
100751
100746
100737
100503
100520
100534
100547
100559
100572
100589
100611
100634
100645
100653
100658
100662
100666
100669
100670
100668
100666
100665
100668
100674
100679
100683
100687
100691
100695
100696
100694
100686
100680
100445
100460
100480
100495
100510
100524
100543
100570
100599
100620
100633
100641
100646
100649
100650
100647
100642
100637
100633
100632
100634
100639
100642
100645
100647
100647
100643
100636
100628
100628
100412
100421
100441
100454
100465
100477
100493
100520
100555
100584
100604
100615
100621
100622
100619
100613
100605
100598
100593
100590
100591
100595
100599
100602
100603
100600
100593
100585
100579
100579
100392
100395
100409
100422
100431
100441
100453
100471
100500
100532
100557
100571
100578
100577
100571
100564
100556
100549
100543
100541
100542
100547
100551
100553
100554
100551
100546
100541
100538
100534
100374
100376
100384
100396
100403
100410
100419
100430
100448
100471
100493
100509
100515
100514
100510
100504
100498
100492
100487
100485
100487
100490
100493
100494
100493
100491
100491
100492
100494
100491
100356
100359
100364
100372
100376
100380
100385
100392
100403
100416
100430
100441
100446
100446
100443
100440
100435
100431
100427
100425
100426
100428
100428