/*--------------------------------*- C++ -*----------------------------------*\
| =========                 |                                                 |
| \\      /  F ield         | OpenFOAM: The Open Source CFD Toolbox           |
|  \\    /   O peration     | Version:  2.3.0                                 |
|   \\  /    A nd           | Web:      www.OpenFOAM.org                      |
|    \\/     M anipulation  |                                                 |
\*---------------------------------------------------------------------------*/
FoamFile
{
    version     2.0;
    format      ascii;
    class       volScalarField;
    location    "1.43";
    object      k.air;
}
// * * * * * * * * * * * * * * * * * * * * * * * * * * * * * * * * * * * * * //

dimensions      [0 2 -2 0 0 0 0];

internalField   nonuniform List<scalar> 
6000
(
0.819035
0.90965
0.938677
0.956295
0.967055
0.98101
1.00966
1.04908
1.04634
1.01648
1.00041
1.00075
1.01771
1.03205
1.03102
1.01641
1.00153
0.990922
0.988889
0.993623
1.00547
1.03381
1.05356
1.01877
0.985943
0.967808
0.963288
0.958735
0.920114
0.808071
0.57544
0.870452
0.967294
1.03004
1.0681
1.10365
1.1721
1.2508
1.28615
1.23992
1.18181
1.18916
1.23845
1.25364
1.23711
1.20096
1.16092
1.13591
1.13567
1.14625
1.15592
1.15922
1.15911
1.1451
1.10091
1.07122
1.06775
1.06065
1.00056
0.627191
0.429599
0.768679
0.909108
0.990614
1.04962
1.11242
1.18914
1.24318
1.27128
1.2743
1.25172
1.24985
1.26686
1.28032
1.2756
1.25478
1.23022
1.21564
1.22264
1.23748
1.24436
1.2404
1.21673
1.17409
1.14092
1.12981
1.13298
1.10719
0.999655
0.570201
0.35076
0.675098
0.842201
0.951895
1.03838
1.12939
1.2205
1.2573
1.29198
1.3307
1.34454
1.33425
1.32033
1.32172
1.31548
1.30017
1.2821
1.27268
1.28003
1.29218
1.2914
1.2747
1.23852
1.19032
1.15387
1.14684
1.15288
1.1435
1.03391
0.598065
0.301721
0.614999
0.795765
0.927671
1.03958
1.15383
1.26048
1.30262
1.34698
1.40149
1.44715
1.4163
1.38501
1.37309
1.36251
1.35167
1.33901
1.3283
1.32339
1.32003
1.31232
1.29338
1.25857
1.21261
1.16934
1.15016
1.1474
1.1449
1.05879
0.662488
0.273384
0.583741
0.773059
0.923915
1.06118
1.20288
1.31717
1.37553
1.4296
1.48464
1.52584
1.49169
1.45565
1.43759
1.4289
1.42054
1.40782
1.39271
1.37815
1.36607
1.35306
1.33359
1.30168
1.25728
1.20986
1.17692
1.15946
1.15009
1.07234
0.671292
0.259552
0.577082
0.780368
0.949098
1.11167
1.27199
1.38989
1.46217
1.52724
1.57834
1.60266
1.57111
1.5419
1.52891
1.52199
1.51163
1.49715
1.48202
1.46606
1.45029
1.43408
1.41229
1.37867
1.3336
1.2843
1.23982
1.20465
1.18202
1.08673
0.655081
0.265189
0.602464
0.829446
1.02094
1.19767
1.36361
1.48464
1.55978
1.63575
1.68414
1.69744
1.67601
1.66057
1.64959
1.6435
1.63336
1.62001
1.60313
1.58303
1.56243
1.54206
1.51736
1.48294
1.43968
1.39044
1.33651
1.27954
1.23809
1.07866
0.608535
0.295092
0.680348
0.930874
1.13239
1.31142
1.4765
1.60551
1.67522
1.75485
1.80315
1.8185
1.82369
1.81586
1.80924
1.80364
1.79111
1.77199
1.7473
1.7192
1.69145
1.66589
1.64005
1.61085
1.57821
1.53989
1.47711
1.37091
1.26123
1.02451
0.57414
0.357864
0.796416
1.05892
1.26513
1.44298
1.60244
1.74502
1.82001
1.89099
1.94935
1.98431
2.02163
2.01715
2.01333
2.00054
1.97748
1.9459
1.90791
1.86761
1.83032
1.79958
1.77663
1.76294
1.76176
1.76793
1.70513
1.46859
1.21184
0.904651
0.53144
0.427211
0.928424
1.20473
1.41428
1.59137
1.74756
1.90007
1.99714
2.06456
2.13454
2.20226
2.26809
2.26205
2.25377
2.2298
2.18891
2.1376
2.08044
2.02388
1.97415
1.93706
1.91814
1.92686
1.982
2.08226
2.0209
1.58524
1.13459
0.739418
0.445676
0.502459
1.08122
1.36777
1.57925
1.75906
1.91904
2.07511
2.21031
2.28814
2.35787
2.46332
2.55096
2.54212
2.52677
2.48825
2.42348
2.34514
2.26383
2.1865
2.12094
2.07297
2.05063
2.06705
2.15064
2.30331
2.17269
1.75114
1.16925
0.679397
0.359214
0.632009
1.26451
1.54618
1.75822
1.94505
2.11688
2.281
2.4461
2.56693
2.62566
2.74863
2.8683
2.86244
2.8387
2.77668
2.67959
2.56887
2.45813
2.35675
2.27188
2.2106
2.17375
2.1666
2.20154
2.25462
2.10641
1.80873
1.29739
0.725378
0.350538
0.766184
1.44686
1.72725
1.94885
2.15039
2.3414
2.52338
2.70253
2.87487
2.96476
3.04593
3.23532
3.24748
3.20357
3.10019
2.96012
2.80944
2.66494
2.53538
2.43407
2.36209
2.31428
2.27198
2.21861
2.17082
2.00858
1.76162
1.38789
0.860323
0.38932
0.843
1.58254
1.89125
2.14994
2.38144
2.59578
2.79756
2.98996
3.17932
3.31246
3.3701
3.62877
3.7087
3.63644
3.47047
3.26893
3.06827
2.88195
2.72393
2.60707
2.54568
2.49532
2.42551
2.31054
2.1696
1.97551
1.72093
1.39048
0.931967
0.419757
0.811098
1.61285
2.04815
2.36574
2.64545
2.88503
3.09784
3.3016
3.50336
3.65892
3.75278
4.02959
4.24395
4.14786
3.8881
3.60286
3.33777
3.10798
2.91365
2.76237
2.67338
2.61942
2.54888
2.41296
2.21117
1.98232
1.72664
1.40911
1.00224
0.445901
0.721591
1.50929
2.11723
2.5915
2.94856
3.2216
3.43198
3.63372
3.85309
4.04378
4.18991
4.49862
4.866
4.73305
4.31608
3.91857
3.57766
3.29032
3.04712
2.84814
2.70805
2.60353
2.51299
2.38753
2.19879
1.97245
1.72185
1.42973
1.07316
0.501503
0.623204
1.39471
2.07858
2.68012
3.21135
3.58306
3.80485
3.99043
4.19225
4.38834
4.59153
4.92873
5.28985
5.1667
4.60669
4.10777
3.72247
3.39152
3.10658
2.87118
2.7111
2.5824
2.44383
2.29466
2.1125
1.90517
1.67269
1.40454
1.07286
0.511763
0.574762
1.36817
2.08239
2.67107
3.26393
3.79345
4.12094
4.35033
4.50191
4.66895
4.87922
5.12848
5.37729
5.26354
4.69898
4.17982
3.76654
3.41019
3.10518
2.85468
2.6823
2.55619
2.38657
2.20311
2.00688
1.79916
1.5771
1.33106
1.02776
0.489372
0.58356
1.42879
2.15084
2.73908
3.2619
3.77516
4.22462
4.58829
4.79661
4.84062
4.98525
5.15615
5.35268
5.24148
4.70829
4.20458
3.78488
3.41699
3.09686
2.82992
2.63505
2.50149
2.32617
2.11351
1.90665
1.69732
1.47888
1.23775
0.937232
0.439704
0.644571
1.57833
2.28348
2.87109
3.35242
3.78787
4.21969
4.60263
4.90115
4.92018
5.04397
5.18429
5.36838
5.25832
4.73692
4.23987
3.81524
3.43542
3.09686
2.80678
2.57778
2.41621
2.24496
2.02139
1.80903
1.6009
1.38444
1.14546
0.846041
0.388585
0.746087
1.7538
2.44072
3.01684
3.51616
3.86478
4.22845
4.56816
4.83137
4.92483
5.07043
5.21989
5.43346
5.32205
4.79065
4.29019
3.85767
3.46248
3.10344
2.78759
2.52411
2.32848
2.14523
1.92266
1.71118
1.50666
1.29411
1.0589
0.766559
0.344032
0.844523
1.91777
2.59029
3.15359
3.66981
3.99621
4.25177
4.5235
4.75705
4.9255
5.08089
5.25282
5.51428
5.40397
4.85594
4.34758
3.90664
3.49532
3.11539
2.77486
2.48255
2.25395
2.04457
1.82262
1.61556
1.41557
1.20875
0.979708
0.699337
0.307206
0.918745
2.05499
2.72063
3.26865
3.77765
4.13557
4.30078
4.50416
4.71735
4.93746
5.0882
5.27745
5.5685
5.46632
4.91384
4.4005
3.95364
3.52907
3.13196
2.77178
2.46166
2.20538
1.9626
1.73185
1.52697
1.33087
1.12909
0.907409
0.642665
0.277084
0.975844
2.16789
2.83719
3.36421
3.84269
4.23414
4.357
4.51191
4.6961
4.90701
5.07427
5.27785
5.57478
5.48721
4.95589
4.44444
3.99299
3.56087
3.15224
2.77762
2.461
2.18288
1.90797
1.66435
1.45593
1.26136
1.06722
0.853111
0.602154
0.255631
1.03169
2.28261
2.95139
3.44868
3.87373
4.25191
4.38822
4.53628
4.68875
4.8519
5.03222
5.24636
5.53006
5.4646
4.97749
4.48758
4.03224
3.59261
3.17383
2.79222
2.4764
2.17918
1.88272
1.62893
1.41493
1.22241
1.03474
0.828233
0.590845
0.252531
1.11852
2.43072
3.08337
3.53337
3.90627
4.2225
4.38401
4.53975
4.67438
4.80091
4.96657
5.1718
5.41907
5.40284
4.99591
4.54287
4.08685
3.63359
3.19988
2.81516
2.4976
2.18461
1.88413
1.62922
1.41322
1.22065
1.0357
0.835759
0.605194
0.264456
1.21298
2.55647
3.18511
3.64726
3.99967
4.24603
4.38922
4.52985
4.65127
4.76197
4.90829
5.08669
5.29627
5.36096
5.06508
4.64052
4.16939
3.6906
3.23619
2.8456
2.51806
2.19713
1.9058
1.65692
1.44288
1.25116
1.06584
0.868994
0.642439
0.295849
1.26505
2.65464
3.33544
3.8041
4.18273
4.40411
4.48857
4.58878
4.68185
4.77426
4.90705
5.06782
5.25342
5.42284
5.24068
4.80272
4.28649
3.76575
3.28297
2.87937
2.53641
2.2192
1.94354
1.70632
1.49861
1.30765
1.11973
0.920593
0.688624
0.324113
1.2137
2.59783
3.34007
3.90346
4.32625
4.58128
4.67743
4.72359
4.77855
4.867
5.002
5.16305
5.34724
5.5661
5.51569
5.03167
4.44042
3.85693
3.3379
2.9163
2.56362
2.25728
1.99427
1.76527
1.55978
1.36585
1.1716
0.967121
0.730587
0.340235
1.15348
2.49204
3.21891
3.78184
4.23415
4.54012
4.70037
4.78013
4.85082
4.95736
5.11134
5.2945
5.49528
5.70454
5.77355
5.32375
4.61642
3.95362
3.39893
2.96825
2.61495
2.31492
2.05496
1.82494
1.61337
1.40977
1.20778
1.00107
0.760703
0.350091
1.11164
2.38766
3.06222
3.56971
3.98635
4.31356
4.53417
4.67098
4.78179
4.9122
5.0735
5.25665
5.44643
5.62528
5.72121
5.44838
4.75888
4.0466
3.47501
3.04153
2.68531
2.38062
2.11357
1.87284
1.64891
1.43721
1.23211
1.02075
0.773111
0.355225
1.07011
2.28053
2.90418
3.36255
3.73257
4.03106
4.26091
4.43782
4.58978
4.74066
4.90099
5.06663
5.2209
5.34462
5.39839
5.23755
4.7152
4.09462
3.55785
3.11744
2.74906
2.43145
2.15097
1.89851
1.66813
1.45353
1.24631
1.03414
0.782815
0.356516
1.03128
2.17325
2.75284
3.17312
3.51174
3.79019
4.01716
4.20499
4.3698
4.52481
4.67664
4.82328
4.95385
5.05228
5.0962
4.99806
4.59279
4.08501
3.58851
3.15111
2.77407
2.44809
2.16191
1.9066
1.67505
1.46013
1.25339
1.04136
0.789941
0.357645
0.995416
2.07136
2.61339
3.00448
3.32102
3.58665
3.81093
4.00331
4.17368
4.32976
4.47545
4.61104
4.73073
4.82465
4.87837
4.82553
4.46495
4.00197
3.54276
3.12585
2.75848
2.43692
2.15343
1.9005
1.6712
1.45894
1.25428
1.04629
0.79324
0.358079
0.962988
1.97839
2.48798
2.85608
3.15628
3.41273
3.63449
3.82866
4.00193
4.15927
4.30462
4.43957
4.55969
4.6576
4.71809
4.676
4.32839
3.88508
3.45461
3.06361
2.71437
2.40458
2.12928
1.88268
1.65885
1.45129
1.25312
1.0472
0.795031
0.35736
0.934302
1.89386
2.37576
2.72569
3.01365
3.26304
3.48241
3.67756
3.85356
4.01419
4.16415
4.30665
4.43269
4.53493
4.5901
4.52169
4.17613
3.75425
3.34962
2.98226
2.6525
2.35737
2.09354
1.85638
1.64067
1.4402
1.2475
1.04482
0.793236
0.357074
0.905606
1.81419
2.27406
2.61038
2.88924
3.13284
3.34956
3.54537
3.72445
3.89016
4.0494
4.20375
4.3362
4.4387
4.47776
4.35838
4.01232
3.61442
3.23503
2.88977
2.57926
2.30054
2.0503
1.82456
1.6184
1.42615
1.23823
1.03857
0.786844
0.356779
0.872533
1.7374
2.18095
2.50782
2.77928
3.01739
3.23048
3.42644
3.60904
3.78132
3.95131
4.11956
4.26011
4.35618
4.36605
4.1833
3.83727
3.46478
3.11031
2.78939
2.49941
2.23864
2.00357
1.79004
1.59378
1.40896
1.22547
1.02754
0.780876
0.353454
0.83731
1.66491
2.09579
2.4164
2.68101
2.91263
3.12035
3.31572
3.50273
3.68188
3.86098
4.03898
4.19464
4.2746
4.22901
3.98582
3.65061
3.30503
2.98078
2.68524
2.41755
2.17549
1.95576
1.75491
1.56816
1.38931
1.20911
1.01458
0.772672
0.348523
0.805468
1.59907
2.01909
2.335
2.59145
2.81562
3.01758
3.21233
3.40356
3.58842
3.77376
3.96209
4.13499
4.18579
4.05285
3.77983
3.46432
3.14899
2.8542
2.58406
2.33844
2.11454
1.9096
1.72064
1.54197
1.36771
1.19113
1.00063
0.763419
0.343995
0.775805
1.53868
1.95067
2.26189
2.50852
2.72492
2.92289
3.11803
3.31306
3.50132
3.69358
3.8942
4.08824
4.08799
3.88145
3.59971
3.30093
3.01066
2.74003
2.49223
2.26603
2.05929
1.8681
1.68774
1.515
1.34549
1.1735
0.98744
0.754895
0.34018
0.745375
1.47899
1.88759
2.1954
2.43077
2.64138
2.83869
3.03515
3.23429
3.42855
3.6314
3.84744
4.05598
4.01334
3.7579
3.46464
3.17342
2.89844
2.6456
2.41417
2.20501
2.01135
1.82919
1.656
1.48925
1.32532
1.15829
0.976502
0.747792
0.33714
0.709988
1.40996
1.82721
2.13322
2.35987
2.56785
2.76791
2.96733
3.17302
3.37971
3.59989
3.83261
4.04373
3.98007
3.68782
3.3761
3.08266
2.8153
2.57392
2.35558
2.15395
1.9678
1.7928
1.62671
1.46674
1.30879
1.14667
0.968641
0.742801
0.334894
0.668922
1.32734
1.76715
2.07496
2.29757
2.50678
2.71284
2.92011
3.13601
3.36304
3.60427
3.84962
4.04461
3.97349
3.65351
3.32143
3.02181
2.75901
2.52153
2.304
2.10782
1.92774
1.75994
1.60139
1.4486
1.2968
1.1394
0.964576
0.740722
0.333905
0.617892
1.23055
1.70798
2.02048
2.24613
2.46112
2.67737
2.89988
3.1294
3.37901
3.64048
3.89335
4.0522
3.953
3.62482
3.28313
2.98075
2.71439
2.47215
2.25703
2.06547
1.89169
1.73172
1.58107
1.43583
1.29008
1.13714
0.965001
0.742199
0.334515
0.557412
1.13528
1.65405
1.97413
2.2085
2.43377
2.66428
2.90541
3.1508
3.42595
3.70826
3.95863
4.07178
3.91313
3.58395
3.25015
2.94229
2.66506
2.42315
2.21258
2.02704
1.8606
1.70929
1.56649
1.42882
1.28917
1.14037
0.970456
0.748071
0.337429
0.499769
1.07602
1.62344
1.94243
2.18803
2.42595
2.67051
2.92876
3.19859
3.49715
3.79401
4.02934
4.0816
3.85591
3.52064
3.20073
2.88516
2.60847
2.3726
2.16984
1.99301
1.83617
1.69336
1.55999
1.42862
1.29465
1.14984
0.981773
0.758837
0.342796
0.468697
1.08177
1.63218
1.93578
2.18699
2.43383
2.69091
2.96543
3.25916
3.57815
3.88327
4.08806
4.04134
3.74906
3.42095
3.10325
2.80294
2.54205
2.31931
2.12895
1.96356
1.81972
1.68794
1.56143
1.43721
1.30839
1.16678
0.999598
0.774449
0.350148
0.475414
1.14011
1.67108
1.94795
2.19968
2.4541
2.72056
3.00665
3.31964
3.65855
3.97177
4.10868
3.92062
3.60454
3.28806
2.98439
2.70952
2.47062
2.26708
2.0914
1.94197
1.80866
1.68718
1.57123
1.45484
1.33124
1.19235
1.025
0.795865
0.359742
0.523362
1.27473
1.73563
1.98155
2.22905
2.48475
2.75347
3.04381
3.36747
3.7277
4.04518
4.04156
3.76181
3.45076
3.14701
2.86627
2.61685
2.40193
2.21667
2.05936
1.92216
1.80273
1.69394
1.58874
1.48073
1.36303
1.2272
1.05943
0.825165
0.373613
0.627709
1.45773
1.8256
2.03681
2.27441
2.52534
2.78843
3.07222
3.38825
3.74605
4.02563
3.8766
3.58651
3.29293
3.01248
2.75623
2.5313
2.33653
2.17066
2.02776
1.9072
1.80283
1.70691
1.61318
1.51499
1.4045
1.27269
1.10487
0.864715
0.393382
0.75311
1.66599
1.93902
2.11109
2.33415
2.5758
2.82964
3.10135
3.38796
3.68693
3.84911
3.66528
3.41745
3.15443
2.89774
2.66235
2.45458
2.27864
2.12833
2.00246
1.89784
1.80788
1.72567
1.64548
1.55909
1.45712
1.33061
1.16334
0.916287
0.41959
0.869315
1.86637
2.0709
2.19962
2.40125
2.63162
2.88642
3.16586
3.41165
3.56238
3.60719
3.49959
3.30275
3.06062
2.81436
2.5878
2.39206
2.22814
2.09271
1.98227
1.89262
1.81791
1.7536
1.68666
1.61312
1.52168
1.40227
1.23639
0.980975
0.451961
0.970465
2.03626
2.2093
2.28993
2.46126
2.68204
2.95764
3.26429
3.48398
3.50099
3.50427
3.46455
3.27586
3.02523
2.76647
2.53621
2.34216
2.18703
2.06375
1.96615
1.89044
1.83194
1.78653
1.7385
1.67678
1.59716
1.48747
1.32493
1.0602
0.491438
1.04302
2.17054
2.33049
2.36057
2.50528
2.72143
2.9848
3.25855
3.45787
3.49109
3.49983
3.48804
3.30994
3.03102
2.74124
2.50034
2.3014
2.15215
2.03868
1.95203
1.88877
1.84374
1.81885
1.78409
1.73943
1.67881
1.58514
1.43069
1.15719
0.540129
1.08711
2.25107
2.39883
2.39867
2.55442
2.76418
2.9722
3.17823
3.33547
3.41821
3.43746
3.3648
3.17261
2.92857
2.69273
2.45482
2.26127
2.11414
2.01037
1.93454
1.88428
1.85348
1.83985
1.827
1.80585
1.76836
1.69715
1.55794
1.27951
0.60226
1.09508
2.25534
2.41516
2.45636
2.62569
2.83185
3.00614
3.17811
3.31286
3.35939
3.31242
3.17431
2.97614
2.76301
2.57051
2.39599
2.2169
2.05843
1.96947
1.90495
1.86958
1.86685
1.87191
1.87284
1.87173
1.86117
1.82154
1.71246
1.44184
0.695152
1.08162
2.21226
2.45124
2.57476
2.74487
2.93685
3.09784
3.23027
3.27362
3.22378
3.10917
2.95974
2.78319
2.59902
2.43274
2.29186
2.16201
2.03159
1.92579
1.86307
1.83342
1.84671
1.86272
1.88913
1.91877
1.94426
1.95068
1.89998
1.68125
0.859824
1.06599
2.14582
2.53011
2.73269
2.88291
3.05296
3.17233
3.2018
3.14189
3.02877
2.89741
2.75188
2.59389
2.43562
2.29501
2.17791
2.07557
1.97383
1.887
1.83762
1.81499
1.80617
1.7951
1.84482
1.92194
2.00188
2.09135
2.15154
1.9909
1.05872
1.06405
2.09714
2.53779
2.78138
2.95607
3.08014
3.11098
3.05663
2.95168
2.82624
2.69073
2.54945
2.40574
2.26733
2.14726
2.04984
1.96418
1.87732
1.80214
1.77173
1.7731
1.7207
1.7274
1.79299
1.90992
2.05743
2.23909
2.42755
2.33008
1.34318
1.08037
2.06336
2.46608
2.7193
2.89046
2.96134
2.9361
2.85752
2.74639
2.6169
2.48081
2.34524
2.21347
2.09053
1.98536
1.9001
1.82076
1.74362
1.69103
1.67908
1.66567
1.64621
1.68609
1.781
1.93694
2.14685
2.40373
2.63516
2.54383
1.53871
1.06232
1.97091
2.31964
2.5574
2.69993
2.74262
2.71144
2.63176
2.52055
2.39419
2.26347
2.13588
2.01512
1.90472
1.81108
1.73231
1.65906
1.60137
1.57771
1.57761
1.57322
1.60464
1.67824
1.81112
2.01796
2.30604
2.62996
2.90776
2.8316
1.64534
0.997038
1.79391
2.11171
2.32137
2.43892
2.47432
2.44621
2.3736
2.27313
2.15924
2.04039
1.92286
1.81199
1.71303
1.62734
1.55342
1.49505
1.46252
1.46671
1.47322
1.50715
1.57648
1.6927
1.88084
2.16513
2.54399
2.9479
3.25837
3.05536
1.63941
0.889795
1.57981
1.86051
2.03699
2.13531
2.16818
2.14954
2.09346
2.0122
1.91717
1.81488
1.71041
1.60992
1.51886
1.43887
1.37487
1.33484
1.32911
1.34754
1.37822
1.44924
1.56292
1.73638
2.00453
2.39701
2.87041
3.32114
3.54022
3.08551
1.58744
0.765656
1.35663
1.59997
1.74432
1.8255
1.85585
1.84625
1.80755
1.74701
1.67322
1.59032
1.50165
1.41237
1.32798
1.25682
1.20564
1.18397
1.19919
1.23475
1.30176
1.41151
1.57797
1.82771
2.20066
2.70769
3.24469
3.66851
3.67679
3.01977
1.49212
0.651551
1.13383
1.35413
1.47335
1.53744
1.56133
1.55524
1.5282
1.48482
1.43054
1.36884
1.29843
1.22114
1.1476
1.09034
1.05578
1.05101
1.0809
1.14326
1.24756
1.4064
1.63928
1.98584
2.48311
3.07935
3.63346
3.92692
3.66534
2.86017
1.40281
0.545572
0.927782
1.12961
1.22993
1.27815
1.29238
1.28478
1.26239
1.23028
1.1937
1.15023
1.09915
1.03872
0.981329
0.9428
0.930832
0.942123
0.9859
1.07995
1.22703
1.44434
1.76237
2.22305
2.83875
3.4819
3.97157
4.0144
3.55381
2.67529
1.31502
0.450198
0.746174
0.926569
1.01083
1.04484
1.04852
1.0362
1.01341
0.987886
0.962789
0.93527
0.904565
0.86898
0.835749
0.819732
0.829667
0.864108
0.927171
1.05257
1.24827
1.53615
1.95462
2.54572
3.24966
3.8785
4.18571
3.97333
3.36935
2.48718
1.22593
0.366454
0.588732
0.743693
0.81259
0.833574
0.828067
0.80942
0.784817
0.761291
0.741954
0.728167
0.719734
0.715655
0.717878
0.731083
0.764223
0.824797
0.91398
1.06873
1.31667
1.68555
2.21816
2.93601
3.68759
4.20679
4.24429
3.83721
3.16727
2.30469
1.13778
0.294014
0.453595
0.581046
0.634434
0.642985
0.63099
0.606711
0.579625
0.55804
0.54748
0.547528
0.557
0.5804
0.61715
0.667793
0.737826
0.834113
0.965781
1.15424
1.44572
1.90053
2.55777
3.37861
4.13167
4.44851
4.21602
3.65448
2.96251
2.13105
1.05283
0.232737
0.340351
0.43989
0.477092
0.475773
0.459481
0.429829
0.403185
0.390205
0.392359
0.408184
0.439033
0.483562
0.543379
0.621646
0.726391
0.869198
1.06175
1.32387
1.67911
2.20706
2.97489
3.84865
4.49974
4.56582
4.11427
3.4607
2.76264
1.96631
0.972086
0.181992
0.248492
0.319941
0.343121
0.336968
0.315143
0.284226
0.265473
0.266181
0.282989
0.318652
0.366103
0.425892
0.502187
0.601491
0.735602
0.922691
1.18209
1.5307
1.99843
2.63072
3.46294
4.26207
4.71981
4.55452
3.95037
3.25913
2.56883
1.80798
0.894961
0.140586
0.175914
0.225876
0.237019
0.227168
0.201539
0.178907
0.176634
0.191656
0.228517
0.275938
0.332053
0.400488
0.488104
0.605375
0.768548
0.998227
1.3189
1.75688
2.34012
3.08557
3.90812
4.5694
4.7983
4.43533
3.75364
3.05635
2.38264
1.6526
0.818686
0.10915
0.124065
0.155954
0.155805
0.143792
0.124435
0.121924
0.136976
0.17351
0.217595
0.267445
0.325943
0.398619
0.49461
0.628916
0.820942
1.0953
1.47694
1.99464
2.67943
3.52993
4.37389
4.92114
4.84019
4.26279
3.55046
2.86186
2.20579
1.49875
0.739094
0.084115
0.0889804
0.101988
0.0980548
0.0883576
0.0896122
0.109026
0.144596
0.185207
0.229137
0.278418
0.337463
0.413487
0.518157
0.669296
0.891804
1.21117
1.65658
2.25638
3.04619
4.01827
4.94169
5.31503
4.87696
4.11176
3.364
2.68087
2.04458
1.35581
0.65168
0.0652773
0.06322
0.0644192
0.0626905
0.0694368
0.0938674
0.131461
0.171997
0.211754
0.253574
0.301554
0.361448
0.442149
0.557833
0.729068
0.982251
1.34816
1.85831
2.54456
3.45454
4.55045
5.54259
5.62989
4.88272
3.98538
3.20182
2.536
1.97144
1.28044
0.566606
0.0515737
0.0445283
0.0462592
0.0573183
0.0844528
0.126905
0.167545
0.205002
0.242195
0.28234
0.329888
0.391775
0.479105
0.609131
0.805441
1.09629
1.51085
2.08184
2.85428
3.88185
5.0634
6.00811
5.80245
4.85049
3.8749
3.08578
2.51214
2.02051
1.29115
0.520065
0.0406583
0.0381846
0.0482175
0.0785244
0.124743
0.165072
0.201475
0.236417
0.272359
0.312348
0.360987
0.426205
0.52143
0.667193
0.889718
1.21867
1.68552
2.32636
3.18603
4.30578
5.50327
6.26983
5.83279
4.77244
3.78201
3.05781
2.59415
2.12097
1.32937
0.520872
0.0355937
0.0414414
0.0734513
0.121389
0.161521
0.197159
0.230694
0.264251
0.300202
0.341699
0.393682
0.464604
0.569126
0.730151
0.976624
1.34194
1.85799
2.56349
3.50422
4.68742
5.84491
6.33354
5.72811
4.65213
3.72092
3.11771
2.75445
2.18098
1.38444
0.537074
0.0363934
0.0609934
0.112992
0.154563
0.19035
0.223231
0.255198
0.288319
0.325163
0.369351
0.426613
0.506356
0.623575
0.800834
1.0697
1.46723
2.0318
2.79912
3.81468
5.04087
6.11629
6.27813
5.52384
4.52134
3.71912
3.25376
2.88407
2.2356
1.43909
0.569987
0.0427986
0.0900342
0.140588
0.179184
0.21294
0.244576
0.276021
0.309485
0.347885
0.395495
0.459025
0.549325
0.682459
0.880243
1.17505
1.6049
2.20989
3.03658
4.1334
5.35252
6.22629
6.12803
5.32649
4.42094
3.75339
3.39203
2.98129
2.29442
1.49214
0.602359
0.0527859
0.110794
0.160359
0.198004
0.231082
0.262476
0.294258
0.328782
0.369322
0.420835
0.491135
0.592266
0.742535
0.964884
1.28882
1.7493
2.39102
3.27186
4.4002
5.52404
6.14151
5.93888
5.17618
4.36939
3.81587
3.49403
3.0518
2.35463
1.54614
0.630887
0.0601704
0.126016
0.175479
0.212966
0.246039
0.277839
0.310633
0.346861
0.39009
0.446009
0.523388
0.635759
0.802337
1.04883
1.40151
1.89118
2.56339
3.47968
4.53319
5.4779
5.94814
5.74548
5.06275
4.34488
3.86178
3.55278
3.10278
2.41402
1.59961
0.655594
0.0661222
0.1384
0.187853
0.22536
0.258744
0.291347
0.325498
0.363735
0.409975
0.470609
0.555641
0.679114
0.86132
1.12717
1.50419
2.02013
2.71575
3.60392
4.52923
5.32595
5.73712
5.56623
4.96747
4.32275
3.88052
3.57899
3.14234
2.47464
1.65575
0.677766
0.071428
0.149147
0.198647
0.236355
0.270287
0.30379
0.339243
0.379264
0.428201
0.493138
0.584936
0.719031
0.914981
1.19685
1.59063
2.1251
2.81829
3.6034
4.41171
5.14381
5.52754
5.38968
4.86759
4.28863
3.87613
3.58577
3.17955
2.54401
1.72166
0.701368
0.0758778
0.158624
0.20894
0.247143
0.281676
0.315923
0.352316
0.393428
0.444254
0.512408
0.609321
0.751178
0.957252
1.25017
1.65576
2.18853
2.81791
3.48836
4.22726
4.92671
5.28835
5.18762
4.7454
4.2352
3.85653
3.58396
3.22103
2.62946
1.80669
0.733022
0.0795173
0.166786
0.219146
0.258453
0.293669
0.328492
0.365369
0.406938
0.458551
0.528338
0.628122
0.773933
0.985766
1.28742
1.68215
2.17428
2.71579
3.31147
3.99777
4.64709
4.9911
4.93889
4.58894
4.15554
3.81668
3.57319
3.2658
2.73365
1.91953
0.781304
0.0825643
0.173867
0.229447
0.270703
0.306865
0.341934
0.378137
0.41894
0.471104
0.541562
0.642332
0.789838
0.998589
1.28385
1.65605
2.10583
2.61375
3.17347
3.794
4.36594
4.67114
4.6607
4.40312
4.0492
3.75636
3.5453
3.30121
2.84816
2.05636
0.84936
0.0859056
0.181377
0.24115
0.284254
0.321434
0.356828
0.393153
0.433183
0.481954
0.549492
0.648756
0.790226
0.985231
1.24837
1.59228
2.0227
2.51481
3.06194
3.6439
4.13899
4.38486
4.39276
4.20557
3.92241
3.67568
3.49524
3.31179
2.95607
2.20118
0.927896
0.0912169
0.1943
0.255046
0.299176
0.337254
0.373014
0.40935
0.449458
0.498106
0.562966
0.654495
0.784387
0.963415
1.20786
1.52832
1.92357
2.39107
2.92758
3.47703
3.93186
4.14019
4.15056
4.0089
3.78317
3.57877
3.42888
3.29804
3.03974
2.33774
1.00095
0.097747
0.20903
0.269821
0.314001
0.351706
0.387023
0.423209
0.463427
0.512193
0.57591
0.663272
0.785167
0.953725
1.18074
1.47326
1.83407
2.26937
2.77372
3.27924
3.70712
3.91388
3.92843
3.81644
3.63634
3.46909
3.34876
3.26032
3.08544
2.43817
1.04934
0.103571
0.220821
0.28177
0.326203
0.364404
0.400589
0.437655
0.478663
0.527796
0.590854
0.675618
0.792151
0.951574
1.16328
1.43287
1.76343
2.159
2.61268
3.06703
3.46471
3.68656
3.71847
3.62957
3.48561
3.34974
3.25521
3.19768
3.08911
2.48724
1.07149
0.107982
0.228767
0.292016
0.338584
0.378795
0.416832
0.455611
0.4982
0.548519
0.611903
0.695529
0.808706
0.96118
1.16048
1.41066
1.7128
2.06813
2.46383
2.85944
3.21975
3.46008
3.51908
3.45124
3.33493
3.22439
3.14974
3.11348
3.05909
2.49633
1.08176
0.111334
0.23618
0.302946
0.352464
0.395295
0.435877
0.477258
0.522465
0.575231
0.640679
0.725472
0.837902
0.986507
1.17595
1.40908
1.68461
1.99903
2.33493
2.67165
2.99759
3.24885
3.33469
3.28578
3.18841
3.09651
3.0357
3.01163
2.9903
2.47208
1.08041
0.114807
0.244759
0.314962
0.367786
0.413904
0.457945
0.503041
0.552138
0.608576
0.677629
0.766078
0.87993
1.02595
1.20814
1.42623
1.67668
1.94976
2.22997
2.51762
2.81616
3.06962
3.1734
3.13786
3.04972
2.96918
2.91736
2.89953
2.89688
2.41695
1.06405
0.118912
0.25431
0.328199
0.384701
0.434837
0.48327
0.533406
0.587974
0.648258
0.718983
0.808214
0.920071
1.06206
1.2378
1.44331
1.67034
1.9066
2.14697
2.40547
2.68775
2.93664
3.04443
3.01103
2.92093
2.84379
2.79747
2.78368
2.78884
2.33442
1.03778
0.123503
0.264788
0.34274
0.403356
0.45823
0.512709
0.568758
0.627441
0.685585
0.745651
0.822187
0.925198
1.06023
1.22917
1.42241
1.62805
1.83921
2.06906
2.33213
2.61281
2.85132
2.94854
2.90369
2.80083
2.71959
2.67546
2.66381
2.6667
2.22544
0.999386
0.12832
0.276049
0.358434
0.423523
0.483429
0.542489
0.599388
0.647234
0.692084
0.74319
0.811299
0.906408
1.03306
1.19059
1.36861
1.55739
1.7549
1.97941
2.25174
2.5451
2.77872
2.86442
2.80275
2.68346
2.59408
2.54933
2.53633
2.52575
2.09154
0.945704
0.133321
0.287769
0.374633
0.443586
0.506189
0.559274
0.602286
0.641146
0.68269
0.732475
0.794916
0.876778
0.983632
1.11497
1.26397
1.42656
1.60701
1.82968
2.10347
2.39547
2.63961
2.74176
2.68544
2.5606
2.46481
2.41667
2.39682
2.36029
1.93583
0.877698
0.138574
0.299521
0.389737
0.458721
0.513407
0.556787
0.59522
0.631289
0.666274
0.705099
0.751565
0.811005
0.889472
0.991195
1.11649
1.2654
1.44177
1.65589
1.90801
2.17534
2.43194
2.56885
2.54352
2.42865
2.33097
2.27638
2.24115
2.16934
1.76538
0.800134
0.144157
0.310368
0.399588
0.461735
0.509383
0.548386
0.581492
0.610779
0.639694
0.670809
0.707058
0.753255
0.814946
0.89721
1.00494
1.14102
1.30941
1.51174
1.74183
1.97916
2.22018
2.39004
2.39628
2.29292
2.19397
2.13037
2.07027
1.96294
1.59331
0.723059
0.149392
0.316997
0.401098
0.457716
0.502112
0.539112
0.570424
0.597664
0.623119
0.648953
0.678031
0.714376
0.76342
0.831221
0.924487
1.0485
1.20565
1.39231
1.59647
1.81183
2.0427
2.24288
2.26803
2.16236
2.05722
1.98229
1.89322
1.76233
1.43415
0.654746
0.149404
0.316178
0.397782
0.455408
0.500409
0.53712
0.567475
0.593091
0.615818
0.637704
0.661334
0.690336
0.729596
0.785203
0.864043
0.971855
1.1101
1.27367
1.45384
1.65021
1.8712
2.09419
2.15371
2.03754
1.92253
1.83519
1.72194
1.58213
1.29474
0.597583
0.144345
0.311748
0.397984
0.457836
0.50374
0.540459
0.570322
0.59495
0.615932
0.634932
0.654228
0.677006
0.707373
0.750622
0.812679
0.898936
1.01204
1.15112
1.312
1.49004
1.68712
1.90644
2.01586
1.90967
1.79151
1.69244
1.56482
1.42388
1.17585
0.552094
0.145474
0.313992
0.402874
0.464364
0.511331
0.54855
0.578397
0.60241
0.621966
0.638699
0.654506
0.671643
0.693492
0.724446
0.769781
0.835242
0.92555
1.04227
1.18272
1.34063
1.50976
1.69231
1.83121
1.77293
1.66426
1.56184
1.42722
1.28536
1.07046
0.509518
0.149783
0.321015
0.411345
0.474031
0.522217
0.560497
0.591065
0.61525
0.63414
0.648935
0.661301
0.673603
0.688212
0.708592
0.739667
0.787102
0.856426
0.95078
1.06894
1.20501
1.3491
1.49429
1.62543
1.63486
1.54923
1.44225
1.30224
1.16248
0.974616
0.464295
0.153908
0.329598
0.421593
0.485924
0.535835
0.575829
0.607902
0.633084
0.652095
0.665803
0.67554
0.683206
0.691552
0.703328
0.722099
0.753365
0.802797
0.874676
0.969483
1.08293
1.20672
1.32967
1.43909
1.49005
1.44418
1.32561
1.18859
1.05413
0.882186
0.431133
0.157712
0.338505
0.432939
0.499517
0.551817
0.594361
0.628953
0.656216
0.676305
0.689578
0.69714
0.701034
0.703545
0.707589
0.716143
0.732848
0.763517
0.812972
0.883567
0.973885
1.07873
1.18947
1.29133
1.35218
1.33857
1.2178
1.08298
0.95438
0.799549
0.403424
0.161467
0.347445
0.444853
0.514256
0.569704
0.615818
0.654246
0.685074
0.707543
0.721036
0.7266
0.727051
0.724732
0.721684
0.720748
0.724741
0.737885
0.765598
0.811735
0.877438
0.960568
1.0547
1.14375
1.20565
1.21131
1.10337
0.980336
0.858827
0.701514
0.345399
0.165377
0.356215
0.456862
0.52959
0.588938
0.639705
0.683554
0.720192
0.747098
0.761684
0.764869
0.761446
0.754586
0.745662
0.735697
0.727386
0.724341
0.73169
0.754354
0.794728
0.853023
0.923821
0.995135
1.04845
1.05041
0.961705
0.854632
0.73887
0.577197
0.269744
0.169358
0.364584
0.468691
0.545111
0.60886
0.665267
0.716429
0.762111
0.796974
0.813729
0.812961
0.804409
0.792725
0.777685
0.758706
0.737997
0.72051
0.710631
0.712041
0.728143
0.760122
0.804977
0.860014
0.889857
0.871973
0.796599
0.709875
0.606294
0.454864
0.206065
0.172432
0.372608
0.480388
0.560512
0.62872
0.690849
0.749942
0.808778
0.857735
0.879004
0.871993
0.856764
0.840136
0.817754
0.787914
0.755178
0.725041
0.701665
0.686732
0.682518
0.690365
0.71369
0.742643
0.745577
0.710485
0.6464
0.578151
0.490233
0.361812
0.161329
0.175272
0.380976
0.492214
0.57541
0.647101
0.713759
0.778711
0.848721
0.912747
0.947541
0.933857
0.919938
0.903225
0.872857
0.830027
0.784785
0.743047
0.708941
0.68223
0.661614
0.650996
0.65225
0.658293
0.639925
0.595517
0.538277
0.47806
0.400616
0.293458
0.12909
0.17922
0.390453
0.504193
0.589089
0.662312
0.729926
0.798864
0.869848
0.93807
0.97432
0.985569
0.98606
0.975881
0.938419
0.883508
0.829819
0.779922
0.734455
0.695669
0.664921
0.640828
0.623972
0.611358
0.580907
0.532332
0.476499
0.41559
0.34121
0.247893
0.113508
0.185082
0.400726
0.515795
0.600848
0.672637
0.739827
0.80413
0.869478
0.930945
0.966846
0.992755
1.02788
1.03726
0.999793
0.948089
0.890051
0.831114
0.777261
0.729571
0.687069
0.651464
0.622376
0.595498
0.558931
0.509616
0.453897
0.390865
0.317586
0.233
0.11191
0.191611
0.41061
0.526461
0.611106
0.682979
0.748771
0.809458
0.866621
0.917797
0.956135
0.98306
1.0212
1.03963
1.01659
0.983215
0.940925
0.890148
0.83168
0.776436
0.725802
0.679417
0.637606
0.6005
0.558812
0.509146
0.453424
0.390004
0.315914
0.232689
0.113873
0.196641
0.419518
0.537617
0.624111
0.697121
0.761412
0.819189
0.86864
0.909137
0.945937
0.973107
1.00156
1.01815
1.00786
0.981996
0.948284
0.904772
0.852638
0.806839
0.76333
0.716745
0.668836
0.619817
0.569218
0.516596
0.461419
0.399304
0.324099
0.238178
0.118933
0.196539
0.429889
0.551596
0.640413
0.713996
0.78014
0.836758
0.877336
0.909313