/*--------------------------------*- C++ -*----------------------------------*\
| =========                 |                                                 |
| \\      /  F ield         | OpenFOAM: The Open Source CFD Toolbox           |
|  \\    /   O peration     | Version:  2.3.0                                 |
|   \\  /    A nd           | Web:      www.OpenFOAM.org                      |
|    \\/     M anipulation  |                                                 |
\*---------------------------------------------------------------------------*/
FoamFile
{
    version     2.0;
    format      ascii;
    class       volScalarField;
    location    "1.43";
    object      nut.air;
}
// * * * * * * * * * * * * * * * * * * * * * * * * * * * * * * * * * * * * * //

dimensions      [0 2 -1 0 0 0 0];

internalField   nonuniform List<scalar> 
6000
(
0.000508067
0.00431757
0.00734592
0.0083074
0.00872309
0.00895063
0.00909976
0.00923371
0.00925685
0.0092267
0.00925887
0.00928239
0.00929371
0.00933883
0.00935457
0.00934557
0.00936007
0.00934784
0.00934313
0.00934569
0.00934019
0.00934457
0.00935644
0.00922716
0.0090519
0.00880252
0.00837034
0.00744284
0.00441929
0.000504706
0.000426137
0.00301551
0.0057419
0.00753059
0.0085103
0.0091063
0.00952888
0.00983918
0.00999651
0.0100232
0.0100391
0.0101249
0.0102659
0.0103401
0.0103615
0.0103395
0.0102624
0.0102126
0.0101978
0.0101884
0.010169
0.0101075
0.00997061
0.00979525
0.00938495
0.00876886
0.00776942
0.00594662
0.00316203
0.000443647
0.000368303
0.00256987
0.00510804
0.00698419
0.00821738
0.00906629
0.00966913
0.0100418
0.0102873
0.0104985
0.0106621
0.0107662
0.0108181
0.0108889
0.0109481
0.010967
0.0109478
0.0109141
0.0108815
0.0108365
0.0107591
0.0106265
0.0103996
0.0100718
0.00956444
0.0087981
0.00757118
0.00571576
0.00311088
0.000420533
0.000332778
0.00232098
0.00463751
0.00657594
0.00802188
0.00910521
0.00987676
0.0103367
0.010703
0.0110796
0.0113233
0.0114484
0.011492
0.0115254
0.0115621
0.0115808
0.0115619
0.0115178
0.0114554
0.0113661
0.01123
0.0110305
0.010728
0.0103234
0.00973487
0.00893892
0.00764162
0.00577791
0.00320761
0.000429571
0.000308851
0.00233071
0.00457594
0.00650791
0.00806224
0.00929645
0.0101959
0.0107963
0.0112742
0.0116756
0.0119853
0.0120996
0.012144
0.012181
0.0121946
0.0121983
0.0121663
0.012091
0.0119847
0.0118312
0.0116319
0.0113712
0.0110202
0.0105643
0.00989454
0.00902248
0.0076853
0.0058087
0.00328631
0.000454387
0.000294229
0.00246888
0.00476522
0.00672928
0.00835002
0.00968259
0.0106481
0.0113415
0.0118823
0.0123024
0.0126068
0.0127321
0.0127927
0.0128282
0.0128452
0.0128251
0.0127693
0.0126673
0.0125202
0.012327
0.0120742
0.0117561
0.0113469
0.0108106
0.0100545
0.00907296
0.00766168
0.00574671
0.00324219
0.000459539
0.000286272
0.00256263
0.00502898
0.00709521
0.00885876
0.0102413
0.0112222
0.0119448
0.0125182
0.0129495
0.0132298
0.0133685
0.0134401
0.0134779
0.0134858
0.0134518
0.0133726
0.013246
0.0130686
0.0128322
0.0125256
0.0121349
0.0116311
0.0109839
0.0101388
0.00904908
0.00755044
0.00558153
0.00308269
0.000454596
0.000288927
0.00269567
0.00544372
0.00771578
0.009516
0.010913
0.0118892
0.0126033
0.0131869
0.0136166
0.0138816
0.0140263
0.0141001
0.0141308
0.0141261
0.0140739
0.0139711
0.013813
0.0135916
0.0132983
0.0129224
0.0124461
0.0118411
0.0110788
0.0101273
0.00891928
0.00731719
0.00530104
0.00279869
0.000438665
0.000303905
0.00301425
0.00603215
0.00837383
0.010198
0.0116097
0.0125953
0.0132999
0.0138761
0.0142989
0.0145611
0.0147069
0.0147732
0.0147949
0.0147682
0.0146904
0.014559
0.0143678
0.0141053
0.0137572
0.0133079
0.0127392
0.0120189
0.0111322
0.0100676
0.00875885
0.00701993
0.00486305
0.00249087
0.000425412
0.000334367
0.00336366
0.00655135
0.00899152
0.0108541
0.0122759
0.0133038
0.0140241
0.0145812
0.0150004
0.0152675
0.015413
0.0154679
0.0154698
0.0154106
0.0153016
0.0151417
0.0149196
0.0146187
0.0142182
0.0136948
0.013032
0.0121963
0.0111926
0.010056
0.00869975
0.00676807
0.00442837
0.0019967
0.000409579
0.000365658
0.00367965
0.00703592
0.00956627
0.0114643
0.0129061
0.0139837
0.0147423
0.0152978
0.0157214
0.0160035
0.0161456
0.0161783
0.0161478
0.0160565
0.0159147
0.0157243
0.0154709
0.0151338
0.0146844
0.0140909
0.0133393
0.0123997
0.0113001
0.0101884
0.00883897
0.00679619
0.00395805
0.00148677
0.000375932
0.000396122
0.00399302
0.00748713
0.0100909
0.0120253
0.0134929
0.0146127
0.0154308
0.0160157
0.0164509
0.0167624
0.0168983
0.016896
0.0168295
0.0167068
0.0165322
0.0163083
0.0160231
0.0156511
0.0151572
0.0144989
0.0136596
0.0126092
0.0114327
0.0103612
0.00902232
0.00707846
0.0041365
0.00148782
0.000336261
0.000443511
0.004275
0.00788477
0.0105447
0.0125235
0.014027
0.0151896
0.0160738
0.0167266
0.0171772
0.0175195
0.0176628
0.0176278
0.017525
0.0173667
0.0171559
0.0168968
0.0165784
0.0161727
0.0156372
0.0149253
0.0140044
0.0128489
0.0115632
0.0103549
0.00898433
0.00726421
0.00474382
0.00171226
0.000329939
0.000488977
0.00450848
0.00816875
0.0108808
0.0129303
0.0144999
0.0157276
0.0166777
0.0174147
0.0179178
0.0182524
0.0184638
0.0184083
0.0182589
0.0180498
0.0177948
0.0174964
0.0171415
0.0166985
0.0161272
0.0153733
0.0144016
0.0131802
0.0117454
0.0103991
0.0089717
0.00729436
0.00512805
0.00219968
0.000346053
0.000516011
0.00438701
0.00810894
0.0110039
0.0132048
0.0149007
0.01623
0.0172647
0.0180713
0.0186537
0.0189922
0.0192929
0.0192578
0.0190562
0.0187791
0.0184648
0.0181174
0.017714
0.0172258
0.016617
0.0158467
0.014849
0.0136061
0.0121358
0.0106131
0.00905817
0.0073513
0.00524052
0.00246228
0.000360892
0.000507424
0.00401038
0.00776186
0.0108497
0.0133206
0.0152199
0.016696
0.0178437
0.0187398
0.0193988
0.0197897
0.0201217
0.0201791
0.0199392
0.0195722
0.0191775
0.0187627
0.0182969
0.0177346
0.0170374
0.0162091
0.0152144
0.0139895
0.0125197
0.0108817
0.0092009
0.00745076
0.00537637
0.00277062
0.000373439
0.000479385
0.00356205
0.00737383
0.0106351
0.0133155
0.0154734
0.0171357
0.0184247
0.019442
0.0201925
0.0206362
0.0209918
0.0211853
0.0209181
0.0204058
0.0198979
0.0193833
0.0188159
0.0181553
0.017366
0.0164462
0.0153732
0.0141131
0.0126477
0.0110221
0.009329
0.00755139
0.00554244
0.00308847
0.000397763
0.000444627
0.00320445
0.00708546
0.0105915
0.0134171
0.0157353
0.0175598
0.0189906
0.0201253
0.0209396
0.0214379
0.0217947
0.0220194
0.0217664
0.0211218
0.0204889
0.0198875
0.0192252
0.018464
0.0175772
0.0165837
0.0154739
0.0141865
0.0127145
0.0110893
0.00938294
0.00758131
0.00556271
0.00313863
0.000401915
0.000425623
0.00324394
0.00719371
0.0106991
0.013672
0.0161049
0.0179917
0.0195031
0.0207016
0.0215476
0.022064
0.0223587
0.0225262
0.0222804
0.0216096
0.0209092
0.0202306
0.0194939
0.0186626
0.0177089
0.0166418
0.015507
0.0142086
0.0127332
0.0111041
0.00937094
0.00753408
0.00550597
0.00308744
0.000393183
0.000428273
0.00361742
0.00776572
0.0112283
0.0140687
0.0164157
0.0183989
0.0199556
0.0211619
0.0219508
0.0224531
0.0226905
0.0228131
0.022572
0.0219109
0.0211934
0.0204711
0.0196825
0.0187964
0.0177875
0.0166474
0.0154657
0.0141598
0.0126923
0.0110832
0.0093412
0.00746541
0.00537109
0.00288668
0.000372948
0.000449506
0.00422427
0.00863405
0.0121503
0.0147527
0.0169094
0.0187184
0.0202358
0.0214732
0.0222258
0.0227412
0.022984
0.0231009
0.0228414
0.0221603
0.0214206
0.0206594
0.0198222
0.0188833
0.0178232
0.0166233
0.015367
0.0140423
0.0125854
0.0110053
0.0092771
0.00737917
0.00522692
0.00268559
0.000350794
0.000483845
0.0047187
0.00942668
0.0130488
0.0156416
0.0175084
0.0191381
0.0205137
0.0216077
0.0224128
0.0229689
0.0232455
0.0233943
0.0231064
0.022383
0.0216101
0.0208102
0.0199237
0.0189336
0.0178255
0.016576
0.0152553
0.0138919
0.012434
0.0108751
0.00916778
0.00726712
0.00508184
0.00253029
0.000330178
0.000515111
0.00509798
0.0100188
0.013771
0.016423
0.018223
0.0196009
0.0208155
0.0218153
0.0226165
0.0231471
0.0234412
0.0236206
0.0233249
0.0225722
0.0217708
0.0209335
0.0199977
0.0189563
0.017803
0.0165195
0.0151599
0.0137529
0.0122784
0.0107206
0.00902545
0.00713496
0.0049399
0.00241038
0.00031205
0.000537669
0.00540383
0.0104557
0.0143077
0.0170485
0.018837
0.02007
0.0211568
0.0220631
0.0228183
0.023308
0.023599
0.0237913
0.0235021
0.0227374
0.0219082
0.0210318
0.0200483
0.0189619
0.0177748
0.0164771
0.0151065
0.0136691
0.0121675
0.0105872
0.00888167
0.00699303
0.00479542
0.00230853
0.000296266
0.000554356
0.00560639
0.0107703
0.0146989
0.0175146
0.019366
0.0205319
0.0215062
0.0223232
0.0229838
0.0234309
0.023695
0.0238943
0.0236359
0.0228819
0.022023
0.0211018
0.0200764
0.0189568
0.0177466
0.0164636
0.0151136
0.0136698
0.0121478
0.010535
0.00880067
0.00690285
0.00470648
0.00226762
0.000284361
0.000570002
0.00577585
0.0109908
0.0149577
0.0178255
0.019733
0.0209062
0.0218299
0.0225718
0.0231357
0.0235426
0.023781
0.0239567
0.0237277
0.0230044
0.0221239
0.0211528
0.0200856
0.0189418
0.0177311
0.0164917
0.0151848
0.0137647
0.0122462
0.010616
0.00885781
0.00694115
0.00473895
0.00232966
0.000282428
0.000593609
0.00589008
0.0111078
0.0150717
0.0180206
0.0200151
0.0212044
0.0220984
0.0227947
0.0232911
0.0236435
0.023864
0.0240014
0.0238111
0.0231184
0.0222164
0.0211981
0.020092
0.0189296
0.0177421
0.0165596
0.0153033
0.0139397
0.012462
0.0108527
0.00909384
0.00715471
0.00491991
0.00248233
0.000288929
0.000617076
0.00572989
0.0109111
0.0150123
0.0180998
0.0201708
0.0214448
0.0223421
0.0229949
0.0234567
0.0237717
0.0239628
0.0240521
0.0238959
0.0232428
0.0223125
0.0212473
0.0201099
0.0189427
0.0177922
0.016662
0.0154643
0.01417
0.0127516
0.0111838
0.00945024
0.00751496
0.00526808
0.00273613
0.00030549
0.000632634
0.00576198
0.0108806
0.0149043
0.0180633
0.0202595
0.0216136
0.0225191
0.023152
0.0236004
0.0239228
0.0241022
0.0241541
0.0240197
0.0234049
0.0224291
0.0213173
0.0201575
0.0189971
0.0178876
0.016804
0.0156746
0.0144648
0.0131313
0.0116428
0.0099649
0.00804435
0.00574834
0.00299892
0.000319821
0.000620194
0.00576056
0.01093
0.014943
0.0179683
0.0201203
0.0216398
0.0226264
0.0232943
0.0237694
0.0240865
0.0242619
0.0242877
0.0241465
0.0235978
0.022595
0.0214398
0.0202584
0.0191101
0.0180385
0.0169986
0.0159303
0.014783
0.0135186
0.0120951
0.0104613
0.00853772
0.00616985
0.00320369
0.000327664
0.000604081
0.00570357
0.0108121
0.0147473
0.0176922
0.0198639
0.0213839
0.0224459
0.02319
0.0237107
0.0240573
0.0242436
0.0242673
0.0241302
0.0237452
0.0228639
0.0216509
0.020435
0.0192984
0.0182609
0.0172553
0.0162184
0.0151093
0.0138868
0.0124976
0.0108704
0.00889594
0.00641971
0.00329866
0.000332323
0.000592943
0.00559046
0.01057
0.0143851
0.0172272
0.0193581
0.0209512
0.022103
0.0229201
0.0234842
0.0238454
0.0240325
0.0240548
0.0239258
0.0236602
0.0230358
0.021954
0.0207111
0.0195712
0.0185427
0.0175399
0.01651
0.0154121
0.0141983
0.0128047
0.0111482
0.0091096
0.00653615
0.00332408
0.000334748
0.000581791
0.00544701
0.0102867
0.0139955
0.0167725
0.0188645
0.0204489
0.0216259
0.0224868
0.0230805
0.0234522
0.0236397
0.0236696
0.0235652
0.0233663
0.0229457
0.0221192
0.0210062
0.0198849
0.0188329
0.017809
0.016766
0.0156572
0.0144294
0.0130163
0.0113245
0.00922964
0.00659533
0.00333978
0.000335323
0.000571145
0.00529598
0.010002
0.013625
0.0163609
0.0184345
0.0200155
0.0212103
0.0220909
0.022705
0.0230964
0.0233063
0.0233705
0.0233161
0.0231803
0.0228672
0.0221883
0.0212092
0.0201252
0.0190633
0.0180205
0.016961
0.0158385
0.0145967
0.0131622
0.0114369
0.00929885
0.00662453
0.00334108
0.000335895
0.000561081
0.00515224
0.00973837
0.013291
0.0159983
0.0180643
0.0196487
0.0208558
0.021754
0.0223926
0.0228156
0.0230653
0.023179
0.0231838
0.0231012
0.0228475
0.0222213
0.0212948
0.0202551
0.019212
0.018171
0.0171063
0.0159754
0.0147202
0.0132643
0.0115097
0.00934321
0.00664769
0.00333514
0.000336118
0.000551824
0.00502128
0.00950245
0.0129957
0.0156812
0.0177444
0.0193355
0.0205564
0.0214763
0.0221461
0.0226114
0.0229133
0.0230824
0.0231369
0.0230838
0.0228404
0.0222216
0.0213126
0.0203098
0.0192974
0.0182728
0.017213
0.0160781
0.0148116
0.0133369
0.0115646
0.00938269
0.00665756
0.00331998
0.000335801
0.0005435
0.00489792
0.00928699
0.012731
0.0154004
0.0174642
0.019065
0.0203034
0.0212497
0.0219566
0.0224703
0.0228287
0.02305
0.0231398
0.0230921
0.0228179
0.0221862
0.0212907
0.0203186
0.0193362
0.0183322
0.0172819
0.016148
0.0148751
0.01339
0.0116065
0.0094082
0.00665704
0.00329906
0.000335651
0.000535037
0.00476917
0.00907929
0.0124853
0.0151443
0.0172118
0.0188245
0.0200834
0.0210598
0.0218069
0.0223707
0.0227847
0.0230532
0.02316
0.0230991
0.0227671
0.0221125
0.0212339
0.0202924
0.0193388
0.0183565
0.0173198
0.0161912
0.0149166
0.0134273
0.0116366
0.00942262
0.00665818
0.00329783
0.000335528
0.000525126
0.00463173
0.00887038
0.0122474
0.0148998
0.0169739
0.0186006
0.0198826
0.0208915
0.0216793
0.0222898
0.0227525
0.0230642
0.0231827
0.0230835
0.0226755
0.0219937
0.0211409
0.0202359
0.0193144
0.0183556
0.0173355
0.0162148
0.0149407
0.013449
0.0116508
0.00942904
0.00667308
0.00333403
0.000333975
0.000514384
0.00449964
0.00866351
0.0120123
0.0146582
0.0167402
0.0183836
0.0196918
0.0207352
0.0215621
0.0222128
0.0227147
0.0230677
0.0231928
0.0230223
0.0225379
0.0218404
0.0210219
0.0201619
0.0192735
0.0183408
0.0173368
0.016223
0.0149502
0.0134532
0.0116472
0.00942611
0.00667893
0.00334441
0.000331631
0.000504489
0.00437481
0.00845986
0.011777
0.0144119
0.0165037
0.0181701
0.0195109
0.0205907
0.0214546
0.0221412
0.0226787
0.0230695
0.0231737
0.0229146
0.0223788
0.0216838
0.0209038
0.0200846
0.0192284
0.0183193
0.0173286
0.0162199
0.0149444
0.0134382
0.0116233
0.00939682
0.00665032
0.00333563
0.000329458
0.00049507
0.00424904
0.00825311
0.0115344
0.0141565
0.0162636
0.0179622
0.0193452
0.0204657
0.0213649
0.0220861
0.0226539
0.023072
0.0231285
0.0227928
0.022229
0.0215443
0.0207971
0.0200104
0.0191812
0.0182917
0.0173139
0.0162058
0.0149188
0.0133969
0.0115644
0.00932952
0.00659478
0.00331531
0.000327606
0.000485135
0.00409782
0.00802273
0.011276
0.0138916
0.016026
0.0177686
0.0192024
0.0203686
0.0213062
0.0220608
0.0226513
0.0230678
0.0230725
0.0226735
0.0220874
0.0214137
0.0206914
0.0199317
0.019126
0.0182556
0.0172837
0.0161678
0.0148619
0.0133153
0.0114643
0.00922905
0.00651764
0.00328358
0.0003261
0.000473468
0.00386944
0.00774847
0.0109954
0.0136252
0.0158052
0.0176021
0.0190911
0.0203059
0.0212821
0.0220653
0.0226652
0.0230545
0.0230051
0.0225427
0.0219344
0.021268
0.020569
0.019839
0.019057
0.0181942
0.0172177
0.0160843
0.0147571
0.0131912
0.0113307
0.00910429
0.00642594
0.0032464
0.000324947
0.000459485
0.00355984
0.00743406
0.010702
0.0133724
0.0156156
0.0174751
0.0190183
0.0202752
0.021282
0.0220807
0.022679
0.0230175
0.0229123
0.0223912
0.0217545
0.0210932
0.0204223
0.0197151
0.0189438
0.0180841
0.0170991
0.0159532
0.0146118
0.0130358
0.0111759
0.00896815
0.00633152
0.00321136
0.000324393
0.000441476
0.00319579
0.00710024
0.0104141
0.0131537
0.0154721
0.0173947
0.0189832
0.0202656
0.0212932
0.0220975
0.0226682
0.0229305
0.0227527
0.0221962
0.0215429
0.0208885
0.0202335
0.0195364
0.018776
0.0179212
0.0169356
0.0157861
0.0144406
0.0128661
0.0110175
0.0088354
0.0062422
0.00318093
0.000324616
0.000419222
0.0029036
0.00682794
0.0101845
0.0129985
0.0153876
0.0173611
0.0189781
0.0202674
0.0212895
0.0220669
0.0225931
0.0227744
0.022509
0.0219458
0.0212977
0.0206432
0.0199869
0.0193035
0.0185603
0.0177186
0.0167425
0.0156002
0.014263
0.0127034
0.0108751
0.00871976
0.00616861
0.0031609
0.00032594
0.000396932
0.00281537
0.00672023
0.0100688
0.0129327
0.0153657
0.017362
0.0189745
0.020243
0.0212322
0.0219751
0.022445
0.0225325
0.0221856
0.0216183
0.0209942
0.0203379
0.0196915
0.0190309
0.0183124
0.0174939
0.016539
0.0154174
0.0141043
0.0125662
0.0107582
0.00862656
0.00611414
0.00315214
0.000328459
0.00038438
0.00292252
0.00676694
0.0100775
0.0129566
0.01539
0.0173706
0.0189416
0.0201671
0.0211178
0.0218162
0.0222132
0.022185
0.0217598
0.0212091
0.020601
0.0199744
0.0193613
0.018734
0.0180494
0.0172666
0.0163495
0.0152607
0.0139696
0.0124446
0.0106478
0.00854298
0.00607199
0.00315129
0.000331895
0.000387039
0.00310335
0.00690444
0.0101527
0.0130287
0.0154407
0.0173677
0.0188724
0.0200367
0.0209402
0.021592
0.0218749
0.0216889
0.0212474
0.0207221
0.0201482
0.0195742
0.0190101
0.0184282
0.0177892
0.0170529
0.0161711
0.0151093
0.0138343
0.0123234
0.0105506
0.00847951
0.00604824
0.0031609
0.000336347
0.000405851
0.00339717
0.00708495
0.0103012
0.0131563
0.0155036
0.0173501
0.0187661
0.0198486
0.0206915
0.0212951
0.0214298
0.0211289
0.0206939
0.0201922
0.01967
0.0191575
0.0186501
0.0181204
0.0175329
0.0168363
0.0159884
0.0149524
0.0137041
0.0122227
0.0104843
0.00845023
0.00605047
0.00318283
0.000342648
0.000443982
0.00364875
0.00725377
0.0104577
0.013284
0.0155669
0.017323
0.0186421
0.0196271
0.0203822
0.0208961
0.0208576
0.0205394
0.0201192
0.019654
0.0191867
0.0187331
0.018282
0.0178076
0.017265
0.0166093
0.0157983
0.0148009
0.0135953
0.0121591
0.0104638
0.00846586
0.00608677
0.00322138
0.000351411
0.000486128
0.00391387
0.00740907
0.0105917
0.013394
0.0156164
0.0172893
0.0185275
0.0194221
0.0200567
0.0203639
0.0202527
0.0199497
0.0195495
0.0191198
0.018699
0.0182968
0.0179022
0.0174782
0.0169822
0.0163702
0.0156055
0.0146637
0.0135204
0.0121459
0.0105015
0.00853402
0.00616463
0.00328255
0.000362709
0.000522319
0.00414328
0.00753036
0.0106738
0.0134407
0.0156065
0.0172061
0.0183841
0.019196
0.0196283
0.0197973
0.0196796
0.0193768
0.018983
0.0185766
0.0181948
0.0178424
0.0174989
0.0171269
0.0166813
0.0161217
0.0154179
0.014554
0.0134927
0.0121965
0.0106003
0.00865677
0.00628702
0.0033703
0.000376227
0.000551924
0.00425245
0.00756857
0.0106493
0.0133594
0.0154628
0.016997
0.0181401
0.018901
0.0192114
0.0192902
0.0191728
0.0188204
0.0184055
0.0180134
0.0176689
0.0173609
0.0170688
0.0167525
0.0163659
0.0158715
0.0152443
0.0144831
0.0135291
0.0122989
0.010744
0.00881915
0.00644526
0.00348201
0.000392046
0.000572332
0.00430311
0.00750373
0.0104697
0.0131073
0.0151396
0.0165976
0.0176819
0.0184418
0.0187779
0.0188413
0.0187329
0.0183683
0.0179303
0.0174937
0.0171328
0.0168557
0.0166116
0.0163543
0.0160364
0.0156242
0.0150953
0.0144554
0.0135789
0.0124101
0.0108987
0.00899853
0.00662589
0.00361391
0.000410557
0.000584652
0.00431916
0.00735874
0.0101517
0.0127051
0.0146511
0.0160592
0.0170561
0.0177476
0.0181664
0.0182936
0.0181552
0.0178221
0.0174246
0.0170303
0.0166453
0.0163377
0.0161268
0.0159242
0.0156777
0.0153661
0.014954
0.0144241
0.013635
0.0125287
0.0110595
0.00918414
0.00681693
0.00376558
0.000432914
0.000587202
0.00433224
0.00724233
0.00986226
0.0122165
0.0140756
0.015449
0.0164686
0.0171365
0.0175104
0.0175723
0.0174456
0.0171587
0.016823
0.0164896
0.0161781
0.0158638
0.0156106
0.0154505
0.0152631
0.0150533
0.0148043
0.0143994
0.0137083
0.0126506
0.0112112
0.00935878
0.00699981
0.00391991
0.000463273
0.000583918
0.004357
0.00724257
0.00964691
0.0117703
0.0134942
0.0148138
0.0157778
0.0164043
0.0166971
0.0167668
0.0166642
0.0164427
0.0161707
0.0158992
0.0156465
0.0154076
0.0151732
0.0149895
0.0148447
0.0147029
0.0145784
0.0142955
0.0137223
0.0127178
0.011317
0.00948741
0.00714903
0.00407757
0.000514579
0.000579129
0.00444718
0.0073719
0.00957602
0.0114754
0.0130617
0.0142592
0.0151177
0.0156235
0.0158659
0.0159268
0.0158475
0.0156736
0.0154587
0.0152477
0.0150594
0.014888
0.0147225
0.0145962
0.014524
0.0144404
0.0143156
0.0140394
0.0135762
0.0126258
0.0112902
0.0095478
0.00728504
0.00421931
0.000567834
0.000578223
0.00450134
0.0074886
0.00962847
0.0113455
0.0127151
0.0137641
0.0144022
0.0148015
0.0150043
0.0150537
0.0149886
0.0148501
0.014682
0.014524
0.0143943
0.014286
0.0141927
0.0141389
0.0141442
0.0141297
0.013941
0.0137016
0.0132093
0.0123243
0.0110696
0.00948986
0.00754021
0.00458069
0.00064266
0.000583124
0.00451919
0.00756474
0.00961694
0.0111644
0.0122887
0.0130624
0.0136142
0.013943
0.0141044
0.0141395
0.0140847
0.0139744
0.0138449
0.0137307
0.0136478
0.01359
0.0135675
0.0136047
0.0136691
0.0136542
0.013495
0.0132564
0.0127454
0.0118612
0.0106757
0.00928239
0.00754291
0.00467615
0.000691521
0.000578957
0.00446899
0.00745989
0.00943346
0.0107324
0.0116658
0.0123232
0.0127668
0.0130311
0.01316
0.0131868
0.0131418
0.0130548
0.0129577
0.0128812
0.0128395
0.0128382
0.0129012
0.0130232
0.0131295
0.0131283
0.0130242
0.0127345
0.0121425
0.0112583
0.0101872
0.00894705
0.00736262
0.00469444
0.000718953
0.000561824
0.00417833
0.00703841
0.00889046
0.0100656
0.0108852
0.0114554
0.0118358
0.012063
0.0121771
0.0122043
0.0121697
0.0121021
0.0120329
0.011989
0.0119921
0.0120649
0.0122184
0.0124022
0.0125223
0.0125724
0.0124534
0.0120829
0.0114702
0.0106822
0.0097937
0.00876733
0.00729557
0.00474205
0.000718936
0.000531262
0.00371931
0.00635349
0.00808408
0.00919549
0.00995487
0.0104791
0.0108342
0.0110486
0.0111629
0.0111991
0.0111783
0.0111284
0.0110809
0.0110698
0.01113
0.0112856
0.0115186
0.011733
0.0118925
0.011954
0.011789
0.0114038
0.0108779
0.0102966
0.0096855
0.00886702
0.00739012
0.00475117
0.000709224
0.000493146
0.00319498
0.00553392
0.00714008
0.00820745
0.00893181
0.009432
0.0097809
0.0099959
0.0101207
0.0101734
0.0101722
0.0101419
0.0101182
0.0101522
0.0102832
0.0105287
0.0107911
0.0110801
0.0112739
0.0112761
0.0111109
0.0108153
0.0104917
0.0102005
0.00983311
0.00909191
0.00753131
0.00469613
0.000687948
0.000455094
0.0025814
0.00466972
0.00615857
0.00717365
0.00786512
0.0083452
0.00868732
0.00890707
0.00904823
0.00912656
0.00915389
0.00915242
0.009172
0.00927622
0.00949685
0.00981458
0.0101264
0.0104644
0.0106354
0.0106442
0.0105379
0.0104395
0.010404
0.0103861
0.0101387
0.00931777
0.00759928
0.00454102
0.000667368
0.000416687
0.00206237
0.00387006
0.00520718
0.00614106
0.0067829
0.00723717
0.00756028
0.00778342
0.00794567
0.00805615
0.00812992
0.00818586
0.00828221
0.00849057
0.00882242
0.0091665
0.00955161
0.00991496
0.010052
0.0101074
0.010187
0.010356
0.0106139
0.0107591
0.0104962
0.00951935
0.00759857
0.0043616
0.000646648
0.000378742
0.00165912
0.00317265
0.00432162
0.00513856
0.00570528
0.00612068
0.00640991
0.0066324
0.00681718
0.00697606
0.0071265
0.00728985
0.00751304
0.0078567
0.00825254
0.00870038
0.00908905
0.00942004
0.00958782
0.00978767
0.0101071
0.0105664
0.0110427
0.0112163
0.0107966
0.00960934
0.00747959
0.00419136
0.00062485
0.000341909
0.00133491
0.00256789
0.00351171
0.00418297
0.00466105
0.0050056
0.0052551
0.00547148
0.00568699
0.00592039
0.00618774
0.00651627
0.00692399
0.00737752
0.00788688
0.00841479
0.0087423
0.00902351
0.00930455
0.00971242
0.0102905
0.0110025
0.0115743
0.0116592
0.0110317
0.00963268
0.00734347
0.00402468
0.000602313
0.000306439
0.00106194
0.0020401
0.00277921
0.00329114
0.0036706
0.00392077
0.00412409
0.00434433
0.00462005
0.00496354
0.00537021
0.00588315
0.00649802
0.00711547
0.00767961
0.00816467
0.00849891
0.00880904
0.00924706
0.00987888
0.0107028
0.0115872
0.0121409
0.0120354
0.0111562
0.00954727
0.00717446
0.00385078
0.000579509
0.000272772
0.000828887
0.00157878
0.00212663
0.00248509
0.00275168
0.00290309
0.00306751
0.0033273
0.00369976
0.00417462
0.00480265
0.00552376
0.00623227
0.00688084
0.00743582
0.00790393
0.00832968
0.0088067
0.00942929
0.0102704
0.0112992
0.0122261
0.012642
0.012315
0.0112154
0.00943501
0.00697254
0.00365581
0.000556698
0.000241315
0.000632334
0.00118228
0.00156018
0.00178946
0.00193713
0.00200718
0.00217809
0.00252732
0.00301755
0.00376043
0.0045864
0.0053699
0.00608706
0.0066991
0.00721768
0.00770867
0.0082684
0.00895209
0.00979957
0.0108387
0.0119725
0.0127972
0.0129944
0.0124183
0.0111279
0.00926274
0.00671586
0.00341755
0.000533751
0.000212117
0.000473097
0.000864315
0.00108745
0.00122863
0.00127091
0.00133318
0.00160938
0.00205609
0.00285407
0.00376433
0.00460897
0.0053745
0.0060274
0.00657505
0.00707546
0.00762969
0.00832352
0.00919545
0.0102431
0.0114245
0.0125404
0.0132258
0.0132113
0.0124177
0.0109747
0.00902805
0.00637545
0.00311521
0.000509867
0.000186896
0.000353814
0.000612723
0.000722159
0.000798381
0.00082028
0.00102351
0.00142713
0.00222927
0.00314767
0.00401023
0.00479797
0.0054753
0.00603351
0.00651819
0.00702638
0.00766119
0.00848087
0.00949388
0.010676
0.0119513
0.0130402
0.0136002
0.0133404
0.0123155
0.0107591
0.00871699
0.00592698
0.00275072
0.000483659
0.000164068
0.000270728
0.000408001
0.000469391
0.00051639
0.000686009
0.00109282
0.00184541
0.00270431
0.00355731
0.00435063
0.0050488
0.00562701
0.00609729
0.00653694
0.00706914
0.00778565
0.00871721
0.00984532
0.0111325
0.0124859
0.0135591
0.0139441
0.0134061
0.0121885
0.0105084
0.0083044
0.00541028
0.00238992
0.000453291
0.000144434
0.000202825
0.000263493
0.000325674
0.000484897
0.00089751
0.00163652
0.00250486
0.00333414
0.00409447
0.00477114
0.00534215
0.00580285
0.00619616
0.00662042
0.0071924
0.00798924
0.0090209
0.0102501
0.0116405
0.0130488
0.014061
0.0141933
0.0134077
0.0120435
0.0102317
0.00778971
0.00506913
0.00223558
0.000422321
0.000128386
0.000149603
0.000215186
0.000368808
0.00076859
0.0015566
0.0024062
0.0031909
0.00391887
0.00457443
0.00513802
0.00559433
0.00595642
0.00629547
0.00673118
0.00737096
0.00825711
0.00937439
0.0106907
0.0121696
0.0135706
0.0144367
0.0143132
0.0133563
0.0119232
0.0099719
0.00757764
0.00510168
0.00241974
0.000404752
0.000113939
0.000157362
0.000277352
0.00068165
0.00150014
0.00230559
0.00307399
0.00378694
0.00443181
0.00499244
0.00545267
0.00580848
0.0060936
0.00640292
0.00686591
0.00757421
0.00854697
0.00975421
0.0111532
0.0126813
0.0140064
0.0146574
0.0143157
0.0132524
0.0118236
0.00979218
0.00765315
0.00541369
0.00276904
0.000405431
0.000106083
0.000205479
0.000600387
0.00139499
0.00217617
0.00293063
0.00363941
0.00428663
0.00485608
0.00533135
0.00570303
0.00598331
0.00622633
0.00653813
0.00704056
0.00781112
0.00885415
0.0101301
0.0115905
0.0131305
0.0143443
0.0147448
0.0142203
0.0131647
0.0117561
0.00986623
0.00797275
0.00582912
0.00315747
0.000411772
0.00010691
0.000404994
0.00118264
0.00196055
0.00271986
0.00343828
0.00409955
0.00468834
0.00518823
0.00558595
0.00588336
0.00611368
0.00635034
0.00669534
0.00725004
0.00807507
0.00917548
0.0105097
0.0120185
0.0135377
0.0145943
0.0147309
0.014083
0.0130963
0.0117403
0.0101284
0.00837459
0.00627315
0.00341703
0.000424165
0.000115374
0.000694171
0.00156854
0.0023818
0.00314269
0.00384043
0.00446394
0.00500048
0.0054364
0.00576496
0.00600172
0.0062014
0.00645487
0.0068568
0.00748155
0.00837064
0.00951858
0.0108997
0.0124617
0.0139003
0.0147316
0.014671
0.013993
0.0130821
0.0118223
0.0104579
0.0087741
0.00664208
0.00358806
0.000435842
0.000128392
0.000864456
0.00182735
0.00269426
0.00346762
0.00415302
0.0047455
0.00523565
0.0056146
0.00588483
0.00607715
0.00626363
0.00654778
0.00702036
0.00772839
0.00868335
0.00988033
0.0113112
0.0128708
0.0141312
0.0147318
0.0146001
0.0139591
0.0131228
0.0120025
0.0107492
0.00911468
0.00693648
0.0037022
0.000445875
0.000137261
0.000973887
0.0020138
0.0029219
0.00371496
0.00439147
0.0049578
0.00540748
0.00573789
0.00596281
0.00612808
0.00631968
0.00664408
0.00718637
0.00797549
0.00899825
0.0102416
0.0117079
0.0131432
0.0141907
0.0146743
0.0145336
0.0139548
0.0131843
0.0121814
0.0109874
0.00938063
0.00715267
0.00379874
0.000454436
0.000143948
0.00105273
0.00215026
0.00309082
0.00390052
0.00457108
0.00511531
0.00553005
0.00582007
0.00601168
0.00616609
0.00637771
0.00675023
0.0073562
0.00821336
0.00929938
0.0105884
0.0120085
0.0132559
0.0141491
0.0145806
0.0144633
0.0139463
0.0132347
0.0123227
0.0111729
0.00958584
0.00732301
0.00389423
0.000462083
0.00014965
0.00113119
0.00225908
0.0032222
0.00404204
0.00470935
0.00523532
0.00562062
0.00587751
0.00604458
0.00619666
0.00643618
0.00685955
0.00752506
0.00844035
0.0095787
0.0108751
0.0121339
0.0132079
0.0140303
0.0144475
0.0143602
0.0139019
0.0132464
0.012393
0.011292
0.00974339
0.00747154
0.00400014
0.000470214
0.00015429
0.00120952
0.00235682
0.00333213
0.0041583
0.00482387
0.00533645
0.00569929
0.00593142
0.00608135
0.0062344
0.00649828
0.00696462
0.00768337
0.00865514
0.00981229
0.0110057
0.0120857
0.0130551
0.0138416
0.0142465
0.0141949
0.013804
0.0132202
0.0124544
0.0113922
0.00987679
0.00761469
0.00412645
0.000480983
0.000157975
0.00125683
0.00243888
0.00343032
0.00426375
0.00493062
0.00543627
0.0057859
0.00600345
0.00614361
0.00629818
0.00657634
0.00706907
0.00782779
0.0088045
0.00989492
0.0109659
0.0119535
0.0128622
0.013596
0.0139785
0.0139652
0.0136503
0.0131457
0.0124534
0.0114555
0.00998387
0.00775528
0.00428659
0.000496911
0.000160963
0.00127358
0.00250697
0.00352612
0.00437226
0.0050439
0.00554735
0.00589258
0.00610747
0.00624476
0.00639848
0.00667848
0.00716454
0.00788753
0.00880099
0.00981869
0.0108556
0.0118279
0.0126934
0.0133574
0.0136968
0.0137082
0.0134601
0.0130287
0.0124032
0.0114663
0.0100471
0.00787592
0.00445939
0.0005184
0.000164166
0.00129605
0.00257568
0.00363173
0.00449428
0.00517101
0.00567552
0.00602459
0.00624327
0.00638136
0.00652892
0.00678615
0.00722293
0.00786463
0.00869968
0.00967848
0.0107049
0.011689
0.0125421
0.0131505
0.0134434
0.0134611
0.0132569
0.01288
0.0123052
0.011409
0.0100476
0.00795441
0.00461023
0.000541856
0.000169161
0.001365
0.00267111
0.00375347
0.00462271
0.0053002
0.00581
0.00616935
0.00639974
0.00654451
0.00667703
0.00689381
0.00726911
0.00784475
0.00861478
0.0095235
0.0105069
0.0114944
0.0123387
0.0129233
0.0132027
0.0132247
0.0130474
0.0127062
0.0121649
0.0112978
0.00999474
0.00797494
0.00473697
0.000562611
0.000175151
0.00145556
0.00278334
0.00387055
0.00474086
0.0054242
0.00594261
0.00631058
0.00654765
0.00669327
0.00681552
0.00700388
0.00733685
0.00785562
0.00855234
0.00938513
0.0103111
0.0112637
0.0120744
0.0126472
0.0129431
0.0129812
0.0128253
0.012507
0.0119833
0.0111322
0.00986174
0.00791054
0.00479767
0.00057591
0.000180327
0.0015237
0.00287416
0.00396992
0.0048509
0.00554779
0.0060785
0.00645541
0.00669736
0.00684238
0.00695509
0.00711989
0.00741581
0.00788252
0.00851537
0.00927959
0.0101358
0.0110182
0.0117747
0.0123305
0.0126525
0.0127202
0.0125854
0.0122808
0.0117606
0.010915
0.00964491
0.00774928
0.00476409
0.000581878
0.000184163
0.00156998
0.00294834
0.00406557
0.00496675
0.00568083
0.00622395
0.00660774
0.0068511
0.00699188
0.00709335
0.00723699
0.00749916
0.00792206
0.00850173
0.00920461
0.00999003
0.0107832