/*--------------------------------*- C++ -*----------------------------------*\
| =========                 |                                                 |
| \\      /  F ield         | OpenFOAM: The Open Source CFD Toolbox           |
|  \\    /   O peration     | Version:  2.3.0                                 |
|   \\  /    A nd           | Web:      www.OpenFOAM.org                      |
|    \\/     M anipulation  |                                                 |
\*---------------------------------------------------------------------------*/
FoamFile
{
    version     2.0;
    format      ascii;
    class       volVectorField;
    location    "1.43";
    object      U.particlesMean;
}
// * * * * * * * * * * * * * * * * * * * * * * * * * * * * * * * * * * * * * //

dimensions      [0 1 -1 0 0 0 0];

internalField   nonuniform List<vector> 
6000
(
(-0.00155707 -0.319629 0)
(0.00820472 -0.336164 0)
(0.0304774 -0.330328 0)
(0.0442851 -0.341655 0)
(0.0471935 -0.356313 0)
(0.0448939 -0.393973 0)
(0.0334705 -0.418454 0)
(0.014851 -0.430864 0)
(0.00435093 -0.425279 0)
(-0.00280198 -0.422433 0)
(-0.00842702 -0.426326 0)
(-0.00573687 -0.430021 0)
(-0.0183134 -0.420322 0)
(-0.0437898 -0.399811 0)
(-0.0520562 -0.382513 0)
(-0.0435233 -0.385443 0)
(-0.035947 -0.389182 0)
(-0.0247815 -0.397 0)
(-0.0288804 -0.403663 0)
(-0.0313483 -0.395319 0)
(-0.0298483 -0.3835 0)
(-0.0280422 -0.37148 0)
(-0.0241661 -0.368336 0)
(-0.0164949 -0.359923 0)
(-0.00896878 -0.354208 0)
(-0.0132641 -0.351767 0)
(-0.0141244 -0.363576 0)
(-0.009752 -0.375711 0)
(-0.0143001 -0.374271 0)
(-0.00354845 -0.308887 0)
(0.0125273 0.000345885 0)
(0.0248608 0.016432 0)
(0.0450045 0.0117783 0)
(0.0559348 0.00616583 0)
(0.0566095 0.00386382 0)
(0.0555887 0.00613306 0)
(0.0483155 0.00232866 0)
(0.0262397 0.00576461 0)
(0.0145205 0.0110588 0)
(-0.000949635 0.00625815 0)
(-0.0151897 0.00525266 0)
(-0.0261841 0.00426225 0)
(-0.0410067 -0.0113535 0)
(-0.0522803 -0.0159428 0)
(-0.0514774 -0.0151428 0)
(-0.0516514 -0.0138507 0)
(-0.0525833 -0.000157975 0)
(-0.0492967 0.0177212 0)
(-0.0464676 0.00989375 0)
(-0.0446735 0.0236397 0)
(-0.0371043 0.0322612 0)
(-0.0315072 0.0237028 0)
(-0.0213041 0.025685 0)
(-0.0170128 0.0258742 0)
(-0.0196271 0.0248204 0)
(-0.0264014 0.00917089 0)
(-0.0290744 -0.000807864 0)
(-0.0323998 -0.00189663 0)
(-0.0262419 0.0126246 0)
(-0.0162305 -0.0128828 0)
(-0.00666231 -0.0543793 0)
(0.0217946 -0.0892003 0)
(0.0367289 -0.0956459 0)
(0.0469029 -0.0786092 0)
(0.0483527 -0.0636133 0)
(0.0428887 -0.0556063 0)
(0.0404026 -0.0517011 0)
(0.0283793 -0.0397563 0)
(0.020085 -0.0336039 0)
(0.00520619 -0.0419894 0)
(-0.0118602 -0.0435938 0)
(-0.0244939 -0.0435639 0)
(-0.0360855 -0.0477598 0)
(-0.043779 -0.0495771 0)
(-0.0432061 -0.0647913 0)
(-0.0485621 -0.0672888 0)
(-0.0588793 -0.0595414 0)
(-0.0635484 -0.0557783 0)
(-0.0584691 -0.064448 0)
(-0.0501808 -0.0712026 0)
(-0.0392795 -0.0780142 0)
(-0.030595 -0.0726267 0)
(-0.0247653 -0.0749049 0)
(-0.0210871 -0.0799473 0)
(-0.0231626 -0.0679548 0)
(-0.0242317 -0.0685855 0)
(-0.0222195 -0.0815883 0)
(-0.0209212 -0.083796 0)
(-0.00954975 -0.0712964 0)
(0.00778491 -0.0827952 0)
(-0.00496826 -0.0588327 0)
(0.0196195 -0.0956955 0)
(0.022431 -0.0986401 0)
(0.0369382 -0.0833946 0)
(0.0406663 -0.0645715 0)
(0.0389613 -0.0545066 0)
(0.0367651 -0.043798 0)
(0.030112 -0.0295289 0)
(0.0242368 -0.0189893 0)
(0.00928977 -0.0252242 0)
(-0.00889484 -0.0311546 0)
(-0.0219887 -0.0335108 0)
(-0.0329396 -0.0409497 0)
(-0.0351601 -0.0490398 0)
(-0.0371226 -0.0635482 0)
(-0.0461023 -0.0629927 0)
(-0.0586596 -0.0575424 0)
(-0.0667843 -0.0552921 0)
(-0.0637297 -0.0645135 0)
(-0.0515322 -0.0741278 0)
(-0.0427461 -0.0809895 0)
(-0.0414297 -0.0806187 0)
(-0.0416708 -0.087703 0)
(-0.0377224 -0.0917818 0)
(-0.0299279 -0.0850581 0)
(-0.0178194 -0.0873356 0)
(-0.00827966 -0.0973224 0)
(-0.00894119 -0.0970996 0)
(-0.000138114 -0.0783956 0)
(0.0134986 -0.0836779 0)
(0.0071329 -0.0884895 0)
(0.0186746 -0.123931 0)
(0.0188477 -0.12762 0)
(0.0281224 -0.101616 0)
(0.0295038 -0.0760424 0)
(0.0265961 -0.0620338 0)
(0.0270759 -0.0490928 0)
(0.0229378 -0.030808 0)
(0.0170691 -0.0190041 0)
(0.00325272 -0.0237892 0)
(-0.0134904 -0.0313627 0)
(-0.0246106 -0.039355 0)
(-0.0343883 -0.047669 0)
(-0.0337493 -0.0589833 0)
(-0.0368989 -0.0671469 0)
(-0.0473161 -0.0671405 0)
(-0.0567562 -0.0671002 0)
(-0.0641406 -0.0662301 0)
(-0.0619718 -0.0854051 0)
(-0.0500855 -0.106239 0)
(-0.0448702 -0.110751 0)
(-0.046128 -0.10454 0)
(-0.0490999 -0.106965 0)
(-0.0471136 -0.104066 0)
(-0.0317619 -0.102729 0)
(-0.016734 -0.113732 0)
(-0.00487557 -0.124591 0)
(-0.00620642 -0.127673 0)
(0.00310607 -0.0996743 0)
(0.0141414 -0.0967608 0)
(0.00753715 -0.110609 0)
(0.0228424 -0.134929 0)
(0.0132371 -0.132553 0)
(0.019015 -0.108381 0)
(0.0179335 -0.0804294 0)
(0.013442 -0.0639457 0)
(0.0144949 -0.0514723 0)
(0.0116491 -0.0356164 0)
(0.00289457 -0.0203553 0)
(-0.0106498 -0.0232754 0)
(-0.0247118 -0.0324431 0)
(-0.0343954 -0.0372341 0)
(-0.0410918 -0.0477788 0)
(-0.0340364 -0.0613843 0)
(-0.0362107 -0.0670944 0)
(-0.0440148 -0.0691568 0)
(-0.0501593 -0.0701699 0)
(-0.0548117 -0.0736036 0)
(-0.0502958 -0.100937 0)
(-0.044224 -0.120479 0)
(-0.0434887 -0.122668 0)
(-0.0456566 -0.113258 0)
(-0.048562 -0.10766 0)
(-0.0469337 -0.103412 0)
(-0.0283046 -0.111075 0)
(-0.0137367 -0.125801 0)
(-0.00791803 -0.136504 0)
(-0.00715683 -0.140071 0)
(0.00291046 -0.107816 0)
(0.0136397 -0.0963805 0)
(0.00389071 -0.124576 0)
(0.0207788 -0.143167 0)
(0.0178816 -0.137515 0)
(0.0170609 -0.113464 0)
(0.0200439 -0.0851473 0)
(0.00882864 -0.0646969 0)
(0.00287075 -0.0468789 0)
(-0.00208507 -0.0296799 0)
(-0.0141674 -0.0186966 0)
(-0.0271012 -0.0226182 0)
(-0.0402996 -0.031194 0)
(-0.0456465 -0.0326969 0)
(-0.0479653 -0.0435152 0)
(-0.0355878 -0.0594801 0)
(-0.0383832 -0.0658993 0)
(-0.0482033 -0.0758846 0)
(-0.052212 -0.0814201 0)
(-0.0482305 -0.0931813 0)
(-0.041821 -0.116492 0)
(-0.0400463 -0.127727 0)
(-0.0401268 -0.123549 0)
(-0.043458 -0.110892 0)
(-0.0450223 -0.106886 0)
(-0.040758 -0.109099 0)
(-0.0255613 -0.117934 0)
(-0.016789 -0.132152 0)
(-0.0127498 -0.142028 0)
(-0.0120022 -0.142105 0)
(-0.00581141 -0.109951 0)
(0.00913613 -0.09437 0)
(0.00512825 -0.133207 0)
(0.0169772 -0.146317 0)
(0.0129163 -0.136642 0)
(0.019083 -0.117059 0)
(0.0182409 -0.083876 0)
(0.00704359 -0.0573697 0)
(-0.00735621 -0.0342643 0)
(-0.0186506 -0.0178747 0)
(-0.0294621 -0.0125669 0)
(-0.0421789 -0.0183583 0)
(-0.0543768 -0.0279822 0)
(-0.0540474 -0.0310615 0)
(-0.0519813 -0.0373767 0)
(-0.0396015 -0.0531752 0)
(-0.0402904 -0.0624926 0)
(-0.0480202 -0.0760266 0)
(-0.0531896 -0.0899674 0)
(-0.0463908 -0.103838 0)
(-0.0378945 -0.11786 0)
(-0.0383318 -0.123881 0)
(-0.0366999 -0.11743 0)
(-0.0371402 -0.105405 0)
(-0.0367039 -0.102843 0)
(-0.0354434 -0.107742 0)
(-0.0289213 -0.117772 0)
(-0.0243649 -0.132826 0)
(-0.0224512 -0.140589 0)
(-0.0216103 -0.137459 0)
(-0.0142373 -0.109644 0)
(0.00434157 -0.097778 0)
(0.00391835 -0.134187 0)
(0.0122366 -0.146412 0)
(0.00567004 -0.128864 0)
(0.0137504 -0.107409 0)
(0.0158944 -0.072687 0)
(-0.00402813 -0.0391766 0)
(-0.0176822 -0.0171371 0)
(-0.0379862 -0.00554075 0)
(-0.0438492 -0.00630961 0)
(-0.0542519 -0.0167002 0)
(-0.064394 -0.0282669 0)
(-0.0576599 -0.0315283 0)
(-0.0536772 -0.0404542 0)
(-0.0400096 -0.0552247 0)
(-0.0389968 -0.062836 0)
(-0.0454281 -0.0763052 0)
(-0.0509285 -0.0884986 0)
(-0.0469073 -0.102158 0)
(-0.0369442 -0.115704 0)
(-0.036247 -0.121491 0)
(-0.0331445 -0.113572 0)
(-0.030599 -0.0981178 0)
(-0.0326973 -0.0938727 0)
(-0.0369094 -0.102767 0)
(-0.0335049 -0.115629 0)
(-0.0346917 -0.132683 0)
(-0.0344876 -0.137468 0)
(-0.0337746 -0.132823 0)
(-0.0204668 -0.110507 0)
(0.00130451 -0.10584 0)
(0.00187675 -0.13218 0)
(0.00913985 -0.141028 0)
(0.00198049 -0.119638 0)
(0.00645172 -0.0910619 0)
(0.0102878 -0.0598159 0)
(-0.00489213 -0.0288232 0)
(-0.0211719 -0.0100398 0)
(-0.0477435 -0.00145871 0)
(-0.0522092 -0.00175362 0)
(-0.0592857 -0.011874 0)
(-0.0659172 -0.0283607 0)
(-0.0603661 -0.0352573 0)
(-0.0521873 -0.0473664 0)
(-0.0377589 -0.0578334 0)
(-0.0363992 -0.0615361 0)
(-0.0432926 -0.0714921 0)
(-0.0475369 -0.0822913 0)
(-0.0422329 -0.0991098 0)
(-0.0354327 -0.114878 0)
(-0.0356489 -0.119214 0)
(-0.0334284 -0.110325 0)
(-0.0332776 -0.0936114 0)
(-0.0350093 -0.0902113 0)
(-0.0381394 -0.096103 0)
(-0.0406111 -0.109311 0)
(-0.043377 -0.126775 0)
(-0.0446249 -0.131555 0)
(-0.0387351 -0.125113 0)
(-0.0235301 -0.111077 0)
(-0.00459881 -0.109238 0)
(5.92813e-05 -0.126547 0)
(0.00665217 -0.136305 0)
(-0.00155404 -0.11597 0)
(0.00355829 -0.0886088 0)
(0.0133224 -0.0575595 0)
(-0.00295526 -0.0248813 0)
(-0.0192832 -0.00330884 0)
(-0.0399921 0.00324448 0)
(-0.0505709 0.00264103 0)
(-0.0547649 -0.00923081 0)
(-0.0601318 -0.0263604 0)
(-0.0577323 -0.0381378 0)
(-0.0488599 -0.0521634 0)
(-0.0372925 -0.0598283 0)
(-0.0344339 -0.0589691 0)
(-0.0406412 -0.0669229 0)
(-0.0425692 -0.0769388 0)
(-0.0356661 -0.0918939 0)
(-0.0363888 -0.110584 0)
(-0.0400806 -0.11451 0)
(-0.0438807 -0.10629 0)
(-0.0457512 -0.0941776 0)
(-0.0415874 -0.08955 0)
(-0.0434626 -0.0913836 0)
(-0.0472005 -0.103107 0)
(-0.0502865 -0.12025 0)
(-0.0485065 -0.126934 0)
(-0.038886 -0.124372 0)
(-0.0254873 -0.113129 0)
(-0.00813214 -0.111643 0)
(0.00267179 -0.12182 0)
(0.0063826 -0.132865 0)
(-0.00369279 -0.113992 0)
(0.00850948 -0.0953003 0)
(0.0140587 -0.063277 0)
(0.00325324 -0.0273052 0)
(-0.00996957 -0.00519752 0)
(-0.0220077 0.00282361 0)
(-0.0403885 0.00544973 0)
(-0.0423223 -0.00443793 0)
(-0.0484352 -0.0217915 0)
(-0.0510626 -0.0355418 0)
(-0.0439268 -0.0472522 0)
(-0.0362278 -0.0533926 0)
(-0.0343052 -0.0559688 0)
(-0.0382283 -0.063828 0)
(-0.0366205 -0.0741297 0)
(-0.0328438 -0.086284 0)
(-0.0349616 -0.104396 0)
(-0.0457956 -0.108544 0)
(-0.0543348 -0.104216 0)
(-0.0520174 -0.0990744 0)
(-0.0500216 -0.0910513 0)
(-0.0525225 -0.0881397 0)
(-0.0542163 -0.0961925 0)
(-0.0540429 -0.108744 0)
(-0.0506623 -0.11765 0)
(-0.036877 -0.119071 0)
(-0.0245662 -0.113939 0)
(-0.00762964 -0.118268 0)
(0.00374078 -0.121271 0)
(0.00585662 -0.132688 0)
(-0.00349083 -0.115833 0)
(0.0101571 -0.0971681 0)
(0.0136107 -0.0705287 0)
(0.0120931 -0.0320147 0)
(0.00190833 -0.00832621 0)
(-0.00648987 0.00466235 0)
(-0.0284648 0.00980992 0)
(-0.0313689 -0.000948472 0)
(-0.0315787 -0.0194773 0)
(-0.0406025 -0.0323866 0)
(-0.0390892 -0.042215 0)
(-0.0333485 -0.0486912 0)
(-0.0334809 -0.0555339 0)
(-0.0347557 -0.0623743 0)
(-0.0323616 -0.0694306 0)
(-0.0325793 -0.082181 0)
(-0.0350356 -0.0982781 0)
(-0.0518922 -0.105953 0)
(-0.0555365 -0.107539 0)
(-0.055687 -0.101425 0)
(-0.0563045 -0.0907815 0)
(-0.0586748 -0.0850132 0)
(-0.0591186 -0.0897846 0)
(-0.0568827 -0.0985041 0)
(-0.0517291 -0.107122 0)
(-0.0369435 -0.111226 0)
(-0.0275624 -0.110297 0)
(-0.0036021 -0.123883 0)
(0.00477277 -0.119529 0)
(0.00447442 -0.132123 0)
(-0.00304399 -0.118749 0)
(0.0103479 -0.100748 0)
(0.0172149 -0.075569 0)
(0.0220217 -0.0390896 0)
(0.0139878 -0.00989538 0)
(0.00784472 0.00782193 0)
(-0.0045064 0.0124269 0)
(-0.016338 0.00589835 0)
(-0.0138363 -0.0136539 0)
(-0.0281441 -0.0242283 0)
(-0.031491 -0.0332243 0)
(-0.031535 -0.0408931 0)
(-0.0350826 -0.0507897 0)
(-0.0347294 -0.059022 0)
(-0.0334286 -0.0667545 0)
(-0.0302347 -0.0775052 0)
(-0.038993 -0.0912686 0)
(-0.0491476 -0.104828 0)
(-0.0527013 -0.108569 0)
(-0.0560752 -0.100323 0)
(-0.0597836 -0.0874885 0)
(-0.0648016 -0.0812387 0)
(-0.0632391 -0.0852284 0)
(-0.0596812 -0.0937711 0)
(-0.0525003 -0.10174 0)
(-0.0369743 -0.106852 0)
(-0.0273275 -0.115984 0)
(-0.00302578 -0.130873 0)
(0.00816325 -0.118425 0)
(0.00610448 -0.131835 0)
(-0.00147866 -0.12129 0)
(0.0116617 -0.10368 0)
(0.0239305 -0.0771048 0)
(0.0316397 -0.0443674 0)
(0.0287998 -0.01547 0)
(0.0210312 0.00600925 0)
(0.0165685 0.0155198 0)
(0.00197439 0.0107115 0)
(-4.6411e-05 -0.00859136 0)
(-0.0130677 -0.0170956 0)
(-0.0235623 -0.0241348 0)
(-0.0280216 -0.0323247 0)
(-0.0355164 -0.04731 0)
(-0.036333 -0.0552744 0)
(-0.0313689 -0.0642165 0)
(-0.0287245 -0.0735337 0)
(-0.0390494 -0.0886067 0)
(-0.0431464 -0.103967 0)
(-0.0490697 -0.106251 0)
(-0.0541855 -0.0981693 0)
(-0.0616291 -0.08438 0)
(-0.0682818 -0.0798101 0)
(-0.0670234 -0.0864711 0)
(-0.0617575 -0.0950754 0)
(-0.0537576 -0.105198 0)
(-0.0366353 -0.117008 0)
(-0.0231429 -0.133709 0)
(-0.000873022 -0.143544 0)
(0.00997504 -0.115392 0)
(0.0049927 -0.128574 0)
(-0.000760364 -0.122282 0)
(0.0144427 -0.106723 0)
(0.0300376 -0.0761082 0)
(0.0453088 -0.0494851 0)
(0.0484318 -0.0181368 0)
(0.039277 0.0025857 0)
(0.0339399 0.0144261 0)
(0.0252808 0.0200605 0)
(0.0162087 0.00038933 0)
(0.00454651 -0.0114923 0)
(-0.0129273 -0.0157698 0)
(-0.0229366 -0.0230681 0)
(-0.0307179 -0.0374795 0)
(-0.0361811 -0.0476651 0)
(-0.029189 -0.0600252 0)
(-0.0314146 -0.0703174 0)
(-0.0349141 -0.0865784 0)
(-0.0371203 -0.102784 0)
(-0.0433257 -0.105298 0)
(-0.0502463 -0.0984166 0)
(-0.0591507 -0.0863654 0)
(-0.0681172 -0.0850769 0)
(-0.0659683 -0.0984425 0)
(-0.0586374 -0.111071 0)
(-0.0488594 -0.128029 0)
(-0.0324934 -0.143389 0)
(-0.0199097 -0.161284 0)
(-0.000676894 -0.166525 0)
(0.00626845 -0.115691 0)
(-0.00304878 -0.127647 0)
(-0.00149277 -0.123922 0)
(0.0150997 -0.109218 0)
(0.0337979 -0.0780285 0)
(0.0536834 -0.0531761 0)
(0.0657692 -0.0174789 0)
(0.0603347 0.00213108 0)
(0.0484355 0.0151966 0)
(0.0435433 0.0209942 0)
(0.0379384 0.00876607 0)
(0.0213448 -0.00632559 0)
(0.00522447 -0.00825148 0)
(-0.0127019 -0.0109533 0)
(-0.0211947 -0.0232835 0)
(-0.0303425 -0.0369993 0)
(-0.0256711 -0.0550264 0)
(-0.0290416 -0.0683793 0)
(-0.0299525 -0.082832 0)
(-0.0316664 -0.0979262 0)
(-0.037807 -0.101518 0)
(-0.0484271 -0.0948522 0)
(-0.0611478 -0.0861653 0)
(-0.0625944 -0.0890301 0)
(-0.0564463 -0.106365 0)
(-0.0505405 -0.117275 0)
(-0.0409708 -0.137261 0)
(-0.0268651 -0.153825 0)
(-0.0140839 -0.172387 0)
(-0.00274936 -0.179085 0)
(-0.00571321 -0.11914 0)
(-0.00778393 -0.128353 0)
(-0.000455052 -0.126789 0)
(0.0160442 -0.111566 0)
(0.0345169 -0.0829614 0)
(0.056894 -0.0606284 0)
(0.0788416 -0.0217178 0)
(0.0823683 0.0059064 0)
(0.0655747 0.0186138 0)
(0.0585819 0.023035 0)
(0.0526467 0.0164515 0)
(0.044026 0.00310938 0)
(0.0233892 0.0042294 0)
(0.00301853 0.00542819 0)
(-0.0075202 -0.00382589 0)
(-0.0188565 -0.0233007 0)
(-0.0179185 -0.0467407 0)
(-0.02273 -0.0619509 0)
(-0.0228545 -0.0763625 0)
(-0.0265491 -0.0892422 0)
(-0.0343628 -0.0925338 0)
(-0.0495579 -0.086279 0)
(-0.0648646 -0.0766887 0)
(-0.057371 -0.0779996 0)
(-0.0471307 -0.100514 0)
(-0.0426591 -0.11132 0)
(-0.033047 -0.13412 0)
(-0.0215052 -0.154846 0)
(-0.00960552 -0.173694 0)
(-0.00155668 -0.183695 0)
(-0.00823373 -0.122641 0)
(-0.00566812 -0.128801 0)
(0.00259975 -0.130568 0)
(0.0190891 -0.115748 0)
(0.0359292 -0.0894121 0)
(0.0620049 -0.0728796 0)
(0.0864219 -0.0422505 0)
(0.0993672 0.00218615 0)
(0.0903717 0.0232015 0)
(0.0744987 0.0273552 0)
(0.0663583 0.0261165 0)
(0.0591849 0.0165552 0)
(0.0402026 0.015406 0)
(0.0199401 0.0210023 0)
(0.00722316 0.0144542 0)
(-0.0045733 -0.0102781 0)
(-0.00511375 -0.0351444 0)
(-0.0124439 -0.0565803 0)
(-0.0152984 -0.0686648 0)
(-0.021257 -0.0805079 0)
(-0.0316059 -0.0821732 0)
(-0.0488735 -0.0736676 0)
(-0.0630581 -0.0646855 0)
(-0.0510411 -0.0690636 0)
(-0.0398493 -0.0969341 0)
(-0.0332479 -0.108344 0)
(-0.0250276 -0.129579 0)
(-0.0167933 -0.151716 0)
(-0.00460631 -0.170037 0)
(0.00231264 -0.182643 0)
(-0.00435948 -0.12206 0)
(-0.00115152 -0.128293 0)
(0.00746155 -0.133696 0)
(0.0246544 -0.123413 0)
(0.039647 -0.0954038 0)
(0.0675475 -0.0783672 0)
(0.0869032 -0.0531975 0)
(0.10678 -0.0142838 0)
(0.105385 0.0248341 0)
(0.0928321 0.0325459 0)
(0.0786964 0.0333244 0)
(0.072706 0.0291343 0)
(0.0571914 0.0239891 0)
(0.0345512 0.0363223 0)
(0.0241713 0.0263436 0)
(0.0119087 0.00296304 0)
(0.00884678 -0.0240242 0)
(-0.000189144 -0.0499163 0)
(-0.00794525 -0.0600218 0)
(-0.018018 -0.0704935 0)
(-0.0312559 -0.0716055 0)
(-0.0473608 -0.0608135 0)
(-0.0568266 -0.054183 0)
(-0.0404425 -0.0618625 0)
(-0.0313813 -0.0953462 0)
(-0.0250309 -0.11014 0)
(-0.0184188 -0.130122 0)
(-0.0121152 -0.147632 0)
(-0.0015602 -0.163793 0)
(0.00867504 -0.180885 0)
(-0.00063671 -0.121992 0)
(0.00594259 -0.127024 0)
(0.0169085 -0.134305 0)
(0.0308371 -0.130683 0)
(0.0446604 -0.105279 0)
(0.0686772 -0.0857706 0)
(0.088986 -0.0587355 0)
(0.105096 -0.0247632 0)
(0.110326 0.0205061 0)
(0.103984 0.0346436 0)
(0.090525 0.0385975 0)
(0.0821678 0.0408353 0)
(0.0720763 0.0354145 0)
(0.050698 0.0450202 0)
(0.0366364 0.0392276 0)
(0.0273542 0.0140103 0)
(0.0218112 -0.0140142 0)
(0.0104982 -0.0427318 0)
(-0.00161177 -0.0508482 0)
(-0.0155106 -0.0588291 0)
(-0.0315343 -0.0600237 0)
(-0.0445262 -0.0503922 0)
(-0.0492958 -0.0461323 0)
(-0.0313835 -0.060103 0)
(-0.0263487 -0.0962543 0)
(-0.0180775 -0.111713 0)
(-0.0129992 -0.131212 0)
(-0.00726525 -0.145134 0)
(0.00251138 -0.15831 0)
(0.0146348 -0.174896 0)
(0.00442058 -0.127448 0)
(0.0142782 -0.133791 0)
(0.0268351 -0.13821 0)
(0.0407772 -0.138805 0)
(0.0500418 -0.113992 0)
(0.0698029 -0.0883763 0)
(0.0895965 -0.0661222 0)
(0.104022 -0.0309793 0)
(0.10926 0.0165052 0)
(0.109424 0.0360544 0)
(0.097296 0.0441376 0)
(0.0881277 0.049654 0)
(0.082946 0.0476439 0)
(0.0664889 0.0518563 0)
(0.047494 0.0467769 0)
(0.036518 0.0260233 0)
(0.0333464 -0.00460463 0)
(0.0177195 -0.0344317 0)
(0.00157238 -0.0413664 0)
(-0.0153276 -0.0480637 0)
(-0.0299926 -0.0511235 0)
(-0.0375982 -0.04128 0)
(-0.0399687 -0.0391172 0)
(-0.026404 -0.0562877 0)
(-0.02475 -0.0962503 0)
(-0.0130069 -0.112719 0)
(-0.0107473 -0.130173 0)
(-0.00562446 -0.140834 0)
(0.00473675 -0.150927 0)
(0.0140358 -0.16598 0)
(0.00467876 -0.134498 0)
(0.0166051 -0.147063 0)
(0.0309621 -0.149297 0)
(0.0461751 -0.146127 0)
(0.0538209 -0.120281 0)
(0.0714054 -0.0904584 0)
(0.0884632 -0.0693823 0)
(0.102811 -0.0373398 0)
(0.109456 0.0153813 0)
(0.112836 0.0375678 0)
(0.103194 0.0484666 0)
(0.0934502 0.0557849 0)
(0.0876936 0.0569809 0)
(0.0798782 0.0553626 0)
(0.0527615 0.0492451 0)
(0.0439425 0.0357212 0)
(0.0416735 0.00532251 0)
(0.0227544 -0.0256599 0)
(0.00262681 -0.0331889 0)
(-0.00891459 -0.0382443 0)
(-0.023604 -0.0417579 0)
(-0.0311366 -0.0335901 0)
(-0.0311658 -0.0331035 0)
(-0.0226452 -0.0507518 0)
(-0.0219751 -0.0925872 0)
(-0.00865643 -0.11318 0)
(-0.010277 -0.12806 0)
(-0.00704355 -0.135204 0)
(0.0032538 -0.150596 0)
(0.0122334 -0.156048 0)
(0.0046298 -0.14121 0)
(0.0182555 -0.16178 0)
(0.0320988 -0.162891 0)
(0.0481334 -0.155241 0)
(0.0548548 -0.126856 0)
(0.0690141 -0.0929676 0)
(0.0847359 -0.07633 0)
(0.0948889 -0.0391221 0)
(0.106048 0.0128223 0)
(0.113311 0.037749 0)
(0.108172 0.0507243 0)
(0.0985871 0.0595695 0)
(0.0897944 0.0646651 0)
(0.0823262 0.0618609 0)
(0.064568 0.0493343 0)
(0.0510902 0.0423127 0)
(0.0447575 0.014867 0)
(0.0237009 -0.0163903 0)
(0.0077246 -0.028014 0)
(-0.0013148 -0.0315545 0)
(-0.0158146 -0.0339379 0)
(-0.0254385 -0.0255105 0)
(-0.0268857 -0.0294537 0)
(-0.0180687 -0.0492793 0)
(-0.0173655 -0.0936711 0)
(-0.0084683 -0.112245 0)
(-0.00905473 -0.122488 0)
(-0.00446071 -0.129791 0)
(0.00198669 -0.15138 0)
(0.00854867 -0.14738 0)
(0.0052066 -0.144618 0)
(0.0220835 -0.169941 0)
(0.0373595 -0.175797 0)
(0.0496184 -0.165375 0)
(0.0525196 -0.135731 0)
(0.0619137 -0.0995262 0)
(0.0758844 -0.076541 0)
(0.0833159 -0.0378148 0)
(0.0995148 0.00862373 0)
(0.109529 0.0366076 0)
(0.108827 0.0529391 0)
(0.10102 0.0633024 0)
(0.0893614 0.0699275 0)
(0.0839101 0.0671189 0)
(0.0719181 0.05479 0)
(0.0579276 0.0459507 0)
(0.0473331 0.0245577 0)
(0.0298874 -0.0111658 0)
(0.0139356 -0.0247435 0)
(0.00292197 -0.0281533 0)
(-0.00951502 -0.0279794 0)
(-0.0174155 -0.0191417 0)
(-0.0234177 -0.0287973 0)
(-0.0146884 -0.0614734 0)
(-0.0159081 -0.100106 0)
(-0.00943129 -0.113275 0)
(-0.00687517 -0.121819 0)
(-0.000221742 -0.13453 0)
(0.00257396 -0.157306 0)
(0.00768355 -0.142709 0)
(0.00882098 -0.149215 0)
(0.0305268 -0.17737 0)
(0.0426315 -0.182104 0)
(0.0503415 -0.172869 0)
(0.0509251 -0.1458 0)
(0.0526696 -0.105543 0)
(0.0655941 -0.0745795 0)
(0.0731406 -0.0346083 0)
(0.0898779 0.00360471 0)
(0.101865 0.0340782 0)
(0.104792 0.0530815 0)
(0.0988131 0.0653639 0)
(0.0879986 0.0714907 0)
(0.0837286 0.0709833 0)
(0.076102 0.0611407 0)
(0.0702548 0.0507288 0)
(0.0538995 0.0282909 0)
(0.0360201 -0.0081559 0)
(0.0185436 -0.0233315 0)
(0.00318548 -0.0280687 0)
(-0.00522418 -0.0297334 0)
(-0.0108728 -0.0202483 0)
(-0.0170441 -0.033475 0)
(-0.0113212 -0.0718402 0)
(-0.0107942 -0.107411 0)
(-0.00440451 -0.124344 0)
(-0.00215858 -0.131933 0)
(0.00490901 -0.151265 0)
(0.00278877 -0.163866 0)
(0.00642876 -0.139737 0)
(0.0117621 -0.154894 0)
(0.0342706 -0.183982 0)
(0.0460221 -0.185473 0)
(0.0497394 -0.177702 0)
(0.0458933 -0.15169 0)
(0.0430494 -0.110806 0)
(0.0513304 -0.0717449 0)
(0.061392 -0.0339013 0)
(0.0745053 0.00109407 0)
(0.0903097 0.0314076 0)
(0.0954875 0.0521226 0)
(0.0917203 0.064387 0)
(0.084872 0.0720788 0)
(0.081009 0.0710672 0)
(0.0798099 0.06452 0)
(0.0779071 0.054528 0)
(0.0565944 0.028486 0)
(0.0302152 -0.0101156 0)
(0.0176113 -0.0276118 0)
(0.00564258 -0.035351 0)
(-0.0010234 -0.036559 0)
(-0.00574588 -0.0268111 0)
(-0.0102621 -0.0372585 0)
(-0.00444228 -0.0715576 0)
(0.00139052 -0.113346 0)
(0.00507073 -0.141943 0)
(0.00732621 -0.154439 0)
(0.0112493 -0.171767 0)
(0.00483539 -0.182416 0)
(0.00293244 -0.14629 0)
(0.0115016 -0.167804 0)
(0.0350792 -0.192612 0)
(0.0449249 -0.187909 0)
(0.0458548 -0.180356 0)
(0.0376232 -0.15511 0)
(0.0309863 -0.115656 0)
(0.0362211 -0.0707495 0)
(0.0490513 -0.0400656 0)
(0.0613673 -0.0027302 0)
(0.0771652 0.0266429 0)
(0.0796878 0.0473932 0)
(0.0809698 0.0577136 0)
(0.078783 0.0641725 0)
(0.0772355 0.0664198 0)
(0.0765937 0.06182 0)
(0.0764488 0.0531711 0)
(0.0566651 0.0256473 0)
(0.0288121 -0.0136488 0)
(0.0188143 -0.0289933 0)
(0.00762287 -0.0334401 0)
(-0.00149284 -0.0337412 0)
(-0.00638922 -0.0276331 0)
(-0.0100508 -0.0419954 0)
(-0.00365211 -0.0754056 0)
(0.00955742 -0.113062 0)
(0.0129943 -0.145208 0)
(0.0135184 -0.160204 0)
(0.0141287 -0.176114 0)
(0.00614503 -0.186444 0)
(0.00580709 -0.160623 0)
(0.00843429 -0.179522 0)
(0.0314129 -0.202718 0)
(0.0394584 -0.191858 0)
(0.0402464 -0.180982 0)
(0.0296708 -0.157082 0)
(0.0206389 -0.117585 0)
(0.0226057 -0.0691939 0)
(0.0345866 -0.042922 0)
(0.0468395 -0.00829952 0)
(0.0567202 0.0203306 0)
(0.061445 0.0402596 0)
(0.0677269 0.0487753 0)
(0.0702036 0.0554507 0)
(0.0725928 0.0587793 0)
(0.0700598 0.0567245 0)
(0.0703945 0.0478149 0)
(0.0513286 0.027347 0)
(0.0266186 -0.0120049 0)
(0.0188878 -0.023289 0)
(0.00690548 -0.0269785 0)
(-0.00405423 -0.0271403 0)
(-0.00803481 -0.0295351 0)
(-0.0110754 -0.0519683 0)
(-0.0086996 -0.0865286 0)
(0.0103581 -0.116503 0)
(0.01656 -0.144902 0)
(0.0171906 -0.156537 0)
(0.0159426 -0.168318 0)
(0.00706592 -0.182184 0)
(0.00756316 -0.161516 0)
(0.00275187 -0.185573 0)
(0.0257686 -0.205451 0)
(0.0327351 -0.190425 0)
(0.0342797 -0.177349 0)
(0.0229363 -0.157759 0)
(0.0114768 -0.11876 0)
(0.0108478 -0.07095 0)
(0.0222806 -0.0422082 0)
(0.0323103 -0.0142312 0)
(0.0375885 0.0151257 0)
(0.0458172 0.0311167 0)
(0.0548325 0.0398223 0)
(0.0622365 0.047456 0)
(0.0667511 0.0518993 0)
(0.069214 0.0497385 0)
(0.0625043 0.0433726 0)
(0.0469497 0.0349049 0)
(0.0278589 -0.00356086 0)
(0.0179131 -0.0147151 0)
(0.00297873 -0.0165561 0)
(-0.00625847 -0.0219492 0)
(-0.00927702 -0.0328409 0)
(-0.0135285 -0.0603087 0)
(-0.00677626 -0.0922104 0)
(0.0092376 -0.120128 0)
(0.0173867 -0.142826 0)
(0.0187357 -0.149892 0)
(0.0174452 -0.159716 0)
(0.00740824 -0.174857 0)
(0.00735236 -0.156758 0)
(-0.0050583 -0.185328 0)
(0.0199132 -0.203045 0)
(0.0268305 -0.185266 0)
(0.0280171 -0.170833 0)
(0.0157174 -0.154656 0)
(0.00350114 -0.120779 0)
(0.00167953 -0.074386 0)
(0.0146778 -0.0441159 0)
(0.0214984 -0.0146333 0)
(0.0269295 0.0112733 0)
(0.0357508 0.0269995 0)
(0.0441068 0.0361546 0)
(0.05319 0.0441019 0)
(0.0583824 0.0455088 0)
(0.0640328 0.0429207 0)
(0.0515175 0.04424 0)
(0.0408925 0.0412887 0)
(0.0260048 0.00348933 0)
(0.0137209 -0.00146361 0)
(0.00321418 -0.00527085 0)
(-0.0058011 -0.0171572 0)
(-0.00941383 -0.035834 0)
(-0.0148023 -0.0651008 0)
(-0.00235597 -0.093984 0)
(0.0101263 -0.122212 0)
(0.0166427 -0.141859 0)
(0.0187125 -0.144759 0)
(0.0165806 -0.153589 0)
(0.00674213 -0.169148 0)
(0.00642554 -0.153466 0)
(-0.00624044 -0.178507 0)
(0.0158146 -0.194665 0)
(0.0192076 -0.178309 0)
(0.0202694 -0.163662 0)
(0.00698482 -0.149354 0)
(-0.00494854 -0.120198 0)
(-0.00734511 -0.0740392 0)
(0.00726135 -0.0406336 0)
(0.0148263 -0.0134642 0)
(0.0214279 0.0112631 0)
(0.030846 0.0258846 0)
(0.0394464 0.0380703 0)
(0.047223 0.0439833 0)
(0.0570038 0.0449806 0)
(0.0584402 0.0430015 0)
(0.0440215 0.0490441 0)
(0.0367339 0.0492735 0)
(0.0248297 0.0127698 0)
(0.0102082 0.00786381 0)
(0.000902003 0.00489773 0)
(-0.00581856 -0.0142955 0)
(-0.00932109 -0.0358864 0)
(-0.0133148 -0.0662931 0)
(0.000391917 -0.0927199 0)
(0.0115538 -0.122744 0)
(0.0147596 -0.139994 0)
(0.0169414 -0.13898 0)
(0.0150676 -0.1454 0)
(0.00613632 -0.161581 0)
(0.00620645 -0.147506 0)
(-0.00273066 -0.175584 0)
(0.0119625 -0.182801 0)
(0.0119939 -0.168098 0)
(0.00961498 -0.152734 0)
(-0.00150289 -0.140859 0)
(-0.0129634 -0.118464 0)
(-0.0187155 -0.0705225 0)
(-0.00274857 -0.0369591 0)
(0.0105087 -0.0113353 0)
(0.0191906 0.012825 0)
(0.0300829 0.0316258 0)
(0.0402828 0.0422352 0)
(0.0469712 0.0488305 0)
(0.0583151 0.0469936 0)
(0.0531459 0.0485074 0)
(0.0399902 0.0570902 0)
(0.0330356 0.055839 0)
(0.0200908 0.0179741 0)
(0.00176126 0.0130465 0)
(-0.00472373 0.00610264 0)
(-0.00827717 -0.0134794 0)
(-0.0097803 -0.0346537 0)
(-0.0104301 -0.0632185 0)
(0.0030814 -0.0905676 0)
(0.0119174 -0.121364 0)
(0.0132424 -0.137671 0)
(0.0155469 -0.134544 0)
(0.0135275 -0.138385 0)
(0.00506215 -0.153767 0)
(0.00641907 -0.141911 0)
(-0.00329974 -0.172956 0)
(0.00704953 -0.170102 0)
(0.00550732 -0.15775 0)
(-0.00119001 -0.139787 0)
(-0.00966696 -0.130504 0)
(-0.0219909 -0.112299 0)
(-0.0292846 -0.066982 0)
(-0.0114732 -0.0328043 0)
(0.00766254 -0.0109605 0)
(0.0180591 0.0148422 0)
(0.0307343 0.0379611 0)
(0.0423532 0.0509037 0)
(0.0479242 0.0573306 0)
(0.0551919 0.0555149 0)
(0.048413 0.0556665 0)
(0.0379711 0.0655261 0)
(0.0298626 0.061462 0)
(0.0143814 0.0254141 0)
(-0.00323412 0.0165845 0)
(-0.00674753 0.00911363 0)
(-0.0088644 -0.0102269 0)
(-0.00881718 -0.0291571 0)
(-0.00426482 -0.0590982 0)
(0.00821408 -0.0858884 0)
(0.0132776 -0.118278 0)
(0.0131169 -0.131849 0)
(0.0139198 -0.128473 0)
(0.0105293 -0.131045 0)
(0.00271256 -0.145133 0)
(0.00633485 -0.134331 0)
(-0.00581388 -0.166331 0)
(0.00350688 -0.158582 0)
(-0.000844475 -0.146113 0)
(-0.00961432 -0.12962 0)
(-0.0176218 -0.120318 0)
(-0.0288394 -0.10521 0)
(-0.0365831 -0.0649642 0)
(-0.0139845 -0.0291137 0)
(0.00879966 -0.00843974 0)
(0.0186965 0.0181544 0)
(0.0292982 0.0428227 0)
(0.0425867 0.0562259 0)
(0.0469709 0.065021 0)
(0.050606 0.0601118 0)
(0.046455 0.0635494 0)
(0.0376713 0.0752604 0)
(0.027498 0.0648896 0)
(0.011977 0.0333441 0)
(-0.00504131 0.0230252 0)
(-0.00911049 0.0139537 0)
(-0.0120046 -0.00552754 0)
(-0.0105859 -0.0316358 0)
(0.00157102 -0.0573589 0)
(0.0143335 -0.0819243 0)
(0.0175822 -0.114249 0)
(0.0182096 -0.124879 0)
(0.0145827 -0.118016 0)
(0.00784206 -0.121413 0)
(0.000564544 -0.137561 0)
(0.00647889 -0.131027 0)
(-0.00797926 -0.15889 0)
(0.000432391 -0.15286 0)
(-0.00885525 -0.138604 0)
(-0.0151481 -0.124376 0)
(-0.0232486 -0.11354 0)
(-0.0327371 -0.100181 0)
(-0.0371197 -0.0649339 0)
(-0.0128763 -0.0265751 0)
(0.00978399 -0.0036868 0)
(0.0198097 0.0239183 0)
(0.0276078 0.0480397 0)
(0.0374668 0.0580928 0)
(0.0445673 0.0693369 0)
(0.048422 0.0633809 0)
(0.046215 0.0710454 0)
(0.0377079 0.0839264 0)
(0.0265399 0.0658083 0)
(0.0126137 0.0424707 0)
(-0.00534851 0.0297417 0)
(-0.011654 0.0189143 0)
(-0.0146856 -0.00774526 0)
(-0.00952276 -0.0367524 0)
(0.00503813 -0.0587743 0)
(0.0207899 -0.0797124 0)
(0.0223674 -0.111066 0)
(0.012727 -0.115652 0)
(0.00910797 -0.113428 0)
(0.00714924 -0.116806 0)
(0.00153111 -0.130033 0)
(0.00671007 -0.127649 0)
(-0.00721121 -0.151724 0)
(0.000675259 -0.152062 0)
(-0.00688836 -0.13599 0)
(-0.0164904 -0.120485 0)
(-0.0244318 -0.108554 0)
(-0.0310909 -0.0978937 0)
(-0.03363 -0.0627192 0)
(-0.0118409 -0.0248179 0)
(0.00754751 0.00119788 0)
(0.0208503 0.0258346 0)
(0.0288496 0.0518652 0)
(0.0369475 0.0606659 0)
(0.0446794 0.0744294 0)
(0.047797 0.07068 0)
(0.0463327 0.0798505 0)
(0.0380567 0.0895497 0)
(0.0272232 0.0685175 0)
(0.0150876 0.0505894 0)
(-0.00415723 0.0383531 0)
(-0.0118151 0.0260272 0)
(-0.012511 -0.00786342 0)
(-0.00323979 -0.0390992 0)
(0.0109452 -0.060836 0)
(0.0255249 -0.0795221 0)
(0.018725 -0.105724 0)
(0.0085389 -0.110558 0)
(0.0064449 -0.111504 0)
(0.00524001 -0.113978 0)
(0.00153024 -0.128115 0)
(0.00948341 -0.122954 0)
(-0.00745908 -0.144804 0)
(0.00133714 -0.148002 0)
(-0.00767599 -0.130022 0)
(-0.0204426 -0.115278 0)
(-0.0289832 -0.103759 0)
(-0.0275759 -0.0939356 0)
(-0.0289398 -0.0575882 0)
(-0.0152039 -0.0233707 0)
(0.0050142 0.00496718 0)
(0.0213543 0.0307186 0)
(0.0310372 0.0551937 0)
(0.0386451 0.0653523 0)
(0.0451136 0.0773014 0)
(0.0469421 0.0789982 0)
(0.0464795 0.0884886 0)
(0.0382052 0.0937105 0)
(0.0283861 0.0718957 0)
(0.0199424 0.0593042 0)
(-0.000705842 0.0463601 0)
(-0.00958978 0.0327407 0)
(-0.00693726 -0.00925797 0)
(0.00473834 -0.0398921 0)
(0.0168494 -0.0615861 0)
(0.0262342 -0.0786521 0)
(0.01499 -0.0977002 0)
(0.0066973 -0.107116 0)
(0.00266645 -0.107828 0)
(0.00329553 -0.113012 0)
(-0.000733932 -0.126992 0)
(0.0102602 -0.11804 0)
(-0.00852858 -0.135674 0)
(-0.000575226 -0.14205 0)
(-0.0102172 -0.120907 0)
(-0.0215648 -0.105949 0)
(-0.028471 -0.0961767 0)
(-0.0240944 -0.0848477 0)
(-0.0298481 -0.051239 0)
(-0.0189076 -0.0206328 0)
(0.00434823 0.00844535 0)
(0.0184664 0.0329756 0)
(0.0302582 0.0589169 0)
(0.0414372 0.0723131 0)
(0.0456228 0.086224 0)
(0.0457772 0.0878051 0)
(0.0463022 0.0960867 0)
(0.0390512 0.096294 0)
(0.0298575 0.0767462 0)
(0.023566 0.0664048 0)
(0.00423938 0.0545282 0)
(-0.00707256 0.0385237 0)
(0.000476478 -0.00987796 0)
(0.0100302 -0.0424834 0)
(0.0193898 -0.0606482 0)
(0.0236159 -0.0738269 0)
(0.013359 -0.0937589 0)