/*--------------------------------*- C++ -*----------------------------------*\
| =========                 |                                                 |
| \\      /  F ield         | OpenFOAM: The Open Source CFD Toolbox           |
|  \\    /   O peration     | Version:  2.3.0                                 |
|   \\  /    A nd           | Web:      www.OpenFOAM.org                      |
|    \\/     M anipulation  |                                                 |
\*---------------------------------------------------------------------------*/
FoamFile
{
    version     2.0;
    format      ascii;
    class       volVectorField;
    location    "2.69999";
    object      U.waterMean;
}
// * * * * * * * * * * * * * * * * * * * * * * * * * * * * * * * * * * * * * //

dimensions      [0 1 -1 0 0 0 0];

internalField   nonuniform List<vector> 
10000
(
(-0.224861 -0.95681 -0.558086)
(0.0267395 -0.964202 -0.565209)
(0.0936539 -0.812485 -0.515239)
(0.143577 -0.581373 -0.350283)
(0.175666 -0.395365 -0.2345)
(0.170649 -0.271929 -0.292005)
(0.109131 -0.185997 -0.235356)
(0.0434231 -0.156989 -0.227699)
(0.020527 -0.153189 -0.228758)
(-0.00327788 -0.154788 -0.221723)
(-0.0278956 -0.165732 -0.258669)
(-0.0743269 -0.227295 -0.203234)
(-0.108088 -0.222138 -0.165081)
(-0.143181 -0.233359 -0.177071)
(-0.178752 -0.276034 -0.187007)
(-0.167653 -0.378615 -0.224828)
(-0.122293 -0.563915 -0.334567)
(-0.0691529 -0.744526 -0.475933)
(-0.012254 -0.832173 -0.491481)
(0.204835 -0.808521 -0.488714)
(0.00676475 -1.02795 -0.0787032)
(0.000853795 -0.989459 -0.0710217)
(0.00180647 -0.82034 -0.0528008)
(0.00136736 -0.473573 -0.0118785)
(0.0161112 -0.290061 -0.131024)
(0.0307945 -0.111842 -0.568997)
(0.00541319 -0.111208 -0.372395)
(-0.00759429 -0.116866 -0.32364)
(0.000350502 -0.125736 -0.287902)
(-0.000226456 -0.12444 -0.281423)
(-0.0019015 -0.104776 -0.436063)
(-0.000504996 -0.111901 -0.386794)
(-0.00253027 -0.126561 -0.23107)
(0.00435584 -0.122994 -0.260628)
(-0.0226973 -0.149685 -0.2165)
(-0.0288411 -0.292148 -0.130214)
(-0.00153346 -0.462949 -0.0133369)
(-0.00185288 -0.758394 -0.0515656)
(-0.000192104 -0.837013 -0.0540989)
(-0.00279234 -0.827711 -0.0598493)
(0.00218055 -1.04927 -0.0300871)
(0.00309683 -0.983221 -0.0218193)
(0.00440015 -0.824246 -0.0209826)
(0.00114179 -0.492278 -0.0112104)
(0.00407491 -0.324898 -0.0708509)
(0.00285666 -0.171608 -0.154451)
(0.00155028 -0.146453 -0.188172)
(1.66543e-06 -0.141936 -0.199723)
(0.000160005 -0.146653 -0.194947)
(-0.000194515 -0.145934 -0.190212)
(-0.000417759 -0.139979 -0.197346)
(0.0016063 -0.144997 -0.182661)
(-0.000460787 -0.144098 -0.17351)
(-0.00123426 -0.143905 -0.173403)
(-0.00203548 -0.16869 -0.139801)
(-0.00439975 -0.331286 -0.078887)
(-0.000940142 -0.50752 -0.014114)
(-0.00445442 -0.753453 -0.0175062)
(-0.00233558 -0.833528 -0.015642)
(-0.000722702 -0.835912 -0.0199713)
(0.00475097 -1.01712 -0.0119039)
(0.00221988 -0.946686 -0.00906077)
(0.00420703 -0.786864 -0.00380197)
(0.000956552 -0.430894 0.00377289)
(0.00182228 -0.302483 -0.0671497)
(-0.000211692 -0.154372 -0.172595)
(0.000618396 -0.133041 -0.221459)
(-0.000244382 -0.130991 -0.220577)
(-9.44694e-05 -0.138666 -0.21037)
(-6.41698e-05 -0.137603 -0.206018)
(-0.000366025 -0.12676 -0.220192)
(-0.000447093 -0.132135 -0.215467)
(-0.000198555 -0.135847 -0.212845)
(-0.000831183 -0.135082 -0.213206)
(-0.000178954 -0.163799 -0.163013)
(-0.000614421 -0.313813 -0.0764376)
(-0.00103636 -0.447285 0.000652589)
(-0.00527501 -0.715663 -0.00178421)
(-0.00177812 -0.80579 -0.00200737)
(-0.00308465 -0.80059 -0.00344669)
(0.00139426 -1.03633 -0.0135165)
(0.00271346 -0.95377 -0.0101196)
(0.0049947 -0.811547 -0.0066294)
(0.00348938 -0.442644 0.000730452)
(0.00447154 -0.290821 -0.0685489)
(0.000119836 -0.155408 -0.162351)
(0.000468155 -0.133999 -0.21274)
(-0.000130306 -0.13081 -0.214453)
(-9.09842e-05 -0.138394 -0.204381)
(-5.20308e-05 -0.1378 -0.201368)
(-0.000112496 -0.128268 -0.209361)
(-0.000140931 -0.135119 -0.200957)
(-0.000114003 -0.135413 -0.201113)
(-0.000779954 -0.133744 -0.205243)
(-0.000431643 -0.159611 -0.161059)
(-0.00400185 -0.304016 -0.0773157)
(-0.00286023 -0.453181 -0.000995968)
(-0.0066607 -0.739518 -0.00351054)
(-0.0019945 -0.821446 -0.00192173)
(-0.00017678 -0.816679 -0.00543626)
(0.00259422 -1.04397 -0.0135546)
(0.00235999 -0.95317 -0.00996021)
(0.00441245 -0.816815 -0.0054662)
(0.0023737 -0.426563 0.00307772)
(0.00284832 -0.263531 -0.0693297)
(0.000270162 -0.142598 -0.171923)
(0.000518659 -0.125703 -0.217288)
(-6.02945e-05 -0.122959 -0.218636)
(-0.0001695 -0.13172 -0.207561)
(-5.6752e-05 -0.130851 -0.203879)
(-5.8501e-05 -0.120707 -0.215079)
(-6.57076e-05 -0.127678 -0.206271)
(5.64654e-05 -0.128236 -0.205886)
(-0.000527146 -0.125821 -0.210384)
(-0.000322563 -0.148657 -0.166791)
(-0.00272123 -0.280001 -0.0789821)
(-0.00219402 -0.431484 0.00131113)
(-0.00630354 -0.742355 -0.00187322)
(-0.00175569 -0.826675 -0.000566677)
(-0.000376569 -0.814457 -0.00361969)
(0.00144459 -1.05097 -0.0134461)
(0.00188197 -0.947903 -0.00836733)
(0.00457154 -0.830355 -0.00592332)
(0.00362672 -0.422201 0.00363327)
(0.00472427 -0.238178 -0.0655744)
(0.000619704 -0.133858 -0.170156)
(0.000677902 -0.119253 -0.213017)
(0.000117179 -0.115663 -0.215035)
(-0.000110251 -0.124463 -0.203332)
(3.20937e-06 -0.125594 -0.200223)
(1.1846e-05 -0.115499 -0.210405)
(0.000146491 -0.122532 -0.201537)
(0.000336483 -0.121635 -0.202483)
(-0.000181027 -0.118631 -0.208328)
(-0.000231208 -0.139794 -0.166918)
(-0.00481563 -0.257363 -0.0759947)
(-0.00324687 -0.421448 0.00222761)
(-0.00611303 -0.754498 -0.00173837)
(-0.00159227 -0.836454 -0.000625635)
(-0.000277179 -0.8176 -0.00311409)
(0.000860964 -1.05488 -0.0133947)
(0.00142561 -0.94489 -0.0072354)
(0.00408253 -0.843512 -0.00533002)
(0.00416977 -0.416195 0.0049404)
(0.00345539 -0.185407 -0.0546508)
(0.00128831 -0.114879 -0.164593)
(0.000777908 -0.104365 -0.202803)
(0.000159556 -0.100795 -0.204827)
(-0.000270936 -0.108586 -0.191155)
(-2.83851e-05 -0.109727 -0.187208)
(0.000253197 -0.102159 -0.199216)
(0.000567865 -0.108324 -0.189585)
(0.000785788 -0.107529 -0.19114)
(0.000369243 -0.104396 -0.198285)
(-0.000525218 -0.120717 -0.160173)
(-0.00369915 -0.209405 -0.0654741)
(-0.00343028 -0.410861 0.00343308)
(-0.00588865 -0.767684 -0.00165899)
(-0.00147015 -0.842767 0.000166807)
(-0.000363586 -0.816934 -0.0016464)
(0.000372487 -1.05591 -0.0129197)
(0.00083197 -0.940974 -0.00598067)
(0.00354186 -0.860646 -0.00538204)
(0.00529356 -0.422552 0.00507587)
(-0.00076289 -0.11669 -0.0101879)
(-0.00193707 -0.0745616 -0.11883)
(0.000706749 -0.0684241 -0.145686)
(4.98504e-05 -0.0637584 -0.146019)
(-0.000776247 -0.0694897 -0.133313)
(0.00029942 -0.0720616 -0.128645)
(0.00030441 -0.0679968 -0.139872)
(0.000192166 -0.0717688 -0.13055)
(0.00104544 -0.0701878 -0.133124)
(0.00031558 -0.0689623 -0.143242)
(0.00244376 -0.0793616 -0.113881)
(-1.67279e-05 -0.138061 -0.0197751)
(-0.00448134 -0.414155 0.00388307)
(-0.00520375 -0.776959 -0.00203398)
(-0.00142024 -0.850007 0.00062372)
(5.77644e-05 -0.817381 -0.000267264)
(0.000263484 -1.05477 -0.011771)
(0.000684937 -0.935847 -0.00436776)
(0.00310839 -0.879525 -0.00680411)
(0.00327423 -0.438139 0.00227243)
(0.00154536 -0.0624239 0.00902774)
(0.000185684 -0.0326772 0.0050109)
(0.000282589 -0.0298178 0.00541831)
(0.000132263 -0.0221123 0.00518726)
(0.000216967 -0.0284059 0.00590694)
(-8.66045e-05 -0.028864 0.00614752)
(-4.30496e-06 -0.0219003 0.00573779)
(0.000108012 -0.028539 0.00605923)
(-6.40619e-05 -0.0283462 0.00585836)
(-0.000279803 -0.0290992 0.00555771)
(-0.000249401 -0.0367826 0.00576637)
(-0.00170228 -0.0595826 0.0106973)
(-0.00288582 -0.428024 0.00172517)
(-0.0043406 -0.785004 -0.0021559)
(-0.000855328 -0.853722 0.00123539)
(0.000371748 -0.816373 0.000879223)
(-0.00036646 -1.05274 -0.00950336)
(0.000522417 -0.930502 -0.00247114)
(0.00297112 -0.894514 -0.00738912)
(0.00307527 -0.444157 0.000752445)
(0.000821133 -0.082426 6.40837e-05)
(-0.000372031 -0.0456742 -0.000404463)
(2.30668e-05 -0.0323228 -0.000300722)
(3.9123e-05 -0.029965 -0.000145161)
(-0.000130339 -0.0285884 4.68999e-05)
(0.000111268 -0.029017 -5.60568e-05)
(-2.37e-05 -0.0293654 -0.000162798)
(-0.000118074 -0.0296338 -0.000349567)
(1.15896e-05 -0.0293659 -0.000273205)
(-5.07197e-05 -0.030681 -0.000250574)
(6.58987e-05 -0.0410316 -0.000698333)
(-0.000262503 -0.0892976 -0.00138032)
(-0.00196206 -0.429607 0.000814026)
(-0.00399168 -0.791252 -0.00248113)
(-0.000826469 -0.856773 0.00215265)
(0.000779329 -0.813877 0.00244532)
(-0.00115948 -1.04704 -0.00681073)
(0.000269198 -0.924476 -0.000867871)
(0.003001 -0.909684 -0.007392)
(0.00368142 -0.440988 0.00133111)
(0.000402979 -0.0713624 0.000669251)
(-0.000387852 -0.0414187 0.000134921)
(-0.000124304 -0.0427117 -0.00155038)
(-9.48112e-06 -0.0288656 -3.039e-05)
(-0.000100431 -0.0368766 -0.00122857)
(9.10295e-05 -0.0382951 -0.00127069)
(1.36486e-05 -0.0287686 -0.000197436)
(-4.92222e-06 -0.0407525 -0.00147279)
(2.54252e-05 -0.0397056 -0.00130254)
(0.00011363 -0.0406529 -0.00123259)
(0.000340876 -0.0531402 -0.00135264)
(0.000835937 -0.0923116 -0.00120901)
(-0.00245141 -0.421807 0.00150977)
(-0.00382523 -0.79585 -0.00260982)
(-0.000954893 -0.855932 0.00305405)
(0.000978216 -0.807347 0.00368627)
(-0.00279041 -1.04389 -0.00504548)
(0.000785084 -0.921339 0.000127573)
(0.00294335 -0.928898 -0.0085599)
(0.00342876 -0.439267 0.00104558)
(0.000600415 -0.0687511 0.000466469)
(-4.35683e-06 -0.0423053 7.66551e-05)
(-0.00013638 -0.0425448 -0.000156723)
(-6.07506e-05 -0.0300271 -8.66805e-05)
(0.000145194 -0.0360929 -0.000162309)
(-0.000128158 -0.036157 -0.000109476)
(4.72919e-05 -0.0312595 -0.000153259)
(0.000211887 -0.0374931 -5.77854e-05)
(2.83683e-05 -0.0360574 -1.15963e-05)
(0.000105069 -0.0373004 3.20556e-05)
(0.000193709 -0.0461232 0.000338933)
(0.000166638 -0.0755023 0.000922793)
(-0.0020159 -0.412891 0.00202801)
(-0.00311652 -0.798847 -0.00261027)
(-0.00127424 -0.854007 0.00464976)
(0.00277858 -0.801385 0.00533502)
(-0.00492522 -1.03933 -0.00456874)
(0.00111033 -0.915214 0.00097004)
(0.00261835 -0.946386 -0.0103542)
(0.00240462 -0.435591 0.0012099)
(0.000488092 -0.0631722 0.000645179)
(-0.000156016 -0.0394227 0.000239204)
(-0.000157351 -0.0411841 -0.000251359)
(-8.37792e-05 -0.0299179 -0.000169649)
(-3.94105e-05 -0.0365791 -0.000479865)
(3.39917e-05 -0.0370902 -0.00038003)
(7.58294e-05 -0.0299316 -3.34314e-05)
(-3.74197e-05 -0.0381508 -0.000103085)
(-2.65546e-06 -0.0370006 -0.000168774)
(6.07276e-05 -0.0382935 -0.000183429)
(0.000204758 -0.0467859 -1.15425e-05)
(2.63397e-05 -0.0751656 0.000601023)
(-0.00121659 -0.40474 0.00273389)
(-0.00199983 -0.800095 -0.00242336)
(-0.00147862 -0.851066 0.00566314)
(0.00359227 -0.793252 0.0062352)
(-0.00491966 -1.02893 -0.00495917)
(0.00068842 -0.905905 0.00154566)
(0.0016064 -0.956837 -0.0113569)
(0.000995671 -0.430277 0.000952264)
(0.00040718 -0.0589938 0.000670634)
(-0.000143614 -0.038075 0.000245355)
(-0.000107568 -0.0443677 -0.000403091)
(-8.52512e-05 -0.0321028 -0.00029714)
(-2.2171e-05 -0.0414528 -0.000891457)
(-1.08799e-06 -0.0411408 -0.000702625)
(4.19163e-05 -0.0312882 -3.96919e-05)
(-2.18207e-05 -0.0395997 -1.77431e-05)
(-2.62657e-06 -0.0389476 -0.000117938)
(4.064e-05 -0.0402987 -0.000169744)
(0.00028594 -0.0478748 1.11215e-06)
(6.8809e-05 -0.0691597 0.000855924)
(-0.000176495 -0.396876 0.00298239)
(-0.000899415 -0.797759 -0.00197992)
(-0.00169943 -0.841694 0.00826059)
(0.00414548 -0.77909 0.00692931)
(-0.00651564 -0.997375 -0.00275316)
(0.00125713 -0.883699 0.00228146)
(0.000625248 -0.962686 -0.0103854)
(-0.000574877 -0.424382 0.000624235)
(0.000398454 -0.0557729 0.000652567)
(-3.61285e-05 -0.0363311 0.00026932)
(-6.49232e-05 -0.0436006 -8.09137e-05)
(-6.62601e-05 -0.0323514 -0.000118687)
(4.74742e-05 -0.0441269 -0.000584008)
(-0.000118603 -0.0431925 -0.000518154)
(-7.23324e-05 -0.0300766 6.78947e-05)
(-6.55077e-05 -0.0382461 -0.000189692)
(-3.02765e-06 -0.0378822 -0.000267247)
(0.000101218 -0.0399403 -0.00030002)
(0.000303866 -0.0470345 -1.96257e-05)
(6.19161e-05 -0.0663584 0.000815924)
(0.00121583 -0.387435 0.00351926)
(0.000581673 -0.788566 0.000413266)
(-0.00164411 -0.825896 0.0111341)
(0.00404119 -0.752129 0.00793973)
(-0.007836 -0.938129 -0.000352523)
(0.00185848 -0.844518 0.00286761)
(-0.000618355 -0.961959 -0.0080321)
(-0.00217351 -0.416251 0.000915985)
(0.000360919 -0.0548812 0.000533983)
(7.33519e-05 -0.035583 3.62462e-05)
(6.96939e-05 -0.042548 0.000355707)
(-1.48472e-05 -0.0326877 7.83152e-05)
(0.000149494 -0.043196 9.02023e-05)
(-0.000222512 -0.0426123 8.69861e-05)
(-6.4078e-05 -0.0301293 0.000104399)
(8.44064e-05 -0.041126 -0.000210886)
(-2.9897e-05 -0.0412309 -0.000362856)
(6.32452e-05 -0.0429019 -0.000331213)
(0.000257401 -0.0470867 -0.000153903)
(0.000305012 -0.0635911 0.000890055)
(0.00259429 -0.37646 0.00453842)
(0.00218003 -0.770377 0.00324615)
(-0.000990221 -0.793593 0.0141278)
(0.00322049 -0.703654 0.00851017)
(-0.00596746 -0.847384 0.000597083)
(0.000713925 -0.776719 0.00270005)
(-0.00230567 -0.953037 -0.00541696)
(-0.00337056 -0.405617 0.00137022)
(-2.45147e-05 -0.0562451 -2.81242e-05)
(0.000172779 -0.0377671 -0.000755292)
(0.00016393 -0.0389944 0.0016266)
(9.64097e-06 -0.0321484 -1.67232e-05)
(0.000280551 -0.040202 0.00148123)
(-0.00029853 -0.0393164 0.00151908)
(-1.26418e-05 -0.0302412 1.65516e-06)
(0.000119555 -0.0387988 0.00105189)
(-0.00016815 -0.0403889 0.000660409)
(-2.99075e-05 -0.0422793 0.000439621)
(0.000283007 -0.0478859 0.000222189)
(0.000543944 -0.0613773 0.00176109)
(0.00366692 -0.361005 0.00598876)
(0.00347324 -0.742349 0.00558696)
(4.56872e-05 -0.741421 0.0173818)
(0.00205141 -0.622909 0.00914681)
(-0.00200439 -0.691442 0.00357133)
(0.000143611 -0.659713 0.00182336)
(-0.00389083 -0.931285 -0.00185479)
(-0.00448455 -0.385931 0.00325556)
(-0.00153167 -0.0634147 -0.00177966)
(-0.000236267 -0.046415 -0.00282531)
(0.000154437 -0.0336976 0.000723114)
(4.17086e-05 -0.0347056 -0.00110462)
(0.000112009 -0.0355532 0.00043268)
(-0.000132691 -0.0343128 0.000567386)
(-6.16405e-05 -0.0321899 -0.000972056)
(-0.000112429 -0.0360604 -0.000276901)
(-2.66103e-05 -0.0418263 -0.00138947)
(0.000128987 -0.0472737 -0.00233771)
(0.000360386 -0.0553708 -0.00300318)
(0.00170243 -0.0653336 -0.000497891)
(0.00392973 -0.334872 0.00925052)
(0.00442332 -0.698079 0.0103231)
(0.000570784 -0.653297 0.0204346)
(-0.000790177 -0.489222 0.0102163)
(-4.66729e-05 -0.562398 0.00173742)
(-0.000412385 -0.558171 0.000313838)
(-0.00416387 -0.897299 -0.000918725)
(-0.00523013 -0.357049 0.00333136)
(-0.00405906 -0.0860109 -0.00120842)
(-0.00060055 -0.0740356 -0.00194116)
(-0.000280126 -0.043127 -0.00055985)
(-2.60312e-05 -0.0465194 -0.000984669)
(-0.000105066 -0.0478883 -0.000812006)
(7.25961e-05 -0.0448114 -0.000691043)
(0.000112182 -0.042427 -0.0008838)
(0.000229651 -0.0536043 -0.00132027)
(0.000229288 -0.0687082 -0.00221598)
(0.00025331 -0.0843308 -0.00293982)
(0.000266642 -0.101098 -0.00322514)
(0.0035895 -0.0919661 -0.0016148)
(0.00340639 -0.291673 0.00967994)
(0.00344516 -0.643073 0.00971034)
(0.000591985 -0.567775 0.0127838)
(-0.00102506 -0.368382 0.00685617)
(-0.237885 -0.951805 -0.500424)
(0.0285395 -0.961441 -0.505711)
(0.0998962 -0.808499 -0.459543)
(0.151211 -0.58195 -0.31517)
(0.184384 -0.39452 -0.210676)
(0.174457 -0.270072 -0.273907)
(0.109092 -0.180993 -0.217138)
(0.0434763 -0.153239 -0.212951)
(0.0209766 -0.149206 -0.216282)
(-0.00292859 -0.15083 -0.208291)
(-0.0281303 -0.162553 -0.243869)
(-0.0753907 -0.225527 -0.189582)
(-0.110521 -0.219983 -0.151052)
(-0.146086 -0.230722 -0.16248)
(-0.183615 -0.273239 -0.170354)
(-0.175286 -0.376795 -0.202877)
(-0.129219 -0.565491 -0.300606)
(-0.0737058 -0.741142 -0.424743)
(-0.0131846 -0.830537 -0.440588)
(0.216042 -0.806274 -0.440634)
(0.00498975 -1.03143 -0.0743765)
(0.00102847 -0.997857 -0.0686993)
(0.00290346 -0.828145 -0.0511015)
(0.00292027 -0.498693 -0.0149282)
(0.0183484 -0.284695 -0.136033)
(0.0316654 -0.107378 -0.572846)
(0.00536528 -0.10592 -0.37276)
(-0.00785898 -0.112706 -0.324141)
(0.000370055 -0.119918 -0.288616)
(-0.000162966 -0.118677 -0.281801)
(-0.00190634 -0.100876 -0.437435)
(-0.000675858 -0.106115 -0.392481)
(-0.00251371 -0.120267 -0.231725)
(0.00443823 -0.117209 -0.260761)
(-0.0235817 -0.142213 -0.217503)
(-0.0314503 -0.281609 -0.133448)
(-0.00317442 -0.494431 -0.0157166)
(-0.00271986 -0.76607 -0.0500463)
(-0.000289768 -0.847327 -0.0523725)
(-0.00126076 -0.836074 -0.0576799)
(0.0018215 -1.0686 -0.0281309)
(0.00305855 -1.00898 -0.0211484)
(0.00455822 -0.848543 -0.0198455)
(0.001795 -0.520739 -0.0120619)
(0.00478836 -0.324445 -0.0704704)
(0.00297671 -0.168736 -0.152585)
(0.0015393 -0.141852 -0.186999)
(-3.42617e-06 -0.13872 -0.198947)
(0.000172489 -0.141922 -0.194316)
(-0.000193866 -0.140909 -0.189526)
(-0.000409648 -0.136758 -0.196344)
(0.00150341 -0.140004 -0.181447)
(-0.000466495 -0.13887 -0.172185)
(-0.00125116 -0.138993 -0.172115)
(-0.0021607 -0.161927 -0.138946)
(-0.00527459 -0.324683 -0.0780724)
(-0.00159463 -0.532227 -0.0142394)
(-0.0045656 -0.778361 -0.0168031)
(-0.00247579 -0.859632 -0.0145098)
(-0.000394868 -0.8592 -0.0188838)
(0.00507297 -1.04652 -0.0107401)
(0.00221194 -0.98082 -0.00869699)
(0.00443126 -0.822048 -0.00298856)
(0.00144034 -0.472203 0.00277077)
(0.00194648 -0.301862 -0.0684887)
(-0.000177136 -0.150536 -0.173286)
(0.000614206 -0.128574 -0.22199)
(-0.000253589 -0.127922 -0.221009)
(-8.91847e-05 -0.133842 -0.210728)
(-6.18909e-05 -0.132535 -0.206355)
(-0.000368547 -0.123347 -0.220692)
(-0.000453728 -0.127255 -0.215917)
(-0.000195342 -0.130984 -0.213237)
(-0.000828888 -0.130469 -0.213666)
(-0.000183566 -0.157754 -0.163396)
(-0.000814141 -0.306922 -0.0774952)
(-0.0017036 -0.4843 -0.000427651)
(-0.00555692 -0.751778 -0.00107231)
(-0.00189011 -0.840218 -0.00111001)
(-0.003401 -0.833213 -0.00279856)
(0.00152682 -1.0663 -0.0127985)
(0.00281397 -0.987818 -0.010085)
(0.00538473 -0.843321 -0.00556332)
(0.0043766 -0.47884 0.000822225)
(0.00460549 -0.291483 -0.0699396)
(9.0275e-05 -0.152062 -0.162623)
(0.000453253 -0.129759 -0.213019)
(-0.000144249 -0.12803 -0.214741)
(-9.30822e-05 -0.1339 -0.204648)
(-5.23415e-05 -0.133048 -0.201635)
(-0.000117008 -0.125049 -0.209593)
(-0.000147885 -0.130456 -0.201117)
(-0.00010906 -0.130839 -0.201384)
(-0.00076977 -0.129434 -0.205598)
(-0.000412362 -0.153899 -0.161512)
(-0.00411076 -0.298307 -0.0785515)
(-0.00373001 -0.485656 -0.00120551)
(-0.00709008 -0.772879 -0.0025704)
(-0.0021867 -0.855606 -0.00140554)
(-0.000363652 -0.848362 -0.00487786)
(0.0028462 -1.07333 -0.0129163)
(0.00235916 -0.985255 -0.00986146)
(0.00474059 -0.848653 -0.00451224)
(0.0030682 -0.463423 0.00279405)
(0.00294458 -0.264609 -0.0713188)
(0.000210232 -0.139876 -0.172704)
(0.000495988 -0.122008 -0.21786)
(-7.89581e-05 -0.120667 -0.21921)
(-0.000179505 -0.127781 -0.208101)
(-6.01692e-05 -0.126634 -0.204362)
(-6.25194e-05 -0.117906 -0.215594)
(-7.90399e-05 -0.123508 -0.20677)
(5.55864e-05 -0.124102 -0.206402)
(-0.000522674 -0.121906 -0.210959)
(-0.000307279 -0.143541 -0.167451)
(-0.00288262 -0.275374 -0.0807491)
(-0.00297126 -0.465592 0.000751105)
(-0.00668709 -0.776673 -0.00124825)
(-0.00192777 -0.861218 -0.000311918)
(-0.00059421 -0.84694 -0.00329274)
(0.00165512 -1.08106 -0.0130413)
(0.00193349 -0.98122 -0.00836703)
(0.00492197 -0.862089 -0.0048225)
(0.00439099 -0.457949 0.0037306)
(0.00475245 -0.240855 -0.0684922)
(0.000546895 -0.131372 -0.171073)
(0.000657866 -0.11592 -0.213799)
(0.000102449 -0.113501 -0.215844)
(-0.000116121 -0.120948 -0.204199)
(5.46764e-07 -0.121822 -0.201023)
(2.54127e-06 -0.112813 -0.211124)
(0.000126867 -0.118655 -0.202283)
(0.000330255 -0.11785 -0.203252)
(-0.000178416 -0.11496 -0.209104)
(-0.000189362 -0.135016 -0.167771)
(-0.00498086 -0.254188 -0.0786283)
(-0.00405637 -0.455313 0.00200424)
(-0.00650616 -0.788586 -0.00108892)
(-0.00174155 -0.870527 -0.000233046)
(-0.000550619 -0.850912 -0.00267601)
(0.00100097 -1.08518 -0.0131953)
(0.00144148 -0.978155 -0.00705687)
(0.00440704 -0.875035 -0.00429372)
(0.00479981 -0.451588 0.00545585)
(0.00369553 -0.191677 -0.0591254)
(0.00131118 -0.112426 -0.166848)
(0.000766546 -0.101462 -0.204764)
(0.000153743 -0.0985147 -0.206812)
(-0.000264838 -0.105673 -0.193271)
(-2.57955e-05 -0.106693 -0.189334)
(0.000246082 -0.0996617 -0.201148)
(0.000559851 -0.1051 -0.191629)
(0.000777842 -0.104233 -0.193164)
(0.000377302 -0.101067 -0.20018)
(-0.000551852 -0.116693 -0.162404)
(-0.00419824 -0.208454 -0.0698432)
(-0.0041549 -0.445345 0.00373337)
(-0.00625761 -0.799998 -0.001229)
(-0.00166219 -0.877034 0.000458204)
(-0.000509859 -0.851261 -0.00136293)
(0.000459591 -1.08652 -0.0126471)
(0.000812357 -0.974392 -0.00571914)
(0.00386568 -0.891336 -0.00450316)
(0.00556664 -0.455729 0.00617912)
(-7.6799e-05 -0.127042 -0.0142884)
(-0.00193866 -0.0724237 -0.121608)
(0.000719458 -0.0659326 -0.148137)
(5.32468e-05 -0.0618373 -0.148602)
(-0.000785693 -0.0673454 -0.135948)
(0.000318779 -0.0697161 -0.131354)
(0.000310847 -0.0657152 -0.142617)
(0.000191044 -0.0693138 -0.133212)
(0.0010685 -0.067705 -0.135714)
(0.000333126 -0.0661691 -0.145698)
(0.00244147 -0.0762574 -0.116602)
(-0.000474852 -0.143444 -0.0248244)
(-0.00477555 -0.446839 0.0047663)
(-0.00556459 -0.808814 -0.0016439)
(-0.00166231 -0.883677 0.000822995)
(-1.18717e-05 -0.852341 -0.000121838)
(0.000211843 -1.08616 -0.0114779)
(0.000678927 -0.969943 -0.00413051)
(0.00343832 -0.908572 -0.0059091)
(0.00324913 -0.465632 0.00302484)
(0.0018741 -0.078275 0.00794072)
(0.000275573 -0.0360252 0.00417215)
(0.000292969 -0.0337478 0.00438099)
(0.000127748 -0.0249243 0.00418589)
(0.000212373 -0.0319829 0.00474322)
(-9.40365e-05 -0.0323879 0.00492793)
(6.36088e-08 -0.024615 0.0045991)
(0.000121013 -0.0320128 0.00486316)
(-5.5331e-05 -0.0317677 0.00470955)
(-0.000295819 -0.0327581 0.00448004)
(-0.000371152 -0.0407437 0.00466182)
(-0.00228434 -0.0779928 0.00902168)
(-0.00287702 -0.454421 0.00223672)
(-0.00464913 -0.815722 -0.0018433)
(-0.00109993 -0.887592 0.00124155)
(0.000296503 -0.8516 0.000973869)
(-0.00050711 -1.08506 -0.00936105)
(0.000591025 -0.965517 -0.00218366)
(0.00332408 -0.923047 -0.00644744)
(0.00305479 -0.468247 0.00093813)
(0.000909641 -0.0818482 0.000509928)
(-0.000361152 -0.0430812 -0.000122407)
(2.14602e-05 -0.0304774 -3.93965e-05)
(3.51571e-05 -0.0284237 4.79056e-05)
(-0.000129769 -0.0269969 0.000187982)
(0.000112499 -0.0273954 0.000114261)
(-2.12275e-05 -0.0278275 3.37245e-05)
(-0.000117351 -0.0278864 -9.01413e-05)
(1.13156e-05 -0.027608 -3.57566e-05)
(-4.23631e-05 -0.0289108 -1.05132e-05)
(7.81311e-05 -0.0382694 -0.000293979)
(-0.000300675 -0.0831241 -0.000263421)
(-0.00200189 -0.452918 0.000707052)
(-0.00429587 -0.821228 -0.00228201)
(-0.00107684 -0.890284 0.00209022)
(0.000781277 -0.849474 0.00239777)
(-0.00141496 -1.08138 -0.00698686)
(0.000403278 -0.961261 -0.000663574)
(0.00346028 -0.938237 -0.00663273)
(0.00363049 -0.464005 0.00141784)
(0.000436004 -0.0738796 0.000373454)
(-0.00036309 -0.0402225 7.49463e-05)
(-0.000116429 -0.0403964 -0.00120262)
(-1.10113e-05 -0.027255 -1.8548e-06)
(-9.60304e-05 -0.0348865 -0.000964882)
(8.83997e-05 -0.0362244 -0.000993237)
(1.27019e-05 -0.0270801 -0.000102697)
(-6.92682e-06 -0.0384985 -0.00114611)
(2.34542e-05 -0.0375356 -0.00102366)
(0.000107449 -0.0384456 -0.000980173)
(0.000314728 -0.0502326 -0.00111832)
(0.00076577 -0.0904887 -0.00147463)
(-0.00242532 -0.444872 0.00133185)
(-0.00416309 -0.824953 -0.00244108)
(-0.0012845 -0.89015 0.00292584)
(0.00102877 -0.844024 0.00351377)
(-0.00317948 -1.07832 -0.00548538)
(0.00101982 -0.959165 5.05111e-05)
(0.00346513 -0.955677 -0.00804064)
(0.00337771 -0.460799 0.00101942)
(0.000609235 -0.0702474 0.000334598)
(4.71811e-06 -0.0407291 5.43112e-05)
(-0.000127047 -0.0414264 -0.000108177)
(-5.7271e-05 -0.0285018 -6.47004e-05)
(0.000141405 -0.0351685 -0.000107082)
(-0.000127086 -0.035651 -7.4583e-05)
(4.37764e-05 -0.029486 -0.00010457)
(0.000207936 -0.0375871 -5.48827e-05)
(2.93845e-05 -0.035947 -2.13763e-05)
(9.71235e-05 -0.0368187 2.36868e-05)
(0.000169434 -0.0461394 0.000223647)
(0.000150997 -0.0804798 0.000481493)
(-0.00199011 -0.43649 0.00178993)
(-0.00352655 -0.827446 -0.00251187)
(-0.00162649 -0.889332 0.00426457)
(0.00287227 -0.839213 0.00480954)
(-0.00540307 -1.07454 -0.00567423)
(0.00140655 -0.954799 0.000369441)
(0.00324794 -0.970868 -0.0100531)
(0.00238633 -0.456017 0.00106281)
(0.000452925 -0.0650732 0.0004222)
(-0.000140143 -0.0386647 0.000153592)
(-0.000148363 -0.0407877 -0.000173845)
(-7.81089e-05 -0.0284897 -0.000109049)
(-4.10364e-05 -0.0356565 -0.000320714)
(3.29074e-05 -0.0363467 -0.00025037)
(7.00021e-05 -0.02888 -2.90438e-05)
(-4.32942e-05 -0.0379722 -3.98473e-05)
(-2.87291e-06 -0.0366122 -9.86796e-05)
(5.45605e-05 -0.0375096 -0.000100664)
(0.000192114 -0.0461358 4.08685e-05)
(3.40746e-06 -0.0783739 0.000459019)
(-0.00123304 -0.42819 0.00242368)
(-0.00248683 -0.827817 -0.00245536)
(-0.00185682 -0.887204 0.00514092)
(0.00373532 -0.831723 0.00538641)
(-0.00547239 -1.06533 -0.00611221)
(0.00100608 -0.947709 0.000426336)
(0.00238468 -0.979615 -0.0111148)
(0.00102961 -0.450376 0.000688862)
(0.000377864 -0.0606205 0.000477801)
(-0.000131134 -0.0373919 0.000178906)
(-9.87998e-05 -0.0436655 -0.000277268)
(-8.10346e-05 -0.0304258 -0.000189681)
(-2.41848e-05 -0.0399346 -0.000620398)
(-1.78414e-06 -0.0397044 -0.000489278)
(3.41428e-05 -0.0297508 -1.76767e-05)
(-2.52194e-05 -0.0388151 -1.60981e-05)
(-6.60819e-06 -0.0379936 -8.66209e-05)
(3.73272e-05 -0.039005 -0.000116825)
(0.000271711 -0.0466123 7.29054e-06)
(2.76933e-05 -0.0731177 0.000606312)
(-0.000224921 -0.420528 0.00257655)
(-0.00147842 -0.824702 -0.00222185)
(-0.002079 -0.880051 0.00724058)
(0.00437616 -0.819277 0.00573496)
(-0.00725958 -1.03948 -0.00540629)
(0.00170948 -0.930873 -0.000110401)
(0.00159525 -0.98436 -0.0101836)
(-0.000461538 -0.444772 0.000190136)
(0.000442735 -0.0566907 0.000509063)
(-3.32897e-05 -0.0355789 0.000208075)
(-5.69894e-05 -0.0440811 -7.78581e-05)
(-6.25464e-05 -0.0314094 -7.32133e-05)
(4.38848e-05 -0.0436947 -0.000457193)
(-0.000114661 -0.0427628 -0.000410476)
(-7.05087e-05 -0.0292295 3.93429e-05)
(-6.14745e-05 -0.0382149 -0.00016497)
(-4.74369e-06 -0.0377669 -0.000210581)
(9.38247e-05 -0.0393309 -0.000225894)
(0.000287155 -0.0462099 -2.91394e-05)
(-4.70104e-05 -0.0695316 0.000616328)
(0.00110046 -0.412212 0.0029084)
(-3.44572e-05 -0.815866 -0.000171248)
(-0.00209521 -0.867542 0.00929822)
(0.00444681 -0.796544 0.00558054)
(-0.00892914 -0.992215 -0.00619748)
(0.00252437 -0.901611 -0.00168813)
(0.000444853 -0.984255 -0.00815781)
(-0.00194224 -0.438013 0.00018319)
(0.000461354 -0.0541052 0.000471017)
(6.79793e-05 -0.0341945 5.52478e-05)
(7.91849e-05 -0.0436524 0.000237235)
(-1.30015e-05 -0.0315056 7.07775e-05)
(0.000147973 -0.0442837 2.01504e-05)
(-0.000220178 -0.0435355 2.57216e-05)
(-5.93601e-05 -0.0290002 8.02832e-05)
(8.36022e-05 -0.0406821 -0.000140956)
(-2.62822e-05 -0.0406016 -0.000232708)
(5.40319e-05 -0.0419769 -0.000223593)
(0.000238643 -0.0464584 -9.80583e-05)
(0.000123354 -0.0663145 0.000671446)
(0.00235167 -0.403436 0.00360876)
(0.00158536 -0.800077 0.00202117)
(-0.00149836 -0.842743 0.0109547)
(0.00391263 -0.756794 0.0038052)
(-0.00737309 -0.92191 -0.00946856)
(0.00136345 -0.852296 -0.00525361)
(-0.00147898 -0.977959 -0.00648005)
(-0.00305008 -0.431103 0.000178863)
(0.000109858 -0.053307 0.000127387)
(0.000159191 -0.0352685 -0.000437947)
(0.000158956 -0.0404211 0.0013205)
(1.02569e-05 -0.0307555 4.8984e-06)
(0.000273894 -0.0418894 0.00123784)
(-0.000290691 -0.0409603 0.00125232)
(-8.69196e-06 -0.0287102 1.29574e-05)
(0.000117156 -0.0396681 0.000932831)
(-0.000165273 -0.040706 0.000673864)
(-2.74296e-05 -0.042288 0.000545262)
(0.000262252 -0.0474642 0.000458466)
(0.000293117 -0.0634262 0.00166811)
(0.00325993 -0.393302 0.0044883)
(0.00294711 -0.778496 0.00335376)
(-0.000388723 -0.803915 0.0120952)
(0.00313847 -0.693708 0.000848784)
(-0.00367816 -0.816687 -0.00907237)
(0.00060443 -0.778058 -0.00804603)
(-0.00359168 -0.965702 -0.00407275)
(-0.00425624 -0.422821 0.00135638)
(-0.00124359 -0.05842 -0.000926551)
(-0.000220712 -0.0426702 -0.00164704)
(0.000122253 -0.0328377 0.00071165)
(4.1322e-05 -0.0322923 -0.000661793)
(9.49705e-05 -0.034788 0.000594952)
(-0.000113551 -0.0335243 0.000648556)
(-5.47617e-05 -0.0298826 -0.000600145)
(-0.000100807 -0.0347482 0.000104913)
(-1.60583e-05 -0.0391224 -0.000567708)
(0.000123285 -0.043761 -0.00107513)
(0.000321732 -0.051114 -0.00138412)
(0.00130599 -0.0612296 0.000313778)
(0.00341093 -0.382704 0.00660028)
(0.00421724 -0.751051 0.0065003)
(0.000385268 -0.747789 0.0133617)
(0.000775095 -0.604544 -0.000601952)
(-0.00138383 -0.763238 -0.00610783)
(-0.000529971 -0.741988 -0.00604503)
(-0.00439268 -0.954785 -0.0033367)
(-0.00526882 -0.415036 0.00108409)
(-0.00370462 -0.0767035 -0.000555353)
(-0.000544993 -0.065965 -0.000996147)
(-0.000254084 -0.0397963 -0.000361285)
(-2.59526e-05 -0.0425421 -0.000587981)
(-0.000102017 -0.0439174 -0.000470781)
(7.68681e-05 -0.0414866 -0.000437155)
(0.000104132 -0.0390534 -0.000557444)
(0.000205633 -0.0488591 -0.000753845)
(0.000209558 -0.0618474 -0.00124242)
(0.000223768 -0.0736727 -0.00150305)
(0.000232195 -0.0871549 -0.00153086)
(0.00322335 -0.0814699 -0.000762869)
(0.00314343 -0.374409 0.00674777)
(0.00363889 -0.728169 0.00571633)
(0.000795341 -0.712194 0.00710563)
(0.000399563 -0.553995 -0.000803696)
(-0.251984 -0.946589 -0.4494)
(0.0299907 -0.959468 -0.459566)
(0.105725 -0.805217 -0.416739)
(0.159405 -0.582524 -0.285246)
(0.19384 -0.393056 -0.191533)
(0.17757 -0.268085 -0.262227)
(0.109338 -0.176888 -0.208012)
(0.0434794 -0.150676 -0.206126)
(0.0211027 -0.146623 -0.210418)
(-0.00275344 -0.148211 -0.202239)
(-0.0281708 -0.160441 -0.237047)
(-0.0756131 -0.224081 -0.182978)
(-0.111682 -0.218183 -0.143662)
(-0.148242 -0.228152 -0.153768)
(-0.188166 -0.270084 -0.158872)
(-0.18414 -0.374656 -0.184877)
(-0.136453 -0.56679 -0.272073)
(-0.077893 -0.73844 -0.385438)
(-0.0139767 -0.829562 -0.40091)
(0.228068 -0.804318 -0.398674)
(0.00252808 -1.03709 -0.0705358)
(0.00112453 -1.0106 -0.0671207)
(0.00430319 -0.838547 -0.0498071)
(0.00532399 -0.521866 -0.0167611)
(0.0200488 -0.281153 -0.138548)
(0.0319487 -0.105858 -0.574318)