/*--------------------------------*- C++ -*----------------------------------*\
| =========                 |                                                 |
| \\      /  F ield         | OpenFOAM: The Open Source CFD Toolbox           |
|  \\    /   O peration     | Version:  2.3.0                                 |
|   \\  /    A nd           | Web:      www.OpenFOAM.org                      |
|    \\/     M anipulation  |                                                 |
\*---------------------------------------------------------------------------*/
FoamFile
{
    version     2.0;
    format      ascii;
    class       volScalarField;
    location    "28";
    object      k.water;
}
// * * * * * * * * * * * * * * * * * * * * * * * * * * * * * * * * * * * * * //

dimensions      [0 2 -2 0 0 0 0];

internalField   nonuniform List<scalar> 
1875
(
0.00923619
0.00266526
0.000389062
0.000703111
0.00116104
0.0007767
0.00180509
0.0109359
0.0164994
0.0201069
0.0239921
0.0282164
0.0316667
0.0333353
0.0338846
0.0339563
0.0337035
0.0335963
0.0335614
0.0335226
0.0335797
0.0335731
0.0330224
0.0312241
0.0292332
0.0173211
0.00930208
0.00251992
0.00199714
0.00355897
0.00735823
0.0153816
0.0229851
0.0279184
0.0326479
0.0371486
0.0404278
0.0417518
0.0408694
0.0383489
0.0357922
0.0341868
0.0334202
0.0331716
0.033308
0.0336593
0.0339894
0.0341739
0.0342164
0.0344346
0.0359235
0.0338536
0.0304803
0.0259214
0.0224615
0.0207612
0.0190945
0.0191661
0.0205203
0.026266
0.0350867
0.0398448
0.0416734
0.0409363
0.0386263
0.0359672
0.033513
0.0312604
0.0294667
0.0283455
0.0279296
0.0276213
0.0273387
0.0276921
0.0299155
0.0453659
0.0448127
0.0447418
0.0445582
0.043912
0.0421469
0.0381879
0.0308031
0.0247066
0.0245252
0.026906
0.0332872
0.038808
0.0400605
0.0393369
0.0372154
0.0344606
0.03166
0.0287742
0.0258171
0.0248638
0.0251517
0.025578
0.025774
0.0281667
0.0487581
0.0476331
0.04745
0.0475564
0.0478318
0.0481799
0.0479784
0.0465753
0.0424437
0.035341
0.0307725
0.0310861
0.0325095
0.034906
0.0358833
0.0354912
0.0342892
0.0323249
0.0302145
0.0279884
0.0263902
0.0251566
0.0257158
0.0274915
0.0277389
0.0502784
0.0483414
0.0478577
0.0478516
0.0479612
0.0481664
0.0484096
0.0483287
0.0476327
0.0455731
0.0413588
0.0367743
0.0345316
0.0346313
0.0346676
0.0344594
0.0337973
0.0325181
0.0309335
0.0293524
0.028407
0.0280168
0.0287642
0.0303112
0.0287305
0.0516313
0.0493135
0.0490401
0.0492511
0.0492378
0.0489244
0.0485367
0.0482949
0.0479469
0.0471909
0.0457147
0.0436328
0.0410935
0.0386969
0.037126
0.0359256
0.0349227
0.033912
0.0328742
0.0313296
0.030429
0.0296721
0.0301579
0.031518
0.0294445
0.0520259
0.049552
0.0493885
0.04983
0.0502864
0.0501686
0.0494666
0.0484824
0.047588
0.0467048
0.0456993
0.0445366
0.0431948
0.041845
0.0405052
0.0391317
0.0376897
0.0361356
0.0348134
0.0334813
0.03275
0.0320594
0.0322806
0.0326585
0.0304056
0.0520639
0.0493558
0.0491879
0.0497795
0.0505444
0.0508505
0.0505445
0.0495781
0.0480096
0.0462634
0.0446898
0.0434053
0.0423472
0.0414371
0.0404706
0.0394121
0.0382585
0.0370725
0.0360786
0.0351941
0.034152
0.0326812
0.0325029
0.0332438
0.0325466
0.0514952
0.0485191
0.0481983
0.0488065
0.0499039
0.050759
0.0508438
0.0502477
0.0486211
0.0463706
0.0439693
0.0417479
0.0401159
0.0391101
0.0384939
0.0380833
0.0375866
0.0369062
0.0361608
0.0351845
0.0338771
0.0322511
0.0329025
0.0352367
0.0359111
0.0511148
0.0481229
0.0473213
0.0475681
0.0486894
0.0499216
0.0504328
0.0498896
0.0484028
0.0462282
0.0438361
0.0411961
0.03883
0.0370974
0.035946
0.0354853
0.0355925
0.0359283
0.0357242
0.0344974
0.0324304
0.0324834
0.0351528
0.0386302
0.0400156
0.0507424
0.047942
0.0467733
0.046471
0.0473736
0.0487668
0.049499
0.0490711
0.0477529
0.0457761
0.0434231
0.0407175
0.0379844
0.0358659
0.0343719
0.033934
0.0345502
0.0353012
0.0341119
0.0323503
0.0326066
0.0352703
0.0397814
0.041905
0.0435813
0.0500235
0.0472862
0.0458438
0.0453308
0.0460328
0.0474356
0.0482875
0.0480528
0.0468716
0.0450003
0.0427146
0.0400875
0.0371704
0.0348994
0.0335353
0.0333963
0.0340275
0.0338644
0.032542
0.0322124
0.0349456
0.0396879
0.0424846
0.0438486
0.0450996
0.0493939
0.0466059
0.0449796
0.0442855
0.044824
0.0461116
0.0470097
0.0469571
0.0459291
0.0441891
0.0419637
0.0393741
0.0364345
0.0343526
0.0333745
0.032916
0.0324774
0.0317495
0.0312953
0.0325171
0.0369164
0.0407367
0.0431021
0.0445209
0.0450207
0.0490531
0.0462878
0.0445186
0.0436172
0.0438828
0.0449701
0.0458382
0.0458895
0.045046
0.0434712
0.041402
0.0389648
0.0363127
0.0345081
0.0334784
0.0323762
0.0309057
0.0295356
0.0293894
0.0320064
0.0365251
0.0399898
0.0424048
0.0441733
0.0442736
0.0487701
0.046095
0.0441946
0.0431317
0.0431793
0.0440446
0.0448267
0.0449324
0.0442707
0.0429176
0.0410519
0.0388943
0.0366737
0.0350446
0.0338026
0.0323737
0.0305058
0.0281187
0.0273431
0.0297473
0.0342601
0.0374503
0.0404936
0.0432608
0.0436169
0.0485211
0.0460081
0.0439962
0.0427425
0.0426126
0.0432945
0.0439892
0.0441396
0.0436861
0.0426026
0.0410524
0.0392466
0.0374418
0.0360517
0.0350552
0.0333444
0.0309761
0.0282434
0.0270799
0.0283348
0.0316145
0.0355954
0.0393979
0.0426534
0.0434855
0.0483268
0.0459878
0.0439136
0.0424822
0.0421905
0.0426937
0.0433006
0.0434791
0.0432012
0.0424005
0.041172
0.0397443
0.0384381
0.0377031
0.0372448
0.0361678
0.0338504
0.0305451
0.0283803
0.0289296
0.0315588
0.0354758
0.0394155
0.0425652
0.0437189
0.0481773
0.046042
0.0438954
0.0422929
0.0418542
0.0422081
0.0427455
0.0429342
0.0427909
0.0422647
0.0414401
0.0404743
0.039478
0.0389604
0.0388128
0.0386737
0.037879
0.0359602
0.0335115
0.0326566
0.0338541
0.0366436
0.0401176
0.0429584
0.0443738
0.0479921
0.046099
0.0439517
0.0421656
0.0415728
0.041806
0.0422954
0.0424779
0.0423878
0.0420407
0.0415279
0.0408663
0.0400474
0.0394174
0.0393214
0.039632
0.0397797
0.0391466
0.0377975
0.0367626
0.0370725
0.0387839
0.0414084
0.0437753
0.0451396
0.0477779
0.0461284
0.0440597
0.0420776
0.0413004
0.0414067
0.0418768
0.0420445
0.0419183
0.0415815
0.0411622
0.0406031
0.0399207
0.039391
0.0392983
0.0395902
0.0401018
0.0403456
0.0398864
0.0392618
0.0393756
0.0405829
0.0426105
0.0444698
0.0455585
0.0475364
0.0461121
0.0441421
0.0420278
0.0410307
0.0410017
0.04146
0.0416159
0.0414332
0.0410519
0.0406131
0.0401638
0.0396337
0.0391405
0.0389578
0.039281
0.0400245
0.0406827
0.0408122
0.0406
0.0408028
0.0418075
0.0434596
0.0449413
0.0457169
0.0471918
0.0459547
0.0441314
0.0419914
0.0407885
0.040634
0.0410476
0.0411715
0.040927
0.0406155
0.0402381
0.0397405
0.0391895
0.03874
0.0387974
0.039337
0.0401333
0.0408357
0.0411643
0.0412
0.0415683
0.042524
0.0439424
0.0450424
0.0455233
0.0467451
0.0455801
0.0438787
0.0418645
0.0405632
0.0403084
0.0406228
0.0406841
0.0404497
0.0401742
0.0397845
0.0392935
0.0387683
0.0386144
0.0388971
0.0394667
0.0402314
0.0408784
0.041139
0.0412594
0.0417789
0.042831
0.0441407
0.0448014
0.0447326
0.0463109
0.0451573
0.0435311
0.0415738
0.0402707
0.0399841
0.0401716
0.0401754
0.0400728
0.0397447
0.0392889
0.0387562
0.0385217
0.0386378
0.0389944
0.0396584
0.0404114
0.0407713
0.0408758
0.0412367
0.0420292
0.0431401
0.044096
0.044156
0.0437433
0.0459471
0.0448081
0.0432362
0.0413577
0.0400871
0.0397033
0.0397085
0.0396314
0.039456
0.0390525
0.038625
0.0383965
0.0384423
0.0387465
0.0393968
0.0401049
0.0403263
0.0403453
0.040716
0.0413892
0.04239
0.0436293
0.0441885
0.0437416
0.0431265
0.0457266
0.044629
0.0430718
0.0412809
0.0400514
0.039555
0.0393305
0.0390295
0.038676
0.0383893
0.0382108
0.038263
0.0386107
0.0393423
0.0399887
0.040091
0.0400383
0.0404168
0.0410365
0.0420074
0.04338
0.0443185
0.0444413
0.0435855
0.0429831
0.0456389
0.0445807
0.0430139
0.0413051
0.0401467
0.0395324
0.0391308
0.038746
0.0383796
0.0381611
0.0381813
0.0386834
0.0395645
0.0400615
0.0400369
0.0399507
0.0403848
0.041139
0.042268
0.0438948
0.0451122
0.04547
0.0450473
0.044115
0.0438051
0.0457711
0.044777
0.043279
0.0417339
0.040602
0.0398298
0.0392202
0.038699
0.0383615
0.0383574
0.0390162
0.040025
0.0405649
0.0405592
0.0405228
0.0409266
0.0417572
0.0432339
0.0453532
0.046875
0.0474755
0.0475002
0.0469029
0.0463338
0.0464074
0.0463197
0.0454606
0.0441243
0.0427426
0.0415894
0.0405876
0.0396762
0.0390832
0.0389693
0.0395404
0.0405826
0.0414661
0.0416404
0.0415915
0.0420777
0.0432471
0.0450207
0.04727
0.0491697
0.0501667
0.0505118
0.0504593
0.0501071
0.0499079
0.0503284
0.0470741
0.0463359
0.0453555
0.0443138
0.0433187
0.0422583
0.0412009
0.0405173
0.0404546
0.0412679
0.0425097
0.0434579
0.04365
0.0437522
0.0445476
0.0461709
0.0484463
0.050525
0.0519569
0.052666
0.0529017
0.0528559
0.0527455
0.0527578
0.0533362
0.0479159
0.0472972
0.0467501
0.0462422
0.0457298
0.0449582
0.0439093
0.0428939
0.0424739
0.0430509
0.0443301
0.0456744
0.0461649
0.046294
0.0469807
0.0485025
0.0505105
0.0520952
0.0531739
0.0536721
0.0538012
0.0537536
0.0537334
0.053855
0.0546059
0.0485454
0.0478079
0.0476607
0.0477246
0.0478866
0.0478261
0.0473561
0.0464067
0.0453947
0.0449598
0.045475
0.0466486
0.0477068
0.0480433
0.0483517
0.0491167
0.0504491
0.0520016
0.0531316
0.053658
0.0537842
0.053803
0.0539095
0.0541434
0.0551728
0.0492283
0.0482124
0.0481793
0.0484365
0.0488657
0.049265
0.0494078
0.0491938
0.0485485
0.0476832
0.0471534
0.047235
0.047755
0.0482673
0.0485131
0.0488729
0.0497555
0.0510953
0.0524091
0.0533125
0.0537395
0.0539793
0.0543578
0.054762
0.0560241
0.0501531
0.0489182
0.0487023
0.0488479
0.0492269
0.0497015
0.0501184
0.0503231
0.0501936
0.0496439
0.0487923
0.0480903
0.0477589
0.0477927
0.0479301
0.048194
0.0486083
0.0492004
0.0505039
0.052259
0.0538562
0.0550013
0.0559013
0.0563766
0.0571801
0.0516255
0.0501024
0.0496367
0.0494298
0.0495424
0.0499322
0.050441
0.0508264
0.050927
0.0506696
0.0500937
0.0493295
0.0484853
0.0479614
0.0477079
0.0477193
0.0478139
0.0481083
0.0489672
0.050845
0.0533767
0.0556991
0.0573834
0.0580029
0.0580432
0.0530415
0.0514441
0.0508602
0.0500498
0.0495991
0.0496571
0.0500607
0.050627
0.0510798
0.0512833
0.0510708
0.0505292
0.0497584
0.0489134
0.0481504
0.0476517
0.0476465
0.0479264
0.0486259
0.0502702
0.0530939
0.0560024
0.0582023
0.0590073
0.0585469
0.0540129
0.052963
0.0523189
0.0509757
0.0499694
0.049612
0.0497781
0.0502129
0.0506504
0.0509336
0.0509383
0.0506915
0.0501459
0.0493759
0.0485718
0.0478943
0.047689
0.0479473
0.0487815
0.0505663
0.0534302
0.0563839
0.0586091
0.0594674
0.0587853
0.0542919
0.0535957
0.0528776
0.0514248
0.0501805
0.0495363
0.0494887
0.049813
0.0502236
0.0505107
0.0506008
0.0504776
0.0501207
0.0495892
0.048997
0.048458
0.0480963
0.0483501
0.0494163
0.0514533
0.0543152
0.0570585
0.0590418
0.0597877
0.0590344
0.0542035
0.053504
0.0526741
0.0514537
0.0502543
0.0494674
0.0493269
0.0495421
0.0498499
0.0500731
0.0501679
0.0501262
0.0499413
0.0495892
0.0491496
0.0487991
0.0487824
0.049381
0.0508813
0.0532633
0.0559921
0.0582886
0.0598411
0.060252
0.0594344
0.0537314
0.0528385
0.0520724
0.0511216
0.0502271
0.0495854
0.0493865
0.0494866
0.0496581
0.0497646
0.0498127
0.0498101
0.0497504
0.049636
0.0495334
0.0496748
0.0502753
0.0515276
0.0535752
0.0560428
0.0583576
0.0600769
0.0610686
0.0611311
0.0601992
0.0535115
0.0525827
0.0518299
0.0509931
0.0503789
0.0500583
0.0499508
0.0499351
0.0499081
0.0498773
0.0498708
0.0498903
0.0499559
0.050116
0.0506005
0.0515128
0.0529674
0.0549328
0.0571445
0.0592363
0.0608765
0.0618788
0.0622419
0.0618718
0.060934
0.0534469
0.0526528
0.0520509
0.0515665
0.0513609
0.0512677
0.0511497
0.0509169
0.0506115
0.0503901
0.0502982
0.0504129
0.050879
0.0518583
0.0532382
0.0548282
0.0566945
0.0586191
0.0603772
0.0617498
0.0625607
0.0628168
0.062512
0.0616569
0.0609777
0.0537967
0.0533705
0.0530693
0.0529268
0.0529468
0.0529592
0.0527991
0.0524264
0.0520291
0.0518502
0.0519676
0.0525968
0.0536805
0.0549389
0.0563645
0.0580451
0.0596522
0.0610743
0.062172
0.0627937
0.0629691
0.0626548
0.06186
0.060971
0.0607993
0.0540589
0.0539984
0.0539761
0.0541192
0.0544222
0.0546296
0.0546002
0.0543381
0.0541554
0.0541604
0.054591
0.0554421
0.0563905
0.057443
0.0586103
0.0598668
0.0610002
0.0619208
0.0625151
0.0627439
0.0626057
0.0620308
0.0612418
0.0607628
0.0612854
0.0543667
0.0545081
0.0546123
0.0549672
0.0555644
0.0560961
0.0562891
0.0562733
0.0562155
0.0562816
0.0566237
0.057097
0.057679
0.0584868
0.0594408
0.0603489
0.0611779
0.0618735
0.0623308
0.0624957
0.0623842
0.0620435
0.0618051
0.0619284
0.062984
0.0550874
0.0551866
0.0553287
0.055716
0.0564315
0.0571896
0.0576837
0.0578702
0.0578775
0.0578352
0.0578376
0.0579971
0.0583896
0.0589543
0.0596238
0.0603229
0.0610287
0.0616693
0.062184
0.0625289
0.0627122
0.0628408
0.0630569
0.0635402
0.0647462
0.0572738
0.0571092
0.0571152
0.0573209
0.0578402
0.0584478
0.0589303
0.0591948
0.0592399
0.0591321
0.0589624
0.0588324
0.0589099
0.0592029
0.0596049
0.0601188
0.0607072
0.0613516
0.062009
0.0626353
0.0632211
0.0638045
0.0643861
0.0649356
0.0659692
0.0616331
0.0611758
0.0610684
0.0610806
0.0611676
0.0612543
0.0612768
0.0611789
0.0609285
0.0605456
0.0601297
0.0598177
0.0595428
0.0593343
0.059391
0.0596979
0.060153
0.0607723
0.0615627
0.0624973
0.0635422
0.0646749
0.0658002
0.0664855
0.0673621
0.067722
0.0671172
0.0670821
0.0670892
0.0669652
0.0666197
0.0660423
0.0652797
0.0643793
0.0633764
0.0623491
0.0613762
0.0606039
0.0600909
0.0596762
0.0594287
0.0595972
0.060122
0.0610501
0.0623384
0.0638976
0.0655866
0.0672437
0.0682144
0.0688726
0.074154
0.0735511
0.0736009
0.0737296
0.0736803
0.0733232
0.0725511
0.0714618
0.0701126
0.068554
0.0668289
0.0649946
0.0632099
0.0616736
0.0606537
0.0600369
0.0598508
0.0601467
0.0610078
0.0625362
0.064553
0.0667587
0.0688273
0.0699548
0.0701065
0.0796642
0.0790154
0.079184
0.0795416
0.0797313
0.0795518
0.0789267
0.0778609
0.0764604
0.0747606
0.0727884
0.0705879
0.0682099
0.0657521
0.0635234
0.0619571
0.0610692
0.0609304
0.0614887
0.0630129
0.0654117
0.0680604
0.0704198
0.0715305
0.0711258
0.0837243
0.0831212
0.0835737
0.0841751
0.0845188
0.084461
0.0840089
0.083104
0.0818335
0.0802218
0.0782928
0.0760751
0.0736336
0.0710929
0.0684039
0.0658391
0.0637112
0.0626261
0.0627303
0.063863
0.0662939
0.0691011
0.0715242
0.0725122
0.071747
0.086964
0.0863644
0.0870379
0.0875527
0.0876554
0.0875182
0.0871313
0.0864383
0.0854028
0.0840021
0.0822473
0.0801587
0.0777684
0.0751007
0.0723125
0.0694905
0.0669738
0.0651777
0.0646232
0.0652798
0.0672396
0.0698058
0.072027
0.0729003
0.0720908
0.0895762
0.0888593
0.0893444
0.0892136
0.0888679
0.0885567
0.0882043
0.087705
0.0869629
0.0858911
0.0844333
0.0825953
0.0804056
0.0779087
0.0751762
0.0723486
0.069682
0.0675325
0.066434
0.0666787
0.0680686
0.0701356
0.0719847
0.0728239
0.0723223
0.0914812
0.090704
0.0904476
0.0896419
0.0889407
0.0884606
0.0880798
0.0876862
0.087145
0.0863369
0.0851694
0.0835962
0.0816318
0.0793284
0.0767635
0.0740508
0.0713838
0.0691126
0.0677327
0.0676989
0.0686796
0.0702194
0.0717009
0.0725271
0.0723168
0.0929215
0.0919584
0.0908403
0.089474
0.0884364
0.0877113
0.0872139
0.0868458
0.0864418
0.0858361
0.0848966
0.0835299
0.0817264
0.0795316
0.0770466
0.0744173
0.0718477
0.0696778
0.0683924
0.068309
0.0690937
0.070235
0.0713618
0.0720807
0.0721301
0.0942978
0.0929472
0.0912083
0.0894518
0.0881961
0.0872354
0.0865142
0.0859674
0.0854978
0.0849222
0.0840856
0.082857
0.0811639
0.0789942
0.0765061
0.0739085
0.0714329
0.0694945
0.0685368
0.0686408
0.0694545
0.0704281
0.0714108
0.0720488
0.072138
0.0963097
0.0945051
0.0923384
0.0902952
0.0887107
0.0874287
0.0864315
0.0856168
0.0848381
0.0839936
0.0829401
0.0815086
0.0796592
0.0774634
0.0750202
0.0725167
0.0703234
0.0689994
0.0686715
0.0691816
0.0700904
0.0710039
0.0718658
0.072376
0.0723934
0.0995297
0.0972612
0.0948042
0.0925385
0.0906457
0.0890105
0.0875254
0.0860555
0.0845008
0.0827784
0.0808179
0.0786755
0.076495
0.0743579
0.0722974
0.070488
0.0693174
0.0689222
0.0691804
0.0701259
0.0712091
0.0721915
0.0729052
0.0730583
0.0729139
0.103958
0.101388
0.0987764
0.0963328
0.0941464
0.0920085
0.0896556
0.0869799
0.0840183
0.080943
0.0780232
0.0754731
0.0732947
0.0714184
0.0700204
0.0692374
0.0689946
0.0692867
0.0702534
0.0714995
0.0727241
0.0737339
0.07426
0.0741223
0.0738431
0.109517
0.106936
0.104233
0.101576
0.0989465
0.0959432
0.0923157
0.0881362
0.0837835
0.0797592
0.0763857
0.073725
0.0717877
0.070471
0.0696702
0.0693932
0.0695972
0.0704569
0.0717793
0.0731937
0.0745261
0.0755643
0.0760067
0.0758075
0.075554
0.11654
0.114043
0.11121
0.10819
0.104888
0.10089
0.0961027
0.0908152
0.0855917
0.0809557
0.0772088
0.0744422
0.0725106
0.0713485
0.0708353
0.0708139
0.0714524
0.0726273
0.0741073
0.0757323
0.0773496
0.0787276
0.079513
0.0796919
0.0797059
0.125715
0.123372
0.120452
0.117077
0.113159
0.1085
0.10314
0.0973656
0.0916423
0.0864189
0.0820833
0.078819
0.0765764
0.0753496
0.0749764
0.0752559
0.0761798
0.0775964
0.0793611
0.0813923
0.0835636
0.0856623
0.087378
0.0885696
0.0893135
0.138355
0.136507
0.134035
0.131015
0.127354
0.123098
0.118215
0.11278
0.107078
0.101586
0.0967463
0.0928565
0.0900996
0.0885972
0.0881261
0.0884592
0.0895521
0.0912532
0.0934381
0.0959944
0.0987752
0.101583
0.104161
0.1062
0.107514
0.157019
0.156415
0.156059
0.155596
0.154813
0.153823
0.152251
0.149408
0.145096
0.140057
0.135155
0.13099
0.12788
0.125997
0.12531
0.125614
0.126851
0.128828
0.1313
0.13393
0.136292
0.137982
0.138665
0.138486
0.138416
0.185428
0.186693
0.19051
0.195572
0.201577
0.210242
0.22174
0.231459
0.231796
0.227559
0.222002
0.216804
0.21281
0.210418
0.209641
0.21039
0.212562
0.215776
0.219302
0.221766
0.221516
0.217999
0.209473
0.196287
0.189342
0.19134
0.192306
0.196759
0.204625
0.215372
0.228557
0.242329
0.253375
0.256367
0.255238
0.251971
0.248219
0.244944
0.24264
0.241566
0.241587
0.242601
0.244248
0.245909
0.246646
0.245239
0.240427
0.231035
0.218141
0.20842
0.182508
0.178102
0.176151
0.182019
0.192319
0.206481
0.21996
0.226009
0.226332
0.223075
0.218799
0.214765
0.211516
0.209252
0.208251
0.208207
0.209188
0.211127
0.213689
0.216022
0.216778
0.214042
0.205144
0.184864
0.162735
0.161666
0.14537
0.133137
0.134545
0.141982
0.150859
0.153128
0.152064
0.1479
0.14131
0.134768
0.129352
0.125227
0.122535
0.121463
0.121351
0.122403
0.125672
0.130523
0.135931
0.139045
0.137222
0.126119
0.092006
0.0636544
0.136136
0.12307
0.11061
0.112088
0.115274
0.109847
0.0995714
0.0908508
0.0829154
0.0769147
0.0728666
0.0720776
0.0750694
0.0807536
0.084666
0.0841458
0.0771991
0.0729951
0.0763348
0.0852239
0.0911757
0.0907027
0.0843164
0.0689953
0.049949
0.125075
0.108898
0.0938422
0.0887639
0.0729275
0.051475
0.0380246
0.0309726
0.0189436
0.0115455
0.00761013
0.00661568
0.00674585
0.0079183
0.0125187
0.0284032
0.0489983
0.0586764
0.0593333
0.0549901
0.0521616
0.0499833
0.0453254
0.0355436
0.0352163
0.115908
0.091329
0.0735528
0.0539577
0.0244584
0.00927587
0.00211037
0.000442475
0.000154243
7.00434e-05
4.00813e-05
3.48353e-05
4.69864e-05
0.000183964
0.00127415
0.00710513
0.0253658
0.0403616
0.0440472
0.0413568
0.0306346
0.020836
0.015076
0.0140004
0.0238686
0.112767
0.082194
0.0539551
0.0204513
0.00409476
7.03957e-05
2.72011e-05
2.13744e-05
1.96314e-05
1.87815e-05
1.61916e-05
1.53681e-05
3.07203e-05
0.000207575
0.00135092
0.00651639
0.0184117
0.0260466
0.0272724
0.0249541
0.0157712
0.00800168
0.00480063
0.00508472
0.0191743
0.105777
0.0608287
0.0263896
0.00571281
0.000125373
2.65334e-05
2.50328e-05
2.68683e-05
2.86666e-05
2.86179e-05
2.70106e-05
2.27972e-05
3.67291e-05
0.000219063
0.00110986
0.00367622
0.00734542
0.00923691
0.00912383
0.00701338
0.00314717
0.00176565
0.00202134
0.00475641
0.0234225
)
;

boundaryField
{
    inlet
    {
        type            fixedValue;
        value           uniform 3.75e-05;
    }
    outlet
    {
        type            inletOutlet;
        phi             phi.water;
        inletValue      uniform 3.75e-05;
        value           nonuniform List<scalar> 
25
(
0.105777
0.0608287
0.0263896
0.00571281
3.75e-05
3.75e-05
3.75e-05
3.75e-05
3.75e-05
3.75e-05
3.75e-05
3.75e-05
3.75e-05
3.75e-05
3.75e-05
0.00367622
0.00734542
0.00923691
0.00912383
0.00701338
0.00314717
0.00176565
0.00202134
0.00475641
0.0234225
)
;
    }
    walls
    {
        type            kqRWallFunction;
        value           nonuniform List<scalar> 
150
(
0.00923619
0.0173211
0.0359235
0.0453659
0.0487581
0.0502784
0.0516313
0.0520259
0.0520639
0.0514952
0.0511148
0.0507424
0.0500235
0.0493939
0.0490531
0.0487701
0.0485211
0.0483268
0.0481773
0.0479921
0.0477779
0.0475364
0.0471918
0.0467451
0.0463109
0.0459471
0.0457266
0.0456389
0.0457711
0.0463197
0.0470741
0.0479159
0.0485454
0.0492283
0.0501531
0.0516255
0.0530415
0.0540129
0.0542919
0.0542035
0.0537314
0.0535115
0.0534469
0.0537967
0.0540589
0.0543667
0.0550874
0.0572738
0.0616331
0.067722
0.074154
0.0796642
0.0837243
0.086964
0.0895762
0.0914812
0.0929215
0.0942978
0.0963097
0.0995297
0.103958
0.109517
0.11654
0.125715
0.138355
0.157019
0.185428
0.19134
0.182508
0.161666
0.136136
0.125075
0.115908
0.112767
0.105777
0.0292332
0.0344346
0.0299155
0.0281667
0.0277389
0.0287305
0.0294445
0.0304056
0.0325466
0.0359111
0.0400156
0.0435813
0.0450996
0.0450207
0.0442736
0.0436169
0.0434855
0.0437189
0.0443738
0.0451396
0.0455585
0.0457169
0.0455233
0.0447326
0.0437433
0.0431265
0.0429831
0.0438051
0.0464074
0.0503284
0.0533362
0.0546059
0.0551728
0.0560241
0.0571801
0.0580432
0.0585469
0.0587853
0.0590344
0.0594344
0.0601992
0.060934
0.0609777
0.0607993
0.0612854
0.062984
0.0647462
0.0659692
0.0673621
0.0688726
0.0701065
0.0711258
0.071747
0.0720908
0.0723223
0.0723168
0.0721301
0.072138
0.0723934
0.0729139
0.0738431
0.075554
0.0797059
0.0893135
0.107514
0.138416
0.189342
0.20842
0.162735
0.0636544
0.049949
0.0352163
0.0238686
0.0191743
0.0234225
)
;
    }
    defaultFaces
    {
        type            empty;
    }
}


// ************************************************************************* //
