/*--------------------------------*- C++ -*----------------------------------*\
| =========                 |                                                 |
| \\      /  F ield         | OpenFOAM: The Open Source CFD Toolbox           |
|  \\    /   O peration     | Version:  2.3.0                                 |
|   \\  /    A nd           | Web:      www.OpenFOAM.org                      |
|    \\/     M anipulation  |                                                 |
\*---------------------------------------------------------------------------*/
FoamFile
{
    version     2.0;
    format      ascii;
    class       surfaceScalarField;
    location    "28";
    object      phi;
}
// * * * * * * * * * * * * * * * * * * * * * * * * * * * * * * * * * * * * * //

dimensions      [0 3 -1 0 0 0 0];

internalField   nonuniform List<scalar> 
3650
(
2.43458e-05
1.06691e-05
3.79162e-05
2.1446e-05
4.09421e-05
3.19905e-05
4.15136e-05
3.44462e-05
4.12423e-05
3.52902e-05
3.43733e-05
4.18896e-05
1.81793e-05
5.12173e-05
5.32373e-06
4.78785e-05
-7.33604e-06
4.7682e-05
-3.20729e-05
5.97607e-05
-7.49474e-05
7.79018e-05
-0.000131523
9.16054e-05
-0.00019659
0.000100099
-0.000264657
0.000103099
-0.000326901
9.72745e-05
-0.000377517
8.56435e-05
-0.000412872
7.03801e-05
-0.000429519
5.16729e-05
-0.000425559
3.10654e-05
-0.000403775
1.32415e-05
-0.000362075
-6.67573e-06
-0.00029754
-2.95141e-05
-0.0002109
-5.16244e-05
-0.000107067
-6.88235e-05
-7.20608e-05
2.90102e-05
-1.83115e-05
4.54856e-05
5.00501e-06
3.80296e-05
3.94826e-05
1.87961e-05
5.37178e-05
-3.14272e-06
5.72675e-05
-1.22363e-05
5.10225e-05
-1.36106e-05
5.26335e-05
-2.19181e-05
5.62267e-05
-3.29324e-05
5.87354e-05
-4.58915e-05
7.27619e-05
-6.53982e-05
9.74578e-05
-9.93252e-05
0.00012559
-0.000145816
0.000146655
-0.000195288
0.000152642
-0.000238427
0.000140481
-0.000273626
0.000120902
-0.000301237
9.80437e-05
-0.000319144
6.9626e-05
-0.000324739
3.66993e-05
-0.000311909
4.44529e-07
-0.000283954
-3.46015e-05
-0.000239727
-7.37177e-05
-0.000175975
-0.000115358
-9.41637e-05
-0.000150623
-0.000166215
-3.5776e-06
-1.47107e-05
2.33491e-05
-2.18978e-05
7.89091e-05
-1.60508e-05
0.000133079
-4.21571e-07
0.00017568
1.46997e-05
0.000199053
2.76851e-05
0.000201603
5.01246e-05
0.000184844
7.30274e-05
0.000156907
8.67148e-05
0.000126389
0.000103325
9.5e-05
0.000128898
6.30012e-05
0.000157651
2.7286e-05
0.000182445
-1.16964e-05
0.000191704
-5.22061e-05
0.000181063
-9.03493e-05
0.000159105
-0.000117749
0.000125493
-0.000131239
8.31556e-05
-0.000133165
3.86559e-05
-0.000137282
4.58585e-06
-0.000143682
-2.81826e-05
-0.00014017
-7.72197e-05
-0.000112796
-0.000142728
-6.00696e-05
-0.000203349
-0.000226287
3.73585e-05
-5.20455e-05
7.25815e-05
-5.71001e-05
0.000109412
-5.28584e-05
0.0001485
-3.94828e-05
0.000183866
-2.06349e-05
0.000206908
4.68014e-06
0.000219145
3.79327e-05
0.000225896
6.63285e-05
0.000223138
8.9526e-05
0.000220246
0.000106272
0.000222352
0.000126852
0.000229946
0.000150127
0.000238319
0.000174155
0.000239028
0.000191085
0.000227706
0.00019247
0.000208684
0.000178198
0.00018546
0.000148773
0.00016021
0.000108446
0.000130537
6.83565e-05
9.95898e-05
3.55548e-05
7.27909e-05
-1.36917e-06
4.55461e-05
-4.99711e-05
1.47576e-05
-0.000111945
-1.55523e-06
-0.000187044
-0.000227851
3.65734e-05
-8.86047e-05
7.03794e-05
-9.08937e-05
0.000101039
-8.35047e-05
0.00012982
-6.8248e-05
0.000157388
-4.81828e-05
0.000186057
-2.39621e-05
0.000218492
5.53381e-06
0.000245818
3.90474e-05
0.000263884
7.15119e-05
0.000275207
9.50024e-05
0.000290021
0.000112092
0.000313345
0.000126861
0.000344995
0.000142571
0.000378732
0.00015742
0.000403757
0.000167519
0.000416238
0.000165785
0.000411123
0.000153944
0.000388564
0.000131046
0.000353338
0.000103612
0.000316239
7.26759e-05
0.000274288
4.05959e-05
0.000221292
3.03103e-06
0.000148089
-3.87459e-05
7.06587e-05
-0.000109621
-0.0001572
2.98876e-05
-0.000118485
5.72127e-05
-0.000118212
8.19115e-05
-0.000108195
0.000103991
-9.03168e-05
0.000124558
-6.87335e-05
0.000145447
-4.48308e-05
0.000168938
-1.79284e-05
0.000195111
1.29126e-05
0.000222061
4.46074e-05
0.000246386
7.07281e-05
0.000269685
8.88443e-05
0.000295838
0.00010076
0.000327646
0.000110815
0.000363899
0.000121223
0.000398175
0.000133302
0.000422892
0.000141127
0.000432458
0.000144433
0.000425972
0.00013758
0.000402823
0.000126802
0.000364192
0.00011134
0.000311107
9.37092e-05
0.000243129
7.10315e-05
0.000164069
4.03294e-05
7.81168e-05
-2.3665e-05
-7.90855e-05
2.39066e-05
-0.00014239
4.63033e-05
-0.000140607
6.6116e-05
-0.000128005
8.30125e-05
-0.000107206
9.7413e-05
-8.31224e-05
0.000110621
-5.80223e-05
0.000124753
-3.20381e-05
0.000141825
-4.12944e-06
0.000161776
2.4694e-05
0.000183734
4.88139e-05
0.000206733
6.58916e-05
0.000231124
7.64154e-05
0.000258729
8.32555e-05
0.000289892
9.01074e-05
0.000324461
9.87824e-05
0.000356722
0.000108918
0.00037851
0.000122699
0.000384216
0.000131928
0.000372979
0.000138092
0.000343456
0.000140913
0.000295918
0.000141297
0.000232408
0.000134588
0.000156551
0.000116227
7.46636e-05
5.82443e-05
-4.41607e-06
2.32347e-05
-0.000165627
4.3212e-05
-0.000160587
6.08495e-05
-0.000145642
7.64561e-05
-0.000122808
8.89379e-05
-9.55947e-05
9.79282e-05
-6.69977e-05
0.000104862
-3.89521e-05
0.000111597
-1.08374e-05
0.000119598
1.67263e-05
0.000130601
3.78494e-05
0.000145316
5.12187e-05
0.000163611
5.81624e-05
0.000184894
6.20143e-05
0.00020764
6.74026e-05
0.000230879
7.55865e-05
0.000253165
8.66767e-05
0.000273812
0.000102102
0.000284387
0.000121409
0.000279105
0.000143434
0.000256334
0.00016375
0.000217876
0.000179826
0.000167878
0.000184657
0.000113222
0.000170949
5.60746e-05
0.000115433
5.16739e-05
1.84581e-05
-0.000184091
3.42736e-05
-0.000176407
4.93558e-05
-0.000160726
6.48283e-05
-0.000138279
7.89098e-05
-0.000109669
8.91075e-05
-7.71821e-05
9.49958e-05
-4.48207e-05
9.64998e-05
-1.23159e-05
9.70151e-05
1.62426e-05
9.86294e-05
3.62717e-05
0.000104477
4.54092e-05
0.00011558
4.70976e-05
0.000130069
4.75633e-05
0.000146085
5.14244e-05
0.000162299
5.94112e-05
0.00017644
7.25776e-05
0.000186576
9.20129e-05
0.000189746
0.000118294
0.000182649
0.000150596
0.000162607
0.000183869
0.000132086
0.000210435
9.49516e-05
0.000221881
6.16074e-05
0.000204374
3.27052e-05
0.000144388
8.44012e-05
9.42744e-06
-0.000193526
1.6107e-05
-0.000183095
2.44284e-05
-0.000169053
3.64886e-05
-0.000150342
4.98572e-05
-0.000123034
6.15275e-05
-8.88422e-05
6.93682e-05
-5.26436e-05
7.39239e-05
-1.68479e-05
7.72522e-05
1.29444e-05
7.90862e-05
3.44732e-05
8.10453e-05
4.34876e-05
8.67538e-05
4.14246e-05
9.56615e-05
3.86897e-05
0.000106415
4.07057e-05
0.000117826
4.80358e-05
0.000126642
6.38015e-05
0.000129145
8.95558e-05
0.000123221
0.000124274
0.000107423
0.000166462
7.87936e-05
0.000212585
4.68773e-05
0.000242449
2.37372e-05
0.00024512
1.70181e-05
0.000211178
1.33981e-05
0.000148063
9.78255e-05
1.94508e-06
-0.00019548
-1.22605e-06
-0.000179934
-1.53429e-06
-0.000168753
4.50424e-06
-0.000156385
1.45526e-05
-0.000133083
2.51402e-05
-9.94233e-05
3.42249e-05
-6.17137e-05
4.42174e-05
-2.68196e-05
5.39691e-05
3.22047e-06
6.19123e-05
2.65636e-05
6.59953e-05
3.94414e-05
7.03434e-05
3.71104e-05
7.70478e-05
3.20173e-05
8.43582e-05
3.34273e-05
9.04383e-05
4.19897e-05
9.09496e-05
6.33287e-05
8.07459e-05
9.98061e-05
5.67509e-05
0.000148328
1.90819e-05
0.000204208
-1.69594e-05
0.000248723
-3.80679e-05
0.000263663
-3.17357e-05
0.000238885
-8.4155e-06
0.000187935
2.96683e-06
0.000136732
0.000100822
-3.70803e-06
-0.000191782
-1.28975e-05
-0.000170756
-1.80081e-05
-0.000163652
-1.70102e-05
-0.000157389
-1.13391e-05
-0.000138756
-3.1625e-06
-0.000107596
6.06549e-06
-7.09301e-05
1.69071e-05
-3.76432e-05
2.80835e-05
-7.93084e-06
3.84303e-05
1.62478e-05
4.61975e-05
3.17094e-05
5.1524e-05
3.18171e-05
5.75615e-05
2.60099e-05
6.16427e-05
2.93762e-05
5.9408e-05
4.42576e-05
4.51445e-05
7.76317e-05
1.51473e-05
0.000129855
-3.08809e-05
0.000194426
-7.55524e-05
0.000248972
-9.693e-05
0.000270207
-8.88811e-05
0.000255718
-5.65713e-05
0.00020666
-2.43811e-05
0.000155808
-5.84516e-06
0.000118243
9.50111e-05
-6.41517e-06
-0.000185378
-1.61612e-05
-0.000161023
-2.2548e-05
-0.000157275
-2.47096e-05
-0.000155235
-2.32717e-05
-0.000140198
-1.88512e-05
-0.000112015
-1.20993e-05
-7.76724e-05
-3.77607e-06
-4.59507e-05
5.4476e-06
-1.7132e-05
1.48124e-05
6.91133e-06
2.30803e-05
2.34743e-05
2.78195e-05
2.71102e-05
3.16518e-05
2.22063e-05
3.08751e-05
3.0182e-05
1.90457e-05
5.61211e-05
-6.79567e-06
0.000103517
-4.6595e-05
0.000169715
-9.16372e-05
0.000239555
-0.000117745
0.000275185
-0.000120366
0.000272934
-9.57646e-05
0.000231209
-6.18735e-05
0.000172838
-3.56132e-05
0.0001296
-1.64395e-05
9.9112e-05
7.86084e-05
-6.46733e-06
-0.000178921
-1.43929e-05
-0.000153109
-2.11915e-05
-0.000150485
-2.60335e-05
-0.0001504
-2.83432e-05
-0.000137892
-2.77354e-05
-0.000112622
-2.47245e-05
-8.06751e-05
-2.00473e-05
-5.06135e-05
-1.40028e-05
-2.31559e-05
-7.3665e-06
3.01249e-07
-1.26263e-06
1.74014e-05
1.85007e-06
2.4029e-05
1.71051e-06
2.23737e-05
-4.53606e-06
3.64579e-05
-2.10865e-05
7.27089e-05
-4.56393e-05
0.000128121
-7.40987e-05
0.000198248
-9.75427e-05
0.000263098
-0.000108792
0.000286545
-0.000102298
0.000266543
-7.72106e-05
0.000206202
-5.35722e-05
0.000149259
-3.48851e-05
0.000110961
-1.98506e-05
8.41186e-05
5.87922e-05
-6.215e-06
-0.000172716
-1.31502e-05
-0.000146183
-2.02236e-05
-0.00014342
-2.6976e-05
-0.000143654
-3.25418e-05
-0.00013233
-3.55815e-05
-0.000109581
-3.62033e-05
-8.00456e-05
-3.49516e-05
-5.18514e-05
-3.22701e-05
-2.58178e-05
-2.86743e-05
-3.26963e-06
-2.52713e-05
1.40277e-05
-2.43317e-05
2.31203e-05
-2.84373e-05
2.65075e-05
-3.69991e-05
4.50509e-05
-4.89215e-05
8.46736e-05
-5.9993e-05
0.000139252
-6.69421e-05
0.000205278
-6.85324e-05
0.000264791
-6.74763e-05
0.0002856
-5.80295e-05
0.000257194
-4.36218e-05
0.000191867
-3.02536e-05
0.000135945
-2.00433e-05
0.000100796
-1.33033e-05
7.74201e-05
4.55194e-05
-6.73558e-06
-0.000165988
-1.42882e-05
-0.000138638
-2.21787e-05
-0.000135535
-3.02921e-05
-0.000135545
-3.79878e-05
-0.000124637
-4.40731e-05
-0.000103494
-4.7814e-05
-7.62965e-05
-4.96806e-05
-4.9971e-05
-5.00851e-05
-2.53939e-05
-4.96052e-05
-3.72517e-06
-4.90348e-05
1.34858e-05
-5.04663e-05
2.45825e-05
-5.61465e-05
3.22177e-05
-6.20734e-05
5.10121e-05
-6.49745e-05
8.7621e-05
-6.21416e-05
0.00013648
-5.10776e-05
0.000194295
-3.30085e-05
0.00024682
-1.40665e-05
0.000266764
-3.08622e-07
0.00024353
4.20938e-06
0.00018742
5.6795e-06
0.000134528
4.12117e-06
0.000102401
-3.87808e-07
8.19733e-05
4.51598e-05
-7.88541e-06
-0.000158109
-1.68721e-05
-0.000129657
-2.61114e-05
-0.0001263
-3.54199e-05
-0.00012624
-4.43671e-05
-0.00011569
-5.22976e-05
-9.556e-05
-5.81999e-05
-7.03852e-05
-6.24067e-05
-4.57496e-05
-6.53133e-05
-2.24675e-05
-6.72726e-05
-1.74159e-06
-6.89198e-05
1.51613e-05
-7.14504e-05
2.71441e-05
-7.54924e-05
3.62914e-05
-7.72174e-05
5.27733e-05
-7.34233e-05
8.38735e-05
-6.12816e-05
0.000124399
-3.71605e-05
0.000170248
-3.52834e-06
0.000213277
2.809e-05
0.000235242
4.75503e-05
0.000224159
4.75184e-05
0.000187525
3.8712e-05
0.000143391
2.57161e-05
0.000115447
1.20502e-05
9.56881e-05
5.72396e-05
-9.03938e-06
-0.000149075
-1.92941e-05
-0.000119406
-2.97394e-05
-0.000115857
-3.98773e-05
-0.000116103
-4.92916e-05
-0.000106275
-5.77537e-05
-8.70928e-05
-6.46925e-05
-6.34359e-05
-7.0286e-05
-4.01404e-05
-7.4555e-05
-1.81779e-05
-7.77535e-05
1.48202e-06
-8.02046e-05
1.76411e-05
-8.23822e-05
2.93534e-05
-8.35194e-05
3.74616e-05
-8.07029e-05
4.9993e-05
-7.05432e-05
7.37588e-05
-5.15783e-05
0.00010549
-2.31293e-05
0.000141867
1.25451e-05
0.000177683
4.54377e-05
0.000202437
6.57292e-05
0.000203953
6.63412e-05
0.000186989
5.37845e-05
0.000156009
3.5734e-05
0.000133553
1.87562e-05
0.000112719
7.60297e-05
-9.67826e-06
-0.0001394
-2.06531e-05
-0.000108432
-3.18669e-05
-0.000104642
-4.22134e-05
-0.000105755
-5.13159e-05
-9.71692e-05
-5.93033e-05
-7.90985e-05
-6.63041e-05
-5.6423e-05
-7.23605e-05
-3.40668e-05
-7.71638e-05
-1.33528e-05
-8.05271e-05
4.87141e-06
-8.25721e-05
1.97157e-05
-8.32532e-05
3.00667e-05
-8.10466e-05
3.52881e-05
-7.34574e-05
4.2439e-05
-5.77819e-05
5.81246e-05
-3.55616e-05
8.33198e-05
-8.94123e-06
0.000115308
1.98369e-05
0.000148976
4.60466e-05
0.000176307
6.15014e-05
0.00018858
6.37303e-05
0.000184837
5.24557e-05
0.000167351
3.53995e-05
0.000150671
1.83797e-05
0.000129796
9.44483e-05
-9.56892e-06
-0.000129833
-2.06428e-05
-9.73562e-05
-3.22732e-05
-9.30081e-05
-4.22091e-05
-9.58156e-05
-5.01721e-05
-8.92012e-05
-5.67625e-05
-7.24994e-05
-6.29186e-05
-5.02532e-05
-6.86382e-05
-2.83285e-05
-7.31807e-05
-8.78711e-06
-7.58208e-05
7.5386e-06
-7.62166e-05
2.01419e-05
-7.41029e-05
2.79857e-05
-6.88326e-05
3.00505e-05
-5.89415e-05
3.2581e-05
-4.33012e-05
4.25208e-05
-2.24966e-05
6.25585e-05
5.6537e-07
9.2299e-05
2.23128e-05
0.000127292
3.99544e-05
0.000158738
4.94919e-05
0.00017912
4.99469e-05
0.00018446
4.09939e-05
0.000176374
2.74968e-05
0.000164236
1.34187e-05
0.000143936
0.00010791
-8.72403e-06
-0.000121109
-1.90935e-05
-8.6982e-05
-3.06732e-05
-8.14221e-05
-3.97143e-05
-8.67689e-05
-4.5999e-05
-8.29097e-05
-5.04861e-05
-6.80023e-05
-5.50597e-05
-4.56644e-05
-5.971e-05
-2.3658e-05
-6.33408e-05
-5.13179e-06
-6.47101e-05
8.93598e-06
-6.30958e-05
1.85583e-05
-5.8415e-05
2.33373e-05
-5.14049e-05
2.3072e-05
-4.19249e-05
2.31318e-05
-2.96512e-05
3.02793e-05
-1.46473e-05
4.75916e-05
1.63144e-06
7.60658e-05
1.62725e-05
0.000112708
2.6652e-05
0.000148427
3.10789e-05
0.000174769
2.90003e-05
0.000186616
2.21731e-05
0.000183275
1.35066e-05
0.000172973
5.81051e-06
0.000151697
0.000113765
-7.68759e-06
-0.00011342
-1.67176e-05
-7.79447e-05
-2.73878e-05
-7.0743e-05
-3.53902e-05
-7.8759e-05
-4.03448e-05
-7.79471e-05
-4.32594e-05
-6.50766e-05
-4.65406e-05
-4.23671e-05
-5.00859e-05
-2.00913e-05
-5.25164e-05
-2.67575e-06
-5.26026e-05
9.05079e-06
-4.93286e-05
1.5315e-05
-4.28103e-05
1.68502e-05
-3.46943e-05
1.49862e-05
-2.62339e-05
1.47002e-05
-1.85994e-05
2.26745e-05
-1.17621e-05
4.07875e-05
-5.20974e-06
6.95541e-05
6.30427e-07
0.000106921
3.90555e-06
0.000145217
4.26691e-06
0.000174482
2.60523e-06
0.000188355
-4.08889e-07
0.000186364
-2.51913e-06
0.000175156
-2.14601e-06
0.00015139
0.000111663
-7.29711e-06
-0.00010612
-1.49297e-05
-7.03026e-05
-2.36338e-05
-6.20275e-05
-3.07257e-05
-7.16579e-05
-3.53332e-05
-7.33305e-05
-3.84162e-05
-6.1982e-05
-4.16365e-05
-3.91298e-05
-4.45808e-05
-1.71248e-05
-4.57761e-05
-1.45421e-06
-4.40955e-05
7.39894e-06
-3.90697e-05
1.03191e-05
-3.11085e-05
8.91862e-06
-2.28731e-05
6.77899e-06
-1.73208e-05
9.17507e-06
-1.5199e-05
2.05812e-05
-1.59578e-05
4.15789e-05
-1.86173e-05
7.22532e-05
-2.20279e-05
0.000110382
-2.55601e-05
0.000148813
-2.75392e-05
0.000176534
-2.67789e-05
0.000187671
-2.43485e-05
0.000184008
-1.86754e-05
0.000169555
-9.33156e-06
0.000142111
0.000102374
-7.85307e-06
-9.82636e-05
-1.45369e-05
-6.36075e-05
-2.10604e-05
-5.54906e-05
-2.72957e-05
-6.5412e-05
-3.24086e-05
-6.82075e-05
-3.70349e-05
-5.73434e-05
-4.11364e-05
-3.50106e-05
-4.36218e-05
-1.46165e-05
-4.31895e-05
-1.86007e-06
-3.91419e-05
3.37962e-06
-3.20543e-05
3.25984e-06
-2.3793e-05
6.84651e-07
-1.78986e-05
9.1085e-07
-1.69242e-05
8.22704e-06
-2.05897e-05
2.42754e-05
-2.83902e-05
4.94128e-05
-3.94345e-05
8.33387e-05
-5.09074e-05
0.000121907
-5.90984e-05
0.000157069
-6.03744e-05
0.000177883
-5.61848e-05
0.000183558
-4.75161e-05
0.000175412
-3.37364e-05
0.000155844
-1.55246e-05
0.000123958
8.68885e-05
-8.8125e-06
-8.94461e-05
-1.53097e-05
-5.70973e-05
-2.07332e-05
-5.00522e-05
-2.65875e-05
-5.95457e-05
-3.28628e-05
-6.19212e-05
-3.93694e-05
-5.08234e-05
-4.44567e-05
-2.99047e-05
-4.59509e-05
-1.3099e-05
-4.31634e-05
-4.62144e-06
-3.67355e-05
-3.02144e-06
-2.84713e-05
-4.97822e-06
-2.19757e-05
-5.78581e-06
-2.05989e-05
-4.40908e-07
-2.54806e-05
1.31353e-05
-3.65787e-05
3.54039e-05
-5.34263e-05
6.62968e-05
-7.30673e-05
0.000103025
-8.9789e-05
0.000138686
-9.66884e-05
0.000164036
-9.34477e-05
0.000174716
-8.30231e-05
0.000173207
-6.62763e-05
0.000158736
-4.39799e-05
0.000133611
-1.91387e-05
9.91682e-05
6.77862e-05
-9.63182e-06
-7.98075e-05
-1.65951e-05
-5.01193e-05
-2.19756e-05
-4.46553e-05
-2.83338e-05
-5.31742e-05
-3.63237e-05
-5.3919e-05
-4.46941e-05
-4.24384e-05
-5.02697e-05
-2.43093e-05
-5.02924e-05
-1.30529e-05
-4.55146e-05
-9.3742e-06
-3.82182e-05
-1.02928e-05
-3.18253e-05
-1.13472e-05
-3.05397e-05
-7.04776e-06
-3.65112e-05
5.55543e-06
-5.05405e-05
2.71928e-05
-7.26671e-05
5.75643e-05
-9.9952e-05
9.36241e-05
-0.000124317
0.000127444
-0.00013724
0.000151672
-0.000136361
0.000163227
-0.00012508
0.000163507
-0.00010483
0.000153027
-7.8315e-05
0.000132285
-4.8072e-05
0.000103425
-1.99974e-05
7.11377e-05
4.7822e-05
-1.03528e-05
-6.94461e-05
-1.80102e-05
-4.24454e-05
-2.3855e-05
-3.87929e-05
-3.14303e-05
-4.55841e-05
-4.1311e-05
-4.40242e-05
-5.11349e-05
-3.25977e-05
-5.65419e-05
-1.88813e-05
-5.64942e-05
-1.30771e-05
-5.26748e-05
-1.31699e-05
-4.84404e-05
-1.45043e-05
-4.86452e-05
-1.112e-05
-5.68892e-05
1.21966e-06
-7.46082e-05
2.33007e-05
-0.000101791
5.44074e-05
-0.000134677
9.04912e-05
-0.000163464
0.000122462
-0.000179421
0.000143463
-0.000180334
0.000152652
-0.000168737
0.0001517
-0.000146171
0.000141009
-0.00011509
0.000122009
-7.9685e-05
9.69365e-05
-4.48599e-05
6.86466e-05
-1.74068e-05
4.37218e-05
3.04457e-05
-1.09695e-05
-5.84658e-05
-1.92364e-05
-3.41598e-05
-2.59329e-05
-3.20774e-05
-3.50861e-05
-3.64145e-05
-4.6547e-05
-3.25468e-05
-5.73483e-05
-2.17773e-05
-6.37534e-05
-1.24539e-05
-6.65954e-05
-1.02118e-05
-6.74401e-05
-1.23026e-05
-7.08607e-05
-1.10621e-05
-8.17112e-05
-2.47254e-07
-0.000102073
2.16064e-05
-0.00013194
5.31983e-05
-0.000167092
8.95996e-05
-0.000197264
0.000120714
-0.000213315
0.000138571
-0.000214735
0.000144949
-0.000204117
0.000142101
-0.000181485
0.000129134
-0.00014928
0.000108866
-0.000111614
8.43973e-05
-7.33367e-05
5.87064e-05
-3.98213e-05
3.51695e-05
-1.56521e-05
1.95846e-05
1.4822e-05
-1.11478e-05
-4.73049e-05
-1.96906e-05
-2.55963e-05
-2.72729e-05
-2.44747e-05
-3.76374e-05
-2.60315e-05
-4.98403e-05
-2.03247e-05
-6.12498e-05
-1.03461e-05
-7.01498e-05
-3.53005e-06
-7.70307e-05
-3.30705e-06
-8.45304e-05
-4.78065e-06
-9.70644e-05
1.49385e-06
-0.000116737
1.94494e-05
-0.000144301
4.92001e-05
-0.000176893
8.5829e-05
-0.000205681
0.000118438
-0.00022174
0.000136832
-0.000225959
0.000142854
-0.000220163
0.00013922
-0.000202301
0.000124305
-0.000174582
0.000101475
-0.000140797
7.51342e-05
-0.000104697
4.8342e-05
-7.01107e-05
2.41579e-05
-4.06809e-05
5.77063e-06
-1.78743e-05
-3.19441e-06
-3.02557e-06
-9.83979e-06
-3.74497e-05
-1.71504e-05
-1.82629e-05
-2.43282e-05
-1.72749e-05
-3.39045e-05
-1.64344e-05
-4.47683e-05
-9.43881e-06
-5.56672e-05
5.77304e-07
-6.66896e-05
7.51848e-06
-7.78822e-05
7.91077e-06
-9.15131e-05
8.87384e-06
-0.000109273
1.92776e-05
-0.000130969
4.11737e-05
-0.000157086
7.53524e-05
-0.000182535
0.000111327
-0.000199828
0.000135791
-0.000207944
0.000145012
-0.000209526
0.000144502
-0.000201965
0.000131727
-0.000185009
0.000107412
-0.000161895
7.84158e-05
-0.000134854
4.81381e-05
-0.00010619
1.97146e-05
-7.77937e-05
-4.2085e-06
-5.06962e-05
-2.13019e-05
-2.48911e-05
-2.89764e-05
-2.78928e-05
-6.49679e-06
-3.09357e-05
-1.01974e-05
-1.45382e-05
-1.43989e-05
-1.30499e-05
-2.03103e-05
-1.05002e-05
-2.72833e-05
-2.44137e-06
-3.53983e-05
8.7193e-06
-4.62696e-05
1.84185e-05
-6.0718e-05
2.23869e-05
-7.76168e-05
2.57992e-05
-9.56546e-05
3.7343e-05
-0.000113221
5.87732e-05
-0.000130909
9.30838e-05
-0.000146125
0.000126598
-0.000156875
0.000146607
-0.000164178
0.000152383
-0.000167245
0.000147638
-0.000164896
0.000129445
-0.000157103
9.96771e-05
-0.000144781
6.61419e-05
-0.000128485
3.18816e-05
-0.000109474
7.34542e-07
-8.77746e-05
-2.58838e-05
-6.29003e-05
-4.61563e-05
-3.3818e-05
-5.80403e-05
-6.16919e-05
-1.93723e-06
-2.898e-05
1.41697e-06
-1.78682e-05
3.98868e-06
-1.55979e-05
4.59506e-06
-1.10827e-05
3.66443e-06
-1.48495e-06
1.03332e-06
1.1379e-05
-5.37566e-06
2.48586e-05
-1.7891e-05
3.49337e-05
-3.38189e-05
4.17576e-05
-4.91712e-05
5.27268e-05
-6.0766e-05
7.04047e-05
-6.70977e-05
9.94634e-05
-7.12577e-05
0.000130818
-7.66625e-05
0.00015208
-8.42911e-05
0.000160084
-9.16578e-05
0.000155075
-9.88187e-05
0.000136673
-0.00010314
0.000104055
-0.000103755
6.68027e-05
-0.000100009
2.81707e-05
-9.12725e-05
-7.97536e-06
-7.75155e-05
-3.96208e-05
-5.85426e-05
-6.51137e-05
-3.27794e-05
-8.37904e-05
-9.44588e-05
6.67173e-06
-3.56333e-05
2.034e-05
-3.15141e-05
3.27704e-05
-2.80059e-05
4.1589e-05
-1.98777e-05
4.73868e-05
-7.25688e-06
5.05897e-05
8.20523e-06
5.03036e-05
2.51774e-05
4.40236e-05
4.12487e-05
3.21947e-05
5.36218e-05
2.00575e-05
6.48993e-05
1.11627e-05
7.93392e-05
1.09208e-05
9.9754e-05
1.57988e-05
0.000126001
1.89825e-05
0.000148966
1.71482e-05
0.000161993
1.10187e-05
0.000161278
-2.29963e-08
0.000147782
-1.53686e-05
0.000119458
-2.95385e-05
8.10177e-05
-3.93291e-05
3.7995e-05
-4.2801e-05
-4.47935e-06
-4.02217e-05
-4.21832e-05
-3.26096e-05
-7.2714e-05
-1.91371e-05
-9.72545e-05
-0.000113589
1.92587e-05
-5.48748e-05
4.2393e-05
-5.46302e-05
6.31327e-05
-4.87262e-05
7.92604e-05
-3.59839e-05
9.10923e-05
-1.90639e-05
9.90261e-05
3.0015e-07
0.000103511
2.07255e-05
0.000103704
4.10935e-05
9.84959e-05
5.88692e-05
9.07903e-05
7.26441e-05
8.39291e-05
8.62427e-05
8.29824e-05
0.000100749
9.0062e-05
0.000118978
0.000100381
0.000138714
0.000108095
0.000154351
0.00010961
0.000159838
0.000103197
0.000154266
8.70743e-05
0.000135641
6.50872e-05
0.000103054
4.24643e-05
6.06537e-05
2.39146e-05
1.40944e-05
1.13571e-05
-2.96101e-05
3.17252e-06
-6.45197e-05
-5.27138e-07
-9.35494e-05
-0.000114113
2.73742e-05
-8.22353e-05
5.28384e-05
-8.00808e-05
7.37602e-05
-6.96326e-05
9.14143e-05
-5.36196e-05
0.000106458
-3.40853e-05
0.000118824
-1.20387e-05
0.000128558
1.10232e-05
0.000135582
3.41067e-05
0.000138622
5.58707e-05
0.000137794
7.35151e-05
0.000135883
8.8198e-05
0.000135096
0.000101584
0.000139459
0.000114668
0.0001496
0.000128633
0.00016166
0.000142357
0.000169524
0.000152045
0.000170866
0.000152994
0.000162692
0.00014388
0.000143571
0.000122231
0.000116993
8.72741e-05
8.77977e-05
4.33182e-05
6.13153e-05
-3.10984e-06
3.79511e-05
-4.11444e-05
1.71519e-05
-7.27443e-05
-9.69592e-05
2.43147e-05
-0.000106541
4.26182e-05
-9.8375e-05
5.54401e-05
-8.2443e-05
6.80638e-05
-6.62286e-05
8.21193e-05
-4.81222e-05
9.74371e-05
-2.73332e-05
0.000112572
-4.08296e-06
0.00012638
2.03328e-05
0.000137404
4.48871e-05
0.000144109
6.68541e-05
0.000147478
8.48746e-05
0.000149404
9.97056e-05
0.000151829
0.000112293
0.000156966
0.000123549
0.000165333
0.000134048
0.000174068
0.000143375
0.000179044
0.000148085
0.000177399
0.000145589
0.000166588
0.000133101
0.000146582
0.000107329
0.000119359
7.0578e-05
8.87211e-05
2.75527e-05
5.77673e-05
-1.01744e-05
2.70314e-05
-4.19987e-05
-6.99244e-05
1.43324e-05
-0.000120869
2.09531e-05
-0.00010499
2.33444e-05
-8.48256e-05
2.92287e-05
-7.21011e-05
3.98179e-05
-5.86965e-05
5.47551e-05
-4.22514e-05
7.2325e-05
-2.16289e-05
9.05074e-05
2.18009e-06
0.000107787
2.76437e-05
0.000121823
5.28585e-05
0.000131397
7.53464e-05
0.000137127
9.40226e-05
0.000140722
0.000108748
0.000143871
0.000120452
0.000148188
0.000129786
0.00015409
0.00013753
0.000158554
0.000143683
0.000158739
0.000145467
0.000151991
0.000139911
0.000137764
0.000121611
0.000116898
9.14881e-05
9.05907e-05
5.38927e-05
6.09549e-05
1.94851e-05
2.90488e-05
-1.0076e-05
-4.08689e-05
6.5997e-06
-0.000127466
4.4879e-06
-0.000102874
2.668e-07
-8.05966e-05
1.30554e-06
-7.31295e-05
8.37276e-06
-6.57513e-05
2.00273e-05
-5.38905e-05
3.48907e-05
-3.64728e-05
5.09015e-05
-1.3806e-05
6.68236e-05
1.17526e-05
8.14279e-05
3.82916e-05
9.3406e-05
6.34109e-05
0.000101697
8.57784e-05
0.000106576
0.000103919
0.000109262
0.000117816
0.000110856
0.000128245
0.00011258
0.000135862
0.000114819
0.000141502
0.000115523
0.000144826
0.000112393
0.000143103
0.000104549
0.000129514
9.16016e-05
0.000104486
7.3662e-05
7.18715e-05
5.13548e-05
4.1823e-05
2.53196e-05
1.59832e-05
-1.55382e-05
1.18914e-06
-0.000128654
-4.4427e-06
-9.7238e-05
-8.62994e-06
-7.64009e-05
-9.23816e-06
-7.25113e-05
-5.33004e-06
-6.96487e-05
2.31522e-06
-6.15229e-05
1.16186e-05
-4.57599e-05
2.1338e-05
-2.35041e-05
3.05106e-05
2.60704e-06
3.8851e-05
2.99849e-05
4.57102e-05
5.65914e-05
5.07134e-05
8.08205e-05
5.35083e-05
0.000101173
5.46318e-05
0.000116744
5.49489e-05
0.000127982
5.50023e-05
0.000135863
5.55748e-05
0.000140986
5.67158e-05
0.000143745
5.78746e-05
0.000142007
5.77759e-05
0.000129671
5.43746e-05
0.00010794
4.63938e-05
7.9895e-05
3.37302e-05
5.45222e-05
1.74968e-05
3.22463e-05
1.97369e-06
-4.39886e-06
-0.000124255
-9.71132e-06
-9.19211e-05
-1.07627e-05
-7.53403e-05
-1.13016e-05
-7.19626e-05
-1.10991e-05
-6.98411e-05
-9.59091e-06
-6.30197e-05
-8.15442e-06
-4.71818e-05
-7.19995e-06
-2.44394e-05
-6.90827e-06
2.34046e-06
-6.91196e-06
3.00201e-05
-7.23074e-06
5.69482e-05
-7.95776e-06
8.15917e-05
-9.19162e-06
0.000102456
-1.06781e-05
0.000118283
-1.17037e-05
0.000129061
-1.17275e-05
0.000135942
-1.02244e-05
0.00013954
-6.1335e-06
0.000139713
8.30724e-07
0.000135102
8.60075e-06
0.000121958
1.44183e-05
0.000102174
1.60883e-05
7.82684e-05
1.33556e-05
5.72927e-05
7.67156e-06
3.79636e-05
9.66318e-06
-9.90547e-06
-0.000114349
-1.5883e-05
-8.59381e-05
-1.78927e-05
-7.33212e-05
-1.99643e-05
-6.9881e-05
-2.40081e-05
-6.57871e-05
-3.03297e-05
-5.66868e-05
-3.78361e-05
-3.96612e-05
-4.61774e-05
-1.60791e-05
-5.4649e-05
1.0837e-05
-6.26873e-05
3.80898e-05
-6.99253e-05
6.42241e-05
-7.60026e-05
8.77132e-05
-8.04633e-05
0.000106966
-8.29426e-05
0.000120815
-8.29494e-05
0.000129122
-8.02319e-05
0.00013328
-7.40859e-05
0.00013345
-6.39916e-05
0.000129675
-5.01025e-05
0.00012127
-3.50798e-05
0.000106989
-2.15956e-05
8.87376e-05
-1.19598e-05
6.86742e-05
-5.60679e-06
5.09773e-05
-1.33824e-06
3.37285e-05
8.34391e-06
-1.47915e-05
-9.95553e-05
-2.49833e-05
-7.5739e-05
-3.19918e-05
-6.63027e-05
-3.93362e-05
-6.25259e-05
-5.00011e-05
-5.5111e-05
-6.43614e-05
-4.23138e-05
-8.06324e-05
-2.33744e-05
-9.73461e-05
6.55314e-07
-0.000113192
2.67099e-05
-0.000127397
5.23278e-05
-0.00013902
7.58859e-05
-0.000146958
9.56968e-05
-0.000150702
0.000110761
-0.00015025
0.000120417
-0.000145716
0.000124643
-0.000136917
0.000124536
-0.000124115
0.000120703
-0.000107501
0.000113114
-8.8011e-05
0.000101831
-6.81171e-05
8.71432e-05
-4.9836e-05
7.05003e-05
-3.44292e-05
5.33063e-05
-2.06088e-05
3.71925e-05
-7.78636e-06
2.09375e-05
5.7668e-07
-1.94625e-05
-8.00878e-05
-3.52721e-05
-5.99193e-05
-4.87747e-05
-5.27881e-05
-6.37537e-05
-4.75347e-05
-8.19001e-05
-3.69511e-05
-0.00010282
-2.13777e-05
-0.000125105
-1.07003e-06
-0.000146627
2.22015e-05
-0.000165716
4.58291e-05
-0.000181256
6.79051e-05
-0.000192247
8.69187e-05
-0.000197958
0.000101455
-0.000197861
0.000110715
-0.000192501
0.00011511
-0.000182689
0.000114884
-0.000168945
0.000110844
-0.000151771
0.000103581
-0.000131787
9.31799e-05
-0.000110189
8.02801e-05
-8.85786e-05
6.5576e-05
-6.79576e-05
4.99186e-05
-4.85721e-05
3.39562e-05
-2.94399e-05
1.8092e-05
-1.13754e-05
2.9003e-06
-1.07798e-05
-2.23838e-05
-5.76954e-05
-4.22838e-05
-4.00053e-05
-6.10558e-05
-3.4001e-05
-8.14769e-05
-2.70981e-05
-0.000103535
-1.48758e-05
-0.00012694
2.04709e-06
-0.000150165
2.21804e-05
-0.000171063
4.3129e-05
-0.000188154
6.29559e-05
-0.000200496
8.02879e-05
-0.00020785
9.4318e-05
-0.000210478
0.000104132
-0.000208119
0.000108407
-0.000201256
0.000108299
-0.000190173
0.000103853
-0.000175832
9.65536e-05
-0.000158666
8.64621e-05
-0.000139433
7.39927e-05
-0.000118911
5.98006e-05
-9.77285e-05
4.44323e-05
-7.61167e-05
2.83419e-05
-5.40199e-05
1.18906e-05
-3.17408e-05
-4.16006e-06
-1.22066e-05
-1.66111e-05
-2.2968e-05
-2.20723e-05
-3.56103e-05
-4.30409e-05
-1.90179e-05
-6.32909e-05
-1.37318e-05
-8.41674e-05
-6.20173e-06
-0.000105429
6.40802e-06
-0.000126853
2.34969e-05
-0.000146746
4.21041e-05
-0.000163853
6.02712e-05
-0.000177424
7.65675e-05
-0.000187156
9.0064e-05
-0.000192836
0.000100046
-0.000194033
0.00010538
-0.000191414
0.000105839
-0.00018519
0.000102126
-0.000176049
9.47606e-05
-0.000164347
8.48993e-05
-0.000150411
7.25718e-05
-0.000134618
5.8241e-05
-0.000117096
4.23172e-05
-9.7774e-05
2.51446e-05
-7.65513e-05
7.14977e-06
-5.39448e-05
-1.06897e-05
-3.20176e-05
-2.60654e-05
-1.32747e-05
-3.53353e-05
-3.62252e-05
-1.79768e-05
-1.76166e-05
-3.56441e-05
-1.327e-06
-5.26e-05
3.24777e-06
-6.9284e-05
1.05067e-05
-8.56504e-05
2.28013e-05
-0.000101353
3.9231e-05
-0.000115479
5.62659e-05
-0.000127596
7.24282e-05
-0.00013751
8.65259e-05
-0.000144997
9.75983e-05
-0.000149543
0.000104643
-0.000150998
0.000106886
-0.000149982
0.000104874
-0.000146646
9.88405e-05
-0.000141689
8.98519e-05
-0.000134937
7.81924e-05
-0.000126392
6.40695e-05
-0.000115986
4.78731e-05
-0.000103356
2.97228e-05
-8.83156e-05
1.01347e-05
-7.10137e-05
-1.01262e-05
-5.25829e-05
-2.90992e-05
-3.46146e-05
-4.40164e-05
-1.70842e-05
-5.28502e-05
-5.32936e-05
-1.07995e-05
-6.79659e-06
-2.05369e-05
8.4379e-06
-3.01045e-05
1.28426e-05
-3.88008e-05
1.92309e-05
-4.67342e-05
3.07652e-05
-5.36353e-05
4.61667e-05
-5.97752e-05
6.24449e-05
-6.52716e-05
7.79679e-05
-7.01994e-05
9.15006e-05
-7.45548e-05
0.000102004
-7.8251e-05
0.000108391
-8.13516e-05
0.00011004
-8.35864e-05
0.000107161
-8.49193e-05
0.000100223
-8.52025e-05
9.01823e-05
-8.42689e-05
7.7303e-05
-8.20222e-05
6.18634e-05
-7.82302e-05
4.41178e-05
-7.2617e-05
2.41419e-05
-6.49235e-05
2.46842e-06
-5.55237e-05
-1.95038e-05
-4.509e-05
-3.95152e-05
-3.34137e-05
-5.56785e-05
-1.92918e-05
-6.69592e-05
-7.25722e-05
-3.69577e-06
-3.07788e-06
-2.95337e-06
7.72494e-06
-2.23491e-06
1.21534e-05
-1.00608e-06
1.80315e-05
9.51175e-07
2.88397e-05
4.06036e-06
4.30932e-05
7.56504e-06
5.89801e-05
1.06469e-05
7.49301e-05
1.26624e-05
8.9533e-05
1.31413e-05
0.000101576
1.16266e-05
0.000109959
8.25794e-06
0.000113463
3.62981e-06
0.000111842
-1.67369e-06
0.000105577
-6.92191e-06
9.54781e-05
-1.18877e-05
8.23128e-05
-1.62061e-05
6.62218e-05
-1.96568e-05
4.7604e-05
-2.20837e-05
2.65995e-05
-2.33655e-05
3.77563e-06
-2.35316e-05
-1.93175e-05
-2.26847e-05
-4.0346e-05
-2.05587e-05
-5.77922e-05
-1.41834e-05
-7.33235e-05
-8.67457e-05
4.68101e-06
-7.73525e-06
1.58313e-05