/*--------------------------------*- C++ -*----------------------------------*\
| =========                 |                                                 |
| \\      /  F ield         | OpenFOAM: The Open Source CFD Toolbox           |
|  \\    /   O peration     | Version:  2.3.0                                 |
|   \\  /    A nd           | Web:      www.OpenFOAM.org                      |
|    \\/     M anipulation  |                                                 |
\*---------------------------------------------------------------------------*/
FoamFile
{
    version     2.0;
    format      ascii;
    class       volScalarField;
    location    "28";
    object      rho;
}
// * * * * * * * * * * * * * * * * * * * * * * * * * * * * * * * * * * * * * //

dimensions      [1 -3 0 0 0 0 0];

internalField   nonuniform List<scalar> 
1875
(
793.916
787.018
782.761
786.625
786.627
786.504
785.934
790.791
800.035
791.599
758.309
725.641
703.306
687.736
681.172
688.344
704.065
723.6
743.444
763.172
783.27
798.901
807.073
808.064
799.271
794.01
781.165
781.085
783.907
780.68
780.671
780.646
789.561
802.27
797.706
779.81
766.007
753.709
747.055
769.215
799.624
828.564
853.696
874.444
891.041
903.481
913.555
921.374
924.742
925.398
794.125
809.358
815.589
813.142
804.617
797.22
792.865
797.877
813.03
816.743
807.143
784.728
759.771
749.265
767.962
796.597
824.865
850.102
868.142
875.459
876.818
889.189
912.407
930.028
935.485
807.619
829.054
838.129
835.055
825.954
810.372
792.768
793.794
805.5
821.88
825.209
816.16
788.43
761.159
762.06
772.275
793.028
815.547
822.461
807.045
783.039
791.752
849.591
921.356
935.732
841.047
854.659
859.822
856.056
848.578
835.285
814.527
798.706
799.197
810.434
825.157
825.209
818.16
796.484
776.249
772.896
770.246
769.534
765.952
757.444
741.794
741.792
763.228
873.298
935.97
866.692
871.239
871.235
866.371
859.57
851.15
836.568
815.036
801.861
803.113
814.058
824.78
825.623
820.951
806.012
789.426
778.108
772.2
766.529
758.229
745.747
745.815
763.679
848.182
936.212
866.478
871.159
867.199
857.912
851.823
847.65
841.921
829.879
811.804
805.759
808.766
817.943
825.344
827.548
824.591
813.892
797.604
783.664
773.346
763.183
750.94
751.916
767.021
836.169
936.421
862.869
863.172
856.582
845.003
837.204
836.074
835.867
830.559
819.309
810.904
811.149
815.909
824.168
828.891
828.486
825.412
815.779
799.18
781.291
767.48
752.89
755.445
771.01
832.203
933.488
863.476
857.011
849.593
839.239
829.128
822.164
822.177
820.471
809.191
808.54
811.524
817.901
826.101
829.062
828.627
826.524
820.725
807.995
787.819
766.941
748.814
755.422
775.605
834.952
929.989
870.456
854.47
845.314
837.556
826.735
814.276
807.465
791.074
787.806
788.131
805.027
820.493
828.947
829.146
828.642
826.058
819.533
806.275
784.686
756.693
748.689
757.77
784.008
842.401
925.16
874.12
842.615
836.19
835.675
824.831
808.541
794.553
787.805
786.072
787.805
793.867
816.72
829.009
829.062
828.781
824.984
815.679
798.667
772.535
746.031
749.064
768.013
800.904
851.617
912.902
868.486
814.262
817.164
830.328
823.601
805.189
788.076
786.497
787.805
786.616
787.805
809.311
828.617
829.411
828.147
821.311
806.336
780.382
754.759
746.032
757.281
790.252
826.456
855.127
884.719
854.49
784.434
798.192
821.036
821.635
804.571
788.163
787.805
786.699
787.805
787.361
803.665
827.982
829.061
825.162
811.849
787.894
756.755
743.694
751.352
777.968
816.709
840.703
852.858
857.422
844.15
767.829
786.685
812.898
817.14
804.165
789.249
787.096
787.804
786.947
787.804
798.423
827.687
829.269
814.258
792.835
764.544
738.503
735.055
761.606
797.212
825.121
838.097
843.832
855.224
841.624
762.763
781.749
807.353
811.703
802.764
789.533
787.804
787.12
787.804
787.448
796.868
822.986
819.133
791.978
767.823
745.419
730.106
727.82
759.463
795.058
820.759
828.401
824.607
858.417
842.249
762.156
780.684
804.173
806.95
800.024
789.157
787.457
787.804
787.203
787.804
794.567
810.377
799.491
770.569
751.278
739.403
730.493
727.581
747.94
781.323
808.568
811.986
796.817
858.4
844.75
762.211
780.932
802.797
803.984
796.915
788.639
787.803
787.487
787.803
787.433
790.568
796.994
789.314
766.973
750.624
740.733
733.508
728.533
735.497
757.905
788.558
790.94
767.468
848.477
848.005
762.214
781.464
802.42
802.799
795.087
788.505
787.726
787.803
787.49
787.803
789.211
793.949
790.704
769.611
753.675
744.922
739.461
732.975
735.519
743.909
769.956
771.096
755.274
830.93
850.461
762.025
781.758
802.46
802.663
794.777
788.743
787.803
787.689
787.803
787.592
789.559
795.189
795.136
780.155
764.402
753.083
746.161
739.448
738.371
743.578
760.341
757.307
755.412
819.707
851.951
761.353
780.992
802.854
803.614
795.833
789.483
787.961
787.803
787.661
787.803
788.789
797.941
802.712
799.019
785.462
769.261
755.421
746.623
743.102
745.308
758.012
755.412
755.203
818.781
852.778
760.064
777.57
803.375
806.292
799.162
791.238
788.422
787.737
787.802
787.743
789.006
799.788
811.003
815.372
810.758
793.766
771.589
756.835
749.549
749.106
758.478
755.379
755.412
820.184
853.047
758.411
770.751
803.487
810.173
805.232
794.264
789.226
787.802
787.761
787.933
790.668
801.558
815.435
822.704
823.376
813.618
791.35
770.063
757.513
752.92
759.325
755.479
756.479
824.485
851.982
756.665
763.027
801.918
813.61
811.929
797.505
789.942
787.776
787.802
789.162
794.664
805.321
817.91
823.702
823.669
815.437
796.315
773.927
759.891
755.032
759.388
756.069
761.371
830.424
848.091
755.057
758.709
798.671
815.356
815.214
799.007
789.922
787.987
788.452
792.189
800.846
811.331
820.128
823.612
822.18
812.151
792.893
771.464
759.236
756.187
759.306
758.183
771.558
834.319
841.58
754.492
758.206
796.831
815.443
815.039
798.267
789.853
788.84
790.885
797.759
808.226
817.428
821.696
821.772
816.656
801.924
782.001
765.26
758.087
757.239
760.015
763.301
785.764
834.842
834.987
754.49
759.751
797.633
815.468
813.244
796.399
790.244
790.219
795.561
805.538
815.933
821.069
820.848
815.64
801.119
780.669
765.271
759.524
758.456
759.28
763.236
773.306
800.896
834.314
830.758
755.619
764.463
800.086
814.358
808.99
794.412
791.118
794.27
803.854
815.156
821.327
821.008
814.042
795.027
767.993
759.153
758.06
758.414
760.673
764.565
771.765
788.09
813.054
829.218
829.418
759.335
772.732
803.322
811.524
803.424
793.975
793.807
802.869
815.444
822.26
821.621
813.531
791.733
764.151
757.403
757.011
758.114
761.174
767.557
775.651
787.171
805.292
819.628
818.905
829.783
765.299
782.389
805.493
808.032
799.804
795.419
800.368
814.285
824.125
825.006
816.764
794.091
767.526
757.403
755.93
757.403
761.378
770.079
780.834
793.062
806.972
820.631
825.168
818.905
830.791
771.655
790.319
806.215
805.885
799.884
798.515
809.675
823.907
828.667
824.829
804.004
775.276
759.309
756.302
757.402
759.967
770.449
784.435
799.109
813.613
826.236
833.546
830.513
818.904
831.535
777.417
795.061
806.627
806.061
801.441
801.723
816.311
828.249
828.996
821.71
792.581
769.124
758.998
757.402
756.052
766.492
782.253
800.425
817.716
831.99
841.853
846.197
838.014
821.686
829.349
783.921
797.554
807.208
807.536
804.914
804.152
814.462
828.355
828.667
825.697
796.848
773.061
760.807
757.128
757.402
761.902
788.601
810.212
829.605
844.137
853.296
857.926
854.94
847.952
818.845
795.188
803.161
809.573
810.601
810.116
808.661
811.697
824.534
829.372
828.667
811.368
785.062
767.568
758.743
756.966
757.401
779.085
801.9
824.418
842.976
856.231
864.71
875.41
891.148
812.232
812.227
817.502
817.54
816.472
815.501
814.419
813.064
817.394
828.666
829.372
827.314
807.283
783.752
766.85
758.502
756.978
758.189
776.397
803.834
831.53
850.771
860.35
881.159
914.685
821.12
834.361
840.244
835.074
828.818
823.829
820.784
817.481
817.248
824.628
828.666
828.853
824.684
807.991
786.215
768.628
758.955
758.253
758.413
771.803
800.763
832.629
845.775
871.747
914.733
854.119
860.296
856.582
850.996
844.138
835.447
827.677
822.22
817.746
818.412
825.745
828.478
828.06
824.128
809.563
788.547
769.329
761.622
759.096
761.42
775.155
806.931
825.456
852.452
914.783
889.953
873.933
856.764
855.068
851.863
845.724
836.597
828.667
821.498
818.564
818.926
823.155
826.12
825.171
821.604
808.595
788.331
771.948
763.465
764.546
773.709
795.854
811.496
833.03
914.833
904.606
862.96
836.722
848.792
851.953
850.97
844.848
836.106
828.108
820.839
818.235
817.748
820.386
822.154
820.805
816.839
804.527
786.779
772.552
772.344
778.239
797.9
809.578
820.785
912.291
904.846
829.642
801.151
830.18
848.02
851
849.767
842.491
834.317
825.688
818.987
814.728
814.312
816.427
817.663
816.067
811.461
798.595
783.828
782.851
787.23
803.582
811.244
814.287
905.047
895.029
798.521
782.629
810.066
834.994
850.5
849.701
843.074
833.723
825.28
817.967
812.233
809.069
810.08
812.786
813.717
811.442
805.155
794.527
794.185
798.093
811.593
813.806
813.935
899.2
878.517
788.579
782.488
804.032
826.821
844.653
846.261
839.315
829.435
821.356
814.022
807.78
804.226
804.457
808.335
810.995
811.331
808.679
804.047
804.991
809.233
818.445
816.317
816.751
898.184
867.627
790.37
788.802
810.887
827.671
836.882
837.505
829.772
820.448
812.813
805.918
800.933
799.154
801.02
806.695
810.436
812
812.24
811.976
814.598
818.433
822.426
820.715
826.137
894.423
863.641
796.674
802.223
821.725
828.526
830.186
826.147
817.079
808.305
800.649
795.52
795.229
797.363
802.056
807.529
811.495
814.023
816.431
818.967
821.832
824.119
825.949
828.543
841.519
888.478
862.353
804.455
814.653
827.123
827.507
823.416
814.41
805.222
798.428
795.171
795.085
795.129
798.564
803.784
809.211
813.628
817.179
820.979
824.322
826.776
828.8
832.438
842.994
860.151
881.385
860.57
808.46
819.73
826.993
825.293
816.506
806.491
799.549
796.088
795.094
795.071
795.6
799.917
805.912
811.63
816.308
820.902
825.261
828.86
832.123
836.786
846.575
863.257
873.462
870.063
856.889
806.589
819.936
826.582
823.252
813.172
805.966
800.459
796.976
795.47
795.084
796.398
801.406
807.994
813.903
819.077
824.519
829.481
834.425
840.708
850.617
863.955
873.462
873.452
855.711
851.643
801.225
818.202
825.77
823.618
814.58
807.858
802.872
799.06
796.576
795.377
797.134
802.594
809.246
814.991
820.713
826.64
832.593
839.839
849.477
860.747
870.077
873.452
870.304
852.361
844.549
801.183
812.893
824.577
824.127
818.41
812.384
807.141
802.711
798.973
796.311
797.111
801.354
807.527
813.244
818.949
824.703
830.518
837.773
847.386
857.65
864.79
867.878
866.003
871.615
824.266
802.925
809.612
820.224
822.762
821.855
818.582
813.793
808.658
803.648
798.976
797.76
798.717
803.123
808.75
814.046
819.335
824.506
830.62
838.685
847.167
851.035
847.281
862.347
903.205
808.206
808.192
812.199
815.554
818.434
821.029
820.88
819.69
815.96
810.742
804.609
800.077
798.851
799.38
801.932
806.359
811.319
815.763
820.294
825.486
831.74
835.355
825.669
850.958
915.841
808.218
818.347
822.778
820.349
818.31
818.465
819.504
819.361
818.695
816.507
811.717
805.46
801.013
797.735
797.659
798.949
801.889
806.123
810.404
814.351
818.729
824.271
814.412
832.598
915.84
813.34
835.955
841.633
833.83
823.057
816.279
816.211
816.878
817.217
816.485
814.833
810.814
804.933
799.605
795.831
793.733
794.083
796.5
801.029
805.943
810.793
818.534
810.828
818.123
915.84
846.879
863.765
856.968
841.758
826.395
816.82
814.336
814.334
814.592
814.719
813.971
811.899
808.149
802.18
795.495
790.539
787.898
788.495
791.816
797.927
804.66
815.008
809.286
810.401
908.795
898.836
891.896
858.059
834.004
824.658
819.044
816.179
814.742
813.435
812.581
811.897
810.491
807.433
802.535
795.764
788.767
783.308
781.903
783.888
789.77
798.283
811.436
807.184
804.9
899.964
937.45
903.572
835.501
823.641
827.597
826.46
823.064
818.683
814.78
811.478
809.285
807.421
804.871
800.857
794.581
786.877
779.628
775.674
776.832
782.052
791.634
807.248
803.751
800.414
893.493
952.198
887.464
805.814
822.399
837.919
837.521
833.477
826.549
818.814
811.613
806.196
802.737
800.088
796.622
791.054
783.299
775.047
769.079
770.038
774.973
785.132
802.967
799.66
795.244
888.852
954.232
847.932
798.501
831.146
846.009
845.302
841.294
833.144
822.397
811.235
802.08
796.104
792.73
789.607
784.713
777.11
768.327
761.614
763.079
768.604
779.354
799.68
796.037
786.173
884.563
954.232
813.981
798.693
841.904
847.271
847.184
843.649
834.466
821.398
807.785
794.968
785.725
779.997
777.527
774.351
767.291
758.705
753.546
756.761
764.42
779.849
798.521
793.17
785.872
881.082
954.232
801.035
804.077
846.124
847.184
847.271
841.799
829.727
813.844
795.791
776.827
761.98
751.212
753.352
755.836
752.321
747.689
746.182
753.743
765.867
782.866
797.205
791.329
787.844
875.198
949.992
798.932
809.62
846.371
847.271
844.343
831.229
812.095
789.506
763.764
737.104
724.602
725.162
724.783
729.233
734.558
737.687
743.24
755.404
770.424
786.857
794.523
789.749
794.055
866.459
939.351
797.942
810.917
843.589
842.723
826.321
802.617
775.658
749.086
729.958
724.508
725.162
724.297
725.162
724.715
725.634
732.851
744.585
759.596
775.395
786.243
790.297
789.523
804.489
856.264
933.093
797.046
807.702
834.246
820.235
791.554
763.381
740.55
727.859
725.032
725.161
724.921
725.161
724.935
725.161
726.044
733.822
747.646
762.949
774.678
781.977
784.107
792.477
818.066
846.527
930.611
796.877
803.999
821.455
791.796
759.294
737.601
728.085
725.63
725.254
725.152
725.17
725.123
725.161
726.131
728.662
736.989
750.034
761.68
769.778
773.135
775.733
797.444
831.362
845.81
929.513
802.119
804.48
814.846
778.04
746.304
729.829
725.917
725.672
725.745
725.687
725.449
725.909
726.77
728.732
732.633
740.542
750.334
757.74
761.203
762.372
766.587
793.533
829.629
849.91
928.3
815.54
814.847
820.043
790.41
759.446
739.187
732.287
730.08
729.694
729.625
729.958
730.874
732.197
734.72
739.172
745.808
752.794
758.396
761.472
763.262
768.016
787.509
821.08
859.927
920.372
823.759
825.313
825.567
820.966
804.103
788.99
779.429
771.496
765.055
761.825
760.532
760.245
760.959
763.346
767.543
772.737
777.849
782.624
787.197
791.254
797.15
811.054
830.744
873.977
797.97
720.814
731.108
746.072
773.658
811.123
837.351
844.652
844.456
834.419
827.558
822.968
820.455
819.725
820.887
824.177
828.442
833.337
838.892
845.446
846.307
846.093
846.307
820.57
796.802
236.394
253.496
255.153
260.298
301.461
386.244
466.207
514.199
514.887
516.254
517.967
519.549
520.729
521.277
521.247
520.48
519.155
517.519
515.925
514.691
514.608
514.565
502.697
381.582
254.432
14.0956
21.2858
22.6798
22.0215
23.328
27.9977
36.2241
46.447
50.768
55.0144
58.3471
60.6912
62.013
62.4268
62.018
60.7138
58.7779
56.2628
53.1675
49.4851
45.7673
42.1559
35.7121
21.5446
9.3061
1.06733
1.30882
1.57285
1.52625
1.47815
1.5002
1.63294
1.77809
1.84603
1.87924
1.88846
1.886
1.87066
1.85025
1.82687
1.80415
1.7871
1.77941
1.77942
1.77938
1.76954
1.7103
1.4307
1.11803
1.05355
0.993286
0.993893
0.997738
0.997565
0.997063
0.997573
0.998867
0.999795
1.00077
1.00133
1.0024
1.00304
1.00226
1.00012
0.99738
0.99584
0.995323
0.995602
0.995967
0.996369
0.996927
0.997098
0.995842
0.997268
1.005
0.993347
0.993503
0.994223
0.996371
1.00203
1.01455
1.03406
1.04769
1.07882
1.10255
1.11684
1.1202
1.11917
1.11242
1.08616
1.03701
1.01057
1.00074
0.998711
0.999661
1.00238
1.0046
1.0075
1.01285
1.01366
0.993696
0.994669
0.99865
1.01235
1.05397
1.11243
1.14664
1.15464
1.1568
1.15766
1.15798
1.15799
1.15774
1.15614
1.14732
1.11244
1.04861
1.01645
1.00899
1.01141
1.02645
1.05279
1.07025
1.072
1.04859
0.994516
0.997876
1.01175
1.06579
1.13521
1.15708
1.1584
1.15857
1.15861
1.15862
1.15862
1.15859
1.15829
1.15629
1.14688
1.11455
1.06941
1.04293
1.03734
1.04464
1.07859
1.11162
1.12435
1.1194
1.06998
0.998516
1.01147
1.05275
1.12759
1.15689
1.15856
1.15862
1.15862
1.15862
1.15862
1.15862
1.1586
1.1583
1.15644
1.1496
1.1344
1.11875
1.11064
1.11154
1.12268
1.13964
1.14392
1.13906
1.11712
1.06188
)
;

boundaryField
{
    inlet
    {
        type            calculated;
        value           nonuniform List<scalar> 
25
(
514.171
514.171
514.171
514.171
514.171
514.171
514.171
514.171
514.171
514.171
514.171
514.171
514.171
514.171
514.171
514.171
514.171
514.171
514.171
514.171
514.171
514.171
514.171
514.171
514.171
)
;
    }
    outlet
    {
        type            calculated;
        value           nonuniform List<scalar> 
25
(
0.998612
1.01177
1.05366
1.12837
1.15862
1.15862
1.15862
1.15862
1.15862
1.15862
1.15862
1.15862
1.15862
1.15862
1.14944
1.13454
1.1197
1.11274
1.11408
1.12558
1.14122
1.14444
1.13877
1.11574
1.06017
)
;
    }
    walls
    {
        type            calculated;
        value           nonuniform List<scalar> 
150
(
793.916
794.01
794.125
807.619
841.047
866.692
866.478
862.869
863.476
870.456
874.12
868.486
854.49
844.15
841.624
842.249
844.75
848.005
850.461
851.951
852.778
853.047
851.982
848.091
841.58
834.987
830.758
829.418
829.783
830.791
831.535
829.349
818.845
812.232
821.12
854.119
889.953
904.606
904.846
895.029
878.517
867.627
863.641
862.353
860.57
856.889
851.643
844.549
824.266
808.206
808.218
813.34
846.879
898.836
937.45
952.198
954.232
954.232
954.232
949.992
939.351
933.093
930.611
929.513
928.3
920.372
797.97
236.394
14.0956
1.06733
0.993286
0.993347
0.993696
0.994516
0.998516
799.271
925.398
935.485
935.732
935.97
936.212
936.421
933.488
929.989
925.16
912.902
884.719
857.422
855.224
858.417
858.4
848.477
830.93
819.707
818.781
820.184
824.485
830.424
834.319
834.842
834.314
829.218
818.905
818.905
818.904
821.686
847.952
891.148
914.685
914.733
914.783
914.833
912.291
905.047
899.2
898.184
894.423
888.478
881.385
870.063
855.711
852.361
871.615
903.205
915.841
915.84
915.84
908.795
899.964
893.493
888.852
884.563
881.082
875.198
866.459
856.264
846.527
845.81
849.91
859.927
873.977
796.802
254.432
9.3061
1.05355
1.005
1.01366
1.04859
1.06998
1.06188
)
;
    }
    defaultFaces
    {
        type            empty;
    }
}


// ************************************************************************* //
