/*--------------------------------*- C++ -*----------------------------------*\
| =========                 |                                                 |
| \\      /  F ield         | OpenFOAM: The Open Source CFD Toolbox           |
|  \\    /   O peration     | Version:  2.3.0                                 |
|   \\  /    A nd           | Web:      www.OpenFOAM.org                      |
|    \\/     M anipulation  |                                                 |
\*---------------------------------------------------------------------------*/
FoamFile
{
    version     2.0;
    format      ascii;
    class       volVectorField;
    location    "2.99971";
    object      U;
}
// * * * * * * * * * * * * * * * * * * * * * * * * * * * * * * * * * * * * * //

dimensions      [0 1 -1 0 0 0 0];

internalField   nonuniform List<vector> 
18816
(
(-0.00703471 0.0117879 -0.00312952)
(-0.0186758 0.0134519 -0.000429301)
(-0.0318407 0.0131157 -0.00217868)
(-0.0375827 0.0128213 -0.00224379)
(-0.0471853 0.0139553 -0.00253676)
(-0.0521559 0.0136 -0.00253463)
(-0.0596777 0.0144636 -0.00269518)
(-0.0646955 0.0149978 -0.00275088)
(-0.0710649 0.0163273 -0.0028502)
(-0.0759053 0.0177301 -0.00290011)
(-0.0813794 0.0196431 -0.00299454)
(-0.0855536 0.0215182 -0.00307592)
(-0.0896604 0.0223896 -0.00311451)
(-0.0921123 0.0240826 -0.00328331)
(-0.0932906 0.0257624 -0.00345581)
(-0.0921349 0.0275944 -0.00370162)
(-0.0882636 0.0287916 -0.00391235)
(-0.0806469 0.0287813 -0.00410819)
(-0.0690942 0.0278514 -0.00423895)
(-0.0533277 0.0265616 -0.00421439)
(-0.0340184 0.0260909 -0.00392078)
(-0.0104739 0.0249935 -0.00364175)
(0.00920329 0.0241541 -0.00352936)
(0.0294608 0.0235296 -0.00369098)
(0.0483237 0.0233991 -0.00329195)
(0.0503626 0.0253823 -0.00277472)
(0.0402993 0.0259077 -0.00273292)
(0.0190011 0.0186163 -0.00452273)
(-0.00937276 0.0756242 -0.00330295)
(-0.0238321 0.0854978 -0.00433593)
(-0.0305082 0.0742963 -0.00404918)
(-0.0360997 0.0708039 -0.00387434)
(-0.0432063 0.0671603 -0.00375554)
(-0.0483532 0.0658091 -0.00362343)
(-0.0552024 0.0645235 -0.0034306)
(-0.0602862 0.0629522 -0.00319572)
(-0.0661252 0.0610282 -0.00295252)
(-0.0704589 0.0589024 -0.00268422)
(-0.074995 0.0564524 -0.00218312)
(-0.0774942 0.0545545 -0.000607602)
(-0.0808701 0.0542948 -0.000630513)
(-0.0824598 0.0537707 -0.000564862)
(-0.0830632 0.0538817 -0.0005103)
(-0.0816377 0.0545393 -0.000442145)
(-0.078642 0.0553399 -0.000383174)
(-0.0723438 0.0563799 -0.000330581)
(-0.0626509 0.0564055 -0.000300862)
(-0.0494598 0.0564187 -0.00031314)
(-0.0342558 0.0547877 -0.000275505)
(-0.014951 0.0535146 -0.000257341)
(0.00153602 0.0532705 -0.000273923)
(0.0191018 0.0480611 -0.000285817)
(0.0327641 0.0457302 -0.000149454)
(0.0358203 0.0499526 -5.15235e-06)
(0.0285511 0.0632179 -0.000222663)
(0.0133242 0.0956537 -0.0037437)
(-0.00259645 0.103495 -0.00159087)
(-0.00506527 0.0963165 -0.00737026)
(-0.0182562 0.0905517 -0.00605027)
(-0.022553 0.088184 -0.0061682)
(-0.0291636 0.0854558 -0.00606325)
(-0.0341412 0.0831628 -0.00606401)
(-0.0394735 0.0801538 -0.00607687)
(-0.0422179 0.0765156 -0.00585217)
(-0.0454862 0.0731962 -0.00552211)
(-0.048701 0.0692573 -0.00508837)
(-0.0566574 0.0616783 -0.00760402)
(-0.0670692 0.0506107 -0.00209361)
(-0.0699726 0.0499747 0.000178123)
(-0.0717714 0.0492421 9.83694e-05)
(-0.0735361 0.0482639 0.000224905)
(-0.0738798 0.0468779 0.000362427)
(-0.0725661 0.044827 0.000469344)
(-0.0687013 0.0419821 0.000521308)
(-0.0610948 0.0394328 0.000428517)
(-0.0499567 0.0372187 0.000342416)
(-0.0362701 0.0338438 7.90738e-05)
(-0.0190947 0.0314973 -0.000175286)
(-0.00343335 0.0318282 -0.000276989)
(0.0128652 0.0289343 -0.000337855)
(0.023283 0.0311483 -0.000122395)
(0.0294496 0.0432919 0.000302665)
(0.0185818 0.0604204 0.000474834)
(0.00827184 0.108567 -0.00229318)
(0.000702019 0.126401 -5.89433e-05)
(2.02238e-05 0.135789 0.0061441)
(-0.0125025 0.0986784 -0.00257241)
(-0.0123811 0.0958607 -0.000462542)
(-0.0176577 0.0914496 -0.000570321)
(-0.0209064 0.0886927 -0.000530663)
(-0.0241583 0.0849399 -0.000627347)
(-0.0262527 0.0816503 -0.000696009)
(-0.0277339 0.0774204 -0.000595728)
(-0.0285933 0.073636 -0.000408545)
(-0.0330879 0.0676781 -0.000524354)
(-0.0458178 0.0583053 -0.00557053)
(-0.0575222 0.0505333 -0.000425373)
(-0.0618179 0.0481922 0.000634267)
(-0.064794 0.0448235 0.000926478)
(-0.0662574 0.0400826 0.00128292)
(-0.0662707 0.0359441 0.00158007)
(-0.0640713 0.0306422 0.00178562)
(-0.0572765 0.0253101 0.00156284)
(-0.0450523 0.0216783 0.00123711)
(-0.0328347 0.0186651 0.000746796)
(-0.0185383 0.0170499 0.000184033)
(-0.00497996 0.018761 -0.0002225)
(0.00786676 0.0201165 -0.000296304)
(0.0136393 0.0257419 -7.2235e-05)
(0.0209514 0.04225 0.000331646)
(0.0119877 0.0649226 0.000551356)
(0.00464528 0.117263 -0.00118648)
(0.00292594 0.134452 6.98916e-05)
(-0.00435066 0.127503 0.00567367)
(-0.00619598 0.110924 0.00735031)
(-0.00855499 0.100121 -0.00117274)
(-0.0130747 0.0946625 -0.000920848)
(-0.0155399 0.0902753 -0.000799174)
(-0.0188552 0.0850292 -0.00078564)
(-0.0193519 0.0798177 -1.99534e-05)
(-0.0198832 0.0753628 -3.03248e-05)
(-0.0200357 0.0711839 5.06898e-05)
(-0.0220674 0.0647906 0.000199385)
(-0.0336677 0.0554741 -0.00253844)
(-0.0492196 0.0472137 -0.000179803)
(-0.0518034 0.0409556 0.000771196)
(-0.0510665 0.0314936 0.00121154)
(-0.0475196 0.0207103 0.00147498)
(-0.047355 0.0123368 0.00153262)
(-0.0478075 0.0026584 0.001514)
(-0.0462438 -0.00353279 0.00118036)
(-0.0389743 -0.00685644 0.00117455)
(-0.0305211 -0.00279065 0.00118492)
(-0.0185424 0.000991542 0.00089358)
(-0.00600771 0.0103552 0.000438456)
(0.0057352 0.0174083 0.000244031)
(0.00751612 0.0239006 1.6917e-05)
(0.0116834 0.0376203 4.03228e-05)
(0.00829597 0.0633983 0.000219567)
(0.00392099 0.11937 -0.000875139)
(0.0022947 0.135856 -7.56404e-05)
(-0.00596364 0.122542 0.00241711)
(-0.0117574 0.114304 0.00477868)
(-0.00637871 0.105978 0.00729101)
(-0.0103446 0.0982358 0.0061826)
(-0.0120092 0.0922995 0.0055688)
(-0.0139749 0.0858343 0.00447321)
(-0.0138373 0.079503 -0.000526112)
(-0.0145902 0.075694 -0.000443299)
(-0.014296 0.0714913 -0.000294147)
(-0.0150438 0.0638434 0.000370462)
(-0.021472 0.0533184 -0.00155717)
(-0.032823 0.0426813 -2.3965e-05)
(-0.02822 0.0279979 0.000410456)
(-0.0196667 0.0108179 0.000444648)
(-0.0150894 0.000584625 0.000374762)
(-0.0189274 -0.00474583 0.000798135)
(-0.0298923 -0.0132357 0.00104646)
(-0.0377457 -0.0193787 0.000702708)
(-0.0373398 -0.0253407 0.00044676)
(-0.0317051 -0.0269646 0.000315777)
(-0.0239375 -0.0255342 0.000344387)
(-0.0129207 -0.0153397 0.000598106)
(-0.00101541 -0.0017269 0.000560739)
(0.00343994 0.0221556 0.000230645)
(0.0051459 0.0376256 6.38383e-05)
(0.00458711 0.0645933 0.000153699)
(0.00271442 0.120369 -0.000472099)
(0.00153975 0.135557 -0.000421515)
(-0.0062546 0.118967 0.000840205)
(-0.012265 0.108474 0.0019607)
(-0.0132864 0.10684 0.00432044)
(-0.018648 0.0969429 0.00378397)
(-0.0196335 0.0870267 0.00339954)
(-0.0198902 0.0794625 0.0031952)
(-0.0112951 0.0798893 0.0048691)
(-0.0109263 0.076341 0.00415248)
(-0.0112455 0.0707191 0.00349701)
(-0.0110904 0.0610362 -9.69255e-05)
(-0.0124951 0.0480383 -0.000543474)
(-0.016606 0.0340157 -0.00019365)
(-0.0100028 0.0147372 0.000188247)
(-0.0052338 0.00117966 0.000185069)
(-0.00110455 -0.00145667 1.85649e-05)
(-0.00334364 -0.00175719 0.000282038)
(-0.00905438 -0.0112471 0.000726524)
(-0.022961 -0.020969 0.000707609)
(-0.0287575 -0.0315959 0.000400885)
(-0.028388 -0.0348978 0.00038087)
(-0.0253477 -0.0358696 0.000137757)
(-0.0188353 -0.032478 0.000309302)
(-0.0100569 -0.0134932 0.000450745)
(0.000381403 0.0143533 0.000288382)
(0.002183 0.0341949 4.84125e-06)
(0.00261708 0.0628834 4.68703e-05)
(0.00227483 0.120812 -0.000307325)
(0.000885099 0.135052 -0.000568846)
(-0.00541655 0.118009 0.000462573)
(-0.0105397 0.105169 0.000825044)
(-0.0126984 0.0997433 0.0016921)
(-0.0161905 0.0895874 0.00148539)
(-0.0157651 0.078624 0.00121066)
(-0.0153645 0.0728699 0.00116076)
(-0.0138337 0.075222 0.00280923)
(-0.0144555 0.0739115 0.0025964)
(-0.0141766 0.0704153 0.0023888)
(-0.00792134 0.0599538 0.000557236)
(-0.00572701 0.0453728 -3.06491e-05)
(-0.00666228 0.0282296 9.19752e-06)
(-0.00261934 0.00673375 0.000288519)
(-0.00180088 -0.00554564 0.000415684)
(-0.000285011 -0.00649565 0.000402224)
(-0.00171633 -0.00551971 0.000317131)
(-0.000460632 -0.0163639 0.00041741)
(-0.00792864 -0.016462 0.000484581)
(-0.0197743 -0.0333094 0.000265516)
(-0.0220166 -0.0399509 0.000384295)
(-0.0225327 -0.0407509 0.000167005)
(-0.019181 -0.0408392 0.000200272)
(-0.0144856 -0.0320471 0.000432914)
(-0.00467847 -0.000312738 0.000813063)
(0.00347064 0.032355 -1.95797e-05)
(0.00186531 0.062021 0.000140819)
(0.00168605 0.121892 -0.000193929)
(0.000142845 0.134507 -0.000563729)
(-0.00455055 0.11765 0.000250313)
(-0.00817127 0.103675 0.000346718)
(-0.00928633 0.0959882 0.000506834)
(-0.0107738 0.0850476 0.000362201)
(-0.00896533 0.0738176 0.000280725)
(-0.00868815 0.0682281 0.00035926)
(-0.00889614 0.0682426 0.000967033)
(-0.0119199 0.0689792 0.000891266)
(-0.0116361 0.0630636 0.0010517)
(-0.00452542 0.0556246 0.000828568)
(-0.00323087 0.0392943 0.000152411)
(-0.00114218 0.0221977 0.000238677)
(0.00180064 0.00214686 1.89975e-05)
(0.00228734 -0.0127762 0.000165766)
(0.00305997 -0.0155774 0.000372595)
(-0.00242326 -0.0135482 0.000503448)
(0.00264053 -0.0110383 -0.000790762)
(0.00141554 -0.00985317 0.000156278)
(-0.0112259 -0.025882 -4.33375e-05)
(-0.0164263 -0.0414995 0.000285835)
(-0.0189155 -0.0431611 0.000107858)
(-0.0176865 -0.0442838 7.93747e-05)
(-0.0148414 -0.0415256 0.000191679)
(-0.00949716 -0.0239704 0.000467767)
(0.00440072 0.0249552 -4.98259e-05)
(-0.000390376 0.0609942 0.000179861)
(0.00130839 0.12186 3.71857e-05)
(-0.000154022 0.134792 -0.000499945)
(-0.00371978 0.117906 0.000122529)
(-0.0061823 0.103513 0.000140135)
(-0.0065203 0.0948585 0.00016378)
(-0.00721866 0.0833484 8.72919e-05)
(-0.00588225 0.0716601 1.87417e-05)
(-0.00537899 0.0667108 -6.9966e-06)
(-0.005939 0.0673579 0.000292939)
(-0.0141869 0.0701186 0.000810315)
(-0.0165181 0.0536599 0.000617115)
(-0.00418661 0.0490876 0.000883752)
(-0.00290289 0.0323017 -5.86516e-05)
(0.00357006 0.00964972 -0.000123536)
(0.00507193 0.00484436 -0.000378284)
(0.00740264 -0.0110884 -0.000152258)
(0.00552151 -0.0173565 5.30423e-05)
(0.00881772 -0.016448 -0.000165248)
(0.00668617 -0.0111431 0.00107879)
(-0.00236486 -0.00267368 5.21016e-05)
(-0.00610675 -0.0206255 0.000304214)
(-0.0129112 -0.0422867 0.000341093)
(-0.0160829 -0.0443565 0.000183244)
(-0.0158427 -0.0456722 6.65312e-05)
(-0.0145485 -0.0449985 9.43769e-05)
(-0.0134402 -0.0354293 0.000549865)
(0.000595383 0.0195204 0.000739158)
(-7.7063e-05 0.060098 0.00016198)
(0.000390001 0.121739 -4.38488e-07)
(-0.000445797 0.135123 -0.000415765)
(-0.00303974 0.118089 4.79435e-05)
(-0.00463876 0.103589 5.71129e-05)
(-0.00424373 0.0942989 4.89309e-05)
(-0.00470492 0.0824975 6.29065e-05)
(-0.00360794 0.0710925 -1.62624e-05)
(-0.00382939 0.0677413 -1.47337e-05)
(-0.00281168 0.0702018 0.000415026)
(-0.0219207 0.0674851 0.00175412)
(-0.022509 0.0431908 -0.000572197)
(-0.000354435 0.0431496 0.00215527)
(0.00230146 0.0321349 0.00102144)
(0.00814638 0.011568 -1.61959e-05)
(0.00596693 0.00658373 -7.83269e-06)
(0.00817223 -0.0105689 0.000138872)
(0.00645617 -0.0203275 0.000366323)
(0.0045897 -0.0190557 0.000291766)
(0.00306912 -0.0199928 0.000376165)
(0.00315778 -0.00511201 0.000258062)
(0.000150807 -0.0180521 0.000402812)
(-0.00757469 -0.0432228 0.000370234)
(-0.0121787 -0.0448543 0.000146547)
(-0.0128397 -0.0460976 2.73691e-05)
(-0.0127637 -0.046081 2.04042e-05)
(-0.0130805 -0.0424323 0.000237128)
(-0.00364059 -0.0121057 0.000599977)
(0.00321981 0.0588909 6.48779e-05)
(-0.000495841 0.122964 -0.00025677)
(-0.000654744 0.135928 -0.000341002)
(-0.00253114 0.118113 7.25879e-05)
(-0.00350284 0.103547 2.14338e-05)
(-0.00258608 0.0939318 -6.50023e-06)
(-0.00269611 0.0817384 1.25307e-05)
(-0.00146288 0.0706594 1.2451e-05)
(-0.0027634 0.068202 0.000112766)
(-0.00411128 0.0724504 0.000546631)
(-0.0211661 0.0649679 0.00115944)
(-0.0176703 0.0396486 5.57041e-05)
(-0.00516027 0.0352786 0.00101522)
(0.00227108 0.0325636 0.000499532)
(0.00432984 0.0116987 -7.37022e-05)
(0.00486445 0.00831034 -0.000180412)
(0.00818669 -0.0129131 5.89614e-05)
(0.00708346 -0.0189888 -8.26391e-05)
(0.0064313 -0.0182 -5.89196e-05)
(0.00395288 -0.0204929 9.83507e-05)
(0.00493316 -0.00643092 -6.64758e-07)
(0.00477692 -0.0177345 0.000713961)
(-0.00436185 -0.0426868 0.000435073)
(-0.00867554 -0.0442573 0.000183584)
(-0.00996354 -0.0458321 3.24853e-05)
(-0.0098067 -0.0460878 1.7003e-05)
(-0.00919601 -0.0447448 -6.47906e-05)
(-0.00310058 -0.0256194 -0.00011571)
(0.00614881 0.0557706 1.37627e-05)
(-0.000973978 0.125792 -0.000516919)
(-0.000779364 0.136577 -0.000286964)
(-0.00219324 0.11794 7.27894e-05)
(-0.0027709 0.103194 1.96523e-05)
(-0.00166199 0.0935016 -3.12563e-05)
(-0.0014579 0.0811893 -4.29921e-05)
(0.00027532 0.0703656 3.14457e-05)
(-0.00320782 0.0691616 0.000237879)
(-0.00616889 0.0757653 0.000584034)
(-0.0212852 0.0610005 0.00125373)
(-0.0187694 0.0273622 0.00024573)
(-0.00598543 0.0226306 7.00521e-05)
(0.00183126 0.0254915 8.02236e-05)
(0.0030844 0.0115673 -9.58526e-05)
(0.00665335 0.0027921 6.78432e-05)
(0.00958464 -0.014628 0.000178588)
(0.00880579 -0.0197386 2.48206e-05)
(0.00776297 -0.018959 -1.90683e-06)
(0.00563007 -0.0193812 6.19786e-05)
(0.00691526 -0.0118012 9.33212e-05)
(0.00555418 -0.0254262 0.000784172)
(-0.00284926 -0.0432964 0.000466734)
(-0.00597368 -0.0445352 0.000191093)
(-0.00746044 -0.0460851 3.00653e-05)
(-0.00728156 -0.0468542 2.51754e-05)
(-0.00620856 -0.0459592 -6.94149e-05)
(-0.00227005 -0.029371 1.43958e-05)
(0.00535676 0.0531285 -1.75369e-05)
(-0.000950268 0.12799 -0.000455917)
(-0.000813769 0.137792 -0.000256434)
(-0.001977 0.117688 -1.86325e-05)
(-0.00236911 0.102931 1.19412e-05)
(-0.00112676 0.0930973 -5.35719e-05)
(-0.000455297 0.0807638 -5.58214e-05)
(0.000819788 0.0712208 0.000104975)
(-0.00475015 0.0709052 0.000391336)
(-0.0104487 0.0764399 0.000884441)
(-0.0263982 0.0540446 0.00164998)
(-0.0148091 0.0195971 0.000392193)
(-0.0028023 0.0142049 -7.52565e-05)
(0.00196572 0.0242541 -4.41449e-05)
(0.00255135 0.00843207 -2.39235e-05)
(0.00901599 0.000688151 0.000198963)
(0.0107911 -0.0161994 0.000119247)
(0.00977751 -0.0158064 -2.64182e-05)
(0.0084834 -0.0149543 6.04391e-05)
(0.00710325 -0.018603 2.93484e-05)
(0.00810199 -0.0123099 4.73078e-05)
(0.00598745 -0.029986 0.000700964)
(-0.00157877 -0.0443628 0.000368901)
(-0.00337736 -0.0446498 0.000195218)
(-0.00516072 -0.0458831 1.95319e-05)
(-0.00507747 -0.0472015 4.40252e-05)
(-0.00431869 -0.0472852 -7.1354e-05)
(-0.00198437 -0.0334171 4.24206e-05)
(0.00390912 0.0509453 -4.71881e-05)
(-0.000358819 0.128737 -0.000323121)
(-0.000823385 0.138765 -0.000238102)
(-0.00189438 0.117685 -5.53915e-05)
(-0.00231818 0.102479 -8.85125e-06)
(-0.0010143 0.092589 -5.9779e-05)
(-0.000614643 0.0801598 -4.4189e-06)
(-0.000540146 0.0722175 0.000288067)
(-0.0100423 0.0741192 0.000579645)
(-0.0199235 0.0778037 0.00117879)
(-0.0266293 0.0341923 0.00196661)
(-0.010228 0.00170861 0.000856043)
(-0.00512507 0.00730983 0.000206626)
(0.00169073 0.0213622 2.64286e-05)
(0.00592779 0.00277621 0.000189959)
(0.011057 -0.00797524 0.000204332)
(0.0110588 -0.0166957 4.9822e-05)
(0.0102418 -0.0168037 -1.99894e-05)
(0.00911699 -0.0165265 -1.9528e-05)
(0.00840128 -0.0184296 4.22751e-06)
(0.00883164 -0.0155846 1.33681e-05)
(0.0056094 -0.0324686 0.00050541)
(0.000162967 -0.0444859 0.000200709)
(-0.00102574 -0.0445627 0.00012736)
(-0.00293868 -0.0454737 -3.98774e-08)
(-0.0030994 -0.0471546 3.06861e-05)
(-0.0029554 -0.0475143 -6.85377e-05)
(-0.00180089 -0.0352524 3.11323e-05)
(0.00253138 0.0486672 -9.55951e-05)
(0.000106809 0.128442 -0.000231654)
(-0.000894022 0.140318 -0.00024948)
(-0.00197363 0.117905 1.14973e-05)
(-0.00244895 0.102518 -5.41058e-05)
(-0.00137093 0.0925287 -3.28918e-05)
(-0.00152999 0.08037 1.5236e-05)
(-0.00398907 0.0749224 0.000320093)
(-0.0157098 0.0797438 0.000520835)
(-0.0268276 0.0700625 0.000776645)
(-0.0120327 0.00465278 0.00105656)
(-0.00778433 -0.00850011 0.000504562)
(-0.00797578 -0.00489982 0.000221545)
(0.00153846 0.012063 0.000181445)
(0.00828949 -0.0072301 0.000115255)
(0.0101399 -0.0111531 0.000365212)
(0.00997985 -0.0163765 1.89666e-05)
(0.00955999 -0.0155509 0.000238044)
(0.00806884 -0.0156686 0.000355031)
(0.00862994 -0.0185127 6.50163e-06)
(0.00756273 -0.0147976 0.000346741)
(0.00511669 -0.0327006 0.000193359)
(0.00158346 -0.04308 3.81163e-06)
(0.00122812 -0.0429727 3.09252e-05)
(-0.000950019 -0.0440567 -1.0426e-05)
(-0.00132265 -0.0463841 2.61333e-05)
(-0.00183762 -0.0473362 -5.00738e-05)
(-0.00141058 -0.0361397 3.82983e-05)
(0.0012607 0.0471379 -0.000114261)
(0.000575949 0.127964 -0.000124142)
(-0.000810716 0.14191 -0.000271427)
(-0.00213361 0.118194 4.58832e-05)
(-0.00277754 0.102906 -6.45705e-05)
(-0.00221485 0.0926231 -7.01893e-06)
(-0.00324233 0.0820247 0.000117302)
(-0.00934449 0.0810352 0.000255411)
(-0.0183999 0.0850633 0.00053436)
(-0.0225652 0.0549887 0.000670658)
(-0.00912349 -0.0132107 0.00129383)
(-0.00952829 -0.010196 -0.000199193)
(-0.00676692 -0.0104654 2.1592e-05)
(-0.000255956 -0.0047655 -0.000180519)
(0.00546034 -0.012558 1.09108e-05)
(0.00762291 -0.0122698 -0.000320095)
(0.00693526 -0.0177148 0.000291765)
(0.00540532 -0.0163052 -0.000372243)
(0.00982516 -0.0175247 -0.000268087)
(0.00970533 -0.0206213 0.000302392)
(0.00778063 -0.0164616 -0.000171048)
(0.0089632 -0.0300828 0.000127152)
(0.00308526 -0.0398827 -4.47931e-05)
(0.00324081 -0.0406521 1.99946e-05)
(0.000679729 -0.0422308 -3.76799e-05)
(0.000109063 -0.0450735 8.55034e-06)
(-0.000951671 -0.0464332 -3.4758e-05)
(-0.00105251 -0.0363674 3.79698e-05)
(0.000465522 0.0458028 -0.000142123)
(0.00104657 0.127792 -3.82078e-05)
(-0.000799496 0.143979 -0.000290793)
(-0.00228665 0.118872 -3.73268e-05)
(-0.00322808 0.103877 -6.94623e-05)
(-0.00350334 0.093671 2.47274e-05)
(-0.00669786 0.0860179 0.000138944)
(-0.0135323 0.0871878 0.000129254)
(-0.0200888 0.0857382 0.000268097)
(-0.0108768 0.0346149 0.000549053)
(-0.0046273 -0.0215855 0.000753392)
(-0.00870173 -0.0128146 1.59366e-06)
(-0.00403817 -0.0140135 1.55154e-05)
(-0.00103327 -0.00891334 7.06859e-05)
(0.00231863 -0.0149926 8.33031e-06)
(0.00374994 -0.013251 -9.14878e-06)
(0.00470291 -0.0167363 -2.19029e-05)
(0.00640058 -0.0168358 5.41909e-05)
(0.00620225 -0.0187027 -1.69892e-05)
(0.00921722 -0.0203627 -2.22198e-05)
(0.0112285 -0.0183876 0.000285244)
(0.00937758 -0.0274741 0.000111607)
(0.00382247 -0.0368311 -0.000164538)
(0.00481488 -0.037742 1.57164e-07)
(0.00193646 -0.0397861 -5.58891e-05)
(0.00126657 -0.0432669 1.23441e-05)
(-0.000128996 -0.045253 -1.68929e-05)
(-0.000475742 -0.035749 1.15392e-05)
(-1.56891e-06 0.0450197 -0.000118722)
(0.0012368 0.128127 -1.33371e-06)
(-0.000651532 0.146061 -0.000336602)
(-0.00255082 0.119845 -6.75789e-05)
(-0.00406604 0.105351 -2.87642e-05)
(-0.00544989 0.0961149 8.17604e-05)
(-0.010468 0.0910069 0.000111041)
(-0.0147009 0.0923987 4.89361e-05)
(-0.0206076 0.0829613 -0.000147909)
(-0.000798609 0.0137707 0.0011913)
(-0.00434908 -0.0240751 0.000468219)
(-0.0075366 -0.0152941 0.0002611)
(-0.00348566 -0.0182673 -3.9992e-05)
(-0.00133212 -0.0133181 0.00028391)
(0.00108005 -0.0178197 -1.73398e-05)
(0.000764892 -0.0151371 0.000299227)
(0.0028896 -0.0209368 -0.000322846)
(0.00626679 -0.018736 0.00027897)
(0.00344232 -0.0206354 0.00035599)
(0.008967 -0.0269974 -0.000411537)
(0.0163784 -0.0246072 0.000556979)
(0.0141055 -0.0278661 0.000787687)
(0.00417917 -0.0336015 -0.000108431)
(0.00584785 -0.0354828 6.63578e-05)
(0.0027169 -0.0377039 -3.89513e-05)
(0.00202549 -0.0416139 1.5535e-05)
(0.000625258 -0.0438808 -1.50348e-05)
(0.000141758 -0.0347651 -3.51536e-05)
(-0.000164546 0.0443621 -6.98079e-05)
(0.00136934 0.128809 6.97225e-06)
(-0.000559403 0.14861 -0.000347032)
(-0.00266939 0.122045 -1.91543e-05)
(-0.00488248 0.107628 2.08199e-05)
(-0.00724821 0.099646 7.33205e-05)
(-0.0135582 0.0965144 6.81414e-05)
(-0.0177737 0.0966247 1.00402e-05)
(-0.0207964 0.075591 -0.000127696)
(-0.00622336 -0.00528174 0.000819036)
(-0.0129698 -0.0193962 -0.000211915)
(-0.00882564 -0.0179407 -0.00069212)
(-0.00373953 -0.019285 -0.000433883)
(-0.00127846 -0.0145963 -0.000640309)
(-0.000140145 -0.0181349 -0.000344748)
(-0.000109101 -0.0152618 -0.00062653)
(0.000522512 -0.0193363 -0.000319942)
(-0.000969903 -0.0185383 -0.000685051)
(0.00483621 -0.0227039 -0.000687545)
(0.00752539 -0.0289126 -0.00045447)
(0.0211393 -0.0320158 -0.000606685)
(0.0198572 -0.0344321 0.00133694)
(0.00722929 -0.0316207 -1.0707e-05)
(0.00708449 -0.0331586 8.04729e-05)
(0.00404644 -0.035479 -1.38838e-05)
(0.00278939 -0.0396572 1.73079e-05)
(0.0013935 -0.0423015 -3.4783e-06)
(0.000889804 -0.0330941 -6.03e-05)
(-7.67595e-05 0.0437758 -1.67926e-05)
(0.00140757 0.130201 4.89182e-06)
(-0.000436514 0.151124 -0.000409225)
(-0.00299281 0.124152 1.45398e-05)
(-0.00601416 0.110645 6.13209e-05)
(-0.00913978 0.104763 8.0993e-05)
(-0.0159575 0.103121 0.000101544)
(-0.0201609 0.101101 0.000288607)
(-0.0229155 0.0638722 -1.2828e-05)
(-0.0106027 -0.00204952 0.000547883)
(-0.0162979 -0.0092996 -0.000281762)
(-0.0144119 -0.0117943 -0.00188398)
(-0.00473611 -0.0101019 -0.00163894)
(-0.00445116 -0.00590871 -0.00159762)
(-0.00212359 -0.00755216 -0.0015388)
(-0.0029112 -0.00558343 -0.00151296)
(-0.00223401 -0.00805233 -0.0015802)
(-0.00464141 -0.00805635 -0.00169874)
(0.00157019 -0.0115609 -0.00223429)
(0.00333129 -0.0166773 -0.00210356)
(0.0228446 -0.0197337 -0.00241712)
(0.0222431 -0.0251522 1.34622e-05)
(0.010813 -0.0243779 -0.000166089)
(0.00756537 -0.0278316 -3.51514e-05)
(0.00470641 -0.0325845 -3.96042e-05)
(0.00318394 -0.0375427 -1.61056e-05)
(0.00196822 -0.0403943 1.01033e-05)
(0.00162015 -0.0313799 -5.05217e-05)
(0.000257853 0.0431725 5.33232e-05)
(0.00128167 0.131506 -2.24969e-05)
(-0.000151543 0.153959 -0.000360442)
(-0.00278711 0.127136 1.88736e-05)
(-0.00594503 0.11427 6.92019e-05)
(-0.00900283 0.109887 6.57533e-05)
(-0.0141114 0.108578 8.2992e-05)
(-0.0178554 0.101769 0.000469049)
(-0.0177706 0.0557831 9.33624e-05)
(-0.00278629 -0.000583502 0.000736503)
(0.000326829 -0.00560476 0.000216596)
(0.000523735 0.00338553 0.000582328)
(-0.00157662 0.00284041 0.000590332)
(-0.00135595 0.00510408 0.00065917)
(-0.00118874 0.00403554 0.000655117)
(-0.00144441 0.00522603 0.000682006)
(-0.00114557 0.00567205 0.000610975)
(-0.00191356 0.00617596 0.000570401)
(0.000289076 0.00756032 0.000345311)
(0.00223957 0.00285177 0.000296002)
(0.00417806 0.00217399 0.00027596)
(0.00370518 -0.0153707 0.000174473)
(0.00319981 -0.0197738 -4.75515e-05)
(0.00390153 -0.0254702 -1.10445e-05)
(0.0030573 -0.0309552 -1.36656e-05)
(0.00255158 -0.0361514 -1.59266e-06)
(0.00195607 -0.0379925 7.71422e-05)
(0.00188837 -0.0296181 -4.7691e-05)
(0.000541705 0.042799 0.00010213)
(0.00101585 0.133358 -4.88266e-05)
(-0.00014598 0.155952 -0.000377681)
(-0.0028911 0.129405 -8.66417e-06)
(-0.00594424 0.117414 4.80854e-05)
(-0.00917743 0.114255 7.07207e-05)
(-0.0133857 0.112445 0.000105066)
(-0.0171163 0.0997999 0.000459149)
(-0.0155919 0.0391699 0.000304705)
(-0.00491952 -0.00494889 0.000614976)
(-0.00582704 -0.0115702 -8.47069e-05)
(-0.00431631 -0.0127078 -0.000162274)
(-0.0025849 -0.0118694 -0.00013118)
(-0.00185745 -0.0112737 -0.000130289)
(-0.00125052 -0.0110202 -0.000120015)
(-0.00131318 -0.0105575 -0.000121039)
(-0.000849767 -0.0103833 -0.000109589)
(-0.000841068 -0.0108729 -0.000114924)
(0.00157791 -0.0111591 -8.41747e-05)
(0.00273959 -0.0132716 -7.38379e-05)
(0.00543481 -0.0147459 -0.000138425)
(0.0060253 -0.0178884 -3.5738e-05)
(0.00405478 -0.0198379 -5.57832e-05)
(0.00367165 -0.0241645 -1.23121e-05)
(0.00282043 -0.0298266 -2.57789e-05)
(0.00256361 -0.0352092 -3.3966e-05)
(0.00204051 -0.0334098 0.000232042)
(0.00218377 -0.0279323 -2.65514e-05)
(0.000920223 0.0419568 0.000134307)
(0.00077511 0.134499 -7.57151e-05)
(3.96024e-05 0.158165 -0.000313334)
(-0.00251957 0.132663 1.43978e-05)
(-0.00515711 0.121093 2.323e-05)
(-0.00776952 0.118039 8.04123e-05)
(-0.0108731 0.115229 0.000142771)
(-0.0142376 0.0973953 0.000620865)
(-0.0142012 0.0280162 0.000423955)
(-0.00475213 -0.00474336 0.000561811)
(-0.00386217 -0.00946592 5.61593e-06)
(-0.00239463 -0.00667844 4.54404e-05)
(-0.00160393 -0.00510183 6.94443e-05)
(-0.00106883 -0.00370339 8.45522e-05)
(-0.000856227 -0.00315385 9.61177e-05)
(-0.000823123 -0.00231783 9.37362e-05)
(-0.000856457 -0.00181612 9.0897e-05)
(-0.000814747 -0.00253181 5.55168e-05)
(0.000230138 -0.00413982 4.88498e-05)
(0.0008599 -0.00757857 4.93499e-05)
(0.0019478 -0.00974289 2.43989e-05)
(0.00231447 -0.0148419 1.85551e-05)
(0.00204373 -0.0183187 -1.46379e-05)
(0.00203728 -0.0233514 -1.56002e-05)
(0.00183474 -0.0291476 -2.04409e-05)
(0.00205203 -0.0345113 -3.84975e-05)
(0.00175366 -0.0277596 0.000198172)
(0.00210961 -0.0264577 -1.45346e-05)
(0.00108723 0.0415812 0.000152045)
(0.000411982 0.136069 -9.73907e-05)
(4.23563e-05 0.159306 -0.000321991)
(-0.00241702 0.13436 -2.36152e-06)
(-0.00466341 0.123459 -1.80911e-05)
(-0.00659588 0.120508 7.46467e-05)
(-0.00885444 0.116783 0.000193469)
(-0.0120493 0.0938659 0.000594613)
(-0.0122333 0.0180294 0.000317451)
(-0.00585103 -0.00748605 0.000212528)
(-0.00473878 -0.0117698 -7.51178e-05)
(-0.00322636 -0.0101959 -7.62027e-05)
(-0.00204112 -0.00873963 -6.50008e-05)
(-0.001354 -0.00776071 -7.88152e-05)
(-0.000918299 -0.00711666 -7.41643e-05)
(-0.000643507 -0.00655802 -7.34387e-05)
(-0.000420932 -0.00618437 -6.53339e-05)
(-1.83877e-05 -0.00658255 -7.8143e-05)
(0.000772848 -0.00809127 -5.60173e-05)
(0.00102856 -0.0102904 -3.62367e-05)
(0.00163447 -0.0120607 -4.74947e-05)
(0.00174055 -0.0151885 -1.72244e-05)
(0.00149705 -0.0182794 -1.37801e-05)
(0.00146773 -0.0226638 -5.57274e-06)
(0.00132895 -0.0284767 -2.0185e-05)
(0.0017374 -0.0339868 -5.42194e-05)
(0.00159985 -0.0260461 -0.000127376)
(0.00194457 -0.0254566 -2.00454e-05)
(0.00121262 0.0410759 0.000145708)
(0.000108445 0.136862 -0.000107159)
(0.00015846 0.160959 -0.000248099)
(-0.00199785 0.136965 3.71329e-05)
(-0.00359183 0.126005 -1.77944e-05)
(-0.00451178 0.121973 8.53341e-05)
(-0.00592783 0.116664 0.000241911)
(-0.00831093 0.0903865 0.000413872)
(-0.00868938 0.0142106 0.000213005)
(-0.00588872 -0.0119128 0.000131958)
(-0.0035736 -0.0125668 3.08925e-05)
(-0.00227159 -0.00972662 -6.05052e-06)
(-0.00123382 -0.00763289 -3.85471e-07)
(-0.000602049 -0.00614587 2.23858e-05)
(-0.000431755 -0.00517229 3.42425e-05)
(-0.000331652 -0.00443628 3.79264e-05)
(-0.000385071 -0.00404786 4.15872e-05)
(-0.000319096 -0.00471858 2.45906e-05)
(3.33857e-05 -0.00694068 1.93505e-05)
(0.000288609 -0.00943281 7.50619e-06)
(0.000638185 -0.0113821 -1.14331e-06)
(0.000795652 -0.0143511 2.35152e-06)
(0.000687026 -0.0176352 -1.14708e-05)
(0.000737927 -0.0220818 -2.56543e-05)
(0.000822464 -0.0275582 -4.78479e-05)
(0.00133223 -0.0327666 -8.67506e-05)
(0.00132445 -0.024247 -7.12125e-05)
(0.00152477 -0.0242404 -1.95715e-05)
(0.00133883 0.0407566 0.000125144)
(-0.000182303 0.138186 -0.000135394)
(9.85718e-05 0.161114 -0.000250688)
(-0.00206036 0.137315 9.84348e-05)
(-0.0036338 0.126506 3.25118e-05)
(-0.00425616 0.122087 4.26808e-05)
(-0.00513545 0.115888 0.000110493)
(-0.00465561 0.0897833 0.000135801)
(-0.00600643 0.0160237 -0.000157143)
(-0.00363112 -0.0144103 4.91353e-05)
(-0.00211125 -0.0138824 -2.50272e-05)
(-0.00139624 -0.0107574 -2.756e-05)
(-0.000749226 -0.0083126 -3.40636e-05)
(-0.00037743 -0.00703027 -2.31899e-05)
(-0.000257437 -0.00610398 -2.18101e-05)
(-0.000155128 -0.00548499 -1.99792e-05)
(-0.000132968 -0.0051353 -1.63019e-05)
(-5.67451e-05 -0.00563545 -1.78415e-05)
(9.25225e-05 -0.00762114 -1.51775e-05)
(0.000151261 -0.00968633 -1.52506e-05)
(0.00027678 -0.0114901 -1.85068e-05)
(0.000330286 -0.0140623 -1.66985e-05)
(0.000412522 -0.0169724 -1.77954e-05)
(0.000478464 -0.0207542 -1.52721e-05)
(0.000533686 -0.0255266 -3.52004e-05)
(0.000660958 -0.030092 -4.87566e-05)
(0.000948841 -0.02356 -0.000180916)
(0.000997529 -0.0229341 4.68764e-05)
(0.00129493 0.0403033 0.000112487)
(-0.000449493 0.138655 -8.38182e-05)
(-3.39673e-05 0.163561 -0.000344356)
(-0.00205814 0.140046 -4.89321e-06)
(-0.00343632 0.128754 1.1847e-05)
(-0.00402885 0.123 1.62227e-05)
(-0.00436977 0.114581 4.06821e-05)
(-0.00269145 0.0882024 5.7511e-05)
(-0.00363278 0.020486 -6.20743e-05)
(-0.00172007 -0.0140771 1.72257e-05)
(-0.00077953 -0.0131635 -0.000144838)
(-0.000418754 -0.010022 -0.000123889)
(-0.000161467 -0.00755146 -0.000106379)
(-2.87026e-05 -0.00639015 -8.22028e-05)
(2.28166e-06 -0.00552879 -6.99981e-05)
(-1.04184e-05 -0.00497945 -6.27992e-05)
(-8.03051e-05 -0.00464827 -5.97401e-05)
(-0.000134495 -0.00516434 -6.91448e-05)
(-9.18407e-05 -0.00695642 -9.10042e-05)
(-3.23107e-05 -0.00871805 -0.000114423)
(2.27172e-05 -0.0102513 -0.000128489)
(4.71179e-05 -0.0124458 -0.00014373)
(6.73617e-05 -0.0149475 -0.000160833)
(0.00012793 -0.0181942 -0.000177167)
(0.000155884 -0.0214819 -0.000190382)
(0.000161929 -0.0252086 -0.000184278)
(0.000494719 -0.0280814 -0.000184589)
(0.000627355 -0.0203895 2.19214e-05)
(0.00107468 0.0393408 7.38845e-05)
(-0.000394713 0.138665 -7.18938e-05)
(-0.0138188 0.0139724 -0.00427582)
(-0.0259297 0.0151424 -0.00593565)
(-0.0390143 0.0147389 -0.0050466)
(-0.0451164 0.0144575 -0.00465557)
(-0.0556895 0.0154906 -0.00462672)
(-0.061136 0.0146552 -0.00448726)
(-0.069482 0.0149912 -0.00445326)
(-0.0749404 0.0149131 -0.00434426)
(-0.0819182 0.0158717 -0.00426291)
(-0.0871321 0.0170433 -0.00422157)
(-0.0930767 0.0187012 -0.00426904)
(-0.0975555 0.0203135 -0.00442386)
(-0.101895 0.0213741 -0.00456499)
(-0.104363 0.0230543 -0.00487624)
(-0.105408 0.0246632 -0.00526286)
(-0.103846 0.0263782 -0.00581031)
(-0.0992958 0.0273597 -0.00638419)
(-0.090434 0.0272176 -0.00697367)
(-0.0773572 0.0259559 -0.00746627)
(-0.0599275 0.0231116 -0.00799302)
(-0.0391997 0.0210703 -0.00843224)
(-0.0132975 0.0189657 -0.00868567)
(0.00919001 0.0186314 -0.00821027)
(0.032015 0.0189847 -0.0075873)
(0.0531259 0.0198736 -0.00585323)
(0.0566052 0.0238825 -0.00430399)
(0.0459247 0.0255448 -0.00370979)
(0.0263053 0.0196582 -0.00276185)