/*--------------------------------*- C++ -*----------------------------------*\
| =========                 |                                                 |
| \\      /  F ield         | OpenFOAM: The Open Source CFD Toolbox           |
|  \\    /   O peration     | Version:  2.3.0                                 |
|   \\  /    A nd           | Web:      www.OpenFOAM.org                      |
|    \\/     M anipulation  |                                                 |
\*---------------------------------------------------------------------------*/
FoamFile
{
    version     2.0;
    format      ascii;
    class       volScalarField;
    location    "1.40012";
    object      Ct2;
}
// * * * * * * * * * * * * * * * * * * * * * * * * * * * * * * * * * * * * * //

dimensions      [0 0 0 0 0 0 0];

internalField   nonuniform List<scalar> 
18816
(
1
1
1
1
1
1
1
1
1
1
1
1
1
1
1
1
1
1
1
1
1
1
1
1
1
1
1
1
1
1
1.00549
1.04452
1.12242
1.02704
1
1
1
1
1
1
1
1
1
1
1
1
1
1
1
1
1
1
1
1
1
1
1
1
1
1.10921
1.31515
1.31086
1.384
1
1
1
1
1
1
1
1
1
1
1
1
1
1
1
1
1
1
1
1
1
1
1
1
1.16989
1.34936
1.29466
1.4029
1
1
1
1
1
1
1
1
1
1.04472
1.35359
1.38977
1.31514
1.02818
1.00044
1.00008
1.0003
1.00284
1
1
1
1
1
1
1.24581
1.36698
1.21221
1.177
1
1
1
1
1
1
1
1.00034
1.11988
1.3231
1.40644
1.74962
1.6479
1.31701
1.00334
1.00001
1
1.01397
1
1
1
1
1
1
1.30132
1.3879
1.138
1.00743
1
1
1
1
1
1
1
1
1
1
1.25378
1.76961
2.12717
1.40597
1.1607
1.00001
1
1.00461
1
1
1
1
1
1
1.3451
1.43462
1.09493
1
1
1
1
1
1
1
1
1
1
1
1.02676
1.87699
2.617
1.54484
1.37647
1.00159
1
1.00023
1
1
1
1
1
1.06813
1.36652
1.53229
1.05236
1
1
1
1
1
1
1
1
1
1
1
1.00482
2.38727
3.09528
1.7066
1.62878
1.23041
1
1
1
1
1
1
1
1.16613
1.37929
1.73064
1.00274
1
1
1
1
1
1
1
1
1
1
1
1.1914
4.21262
3.32791
1.94896
2.61155
1.39178
1
1
1
1
1
1
1.00074
1.0728
1.38789
2.33114
1.00122
1
1
1
1
1
1
1
1
1
1
1
1.45536
7.50239
2.95492
2.56845
5.04305
1.73279
1.0002
1
1
1
1
1
1.00096
1.00932
1.41775
4.32695
1.61497
1
1
1
1
1
1
1
1
1
1
1.00542
4.60561
8.57485
2.80028
4.57661
8.07729
3.32823
1.04259
1
1
1
1
1
1
1.00035
1.73895
6.19233
6.7988
1.01989
1
1
1
1
1
1
1
1
1
1.73588
8.57412
8.90456
5.94829
7.45801
8.83351
6.85024
1.36179
1
1
1
1
1
1
1.00004
3.02402
8.11324
8.80741
2.96913
1
1
1
1
1
1
1
1
1.37312
7.49136
8.95624
8.95041
8.12724
8.60701
8.93665
8.75923
2.06386
1
1
1
1
1
1
1.00317
5.7897
8.84642
8.9052
8.82096
1.73577
1
1
1
1
1
1
1.40146
7.72531
8.95658
8.95939
8.95719
8.78452
8.89556
8.95398
8.95173
5.94282
1.00028
1
1
1
1
1
1.15013
7.59257
8.93896
8.92725
8.86451
8.81386
3.70626
1.26346
1
1
1.2536
2.153
8.54005
8.95886
8.95941
8.95945
8.95913
8.94079
8.95309
8.9575
8.95672
7.96998
1.12565
1
1
1
1
1
1.3329
8.19954
8.95104
8.94321
8.93092
8.94044
8.95077
8.67112
5.59592
2.08999
8.47573
8.93049
8.9592
8.95939
8.95945
8.95947
8.95948
8.95841
8.95923
8.95802
8.91956
8.25599
1.20231
1
1
1
1
1
1.40897
8.40815
8.95459
8.9568
8.95685
8.95716
8.95801
8.95659
8.95836
8.94525
8.95938
8.95943
8.95946
8.95948
8.95948
8.95948
8.95948
8.95947
8.95948
8.95332
8.50726
8.22459
1.2117
1.00077
1
1
1
1
1.68714
8.49389
8.95464
8.95787
8.95853
8.95806
8.95919
8.95937
8.95947
8.95948
8.95948
8.95948
8.95948
8.95949
8.95949
8.95949
8.95949
8.95949
8.95949
8.94224
7.23555
7.58025
1.18377
1.00051
1
1
1
1
2.33823
8.51081
8.94164
8.95516
8.95816
8.95712
8.95937
8.95948
8.95949
8.95949
8.95949
8.95949
8.95949
8.95949
8.95949
8.95949
8.95949
8.95949
8.95949
8.92444
5.80177
5.91926
1.04797
1.00004
1
1
1
1
2.56559
8.27773
8.88365
8.93773
8.95876
8.95906
8.95948
8.95949
8.95949
8.95949
8.95949
8.95949
8.95949
8.95949
8.95949
8.95949
8.95949
8.95949
8.95949
8.89874
4.87411
3.67064
1.01972
1
1
1
1
1.00114
2.37784
7.80258
8.65148
8.83489
8.95488
8.95948
8.95949
8.95949
8.95949
8.9595
8.9595
8.9595
8.9595
8.9595
8.9595
8.9595
8.9595
8.9595
8.9595
8.86594
4.38497
2.41097
1.37055
1
1
1
1
1.00134
1.97273
6.47341
7.78425
8.32378
8.93161
8.95943
8.95949
8.9595
8.9595
8.9595
8.9595
8.9595
8.9595
8.9595
8.9595
8.9595
8.9595
8.9595
8.9595
8.83578
4.15847
2.01237
1.61451
1
1
1
1
1.00023
1.65879
4.55268
6.18859
7.08636
8.87549
8.95941
8.95949
8.9595
8.9595
8.9595
8.9595
8.9595
8.9595
8.95951
8.95951
8.95951
8.95951
8.95951
8.9595
8.83439
4.7634
1.97656
1.42835
1
1
1
1
1.00001
1.47319
2.93027
4.50661
5.33683
8.75446
8.95889
8.95945
8.9595
8.95951
8.95951
8.95951
8.95951
8.95951
8.95951
8.95951
8.95951
8.95951
8.95951
8.95951
8.87114
6.25493
2.26231
1.40491
1
1
1
1
1
1.40046
2.51004
4.53704
5.9589
8.81599
8.95933
8.9595
8.95951
8.95951
8.95951
8.95951
8.95951
8.95951
8.95951
8.95951
8.95951
8.95951
8.95951
8.95951
8.93225
7.95887
3.62023
1.56157
1
1
1
1
1
1.36874
2.50871
5.07509
7.94835
8.91992
8.95946
8.95951
8.95952
8.95952
8.95952
8.95952
8.95952
8.95952
8.95952
8.95952
8.95952
8.95952
8.95952
8.95952
8.95325
8.73765
6.32182
1.86353
1
1
1
1
1
1.35351
2.45401
5.22929
8.8758
8.95605
8.95948
8.95952
8.95952
8.95952
8.95952
8.95952
8.95952
8.95952
8.95952
8.95952
8.95952
8.95952
8.95952
8.95952
8.95829
8.93478
8.41118
2.01669
1
1
1
1
1
1.17871
2.21685
7.03726
8.958
8.95934
8.95953
8.95953
8.95953
8.95953
8.95953
8.95953
8.95953
8.95953
8.95953
8.95953
8.95953
8.95953
8.95953
8.95953
8.95941
8.95893
8.94291
2.05245
1
1
1
1
1
1
1
1
1
1
1
1
1
1
1
1
1
1
1
1
1
1
1
1
1
1
1
1
1
1
1
1
1
1.02811
1.26503
1.27209
1.15063
1
1
1
1
1
1
1
1
1
1
1
1
1
1
1
1
1
1
1
1
1
1
1
1.00161
1.00042
1.38367
1.39638
1.25907
1.20113
1
1
1
1
1
1
1
1
1
1
1
1
1
1
1
1
1.00001
1
1
1
1
1
1
1.00002
1.54833
1.47791
1.0205
1
1
1
1
1
1
1
1
1
1
1.03668
1.33881
1.38125
1.32671
1.13169
1.04292
1.03484
1.0957
1.07197
1
1
1
1
1
1
1.74904
1.49383
1.00052
1
1
1
1
1
1
1
1
1
1.00001
1.06997
1.32863
1.66894
1.93033
1.37354
1.23121
1.04567
1.15743
1.30372
1
1
1
1
1
1
2.08319
1.5037
1.00026
1
1
1
1
1
1
1
1
1
1
1
1
1.44909
2.30748
1.71352
1.37662
1.05331
1.15228
1.33383
1.00025
1
1
1
1
1.06436
3.07892
1.49541
1.00001
1
1
1
1
1
1
1
1
1
1
1
1
1.32168
2.28415
2.27421
1.98784
1.25175
1.15727
1.29854
1.00022
1
1
1
1
1.45183
3.98864
1.45719
1
1
1
1
1
1
1
1
1
1
1
1
1
1.28755
1.87863
2.61068
3.86684
1.44023
1.2735
1.12741
1.00004
1
1
1
1.32003
1.85618
4.30323
1.4664
1
1
1
1
1
1
1
1
1
1
1
1
1
1.54495
1.70238
2.67693
6.22541
2.27272
1.3332
1.0133
1
1
1
1
1.40346
1.82671
4.31925
1.90785
1
1
1
1
1
1
1
1
1
1
1
1
1.31615
5.23205
2.6368
4.19856
7.85572
4.54792
1.3598
1.00009
1
1
1
1
1.35637
1.5059
4.34101
4.28897
1.33583
1
1
1
1
1
1
1
1
1
1
1
2.59105
8.67519
4.16488
6.36368
8.71379
7.38452
1.47224
1
1
1
1
1
1.21857
1.37818
4.5529
4.19063
5.1926
1
1
1
1
1
1
1
1
1
1
1.34796
7.53265
8.94206
6.80374
8.04606
8.91029
8.71558
2.66536
1.00006
1
1
1
1
1.01897
1.32881
5.79676
6.48485
7.16083
2.17799
1
1
1
1
1
1
1
1
1.11292
4.69064
8.92484
8.95703
8.37616
8.75736
8.9486
8.94314
6.81972
1.09935
1
1
1
1
1.00001
1.3127
7.52492
8.26493
6.24898
7.74025
1.52103
1
1
1
1
1
1
1.25985
5.58719
8.9322
8.95942
8.95897
8.84447
8.9277
8.95612
8.95434
8.59554
1.35535
1
1
1
1
1
1.37178
8.43026
8.7243
7.73799
7.54882
8.56279
2.96166
1.11072
1
1
1.15469
1.61439
7.81487
8.95504
8.95941
8.95945
8.9594
8.94881
8.95717
8.95716
8.89989
8.68831
1.6475
1
1
1
1
1
1.56623
8.74479
8.90542
8.72411
8.56894
8.80701
8.91917
8.40291
4.80731
1.59388
8.47177
8.90605
8.95918
8.95942
8.95946
8.95947
8.95948
8.95916
8.95939
8.9543
8.49061
8.45831
1.85339
1.1786
1
1
1
1
2.46737
8.84273
8.93603
8.90856
8.86188
8.87709
8.93611
8.86989
8.95626
8.92468
8.95943
8.95946
8.95947
8.95948
8.95948
8.95948
8.95948
8.95948
8.95948
8.94083
7.53572
7.65689
1.66505
1.37954
1
1
1
1
5.67467
8.8677
8.93231
8.90895
8.82032
8.78503
8.95705
8.95322
8.95935
8.95946
8.95948
8.95948
8.95948
8.95949
8.95949
8.95949
8.95949
8.95949
8.95948
8.91951
6.54686
6.00178
1.38839
1.37189
1
1
1
1.05604
7.95284
8.84345
8.90634
8.90202
8.79638
8.7404
8.95894
8.95945
8.95948
8.95949
8.95949
8.95949
8.95949
8.95949
8.95949
8.95949
8.95949
8.95949
8.95949
8.8919
5.89218
3.85339
1.22494
1.35058
1
1
1
1.43883
8.03366
8.74012
8.8805
8.93885
8.94316
8.93847
8.95939
8.95949
8.95949
8.95949
8.95949
8.95949
8.95949
8.95949
8.95949
8.95949
8.95949
8.95949
8.95949
8.86342
5.57281
2.59927
1.05227
1.30792
1
1
1
1.81502
7.6205
8.56638
8.82331
8.94275
8.95867
8.95944
8.95947
8.95948
8.95949
8.95949
8.9595
8.9595
8.9595
8.9595
8.9595
8.9595
8.9595
8.9595
8.9595
8.83667
5.54418
2.24018
1.36533
1.19381
1
1
1
1.81451
6.75096
8.01247
8.56345
8.88714
8.95635
8.95948
8.9595
8.9595
8.9595
8.9595
8.9595
8.9595
8.9595
8.9595
8.9595
8.9595
8.9595
8.9595
8.9595
8.81908
6.2738
2.24465
1.66536
1.19058
1
1
1
1.68602
5.40128
6.88797
7.94605
8.70719
8.94918
8.95948
8.9595
8.9595
8.9595
8.9595
8.9595
8.9595
8.9595
8.95951
8.95951
8.95951
8.95951
8.95951
8.9595
8.87085
7.86976
3.49763
1.51723
1.20106
1
1
1
1.55168
3.8993
5.2663
7.55904
8.48353
8.93996
8.95943
8.9595
8.95951
8.95951
8.95951
8.95951
8.95951
8.95951
8.95951
8.95951
8.95951
8.95951
8.95951
8.95951
8.92827
8.52725
6.14058
1.5184
1.20605
1
1
1
1.47368
2.88488
4.24591
7.69589
8.68261
8.9509
8.95949
8.95951
8.95951
8.95951
8.95951
8.95951
8.95951
8.95951
8.95951
8.95951
8.95951
8.95951
8.95951
8.95951
8.95377
8.83203
8.19031
1.97632
1.22405
1
1
1
1.42328
2.30774
3.68529
7.42856
8.92246
8.95886
8.9595
8.95952
8.95952
8.95952
8.95952
8.95952
8.95952
8.95952
8.95952
8.95952
8.95952
8.95952
8.95952
8.95952
8.95875
8.94112
8.81505
2.59568
1.2228
1
1
1
1.40166
2.09905
3.48061
7.77437
8.95899
8.95945
8.95952
8.95952
8.95952
8.95952
8.95952
8.95952
8.95952
8.95952
8.95952
8.95952
8.95952
8.95952
8.95952
8.95952
8.95937
8.95889
8.94427
2.74465
1.20784
1
1
1
1.36249
1.55046
2.8121
8.77246
8.95952
8.95952
8.95953
8.95953
8.95953
8.95953
8.95953
8.95953
8.95953
8.95953
8.95953
8.95953
8.95953
8.95953
8.95953
8.95953
8.95952
8.95952
8.95845
3.63139
1.09997
1
1
1
1
1
1
1
1
1
1
1
1
1
1
1
1
1
1
1
1
1
1
1
1
1
1
1
1
1
1
1
1.014
1.16102
1.42472
1.36283
1.25453
1.0015
1
1
1
1
1
1
1
1
1
1
1.00068
1.05825
1.26823
1.3474
1.36284
1.36599
1.36014
1.30862
1.01646
1
1
1
1.0422
1.12119
2.49099
1.6183
1.06399
1.00733
1
1
1
1
1
1
1
1
1
1
1
1
1.00009
1.00764
1.08417
1.17075
1.23954
1.07033
1.00016
1
1
1
1
1.08691
3.67994
1.4445
1
1
1
1
1
1
1
1
1
1
1
1.09118
1.31772
1.36848
1.35563
1.31963
1.32363
1.3251
1.48529
1.33999
1.00088
1
1
1
1
1.06184
4.02995
1.37198
1
1
1
1
1
1
1
1
1
1
1
1
1.04351
1.41777
1.87652
1.83246
1.53133
1.34456
1.61208
1.72202
1.0607
1
1
1
1
1.06659
4.32755
1.34412
1
1
1
1
1
1
1
1
1
1
1
1
1
1.07782
1.61001
2.29886
2.7079
1.3635
1.57206
1.69388
1.16191
1
1
1
1
1.35081
4.59879
1.29865
1
1
1
1
1
1
1
1
1
1
1
1
1
1
1.28499
1.8964
5.32351
1.68468
1.59714
1.36541
1.15215
1
1
1
1
2.67922
4.53699
1.19858
1
1
1
1
1
1
1
1
1
1
1
1
1
1
1.16945
1.49506
6.17041
3.78979
1.99264
1.28708
1.10523
1
1
1
1.52986
4.59625
4.08919
1.12353
1
1
1
1
1
1
1
1
1
1
1
1
1
1.25369
1.20499
1.42395
6.6804
6.86577
2.59971
1.1736
1.05474
1
1
1
1.79299
4.62651
4.77868
1.2544
1
1
1
1
1
1
1
1
1
1
1
1
1.22365
1.84942
1.53267
3.9498
8.60955
8.46676
3.43877
1.07221
1.01664
1
1
1
1.49741
3.72114
5.56601
1.32689
1.1067
1
1
1
1
1
1
1
1
1
1
1.04563
4.26289
8.43771
5.51696
7.71147
8.89384
8.88756
5.20824
1.05206
1.00141
1
1
1
1.31752
2.77757
6.33637
1.28002
2.10134
1
1
1
1
1
1
1
1
1
1.13799
3.33127
8.83202
8.95074
7.53748
8.48799
8.93894
8.94273
7.73451
1.262
1
1
1
1
1.24614
2.11984
7.31505
1.58242
1.63558
1.56512
1
1
1
1
1
1
1
1
1.75456
8.45482
8.95885
8.95773
8.5771
8.85975
8.95234
8.94017
8.76739
1.41196
1
1
1
1
1.16122
1.93627
8.37225
3.61028
1.42299
3.98241
1.39133
1
1
1
1
1
1.00122
2.09634
8.59663
8.95881
8.95944
8.95887
8.89095
8.94579
8.95417
8.76512
8.7776
2.99336
1
1
1
1
1.03175
2.65569
8.69204
6.98438
3.3647
3.65785
7.87756
4.28125
1.4971
1.20295
1
1.84922
5.53453
8.87912
8.95936
8.95945
8.95947
8.9594
8.95424
8.95863
8.94841
8.21941
8.41561
4.11262
1
1
1
1
1.0002
4.26039
8.80183
8.50165
7.19001
6.41147
7.95052
8.7251
8.17051
7.84789
3.18241
8.92296
8.95733
8.95944
8.95946
8.95947
8.95948
8.95948
8.95935
8.95943
8.93557
7.5234
7.57262
3.8154
1.37808
1
1
1
1.00001
7.01026
8.82011
8.66674
7.93639
7.41895
7.90973
8.83675
8.41228
8.9539
8.95426
8.95945
8.95947
8.95948
8.95948
8.95948
8.95948
8.95948
8.95948
8.95948
8.921
6.96744
6.1145
2.8355
1.6576
1
1
1
1.07953
8.53725
8.78451
8.60279
7.70071
6.92992
6.91945
8.93433
8.91925
8.95864
8.95934
8.95947
8.95948
8.95948
8.95949
8.95949
8.95949
8.95949
8.95949
8.95948
8.90711
6.5846
4.19119
1.78173
1.57172
1
1
1
1.70328
8.61584
8.7441
8.59564
7.85898
7.03464
6.73055
8.948
8.95912
8.95944
8.95948
8.95949
8.95949
8.95949
8.95949
8.95949
8.95949
8.95949
8.95949
8.95949
8.89731
6.33717
2.83314
1.28796
1.44388
1
1
1
4.35461
8.5132
8.77608
8.86993
8.85068
8.743
8.64157
8.95773
8.95948
8.95949
8.95949
8.95949
8.95949
8.95949
8.95949
8.95949
8.95949
8.95949
8.95949
8.95949
8.8924
6.29144
2.35558
1.12445
1.36157
1
1
1.00013
5.02537
8.37996
8.70901
8.90694
8.95499
8.95857
8.95713
8.9593
8.95946
8.95948
8.95949
8.95949
8.9595
8.9595
8.9595
8.9595
8.9595
8.9595
8.9595
8.9595
8.89125
6.89815
2.31843
1.38823
1.32091
1
1
1.04302
4.87666
8.04522
8.49003
8.84862
8.95623
8.95931
8.95948
8.9595
8.9595
8.9595
8.9595
8.9595
8.9595
8.9595
8.9595
8.9595
8.9595
8.9595
8.9595
8.9595
8.90407
8.1253
3.21077
1.78314
1.3168
1
1
1.24161
4.18003
7.41449
8.15016
8.79475
8.94911
8.95911
8.95949
8.9595
8.9595
8.9595
8.9595
8.9595
8.9595
8.9595
8.95951
8.95951
8.95951
8.95951
8.95951
8.9595
8.94431
8.77782
6.35219
1.73821
1.3192
1
1
1.33005
3.33592
6.1842
7.03586
8.7156
8.94487
8.95899
8.95946
8.9595
8.95951
8.95951
8.95951
8.95951
8.95951
8.95951
8.95951
8.95951
8.95951
8.95951
8.95951
8.95951
8.9564
8.91321
8.3655
1.83912
1.32407
1
1
1.35493
2.73944
4.75738
5.59139
8.61755
8.95541
8.95935
8.95951
8.95951
8.95951
8.95951
8.95951
8.95951
8.95951
8.95951
8.95951
8.95951
8.95951
8.95951
8.95951
8.95951
8.95904
8.95075
8.87344
2.76397
1.33528
1
1
1.34918
2.29708
3.72712
4.89975
8.42454
8.95936
8.95948
8.95952
8.95952
8.95952
8.95952
8.95952
8.95952
8.95952
8.95952
8.95952
8.95952
8.95952
8.95952
8.95952
8.95952
8.95938
8.9587
8.9498
3.48088
1.34173
1
1
1.3399
2.08143
3.35769
4.68909
8.76104
8.95952
8.95952
8.95952
8.95952
8.95952
8.95952
8.95952
8.95952
8.95952
8.95952
8.95952
8.95952
8.95952
8.95952
8.95952
8.95952
8.95951
8.95947
8.95851
3.59848
1.34568
1
1
1.30924
1.73102
2.27444
3.57764
8.95303
8.95953
8.95953
8.95953
8.95953
8.95953
8.95953
8.95953
8.95953
8.95953
8.95953
8.95953
8.95953
8.95953
8.95953
8.95953
8.95953
8.95952
8.95952
8.95929
5.55006
1.34093
1
1
1
1
1
1
1
1
1
1
1
1
1
1
1
1
1
1
1
1
1
1
1
1
1
1
1
1
1
1
1
1.15206
1.27105
2.20714
1.50582
1.26435
1.09815
1
1
1
1
1
1
1.00002
1.0067
1.14182
1.29713
1.35416
1.39709
1.4825
1.59825
1.75076
1.82907
1.82435
1.55116
1.3625
1.02641
1
1
1.04628
1.28856
2.91936
1.52076
1.00005
1
1
1
1
1
1
1
1
1
1
1
1.0004
1.03204
1.12986
1.28223
1.33585
1.37623
1.4942
1.32592
1.26048
1.01516
1
1
1
1.27419
2.98064
1.30468
1
1
1
1
1
1
1
1
1
1
1.0001
1.13649
1.28159
1.34905
1.45719
1.59499
2.3044
2.23364
4.38512
2.0542
1.21108
1.00079
1
1
1
1.26447
2.58265
1.21576
1
1
1
1
1
1
1
1
1
1
1
1
1
1.24582
1.59812
2.47559
4.15962
2.52086
5.15953
3.17232
1.27551
1.00018
1
1
1
1.30242
2.28933
1.10134
1
1
1
1
1
1
1
1
1
1
1
1
1
1
1.20917
1.62252
5.0186
3.15472
5.12571
2.14417
1.27537
1.00007
1
1
1
1.51877
1.86059
1.00328
1
1
1
1
1
1
1
1
1
1
1
1
1
1
1.00001
1.28977
4.93013
5.56166
5.73225
1.48187
1.25729
1.00009
1
1
1.12769
4.86451
1.58858
1
1
1
1
1
1
1
1
1
1.0003
1
1
1
1
1
1
1.21314
4.22904
8.02545
6.94342
1.34156
1.2406
1.00009
1
1
1.93449
6.00882
1.48058
1
1
1
1
1
1
1
1
1
1
1
1
1
1
1.00552
1.00268
1.24363
5.47764
8.79097
7.6292
1.30226
1.2246
1.00013
1
1
2.27915
6.23361
1.7041
1.00038
1
1
1
1
1
1
1
1
1
1
1
1
1.23535
1.2351
1.22609
3.35918
8.7007
8.92142
8.18349
1.291
1.18235
1.00013
1
1
1.90358
6.42055
2.14357
1.07374
1.00002
1
1
1
1
1
1
1
1
1.00026
1.26469
1.74344
7.46367
7.02979
5.70886
8.2545
8.93217
8.92842
8.61135
1.30156
1.09262
1.00005
1
1
1.55397
6.19845
3.01044
1.01136
1.30028
1
1
1
1.00026
1
1
1
1.28211
2.53181
7.63965
8.8386
8.95718
8.94248
8.07313
8.73326
8.9429
8.86135
8.74794
1.52676
1.0009
1.00001
1
1
1.3601
5.72376
4.97684
1.14651
1.08187
1.3278
1
1
1.10855
1.10136
1
1.48925
1.68815
3.98209
8.68265
8.95895
8.95941
8.95558
8.72929
8.91442
8.94533
8.48855
8.62645
2.86593
1
1
1
1
1.30583
5.96218
7.35774
1.33781
1.01055
1.6096
1.38101
1
1.52297
2.07072
1.34487
2.83602
5.20051
8.71115
8.95885
8.95945
8.95946
8.95767
8.91914
8.95391
8.94009
7.92442
8.0597
5.85684
1
1
1
1
1.28942
7.10429
8.32437
2.85306
1.27564
1.43793
6.36057
6.28817
6.18777
6.95198
3.1833
8.64509
8.93934
8.95941
8.95946
8.95947
8.95947
8.95924
8.95708
8.95914
8.93478
7.46511
7.2774
5.73685
1.05509
1
1
1.00199
1.26921
8.07215
8.55348
6.20854
3.19873
2.53907
5.49053
8.02443
5.64416
8.93279
8.77304
8.95942
8.95943
8.95947
8.95947
8.95948
8.95948
8.95948
8.95938
8.95945
8.9294
7.20824
6.1758
4.4829
2.18486
1
1
1.06078
1.29262
8.41946
8.36554
6.53931
4.16211
3.34378
4.71105
8.55863
7.53024
8.95333
8.95925
8.95945
8.95947
8.95948
8.95948
8.95948
8.95948
8.95948
8.95948
8.95948
8.92541
7.00527
4.63937
2.99289
2.44517
1.00021
1
1.11618
1.5074
8.41996
7.82161
6.10491
3.69867
2.81623
3.22113
8.72738
8.84528
8.95846
8.95925
8.95947
8.95948
8.95948
8.95949
8.95949
8.95949
8.95949
8.95949
8.95948
8.92309
6.81168
3.21736
1.79328
2.08614
1.00306
1
1.19537
5.26615
8.27004
7.539
6.56196
5.0316
3.55297
3.00052
8.74562
8.95523
8.95944
8.95948
8.95949
8.95949
8.95949
8.95949
8.95949
8.95949
8.95949
8.95949
8.95949
8.92259
6.7231
2.47522
1.30364
1.74527
1.00326
1
1.35996
6.91372
8.36002
8.4267
8.38691
7.73453
7.09397
6.88408
8.93087
8.95947
8.95948
8.95949
8.95949
8.95949
8.95949
8.95949
8.95949
8.95949
8.95949
8.95949
8.95949
8.9283
6.90767
2.27743
1.18184
1.48768
1.00217
1
1.42632
7.14175
8.4115
8.70678
8.88501
8.89801
8.90458
8.92449
8.95733
8.95943
8.95947
8.95949
8.95949
8.9595
8.9595
8.9595
8.9595
8.9595
8.9595
8.9595
8.9595
8.94168
7.87493
2.48853
1.43814
1.37769
1.00077
1
1.53982
7.01453
8.19452
8.4861
8.85566
8.95867
8.95935
8.95946
8.95949
8.9595
8.9595
8.9595
8.9595
8.9595
8.9595
8.9595
8.9595
8.9595
8.9595
8.9595
8.9595
8.95222
8.64653
4.44963
1.93113
1.35019
1.0001
1
1.6817
6.49616
7.87684
8.35652
8.84354
8.95878
8.95942
8.9595
8.9595
8.9595
8.9595
8.9595
8.9595
8.9595
8.9595
8.95951
8.95951
8.95951
8.95951
8.95951
8.95951
8.95822
8.9012
7.67546
1.99094
1.34548
1
1
1.6783
5.57144
6.92382
7.27036
8.77949
8.95892
8.9594
8.9595
8.95951
8.95951
8.95951
8.95951
8.95951
8.95951
8.95951
8.95951
8.95951
8.95951
8.95951
8.95951
8.95951
8.95913
8.94845
8.74365
2.35232
1.35175
1
1
1.65534
4.60819
5.53898
5.80277
8.6923
8.95939
8.95948
8.95951
8.95951
8.95951
8.95951
8.95951
8.95951
8.95951
8.95951
8.95951
8.95951
8.95951
8.95951
8.95951
8.95951
8.95936
8.9581
8.93243
3.67026
1.37178
1
1
1.61027
3.7323
4.55466
5.71287
8.76873
8.9595
8.95951
8.95952
8.95952
8.95952
8.95952
8.95952
8.95952
8.95952
8.95952
8.95952
8.95952
8.95952
8.95952
8.95952
8.95952
8.95948
8.95928
8.95668
4.1997
1.38361
1
1
1.57246
3.25003
4.19652
5.56444
8.9344
8.95952
8.95952
8.95952
8.95952
8.95952
8.95952
8.95952
8.95952
8.95952
8.95952
8.95952
8.95952
8.95952
8.95952
8.95952
8.95952
8.95952
8.9595
8.95896
4.28962
1.4007
1
1
1.51107
2.514
3.04351
4.61231
8.95938
8.95953
8.95953
8.95953
8.95953
8.95953
8.95953
8.95953
8.95953
8.95953
8.95953
8.95953
8.95953
8.95953
8.95953
8.95953
8.95953
8.95953
8.95952
8.95934
6.69741
1.39476
1
1
1
1
1
1.00001
1
1
1
1
1
1
1
1
1
1
1
1
1
1
1
1
1
1
1
1
1
1
1
1
1
1.23999
1.3128
2.1965
1.57824
1.22518
1.11042
1
1
1
1
1.00294
1.05918
1.22706
1.31142
1.3531
1.38891
1.43508
1.49547
1.69126
2.2799
3.23249
3.73871
3.92216
2.14213
1.57272
1.3165
1
1
1.11844
1.3304
2.11298
1.30218
1
1
1
1
1
1.00739
1.00247
1.00002
1
1
1
1.0016
1.06428
1.21699
1.30779
1.4299
1.97703
2.47376
3.20885
1.57427
1.35503
1.30792
1
1
1.00037
1.32019
1.61656
1.09288
1
1
1
1
1
1.02493
1
1
1
1
1.01024
1.09668
1.22022
1.31178
1.5405
2.4365
5.84048
6.63318
8.19324
3.81537
1.30559
1.25039
1
1
1
1.31738
1.4744
1.00236
1
1
1
1
1
1.04071
1
1
1
1
1
1
1
1.00789
1.27944
1.85813
6.24879
7.31102
8.52312
4.43116
1.2958
1.20425
1
1
1
1.35559
1.37583
1.00001
1
1
1
1
1
1.04986
1
1
1
1
1
1
1
1
1.00003
1.26236
4.53609
7.92615
8.56361
2.96303
1.27071
1.16145
1
1
1
1.87008
1.2905
1
1
1
1
1
1
1.04755
1.00191
1
1
1
1
1
1
1
1
1.08632
3.24382
8.58474
8.68918
2.02956
1.26852
1.14487
1
1
1.29665
4.63207
1.23962
1
1
1
1
1
1
1.02132
1.00024
1.00057
1.00353
1.00037
1
1
1
1
1
1.03289
2.93811
8.8077
8.77146
1.69755
1.27315
1.11729
1
1
2.18013
4.79571
1.21304
1
1
1
1
1
1
1.01362
1.0009
1.00001
1
1
1
1
1
1
1
1.20302
5.96384
8.87799
8.79012
1.57852
1.26794
1.11057
1
1
2.51461
5.70622
1.25962
1
1
1
1
1
1
1.00085
1.00023
1
1
1
1
1
1.01589
1.00368
1.13719
3.26906
8.7881
8.87866
8.77748
1.55024
1.23455
1.10796
1
1
2.52274
6.70166
1.35057
1.00122
1
1
1
1
1
6.44198
1
8.8002
1.14813
8.89552
1.31779
1.39963
8.95814
1.82675
5.10943
8.40632
8.92593
8.66826
8.60857
1.85138
1.13539
1.08653
1
1
2.33857
7.40033
1.54449
1
1.14054
1
1
1
8.95953
8.90982
8.95953
8.92557
8.95953
8.95364
8.95953
8.95953
8.95946
8.95953
8.02134
8.80407
8.92808
8.18188
8.17114
3.72461
1.0007
1.06156
1
1
1.95217
7.80053
2.24182
1.00001
1.00002
1.2533
1
1
8.82297
8.92148
8.8334
8.93245
8.93674
8.95749
8.95947
8.95947
8.95947
8.91338
8.71697
8.93091
8.92772
7.71832
7.50348
6.3131
1
1.029
1
1.00293
1.73036
8.06512
4.20202
1.10867
1
1.24042
1.43154
1.02607
8.95953
8.95757
8.95953
8.95392
8.95953
8.95947
8.95953
8.95953
8.95947
8.95953
8.92197
8.9556
8.93294
7.44283
6.76977
6.38796
1
1.00313
1
1.07571
1.58602
8.20402
6.55071
1.32679
1.00068
1.12914
3.97758
6.79322
8.93396
8.95947
8.9549
8.95947
8.95947
8.95947
8.95947
8.95947
8.95947
8.95947
8.95727
8.95914
8.93448
7.31772
5.996
5.08383
1.42692
1.01012
1
1.34757
1.50539
8.20366
7.19467
2.63313
1.36057
1.28538
2.61659
6.75983
8.95953
8.95948
8.95953
8.95948
8.95953
8.95948
8.95953
8.95953
8.95948
8.95953
8.95939
8.95946
8.93526
7.21323
4.93581
3.66916
3.30866
1.07395
1
1.39275
1.79784
8.05263
5.87143
2.92642
1.64767
1.4477
1.95517
7.22539
8.95953
8.95948
8.95953
8.95948
8.95953
8.95948
8.95953
8.95953
8.95948
8.95953
8.95948
8.95948
8.93617
7.06176
3.66536
2.41332
2.83912
1.19641
1
1.40585
4.50756
6.75054
4.2833
2.52185
1.50892
1.34053
1.43928
6.98846
8.95949
8.95949
8.95948
8.95948
8.95948
8.95953
8.95949
8.95949
8.95953
8.95949
8.95949
8.95949
8.93966
6.93483
2.69625
1.63468
2.27573
1.26454
1
1.43756
6.86687
5.61108
3.62872
2.89529
1.80015
1.43666
1.42267
7.47863
8.95953
8.95949
8.95953
8.95949
8.95953
8.95949
8.95953
8.95953
8.95949
8.95953
8.95949
8.95949
8.94621
6.89633
2.23913
1.28779
1.90202
1.28486
1
1.59468
7.16329
6.85739
4.88551
3.74706
2.60546
2.28075
3.61701
8.81383
8.95953
8.95949
8.95953
8.95949
8.95953
8.95949
8.95953
8.95953
8.95949
8.95953
8.95949
8.95949
8.95232
7.32879
2.12743
1.20713
1.58668
1.28104
1
1.98032
7.3727
8.02411
8.06136
7.36944
6.20226
6.83023
8.53071
8.94996
8.95938
8.95945
8.95948
8.95949
8.9595
8.9595
8.9595
8.9595
8.9595
8.9595
8.9595
8.9595
8.9565
8.21994
2.48765
1.50136
1.45778
1.2701
1
2.21442
7.31096
7.87643
8.07799
8.78661
8.9432
8.94855
8.95783
8.95945
8.95949
8.9595
8.9595
8.9595
8.9595
8.9595
8.9595
8.9595
8.9595
8.9595
8.9595
8.9595
8.95853
8.73178
4.87338
2.02092
1.41324
1.24793
1
2.21482
7.10483
7.7801
8.02082
8.75517
8.95929
8.95947
8.9595
8.9595
8.9595
8.9595
8.9595
8.9595
8.9595
8.9595
8.95951
8.95951
8.95951
8.95951
8.95951
8.95951
8.95916
8.91357
7.92104
2.14453
1.41566
1.21631
1
2.1568
6.58686
6.94961
6.94223
8.72989
8.95938
8.95948
8.95951
8.95951
8.95951
8.95951
8.95951
8.95951
8.95951
8.95951
8.95951
8.95951
8.95951
8.95951
8.95951
8.95951
8.95935
8.95324
8.79124
2.83505
1.44496
1.17945
1
2.06574
5.75264
5.68692
6.16673
8.77056
8.95949
8.9595
8.95951
8.95951
8.95951
8.95951
8.95951
8.95951
8.95951
8.95951
8.95951
8.95951
8.95951
8.95951
8.95951
8.95951
8.95945
8.95888
8.93813
4.27823
1.55017
1.15267
1
1.95251
4.83723
4.92574
6.4332
8.8954
8.95951
8.95952
8.95952
8.95952
8.95952
8.95952
8.95952
8.95952
8.95952
8.95952
8.95952
8.95952
8.95952
8.95952
8.95952
8.95952
8.9595
8.95937
8.95726
4.62181
1.61358
1.12716
1
1.86559
4.25647
4.67516
6.25405
8.95559
8.95952
8.95952
8.95952
8.95952
8.95952
8.95952
8.95952
8.95952
8.95952
8.95952
8.95952
8.95952
8.95952
8.95952
8.95952
8.95952
8.95952
8.95951
8.95907
4.69946
1.69995
1.1081
1
1.72168
3.33023
3.66057
5.93011
8.95951
8.95953
8.95953
8.95953
8.95953
8.95953
8.95953
8.95953
8.95953
8.95953
8.95953
8.95953
8.95953
8.95953
8.95953
8.95953
8.95953
8.95953
8.95953
8.95938
7.09819
1.67341
1.10206
1
1
1
1.00002
1.00019
1
1
1
1
1
1
1
1
1
1
1
1
1
1
1
1
1
1.00002
1.00008
1.00025
1
1
1
1
1
1.26079
1.38783
1.92157
1.44488
1.15206
1.07317
1
1
1
1
1.14468
1.25423
1.30961
1.34026
1.36808
1.3836
1.39849
1.54227
2.01009
3.5427
5.78249
6.68843
6.72658
2.74553
1.96494
1.3744
1
1
1.17193
1.41901
1.40505
1.13626
1
1
1
1
1
1.06995
1.08871
1.00318
1.00007
1.00001
1.00284
1.03664
1.17184
1.28565
1.38095
2.11252
4.66344
5.98921
6.62304
2.4131
1.46118
1.36373
1
1
1.01036
1.40574
1.27979
1.0001
1
1
1
1
1
1.13408
1.00143
1
1
1.00019
1.0119
1.0405
1.12643
1.2569
1.44665
2.3179
6.96295
8.7348
8.73092
4.81881
1.33609
1.33036
1
1
1
1.39874
1.247
1
1
1
1
1
1
1.15955
1.00346
1
1
1
1
1
1
1
1.09182
1.32684
5.2233
8.79985
8.78325
4.88587
1.27413
1.30583
1
1
1
1.48394
1.20929
1
1
1
1
1
1
1.16357
1.0094
1
1
1
1
1
1
1
1
1.10965
3.20287
8.77426
8.7843
4.10423
1.25675
1.28656
1
1
1
2.00257
1.12235
1
1
1
1
1
1
1.16477
1.02253
1
1
1
1
1
1
1
1
1.00338
2.34555
8.71451
8.78103
3.43697
1.26793
1.2705
1
1
1.36947
2.5538
1.04733
1
1
1
1
1
1
1.15931
1.0916
1.00333
1.00905
1.00076
1
1
1
1
1
1.00184
2.33918
8.70932
8.71804
3.02129
1.26872
1.24554
1
1
2.08447
2.20361
1.02899
1
1
1
1
1
1
1.04284
1.09144
1.06501
1.03888
1
1
1
1
1
1
1.17653
6.09095
8.75399
8.56489
2.87611
1.25267
1.22725
1
1
2.47152
3.17288
1.13432
1
1
1
1
1
1
1.00005
1.0296
1.00163
1
1
1
1
1
1
1.07903
3.25149
8.80125
8.45172
8.20636
2.92251
1.20174
1.21884
1
1
2.8384
4.71328
1.19866
1.00002
1
1
1
1
1.07947
1.08872
1.13067
1.03931
1.12496
1.03266
1.13088
1.14275
8.95953
1.13878
4.73347
8.6574
8.90292
8.05029
7.63772
4.253
1.04051
1.19362
1
1
3.23791
6.48182
1.23495
1
1.00731
1
1
1
1.88041
8.95953
8.95953
8.95953
8.95953
8.95953
8.95953
8.95953
8.95953
8.95953
8.01732
8.83149
8.90638
7.67582
6.86678
5.77661
1
1.16636
1
1.0318
3.18269
7.4879
1.37619
1
1.00005
1.19884
1
1
8.95953
8.95953
8.95953
8.95953
8.95953
8.95953
8.95953
8.95953
8.95953
8.89713
8.72105
8.93866
8.92271
7.45365
6.12876
5.97367
1
1.09938
1
1.13137
2.89417
7.89569
1.94241
1.0002
1
1.14037
1.6251
1.30751
7.20117
8.95953
8.95953
8.95953
8.95953
8.95953
8.95953
8.95953
8.95953
8.95953
8.92646
8.95662
8.93228
7.33767
5.52987
5.22823
1.03317
1.07355
1
1.18802
2.66594
8.05652
3.46958
1.1539
1
1
1.98857
6.14551
8.95953
8.95953
8.95953
8.95953
8.95953
8.95953
8.95953
8.95953
8.95953
8.95953
8.95775
8.9592
8.93687
7.24706
4.91056
3.96994
2.99393
1.14749
1
1.40914
3.0123
7.82985
4.21174
1.35248
1.04443
1.00724
1.41662
4.04697
8.82128
8.95953
8.95953
8.95953
8.95953
8.95953
8.95953
8.95953
8.95953
8.95953
8.95944
8.95947
8.94084
7.13521
4.01132
2.84567
3.04794
1.25919
1
1.43703
4.78201
5.65072
2.53337
1.44207
1.23061
1.18311
1.2885
4.18228
8.89787
8.95953
8.95953
8.95953
8.95953
8.95953
8.95953
8.95953
8.95953
8.95953
8.95948
8.95948
8.94606
6.98854
3.03992
1.99654
2.52033
1.3118
1
1.50893
5.50332
2.62033
1.60823
1.32886
1.19268
1.09981
1.18886
3.52358
8.95953
8.95953
8.95953
8.95953
8.95953
8.95953
8.95953
8.95953
8.95953
8.95953
8.95949
8.95949
8.95165
6.86467
2.33828
1.47171
2.06247
1.32911
1
1.74307
5.40489
1.68665
1.35731
1.28836
1.19068
1.09323
1.20358
5.37888
8.95686
8.95953
8.95953
8.95953
8.95953
8.95953
8.95953
8.95953
8.95953
8.95953
8.95949
8.95949
8.95548
6.82174
2.00543
1.26035
1.79811
1.33804
1
2.19235
5.23993
1.86064
1.30477
1.24882
1.2151
1.2092
1.61271
8.54633
8.87615
8.95953
8.95953
8.95953
8.95953
8.95953
8.95953
8.95953
8.95953
8.95953
8.95949
8.95949
8.95767
7.2205
1.9171
1.21609
1.51213
1.33919
1
2.51236
6.4691
6.60334
3.81595
1.82444
1.45145
1.65412
4.93119
8.89358
8.9593
8.95943
8.95947
8.95949
8.95949
8.9595
8.9595
8.9595
8.9595
8.9595
8.9595
8.9595
8.95875
7.99116
2.21951
1.55077
1.51337
1.34024
1
2.51167
6.6448
7.14087
7.77736
8.52433
8.47073
8.50622
8.86702
8.9571
8.95948
8.9595
8.9595
8.9595
8.9595
8.9595
8.9595
8.9595
8.9595
8.9595
8.9595
8.9595
8.95908
8.49902
4.46692
1.94952
1.53506
1.34066
1
2.4693
6.82918
7.12213
7.50662
8.7073
8.95939
8.95947
8.95949
8.9595
8.9595
8.9595
8.9595
8.9595
8.9595
8.9595
8.95951
8.95951
8.95951
8.95951
8.95951
8.95951
8.95931
8.83553
7.64421
2.04714
1.58879
1.33973
1
2.37418
6.61703
6.52039
6.50599
8.70696
8.95946
8.9595
8.95951
8.95951
8.95951
8.95951
8.95951
8.95951
8.95951
8.95951
8.95951
8.95951
8.95951
8.95951
8.95951
8.95951
8.95941
8.94697
8.71824
2.73483
1.77783
1.3399
1
2.26268
5.96772
5.42716
6.69701
8.84364
8.9595
8.95951
8.95951
8.95951
8.95951
8.95951
8.95951
8.95951
8.95951
8.95951
8.95951
8.95951
8.95951
8.95951
8.95951
8.95951
8.95947
8.95895
8.92685
4.11728
2.19156
1.34138
1
2.13377
5.24113
5.05077
7.19805
8.93817
8.95951
8.95952
8.95952
8.95952
8.95952
8.95952
8.95952
8.95952
8.95952
8.95952
8.95952
8.95952
8.95952
8.95952
8.95952
8.95952
8.95951
8.95941
8.9562
4.47184
2.32931
1.34281
1
2.03356
4.74797
4.96694
6.92752
8.95873
8.95952
8.95952
8.95952
8.95952
8.95952
8.95952
8.95952
8.95952
8.95952
8.95952
8.95952
8.95952
8.95952
8.95952
8.95952
8.95952
8.95952
8.95951
8.95897
4.55332
2.3963
1.34429
1
1.85883
3.87602
4.1079
7.11842
8.95952
8.95953
8.95953
8.95953
8.95953
8.95953
8.95953
8.95953
8.95953
8.95953
8.95953
8.95953
8.95953
8.95953
8.95953
8.95953
8.95953
8.95953
8.95953
8.95936
6.96929
2.27831
1.34478
1
1
1
1.00025
1.0003
1
1
1
1
1
1
1
1
1
1
1
1
1
1
1
1
1.00002
1.00049
1.00119
1.00208
1.00004
1
1
1
1
1.27662
1.47892
1.53237
1.29482
1.06259
1.03278
1.00187
1
1
1
1.17942
1.24342
1.27078
1.29315
1.31344
1.34578
1.43238
1.65677
2.4241
4.38941
6.95943
8.13181
7.89077
3.33076
2.01664
1.41913
1
1
1.19298
1.46594
1.23345
1.00227
1
1
1
1
1
1.08543
1.10357
1.00406
1.00084
1.00079
1.02827
1.11542
1.23894
1.309
1.5335
2.79879
6.97219
8.57439