/*--------------------------------*- C++ -*----------------------------------*\
| =========                 |                                                 |
| \\      /  F ield         | OpenFOAM: The Open Source CFD Toolbox           |
|  \\    /   O peration     | Version:  2.3.0                                 |
|   \\  /    A nd           | Web:      www.OpenFOAM.org                      |
|    \\/     M anipulation  |                                                 |
\*---------------------------------------------------------------------------*/
FoamFile
{
    version     2.0;
    format      ascii;
    class       volScalarField;
    location    "1.40012";
    object      rhom;
}
// * * * * * * * * * * * * * * * * * * * * * * * * * * * * * * * * * * * * * //

dimensions      [1 -3 0 0 0 0 0];

internalField   nonuniform List<scalar> 
18816
(
796.384
840.502
865.899
865.35
857.13
835.747
807.145
782.915
784.825
777.023
782.628
785.726
787.009
787.973
792.471
800.13
810.836
823.139
836.572
849.595
861.58
870.795
875.898
876.625
868.041
846.293
807.603
793.516
827.994
953.236
985.659
990.763
994.793
989.31
943.989
818.01
797.184
786.968
793.902
786.98
797.596
801.015
810.879
824.371
839.132
853.02
864.413
873.005
880.331
887.136
890.796
890.696
885.533
870.587
830.106
803.187
844.379
961.56
973.398
993.902
1002.85
1003.54
1007.38
914.306
803.692
803.24
810.441
797.639
800.15
808.821
830.708
855.696
881.15
903.737
918.996
923.15
924.857
932.026
942.013
947.826
934.726
900.919
844.678
809.647
849.863
959.604
963.522
996.204
1005.69
1003.01
1007.34
959.893
811.08
809.926
813.793
812.458
805.224
841.534
905.704
955.658
990.721
1007.98
1011.94
1003.5
989.326
981.384
979.178
980.9
984.401
940.869
856.172
812.386
849.018
934.519
958.364
999.034
1008.09
998.675
995.816
961.355
830.763
813.037
815.018
819.427
819.187
919.555
981.122
995.424
1005.37
1012.96
1019.54
1018.55
1003.44
984.584
976.46
974.794
987.572
960.815
867.358
813.459
848.407
888.343
956.679
1001.54
1010.85
995.701
986.013
959.935
864.694
812.28
816.816
822.972
843.151
955.267
965.032
952.575
970.88
999.853
1019.67
1021.66
1012.63
996.087
976.121
970.954
985.204
959.636
867.478
813.938
848.29
850.095
969.726
1004.54
1013.91
993.641
973.123
942.494
863.261
797.893
817.172
827.066
872.25
953.003
939.5
920.695
937.637
989.11
1020.42
1023.08
1017
1009.73
983.249
969.587
980.448
955.132
865.405
813.936
846.9
912.574
991.896
1007.18
1016.74
991.26
961.115
929.114
854.933
797.893
815.851
826.337
867.371
939.598
915.052
892.018
919.244
985.211
1022.51
1023.94
1019.11
1018.25
998.692
970.585
971.581
948.32
860.792
813.845
844.117
973.484
996.04
1009.28
1019.33
984.213
933.054
899.51
836.966
798.965
804.796
804.131
836.932
888.136
881.363
864.138
913.74
997.393
1025.14
1024.26
1020.85
1023.07
1011.44
974.944
963.282
939.704
854.341
813.54
842.297
982.036
992.191
1010.76
1022.37
982.868
894.21
859.071
818.867
803.399
803.168
803.168
807.767
825.606
826.09
832.652
922.507
1015.1
1026.73
1023.77
1023
1025.7
1019.37
980.18
955.21
927.873
845.484
812.888
840.634
982.464
986.52
1013.23
1025.24
1018.42
926.076
845.994
818.847
813.677
803.168
812.945
811.17
816.376
817.462
868.973
985.467
1025.44
1027.02
1023.55
1025.42
1026.89
1024.26
990.456
949.732
911.37
836.001
811.903
840.709
968.461
980.98
1019.46
1026.27
1026.52
988.384
856.462
818.906
814.394
806.904
813.637
811.111
811.021
837.941
951.051
1019.5
1027.02
1027.1
1026.17
1026.71
1027.08
1026.51
1008.13
950.434
886.749
828.118
810.587
840.053
951.542
978.369
1023.85
1026.9
1027.08
1023.86
937.01
824.553
810.369
806.774
810.543
811.985
825.159
918.228
1010.63
1026.72
1027.11
1027.11
1026.91
1027.03
1027.11
1027.06
1021.42
961.621
868.574
821.295
810.461
838.517
933.586
984.518
1026.09
1027.09
1027.1
1027.08
1019.59
932.946
853.125
829.172
823.375
865.055
931.482
1012.97
1026.79
1027.11
1027.11
1027.11
1027.07
1027.1
1027.11
1027.11
1026.16
980.868
874.723
815.92
811.055
837.433
913.613
995.866
1026.75
1027.11
1027.1
1027.09
1027.08
1024.69
999.89
958.895
926.913
1000.45
1021.88
1027.01
1027.11
1027.11
1027.11
1027.11
1027.11
1027.11
1027.11
1027.11
1026.86
995.713
917.671
816.884
812.312
837.271
896.858
1005.11
1026.92
1027.11
1027.11
1027.1
1027.11
1027.11
1027.04
1026.01
1021.62
1027
1027.1
1027.11
1027.11
1027.11
1027.11
1027.11
1027.11
1027.11
1027.11
1027.1
1026.94
1000.1
970.235
821.481
813.69
836.545
896.958
1013.02
1026.98
1027.11
1027.11
1027.11
1027.11
1027.11
1027.11
1027.11
1027.11
1027.11
1027.11
1027.11
1027.11
1027.11
1027.11
1027.11
1027.11
1027.11
1027.11
1027
1026.93
1000.89
982.138
826.59
814.897
835.116
907.762
1018.97
1027
1027.11
1027.11
1027.11
1027.11
1027.11
1027.11
1027.11
1027.11
1027.11
1027.11
1027.11
1027.11
1027.11
1027.11
1027.11
1027.11
1027.11
1027.11
1026.64
1026.75
998.973
981.526
832.426
815.74
834.982
939.464
1022.39
1027
1027.11
1027.11
1027.11
1027.11
1027.11
1027.11
1027.11
1027.11
1027.11
1027.11
1027.11
1027.11
1027.11
1027.11
1027.11
1027.11
1027.11
1027.1
1026.09
1026.15
991.627
978.25
832.947
815.719
836.493
969.833
1023.02
1026.94
1027.09
1027.11
1027.11
1027.11
1027.11
1027.11
1027.11
1027.11
1027.11
1027.11
1027.11
1027.11
1027.11
1027.11
1027.11
1027.11
1027.11
1027.1
1025.61
1024.67
989.002
971.023
832.468
815.402
839.77
982.891
1022.67
1026.82
1027.04
1027.08
1027.11
1027.11
1027.11
1027.11
1027.11
1027.11
1027.11
1027.11
1027.11
1027.11
1027.11
1027.11
1027.11
1027.11
1027.11
1027.09
1025.28
1022.64
1013.53
966.321
831.845
814.882
843.838
982.995
1021.23
1026.39
1026.81
1026.96
1027.1
1027.11
1027.11
1027.11
1027.11
1027.11
1027.11
1027.11
1027.11
1027.11
1027.11
1027.11
1027.11
1027.11
1027.11
1027.08
1025.11
1021.25
1018.64
964.065
830.897
814.313
847.104
980.382
1018.85
1025.43
1026.28
1026.61
1027.09
1027.11
1027.11
1027.11
1027.11
1027.11
1027.11
1027.11
1027.11
1027.11
1027.11
1027.11
1027.11
1027.11
1027.11
1027.08
1025.55
1021.08
1015.32
961.801
829.999
813.754
847.219
976.051
1015.67
1023.74
1025.39
1025.89
1027.06
1027.11
1027.11
1027.11
1027.11
1027.11
1027.11
1027.11
1027.11
1027.11
1027.11
1027.11
1027.11
1027.11
1027.11
1027.09
1026.29
1022.22
1014.15
959.04
828.963
813.371
846.903
971.569
1012.62
1022.9
1025.41
1026.19
1027.08
1027.11
1027.11
1027.11
1027.11
1027.11
1027.11
1027.11
1027.11
1027.11
1027.11
1027.11
1027.11
1027.11
1027.11
1027.1
1026.86
1024.63
1016.61
955.751
827.792
813.098
845.824
966.126
1009.56
1022.91
1025.75
1026.86
1027.1
1027.11
1027.11
1027.11
1027.11
1027.11
1027.11
1027.11
1027.11
1027.11
1027.11
1027.11
1027.11
1027.11
1027.11
1027.11
1027.06
1026.32
1020.05
950.01
825.951
812.795
844.764
961.637
1007.25
1022.8
1025.85
1027.09
1027.11
1027.11
1027.11
1027.11
1027.11
1027.11
1027.11
1027.11
1027.11
1027.11
1027.11
1027.11
1027.11
1027.11
1027.11
1027.11
1027.11
1026.98
1020.95
943.886
823.843
812.506
841.977
947.807
996.793
1022.23
1026.61
1027.11
1027.11
1027.11
1027.11
1027.11
1027.11
1027.11
1027.11
1027.11
1027.11
1027.11
1027.11
1027.11
1027.11
1027.11
1027.11
1027.11
1027.11
1027.11
1021.13
929.077
819.173
811.955
820.549
901.644
923.008
920.772
914.121
893.662
861.693
820.459
799.342
795.785
782.149
778.947
784.076
795.038
811.275
830.258
849.907
868.335
884.295
897.491
908.601
916.327
920.748
924.87
915.498
890.18
838.214
784.309
870.691
971.838
989.716
1001.45
1001.91
996.409
967.408
855.883
784.918
785.031
812.371
827.09
848.304
871.7
888.53
904.382
914.986
923.279
937.68
954.99
967.042
973.009
974.828
973.121
959.541
935.432
892.801
812.274
888.444
983.728
981.345
1011.24
1012.63
1001.7
998.675
907.282
785.03
791.701
827.185
822.112
849.419
861.386
873.052
890.571
909.415
929.093
945.231
951.771
959.41
968.026
973.543
976.402
966.468
942.359
897.445
836.374
891.639
970.355
977.541
1017.1
1015.78
989.008
968.881
901.96
786
803.928
826.652
812.563
848.362
869.636
915.858
957.84
990.307
1008.46
1012.53
1006.58
995.517
990.956
990.456
994.162
992.921
958.773
898.024
835.628
894.679
950.675
975.406
1019.5
1016.19
981.92
951.933
897.097
790.633
812.639
826.759
813.116
858.028
919.268
965.68
977.574
992.963
1007.57
1018.99
1020.87
1011.62
999.679
991.108
996.563
1004.44
975.07
901.364
835.89
898.594
921.157
975.087
1021.47
1016.43
980.909
945.491
895.778
800.96
812.01
824.632
815.79
883.26
956.97
951.408
932.62
940.899
974.899
1015.28
1022.36
1019.35
1011.47
991.52
996.199
1007.53
980.674
902.495
835.07
904.384
874.42
991.871
1023.91
1016.29
976.587
938.147
894.276
817.022
816.895
822.326
824.23
917.559
970.754
943.409
913.769
912.764
946.703
1006.09
1022.29
1022.24
1021.11
1000.37
996.313
1003.8
980.489
902.484
835.069
908.466
940.495
1014.72
1024.95
1015.4
965.011
931.788
890.839
829.307
813.079
818.784
823.351
911.761
968.252
940.961
896.526
897.621
939.544
1003.35
1020.61
1023.12
1024.86
1014.7
1001.25
995.402
978.37
901.877
834.993
909.716
1004.13
1020.29
1025.21
1015.75
949.545
904.286
872.5
827.428
815.043
831.042
832.656
872.092
923.869
912.301
874.449
888.056
963.3
1017.62
1019.45
1023.29
1026.28
1022.23
1005.64
987.692
974.463
900.697
835.038
911.205
1012.92
1020.11
1025.23
1020.8
952.154
875.401
848.492
827.209
826.248
865.257
848.154
844.028
852.909
847.95
841.256
900.698
1006.11
1025.85
1023.32
1025.18
1026.83
1025.41
1009.25
979.4
968.317
897.045
835.247
912.804
1009.84
1016.39
1025.26
1025.25
1010.37
906.86
848.542
833.283
861.556
876.609
874.618
855.438
843.733
826.727
857.235
965.152
1023.15
1027.05
1025.2
1026.35
1027.05
1026.69
1015.68
974.889
959.236
890.921
835.947
915.214
999.612
1011.62
1025.42
1025.2
1025.86
974.136
858.285
840.868
869.294
875.661
871.433
851.595
826.378
835.844
926.483
1011.25
1026.74
1027.11
1026.51
1026.89
1027.1
1027.05
1023.23
979.016
942.045
884.616
837.698
917.008
988.705
1006.49
1026.11
1026.41
1026.64
1022.11
927.281
841.003
851.394
857.821
848.246
836.477
830.92
895.599
995.042
1025.53
1027.1
1027.11
1026.97
1027.06
1027.11
1027.11
1026.51
994.175
905.362
879.392
837.814
917.266
976.758
1005.08
1026.74
1026.95
1026.33
1026.82
1017.08
930.706
867.968
854.567
845.09
869.354
914.265
1002.26
1026.03
1027.11
1027.11
1027.11
1027.09
1027.1
1027.11
1027.11
1027.03
1011.3
896.078
871.49
837.19
917.624
963.372
1011.76
1026.98
1027.06
1026.81
1026.76
1027.02
1023.79
994.361
950.107
916.669
996.807
1018.83
1026.83
1027.11
1027.11
1027.11
1027.11
1027.11
1027.11
1027.11
1027.1
1027.05
1019.19
933.577
871.345
835.963
918.408
947.072
1017.71
1027.06
1027.1
1027.06
1027.02
1027.08
1027.1
1026.98
1025.63
1018.44
1027
1027.1
1027.11
1027.11
1027.11
1027.11
1027.11
1027.11
1027.11
1027.11
1027
1026.99
1020.85
997.092
875.815
834.441
918.756
938.333
1022.8
1027.08
1027.11
1027.1
1027.09
1027.09
1027.11
1027.09
1027.11
1027.1
1027.11
1027.11
1027.11
1027.11
1027.11
1027.11
1027.11
1027.11
1027.11
1027.11
1026.74
1026.78
1019.54
1011.38
882.481
833.804
918.148
948.597
1026.05
1027.09
1027.1
1027.1
1027.08
1027.07
1027.11
1027.11
1027.11
1027.11
1027.11
1027.11
1027.11
1027.11
1027.11
1027.11
1027.11
1027.11
1027.11
1027.1
1026.41
1026.2
1014.9
1010.63
888.051
833.843
917.687
992.353
1026.86
1027.08
1027.1
1027.1
1027.07
1027.06
1027.11
1027.11
1027.11
1027.11
1027.11
1027.11
1027.11
1027.11
1027.11
1027.11
1027.11
1027.11
1027.11
1027.1
1026.15
1024.89
1001.59
1007.86
887.509
833.788
919.183
1015.82
1026.88
1027.06
1027.09
1027.11
1027.11
1027.11
1027.11
1027.11
1027.11
1027.11
1027.11
1027.11
1027.11
1027.11
1027.11
1027.11
1027.11
1027.11
1027.11
1027.09
1026
1023.18
992.342
1003.17
885.542
833.821
923.766
1020.22
1026.77
1027.02
1027.08
1027.11
1027.11
1027.11
1027.11
1027.11
1027.11
1027.11
1027.11
1027.11
1027.11
1027.11
1027.11
1027.11
1027.11
1027.11
1027.11
1027.08
1025.99
1022.26
1014.21
997.586
883.157
834.213
930.86
1020.08
1026.5
1026.88
1027.02
1027.1
1027.11
1027.11
1027.11
1027.11
1027.11
1027.11
1027.11
1027.11
1027.11
1027.11
1027.11
1027.11
1027.11
1027.11
1027.11
1027.08
1026.31
1022.27
1019.41
997.43
880.64
834.633
937.279
1018.94
1025.92
1026.54
1026.86
1027.05
1027.11
1027.11
1027.11
1027.11
1027.11
1027.11
1027.11
1027.11
1027.11
1027.11
1027.11
1027.11
1027.11
1027.11
1027.11
1027.09
1026.84
1024.54
1017.66
997.805
878.332
835.011
941.439
1017.1
1024.91
1025.87
1026.75
1027
1027.11
1027.11
1027.11
1027.11
1027.11
1027.11
1027.11
1027.11
1027.11
1027.11
1027.11
1027.11
1027.11
1027.11
1027.11
1027.1
1027.01
1026.26
1017.54
997.939
876.174
835.661
943.69
1015.28
1023.66
1025.23
1026.79
1027.05
1027.11
1027.11
1027.11
1027.11
1027.11
1027.11
1027.11
1027.11
1027.11
1027.11
1027.11
1027.11
1027.11
1027.11
1027.11
1027.11
1027.08
1026.92
1020.98
998.582
874.671
835.614
943.192
1013.17
1022.36
1024.75
1026.72
1027.1
1027.11
1027.11
1027.11
1027.11
1027.11
1027.11
1027.11
1027.11
1027.11
1027.11
1027.11
1027.11
1027.11
1027.11
1027.11
1027.11
1027.11
1027.08
1023
998.442
872.786
835.422
942.366
1011.65
1021.62
1024.55
1026.82
1027.11
1027.11
1027.11
1027.11
1027.11
1027.11
1027.11
1027.11
1027.11
1027.11
1027.11
1027.11
1027.11
1027.11
1027.11
1027.11
1027.11
1027.11
1027.11
1023.33
997.805
871.088
835.078
940.308
1006.25
1017.33
1023.7
1027.07
1027.11
1027.11
1027.11
1027.11
1027.11
1027.11
1027.11
1027.11
1027.11
1027.11
1027.11
1027.11
1027.11
1027.11
1027.11
1027.11
1027.11
1027.11
1027.11
1024.6
993.517
867.2
835.235
849.335
933.697
950.219
952.258
946.649
929.37
899.557
864.191
808.3
783.185
795.571
800.959
813.088
828.995
845.95
864.487
882.243
899.218
914.965
928.1
938.458
945.022
948.512
951.846
942.557
916.559
867.318
804.759
907.292
987.914
997.528
1014.86
1012.05
1002.17
983.402
900.53
838.513
800.539
885.283
909.69
921.999
938.065
950.073
963.454
973.325
981.879
991.423
1000.22
1005.76
1008.51
1009.43
1008.57
1002.64
987.848
956.015
869.34
927.371
991.629
995.205
1022.84
1018.48
992.952
987.038
922.757
834.623
839.43
926.517
908.165
913.301
915.239
914.77
929.003
943.279
960.032
972.873
979.304
986.316
993.443
998.055
1001.32
992.616
980.02
953.93
901.735
930.722
969.823
993.502
1024.68
1015.41
967.453
949.935
914.33
821.413
871.54
926.575
902.061
897.443
904.682
934.891
968.138
993.992
1008.42
1012.93
1011.92
1008.21
1009.43
1010.44
1016.79
1011.42
982.491
947.639
903.831
934.353
943.394
992.06
1025.01
1012.51
959.676
939.379
906.649
821.155
887.289
925.71
900.988
899.525
929.227
956.356
960.499
973.455
991.447
1015.12
1020.73
1020.41
1017.41
1011.03
1018.52
1019.69
992.245
946.002
905.939
938.521
925.571
992.296
1025.25
1010.47
959.397
931.465
900.221
827.805
894.509
922.606
906.413
914.775
957.439
947.373
929.082
922.464
941.689
993.609
1018.63
1022.41
1023.36
1012.05
1017.94
1019.45
997.14
945.788
906.008
943.125
900.327
1008.6
1025.44
1005.59
952.247
923.971
896.865
841.863
891.128
913.504
905.074
945.743
973.554
951.478
918.235
904.986
919.536
972.578
1005.87
1020.83
1025.88
1019.22
1018.23
1012.89
996.666
946.509
906.551
944.748
973.483
1023.26
1025.4
999.326
935.379
917.165
894.903
852.098
874.555
901.195
882.959
945.942
975.947
960.593
911.373
892.208
917.258
972.239
998.804
1017.15
1026.27
1024.81
1021.21
1005.22
994.456
947.131
907.031
944.556
1017.19
1025.44
1025.08
996.05
919.758
901.089
887.429
864.653
878.416
911.54
883.032
911.087
942.019
933.084
886.837
884.557
951.243
1005.13
1002.47
1016.15
1026.47
1026.53
1023.12
998.172
991.665
948.251
907.616
944.163
1020.13
1025.47
1025.58
1004.3
928.385
885.858
882.953
877.842
895.61
942.005
898.683
879.306
875.896
861.443
850.318
900.989
1000.8
1020.95
1018.76
1025.05
1027.03
1026.99
1024.44
993.285
988.093
947.72
908.15
943.623
1017.15
1024.75
1026.01
1013.05
995.458
893.646
868.867
870.841
928.483
943.058
930.707
896.914
881.296
882.052
911.821
991.456
1025.27
1026.99
1026.05
1026.8
1027.1
1027.09
1025.82
991.954
983.157
945.493
908.97
943.878
1011.59
1023.51
1026.35
1010.95
1022.11
955.582
869.161
872.358
933.29
940.234
927.389
905.619
901.995
932.05
996.189
1024.39
1027.08
1027.11
1026.76
1027
1027.11
1027.11
1026.8
1002.55
972.247
942.679
910.591
944.731
1005
1021.82
1026.68
1019.12
1019.74
1018.47
918.929
862.589
913.385
925.119
904.149
913.361
913.073
971.217
1020.09
1026.99
1027.11
1027.11
1027.02
1027.09
1027.11
1027.11
1027.07
1014.72
941.56
939.676
910.609
946.367
997.911
1021.03
1026.97
1024.77
1017.1
1025.14
1014.04
943.252
928.332
927.14
903.418
947.566
983.062
1021.89
1027.03
1027.11
1027.11
1027.11
1027.1
1027.11
1027.11
1027.07
1027.07
1023.92
923.88
933.359
910.252
949.492
990.122
1023.29
1027.05
1026.59
1024.54
1024.85
1026.85
1025.25
1016.91
998.956
965.734
1020.75
1026.03
1027.09
1027.11
1027.11
1027.11
1027.11
1027.11
1027.11
1027.11
1026.93
1026.98
1025.18
961.615
933.424
909.006
954.898
980.392
1025.23
1027.08
1027
1026.65
1026.39
1026.87
1027.06
1026.92
1026.84
1024.27
1027.1
1027.11
1027.11
1027.11
1027.11
1027.11
1027.11
1027.11
1027.11
1027.11
1026.74
1026.76
1024.95
1012.31
938.071
908.867
960.182
977.045
1026.58
1027.08
1027.04
1026.86
1026.72
1026.85
1027.08
1026.98
1027.11
1027.11
1027.11
1027.11
1027.11
1027.11
1027.11
1027.11
1027.11
1027.11
1027.11
1027.1
1026.57
1026.26
1023.79
1018.9
945.395
909.217
963.013
993.347
1027.01
1027.07
1027.03
1026.8
1026.57
1026.56
1027.11
1027.1
1027.11
1027.11
1027.11
1027.11
1027.11
1027.11
1027.11
1027.11
1027.11
1027.11
1027.11
1027.1
1026.44
1025.21
1020.51
1017.85
948.681
909.802
964.949
1019.7
1027.03
1027.06
1027.03
1026.84
1026.6
1026.5
1027.11
1027.11
1027.11
1027.11
1027.11
1027.11
1027.11
1027.11
1027.11
1027.11
1027.11
1027.11
1027.11
1027.1
1026.34
1023.72
1009.59
1015.21
947.963
910.402
969.836
1025.32
1027.01
1027.07
1027.09
1027.09
1027.06
1027.04
1027.11
1027.11
1027.11
1027.11
1027.11
1027.11
1027.11
1027.11
1027.11
1027.11
1027.11
1027.11
1027.11
1027.1
1026.33
1022.73
997.02
1010.85
945.972
910.797
979.337
1025.73
1026.98
1027.06
1027.1
1027.11
1027.11
1027.11
1027.11
1027.11
1027.11
1027.11
1027.11
1027.11
1027.11
1027.11
1027.11
1027.11
1027.11
1027.11
1027.11
1027.1
1026.55
1022.64
1015.68
1005.78
942.919
911.358
989.924
1025.63
1026.89
1027.01
1027.09
1027.11
1027.11
1027.11
1027.11
1027.11
1027.11
1027.11
1027.11
1027.11
1027.11
1027.11
1027.11
1027.11
1027.11
1027.11
1027.11
1027.1
1026.91
1024.27
1020.53
1005.21
938.689
911.744
997.796
1025.14
1026.71
1026.92
1027.08
1027.11
1027.11
1027.11
1027.11
1027.11
1027.11
1027.11
1027.11
1027.11
1027.11
1027.11
1027.11
1027.11
1027.11
1027.11
1027.11
1027.11
1027.07
1026.36
1020.23
1005.34
933.872
911.995
1001.23
1024.29
1026.28
1026.6
1027.06
1027.11
1027.11
1027.11
1027.11
1027.11
1027.11
1027.11
1027.11
1027.11
1027.11
1027.11
1027.11
1027.11
1027.11
1027.11
1027.11
1027.11
1027.1
1026.97
1020.81
1005.62
929.18
912.397
1002.56
1023.36
1025.57
1026.06
1027.04
1027.11
1027.11
1027.11
1027.11
1027.11
1027.11
1027.11
1027.11
1027.11
1027.11
1027.11
1027.11
1027.11
1027.11
1027.11
1027.11
1027.11
1027.11
1027.09
1023.57
1006.65
925.479
912.306
1002.22
1022.26
1024.77
1025.71
1026.99
1027.11
1027.11
1027.11
1027.11
1027.11
1027.11
1027.11
1027.11
1027.11
1027.11
1027.11
1027.11
1027.11
1027.11
1027.11
1027.11
1027.11
1027.11
1027.11
1024.54
1007.05
921.84
912.013
1001.72
1021.48
1024.37
1025.59
1027.07
1027.11
1027.11
1027.11
1027.11
1027.11
1027.11
1027.11
1027.11
1027.11
1027.11
1027.11
1027.11
1027.11
1027.11
1027.11
1027.11
1027.11
1027.11
1027.11
1024.66
1007.28
918.865
911.668
1000.3
1019.33
1022.3
1024.76
1027.11
1027.11
1027.11
1027.11
1027.11
1027.11
1027.11
1027.11
1027.11
1027.11
1027.11
1027.11
1027.11
1027.11
1027.11
1027.11
1027.11
1027.11
1027.11
1027.11
1026
1006.06
914.419
911.271
865.59
949.799
964.782
969.843
964.454
947.838
920.892
886.859
817.717
782.251
806.638
821.907
836.815
854.782
872.133
890.264
906.807
922.096
936.055
947.598
956.472
961.794
964.42
966.968
959.147
936.581
895.626
817.926
923.533
997.427
1005.03
1022.15
1017.23
1004.51
994.529
936.172
869.519
821.683
928.436
955.576
965.655
977.469
985.927
995.464
1002.2
1007.58
1012.35
1015.86
1018.06
1019.69
1020.29
1020.24
1017.37
1009.58
989.181
896.668
940.626
992.403
1005.15
1023.75
1017.44
979.133
974.927
942.614
869.037
867.802
965.946
956.011
955.348
950.268
945.554
957.242
968.452
981.338
989.956
995.533
1003.26
1010.82
1014.22
1017.16
1008.94
1001.06
987.766
929.556
947.003
974.167
1003.51
1023.85
1008.68
949.356
947.684
934.219
861.233
901.815
969.095
948.541
935.19
930.911
955.671
979.576
996.679
1006.63
1012.96
1016.47
1018.6
1022.52
1022.34
1025.35
1021.72
999.398
982.243
935.723
950.576
944.793
1002.42
1023.13
1001.02
943.911
941.097
926.977
861.929
918.775
969.681
945.068
936.056
943.251
955.618
951.633
957.742
971.661
1004.11
1018.81
1022.96
1025.17
1023.05
1025.81
1024.21
1004.54
980.147
939.345
952.151
925.412
1005.26
1022.39
995.22
942.679
934.05
921.899
869.223
931.36
968.818
949.69
944.971
961.448
951.544
933.663
919.863
925.354
965.918
1001.69
1019.03
1025.73
1024.14
1025.79
1022.08
1004.8
978.995
940.74
952.062
926.5
1017.12
1020.67
985.273
935.433
926.658
918.53
882.726
931.989
966.121
958.252
964.331
972.863
960.318
938.849
911.455
915.581
945.865
977.42
1010.04
1025.69
1026.01
1026.09
1017.22
1003.15
979.335
942.173
951.184
996.141
1025.63
1018.58
975.62
921.76
918.962
912.678
886.768
923.071
958.614
944.525
968.789
981.271
975.178
938.518
901.649
916.555
949.632
970.358
1004.49
1025.26
1026.88
1026.56
1012.9
1001.61
979.269
943.039
949.111
1021.1
1026.21
1017.32
971.187
911.261
907.738
906.342
895.399
925.822
965.214
944.614
950.158
956.972
946.303
899.346
890.998
952.42
986.794
985.681
1010.22
1026.01
1027.07
1026.77
1009.76
1000.37
979.715
943.87
947.183
1022.52
1026.31
1020
981.958
919.368
901.118
908.792
909.386
937.742
975.888
956.408
929.157
905.83
879.736
879.939
918.729
1002.66
1007.97
1011.16
1024.6
1027.05
1027.1
1026.92
1008.3
998.03
979.697
944.322
947.351
1021.26
1026.38
1022.23
994.987
977.875
899.621
895.473
908.511
957.577
970.49
962.928
939.862
940.093
980.779
1002.26
1020.03
1026.73
1026.61
1026.17
1026.95
1027.11
1027.1
1027.03
1009.04
993.848
978.513
944.886
949.704
1018.86
1026.3
1024.09
988.742
1013.3
943.13
883.192
916.294
980.616
968.351
959.007
975.479
1001.86
1022.95
1026.77
1027.08
1027.11
1027.11
1026.91
1027.06
1027.11
1027.09
1027.06
1017.69
982.545
976.834
945.704
955.236
1015.37
1026.1
1025.77
1000.23
996.138
1013.26
922.984
898.159
994.195
993.906
975.76
1016.08
1019.08
1025.01
1027.05
1027.11
1027.11
1027.11
1027.06
1027.1
1027.11
1027
1027.04
1023.74
953.8
974.483
945.516
962.756
1011.84
1026.2
1026.71
1015.08
988.668
1019.73
1014.37
968.838
1016.79
1021.47
1007.27
1023.57
1025.82
1027.05
1027.11
1027.11
1027.11
1027.11
1027.1
1027.11
1027.11
1026.86
1026.9
1026.17
947.407
968.29
944.972
972.73
1007.79
1026.62
1026.96
1023.88
1012.27
1017.59
1026.38
1026.34
1026.29
1026.57
1024.15
1027.04
1027.11
1027.11
1027.11
1027.11
1027.11
1027.11
1027.11
1027.11
1027.11
1026.73
1026.68
1026.14
991.909
968.985
944.003
983.947
1003.6
1026.9
1027.02
1026.32
1024.34
1023.32
1026.03
1026.89
1026.08
1027.11
1027.07
1027.11
1027.11
1027.11
1027.11
1027.11
1027.11
1027.11
1027.11
1027.11
1027.1
1026.65
1026.3
1025.49
1022.07
974.36
943.174
991.018
1005.46
1026.99
1026.97
1026.44
1025.24
1024.5
1025.61
1027.02
1026.75
1027.11
1027.11
1027.11
1027.11
1027.11
1027.11
1027.11
1027.11
1027.11
1027.11
1027.11
1027.1
1026.59
1025.56
1024.08
1022.84
980.31
943.328
993.506
1017.26
1026.99
1026.84
1026.29
1024.87
1023.8
1024.37
1027.06
1027.09
1027.11
1027.11
1027.11
1027.11
1027.11
1027.11
1027.11
1027.11
1027.11
1027.11
1027.11
1027.1
1026.53
1024.34
1020.78
1021.72
984.388
943.672
996.26
1025.89
1026.95
1026.77
1026.47
1025.82
1024.76
1024.14
1027.06
1027.11
1027.11
1027.11
1027.11
1027.11
1027.11
1027.11
1027.11
1027.11
1027.11
1027.11
1027.11
1027.1
1026.5
1023.16
1012.6
1019.86
984.497
944.08
1002.87
1026.56
1026.98
1026.99
1026.98
1026.82
1026.64
1026.58
1027.11
1027.11
1027.11
1027.11
1027.11
1027.11
1027.11
1027.11
1027.11
1027.11
1027.11
1027.11
1027.11
1027.1
1026.56
1022.7
1001.18
1016.69
983.776
944.02
1010.96
1026.63
1026.99
1027.06
1027.1
1027.1
1027.1
1027.1
1027.11
1027.11
1027.11
1027.11
1027.11
1027.11
1027.11
1027.11
1027.11
1027.11
1027.11
1027.11
1027.11
1027.11
1026.85
1023.22
1017.3
1013.15
982.124
943.887
1016.14
1026.58
1026.94
1027.01
1027.09
1027.11
1027.11
1027.11
1027.11
1027.11
1027.11
1027.11
1027.11
1027.11
1027.11
1027.11
1027.11
1027.11
1027.11
1027.11
1027.11
1027.11
1027.04
1025.47
1021.53
1011.25
979.349
943.615
1018.43
1026.4
1026.85
1026.98
1027.09
1027.11
1027.11
1027.11
1027.11
1027.11
1027.11
1027.11
1027.11
1027.11
1027.11
1027.11
1027.11
1027.11
1027.11
1027.11
1027.11
1027.11
1027.1
1026.8
1021.8
1010.76
975.785
943.256
1018.39
1026
1026.57
1026.7
1027.07
1027.11
1027.11
1027.11
1027.11
1027.11
1027.11
1027.11
1027.11
1027.11
1027.11
1027.11
1027.11
1027.11
1027.11
1027.11
1027.11
1027.11
1027.11
1027.06
1022.9
1011.14
972.085
942.983
1018.11
1025.46
1026.02
1026.19
1027.05
1027.11
1027.11
1027.11
1027.11
1027.11
1027.11
1027.11
1027.11
1027.11
1027.11
1027.11
1027.11
1027.11
1027.11
1027.11
1027.11
1027.11
1027.11
1027.11
1024.84
1012.44
969.126
942.662
1017.47
1024.74
1025.47
1026.15
1027.07
1027.11
1027.11
1027.11
1027.11
1027.11
1027.11
1027.11
1027.11
1027.11
1027.11
1027.11
1027.11
1027.11
1027.11
1027.11
1027.11
1027.11
1027.11
1027.11
1025.26
1012.92
966.075
942.231
1016.82
1024.19
1025.21
1026.09
1027.11
1027.11
1027.11
1027.11
1027.11
1027.11
1027.11
1027.11
1027.11
1027.11
1027.11
1027.11
1027.11
1027.11
1027.11
1027.11
1027.11
1027.11
1027.11
1027.11
1025.32
1013.67
963.183
941.802
1015.39
1022.89
1023.99
1025.6
1027.11
1027.11
1027.11
1027.11
1027.11
1027.11
1027.11
1027.11
1027.11
1027.11
1027.11
1027.11
1027.11
1027.11
1027.11
1027.11
1027.11
1027.11
1027.11
1027.11
1026.49
1013.12
960.309
941.234
874.737
959.33
973.048
977.185
972.316
956.194
932.439
900.972
828.724
783.744
820.688
842.954
857.631
874.759
891.167
908.039
923.084
936.768
949.07
959.225
967.09
971.82
973.863
975.942
968.944
949.57
914.234
830.913
929.839
1003.93
1011.24
1022.19
1018.52
1003
995.745
960.467
895.8
837.562
957.463
984.536
991.934
999.468
1004.48
1009.5
1012.69
1014.81
1016.5
1019.27
1022.34
1024.22
1024.79
1024.95
1021.87
1017.9
1005.38
913.014
950.664
997.598
1011.93
1021.91
1010.59
965.273
965.159
957.133
892.982
883.607
986.436
984.174
977.839
970.12
965.617
975.25
983.541
992.454
999.797
1006.86
1015.57
1021.39
1023.03
1024.26
1018.39
1011.52
1004.38
944.916
956.039
982.097
1010.88
1018.98
995.46
939.902
952.926
945.383
890.527
916.144
989.612
972.863
956.625
951.054
971.804
987.444
995.311
1002.78
1011.92
1018.25
1022.93
1026.16
1026.47
1026.93
1024.94
1008.61
1000.69
953.613
955.967
956.948
1010.18
1017.07
984.904
937.7
950.935
940.389
894.114
933.933
991.343
970.774
958.179
955.755
956.627
948.646
947.453
956.073
987.462
1010.5
1020.95
1026.32
1026.68
1027.01
1025.43
1009.67
998.652
958.095
955.439
932.61
1012.78
1014.68
976.741
936.782
945.064
937.671
903.693
946.629
992.2
975.167
964.041
961.574
954.79
943.595
926.664
923.383
945.339
978.79
1009.64
1025.48
1026.86
1027.02
1024
1007.2
996.861
959.807
953.949
951.414
1020.8
1010.78
965.361
930.018
935.409
934.891
914.888
950.454
992.042
984.14
972.302
969.7
966.008
953.384
928.169
920.749
931.969
955.083
996.238
1024.39
1027.02
1027.05
1021.8
1006.81
996.163
961.071
951.689
1009.04
1025.54
1006.99
956.271
919.087
925.056
928.547
915.028
946.429
989.557
981.039
982.013
985.482
981.772
955.531
915.311
921.816
938.289
952.039
992.479
1024.05
1027.08
1027.07
1019.96
1006.54
994.942
961.591
948.41
1022.3
1025.67
1005.39
952.576
913.194
916.918
922.086
918.17
942.777
988.413
983.023
976.267
974.916
959.09
912.364
896.98
950.069
964.548
972.215
1009.57
1026.25
1027.09
1027.07
1018.83
1005.25
994.605
962.149
947.596
1023.29
1026.13
1011.22
965.493
919.013
914.653
925.093
927.972
950.62
982.659
980.706
962.363
935.165
890.046
892.541
920.329
988.89
986.259
1002.95
1024.6
1027.07
1027.09
1027.07
1018.44
1001.8
994.436
962.053
949.525
1023.37
1026.51
1015.8
984.14
961.624
908.46
917.731
921.43
966.569
1026.36
966.743
1027.07
996.375
1027.1
1008.93
1015.29
1027.11
1020.93
1025.94
1026.99
1027.1
1027.05
1027.03
1020.86
996.383
993.385
961.902
959.196
1022.98
1026.72
1019.14
974.362
999.727
937.641
898.601
916.76
1027.11
1027.1
1027.11
1027.1
1027.11
1027.11
1027.11
1027.11
1027.11
1027.11
1026.9
1027.08
1027.1
1026.93
1026.93
1024.83
982.337
992.012
961.619
973.884
1021.72
1026.83
1022.71
977.819
978.512
1008.26
928.353
905.247
1027.08
1027.1
1027.08
1027.11
1027.11
1027.11
1027.11
1027.11
1027.11
1027.1
1027.06
1027.11
1027.1
1026.81
1026.75
1026.36
958.668
989.57
960.828
985.778
1020.38
1026.9
1025.31
997.917
973.982
1011.07
1016.32
989.547
1027.11
1027.11
1027.11
1027.11
1027.11
1027.11
1027.11
1027.11
1027.11
1027.11
1027.1
1027.11
1027.11
1026.73
1026.53
1026.4
967.001
984.586
960.172
995.27
1018.91
1026.93
1026.46
1014.86
983.215
999.584
1025.14
1026.53
1027.11
1027.11
1027.11
1027.11
1027.11
1027.11
1027.11
1027.11
1027.11
1027.11
1027.11
1027.11
1027.11
1026.7
1026.25
1025.85
1015.57
986.934
959.266
1002.16
1017.54
1026.93
1026.66
1023.52
1015.7
1012.98
1023.51
1026.53
1027.11
1027.11
1027.11
1027.11
1027.11
1027.11
1027.11
1027.11
1027.11
1027.11
1027.11
1027.11
1027.11
1026.66
1025.76
1024.91
1024.38
992.664
958.56
1005.8
1020.4
1026.9
1026.21
1024
1019.83
1017.54
1021.67
1026.68
1027.11
1027.11
1027.11
1027.11
1027.11
1027.11
1027.11
1027.11
1027.11
1027.11
1027.11
1027.11
1027.11
1026.62
1024.87
1023.15
1023.73
997.92
958.463
1007.86
1025.44
1026.53
1025.39
1023.34
1018.45
1015
1017.53
1026.61
1027.11
1027.11
1027.11
1027.11
1027.11
1027.11
1027.11
1027.11
1027.11
1027.11
1027.11
1027.11
1027.11
1026.58
1023.69
1019.95
1022.5
1000.93
958.431
1012.01
1026.55
1026.12
1024.9
1024.03
1020.98
1017.5
1017.42
1026.76
1027.11
1027.11
1027.11
1027.11
1027.11
1027.11
1027.11
1027.11
1027.11
1027.11
1027.11
1027.11
1027.11
1026.57
1022.76
1012.97
1021.05
1002.03
958.289
1017.22
1026.65
1026.58
1025.79
1025.02
1023.57
1022.85
1024.89
1027.08
1027.11
1027.11
1027.11
1027.11
1027.11
1027.11
1027.11
1027.11
1027.11
1027.11
1027.11
1027.11
1027.11
1026.7
1022.49
1004.61
1018.58