/*--------------------------------*- C++ -*----------------------------------*\
| =========                 |                                                 |
| \\      /  F ield         | OpenFOAM: The Open Source CFD Toolbox           |
|  \\    /   O peration     | Version:  2.3.0                                 |
|   \\  /    A nd           | Web:      www.OpenFOAM.org                      |
|    \\/     M anipulation  |                                                 |
\*---------------------------------------------------------------------------*/
FoamFile
{
    version     2.0;
    format      ascii;
    class       volScalarField;
    location    "0.37";
    object      epsilon;
}
// * * * * * * * * * * * * * * * * * * * * * * * * * * * * * * * * * * * * * //

dimensions      [0 2 -3 0 0 0 0];

internalField   nonuniform List<scalar> 
545
(
4.62292e+08
4.40222e+08
4.05003e+08
3.7462e+08
3.53826e+08
4.71243e+08
4.41238e+08
4.03925e+08
3.72765e+08
3.50352e+08
4.86632e+08
4.42063e+08
4.0134e+08
3.68916e+08
3.44139e+08
5.09903e+08
4.41392e+08
3.97191e+08
3.63407e+08
3.34639e+08
5.44399e+08
4.376e+08
3.92417e+08
3.57503e+08
3.21255e+08
3.43196e+08
3.37389e+08
3.35541e+08
3.34956e+08
3.3477e+08
3.34709e+08
3.34686e+08
3.34675e+08
3.34668e+08
3.34663e+08
3.34658e+08
3.34653e+08
3.34649e+08
3.34644e+08
3.3464e+08
3.34636e+08
3.34632e+08
3.34628e+08
3.34624e+08
3.34621e+08
3.34617e+08
3.34614e+08
3.34611e+08
3.34608e+08
3.34605e+08
3.34602e+08
3.34599e+08
3.34597e+08
3.34594e+08
3.34592e+08
3.3459e+08
3.34588e+08
3.34586e+08
3.34585e+08
3.34583e+08
3.34582e+08
3.34581e+08
3.3458e+08
3.34579e+08
3.34578e+08
3.34577e+08
3.34577e+08
3.34576e+08
3.34576e+08
3.34576e+08
3.40538e+08
3.36576e+08
3.35283e+08
3.34875e+08
3.34745e+08
3.34701e+08
3.34683e+08
3.34674e+08
3.34668e+08
3.34663e+08
3.34658e+08
3.34653e+08
3.34648e+08
3.34644e+08
3.3464e+08
3.34636e+08
3.34632e+08
3.34628e+08
3.34624e+08
3.3462e+08
3.34617e+08
3.34614e+08
3.3461e+08
3.34607e+08
3.34605e+08
3.34602e+08
3.34599e+08
3.34597e+08
3.34594e+08
3.34592e+08
3.3459e+08
3.34588e+08
3.34586e+08
3.34585e+08
3.34583e+08
3.34582e+08
3.34581e+08
3.3458e+08
3.34579e+08
3.34578e+08
3.34577e+08
3.34576e+08
3.34576e+08
3.34576e+08
3.34576e+08
3.36669e+08
3.35213e+08
3.34846e+08
3.34738e+08
3.34702e+08
3.34687e+08
3.34679e+08
3.34673e+08
3.34667e+08
3.34662e+08
3.34658e+08
3.34653e+08
3.34648e+08
3.34644e+08
3.3464e+08
3.34635e+08
3.34631e+08
3.34628e+08
3.34624e+08
3.3462e+08
3.34617e+08
3.34614e+08
3.3461e+08
3.34607e+08
3.34604e+08
3.34602e+08
3.34599e+08
3.34597e+08
3.34594e+08
3.34592e+08
3.3459e+08
3.34588e+08
3.34586e+08
3.34585e+08
3.34583e+08
3.34582e+08
3.34581e+08
3.34579e+08
3.34578e+08
3.34578e+08
3.34577e+08
3.34576e+08
3.34576e+08
3.34576e+08
3.34576e+08
3.31637e+08
3.33621e+08
3.34356e+08
3.34587e+08
3.34655e+08
3.34673e+08
3.34674e+08
3.34671e+08
3.34667e+08
3.34662e+08
3.34657e+08
3.34653e+08
3.34648e+08
3.34644e+08
3.3464e+08
3.34635e+08
3.34631e+08
3.34628e+08
3.34624e+08
3.3462e+08
3.34617e+08
3.34613e+08
3.3461e+08
3.34607e+08
3.34604e+08
3.34602e+08
3.34599e+08
3.34597e+08
3.34594e+08
3.34592e+08
3.3459e+08
3.34588e+08
3.34586e+08
3.34585e+08
3.34583e+08
3.34582e+08
3.3458e+08
3.34579e+08
3.34578e+08
3.34578e+08
3.34577e+08
3.34576e+08
3.34576e+08
3.34576e+08
3.34576e+08
3.25771e+08
3.32276e+08
3.33967e+08
3.34468e+08
3.34619e+08
3.34661e+08
3.34671e+08
3.3467e+08
3.34667e+08
3.34662e+08
3.34657e+08
3.34653e+08
3.34648e+08
3.34644e+08
3.3464e+08
3.34635e+08
3.34631e+08
3.34628e+08
3.34624e+08
3.3462e+08
3.34617e+08
3.34613e+08
3.3461e+08
3.34607e+08
3.34604e+08
3.34602e+08
3.34599e+08
3.34597e+08
3.34594e+08
3.34592e+08
3.3459e+08
3.34588e+08
3.34586e+08
3.34585e+08
3.34583e+08
3.34582e+08
3.3458e+08
3.34579e+08
3.34578e+08
3.34578e+08
3.34577e+08
3.34576e+08
3.34576e+08
3.34576e+08
3.34575e+08
3.26423e+08
3.31866e+08
3.33809e+08
3.34418e+08
3.34603e+08
3.34656e+08
3.34669e+08
3.3467e+08
3.34666e+08
3.34662e+08
3.34657e+08
3.34653e+08
3.34648e+08
3.34644e+08
3.3464e+08
3.34635e+08
3.34631e+08
3.34628e+08
3.34624e+08
3.3462e+08
3.34617e+08
3.34613e+08
3.3461e+08
3.34607e+08
3.34604e+08
3.34602e+08
3.34599e+08
3.34597e+08
3.34594e+08
3.34592e+08
3.3459e+08
3.34588e+08
3.34586e+08
3.34585e+08
3.34583e+08
3.34582e+08
3.3458e+08
3.34579e+08
3.34578e+08
3.34578e+08
3.34577e+08
3.34576e+08
3.34576e+08
3.34576e+08
3.34575e+08
5.44399e+08
4.376e+08
3.92417e+08
3.57503e+08
3.21255e+08
5.09903e+08
4.41392e+08
3.97191e+08
3.63407e+08
3.34639e+08
4.86632e+08
4.42063e+08
4.0134e+08
3.68916e+08
3.44139e+08
4.71243e+08
4.41238e+08
4.03925e+08
3.72765e+08
3.50352e+08
4.62292e+08
4.40222e+08
4.05003e+08
3.7462e+08
3.53826e+08
3.25771e+08
3.32276e+08
3.33967e+08
3.34468e+08
3.34619e+08
3.34661e+08
3.34671e+08
3.3467e+08
3.34667e+08
3.34662e+08
3.34657e+08
3.34653e+08
3.34648e+08
3.34644e+08
3.3464e+08
3.34635e+08
3.34631e+08
3.34628e+08
3.34624e+08
3.3462e+08
3.34617e+08
3.34613e+08
3.3461e+08
3.34607e+08
3.34604e+08
3.34602e+08
3.34599e+08
3.34597e+08
3.34594e+08
3.34592e+08
3.3459e+08
3.34588e+08
3.34586e+08
3.34585e+08
3.34583e+08
3.34582e+08
3.3458e+08
3.34579e+08
3.34578e+08
3.34578e+08
3.34577e+08
3.34576e+08
3.34576e+08
3.34576e+08
3.34575e+08
3.31637e+08
3.33621e+08
3.34356e+08
3.34587e+08
3.34655e+08
3.34673e+08
3.34674e+08
3.34671e+08
3.34667e+08
3.34662e+08
3.34657e+08
3.34653e+08
3.34648e+08
3.34644e+08
3.3464e+08
3.34635e+08
3.34631e+08
3.34628e+08
3.34624e+08
3.3462e+08
3.34617e+08
3.34613e+08
3.3461e+08
3.34607e+08
3.34604e+08
3.34602e+08
3.34599e+08
3.34597e+08
3.34594e+08
3.34592e+08
3.3459e+08
3.34588e+08
3.34586e+08
3.34585e+08
3.34583e+08
3.34582e+08
3.3458e+08
3.34579e+08
3.34578e+08
3.34578e+08
3.34577e+08
3.34576e+08
3.34576e+08
3.34576e+08
3.34576e+08
3.36669e+08
3.35213e+08
3.34846e+08
3.34738e+08
3.34702e+08
3.34687e+08
3.34679e+08
3.34673e+08
3.34667e+08
3.34662e+08
3.34658e+08
3.34653e+08
3.34648e+08
3.34644e+08
3.3464e+08
3.34635e+08
3.34631e+08
3.34628e+08
3.34624e+08
3.3462e+08
3.34617e+08
3.34614e+08
3.3461e+08
3.34607e+08
3.34604e+08
3.34602e+08
3.34599e+08
3.34597e+08
3.34594e+08
3.34592e+08
3.3459e+08
3.34588e+08
3.34586e+08
3.34585e+08
3.34583e+08
3.34582e+08
3.34581e+08
3.34579e+08
3.34578e+08
3.34578e+08
3.34577e+08
3.34576e+08
3.34576e+08
3.34576e+08
3.34576e+08
3.40538e+08
3.36576e+08
3.35283e+08
3.34875e+08
3.34745e+08
3.34701e+08
3.34683e+08
3.34674e+08
3.34668e+08
3.34663e+08
3.34658e+08
3.34653e+08
3.34648e+08
3.34644e+08
3.3464e+08
3.34636e+08
3.34632e+08
3.34628e+08
3.34624e+08
3.3462e+08
3.34617e+08
3.34614e+08
3.3461e+08
3.34607e+08
3.34605e+08
3.34602e+08
3.34599e+08
3.34597e+08
3.34594e+08
3.34592e+08
3.3459e+08
3.34588e+08
3.34586e+08
3.34585e+08
3.34583e+08
3.34582e+08
3.34581e+08
3.3458e+08
3.34579e+08
3.34578e+08
3.34577e+08
3.34576e+08
3.34576e+08
3.34576e+08
3.34576e+08
3.43196e+08
3.37389e+08
3.35541e+08
3.34956e+08
3.3477e+08
3.34709e+08
3.34686e+08
3.34675e+08
3.34668e+08
3.34663e+08
3.34658e+08
3.34653e+08
3.34649e+08
3.34644e+08
3.3464e+08
3.34636e+08
3.34632e+08
3.34628e+08
3.34624e+08
3.3462e+08
3.34617e+08
3.34614e+08
3.34611e+08
3.34608e+08
3.34605e+08
3.34602e+08
3.34599e+08
3.34597e+08
3.34594e+08
3.34592e+08
3.3459e+08
3.34588e+08
3.34586e+08
3.34585e+08
3.34583e+08
3.34582e+08
3.34581e+08
3.3458e+08
3.34579e+08
3.34578e+08
3.34577e+08
3.34577e+08
3.34576e+08
3.34576e+08
3.34576e+08
)
;

boundaryField
{
    AirInlet
    {
        type            fixedValue;
        value           uniform 0.1;
    }
    WaterInlet
    {
        type            fixedValue;
        value           uniform 0.1;
    }
    ChannelWall
    {
        type            fixedValue;
        value           uniform 0.1;
    }
    Outlet
    {
        type            inletOutlet;
        inletValue      uniform 0.1;
        value           nonuniform List<scalar> 
11
(
3.34576e+08
3.34576e+08
3.34576e+08
3.34576e+08
3.34575e+08
3.34575e+08
3.34575e+08
3.34576e+08
3.34576e+08
3.34576e+08
3.34576e+08
)
;
    }
    FrontAndBack
    {
        type            empty;
    }
}


// ************************************************************************* //
