/*--------------------------------*- C++ -*----------------------------------*\
| =========                 |                                                 |
| \\      /  F ield         | OpenFOAM: The Open Source CFD Toolbox           |
|  \\    /   O peration     | Version:  2.3.0                                 |
|   \\  /    A nd           | Web:      www.OpenFOAM.org                      |
|    \\/     M anipulation  |                                                 |
\*---------------------------------------------------------------------------*/
FoamFile
{
    version     2.0;
    format      ascii;
    class       volVectorField;
    location    "1.2";
    object      U.air;
}
// * * * * * * * * * * * * * * * * * * * * * * * * * * * * * * * * * * * * * //

dimensions      [0 1 -1 0 0 0 0];

internalField   nonuniform List<vector> 
10000
(
(-0.172417 -0.398761 -0.285578)
(-0.0293136 -0.680425 -0.399443)
(0.0507439 -0.59099 -0.35894)
(0.0748124 -0.478288 -0.324826)
(0.0952515 -0.344908 -0.226951)
(0.0908995 -0.254745 -0.163839)
(0.0540091 -0.198312 -0.126214)
(0.0975907 -0.138592 -0.17991)
(0.0683761 -0.104022 -0.277663)
(0.00301524 -0.100234 -0.346022)
(-0.0127054 -0.1046 -0.258886)
(-0.0954242 -0.110636 -0.239368)
(-0.161943 -0.130546 -0.226413)
(-0.146071 -0.183288 -0.247449)
(-0.205019 -0.257391 -0.135195)
(-0.158515 -0.426041 -0.249348)
(-0.205463 -0.687097 -0.434098)
(-0.0573858 -1.1677 -0.757888)
(0.0107778 -0.841128 -0.657091)
(0.239984 -0.910117 -0.74695)
(0.00510687 -0.162913 0.0637906)
(0.00832196 -0.776761 -0.0368101)
(0.0236696 -0.703708 -0.0636416)
(0.017544 -0.532369 -0.0477652)
(0.0136253 -0.383834 -0.0721521)
(0.00807909 -0.250485 -0.0964714)
(-0.00476258 -0.192051 -0.135012)
(-0.0312017 -0.0735267 -0.34132)
(0.000898682 -0.0371617 -0.57667)
(4.4711e-05 -0.0858357 -0.423505)
(0.000267542 -0.0696881 -0.366516)
(-6.47452e-05 -0.055633 -0.368491)
(-0.000801472 -0.0537316 -0.443777)
(0.0093332 -0.0331969 -0.651778)
(0.00390992 -0.11354 -0.184848)
(-0.00409897 -0.334674 -0.0696942)
(-0.0150233 -0.45775 0.00333685)
(-0.00660643 -1.39025 -0.100132)
(-0.00978732 -0.947938 -0.0750858)
(-0.0089298 -0.902921 -0.0833773)
(-1.33168e-06 -0.00437082 0.188427)
(0.01193 -0.815354 -0.0143635)
(0.0144006 -0.716675 -0.0583651)
(0.0126386 -0.518307 -0.0176094)
(0.00907937 -0.40863 -0.062488)
(0.00178971 -0.279152 -0.0959109)
(-0.00207189 -0.221908 -0.120908)
(-0.000962348 -0.154088 -0.172503)
(0.00368664 -0.100471 -0.265743)
(0.00172087 -0.0884605 -0.28351)
(-0.000933898 -0.0905677 -0.278216)
(-4.03045e-05 -0.091156 -0.263004)
(0.000771904 -0.0899744 -0.270228)
(0.00110789 -0.0913484 -0.270389)
(0.00754687 -0.108533 -0.173545)
(0.00205507 -0.302679 -0.0969953)
(-0.00176488 -0.577811 -0.00304778)
(-0.00182381 -1.31576 -0.0141236)
(-0.0229392 -1.14102 -0.026939)
(0.00410729 -0.943367 -0.00929221)
(-0.00914631 -0.086619 0.00607668)
(0.0205895 -0.844092 -0.0223691)
(0.0077766 -0.703193 -0.0847674)
(0.0146325 -0.499746 -0.0261775)
(0.00368449 -0.394495 -0.0517067)
(-0.000929512 -0.285084 -0.0880718)
(-0.00252795 -0.229646 -0.114283)
(-0.00367353 -0.170635 -0.161851)
(0.00276049 -0.0922925 -0.297819)
(0.00360272 -0.0822115 -0.309416)
(0.00145695 -0.0796407 -0.305837)
(0.000499698 -0.0856478 -0.291337)
(0.000141868 -0.077678 -0.313903)
(-0.000479664 -0.0733526 -0.336069)
(0.00212117 -0.117935 -0.218376)
(0.00531464 -0.261585 -0.111382)
(0.00600154 -0.486674 -0.00164624)
(0.0058713 -1.22246 -0.00141817)
(-0.0264511 -1.1559 -0.0136164)
(0.00485446 -1.06607 -0.00552424)
(-0.0490207 -0.636091 -0.135283)
(0.0218657 -0.838753 -0.0435032)
(0.00578304 -0.719779 -0.0847709)
(0.0202587 -0.493601 -0.0309691)
(0.0106924 -0.36848 -0.051703)
(0.000174586 -0.287763 -0.0816526)
(-0.00246507 -0.254815 -0.0943013)
(-0.00739355 -0.227095 -0.112283)
(0.00109826 -0.155854 -0.178474)
(0.00668837 -0.102094 -0.272793)
(0.00275912 -0.0897152 -0.29767)
(0.000772287 -0.0864428 -0.294214)
(-4.23362e-05 -0.0828584 -0.307775)
(0.000859295 -0.0768961 -0.319136)
(0.00130368 -0.108883 -0.219575)
(3.42993e-06 -0.254667 -0.110112)
(0.0123783 -0.556233 -0.0156704)
(0.00111809 -1.21017 -0.0128106)
(-0.0181043 -1.14733 -0.0294234)
(0.00569953 -1.16035 -0.00938564)
(-0.0331353 -0.889991 -0.0694847)
(0.00366648 -0.873115 -0.0692341)
(0.00106248 -0.773567 -0.0371686)
(0.0182957 -0.431704 -0.0113647)
(0.00561514 -0.319207 -0.0544511)
(0.00300328 -0.271246 -0.0738989)
(-0.000266271 -0.249538 -0.0828515)
(-0.00542215 -0.234487 -0.0910226)
(-0.00485841 -0.201248 -0.114718)
(0.00248574 -0.11179 -0.224366)
(0.00291501 -0.0835374 -0.294766)
(0.00105894 -0.0811422 -0.294464)
(0.00029464 -0.0772002 -0.310536)
(0.000616217 -0.079225 -0.326437)
(0.000793135 -0.102101 -0.236414)
(0.00189104 -0.24487 -0.112301)
(0.0140104 -0.523133 -0.0100149)
(0.00101142 -1.09094 -0.00242155)
(0.0141721 -1.06168 -0.0235234)
(-0.0028476 -1.16016 -0.00465536)
(-0.0158356 -0.931564 -0.0347143)
(-0.00572787 -0.907016 -0.062075)
(-0.00305577 -0.785954 -0.00278369)
(0.0080661 -0.314465 0.00320048)
(0.00293043 -0.267008 -0.051472)
(0.00652717 -0.234127 -0.0660203)
(0.00172648 -0.223459 -0.0689764)
(-0.0013759 -0.217342 -0.0717784)
(-0.00511502 -0.208666 -0.0831404)
(0.000612864 -0.16424 -0.139824)
(0.00478973 -0.0999561 -0.248283)
(0.00220568 -0.0843898 -0.290808)
(0.000198995 -0.0776158 -0.31201)
(0.000984135 -0.0736098 -0.322626)
(0.000977962 -0.10224 -0.239277)
(0.000574602 -0.239752 -0.109045)
(0.00113178 -0.453739 -1.69943e-05)
(0.00594783 -1.05371 0.0103512)
(0.017836 -0.757216 0.0142119)
(-0.0260722 -1.07066 -0.00247977)
(-0.0106447 -0.93927 -0.0388455)
(0.000785469 -0.927393 -0.0445344)
(-0.0099651 -0.783011 -0.00411011)
(0.00598374 -0.314189 0.0055023)
(0.00423433 -0.19177 -0.027058)
(0.0103109 -0.175124 -0.0419987)
(0.00520746 -0.168446 -0.0429846)
(0.000476664 -0.166696 -0.0439067)
(-0.00583395 -0.168999 -0.0480485)
(-0.00119032 -0.163531 -0.0809645)
(0.00217145 -0.109758 -0.191234)
(0.00201264 -0.0820487 -0.276478)
(0.000170587 -0.0765817 -0.299468)
(0.000440782 -0.0772609 -0.298349)
(0.000416437 -0.0973763 -0.234264)
(-0.00132617 -0.211145 -0.0997209)
(0.00125082 -0.402814 0.00256388)
(0.00300743 -1.0588 0.00222472)
(0.00982028 -0.614311 0.0367991)
(-0.0307698 -1.00739 -0.0141576)
(-0.00498232 -0.932053 -0.0265171)
(0.00184684 -0.946 -0.036281)
(-0.0185045 -0.749422 -0.0144934)
(0.00404966 -0.325093 0.00857308)
(0.00201466 -0.0527164 0.0171957)
(0.00388326 -0.0677403 0.0033623)
(0.00343102 -0.0659497 0.00143763)
(0.000170865 -0.0614767 0.0025882)
(-0.00418973 -0.0679181 -0.000595871)
(-0.00443936 -0.0881537 -0.0210121)
(0.000363349 -0.0861799 -0.101106)
(0.0020952 -0.0690231 -0.186061)
(0.00119275 -0.0646595 -0.208957)
(0.000105014 -0.0660503 -0.209297)
(0.00143565 -0.0764303 -0.17832)
(-0.00473301 -0.161799 -0.0492988)
(-0.000673054 -0.52352 -0.00875841)
(-0.0172871 -1.09854 0.00113921)
(0.0135144 -0.660983 0.0228002)
(-0.0120261 -0.91158 -0.0233181)
(0.000586344 -0.883879 -0.000897144)
(0.00130394 -1.01868 -0.0232501)
(-0.0114941 -0.647695 -0.0117776)
(-0.00445277 -0.354198 0.00179537)
(0.00520137 -0.0515866 0.0103273)
(0.000178483 -0.0365676 0.00678706)
(0.000298295 -0.0349659 0.00725102)
(0.000389551 -0.0277736 0.00684378)
(0.00102566 -0.030192 0.00726688)
(0.000447032 -0.0284971 0.00901931)
(-0.000318273 -0.0164674 0.00857743)
(-0.000423802 -0.0145583 0.00632714)
(-0.000562363 -0.0150003 0.00559444)
(-0.00106171 -0.0217332 0.00525381)
(-0.00134522 -0.0322096 0.00484976)
(-0.00402366 -0.0634772 0.0102867)
(-0.00111344 -0.59176 -0.021461)
(-0.0369477 -1.13898 0.0106663)
(-0.00707795 -0.848638 0.00873244)
(-0.00833793 -0.840278 0.00821245)
(0.0069344 -0.769547 0.00678178)
(0.000461217 -1.1146 -0.00519786)
(-0.000835449 -0.518915 0.00442715)
(-0.00517267 -0.435525 -0.00975646)
(0.00560375 -0.0453492 0.00320303)
(-0.000540257 -0.03223 0.000541135)
(7.75269e-05 -0.0249862 0.00111019)
(8.34486e-05 -0.023016 0.000829557)
(-6.74022e-05 -0.0202584 0.00122563)
(5.46211e-05 -0.0195944 0.00120092)
(-0.000154345 -0.0196412 0.000298806)
(-0.000191421 -0.0182158 0.000344346)
(-5.44851e-05 -0.0190884 0.000381792)
(-0.000271911 -0.0234805 0.000473508)
(-0.000273897 -0.0383757 -0.000572736)
(-0.00148109 -0.117426 -0.00409623)
(-0.00521778 -0.618956 -0.0236861)
(-0.0410535 -1.2357 0.00257584)
(-0.0502683 -1.15877 -9.50602e-07)
(0.00318 -0.913424 0.0118127)
(0.00805418 -0.961374 0.000796743)
(0.000854204 -1.0746 0.00407243)
(0.000743891 -0.634312 -0.00224293)
(0.00467912 -0.435599 -0.0112345)
(0.00180387 -0.041813 -0.000224832)
(-0.000118594 -0.0277479 0.000174551)
(-4.14626e-05 -0.0286983 -0.000680558)
(8.70793e-05 -0.0194521 0.000300303)
(8.26055e-05 -0.0212016 -0.000150964)
(0.000202957 -0.0204423 -0.000178948)
(-1.6972e-05 -0.0159235 0.0003645)
(-0.000216783 -0.0197368 -0.000261889)
(-0.000211259 -0.0204924 -0.000210701)
(0.000105418 -0.0270881 -0.000575372)
(0.000510924 -0.0475099 -0.00189723)
(0.000177955 -0.133368 -0.00487664)
(-0.013055 -0.652495 -0.0200776)
(-0.0328827 -1.20535 -0.0139902)
(-0.054131 -1.22111 -0.00174706)
(0.00274233 -1.18196 -0.0105094)
(0.000175346 -1.07606 -0.000507358)
(0.00777057 -1.11037 -0.00656765)
(0.011518 -0.790799 -0.00403342)
(0.0106479 -0.439377 -0.0100247)
(0.000523245 -0.0485142 -0.00191741)
(0.000629991 -0.0311803 -3.01745e-05)
(-1.79606e-05 -0.0300636 -0.000129808)
(-0.000174954 -0.0211072 -2.41528e-05)
(1.33906e-05 -0.0201691 -1.89453e-05)
(-5.49861e-05 -0.0183682 4.92165e-05)
(1.17068e-05 -0.0149324 0.000183214)
(4.71336e-05 -0.017883 9.41609e-05)
(-3.94152e-05 -0.0198378 -1.29484e-05)
(5.55978e-05 -0.0280408 -0.000342794)
(0.000124358 -0.0514919 -0.000818594)
(-0.00250372 -0.131382 -0.00490765)
(-0.0205263 -0.671528 -0.0119332)
(-0.0279865 -1.12444 0.00416986)
(-0.0421379 -1.22679 -0.00921566)
(-0.001152 -1.20301 -0.0109736)
(-0.0030595 -1.08359 -0.005963)
(0.0182881 -1.05612 0.00304285)
(0.0250651 -0.81304 -0.00769486)
(0.0122436 -0.43049 -0.0103423)
(0.00135528 -0.0531088 -0.00149385)
(0.000596306 -0.0275073 0.00010695)
(7.59188e-05 -0.0271715 8.08308e-05)
(-0.000241865 -0.0197237 -1.439e-05)
(-0.000315018 -0.0213792 -0.000334246)
(-0.000137116 -0.0198472 -0.000163292)
(1.54796e-05 -0.0142247 5.04668e-05)
(9.2801e-05 -0.0186578 2.657e-05)
(0.000146719 -0.0205472 -0.000187374)
(3.48038e-05 -0.0305368 -0.000500382)
(0.000242834 -0.0527131 -0.000774647)
(-0.00595895 -0.153657 -0.0021192)
(-0.0199681 -0.666156 -0.00251666)
(-0.0298847 -1.10765 0.00527431)
(-0.0335844 -1.20236 -0.000258941)
(-0.00303759 -1.00976 0.0181295)
(0.00856304 -1.06724 -0.0235186)
(0.0221725 -1.08297 -0.0109003)
(0.0299206 -0.789452 0.00147725)
(0.0147969 -0.424375 -0.0119944)
(0.00297533 -0.0516635 -0.000997288)
(0.000169727 -0.0282615 2.07614e-05)
(0.000109866 -0.0265797 0.00014768)
(0.000118744 -0.0194326 0.00010842)
(0.000153221 -0.0235807 -9.82462e-05)
(-9.67514e-05 -0.0214735 -0.000138424)
(-0.00014247 -0.015521 -8.77377e-05)
(-0.0001103 -0.0188532 -9.67548e-05)
(7.00402e-05 -0.0216439 -0.000210379)
(0.000106203 -0.0330934 -0.00024416)
(0.00158474 -0.0542778 -0.000602178)
(-0.00213091 -0.115476 0.00575435)
(-0.0179408 -0.65113 -0.0154914)
(-0.0308006 -1.03206 0.0063404)
(-0.0197435 -1.17536 -0.0121129)
(-0.0129165 -0.739828 0.0685504)
(-0.0125171 -1.01236 0.00190639)
(0.0287513 -1.02721 0.00555682)
(0.0356336 -0.783804 -0.00915394)
(0.0149303 -0.420959 -0.0139898)
(0.00402524 -0.047238 -0.000476251)
(-1.78937e-05 -0.026682 -0.000137158)
(0.000105994 -0.0258219 0.00015628)
(-1.37007e-05 -0.0186959 0.000123442)
(-2.29289e-05 -0.0207924 0.000168096)
(-1.23376e-05 -0.0196748 4.92907e-05)
(-7.02786e-05 -0.0149282 3.79269e-06)
(-1.79403e-05 -0.019778 -0.000280957)
(8.03725e-05 -0.0228794 -0.000351798)
(0.000492857 -0.0343726 -0.000189125)
(0.00291555 -0.0544233 0.000297506)
(-0.00405748 -0.0735119 0.00691882)
(-0.0087015 -0.590508 0.00167857)
(-0.00810454 -0.950318 0.0154033)
(-0.0189515 -0.959316 0.0114009)
(-0.034528 -0.41984 0.120292)
(0.00356278 -1.03968 0.00429164)
(0.0335831 -1.05196 0.00564784)
(0.020909 -0.763924 -0.0166372)
(0.0087496 -0.405901 0.00140321)
(0.00499067 -0.037921 0.000563961)
(-0.000538737 -0.0262001 -0.000233012)
(-4.25361e-05 -0.0251209 0.000123618)
(-7.14611e-05 -0.0179735 9.58936e-05)
(-1.99515e-05 -0.0219892 -0.000201345)
(-0.000116092 -0.0210271 -0.000265838)
(0.000114695 -0.0154324 -5.63179e-05)
(0.000312496 -0.0218657 -0.000563682)
(6.27025e-06 -0.0257091 -0.000538726)
(0.000741332 -0.0379213 -0.000318968)
(0.00330278 -0.0418297 0.00251751)
(-0.00218426 -0.0435062 0.00648003)
(0.0267854 -0.52481 0.0170471)
(0.012156 -0.467108 0.140829)
(-0.0211984 -0.348541 0.168414)
(-0.0377448 -0.263895 0.0975304)
(0.0495412 -1.02383 -0.0294118)
(0.0247017 -1.06363 -0.0427242)
(-0.00423057 -0.766545 -0.0431326)
(-0.00715715 -0.405296 -0.0151253)
(0.000191588 -0.026717 0.0016916)
(-0.00150292 -0.0225835 0.000463176)
(-0.000172851 -0.0250742 0.000807415)
(7.5366e-05 -0.0176497 8.9239e-05)
(0.000358165 -0.0226468 0.000340164)
(-0.000292319 -0.0222833 0.000265688)
(-2.49854e-06 -0.01702 -0.000259194)
(0.000332224 -0.0238083 0.000202086)
(2.51757e-05 -0.0268008 0.000317602)
(0.000870921 -0.0370537 0.000610679)
(0.00325986 -0.0276824 0.00345826)
(0.00690628 -0.0334175 0.00669434)
(0.0442976 -0.408803 0.0482865)
(0.000310723 -0.00305821 0.395164)
(-0.00213467 -0.00691097 0.2755)
(-0.0223528 -0.315061 0.0149004)
(0.00891583 -0.811853 0.0515927)
(-0.0283339 -0.945467 0.0434791)
(-0.0304535 -0.68617 0.0662353)
(-0.0206921 -0.396158 0.00588779)
(-0.00522689 -0.0241522 0.00213627)
(-0.000768439 -0.0213699 -0.000218885)
(6.12406e-05 -0.0215184 0.000719587)
(-8.64057e-06 -0.0188332 -0.000120591)
(8.73075e-05 -0.0195366 0.000631401)
(-2.7549e-05 -0.0193408 0.000625354)
(-2.64777e-05 -0.019211 -0.000408988)
(0.000155098 -0.0214015 0.00035236)
(0.00025888 -0.0246201 0.000597572)
(-0.00017631 -0.0360095 0.00112403)
(0.00133348 -0.0178634 0.000850158)
(0.0141177 -0.0176528 0.00395986)
(0.0225278 -0.173747 0.125075)
(5.43756e-05 -0.00168818 0.29052)
(0.000934214 -0.00251419 0.123692)
(0.0146071 -0.355002 -0.0225836)
(-0.0117839 -0.40719 0.0749749)
(-0.034242 -0.560073 0.115616)
(-0.0361502 -0.43836 0.188771)
(-0.0303989 -0.334373 0.0723497)
(-0.00829699 -0.0243442 0.00301865)
(0.000300093 -0.0320622 -0.000271411)
(2.35701e-05 -0.0233902 -5.64574e-05)
(-1.91643e-05 -0.0201775 -0.000134707)
(-0.000111324 -0.0207453 2.02234e-05)
(0.000118201 -0.0202812 4.02894e-05)
(1.68184e-05 -0.0218735 -0.000267224)
(-0.000224084 -0.025784 -0.000248421)
(0.000138661 -0.0242013 0.000163411)
(-0.000113146 -0.0322371 0.000516773)
(4.39601e-05 -0.0367322 -0.000730538)
(0.010013 -0.0141243 0.000675302)
(0.00248235 -0.0510851 0.0747158)
(0.000181073 -0.00666753 0.0273463)
(0.00132188 -0.0149255 -0.0143456)
(0.00966592 -0.251633 -0.0107376)
(-0.182435 -0.403121 -0.264292)
(-0.032035 -0.675898 -0.337175)
(0.0536321 -0.581222 -0.296575)
(0.0784278 -0.47357 -0.273059)
(0.0993448 -0.340987 -0.186615)
(0.094821 -0.251485 -0.137229)
(0.0574065 -0.193339 -0.108193)
(0.102929 -0.135829 -0.170379)
(0.0669674 -0.101064 -0.265748)
(0.00389729 -0.0994777 -0.323353)
(-0.0118235 -0.101256 -0.24438)
(-0.0975666 -0.108247 -0.223273)
(-0.165032 -0.128835 -0.214742)
(-0.147855 -0.181816 -0.234955)
(-0.21322 -0.253753 -0.117118)
(-0.170649 -0.421833 -0.210285)
(-0.224641 -0.694285 -0.381157)
(-0.0644351 -1.13728 -0.634778)
(0.0119848 -0.840069 -0.576645)
(0.258908 -0.910739 -0.65882)
(0.00489411 -0.308207 0.0471663)
(0.0081777 -0.780144 -0.0324663)
(0.0240083 -0.690829 -0.0592306)
(0.0179867 -0.529476 -0.0459015)
(0.0144183 -0.37689 -0.0685723)
(0.00877128 -0.237008 -0.0941943)
(-0.00523678 -0.181273 -0.131762)
(-0.0323683 -0.0679663 -0.341003)
(0.000874586 -0.0339986 -0.578241)
(4.8625e-05 -0.0833599 -0.424171)
(0.000299344 -0.0644382 -0.367221)
(-6.93211e-05 -0.0504466 -0.36932)
(-0.000697063 -0.0496654 -0.446212)
(0.0122856 -0.0295991 -0.656642)
(0.00375938 -0.0934934 -0.19094)
(-0.00468436 -0.312709 -0.0745718)
(-0.0188298 -0.521491 -0.000972732)
(-0.00696599 -1.37589 -0.0936146)
(-0.00889161 -0.950784 -0.0630223)
(-0.00706779 -0.912137 -0.0818269)
(-0.000557239 -0.0105888 0.184475)
(0.0117256 -0.818535 -0.0129171)
(0.0140709 -0.71198 -0.0585621)
(0.0131829 -0.524583 -0.0187657)
(0.00924441 -0.404172 -0.0615493)
(0.00143873 -0.267638 -0.0939199)
(-0.00245381 -0.211461 -0.118845)
(-0.000955002 -0.14647 -0.167732)
(0.00375283 -0.0952352 -0.262848)
(0.00166749 -0.0829525 -0.283352)
(-0.000961983 -0.0850351 -0.277567)
(-2.56633e-06 -0.0855048 -0.261512)
(0.000788103 -0.0844919 -0.269083)
(0.00108104 -0.0860935 -0.268526)
(0.00772011 -0.0851109 -0.173423)
(0.00103805 -0.292483 -0.100118)
(-0.00298889 -0.598275 -0.00291931)
(-0.00194814 -1.347 -0.0170529)
(-0.0231623 -1.15748 -0.019255)
(0.00451826 -0.956964 -0.00542119)
(-0.0129173 -0.110593 0.0265407)
(0.0209898 -0.84183 -0.0221481)
(0.00762542 -0.699439 -0.0845025)
(0.0148377 -0.501131 -0.0269849)
(0.00371926 -0.390576 -0.0528614)
(-0.00134737 -0.276706 -0.0873597)
(-0.00286744 -0.218762 -0.112332)
(-0.00375731 -0.159641 -0.158119)
(0.00281348 -0.0864911 -0.295267)
(0.00365108 -0.0769858 -0.308632)
(0.00145143 -0.0742859 -0.305716)
(0.000496093 -0.0800506 -0.291524)
(0.000128198 -0.072556 -0.314217)
(-0.000563372 -0.0684426 -0.336899)
(0.00183962 -0.10988 -0.218731)
(0.00494897 -0.247947 -0.113952)
(0.00506203 -0.517993 -0.00261715)
(0.00666272 -1.24187 -0.0037322)
(-0.0272706 -1.17725 -0.0132533)
(0.00456362 -1.07485 0.00102485)
(-0.0495443 -0.63536 -0.114076)
(0.0220096 -0.836609 -0.0440891)
(0.00579179 -0.717357 -0.0827015)
(0.0220522 -0.493134 -0.0335414)
(0.0105471 -0.365502 -0.0537086)
(-0.000170501 -0.2827 -0.0817108)
(-0.00270035 -0.248916 -0.0931686)
(-0.00783028 -0.219582 -0.109525)
(0.00108865 -0.147041 -0.173329)
(0.00680068 -0.0959864 -0.271234)
(0.00278891 -0.0841246 -0.297249)
(0.00076276 -0.0808537 -0.294364)
(-4.16816e-05 -0.0774347 -0.307852)
(0.000830821 -0.0719074 -0.318918)
(0.0012322 -0.102015 -0.220291)
(-0.000669988 -0.243916 -0.111363)
(0.0127132 -0.565503 -0.0155269)
(0.00106971 -1.22511 -0.00455475)
(-0.0193124 -1.17542 -0.0331455)
(0.00509913 -1.16904 -0.00685878)
(-0.033464 -0.888409 -0.0620028)
(0.00369752 -0.870947 -0.0681703)
(0.00133708 -0.772449 -0.0357716)
(0.0193482 -0.443344 -0.0160593)
(0.00565667 -0.316364 -0.0576914)
(0.00275452 -0.26832 -0.0761909)
(-0.000389662 -0.246386 -0.0839508)
(-0.00557969 -0.230712 -0.0912584)
(-0.00506493 -0.196106 -0.11303)
(0.00241424 -0.105092 -0.221625)
(0.00292842 -0.0784803 -0.296301)
(0.00106751 -0.0759468 -0.294865)
(0.000304259 -0.0723262 -0.310702)
(0.000575386 -0.0739926 -0.32671)
(0.000867674 -0.0952843 -0.236777)
(0.0014447 -0.234772 -0.113488)
(0.0150347 -0.533464 -0.0118524)
(0.00142552 -1.13408 0.000187671)
(0.017224 -1.10212 -0.0319667)
(-0.00390356 -1.16839 -0.00724934)
(-0.0159808 -0.930884 -0.0334983)
(-0.00561519 -0.90586 -0.0608445)
(-0.00273407 -0.785612 -0.00293341)
(0.0094508 -0.354463 0.000875545)
(0.00319575 -0.265423 -0.0563467)
(0.00636352 -0.232523 -0.0692745)
(0.00166262 -0.222002 -0.0728423)
(-0.00139758 -0.215809 -0.0750396)
(-0.00517739 -0.206592 -0.0849366)
(0.000462792 -0.158932 -0.138226)
(0.00475288 -0.0936372 -0.247027)
(0.00218128 -0.0789376 -0.290522)
(0.000198474 -0.0724775 -0.312023)
(0.000987203 -0.069061 -0.324077)
(0.00102401 -0.095509 -0.239519)
(0.000350624 -0.231297 -0.110541)
(-2.07717e-05 -0.496947 -0.00208222)
(0.00582296 -1.10485 0.0082691)
(0.020417 -0.863612 0.00603266)
(-0.0257284 -1.08352 -0.00544019)
(-0.0108603 -0.938965 -0.039185)
(0.000989192 -0.927358 -0.0433272)
(-0.00939034 -0.783807 -0.00550469)
(0.00680025 -0.344873 0.00588548)
(0.004544 -0.20006 -0.0352502)
(0.010334 -0.175134 -0.0473708)
(0.00520128 -0.168209 -0.0475126)
(0.000496666 -0.166423 -0.0483433)
(-0.00576595 -0.168322 -0.052506)
(-0.00103927 -0.162083 -0.0836791)
(0.00213689 -0.104876 -0.191876)
(0.00195039 -0.0769385 -0.277025)
(0.000156281 -0.0716589 -0.299943)
(0.000455385 -0.0721529 -0.29866)
(0.000393723 -0.0910457 -0.235342)
(-0.00215068 -0.204016 -0.103102)
(-0.000922523 -0.444922 0.0029444)
(0.00242532 -1.10375 0.00275567)
(0.011348 -0.703628 0.0364956)
(-0.028629 -1.02478 -0.0201272)
(-0.00554507 -0.936166 -0.0280252)
(0.00185423 -0.947043 -0.0326512)
(-0.0178574 -0.753603 -0.0192565)
(0.00375556 -0.355923 0.00907697)
(0.00405667 -0.0997851 0.0117362)
(0.00480561 -0.0762725 -0.00140655)
(0.00382741 -0.0713078 -0.00248102)
(0.00030832 -0.0662391 -0.00138773)
(-0.0041041 -0.0707525 -0.0053062)
(-0.00441228 -0.0869616 -0.025175)
(0.000458429 -0.0843126 -0.104249)
(0.00214595 -0.0663432 -0.188315)
(0.00123229 -0.0614421 -0.210987)
(0.000151929 -0.0619586 -0.211227)
(0.00153285 -0.07102 -0.180387)
(-0.00564235 -0.159969 -0.054569)
(-0.00113655 -0.528934 -0.00300809)
(-0.0187224 -1.13993 0.00263223)
(0.0149689 -0.723994 0.030431)
(-0.0137928 -0.933066 -0.0194606)
(0.000876032 -0.929151 -0.0023595)
(0.00121986 -1.01802 -0.0158003)
(-0.0112734 -0.66618 -0.0159631)
(-0.00478502 -0.38142 0.00259375)
(0.00707681 -0.0671781 0.00969278)
(0.000227258 -0.0373326 0.00566281)
(0.000306448 -0.0353604 0.0058919)
(0.000395779 -0.0271847 0.00552693)
(0.00100206 -0.0301847 0.00599119)
(0.000426583 -0.0289368 0.0072877)
(-0.000262551 -0.0177245 0.00685095)
(-0.00036622 -0.0181023 0.00508863)
(-0.000555612 -0.0190271 0.0045104)
(-0.00109006 -0.0260105 0.00423693)
(-0.00150303 -0.0365112 0.00384908)
(-0.00566499 -0.0864692 0.00860382)
(-0.00278972 -0.595343 -0.0153524)
(-0.0388328 -1.18539 0.00682112)
(-0.00713891 -0.890548 0.0161629)
(-0.00856836 -0.8845 0.0135167)
(0.00959985 -0.897164 0.00891727)
(0.00027233 -1.12684 0.00663428)
(-0.00103415 -0.571979 0.00413962)
(-0.00461684 -0.434188 -0.00911751)
(0.00547738 -0.0450589 0.00248142)
(-0.000505712 -0.031381 0.000473522)
(6.76087e-05 -0.0238223 0.000758327)
(7.78186e-05 -0.0218881 0.000618459)
(-7.48946e-05 -0.0191165 0.000850206)
(7.32916e-05 -0.0184164 0.000859171)
(-0.000128316 -0.0184775 0.000306182)
(-0.000183595 -0.0171142 0.000359549)
(-5.24976e-05 -0.017985 0.000407779)
(-0.000240394 -0.0223045 0.000484093)
(-0.000234975 -0.0353412 -0.000194462)
(-0.00144515 -0.107212 -0.00184081)
(-0.00580164 -0.621145 -0.0199944)
(-0.0412875 -1.23858 -0.00140912)
(-0.0503553 -1.16169 0.00511002)
(0.00371741 -0.957829 0.0130198)
(0.00820045 -0.993197 0.00759515)
(0.000441626 -1.12649 0.00406829)
(0.000631224 -0.641338 0.00430501)
(0.00423936 -0.433902 -0.0110815)
(0.00161436 -0.0387836 -0.000131586)
(-0.000109265 -0.026731 7.01969e-05)
(-4.08609e-05 -0.0270983 -0.000636283)
(7.29861e-05 -0.0184052 0.000145773)
(7.90141e-05 -0.0200236 -0.00023368)
(0.000195931 -0.0193111 -0.000181994)
(-1.4547e-05 -0.0149948 0.000257261)
(-0.000208677 -0.0186462 -0.000239226)
(-0.000202107 -0.0193551 -0.00027388)
(0.000108175 -0.0255816 -0.000555406)
(0.000488387 -0.0448142 -0.00148894)
(2.96905e-05 -0.124231 -0.00380095)
(-0.0105405 -0.651448 -0.0172267)
(-0.0326611 -1.21017 -0.00588178)
(-0.0546181 -1.2213 -0.000659384)
(0.00361129 -1.19143 -0.00935292)
(0.00112607 -1.07989 0.00349691)
(0.00773762 -1.11693 -0.00248239)
(0.0105689 -0.790043 0.00306256)
(0.00981102 -0.438001 -0.00981115)
(0.000486116 -0.044657 -0.00125505)
(0.000585372 -0.0287315 -2.16754e-05)
(-1.58987e-05 -0.0283826 -2.29951e-05)
(-0.000166265 -0.0194355 -2.31739e-05)
(1.30414e-05 -0.0190376 -1.50372e-05)
(-5.7696e-05 -0.0176965 3.65425e-05)
(1.02797e-05 -0.0140317 0.000133832)
(5.00264e-05 -0.0172269 7.09398e-05)
(-3.66356e-05 -0.0187238 -9.88388e-06)
(5.30805e-05 -0.0264635 -0.000246312)
(0.000114388 -0.0486098 -0.000571239)
(-0.0023422 -0.124135 -0.00331561)
(-0.0187608 -0.669702 -0.0102262)
(-0.0285547 -1.15403 0.00857827)
(-0.0425575 -1.22722 -0.00235477)
(-0.0022453 -1.22172 -0.00855149)
(-0.0021135 -1.08362 -0.0067414)
(0.0188985 -1.07888 0.00190876)
(0.0245244 -0.812405 0.00338554)
(0.011229 -0.429561 -0.0101138)
(0.00127501 -0.0488825 -0.00101988)
(0.000554402 -0.0265013 5.77965e-05)
(8.11243e-05 -0.0265578 0.000144794)
(-0.000227621 -0.0187068 4.91388e-05)
(-0.00030404 -0.0201831 -0.000243627)
(-0.000132115 -0.0187413 -0.00018688)
(1.15416e-05 -0.0132363 -2.14747e-05)
(9.00588e-05 -0.0176215 -4.05738e-05)
(0.000143285 -0.0193978 -0.000135307)
(3.40578e-05 -0.0288282 -0.000356169)
(0.000254213 -0.049742 -0.000510101)
(-0.00538468 -0.144631 -0.00108174)
(-0.01897 -0.665015 -0.00219037)
(-0.0307685 -1.14215 0.00311869)
(-0.0345384 -1.21772 -0.00232134)
(-0.00401499 -1.09214 0.00943718)
(0.00956013 -1.06938 -0.0155131)
(0.0223168 -1.08399 -0.00790162)
(0.0299232 -0.799775 0.000917712)
(0.0139438 -0.423464 -0.0112326)
(0.00273155 -0.0475031 -0.000726671)
(0.000158725 -0.0262002 -2.95227e-05)
(0.000110224 -0.02595 0.000113104)
(0.000123171 -0.0184279 7.98204e-05)
(0.000150943 -0.0222718 3.47591e-06)
(-9.48483e-05 -0.0202759 -2.84631e-05)
(-0.000135494 -0.014283 -6.52346e-05)
(-0.000104311 -0.0177952 -7.03815e-05)
(6.64059e-05 -0.0204325 -0.000151119)
(0.000107253 -0.0312472 -0.000174337)
(0.00152952 -0.0511079 -0.000279739)
(-0.000812626 -0.118581 0.00457163)
(-0.0170414 -0.651142 -0.0108133)
(-0.0319841 -1.06252 0.00231177)
(-0.0202761 -1.18167 -0.0240116)
(-0.013724 -0.851364 0.0509236)
(-0.0126529 -1.03455 0.00819283)
(0.0296439 -1.04381 0.015873)
(0.0352562 -0.783633 -0.0130939)
(0.014247 -0.420327 -0.00874914)
(0.00343306 -0.0434876 -8.19756e-05)
(-4.37014e-05 -0.0245654 -7.07609e-05)
(9.91075e-05 -0.0251836 0.000117814)
(-1.30923e-05 -0.0177036 9.14476e-05)
(-2.09264e-05 -0.0201052 0.000127187)
(-8.60097e-06 -0.0189935 3.80704e-05)
(-6.04107e-05 -0.0140236 2.55325e-06)
(-1.65703e-05 -0.0186692 -0.000203205)
(7.57957e-05 -0.0215952 -0.000252536)
(0.000473041 -0.032445 -0.000137643)
(0.00292497 -0.054104 0.000313998)
(-0.0036673 -0.07166 0.00554203)
(-0.00893193 -0.59961 0.00255149)
(-0.00897132 -0.99142 -0.00222998)
(-0.0217242 -1.01273 -0.00519124)
(-0.0406316 -0.541453 0.104078)
(0.00372958 -1.05521 -0.0029647)
(0.0344821 -1.06213 -5.23409e-05)
(0.0208031 -0.763864 -0.0162464)
(0.00797932 -0.408339 0.00140032)
(0.00464115 -0.0355542 0.000823222)
(-0.000532607 -0.0241383 -1.87017e-05)
(-5.52117e-05 -0.0244913 8.42583e-05)
(-6.23154e-05 -0.0169906 7.11536e-05)
(-1.92846e-05 -0.0207779 -0.000155504)
(-0.000112036 -0.0198693 -0.000203063)
(0.00010988 -0.0142102 -8.22293e-05)
(0.000301346 -0.0206523 -0.00034492)
(1.65864e-06 -0.0242792 -0.000325933)
(0.000692416 -0.0358267 -0.000215931)
(0.00319315 -0.041907 0.00192298)
(-0.00240071 -0.0418388 0.00484435)
(0.0234903 -0.53974 0.0107474)
(0.0112934 -0.579817 0.11172)
(-0.0281955 -0.491339 0.137712)
(-0.0448396 -0.369804 0.0920401)
(0.050153 -1.02758 -0.037246)
(0.0251346 -1.06483 -0.0459496)
(-0.00400369 -0.76734 -0.0392704)
(-0.00698471 -0.405208 -0.0151401)
(-0.000186312 -0.0248467 0.00138944)
(-0.00144284 -0.0214319 0.000339299)
(-0.000165064 -0.0245098 0.000608885)
(8.58955e-05 -0.0166689 -1.01487e-06)
(0.000354415 -0.0220066 0.000387047)
(-0.000277366 -0.0216404 0.000329808)
(-2.39571e-06 -0.0156568 -0.000173351)
(0.000315677 -0.0231678 0.000289064)
(1.14008e-05 -0.0262136 0.000376974)
(0.000809447 -0.0373214 0.000564109)
(0.00304068 -0.026985 0.00258941)
(0.00570114 -0.0321188 0.00490528)
(0.0369749 -0.43439 0.0373409)
(0.00324147 -0.0344488 0.363195)
(-0.00863783 -0.0574076 0.258862)
(-0.0175512 -0.379196 0.0157137)
(0.00580571 -0.865366 0.0419486)
(-0.0292946 -0.973618 0.0369032)
(-0.0297096 -0.706576 0.062141)
(-0.0184805 -0.400783 0.00564143)
(-0.00478462 -0.0224477 0.00141393)
(-0.000696061 -0.0196911 -0.000273441)
(6.35388e-05 -0.0206418 0.000483618)
(-8.38848e-06 -0.0173299 -0.000134542)
(7.17472e-05 -0.018534 0.000433713)
(-5.02276e-06 -0.0183439 0.000427842)
(-2.4092e-05 -0.0176689 -0.00027477)
(0.000131665 -0.0203588 0.000239351)
(0.000241806 -0.0236714 0.000482741)
(-0.000206599 -0.0360574 0.00088025)
(0.00116625 -0.0167307 0.000457872)
(0.0108911 -0.0165155 0.00287914)
(0.0201964 -0.219923 0.11154)
(-0.00037442 -0.00559862 0.285794)
(-2.31422e-05 -0.00939821 0.122203)
(0.0193829 -0.401532 -0.0272114)
(-0.0229657 -0.605062 0.0396879)
(-0.0446134 -0.68198 0.0798383)
(-0.039706 -0.493912 0.168325)
(-0.0262217 -0.344612 0.0630444)
(-0.00621839 -0.0225739 0.00171481)
(0.00035814 -0.0294404 -0.00039415)
(2.53617e-05 -0.0215558 -7.55118e-05)
(-1.77378e-05 -0.0185575 -9.28865e-05)
(-0.000106714 -0.0190921 -3.64033e-05)
(0.000112878 -0.0186654 -2.26081e-05)
(1.46529e-05 -0.0201192 -0.000181399)
(-0.000215531 -0.0237268 -0.000231458)
(0.000117092 -0.0231947 -3.93158e-05)
(-9.71216e-05 -0.0317066 0.000182773)
(6.5004e-06 -0.0336622 -0.000752483)
(0.008035 -0.013186 0.000283938)
(0.003432 -0.103275 0.0677903)
(0.00143906 -0.0124355 0.0269236)
(0.00471035 -0.0348435 -0.0143182)
(0.0140478 -0.351766 -0.0154463)
(-0.190357 -0.404776 -0.24856)
(-0.0335462 -0.671833 -0.302092)
(0.0569743 -0.570637 -0.25947)
(0.0824356 -0.46845 -0.241882)
(0.104181 -0.336089 -0.16227)
(0.0988809 -0.247465 -0.12163)
(0.0605848 -0.18782 -0.0990174)
(0.108626 -0.132716 -0.165664)
(0.0676718 -0.0984269 -0.261782)
(0.00828589 -0.0989642 -0.314009)
(-0.0112108 -0.098694 -0.238028)
(-0.0976309 -0.106712 -0.218054)
(-0.166872 -0.127379 -0.210399)
(-0.149651 -0.17976 -0.228758)
(-0.223261 -0.236958 -0.107869)
(-0.183002 -0.417735 -0.187062)
(-0.238135 -0.697373 -0.352325)
(-0.0686747 -1.11716 -0.577648)
(0.0124975 -0.841284 -0.533439)
(0.275546 -0.914241 -0.613803)
(-0.000349658 -0.362466 0.0337546)
(0.00762719 -0.789739 -0.0281181)
(0.0244449 -0.679419 -0.0553817)
(0.0185612 -0.530083 -0.0435289)
(0.0155148 -0.368114 -0.0660866)
(0.00869963 -0.227625 -0.0934727)
(-0.00525744 -0.176668 -0.130976)
(-0.0328088 -0.0656059 -0.341109)
(0.000859993 -0.03272 -0.578768)
(3.21594e-05 -0.0823385 -0.424549)
(0.000303728 -0.0623516 -0.367563)
(-9.21021e-05 -0.0483431 -0.369652)
(-0.000554569 -0.0479561 -0.447002)
(0.016868 -0.0291381 -0.657717)
(0.0191933 -0.071569 -0.19407)
(0.00074227 -0.299563 -0.0772169)
(-0.0240792 -0.574438 -0.00364884)
(-0.00653304 -1.37014 -0.0841219)
(-0.00757811 -0.962022 -0.0526882)
(-0.00448125 -0.934129 -0.0796138)
(-0.00126902 -0.0197137 0.175424)