/*--------------------------------*- C++ -*----------------------------------*\
| =========                 |                                                 |
| \\      /  F ield         | OpenFOAM: The Open Source CFD Toolbox           |
|  \\    /   O peration     | Version:  2.3.0                                 |
|   \\  /    A nd           | Web:      www.OpenFOAM.org                      |
|    \\/     M anipulation  |                                                 |
\*---------------------------------------------------------------------------*/
FoamFile
{
    version     2.0;
    format      ascii;
    class       surfaceScalarField;
    location    "1.17";
    object      phi.particles;
}
// * * * * * * * * * * * * * * * * * * * * * * * * * * * * * * * * * * * * * //

dimensions      [0 3 -1 0 0 0 0];

internalField   nonuniform List<scalar> 
11770
(
-2.98337e-06
-1.36833e-05
-3.11233e-06
-1.27133e-05
2.15794e-07
-1.23257e-05
3.52107e-06
-1.24698e-05
5.60705e-06
-1.33547e-05
5.65319e-06
-1.70785e-05
3.36861e-06
-2.08912e-05
-3.58296e-10
-2.23078e-05
-3.26448e-06
-1.95225e-05
-5.44231e-06
-1.67837e-05
-6.83975e-06
-1.69178e-05
-7.39212e-06
-1.67946e-05
-7.09765e-06
-1.54131e-05
-7.03603e-06
-1.34644e-05
-8.58391e-06
-1.36802e-05
-1.09877e-05
-1.53392e-05
-1.22866e-05
-1.66358e-05
-1.263e-05
-1.68194e-05
-1.18783e-05
-1.611e-05
-1.00915e-05
-1.47415e-05
-7.69144e-06
-1.46562e-05
-5.48834e-06
-1.52806e-05
-4.33779e-06
-1.61233e-05
-4.44914e-06
-1.78743e-05
-4.76377e-06
-2.01738e-05
-3.4923e-06
-1.93757e-05
-1.64346e-06
-2.04935e-05
-1.24616e-06
-2.2495e-05
-7.48641e-07
-2.22313e-05
-2.0608e-05
-7.61047e-07
2.92202e-07
5.51207e-07
5.6681e-07
4.60679e-06
-2.7493e-06
7.90678e-06
2.59782e-07
6.66758e-06
5.45047e-06
3.68204e-06
6.2671e-06
1.86459e-07
3.16598e-06
-3.66032e-06
1.29893e-06
-5.61419e-06
1.54101e-06
-6.35086e-06
3.6448e-06
-7.41347e-06
4.61416e-06
-8.63477e-06
5.04712e-06
-1.04783e-05
5.82207e-06
-1.2005e-05
6.45272e-06
-1.30102e-05
7.11519e-06
-1.44841e-05
7.12769e-06
-1.54204e-05
7.05703e-06
-1.53221e-05
6.642e-06
-1.4024e-05
5.81526e-06
-1.21e-05
5.1688e-06
-9.8922e-06
4.58894e-06
-7.35577e-06
3.45942e-06
-4.98429e-06
2.38278e-06
-2.9731e-06
1.21333e-06
-3.78508e-06
1.78416e-06
-6.30597e-06
1.47595e-06
-6.74708e-06
-2.46262e-07
-5.38e-06
-1.86785e-06
-3.97572e-06
-2.34728e-06
-5.07074e-06
-8.70829e-07
-1.95555e-08
1.3475e-06
-3.33532e-06
4.05169e-06
-6.99686e-06
7.15398e-06
-4.40755e-06
5.63421e-06
5.12392e-06
2.26504e-06
6.99698e-06
-5.15075e-07
7.06475e-06
-3.24055e-06
6.85348e-06
-4.44461e-06
7.07514e-06
-5.85019e-06
7.33892e-06
-8.02799e-06
1.01e-05
-9.47336e-06
1.15223e-05
-1.19009e-05
1.27763e-05
-1.46898e-05
1.3852e-05
-1.59321e-05
1.49427e-05
-1.64614e-05
1.44255e-05
-1.57858e-05
1.24017e-05
-1.43313e-05
1.06257e-05
-1.26948e-05
8.19986e-06
-1.13174e-05
6.16039e-06
-1.01486e-05
4.90001e-06
-8.76716e-06
3.63506e-06
-7.67396e-06
3.72914e-06
-6.81821e-06
4.79483e-06
-7.22307e-06
5.37024e-06
-7.80233e-06
2.85024e-06
-5.48469e-06
-2.15815e-06
-2.07602e-06
-3.38648e-06
-4.71409e-07
-2.50565e-06
-3.30442e-06
1.89333e-06
-5.17483e-07
6.47874e-06
-5.24365e-06
8.46471e-06
-7.4834e-06
7.73564e-06
-4.20677e-06
3.521e-06
7.6008e-06
-1.05004e-07
1.13181e-05
-4.13808e-07
1.12778e-05
4.8708e-07
1.11835e-05
2.86557e-07
1.32487e-05
-2.06438e-06
1.44961e-05
-5.20678e-06
1.75469e-05
-7.95617e-06
1.8346e-05
-1.09277e-05
1.91869e-05
-1.37196e-05
2.02231e-05
-1.48516e-05
2.07834e-05
-1.45016e-05
1.82573e-05
-1.24648e-05
1.35665e-05
-1.07941e-05
1.13444e-05
-1.07987e-05
1.00079e-05
-1.19281e-05
9.25719e-06
-1.32265e-05
8.97385e-06
-1.45584e-05
9.59521e-06
-1.57329e-05
1.16169e-05
-1.57846e-05
1.22215e-05
-1.37126e-05
1.0923e-05
-9.57431e-06
5.23792e-06
-4.79971e-06
-1.19792e-06
-1.5247e-07
-2.0729e-06
2.09991e-06
3.79051e-06
5.73095e-06
4.57428e-06
-4.21452e-06
1.1591e-05
-1.05421e-05
1.47759e-05
-1.0063e-05
1.15691e-05
-4.80247e-06
2.43619e-06
1.00497e-05
-2.46388e-06
1.8506e-05
1.62774e-07
1.60567e-05
4.38949e-06
1.47468e-05
7.21604e-06
1.87567e-05
5.4865e-06
2.30854e-05
4.09856e-07
2.49137e-05
-4.77706e-06
2.27666e-05
-8.26009e-06
2.14035e-05
-1.08727e-05
2.1319e-05
-1.19883e-05
2.04281e-05
-1.16762e-05
1.46367e-05
-1.0839e-05
7.05172e-06
-1.08416e-05
4.72064e-06
-1.23771e-05
5.13934e-06
-1.51184e-05
6.30963e-06
-1.81909e-05
7.67882e-06
-2.07365e-05
1.08258e-05
-2.171e-05
1.46903e-05
-2.00783e-05
1.52499e-05
-1.59257e-05
1.2339e-05
-1.07037e-05
3.05659e-06
-6.1983e-06
-4.72931e-06
-1.06789e-06
-5.84536e-06
2.41909e-06
5.13912e-06
1.28243e-05
6.5625e-06
-1.01803e-05
1.55861e-05
-1.53854e-05
1.85322e-05
-1.24347e-05
1.51159e-05
-3.13439e-06
5.07362e-06
1.5677e-05
-3.37893e-07
2.56233e-05
4.75953e-06
2.09401e-05
1.02606e-05
1.75562e-05
1.17812e-05
2.30323e-05
8.57873e-06
2.89433e-05
2.74117e-06
2.82594e-05
-2.37012e-06
2.15291e-05
-5.10777e-06
1.51765e-05
-6.61173e-06
1.14452e-05
-7.35037e-06
6.86964e-06
-8.36946e-06
-1.57428e-06
-1.03931e-05
-8.90251e-06
-1.20268e-05
-1.0645e-05
-1.41584e-05
-8.84563e-06
-1.65344e-05
-5.54197e-06
-1.91003e-05
-2.34627e-06
-2.05521e-05
1.88708e-06
-2.01385e-05
6.20713e-06
-1.71478e-05
6.77518e-06
-1.19967e-05
2.88267e-06
-7.52248e-06
-6.13183e-06
-4.31002e-06
-1.27798e-05
-1.26929e-06
-1.28114e-05
1.31169e-06
1.64444e-06
1.57244e-05
8.4373e-06
-1.7679e-05
1.68462e-05
-2.0992e-05
1.75381e-05
-1.53028e-05
1.45807e-05
4.59121e-07
7.14501e-06
2.27004e-05
4.73936e-06
2.76338e-05
1.0876e-05
2.00092e-05
1.40122e-05
1.60261e-05
1.14292e-05
2.18446e-05
6.01961e-06
2.65181e-05
1.6965e-06
2.09946e-05
-7.90575e-07
6.75265e-06
-2.4424e-06
-4.79332e-06
-3.89854e-06
-1.12812e-05
-5.19792e-06
-1.6893e-05
-8.08901e-06
-2.42004e-05
-1.04342e-05
-2.92554e-05
-1.14529e-05
-3.01595e-05
-1.18158e-05
-2.79699e-05
-1.27585e-05
-2.41669e-05
-1.37743e-05
-2.01839e-05
-1.42326e-05
-1.65364e-05
-1.2427e-05
-1.3302e-05
-9.06973e-06
-1.3312e-05
-5.58998e-06
-1.57484e-05
-3.4515e-06
-1.998e-05
-1.85422e-06
-2.33619e-05
-1.71983e-06
-2.25297e-05
-8.86773e-07
-1.01268e-05
8.17964e-06
7.84655e-06
-2.42936e-05
1.21187e-05
-2.85022e-05
1.07042e-05
-2.07128e-05
7.3088e-06
3.77827e-06
4.95616e-06
2.4201e-05
8.96024e-06
2.13272e-05
1.39205e-05
9.55571e-06
1.19103e-05
2.98062e-06
4.7083e-06
4.80972e-06
-1.34204e-06
3.52189e-06
-3.16601e-06
-4.53729e-06
-4.57353e-06
-1.92777e-05
-6.52956e-06
-3.01837e-05
-7.32508e-06
-3.46103e-05
-8.19977e-06
-3.66952e-05
-8.72365e-06
-3.83117e-05
-8.88446e-06
-3.9267e-05
-8.77511e-06
-3.96793e-05
-8.11602e-06
-3.89108e-05
-7.33297e-06
-3.70228e-05
-6.78947e-06
-3.49625e-05
-6.36227e-06
-3.27715e-05
-5.48776e-06
-3.0747e-05
-3.69022e-06
-3.02855e-05
-1.58447e-06
-3.0101e-05
8.61853e-09
-3.06598e-05
-1.95265e-07
-3.22645e-05
-2.05934e-06
-3.26665e-05
-2.56557e-06
-2.63417e-05
-1.3193e-05
3.33835e-06
-2.84163e-05
1.47453e-07
-3.54532e-05
-8.67023e-07
-2.73024e-05
8.55619e-08
-2.523e-06
3.68281e-06
1.26069e-05
9.21449e-06
2.45924e-06
5.54196e-06
-9.89003e-06
-3.5602e-06
-1.95122e-05
-8.54141e-06
-2.33648e-05
-9.44702e-06
-2.82569e-05
-9.65004e-06
-3.42862e-05
-1.01684e-05
-3.93416e-05
-9.33107e-06
-4.0631e-05
-8.08515e-06
-3.99031e-05
-7.36389e-06
-3.85777e-05
-6.78829e-06
-3.76358e-05
-6.13528e-06
-3.72251e-05
-5.63617e-06
-3.77223e-05
-4.79526e-06
-3.76624e-05
-3.52661e-06
-3.62568e-05
-2.24645e-06
-3.46851e-05
-1.4952e-06
-3.37126e-05
-1.02952e-06
-3.29558e-05
-4.78892e-07
-3.19492e-05
4.64693e-07
-3.08327e-05
8.98497e-07
-3.10225e-05
-5.40479e-07
-3.2983e-05
-2.02226e-06
-3.41047e-05
-2.28702e-06
-3.32406e-05
-3.10525e-05
-6.65748e-07
-3.04089e-05
-5.84624e-06
-3.90152e-05
-5.52001e-06
-3.08452e-05
-2.70955e-06
-1.92902e-05
-1.19777e-06
-9.62083e-06
-4.56652e-06
-2.03615e-05
-1.43197e-05
-3.20043e-05
-1.76259e-05
-3.67806e-05
-1.54092e-05
-3.92738e-05
-1.32559e-05
-4.06285e-05
-1.23273e-05
-4.1348e-05
-1.06107e-05
-4.03531e-05
-8.39741e-06
-3.86667e-05
-6.58941e-06
-3.70688e-05
-5.97588e-06
-3.52748e-05
-5.5947e-06
-3.43923e-05
-5.02942e-06
-3.37294e-05
-4.5912e-06
-3.43624e-05
-3.55011e-06
-3.45537e-05
-1.87642e-06
-3.27738e-05
4.21787e-08
-3.06899e-05
1.62032e-06
-2.90675e-05
1.82725e-06
-2.79004e-05
1.0585e-06
-2.69904e-05
4.96947e-07
-2.60927e-05
-6.56379e-07
-2.66273e-05
-2.31523e-06
-2.88214e-05
-3.35362e-06
-2.97593e-05
-3.89407e-06
-2.97188e-05
-2.87745e-05
-2.16566e-06
-2.94071e-05
-8.11107e-06
-3.76555e-05
-6.57727e-06
-3.11606e-05
-3.11164e-06
-3.0744e-05
-1.07948e-05
-3.06089e-05
-1.9147e-05
-3.57929e-05
-2.10344e-05
-3.92567e-05
-1.84612e-05
-4.12977e-05
-1.53081e-05
-4.13885e-05
-1.33936e-05
-3.98153e-05
-1.14205e-05
-3.84728e-05
-9.17386e-06
-3.66894e-05
-6.9161e-06
-3.49395e-05
-4.47484e-06
-3.38529e-05
-3.01222e-06
-3.22945e-05
-1.67779e-06
-3.14019e-05
-6.37176e-07
-3.05736e-05
-1.13514e-06
-3.12285e-05
-1.55896e-06
-3.0862e-05
-2.66585e-07
-2.82318e-05
1.40077e-06
-2.57065e-05
1.94876e-06
-2.35557e-05
1.77023e-06
-2.18125e-05
7.47814e-07
-2.0703e-05
-1.05689e-06
-2.02021e-05
-3.18982e-06
-2.11178e-05
-5.12543e-06
-2.31777e-05
-5.2083e-06
-2.45529e-05
-4.38745e-06
-2.45716e-05
-2.34549e-05
-2.07509e-06
-2.73277e-05
-9.63583e-06
-3.43255e-05
-9.61917e-06
-2.97478e-05
-8.00295e-06
-3.23e-05
-1.61011e-05
-3.40567e-05
-2.06598e-05
-3.58951e-05
-2.0316e-05
-3.84627e-05
-1.7582e-05
-4.03452e-05
-1.48312e-05
-3.894e-05
-1.26222e-05
-3.66954e-05
-9.39343e-06
-3.52393e-05
-5.99824e-06
-3.31658e-05
-3.44398e-06
-3.18575e-05
-1.34312e-06
-3.08611e-05
2.16091e-07
-2.9567e-05
2.24226e-06
-2.8617e-05
3.67119e-06
-2.77662e-05
3.32748e-06
-2.81488e-05
2.31529e-06
-2.73781e-05
2.14608e-06
-2.35708e-05
2.58071e-06
-1.96238e-05
2.35282e-06
-1.71683e-05
1.60107e-06
-1.55644e-05
5.88084e-07
-1.43817e-05
-1.46794e-06
-1.41243e-05
-4.51447e-06
-1.49966e-05
-6.44933e-06
-1.66216e-05
-5.58119e-06
-1.80402e-05
-3.7031e-06
-1.88834e-05
-1.88281e-05
-1.38752e-06
-2.52564e-05
-1.02253e-05
-3.08817e-05
-1.41698e-05
-2.81795e-05
-1.36049e-05
-3.08454e-05
-1.79711e-05
-3.12848e-05
-1.99949e-05
-3.29811e-05
-1.86723e-05
-3.60127e-05
-1.5715e-05
-3.70671e-05
-1.28488e-05
-3.517e-05
-8.83682e-06
-3.32629e-05
-4.39214e-06
-3.1484e-05
-1.85032e-06
-2.94004e-05
2.91966e-08
-2.80166e-05
1.84474e-06
-2.68427e-05
3.24548e-06
-2.56453e-05
5.61439e-06
-2.47845e-05
7.5202e-06
-2.42595e-05
6.8802e-06
-2.43965e-05
4.93925e-06
-2.36302e-05
3.2747e-06
-1.87549e-05
2.86561e-06
-1.37197e-05
3.22134e-06
-1.07618e-05
2.91007e-06
-9.12959e-06
1.25711e-06
-8.22077e-06
-1.41104e-06
-8.09255e-06
-4.39809e-06
-8.82829e-06
-6.30199e-06
-1.01167e-05
-6.25608e-06
-1.1535e-05
-3.63019e-06
-1.25396e-05
-1.26679e-05
-1.83087e-06
-2.29071e-05
-1.26821e-05
-2.70875e-05
-1.776e-05
-2.66637e-05
-1.75029e-05
-2.88288e-05
-1.9247e-05
-2.9088e-05
-1.90389e-05
-3.07742e-05
-1.66019e-05
-3.31282e-05
-1.25243e-05
-3.3182e-05
-8.2709e-06
-3.18702e-05
-3.35412e-06
-2.968e-05
1.02788e-06
-2.70027e-05
2.35452e-06
-2.5129e-05
2.77974e-06
-2.3764e-05
3.71749e-06
-2.24234e-05
5.46793e-06
-2.1323e-05
8.41302e-06
-2.06726e-05
1.08477e-05
-2.03286e-05
1.06296e-05
-2.03054e-05
7.91172e-06
-1.91022e-05
5.22443e-06
-1.32291e-05
4.4233e-06
-7.56823e-06
3.9445e-06
-4.33099e-06
2.66012e-06
-2.73919e-06
6.31636e-07
-2.28166e-06
-1.71615e-06
-2.67775e-06
-4.05304e-06
-3.59164e-06
-5.50782e-06
-4.75571e-06
-5.44397e-06
-5.97749e-06
-3.43309e-06
-6.89741e-06
-7.01548e-06
-1.63414e-06
-2.15174e-05
-1.43742e-05
-2.39821e-05
-2.03717e-05
-2.55783e-05
-1.95939e-05
-2.7361e-05
-1.92485e-05
-2.74633e-05
-1.76534e-05
-2.96144e-05
-1.36962e-05
-3.07133e-05
-7.97426e-06
-2.97751e-05
-2.6308e-06
-2.85927e-05
2.03877e-06
-2.54389e-05
4.50384e-06
-2.21669e-05
4.10078e-06
-2.10812e-05
3.87646e-06
-2.00326e-05
5.16926e-06
-1.88524e-05
7.59726e-06
-1.70681e-05
1.09864e-05
-1.62099e-05
1.35712e-05
-1.58331e-05
1.35039e-05
-1.53476e-05
1.05652e-05
-1.3323e-05
7.17853e-06
-6.56717e-06
5.12541e-06
-8.19131e-07
3.44129e-06
1.97525e-06
1.53949e-06
2.58487e-06
-3.53176e-07
2.16039e-06
-1.95947e-06
1.17475e-06
-3.26344e-06
-1.15199e-07
-4.09211e-06
-1.37685e-06
-4.05726e-06
-2.5636e-06
-2.3742e-06
-3.37216e-06
-3.39887e-06
-3.60585e-06
-2.01526e-05
-1.74183e-05
-2.24071e-05
-2.14908e-05
-2.48259e-05
-1.98058e-05
-2.69335e-05
-1.82056e-05
-2.65404e-05
-1.44849e-05
-2.81259e-05
-9.5563e-06
-2.75883e-05
-3.64032e-06
-2.67361e-05
2.65604e-06
-2.46005e-05
6.70643e-06
-2.05761e-05
7.37226e-06
-1.76174e-05
5.69259e-06
-1.69263e-05
5.31468e-06
-1.55074e-05
7.27728e-06
-1.38888e-05
1.02437e-05
-1.18178e-05
1.34171e-05
-1.08462e-05
1.57022e-05
-1.04428e-05
1.54768e-05
-9.3549e-06
1.21085e-05
-5.75394e-06
7.76279e-06
1.38868e-06
4.56368e-06
5.56702e-06
2.14986e-06
6.60453e-06
3.60197e-07
6.12842e-06
-9.06252e-07
5.00447e-06
-1.82068e-06
3.59019e-06
-2.42565e-06
2.05783e-06
-2.66491e-06
5.45629e-07
-2.4189e-06
-8.23975e-07
-1.18832e-06
-1.82362e-06
-1.82592e-06
-7.12157e-06
-1.94668e-05
-2.05043e-05
-2.24664e-05
-2.14799e-05
-2.43046e-05
-1.86929e-05
-2.66245e-05
-1.58786e-05
-2.5113e-05
-1.05386e-05
-2.61541e-05
-4.26454e-06
-2.38757e-05
1.99347e-06
-2.32009e-05
7.99293e-06
-1.99384e-05
1.09086e-05
-1.61697e-05
1.05244e-05
-1.39205e-05
8.88042e-06
-1.23618e-05
8.37464e-06
-1.03627e-05
9.46947e-06
-7.99114e-06
1.18915e-05
-6.20344e-06
1.51387e-05
-5.26935e-06
1.7305e-05
-4.16882e-06
1.60808e-05
-2.14981e-06
1.14881e-05
3.46928e-06
6.5442e-06
8.7099e-06
3.47456e-06
1.01524e-05
1.64776e-06
9.73224e-06
3.92026e-07
8.54984e-06
-5.5429e-07
7.0165e-06
-1.24549e-06
5.31705e-06
-1.67463e-06
3.55821e-06
-1.7957e-06
1.83956e-06
-1.52671e-06
2.84903e-07
-7.97949e-07
-8.82417e-07
-1.0276e-06
-1.27838e-05
-1.80531e-05
-2.17276e-05
-2.19546e-05
-2.04606e-05
-2.4518e-05
-1.62879e-05
-2.59471e-05
-1.16142e-05
-2.17563e-05
-5.42517e-06
-2.28693e-05
1.6886e-06
-2.00188e-05
8.31107e-06
-1.84692e-05
1.31537e-05
-1.49478e-05
1.47768e-05
-1.20536e-05
1.39348e-05
-9.60469e-06
1.22044e-05
-7.1069e-06
1.12567e-05
-4.85632e-06
1.17894e-05
-2.24763e-06
1.4043e-05
-4.08713e-07
1.70667e-05
9.93409e-07
1.81715e-05
2.97885e-06
1.48843e-05
6.63381e-06
9.31224e-06
1.18399e-05
5.6581e-06
1.35492e-05
3.72208e-06
1.31493e-05
2.36045e-06
1.19566e-05
1.24666e-06
1.03969e-05
3.25488e-07
8.6265e-06
-3.94158e-07
6.73479e-06
-8.86754e-07
4.79993e-06
-1.11345e-06
2.91129e-06
-1.02639e-06
1.1975e-06
-6.32629e-07
-1.01732e-07
-5.33431e-07
-1.50294e-05
-1.56152e-05
-1.91149e-05
-1.89722e-05
-1.6615e-05
-2.3346e-05
-1.22144e-05
-2.31502e-05
-6.037e-06
-1.59545e-05
1.71674e-06
-1.63526e-05
8.62139e-06
-1.46991e-05
1.45262e-05
-1.27827e-05
1.7759e-05
-9.6784e-06
1.79271e-05
-7.55692e-06
1.70197e-05
-4.30124e-06
1.59882e-05
-1.4776e-06
1.47764e-05
7.62355e-07
1.47333e-05
3.38219e-06
1.65687e-05
5.40241e-06
1.8686e-05
7.57616e-06
1.73964e-05
1.07953e-05
1.25811e-05
1.49584e-05
8.48256e-06
1.67659e-05
6.51876e-06
1.63946e-05
5.06435e-06
1.52277e-05
3.77428e-06
1.37188e-05
2.60034e-06
1.19796e-05
1.5596e-06
1.00631e-05
6.89882e-07
8.02524e-06
3.11001e-08
5.9415e-06
-3.79903e-07
3.91049e-06
-5.2362e-07
2.0653e-06
-4.17548e-07
6.26301e-07
-1.19941e-07
-1.21504e-05
-9.04094e-06
-1.50874e-05
-1.00259e-05
-1.0596e-05
-1.56648e-05
-4.81689e-06
-1.36222e-05
1.32539e-06
-8.12024e-06
9.01271e-06
-8.75493e-06
1.51174e-05
-8.91769e-06
1.96186e-05
-6.92055e-06
2.11214e-05
-4.71046e-06
2.01273e-05
-2.22651e-06
1.96214e-05
1.74916e-06
1.96878e-05
4.59447e-06
1.86475e-05
6.64791e-06
1.82204e-05
8.89487e-06
1.92682e-05
1.10738e-05
1.92574e-05
1.43367e-05
1.58351e-05
1.78256e-05
1.17809e-05
1.95343e-05
9.89006e-06
1.93134e-05
8.44403e-06
1.82563e-05
7.04726e-06
1.68703e-05
5.66907e-06
1.52643e-05
4.33786e-06
1.34476e-05
3.10349e-06
1.14361e-05
2.02363e-06
9.27629e-06
1.15576e-06
7.05608e-06
5.38832e-07
4.88571e-06
1.46018e-07
2.90751e-06
-8.21714e-08
1.34912e-06
2.97188e-07
-8.33019e-06
-2.5805e-06
-9.981e-06
2.57058e-06
-6.24239e-06
-1.1373e-06
1.03843e-06
-2.85463e-07
8.44645e-06
-5.4077e-07
1.50948e-05
-2.92292e-06
2.05999e-05
-3.27793e-06
2.35353e-05
-1.16983e-06
2.29065e-05
7.01459e-07
2.17632e-05
4.68236e-06
2.23883e-05
8.61585e-06
2.31239e-05
1.11714e-05
2.23357e-05
1.27705e-05
2.16998e-05
1.4332e-05
2.1264e-05
1.66435e-05
1.881e-05
1.99113e-05
1.53835e-05
2.16455e-05
1.3598e-05
2.16769e-05
1.22691e-05
2.08554e-05
1.08971e-05
1.96735e-05
9.44873e-06
1.82908e-05
7.95158e-06
1.66958e-05
6.44789e-06
1.48645e-05
4.99817e-06
1.27965e-05
3.67329e-06
1.05317e-05
2.55247e-06
8.18388e-06
1.72405e-06
5.84613e-06
1.02543e-06
3.73856e-06
3.92616e-07
2.06943e-06
6.85464e-07
-1.18756e-06
1.86577e-06
-5.32256e-07
9.28606e-06
2.72736e-06
9.08193e-06
8.26019e-06
8.64284e-06
1.49589e-05
5.22247e-06
2.09033e-05
2.79713e-06
2.4885e-05
3.45873e-06
2.55051e-05
5.29196e-06
2.41544e-05
8.59383e-06
2.39878e-05
1.30475e-05
2.52103e-05
1.60978e-05
2.58451e-05
1.78718e-05
2.52346e-05
1.873e-05
2.41142e-05
1.95179e-05
2.18187e-05
2.13487e-05
1.89089e-05
2.308e-05
1.72969e-05
2.33592e-05
1.61495e-05
2.28436e-05
1.49616e-05
2.19257e-05
1.36469e-05
2.081e-05
1.22049e-05
1.95177e-05
1.06582e-05
1.80052e-05
9.03885e-06
1.62271e-05
7.39187e-06
1.41536e-05
5.7847e-06
1.18105e-05
4.30132e-06
9.37645e-06
3.2238e-06
6.74075e-06
1.96539e-06
4.22359e-06
8.41647e-07
2.50358e-06
8.94152e-07
1.53863e-06
7.8799e-06
4.80185e-06
8.31512e-06
9.96213e-06
9.06392e-06
1.50714e-05
1.11534e-05
2.04641e-05
9.01418e-06
2.5492e-05
8.78558e-06
2.77862e-05
1.11283e-05
2.69848e-05
1.43701e-05
2.5898e-05
1.85978e-05
2.63065e-05
2.16843e-05
2.70847e-05
2.33452e-05
2.7234e-05
2.38997e-05
2.66031e-05
2.37215e-05
2.49139e-05
2.35454e-05
2.22451e-05
2.41136e-05
2.05796e-05
2.44086e-05
1.96188e-05
2.4134e-05
1.87056e-05
2.34915e-05
1.77137e-05
2.26672e-05
1.66048e-05
2.17027e-05
1.53467e-05
2.05613e-05
1.39214e-05
1.91939e-05
1.232e-05
1.75373e-05
1.05461e-05
1.55454e-05
8.61467e-06
1.32406e-05
6.55582e-06
1.08746e-05
4.95063e-06
7.95254e-06
2.59612e-06
5.09858e-06
1.09058e-06
2.94366e-06
1.08504e-06
3.91687e-06
1.29799e-05
6.51807e-06
4.84796e-06
1.17428e-05
4.92507e-06
1.79052e-05
9.92175e-06
2.42686e-05
1.19555e-05
2.93181e-05
1.58053e-05
2.98388e-05
2.12849e-05
2.78286e-05
2.56052e-05
2.66353e-05
2.80777e-05
2.64299e-05
2.88345e-05
2.63847e-05
2.85307e-05
2.62008e-05
2.76826e-05
2.57741e-05
2.65182e-05
2.4661e-05
2.54821e-05
2.31703e-05
2.50035e-05
2.22789e-05
2.47295e-05
2.16534e-05
2.43407e-05
2.10818e-05
2.37936e-05
2.046e-05
2.30958e-05
1.97379e-05
2.22651e-05
1.88781e-05
2.12775e-05
1.78279e-05
2.00885e-05
1.65431e-05
1.86296e-05
1.49298e-05
1.68416e-05
1.277e-05
1.48006e-05
1.01003e-05
1.27538e-05
7.5258e-06
9.75133e-06
2.15149e-06
7.06316e-06
9.81048e-07
4.10208e-06
1.43738e-06
6.87834e-06
1.3185e-05
1.02554e-05
1.48761e-06
1.43558e-05
9.85159e-07
1.94301e-05
7.46957e-06
2.70464e-05
1.49213e-05
3.089e-05
2.4561e-05
2.87184e-05
3.17372e-05
2.54367e-05
3.34686e-05
2.38035e-05
3.30236e-05
2.31481e-05
3.21465e-05
2.29457e-05
3.07397e-05
2.30876e-05
2.89989e-05
2.34597e-05
2.72138e-05
2.36954e-05
2.57141e-05
2.35934e-05
2.48017e-05
2.34054e-05
2.44022e-05
2.32455e-05
2.41143e-05
2.30873e-05
2.36932e-05
2.2919e-05
2.31119e-05
2.27097e-05
2.24047e-05
2.24404e-05
2.15677e-05
2.2071e-05
2.05883e-05
2.15616e-05
1.93905e-05
2.07658e-05
1.79437e-05
1.90552e-05
1.6489e-05
1.6263e-05
1.55245e-05
1.18622e-05
1.32151e-05
4.94797e-06
1.07818e-05
1.56707e-06
5.01069e-06
2.07606e-06
9.66871e-06
7.42909e-06
1.37995e-05
-2.54755e-06
1.73201e-05
-1.8235e-06
2.24381e-05
4.36471e-06
2.99635e-05
1.69956e-05
2.99709e-05
2.93486e-05
2.50982e-05
3.47971e-05
2.18865e-05
3.57842e-05
2.08091e-05
3.50732e-05
2.04445e-05
3.36484e-05
2.03792e-05
3.16753e-05
2.06668e-05
2.93548e-05
2.13734e-05
2.71029e-05
2.23474e-05
2.52275e-05
2.32239e-05
2.40491e-05
2.37908e-05
2.35802e-05
2.41623e-05
2.34233e-05
2.44366e-05
2.31813e-05
2.47055e-05
2.27376e-05
2.49768e-05
2.21458e-05
2.52787e-05
2.14422e-05
2.55761e-05
2.06769e-05
2.58421e-05
1.98056e-05
2.58348e-05
1.87893e-05
2.48507e-05
1.81744e-05
2.18391e-05
1.77104e-05
1.69839e-05
1.6408e-05
1.16108e-05
1.21148e-05
6.08119e-06
5.43599e-06
3.62484e-06
1.23089e-05
-1.43548e-06
1.64221e-05
-6.66459e-06
2.03047e-05
-4.2529e-06
2.53136e-05
3.00411e-06
2.80002e-05
1.72686e-05
2.49813e-05
3.12412e-05
2.20738e-05
3.71708e-05
2.06164e-05
3.75798e-05
1.98356e-05
3.62668e-05
1.94154e-05
3.45923e-05
1.92265e-05
3.21601e-05
1.94374e-05
2.93664e-05
2.01087e-05
2.67861e-05
2.11508e-05
2.45794e-05
2.23764e-05
2.30958e-05
2.34909e-05
2.24897e-05
2.435e-05
2.24446e-05
2.50121e-05
2.23822e-05
2.56139e-05
2.20827e-05
2.62115e-05
2.16258e-05
2.68761e-05
2.10088e-05
2.7572e-05
2.03609e-05
2.82325e-05
1.97364e-05
2.88076e-05
1.88454e-05
2.87504e-05
1.85006e-05
2.76932e-05
1.79608e-05
2.48549e-05
1.68681e-05
2.01372e-05
1.20915e-05
1.20101e-05
-1.2017e-06
-1.12508e-05
1.29651e-05
-1.17659e-05
1.62224e-05
-1.07266e-05
1.89973e-05
-5.91598e-06
2.15365e-05
2.74917e-06
2.24082e-05
1.72315e-05
2.11848e-05
3.18217e-05
1.98391e-05
3.78872e-05
1.90706e-05
3.79528e-05
1.88179e-05
3.63989e-05
1.86374e-05
3.49981e-05
1.85319e-05
3.21935e-05
1.87908e-05
2.90906e-05
1.94208e-05
2.63239e-05
2.03807e-05
2.3829e-05
2.16036e-05
2.21061e-05
2.28873e-05
2.1371e-05
2.40076e-05
2.1373e-05
2.49415e-05
2.14892e-05
2.5762e-05
2.12732e-05
2.6518e-05
2.10543e-05
2.73447e-05
2.05319e-05
2.83095e-05
1.97162e-05
2.9363e-05
1.88388e-05
3.08263e-05
1.79798e-05
3.18735e-05
1.77893e-05
3.28137e-05
1.62817e-05
3.31955e-05
2.62898e-06
2.62592e-05
-1.53046e-05
9.99686e-06
-3.49172e-05
-4.17293e-05
1.06696e-05
-2.26978e-05
1.33334e-05
-1.68686e-05
1.44547e-05
-9.11147e-06
1.56743e-05
1.38844e-06
1.61796e-05
1.57884e-05
1.63557e-05
2.84454e-05
1.73056e-05
3.50948e-05
1.73305e-05
3.74204e-05
1.7724e-05
3.54116e-05
1.78227e-05
3.52763e-05
1.78776e-05
3.1351e-05
1.82502e-05
2.83255e-05
1.88663e-05
2.5394e-05
1.97686e-05
2.24866e-05
2.09666e-05
2.08541e-05
2.22314e-05
2.01283e-05
2.3422e-05
2.02459e-05
2.44402e-05
2.06785e-05
2.54192e-05
2.03266e-05
2.6235e-05
2.02158e-05
2.70628e-05
2.02682e-05
2.78795e-05
1.88045e-05
2.91323e-05
1.68496e-05
3.1144e-05
1.66818e-05
3.38552e-05
1.61474e-06
3.22012e-05
-1.13365e-05
2.24522e-05
-3.49963e-05
1.13854e-05
-4.86974e-05
3.88448e-06
-5.386e-05
-5.1664e-05
5.31744e-06
-3.23237e-05
8.45964e-06
-2.4197e-05
8.26589e-06
-1.46717e-05
9.52411e-06
-1.93008e-06
1.12422e-05
2.74976e-07
1.45036e-05
-6.67242e-08
1.62791e-05
3.24568e-06
1.58264e-05
1.345e-05
1.61774e-05
3.15573e-05
1.63565e-05
3.46062e-05
1.70307e-05
2.82255e-05
1.75633e-05
2.7086e-05
1.81459e-05
2.38588e-05
1.90701e-05
1.98848e-05
2.00995e-05
1.84167e-05
2.13935e-05
1.82926e-05
2.27062e-05
1.87387e-05
2.37367e-05
2.02725e-05
2.46545e-05
1.89527e-05
2.55291e-05
1.79766e-05
2.6589e-05
2.13219e-05
2.61244e-05
1.75935e-05
2.78145e-05
1.90237e-06
2.70062e-05
-1.9575e-05
1.95835e-05
-4.35696e-05
1.09681e-05
-5.34472e-05
5.65107e-06
-5.74653e-05
3.63602e-06
-5.35328e-05
2.02102e-06
-5.03344e-05
-4.7518e-05
2.26973e-06
-4.0753e-05
3.10261e-06
-3.34622e-05
2.48945e-06
-2.26406e-05
6.4024e-06
-2.31905e-05
1.0698e-05
-3.12824e-05
1.1228e-05
-3.62135e-05
1.02965e-05
-3.70804e-05
1.00345e-05
-2.94507e-05
1.28407e-05
-9.17095e-06
1.47902e-05
1.75867e-06
1.60035e-05
1.15081e-05
1.67002e-05
2.64585e-05
1.77333e-05
2.14842e-05
1.80608e-05
1.48869e-05
1.88877e-05
1.49817e-05
1.98068e-05
1.53639e-05
2.1757e-05
1.60427e-05
2.30269e-05
2.06194e-05
2.25488e-05
1.57641e-05
2.23449e-05
1.11661e-06
2.27227e-05
-1.44975e-05
2.06114e-05
-2.68276e-05
1.02299e-05
-4.64998e-05
1.14113e-06
-6.84554e-05
-3.28643e-07
-6.9914e-05
1.50054e-06
-6.27999e-05
3.68003e-06
-5.45455e-05
3.9789e-06
-4.84508e-05
2.08414e-06
-4.56163e-05
-4.34339e-05
6.39037e-07
-4.73421e-05
-6.08841e-07
-4.48908e-05
8.65032e-07
-4.41316e-05
2.49406e-06
-4.83759e-05
3.95155e-06
-4.81247e-05
4.9972e-06
-4.76026e-05
4.29842e-06
-4.75541e-05
1.92096e-06
-4.6092e-05
-9.71768e-07
-4.44381e-05
1.51308e-06
-4.15708e-05
9.09122e-06
-3.20602e-05
1.64432e-05
-1.74237e-05
1.7688e-05
-1.80012e-05
1.71087e-05
2.74181e-06
1.67772e-05
8.28425e-06
1.68245e-05
1.06711e-05
1.78228e-05
6.67387e-06
1.8517e-05
-1.58048e-05
1.59384e-05
-2.8139e-05
7.21152e-06
-4.52276e-05
4.30447e-07
-6.33769e-05
-2.93531e-06
-7.01684e-05
-4.70806e-06
-7.23286e-05
-5.27822e-06
-7.19689e-05
-3.43467e-06
-6.79448e-05
-2.65409e-07
-6.00131e-05
1.78377e-06
-5.14066e-05
2.11895e-06
-4.4895e-05
1.19558e-06
-4.15862e-05
-3.98349e-05
1.35196e-06
-5.09696e-05
1.97771e-06
-5.98272e-05
-1.26147e-06
-5.65399e-05
-3.07462e-06
-5.03398e-05
-9.0925e-07
-4.74928e-05
-6.33568e-07
-4.76373e-05
-1.80832e-06
-4.69023e-05
-4.22039e-06
-4.64476e-05
-5.19897e-06
-4.84024e-05
-3.88102e-06
-5.09248e-05
-2.19423e-06
-5.02529e-05
1.75644e-08
-5.36096e-05
6.45815e-06
-5.81501e-05
1.2205e-05
-3.78817e-05
1.32535e-05
-3.10767e-05
1.27767e-05
-3.0061e-05
8.86388e-06
-3.71507e-05
3.8598e-06
-6.01405e-05
2.75964e-07
-6.33772e-05
-3.12123e-06
-6.49183e-05
-5.51364e-06
-6.64593e-05
-6.92178e-06
-6.87105e-05
-7.40967e-06
-6.96957e-05
-7.10744e-06
-6.93026e-05
-4.96935e-06
-6.5567e-05
-1.31116e-06
-5.74094e-05
1.28959e-06
-4.79783e-05
1.52481e-06
-4.09337e-05
4.73058e-07
-3.75643e-05
-3.63945e-05
1.31396e-06
-5.1605e-05
-3.35233e-06
-6.30212e-05
-1.05348e-05
-5.26644e-05
-8.62093e-06
-4.72289e-05
-5.94607e-06
-4.64133e-05
-6.84032e-06
-4.6958e-05
-8.44535e-06
-4.66086e-05
-8.95864e-06
-4.70126e-05
-7.37753e-06
-4.90029e-05
-4.63958e-06
-4.97181e-05
-2.12842e-06
-4.84646e-05
9.94977e-07
-5.35583e-05
3.77391e-06
-5.85949e-05
5.00131e-06
-6.02494e-05
3.97856e-06
-5.96225e-05
1.45504e-06
-5.98633e-05
-1.15731e-06
-6.10708e-05
-3.11818e-06
-6.16605e-05
-4.62024e-06
-6.16712e-05
-6.16532e-06
-6.19616e-05
-7.64013e-06
-6.3394e-05
-8.5491e-06
-6.57047e-05
-8.98862e-06
-6.71088e-05
-8.90074e-06
-6.70286e-05
-7.17285e-06
-6.37797e-05
-3.5921e-06
-5.53205e-05
-2.77847e-07
-4.4871e-05
8.19736e-07
-3.67914e-05
1.09776e-07
-3.31854e-05
-3.28086e-05
-8.84066e-07
-5.03535e-05
-6.52107e-06
-6.05501e-05
-1.4043e-05
-4.91994e-05
-1.26379e-05
-4.63256e-05
-1.16301e-05
-4.641e-05
-1.23803e-05
-4.67405e-05
-1.23339e-05
-4.63523e-05
-1.06348e-05
-4.70497e-05
-7.8106e-06
-4.82648e-05
-4.92375e-06
-4.7073e-05
-2.03032e-06
-4.6497e-05
1.31277e-06
-5.23952e-05
3.40511e-06
-5.69108e-05
2.6654e-06
-5.85091e-05
-4.92511e-07
-5.84538e-05
-3.5848e-06
-5.8911e-05
-5.29745e-06
-5.92885e-05
-6.28492e-06
-5.95539e-05
-7.26305e-06
-5.96841e-05
-8.05505e-06
-5.98575e-05
-9.00655e-06
-6.11301e-05
-9.8239e-06
-6.33038e-05
-1.02382e-05
-6.47211e-05
-1.01074e-05
-6.47236e-05
-8.49558e-06
-6.17901e-05
-4.90389e-06
-5.3486e-05
-1.58961e-06
-4.24119e-05
-5.76905e-07
-3.36521e-05
-6.90374e-07
-2.98818e-05
-2.97908e-05
-2.44834e-06
-4.77563e-05
-8.72048e-06
-5.78263e-05
-1.71011e-05
-4.63892e-05
-1.67376e-05
-4.54997e-05
-1.55736e-05
-4.64556e-05
-1.47139e-05
-4.66435e-05
-1.29943e-05
-4.58318e-05
-1.06035e-05
-4.62052e-05
-7.44765e-06
-4.6633e-05
-4.30412e-06
-4.44454e-05
-1.4682e-06
-4.49104e-05
1.39243e-06
-5.0508e-05
2.33632e-06
-5.5059e-05
-5.34837e-08
-5.65856e-05
-4.18236e-06
-5.69783e-05
-7.64447e-06
-5.74116e-05
-8.81326e-06
-5.77978e-05
-9.05855e-06
-5.73595e-05
-9.3973e-06
-5.70635e-05
-9.79883e-06
-5.73872e-05
-1.03251e-05
-5.83784e-05
-1.08718e-05
-6.04708e-05
-1.11764e-05
-6.20567e-05
-1.12374e-05
-6.21343e-05
-9.94788e-06
-5.95247e-05
-6.49015e-06
-5.14805e-05
-2.64502e-06
-3.97406e-05
-8.87886e-07
-3.0454e-05
-8.28665e-07
-2.63875e-05
-2.64675e-05
-3.04615e-06
-4.54799e-05
-1.02684e-05
-5.47816e-05
-1.88162e-05
-4.38291e-05
-1.93146e-05
-4.45676e-05
-1.73125e-05
-4.62055e-05
-1.47897e-05
-4.61432e-05
-1.27473e-05
-4.45927e-05
-1.01005e-05
-4.43934e-05
-6.76492e-06
-4.4083e-05
-3.32593e-06
-4.24222e-05
-5.14147e-07
-4.3547e-05
1.32111e-06
-4.86655e-05
9.66407e-07
-5.28339e-05
-2.78518e-06
-5.43163e-05
-7.82861e-06
-5.50955e-05
-1.10017e-05
-5.57713e-05
-1.18683e-05
-5.58943e-05
-1.1763e-05
-5.53317e-05
-1.12909e-05
-5.4505e-05
-1.10647e-05
-5.44548e-05
-1.13138e-05
-5.54949e-05
-1.19009e-05
-5.75639e-05
-1.22505e-05
-5.93901e-05
-1.2215e-05
-5.96327e-05
-1.10966e-05
-5.75473e-05
-7.86181e-06
-4.98246e-05
-3.7775e-06
-3.7674e-05
-1.80502e-06
-2.75496e-05
-1.41718e-06
-2.31739e-05
-2.33313e-05
-3.63995e-06
-4.38775e-05
-1.21913e-05
-5.14299e-05
-2.00143e-05
-4.13603e-05
-2.01515e-05
-4.34354e-05
-1.70947e-05
-4.5571e-05
-1.39843e-05
-4.47938e-05
-1.20075e-05
-4.26126e-05
-9.02532e-06
-4.26516e-05
-5.56702e-06
-4.10042e-05
-2.29028e-06
-4.03438e-05
4.46189e-07
-4.19657e-05
1.30186e-06
-4.68986e-05
-5.56478e-07
-5.0309e-05
-5.43236e-06
-5.17924e-05
-1.11488e-05
-5.29478e-05
-1.41261e-05
-5.36434e-05
-1.44801e-05
-5.34923e-05
-1.39632e-05
-5.29693e-05
-1.29563e-05
-5.22898e-05
-1.20808e-05
-5.19853e-05
-1.19015e-05
-5.28019e-05
-1.22008e-05
-5.47818e-05
-1.25147e-05
-5.66195e-05
-1.26793e-05
-5.69053e-05
-1.19597e-05
-5.5077e-05
-9.0733e-06
-4.80692e-05
-4.90715e-06
-3.58907e-05
-2.56237e-06
-2.48633e-05
-1.87146e-06
-2.02459e-05
-2.02815e-05
-3.82275e-06
-4.23087e-05
-1.30647e-05
-4.82321e-05
-1.99338e-05
-3.92448e-05
-1.9669e-05
-4.19376e-05
-1.62031e-05
-4.41677e-05
-1.3132e-05
-4.22792e-05
-1.08673e-05
-4.05336e-05
-7.35641e-06
-4.03032e-05
-3.95138e-06
-3.88416e-05
-9.60661e-07
-3.80662e-05
1.33213e-06
-4.06099e-05
9.33916e-07
-4.46718e-05
-2.34671e-06
-4.74071e-05
-8.1292e-06
-4.89537e-05
-1.39118e-05
-5.03321e-05
-1.63957e-05
-5.09497e-05
-1.66769e-05
-5.09451e-05
-1.57033e-05
-5.03585e-05
-1.41995e-05
-4.95661e-05
-1.30423e-05
-4.92248e-05
-1.25723e-05
-4.98264e-05
-1.28707e-05
-5.16907e-05
-1.3233e-05
-5.36652e-05
-1.3404e-05
-5.40419e-05
-1.28392e-05
-5.24914e-05
-1.02364e-05
-4.6023e-05
-6.04336e-06
-3.42393e-05
-3.33234e-06
-2.23858e-05
-2.36295e-06
-1.72025e-05
-1.71443e-05
-3.44281e-06
-4.04984e-05
-1.33922e-05
-4.46002e-05
-1.95268e-05
-3.70363e-05
-1.82722e-05
-4.00289e-05
-1.44258e-05
-4.19648e-05
-1.18288e-05
-3.96821e-05
-9.29113e-06
-3.87232e-05
-5.76818e-06
-3.71267e-05
-2.2159e-06
-3.65748e-05
5.85121e-07
-3.60253e-05
2.04937e-06
-3.86587e-05
6.61899e-07
-4.20461e-05
-3.76263e-06
-4.40962e-05
-1.01446e-05
-4.56555e-05
-1.59848e-05
-4.71827e-05
-1.83421e-05
-4.79201e-05
-1.84358e-05
-4.78903e-05
-1.73125e-05
-4.76294e-05
-1.54869e-05
-4.68054e-05
-1.39273e-05
-4.63721e-05
-1.30637e-05
-4.69847e-05
-1.30732e-05
-4.86634e-05