/*--------------------------------*- C++ -*----------------------------------*\
| =========                 |                                                 |
| \\      /  F ield         | OpenFOAM: The Open Source CFD Toolbox           |
|  \\    /   O peration     | Version:  2.3.0                                 |
|   \\  /    A nd           | Web:      www.OpenFOAM.org                      |
|    \\/     M anipulation  |                                                 |
\*---------------------------------------------------------------------------*/
FoamFile
{
    version     2.0;
    format      ascii;
    class       volVectorField;
    location    "1.17";
    object      U.airMean;
}
// * * * * * * * * * * * * * * * * * * * * * * * * * * * * * * * * * * * * * //

dimensions      [0 1 -1 0 0 0 0];

internalField   nonuniform List<vector> 
6000
(
(-0.00505734 0.251435 0)
(0.0181942 0.222783 0)
(0.0532313 0.232294 0)
(0.0776286 0.235079 0)
(0.0756598 0.239513 0)
(0.0495566 0.236593 0)
(0.0314788 0.215361 0)
(0.0178751 0.212573 0)
(-0.0026353 0.20885 0)
(-0.0149179 0.203646 0)
(-0.0111561 0.201681 0)
(-0.00256816 0.199871 0)
(-0.0141778 0.224799 0)
(-0.05256 0.248931 0)
(-0.0796628 0.239344 0)
(-0.0562571 0.220336 0)
(-0.0178249 0.211836 0)
(-0.00196585 0.214806 0)
(-0.0123203 0.209242 0)
(-0.0133925 0.204117 0)
(-0.00905601 0.205231 0)
(0.00420725 0.215055 0)
(0.0211214 0.216657 0)
(0.0355004 0.220368 0)
(0.0236213 0.23236 0)
(-0.018501 0.234095 0)
(-0.0374133 0.216197 0)
(-0.0251743 0.223946 0)
(-0.0287141 0.229768 0)
(-0.00910505 0.258127 0)
(0.0221987 0.949349 0)
(0.0486709 0.945054 0)
(0.0780492 0.941393 0)
(0.0847477 0.968421 0)
(0.0749521 1.00425 0)
(0.0740916 1.02137 0)
(0.0711244 1.01597 0)
(0.0402973 1.03182 0)
(0.00391414 1.04311 0)
(-0.0207079 1.00188 0)
(-0.0212616 0.992219 0)
(-0.0276186 1.01684 0)
(-0.0457075 1.0254 0)
(-0.0617673 1.03586 0)
(-0.0694484 0.992035 0)
(-0.0591488 0.931982 0)
(-0.0436245 0.949821 0)
(-0.0320501 1.00114 0)
(-0.0248433 1.00098 0)
(-0.0185101 1.00384 0)
(-0.00330222 0.993742 0)
(0.0100295 0.980624 0)
(0.0225126 0.985004 0)
(0.0126821 1.00285 0)
(-0.0204908 1.04869 0)
(-0.0551491 1.04219 0)
(-0.064682 1.00034 0)
(-0.0606144 0.978437 0)
(-0.0545998 0.994844 0)
(-0.030317 0.910857 0)
(2.41574e-06 0.784706 0)
(0.035497 0.751699 0)
(0.0538227 0.761158 0)
(0.0552164 0.819627 0)
(0.0513272 0.846184 0)
(0.0601293 0.858612 0)
(0.0615355 0.872009 0)
(0.0321453 0.90366 0)
(0.00256188 0.903592 0)
(-0.0115811 0.833099 0)
(-0.00993995 0.821718 0)
(-0.0130419 0.862326 0)
(-0.0289654 0.883021 0)
(-0.0468587 0.899973 0)
(-0.0579015 0.845768 0)
(-0.0683525 0.77767 0)
(-0.073194 0.783872 0)
(-0.0633325 0.815085 0)
(-0.0509041 0.817032 0)
(-0.0380597 0.798217 0)
(-0.013235 0.779874 0)
(0.00613788 0.787415 0)
(0.00781491 0.802278 0)
(-0.020535 0.857903 0)
(-0.0583199 0.906388 0)
(-0.0622137 0.884784 0)
(-0.0435081 0.830432 0)
(-0.0301441 0.811263 0)
(-0.0304125 0.833667 0)
(-0.00619519 0.739801 0)
(-0.00434663 0.792081 0)
(0.0173394 0.761423 0)
(0.0150372 0.78611 0)
(0.024781 0.841266 0)
(0.0343234 0.853175 0)
(0.0459139 0.86415 0)
(0.0422161 0.897827 0)
(0.0216666 0.934539 0)
(0.00744349 0.935704 0)
(-0.000868659 0.859552 0)
(-0.00516457 0.842156 0)
(-0.0073483 0.889538 0)
(-0.0198263 0.909358 0)
(-0.0365426 0.91432 0)
(-0.0568545 0.863734 0)
(-0.0735183 0.79932 0)
(-0.0747611 0.795911 0)
(-0.0663924 0.829933 0)
(-0.0583913 0.834486 0)
(-0.0410003 0.813199 0)
(-0.0242369 0.80449 0)
(-0.0196838 0.811993 0)
(-0.0371378 0.841525 0)
(-0.0719639 0.921985 0)
(-0.0853244 0.919961 0)
(-0.0638144 0.884502 0)
(-0.0308226 0.828065 0)
(-0.00928136 0.823446 0)
(-0.0112526 0.863042 0)
(0.00116522 0.74062 0)
(-0.000342333 0.788988 0)
(-0.000732579 0.745047 0)
(0.00196865 0.772844 0)
(0.0159457 0.819117 0)
(0.0279818 0.837351 0)
(0.0303118 0.860744 0)
(0.0223674 0.9106 0)
(0.00657714 0.948593 0)
(0.000857017 0.939528 0)
(-0.00479093 0.862769 0)
(-0.0129971 0.844731 0)
(-0.0153082 0.886557 0)
(-0.0335775 0.915236 0)
(-0.0535451 0.923641 0)
(-0.0699903 0.874295 0)
(-0.0707929 0.803688 0)
(-0.0616329 0.784496 0)
(-0.0587548 0.830663 0)
(-0.0577952 0.819935 0)
(-0.0440052 0.789068 0)
(-0.0368921 0.786925 0)
(-0.0469684 0.809199 0)
(-0.07294 0.860799 0)
(-0.0921847 0.923516 0)
(-0.086092 0.905985 0)
(-0.0666498 0.856351 0)
(-0.0359933 0.801116 0)
(-0.0155192 0.800077 0)
(-0.00830012 0.862114 0)
(0.00402631 0.725242 0)
(0.000524058 0.784838 0)
(0.00272911 0.739123 0)
(0.000554079 0.761856 0)
(0.0153706 0.802445 0)
(0.0150738 0.826669 0)
(0.0116412 0.860039 0)
(0.00439636 0.915428 0)
(-0.00375621 0.951453 0)
(-0.0116023 0.940287 0)
(-0.0223846 0.873664 0)
(-0.033838 0.849946 0)
(-0.0452873 0.894459 0)
(-0.0695895 0.936935 0)
(-0.0791381 0.927482 0)
(-0.0722481 0.864224 0)
(-0.0508337 0.784477 0)
(-0.0384926 0.787262 0)
(-0.0467252 0.838221 0)
(-0.0546245 0.815035 0)
(-0.0537465 0.780887 0)
(-0.0585226 0.790348 0)
(-0.0741711 0.827339 0)
(-0.0904898 0.871575 0)
(-0.0943526 0.915844 0)
(-0.080556 0.882182 0)
(-0.0666226 0.830405 0)
(-0.0484675 0.771259 0)
(-0.0326379 0.779849 0)
(-0.0192292 0.848216 0)
(0.000210457 0.709903 0)
(0.0017785 0.773219 0)
(0.0118444 0.729253 0)
(0.0138932 0.744385 0)
(0.0116533 0.793782 0)
(0.00514912 0.819868 0)
(-0.00358413 0.857175 0)
(-0.00562137 0.914863 0)
(-0.0128907 0.952526 0)
(-0.0299532 0.948803 0)
(-0.0487857 0.882628 0)
(-0.0659196 0.8551 0)
(-0.0831839 0.902173 0)
(-0.0991172 0.934742 0)
(-0.0833549 0.904631 0)
(-0.061149 0.835128 0)
(-0.0397 0.763597 0)
(-0.037438 0.784307 0)
(-0.0501223 0.848316 0)
(-0.0594823 0.813993 0)
(-0.0664455 0.779187 0)
(-0.0745759 0.792962 0)
(-0.0878879 0.830938 0)
(-0.0975256 0.866579 0)
(-0.0946929 0.890545 0)
(-0.0793071 0.857208 0)
(-0.0700764 0.802251 0)
(-0.0629103 0.745985 0)
(-0.0542898 0.749128 0)
(-0.0414183 0.820119 0)
(-0.0079978 0.680233 0)
(0.00772514 0.753904 0)
(0.0250717 0.710135 0)
(0.0222419 0.735275 0)
(0.00885986 0.796037 0)
(-0.0118722 0.818086 0)
(-0.0154577 0.855199 0)
(-0.0178647 0.909072 0)
(-0.023772 0.960042 0)
(-0.043558 0.961542 0)
(-0.0709062 0.892499 0)
(-0.0944347 0.860916 0)
(-0.106772 0.904872 0)
(-0.100606 0.913303 0)
(-0.0721802 0.879357 0)
(-0.0470727 0.812919 0)
(-0.0326112 0.755977 0)
(-0.0483919 0.805136 0)
(-0.069799 0.851566 0)
(-0.0749268 0.81352 0)
(-0.0821021 0.778384 0)
(-0.0888212 0.794326 0)
(-0.101572 0.832144 0)
(-0.107443 0.860073 0)
(-0.101157 0.867239 0)
(-0.0855878 0.829941 0)
(-0.0761118 0.779826 0)
(-0.0753525 0.72858 0)
(-0.0737792 0.724814 0)
(-0.0587476 0.782866 0)
(-0.0135352 0.636032 0)
(0.0108857 0.727045 0)
(0.0292586 0.687115 0)
(0.0200173 0.725495 0)
(-0.00509447 0.806389 0)
(-0.0256612 0.818135 0)
(-0.0370561 0.856388 0)
(-0.0376362 0.90641 0)
(-0.0409645 0.960977 0)
(-0.0507541 0.975164 0)
(-0.0848282 0.9109 0)
(-0.111246 0.867689 0)
(-0.104408 0.888634 0)
(-0.0819334 0.882581 0)
(-0.0523341 0.854066 0)
(-0.0345517 0.790846 0)
(-0.0355212 0.759956 0)
(-0.0621227 0.828494 0)
(-0.0835308 0.851196 0)
(-0.0867562 0.807621 0)
(-0.0956585 0.773159 0)
(-0.109761 0.794747 0)
(-0.120838 0.833294 0)
(-0.118873 0.850814 0)
(-0.108395 0.842113 0)
(-0.0902696 0.807465 0)
(-0.0818403 0.756357 0)
(-0.0854057 0.718522 0)
(-0.0856357 0.699346 0)
(-0.0637358 0.741335 0)
(-0.0132167 0.586906 0)
(0.0118227 0.698803 0)
(0.0283929 0.670516 0)
(0.0122099 0.731603 0)
(-0.0162105 0.814074 0)
(-0.0371901 0.820285 0)
(-0.0509268 0.861609 0)
(-0.0537592 0.90531 0)
(-0.0534274 0.956489 0)
(-0.0522767 0.987176 0)
(-0.0836854 0.938151 0)
(-0.102776 0.862888 0)
(-0.0843333 0.858768 0)
(-0.0556455 0.851869 0)
(-0.0326908 0.837348 0)
(-0.0284407 0.788192 0)
(-0.0470645 0.781621 0)
(-0.0757851 0.847781 0)
(-0.0873675 0.850871 0)
(-0.0925301 0.804256 0)
(-0.109092 0.782194 0)
(-0.132312 0.802769 0)
(-0.136293 0.828185 0)
(-0.125173 0.834675 0)
(-0.107796 0.822106 0)
(-0.0909192 0.784834 0)
(-0.0847964 0.745424 0)
(-0.0921779 0.71148 0)
(-0.0917764 0.6797 0)
(-0.0642322 0.69229 0)
(-0.0141264 0.546368 0)
(0.0107215 0.671545 0)
(0.025311 0.659463 0)
(0.00341653 0.739469 0)
(-0.0210779 0.814623 0)
(-0.0411663 0.832624 0)
(-0.0572233 0.870291 0)
(-0.0582867 0.914543 0)
(-0.0510888 0.945014 0)
(-0.0397977 0.999838 0)
(-0.0579033 0.958451 0)
(-0.0759743 0.858209 0)
(-0.0604748 0.826896 0)
(-0.0373599 0.83029 0)
(-0.0255781 0.829197 0)
(-0.0337669 0.797706 0)
(-0.0620617 0.810431 0)
(-0.0869665 0.854415 0)
(-0.0889792 0.849949 0)
(-0.0990618 0.806343 0)
(-0.122479 0.802258 0)
(-0.145149 0.807962 0)
(-0.142557 0.818623 0)
(-0.121777 0.818963 0)
(-0.103635 0.802608 0)
(-0.0907023 0.773789 0)
(-0.0888817 0.739324 0)
(-0.0981466 0.710205 0)
(-0.0980968 0.661435 0)
(-0.0719802 0.645463 0)
(-0.0193463 0.513667 0)
(0.0112408 0.645676 0)
(0.0239409 0.656677 0)
(0.000248555 0.749501 0)
(-0.015723 0.81473 0)
(-0.0342719 0.837019 0)
(-0.0469165 0.874976 0)
(-0.0477978 0.913793 0)
(-0.0357614 0.933955 0)
(-0.0194929 0.996545 0)
(-0.0198116 0.983372 0)
(-0.0443222 0.863507 0)
(-0.0450892 0.809915 0)
(-0.0315025 0.82197 0)
(-0.0288752 0.832464 0)
(-0.0454658 0.820011 0)
(-0.0755989 0.834888 0)
(-0.0933467 0.858786 0)
(-0.0906128 0.845245 0)
(-0.102681 0.821286 0)
(-0.129604 0.82402 0)
(-0.14225 0.809875 0)
(-0.129046 0.803765 0)
(-0.110251 0.800667 0)
(-0.100372 0.791749 0)
(-0.0939694 0.765014 0)
(-0.0964581 0.741831 0)
(-0.108006 0.7093 0)
(-0.104203 0.651115 0)
(-0.0786514 0.603093 0)
(-0.0244712 0.472436 0)
(0.00964086 0.619994 0)
(0.0212157 0.660694 0)
(0.00516238 0.749988 0)
(0.00311649 0.810681 0)
(-0.0141612 0.841172 0)
(-0.0255873 0.875473 0)
(-0.0256513 0.912548 0)
(-0.0175434 0.926723 0)
(-0.00453541 0.985835 0)
(0.0114371 0.995426 0)
(-0.0120364 0.888644 0)
(-0.0348798 0.803473 0)
(-0.0351704 0.818187 0)
(-0.0362252 0.837546 0)
(-0.0561756 0.84486 0)
(-0.0849097 0.857795 0)
(-0.0949814 0.858893 0)
(-0.0938528 0.843323 0)
(-0.103276 0.842979 0)
(-0.126493 0.836908 0)
(-0.123885 0.804656 0)
(-0.105681 0.785685 0)
(-0.0953386 0.791933 0)
(-0.0969756 0.786128 0)
(-0.101408 0.766626 0)
(-0.109958 0.744235 0)
(-0.120615 0.710746 0)
(-0.108388 0.635385 0)
(-0.0833666 0.56713 0)
(-0.0219372 0.431397 0)
(0.00598356 0.601423 0)
(0.0191706 0.662565 0)
(0.0167585 0.737778 0)
(0.0262631 0.804417 0)
(0.0153722 0.841985 0)
(0.00324244 0.875583 0)
(0.00229469 0.908271 0)
(0.0027346 0.928164 0)
(0.0149605 0.965817 0)
(0.0332724 0.997673 0)
(0.0184991 0.919405 0)
(-0.0217583 0.823288 0)
(-0.0382866 0.820383 0)
(-0.0478806 0.847729 0)
(-0.0707936 0.875653 0)
(-0.0936748 0.873938 0)
(-0.10004 0.857279 0)
(-0.0942756 0.844332 0)
(-0.101869 0.85999 0)
(-0.109588 0.841087 0)
(-0.0978157 0.791109 0)
(-0.08134 0.771223 0)
(-0.081317 0.79286 0)
(-0.0970155 0.793309 0)
(-0.11315 0.77311 0)
(-0.128743 0.752554 0)
(-0.132258 0.705027 0)
(-0.10737 0.615946 0)
(-0.0779991 0.531266 0)
(-0.0195308 0.39457 0)
(0.00478495 0.589269 0)
(0.0171692 0.656138 0)
(0.0254028 0.716811 0)
(0.0483929 0.78879 0)
(0.0492882 0.840403 0)
(0.0375663 0.873569 0)
(0.0324358 0.907203 0)
(0.02659 0.925612 0)
(0.0389674 0.95533 0)
(0.049444 0.988353 0)
(0.0447103 0.946645 0)
(-0.000914794 0.859461 0)
(-0.0363203 0.833552 0)
(-0.0571453 0.869825 0)
(-0.08408 0.902027 0)
(-0.102211 0.887027 0)
(-0.103711 0.852918 0)
(-0.0962534 0.845247 0)
(-0.0956106 0.862896 0)
(-0.0879774 0.836125 0)
(-0.0699531 0.774149 0)
(-0.0597893 0.763499 0)
(-0.0708331 0.801269 0)
(-0.0974786 0.808208 0)
(-0.126845 0.79001 0)
(-0.143824 0.756304 0)
(-0.133471 0.688495 0)
(-0.0972121 0.586554 0)
(-0.0655871 0.498946 0)
(-0.0148775 0.35956 0)
(0.00394361 0.582897 0)
(0.0124606 0.647839 0)
(0.0276471 0.686691 0)
(0.0641587 0.762018 0)
(0.0799607 0.834223 0)
(0.0717946 0.873688 0)
(0.0660694 0.90865 0)
(0.0590942 0.927386 0)
(0.062704 0.94851 0)
(0.0714733 0.987434 0)
(0.0659684 0.964677 0)
(0.0234577 0.915013 0)
(-0.0236282 0.860828 0)
(-0.0589259 0.901235 0)
(-0.0877046 0.931379 0)
(-0.10871 0.896527 0)
(-0.108014 0.851147 0)
(-0.100615 0.843005 0)
(-0.0868118 0.856285 0)
(-0.0641758 0.817953 0)
(-0.0425124 0.758419 0)
(-0.0406303 0.764174 0)
(-0.0595408 0.818107 0)
(-0.0931936 0.834794 0)
(-0.131329 0.810743 0)
(-0.140885 0.749074 0)
(-0.115748 0.656687 0)
(-0.0766 0.557196 0)
(-0.0508581 0.471196 0)
(-0.0112828 0.33279 0)
(5.43482e-06 0.581008 0)
(0.00491188 0.641286 0)
(0.0270111 0.650199 0)
(0.0715468 0.720876 0)
(0.0999613 0.823387 0)
(0.0972995 0.868389 0)
(0.0964171 0.907841 0)
(0.0944481 0.929611 0)
(0.0898229 0.951107 0)
(0.0935047 0.982197 0)
(0.0885502 0.985632 0)
(0.0490013 0.959823 0)
(0.0039042 0.906773 0)
(-0.0462229 0.93791 0)
(-0.0775224 0.961963 0)
(-0.105483 0.911693 0)
(-0.108138 0.850557 0)
(-0.0950779 0.832621 0)
(-0.0676681 0.833063 0)
(-0.0379165 0.791583 0)
(-0.019294 0.748471 0)
(-0.0244486 0.769975 0)
(-0.0480751 0.837921 0)
(-0.0833906 0.862772 0)
(-0.117296 0.832635 0)
(-0.115307 0.726511 0)
(-0.0873146 0.62418 0)
(-0.0551767 0.531095 0)
(-0.0380427 0.455188 0)
(-0.012348 0.309856 0)
(-0.00639971 0.586539 0)
(0.00290488 0.632092 0)
(0.0288841 0.611971 0)
(0.0735971 0.676735 0)
(0.108874 0.807439 0)
(0.115549 0.859485 0)
(0.121399 0.897235 0)
(0.124045 0.934054 0)
(0.114139 0.957249 0)
(0.112836 0.985383 0)
(0.103512 1.00524 0)
(0.0769644 0.995754 0)
(0.0302093 0.959263 0)
(-0.0185625 0.977459 0)
(-0.0528818 0.997328 0)
(-0.0867366 0.932764 0)
(-0.0938572 0.847664 0)
(-0.0736724 0.80956 0)
(-0.0407854 0.804402 0)
(-0.0156302 0.769789 0)
(-0.00236182 0.744236 0)
(-0.0131233 0.778334 0)
(-0.0360067 0.859941 0)
(-0.0688866 0.889926 0)
(-0.0870423 0.832842 0)
(-0.0837992 0.710786 0)
(-0.059236 0.591608 0)
(-0.0370463 0.516095 0)
(-0.0282405 0.444991 0)
(-0.0112848 0.28722 0)
(-0.00677037 0.594563 0)
(0.00571634 0.612461 0)
(0.0321056 0.579493 0)
(0.0747878 0.632511 0)
(0.112832 0.784254 0)
(0.129198 0.847181 0)
(0.139478 0.883803 0)
(0.146354 0.937281 0)
(0.139703 0.966994 0)
(0.126132 0.994184 0)
(0.115451 1.02405 0)
(0.095289 1.03082 0)
(0.0509506 1.0102 0)
(0.0132957 1.01556 0)
(-0.0171428 1.03183 0)
(-0.0528887 0.958473 0)
(-0.0648893 0.845624 0)
(-0.0472361 0.781108 0)
(-0.0157763 0.783551 0)
(0.00135246 0.754914 0)
(0.00676766 0.744579 0)
(-0.00538105 0.787216 0)
(-0.0266243 0.874725 0)
(-0.0499079 0.907093 0)
(-0.0556448 0.824327 0)
(-0.0550998 0.702092 0)
(-0.0376683 0.56456 0)
(-0.0246264 0.50329 0)
(-0.0198623 0.438763 0)
(-0.00703868 0.26947 0)
(-0.00177361 0.600413 0)
(0.0122145 0.593838 0)
(0.0378369 0.550657 0)
(0.0783964 0.59089 0)
(0.117891 0.756662 0)
(0.141163 0.83377 0)
(0.149561 0.869317 0)
(0.162417 0.931459 0)
(0.153623 0.983397 0)
(0.136256 1.0116 0)
(0.119879 1.03667 0)
(0.10792 1.0617 0)
(0.07127 1.04686 0)
(0.0406614 1.04727 0)
(0.0253515 1.05789 0)
(-0.00964558 0.989325 0)
(-0.0325089 0.852212 0)
(-0.0239868 0.755899 0)
(0.00217278 0.767377 0)
(0.0133883 0.747528 0)
(0.0120595 0.74601 0)
(-0.00176062 0.795671 0)
(-0.018247 0.881876 0)
(-0.0279198 0.916803 0)
(-0.0312048 0.810234 0)
(-0.0325581 0.700168 0)
(-0.0243048 0.544498 0)
(-0.0192994 0.494895 0)
(-0.0142342 0.429862 0)
(0.00154384 0.254634 0)
(0.00398705 0.598124 0)
(0.0233705 0.576502 0)
(0.0507218 0.524228 0)
(0.0865561 0.555599 0)
(0.124394 0.720877 0)
(0.150929 0.821248 0)
(0.158677 0.855739 0)
(0.170464 0.923413 0)
(0.164594 1.00183 0)
(0.141326 1.03155 0)
(0.121283 1.04846 0)
(0.113431 1.08361 0)
(0.0927345 1.08358 0)
(0.0627548 1.06407 0)
(0.0577656 1.07655 0)
(0.0319472 1.02119 0)
(-0.00138952 0.872096 0)
(-0.00565176 0.737528 0)
(0.0135449 0.754294 0)
(0.0211527 0.74298 0)
(0.0137381 0.750436 0)
(0.000547505 0.803734 0)
(-0.0112256 0.880163 0)
(-0.00827103 0.915155 0)
(-0.0164995 0.805262 0)
(-0.0204633 0.699396 0)
(-0.0182078 0.534716 0)
(-0.0186004 0.486887 0)
(-0.00941653 0.41317 0)
(0.00971723 0.250872 0)
(0.00986314 0.585544 0)
(0.0348183 0.55443 0)
(0.0633013 0.498497 0)
(0.0975577 0.525286 0)
(0.131934 0.68578 0)
(0.159209 0.811719 0)
(0.165667 0.84367 0)
(0.177205 0.914941 0)
(0.170202 1.0175 0)
(0.143068 1.05916 0)
(0.118375 1.06037 0)
(0.111979 1.09186 0)
(0.108828 1.10887 0)
(0.0834978 1.08773 0)
(0.0758097 1.08319 0)
(0.058347 1.05114 0)
(0.0258617 0.902645 0)
(0.0112363 0.729322 0)
(0.0198099 0.74265 0)
(0.024995 0.743027 0)
(0.0142205 0.757061 0)
(0.000459051 0.809322 0)
(-0.00571593 0.874316 0)
(0.00154229 0.911435 0)
(-0.0115133 0.808402 0)
(-0.0155528 0.696896 0)
(-0.0190298 0.53183 0)
(-0.019946 0.478534 0)
(-0.00263335 0.393013 0)
(0.0127585 0.254791 0)
(0.0132911 0.563919 0)
(0.0407341 0.53083 0)
(0.0653532 0.47311 0)
(0.098253 0.497916 0)
(0.134795 0.651011 0)
(0.166558 0.800564 0)
(0.171673 0.835839 0)
(0.179821 0.906379 0)
(0.174874 1.03683 0)
(0.144408 1.083 0)
(0.115901 1.07925 0)
(0.10647 1.09068 0)
(0.112202 1.1202 0)
(0.105696 1.11168 0)
(0.0866906 1.09469 0)
(0.072764 1.07286 0)
(0.0500199 0.932594 0)
(0.0289347 0.736196 0)
(0.0258309 0.737295 0)
(0.0289492 0.746026 0)
(0.0144134 0.765274 0)
(9.0591e-05 0.814719 0)
(-0.00745027 0.870432 0)
(-0.000220096 0.906139 0)
(-0.0114877 0.820158 0)
(-0.0125437 0.693294 0)
(-0.0211793 0.533848 0)
(-0.0204267 0.466096 0)
(0.00378827 0.370225 0)
(0.0143317 0.266307 0)
(0.0141856 0.538119 0)
(0.0431584 0.51173 0)
(0.0582353 0.453889 0)
(0.0889562 0.465649 0)
(0.131915 0.611814 0)
(0.171574 0.785826 0)
(0.177989 0.829034 0)
(0.17524 0.90164 0)
(0.170388 1.05365 0)
(0.145389 1.10693 0)
(0.115753 1.10322 0)
(0.101795 1.08927 0)
(0.107694 1.11846 0)
(0.11355 1.12196 0)
(0.102945 1.11984 0)
(0.0852631 1.0875 0)
(0.0734393 0.956726 0)
(0.048101 0.756786 0)
(0.0342259 0.738681 0)
(0.0317422 0.752965 0)
(0.0158167 0.77438 0)
(-0.00134808 0.825819 0)
(-0.0144319 0.874369 0)
(-0.0120624 0.90091 0)
(-0.0179867 0.826371 0)
(-0.0129704 0.69206 0)
(-0.0175999 0.543285 0)
(-0.00852259 0.456111 0)
(0.0137222 0.355233 0)
(0.0139899 0.28416 0)
(0.0141423 0.50855 0)
(0.0438914 0.497236 0)
(0.0523628 0.440495 0)
(0.077093 0.435981 0)
(0.12307 0.565277 0)
(0.172171 0.765588 0)
(0.18203 0.827999 0)
(0.169191 0.907769 0)
(0.158577 1.0602 0)
(0.141232 1.12513 0)
(0.116729 1.12649 0)
(0.0976909 1.09815 0)
(0.0998293 1.10871 0)
(0.110064 1.12417 0)
(0.11143 1.13257 0)
(0.105442 1.10211 0)
(0.0994333 0.978793 0)
(0.0718383 0.787109 0)
(0.0469729 0.751271 0)
(0.0330774 0.759688 0)
(0.0146116 0.785816 0)
(-0.00122561 0.836568 0)
(-0.0208606 0.885304 0)
(-0.0240093 0.896507 0)
(-0.032779 0.827018 0)
(-0.0192142 0.683812 0)
(-0.00773995 0.544395 0)
(0.010794 0.442882 0)
(0.0224975 0.353202 0)
(0.0134902 0.306239 0)
(0.011715 0.478237 0)
(0.0442734 0.482019 0)
(0.050296 0.430126 0)
(0.0697853 0.411373 0)
(0.113114 0.515334 0)
(0.163804 0.736331 0)
(0.181924 0.828952 0)
(0.16265 0.924466 0)
(0.143284 1.06399 0)
(0.130696 1.14207 0)
(0.113104 1.14456 0)
(0.0965967 1.11397 0)
(0.0938982 1.10134 0)
(0.102047 1.11866 0)
(0.115571 1.1334 0)
(0.132235 1.10657 0)
(0.126929 0.99999 0)
(0.0978499 0.823324 0)
(0.0636551 0.773369 0)
(0.0327449 0.773608 0)
(0.00958249 0.793108 0)
(-0.00534709 0.846984 0)
(-0.0226576 0.89191 0)
(-0.0265538 0.895096 0)
(-0.0328981 0.823634 0)
(-0.0128584 0.657547 0)
(0.00944389 0.529259 0)
(0.0294508 0.431229 0)
(0.0238468 0.364897 0)
(0.00925539 0.326483 0)
(0.00812941 0.452493 0)
(0.0427247 0.466531 0)
(0.0511983 0.420276 0)
(0.0671033 0.390942 0)
(0.100685 0.470438 0)
(0.148308 0.698059 0)
(0.170327 0.828921 0)
(0.14945 0.943106 0)
(0.124767 1.07331 0)
(0.115976 1.15218 0)
(0.106374 1.15606 0)
(0.0974879 1.12469 0)
(0.0906575 1.10303 0)
(0.0961898 1.10896 0)
(0.119966 1.11802 0)
(0.150136 1.09506 0)
(0.140951 1.02687 0)
(0.111314 0.854781 0)
(0.0857042 0.805718 0)
(0.0445075 0.798414 0)
(0.0134411 0.811909 0)
(-0.00558118 0.859986 0)
(-0.0153153 0.903191 0)
(-0.00288965 0.891359 0)
(-0.0010139 0.815336 0)
(0.0122053 0.623959 0)
(0.0328863 0.498644 0)
(0.0467851 0.41721 0)
(0.0293503 0.365256 0)
(0.00615492 0.328127 0)
(0.00556494 0.427458 0)
(0.0415112 0.446594 0)
(0.0514345 0.411643 0)
(0.0651391 0.37584 0)
(0.0871295 0.433052 0)
(0.128401 0.660426 0)
(0.1465 0.828467 0)
(0.12814 0.960931 0)
(0.103235 1.08285 0)
(0.0977903 1.15732 0)
(0.0964098 1.16084 0)
(0.098039 1.13097 0)
(0.0917171 1.10951 0)
(0.0951571 1.09798 0)
(0.119443 1.09239 0)
(0.147075 1.08562 0)
(0.135448 1.04983 0)
(0.112786 0.88246 0)
(0.0873658 0.832412 0)
(0.0465992 0.823271 0)
(0.015118 0.827887 0)
(-0.00449452 0.868127 0)
(0.00116638 0.886433 0)
(0.0274934 0.862718 0)
(0.0404919 0.809726 0)
(0.0481648 0.604782 0)
(0.0565722 0.483183 0)
(0.0580459 0.42121 0)
(0.0377954 0.393724 0)
(0.0147587 0.345536 0)
(0.00721043 0.401358 0)
(0.0416653 0.428665 0)
(0.0493381 0.399807 0)
(0.0626229 0.365863 0)
(0.0758412 0.405141 0)
(0.107233 0.627226 0)
(0.120842 0.828933 0)
(0.102847 0.976428 0)
(0.0801986 1.09366 0)
(0.076329 1.15161 0)
(0.0839208 1.15623 0)
(0.0933097 1.13215 0)
(0.0919859 1.11259 0)
(0.0931946 1.09342 0)
(0.109893 1.06639 0)
(0.125799 1.07966 0)
(0.118517 1.06783 0)
(0.0985934 0.904352 0)
(0.0770161 0.853124 0)
(0.045296 0.847095 0)
(0.0161287 0.852261 0)
(0.00286537 0.869255 0)
(0.0190857 0.861504 0)
(0.0392289 0.83447 0)
(0.0589038 0.787747 0)
(0.0736986 0.578909 0)
(0.0758181 0.472884 0)
(0.0654603 0.423418 0)
(0.0405347 0.402426 0)
(0.0202543 0.369836 0)
(0.00935281 0.372273 0)
(0.0440844 0.418342 0)
(0.0478367 0.388215 0)
(0.0617881 0.357133 0)
(0.068026 0.387611 0)
(0.0890479 0.598827 0)
(0.0999024 0.829522 0)
(0.082219 0.994068 0)
(0.0600958 1.09974 0)
(0.0576831 1.14354 0)
(0.0700888 1.14543 0)
(0.0818917 1.12601 0)
(0.0860275 1.11343 0)
(0.088496 1.09031 0)
(0.0954808 1.05275 0)
(0.0963731 1.07287 0)
(0.0923911 1.07843 0)
(0.0816486 0.919655 0)
(0.0709568 0.869811 0)
(0.0462749 0.873302 0)
(0.0210122 0.870396 0)
(0.0142012 0.866528 0)
(0.0270888 0.838733 0)
(0.0377082 0.821552 0)
(0.0543453 0.761209 0)
(0.0776692 0.55212 0)
(0.0793297 0.467887 0)
(0.0680132 0.427267 0)
(0.0415748 0.410741 0)
(0.0208721 0.387492 0)
(0.0053958 0.341094 0)
(0.0428519 0.411213 0)
(0.046094 0.372297 0)
(0.0585955 0.350192 0)
(0.0580149 0.381995 0)
(0.0719681 0.568592 0)
(0.0869926 0.833167 0)
(0.0685945 1.0087 0)
(0.0469879 1.10569 0)
(0.0469648 1.13199 0)
(0.0587359 1.13436 0)
(0.0674193 1.12138 0)
(0.0736576 1.10965 0)
(0.0763916 1.08507 0)
(0.0762269 1.05018 0)
(0.065351 1.07462 0)
(0.0615936 1.08335 0)
(0.0637001 0.92291 0)
(0.0647926 0.885135 0)
(0.0502841 0.896143 0)
(0.0280848 0.887549 0)
(0.0227776 0.859699 0)
(0.0227992 0.827254 0)
(0.0248716 0.815984 0)
(0.0411516 0.729999 0)
(0.0686723 0.531068 0)
(0.0740387 0.469773 0)
(0.0660874 0.440593 0)
(0.0403832 0.43185 0)
(0.0193076 0.414454 0)
(0.0005489 0.316178 0)
(0.0343211 0.399946 0)
(0.0391493 0.352788 0)
(0.0518642 0.347405 0)
(0.0445244 0.37951 0)
(0.0571805 0.540631 0)
(0.0740389 0.83296 0)
(0.0585475 1.02467 0)
(0.0414959 1.10379 0)
(0.042572 1.12389 0)
(0.0501323 1.12397 0)
(0.0557642 1.11485 0)
(0.0614189 1.10642 0)
(0.0661131 1.08058 0)
(0.0583045 1.05974 0)
(0.0391414 1.08003 0)
(0.0367995 1.0839 0)
(0.0503372 0.921281 0)
(0.0555754 0.890878 0)
(0.0470988 0.916528 0)
(0.029058 0.898832 0)
(0.0208613 0.86074 0)
(0.0106989 0.824729 0)
(0.00501835 0.813356 0)
(0.0257635 0.695414 0)
(0.0545038 0.513939 0)
(0.0645706 0.472474 0)
(0.0607033 0.45697 0)
(0.0361475 0.458831 0)
(0.0169551 0.442814 0)
(-0.0037876 0.299258 0)
(0.0203428 0.38859 0)
(0.0268148 0.335948 0)
(0.0373269 0.347811 0)
(0.0312556 0.38106 0)
(0.0389467 0.514156 0)
(0.0536136 0.830579 0)
(0.0470368 1.03054 0)
(0.0387377 1.10025 0)
(0.0414717 1.1163 0)
(0.0456144 1.1193 0)
(0.0479069 1.11288 0)
(0.0531855 1.09889 0)
(0.0563505 1.07903 0)
(0.0434087 1.07227 0)
(0.0197786 1.09278 0)
(0.0206004 1.07687 0)
(0.03748 0.911823 0)
(0.0377746 0.896668 0)
(0.0318694 0.929789 0)
(0.0151662 0.907503 0)
(0.00762948 0.863072 0)
(-0.00484349 0.830701 0)
(-0.012931 0.811334 0)
(0.0114957 0.657567 0)
(0.0411478 0.498728 0)
(0.0553479 0.469934 0)
(0.0538032 0.470426 0)
(0.0302027 0.484011 0)
(0.0141709 0.465081 0)
(-0.00724034 0.294969 0)
(0.00615793 0.377527 0)
(0.0110555 0.321877 0)
(0.0194118 0.345745 0)
(0.0171627 0.384291 0)
(0.0178585 0.498362 0)
(0.0315075 0.821498 0)
(0.0366043 1.03218 0)
(0.0378664 1.09011 0)
(0.0430823 1.11158 0)
(0.0446436 1.11889 0)
(0.0442272 1.11061 0)
(0.0472926 1.09582 0)
(0.0479112 1.0813 0)
(0.0293311 1.09224 0)
(0.00674316 1.1042 0)
(0.00924711 1.06983 0)
(0.0210871 0.910628 0)
(0.016711 0.90225 0)
(0.0109019 0.946846 0)
(-0.00458871 0.914547 0)
(-0.0100795 0.869879 0)
(-0.0190908 0.838372 0)
(-0.0255687 0.808656 0)
(0.000615937 0.620123 0)
(0.0331139 0.48267 0)
(0.0500364 0.466538 0)
(0.0476816 0.481683 0)
(0.0239292 0.510242 0)
(0.0112756 0.483557 0)
(-0.00747039 0.298268 0)
(-0.00157313 0.373504 0)
(-0.00315341 0.316583 0)
(0.0014513 0.343847 0)
(-0.000329246 0.392047 0)
(-0.00305901 0.488311 0)
(0.00987856 0.803925 0)
(0.0315314 1.02148 0)
(0.040154 1.07766 0)
(0.0474849 1.10613 0)
(0.0480429 1.12041 0)
(0.0452094 1.11429 0)
(0.0456449 1.09128 0)
(0.0410385 1.09256 0)
(0.0203403 1.11087 0)
(-0.000570378 1.118 0)
(-3.05716e-05 1.06567 0)
(0.00438681 0.914667 0)
(-0.00560437 0.910544 0)
(-0.0138286 0.961047 0)
(-0.0263223 0.920279 0)
(-0.0312511 0.872243 0)
(-0.0346518 0.844788 0)
(-0.0363934 0.801484 0)
(-0.00464892 0.582525 0)
(0.0316264 0.462201 0)
(0.0483187 0.464117 0)
(0.0431445 0.494352 0)
(0.0200591 0.533898 0)
(0.0097858 0.49686 0)
(-0.00737631 0.302413 0)
(-0.00413631 0.375465 0)
(-0.0127915 0.319439 0)
(-0.0122515 0.3458 0)
(-0.017137 0.40108 0)
(-0.021544 0.48396 0)
(-0.0066412 0.774223 0)
(0.02895 1.00332 0)
(0.0460802 1.06443 0)
(0.0524958 1.09839 0)
(0.0530525 1.12785 0)
(0.049402 1.11663 0)
(0.0481136 1.0956 0)
(0.0381761 1.10548 0)
(0.0155132 1.13219 0)
(-0.00150311 1.12667 0)
(-0.00648451 1.06978 0)
(-0.00967241 0.92507 0)
(-0.0253044 0.920994 0)
(-0.0348991 0.97519 0)
(-0.0455973 0.92224 0)
(-0.0506685 0.876004 0)
(-0.0542834 0.846823 0)
(-0.0424232 0.784694 0)
(-0.000757105 0.543028 0)
(0.0359031 0.442657 0)
(0.0464192 0.464701 0)
(0.0399239 0.505931 0)
(0.0194764 0.556163 0)
(0.0119205 0.510551 0)
(-0.00970067 0.305404 0)
(-0.00457182 0.376643 0)
(-0.0121171 0.323757 0)
(-0.0213624 0.3534 0)
(-0.0323036 0.414579 0)
(-0.0354767 0.478763 0)
(-0.016606 0.742561 0)
(0.0294768 0.968982 0)
(0.0539662 1.05217 0)
(0.0592693 1.09278 0)
(0.0572882 1.13285 0)
(0.0549995 1.12055 0)
(0.0523692 1.09983 0)
(0.0374356 1.12585 0)
(0.0141198 1.14924 0)
(-0.00077994 1.13699 0)
(-0.00930208 1.07919 0)
(-0.0200652 0.942292 0)
(-0.040469 0.933432 0)
(-0.0500108 0.990922 0)
(-0.0618592 0.929066 0)
(-0.0694377 0.881509 0)
(-0.0692397 0.842769 0)
(-0.0384425 0.754277 0)
(0.0124388 0.501736 0)
(0.0406222 0.431081 0)
(0.042024 0.467856 0)
(0.0359834 0.516085 0)
(0.0203928 0.57037 0)
(0.0144962 0.525365 0)
(-0.0151674 0.31095 0)
(-0.00688657 0.372188 0)
(-0.0122086 0.335643 0)
(-0.0305538 0.371106 0)
(-0.0492336 0.427077 0)
(-0.0468628 0.472321 0)
(-0.0207807 0.70416 0)
(0.0310392 0.929276 0)
(0.0635985 1.03911 0)
(0.066726 1.09069 0)
(0.0610198 1.13985 0)
(0.0600055 1.11799 0)
(0.0545236 1.11111 0)
(0.0370405 1.14314 0)
(0.0142255 1.17049 0)
(0.00023826 1.14255 0)
(-0.010553 1.09495 0)
(-0.0259068 0.965801 0)
(-0.0513622 0.948011 0)
(-0.0620002 1.00585 0)
(-0.0758152 0.941328 0)
(-0.0851284 0.885078 0)
(-0.0733935 0.826873 0)
(-0.0216521 0.708744 0)
(0.0277334 0.467365 0)
(0.0401472 0.431104 0)
(0.0349871 0.472844 0)
(0.0305995 0.521111 0)
(0.0166801 0.579555 0)
(0.0159852 0.539791 0)
(-0.0195842 0.322369 0)
(-0.0121977 0.362385 0)
(-0.0142814 0.346782 0)
(-0.0356043 0.396335 0)
(-0.0600676 0.438756 0)
(-0.0563288 0.461564 0)
(-0.0278553 0.659893 0)
(0.0315055 0.882272 0)
(0.0706158 1.02116 0)
(0.0737819 1.0935 0)
(0.065568 1.1429 0)
(0.0638334 1.12227 0)
(0.0532773 1.12112 0)
(0.0353141 1.16389 0)
(0.0152642 1.18439 0)
(0.00101396 1.15409 0)
(-0.0103062 1.10593 0)
(-0.0309038 0.995732 0)
(-0.0595024 0.965602 0)
(-0.0742208 1.01857 0)
(-0.0871351 0.958661 0)
(-0.0951225 0.881603 0)
(-0.0651789 0.793733 0)
(-0.000704066 0.655799 0)
(0.0357484 0.450081 0)
(0.0341751 0.438428 0)
(0.025509 0.477266 0)
(0.0197573 0.526314 0)
(0.00670487 0.580962 0)
(0.0150039 0.550642 0)
(-0.018987 0.338682 0)
(-0.013618 0.355236 0)
(-0.0216138 0.355975 0)
(-0.0421062 0.42297 0)
(-0.0642658 0.448883 0)
(-0.0629307 0.454335 0)
(-0.036382 0.609552 0)
(0.0276517 0.832875 0)
(0.0727752 0.999315 0)
(0.0766057 1.09352 0)
(0.0702636 1.14834 0)
(0.0643325 1.12534 0)
(0.0514712 1.13791 0)
(0.0321787 1.17774 0)
(0.0152372 1.20207 0)
(0.000775486 1.16365 0)
(-0.0117588 1.12054 0)
(-0.0365962 1.02931 0)
(-0.0689759 0.987459 0)
(-0.0858538 1.02934 0)
(-0.0939378 0.976767 0)
(-0.0935049 0.867767 0)
(-0.0485105 0.744954 0)
(0.0113475 0.610216 0)
(0.0334249 0.447059 0)
(0.0242771 0.448837 0)
(0.0118826 0.484006 0)
(0.00556903 0.528384 0)
(-0.00480596 0.579452 0)
(0.0109552 0.553335 0)
(-0.0117705 0.350044 0)
(-0.00621511 0.359341 0)
(-0.027905 0.369617 0)
(-0.0473078 0.443174 0)
(-0.0638199 0.458958 0)
(-0.0639849 0.449247 0)
(-0.0418131 0.561232 0)
(0.0188417 0.775945 0)
(0.0690767 0.972387 0)
(0.0781046 1.0943 0)
(0.073321 1.14706 0)
(0.0649027 1.13598 0)
(0.0499062 1.15208 0)
(0.0289691 1.19551 0)
(0.0121702 1.21333 0)
(-0.00378152 1.18179 0)
(-0.0181625 1.13181 0)
(-0.0474319 1.06915 0)
(-0.079645 1.01114 0)
(-0.0946415 1.03524 0)
(-0.0925609 0.98561 0)
(-0.0813241 0.8417 0)
(-0.0368014 0.699017 0)
(0.00943832 0.577668 0)
(0.0225717 0.451281 0)
(0.0108968 0.461897 0)
(-0.00543344 0.491728 0)
(-0.00933377 0.527151 0)
(-0.0161237 0.573748 0)
(0.00738466 0.547496 0)
(-0.00395015 0.352317 0)
(0.0022805 0.373773 0)
(-0.0274151 0.392504 0)
(-0.0511046 0.457563 0)
(-0.0594947 0.466149 0)
(-0.0590866 0.446011 0)
(-0.0386466 0.519745 0)
(0.0101462 0.722166 0)
(0.0606299 0.941636 0)
(0.0768004 1.08928 0)
(0.0750062 1.15072 0)
(0.0678855 1.14368 0)
(0.0507619 1.17343 0)
(0.0277622 1.20958 0)
(0.00615298 1.23317 0)
(-0.0124852 1.1965 0)
(-0.0301656 1.15225 0)
(-0.0595004 1.10467 0)
(-0.0871308 1.03423 0)
(-0.0980752 1.03057 0)
(-0.0853598 0.983768 0)
(-0.0686838 0.81527 0)
(-0.0374611 0.666078 0)
(-0.00451863 0.553901 0)
(0.00547984 0.457318 0)
(-0.00792527 0.477197 0)
(-0.0222796 0.498557 0)
(-0.0242799 0.521147 0)
(-0.0270165 0.566741 0)
(0.00358756 0.53612 0)