/*--------------------------------*- C++ -*----------------------------------*\
| =========                 |                                                 |
| \\      /  F ield         | OpenFOAM: The Open Source CFD Toolbox           |
|  \\    /   O peration     | Version:  2.3.0                                 |
|   \\  /    A nd           | Web:      www.OpenFOAM.org                      |
|    \\/     M anipulation  |                                                 |
\*---------------------------------------------------------------------------*/
FoamFile
{
    version     2.0;
    format      ascii;
    class       volScalarField;
    location    "0.02";
    object      alpha.air;
}
// * * * * * * * * * * * * * * * * * * * * * * * * * * * * * * * * * * * * * //

dimensions      [0 0 0 0 0 0 0];

internalField   nonuniform List<scalar> 
6000
(
0.508222
0.508506
0.50869
0.508825
0.508956
0.509011
0.509027
0.509031
0.509031
0.50903
0.50903
0.50903
0.509029
0.509027
0.509026
0.509025
0.509023
0.509024
0.509025
0.509025
0.509025
0.509026
0.509026
0.509022
0.509005
0.508951
0.508818
0.508684
0.508497
0.508212
0.500689
0.497065
0.500023
0.504043
0.507082
0.508545
0.508592
0.508607
0.508611
0.508611
0.508611
0.50861
0.508608
0.508607
0.508605
0.508604
0.508603
0.508602
0.508604
0.508605
0.508605
0.508605
0.508601
0.508586
0.508538
0.507066
0.504029
0.500013
0.497057
0.50068
0.479884
0.472081
0.47403
0.479081
0.484103
0.487789
0.489648
0.490532
0.49093
0.491088
0.491136
0.49114
0.491129
0.491118
0.491111
0.491111
0.491117
0.491126
0.491134
0.491128
0.491077
0.490918
0.490518
0.489629
0.487764
0.484074
0.479056
0.474017
0.47208
0.47988
0.466499
0.459422
0.4592
0.461401
0.464332
0.467144
0.469264
0.47057
0.471281
0.471629
0.471781
0.471837
0.471852
0.471852
0.47185
0.47185
0.471852
0.47185
0.471832
0.471772
0.471617
0.471265
0.47055
0.46924
0.467115
0.464302
0.461371
0.459177
0.459419
0.466511
0.459834
0.455083
0.454659
0.45545
0.456635
0.458021
0.459314
0.460293
0.460928
0.461296
0.46149
0.461584
0.461626
0.461643
0.461648
0.461649
0.461642
0.461624
0.461579
0.461482
0.461284
0.460914
0.460275
0.459293
0.457998
0.456609
0.455416
0.454617
0.455057
0.459848
0.456036
0.45324
0.453255
0.45379
0.454396
0.45509
0.455793
0.456391
0.456828
0.45711
0.457277
0.457367
0.457413
0.457435
0.457443
0.457444
0.457435
0.457412
0.457364
0.457272
0.457103
0.456818
0.45638
0.45578
0.455078
0.454383
0.453767
0.453209
0.453186
0.456025
0.453762
0.45227
0.452589
0.453093
0.45353
0.453954
0.454365
0.454725
0.455003
0.455196
0.455318
0.455388
0.455427
0.455447
0.455455
0.455455
0.455447
0.455427
0.455388
0.455316
0.455193
0.455
0.454721
0.454362
0.453954
0.453533
0.453094
0.452566
0.452211
0.453715
0.452394
0.451724
0.452189
0.452652
0.452996
0.453283
0.453538
0.453758
0.453933
0.45406
0.454144
0.454196
0.454227
0.454243
0.45425
0.454249
0.454243
0.454226
0.454195
0.454142
0.454058
0.453931
0.453758
0.45354
0.453288
0.453008
0.452673
0.452202
0.451694
0.452332
0.451569
0.451427
0.451961
0.452375
0.452634
0.452826
0.452984
0.453117
0.453226
0.45331
0.453368
0.453408
0.453432
0.453445
0.453449
0.453448
0.453442
0.453427
0.453403
0.453363
0.453304
0.453222
0.453115
0.452985
0.45283
0.452645
0.452398
0.451999
0.451439
0.451525
0.451088
0.451294
0.451863
0.452231
0.452422
0.452546
0.452638
0.452712
0.452778
0.452833
0.452875
0.452907
0.452926
0.452937
0.452938
0.452936
0.45293
0.452915
0.452896
0.452864
0.452822
0.452769
0.452706
0.452636
0.452547
0.452426
0.452243
0.4519
0.451331
0.451078
0.45083
0.45126
0.451841
0.452163
0.452332
0.452424
0.452469
0.452491
0.452529
0.452565
0.452594
0.45262
0.452636
0.452646
0.452644
0.452642
0.452636
0.452622
0.452605
0.45258
0.452551
0.452516
0.452482
0.452461
0.452421
0.452324
0.452165
0.451862
0.4513
0.450846
0.450707
0.451269
0.45185
0.452131
0.452251
0.452338
0.452379
0.452393
0.452433
0.452451
0.452463
0.452488
0.452505
0.452513
0.452509
0.452507
0.452501
0.452488
0.452464
0.452448
0.452438
0.452412
0.452382
0.452372
0.452335
0.452247
0.452124
0.451853
0.451302
0.450735
0.450658
0.451297
0.45189
0.452175
0.452297
0.452304
0.452294
0.452305
0.452344
0.452361
0.452373
0.452397
0.452414
0.452423
0.452419
0.452417
0.45241
0.452397
0.452374
0.452358
0.452348
0.452324
0.452295
0.452286
0.452289
0.452286
0.452161
0.451879
0.451317
0.45069
0.450647
0.451353
0.45198
0.452281
0.45239
0.452388
0.452359
0.45234
0.452287
0.452276
0.452287
0.452311
0.452327
0.452337
0.452333
0.45233
0.452324
0.452311
0.452288
0.452272
0.452262
0.452286
0.452332
0.45235
0.452373
0.452371
0.452254
0.451952
0.451359
0.450684
0.450658
0.451443
0.452115
0.45242
0.452513
0.452509
0.452471
0.452427
0.452372
0.452343
0.452337
0.45232
0.452302
0.452297
0.452293
0.452294
0.452296
0.452302
0.452326
0.452327
0.452336
0.452372
0.45242
0.452461
0.452495
0.45249
0.452382
0.452062
0.451421
0.450697
0.450698
0.451573
0.45228
0.452575
0.452656
0.452645
0.4526
0.452546
0.452495
0.452459
0.452435
0.452406
0.452388
0.452382
0.452378
0.452379
0.452381
0.452387
0.452413
0.452431
0.452455
0.452493
0.45254
0.452592
0.452634
0.452638
0.452539
0.452206
0.451502
0.450718
0.450773
0.451739
0.452458
0.452738
0.452814
0.452797
0.452744
0.452684
0.452632
0.452592
0.45256
0.452533
0.452518
0.452511
0.452507
0.452508
0.45251
0.452517
0.452534
0.452558
0.452589
0.452629
0.45268
0.452738
0.452791
0.452808
0.452723
0.452395
0.451624
0.450742
0.450888
0.45192
0.452627
0.452905
0.452984
0.452963
0.452903
0.452838
0.452782
0.452737
0.452702
0.452678
0.452661
0.452653
0.452649
0.45265
0.452653
0.452662
0.452677
0.452701
0.452736
0.45278
0.452836
0.452901
0.452964
0.452991
0.452921
0.452617
0.45181
0.450794
0.451025
0.452081
0.452782
0.453081
0.45317
0.453145
0.453079
0.453008
0.452947
0.452898
0.452861
0.452834
0.452816
0.452806
0.452803
0.452803
0.452807
0.452817
0.452834
0.45286
0.452897
0.452945
0.453007
0.453079
0.453149
0.453183
0.453118
0.452838
0.452043
0.450904
0.451151
0.452209
0.452942
0.453282
0.453377
0.453345
0.45327
0.453192
0.453126
0.453073
0.453033
0.453004
0.452985
0.452974
0.452971
0.452971
0.452976
0.452987
0.453006
0.453034
0.453073
0.453125
0.453192
0.45327
0.453347
0.453385
0.453312
0.453028
0.452267
0.451067
0.451247
0.452332
0.453143
0.453523
0.45361
0.453564
0.453478
0.453392
0.453319
0.453262
0.453219
0.453189
0.453168
0.453157
0.453154
0.453154
0.45316
0.453171
0.453191
0.453221
0.453262
0.453318
0.453391
0.453477
0.453562
0.453606
0.453523
0.453203
0.452442
0.451237
0.451327
0.452495
0.453411
0.453802
0.453867
0.453803
0.453703
0.453606
0.453526
0.453465
0.45342
0.453388
0.453367
0.453355
0.453352
0.453352
0.453358
0.45337
0.45339
0.453422
0.453466
0.453527
0.453606
0.453701
0.453798
0.453855
0.453772
0.453405
0.452588
0.451374
0.451429
0.452737
0.453738
0.454101
0.454138
0.454058
0.453944
0.453837
0.45375
0.453684
0.453636
0.453602
0.453581
0.453568
0.453565
0.453566
0.453572
0.453585
0.453606
0.453639
0.453687
0.453752
0.453839
0.453944
0.454056
0.454131
0.454066
0.453672
0.452759
0.451484
0.451589
0.453055
0.454082
0.454398
0.454418
0.454328
0.454205
0.454088
0.453994
0.453923
0.453871
0.453836
0.453813
0.4538
0.453797
0.453798
0.453804
0.453818
0.45384
0.453876
0.453927
0.453998
0.454092
0.454209
0.454334
0.454426
0.454389
0.454006
0.453002
0.451606
0.45182
0.453399
0.454397
0.454692
0.454713
0.454616
0.454485
0.454361
0.45426
0.454184
0.454129
0.454091
0.454067
0.454053
0.45405
0.454051
0.454058
0.454073
0.454096
0.454135
0.45419
0.454266
0.454368
0.454495
0.45463
0.454733
0.454715
0.45437
0.453321
0.451782
0.452093
0.453716
0.454684
0.455003
0.455032
0.454927
0.454788
0.454658
0.454551
0.454471
0.454412
0.454371
0.454346
0.454331
0.454328
0.454329
0.454337
0.454353
0.454378
0.454419
0.454478
0.454559
0.454668
0.454803
0.454946
0.455054
0.455038
0.454718
0.453674
0.452023
0.452366
0.453998
0.454978
0.455348
0.455383
0.455268
0.45512
0.454983
0.454871
0.454785
0.454723
0.454679
0.454653
0.454637
0.454634
0.454635
0.454644
0.454662
0.454687
0.454731
0.454793
0.454879
0.454993
0.455134
0.455284
0.455398
0.455375
0.455044
0.454015
0.452307
0.452622
0.454274
0.455314
0.455732
0.455772
0.455649
0.455489
0.455343
0.455224
0.455134
0.455069
0.455022
0.454996
0.454979
0.454976
0.454977
0.454986
0.455005
0.455031
0.455076
0.45514
0.455229
0.455348
0.455494
0.455653
0.455775
0.455746
0.455375
0.454336
0.452601
0.452868
0.45458
0.4557
0.456143
0.456193
0.456074
0.455907
0.455752
0.455625
0.455533
0.455467
0.45542
0.455394
0.455376
0.455372
0.455373
0.455381
0.455399
0.455425
0.45547
0.455534
0.455624
0.455745
0.455896
0.45606
0.456185
0.456148
0.455737
0.454659
0.452894
0.453126
0.454931
0.456121
0.456568
0.456633
0.456533
0.456377
0.456222
0.456094
0.456003
0.455942
0.455898
0.455874
0.455854
0.45585
0.45585
0.455856
0.455871
0.455894
0.455937
0.455998
0.456084
0.456203
0.456352
0.456511
0.456621
0.456567
0.45613
0.454998
0.453192
0.453413
0.455318
0.456547
0.456991
0.457074
0.457005
0.456878
0.456744
0.45663
0.45655
0.456499
0.456462
0.456443
0.456425
0.45642
0.456418
0.456421
0.456431
0.45645
0.456487
0.456539
0.456614
0.456721
0.456855
0.456991
0.45707
0.456987
0.456533
0.455348
0.453494
0.453727
0.455708
0.456951
0.457402
0.457503
0.457465
0.457375
0.457278
0.457195
0.457137
0.4571
0.457074
0.457062
0.457047
0.457043
0.457041
0.457042
0.457047
0.457061
0.457088
0.457128
0.457186
0.457269
0.457373
0.457471
0.457512
0.457401
0.456929
0.455698
0.453794
0.454052
0.456073
0.457324
0.457798
0.457921
0.457905
0.457845
0.457783
0.457733
0.457697
0.457674
0.457659
0.457653
0.457646
0.457645
0.457644
0.457645
0.457647
0.457655
0.457672
0.457698
0.457738
0.457794
0.457863
0.457924
0.457937
0.457806
0.457313
0.45604
0.454085
0.454366
0.456401
0.457678
0.458187
0.458332
0.45833
0.458286
0.458245
0.458215
0.458194
0.45818
0.458174
0.458171
0.458171
0.458173
0.458174
0.458175
0.458176
0.458181
0.45819
0.458206
0.458231
0.458266
0.45831
0.45835
0.458348
0.458203
0.457687
0.456374
0.454366
0.454652
0.456703
0.45803
0.458578
0.458741
0.458748
0.458712
0.458679
0.458657
0.458642
0.458633
0.458631
0.458631
0.458635
0.458639
0.45864
0.45864
0.458642
0.458644
0.458648
0.458657
0.458675
0.458699
0.458731
0.458762
0.458754
0.458599
0.458056
0.4567
0.454639
0.45491
0.456995
0.458394
0.458979
0.459152
0.459166
0.459135
0.459105
0.459084
0.459071
0.459066
0.459068
0.459069
0.459074
0.459078
0.459079
0.459079
0.459079
0.45908
0.459081
0.459087
0.4591
0.459119
0.459148
0.459177
0.459165
0.459
0.45843
0.457022
0.454903
0.455148
0.457301
0.458784
0.459395
0.45957
0.459586
0.459559
0.459533
0.459514
0.459504
0.459502
0.459506
0.459507
0.459513
0.459515
0.459515
0.459515
0.459515
0.459515
0.459514
0.459518
0.459527
0.459544
0.459571
0.459598
0.459584
0.459413
0.458817
0.457346
0.45516
0.45538
0.457638
0.459204
0.459827
0.459997
0.460012
0.459988
0.459965
0.45995
0.459944
0.459945
0.459949
0.459951
0.459956
0.459957
0.459957
0.459957
0.459956
0.459955
0.459954
0.459956
0.459962
0.459977
0.460001
0.460025
0.460009
0.459838
0.459223
0.457683
0.455414
0.455628
0.458015
0.459647
0.46027
0.460432
0.460445
0.460423
0.460402
0.460391
0.460388
0.460391
0.460396
0.460399
0.460402
0.460403
0.460403
0.460403
0.460403
0.460401
0.460399
0.460399
0.460402
0.460414
0.460434
0.460456
0.460439
0.460271
0.459647
0.45804
0.45567
0.455904
0.458424
0.460098
0.460715
0.460873
0.460885
0.460865
0.460846
0.460837
0.460837
0.460841
0.460846
0.46085
0.460853
0.460853
0.460853
0.460853
0.460853
0.460851
0.460848
0.460846
0.460847
0.460856
0.460873
0.460892
0.460875
0.46071
0.460084
0.458419
0.455938
0.456209
0.45884
0.460541
0.461158
0.461318
0.461332
0.461312
0.461295
0.461289
0.461291
0.461296
0.461301
0.461306
0.461308
0.461309
0.461309
0.46131
0.461309
0.461306
0.461302
0.461299
0.461298
0.461304
0.461318
0.461334
0.461317
0.461153
0.460527
0.458817
0.456221
0.456527
0.459243
0.460973
0.461602
0.461767
0.461784
0.461767
0.461753
0.461749
0.461752
0.461757
0.461763
0.461768
0.461771
0.461772
0.461773
0.461773
0.461772
0.461768
0.461764
0.461759
0.461757
0.46176
0.461771
0.461786
0.461767
0.461601
0.46097
0.459222
0.456519
0.456843
0.459632
0.461404
0.462052
0.462224
0.462243
0.462229
0.462217
0.462216
0.46222
0.462226
0.462231
0.462237
0.462241
0.462243
0.462244
0.462244
0.462242
0.462238
0.462233
0.462227
0.462224
0.462225
0.462235
0.462247
0.462227
0.462057
0.461414
0.459629
0.456828
0.457149
0.460017
0.461847
0.462516
0.462691
0.462711
0.462699
0.46269
0.46269
0.462695
0.462702
0.462708
0.462714
0.462718
0.462721
0.462722
0.462721
0.46272
0.462716
0.462711
0.462704
0.462699
0.462699
0.462707
0.462718
0.462697
0.462523
0.461862
0.460035
0.457144
0.457452
0.460413
0.462307
0.462993
0.463168
0.463189
0.463178
0.463172
0.463174
0.463179
0.463186
0.463193
0.463198
0.463202
0.463205
0.463206
0.463206
0.463204
0.463201
0.463196
0.463189
0.463183
0.463181
0.463188
0.463197
0.463176
0.463
0.462319
0.460439
0.457461
0.457759
0.46082
0.46278
0.463483
0.463657
0.463676
0.463666
0.463662
0.463665
0.463672
0.463679
0.463685
0.46369
0.463694
0.463696
0.463698
0.463697
0.463696
0.463693
0.463688
0.463682
0.463675
0.463672
0.463676
0.463684
0.463663
0.463487
0.462787
0.460844
0.457778
0.458069
0.461232
0.463266
0.463987
0.464156
0.464173
0.464165
0.464162
0.464166
0.464173
0.46418
0.464186
0.464191
0.464194
0.464196
0.464197
0.464196
0.464195
0.464192
0.464187
0.464181
0.464174
0.46417
0.464172
0.464178
0.464157
0.463984
0.463268
0.461253
0.458092
0.458373
0.461644
0.46377
0.464508
0.464669
0.464682
0.464673
0.464671
0.464676
0.464683
0.46469
0.464695
0.464699
0.464702
0.464703
0.464704
0.464703
0.464702
0.464699
0.464695
0.464688
0.464681
0.464675
0.464675
0.464679
0.46466
0.464492
0.463765
0.46167
0.458403
0.458665
0.46207
0.464308
0.465053
0.465198
0.465203
0.465192
0.465191
0.465196
0.465203
0.465209
0.465214
0.465216
0.465218
0.46522
0.46522
0.465219
0.465218
0.465215
0.465211
0.465204
0.465196
0.465189
0.465188
0.465192
0.465176
0.465016
0.464278
0.462097
0.458712
0.458947
0.462539
0.464895
0.465625
0.465743
0.465736
0.465722
0.46572
0.465725
0.465732
0.465738
0.465741
0.465744
0.465745
0.465746
0.465746
0.465746
0.465744
0.465742
0.465737
0.46573
0.465722
0.465714
0.465712
0.465717
0.465708
0.46556
0.464811
0.462535
0.459019
0.459248
0.463087
0.465533
0.466216
0.466301
0.466281
0.466263
0.466259
0.466265
0.466271
0.466277
0.46628
0.466282
0.466283
0.466284
0.466284
0.466283
0.466282
0.466279
0.466274
0.466267
0.466258
0.46625
0.466248
0.466258
0.46626
0.466131
0.465377
0.462986
0.459318
0.459606
0.463719
0.466192
0.466811
0.466867
0.466836
0.466814
0.46681
0.466815
0.466822
0.466827
0.46683
0.466832
0.466833
0.466833
0.466833
0.466832
0.46683
0.466827
0.466822
0.466815
0.466806
0.466798
0.466799
0.466814
0.466832
0.466734
0.465996
0.463477
0.459607
0.460041
0.464387
0.466826
0.467393
0.467437
0.467401
0.467378
0.467373
0.467378
0.467385
0.46739
0.467393
0.467394
0.467394
0.467394
0.467394
0.467393
0.467391
0.467388
0.467383
0.467376
0.467367
0.467361
0.467364
0.467386
0.467422
0.467365
0.46668
0.464052
0.459906
0.460527
0.465012
0.467406
0.467962
0.468011
0.467978
0.467955
0.467951
0.467956
0.467963
0.467968
0.46797
0.467971
0.467971
0.46797
0.46797
0.467969
0.467967
0.467965
0.46796
0.467953
0.467945
0.467939
0.467944
0.467973
0.468023
0.468006
0.467407
0.464741
0.460261
0.461008
0.46556
0.467953
0.468532
0.468594
0.468567
0.468548
0.468546
0.468552
0.468558
0.468563
0.468564
0.468565
0.468564
0.468564
0.468563
0.468563
0.468562
0.46856
0.468556
0.46855
0.468541
0.468535
0.46854
0.468571
0.468628
0.468631
0.468115
0.465508
0.460718
0.46145
0.466066
0.468507
0.469115
0.469188
0.469167
0.469154
0.469156
0.469164
0.469172
0.469176
0.469178
0.469178
0.469178
0.469178
0.469177
0.469177
0.469177
0.469175
0.469172
0.469166
0.469157
0.469149
0.469152
0.469179
0.46923
0.469227
0.468745
0.466245
0.461268
0.461871
0.466584
0.46908
0.469711
0.46979
0.469775
0.469768
0.469776
0.469789
0.469799
0.469804
0.469808
0.469809
0.46981
0.46981
0.46981
0.46981
0.46981
0.469808
0.469805
0.469798
0.469788
0.469777
0.469774
0.469793
0.469831
0.469804
0.469297
0.466859
0.461836
0.462305
0.46711
0.469651
0.470308
0.470396
0.470385
0.470385
0.470399
0.470417
0.470431
0.470441
0.470446
0.47045
0.470452
0.470453
0.470453
0.470453
0.470452
0.470449
0.470445
0.470437
0.470425
0.470409
0.4704
0.470409
0.470435
0.470383
0.469823
0.467365
0.462349
0.462742
0.467594
0.470199
0.470905
0.471004
0.470998
0.471002
0.471021
0.471044
0.471062
0.471075
0.471084
0.471089
0.471092
0.471094
0.471094
0.471093
0.471091
0.471088
0.471082
0.471071
0.471057
0.471038
0.471024
0.471026
0.471042
0.470973
0.470365
0.467846
0.462805
0.463138
0.468014
0.470746
0.471516
0.471619
0.471614
0.47162
0.471642
0.471667
0.471688
0.471703
0.471713
0.471719
0.471723
0.471725
0.471725
0.471724
0.471721
0.471716
0.471709
0.471697
0.471681
0.471661
0.471644
0.471642
0.471653
0.471568
0.470908
0.468333
0.463252
0.46347
0.468413
0.471335
0.472155
0.472249
0.472238
0.472242
0.472264
0.472289
0.472309
0.472325
0.472335
0.472341
0.472345
0.472347
0.472347
0.472345
0.472342
0.472337
0.47233
0.472318
0.472301
0.472281
0.472262
0.47226
0.472269
0.472165
0.471415
0.468759
0.463704
0.463765
0.468844
0.471983
0.472829
0.472896
0.472872
0.472872
0.472891
0.472914
0.472933
0.472947
0.472956
0.472961
0.472964
0.472966
0.472966
0.472965
0.472962
0.472958
0.472951
0.47294
0.472923
0.472903
0.472885
0.472884
0.472897
0.472783
0.471898
0.469036
0.464095
0.464043
0.469296
0.472681
0.473538
0.473563
0.473518
0.47351
0.473525
0.473545
0.473562
0.473574
0.473581
0.473586
0.473589
0.47359
0.47359
0.473589
0.473588
0.473584
0.473578
0.473568
0.473552
0.473533
0.473517
0.473521
0.47355
0.473461
0.472452
0.469196
0.464316
0.464267
0.469743
0.473455
0.474296
0.474255
0.474178
0.474157
0.474167
0.474185
0.4742
0.47421
0.474217
0.47422
0.474222
0.474224
0.474224
0.474224
0.474223
0.47422
0.474214
0.474205
0.47419
0.474172
0.47416
0.474176
0.474239
0.474236
0.473216
0.469416
0.464337
0.464388
0.470279
0.47441
0.475132
0.474979
0.474857
0.474819
0.474823
0.474838
0.474852
0.474861
0.474867
0.47487
0.474872
0.474873
0.474874
0.474874
0.474873
0.47487
0.474865
0.474856
0.474842
0.474827
0.474822
0.474856
0.474971
0.475118
0.474305
0.469939
0.464275
0.464465
0.471157
0.475656
0.476049
0.475743
0.475568
0.47551
0.475506
0.475518
0.475531
0.475539
0.475545
0.475548
0.475549
0.47555
0.47555
0.47555
0.475549
0.475547
0.475542
0.475535
0.475522
0.475511
0.475515
0.47557
0.475743
0.47607
0.475721
0.471028
0.464291
0.464698
0.472675
0.477155
0.477003
0.476542
0.476319
0.476244
0.476234
0.476244
0.476256
0.476264
0.476268
0.476271
0.476271
0.476272
0.476271
0.476271
0.47627
0.476267
0.476264
0.476257
0.476247
0.476239
0.47625
0.476323
0.476545
0.477019
0.47726
0.472812
0.4646
0.465409
0.474821
0.478916
0.477907
0.477357
0.47711
0.477027
0.477015
0.477024
0.477036
0.477043
0.477047
0.477049
0.477049
0.477049
0.477047
0.477047
0.477045
0.477044
0.477041
0.477035
0.477026
0.477019
0.477032
0.477114
0.477355
0.477892
0.478599
0.474992
0.465479
0.4667
0.477079
0.479691
0.478692
0.478162
0.477923
0.477845
0.477835
0.477846
0.477857
0.477865
0.477868
0.47787
0.47787
0.47787
0.477868
0.477867
0.477866
0.477865
0.477862
0.477856
0.477847
0.477837
0.477847
0.477923
0.478152
0.478652
0.479675
0.477036
0.466807
0.468274
0.478653
0.479851
0.479347
0.478935
0.478732
0.478667
0.478663
0.478675
0.478687
0.478695
0.478698
0.4787
0.478701
0.4787
0.478699
0.478699
0.478698
0.478697
0.478693
0.478686
0.478674
0.478661
0.478663
0.478725
0.478922
0.479314
0.479891
0.478423
0.468267
0.469705
0.479044
0.480009
0.479929
0.479675
0.479513
0.479463
0.479464
0.479479
0.479491
0.479498
0.479502
0.479504
0.479506
0.479506
0.479506
0.479506
0.479506
0.479505
0.4795
0.479491
0.479477
0.47946
0.479455
0.479503
0.479664
0.479918
0.480051
0.478875
0.469594
0.470657
0.478595
0.480168
0.480509
0.480396
0.480266
0.480226
0.480232
0.480246
0.480258
0.480265
0.480269
0.480271
0.480272
0.480273
0.480274
0.480275
0.480275
0.480273
0.480268
0.480259
0.480245
0.480227
0.480218
0.480256
0.480388
0.480514
0.480211
0.478536
0.470561
0.470943
0.477735
0.480321
0.48115
0.481117
0.481005
0.480971
0.480976
0.48099
0.481
0.481006
0.48101
0.481012
0.481014
0.481014
0.481016
0.481016
0.481016
0.481013
0.48101
0.481002
0.480989
0.480972
0.480964
0.480998
0.481113
0.481156
0.48035
0.477778
0.47092
0.470735
0.476957
0.480731
0.481903
0.48186
0.48175
0.481716
0.481721
0.481735
0.481744
0.48175
0.481753
0.481754
0.481755
0.481756
0.481756
0.481756
0.481756
0.481754
0.481752
0.481745
0.481734
0.481718
0.481712
0.481746
0.481858
0.481903
0.480733
0.476971
0.470725
0.470281
0.476823
0.481659
0.482792
0.482641
0.482516
0.482479
0.482485
0.482498
0.482508
0.482514
0.482517
0.482517
0.482516
0.482517
0.482517
0.482516
0.482517
0.482517
0.482513
0.482507
0.482497
0.482484
0.482477
0.482515
0.48264
0.482791
0.481646
0.476773
0.470255
0.46985
0.477362
0.483187
0.483795
0.48347
0.483312
0.483271
0.483274
0.483284
0.483295
0.483298
0.483301
0.4833
0.483302
0.483302
0.483301
0.483301
0.483299
0.483299
0.483297
0.483293
0.483284
0.483273
0.483269
0.483312
0.48347
0.4838
0.483203
0.477324
0.469791
0.469906
0.479002
0.485011
0.484844
0.484344
0.484138
0.484086
0.484083
0.484093
0.484099
0.484102
0.484102
0.484103
0.484105
0.484104
0.484103
0.484103
0.484101
0.4841
0.4841
0.484098
0.48409
0.484082
0.484085
0.484139
0.484346
0.484855
0.485076
0.479041
0.469851
0.470486
0.48109
0.486575
0.485875
0.48525
0.484994
0.484921
0.484915
0.484922
0.484926
0.484931
0.484933
0.484933
0.48493
0.484929
0.484928
0.484929
0.484931
0.484931
0.484931
0.484926
0.484921
0.484916
0.484924
0.484995
0.485254
0.485888
0.486648
0.481237
0.470475
0.47114
0.482387
0.487764
0.486872
0.48617
0.485873
0.485783
0.485772
0.485778
0.485784
0.485789
0.485791
0.485791
0.485786
0.485785
0.485785
0.485785
0.485791
0.485791
0.485791
0.485784
0.485779
0.485773
0.485785
0.485874
0.486174
0.486881
0.487799
0.482536
0.4712
0.470816
0.483925
0.489184
0.487862
0.487083
0.486756
0.486656
0.48664
0.486646
0.486651
0.486654
0.486651
0.486654
0.486656
0.486657
0.486657
0.486656
0.486654
0.486655
0.486653
0.486652
0.486646
0.48664
0.486657
0.486757
0.487085
0.487865
0.489168
0.48393
0.470895
0.470508
0.489447
0.491203
0.488906
0.487979
0.487616
0.487505
0.487485
0.487486
0.48749
0.487488
0.48749
0.487493
0.487497
0.487499
0.487499
0.487499
0.487495
0.487493
0.487489
0.487492
0.487489
0.487485
0.487506
0.487616
0.48798
0.488905
0.491162
0.489196
0.470547
0.472181
0.500699
0.493731
0.490059
0.488896
0.488454
0.488319
0.488295
0.488292
0.488296
0.488294
0.488297
0.488299
0.488298
0.4883
0.488301
0.488301
0.488302
0.488298
0.488297
0.488298
0.488293
0.488292
0.488318
0.488453
0.488897
0.490056
0.493691
0.50047
0.472167
0.476442
0.501474
0.496464
0.491338
0.48989
0.48934
0.489172
0.489136
0.489132
0.489131
0.489136
0.489134
0.489133
0.489131
0.489134
0.489135
0.489135
0.489135
0.489136
0.489134
0.489133
0.489129
0.489133
0.489169
0.489339
0.48989
0.491335
0.496409
0.50156
0.476405
0.48158
0.501818
0.49839
0.492718
0.49103
0.490383
0.490188
0.490141
0.490131
0.490131
0.490136
0.490137
0.490136
0.490133
0.490134
0.490134
0.490134
0.490135
0.490136
0.490133
0.490128
0.490128
0.490139
0.490186
0.490382
0.491029
0.492715
0.498364
0.501905
0.481557
0.485422
0.502162
0.498715
0.494131
0.492367
0.491668
0.491456
0.491402
0.491393
0.491397
0.491401
0.491408
0.491411
0.491406
0.491404
0.491402
0.491402
0.491404
0.491402
0.491398
0.491392
0.491391
0.491401
0.491455
0.491667
0.492365
0.494128
0.498745
0.50225
0.485419
0.486604
0.502505
0.498537
0.495512
0.493848
0.493165
0.492952
0.4929
0.492897
0.492907
0.492912
0.492913
0.492916
0.492916
0.492911
0.492908
0.49291
0.492908
0.492905
0.492907
0.492902
0.492895
0.492901
0.492952
0.493164
0.493845
0.49551
0.498565
0.502593
0.486613
0.485757
0.505262
0.498208
0.496735
0.495308
0.494707
0.494522
0.494481
0.494479
0.49449
0.494493
0.49449
0.494493
0.494505
0.494504
0.494503
0.494499
0.494487
0.494483
0.49449
0.494486
0.494479
0.494484
0.494522
0.494706
0.495306
0.496735
0.498225
0.505547
0.485766
0.484297
0.520623
0.498173
0.497723
0.4966
0.49612
0.495978
0.495948
0.495944
0.495943
0.495944
0.495949
0.495961
0.496
0.496045
0.496045
0.495996
0.49596
0.495948
0.495943
0.495942
0.495946
0.495951
0.495979
0.49612
0.496599
0.497724
0.498181
0.520604
0.484309
0.483008
0.524247
0.498552
0.498558
0.497717
0.497356
0.497251
0.497226
0.49722
0.497217
0.497223
0.497248
0.497275
0.497298
0.497337
0.497338
0.497299
0.497278
0.49725
0.497224
0.497219
0.497222
0.497227
0.497251
0.497356
0.497718
0.49856
0.498544
0.524217
0.48302
0.483718
0.520935
0.499827
0.499481
0.498774
0.498491
0.498409
0.498389
0.498391
0.498405
0.498427
0.49843
0.498395
0.498247
0.498094
0.498095
0.498254
0.498401
0.498435
0.498433
0.498409
0.498392
0.498389
0.498409
0.49849
0.498775
0.499481
0.499815
0.520917
0.483727
0.486859
0.524825
0.50216
0.500585
0.499888
0.49964
0.499578
0.499566
0.49958
0.499595
0.499564
0.499391
0.499141
0.498833
0.498641
0.498641
0.49884
0.499147
0.4994
0.49957
0.499596
0.499581
0.499565
0.499577
0.49964
0.499888
0.500584
0.502151
0.524837
0.486851
0.492188
0.521238
0.50539
0.501895
0.501119
0.50087
0.500823
0.500834
0.500814
0.500646
0.500366
0.500062
0.4998
0.499673
0.499746
0.499748
0.499675
0.499803
0.500067
0.500368
0.500647
0.500813
0.500833
0.500823
0.50087
0.501119
0.501894
0.505383
0.52122
0.492172
0.498127
0.525016
0.5087
0.503438
0.502506
0.50225
0.502185
0.50207
0.501831
0.501503
0.501213
0.501097
0.501221
0.501653
0.502254
0.502253
0.501653
0.501221
0.501098
0.501215
0.501507
0.501831
0.502071
0.502185
0.50225
0.502506
0.503437
0.508697
0.525
0.498117
0.50379
0.521526
0.511977
0.50495
0.503861
0.503518
0.503303
0.503027
0.502758
0.502669
0.502827
0.5033
0.504047
0.504999
0.505844
0.505842
0.504997
0.504045
0.503298
0.502827
0.502669
0.502759
0.503028
0.503304
0.503518
0.503861
0.504949
0.511998
0.521509
0.503787
0.509822
0.524386
0.517703
0.506755
0.505447
0.504942
0.504684
0.504621
0.504771
0.505387
0.506284
0.507281
0.508228
0.509006
0.509475
0.509479
0.509006
0.508227
0.507279
0.506282
0.505384
0.504772
0.504622
0.504685
0.504942
0.505447
0.506756
0.517806
0.524349
0.509834
0.516259
0.521804
0.522255
0.508579
0.507
0.506649
0.506888
0.507546
0.508491
0.51016
0.511624
0.512705
0.513286
0.513297
0.513024
0.513027
0.513301
0.513286
0.512705
0.511624
0.510159
0.50849
0.507545
0.506888
0.506649
0.507
0.508584
0.522243
0.521787
0.516284
0.522068
0.523942
0.521805
0.511197
0.509574
0.509723
0.511006
0.512584
0.514037
0.514328
0.514375
0.514285
0.514168
0.514061
0.51394
0.513939
0.51406
0.514167
0.514284
0.514374
0.514327
0.514036
0.512583
0.511005
0.509722
0.509573
0.511203
0.521788
0.523924
0.522053
0.522061
0.521805
0.522182
0.516334
0.514751
0.514896
0.515273
0.515415
0.515299
0.51506
0.514807
0.514544
0.514285
0.514166
0.514055
0.514053
0.514165
0.514283
0.514543
0.514805
0.515058
0.515298
0.515414
0.515272
0.514894
0.51475
0.51634
0.522164
0.521788
0.522045
0.520481
0.522253
0.52153
0.518375
0.516623
0.516371
0.516115
0.515856
0.515595
0.515333
0.515069
0.514807
0.514544
0.514285
0.514024
0.514023
0.514283
0.514543
0.514805
0.515068
0.515331
0.515594
0.515855
0.516114
0.516369
0.516621
0.518378
0.521513
0.522236
0.520463
0.506588
0.518798
0.517327
0.5132
0.511435
0.511154
0.510911
0.510673
0.510422
0.51016
0.509891
0.509613
0.509331
0.509047
0.50879
0.50879
0.509046
0.509331
0.509612
0.50989
0.510159
0.510421
0.510672
0.51091
0.511153
0.511433
0.513201
0.517308
0.518783
0.506582
0.483665
0.502342
0.499611
0.496114
0.494639
0.494219
0.493913
0.493652
0.493395
0.493135
0.49287
0.492592
0.492304
0.492011
0.491754
0.491754
0.492012
0.492307
0.492594
0.49287
0.493135
0.493394
0.493651
0.493911
0.494217
0.494637
0.496113
0.499596
0.502335
0.483674
0.477003
0.477201
0.476687
0.476609
0.476536
0.476509
0.476486
0.476469
0.476452
0.476439
0.476431
0.476424
0.476416
0.476416
0.476417
0.476417
0.476416
0.476416
0.476424
0.476431
0.476438
0.476452
0.476469
0.476485
0.476509
0.476535
0.476608
0.476686
0.477199
0.477001
0.504573
0.480864
0.476439
0.476425
0.476426
0.476422
0.476424
0.476422
0.476424
0.476423
0.476424
0.476426
0.476425
0.476427
0.476427
0.476427
0.476427
0.476426
0.476426
0.476425
0.476423
0.476424
0.476421
0.476424
0.476422
0.476426
0.476424
0.476438
0.480873
0.50458
0.663096
0.607287
0.547933
0.531334
0.524901
0.520967
0.518382
0.516623
0.515336
0.51437
0.513603
0.512965
0.512417
0.514393
0.514053
0.51393
0.514252
0.514634
0.512869
0.513541
0.514342
0.515323
0.51662
0.518378
0.520969
0.524895
0.531329
0.547956
0.607357
0.663093
0.883051
0.844112
0.799295
0.778504
0.767579
0.760281
0.755066
0.751305
0.748537
0.746468
0.744906
0.743773
0.744235
0.749815
0.749229
0.749023
0.749457
0.749953
0.745092
0.744951
0.74646
0.748535
0.75131
0.755068
0.760287
0.767573
0.778499
0.799342
0.844273
0.88306
0.980883
0.969768
0.964466
0.961847
0.958693
0.956255
0.954409
0.953023
0.952028
0.951289
0.950803
0.950667
0.952294
0.95042
0.949937
0.950177
0.950026
0.9503
0.95254
0.951088
0.951387
0.95207
0.953045
0.954421
0.956263
0.958695
0.961846
0.96446
0.969869
0.980961
0.997729
0.994219
0.995743
0.997507
0.997507
0.997493
0.997361
0.997258
0.997204
0.997173
0.997156
0.997139
0.99615
0.992937
0.992688
0.993189
0.992786
0.99326
0.996044
0.997135
0.997183
0.997215
0.997266
0.997366
0.997495
0.997508
0.997517
0.995707
0.994094
0.997729
0.99932
0.997585
0.998329
0.999557
0.999817
0.999882
0.99994
0.999938
0.999939
0.999943
0.99994
0.999846
0.998602
0.997244
0.996956
0.996989
0.997045
0.997475
0.998684
0.999836
0.999933
0.999936
0.999938
0.999942
0.999884
0.999818
0.99957
0.998292
0.997472
0.999298
0.999704
0.998779
0.998949
0.999613
0.999847
0.999898
0.99995
0.999986
0.999996
0.999998
0.999998
0.999988
0.99951
0.998245
0.997923
0.997816
0.99801
0.998418
0.999557
0.999987
0.999997
0.999995
0.999985
0.999951
0.999902
0.999853
0.999629
0.998927
0.998698
0.999688
0.999921
0.999458
0.999366
0.999629
0.999815
0.999878
0.999929
0.999984
0.999999