/*--------------------------------*- C++ -*----------------------------------*\
| =========                 |                                                 |
| \\      /  F ield         | OpenFOAM: The Open Source CFD Toolbox           |
|  \\    /   O peration     | Version:  2.3.0                                 |
|   \\  /    A nd           | Web:      www.OpenFOAM.org                      |
|    \\/     M anipulation  |                                                 |
\*---------------------------------------------------------------------------*/
FoamFile
{
    version     2.0;
    format      ascii;
    class       volScalarField;
    location    "0.02";
    object      nut.air;
}
// * * * * * * * * * * * * * * * * * * * * * * * * * * * * * * * * * * * * * //

dimensions      [0 2 -1 0 0 0 0];

internalField   nonuniform List<scalar> 
6000
(
0.00051244
0.0041194
0.0072668
0.00830708
0.00869264
0.00886387
0.00894575
0.0089854
0.00900394
0.00901182
0.00901453
0.00901494
0.00901452
0.00901399
0.00901367
0.00901367
0.009014
0.00901453
0.00901495
0.00901453
0.00901183
0.00900395
0.0089854
0.00894575
0.00886385
0.00869264
0.0083071
0.00726683
0.00411946
0.000512442
0.000415697
0.00278469
0.00558131
0.0073459
0.00823031
0.00867942
0.00890975
0.00902741
0.00908591
0.00911345
0.00912531
0.00912961
0.00913066
0.00913059
0.00913036
0.00913037
0.00913059
0.00913067
0.00912961
0.00912531
0.00911345
0.0090859
0.00902739
0.00890971
0.00867936
0.00823025
0.00734588
0.00558135
0.0027848
0.000415698
0.00035987
0.00230269
0.00473022
0.00658593
0.00772192
0.00835269
0.00869745
0.00888283
0.00897934
0.00902718
0.00904935
0.00905867
0.00906203
0.00906297
0.00906311
0.00906312
0.00906298
0.00906205
0.00905868
0.00904934
0.00902717
0.00897931
0.00888279
0.00869739
0.0083526
0.00772179
0.0065858
0.00473021
0.00230281
0.000359875
0.000329648
0.00214012
0.00428059
0.00603898
0.00725892
0.00802639
0.00848412
0.00874574
0.00888865
0.00896272
0.00899881
0.00901514
0.00902187
0.00902431
0.00902503
0.00902504
0.00902433
0.00902189
0.00901516
0.00899883
0.00896272
0.00888864
0.00874571
0.00848408
0.00802632
0.0072588
0.00603882
0.00428048
0.00214018
0.000329655
0.000313821
0.00204172
0.00400514
0.0056707
0.00691509
0.00776247
0.00830127
0.00862459
0.00880812
0.00890646
0.00895603
0.00897939
0.00898959
0.00899365
0.008995
0.00899501
0.00899367
0.00898962
0.00897942
0.00895605
0.00890648
0.00880813
0.0086246
0.00830126
0.00776244
0.00691499
0.00567052
0.00400491
0.00204157
0.000313824
0.000305964
0.00197568
0.00382729
0.00542429
0.0066699
0.00756105
0.00815311
0.00852131
0.00873643
0.00885458
0.00891555
0.00894505
0.00895839
0.00896393
0.00896587
0.00896587
0.00896395
0.0089584
0.00894508
0.00891557
0.0088546
0.00873645
0.00852134
0.00815313
0.00756104
0.00666983
0.00542412
0.00382696
0.00197526
0.000305955
0.000302382
0.00193421
0.00371549
0.00526491
0.00650312
0.00741585
0.00803988
0.00843766
0.00867489
0.00880753
0.00887713
0.00891141
0.00892724
0.00893401
0.00893643
0.00893643
0.00893401
0.00892725
0.00891142
0.00887714
0.00880755
0.00867492
0.00843769
0.00803991
0.00741587
0.00650309
0.00526479
0.00371518
0.00193365
0.000302363
0.000300929
0.00191112
0.0036498
0.00516725
0.00639559
0.00731681
0.00795794
0.00837329
0.00862449
0.00876666
0.00884212
0.00887975
0.00889736
0.00890502
0.0089078
0.0089078
0.00890501
0.00889736
0.00887975
0.00884213
0.00876668
0.00862451
0.00837332
0.00795798
0.00731685
0.00639561
0.00516722
0.00364963
0.00191069
0.000300909
0.000300562
0.00189964
0.00361408
0.00511092
0.00632987
0.00725255
0.00790134
0.00832582
0.00858483
0.00873259
0.0088116
0.0088513
0.00887006
0.00887829
0.00888132
0.00888132
0.00887829
0.00887005
0.0088513
0.00881161
0.00873261
0.00858486
0.00832586
0.00790138
0.0072526
0.00632993
0.00511098
0.00361411
0.00189954
0.000300557
0.000300614
0.00189467
0.00359605
0.00508011
0.00629139
0.00721234
0.0078634
0.00829171
0.0085544
0.00870494
0.00878578
0.00882659
0.00884597
0.00885453
0.00885771
0.00885771
0.00885454
0.00884598
0.0088266
0.00878581
0.00870497
0.00855444
0.00829176
0.00786345
0.0072124
0.00629148
0.00508024
0.00359625
0.00189493
0.000300616
0.00030087
0.00189261
0.00358736
0.00506385
0.00626939
0.00718752
0.00783816
0.00826731
0.00853117
0.00868271
0.00876425
0.0088055
0.00882514
0.00883385
0.00883709
0.00883709
0.00883387
0.00882517
0.00880553
0.0087643
0.00868276
0.00853122
0.00826736
0.00783821
0.00718758
0.00626948
0.00506399
0.00358765
0.00189305
0.000300883
0.000301309
0.00189145
0.00358309
0.00505526
0.00625679
0.00717206
0.00782111
0.0082496
0.00851324
0.00866476
0.00874633
0.00878761
0.00880728
0.00881601
0.00881927
0.00881928
0.00881605
0.00880734
0.00878768
0.00874641
0.00866483
0.00851331
0.00824965
0.00782115
0.00717209
0.00625684
0.00505538
0.00358336
0.00189191
0.000301325
0.000301772
0.00189029
0.0035807
0.00505048
0.00624922
0.00716202
0.00780923
0.00823643
0.00849922
0.0086502
0.00873146
0.00877254
0.0087921
0.00880078
0.00880402
0.00880404
0.00880083
0.00879218
0.00877264
0.00873156
0.00865029
0.0084993
0.00823649
0.00780925
0.00716202
0.00624921
0.00505053
0.00358089
0.00189069
0.000301789
0.000302245
0.00188882
0.003579
0.00504747
0.00624423
0.00715501
0.00780045
0.00822626
0.00848805
0.00863836
0.00871915
0.00875994
0.00877932
0.00878791
0.00879112
0.00879114
0.00878798
0.00877943
0.00876007
0.00871927
0.00863846
0.00848813
0.0082263
0.00780045
0.00715497
0.00624415
0.0050474
0.00357905
0.00188914
0.000302259
0.000302714
0.00188703
0.00357742
0.00504516
0.0062405
0.00714965
0.00779354
0.00821805
0.00847889
0.00862851
0.00870885
0.00874936
0.00876858
0.00877709
0.00878025
0.00878028
0.00877716
0.00876869
0.00874948
0.00870897
0.00862861
0.00847895
0.00821809
0.00779353
0.00714958
0.00624036
0.00504496
0.00357727
0.00188713
0.000302722
0.000303172
0.00188497
0.0035757
0.00504301
0.00623732
0.00714516
0.00778775
0.00821114
0.0084711
0.0086201
0.00870004
0.00874031
0.0087594
0.00876783
0.00877096
0.00877098
0.00876789
0.0087595
0.00874042
0.00870014
0.00862019
0.00847116
0.00821117
0.00778774
0.0071451
0.00623717
0.00504274
0.00357532
0.00188468
0.000303169
0.000303623
0.00188273
0.00357367
0.00504071
0.00623426
0.00714109
0.00778261
0.00820506
0.00846427
0.00861273
0.00869232
0.00873238
0.00875135
0.00875971
0.0087628
0.00876282
0.00875976
0.00875143
0.00873247
0.00869241
0.00861281
0.00846433
0.0082051
0.00778263
0.00714107
0.00623418
0.0050405
0.00357318
0.00188195
0.000303601
0.000304068
0.00188024
0.0035712
0.00503809
0.00623111
0.00713715
0.00777782
0.00819949
0.00845806
0.00860606
0.00868535
0.00872523
0.00874409
0.00875239
0.00875546
0.00875547
0.00875243
0.00874416
0.0087253
0.00868542
0.00860613
0.00845812
0.00819955
0.00777788
0.00713721
0.00623115
0.00503804
0.00357084
0.00187923
0.000304032
0.000304504
0.0018773
0.00356822
0.0050351
0.00622777
0.0071332
0.00777319
0.0081942
0.00845223
0.00859984
0.00867888
0.0087186
0.00873737
0.00874562
0.00874866
0.00874867
0.00874565
0.00873742
0.00871866
0.00867894
0.00859991
0.0084523
0.00819428
0.00777328
0.00713333
0.00622793
0.00503527
0.00356821
0.00187663
0.000304474
0.000304923
0.00187372
0.00356476
0.00503179
0.00622423
0.00712919
0.0077686
0.00818906
0.00844664
0.00859392
0.00867272
0.00871231
0.008731
0.0087392
0.00874223
0.00874223
0.00873923
0.00873104
0.00871236
0.00867278
0.00859398
0.00844671
0.00818916
0.00776873
0.00712937
0.00622448
0.00503213
0.00356516
0.00187384
0.000304918
0.000305329
0.00186967
0.003561
0.00502826
0.00622053
0.00712509
0.00776402
0.00818401
0.0084412
0.00858818
0.00866679
0.00870626
0.00872488
0.00873304
0.00873605
0.00873605
0.00873306
0.0087249
0.00870629
0.00866684
0.00858824
0.00844128
0.00818412
0.00776417
0.0071253
0.00622081
0.00502865
0.00356162
0.00187045
0.000305349
0.000305728
0.00186544
0.00355713
0.00502458
0.0062167
0.00712092
0.00775943
0.00817902
0.00843587
0.0085826
0.00866104
0.00870039
0.00871895
0.00872708
0.00873007
0.00873007
0.00872709
0.00871897
0.00870042
0.00866108
0.00858266
0.00843596
0.00817915
0.00775961
0.00712115
0.006217
0.00502496
0.00355772
0.00186646
0.000305762
0.000306134
0.0018614
0.00355325
0.00502074
0.00621271
0.00711665
0.00775484
0.00817411
0.00843067
0.00857717
0.00865545
0.00869471
0.00871321
0.00872131
0.00872429
0.00872429
0.00872132
0.00871323
0.00869474
0.0086555
0.00857724
0.00843077
0.00817425
0.00775505
0.00711694
0.00621306
0.00502113
0.00355369
0.00186218
0.000306166
0.000306561
0.00185773
0.00354931
0.00501668
0.00620853
0.0071123
0.00775025
0.00816927
0.0084256
0.00857192
0.00865007
0.00868923
0.00870768
0.00871575
0.00871872
0.00871872
0.00871576
0.00870769
0.00868926
0.00865011
0.00857199
0.00842571
0.00816944
0.00775051
0.00711265
0.00620897
0.00501714
0.00354961
0.00185798
0.000306574
0.000307006
0.00185425
0.00354512
0.00501231
0.00620412
0.00710784
0.00774568
0.00816454
0.00842071
0.00856688
0.00864491
0.008684
0.0087024
0.00871044
0.00871339
0.00871339
0.00871044
0.0087024
0.00868402
0.00864495
0.00856695
0.00842083
0.00816474
0.00774599
0.00710828
0.00620469
0.00501291
0.00354545
0.00185408
0.000306997
0.00030745
0.00185052
0.00354054
0.0050076
0.00619945
0.00710324
0.00774111
0.00815994
0.00841601
0.00856208
0.00864003
0.00867905
0.0086974
0.00870542
0.00870835
0.00870835
0.00870541
0.0086974
0.00867906
0.00864006
0.00856215
0.00841614
0.00816016
0.00774148
0.00710379
0.00620016
0.00500835
0.00354104
0.00185034
0.000307434
0.000307879
0.00184628
0.00353556
0.00500257
0.0061945
0.00709847
0.00773652
0.00815544
0.00841153
0.00855757
0.00863546
0.00867443
0.00869274
0.00870074
0.00870366
0.00870365
0.00870072
0.00869272
0.00867442
0.00863548
0.00855763
0.00841167
0.0081557
0.00773696
0.00709913
0.00619532
0.00500341
0.00353623
0.0018464
0.000307869
0.000308292
0.0018416
0.00353033
0.00499734
0.00618931
0.00709348
0.0077318
0.00815097
0.00840721
0.00855331
0.0086312
0.00867015
0.00868844
0.00869641
0.00869932
0.0086993
0.00869638
0.0086884
0.00867012
0.00863121
0.00855338
0.00840739
0.00815131
0.00773234
0.0070942
0.00619012
0.00499809
0.00353103
0.00184206
0.000308291
0.000308695
0.00183683
0.00352506
0.00499202
0.00618399
0.00708828
0.00772688
0.00814637
0.00840287
0.00854912
0.00862707
0.00866604
0.00868432
0.00869228
0.00869518
0.00869517
0.00869225
0.00868429
0.00866603
0.00862711
0.00854924
0.00840313
0.0081468
0.00772748
0.00708894
0.00618458
0.00499249
0.00352556
0.00183743
0.000308701
0.0003091
0.00183236
0.00351997
0.00498677
0.00617868
0.007083
0.00772176
0.00814151
0.00839826
0.00854469
0.00862275
0.00866176
0.00868005
0.00868802
0.00869093
0.00869092
0.00868802
0.00868007
0.00866181
0.00862286
0.0085449
0.0083986
0.00814197
0.00772227
0.0070834
0.00617887
0.00498681
0.00352007
0.0018328
0.000309108
0.000309515
0.00182844
0.00351521
0.0049817
0.0061735
0.00707776
0.00771654
0.00813638
0.00839327
0.00853984
0.00861799
0.00865705
0.00867537
0.00868335
0.00868627
0.00868628
0.00868339
0.00867545
0.00865718
0.00861819
0.00854012
0.00839363
0.00813675
0.00771681
0.0070778
0.00617328
0.00498132
0.00351482
0.00182844
0.000309517
0.00030994
0.001825
0.00351078
0.00497689
0.00616852
0.00707266
0.00771131
0.00813108
0.00838798
0.00853459
0.0086128
0.0086519
0.00867024
0.00867823
0.00868115
0.00868117
0.00867829
0.00867035
0.00865206
0.00861303
0.00853488
0.00838827
0.0081313
0.00771133
0.00707242
0.00616806
0.00497626
0.00351003
0.0018245
0.000309932
0.000310368
0.00182179
0.0035066
0.00497236
0.00616377
0.0070677
0.00770614
0.00812572
0.0083825
0.00852906
0.00860728
0.0086464
0.00866476
0.00867275
0.00867567
0.00867569
0.00867281
0.00866487
0.00864657
0.00860751
0.00852933
0.00838272
0.00812581
0.00770603
0.00706739
0.0061633
0.00497173
0.00350579
0.00182101
0.000310353
0.000310791
0.00181856
0.00350258
0.0049681
0.00615927
0.00706291
0.00770104
0.00812035
0.00837693
0.00852339
0.00860157
0.00864068
0.00865903
0.00866702
0.00866994
0.00866996
0.00866707
0.00865913
0.00864083
0.00860177
0.00852361
0.0083771
0.0081204
0.00770094
0.00706269
0.00615895
0.00496766
0.00350197
0.00181781
0.000310778
0.000311207
0.00181516
0.00349865
0.00496406
0.006155
0.00705828
0.00769603
0.00811501
0.00837135
0.00851765
0.00859574
0.00863481
0.00865315
0.00866113
0.00866405
0.00866406
0.00866118
0.00865322
0.00863492
0.00859589
0.00851781
0.00837147
0.00811506
0.007696
0.0070582
0.00615488
0.00496388
0.00349838
0.00181472
0.000311203
0.000311616
0.00181159
0.00349478
0.00496019
0.00615092
0.00705382
0.00769113
0.00810973
0.00836578
0.0085119
0.00858987
0.00862888
0.00864719
0.00865517
0.00865809
0.00865811
0.00865521
0.00864725
0.00862896
0.00858997
0.00851201
0.00836587
0.00810978
0.00769115
0.00705382
0.00615092
0.0049602
0.00349482
0.00181156
0.000311623
0.000312022
0.00180794
0.00349095
0.00495642
0.00614696
0.00704946
0.00768633
0.00810453
0.00836027
0.00850618
0.00858402
0.00862296
0.00864125
0.00864923
0.00865216
0.00865217
0.00864926
0.0086413
0.00862301
0.00858408
0.00850624
0.00836033
0.00810457
0.00768635
0.00704947
0.00614698
0.0049565
0.00349117
0.00180825
0.000312038
0.000312427
0.00180433
0.00348715
0.00495266
0.00614303
0.00704516
0.00768159
0.00809939
0.00835484
0.00850053
0.00857824
0.00861711
0.00863538
0.00864336
0.00864629
0.0086463
0.00864338
0.00863541
0.00861714
0.00857827
0.00850056
0.00835487
0.00809941
0.00768159
0.00704513
0.00614299
0.0049527
0.00348739
0.0018048
0.000312447
0.000312836
0.00180089
0.00348337
0.00494884
0.00613905
0.00704086
0.00767689
0.00809433
0.00834948
0.00849497
0.00857255
0.00861136
0.0086296
0.00863758
0.00864051
0.00864052
0.00863759
0.00862962
0.00861137
0.00857256
0.00849498
0.00834949
0.00809433
0.00767685
0.00704077
0.00613893
0.00494878
0.00348349
0.00180129
0.000312855
0.000313253
0.00179767
0.00347955
0.00494491
0.00613498
0.00703653
0.00767222
0.00808933
0.00834421
0.0084895
0.00856696
0.0086057
0.00862392
0.00863189
0.00863482
0.00863482
0.00863189
0.00862393
0.00860571
0.00856696
0.0084895
0.0083442
0.0080893
0.00767216
0.0070364
0.00613482
0.00494476
0.00347951
0.00179782
0.000313265
0.000313678
0.00179456
0.00347562
0.00494084
0.00613083
0.00703216
0.00766757
0.00808438
0.00833901
0.00848412
0.00856147
0.00860015
0.00861833
0.00862629
0.00862921
0.00862921
0.00862628
0.00861833
0.00860014
0.00856146
0.00848411
0.00833899
0.00808435
0.0076675
0.00703204
0.00613066
0.00494066
0.00347546
0.00179443
0.000313679
0.000314104
0.00179138
0.00347152
0.00493664
0.00612659
0.00702778
0.00766294
0.00807949
0.00833389
0.00847883
0.00855607
0.00859469
0.00861283
0.00862077
0.00862368
0.00862367
0.00862076
0.00861282
0.00859467
0.00855605
0.00847881
0.00833386
0.00807945
0.00766288
0.00702769
0.00612647
0.00493648
0.00347133
0.00179109
0.000314098
0.000314526
0.00178798
0.00346722
0.00493232
0.00612231
0.00702338
0.00765834
0.00807465
0.00832884
0.00847363
0.00855076
0.00858931
0.00860742
0.00861533
0.00861823
0.00861822
0.00861531
0.0086074
0.00858928
0.00855073
0.00847359
0.0083288
0.00807461
0.0076583
0.00702333
0.00612224
0.00493222
0.00346708
0.00178773
0.00031452
0.000314942
0.00178438
0.00346282
0.00492791
0.00611798
0.007019
0.00765378
0.00806988
0.00832387
0.00846851
0.00854554
0.00858403
0.0086021
0.00860998
0.00861287
0.00861286
0.00860996
0.00860206
0.00858399
0.00854549
0.00846846
0.00832382
0.00806983
0.00765374
0.00701897
0.00611795
0.00492787
0.00346277
0.00178429
0.000314942
0.000315354
0.00178064
0.00345829
0.00492343
0.00611364
0.00701464
0.00764927
0.00806517
0.00831899
0.00846348
0.00854041
0.00857884
0.00859687
0.00860473
0.0086076
0.00860759
0.0086047
0.00859683
0.00857878
0.00854035
0.00846341
0.00831891
0.0080651
0.00764921
0.00701459
0.0061136
0.0049234
0.00345829
0.00178072
0.000315358
0.000315763
0.00177685
0.00345365
0.00491888
0.00610929
0.00701032
0.00764482
0.00806054
0.00831418
0.00845854
0.00853539
0.00857375
0.00859174
0.00859959
0.00860245
0.00860244
0.00859956
0.0085917
0.00857369
0.00853531
0.00845845
0.00831409
0.00806044
0.00764472
0.00701021
0.00610919
0.00491883
0.00345367
0.00177701
0.000315769
0.00031617
0.001773
0.00344892
0.0049143
0.00610495
0.00700604
0.00764044
0.00805599
0.00830947
0.00845371
0.00853046
0.00856878
0.00858674
0.00859456
0.00859742
0.00859741
0.00859453
0.00858669
0.00856871
0.00853038
0.00845361
0.00830936
0.00805586
0.00764029
0.00700586
0.00610478
0.00491419
0.00344895
0.0017732
0.000316176
0.000316573
0.00176904
0.00344414
0.00490972
0.00610067
0.00700184
0.00763614
0.00805153
0.00830486
0.00844898
0.00852567
0.00856393
0.00858187
0.00858967
0.00859252
0.00859251
0.00858964
0.00858182
0.00856386
0.00852558
0.00844888
0.00830474
0.00805138
0.00763594
0.00700159
0.00610041
0.00490954
0.00344416
0.00176931
0.000316579
0.00031697
0.001765
0.0034394
0.00490522
0.00609649
0.00699773
0.00763194
0.00804718
0.00830037
0.00844439
0.00852101
0.00855923
0.00857714
0.00858493
0.00858777
0.00858776
0.0085849
0.00857709
0.00855916
0.00852092
0.00844429
0.00830025
0.00804702
0.00763172
0.00699743
0.00609613
0.00490493
0.00343937
0.0017654
0.000316983
0.000317363
0.00176104
0.00343484
0.00490089
0.00609244
0.00699375
0.00762787
0.00804297
0.00829603
0.00843996
0.00851651
0.0085547
0.00857259
0.00858036
0.0085832
0.00858318
0.00858032
0.00857252
0.00855462
0.00851641
0.00843985
0.0082959
0.0080428
0.00762764
0.00699341
0.00609199
0.00490042
0.00343462
0.00176149
0.000317385
0.000317764
0.0017575
0.00343058
0.00489673
0.00608852
0.0069899
0.00762394
0.00803891
0.00829186
0.0084357
0.0085122
0.00855035
0.00856822
0.00857599
0.00857881
0.0085788
0.00857594
0.00856815
0.00855026
0.00851209
0.00843559
0.00829173
0.00803876
0.00762372
0.00698957
0.00608802
0.00489605
0.00342994
0.00175757
0.000317786
0.000318183
0.0017547
0.0034266
0.00489266
0.00608467
0.00698615
0.00762016
0.00803504
0.00828789
0.00843166
0.00850811
0.00854623
0.00856408
0.00857184
0.00857466
0.00857464
0.00857179
0.008564
0.00854613
0.00850799
0.00843154
0.00828777
0.00803491
0.00762001
0.00698592
0.00608425
0.00489189
0.00342546
0.00175372
0.000318182
0.00031863
0.00175257
0.00342271
0.00488855
0.00608084
0.0069825
0.00761653
0.00803136
0.00828414
0.00842786
0.00850427
0.00854237
0.0085602
0.00856795
0.00857077
0.00857075
0.0085679
0.00856012
0.00854226
0.00850415
0.00842774
0.00828405
0.00803129
0.0076165
0.00698246
0.00608068
0.00488799
0.00342137
0.00175025
0.00031858
0.000319094
0.00175061
0.00341864
0.00488431
0.006077
0.00697894
0.00761307
0.00802789
0.00828064
0.00842432
0.00850071
0.00853879
0.00855661
0.00856436
0.00856718
0.00856716
0.0085643
0.00855653
0.00853868
0.00850059
0.00842422
0.00828059
0.00802793
0.00761321
0.00697919
0.00607726
0.00488428
0.00341766
0.00174762
0.000318998
0.000319549
0.00174826
0.00341431
0.00488002
0.00607323
0.00697553
0.00760981
0.00802466
0.0082774
0.00842105
0.00849743
0.0085355
0.00855333
0.00856107
0.00856389
0.00856387
0.00856102
0.00855324
0.0085354
0.00849733
0.00842099
0.00827741
0.00802481
0.00761013
0.00697604
0.0060739
0.00488062
0.00341422
0.00174606
0.000319449
0.000319987
0.00174545
0.00340995
0.0048757
0.00606959
0.00697231
0.00760677
0.00802167
0.0082744
0.00841804
0.0084944
0.00853248
0.00855031
0.00855805
0.00856087
0.00856085
0.008558
0.00855023
0.00853239
0.00849433
0.00841803
0.00827449
0.00802191
0.00760722
0.006973
0.00607052
0.00487678
0.00341075
0.00174506
0.000319932
0.00032042
0.0017425
0.00340556
0.00487162
0.00606613
0.00696931
0.00760397
0.0080189
0.00827161
0.00841523
0.00849158
0.00852966
0.00854749
0.00855524
0.00855806
0.00855804
0.00855519
0.00854742
0.00852959
0.00849155
0.00841526
0.00827176
0.0080192
0.00760446
0.00697005
0.00606713
0.00487282
0.00340694
0.00174373
0.000320422
0.000320861
0.00173967
0.00340115
0.0048676
0.0060628
0.00696648
0.00760135
0.00801632
0.00826899
0.00841257
0.00848889
0.00852695
0.00854478
0.00855254
0.00855536
0.00855534
0.00855249
0.00854473
0.00852691
0.00848888
0.00841263
0.00826916
0.00801662
0.00760183
0.00696719
0.00606378
0.00486885
0.00340277
0.00174158
0.000320893
0.000321309
0.00173679
0.00339668
0.00486352
0.00605955
0.00696378
0.00759886
0.00801385
0.00826647
0.00840999
0.00848627
0.0085243
0.00854212
0.00854988
0.0085527
0.00855269
0.00854984
0.00854208
0.00852428
0.00848628
0.00841006
0.00826663
0.00801413
0.0075993
0.00696443
0.00606049
0.00486481
0.00339838
0.00173888
0.000321344
0.000321746
0.00173342
0.00339196
0.00485935
0.00605633
0.00696117
0.00759646
0.00801146
0.008264
0.00840744
0.00848367
0.00852167
0.00853947
0.00854722
0.00855005
0.00855004
0.0085472
0.00853945
0.00852167
0.00848369
0.00840752
0.00826415
0.00801169
0.00759683
0.00696172
0.00605717
0.00486064
0.00339389
0.00173608
0.000321796
0.000322159
0.0017295
0.00338707
0.00485519
0.00605321
0.00695865
0.00759415
0.00800913
0.00826159
0.00840494
0.0084811
0.00851907
0.00853685
0.00854459
0.00854742
0.00854742
0.00854458
0.00853685
0.00851908
0.00848114
0.00840502
0.00826171
0.00800932
0.00759442
0.00695904
0.00605381
0.00485619
0.00338898
0.001733
0.000322253
0.000322555
0.0017254
0.0033821
0.00485098
0.0060502
0.00695628
0.00759197
0.00800691
0.00825927
0.00840253
0.00847863
0.00851656
0.00853432
0.00854205
0.00854488
0.00854488
0.00854205
0.00853433
0.00851658
0.00847867
0.0084026
0.00825937
0.00800704
0.00759212
0.00695646
0.00605044
0.00485145
0.00338335
0.00172881
0.00032268
0.00032293
0.0017212
0.00337702
0.00484686
0.00604735
0.0069541
0.00758996
0.00800485
0.0082571
0.00840027
0.00847631
0.0085142
0.00853194
0.00853967
0.00854249
0.00854249
0.00853967
0.00853196
0.00851422
0.00847635
0.00840033
0.00825717
0.00800492
0.00759001
0.00695408
0.00604725
0.00484672
0.00337713
0.00172283
0.00032304
0.000323297
0.00171658
0.00337191
0.00484295
0.00604483
0.00695221
0.0075882
0.00800301
0.00825515
0.00839823
0.00847421
0.00851207
0.00852979
0.00853751
0.00854033
0.00854034
0.00853752
0.00852981
0.00851209
0.00847424
0.00839827
0.00825519
0.00800304
0.00758817
0.00695207
0.00604453
0.00484245
0.00337103
0.00171574
0.000323333
0.000323602
0.00171159
0.00336717
0.00483967
0.00604278
0.00695068
0.00758673
0.00800144
0.00825346
0.00839645
0.00847237
0.0085102
0.00852792
0.00853563
0.00853845
0.00853845
0.00853564
0.00852794
0.00851023
0.0084724
0.00839648
0.00825349
0.00800144
0.00758667
0.00695053
0.0060425
0.00483918
0.00336599
0.00170902
0.000323556
0.000323873
0.00170749
0.00336376
0.00483739
0.00604138
0.00694954
0.00758556
0.00800016
0.00825206
0.00839496
0.00847083
0.00850864
0.00852634
0.00853404
0.00853686
0.00853687
0.00853406
0.00852636
0.00850866
0.00847086
0.00839498
0.00825207
0.00800013
0.00758548
0.00694939
0.00604119
0.00483712
0.00336302
0.00170492
0.000323812
0.000324224
0.00170687
0.00336259
0.00483615
0.00604042
0.00694865
0.00758463
0.00799912
0.00825092
0.00839375
0.00846957
0.00850734
0.00852503
0.00853274
0.00853555
0.00853556
0.00853275
0.00852505
0.00850737
0.00846959
0.00839376
0.00825091
0.00799907
0.00758452
0.00694848
0.00604022
0.00483599
0.00336243
0.00170605
0.000324198
0.000324741
0.00171177
0.00336317
0.00483529
0.00603931
0.00694776
0.00758379
0.00799826
0.00824999
0.00839275
0.00846853
0.00850628
0.00852395
0.00853165
0.00853447
0.00853447
0.00853167
0.00852398
0.00850631
0.00846855
0.00839276
0.00824997
0.00799818
0.00758363
0.0069475
0.00603897
0.00483494
0.00336307
0.00171234
0.000324775
0.000325473
0.00172113
0.00336375
0.00483355
0.00603781
0.00694657
0.00758292
0.00799749
0.00824921
0.00839192
0.00846765
0.00850538
0.00852304
0.00853073
0.00853354
0.00853355
0.00853075
0.00852307
0.00850541
0.00846768
0.00839192
0.00824916
0.00799737
0.00758271
0.00694623
0.00603731
0.00483296
0.00336323
0.00172142
0.000325512
0.000326305
0.00173081
0.0033627
0.00483033
0.00603536
0.00694495
0.00758197
0.00799678
0.00824855
0.00839123
0.00846693
0.00850462
0.00852227
0.00852995
0.00853276
0.00853277
0.00852997
0.0085223
0.00850466
0.00846695
0.00839123
0.0082485
0.00799666
0.00758174
0.00694457
0.00603483
0.00482964
0.00336176
0.00172979
0.000326287
0.00032705
0.00173536
0.00335844
0.00482547
0.00603202
0.00694329
0.007581
0.00799622
0.0082481
0.00839077
0.00846643
0.00850409
0.00852172
0.00852939
0.0085322
0.0085322
0.00852941
0.00852175
0.00850412
0.00846645
0.00839077
0.00824805
0.00799611
0.00758079
0.00694298
0.00603158
0.00482482
0.0033575
0.00173382
0.000326985
0.000327588
0.0017329
0.00335106
0.00481911
0.00602818
0.00694166
0.00758052
0.00799606
0.00824806
0.00839073
0.00846634
0.00850397
0.00852157
0.00852923
0.00853204
0.00853204
0.00852925
0.0085216
0.008504
0.00846636
0.00839072
0.00824802
0.00799598
0.00758037
0.00694143
0.00602784
0.00481863
0.00335044
0.00173171
0.000327544
0.000327923
0.00172363
0.00334156
0.00481212
0.00602451
0.00694018
0.0075803
0.00799638
0.00824845
0.00839111
0.00846671
0.00850431
0.0085219
0.00852955
0.00853234
0.00853235
0.00852956
0.00852192
0.00850433
0.00846672
0.00839111
0.00824843
0.00799631
0.00758019
0.00693999
0.00602424
0.00481176
0.0033412
0.00172304
0.000327904
0.000328073
0.00171085
0.00333149
0.00480583
0.00602177
0.00693959
0.00758073
0.00799722
0.0082494
0.00839205
0.0084676
0.00850517
0.00852273
0.00853037
0.00853315
0.00853315
0.00853037
0.00852274
0.00850518
0.0084676
0.00839205
0.0082494
0.00799719
0.00758066
0.00693945
0.00602151
0.00480546
0.0033311
0.00171061
0.000328067
0.000328138
0.00169748
0.00332286
0.00480151
0.00602068
0.00694029
0.00758221
0.00799893
0.00825113
0.00839373
0.00846924
0.00850677
0.00852432
0.00853195
0.00853474
0.00853474
0.00853195
0.00852433
0.00850679
0.00846925
0.00839374
0.00825114
0.00799892
0.00758216
0.00694019
0.00602049
0.00480119
0.00332244
0.00169715
0.000328122
0.000328199
0.00168769
0.00331804
0.0048001
0.00602176
0.00694253
0.00758484
0.0080016
0.00825372
0.00839622
0.00847165
0.00850916
0.00852671
0.00853433
0.00853713
0.00853713
0.00853434
0.00852671
0.00850917
0.00847168
0.00839625
0.00825374
0.0080016
0.00758482
0.00694248
0.00602167
0.00479994
0.00331775
0.0016872
0.000328174
0.000328422
0.00168694
0.0033181
0.00480154
0.00602497
0.00694639
0.00758873
0.00800529
0.00825721
0.00839957
0.00847491
0.0085124
0.00852989
0.00853749
0.00854024
0.00854024
0.00853749
0.00852989
0.00851238
0.00847493
0.00839961
0.00825724
0.00800532
0.00758874
0.00694639
0.00602499
0.00480158
0.0033181
0.00168659
0.000328391
0.000328951
0.00169475
0.00332054
0.00480477
0.00602991
0.00695177
0.00759389
0.00801008
0.00826168
0.00840383
0.00847907
0.00851648
0.00853394
0.00854152
0.00854428
0.00854429
0.00854153
0.00853396
0.00851649
0.00847909
0.00840386
0.00826172
0.00801011
0.00759392
0.00695181
0.00602999
0.00480495
0.00332088
0.00169513
0.000328946
0.000329556
0.00170091
0.00332254
0.0048095
0.00603657
0.00695868
0.00760035
0.00801599
0.00826717
0.00840906
0.00848417
0.0085215
0.00853898
0.00854659
0.0085494
0.0085494
0.0085466
0.008539
0.00852153
0.0084842
0.00840909
0.00826721
0.00801602
0.00760038
0.00695872
0.00603663
0.00480963
0.00332293
0.00170192
0.000329578
0.000329838
0.00169899
0.0033269
0.00481813
0.00604592
0.00696741
0.00760816
0.00802302
0.00827368
0.00841526
0.00849021
0.00852748
0.00854493
0.00855253
0.00855533
0.00855533
0.00855254
0.00854495
0.00852751
0.00849023
0.00841529
0.00827371
0.00802306
0.00760819
0.00696741
0.00604589
0.00481806
0.00332699
0.00170025
0.000329876
0.00033014
0.00169565
0.00333549
0.00483194
0.00605854
0.00697812
0.00761738
0.00803123
0.00828125
0.0084225
0.00849727
0.00853447
0.00855189
0.00855946
0.00856221
0.00856222
0.00855947
0.0085519
0.0085345
0.0084973
0.00842253
0.00828129
0.00803126
0.0076174
0.00697811
0.00605848
0.00483185
0.00333561
0.00169623
0.000330161
0.000331111
0.00172105
0.00334553
0.00484704
0.00607286
0.00699036
0.00762796
0.00804073
0.00829013
0.00843105
0.00850567
0.00854282
0.00856018
0.00856774
0.0085705
0.0085705
0.00856775
0.0085602
0.00854282
0.00850571
0.00843109
0.00829017
0.00804076
0.00762799
0.00699038
0.00607287
0.00484712
0.00334586
0.00172107
0.0003311
0.000333453
0.00175035
0.00335698
0.00486005
0.00608659
0.00700325
0.00763977
0.00805173
0.00830065
0.0084413
0.00851581
0.00855289
0.00857024
0.0085778
0.00858056
0.00858056
0.0085778
0.00857025
0.0085529
0.00851582
0.00844132
0.00830067
0.00805177
0.00763981
0.00700329
0.00608667
0.00486023
0.00335718
0.00175006
0.000333417
0.000336449
0.00178356
0.00337353
0.00487158
0.0060988
0.00701605
0.00765257
0.00806428
0.00831296
0.00845348
0.00852793
0.008565
0.00858238
0.00858993
0.00859269
0.00859269
0.00858993
0.00858237
0.00856501
0.00852794
0.0084535
0.008313
0.00806433
0.00765262
0.00701613
0.00609893
0.00487181
0.00337368
0.00178333
0.000336433
0.000338504
0.00180296
0.00338778
0.00488119
0.00610937
0.00702844
0.00766599
0.0080781
0.0083269
0.00846747
0.00854195
0.00857906
0.00859645
0.00860403
0.00860679
0.00860679
0.00860402
0.00859645
0.00857906
0.00854196
0.00846749
0.00832694
0.00807815
0.00766606
0.00702853
0.00610951
0.00488138
0.00338783
0.0018029
0.000338501
0.000338914
0.00180808
0.00339421
0.00488822
0.00611862
0.00704045
0.00767981
0.00809285
0.00834209
0.00848286
0.00855746
0.00859464
0.00861208
0.0086197
0.00862249
0.00862249
0.0086197
0.00861208
0.00859464
0.00855748
0.00848289
0.00834213
0.0080929
0.00767987
0.00704054
0.00611873
0.00488835
0.00339425
0.00180813
0.000338917
0.000338589
0.00179077
0.00339488
0.0048942
0.00612756
0.00705254
0.0076941
0.00810839
0.00835827
0.00849937
0.00857415
0.00861144
0.00862897
0.00863666
0.00863949
0.00863949
0.00863666
0.00862898
0.00861146
0.00857418
0.00849941
0.00835832
0.00810844
0.00769416
0.00705261
0.00612764
0.00489429
0.00339495
0.00179085
0.000338594
0.000338097
0.00175505
0.00338751
0.00490039
0.00613777
0.00706577
0.00770946
0.00812504
0.00837563
0.00851712
0.00859212
0.00862954
0.00864712
0.00865483
0.00865767
0.00865767
0.00865483
0.00864714
0.00862957
0.00859215
0.00851716
0.00837568
0.00812509
0.00770952
0.00706582
0.0061378
0.0049004
0.00338744
0.00175512
0.000338102
0.000337753
0.00173768
0.00337278
0.00490544
0.00615032
0.00708148
0.00772696
0.00814361
0.00839485
0.00853671
0.0086119
0.00864936
0.00866684
0.00867435
0.008677
0.008677
0.00867435
0.00866686
0.00864938
0.00861193