/*--------------------------------*- C++ -*----------------------------------*\
| =========                 |                                                 |
| \\      /  F ield         | OpenFOAM: The Open Source CFD Toolbox           |
|  \\    /   O peration     | Version:  2.3.0                                 |
|   \\  /    A nd           | Web:      www.OpenFOAM.org                      |
|    \\/     M anipulation  |                                                 |
\*---------------------------------------------------------------------------*/
FoamFile
{
    version     2.0;
    format      ascii;
    class       surfaceScalarField;
    location    "0.02";
    object      phi.particles;
}
// * * * * * * * * * * * * * * * * * * * * * * * * * * * * * * * * * * * * * //

dimensions      [0 3 -1 0 0 0 0];

internalField   nonuniform List<scalar> 
11770
(
1.67086e-06
5.28314e-06
1.98727e-06
7.70943e-06
2.01394e-06
8.80014e-06
1.88995e-06
9.23361e-06
1.69671e-06
9.32628e-06
1.47976e-06
9.30099e-06
1.26447e-06
9.24577e-06
1.06382e-06
9.20262e-06
8.79407e-07
9.17091e-06
7.09908e-07
9.1473e-06
5.52958e-07
9.1296e-06
4.05883e-07
9.11654e-06
2.66051e-07
9.10728e-06
1.30974e-07
9.10125e-06
-1.71383e-09
9.09817e-06
-1.34336e-07
9.09803e-06
-2.69276e-07
9.10086e-06
-4.08932e-07
9.10682e-06
-5.55821e-07
9.11623e-06
-7.12595e-07
9.12944e-06
-8.81924e-07
9.14724e-06
-1.06615e-06
9.17089e-06
-1.26659e-06
9.20261e-06
-1.48157e-06
9.24572e-06
-1.69802e-06
9.30079e-06
-1.89062e-06
9.32566e-06
-2.01397e-06
9.2325e-06
-1.98692e-06
8.79886e-06
-1.67071e-06
7.70905e-06
5.28358e-06
3.32566e-06
7.74803e-06
3.71286e-06
1.20844e-05
3.29889e-06
1.46036e-05
2.70333e-06
1.60997e-05
2.18937e-06
1.67559e-05
1.79382e-06
1.69325e-05
1.48115e-06
1.69136e-05
1.22281e-06
1.68489e-05
1.0007e-06
1.67844e-05
8.036e-07
1.67309e-05
6.2422e-07
1.66895e-05
4.57411e-07
1.66588e-05
2.99273e-07
1.66371e-05
1.46713e-07
1.6623e-05
-2.99991e-09
1.66159e-05
-1.52515e-07
1.66155e-05
-3.04554e-07
1.66219e-05
-4.62047e-07
1.66356e-05
-6.28285e-07
1.66574e-05
-8.07247e-07
1.66883e-05
-1.00405e-06
1.67299e-05
-1.22592e-06
1.67834e-05
-1.48403e-06
1.6848e-05
-1.79643e-06
1.69125e-05
-2.19158e-06
1.69307e-05
-2.70484e-06
1.67528e-05
-3.2991e-06
1.6095e-05
-3.71154e-06
1.4599e-05
-3.32429e-06
1.20823e-05
7.74845e-06
3.46103e-06
6.75112e-06
4.12155e-06
1.22729e-05
3.84215e-06
1.54895e-05
3.19173e-06
1.76912e-05
2.47506e-06
1.89985e-05
1.89192e-06
1.96105e-05
1.46954e-06
1.98169e-05
1.16383e-06
1.98377e-05
9.29301e-07
1.97921e-05
7.36528e-07
1.97321e-05
5.68516e-07
1.9677e-05
4.15349e-07
1.96329e-05
2.71172e-07
1.96004e-05
1.32354e-07
1.95791e-05
-3.76788e-09
1.95683e-05
-1.3962e-07
1.95677e-05
-2.77682e-07
1.95776e-05
-4.209e-07
1.95983e-05
-5.73278e-07
1.96306e-05
-7.40745e-07
1.96749e-05
-9.33201e-07
1.97301e-05
-1.16766e-06
1.97901e-05
-1.4736e-06
1.98356e-05
-1.89651e-06
1.98141e-05
-2.48016e-06
1.96061e-05
-3.19648e-06
1.89916e-05
-3.845e-06
1.76822e-05
-4.12171e-06
1.54814e-05
-3.45924e-06
1.22694e-05
6.75284e-06
2.65432e-06
6.14023e-06
3.36748e-06
1.25105e-05
3.33425e-06
1.62694e-05
2.97794e-06
1.88281e-05
2.44896e-06
2.04466e-05
1.90966e-06
2.13316e-05
1.45879e-06
2.173e-05
1.11767e-06
2.18587e-05
8.64066e-07
2.18627e-05
6.68341e-07
2.18204e-05
5.07727e-07
2.17684e-05
3.67447e-07
2.17217e-05
2.38655e-07
2.16854e-05
1.161e-07
2.1661e-05
-3.57265e-09
2.16485e-05
-1.23078e-07
2.1648e-05
-2.45113e-07
2.16595e-05
-3.73207e-07
2.16834e-05
-5.12847e-07
2.17195e-05
-6.72994e-07
2.17662e-05
-8.68484e-07
2.18183e-05
-1.12221e-06
2.18606e-05
-1.46386e-06
2.18565e-05
-1.91558e-06
2.17269e-05
-2.45567e-06
2.13269e-05
-2.98477e-06
2.0439e-05
-3.34014e-06
1.88175e-05
-3.37141e-06
1.62585e-05
-2.65594e-06
1.25045e-05
6.14208e-06
1.84762e-06
5.79061e-06
2.43823e-06
1.26558e-05
2.50138e-06
1.688e-05
2.33598e-06
1.97522e-05
2.02997e-06
2.15978e-05
1.66766e-06
2.26662e-05
1.32162e-06
2.32063e-05
1.02996e-06
2.34294e-05
7.98098e-07
2.34872e-05
6.14397e-07
2.34714e-05
4.63811e-07
2.34306e-05
3.33932e-07
2.33875e-05
2.16175e-07
2.33517e-05
1.05042e-07
2.33268e-05
-3.09569e-09
2.33139e-05
-1.11144e-07
2.33134e-05
-2.21954e-07
2.33255e-05
-3.39237e-07
2.33499e-05
-4.68647e-07
2.33855e-05
-6.18846e-07
2.34287e-05
-8.02306e-07
2.34696e-05
-1.03417e-06
2.34855e-05
-1.32615e-06
2.34276e-05
-1.67281e-06
2.32039e-05
-2.03596e-06
2.26625e-05
-2.34287e-06
2.15914e-05
-2.50888e-06
1.97421e-05
-2.44525e-06
1.68674e-05
-1.85255e-06
1.26464e-05
5.78947e-06
1.27504e-06
5.59079e-06
1.72865e-06
1.27832e-05
1.80981e-06
1.74055e-05
1.72869e-06
2.05413e-05
1.55113e-06
2.25548e-05
1.32602e-06
2.37476e-05
1.09368e-06
2.43869e-05
8.81019e-07
2.46842e-05
6.98903e-07
2.47912e-05
5.46041e-07
2.48046e-05
4.15761e-07
2.47795e-05
3.00803e-07
2.47441e-05
1.95302e-07
2.47118e-05
9.51352e-08
2.46883e-05
-2.58818e-09
2.46759e-05
-1.00254e-07
2.46755e-05
-2.00172e-07
2.46871e-05
-3.05294e-07
2.471e-05
-4.19808e-07
2.47421e-05
-5.49653e-07
2.47775e-05
-7.02127e-07
2.48028e-05
-8.83969e-07
2.47896e-05
-1.0965e-06
2.46827e-05
-1.32895e-06
2.43852e-05
-1.55447e-06
2.37451e-05
-1.73294e-06
2.25503e-05
-1.81539e-06
2.05329e-05
-1.73512e-06
1.73923e-05
-1.28019e-06
1.27698e-05
5.58425e-06
8.9906e-07
5.50613e-06
1.24227e-06
1.29559e-05
1.31814e-06
1.79225e-05
1.27163e-06
2.1286e-05
1.15892e-06
2.34361e-05
1.01518e-06
2.47195e-05
8.62951e-07
2.54271e-05
7.1688e-07
2.57778e-05
5.84311e-07
2.59241e-05
4.66391e-07
2.59639e-05
3.60724e-07
2.59552e-05
2.63773e-07
2.59294e-05
1.72411e-07
2.59024e-05
8.43205e-08
2.58816e-05
-2.23459e-09
2.58702e-05
-8.86869e-08
2.58697e-05
-1.76475e-07
2.58801e-05
-2.67379e-07
2.59003e-05
-3.63786e-07
2.5927e-05
-4.68889e-07
2.59528e-05
-5.8622e-07
2.59617e-05
-7.18221e-07
2.59222e-05
-8.63778e-07
2.57762e-05
-1.01555e-06
2.54256e-05
-1.15894e-06
2.47177e-05
-1.27154e-06
2.34334e-05
-1.31851e-06
2.12803e-05
-1.24355e-06
1.79106e-05
-9.0039e-07
1.29397e-05
5.49495e-06
6.51394e-07
5.50988e-06
9.06548e-07
1.31984e-05
9.67214e-07
1.84592e-05
9.35385e-07
2.20132e-05
8.58499e-07
2.42741e-05
7.63485e-07
2.56268e-05
6.63798e-07
2.63842e-05
5.6624e-07
2.67739e-05
4.73741e-07
2.69504e-05
3.86816e-07
2.70124e-05
3.04653e-07
2.70187e-05
2.2559e-07
2.70027e-05
1.48564e-07
2.69815e-05
7.28066e-08
2.69639e-05
-2.19152e-09
2.69539e-05
-7.69888e-08
2.69533e-05
-1.52234e-07
2.69621e-05
-2.28514e-07
2.69789e-05
-3.06842e-07
2.69997e-05
-3.88306e-07
2.70157e-05
-4.74434e-07
2.70095e-05
-5.66157e-07
2.69479e-05
-6.63059e-07
2.67718e-05
-7.62025e-07
2.63824e-05
-8.56109e-07
2.56251e-05
-9.31857e-07
2.42723e-05
-9.62578e-07
2.20102e-05
-9.01623e-07
1.84511e-05
-6.476e-07
1.31828e-05
5.49774e-06
4.84651e-07
5.58031e-06
6.68498e-07
1.35099e-05
7.09267e-07
1.90253e-05
6.82447e-07
2.27371e-05
6.28159e-07
2.50853e-05
5.65182e-07
2.649e-05
5.01314e-07
2.72834e-05
4.38512e-07
2.77011e-05
3.76451e-07
2.79e-05
3.14509e-07
2.79794e-05
2.52379e-07
2.79985e-05
1.89224e-07
2.79912e-05
1.25485e-07
2.79758e-05
6.13618e-08
2.79615e-05
-2.38331e-09
2.79529e-05
-6.59024e-08
2.79523e-05
-1.29193e-07
2.79595e-05
-1.91794e-07
2.79728e-05
-2.53979e-07
2.79878e-05
-3.15278e-07
2.7995e-05
-3.76255e-07
2.7976e-05
-4.37469e-07
2.7897e-05
-4.99716e-07
2.76985e-05
-5.63008e-07
2.72812e-05
-6.25069e-07
2.6488e-05
-6.78081e-07
2.50837e-05
-7.02826e-07
2.27359e-05
-6.60991e-07
1.9022e-05
-4.78451e-07
1.34991e-05
5.5712e-06
3.71476e-07
5.70039e-06
4.99914e-07
1.38798e-05
5.21218e-07
1.96201e-05
4.93738e-07
2.34623e-05
4.53062e-07
2.58808e-05
4.11321e-07
2.73243e-05
3.7193e-07
2.81426e-05
3.33902e-07
2.85788e-05
2.94338e-07
2.87934e-05
2.51687e-07
2.88855e-05
2.05704e-07
2.89145e-05
1.56064e-07
2.89146e-05
1.04157e-07
2.89042e-05
5.06203e-08
2.88931e-05
-2.6041e-09
2.88859e-05
-5.56745e-08
2.88852e-05
-1.0807e-07
2.88909e-05
-1.5851e-07
2.89011e-05
-2.06982e-07
2.89111e-05
-2.51989e-07
2.89109e-05
-2.93634e-07
2.8882e-05
-3.32446e-07
2.87902e-05
-3.70152e-07
2.85759e-05
-4.09333e-07
2.81399e-05
-4.50707e-07
2.73217e-05
-4.90609e-07
2.58785e-05
-5.16163e-07
2.3462e-05
-4.94258e-07
1.96207e-05
-3.66604e-07
1.38762e-05
5.69639e-06
2.96457e-07
5.85658e-06
3.84193e-07
1.42954e-05
3.87563e-07
2.02396e-05
3.58996e-07
2.41928e-05
3.24612e-07
2.66642e-05
2.95137e-07
2.81364e-05
2.70833e-07
2.89723e-05
2.50127e-07
2.94215e-05
2.2637e-07
2.96468e-05
1.97992e-07
2.97475e-05
1.64876e-07
2.97834e-05
1.26552e-07
2.97893e-05
8.49497e-08
2.97831e-05
4.09458e-08
2.97747e-05
-2.70949e-09
2.97689e-05
-4.62938e-08
2.97682e-05
-8.8935e-08
2.97726e-05
-1.2895e-07
2.97802e-05
-1.65863e-07
2.97857e-05
-1.98035e-07
2.97801e-05
-2.25622e-07
2.97443e-05
-2.48637e-07
2.96435e-05
-2.6944e-07
2.94186e-05
-2.93804e-07
2.89694e-05
-3.23896e-07
2.81332e-05
-3.57647e-07
2.66612e-05
-3.85995e-07
2.41913e-05
-3.81968e-07
2.02419e-05
-2.94426e-07
1.42986e-05
5.85772e-06
2.47656e-07
6.03785e-06
3.05491e-07
1.47443e-05
2.9109e-07
2.08793e-05
2.58144e-07
2.49355e-05
2.29321e-07
2.74546e-05
2.08482e-07
2.89429e-05
1.94341e-07
2.97845e-05
1.84599e-07
3.02393e-05
1.70588e-07
3.047e-05
1.52248e-07
3.05763e-05
1.29669e-07
3.06175e-05
1.00712e-07
3.06274e-05
6.78909e-08
3.06243e-05
3.24455e-08
3.0618e-05
-2.62397e-09
3.06134e-05
-3.77025e-08
3.06128e-05
-7.16814e-08
3.06163e-05
-1.03151e-07
3.06217e-05
-1.30055e-07
3.06245e-05
-1.5213e-07
3.06145e-05
-1.70395e-07
3.05735e-05
-1.83178e-07
3.04672e-05
-1.93634e-07
3.02367e-05
-2.08513e-07
2.97814e-05
-2.30491e-07
2.89383e-05
-2.59784e-07
2.74496e-05
-2.92997e-07
2.49317e-05
-3.06062e-07
2.08813e-05
-2.47962e-07
1.4752e-05
6.04331e-06
2.15282e-07
6.23476e-06
2.50654e-07
1.52164e-05
2.22032e-07
2.15361e-05
1.82905e-07
2.56887e-05
1.52198e-07
2.8248e-05
1.37218e-07
2.97524e-05
1.32759e-07
3.05992e-05
1.30397e-07
3.10541e-05
1.24236e-07
3.12827e-05
1.13897e-07
3.13895e-05
9.91654e-08
3.14334e-05
7.79835e-08
3.14461e-05
5.29124e-08
3.14455e-05
2.51356e-08
3.1441e-05
-2.31681e-09
3.14373e-05
-2.98008e-08
3.14368e-05
-5.62028e-08
3.14395e-05
-8.00204e-08
3.14434e-05
-9.93424e-08
3.14436e-05
-1.13661e-07
3.1431e-05
-1.24205e-07
3.13873e-05
-1.29677e-07
3.12814e-05
-1.33227e-07
3.10518e-05
-1.39449e-07
3.05959e-05
-1.55336e-07
2.97476e-05
-1.87509e-07
2.82412e-05
-2.27237e-07
2.56815e-05
-2.54059e-07
2.15353e-05
-2.16906e-07
1.52262e-05
6.24374e-06
1.93168e-07
6.44108e-06
2.11552e-07
1.57052e-05
1.72847e-07
2.22102e-05
1.28627e-07
2.6456e-05
9.79609e-08
2.90509e-05
8.43211e-08
3.05639e-05
8.2167e-08
3.14107e-05
8.1519e-08
3.18645e-05
8.28899e-08
3.20959e-05
8.06112e-08
3.22046e-05
7.22022e-08
3.22492e-05
5.77422e-08
3.2262e-05
3.96232e-08
3.22615e-05
1.88479e-08
3.22577e-05
-1.7617e-09
3.22549e-05
-2.2468e-08
3.22547e-05
-4.20942e-08
3.22571e-05
-5.9261e-08
3.22607e-05
-7.22628e-08
3.22613e-05
-8.02929e-08
3.22476e-05
-8.20708e-08
3.2203e-05
-8.25288e-08
3.2094e-05
-8.39172e-08
3.18624e-05
-8.78698e-08
3.14075e-05
-1.0335e-07
3.05586e-05
-1.3636e-07
2.90424e-05
-1.82048e-07
2.64446e-05
-2.1922e-07
2.22036e-05
-1.96852e-07
1.57138e-05
6.45236e-06
1.76817e-07
6.65542e-06
1.82636e-07
1.62104e-05
1.37135e-07
2.29036e-05
9.02358e-08
2.72396e-05
5.98864e-08
2.98656e-05
4.68833e-08
3.13838e-05
4.52052e-08
3.22279e-05
4.75368e-08
3.26786e-05
5.12977e-08
3.29076e-05
5.22748e-08
3.3016e-05
4.71789e-08
3.30615e-05
3.84798e-08
3.30769e-05
2.73345e-08
3.30793e-05
1.3599e-08
3.30775e-05
-8.70695e-10
3.30754e-05
-1.53823e-08
3.30751e-05
-2.85441e-08
3.30766e-05
-3.9028e-08
3.30781e-05
-4.83002e-08
3.30754e-05
-5.21969e-08
3.30602e-05
-5.11644e-08
3.30145e-05
-4.88659e-08
3.2906e-05
-4.7503e-08
3.26767e-05
-5.08928e-08
3.22251e-05
-6.6301e-08
3.13787e-05
-9.98484e-08
2.98562e-05
-1.50037e-07
2.72242e-05
-1.96019e-07
2.28879e-05
-1.8472e-07
1.62116e-05
6.66534e-06
1.63153e-07
6.87885e-06
1.60185e-07
1.67345e-05
1.10949e-07
2.36176e-05
6.30309e-08
2.80402e-05
3.28227e-08
3.06942e-05
2.04073e-08
3.22155e-05
1.94935e-08
3.30549e-05
2.36379e-08
3.35003e-05
2.85428e-08
3.37258e-05
3.09638e-08
3.38328e-05
2.92408e-08
3.38788e-05
2.51895e-08
3.38955e-05
1.86344e-08
3.38991e-05
9.60275e-09
3.38981e-05
-3.00472e-10
3.38967e-05
-1.03145e-08
3.38965e-05
-1.90176e-08
3.38975e-05
-2.52081e-08
3.38981e-05
-2.9942e-08
3.38941e-05
-3.11428e-08
3.38776e-05
-2.875e-08
3.38316e-05
-2.46008e-08
3.37244e-05
-2.13087e-08
3.34987e-05
-2.34345e-08
3.30525e-05
-3.78199e-08
3.22113e-05
-7.11958e-08
3.06857e-05
-1.23596e-07
2.80231e-05
-1.76521e-07
2.35919e-05
-1.75137e-07
1.67208e-05
6.88038e-06
1.52925e-07
7.11391e-06
1.44507e-07
1.72791e-05
9.36743e-08
2.4351e-05
4.47418e-08
2.88575e-05
1.3919e-08
3.15384e-05
1.69234e-09
3.30616e-05
1.48905e-09
3.38947e-05
6.64049e-09
3.43335e-05
1.25058e-08
3.45545e-05
1.63374e-08
3.46593e-05
1.74292e-08
3.47048e-05
1.61106e-08
3.47217e-05
1.24931e-08
3.4726e-05
6.78425e-09
3.47258e-05
1.19753e-10
3.4725e-05
-6.68541e-09
3.47249e-05
-1.23098e-08
3.47254e-05
-1.60019e-08
3.47253e-05
-1.7427e-08
3.47208e-05
-1.63591e-08
3.47037e-05
-1.25546e-08
3.46581e-05
-6.85944e-09
3.45531e-05
-1.96205e-09
3.43319e-05
-2.46978e-09
3.38927e-05
-1.5508e-08
3.30583e-05
-4.74195e-08
3.15321e-05
-9.916e-08
2.88427e-05
-1.55325e-07
2.43199e-05
-1.63358e-07
1.72464e-05
7.09996e-06
1.48877e-07
7.3609e-06
1.37709e-07
1.78416e-05
8.49267e-08
2.51005e-05
3.34776e-08
2.96914e-05
1.216e-09
3.23997e-05
-1.12756e-08
3.39239e-05
-1.10969e-08
3.47497e-05
-5.27108e-09
3.51807e-05
1.43944e-09
3.53963e-05
6.58796e-09
3.54982e-05
9.44355e-09
3.55426e-05
9.83743e-09
3.55594e-05
8.25499e-09
3.55642e-05
4.89964e-09
3.55647e-05
4.89677e-10
3.55642e-05
-4.07372e-09
3.55641e-05
-7.57688e-09
3.55644e-05
-9.45242e-09
3.55637e-05
-9.03765e-09
3.55586e-05
-6.24779e-09
3.55415e-05
-1.08186e-09
3.54969e-05
5.83187e-09
3.53948e-05
1.20636e-08
3.51789e-05
1.30305e-08
3.47475e-05
1.81159e-09
3.39212e-05
-2.8981e-08
3.23958e-05
-7.91296e-08
2.96823e-05
-1.34741e-07
2.5073e-05
-1.49489e-07
1.77958e-05
7.33093e-06
1.51765e-07
7.61535e-06
1.38401e-07
1.84153e-05
8.12962e-08
2.58632e-05
2.60721e-08
3.05433e-05
-7.95918e-09
3.32804e-05
-2.06092e-08
3.48045e-05
-1.99212e-08
3.56214e-05
-1.3361e-08
3.60437e-05
-5.82729e-09
3.62531e-05
3.18846e-10
3.63515e-05
4.24306e-09
3.63944e-05
5.87214e-09
3.6411e-05
5.63338e-09
3.64162e-05
3.78837e-09
3.64171e-05
7.82009e-10
3.6417e-05
-2.32602e-09
3.64169e-05
-4.48171e-09
3.64169e-05
-5.08233e-09
3.64158e-05
-3.55755e-09
3.64103e-05
3.34754e-10
3.63934e-05
6.56816e-09
3.63501e-05
1.44619e-08
3.62513e-05
2.17412e-08
3.60414e-05
2.37299e-08
3.56186e-05
1.33265e-08
3.48013e-05
-1.74657e-08
3.32772e-05
-6.75975e-08
3.05399e-05
-1.22179e-07
2.58475e-05
-1.39856e-07
1.83715e-05
7.57889e-06
1.57097e-07
7.87059e-06
1.39694e-07
1.89937e-05
7.64627e-08
2.66399e-05
1.83553e-08
3.14165e-05
-1.64624e-08
3.41823e-05
-2.8242e-08
3.57045e-05
-2.63463e-08
3.65111e-05
-1.86569e-08
3.69236e-05
-1.01494e-08
3.71262e-05
-3.1863e-09
3.72209e-05
1.47972e-09
3.72621e-05
3.90981e-09
3.72782e-05
4.42321e-09
3.72836e-05
3.36958e-09
3.72849e-05
1.05043e-09
3.72851e-05
-1.32578e-09
3.72851e-05
-2.81554e-09
3.72849e-05
-2.71848e-09
3.72833e-05
-5.15031e-10
3.72776e-05
4.0895e-09
3.72611e-05
1.11427e-08
3.72194e-05
1.99411e-08
3.71242e-05
2.81678e-08
3.69209e-05
3.09961e-08
3.65076e-05
2.08866e-08
3.57002e-05
-1.06876e-08
3.41781e-05
-6.39389e-08
3.14153e-05
-1.2094e-07
2.66379e-05
-1.40046e-07
1.8967e-05
7.84155e-06
1.57345e-07
8.12308e-06
1.33555e-07
1.95763e-05
6.53359e-08
2.74363e-05
7.19796e-09
3.23145e-05
-2.57903e-08
3.51068e-05
-3.51341e-08
3.66246e-05
-3.11027e-08
3.74195e-05
-2.17871e-08
3.78215e-05
-1.20953e-08
3.80169e-05
-4.35105e-09
3.81075e-05
8.49759e-10
3.81469e-05
3.67347e-09
3.81625e-05
4.42837e-09
3.8168e-05
3.56186e-09
3.81697e-05
1.33749e-09
3.81701e-05
-9.36922e-10
3.81702e-05
-2.33038e-09
3.81697e-05
-2.07181e-09
3.81679e-05
4.44719e-10
3.81621e-05
5.52952e-09
3.8146e-05
1.32914e-08
3.81061e-05
2.3063e-08
3.80149e-05
3.2466e-08
3.78186e-05
3.65478e-08
3.74156e-05
2.72568e-08
3.66195e-05
-4.85211e-09
3.51006e-05
-6.18454e-08
3.23112e-05
-1.24698e-07
2.74417e-05
-1.47124e-07
1.95719e-05
8.11017e-06
1.47504e-07
8.3761e-06
1.17137e-07
2.01715e-05
4.81415e-08
2.82598e-05
-7.10356e-09
3.32392e-05
-3.51052e-08
3.60535e-05
-4.08483e-08
3.75648e-05
-3.40875e-08
3.83471e-05
-2.28575e-08
3.87382e-05
-1.19082e-08
3.89263e-05
-3.46033e-09
3.90128e-05
2.0519e-09
3.90502e-05
4.89931e-09
3.90653e-05
5.46277e-09
3.90709e-05
4.27909e-09
3.90729e-05
1.65083e-09
3.90736e-05
-1.03333e-09
3.90736e-05
-2.80568e-09
3.9073e-05
-2.82262e-09
3.90709e-05
-3.16774e-10
3.90649e-05
5.03305e-09
3.90494e-05
1.34348e-08
3.90114e-05
2.42931e-08
3.89244e-05
3.52802e-08
3.87355e-05
4.14425e-08
3.83434e-05
3.44095e-08
3.75597e-05
3.97843e-09
3.60463e-05
-5.40018e-08
3.32315e-05
-1.22429e-07
2.82631e-05
-1.51018e-07
2.0181e-05
8.37783e-06
1.29667e-07
8.63902e-06
9.59944e-08
2.0792e-05
3.11615e-08
2.91144e-05
-1.88211e-08
3.41888e-05
-4.17894e-08
3.70216e-05
-4.39384e-08
3.85253e-05
-3.45896e-08
3.92947e-05
-2.1589e-08
3.96748e-05
-9.57083e-09
3.98556e-05
-6.42284e-10
3.99379e-05
4.88955e-09
3.99734e-05
7.41305e-09
3.99879e-05
7.3747e-09
3.99937e-05
5.44328e-09
3.99959e-05
1.97616e-09
3.99969e-05
-1.55031e-09
3.99969e-05
-4.09978e-09
3.99961e-05
-4.76197e-09
3.99937e-05
-2.58008e-09
3.99877e-05
2.77261e-09
3.99727e-05
1.16696e-08
3.99366e-05
2.36107e-08
3.98537e-05
3.64206e-08
3.96723e-05
4.52746e-08
3.92914e-05
4.18086e-08
3.85211e-05
1.55752e-08
3.70152e-05
-3.95022e-08
3.41787e-05
-1.08904e-07
2.91096e-05
-1.43922e-07
2.08003e-05
8.64561e-06
1.1273e-07
8.92183e-06
8.1129e-08
2.14461e-05
2.26515e-08
2.9997e-05
-2.37522e-08
3.51593e-05
-4.33762e-08
3.80101e-05
-4.29794e-08
3.95067e-05
-3.18109e-08
4.02633e-05
-1.75877e-08
4.06325e-05
-4.93122e-09
4.0806e-05
4.11341e-09
4.08842e-05
9.29387e-09
4.09179e-05
1.11347e-08
4.09319e-05
1.00844e-08
4.09378e-05
7.00356e-09
4.09404e-05
2.29515e-09
4.09415e-05
-2.46319e-09
4.09416e-05
-6.17137e-09
4.09406e-05
-7.84879e-09
4.09379e-05
-6.33789e-09
4.09316e-05
-1.31105e-09
4.09171e-05
7.78617e-09
4.08828e-05
2.05626e-08
4.0804e-05
3.4988e-08
4.063e-05
4.63938e-08
4.02604e-05
4.66392e-08
3.95036e-05
2.55843e-08
3.80062e-05
-2.39128e-08
3.51517e-05
-8.92202e-08
2.99864e-05
-1.27047e-07
2.1442e-05
8.92192e-06
1.05833e-07
9.22748e-06
7.99777e-08
2.21312e-05
2.57121e-08
3.08993e-05
-2.02484e-08
3.61472e-05
-3.89913e-08
3.90189e-05
-3.73091e-08
4.05096e-05
-2.52239e-08
4.12538e-05
-1.04958e-08
4.16123e-05
2.23683e-09
4.17786e-05
1.09201e-08
4.18528e-05
1.53046e-08
4.18849e-05
1.60677e-08
4.18985e-05
1.35851e-08
4.19047e-05
8.94586e-09
4.19076e-05
2.59238e-09
4.1909e-05
-3.80413e-09
4.1909e-05
-9.06132e-09
4.19077e-05
-1.21696e-08
4.19046e-05
-1.17207e-08
4.18981e-05
-7.45513e-09
4.18839e-05
1.38286e-09
4.18513e-05
1.44907e-08
4.17764e-05
2.98921e-08
4.16096e-05
4.30079e-08
4.1251e-05
4.59133e-08
4.05074e-05
2.87445e-08
3.90182e-05
-1.6604e-08
3.61466e-05
-7.46541e-08
3.08916e-05
-1.09503e-07
2.21153e-05
9.2165e-06
1.10613e-07
9.54963e-06
9.07642e-08
2.28354e-05
3.78335e-08
3.18134e-05
-9.01836e-09
3.71507e-05
-2.86297e-08
4.00476e-05
-2.67151e-08
4.15341e-05
-1.44726e-08
4.22666e-05
6.7178e-11
4.26147e-05
1.22496e-08
4.27741e-05
2.00136e-08
4.28448e-05
2.30818e-08
4.28754e-05
2.22994e-08
4.28889e-05
1.79116e-08
4.28954e-05
1.12733e-08
4.28987e-05
2.83711e-09
4.29003e-05
-5.63891e-09
4.29003e-05
-1.28764e-08
4.28987e-05
-1.78885e-08
4.28951e-05
-1.90025e-08
4.28882e-05
-1.60112e-08
4.28742e-05
-8.02153e-09
4.2843e-05
4.73476e-09
4.27717e-05
2.02838e-08
4.26117e-05
3.40929e-08
4.22637e-05
3.8303e-08
4.15326e-05
2.27602e-08
4.00502e-05
-1.99274e-08
3.71593e-05
-7.29571e-08
3.18176e-05
-1.00622e-07
2.28193e-05
9.53277e-06
1.21001e-07
9.87817e-06
1.06755e-07
2.35464e-05
5.63047e-08
3.27367e-05
1.01935e-08
3.81693e-05
-1.13285e-08
4.10947e-05
-1.04032e-08
4.25789e-05
1.10611e-09
4.33007e-05
1.46496e-08
4.36392e-05
2.56162e-08
4.37925e-05
3.18064e-08
4.386e-05
3.29252e-08
4.38896e-05
2.99872e-08
4.39032e-05
2.30997e-08
4.39102e-05
1.39656e-08
4.39139e-05
2.95724e-09
4.39157e-05
-8.07262e-09
4.39156e-05
-1.77719e-08
4.39136e-05
-2.52005e-08
4.39095e-05
-2.84671e-08
4.39021e-05
-2.73846e-08
4.38881e-05
-2.09715e-08
4.3858e-05
-9.38247e-09
4.37899e-05
5.44392e-09
4.36362e-05
1.90314e-08
4.3298e-05
2.33984e-08
4.25786e-05
7.82282e-09
4.11009e-05
-3.36367e-08
3.81869e-05
-8.27111e-08
3.27568e-05
-1.02171e-07
2.35443e-05
9.86612e-06
1.30108e-07
1.02067e-05
1.22695e-07
2.42597e-05
7.90476e-08
3.36715e-05
3.67874e-08
3.92028e-05
1.54567e-08
4.21569e-05
1.38355e-08
4.36405e-05
2.29352e-08
4.43535e-05
3.43308e-08
4.46838e-05
4.31607e-08
4.48318e-05
4.69446e-08
4.48969e-05
4.52662e-08
4.4926e-05
3.93419e-08
4.49399e-05
2.91811e-08
4.49474e-05
1.69671e-08
4.49516e-05
2.8492e-09
4.49535e-05
-1.12287e-08
4.49533e-05
-2.39129e-08
4.49509e-05
-3.42952e-08
4.49463e-05
-4.04059e-08
4.49385e-05
-4.20609e-08
4.49243e-05
-3.81547e-08
4.4895e-05
-2.87286e-08
4.48296e-05
-1.57561e-08
4.46814e-05
-4.06831e-09
4.43521e-05
-7.87603e-10
4.36425e-05
-1.73687e-08
4.21672e-05
-5.59819e-08
3.92268e-05
-9.88812e-08
3.37051e-05
-1.09281e-07
2.428e-05
1.02091e-05
1.35105e-07
1.0536e-05
1.3746e-07
2.49797e-05
1.05577e-07
3.46215e-05
7.25635e-08
4.02499e-05
5.26949e-08
4.32299e-05
4.83439e-08
4.47139e-05
5.34212e-08
4.54203e-05
6.08386e-08
4.57441e-05
6.60674e-08
4.5888e-05
6.62058e-08
4.59513e-05
6.05423e-08
4.59802e-05
5.05611e-08
4.59945e-05
3.6209e-08
4.60026e-05
2.02561e-08
4.6007e-05
2.49131e-09
4.60091e-05
-1.51273e-08
4.60088e-05
-3.13471e-08
4.60062e-05
-4.5263e-08
4.60012e-05
-5.50445e-08
4.5993e-05
-6.05301e-08
4.59787e-05
-6.04062e-08
4.59501e-05
-5.459e-08
4.58869e-05
-4.51371e-08
4.57434e-05
-3.65562e-08
4.54215e-05
-3.66984e-08
4.47197e-05
-5.35752e-08
4.32443e-05
-8.78287e-08
4.02763e-05
-1.20163e-07
3.46618e-05
-1.18507e-07
2.50213e-05
1.05566e-05
1.37875e-07
1.0872e-05
1.53465e-07
2.57141e-05
1.36541e-07
3.55886e-05
1.15793e-07
4.1309e-05
1.00647e-07
4.43113e-05
9.42193e-08
4.57951e-05
9.40298e-08
4.6496e-05
9.55038e-08
4.68145e-05
9.51129e-08
4.6955e-05
8.98452e-08
4.70168e-05
7.87432e-08
4.70453e-05
6.35789e-08
4.70597e-05
4.42308e-08
4.7068e-05
2.39508e-08
4.70727e-05
2.11967e-09
4.70749e-05
-1.94749e-08
4.70747e-05
-3.9771e-08
4.70721e-05
-5.78611e-08
4.7067e-05
-7.22789e-08
4.70587e-05
-8.29127e-08
4.70447e-05
-8.82207e-08
4.70168e-05
-8.79553e-08
4.69557e-05
-8.42976e-08
4.68163e-05
-8.15934e-08
4.65005e-05
-8.62695e-08
4.58047e-05
-1.03132e-07
4.43278e-05
-1.29187e-07
4.13333e-05
-1.4815e-07
3.56268e-05
-1.30921e-07
2.57674e-05
1.0907e-05
1.43231e-07
1.12206e-05
1.74331e-07
2.64684e-05
1.71905e-07
3.65715e-05
1.61932e-07
4.23787e-05
1.53082e-07
4.54011e-05
1.46731e-07
4.68834e-05
1.41931e-07
4.75782e-05
1.36554e-07
4.78914e-05
1.28719e-07
4.80285e-05
1.16284e-07
4.80881e-05
9.8597e-08
4.81153e-05
7.7575e-08
4.81291e-05
5.30417e-08
4.8137e-05
2.82236e-08
4.81416e-05
2.2136e-09
4.81439e-05
-2.35912e-08
4.81439e-05
-4.83429e-08
4.81416e-05
-7.11913e-08
4.81369e-05
-9.11514e-08
4.81292e-05
-1.08122e-07
4.81158e-05
-1.20478e-07
4.80893e-05
-1.27746e-07
4.80306e-05
-1.31841e-07
4.78953e-05
-1.36297e-07
4.75852e-05
-1.45049e-07
4.68947e-05
-1.59787e-07
4.54168e-05
-1.762e-07
4.2398e-05
-1.81926e-07
3.66007e-05
-1.47929e-07
2.65193e-05
1.12601e-05
1.55347e-07
1.15834e-05
2.01741e-07
2.72416e-05
2.09873e-07
3.7567e-05
2.06082e-07
4.34591e-05
2.01641e-07
4.65018e-05
1.96449e-07
4.7982e-05
1.88737e-07
4.86697e-05
1.77259e-07
4.89766e-05
1.61565e-07
4.91092e-05
1.414e-07
4.91658e-05
1.17197e-07
4.91907e-05
9.06808e-08
4.92028e-05
6.17747e-08
4.92096e-05
3.28616e-08
4.92137e-05
3.04389e-09
4.92159e-05
-2.67787e-08
4.92161e-05
-5.59056e-08
4.92143e-05
-8.36785e-08
4.92104e-05
-1.09517e-07
4.92037e-05
-1.33187e-07
4.91917e-05
-1.53239e-07
4.91672e-05
-1.68931e-07
4.91115e-05
-1.8111e-07
4.89807e-05
-1.91715e-07
4.86767e-05
-2.02286e-07
4.79924e-05
-2.13321e-07
4.65149e-05
-2.2174e-07
4.34731e-05
-2.16719e-07
3.75851e-05
-1.67797e-07
2.72786e-05
1.16158e-05
1.74554e-07
1.1956e-05
2.33744e-07
2.80273e-05
2.47363e-07
3.85723e-05
2.45005e-07
4.45516e-05
2.41028e-07
4.76167e-05
2.35473e-07
4.90949e-05
2.25428e-07
4.97752e-05
2.09241e-07
5.00756e-05
1.87057e-07
5.02033e-05
1.60544e-07
5.02562e-05
1.31365e-07
5.02785e-05
1.00751e-07
5.02887e-05
6.89525e-08
5.02941e-05
3.69395e-08
5.02974e-05
4.12516e-09
5.02992e-05
-2.89652e-08
5.02995e-05
-6.17262e-08
5.02982e-05
-9.3793e-08
5.02951e-05
-1.24792e-07
5.02896e-05
-1.54203e-07
5.02793e-05
-1.80918e-07
5.02571e-05
-2.03937e-07
5.02048e-05
-2.22549e-07
5.00787e-05
-2.36998e-07
4.97809e-05
-2.47788e-07
4.91033e-05
-2.55934e-07
4.76271e-05
-2.5985e-07
4.45625e-05
-2.47562e-07
3.85824e-05
-1.87107e-07
2.80467e-05
1.19747e-05
1.97314e-07
1.23317e-05
2.65879e-07
2.88181e-05
2.81215e-07
3.95868e-05
2.7757e-07
4.5659e-05
2.70949e-07
4.87483e-05
2.62512e-07
5.0225e-05
2.49256e-07
5.08983e-05
2.29174e-07
5.11925e-05
2.02599e-07
5.13159e-05
1.72178e-07
5.13658e-05
1.40048e-07
5.13859e-05
1.06941e-07
5.13944e-05
7.35049e-08
5.13986e-05
3.94388e-08
5.14012e-05
4.57038e-09
5.14027e-05
-3.07142e-08
5.14031e-05
-6.59594e-08
5.14022e-05
-1.01042e-07
5.13999e-05
-1.35634e-07
5.13954e-05
-1.68937e-07
5.13865e-05
-2.00111e-07
5.13663e-05
-2.27943e-07
5.13168e-05
-2.50601e-07
5.11949e-05
-2.67278e-07
5.09029e-05
-2.78547e-07
5.02319e-05
-2.86177e-07
4.87574e-05
-2.88874e-07
4.56694e-05
-2.72509e-07
3.95947e-05
-2.03737e-07
2.88246e-05
1.23373e-05
2.18739e-07
1.27047e-05
2.9346e-07
2.96096e-05
3.08905e-07
4.06127e-05
3.03552e-07
4.67841e-05
2.93554e-07
4.98986e-05
2.81057e-07
5.13737e-05
2.63863e-07
5.20402e-05
2.40269e-07
5.23286e-05
2.10934e-07
5.24483e-05
1.78493e-07
5.2496e-05
1.44751e-07
5.25146e-05
1.10162e-07
5.25221e-05
7.56682e-08
5.25256e-05
4.02417e-08
5.25277e-05
4.07753e-09
5.25291e-05
-3.24736e-08
5.25296e-05
-6.91816e-08
5.25291e-05
-1.06031e-07
5.25274e-05
-1.42661e-07
5.25237e-05
-1.78129e-07
5.25158e-05
-2.11702e-07
5.24969e-05
-2.42009e-07
5.24494e-05
-2.66978e-07
5.23309e-05
-2.85482e-07
5.20442e-05
-2.98252e-07
5.13799e-05
-3.07201e-07
4.99072e-05
-3.10424e-07
4.67954e-05
-2.92154e-07
4.06232e-05
-2.17433e-07
2.96127e-05
1.27037e-05
2.34685e-07
1.30726e-05
3.13029e-07
3.04026e-05
3.28833e-07
4.16541e-05
3.22863e-07
4.79295e-05
3.10622e-07
5.10684e-05
2.9478e-07
5.25411e-05
2.74064e-07
5.32005e-05
2.47531e-07
5.34834e-05
2.16332e-07
5.35997e-05
1.82641e-07
5.36457e-05
1.47744e-07
5.36634e-05
1.12007e-07
5.36704e-05
7.65394e-08
5.36736e-05
4.00665e-08
5.36757e-05
3.05952e-09
5.36771e-05
-3.42375e-08
5.36778e-05
-7.183e-08
5.36776e-05
-1.09712e-07
5.36763e-05
-1.47451e-07
5.3673e-05
-1.84088e-07
5.36655e-05
-2.18906e-07
5.36473e-05
-2.50443e-07
5.36014e-05
-2.76955e-07
5.34858e-05
-2.9737e-07
5.32043e-05
-3.12195e-07
5.25467e-05
-3.2287e-07
5.10765e-05
-3.26771e-07
4.79414e-05
-3.07493e-07
4.16689e-05
-2.28396e-07
3.04104e-05
1.30733e-05
2.42586e-07
1.34375e-05
3.23161e-07
3.1202e-05
3.40989e-07
4.27161e-05
3.36134e-07
4.90967e-05
3.23324e-07
5.22578e-05
3.05644e-07
5.37268e-05
2.82549e-07
5.43785e-05
2.53937e-07
5.46557e-05
2.21366e-07
5.47688e-05
1.8656e-07
5.48133e-05
1.50557e-07
5.48304e-05
1.13704e-07
5.48373e-05
7.71551e-08
5.48406e-05
3.97338e-08
5.48428e-05
2.05654e-09
5.48443e-05
-3.58472e-08
5.48452e-05
-7.41589e-08
5.48453e-05
-1.12842e-07
5.48442e-05
-1.51374e-07
5.4841e-05
-1.88845e-07
5.48337e-05
-2.24544e-07
5.48159e-05
-2.5701e-07
5.47711e-05
-2.84883e-07
5.46582e-05
-3.07177e-07
5.4382e-05
-3.23932e-07
5.37317e-05
-3.35819e-07
5.22649e-05
-3.39619e-07
4.91078e-05
-3.19016e-07
4.27334e-05
-2.36366e-07
3.12184e-05
1.34455e-05
2.42325e-07
1.38055e-05
3.25488e-07
3.20158e-05
3.47703e-07
4.38023e-05
3.45441e-07
5.02857e-05
3.33187e-07
5.34659e-05
3.14736e-07
5.49298e-05
2.90215e-07
5.55735e-05
2.60298e-07
5.58449e-05
2.26698e-07
5.59548e-05
1.90832e-07
5.59979e-05
1.53764e-07
5.60147e-05
1.15844e-07
5.60218e-05
7.81059e-08
5.60253e-05
3.97404e-08
5.60277e-05
1.34776e-09
5.60295e-05
-3.72649e-08
5.60305e-05
-7.63668e-08
5.60307e-05
-1.15878e-07
5.60296e-05
-1.55193e-07
5.60264e-05
-1.93481e-07
5.6019e-05
-2.30057e-07
5.60014e-05
-2.63575e-07
5.59577e-05
-2.9285e-07
5.58476e-05
-3.16829e-07
5.55767e-05
-3.35117e-07
5.4934e-05
-3.47573e-07
5.34717e-05
-3.50296e-07
5.02947e-05
-3.27248e-07
4.38186e-05
-2.41071e-07
3.20388e-05
1.38215e-05
2.37245e-07
1.41843e-05
3.25013e-07
3.2852e-05
3.53268e-07
4.4914e-05
3.53889e-07
5.14954e-05
3.42252e-07
5.46919e-05
3.23184e-07
5.61496e-05
2.97545e-07
5.67849e-05
2.66676e-07
5.70504e-05
2.32225e-07
5.71572e-05
1.95419e-07
5.71991e-05
1.57383e-07
5.72157e-05
1.18531e-07
5.7223e-05
7.95827e-08
5.7227e-05
4.02361e-08
5.72296e-05
9.52965e-10
5.72315e-05
-3.85637e-08
5.72327e-05
-7.85919e-08
5.72329e-05
-1.19005e-07
5.72318e-05
-1.59148e-07
5.72284e-05
-1.98308e-07
5.72209e-05
-2.35836e-07
5.72035e-05
-2.70598e-07
5.71608e-05
-3.01385e-07
5.70535e-05
-3.26906e-07
5.6788e-05
-3.46434e-07
5.61533e-05
-3.59083e-07
5.46964e-05
-3.60076e-07
5.15015e-05
-3.33331e-07
4.49259e-05
-2.42993e-07
3.28752e-05
1.42037e-05
2.33354e-07
1.45797e-05
3.27984e-07
3.37143e-05
3.61835e-07
4.60491e-05
3.64142e-07
5.27236e-05
3.5226e-07
5.59347e-05
3.32058e-07
5.73858e-05
3.05099e-07
5.80124e-05
2.73194e-07
5.82719e-05
2.37846e-07
5.83757e-05
2.00168e-07
5.84165e-05
1.6123e-07
5.8433e-05
1.21567e-07
5.84406e-05
8.14909e-08
5.84449e-05
4.11241e-08
5.84478e-05
7.73753e-10
5.84499e-05
-3.98027e-08
5.84511e-05
-8.08379e-08
5.84513e-05
-1.2217e-07
5.845e-05
-1.63162e-07
5.84465e-05
-2.03231e-07
5.84388e-05
-2.41779e-07
5.84217e-05
-2.77923e-07
5.83802e-05
-3.10352e-07
5.82757e-05
-3.37436e-07
5.80158e-05
-3.58132e-07
5.73892e-05
-3.70925e-07
5.59383e-05
-3.70105e-07
5.27275e-05
-3.38924e-07
4.60553e-05
-2.43519e-07
3.37308e-05
1.45955e-05
2.3567e-07
1.4992e-05
3.37833e-07
3.46002e-05
3.74938e-07
4.72032e-05
3.77127e-07
5.39687e-05
3.63902e-07
5.71941e-05
3.41901e-07
5.86382e-05
3.13259e-07
5.92559e-05
2.80006e-07
5.95095e-05
2.43541e-07
5.96102e-05
2.04936e-07
5.96498e-05
1.6509e-07
5.96662e-05
1.24621e-07
5.9674e-05
8.35356e-08
5.96786e-05
4.21523e-08
5.96818e-05
6.78298e-10
5.96839e-05
-4.09833e-08
5.96851e-05
-8.29879e-08
5.96852e-05
-1.2518e-07
5.96838e-05
-1.67014e-07