/*--------------------------------*- C++ -*----------------------------------*\
| =========                 |                                                 |
| \\      /  F ield         | OpenFOAM: The Open Source CFD Toolbox           |
|  \\    /   O peration     | Version:  2.3.0                                 |
|   \\  /    A nd           | Web:      www.OpenFOAM.org                      |
|    \\/     M anipulation  |                                                 |
\*---------------------------------------------------------------------------*/
FoamFile
{
    version     2.0;
    format      ascii;
    class       surfaceScalarField;
    location    "1.27";
    object      phi.air;
}
// * * * * * * * * * * * * * * * * * * * * * * * * * * * * * * * * * * * * * //

dimensions      [0 3 -1 0 0 0 0];

internalField   nonuniform List<scalar> 
11770
(
3.53313e-06
8.59815e-05
1.07869e-05
8.40775e-05
2.03028e-05
8.45805e-05
-3.06788e-06
0.000117332
-1.97152e-05
0.000109558
-1.70998e-05
9.1527e-05
-1.03358e-05
8.77363e-05
-5.91168e-06
8.77045e-05
-9.47446e-07
8.69956e-05
5.05288e-06
8.81392e-05
8.69616e-06
9.24915e-05
1.267e-05
9.61281e-05
1.222e-05
0.000105817
9.20768e-06
0.000113966
6.58125e-06
0.000115939
4.30745e-06
0.00011495
1.05397e-06
0.000113821
-3.19505e-06
0.000113002
-8.60265e-06
0.000114204
-1.26908e-05
0.000115011
-1.36577e-05
0.000113677
-1.7099e-05
0.000113151
-2.52445e-05
0.000110996
-2.63671e-05
0.000101068
-2.41837e-05
9.6954e-05
-1.8905e-05
9.4419e-05
-1.18186e-05
9.29448e-05
-6.13675e-06
9.40502e-05
-3.30061e-06
9.8283e-05
9.70975e-05
7.77083e-06
7.05044e-05
1.45198e-05
6.87908e-05
2.08277e-05
6.95208e-05
7.94543e-06
0.000116824
-1.26857e-05
0.000114314
-2.13684e-05
8.6332e-05
-1.44047e-05
6.95285e-05
-4.74565e-06
6.6475e-05
5.04697e-06
6.63912e-05
1.27676e-05
6.94636e-05
1.79069e-05
7.6659e-05
1.95349e-05
8.54723e-05
1.40454e-05
0.000103965
2.83548e-06
0.00011506
-3.36825e-06
0.000109587
-7.6081e-06
0.000103859
-9.24859e-06
9.88301e-05
-9.2094e-06
9.61557e-05
-9.66832e-06
9.67376e-05
-1.11765e-05
9.68124e-05
-1.43815e-05
9.61393e-05
-2.06142e-05
9.92797e-05
-2.72942e-05
0.000101554
-2.70738e-05
9.16256e-05
-2.39814e-05
8.76268e-05
-1.94581e-05
8.48979e-05
-1.22249e-05
8.21534e-05
-2.99307e-06
8.22937e-05
-8.37635e-06
9.49478e-05
8.16577e-05
4.92067e-06
6.92499e-05
1.65192e-05
6.36342e-05
2.03502e-05
7.0436e-05
7.99606e-06
0.000127448
-4.84428e-06
0.000125417
-2.02882e-05
9.88933e-05
-1.01572e-05
6.45466e-05
1.34743e-06
6.33478e-05
1.09026e-05
6.69304e-05
1.90086e-05
7.23446e-05
2.93424e-05
7.96225e-05
3.43473e-05
9.28196e-05
9.80662e-06
0.000121819
-7.67584e-06
0.000117951
-1.55859e-05
0.000102606
-1.88406e-05
9.22856e-05
-1.93941e-05
8.55816e-05
-1.97244e-05
8.29644e-05
-1.95667e-05
8.31216e-05
-1.96299e-05
8.36658e-05
-2.01096e-05
8.40339e-05
-2.01349e-05
8.74825e-05
-1.70507e-05
8.83866e-05
-1.74661e-05
8.21452e-05
-1.58686e-05
7.69054e-05
-1.2936e-05
7.34513e-05
-8.9338e-06
7.27161e-05
-3.10312e-06
7.62894e-05
-8.42364e-06
9.89158e-05
7.70711e-05
6.67857e-06
6.37553e-05
1.94182e-05
5.35351e-05
8.6377e-06
8.1315e-05
6.81778e-06
0.000130071
3.38995e-06
0.000127422
-7.41904e-06
0.000104203
-3.19446e-06
5.87015e-05
4.15277e-06
5.83818e-05
1.29654e-05
6.38393e-05
2.25248e-05
7.06641e-05
3.42223e-05
7.75631e-05
1.16547e-05
0.00010551
-1.35478e-05
0.000127535
-2.7093e-05
0.000118045
-3.68283e-05
0.000100873
-3.97076e-05
8.606e-05
-3.85475e-05
7.68211e-05
-3.58695e-05
7.34748e-05
-3.27676e-05
7.39641e-05
-2.93843e-05
7.50194e-05
-2.59457e-05
7.5926e-05
-1.94387e-05
7.69871e-05
-1.1788e-05
7.56494e-05
-8.53327e-06
7.07389e-05
-4.66173e-06
6.25451e-05
1.12741e-06
5.57899e-05
4.44506e-06
5.67159e-05
2.67744e-06
6.41998e-05
9.94294e-07
8.64262e-05
7.00956e-05
9.24457e-06
5.70838e-05
1.87723e-05
4.51451e-05
1.91963e-07
9.73111e-05
4.46886e-06
0.000126971
4.00881e-06
0.000126603
2.10038e-06
0.000104134
3.29791e-06
5.69778e-05
7.99192e-06
5.86534e-05
1.57529e-05
6.4337e-05
2.52427e-05
7.06111e-05
1.17028e-05
8.69785e-05
-3.26269e-05
0.000130698
-4.69952e-05
0.000135951
-5.38193e-05
0.000121899
-5.85578e-05
0.000103511
-5.6616e-05
8.27274e-05
-4.98191e-05
6.88178e-05
-4.20299e-05
6.44494e-05
-3.64551e-05
6.69823e-05
-3.21947e-05
6.91679e-05
-2.81127e-05
7.00554e-05
-2.23871e-05
6.94461e-05
-1.51004e-05
6.62772e-05
-6.69764e-06
5.96968e-05
2.84348e-06
4.95841e-05
1.6601e-05
3.92764e-05
2.49419e-05
4.47784e-05
1.98968e-05
6.30947e-05
1.56699e-05
8.43318e-05
7.8387e-05
9.40012e-06
4.83028e-05
3.50171e-06
4.76126e-05
-3.52633e-06
0.000102219
4.28601e-06
0.000119459
5.21698e-06
0.000124422
8.14949e-06
0.000101597
7.77166e-06
5.82384e-05
1.01043e-05
6.2454e-05
1.72828e-05
6.69971e-05
1.58656e-05
7.52424e-05
-3.66605e-05
0.000122661
-5.93312e-05
0.000147996
-6.60717e-05
0.000140879
-7.46013e-05
0.000128333
-7.69467e-05
0.000104901
-6.88586e-05
7.50608e-05
-5.60253e-05
5.65708e-05
-4.30058e-05
5.15501e-05
-3.48048e-05
5.77159e-05
-3.04919e-05
6.31003e-05
-2.67831e-05
6.44862e-05
-2.28416e-05
6.31252e-05
-1.74837e-05
5.80352e-05
-1.05918e-05
4.98633e-05
3.17028e-06
3.52795e-05
2.04012e-05
2.33406e-05
3.33913e-05
3.2947e-05
3.1597e-05
6.38422e-05
2.00311e-05
9.3343e-05
9.59543e-05
6.61865e-06
3.8856e-05
-5.6699e-06
5.40317e-05
-1.66288e-06
9.64828e-05
6.89023e-06
0.000110013
9.13772e-06
0.000120764
1.16184e-05
9.99649e-05
8.5952e-06
6.47678e-05
1.02263e-05
6.91399e-05
1.30429e-05
7.29067e-05
-2.57393e-05
0.00010474
-6.39164e-05
0.000151353
-6.97809e-05
0.000152399
-7.71678e-05
0.000146157
-8.7376e-05
0.00013584
-8.43653e-05
0.000101819
-7.11839e-05
6.36594e-05
-5.72973e-05
4.4945e-05
-4.32533e-05
3.97404e-05
-3.27949e-05
4.79354e-05
-2.80006e-05
5.69434e-05
-2.54472e-05
5.97199e-05
-2.31634e-05
5.82746e-05
-1.92211e-05
5.17095e-05
-8.03331e-06
3.84361e-05
7.9906e-06
2.12822e-05
1.94728e-05
1.35079e-05
3.05163e-05
2.33192e-05
3.32865e-05
6.09064e-05
1.65639e-05
0.000106884
0.000111704
6.58343e-06
3.02384e-05
-1.18626e-06
5.69239e-05
2.58355e-06
8.78846e-05
1.03432e-05
9.84726e-05
1.55756e-05
0.000112906
1.55407e-05
9.99296e-05
5.24884e-06
7.92668e-05
6.90161e-06
7.67369e-05
-1.65134e-05
9.25815e-05
-6.34839e-05
0.000139068
-7.0295e-05
0.000157399
-7.4159e-05
0.000154459
-8.01953e-05
0.000149909
-8.5483e-05
0.00013806
-7.47961e-05
9.05817e-05
-6.17599e-05
5.17284e-05
-5.24705e-05
3.77385e-05
-4.37899e-05
3.38168e-05
-3.39457e-05
4.07068e-05
-2.68641e-05
5.06275e-05
-2.31488e-05
5.51306e-05
-2.04616e-05
5.42362e-05
-1.19844e-05
4.32685e-05
2.93148e-06
2.60339e-05
1.24819e-05
1.3679e-05
1.52465e-05
1.11334e-05
1.97225e-05
1.86343e-05
2.59671e-05
5.39171e-05
1.39476e-05
0.000115682
0.000124034
6.9913e-06
2.3066e-05
2.64935e-06
5.6476e-05
1.02225e-05
7.42415e-05
1.55616e-05
8.50834e-05
2.18415e-05
0.000102867
2.23244e-05
9.92943e-05
6.34121e-07
9.74828e-05
-1.77116e-05
9.08568e-05
-5.76469e-05
0.000121367
-7.31232e-05
0.00015152
-7.26936e-05
0.000155391
-7.38082e-05
0.00015346
-7.70269e-05
0.000150436
-6.99086e-05
0.000128737
-5.57393e-05
7.46291e-05
-4.73323e-05
4.30809e-05
-4.38138e-05
3.51586e-05
-4.11964e-05
3.32415e-05
-3.4688e-05
3.7838e-05
-2.55526e-05
4.53048e-05
-1.75653e-05
4.99061e-05
-1.00194e-05
4.91092e-05
1.57904e-06
3.53482e-05
1.00515e-05
2.08546e-05
1.12581e-05
1.39721e-05
8.29136e-06
1.42853e-05
5.78967e-06
2.03371e-05
1.22008e-05
4.72014e-05
1.31313e-05
0.000113709
0.000134663
1.21823e-06
2.12757e-05
-3.20874e-07
5.38083e-05
1.46271e-05
5.73437e-05
1.97505e-05
7.33895e-05
2.59833e-05
9.41907e-05
2.11446e-05
0.000100653
-9.62019e-06
0.000116752
-4.5396e-05
0.000115897
-6.79879e-05
0.000138451
-6.90926e-05
0.000151768
-6.99089e-05
0.00015444
-7.05441e-05
0.000151569
-6.6782e-05
0.000143929
-4.8045e-05
0.000108996
-3.53414e-05
5.99798e-05
-3.26584e-05
3.96169e-05
-3.34885e-05
3.61837e-05
-3.44101e-05
3.52392e-05
-3.06807e-05
3.72664e-05
-2.20722e-05
4.14324e-05
-1.14405e-05
4.45892e-05
-3.18739e-07
4.38196e-05
8.75993e-06
3.1672e-05
1.09804e-05
2.14143e-05
7.52915e-06
1.77617e-05
1.03738e-06
2.031e-05
-7.06006e-06
2.86106e-05
-6.8936e-06
4.9874e-05
5.51322e-06
0.000106917
0.000141651
-4.93652e-06
2.52609e-05
-4.16252e-06
5.08392e-05
7.507e-06
4.75453e-05
2.38542e-05
5.83052e-05
3.00314e-05
8.64815e-05
1.09865e-05
0.000115202
-1.63779e-05
0.000138433
-4.39741e-05
0.000138983
-5.61027e-05
0.000149682
-6.20835e-05
0.000156902
-6.52871e-05
0.000155764
-6.38439e-05
0.000147547
-4.84852e-05
0.000127497
-2.58078e-05
8.62938e-05
-1.82585e-05
5.166e-05
-2.01772e-05
4.13546e-05
-2.3604e-05
3.95302e-05
-2.60996e-05
3.79291e-05
-2.45314e-05
3.70437e-05
-1.76724e-05
3.77429e-05
-7.36837e-06
3.88251e-05
4.09297e-06
3.77466e-05
8.64277e-06
2.99266e-05
7.88586e-06
2.34082e-05
4.14367e-06
2.32404e-05
-3.1634e-06
2.95566e-05
-1.44015e-05
4.09901e-05
-2.12842e-05
6.22031e-05
-5.28304e-06
0.000105063
0.000147881
-7.14167e-06
3.23372e-05
-2.80125e-06
4.74549e-05
5.07145e-07
4.37001e-05
1.54329e-05
4.68365e-05
2.65241e-05
7.61287e-05
4.85347e-06
0.000131728
-1.26553e-05
0.000154492
-3.17323e-05
0.0001565
-4.5491e-05
0.000163001
-5.57698e-05
0.000166041
-5.90235e-05
0.000157049
-4.85106e-05
0.000136009
-2.3691e-05
0.00010404
-6.3219e-06
7.02812e-05
-5.01556e-06
5.12216e-05
-1.03945e-05
4.68107e-05
-1.5521e-05
4.52463e-05
-1.90256e-05
4.22155e-05
-1.8745e-05
3.7926e-05
-1.35392e-05
3.45145e-05
-5.24894e-06
3.3461e-05
3.03133e-06
3.25871e-05
6.68129e-06
2.89949e-05
7.02508e-06
2.64574e-05
4.06652e-06
3.0959e-05
-3.84317e-06
4.3497e-05
-1.32539e-05
5.85203e-05
-2.18758e-05
7.90802e-05
-1.30965e-05
0.000111899
0.000153541
-5.94463e-06
3.8266e-05
-1.75614e-06
4.60211e-05
-3.80155e-06
4.55547e-05
-2.86101e-06
4.60362e-05
1.19266e-05
6.36104e-05
6.74823e-06
0.000133071
-6.86193e-06
0.00016538
-2.25483e-05
0.000170273
-3.78524e-05
0.000177234
-4.98248e-05
0.00017595
-4.40525e-05
0.000150483
-2.20586e-05
0.000115745
-2.05102e-08
8.52469e-05
8.19225e-06
6.51863e-05
3.75889e-06
5.64643e-05
-2.79285e-06
5.4833e-05
-9.1194e-06
5.32757e-05
-1.3937e-05
4.91195e-05
-1.50997e-05
4.17429e-05
-1.0982e-05
3.4159e-05
-4.0848e-06
3.03469e-05
2.7842e-06
2.98898e-05
6.56548e-06
2.95122e-05
1.02955e-05
2.84879e-05
1.02523e-05
3.57499e-05
7.62707e-07
5.46458e-05
-9.60283e-06
6.83988e-05
-1.71419e-05
8.68312e-05
-2.04239e-05
0.000113814
0.000136912
-5.0325e-06
4.3294e-05
-5.84984e-06
4.81177e-05
-1.1354e-05
5.1263e-05
-1.91213e-05
5.4474e-05
-1.36262e-05
6.4181e-05
2.89897e-06
0.000121084
-3.51577e-06
0.000169877
-1.43417e-05
0.000179955
-2.95088e-05
0.000190668
-3.53985e-05
0.000180708
-1.61442e-05
0.000134264
5.54938e-06
9.87027e-05
1.69982e-05
7.89659e-05
1.57097e-05
6.87695e-05
9.5876e-06
6.51941e-05
3.35094e-06
6.42519e-05
-3.15202e-06
6.36662e-05
-9.82783e-06
5.97732e-05
-1.31306e-05
5.01746e-05
-1.07764e-05
3.75205e-05
-3.49154e-06
2.90844e-05
3.72449e-06
2.72747e-05
6.95577e-06
2.95704e-05
8.36155e-06
2.6326e-05
7.14407e-06
3.23191e-05
-9.60127e-07
5.0102e-05
-1.35433e-05
6.54307e-05
-2.08848e-05
7.78815e-05
-1.78931e-05
9.34352e-05
0.000102494
-4.23822e-06
4.95519e-05
-9.37973e-06
5.55992e-05
-2.00706e-05
6.50336e-05
-3.53353e-05
7.21457e-05
-4.20122e-05
8.23474e-05
-1.42624e-05
0.000111993
-6.3328e-06
0.000168976
-5.40492e-06
0.000184175
-1.26165e-05
0.000201227
-5.96076e-06
0.000180206
1.30857e-05
0.000124038
2.42571e-05
9.51388e-05
2.43597e-05
8.27559e-05
1.95886e-05
7.7578e-05
1.39711e-05
7.55653e-05
9.41777e-06
7.53083e-05
2.81078e-06
7.66475e-05
-5.36225e-06
7.65442e-05
-1.36185e-05
6.7511e-05
-1.3688e-05
4.74008e-05
-5.76495e-06
2.81788e-05
-2.26163e-06
2.5652e-05
-2.84697e-06
2.80843e-05
-1.62734e-06
2.06763e-05
-3.16489e-06
2.54256e-05
-7.60051e-06
4.54163e-05
-1.65946e-05
6.50901e-05
-1.93861e-05
7.19789e-05
-1.20183e-05
7.76282e-05
8.1108e-05
-1.1224e-06
5.39582e-05
-5.3233e-06
6.15159e-05
-2.47004e-05
8.36704e-05
-4.72149e-05
9.48189e-05
-6.3989e-05
0.000105034
-4.63202e-05
0.000120707
-1.72649e-05
0.000162508
5.82699e-07
0.000182393
7.4506e-06
0.000209402
2.17982e-05
0.000182219
2.98093e-05
0.000127734
3.04329e-05
0.000102283
2.77026e-05
9.33711e-05
2.29907e-05
9.10745e-05
1.8593e-05
9.06921e-05
1.50921e-05
8.77809e-05
1.2093e-05
8.72668e-05
-5.33187e-07
9.07859e-05
-1.88395e-05
8.55342e-05
-2.67116e-05
5.98793e-05
-2.23828e-05
3.09778e-05
-2.33496e-05
2.84246e-05
-2.52384e-05
2.76987e-05
-2.59735e-05
2.00647e-05
-2.4111e-05
2.35851e-05
-1.8826e-05
4.08201e-05
-1.45682e-05
6.06723e-05
-1.34709e-05
6.90856e-05
-8.42837e-06
7.05421e-05
7.08248e-05
-2.626e-06
5.18475e-05
-7.71743e-06
7.1892e-05
-2.92697e-05
0.000101709
-4.91526e-05
0.000110136
-6.77721e-05
0.000118949
-7.04787e-05
0.000128055
-2.83386e-05
0.000147451
2.64036e-07
0.000176629
1.8723e-05
0.000209835
3.29129e-05
0.000183754
3.1154e-05
0.000137719
2.97069e-05
0.000109479
2.80017e-05
9.91624e-05
2.02628e-05
9.76967e-05
1.16996e-05
9.24742e-05
4.92592e-06
8.42438e-05
-1.70485e-06
8.09779e-05
-1.35013e-05
8.44709e-05
-3.05776e-05
8.09193e-05
-4.74152e-05
6.16252e-05
-4.93152e-05
3.4777e-05
-4.31053e-05
2.6269e-05
-3.66168e-05
2.31049e-05
-3.62406e-05
2.096e-05
-3.59499e-05
2.51857e-05
-2.98201e-05
3.73868e-05
-1.9487e-05
5.26448e-05
-1.3355e-05
6.30222e-05
-7.93594e-06
6.4237e-05
6.21377e-05
-8.74616e-06
5.65709e-05
-2.58386e-05
7.39314e-05
-3.70389e-05
9.42479e-05
-4.44485e-05
9.69468e-05
-5.03399e-05
9.98326e-05
-5.09517e-05
0.000102622
-3.07095e-05
0.000118479
-5.96549e-06
0.000147893
2.11295e-05
0.000174592
3.23854e-05
0.000157608
2.8213e-05
0.000125314
2.34265e-05
9.9842e-05
1.49297e-05
9.03985e-05
2.65133e-06
9.0297e-05
-1.42516e-05
8.96574e-05
-3.21701e-05
8.4514e-05
-4.98803e-05
8.1945e-05
-6.04671e-05
7.95843e-05
-6.54164e-05
6.89463e-05
-7.20015e-05
4.67134e-05
-6.61951e-05
1.59431e-05
-5.03984e-05
1.18606e-05
-4.21566e-05
1.68899e-05
-4.18425e-05
2.18722e-05
-4.23284e-05
2.73096e-05
-3.79376e-05
3.55824e-05
-2.79173e-05
4.58525e-05
-1.73205e-05
5.51813e-05
-9.28575e-06
5.78583e-05
5.44702e-05
-2.60017e-05
7.30046e-05
-4.70155e-05
8.50022e-05
-4.72856e-05
8.83494e-05
-3.98268e-05
8.35272e-05
-3.08334e-05
8.18033e-05
-3.10105e-05
8.61037e-05
-2.9336e-05
9.4507e-05
-1.46979e-05
0.000111586
1.16925e-05
0.00012756
2.31408e-05
0.000125059
1.90113e-05
0.000111175
4.18863e-06
9.91465e-05
-1.37159e-05
9.5818e-05
-2.83859e-05
9.61837e-05
-4.07564e-05
9.63369e-05
-5.53837e-05
9.49259e-05
-6.83707e-05
9.1736e-05
-6.96439e-05
7.83109e-05
-6.06644e-05
5.64107e-05
-5.41409e-05
3.1783e-05
-5.3084e-05
5.6539e-06
-4.66938e-05
4.48196e-06
-4.28427e-05
1.42201e-05
-4.27812e-05
2.26043e-05
-4.25739e-05
2.82334e-05
-3.86995e-05
3.36488e-05
-3.01201e-05
4.01911e-05
-1.89267e-05
4.74042e-05
-9.46587e-06
5.14622e-05
4.79785e-05
-2.5931e-05
9.57342e-05
-4.29742e-05
9.94429e-05
-4.4985e-05
8.87559e-05
-3.46438e-05
7.33705e-05
-1.98587e-05
6.78962e-05
-1.15333e-05
7.69862e-05
-1.44105e-05
9.24698e-05
-1.31204e-05
0.000103685
-3.11778e-06
0.000111239
4.10953e-06
0.000113704
1.86955e-06
0.000110742
-7.75447e-06
0.000107135
-1.91148e-05
0.000106528
-3.0243e-05
0.000106965
-4.16182e-05
0.000107289
-5.38327e-05
0.000106629
-6.33834e-05
0.000100191
-5.7448e-05
7.27783e-05
-4.30678e-05
4.23779e-05
-3.30685e-05
1.97134e-05
-3.59538e-05
3.79156e-06
-3.75084e-05
4.05631e-06
-3.71622e-05
1.40101e-05
-3.66655e-05
2.23624e-05
-3.51357e-05
2.73642e-05
-3.13607e-05
3.12367e-05
-2.46724e-05
3.57171e-05
-1.57451e-05
4.12914e-05
-7.80772e-06
4.61945e-05
4.2803e-05
-1.89684e-05
0.00011383
-3.24636e-05
0.000111485
-3.80161e-05
9.2095e-05
-2.84602e-05
6.38136e-05
-1.22018e-05
5.34797e-05
1.22166e-07
6.67038e-05
-5.22829e-07
9.36439e-05
-3.39302e-06
0.000106552
-2.49555e-06
0.000109904
-1.38736e-06
0.000112028
-4.101e-06
0.000113138
-1.04496e-05
0.000113311
-1.82134e-05
0.000114001
-2.68061e-05
0.000115177
-3.608e-05
0.000116104
-4.54995e-05
0.000115439
-4.88811e-05
0.000102259
-3.77421e-05
6.16487e-05
-2.11846e-05
2.72318e-05
-1.30658e-05
1.22804e-05
-1.74594e-05
7.29887e-06
-2.33805e-05
8.63875e-06
-2.51e-05
1.49321e-05
-2.39913e-05
2.09541e-05
-2.19273e-05
2.56538e-05
-1.92729e-05
2.96583e-05
-1.54835e-05
3.36805e-05
-1.00702e-05
3.81641e-05
-4.61492e-06
4.27438e-05
4.03068e-05
-1.30474e-05
0.000126395
-2.26349e-05
0.000120149
-2.93268e-05
9.62478e-05
-1.95748e-05
5.35549e-05
-2.64237e-06
3.85662e-05
1.18135e-05
5.47118e-05
9.76822e-06
9.59209e-05
4.99208e-06
0.000111152
1.28617e-06
0.000113021
-1.71326e-06
0.000114335
-5.28192e-06
0.000116355
-1.02327e-05
0.000118025
-1.59942e-05
0.000119424
-2.21197e-05
0.000120852
-2.87807e-05
0.000122124
-3.48404e-05
0.000120448
-3.08569e-05
9.71297e-05
-1.59415e-05
4.65673e-05
-3.93047e-06
1.64384e-05
-2.17659e-06
1.18127e-05
-6.01207e-06
1.03923e-05
-1.04164e-05
1.16714e-05
-1.22266e-05
1.6043e-05
-1.23097e-05
2.10365e-05
-1.18476e-05
2.56052e-05
-1.11217e-05
2.95822e-05
-9.61911e-06
3.31822e-05
-6.64356e-06
3.6691e-05
-2.52784e-06
4.00995e-05
3.92391e-05
-9.23254e-06
0.000135498
-1.72403e-05
0.000126997
-2.03226e-05
9.69536e-05
-8.51049e-06
4.15968e-05
9.15802e-06
2.28654e-05
2.12149e-05
4.4849e-05
1.57385e-05
0.000100734
9.97568e-06
0.000116517
4.63547e-06
0.000117737
-8.12928e-08
0.000118401
-4.4973e-06
0.000120346
-9.00057e-06
0.000122263
-1.35907e-05
0.000123641
-1.79203e-05
0.000124694
-2.1865e-05
0.000125306
-2.35658e-05
0.000120714
-1.22982e-05
8.55234e-05
1.7925e-06
3.32579e-05
5.34146e-06
1.37383e-05
4.79425e-06
1.21431e-05
2.02857e-06
1.22805e-05
-1.30963e-06
1.43084e-05
-3.74297e-06
1.80046e-05
-5.28413e-06
2.22653e-05
-6.19002e-06
2.63548e-05
-6.55785e-06
2.99162e-05
-6.19894e-06
3.2924e-05
-4.73025e-06
3.55547e-05
-1.91879e-06
3.7845e-05
3.79503e-05
-7.99747e-06
0.000142939
-1.56911e-05
0.000133355
-1.18552e-05
9.16345e-05
4.39816e-06
2.60895e-05
2.00428e-05
9.01024e-06
2.78217e-05
3.83588e-05
1.74995e-05
0.000108977
1.16326e-05
0.000121662
6.39742e-06
0.000122332
1.33772e-06
0.000122806
-3.33733e-06
0.000124538
-7.70165e-06
0.000126177
-1.1672e-05
0.000127157
-1.50607e-05
0.000127535
-1.69648e-05
0.000126388
-1.32577e-05
0.000115665
3.18389e-06
7.06099e-05
1.2089e-05
2.53269e-05
1.25158e-05
1.30907e-05
1.1373e-05
1.26008e-05
8.83813e-06
1.42628e-05
5.42294e-06
1.70959e-05
2.13021e-06
2.07805e-05
-5.58216e-07
2.4642e-05
-2.41884e-06
2.81276e-05
-3.4051e-06
3.09696e-05
-3.57854e-06
3.32049e-05
-2.97896e-06
3.50506e-05
-1.62058e-06
3.65867e-05
3.70049e-05
-9.99881e-06
0.000152027
-1.43568e-05
0.000136574
-2.90045e-08
7.78846e-05
1.67997e-05
1.05687e-05
2.55925e-05
1.48673e-06
2.8057e-05
3.57349e-05
1.66348e-05
0.000118045
1.068e-05
0.00012669
5.62856e-06
0.000126494
8.45999e-07
0.0001269
-3.57025e-06
0.000128318
-7.34289e-06
0.000129297
-1.05241e-05
0.000129697
-1.32383e-05
0.000129369
-1.4265e-05
0.000126244
-2.93528e-06
0.000104732
1.48815e-05
5.51127e-05
2.09994e-05
1.98065e-05
2.14906e-05
1.23996e-05
1.92849e-05
1.37627e-05
1.56086e-05
1.71681e-05
1.11659e-05
2.13378e-05
6.84767e-06
2.53001e-05
3.37733e-06
2.85678e-05
1.03566e-06
3.10537e-05
-2.95561e-07
3.29518e-05
-9.27843e-07
3.44431e-05
-1.10472e-06
3.57413e-05
-8.29945e-07
3.69177e-05
3.74368e-05
-1.29955e-05
0.000163928
-7.99477e-06
0.000131734
1.33278e-05
5.96776e-05
2.46032e-05
6.65757e-07
2.70538e-05
-6.87804e-07
2.09762e-05
4.00562e-05
1.28871e-05
0.000124527
7.33585e-06
0.000130911
2.76212e-06
0.000130138
-1.35705e-06
0.000130356
-4.59436e-06
0.000130711
-7.57046e-06
0.000131213
-1.02957e-05
0.000131463
-1.27405e-05
0.000130541
-1.02108e-05
0.000122473
6.865e-06
8.96601e-05
2.42729e-05
3.94655e-05
3.02995e-05
1.465e-05
2.93988e-05
1.31665e-05
2.50781e-05
1.90647e-05
1.93919e-05
2.4479e-05
1.40221e-05
2.82936e-05
9.74841e-06
3.10497e-05
6.60468e-06
3.31246e-05
4.39302e-06
3.46747e-05
2.81542e-06
3.58684e-05
1.62258e-06
3.68454e-05
7.00812e-07
3.778e-05
1.95745e-07
3.86962e-05
3.93046e-05
-1.35492e-05
0.000176129
1.56485e-06
0.000119154
2.41105e-05
4.13431e-05
2.84507e-05
-2.41386e-06
2.61673e-05
1.108e-06
9.88001e-06
5.26197e-05
5.2493e-06
0.00012818
1.05259e-06
0.000133948
-2.62607e-06
0.000132755
-5.55207e-06
0.000132149
-7.53692e-06
0.000131583
-9.13207e-06
0.000131919
-1.14775e-05
0.000132823
-1.32444e-05
0.000131373
-5.41932e-06
0.000114529
1.60466e-05
7.03679e-05
3.14613e-05
2.55984e-05
3.43436e-05
1.50791e-05
3.01262e-05
2.28568e-05
2.42034e-05
2.79687e-05
1.92799e-05
3.17407e-05
1.54592e-05
3.44384e-05
1.22235e-05
3.6293e-05
9.4954e-06
3.76268e-05
7.14544e-06
3.85812e-05
5.13016e-06
3.93111e-05
3.39346e-06
3.99429e-05
1.9568e-06
4.05939e-05
9.6065e-07
4.12131e-05
4.17761e-05
-4.25982e-06
0.000180089
1.24398e-05
0.000106954
2.71812e-05
3.00926e-05
2.66322e-05
-7.98632e-07
2.03632e-05
5.79116e-06
7.61061e-07
6.71524e-05
-2.70516e-06
0.000130472
-5.5311e-06
0.00013518
-9.08438e-06
0.000134805
-1.22528e-05
0.000134264
-1.25528e-05
0.000131482
-1.26577e-05
0.000131543
-1.36528e-05
0.000133197
-1.37269e-05
0.000130275
1.26702e-06
0.000100318
2.47501e-05
4.8917e-05
3.53911e-05
1.99294e-05
3.41136e-05
2.53206e-05
2.90863e-05
3.01327e-05
2.46954e-05
3.38078e-05
2.12496e-05
3.6753e-05
1.81408e-05
3.892e-05
1.50761e-05
4.0457e-05
1.20823e-05
4.14852e-05
9.28564e-06
4.21523e-05
6.76471e-06
4.26132e-05
4.53893e-06
4.30038e-05
2.67133e-06
4.33879e-05
1.24792e-06
4.36649e-05
4.40136e-05
1.0334e-05
0.000172807
2.40179e-05
9.83741e-05
2.58322e-05
3.04464e-05
2.17894e-05
3.64306e-06
9.71012e-06
1.56404e-05
-5.67612e-06
7.92752e-05
-8.57356e-06
0.000132089
-1.35307e-05
0.000138094
-1.89765e-05
0.00013887
-2.09807e-05
0.000135871
-1.78417e-05
0.000128531
-1.47134e-05
0.000128124
-1.39097e-05
0.000131169
-9.28719e-06
0.000124183
1.15654e-05
8.05148e-05
3.33459e-05
3.2039e-05
3.85273e-05
2.5004e-05
3.54606e-05
3.11415e-05
3.12887e-05
3.45151e-05
2.78726e-05
3.75648e-05
2.48094e-05
4.02004e-05
2.16382e-05
4.23581e-05
1.82463e-05
4.40149e-05
1.47436e-05
4.51308e-05
1.13671e-05
4.57089e-05
8.24516e-06
4.59408e-05
5.48771e-06
4.60148e-05
3.15939e-06
4.60495e-05
1.34509e-06
4.58921e-05
4.57813e-05
2.3985e-05
0.000155045
3.23208e-05
9.43304e-05
2.49849e-05
3.81937e-05
1.39889e-05
1.37105e-05
-9.46593e-07
2.90462e-05
-9.35566e-06
8.75486e-05
-1.28688e-05
0.000135211
-2.03089e-05
0.000143969
-2.62091e-05
0.000143974
-2.63861e-05
0.000135959
-1.99493e-05
0.000122815
-1.34974e-05
0.000122088
-1.02484e-05
0.000127081
2.30234e-06
0.00011119
2.7401e-05
5.91202e-05
4.20496e-05
2.63112e-05
4.24541e-05
3.19299e-05
3.91999e-05
3.52035e-05
3.58783e-05
3.80282e-05
3.28059e-05
4.07566e-05
2.95927e-05
4.33399e-05
2.60091e-05
4.57639e-05
2.20154e-05
4.78445e-05
1.77452e-05
4.93292e-05
1.34903e-05
5.00017e-05
9.50763e-06
4.99175e-05
6.13979e-06
4.93599e-05
3.37586e-06
4.88229e-05
1.23619e-06
4.80781e-05
4.73727e-05
2.6826e-05
0.00013462
3.49668e-05
8.92253e-05
2.44564e-05
4.77339e-05
5.99651e-06
2.9606e-05
-1.0087e-05
4.44769e-05
-1.48249e-05
9.44591e-05
-1.62213e-05
0.00013749
-2.29747e-05
0.000149998
-2.83749e-05
0.000148837
-2.66284e-05
0.000134467
-1.9035e-05
0.000116288
-9.75707e-06
0.000114216
-1.29211e-06
0.000119009
1.76488e-05
9.43933e-05
4.16994e-05
4.27544e-05
4.77091e-05
3.19792e-05
4.67407e-05
3.6224e-05
4.40608e-05
3.87298e-05
4.13707e-05
4.12294e-05
3.84839e-05
4.38084e-05
3.51571e-05
4.65434e-05
3.13e-05
4.94321e-05
2.6777e-05
5.22756e-05
2.14621e-05
5.47039e-05
1.54319e-05
5.62838e-05
1.01264e-05
5.60044e-05
6.1592e-06
5.40087e-05
3.0165e-06
5.2157e-05
8.08531e-07
5.03773e-05
4.86048e-05
2.42539e-05
0.000115601
3.05805e-05
8.51153e-05
1.85799e-05
5.83326e-05
-2.66994e-06
4.83183e-05
-1.9799e-05
6.11852e-05
-2.20933e-05
9.97537e-05
-1.94563e-05
0.000137339
-2.34411e-05
0.00015406
-2.59437e-05
0.000151167
-2.2705e-05
0.000131504
-1.40777e-05
0.000108824
-2.14051e-06
0.000104219
1.13966e-05
0.000107524
3.55577e-05
7.67875e-05
5.0752e-05
3.89268e-05
5.32891e-05
3.9251e-05
5.12649e-05
4.01483e-05
4.9124e-05
4.17934e-05
4.69407e-05
4.3929e-05
4.44122e-05
4.64673e-05
4.14244e-05
4.94755e-05
3.78575e-05
5.2966e-05
3.33314e-05
5.68416e-05
2.70377e-05
6.08822e-05
1.75624e-05
6.48341e-05
9.21617e-06
6.29844e-05
4.3191e-06
5.76764e-05
1.37991e-06
5.41709e-05
-2.17309e-07
5.13079e-05
4.83895e-05
2.08069e-05
9.80284e-05
2.19301e-05
8.50062e-05
8.17633e-06
7.04755e-05
-1.33169e-05
6.72737e-05
-2.88092e-05
7.63411e-05
-2.75916e-05
0.000102028
-2.28658e-05
0.000136589
-2.28074e-05
0.000155666
-2.14596e-05
0.000150598
-1.70548e-05
0.000127467
-4.01616e-06
9.72139e-05
1.2189e-05
9.09722e-05
2.89711e-05
9.57322e-05
4.89033e-05
6.82754e-05
5.68353e-05
4.59273e-05
5.69441e-05
4.37417e-05
5.53507e-05
4.31186e-05
5.38742e-05
4.40235e-05
5.23011e-05
4.58126e-05
5.05199e-05
4.82919e-05
4.84684e-05
5.14809e-05
4.59219e-05
5.53438e-05
4.22346e-05
5.96823e-05
3.51505e-05
6.50013e-05
1.84105e-05
7.57808e-05
7.45847e-06
6.9675e-05
2.04908e-06
6.0664e-05
-6.07873e-07
5.41799e-05
-8.32723e-07
4.97929e-05
4.57986e-05
1.47035e-05
8.47905e-05
1.13181e-05
8.73743e-05
-3.09273e-06
8.22581e-05
-2.16758e-05
8.3347e-05
-3.35207e-05
8.83836e-05
-3.15184e-05
0.000104029
-2.41964e-05
0.000134647
-2.14616e-05
0.000156563
-1.74317e-05
0.000148808
-6.07091e-06
0.000117807
1.13306e-05
8.323e-05
2.848e-05
8.03547e-05
4.55396e-05
8.8993e-05
5.67407e-05
7.1908e-05
5.99501e-05
5.35296e-05
5.93104e-05
4.67053e-05
5.87062e-05
4.48026e-05
5.80389e-05
4.51596e-05
5.73186e-05
4.66147e-05
5.66437e-05
4.89169e-05
5.58334e-05
5.20016e-05
5.42331e-05
5.58207e-05
4.97906e-05
6.06865e-05
3.6962e-05
6.96779e-05
2.24422e-05
8.00946e-05
1.23015e-05
7.33682e-05
6.60932e-06
6.11704e-05
1.95559e-06
5.26875e-05
6.30507e-07
4.86043e-05
4.42523e-05
9.8202e-06
7.6214e-05
3.8186e-06
9.17196e-05
-9.50337e-06
9.33004e-05
-2.30348e-05
9.52814e-05
-3.06786e-05
9.66897e-05
-2.94632e-05
0.000106914
-2.16993e-05
0.000133378
-1.70161e-05
0.000157521
-6.55516e-06
0.00014325
1.02761e-05
0.000107679
2.12398e-05
8.22795e-05
3.31423e-05
8.07193e-05
5.11711e-05
8.328e-05
5.86293e-05
7.34956e-05
6.02791e-05
5.78844e-05
6.08668e-05
4.82705e-05
6.12774e-05
4.52985e-05
6.14697e-05
4.51635e-05
6.18243e-05
4.62323e-05
6.23107e-05
4.81065e-05
6.2585e-05
5.06161e-05
6.13904e-05
5.36894e-05
5.46537e-05
5.90444e-05
3.87051e-05
7.23653e-05
3.12629e-05
7.83489e-05
2.64845e-05
7.72726e-05
2.08267e-05
7.07529e-05
1.23267e-05
6.24716e-05
5.37842e-06
5.39143e-05
4.81536e-05
4.66361e-06
7.3909e-05
-6.60801e-07
9.66898e-05
-8.68055e-06
0.000100987
-1.55878e-05
0.00010217
-1.96319e-05
0.000102041
-1.98768e-05
0.000111116
-1.45975e-05
0.000135192
-4.90426e-06
0.000156566
1.15303e-05
0.000137977
2.69716e-05
0.000107738
2.92977e-05
9.09089e-05
3.34422e-05
8.31666e-05
4.61593e-05
7.59346e-05
5.4446e-05
6.69055e-05
5.90875e-05
5.68415e-05
6.16642e-05
4.83754e-05
6.29499e-05
4.48265e-05
6.40794e-05
4.42311e-05
6.53525e-05
4.46913e-05
6.67218e-05
4.58186e-05
6.75257e-05
4.72086e-05
6.56108e-05
4.91111e-05
5.59019e-05
5.73092e-05
4.81431e-05
7.28631e-05
4.03717e-05
8.38738e-05
3.38257e-05
9.23837e-05
3.48327e-05
8.40262e-05
2.73419e-05
7.43957e-05
1.52094e-05
6.87749e-05
6.39113e-05
-2.78284e-07
7.66611e-05
-9.49566e-07
9.96622e-05
-1.5327e-06
0.000103658
-1.62832e-06
0.000104526
-3.77964e-06
0.000107028
-5.98302e-06
0.000118114
-3.10933e-06
0.000140362
9.0472e-06
0.000157883
2.79598e-05
0.000137438
3.68244e-05
0.000111086
3.40829e-05
9.53849e-05
3.4762e-05
8.31144e-05
4.13392e-05
7.02079e-05
4.96441e-05
5.93555e-05
5.67465e-05
5.20917e-05
6.11399e-05
4.63724e-05
6.34398e-05
4.3203e-05
6.54989e-05
4.23012e-05
6.7323e-05
4.22444e-05
6.88111e-05
4.26405e-05
6.87428e-05
4.33e-05
6.43144e-05
4.62051e-05
5.88558e-05
5.56545e-05
5.96566e-05
6.98699e-05
5.87424e-05
8.26657e-05
5.89647e-05
9.6446e-05
6.38344e-05
9.65185e-05
4.93059e-05
8.84522e-05
2.78957e-05
8.85976e-05
8.93863e-05
-3.49437e-06
8.19782e-05
2.31507e-06
9.78144e-05
8.01958e-06
0.00010217
1.10538e-05
0.000106922
8.12152e-06
0.000115294
4.3565e-06
0.000128024
7.56943e-06
0.000146082
2.08937e-05
0.00015764
3.20938e-05
0.000137188
3.40716e-05
0.000111572
3.39008e-05
9.48661e-05
3.5092e-05
8.1392e-05
3.94058e-05
6.66125e-05
4.65535e-05
5.31472e-05
5.40245e-05
4.60782e-05
5.94283e-05
4.23202e-05
6.28154e-05
4.01965e-05
6.55633e-05
3.9382e-05
6.75268e-05
3.93274e-05
6.82993e-05
3.96277e-05
6.68084e-05
4.05346e-05
6.33104e-05
4.40037e-05
6.2699e-05
5.19992e-05
6.82343e-05
6.21793e-05
7.6394e-05
7.46057e-05
8.47731e-05
8.87771e-05
7.99428e-05
9.80388e-05
6.51677e-05
9.17277e-05
3.85004e-05
9.50346e-05
0.000112328
-1.3804e-06
8.3254e-05
7.48895e-06
9.29375e-05
1.40864e-05
0.000101883
1.42145e-05
0.000112152
9.4097e-06
0.000123351
6.45964e-06
0.000134217
1.17583e-05
0.000145755
2.11502e-05
0.000153011
2.51154e-05
0.000135977
2.7004e-05
0.00011058
3.03862e-05
9.15331e-05
3.40373e-05
7.70052e-05
3.7693e-05
6.32993e-05
4.44826e-05
4.77855e-05
5.16643e-05
3.98313e-05
5.74041e-05
3.70379e-05
6.16438e-05
3.60358e-05
6.47943e-05
3.58465e-05
6.64811e-05
3.64032e-05
6.62934e-05
3.72775e-05
6.42525e-05
3.86965e-05
6.26355e-05
4.12785e-05
6.54858e-05
4.63366e-05
7.40267e-05
5.50872e-05
7.68933e-05
7.09951e-05
7.72643e-05
7.64664e-05
7.14222e-05
8.11586e-05
5.21985e-05
8.99188e-05
2.55734e-05
0.000105066
0.000123893
4.31218e-06
7.85877e-05
1.24664e-05
8.69444e-05
1.47104e-05
0.000102228
1.01633e-05
0.000120948
3.43076e-06
0.000132608
1.29373e-06
0.000137809
6.58287e-06
0.000142148
1.42089e-05
0.000145824
1.66568e-05
0.000133645
1.76642e-05
0.000109709
2.47737e-05
8.65693e-05
3.16853e-05
6.97597e-05
3.5329e-05
5.90116e-05
4.2522e-05
4.27544e-05
4.98267e-05
3.35027e-05
5.58474e-05
3.13693e-05
6.05227e-05
3.13893e-05
6.37131e-05
3.20729e-05
6.4894e-05
3.36054e-05
6.38842e-05
3.54685e-05
6.21141e-05
3.68965e-05
6.26858e-05
3.76851e-05
6.80501e-05
4.34475e-05
6.99868e-05
5.04875e-05
6.99098e-05
5.38807e-05
6.06981e-05
6.46067e-05
4.54467e-05
8.10994e-05
2.77721e-05
9.92051e-05
1.17229e-05
0.000116558
0.00013161
9.36642e-06
6.90274e-05
2.01421e-05
7.85444e-05
2.16748e-05
0.000102401
2.27153e-06
0.000136006
-9.33309e-06
0.000143668
-9.35596e-06
0.000135584
-1.75762e-06
0.000132928
9.21002e-06
0.000133618
8.57659e-06
0.000131938
5.16042e-06
0.000110602
1.57179e-05
8.20772e-05
2.76677e-05
5.9703e-05
3.27655e-05
5.19164e-05
4.04486e-05
3.84961e-05
4.86547e-05
2.74393e-05
5.49834e-05
2.63189e-05
5.96665e-05
2.71109e-05
6.2456e-05
2.83345e-05
6.3169e-05
3.07648e-05
6.16881e-05
3.34247e-05
6.24112e-05