/*--------------------------------*- C++ -*----------------------------------*\
| =========                 |                                                 |
| \\      /  F ield         | OpenFOAM: The Open Source CFD Toolbox           |
|  \\    /   O peration     | Version:  2.3.0                                 |
|   \\  /    A nd           | Web:      www.OpenFOAM.org                      |
|    \\/     M anipulation  |                                                 |
\*---------------------------------------------------------------------------*/
FoamFile
{
    version     2.0;
    format      ascii;
    class       volScalarField;
    location    "1.27";
    object      Theta.particles;
}
// * * * * * * * * * * * * * * * * * * * * * * * * * * * * * * * * * * * * * //

dimensions      [0 2 -2 0 0 0 0];

internalField   nonuniform List<scalar> 
6000
(
0.000318046
0.000193975
0.000304031
0.00146151
0.000688885
0.000303662
0.000265097
0.000214494
0.000176958
0.00019211
0.000198381
0.000255145
0.000477512
0.000863196
0.00110462
0.00107728
0.00100134
0.000941767
0.00103019
0.00127447
0.00147336
0.00121485
0.000596389
0.000310348
0.000270286
0.000311321
0.000313529
0.000265884
0.000292455
0.000510362
1.01033e-05
1.31915e-05
1.82819e-05
2.10149e-05
2.93019e-05
2.72637e-05
3.18814e-05
4.13008e-05
3.70932e-05
4.38591e-05
4.75145e-05
5.21526e-05
6.1953e-05
5.35464e-05
3.0173e-05
1.64083e-05
1.02508e-05
6.64241e-06
5.30013e-06
6.76597e-06
1.12471e-05
1.81468e-05
1.6239e-05
3.70006e-06
5.93934e-07
3.09723e-06
5.35634e-06
9.37991e-06
1.94117e-05
1.29354e-05
4.54497e-05
0.000123399
9.05256e-05
1.04341e-06
8.25428e-07
5.52692e-05
9.26904e-05
7.66232e-05
8.99305e-05
0.000126683
0.000255308
0.000434117
0.000455917
0.000273746
0.000153547
0.000117318
0.000100477
7.90133e-05
6.07862e-05
6.42215e-05
8.5551e-05
0.000141925
0.000303099
0.000347842
0.000342462
0.000288832
0.000308407
0.000429813
0.000522241
0.000319598
4.3337e-05
7.21611e-05
0.000117899
6.68767e-06
1.23042e-06
3.18572e-06
1.29656e-05
2.16948e-05
6.64708e-05
0.000132306
0.000249725
0.000331522
0.000119348
1.19321e-05
1.59863e-06
1.45859e-06
1.14417e-06
7.34448e-07
1.07967e-06
1.82578e-06
1.68444e-06
1.26832e-06
2.80184e-06
6.03795e-06
6.95908e-06
5.00241e-06
1.63692e-05
4.55761e-05
8.45757e-05
0.000276804
0.00014392
5.66365e-05
0.000169533
3.19166e-05
4.6547e-06
1.5386e-06
9.47564e-06
6.45807e-05
0.000155275
0.000209707
0.00023301
5.96239e-05
2.22659e-06
1.74506e-06
1.91865e-06
1.93209e-06
1.03365e-06
7.80475e-07
9.11532e-07
1.36844e-06
1.89003e-06
1.72682e-06
1.73549e-06
3.23531e-06
3.24395e-06
1.81238e-06
1.32861e-06
2.73137e-06
2.95785e-06
0.00018508
0.000163363
1.15703e-05
1.68939e-05
3.96801e-05
9.69791e-06
4.64497e-06
1.80732e-05
0.00010836
0.000236741
0.000204961
7.45993e-05
2.82441e-06
2.12897e-06
2.6978e-06
1.90085e-06
1.81741e-06
1.77358e-06
1.52849e-06
1.34557e-06
1.60849e-06
1.76672e-06
2.31864e-06
3.37525e-06
3.64588e-06
2.36106e-06
1.7535e-06
2.01588e-06
3.65683e-06
5.15413e-06
7.67935e-05
0.000160543
2.03449e-06
2.92104e-06
2.63099e-05
9.36194e-06
1.04543e-05
5.5627e-05
0.000187145
0.000238501
0.00010989
5.65247e-06
1.9644e-06
2.73573e-06
3.40148e-06
1.95167e-06
1.92449e-06
2.09386e-06
1.83196e-06
1.42538e-06
1.70592e-06
2.11849e-06
2.69026e-06
3.17149e-06
2.31522e-06
1.83089e-06
2.12184e-06
2.77073e-06
4.89789e-06
6.68436e-06
2.34678e-05
0.000164819
1.03307e-06
5.6788e-06
8.76723e-06
5.02115e-06
1.60205e-05
0.000120059
0.000246769
0.00014512
1.80045e-05
1.78315e-06
1.79296e-06
3.04477e-06
2.68116e-06
2.88179e-06
3.3525e-06
2.87549e-06
2.63363e-06
2.25168e-06
2.13409e-06
2.73728e-06
3.15012e-06
2.87318e-06
2.28127e-06
1.99782e-06
2.59586e-06
4.99626e-06
7.35746e-06
6.48053e-06
8.27885e-06
0.000146392
2.49733e-06
8.15686e-06
1.46247e-05
1.03596e-05
4.013e-05
0.000139183
0.000143332
3.04446e-05
4.89055e-06
1.95973e-06
2.15424e-06
2.98026e-06
1.93001e-06
3.60835e-06
6.17505e-06
3.72401e-06
2.4448e-06
2.07682e-06
2.17836e-06
2.69309e-06
2.81959e-06
2.53789e-06
1.80876e-06
1.01606e-06
1.9848e-06
5.6864e-06
8.84704e-06
8.10707e-06
1.58208e-05
0.000106327
4.47519e-06
9.94107e-06
1.59796e-05
1.30407e-05
4.17031e-05
3.3462e-05
1.86933e-05
1.22731e-05
5.18818e-06
1.99271e-06
2.65432e-06
2.85974e-06
2.02318e-06
3.81865e-06
7.97816e-06
4.6883e-06
1.81983e-06
1.00486e-06
1.50389e-06
1.91876e-06
1.92159e-06
2.6749e-06
1.27025e-06
3.01982e-07
1.50323e-06
6.61598e-06
1.3301e-05
8.99518e-06
3.74114e-05
4.84311e-05
6.68696e-06
1.07043e-05
5.9701e-06
3.27217e-06
4.59871e-05
7.88787e-06
7.47895e-06
1.25002e-05
5.96259e-06
1.74804e-06
3.46361e-06
3.07984e-06
2.30505e-06
3.8096e-06
6.88502e-06
4.15567e-06
1.30197e-06
1.53238e-07
9.29285e-07
2.61508e-06
3.7568e-06
3.5739e-06
1.98219e-06
1.53581e-06
6.28969e-06
9.39957e-06
1.6194e-05
6.50626e-06
6.18705e-05
1.04177e-05
6.86515e-06
5.01604e-06
1.44118e-05
3.87348e-06
1.4266e-05
8.89729e-06
1.05459e-05
1.8222e-05
5.46036e-06
2.54385e-06
4.16293e-06
3.68342e-06
2.15047e-06
3.0322e-06
4.96111e-06
5.6197e-06
3.08696e-06
7.55171e-07
4.21813e-06
9.76467e-06
1.26743e-05
1.44079e-05
1.79305e-05
2.34527e-05
4.52996e-05
8.61661e-05
8.61372e-05
0.000155968
0.000319391
1.06255e-06
3.70968e-06
4.38795e-06
4.35512e-06
6.18672e-06
1.04524e-05
1.01032e-05
1.55569e-05
2.0592e-05
6.81007e-06
4.32842e-06
4.95177e-06
3.04135e-06
1.03316e-06
1.37705e-06
6.91172e-06
9.83358e-06
9.87694e-06
1.10899e-05
2.04374e-05
2.68961e-05
3.10684e-05
3.32404e-05
4.53428e-05
6.60194e-05
0.000169668
0.000313604
0.000671541
0.000962841
0.00100434
3.01182e-07
1.2602e-06
1.42572e-06
1.96125e-06
1.38919e-05
4.76351e-06
1.30974e-05
1.57201e-05
1.38924e-05
8.29252e-06
4.64475e-06
3.34884e-06
9.14685e-07
6.77994e-08
5.61901e-06
1.22085e-05
1.87031e-05
2.36989e-05
3.55355e-05
4.49156e-05
4.93159e-05
3.71512e-05
5.41808e-05
5.72452e-05
0.000139129
0.000169134
0.000250552
0.000362009
0.000392631
0.000556486
5.23575e-06
7.3045e-06
9.80328e-06
3.84727e-06
1.83608e-05
1.97876e-05
5.10252e-06
5.48996e-06
7.06344e-06
5.23343e-06
2.68861e-06
1.24229e-06
3.78688e-07
1.15136e-05
2.32196e-05
4.08076e-05
4.26942e-05
7.85882e-05
9.95705e-05
0.000110629
6.1365e-05
4.33046e-05
5.29762e-05
3.96962e-05
4.26272e-06
2.15439e-07
4.40814e-07
8.63033e-07
9.94691e-07
0.000143064
1.37308e-05
2.26796e-05
8.85785e-05
9.94773e-05
7.7888e-05
0.000336302
4.82264e-05
8.5941e-06
5.55691e-06
1.31729e-05
1.32478e-05
2.60121e-05
7.11846e-05
0.000116409
0.000242589
0.000273294
0.000371596
0.000407799
0.000405243
0.000228592
0.000101254
3.00672e-05
6.05999e-07
1.11869e-06
1.56291e-06
1.5042e-06
1.6202e-06
1.84705e-06
1.92227e-06
7.95163e-05
5.35491e-05
0.00115058
0.00226203
0.00239121
0.00181412
0.00170753
0.001421
0.000775181
0.000609191
0.000740225
0.000705241
0.000631322
0.000763412
0.00101891
0.00107425
0.00100011
0.000955767
0.000774521
0.000495234
0.0003875
0.000279271
3.09455e-05
7.4576e-07
1.68601e-06
1.62042e-06
1.53192e-06
1.71821e-06
2.06277e-06
2.14399e-06
5.52953e-05
0.00171407
0.00150645
0.0011291
0.00168261
0.00202216
0.00192052
0.00321209
0.00311597
0.00277218
0.00257644
0.00222286
0.0018274
0.00157672
0.00125686
0.000773963
0.000513723
0.000229189
5.84829e-05
1.09586e-05
4.85836e-05
0.000180597
0.000104415
6.90695e-06
2.65188e-06
2.0036e-06
1.67969e-06
1.9731e-06
2.16951e-06
2.33743e-06
3.62602e-05
0.00155788
2.24246e-07
9.23862e-07
4.67639e-06
3.99815e-05
5.35278e-05
0.000616912
0.0017518
0.00188824
0.00124199
0.000874931
0.000635681
0.000245451
4.38636e-05
3.82558e-06
3.06747e-07
4.52138e-07
5.9143e-07
5.38164e-07
3.39486e-06
6.52865e-05
8.6867e-05
1.68321e-05
4.91496e-06
3.17988e-06
2.36807e-06
2.27779e-06
2.45228e-06
2.64823e-06
2.26486e-05
0.000357803
2.85106e-07
1.30486e-06
2.37038e-06
5.95892e-06
5.38392e-06
5.22639e-06
6.51207e-05
8.10664e-05
1.93324e-05
4.75025e-06
4.59246e-06
2.10963e-06
1.35304e-06
1.33703e-06
1.17865e-06
7.10223e-07
7.30724e-07
8.8739e-07
5.47071e-06
3.00431e-05
3.79495e-05
1.39585e-05
5.1376e-06
4.02708e-06
3.30071e-06
2.67915e-06
2.38564e-06
2.40672e-06
1.34815e-05
0.000336199
6.87987e-07
1.45606e-06
1.21705e-06
2.28617e-06
5.34922e-06
1.39511e-06
8.61931e-06
1.10858e-06
1.92904e-06
3.17548e-06
3.84433e-06
2.05135e-06
1.25971e-06
1.20888e-06
1.22843e-06
7.11006e-07
1.0978e-06
4.30937e-06
1.37821e-05
1.80904e-05
1.07317e-05
4.98352e-06
3.46988e-06
3.27982e-06
2.90151e-06
2.16593e-06
1.65156e-06
1.61261e-06
6.75567e-06
0.000236775
1.74867e-06
1.85218e-06
9.20262e-07
1.42103e-06
3.571e-06
7.11394e-07
2.75106e-06
2.0072e-06
2.33666e-06
3.5143e-06
3.8267e-06
1.59778e-06
9.39202e-07
1.04177e-06
1.02939e-06
8.34711e-07
4.06837e-06
1.9588e-05
2.10332e-05
5.87127e-06
3.90136e-06
3.20846e-06
2.36544e-06
1.72328e-06
1.21712e-06
8.47432e-07
6.51676e-07
7.0589e-07
2.31911e-06
0.000172989
2.49234e-06
2.99026e-06
1.32726e-06
1.32297e-06
2.41937e-06
7.91408e-07
6.10526e-07
1.62906e-06
2.3112e-06
2.86496e-06
3.30607e-06
1.58764e-06
8.6576e-07
1.00729e-06
7.52476e-07
1.32753e-06
2.18144e-05
2.71309e-05
7.9263e-06
3.65454e-06
2.62141e-06
1.87637e-06
1.33783e-06
9.25263e-07
5.45643e-07
2.68411e-07
1.5931e-07
2.32262e-07
8.1492e-07
6.83005e-05
2.70106e-06
3.8459e-06
1.54233e-06
1.22816e-06
2.10355e-06
8.61115e-07
5.64508e-07
8.86963e-07
1.89527e-06
2.80546e-06
2.47445e-06
1.5629e-06
8.63671e-07
1.23206e-06
6.37509e-07
1.05299e-05
2.55146e-05
1.22979e-05
3.98577e-06
2.75052e-06
2.55623e-06
2.41323e-06
2.00015e-06
1.25765e-06
5.24596e-07
1.31807e-07
6.16626e-08
1.47478e-07
7.00185e-07
2.08959e-05
2.86717e-06
4.6478e-06
1.5275e-06
8.00662e-07
2.12171e-06
1.2047e-06
9.43382e-07
1.26688e-06
2.48651e-06
2.67969e-06
2.04796e-06
1.34926e-06
1.58759e-06
1.84796e-06
1.81868e-06
1.32767e-05
1.18491e-05
5.68777e-06
2.9158e-06
3.53978e-06
5.08774e-06
4.92581e-06
3.10782e-06
1.30427e-06
3.83094e-07
8.7967e-08
8.35509e-08
2.29442e-07
1.161e-06
5.99228e-06
3.05608e-06
6.02816e-06
1.73182e-06
1.40856e-06
2.46541e-06
1.20156e-06
1.89304e-06
1.64238e-06
2.57386e-06
2.66642e-06
2.63522e-06
2.83737e-06
3.17793e-06
1.77388e-06
4.37129e-06
5.53824e-06
5.46197e-06
2.24525e-06
6.8983e-06
1.19601e-05
9.38313e-06
4.85397e-06
1.96317e-06
7.41634e-07
2.9392e-07
1.59083e-07
1.79349e-07
4.06429e-07
1.45985e-06
3.25425e-06
4.76906e-06
8.01233e-06
2.50725e-06
4.60734e-06
3.55014e-06
1.7577e-06
1.69287e-06
1.75306e-06
3.52885e-06
3.03829e-06
2.0132e-06
1.82797e-06
1.61061e-06
1.61891e-06
1.23015e-06
2.39518e-06
3.87557e-06
2.80256e-05
1.44213e-05
7.66585e-06
4.24695e-06
1.77589e-06
7.71588e-07
3.5234e-07
2.14207e-07
1.93056e-07
2.46262e-07
4.43593e-07
1.03449e-06
5.13854e-06
9.98699e-06
9.15297e-06
5.07941e-06
7.05148e-06
5.12953e-06
3.58261e-06
2.72398e-06
4.30754e-06
5.53039e-06
3.73954e-06
1.93975e-06
9.8178e-07
9.31955e-07
6.51468e-07
1.20488e-06
6.00155e-06
5.38088e-05
6.35881e-06
2.56385e-06
1.57825e-06
8.08473e-07
4.39684e-07
2.83992e-07
2.34334e-07
2.34204e-07
2.67795e-07
3.06858e-07
3.49652e-07
5.71798e-07
9.33769e-06
1.78331e-05
7.76779e-06
5.06872e-06
7.61243e-06
8.68774e-06
4.17628e-06
5.97744e-06
6.73763e-06
7.39546e-06
2.75179e-06
8.45374e-07
1.64875e-06
1.5811e-06
1.45762e-06
1.33928e-06
6.1711e-05
6.64383e-06
1.0646e-06
5.21376e-07
3.37628e-07
2.91323e-07
3.20914e-07
3.71413e-07
4.08698e-07
4.48885e-07
5.01717e-07
5.19716e-07
4.33724e-07
2.875e-07
1.21262e-05
1.19349e-05
2.94951e-06
5.28131e-06
1.24391e-05
1.01524e-05
4.61247e-06
5.01895e-06
4.64369e-06
3.14951e-06
1.02443e-06
1.25196e-06
2.38378e-06
2.61708e-06
3.23145e-07
3.53947e-05
2.4919e-05
1.32534e-06
5.31998e-07
3.46425e-07
3.08544e-07
3.97526e-07
5.27996e-07
6.36969e-07
7.10891e-07
7.62058e-07
8.03236e-07
7.69097e-07
5.46923e-07
2.51662e-07
1.01642e-05
7.06845e-06
1.96511e-06
4.70066e-06
1.3356e-05
1.19345e-05
5.48845e-06
3.23322e-06
2.6327e-06
2.03581e-06
1.79025e-06
2.01455e-06
3.48746e-06
3.3217e-06
7.63205e-06
5.58596e-05
2.29554e-06
5.80805e-07
4.90952e-07
4.66121e-07
5.36745e-07
7.03514e-07
9.25019e-07
1.12994e-06
1.31639e-06
1.93504e-06
1.78908e-06
1.24261e-06
8.1388e-07
3.88264e-07
1.21565e-05
5.88346e-06
1.77728e-06
4.71368e-06
1.25313e-05
1.05011e-05
5.09187e-06
3.0802e-06
2.57392e-06
3.11199e-06
4.19153e-06
4.46512e-06
5.69209e-06
9.82694e-07
3.42172e-05
1.62789e-05
4.33981e-07
5.04868e-07
5.87875e-07
6.8857e-07
8.66397e-07
1.13515e-06
1.52115e-06
2.09825e-06
2.96555e-06
3.10254e-06
1.93067e-06
1.26025e-06
8.46879e-07
5.55085e-07
2.37675e-05
2.53032e-06
1.46794e-06
5.51704e-06
1.23244e-05
9.5162e-06
5.54251e-06
3.60342e-06
3.01452e-06
4.4626e-06
7.53725e-06
7.05818e-06
5.62233e-06
6.12653e-06
4.95115e-05
4.68663e-07
3.58802e-07
5.40093e-07
6.78599e-07
8.64379e-07
1.07885e-06
1.30886e-06
1.40907e-06
1.70672e-06
1.48216e-05
2.38733e-05
1.25792e-05
1.54098e-06
5.73957e-07
4.34386e-07
1.5309e-05
2.0654e-06
2.32348e-06
6.55881e-06
1.08121e-05
9.68103e-06
7.22837e-06
5.94886e-06
5.78713e-06
7.50362e-06
5.885e-06
2.3621e-06
6.28848e-06
3.44553e-05
1.7281e-05
1.41738e-07
4.10221e-07
5.62514e-07
7.40126e-07
9.30598e-07
1.04336e-06
1.06346e-06
1.41027e-06
7.09057e-06
1.44404e-05
4.28864e-05
4.1369e-05
8.79534e-06
8.76657e-07
4.7915e-07
6.50714e-06
3.20159e-06
3.86616e-06
6.93744e-06
1.05543e-05
1.17249e-05
1.04044e-05
1.08999e-05
9.5685e-06
7.26273e-06
2.38957e-05
2.22883e-05
3.32049e-05
2.06509e-05
7.16333e-06
6.18948e-07
4.8574e-07
6.09219e-07
7.85668e-07
8.40862e-07
8.60298e-07
1.00445e-06
4.59217e-06
1.26062e-05
1.71759e-05
6.05471e-05
0.00016578
4.13386e-05
3.39272e-06
1.01714e-06
2.21854e-06
4.1593e-06
5.41792e-06
8.69136e-06
1.23889e-05
1.4145e-05
1.4102e-05
1.18503e-05
6.35573e-06
4.26379e-05
3.04744e-05
1.13848e-05
1.79045e-05
9.68231e-06
5.02749e-06
2.00928e-06
6.73577e-07
7.75893e-07
7.20307e-07
6.8511e-07
6.98069e-07
2.07862e-06
8.79465e-06
8.81974e-06
9.90338e-06
0.000203774
0.000237796
2.44923e-05
2.77187e-05
2.76298e-05
2.16441e-06
4.02304e-06
7.30514e-06
1.02472e-05
1.23029e-05
1.3574e-05
1.15184e-05
3.9588e-06
2.58102e-05
2.81777e-05
6.33524e-06
5.59666e-06
7.04885e-06
5.73035e-06
3.63563e-06
2.45471e-06
9.42438e-07
8.88011e-07
6.28564e-07
5.45515e-07
8.00806e-07
3.9854e-06
5.6676e-06
3.73294e-06
4.83164e-06
5.62383e-05
0.000527458
9.47857e-05
0.000350045
0.000640985
4.389e-06
4.49656e-06
7.1898e-06
6.83752e-06
6.66346e-06
7.10655e-06
3.69393e-06
1.03198e-06
1.78223e-05
8.07165e-06
6.17736e-06
7.97115e-06
8.32026e-06
3.52197e-06
1.52825e-06
1.41422e-06
1.04574e-06
8.5428e-07
5.7977e-07
4.8445e-07
1.12909e-06
3.25869e-06
3.93644e-06
4.38829e-06
5.89872e-06
6.96876e-05
0.00079943
0.00105199
0.00094245
0.00267103
6.42412e-06
3.85648e-06
3.44479e-06
2.10058e-06
1.2503e-06
1.01227e-06
3.26266e-07
4.04012e-06
1.68655e-05
9.94806e-06
8.86732e-06
1.05337e-05
9.94167e-06
3.8191e-06
6.74567e-07
7.40909e-07
9.79045e-07
8.17093e-07
5.2391e-07
4.55623e-07
1.18086e-06
3.03201e-06
5.31497e-06
4.44828e-05
0.000552955
0.00141549
0.00224271
0.00319833
0.00348113
0.00873207
4.65894e-06
2.01273e-06
1.90288e-06
8.26873e-06
3.69423e-06
3.71384e-07
2.03065e-06
1.22998e-05
1.83747e-05
1.01944e-05
1.91179e-05
1.32512e-05
9.72881e-06
6.55634e-06
7.49965e-07
8.2106e-07
9.5346e-07
6.8078e-07
4.04121e-07
4.26622e-07
1.5001e-06
4.96427e-06
0.000310886
0.0022284
0.00421787
0.0053664
0.00704661
0.00792868
0.00485292
0.008369
2.87089e-06
8.43255e-06
2.48982e-05
0.000123625
0.000267715
4.54303e-05
2.74424e-05
5.3266e-05
9.20231e-05
1.66345e-05
5.32569e-05
2.23303e-05
1.48119e-05
2.286e-05
3.94519e-06
2.2178e-06
1.20775e-06
4.94407e-07
3.02568e-07
5.3727e-07
3.42115e-06
0.000712008
0.00486787
0.00904998
0.00943652
0.00235137
9.70939e-07
1.28807e-06
1.27527e-06
0.000145763
3.97469e-06
2.66011e-05
0.00117534
0.00288832
0.0034231
0.00264412
0.00202192
0.00202285
0.00231488
0.00187682
0.000206898
0.000157474
0.000266364
5.52956e-05
1.46496e-05
4.14215e-06
1.56056e-06
3.96484e-07
3.19068e-07
2.11137e-06
0.000935268
0.00630166
0.00962963
0.000750474
1.2389e-06
2.75118e-06
2.92678e-06
2.58754e-06
1.58318e-06
4.97549e-05
2.6426e-05
0.00133394
0.00288533
0.00277998
0.00253825
0.00393952
0.00417329
0.00398213
0.00335615
0.00336523
0.00282504
0.00121465
0.000234725
2.27082e-05
7.13156e-06
3.49325e-06
1.95712e-06
2.81311e-07
1.72568e-06
0.000494141
0.00578417
0.00609036
6.36612e-06
9.21638e-07
2.13116e-06
4.30821e-06
4.57971e-06
2.90954e-06
1.35748e-06
1.68952e-05
0.00114167
0.00304814
0.000427288
7.85704e-06
3.29083e-06
0.000104742
0.000341019
0.000327443
5.04687e-05
0.000172472
0.00215086
0.000708625
2.51232e-05
5.58742e-06
1.83799e-06
2.57096e-06
1.58924e-06
3.85094e-07
3.16501e-05
0.00324872
0.00443717
2.96529e-05
6.56281e-07
1.35451e-06
2.34423e-06
3.68676e-06
4.62531e-06
3.51906e-06
1.41324e-06
4.98197e-06
0.00326793
5.18628e-05
1.40979e-06
3.66941e-07
2.91505e-07
1.87369e-07
2.41342e-07
3.42832e-07
5.47317e-07
6.55362e-07
2.559e-05
4.54874e-05
1.58874e-05
9.95532e-07
1.08437e-06
1.81546e-06
1.42594e-06
1.92166e-06
0.000493204
0.0032494
0.000535726
3.63524e-07
5.63428e-07
1.11525e-06
2.53926e-06
4.94999e-06
5.83839e-06
4.26571e-06
1.69619e-06
1.06817e-06
0.000908671
1.75077e-06
6.76976e-07
3.79939e-07
3.59098e-07
3.34137e-07
3.45486e-07
4.34468e-07
5.86508e-07
4.73673e-07
3.32315e-05
4.74012e-05
7.04421e-06
5.58249e-07
8.54752e-07
1.7254e-06
1.04412e-06
9.76838e-06
0.00127392
0.00213142
3.87611e-05
3.56797e-07
5.98669e-07
1.08233e-06
2.08178e-06
4.30527e-06
6.78553e-06
5.84868e-06
2.614e-06
1.84792e-07
0.000515438
9.55663e-07
4.63645e-07
4.10621e-07
3.54438e-07
4.48844e-07
4.80695e-07
4.52711e-07
4.79574e-07
3.89753e-07
4.12927e-05
5.64259e-05
3.01998e-06
5.38686e-07
8.4187e-07
1.32385e-06
2.86805e-06
4.30099e-05
0.0022603
0.00150971
3.35063e-07
3.72013e-07
5.51533e-07
1.07499e-06
2.54326e-06
5.01075e-06
6.9204e-06
7.17698e-06
4.24092e-06
6.11567e-08
0.000498533
1.66727e-06
5.59454e-07
3.35977e-07
3.76615e-07
3.91253e-07
4.84942e-07
4.72276e-07
5.05215e-07
3.78352e-07
4.9145e-05
7.12885e-05
1.93536e-06
6.01545e-07
9.1934e-07
1.78919e-06
5.70906e-06
0.000253211
0.00222352
0.000364835
2.4926e-07
3.73352e-07
5.72681e-07
9.98641e-07
2.09176e-06
5.0884e-06
7.8033e-06
7.38423e-06
5.69286e-06
8.86521e-08
0.000423067
1.08728e-06
2.76146e-07
2.74272e-07
3.87457e-07
5.38189e-07
5.54345e-07
5.09712e-07
5.4535e-07
5.11694e-07
5.57201e-05
8.9536e-05
2.15118e-06
7.74393e-07
1.26132e-06
2.48136e-06
9.28632e-06
0.000638947
0.00148082
6.09562e-05
2.63567e-07
3.44785e-07
4.80673e-07
9.36821e-07
2.02345e-06
4.72316e-06
8.78906e-06
7.9093e-06
6.06183e-06
3.1269e-07
0.000324331
3.2724e-07
2.03587e-07
3.53912e-07
4.10521e-07
5.80622e-07
6.01385e-07
5.90552e-07
6.23598e-07
7.54742e-07
5.61777e-05
0.000115502
3.22358e-06
1.14409e-06
2.00826e-06
4.01554e-06
1.54074e-05
0.000929483
0.00132227
3.81868e-06
3.03166e-07
3.43184e-07
4.78278e-07
8.77205e-07
1.79622e-06
4.30227e-06
8.78133e-06
9.3918e-06
6.54895e-06
9.67554e-07
0.000260467
2.74165e-07
3.36598e-07
3.88721e-07
4.64832e-07
5.96288e-07
6.93252e-07
7.05463e-07
8.0909e-07
9.85669e-07
5.43384e-05
0.000127682
4.18295e-06
1.6403e-06
3.00509e-06
7.02914e-06
2.59843e-05
0.00137894
0.00105281
2.48877e-07
3.3163e-07
3.37303e-07
4.38109e-07
7.79571e-07
1.52406e-06
3.89451e-06
8.74889e-06
9.99021e-06
7.49696e-06
2.1074e-06
0.000213871
4.81814e-07
5.54545e-07
4.81048e-07
5.39042e-07
6.52198e-07
7.73264e-07
8.81019e-07
1.03128e-06
1.3267e-06
4.92633e-05
0.00014635
4.30998e-06
1.93111e-06
3.07513e-06
8.73319e-06
9.91019e-05
0.00168424
0.000385467
2.49109e-07
3.52524e-07
3.40539e-07
4.28318e-07
7.32752e-07
1.35087e-06
3.17134e-06
8.19728e-06
1.07728e-05
7.87473e-06
3.56355e-06
0.000145018
4.34094e-07
5.60917e-07
7.74145e-07
5.65228e-07
7.11615e-07
9.45994e-07
1.1239e-06
1.34651e-06
1.70354e-06
1.90182e-05
0.000172291
1.12377e-05
2.06859e-06
2.22297e-06
4.47723e-06
0.000386719
0.00128654
2.87795e-05
3.29352e-07
3.78611e-07
3.65023e-07
4.17941e-07
6.3659e-07
1.22396e-06
2.85541e-06
7.00528e-06
1.09675e-05
8.27808e-06
4.6404e-06
9.9857e-05
3.6338e-07
6.93327e-07
8.66737e-07
7.11219e-07
8.57353e-07
1.18288e-06
1.46928e-06
1.76896e-06
2.08313e-06
2.84311e-06
5.66952e-05
9.59967e-05
4.2373e-06
4.09358e-06
4.10967e-06
0.000704094
0.000752461
2.20369e-06
4.34289e-07
4.02038e-07
4.03168e-07
4.13082e-07
5.75144e-07
1.06166e-06
2.52625e-06
5.78852e-06
1.00943e-05
9.00266e-06
4.89211e-06
6.49759e-05
5.06805e-07
9.89296e-07
1.05395e-06
8.22733e-07
1.11523e-06
1.60264e-06
1.97936e-06
2.2383e-06
2.37803e-06
2.87393e-06
6.05029e-06
3.56234e-05
3.36402e-05
1.71206e-05
3.52358e-05
0.000922327
0.000262526
1.57079e-06
5.7625e-07
4.37927e-07
4.3099e-07
4.37526e-07
5.47084e-07
9.42808e-07
2.46757e-06
5.74278e-06
8.46133e-06
9.14326e-06
5.2817e-06
2.71517e-05
6.0669e-07
1.09563e-06
1.01655e-06
1.04488e-06
1.60107e-06
2.22937e-06
2.51863e-06
2.54733e-06
2.46596e-06
2.65614e-06
5.13423e-06
1.60894e-05
3.30088e-05
2.40569e-05
0.000220122
0.000331225
2.74619e-05
2.55359e-06
7.67156e-07
5.14462e-07
4.62221e-07
4.80693e-07
5.42392e-07
7.50441e-07
1.84112e-06
6.25079e-06
7.69557e-06
9.01775e-06
5.75712e-06
9.55042e-06
7.15075e-07
1.27494e-06
1.08682e-06
1.55831e-06
2.50473e-06
2.96578e-06
2.92733e-06
2.70186e-06
2.40508e-06
2.52321e-06
5.03908e-06
1.39864e-05
2.61197e-05
4.21402e-05
5.49678e-05
6.43064e-05
3.92299e-05
6.88372e-06
1.1159e-06
6.92267e-07
4.93558e-07
5.16656e-07
5.8835e-07
7.24134e-07
1.18359e-06
4.89712e-06
6.95752e-06
6.97953e-06
5.51022e-06
8.18344e-06
8.19118e-07
1.14428e-06
1.51066e-06
2.38726e-06
3.25834e-06
3.37497e-06
3.14568e-06
2.73867e-06
2.51928e-06
3.32986e-06
6.45007e-06
1.08552e-05
1.53685e-05
2.14913e-05
3.06125e-05
4.38274e-05
4.72082e-05
2.09517e-05
2.94442e-06
8.64909e-07
6.39573e-07
5.41151e-07
6.46532e-07
8.30386e-07
1.02656e-06
2.66514e-06
6.58865e-06
4.20652e-06
4.36834e-06
6.28557e-06
1.43988e-06
1.56414e-06
2.14809e-06
3.16386e-06
3.53091e-06
3.4936e-06
3.18302e-06
2.96729e-06
3.64221e-06
6.03815e-06
9.55243e-06
1.21362e-05
1.25993e-05
1.12771e-05
1.06266e-05
1.52696e-05
3.20553e-05
4.30406e-05
1.70543e-05
1.65278e-06
8.18255e-07
6.28979e-07
6.80224e-07
9.07471e-07
1.25746e-06
1.54012e-06
3.32543e-06
2.1898e-06
3.82065e-06
4.93708e-06
1.60985e-06
2.10702e-06
2.99643e-06
3.58759e-06
3.59113e-06
3.39369e-06
3.36507e-06
4.0659e-06
6.28087e-06
9.27628e-06
1.02193e-05
8.36229e-06
6.06321e-06
4.13808e-06
3.25249e-06
3.74445e-06
7.75408e-06
3.32435e-05
5.73307e-05
1.58824e-05
9.72816e-07
8.19795e-07
7.49658e-07
8.68803e-07
1.60879e-06
2.0734e-06
2.68827e-06
6.53183e-07
2.22484e-06
4.90122e-06
2.15255e-06
2.77976e-06
3.39705e-06
3.3789e-06
3.04603e-06
3.24123e-06
4.38608e-06
5.7173e-06
5.48243e-06
4.24571e-06
3.14955e-06
2.44584e-06
1.77278e-06
1.4984e-06
1.3997e-06
1.52575e-06
2.22216e-06
6.93677e-06
6.43544e-05
8.7711e-05
3.25436e-06
1.00881e-06
8.91704e-07
7.66701e-07
1.24899e-06
2.27778e-06
2.40181e-06
3.98695e-07
1.79153e-06
5.74579e-06
3.14617e-06
2.88814e-06
3.00644e-06
2.4093e-06
2.50373e-06
3.27014e-06
3.23649e-06
2.76602e-06
2.27641e-06
1.88454e-06
1.58504e-06
1.49963e-06
2.18125e-06
2.70821e-06
2.9449e-06
2.48298e-06
1.42196e-06
2.38171e-06
2.29411e-05
0.00014855
4.43393e-05
1.00806e-06
1.08702e-06
8.53553e-07
1.20653e-06
1.82046e-06
1.50513e-06
2.13928e-07
3.93009e-06
9.08931e-06
3.72019e-06
2.85569e-06
1.77366e-06
1.5506e-06
1.82511e-06
1.59276e-06
1.36581e-06
1.28495e-06
1.33306e-06
1.49971e-06
1.61381e-06
1.71349e-06
1.74688e-06
2.60742e-06
3.58883e-06
3.85259e-06
3.53178e-06
3.60902e-06
2.80175e-05
0.000202328
3.63407e-05
1.30293e-06
1.10714e-06
9.27225e-07
1.58278e-06
1.82714e-06
1.24211e-06
1.78505e-07
4.29696e-06
1.69032e-05
2.8855e-06
1.93303e-06
1.0545e-06
1.02298e-06
7.92563e-07
5.84814e-07
5.23778e-07
5.6139e-07
6.84653e-07
9.07365e-07
1.34037e-06
2.06602e-06
2.92046e-06
3.43671e-06
4.20261e-06
7.61003e-06
1.50322e-05
2.63841e-05
8.87461e-05
5.45616e-05
4.4903e-06
2.49088e-06
1.2545e-06
9.75041e-07
1.6402e-06
2.57663e-06
1.23947e-06
2.92183e-07
6.11712e-06
2.12414e-05
2.79833e-06
1.86805e-06
8.71469e-07
5.50955e-07
3.50361e-07
2.40542e-07
1.98798e-07
2.1417e-07
2.86173e-07
4.58797e-07
8.4617e-07
1.68735e-06
3.39442e-06
6.61999e-06
1.22139e-05
2.17264e-05
2.74623e-05
3.02255e-05
1.79506e-05
6.37261e-06
6.05733e-06
4.73499e-06
2.31572e-06
1.23447e-06
1.28815e-06
3.37864e-06
2.26005e-06
4.50737e-07
1.7943e-05
2.05977e-05
4.49503e-06
1.43025e-06
6.01184e-07
3.33561e-07
2.04572e-07
1.36741e-07
1.17399e-07
1.36134e-07
1.97043e-07
3.41641e-07
6.69198e-07
1.3753e-06
2.77602e-06
5.12633e-06
8.19776e-06
1.1595e-05
1.58027e-05
1.91281e-05
1.73406e-05
9.53709e-06
7.105e-06
6.80767e-06
4.73913e-06
2.36089e-06
1.42134e-06
2.279e-06
3.47399e-06
7.16501e-07
5.59512e-05
2.00336e-05
2.93548e-06
8.38336e-07
3.83213e-07
2.04558e-07
1.21944e-07
8.81257e-08
8.63559e-08
1.12481e-07
1.82534e-07
3.30359e-07
6.10785e-07
1.09514e-06
1.84574e-06
2.89237e-06
4.25117e-06
5.92858e-06
8.02236e-06
1.02815e-05
1.19452e-05
1.22275e-05
1.07022e-05
8.30521e-06
7.34103e-06
4.22406e-06
2.2032e-06
1.96434e-06
3.21508e-06
1.34336e-06
9.07791e-05
1.39513e-05
1.47831e-06
4.70975e-07
2.19352e-07
1.11632e-07
6.27448e-08
4.73137e-08
5.48294e-08
8.65152e-08
1.55823e-07
2.8102e-07
4.7631e-07
7.40687e-07
1.05873e-06
1.41944e-06
1.83676e-06
2.34635e-06
3.04206e-06
4.08643e-06
5.53315e-06
7.95058e-06
1.15845e-05
1.02813e-05
8.40496e-06
7.02688e-06
3.55736e-06
2.33989e-06
3.47039e-06
1.74969e-06
0.000143402
7.61749e-06
7.77897e-07
2.59651e-07
1.23108e-07
5.49749e-08
2.50288e-08
1.90337e-08
3.03533e-08
6.39215e-08
1.28615e-07
2.2947e-07
3.61003e-07
5.07309e-07
6.52458e-07
7.94208e-07
9.51585e-07
1.16716e-06
1.51127e-06
2.1198e-06
3.14677e-06
4.53922e-06
6.62252e-06
9.20299e-06
8.25302e-06
8.69536e-06
6.82523e-06
3.47465e-06
3.75793e-06
1.42382e-06
0.000276334
4.04803e-06
4.83064e-07
1.66125e-07
7.66116e-08
2.77057e-08
9.02964e-09
8.19481e-09
2.17402e-08
5.65557e-08
1.16468e-07
1.98149e-07
2.92009e-07
3.8701e-07
4.77252e-07
5.65793e-07
6.66814e-07
8.06171e-07
1.02508e-06
1.389e-06
1.96295e-06
2.6716e-06
3.36753e-06
4.78106e-06
6.79341e-06
7.17857e-06
1.00018e-05
7.39867e-06
2.80015e-06
3.94242e-07
0.000249462
2.29135e-06
3.90703e-07
1.38306e-07
6.24212e-08
2.21219e-08
8.72683e-09
1.15006e-08
2.97911e-08
6.74269e-08
1.22717e-07
1.88925e-07
2.58283e-07
3.2613e-07
3.92253e-07
4.61551e-07
5.44111e-07
6.53302e-07
8.04293e-07
1.0078e-06
1.26107e-06
1.54591e-06
1.83006e-06
2.2498e-06
3.27071e-06
4.46314e-06
8.30628e-06
1.59015e-05
7.06999e-06
8.39389e-07
0.000171946
1.46985e-06
3.70092e-07
1.44024e-07
7.06979e-08
3.40419e-08
2.33353e-08
3.11742e-08
5.58072e-08
9.56572e-08
1.45499e-07
1.98531e-07
2.50218e-07
3.00733e-07
3.53101e-07
4.13227e-07
4.87327e-07
5.77428e-07
6.79089e-07
7.79972e-07
8.66852e-07
9.44664e-07
1.04364e-06
1.19073e-06
1.41629e-06
1.86593e-06
4.17822e-06
2.20951e-05
1.74777e-05
3.74159e-06
0.000138192
1.0736e-06
3.71667e-07
1.66801e-07
9.60351e-08
6.35451e-08
5.73168e-08
7.10894e-08
1.00648e-07
1.40781e-07
1.84911e-07
2.277e-07
2.67395e-07
3.06566e-07
3.49908e-07
4.02853e-07
4.68775e-07
5.42518e-07
6.11163e-07
6.59016e-07
6.75742e-07
6.68002e-07
6.61035e-07
6.83817e-07
7.48447e-07
9.43918e-07
2.42495e-06
5.30832e-05
1.85965e-05
1.05593e-05
0.00011959
8.6157e-07
3.78475e-07
1.97555e-07
1.34209e-07
1.0956e-07
1.10806e-07
1.31323e-07
1.6522e-07
2.05768e-07
2.47354e-07
2.84366e-07
3.17905e-07
3.51284e-07
3.89031e-07
4.37407e-07
4.95955e-07
5.55505e-07
5.99629e-07
6.13851e-07
5.93398e-07
5.38401e-07
4.66269e-07
4.11731e-07
4.20809e-07
6.50858e-07
3.85293e-06
7.49942e-05
9.14227e-06
1.7728e-05
0.00013822
7.28778e-07
3.84579e-07
2.31735e-07
1.8209e-07
1.70192e-07
1.82846e-07
2.12296e-07
2.53162e-07
2.95858e-07
3.43313e-07
3.84092e-07
4.18707e-07
4.66896e-07
5.01146e-07
5.54366e-07
6.07952e-07
6.47382e-07
6.58634e-07
6.31302e-07
5.66778e-07
4.54886e-07
3.23297e-07
2.21784e-07
2.48763e-07
8.8177e-07
2.19803e-05
5.51904e-05
1.16753e-06
1.92683e-05
0.000181902
6.30561e-07
3.89723e-07
2.68893e-07
2.38843e-07
2.45021e-07
2.74126e-07
3.14422e-07
3.68488e-07
4.2033e-07
4.77367e-07
6.02295e-07
6.66259e-07
7.28909e-07
8.0127e-07
8.58174e-07
8.77286e-07
8.71597e-07
8.42321e-07
7.55127e-07
5.84228e-07
3.94154e-07
2.0659e-07
6.9226e-08
1.09768e-07
1.89236e-06
4.95078e-05
2.60054e-05
2.92447e-06
1.68703e-05
0.000218648
5.50902e-07
3.96843e-07
3.11095e-07
3.05105e-07
3.3399e-07
3.83368e-07
4.40104e-07
5.0779e-07
6.64113e-07
7.1832e-07
7.52239e-07
9.10521e-07
1.20163e-06
1.52397e-06
1.75312e-06
1.52277e-06
1.29988e-06
1.04073e-06
7.77956e-07
5.77102e-07
3.69938e-07
1.55076e-07
1.85916e-08
4.91735e-08
3.07943e-06
4.89956e-05
1.15907e-05
4.50294e-06
1.13222e-05
0.000252105
4.85637e-07
4.08026e-07
3.58575e-07
3.77561e-07
4.2786e-07
4.87001e-07
6.42536e-07
7.00907e-07
7.71589e-07
1.0014e-06
1.22867e-06
1.70238e-06
2.96466e-06
3.62204e-06
3.27016e-06
3.06888e-06
2.24478e-06
1.36712e-06
7.55718e-07
4.61792e-07
2.85892e-07
1.46548e-07
4.86074e-08
1.05078e-07
3.55287e-06
4.82799e-05
1.42502e-05
6.00156e-06
1.21069e-05
0.000279364
4.31304e-07
4.19492e-07
4.03758e-07
4.41873e-07
5.024e-07
5.96245e-07
6.36612e-07
7.72227e-07
8.97411e-07
1.23422e-06
1.83082e-06
2.53774e-06
2.88289e-06
3.48295e-06
4.04881e-06
4.03968e-06
3.27602e-06
2.10708e-06
1.19537e-06
5.27008e-07
2.23187e-07
1.25374e-07
9.58101e-08
2.08016e-07
3.95517e-06
4.12684e-05
3.01809e-05
1.31291e-05
1.85022e-05
0.000325185
3.80312e-07
4.17735e-07
4.24214e-07
4.61643e-07
5.11111e-07
5.4794e-07
6.05879e-07
6.8459e-07
8.09155e-07
1.04931e-06
1.65666e-06
2.48755e-06
3.17974e-06
3.73937e-06
4.13776e-06
4.38232e-06
4.38251e-06
3.80553e-06
2.54255e-06
1.12515e-06
3.15974e-07
1.07806e-07
1.28292e-07
2.74318e-07
4.37239e-06
3.17084e-05
5.63379e-05
3.18943e-05
3.20566e-05
0.000403453
3.2668e-07
3.87414e-07
3.94597e-07
4.04436e-07
4.14982e-07
4.30969e-07
4.66535e-07
5.9157e-07
8.74403e-07
1.33348e-06
1.62712e-06
1.77223e-06
1.8335e-06
1.83421e-06
2.06091e-06
2.45706e-06
2.93831e-06
3.24263e-06
2.92021e-06
1.89306e-06
7.08425e-07
1.60493e-07
2.05071e-07
4.5677e-07
4.07078e-06
2.33517e-05
7.88894e-05
8.02513e-05
9.84489e-05
0.000523315
2.79387e-07
3.41174e-07
3.3712e-07
3.18052e-07
3.05828e-07
3.23346e-07
4.17869e-07
6.66903e-07
1.0294e-06
1.52482e-06
1.89817e-06
1.81034e-06
1.6961e-06
1.68578e-06
1.60426e-06
1.70805e-06
2.11374e-06
2.64225e-06
2.78915e-06
2.24391e-06
1.01311e-06
2.72688e-07
4.32169e-07
1.24118e-06
2.60143e-06
1.44078e-05