/*--------------------------------*- C++ -*----------------------------------*\
| =========                 |                                                 |
| \\      /  F ield         | OpenFOAM: The Open Source CFD Toolbox           |
|  \\    /   O peration     | Version:  2.3.0                                 |
|   \\  /    A nd           | Web:      www.OpenFOAM.org                      |
|    \\/     M anipulation  |                                                 |
\*---------------------------------------------------------------------------*/
FoamFile
{
    version     2.0;
    format      ascii;
    class       volVectorField;
    location    "1.27";
    object      U;
}
// * * * * * * * * * * * * * * * * * * * * * * * * * * * * * * * * * * * * * //

dimensions      [0 1 -1 0 0 0 0];

internalField   nonuniform List<vector> 
6000
(
(0.0186603 0.0091771 0)
(0.0596072 -0.062793 0)
(0.138351 -0.0463785 0)
(0.0805322 0.0349433 0)
(-0.100007 0.00702172 0)
(-0.102554 -0.0652652 0)
(-0.0715786 -0.109538 0)
(-0.0361621 -0.113381 0)
(0.00424798 -0.0928303 0)
(0.0440644 -0.0902928 0)
(0.0744906 -0.088441 0)
(0.0970161 -0.0689981 0)
(0.101968 -0.021166 0)
(0.0732577 -0.00540091 0)
(0.0227503 -0.0276614 0)
(-0.00887731 -0.0384475 0)
(-0.0320517 -0.0321435 0)
(-0.0491555 -0.0128889 0)
(-0.0737727 -0.00824354 0)
(-0.105911 -0.03104 0)
(-0.135301 -0.06452 0)
(-0.167572 -0.0545275 0)
(-0.205742 -0.00975912 0)
(-0.215151 0.0256264 0)
(-0.204519 0.0365913 0)
(-0.164956 0.0318686 0)
(-0.106222 0.0137836 0)
(-0.0537132 -0.0232383 0)
(-0.0258533 -0.0898017 0)
(-0.0115341 -0.0112707 0)
(0.0351769 0.548958 0)
(0.0887156 0.577864 0)
(0.128748 0.555456 0)
(0.124373 0.820755 0)
(-0.00464956 0.792939 0)
(-0.0814575 0.632956 0)
(-0.0786151 0.618113 0)
(-0.0267627 0.628046 0)
(0.0325759 0.608813 0)
(0.0728152 0.603219 0)
(0.101265 0.639184 0)
(0.103058 0.637903 0)
(0.0733757 0.653023 0)
(0.000430715 0.656484 0)
(-0.0706959 0.637486 0)
(-0.107118 0.612445 0)
(-0.118698 0.588802 0)
(-0.112956 0.56949 0)
(-0.107786 0.574928 0)
(-0.104087 0.58099 0)
(-0.117044 0.577118 0)
(-0.147719 0.600304 0)
(-0.19167 0.642802 0)
(-0.211062 0.5739 0)
(-0.204201 0.543803 0)
(-0.162883 0.51159 0)
(-0.104372 0.512828 0)
(-0.0364536 0.575145 0)
(-0.039652 0.677941 0)
(-0.0470365 0.579541 0)
(0.00236387 0.354385 0)
(0.0881934 0.318025 0)
(0.149783 0.342806 0)
(0.12107 0.808281 0)
(0.0279149 0.796411 0)
(-0.054286 0.518093 0)
(-0.0444569 0.313429 0)
(0.0280925 0.321087 0)
(0.0770574 0.340955 0)
(0.102732 0.381824 0)
(0.131146 0.42038 0)
(0.142438 0.463937 0)
(0.0578505 0.556581 0)
(-0.0691815 0.605576 0)
(-0.15543 0.547805 0)
(-0.179047 0.518228 0)
(-0.183495 0.500156 0)
(-0.183674 0.5045 0)
(-0.180916 0.537899 0)
(-0.173699 0.569077 0)
(-0.170411 0.587982 0)
(-0.168059 0.616748 0)
(-0.1562 0.582758 0)
(-0.144771 0.43496 0)
(-0.139928 0.35112 0)
(-0.102432 0.294427 0)
(-0.0671468 0.261834 0)
(-0.023124 0.270066 0)
(-0.0262502 0.427997 0)
(-0.013664 0.339297 0)
(0.0014793 0.357683 0)
(0.113517 0.270802 0)
(0.144239 0.390697 0)
(0.0757164 0.861823 0)
(0.0592376 0.834575 0)
(0.0349657 0.648082 0)
(0.0365378 0.325335 0)
(0.0663274 0.330182 0)
(0.0815356 0.359387 0)
(0.0937267 0.387477 0)
(0.11645 0.409061 0)
(0.0363056 0.463522 0)
(-0.0659475 0.837024 0)
(-0.213291 0.889253 0)
(-0.297901 0.770291 0)
(-0.338318 0.669391 0)
(-0.34637 0.604168 0)
(-0.328782 0.584432 0)
(-0.303044 0.581825 0)
(-0.274406 0.57777 0)
(-0.242702 0.567272 0)
(-0.204345 0.587459 0)
(-0.148824 0.594966 0)
(-0.104159 0.576175 0)
(-0.0637246 0.49587 0)
(-0.00887624 0.411958 0)
(0.0317285 0.367781 0)
(0.0334409 0.372177 0)
(0.0335537 0.557069 0)
(0.0328727 0.357418 0)
(0.00343224 0.279071 0)
(0.135779 0.141833 0)
(0.110757 0.47413 0)
(0.0297908 0.839207 0)
(0.0736079 0.844452 0)
(0.0827051 0.658481 0)
(0.097294 0.292736 0)
(0.100972 0.314735 0)
(0.0775349 0.347101 0)
(0.0790997 0.379356 0)
(0.00421098 0.389534 0)
(-0.130128 0.808013 0)
(-0.372964 1.00761 0)
(-0.449023 0.874828 0)
(-0.48779 0.734808 0)
(-0.49935 0.591459 0)
(-0.462839 0.499301 0)
(-0.401082 0.463362 0)
(-0.348147 0.473813 0)
(-0.308904 0.484912 0)
(-0.273726 0.494573 0)
(-0.234645 0.485027 0)
(-0.179956 0.466207 0)
(-0.109135 0.416289 0)
(-0.016998 0.353705 0)
(0.0841264 0.308894 0)
(0.18098 0.345323 0)
(0.183989 0.447306 0)
(0.159258 0.635989 0)
(0.086281 0.502101 0)
(0.0230169 0.186773 0)
(0.0804148 0.0986475 0)
(0.0283192 0.581898 0)
(0.0232198 0.803046 0)
(0.100871 0.820291 0)
(0.120896 0.644942 0)
(0.130446 0.312184 0)
(0.109048 0.33593 0)
(0.060206 0.364714 0)
(0.0142451 0.381961 0)
(-0.13887 0.630372 0)
(-0.43484 1.07308 0)
(-0.550004 1.01812 0)
(-0.602876 0.916435 0)
(-0.638066 0.757907 0)
(-0.6141 0.562712 0)
(-0.526198 0.432194 0)
(-0.427794 0.399677 0)
(-0.345091 0.433129 0)
(-0.292824 0.456173 0)
(-0.26091 0.45924 0)
(-0.229447 0.452413 0)
(-0.185394 0.414643 0)
(-0.121209 0.358426 0)
(-0.0233419 0.271989 0)
(0.0992638 0.15483 0)
(0.21658 0.219505 0)
(0.264853 0.439191 0)
(0.219069 0.640407 0)
(0.115106 0.655318 0)
(0.0279523 0.131421 0)
(0.029619 0.175841 0)
(-0.0156842 0.572127 0)
(0.0528651 0.705158 0)
(0.131636 0.790332 0)
(0.154203 0.608853 0)
(0.136961 0.340597 0)
(0.0808614 0.384874 0)
(0.018603 0.390336 0)
(-0.121875 0.485713 0)
(-0.397713 1.07584 0)
(-0.580051 1.13148 0)
(-0.628531 1.07743 0)
(-0.689459 0.978284 0)
(-0.708132 0.754167 0)
(-0.623687 0.458056 0)
(-0.521408 0.309597 0)
(-0.42488 0.281798 0)
(-0.339896 0.361895 0)
(-0.275765 0.422864 0)
(-0.242789 0.433744 0)
(-0.219846 0.418619 0)
(-0.183503 0.377032 0)
(-0.107801 0.299856 0)
(0.0120588 0.121699 0)
(0.111452 0.014977 0)
(0.18341 0.093302 0)
(0.249901 0.40014 0)
(0.210338 0.742394 0)
(0.0991572 0.780064 0)
(0.0238545 0.0990063 0)
(0.0303375 0.235393 0)
(0.00222683 0.520658 0)
(0.0791817 0.623383 0)
(0.170785 0.734645 0)
(0.177015 0.605947 0)
(0.111518 0.416257 0)
(0.0188042 0.425846 0)
(-0.0975043 0.441519 0)
(-0.342436 0.892451 0)
(-0.582911 1.18105 0)
(-0.615152 1.1693 0)
(-0.641949 1.11822 0)
(-0.694157 1.04692 0)
(-0.629446 0.67097 0)
(-0.516593 0.339458 0)
(-0.446744 0.220472 0)
(-0.391971 0.196947 0)
(-0.340832 0.283406 0)
(-0.277769 0.393557 0)
(-0.226744 0.42857 0)
(-0.193998 0.415702 0)
(-0.134687 0.336948 0)
(-0.0256388 0.163358 0)
(0.066272 0.0165702 0)
(0.104437 -0.0215383 0)
(0.119514 0.045061 0)
(0.162418 0.355286 0)
(0.170105 0.850148 0)
(0.0743835 0.902354 0)
(0.0057406 0.0378832 0)
(0.028907 0.269261 0)
(0.0308722 0.502288 0)
(0.129535 0.535464 0)
(0.203576 0.693064 0)
(0.178175 0.636484 0)
(0.0709917 0.519837 0)
(-0.0936045 0.460759 0)
(-0.301883 0.74179 0)
(-0.563758 1.15207 0)
(-0.621689 1.21133 0)
(-0.610329 1.17879 0)
(-0.619837 1.15888 0)
(-0.606421 1.02101 0)
(-0.457203 0.547915 0)
(-0.373404 0.261294 0)
(-0.349588 0.183463 0)
(-0.334114 0.167537 0)
(-0.315616 0.221959 0)
(-0.266448 0.314845 0)
(-0.193405 0.376687 0)
(-0.121812 0.3688 0)
(-0.0326511 0.226612 0)
(0.0424357 0.0618363 0)
(0.0748764 -0.0185678 0)
(0.0685171 -0.0185509 0)
(0.0456345 0.0453891 0)
(0.0464788 0.304234 0)
(0.102325 0.908615 0)
(0.0613927 1.01596 0)
(-0.0288897 0.0233918 0)
(-0.0206367 0.292599 0)
(0.0419602 0.41967 0)
(0.142048 0.551503 0)
(0.203748 0.696566 0)
(0.146943 0.687024 0)
(0.027498 0.769717 0)
(-0.222685 0.773473 0)
(-0.47324 1.05326 0)
(-0.57674 1.19344 0)
(-0.585176 1.20689 0)
(-0.580148 1.1866 0)
(-0.5621 1.14855 0)
(-0.44603 0.886646 0)
(-0.278619 0.434016 0)
(-0.240599 0.235441 0)
(-0.252206 0.187885 0)
(-0.262787 0.169735 0)
(-0.258778 0.189304 0)
(-0.220061 0.233351 0)
(-0.144722 0.270103 0)
(-0.0575172 0.260893 0)
(0.0179826 0.132756 0)
(0.0564368 0.0282019 0)
(0.0536253 -0.00740372 0)
(0.026828 0.015323 0)
(-0.0156204 0.0893262 0)
(-0.0584694 0.292906 0)
(-0.02275 0.873841 0)
(0.0194572 1.16399 0)
(-0.0635321 0.0627462 0)
(-0.0505405 0.286148 0)
(0.0163957 0.288507 0)
(0.082751 0.476537 0)
(0.234126 0.65777 0)
(0.135534 0.798028 0)
(-0.0343999 1.04152 0)
(-0.250545 1.02643 0)
(-0.413342 1.14283 0)
(-0.495757 1.21833 0)
(-0.535918 1.21979 0)
(-0.528567 1.17187 0)
(-0.450284 1.06594 0)
(-0.254273 0.698202 0)
(-0.133454 0.360457 0)
(-0.137227 0.246693 0)
(-0.166903 0.212637 0)
(-0.191888 0.187134 0)
(-0.197021 0.174737 0)
(-0.169216 0.180211 0)
(-0.107423 0.190465 0)
(-0.0293024 0.17348 0)
(0.0235138 0.0904628 0)
(0.0371379 0.0278032 0)
(0.0280518 0.0164877 0)
(-0.00553678 0.0597918 0)
(-0.0615317 0.151536 0)
(-0.120168 0.330169 0)
(-0.122254 0.747111 0)
(-0.0433018 1.11693 0)
(-0.0425347 0.124805 0)
(-0.0445841 0.255005 0)
(-0.0161335 0.223387 0)
(0.0505847 0.283993 0)
(0.151737 0.59733 0)
(0.133965 0.957442 0)
(-0.0448758 1.16122 0)
(-0.17307 1.16955 0)
(-0.318774 1.23877 0)
(-0.427448 1.28277 0)
(-0.481112 1.24242 0)
(-0.434897 1.13284 0)
(-0.259353 0.872045 0)
(-0.074551 0.538746 0)
(-0.024263 0.338863 0)
(-0.0537914 0.277249 0)
(-0.0953999 0.247315 0)
(-0.133464 0.211648 0)
(-0.148679 0.174359 0)
(-0.129781 0.148175 0)
(-0.0838826 0.135637 0)
(-0.0292559 0.120913 0)
(0.0102435 0.0737412 0)
(0.0248183 0.030683 0)
(0.0158092 0.0378712 0)
(-0.0194657 0.112707 0)
(-0.0766643 0.235997 0)
(-0.135406 0.406002 0)
(-0.139878 0.669734 0)
(-0.0620536 0.992978 0)
(-0.0164293 0.161691 0)
(-0.020552 0.228124 0)
(-0.0186469 0.232279 0)
(-0.0160329 0.262969 0)
(0.0119174 0.471993 0)
(0.0896968 1.06914 0)
(0.00522344 1.27918 0)
(-0.104623 1.30428 0)
(-0.251357 1.36252 0)
(-0.373919 1.37252 0)
(-0.388563 1.24541 0)
(-0.239465 0.971704 0)
(-0.0466923 0.671803 0)
(0.0530047 0.454234 0)
(0.0522822 0.353936 0)
(0.0121852 0.323215 0)
(-0.038155 0.295702 0)
(-0.0862755 0.248 0)
(-0.113311 0.181482 0)
(-0.108698 0.122964 0)
(-0.0743655 0.0943707 0)
(-0.0302609 0.0788561 0)
(0.00350352 0.0491865 0)
(0.0206044 0.0175404 0)
(0.0271573 0.0428662 0)
(-0.00607595 0.126875 0)
(-0.0687294 0.219498 0)
(-0.123159 0.375397 0)
(-0.13476 0.559166 0)
(-0.071754 0.779511 0)
(-0.0119914 0.18614 0)
(-0.0315691 0.223444 0)
(-0.0545308 0.250215 0)
(-0.086767 0.29673 0)
(-0.10468 0.426793 0)
(-0.0630217 1.0601 0)
(0.020227 1.40185 0)
(-0.0678035 1.44719 0)
(-0.187179 1.5112 0)
(-0.275502 1.47743 0)
(-0.191572 1.12875 0)
(-0.00503633 0.779104 0)
(0.104391 0.556277 0)
(0.127818 0.43897 0)
(0.102623 0.392721 0)
(0.0609283 0.374378 0)
(0.0119214 0.350778 0)
(-0.040734 0.297657 0)
(-0.0864272 0.206291 0)
(-0.0989697 0.109374 0)
(-0.0786602 0.0514879 0)
(-0.0369375 0.034001 0)
(-0.00533472 0.0189495 0)
(-0.00380199 -0.0239727 0)
(-0.0081331 0.00225301 0)
(-0.022096 0.150681 0)
(-0.0832915 0.28493 0)
(-0.14477 0.419352 0)
(-0.153848 0.598734 0)
(-0.0675007 0.685909 0)
(-0.0136673 0.215851 0)
(-0.0487874 0.252635 0)
(-0.103682 0.301656 0)
(-0.178097 0.361644 0)
(-0.245734 0.474285 0)
(-0.253315 0.887072 0)
(-0.095158 1.43637 0)
(-0.0549187 1.54362 0)
(-0.0871874 1.65903 0)
(-0.0627892 1.48197 0)
(0.0491511 0.952967 0)
(0.153256 0.661888 0)
(0.182879 0.526402 0)
(0.168653 0.465175 0)
(0.134547 0.433923 0)
(0.0984538 0.417401 0)
(0.0596852 0.403618 0)
(0.00586438 0.365974 0)
(-0.058829 0.262274 0)
(-0.102323 0.121765 0)
(-0.0973413 0.0173516 0)
(-0.0743189 -0.00850383 0)
(-0.0587123 0.00618442 0)
(-0.0641516 -0.00128704 0)
(-0.0653726 0.0982526 0)
(-0.0724793 0.329452 0)
(-0.118951 0.52261 0)
(-0.164326 0.600709 0)
(-0.135272 0.685377 0)
(-0.0472702 0.750266 0)
(-0.00863472 0.24259 0)
(-0.036246 0.28686 0)
(-0.122894 0.378279 0)
(-0.260947 0.455187 0)
(-0.380184 0.554412 0)
(-0.431671 0.758748 0)
(-0.28368 1.2466 0)
(-0.0731473 1.42555 0)
(0.0144764 1.60523 0)
(0.127854 1.34598 0)
(0.199858 0.853682 0)
(0.218224 0.637772 0)
(0.219434 0.557562 0)
(0.194126 0.511839 0)
(0.159963 0.486167 0)
(0.12712 0.453046 0)
(0.105148 0.437841 0)
(0.0563964 0.391423 0)
(-0.0371764 0.294082 0)
(-0.128205 0.126747 0)
(-0.16784 -0.00827767 0)
(-0.186446 0.0130547 0)
(-0.196304 0.0625084 0)
(-0.21301 0.0216582 0)
(-0.219861 0.0680516 0)
(-0.202443 0.250196 0)
(-0.161286 0.449467 0)
(-0.130467 0.499036 0)
(-0.0986321 0.524429 0)
(-0.0335099 0.539686 0)
(-0.0131068 0.251034 0)
(-0.0293998 0.361294 0)
(-0.152891 0.513016 0)
(-0.33111 0.579306 0)
(-0.463933 0.620551 0)
(-0.48305 0.641574 0)
(-0.365936 0.978329 0)
(-0.111361 1.20814 0)
(0.0491601 1.4354 0)
(0.177167 1.19706 0)
(0.228653 0.827826 0)
(0.2269 0.630284 0)
(0.21368 0.521011 0)
(0.185867 0.457762 0)
(0.125971 0.392231 0)
(0.0752893 0.358091 0)
(0.0334557 0.338452 0)
(-0.0252243 0.404636 0)
(-0.126845 0.376369 0)
(-0.205373 0.170056 0)
(-0.269593 -0.000252162 0)
(-0.322509 0.0238261 0)
(-0.283713 0.034203 0)
(-0.270691 0.0121378 0)
(-0.28552 0.0544682 0)
(-0.280284 0.188386 0)
(-0.225579 0.366645 0)
(-0.153499 0.484377 0)
(-0.0933013 0.494666 0)
(-0.0342625 0.486755 0)
(-0.0322073 0.299388 0)
(-0.148718 0.372534 0)
(-0.266709 0.749223 0)
(-0.341909 0.798405 0)
(-0.386149 0.748369 0)
(-0.341156 0.58732 0)
(-0.277615 0.58817 0)
(-0.141205 0.855125 0)
(0.0484701 1.14931 0)
(0.199078 0.987982 0)
(0.235612 0.705481 0)
(0.207909 0.53001 0)
(0.162304 0.497176 0)
(0.0902757 0.608123 0)
(-0.0304759 0.706403 0)
(-0.179498 0.706402 0)
(-0.335075 0.716172 0)
(-0.463567 0.744129 0)
(-0.534043 0.67553 0)
(-0.518306 0.385453 0)
(-0.385419 0.0305901 0)
(-0.357899 -0.0272977 0)
(-0.307895 -0.00209515 0)
(-0.295961 0.0243194 0)
(-0.314348 0.071651 0)
(-0.316868 0.162026 0)
(-0.277047 0.282466 0)
(-0.199095 0.395105 0)
(-0.116141 0.432624 0)
(-0.0365122 0.411117 0)
(-0.117928 0.533206 0)
(-0.343146 0.743559 0)
(-0.422519 0.83884 0)
(-0.379858 0.834637 0)
(-0.301454 0.856596 0)
(-0.240929 0.882946 0)
(-0.212108 0.857228 0)
(-0.180286 0.98724 0)
(-0.0122324 1.22061 0)
(0.170012 1.22094 0)
(0.207953 1.07194 0)
(0.120643 0.918381 0)
(-0.0278597 0.893162 0)
(-0.170589 0.860213 0)
(-0.291249 0.82395 0)
(-0.408851 0.770059 0)
(-0.535326 0.739426 0)
(-0.603864 0.671856 0)
(-0.543869 0.502059 0)
(-0.44397 0.253946 0)
(-0.291941 -0.0485382 0)
(-0.283592 -0.0812626 0)
(-0.286419 -0.0172581 0)
(-0.290978 0.0406891 0)
(-0.304617 0.0889554 0)
(-0.302702 0.146736 0)
(-0.26881 0.219424 0)
(-0.200027 0.294304 0)
(-0.117063 0.332309 0)
(-0.0346193 0.306521 0)
(-0.122226 0.755643 0)
(-0.340361 0.791039 0)
(-0.39537 0.722954 0)
(-0.340553 0.615946 0)
(-0.218405 0.588406 0)
(-0.109015 0.682952 0)
(-0.0775608 0.820267 0)
(-0.122225 0.962365 0)
(-0.0676482 1.03619 0)
(0.0301983 1.0307 0)
(0.0574884 0.929221 0)
(-0.00422908 0.86529 0)
(-0.102989 0.830828 0)
(-0.202195 0.838783 0)
(-0.296259 0.82842 0)
(-0.405581 0.829374 0)
(-0.509714 0.783841 0)
(-0.508412 0.593902 0)
(-0.378393 0.335987 0)
(-0.255723 0.114813 0)
(-0.181468 -0.0691141 0)
(-0.202323 -0.0786863 0)
(-0.230361 -0.00480619 0)
(-0.239856 0.0584449 0)
(-0.240551 0.0982216 0)
(-0.230908 0.132774 0)
(-0.202509 0.174059 0)
(-0.152679 0.224336 0)
(-0.0916042 0.262493 0)
(-0.0233785 0.236803 0)
(-0.0930153 0.901493 0)
(-0.265845 0.913867 0)
(-0.319679 0.729807 0)
(-0.277124 0.506169 0)
(-0.153034 0.427441 0)
(-0.0168633 0.537745 0)
(0.0431874 0.737575 0)
(-0.00642031 0.834091 0)
(-0.0188353 0.889298 0)
(0.00720319 0.894815 0)
(0.00293502 0.909398 0)
(-0.0424616 0.889195 0)
(-0.108561 0.905768 0)
(-0.176216 0.907848 0)
(-0.257221 0.925745 0)
(-0.338094 0.911308 0)
(-0.415204 0.833532 0)
(-0.322725 0.475568 0)
(-0.16759 0.168157 0)
(-0.0694473 0.00857461 0)
(-0.0645721 -0.0517318 0)
(-0.110586 -0.045427 0)
(-0.141323 0.00587716 0)
(-0.144143 0.052671 0)
(-0.135893 0.0858884 0)
(-0.125184 0.113309 0)
(-0.110037 0.143025 0)
(-0.0849511 0.178795 0)
(-0.0528998 0.214806 0)
(-0.00365801 0.195041 0)
(-0.067226 1.05601 0)
(-0.187648 1.00065 0)
(-0.241656 0.779796 0)
(-0.195232 0.4178 0)
(-0.0648356 0.278131 0)
(0.0676481 0.416723 0)
(0.135941 0.748603 0)
(0.0854313 0.888174 0)
(0.0436333 0.888378 0)
(0.0198614 0.92172 0)
(-0.00278533 0.932066 0)
(-0.047397 0.955801 0)
(-0.0937694 0.958998 0)
(-0.145796 0.984685 0)
(-0.199046 0.984948 0)
(-0.261529 0.986372 0)
(-0.273398 0.806457 0)
(-0.128031 0.345129 0)
(0.00818464 0.0419281 0)
(0.0107403 -0.00947826 0)
(-0.00756378 -0.0237084 0)
(-0.032201 -0.0111429 0)
(-0.051425 0.0224215 0)
(-0.0592206 0.0560694 0)
(-0.0613362 0.0849582 0)
(-0.0613037 0.109779 0)
(-0.057824 0.133231 0)
(-0.0470364 0.158804 0)
(-0.0282821 0.18624 0)
(0.00179427 0.179849 0)
(-0.048032 1.15572 0)
(-0.14447 1.0731 0)
(-0.176584 0.818966 0)
(-0.0977206 0.314308 0)
(0.0396818 0.142143 0)
(0.151367 0.299907 0)
(0.197446 0.774948 0)
(0.139261 0.925359 0)
(0.08539 0.954697 0)
(0.0455115 0.947153 0)
(0.00625482 0.978335 0)
(-0.0343723 0.990361 0)
(-0.0778647 1.01552 0)
(-0.113313 1.01875 0)
(-0.153003 1.04139 0)
(-0.17876 1.00752 0)
(-0.124141 0.720057 0)
(0.0449638 0.19884 0)
(0.0676826 0.00987032 0)
(0.0550117 0.00692455 0)
(0.0454475 0.00628501 0)
(0.0240995 0.0154305 0)
(0.00408618 0.0373324 0)
(-0.0110897 0.0630834 0)
(-0.0223127 0.0885299 0)
(-0.0298711 0.111473 0)
(-0.0327114 0.131274 0)
(-0.0289718 0.149181 0)
(-0.017958 0.167058 0)
(0.000280571 0.171887 0)
(-0.0285161 1.21737 0)
(-0.134264 1.14321 0)
(-0.126568 0.812636 0)
(0.0101546 0.194654 0)
(0.139116 -0.0037779 0)
(0.216666 0.222824 0)
(0.228367 0.835066 0)
(0.154202 0.9884 0)
(0.105627 0.98269 0)
(0.0635888 1.00142 0)
(0.0206293 1.00938 0)
(-0.0234588 1.03802 0)
(-0.0584016 1.04269 0)
(-0.0946243 1.06164 0)
(-0.116365 1.05187 0)
(-0.114263 0.999145 0)
(0.013523 0.580902 0)
(0.11689 0.124376 0)
(0.108588 0.0281878 0)
(0.108206 0.0226891 0)
(0.0940347 0.0252262 0)
(0.0705821 0.0355574 0)
(0.0450353 0.0544194 0)
(0.0210962 0.0779403 0)
(0.00173024 0.100928 0)
(-0.0111715 0.119741 0)
(-0.0170859 0.133825 0)
(-0.0165348 0.145425 0)
(-0.0108289 0.157329 0)
(0.000485888 0.164689 0)
(-0.0395989 1.31632 0)
(-0.138912 1.20402 0)
(-0.0552459 0.718523 0)
(0.120032 0.0212753 0)
(0.196627 -0.100959 0)
(0.2356 0.165926 0)
(0.224733 0.937229 0)
(0.144162 1.02237 0)
(0.100436 1.03781 0)
(0.0610704 1.03315 0)
(0.013491 1.06195 0)
(-0.0197568 1.06801 0)
(-0.0522808 1.08298 0)
(-0.0790589 1.0728 0)
(-0.0954087 1.06786 0)
(-0.052477 0.929575 0)
(0.109095 0.435073 0)
(0.168571 0.101739 0)
(0.18196 0.0353241 0)
(0.174131 0.0314043 0)
(0.149375 0.0419985 0)
(0.115115 0.0613893 0)
(0.0775481 0.0853976 0)
(0.0442916 0.106467 0)
(0.0205306 0.121447 0)
(0.00635698 0.131037 0)
(-0.000522455 0.137537 0)
(-0.0026899 0.143992 0)
(-0.00205846 0.15275 0)
(0.0032158 0.161028 0)
(-0.0575196 1.41281 0)
(-0.126377 1.22156 0)
(0.0679196 0.531587 0)
(0.196019 -0.0919251 0)
(0.22264 -0.138542 0)
(0.213654 0.164628 0)
(0.172523 1.00642 0)
(0.113225 1.07797 0)
(0.0774769 1.06687 0)
(0.0344523 1.08622 0)
(-0.00102005 1.0868 0)
(-0.02358 1.10064 0)
(-0.0491773 1.09654 0)
(-0.0761862 1.10418 0)
(-0.0783564 1.06131 0)
(0.0237392 0.782663 0)
(0.180326 0.30275 0)
(0.244245 0.0721937 0)
(0.253091 0.0346204 0)
(0.223258 0.0619755 0)
(0.173968 0.0908953 0)
(0.123445 0.114609 0)
(0.0832204 0.128757 0)
(0.05541 0.135407 0)
(0.0370195 0.138178 0)
(0.0250008 0.139851 0)
(0.0168135 0.142093 0)
(0.0107567 0.146525 0)
(0.00628061 0.154112 0)
(0.00550432 0.162767 0)
(-0.059251 1.53189 0)
(-0.0816405 1.11837 0)
(0.167028 0.330369 0)
(0.236691 -0.131767 0)
(0.229089 -0.129112 0)
(0.169324 0.23754 0)
(0.0772177 1.0558 0)
(0.0517873 1.11394 0)
(0.0184401 1.11259 0)
(-0.00685058 1.10083 0)
(-0.030865 1.11773 0)
(-0.0429273 1.12697 0)
(-0.0635706 1.14322 0)
(-0.0803132 1.12713 0)
(-0.0667139 1.02594 0)
(0.0911952 0.627726 0)
(0.248387 0.189788 0)
(0.299516 0.0521542 0)
(0.243398 0.0830805 0)
(0.187479 0.11603 0)
(0.145579 0.13935 0)
(0.111569 0.149533 0)
(0.0867548 0.152885 0)
(0.0675861 0.153067 0)
(0.0523356 0.152016 0)
(0.0397217 0.151199 0)
(0.028848 0.151751 0)
(0.0191379 0.154737 0)
(0.0111323 0.160455 0)
(0.00534176 0.168845 0)
(-0.0210272 1.63378 0)
(0.0352275 0.927377 0)
(0.213426 0.160037 0)
(0.22402 -0.136252 0)
(0.196964 -0.100756 0)
(0.105537 0.3918 0)
(-0.0162291 1.08447 0)
(-0.0135421 1.13545 0)
(-0.0307496 1.12425 0)
(-0.0642065 1.14474 0)
(-0.0881823 1.13371 0)
(-0.0885215 1.13376 0)
(-0.0935255 1.13795 0)
(-0.10423 1.1286 0)
(-0.0381379 0.902701 0)
(0.169159 0.425944 0)
(0.312567 0.107984 0)
(0.241393 0.0905527 0)
(0.201956 0.12888 0)
(0.169662 0.152997 0)
(0.142141 0.165967 0)
(0.120124 0.171204 0)
(0.100983 0.171535 0)
(0.0831709 0.16935 0)
(0.0666041 0.166352 0)
(0.0513188 0.163921 0)
(0.0371344 0.163172 0)
(0.0239768 0.164801 0)
(0.0128999 0.168716 0)
(0.00407647 0.176376 0)
(0.0832259 1.61294 0)
(0.171937 0.777845 0)
(0.226277 0.114757 0)
(0.192226 -0.106421 0)
(0.145563 -0.0320167 0)
(0.0324659 0.563031 0)
(-0.068181 1.12782 0)
(-0.0702032 1.15899 0)
(-0.113896 1.18081 0)
(-0.16045 1.1695 0)
(-0.157675 1.12633 0)
(-0.127511 1.12146 0)
(-0.110496 1.14122 0)
(-0.0919686 1.10742 0)
(0.0462486 0.734135 0)
(0.282217 0.247527 0)
(0.263633 0.0991662 0)
(0.224508 0.145596 0)
(0.201027 0.166014 0)
(0.177454 0.179568 0)
(0.157642 0.187239 0)
(0.139506 0.190262 0)
(0.120947 0.190313 0)
(0.101448 0.188045 0)
(0.0818531 0.184362 0)
(0.0629947 0.180893 0)
(0.0451648 0.178915 0)
(0.0286321 0.17891 0)
(0.0144127 0.18027 0)
(0.00327137 0.184802 0)
(0.153909 1.40574 0)
(0.256289 0.713428 0)
(0.244305 0.149601 0)
(0.166175 -0.0578502 0)
(0.0813024 0.0748267 0)
(-0.0402902 0.659585 0)
(-0.0931834 1.15622 0)
(-0.123426 1.23016 0)
(-0.183578 1.2318 0)
(-0.226109 1.18409 0)
(-0.187118 1.08336 0)
(-0.131577 1.08502 0)
(-0.0909459 1.13237 0)
(-0.0304427 1.03133 0)
(0.201809 0.536894 0)
(0.319675 0.142602 0)
(0.257125 0.160026 0)
(0.242491 0.180208 0)
(0.222467 0.19198 0)
(0.203459 0.200336 0)
(0.185996 0.205902 0)
(0.16753 0.209809 0)
(0.146438 0.211774 0)
(0.123073 0.210946 0)
(0.0988096 0.207327 0)
(0.0748642 0.202825 0)
(0.0523912 0.198959 0)
(0.032376 0.19681 0)
(0.0156095 0.194804 0)
(0.00311283 0.194234 0)
(0.146981 1.14847 0)
(0.273251 0.662054 0)
(0.254867 0.231733 0)
(0.149465 0.0589114 0)
(0.0273198 0.199629 0)
(-0.0980153 0.710629 0)
(-0.132771 1.18331 0)
(-0.147076 1.28588 0)
(-0.211351 1.28348 0)
(-0.232041 1.17603 0)
(-0.1771 1.01487 0)
(-0.109361 1.01069 0)
(-0.0431614 1.07773 0)
(0.107502 0.875587 0)
(0.343404 0.329602 0)
(0.29534 0.170547 0)
(0.28315 0.192719 0)
(0.270565 0.202507 0)
(0.254378 0.210511 0)
(0.238445 0.217409 0)
(0.221647 0.224295 0)
(0.2022 0.231498 0)
(0.178585 0.237183 0)
(0.150583 0.239524 0)
(0.118671 0.237918 0)
(0.0857965 0.232856 0)
(0.0566361 0.224773 0)
(0.0329822 0.218217 0)
(0.0144146 0.211116 0)
(0.00227534 0.202986 0)
(0.125163 0.956922 0)
(0.24147 0.605974 0)
(0.222439 0.317149 0)
(0.103872 0.207558 0)
(-0.0408071 0.340333 0)
(-0.161734 0.768615 0)
(-0.175113 1.18503 0)
(-0.163535 1.33986 0)
(-0.200173 1.32306 0)
(-0.19111 1.14899 0)
(-0.130051 0.940752 0)
(-0.0481869 0.913886 0)
(0.0552757 0.968722 0)
(0.280473 0.682398 0)
(0.361426 0.246454 0)
(0.315977 0.208965 0)
(0.313967 0.212267 0)
(0.301683 0.217596 0)
(0.289321 0.224232 0)
(0.276594 0.232337 0)
(0.262103 0.242369 0)
(0.244025 0.253657 0)
(0.220918 0.26468 0)
(0.19017 0.27328 0)
(0.145932 0.276851 0)
(0.0937413 0.266293 0)
(0.051587 0.249166 0)
(0.0247078 0.238407 0)
(0.00746442 0.225859 0)
(-0.000580659 0.208194 0)
(0.115681 0.740962 0)
(0.191578 0.556736 0)
(0.150514 0.401202 0)
(0.0278612 0.363298 0)
(-0.113895 0.484312 0)
(-0.206005 0.79154 0)
(-0.205039 1.15372 0)
(-0.176122 1.35856 0)
(-0.170722 1.32654 0)
(-0.134466 1.10842 0)
(-0.046137 0.871236 0)
(0.0664847 0.820761 0)
(0.208437 0.846198 0)
(0.394767 0.515694 0)
(0.344832 0.258153 0)
(0.345465 0.231718 0)
(0.339962 0.22562 0)
(0.331721 0.227696 0)
(0.32391 0.234252 0)
(0.315991 0.244164 0)
(0.306331 0.257032 0)
(0.29378 0.271883 0)
(0.276725 0.287043 0)
(0.250082 0.302788 0)
(0.191635 0.329083 0)
(0.100419 0.309206 0)
(0.0362908 0.276523 0)
(0.00717775 0.25364 0)
(-0.00310082 0.233156 0)
(-0.00351608 0.206206 0)
(0.0743859 0.600298 0)
(0.118464 0.565783 0)
(0.0666975 0.497705 0)
(-0.0454993 0.517015 0)
(-0.157661 0.603008 0)
(-0.21534 0.802387 0)
(-0.213662 1.13799 0)
(-0.168863 1.34589 0)
(-0.137084 1.29935 0)
(-0.0573211 1.06171 0)
(0.083636 0.743345 0)
(0.189844 0.684642 0)
(0.324745 0.699447 0)
(0.411457 0.444694 0)
(0.361791 0.28068 0)
(0.365203 0.244356 0)
(0.36142 0.232619 0)
(0.358763 0.232967 0)
(0.356761 0.239622 0)
(0.355062 0.25066 0)
(0.352093 0.26474 0)
(0.346665 0.280881 0)
(0.333616 0.300134 0)
(0.297503 0.337428 0)
(0.238922 0.446666 0)
(0.17816 0.425918 0)
(0.0586367 0.322957 0)
(0.0157159 0.264808 0)
(0.00211071 0.235681 0)
(-0.00104179 0.202959 0)
(0.0301071 0.519553 0)
(0.0739158 0.600707 0)
(0.012836 0.600615 0)
(-0.073452 0.631767 0)
(-0.140847 0.6753 0)
(-0.170392 0.801387 0)
(-0.16686 1.08018 0)
(-0.130361 1.34159 0)
(-0.0537052 1.25507 0)
(0.0806125 0.932025 0)
(0.158149 0.635491 0)
(0.20367 0.562728 0)
(0.302875 0.557458 0)
(0.393999 0.416825 0)
(0.377123 0.301312 0)
(0.377164 0.250322 0)
(0.378846 0.233455 0)
(0.382092 0.23298 0)
(0.386675 0.239383 0)
(0.391347 0.249815 0)
(0.39528 0.263469 0)
(0.396348 0.28125 0)
(0.387115 0.316004 0)
(0.370162 0.431648 0)
(0.326099 0.519652 0)
(0.344363 0.506331 0)
(0.197441 0.475022 0)
(0.0749204 0.385408 0)
(0.0356432 0.274699 0)
(0.0118046 0.217976 0)
(-0.00248358 0.460913 0)
(0.0349638 0.626146 0)
(4.21971e-05 0.667644 0)
(-0.0379626 0.693994 0)
(-0.0602255 0.710824 0)
(-0.0742315 0.80364 0)
(-0.0749591 1.03153 0)
(-0.030516 1.2677 0)
(0.0880295 1.12583 0)
(0.175485 0.802982 0)
(0.195099 0.590229 0)
(0.210358 0.5144 0)
(0.253337 0.461614 0)
(0.339828 0.381431 0)
(0.376321 0.300478 0)
(0.384091 0.247489 0)
(0.391786 0.228559 0)
(0.400872 0.227374 0)
(0.411147 0.232509 0)
(0.421269 0.241757 0)
(0.431117 0.254267 0)
(0.438788 0.27542 0)
(0.450667 0.342737 0)
(0.460164 0.474516 0)
(0.423714 0.51702 0)
(0.412445 0.551474 0)
(0.246884 0.560912 0)
(0.220952 0.437405 0)
(0.138861 0.332912 0)
(0.0524353 0.263944 0)
(-0.00820922 0.442577 0)
(0.0119112 0.62869 0)
(0.0298483 0.674057 0)
(0.0465273 0.696111 0)
(0.0535239 0.720062 0)
(0.039225 0.815278 0)
(0.0290449 1.01002 0)
(0.078231 1.17496 0)
(0.164905 0.98989 0)
(0.209237 0.73534 0)
(0.230035 0.604593 0)
(0.233848 0.512167 0)
(0.254741 0.417597 0)
(0.305219 0.327983 0)
(0.360543 0.26932 0)
(0.383008 0.232496 0)
(0.397877 0.217585 0)
(0.412866 0.216595 0)
(0.427386 0.220539 0)
(0.440643 0.228218 0)
(0.453151 0.239769 0)
(0.465976 0.266321 0)
(0.496014 0.349416 0)
(0.509213 0.442635 0)
(0.523651 0.524608 0)
(0.551421 0.594854 0)
(0.513206 0.589899 0)
(0.436497 0.489804 0)
(0.324532 0.413187 0)
(0.140955 0.360721 0)
(-0.00658091 0.438753 0)
(0.0189728 0.584853 0)
(0.0823926 0.630005 0)
(0.123555 0.668437 0)
(0.127172 0.72958 0)
(0.104489 0.835321 0)
(0.0942168 0.992907 0)
(0.136889 1.08549 0)
(0.189793 0.916201 0)
(0.212754 0.732312 0)
(0.229963 0.613962 0)
(0.247074 0.503647 0)
(0.267818 0.38392 0)
(0.298541 0.282655 0)
(0.343487 0.230799 0)
(0.374756 0.208145 0)
(0.3969 0.200279 0)
(0.417093 0.200578 0)
(0.434356 0.205259 0)
(0.448253 0.212724 0)
(0.460121 0.224964 0)
(0.479574 0.257355 0)
(0.512225 0.313167 0)
(0.545968 0.403719 0)
(0.608588 0.49616 0)
(0.672618 0.573742 0)
(0.696283 0.552903 0)
(0.620678 0.544167 0)
(0.516037 0.563002 0)
(0.280967 0.659056 0)
(0.00982608 0.430347 0)
(0.05389 0.515093 0)
(0.110821 0.580753 0)
(0.125138 0.655451 0)
(0.109903 0.74816 0)
(0.0894859 0.852193 0)
(0.0926331 0.970216 0)
(0.133601 1.04053 0)
(0.177148 0.903628 0)
(0.191923 0.72282 0)
(0.213026 0.595387 0)
(0.24179 0.482628 0)
(0.275289 0.357747 0)
(0.297467 0.24717 0)
(0.33214 0.195504 0)
(0.364927 0.180085 0)
(0.392288 0.177907 0)
(0.416214 0.180885 0)
(0.434456 0.188406 0)
(0.44714 0.19827 0)
(0.45846 0.212483 0)
(0.481218 0.23407 0)
(0.516272 0.291676 0)
(0.57606 0.363607 0)
(0.621467 0.420387 0)
(0.65005 0.453194 0)
(0.658859 0.589589 0)
(0.609947 0.792064 0)
(0.421852 1.05435 0)
(0.17723 1.2799 0)
(0.0278048 0.399971 0)
(0.0719637 0.467191 0)
(0.0976582 0.55765 0)
(0.08653 0.671525 0)
(0.0491554 0.779512 0)
(0.0261345 0.869087 0)
(0.0357705 0.948576 0)
(0.0813633 1.00231 0)
(0.144221 0.88417 0)
(0.161635 0.706512 0)
(0.185938 0.563685 0)
(0.226511 0.445519 0)
(0.271426 0.334372 0)
(0.294809 0.216809 0)
(0.323892 0.162111 0)
(0.357267 0.150266 0)
(0.387562 0.15252 0)
(0.412587 0.159207 0)
(0.430388 0.171765 0)
(0.441472 0.18652 0)
(0.453363 0.201626 0)
(0.481238 0.220436 0)
(0.527917 0.257477 0)
(0.556408 0.237389 0)
(0.586045 0.341493 0)
(0.63014 0.647742 0)
(0.554463 0.925328 0)
(0.38849 1.09527 0)
(0.197079 1.24811 0)
(0.0539768 1.44953 0)
(0.0325498 0.352976 0)
(0.0887403 0.422824 0)
(0.112083 0.556572 0)
(0.0555957 0.722653 0)
(-0.0450228 0.839051 0)
(-0.0694578 0.878514 0)
(-0.038965 0.912428 0)
(0.0326656 0.937296 0)
(0.111848 0.868951 0)
(0.12743 0.698723 0)
(0.139934 0.522465 0)
(0.195326 0.390821 0)
(0.25448 0.311374 0)
(0.29214 0.190045 0)
(0.317603 0.128485 0)
(0.351902 0.119929 0)
(0.382505 0.126476 0)
(0.406325 0.137352 0)
(0.422783 0.156481 0)
(0.433426 0.177271 0)
(0.453228 0.187177 0)
(0.511258 0.190729 0)
(0.548039 0.101958 0)
(0.68403 0.355323 0)
(0.676624 0.628896 0)
(0.568025 0.754884 0)
(0.44926 0.893464 0)
(0.313175 1.05992 0)
(0.168859 1.22369 0)
(0.0522127 1.36693 0)
(0.0410721 0.289917 0)
(0.119456 0.357868 0)
(0.143807 0.584921 0)
(0.0491667 0.806094 0)
(-0.0970587 0.832329 0)
(-0.138489 0.84065 0)
(-0.0866695 0.847164 0)
(0.00692698 0.837432 0)
(0.049886 0.800537 0)
(0.109694 0.731931 0)
(0.087426 0.483941 0)
(0.126163 0.334854 0)
(0.188251 0.304261 0)
(0.293606 0.156968 0)
(0.312331 0.0914158 0)
(0.344661 0.089733 0)
(0.373028 0.101213 0)
(0.395308 0.116458 0)
(0.410491 0.141573 0)
(0.427807 0.165851 0)
(0.505976 0.162422 0)
(0.593131 0.0401686 0)
(0.794321 0.266114 0)
(0.726543 0.362438 0)
(0.648378 0.487167 0)
(0.569117 0.693928 0)
(0.464806 0.932987 0)
(0.337808 1.15254 0)
(0.198309 1.32283 0)
(0.0655207 1.42936 0)
(0.0571254 0.205978 0)
(0.149285 0.300441 0)
(0.180796 0.545405 0)
(0.0433389 1.10833 0)
(-0.0919981 1.12497 0)
(-0.146398 0.876245 0)
(-0.148933 0.722698 0)
(-0.130692 0.712726 0)
(-0.179417 0.800839 0)
(-0.221888 0.636813 0)
(-0.0464861 0.435116 0)
(0.0626514 0.228854 0)
(0.0990198 0.117476 0)
(0.250686 0.0812758 0)
(0.288134 0.0460239 0)
(0.32408 0.0586812 0)
(0.355231 0.0760225 0)
(0.376761 0.0958133 0)
(0.389687 0.127278 0)
(0.457782 0.138802 0)
(0.557875 -0.0560798 0)
(0.802365 0.086092 0)