/*--------------------------------*- C++ -*----------------------------------*\
| =========                 |                                                 |
| \\      /  F ield         | OpenFOAM: The Open Source CFD Toolbox           |
|  \\    /   O peration     | Version:  2.3.0                                 |
|   \\  /    A nd           | Web:      www.OpenFOAM.org                      |
|    \\/     M anipulation  |                                                 |
\*---------------------------------------------------------------------------*/
FoamFile
{
    version     2.0;
    format      ascii;
    class       volScalarField;
    location    "0.6";
    object      k.air;
}
// * * * * * * * * * * * * * * * * * * * * * * * * * * * * * * * * * * * * * //

dimensions      [0 2 -2 0 0 0 0];

internalField   nonuniform List<scalar> 
6000
(
0.812677
0.918392
0.957232
0.973988
0.97413
0.971063
0.976531
0.987556
0.988507
0.983518
0.984224
0.982227
0.975072
0.972344
0.980598
1.00013
1.01834
1.02233
1.02201
1.0305
1.01064
0.976267
0.962549
0.960535
0.958302
0.951222
0.937782
0.920296
0.899374
0.810714
0.612568
0.911448
1.01087
1.04379
1.04318
1.04944
1.07374
1.11635
1.14655
1.14168
1.12895
1.10592
1.082
1.07056
1.07995
1.11833
1.18104
1.23107
1.24066
1.22828
1.14388
1.06079
1.02739
1.0295
1.031
1.01914
0.987983
0.936396
0.864516
0.628694
0.53004
0.860231
0.974731
1.02546
1.05993
1.10457
1.13915
1.16269
1.18009
1.17416
1.16062
1.15057
1.1446
1.14127
1.14185
1.15861
1.1957
1.22957
1.23578
1.2164
1.16117
1.09453
1.05416
1.03125
1.02137
1.00818
0.97655
0.913678
0.803567
0.516752
0.4999
0.836185
0.954872
1.02423
1.07669
1.12817
1.17292
1.2072
1.22061
1.22287
1.21564
1.20846
1.20543
1.20244
1.20175
1.20792
1.21473
1.21968
1.21168
1.19186
1.15611
1.10559
1.05461
1.02446
1.00836
0.987205
0.940941
0.854995
0.717741
0.41416
0.436551
0.779285
0.910786
1.00181
1.0706
1.12615
1.19131
1.23416
1.24219
1.25048
1.26022
1.26811
1.26793
1.26311
1.25341
1.23376
1.21593
1.20151
1.18513
1.16489
1.13415
1.09475
1.04339
1.001
0.976826
0.944368
0.881334
0.781052
0.633518
0.33496
0.385402
0.715558
0.856968
0.958093
1.04032
1.11905
1.21771
1.25956
1.27139
1.28857
1.31135
1.32492
1.32255
1.31598
1.30282
1.27222
1.23163
1.19869
1.17051
1.1433
1.1114
1.06958
1.01612
0.96606
0.927408
0.881824
0.810571
0.713795
0.576659
0.296767
0.356169
0.667755
0.809495
0.914694
1.01109
1.11851
1.24535
1.30716
1.32758
1.35673
1.39034
1.40365
1.39223
1.38273
1.36704
1.32356
1.26392
1.21387
1.17487
1.13844
1.09923
1.05138
0.993168
0.936484
0.883959
0.821983
0.741776
0.645534
0.521938
0.272881
0.337435
0.628642
0.767948
0.87905
0.996302
1.12981
1.28176
1.38039
1.42752
1.47001
1.5058
1.51368
1.49102
1.46957
1.44258
1.3886
1.31488
1.24966
1.19641
1.14892
1.10085
1.04576
0.984294
0.921501
0.853299
0.777187
0.687389
0.58324
0.459836
0.240199
0.316712
0.587071
0.727134
0.854151
0.996618
1.15902
1.34108
1.48058
1.57
1.63219
1.66395
1.65966
1.6126
1.5723
1.52841
1.46262
1.37948
1.30126
1.23468
1.17537
1.1176
1.05878
0.994967
0.920405
0.841477
0.756217
0.658036
0.540103
0.392463
0.20024
0.285664
0.531911
0.688445
0.842137
1.01199
1.20669
1.42082
1.61212
1.74782
1.83335
1.86386
1.83245
1.74913
1.68637
1.62492
1.54051
1.44949
1.36305
1.28786
1.22081
1.15871
1.09855
1.02085
0.935551
0.847996
0.757526
0.653789
0.525069
0.354051
0.167862
0.245617
0.467695
0.659905
0.845338
1.04433
1.26834
1.51894
1.77646
1.94547
2.05921
2.10829
2.03549
1.91271
1.82092
1.73702
1.62548
1.5292
1.4415
1.36252
1.29321
1.23267
1.15514
1.06323
0.96806
0.873638
0.776277
0.666703
0.533235
0.356431
0.15986
0.209091
0.428003
0.653669
0.864022
1.08906
1.33986
1.62563
1.93761
2.14884
2.28526
2.39466
2.28084
2.11417
1.98432
1.86876
1.72821
1.63068
1.54435
1.46673
1.40205
1.32696
1.22514
1.12417
1.02422
0.922526
0.815521
0.697619
0.559946
0.38189
0.165894
0.192501
0.42771
0.670366
0.900854
1.14445
1.41666
1.72871
2.0798
2.35695
2.49382
2.70321
2.57197
2.36142
2.18796
2.03092
1.86224
1.76216
1.68099
1.6135
1.53865
1.42396
1.31781
1.21562
1.10827
0.99495
0.875003
0.746413
0.603611
0.428544
0.187541
0.193996
0.450955
0.712068
0.954495
1.21119
1.49988
1.83134
2.21111
2.54311
2.67342
2.99151
2.91058
2.66327
2.44244
2.23987
2.04374
1.94247
1.87698
1.79513
1.66377
1.54712
1.44476
1.33837
1.22017
1.09157
0.955474
0.81274
0.659639
0.478552
0.215435
0.207564
0.503084
0.773574
1.02437
1.29036
1.58956
1.93219
2.3243
2.69102
2.8438
3.22951
3.3229
3.04005
2.74311
2.49548
2.29416
2.20687
2.11681
1.95841
1.816
1.70195
1.60079
1.49254
1.36156
1.21337
1.05672
0.895663
0.726781
0.530551
0.240282
0.23923
0.567827
0.849783
1.10867
1.38099
1.68477
2.03153
2.42747
2.83508
3.08152
3.48281
3.89584
3.53559
3.0929
2.80343
2.61878
2.51037
2.33197
2.14359
1.99455
1.88129
1.78657
1.68508
1.53672
1.36029
1.17686
0.992988
0.803625
0.585414
0.263781
0.277067
0.643963
0.938683
1.20601
1.48262
1.78416
2.1248
2.51536
2.95967
3.38719
3.80649
4.60118
4.15994
3.51355
3.18554
2.9845
2.78304
2.5494
2.34628
2.19206
2.08114
2.00171
1.91994
1.74804
1.5296
1.31117
1.10065
0.887939
0.644045
0.287551
0.317455
0.728671
1.03938
1.31749
1.59704
1.88646
2.20698
2.57896
3.02635
3.53821
4.03895
4.79224
4.68942
3.94425
3.58763
3.30627
3.02101
2.76289
2.55506
2.39963
2.28895
2.20868
2.1367
1.96111
1.7048
1.45056
1.21304
0.976542
0.706038
0.312721
0.356728
0.81678
1.14981
1.44601
1.73902
1.99305
2.27768
2.62842
3.05677
3.55044
4.06931
4.58077
4.85946
4.24809
3.86511
3.52047
3.20874
2.95364
2.75501
2.60145
2.469
2.37487
2.25495
2.11104
1.85777
1.58215
1.32506
1.06666
0.769809
0.339218
0.391759
0.900013
1.26783
1.59074
1.85936
2.08989
2.34048
2.66524
3.07923
3.5642
4.03282
4.40032
4.70432
4.37691
3.98751
3.6405
3.34595
3.11301
2.93635
2.77443
2.6373
2.46961
2.29494
2.15574
1.97069
1.71128
1.4361
1.15892
0.833696
0.365177
0.418588
0.972154
1.38519
1.71077
1.94118
2.13698
2.3824
2.69906
3.09687
3.54008
3.94762
4.26857
4.45105
4.40542
4.04744
3.71858
3.449
3.24397
3.08382
2.95266
2.75165
2.51369
2.32827
2.16763
2.03624
1.82434
1.5546
1.25285
0.897631
0.388754
0.436543
1.02802
1.4288
1.75414
1.93702
2.11849
2.35472
2.65864
3.02423
3.42707
3.80353
4.08148
4.23175
4.40981
4.13104
3.79375
3.53641
3.35198
3.21216
3.08158
2.81405
2.55975
2.35434
2.18394
2.03146
1.88758
1.66386
1.33564
0.96169
0.410681
0.446459
1.01432
1.43637
1.7596
1.93674
2.10185
2.31339
2.57898
2.89364
3.23559
3.5636
3.83224
4.02714
4.2788
4.22651
3.87823
3.6132
3.4329
3.31319
3.16661
2.87524
2.60787
2.38514
2.20049
2.03643
1.88278
1.72423
1.40143
0.983194
0.425804
0.462722
1.04804
1.46378
1.78788
1.95414
2.08927
2.2652
2.48653
2.74686
3.03222
3.31567
3.5769
3.80728
4.0614
4.27188
3.98727
3.70638
3.52055
3.42163
3.25484
2.93472
2.65768
2.4198
2.21722
2.04002
1.8753
1.70354
1.43077
1.01458
0.443551
0.489749
1.09995
1.50181
1.84421
1.99862
2.08798
2.2234
2.40053
2.61434
2.85335
3.10148
3.34791
3.59106
3.85255
4.14344
4.07318
3.80018
3.6127
3.5217
3.34256
2.99006
2.70159
2.45103
2.23539
2.04867
1.87842
1.71444
1.46954
1.0892
0.487618
0.502828
1.12734
1.53
1.8826
2.06194
2.10961
2.19946
2.33422
2.50696
2.7084
2.92682
3.15715
3.39986
3.66703
3.96225
4.09084
3.86949
3.68491
3.60748
3.41514
3.03512
2.73438
2.47529
2.25529
2.06747
1.89984
1.75144
1.53051
1.15756
0.525488
0.511192
1.14491
1.54544
1.89777
2.13292
2.15953
2.20071
2.29237
2.42806
2.59667
2.78927
3.00294
3.2408
3.50899
3.81167
4.05179
3.90648
3.73219
3.67049
3.45241
3.0646
2.76042
2.49847
2.27888
2.09757
1.94084
1.80821
1.58554
1.21288
0.553415
0.517531
1.15354
1.54842
1.89327
2.17773
2.22721
2.22345
2.27509
2.37561
2.51445
2.68314
2.87988
3.10823
3.37212
3.67305
3.9632
3.90653
3.75304
3.71135
3.45324
3.07643
2.78071
2.52127
2.30586
2.13515
1.99462
1.87013
1.62974
1.25479
0.575708
0.525289
1.15438
1.53988
1.87391
2.18546
2.30301
2.26697
2.27927
2.34566
2.45718
2.604
2.78361
2.99894
3.25236
3.54481
3.84323
3.8653
3.7561
3.72103
3.4272
3.07472
2.79503
2.5423
2.33695
2.18016
2.05702
1.92428
1.66213
1.28635
0.592164
0.528568
1.14767
1.51928
1.83911
2.15408
2.36117
2.31908
2.29668
2.33435
2.42111
2.54831
2.71189
2.91238
3.15186
3.43035
3.72148
3.7916
3.74978
3.69079
3.37544
3.06532
2.80561
2.56715
2.37313
2.23169
2.12359
1.96394
1.68286
1.30831
0.604533
0.518441
1.12994
1.48671
1.79035
2.09113
2.3551
2.36535
2.31999
2.335
2.40153
2.51211
2.66087
2.84708
3.07091
3.33121
3.60863
3.71085
3.7621
3.63737
3.32395
3.05776
2.81298
2.59545
2.41518
2.28924
2.18376
1.98046
1.69134
1.31902
0.611019
0.500407
1.10104
1.4441
1.73131
2.01161
2.28901
2.39081
2.34025
2.34075
2.39405
2.49182
2.62749
2.80003
3.00648
3.24409
3.50732
3.65553
3.78899
3.59932
3.29758
3.06099
2.82201
2.62114
2.45973
2.34687
2.21698
1.97749
1.68886
1.31794
0.610917
0.482478
1.06617
1.39628
1.66822
1.92806
2.18931
2.36976
2.34676
2.34679
2.39506
2.48449
2.60934
2.76854
2.95642
3.17071
3.42607
3.64285
3.80001
3.58264
3.30286
3.07435
2.83947
2.65093
2.50847
2.39787
2.21839
1.96415
1.67752
1.30769
0.606086
0.466536
1.03109
1.34792
1.60515
1.84574
2.08175
2.28428
2.33018
2.34908
2.40142
2.48671
2.60264
2.74843
2.91695
3.11316
3.37775
3.68208
3.78326
3.58343
3.34021
3.10125
2.86976
2.69138
2.56167
2.42405
2.20137
1.94495
1.65899
1.29037
0.596348
0.453067
0.998971
1.30289
1.54639
1.77014
1.98449
2.17694
2.28352
2.3411
2.40838
2.49508
2.60086
2.7309
2.88099
3.07033
3.36298
3.73246
3.76234
3.60234
3.41705
3.16317
2.92443
2.75059
2.60991
2.41756
2.17667
1.92126
1.63638
1.2698
0.584902
0.441792
0.970994
1.26324
1.4947
1.70464
1.90356
2.08309
2.21014
2.30299
2.39385
2.49389
2.60324
2.71739
2.84627
3.03429
3.34364
3.68787
3.71664
3.62477
3.52588
3.26692
3.00655
2.81997
2.63201
2.3968
2.15202
1.89773
1.61506
1.25176
0.575906
0.432518
0.947713
1.23001
1.45122
1.64956
1.83572
2.00462
2.1353
2.24162
2.34705
2.46126
2.59073
2.71547
2.82952
3.00577
3.29885
3.56848
3.62942
3.62491
3.636
3.39679
3.10603
2.87765
2.63363
2.38024
2.1333
1.87975
1.59962
1.23966
0.57093
0.425529
0.930202
1.2045
1.41733
1.60624
1.78181
1.94198
2.07499
2.18852
2.29821
2.4163
2.55547
2.70616
2.82776
2.98989
3.25023
3.44596
3.53352
3.59511
3.67859
3.5178
3.19833
2.91891
2.63968
2.3763
2.12452
1.87057
1.59258
1.23471
0.568368
0.421718
0.920033
1.18866
1.39507
1.57712
1.74533
1.89999
2.03646
2.15619
2.26815
2.38601
2.52194
2.67821
2.82372
2.98741
3.20954
3.34744
3.45264
3.55631
3.68862
3.60567
3.26401
2.95132
2.65486
2.382
2.1256
1.87085
1.59454
1.23881
0.570543
0.420057
0.920729
1.18502
1.38672
1.56481
1.73009
1.88396
2.0244
2.14816
2.26201
2.3784
2.50741
2.6532
2.81451
2.99189
3.17054
3.2806
3.40134
3.5423
3.72036
3.66151
3.30392
2.9759
2.67214
2.39446
2.13408
1.87863
1.60674
1.2571
0.579608
0.419389
0.933993
1.19631
1.3927
1.57014
1.73775
1.896
2.04134
2.1695
2.28607
2.4002
2.52065
2.65398
2.81247
2.99482
3.13355
3.2391
3.37373
3.54502
3.74837
3.6639
3.31094
2.98625
2.68657
2.40858
2.14498
1.88796
1.61824
1.26683
0.611489
0.420871
0.93939
1.21943
1.41041
1.5913
1.76804
1.9379
2.09421
2.23176
2.35266
2.46291
2.5709
2.68732
2.82554
2.9936
3.11501
3.21411
3.34966
3.536
3.7436
3.61715
3.29683
2.99114
2.70041
2.42299
2.15315
1.88976
1.589
1.26721
0.60639
0.421548
0.937787
1.21097
1.42218
1.61985
1.81638
2.00868
2.1874
2.34337
2.47201
2.57795
2.66806
2.75252
2.85445
2.99661
3.11865
3.20518
3.32015
3.48788
3.64595
3.53142
3.28928
3.01347
2.72894
2.44667
2.16152
1.88082
1.58144
1.23171
0.582195
0.442325
0.930304
1.21662
1.41996
1.64623
1.87306
2.10299
2.32192
2.51308
2.65645
2.74949
2.80285
2.83358
2.89569
3.00956
3.13585
3.22372
3.3131
3.42325
3.51559
3.49833
3.34484
3.08654
2.79146
2.48639
2.21109
1.89322
1.54144
1.12722
0.501271
0.451091
0.933117
1.21036
1.43159
1.66749
1.93154
2.21474
2.50041
2.75889
2.93391
2.98508
2.94968
2.92522
2.95344
3.03757
3.15591
3.26445
3.3544
3.43487
3.5412
3.63403
3.54065
3.25854
2.89634
2.57724
2.23596
1.84749
1.43582
0.986958
0.402474
0.438105
0.919831
1.18931
1.43582
1.67467
1.98015
2.32666
2.71124
3.09584
3.32886
3.26073
3.11125
3.03386
3.02803
3.08207
3.17704
3.2911
3.40723
3.52689
3.70628
3.98017
3.97727
3.5398
3.00597
2.5521
2.13983
1.7452
1.35735
0.941337
0.383368
0.408538
0.882208
1.17015
1.42972
1.69826
1.99035
2.38232
2.90471
3.45497
3.76233
3.5878
3.31383
3.16012
3.10414
3.12231
3.19208
3.29883
3.4478
3.65365
3.93377
4.35504
4.3424
3.66144
2.96308
2.45567
2.05381
1.70228
1.34989
0.96403
0.420074
0.364218
0.823383
1.14677
1.42807
1.70345
2.00854
2.39667
2.95218
3.62997
3.92876
3.75847
3.49909
3.29235
3.17445
3.14449
3.18549
3.28889
3.46245
3.70356
3.96307
4.17764
4.12682
3.51422
2.88464
2.41458
2.03556
1.70697
1.36554
0.984702
0.434991
0.339488
0.79411
1.13389
1.42817
1.71421
2.01891
2.38691
2.88232
3.50564
3.75058
3.63336
3.48955
3.33978
3.21687
3.16307
3.18017
3.26888
3.42457
3.61435
3.72268
3.75781
3.70275
3.33146
2.81476
2.39484
2.04037
1.71729
1.37039
0.989306
0.425279
0.361864
0.829263
1.15973
1.45102
1.73654
2.03796
2.3851
2.82998
3.3749
3.55375
3.45315
3.34744
3.24954
3.17605
3.1362
3.14342
3.19597
3.28398
3.37555
3.44241
3.46323
3.43749
3.22409
2.76197
2.37871
2.04188
1.70632
1.35116
0.970268
0.411684
0.405066
0.883128
1.21094
1.50381
1.79089
2.08648
2.41498
2.82546
3.3143
3.41865
3.3204
3.21941
3.12837
3.05678
3.01842
3.01777
3.05499
3.11817
3.18457
3.23644
3.26513
3.27619
3.18235
2.7415
2.36844
2.02778
1.67623
1.3177
0.938521
0.401244
0.410564
0.910809
1.2403
1.54208
1.84392
2.15066
2.47463
2.86796
3.29648
3.31144
3.20071
3.09211
2.99585
2.92311
2.8816
2.87577
2.90141
2.94928
3.00389
3.06023
3.11488
3.1827
3.19133
2.76724
2.37561
2.01119
1.64721
1.28646
0.907164
0.381661
0.397702
0.90659
1.24926
1.55987
1.88087
2.21734
2.56347
2.96571
3.32539
3.21277
3.08094
2.96095
2.85826
2.78197
2.73791
2.72624
2.7439
2.78309
2.83593
2.9032
2.99235
3.12145
3.25736
2.84807
2.41167
2.01346
1.63615
1.26934
0.886279
0.367272
0.379521
0.886317
1.25319
1.57708
1.9168
2.28754
2.68587
3.12825
3.36025
3.12604
2.96859
2.83447
2.72525
2.64667
2.60013
2.5847
2.5969
2.63203
2.68618
2.76541
2.88543
3.0718
3.32974
2.95521
2.46727
2.03604
1.64539
1.27138
0.881976
0.357943
0.39078
0.894738
1.27044
1.61073
1.96764
2.37271
2.836
3.30938
3.30051
3.03656
2.85841
2.71311
2.60074
2.52111
2.47353
2.4554
2.46421
2.49703
2.55311
2.6397
2.77799
2.99441
3.31791
3.03832
2.51966
2.06836
1.66895
1.2929
0.904247
0.360699
0.445082
0.963543
1.32874
1.66728
2.03531
2.46318
2.98228
3.35577
3.17121
2.93277
2.74452
2.59622
2.48386
2.40525
2.3572
2.33775
2.34405
2.37521
2.43147
2.52093
2.66253
2.88192
3.20076
3.06984
2.56292
2.10389
1.699
1.31877
0.922622
0.366526
0.47293
1.03309
1.39078
1.73372
2.10337
2.53612
3.06375
3.25462
3.04425
2.81495
2.62842
2.48224
2.3729
2.29611
2.2489
2.22859
2.23341
2.26271
2.31806
2.40581
2.54207
2.74615
3.03176
3.06087
2.60812
2.14368
1.73333
1.3483
0.939905
0.378483
0.460956
1.0651
1.43603
1.78361
2.14483
2.55616
3.03012
3.1199
2.9087
2.69099
2.51077
2.37074
2.26576
2.19195
2.14602
2.12561
2.12921
2.15676
2.20996
2.29427
2.42087
2.60594
2.85421
3.00134
2.65367
2.18974
1.77215
1.38335
0.972406
0.398651
0.461232
1.06744
1.45188
1.80246
2.15415
2.54179
2.95653
2.99264
2.77528
2.56582
2.39462
2.26174
2.16215
2.0917
2.04757
2.02735
2.02992
2.05521
2.10564
2.18487
2.30174
2.46779
2.68565
2.87565
2.69375
2.2489
1.8126
1.4169
1.00694
0.419393
0.487957
1.07553
1.44482
1.78598
2.12763
2.49486
2.88059
2.87974
2.64957
2.44624
2.28276
2.15677
2.06233
1.99552
1.95315
1.93339
1.93473
1.95768
2.0045
2.07843
2.18534
2.33405
2.52156
2.70732
2.70498
2.29011
1.83793
1.43539
1.02499
0.430853
0.495371
1.07913
1.42968
1.75115
2.0797
2.43346
2.80709
2.78189
2.53847
2.33608
2.17796
2.05719
1.96733
1.90359
1.86316
1.8436
1.84411
1.8649
1.90832
1.97661
2.07444
2.20657
2.36696
2.52453
2.58487
2.25863
1.83996
1.44097
1.01865
0.434613
0.475027
1.0639
1.41051
1.71402
2.03066
2.37446
2.74874
2.70653
2.44297
2.23814
2.082
1.96483
1.87821
1.81714
1.77822
1.75919
1.75917
1.77864
1.81901
1.88234
1.97169
2.08989
2.22788
2.36905
2.43391
2.21099
1.82262
1.44464
1.03737
0.473442
0.446386
1.02621
1.37438
1.67514
1.97833
2.31406
2.69542
2.64419
2.36307
2.1523
1.99608
1.88042
1.79608
1.73687
1.69937
1.68097
1.681
1.69951
1.73763
1.79698
1.88037
1.99006
2.1224
2.27225
2.36392
2.17609
1.83153
1.48737
1.10221
0.504834
0.420398
0.980205
1.32492
1.62799
1.92466
2.25555
2.64248
2.58934
2.29289
2.07679
1.91903
1.80387
1.72069
1.66303
1.62662
1.60907
1.60926
1.62741
1.66414
1.72147
1.80247
1.91199
2.05453
2.24411
2.37913
2.16335
1.82174
1.49632
1.11837
0.510209
0.400352
0.936082
1.27324
1.57651
1.87375
2.2044
2.5953
2.53352
2.22969
2.0088
1.84949
1.73401
1.65171
1.5951
1.55984
1.54307
1.54383
1.56203
1.59865
1.65624
1.73935
1.85569
2.01924
2.25043
2.40838
2.13854
1.793
1.4724
1.10668
0.497935
0.382392
0.895747
1.22416
1.52521
1.82554
2.16133
2.55498
2.48751
2.17281
1.94727
1.78595
1.67028
1.58848
1.53289
1.49857
1.48281
1.4843
1.50321
1.54083
1.6009
1.6896
1.81833
2.00656
2.27944
2.43531
2.10752
1.76191
1.44131
1.08272
0.482376
0.365549
0.858799
1.17879
1.47609
1.77947
2.12485
2.52024
2.43903
2.11893
1.88995
1.7274
1.61154
1.53034
1.47561
1.44239
1.42771
1.43036
1.45054
1.49028
1.55444
1.65135
1.79523
2.00985
2.32497
2.4546
2.07683
1.72857
1.40546
1.05248
0.464355
0.349936
0.826082
1.13835
1.43154
1.73743
2.08907
2.48016
2.38897
2.06527
1.83488
1.67187
1.55653
1.47613
1.42263
1.39066
1.37744
1.3816
1.40368
1.44622
1.51564
1.622
1.78225
2.02281
2.38118
2.46112
2.04561
1.69314
1.36834
1.02115
0.448359
0.336999
0.796019
1.1021
1.39256
1.69979
2.05356
2.43176
2.31838
2.00513
1.77865
1.61774
1.50403
1.42528
1.37338
1.34312
1.3316
1.33762
1.36191
1.40781
1.48278
1.59889
1.77443
2.03771
2.42569
2.45519
2.01208
1.65466
1.33176
0.993308
0.439555
0.323397
0.768139
1.06868
1.35826
1.66771
2.02456
2.38115
2.23701
1.93912
1.72049
1.56398
1.45355
1.3772
1.32744
1.29911
1.28949
1.29744
1.32419
1.37372
1.45431
1.57914
1.76797
2.04882
2.4563
2.43681
1.97665
1.61578
1.29643
0.969482
0.44134
0.311716
0.740793
1.03903
1.32877
1.6435
2.00821
2.33737
2.14611
1.86778
1.65979
1.51029
1.40439
1.33128
1.28391
1.25766
1.24987
1.25993
1.28917
1.34263
1.42832
1.56021
1.75799
2.04757
2.45436
2.39607
1.93842
1.58039
1.26733
0.950332
0.442567
0.298465
0.715987
1.0146
1.30691
1.62881
2.00093
2.28792
2.057
1.79408
1.59783
1.45655
1.35615
1.28664
1.24188
1.21764
1.2117
1.22354
1.25547
1.31275
1.40337
1.54023
1.74321
2.03606
2.43647
2.3495
1.90008
1.55105
1.2478
0.934603
0.422805
0.286824
0.695389
0.99575
1.29341
1.62509
1.9905
2.20236
1.95968
1.71766
1.53546
1.40342
1.30875
1.24313
1.20094
1.17874
1.17435
1.18789
1.22233
1.28337
1.37788
1.51796
1.72137
2.00993
2.39219
2.29223
1.86049
1.52336
1.22833
0.908975
0.394504
0.270616
0.679047
0.982384
1.28256
1.62081
1.96592
2.0802
1.85821
1.64183
1.47495
1.35188
1.26309
1.20124
1.16163
1.14122
1.13822
1.1533
1.19016
1.25431
1.35184
1.49273
1.69301
1.97285
2.33956
2.2386
1.82503
1.49438
1.19586
0.870856
0.367127
0.259042
0.67871
0.976219
1.2687
1.60086
1.9191
1.9603
1.76112
1.5709
1.41846
1.30365
1.22016
1.16191
1.1246
1.10599
1.10454
1.12155
1.16025
1.22602
1.32472
1.4646
1.65906
1.92731
2.27022
2.18491
1.78974
1.45752
1.15222
0.828296
0.347928
0.282614
0.684533
0.972834
1.24999
1.55541
1.85724
1.85676
1.67933
1.50904
1.36851
1.26034
1.1814
1.1262
1.09124
1.07446
1.07495
1.09358
1.1332
1.19881
1.29677
1.43373
1.62108
1.87534
2.19501
2.13027
1.75144
1.41314
1.10601
0.788164
0.331255
0.300456
0.700084
0.963445
1.22861
1.50782
1.77772
1.77293
1.61611
1.45942
1.32679
1.22382
1.1484
1.0958
1.06282
1.04771
1.04954
1.06914
1.10886
1.17334
1.26855
1.40112
1.5798
1.8172
2.10864
2.07481
1.70887
1.36577
1.06173
0.753326
0.314793
0.304969
0.707516
0.958529
1.20531
1.47412
1.72001
1.72466
1.57871
1.42437
1.29517
1.19537
1.12221
1.07102
1.03936
1.02523
1.02791
1.04784
1.08727
1.14994
1.24137
1.36774
1.53682
1.75519
2.01718
2.00444
1.65761
1.31569
1.01818
0.721436
0.301032
0.303071
0.697232
0.946334
1.18481
1.44485
1.6852
1.71766
1.56639
1.40612
1.27465
1.17528
1.10231
1.05159
1.0204
1.00673
1.00964
1.0295
1.06805
1.1287
1.21606
1.33568
1.49411
1.69344
1.92276
1.91833
1.59268
1.26062
0.973488
0.686938
0.284639
0.297049
0.678896
0.922379
1.15239
1.39903
1.64314
1.72811
1.57297
1.40163
1.26486
1.16269
1.08846
1.03712
1.00567
0.991758
0.994302
1.01355
1.05106
1.10971
1.19345
1.30678
1.45528
1.63677
1.83461
1.81667
1.50623
1.20202
0.931308
0.656429
0.26707
0.287481
0.657807
0.894894
1.11473
1.34912
1.59272
1.73421
1.58962
1.40628
1.26342
1.1567
1.07984
1.02708
0.994495
0.979811
0.981567
1
1.03646
1.09339
1.17421
1.28296
1.42397
1.59312
1.75747
1.71449
1.43387
1.15278
0.897888
0.638788
0.271341
0.275876
0.637767
0.86918
1.08
1.30338
1.54326
1.72738
1.61696
1.41981
1.26841
1.15634
1.07572
1.02069
0.986473
0.970648
0.971472
0.989016
1.02448
1.08012
1.15904
1.26532
1.40295
1.56784
1.71646
1.62928
1.37146
1.12071
0.889664
0.649956
0.28643
0.269108
0.621964
0.847032
1.0498
1.26379
1.49802
1.70734
1.65037
1.44198
1.28042
1.16052
1.07573
1.01776
0.981595
0.964383
0.964092
0.980684
1.01526
1.07007
1.14824
1.25425
1.39226
1.56177
1.69009
1.55016
1.30335
1.0745
0.864109
0.64207
0.282998
0.267604
0.610508
0.82775
1.02306
1.22845
1.45604
1.68033
1.6874
1.47042
1.29745
1.16937
1.07898
1.01817
0.980007
0.961273
0.959727
0.97527
1.00896
1.06328
1.14155
1.24893
1.38967
1.56395
1.65246
1.46772
1.23386
1.02114
0.825876
0.618509
0.273369
0.267205
0.601263
0.809925
0.997261
1.1936
1.41211
1.64116
1.71276
1.50026
1.31648
1.18078
1.08543
1.02144
0.981422
0.961618
0.959033
0.973451
1.0061
1.05971
1.13822
1.24791
1.39308
1.57018
1.59218
1.38344
1.16376
0.967028
0.784476
0.588282
0.261756
0.266223
0.59357
0.794243
0.973125
1.15905
1.36522
1.58999
1.71337
1.52119
1.33263
1.19234
1.09375
1.02788
0.986332
0.965404
0.962024
0.975573
1.00723
1.05961
1.13706
1.24728
1.39475
1.5671
1.51126
1.29703
1.09475
0.914217
0.743796
0.557179
0.249829
0.265562
0.588602
0.782808
0.953743
1.12878
1.32011
1.53188
1.68685
1.52769
1.34154
1.20196
1.103
1.03717
0.995749
0.974591
0.970729
0.983273
1.01326
1.06307
1.13705
1.24307
1.38515
1.53514
1.4173
1.21356
1.03062
0.865679
0.706997
0.529651
0.236932
0.266313
0.5881
0.77756
0.941408
1.10601
1.28291
1.47958
1.64552
1.51934
1.34085
1.20728
1.11187
1.04862
1.00917
0.989736
0.98694
0.999341
1.02735
1.07276
1.13873
1.2324
1.35798
1.46414
1.32439
1.13977
0.974981
0.823882
0.67567
0.506725
0.225979
0.269146
0.592217
0.778816
0.936666
1.09208
1.25663
1.44071
1.60681
1.50268
1.33384
1.20761
1.11841
1.06003
1.02476
1.00921
1.00928
1.02318
1.05004
1.08978
1.14386
1.21838
1.32103
1.38804
1.24517
1.07919
0.929865
0.790403
0.651374
0.490309
0.21929
0.275298
0.602355
0.786344
0.938094
1.08493
1.23884
1.41261
1.57295
1.47958
1.31857
1.20196
1.11986
1.06748
1.03828
1.02755
1.03239
1.04981
1.07707
1.11061
1.15114
1.20198
1.27829
1.31738
1.18148
1.03135
0.89462
0.765382
0.635359
0.482348
0.218052
0.286769
0.620736
0.800894
0.944455
1.08108
1.2236
1.38608
1.53582
1.44924
1.29672
1.18861
1.11417
1.06694
1.04263
1.03631
1.04604
1.06807
1.09742
1.12552
1.15288
1.18097
1.22945
1.25397
1.13005
0.99263
0.866772
0.7477
0.627655
0.483691
0.220603
0.302637
0.650078
0.82401
0.955928
1.07797
1.20348
1.34695
1.47845
1.40327
1.26695
1.16828
1.10038
1.05778
1.03629
1.03277
1.04284
1.06232
1.08907
1.11734
1.14358
1.15601
1.17877
1.19511
1.08623
0.959394
0.843594
0.735063
0.626789
0.494478
0.232049
0.33248
0.693485
0.856421
0.971488
1.07439
1.1767
1.29135
1.39792
1.34393
1.23464
1.14604
1.08212
1.04053
1.02208
1.01755
1.01738
1.02444
1.04246
1.07313
1.11143
1.12962
1.13002
1.13381
1.0464
0.929253
0.822137
0.723337
0.628039
0.518522
0.266504
0.395908
0.760555
0.892968
0.986115
1.06845
1.14674
1.23121
1.31268
1.2893
1.20985
1.12997
1.06597
1.02274
1.00132
0.983326
0.969255
0.964943
0.975426
1.00452
1.05093
1.09178
1.08932
1.07338
1.00847
0.901779
0.800054
0.708702
0.624346
0.533607
0.296197
0.470644
0.817353
0.919377
0.990573
1.05584
1.11778
1.18518
1.25342
1.26632
1.20882
1.12814
1.05503
1.00542
0.971905
0.941515
0.917746
0.905998
0.910274
0.933004
0.976087
1.02839
1.04719
1.02198
0.967923
0.874568
0.778046
0.689525
0.61333
0.543234
0.302933
0.51964
0.866951
0.9273
0.98301
1.03804
1.0968
1.16004
1.22156
1.25185
1.21524
1.13291
1.04709
0.989488
0.945328
0.903337
0.87116
0.852976
0.849934
0.862785
0.894229
0.940945
0.976282
0.966876
0.920861
0.844647
0.749717
0.660805
0.596437
0.544473
0.288533
0.505183
0.904926
0.935232
0.975073
1.02428
1.08435
1.14479
1.18732
1.20448
1.1838
1.11933
1.03315
0.975979
0.923912
0.870561
0.830091
0.804643
0.792979
0.795023
0.812257
0.84352
0.876763
0.886892
0.860435
0.802859
0.723033
0.63516
0.566759
0.497583
0.263276
0.451835
0.856577
0.948751
0.966339
1.01381
1.06742
1.11485
1.13497
1.13505
1.1182
1.07877
1.01074
0.958832
0.900339
0.838491
0.790799
0.757928
0.738079
0.730369
0.734578
0.74925
0.768515
0.780694
0.772099
0.735524
0.670002
0.578119
0.485707
0.409933
0.233474
0.400531
0.745597
0.884107
0.949595
0.994854
1.04179
1.07113
1.08003
1.07105
1.05351
1.02836
0.980921
0.931489
0.867007
0.801254
0.749019
0.710746
0.684716
0.669405
0.663276
0.664206
0.668263
0.669265
0.659762
0.6308
0.572197
0.48194
0.385469
0.317602
0.189894
0.36202
0.646536
0.768115
0.877403
0.964482
1.01582
1.03628
1.0356
1.01778
0.995911
0.975444
0.939491
0.888069
0.820749
0.75588
0.703072
0.662579
0.63283
0.612122
0.598523
0.589477
0.581582
0.57062
0.551519
0.517538
0.460844
0.378678
0.28362
0.211106
0.14371
0.315736
0.549827
0.656445
0.763075
0.88113
0.976981
1.01405
1.0108
0.978324
0.943865
0.919255
0.883261
0.828746
0.76428
0.704327
0.654253
0.614192
0.582873
0.55873
0.539946
0.524141
0.508234
0.488655
0.461593
0.422407
0.366012
0.28947
0.195817
0.128855
0.104968
0.265735
0.444899
0.54252
0.639369
0.75543
0.873024
0.958073
0.987361
0.954831
0.898738
0.861013
0.820321
0.764608
0.705427
0.651428
0.605392
0.5672
0.535791
0.509817
0.487714
0.4675
0.446615
0.422047
0.390619
0.349049
0.294049
0.222897
0.134525
0.0840522
0.0772095
0.215213
0.33902
0.424708
0.514101
0.623556
0.737732
0.838469
0.917247
0.918316
0.863747
0.804817
0.759898
0.70442
0.649989
0.601217
0.559156
0.523281
0.492605
0.465985
0.442115
0.419389
0.395772
0.368842
0.336023
0.294842
0.243122
0.178953
0.100285
0.0594732
0.0597973
0.16838
0.235747
0.309687
0.402065
0.50986
0.618205
0.71714
0.79718
0.832884
0.816346
0.748353
0.701279
0.649072
0.599618
0.555536
0.51706
0.48351
0.453991
0.427564
0.40318
0.379543
0.355026
0.3277
0.295523
0.256658
0.209748
0.153966
0.0885117
0.0481679
0.0483512
0.128421
0.151996
0.211116
0.312982
0.421699
0.523047
0.615026
0.691429
0.732812
0.735072
0.684974
0.642018
0.597252
0.55395
0.514545
0.479454
0.448236
0.420188
0.394603
0.37071
0.347482
0.323579
0.297398
0.267289
0.231882
0.190404
0.142753
0.0889346
0.047037
0.0394909
0.0969129
0.0976788
0.142862
0.250012
0.357369
0.451606
0.532554
0.601931
0.644228
0.653304
0.620902
0.585162
0.548779
0.512149
0.477625
0.446063
0.417387
0.391184
0.367043
0.344471
0.32269
0.300564
0.276679
0.249596
0.218216
0.182088
0.141432
0.0945966
0.0506722
0.035848
0.0738308
0.0657266
0.108625
0.213253
0.312599
0.398362
0.469653
0.529632
0.575769
0.588717
0.565452
0.534542
0.504003
0.473717
0.444238
0.416541
0.390856
0.366997
0.344878
0.324311
0.304726
0.285146
0.264292
0.240784
0.213611
0.18212
0.145868
0.10669
0.0634972
0.0366293
0.0574934
0.0529809
0.10126
0.194953
0.281832
0.357238
0.419463
0.472506
0.517849
0.535818
0.518547
0.490235
0.463542
0.438513
0.414083
0.390679
0.36861
0.347724
0.328195
0.310129
0.29316
0.276502
0.259005
0.239276
0.215591
0.187849
0.157078
0.12297
0.0835025
0.0414018
0.0461194
0.0522668
0.105469
0.188177
0.262244
0.326513
0.378899
0.424721
0.465785
0.485263
0.474888
0.451198
0.428152
0.407364
0.387583
0.368659
0.350811
0.333539
0.317034
0.30163
0.287325
0.273576
0.259177
0.242474
0.222922
0.200244
0.173994
0.143226
0.104708
0.0523342
0.0425838
0.0585917
0.119288
0.190216
0.25289
0.306487
0.349967
0.387454
0.420611
0.437855
0.43341
0.416803
0.398734
0.381763
0.365586
0.35086
0.337589
0.32448
0.311091
0.297922
0.286029
0.274695
0.262984
0.249903
0.234339
0.216493
0.19535
0.16818
0.1294
0.0635498
0.044665
0.0815304
0.14409
0.200783
0.253509
0.297698
0.33315
0.361675
0.38516
0.397941
0.397027
0.387051
0.374753
0.361464
0.347611
0.336499
0.328037
0.320133
0.309401
0.297583
0.287328
0.278632
0.27002
0.259696
0.247769
0.235551
0.221244
0.199825
0.162116
0.0790968
0.0548728
0.123268
0.179957
0.224294
0.263336
0.300024
0.327552
0.345764
0.359292
0.366759
0.366809
0.361675
0.355145
0.345796
0.33544
0.327534
0.322746
0.318208
0.309685
0.298684
0.289891
0.283874
0.278577
0.271633
0.263826
0.257581
0.251189
0.239183
0.209964
0.112673
0.0809365
0.182119
0.231102
0.261321
0.287788
0.313082
0.330385
0.337634
0.341537
0.343532
0.342749
0.340517
0.337766
0.333727
0.329152
0.324833
0.321919
0.318436
0.309218
0.299615
0.292261
0.288874
0.287619
0.285609
0.282331
0.280882
0.280334
0.278601
0.265789
0.153651
0.127287
0.256399
0.289731
0.308166
0.324122
0.336708
0.33985
0.335499
0.33082
0.327573
0.324637
0.322621
0.321403
0.322516
0.324583
0.324383
0.322788
0.318383
0.308245
0.3003
0.294611
0.293509
0.295646
0.299447
0.300903
0.302504
0.304948
0.308206
0.314661
0.226783
0.196983
0.314316
0.340391
0.35297
0.358837
0.359736
0.350231
0.336534
0.325976
0.318625
0.313091
0.310321
0.30994
0.313408
0.319739
0.324101
0.324022
0.318485
0.30935
0.302689
0.298625
0.298654
0.302382
0.30933
0.314451
0.316827
0.324619
0.34256
0.395164
0.282583
0.290363
0.393463
0.379996
0.379686
0.379603
0.372538
0.35573
0.33829
0.325227
0.315319
0.308255
0.304575
0.304291
0.307416
0.31371
0.320947
0.321956
0.317244
0.311942
0.307603
0.305015
0.304665
0.307691
0.314067
0.319461
0.32665
0.343676
0.391978
0.414879
0.278312
0.296334
0.448022
0.436402
0.394582
0.382612
0.371776
0.353408
0.337098
0.324252
0.313405
0.305888
0.302744
0.301516
0.302954
0.307435
0.314187
0.315639
0.313052
0.312277
0.311994
0.310022
0.308125
0.308541
0.313057
0.318264
0.32925
0.352093
0.384747
0.385888
0.256504
0.279766
0.426721
0.43859
0.398073
0.368591
0.356571
0.341331
0.328595
0.317858
0.308984
0.300698
0.296047
0.294983
0.296601
0.299971
0.304897
0.305874
0.3052
0.3067
0.306344
0.305367
0.305376
0.306652
0.306653
0.311934
0.317294