/*--------------------------------*- C++ -*----------------------------------*\
| =========                 |                                                 |
| \\      /  F ield         | OpenFOAM: The Open Source CFD Toolbox           |
|  \\    /   O peration     | Version:  2.3.0                                 |
|   \\  /    A nd           | Web:      www.OpenFOAM.org                      |
|    \\/     M anipulation  |                                                 |
\*---------------------------------------------------------------------------*/
FoamFile
{
    version     2.0;
    format      ascii;
    class       volVectorField;
    location    "0.6";
    object      U.particlesMean;
}
// * * * * * * * * * * * * * * * * * * * * * * * * * * * * * * * * * * * * * //

dimensions      [0 1 -1 0 0 0 0];

internalField   nonuniform List<vector> 
6000
(
(0.00352761 -0.307846 0)
(0.0200924 -0.320389 0)
(0.0349362 -0.325692 0)
(0.0424551 -0.342706 0)
(0.0414951 -0.365589 0)
(0.0314488 -0.387691 0)
(0.0234578 -0.391635 0)
(0.0156296 -0.378677 0)
(0.0115831 -0.377661 0)
(0.0051788 -0.385183 0)
(0.00330734 -0.3929 0)
(0.00662947 -0.412146 0)
(0.00884883 -0.439951 0)
(0.00464116 -0.456714 0)
(0.000331798 -0.449959 0)
(-0.00684969 -0.466409 0)
(-0.0155311 -0.463106 0)
(-0.020984 -0.433028 0)
(-0.0264595 -0.397189 0)
(-0.0264179 -0.379418 0)
(-0.0234924 -0.372679 0)
(-0.0227308 -0.36957 0)
(-0.0244924 -0.385648 0)
(-0.0315618 -0.405099 0)
(-0.0438803 -0.392134 0)
(-0.0534701 -0.362237 0)
(-0.0518926 -0.340261 0)
(-0.0413229 -0.322278 0)
(-0.0238432 -0.317919 0)
(-0.0054437 -0.303977 0)
(0.0190547 -0.0345471 0)
(0.0405797 -0.0178906 0)
(0.0615478 -0.0134847 0)
(0.0735043 -0.00558725 0)
(0.0745692 -0.00130916 0)
(0.0641969 0.0080902 0)
(0.0479427 0.0104869 0)
(0.0246721 0.0191461 0)
(0.0105307 0.0164005 0)
(0.00151419 0.00214689 0)
(0.0054883 -0.0118653 0)
(0.0130232 0.0010785 0)
(0.0119944 0.00304091 0)
(0.00869798 -0.00661043 0)
(0.00028214 -0.0182785 0)
(-0.0161372 -0.0105074 0)
(-0.0229022 -0.00445896 0)
(-0.0275411 -0.00383794 0)
(-0.0234069 -0.018435 0)
(-0.0182853 -0.000874006 0)
(-0.016663 0.0288082 0)
(-0.0298978 0.0293147 0)
(-0.0462373 0.0148818 0)
(-0.064899 0.00862955 0)
(-0.0775744 0.00241185 0)
(-0.0851253 -0.00143392 0)
(-0.0780556 -0.00674266 0)
(-0.0640046 -0.0156351 0)
(-0.042383 -0.0212861 0)
(-0.0201704 -0.037136 0)
(0.00674922 -0.0958658 0)
(0.0370044 -0.10901 0)
(0.0606114 -0.0998354 0)
(0.0768573 -0.0738766 0)
(0.0834729 -0.0538734 0)
(0.0750823 -0.0329839 0)
(0.0567668 -0.0201839 0)
(0.0304403 -0.0171374 0)
(0.016965 -0.0280737 0)
(0.00950908 -0.049308 0)
(0.0119821 -0.0583208 0)
(0.0156912 -0.0597935 0)
(0.0198024 -0.0494699 0)
(0.0125427 -0.0345653 0)
(-0.00218906 -0.0421883 0)
(-0.0223804 -0.0361638 0)
(-0.0327111 -0.0443333 0)
(-0.0324875 -0.0616856 0)
(-0.0249607 -0.0635834 0)
(-0.0201255 -0.0564497 0)
(-0.0225728 -0.0399383 0)
(-0.0364921 -0.0164967 0)
(-0.0624501 -0.0171365 0)
(-0.0813634 -0.0250461 0)
(-0.0894685 -0.0416849 0)
(-0.0897697 -0.0616936 0)
(-0.0741561 -0.0835538 0)
(-0.0543237 -0.100713 0)
(-0.037512 -0.103703 0)
(-0.00691788 -0.0996455 0)
(0.00803349 -0.120111 0)
(0.0339794 -0.127249 0)
(0.0482047 -0.12034 0)
(0.0758476 -0.0982143 0)
(0.0870173 -0.0711039 0)
(0.0862042 -0.0430328 0)
(0.068549 -0.0195456 0)
(0.0465681 -0.0108089 0)
(0.0317789 -0.0151203 0)
(0.0219495 -0.0322932 0)
(0.0162618 -0.0424235 0)
(0.0138443 -0.0426157 0)
(0.0104894 -0.0328182 0)
(0.00756624 -0.0215371 0)
(-0.00537073 -0.0271263 0)
(-0.0217615 -0.0197175 0)
(-0.0279771 -0.0284005 0)
(-0.0265373 -0.0462297 0)
(-0.02673 -0.0473562 0)
(-0.0276869 -0.0372416 0)
(-0.0368741 -0.0201563 0)
(-0.0543967 -0.00437731 0)
(-0.0777333 -0.0146222 0)
(-0.0930524 -0.0306365 0)
(-0.0961871 -0.0556394 0)
(-0.0873125 -0.0860469 0)
(-0.068266 -0.112232 0)
(-0.0436896 -0.12523 0)
(-0.0343832 -0.12534 0)
(-0.0103636 -0.122505 0)
(0.00914552 -0.156079 0)
(0.0361143 -0.158666 0)
(0.0479804 -0.150512 0)
(0.072543 -0.124132 0)
(0.0832575 -0.0879537 0)
(0.0850446 -0.0476129 0)
(0.0707902 -0.0172126 0)
(0.0492939 -0.00745146 0)
(0.0292234 -0.0156748 0)
(0.0151856 -0.03593 0)
(0.0077237 -0.0448079 0)
(0.00086253 -0.0432777 0)
(-0.00218675 -0.0323407 0)
(-0.000116948 -0.0192131 0)
(-0.00716022 -0.022229 0)
(-0.0151929 -0.0130455 0)
(-0.0145453 -0.0225695 0)
(-0.016681 -0.0475326 0)
(-0.0183662 -0.0512344 0)
(-0.02139 -0.0443941 0)
(-0.0311168 -0.023233 0)
(-0.0503845 -0.00439004 0)
(-0.0738803 -0.0127791 0)
(-0.0900966 -0.03288 0)
(-0.0921802 -0.0657433 0)
(-0.0829903 -0.107464 0)
(-0.0691206 -0.136876 0)
(-0.0543709 -0.156438 0)
(-0.0370403 -0.158886 0)
(-0.00947792 -0.158036 0)
(0.0111376 -0.173768 0)
(0.0380551 -0.172727 0)
(0.0557722 -0.165919 0)
(0.0730154 -0.135686 0)
(0.0716751 -0.0939369 0)
(0.0699826 -0.0484454 0)
(0.0600244 -0.012549 0)
(0.0395428 -0.00163888 0)
(0.0180792 -0.00767033 0)
(0.00109778 -0.0290051 0)
(-0.00805838 -0.0366081 0)
(-0.0138919 -0.03443 0)
(-0.0129941 -0.0272997 0)
(-0.00832798 -0.0172349 0)
(-0.00786298 -0.0209684 0)
(-0.0078571 -0.0104307 0)
(0.001107 -0.0142584 0)
(-0.000385139 -0.0346992 0)
(-0.00290654 -0.0439262 0)
(-0.00923767 -0.0385809 0)
(-0.0185888 -0.0183083 0)
(-0.0390028 -0.000637109 0)
(-0.0628419 -0.00584346 0)
(-0.0798867 -0.0269064 0)
(-0.0818539 -0.0676637 0)
(-0.0779342 -0.113804 0)
(-0.0749858 -0.148093 0)
(-0.0595172 -0.171723 0)
(-0.0384725 -0.17575 0)
(-0.00998118 -0.17674 0)
(0.010415 -0.179186 0)
(0.0393717 -0.178298 0)
(0.0577574 -0.16777 0)
(0.0726676 -0.135316 0)
(0.0692915 -0.0921873 0)
(0.0587024 -0.039354 0)
(0.0452757 0.000793146 0)
(0.0241835 0.015247 0)
(0.00161594 0.0058512 0)
(-0.0163967 -0.0183523 0)
(-0.0242619 -0.0281612 0)
(-0.0264843 -0.0305897 0)
(-0.0201006 -0.027127 0)
(-0.013437 -0.0216416 0)
(-0.00876997 -0.0197804 0)
(-0.00460981 -0.0175338 0)
(0.00673234 -0.0154546 0)
(0.0136568 -0.0277392 0)
(0.0128043 -0.0344735 0)
(0.00573134 -0.0277858 0)
(-0.00688842 -0.0060357 0)
(-0.0298169 0.0116991 0)
(-0.0516926 0.00969737 0)
(-0.0683269 -0.0132719 0)
(-0.0716836 -0.0578153 0)
(-0.077107 -0.108414 0)
(-0.0737914 -0.146389 0)
(-0.0583494 -0.174943 0)
(-0.0391058 -0.183064 0)
(-0.00778758 -0.182425 0)
(0.0118222 -0.180647 0)
(0.0380318 -0.178269 0)
(0.0558665 -0.162999 0)
(0.0666362 -0.127592 0)
(0.0695295 -0.0840488 0)
(0.0566683 -0.0216214 0)
(0.0380603 0.0233965 0)
(0.0111463 0.0409612 0)
(-0.0104187 0.0245511 0)
(-0.0271117 -0.00457873 0)
(-0.0364862 -0.0181627 0)
(-0.0310826 -0.0260027 0)
(-0.0239929 -0.0263843 0)
(-0.0163513 -0.0206312 0)
(-0.0105266 -0.018366 0)
(-0.00477649 -0.0164255 0)
(0.00449225 -0.018328 0)
(0.0202812 -0.0231857 0)
(0.0239476 -0.0260363 0)
(0.0158847 -0.0154259 0)
(0.00350118 0.0096963 0)
(-0.017996 0.0290611 0)
(-0.0405147 0.0279381 0)
(-0.0598529 0.00393914 0)
(-0.0681916 -0.0434905 0)
(-0.0745383 -0.101704 0)
(-0.0681577 -0.140356 0)
(-0.0541075 -0.171721 0)
(-0.0362547 -0.18544 0)
(-0.00631341 -0.184218 0)
(0.00992741 -0.180452 0)
(0.0364748 -0.177891 0)
(0.0530478 -0.15742 0)
(0.0611729 -0.122487 0)
(0.0671724 -0.0709156 0)
(0.0498788 0.00124078 0)
(0.0328247 0.051922 0)
(-0.000928108 0.0663345 0)
(-0.0171985 0.0406895 0)
(-0.0307729 0.00609738 0)
(-0.0413643 -0.0128173 0)
(-0.0304456 -0.0248778 0)
(-0.0259657 -0.0289439 0)
(-0.0181454 -0.0250054 0)
(-0.0113673 -0.0214969 0)
(-0.00523691 -0.0199065 0)
(0.00342793 -0.0201248 0)
(0.0172383 -0.0224225 0)
(0.0265416 -0.0229144 0)
(0.0198063 -0.00855666 0)
(0.00945705 0.021112 0)
(-0.0057287 0.046669 0)
(-0.0310905 0.0504375 0)
(-0.0576798 0.0225506 0)
(-0.0634642 -0.0290211 0)
(-0.0716889 -0.0958683 0)
(-0.0623073 -0.1373 0)
(-0.0505182 -0.170658 0)
(-0.0341381 -0.188805 0)
(-0.00105509 -0.184173 0)
(0.00723753 -0.180147 0)
(0.0321933 -0.17729 0)
(0.0455059 -0.150563 0)
(0.0534008 -0.113509 0)
(0.0589889 -0.0609366 0)
(0.0576019 0.0117568 0)
(0.0421287 0.0628756 0)
(0.00464158 0.0811177 0)
(-0.0106209 0.0571884 0)
(-0.0231502 0.0195296 0)
(-0.0344887 -0.0100931 0)
(-0.0276551 -0.0229796 0)
(-0.0244785 -0.0307859 0)
(-0.0188175 -0.028617 0)
(-0.0131125 -0.0248272 0)
(-0.00824098 -0.0219914 0)
(-0.000359461 -0.0229848 0)
(0.0142233 -0.0234301 0)
(0.0210964 -0.0200537 0)
(0.0116945 0.00165388 0)
(0.00290407 0.0337746 0)
(-0.014334 0.061593 0)
(-0.036023 0.0609275 0)
(-0.0566563 0.0350148 0)
(-0.0644118 -0.0165281 0)
(-0.065212 -0.087473 0)
(-0.0557601 -0.135688 0)
(-0.0432286 -0.168401 0)
(-0.0304692 -0.190891 0)
(0.00330885 -0.183813 0)
(0.00313777 -0.180699 0)
(0.0256606 -0.179142 0)
(0.0365551 -0.147479 0)
(0.0465357 -0.107261 0)
(0.05484 -0.0512832 0)
(0.055594 0.01798 0)
(0.0507135 0.0734354 0)
(0.02977 0.0915475 0)
(0.0125118 0.0739632 0)
(0.001294 0.0385045 0)
(-0.0166577 0.000885215 0)
(-0.0218112 -0.0196129 0)
(-0.0214534 -0.0288902 0)
(-0.0189744 -0.0294965 0)
(-0.0153577 -0.0258544 0)
(-0.0111696 -0.0223569 0)
(-0.00377442 -0.0234646 0)
(0.00825569 -0.0214485 0)
(0.00634385 -0.00854526 0)
(-0.0111209 0.0193891 0)
(-0.0282352 0.0501991 0)
(-0.0462661 0.0651018 0)
(-0.0518362 0.0608983 0)
(-0.0596489 0.038454 0)
(-0.0626596 -0.0117654 0)
(-0.0600073 -0.0816487 0)
(-0.0492063 -0.135841 0)
(-0.0353198 -0.167871 0)
(-0.0242503 -0.191639 0)
(0.0082011 -0.182743 0)
(-0.000405214 -0.181675 0)
(0.0182382 -0.182488 0)
(0.026622 -0.145997 0)
(0.0395002 -0.10284 0)
(0.0496407 -0.0515925 0)
(0.0577049 0.0107223 0)
(0.0618987 0.0613198 0)
(0.0561838 0.0887576 0)
(0.0380513 0.0857019 0)
(0.027289 0.0558286 0)
(0.00710566 0.0128281 0)
(-0.0117363 -0.0117634 0)
(-0.0163854 -0.0227129 0)
(-0.0176429 -0.0266955 0)
(-0.0167904 -0.0248755 0)
(-0.0127428 -0.0211513 0)
(-0.00445692 -0.020607 0)
(-0.000231538 -0.01279 0)
(-0.0088766 0.00558258 0)
(-0.0370918 0.036298 0)
(-0.0588047 0.0580091 0)
(-0.067797 0.0554339 0)
(-0.0716499 0.0468511 0)
(-0.0736451 0.0268183 0)
(-0.067141 -0.0199715 0)
(-0.0556109 -0.0823474 0)
(-0.0441076 -0.134159 0)
(-0.027189 -0.166705 0)
(-0.0174186 -0.19378 0)
(0.0131788 -0.180183 0)
(-0.00429138 -0.181149 0)
(0.0119766 -0.186427 0)
(0.0185433 -0.148596 0)
(0.033406 -0.105264 0)
(0.0428611 -0.0578062 0)
(0.0586612 -0.00110851 0)
(0.0684604 0.0479468 0)
(0.0700552 0.0745796 0)
(0.0587058 0.0874555 0)
(0.0464824 0.066569 0)
(0.0330518 0.0223495 0)
(0.000466894 -0.00271318 0)
(-0.011235 -0.0146548 0)
(-0.0148274 -0.0210071 0)
(-0.0164881 -0.0231543 0)
(-0.0111159 -0.0195458 0)
(-0.00623664 -0.0134499 0)
(-0.00686244 -0.00252764 0)
(-0.0252077 0.0203819 0)
(-0.0595976 0.0441506 0)
(-0.0713097 0.0513587 0)
(-0.080829 0.0436376 0)
(-0.0861815 0.0342804 0)
(-0.0828836 0.0136499 0)
(-0.0690667 -0.0291712 0)
(-0.0527333 -0.0849156 0)
(-0.0394903 -0.133896 0)
(-0.0201332 -0.167207 0)
(-0.0114579 -0.196129 0)
(0.0148025 -0.174277 0)
(-0.00606385 -0.178974 0)
(0.00793449 -0.188404 0)
(0.0112801 -0.153231 0)
(0.0257579 -0.110607 0)
(0.0391298 -0.0657775 0)
(0.057458 -0.013822 0)
(0.0703528 0.0357315 0)
(0.0741026 0.062307 0)
(0.0702096 0.0773248 0)
(0.0607803 0.07074 0)
(0.0509626 0.0300754 0)
(0.0116929 0.00698865 0)
(-0.00528835 -0.00663234 0)
(-0.0106581 -0.0157227 0)
(-0.0134725 -0.0214188 0)
(-0.00933515 -0.0150958 0)
(-0.00707503 -0.00573352 0)
(-0.0131454 0.00961607 0)
(-0.0457718 0.0315393 0)
(-0.0685304 0.0445262 0)
(-0.0760523 0.0446682 0)
(-0.0863171 0.0367113 0)
(-0.0899751 0.0269463 0)
(-0.085907 0.00299816 0)
(-0.0656647 -0.0380348 0)
(-0.0478163 -0.0907737 0)
(-0.0331844 -0.135608 0)
(-0.0131933 -0.170116 0)
(-0.00580271 -0.195343 0)
(0.00937835 -0.170329 0)
(-0.00517232 -0.177307 0)
(0.00357037 -0.190598 0)
(0.00511278 -0.159604 0)
(0.0191608 -0.119059 0)
(0.0399356 -0.0751899 0)
(0.0558129 -0.0267469 0)
(0.0706691 0.0249788 0)
(0.0743699 0.0530821 0)
(0.0734584 0.0637198 0)
(0.069508 0.0678675 0)
(0.0619029 0.0344461 0)
(0.0307774 0.0121926 0)
(0.00396335 -0.000395805 0)
(-0.0051842 -0.0104753 0)
(-0.00863535 -0.0166677 0)
(-0.00831832 -0.00833887 0)
(-0.0070903 0.00237759 0)
(-0.0201723 0.0209808 0)
(-0.0570799 0.0373793 0)
(-0.0727424 0.0412616 0)
(-0.078835 0.0411688 0)
(-0.0862067 0.0324004 0)
(-0.090632 0.0229441 0)
(-0.08455 -0.00442098 0)
(-0.0628162 -0.0490694 0)
(-0.0412916 -0.0987396 0)
(-0.0267726 -0.139588 0)
(-0.00582032 -0.17485 0)
(-0.0021101 -0.194289 0)
(0.00559948 -0.168693 0)
(-0.00408242 -0.175732 0)
(-0.000563554 -0.192955 0)
(3.82281e-05 -0.164556 0)
(0.0131717 -0.127896 0)
(0.0364851 -0.0795418 0)
(0.053935 -0.0375662 0)
(0.0679694 0.0160528 0)
(0.0736161 0.0454074 0)
(0.0744474 0.0519633 0)
(0.0740958 0.0585563 0)
(0.0708918 0.0374421 0)
(0.0568946 0.0118755 0)
(0.016306 0.00278803 0)
(0.00077308 -0.00479339 0)
(-0.00227656 -0.00844794 0)
(-0.00671917 -0.000441346 0)
(-0.0111094 0.0103752 0)
(-0.0345011 0.0284751 0)
(-0.0632357 0.0389382 0)
(-0.0750177 0.0392946 0)
(-0.0796973 0.0383877 0)
(-0.0847913 0.030439 0)
(-0.0867128 0.0232145 0)
(-0.0793209 -0.0054009 0)
(-0.0567086 -0.0587923 0)
(-0.035954 -0.104383 0)
(-0.0186747 -0.143922 0)
(-0.00239238 -0.175262 0)
(-0.00406846 -0.192772 0)
(0.00080046 -0.165295 0)
(-0.00827561 -0.178014 0)
(-0.00395269 -0.193907 0)
(-0.00355293 -0.169952 0)
(0.00579076 -0.136702 0)
(0.0290562 -0.0855659 0)
(0.0479859 -0.0473764 0)
(0.0640905 0.00828653 0)
(0.0713581 0.0382799 0)
(0.0737711 0.0427614 0)
(0.0744617 0.0453988 0)
(0.0741953 0.0356568 0)
(0.0652713 0.0158824 0)
(0.0349224 0.00559844 0)
(0.0055645 0.00129215 0)
(0.00251004 0.0015865 0)
(-0.0048506 0.0100053 0)
(-0.0154729 0.0180977 0)
(-0.0422162 0.0340028 0)
(-0.0636622 0.0416065 0)
(-0.0737468 0.039056 0)
(-0.0779461 0.0357549 0)
(-0.0818638 0.030184 0)
(-0.0815347 0.0246473 0)
(-0.069345 -0.00506925 0)
(-0.0469306 -0.0656694 0)
(-0.028666 -0.105759 0)
(-0.0107333 -0.146584 0)
(-0.00053293 -0.176806 0)
(-0.00702049 -0.194656 0)
(-0.00826793 -0.168329 0)
(-0.0145809 -0.174155 0)
(-0.00531047 -0.191253 0)
(-0.00544954 -0.174804 0)
(0.000482794 -0.144817 0)
(0.0180446 -0.0938123 0)
(0.0405575 -0.056707 0)
(0.0578337 -0.000670449 0)
(0.0689086 0.0316427 0)
(0.0715991 0.0356757 0)
(0.0733344 0.0326683 0)
(0.0726729 0.0308021 0)
(0.0677138 0.0224212 0)
(0.0516608 0.01216 0)
(0.0127186 0.00848816 0)
(0.00540722 0.012438 0)
(-0.00330691 0.019442 0)
(-0.0167509 0.0264363 0)
(-0.0419833 0.0403569 0)
(-0.0590003 0.0470117 0)
(-0.0699469 0.0405212 0)
(-0.0750148 0.0340727 0)
(-0.0781224 0.0316199 0)
(-0.0752159 0.0253125 0)
(-0.0565089 -0.00542784 0)
(-0.0324944 -0.0737619 0)
(-0.0180446 -0.107036 0)
(-0.00332067 -0.148311 0)
(0.000635335 -0.179643 0)
(-0.00836062 -0.200233 0)
(-0.00859975 -0.17979 0)
(-0.0155715 -0.168952 0)
(-0.00477144 -0.188304 0)
(-0.00661675 -0.178636 0)
(-0.00447657 -0.153227 0)
(0.00586818 -0.102483 0)
(0.0329223 -0.0658428 0)
(0.0504027 -0.0104059 0)
(0.0652441 0.0251829 0)
(0.0690831 0.0307436 0)
(0.0714023 0.0233117 0)
(0.0698101 0.0250165 0)
(0.0678234 0.02557 0)
(0.0554947 0.0211533 0)
(0.0180414 0.0182503 0)
(0.00622975 0.022486 0)
(-0.00199195 0.0274094 0)
(-0.0104014 0.0341211 0)
(-0.0341456 0.0458597 0)
(-0.0515212 0.0538766 0)
(-0.0643648 0.0422714 0)
(-0.0702953 0.0344683 0)
(-0.0716197 0.0358659 0)
(-0.0656506 0.0307485 0)
(-0.0388106 -0.00706182 0)
(-0.0162333 -0.0863588 0)
(-0.00528325 -0.118855 0)
(0.00215421 -0.154416 0)
(-0.000152112 -0.186017 0)
(-0.00720783 -0.209795 0)
(-0.00234961 -0.190747 0)
(-0.0117486 -0.16299 0)
(-0.00424141 -0.182727 0)
(-0.00716427 -0.181215 0)
(-0.00776428 -0.161517 0)
(-0.00404252 -0.109741 0)
(0.0274054 -0.0715494 0)
(0.0418314 -0.0202626 0)
(0.0594547 0.0182188 0)
(0.0649812 0.0261563 0)
(0.0685394 0.0184756 0)
(0.0664501 0.0223347 0)
(0.0661211 0.0281554 0)
(0.0523343 0.0307446 0)
(0.0178258 0.0299652 0)
(0.00736084 0.0299871 0)
(0.00156614 0.0331372 0)
(-0.00572409 0.0393481 0)
(-0.0225989 0.0496056 0)
(-0.0424835 0.0606685 0)
(-0.055604 0.0469098 0)
(-0.0617161 0.0389238 0)
(-0.0599032 0.0478779 0)
(-0.0504482 0.0400402 0)
(-0.0151295 -0.0046057 0)
(-0.0022161 -0.0983945 0)
(0.00515659 -0.13613 0)
(0.00490147 -0.171365 0)
(0.00026522 -0.193905 0)
(-0.00589733 -0.215701 0)
(0.00907272 -0.203291 0)
(-0.00686005 -0.162012 0)
(0.00118311 -0.181166 0)
(-0.00375839 -0.184785 0)
(-0.00801755 -0.16616 0)
(-0.0113353 -0.108486 0)
(0.0155586 -0.0696746 0)
(0.0359514 -0.0204282 0)
(0.0509667 0.0190945 0)
(0.058115 0.0289185 0)
(0.0645553 0.0212671 0)
(0.063088 0.0254468 0)
(0.0639231 0.0329893 0)
(0.0496925 0.0401316 0)
(0.0196054 0.0381315 0)
(0.0094765 0.0363431 0)
(0.00511966 0.0379327 0)
(-0.000820584 0.0443777 0)
(-0.0126112 0.0533709 0)
(-0.0327737 0.0666214 0)
(-0.0441161 0.0568163 0)
(-0.0488804 0.051752 0)
(-0.0450098 0.0610753 0)
(-0.0363018 0.0504098 0)
(0.00393236 -0.00435902 0)
(0.00512108 -0.105201 0)
(0.0116628 -0.152366 0)
(0.00643798 -0.189194 0)
(0.00114401 -0.206917 0)
(-0.00144608 -0.217021 0)
(0.019986 -0.204875 0)
(-0.00260252 -0.162168 0)
(0.00656961 -0.185237 0)
(-0.00306083 -0.185734 0)
(-0.00687118 -0.166025 0)
(-0.0164407 -0.10517 0)
(0.0024875 -0.053911 0)
(0.026156 -0.0207579 0)
(0.0483239 0.029357 0)
(0.0482039 0.0385822 0)
(0.0556129 0.0315466 0)
(0.0548918 0.0333664 0)
(0.0576836 0.0402794 0)
(0.049064 0.0480672 0)
(0.0238197 0.0460859 0)
(0.0116072 0.0421956 0)
(0.00752733 0.0420446 0)
(0.00372502 0.046752 0)
(-0.00409818 0.0565005 0)
(-0.0227581 0.0720927 0)
(-0.0312471 0.0700908 0)
(-0.0364479 0.0652607 0)
(-0.0304404 0.0745119 0)
(-0.0220792 0.0605367 0)
(0.0119402 0.000410011 0)
(0.0037862 -0.10406 0)
(0.0142936 -0.153259 0)
(0.0072013 -0.19817 0)
(0.00275389 -0.213192 0)
(0.0032718 -0.209435 0)
(0.0174467 -0.200569 0)
(-0.00102068 -0.16737 0)
(0.00471528 -0.190397 0)
(-0.00562926 -0.181224 0)
(-0.0104198 -0.15723 0)
(-0.0223088 -0.0972963 0)
(-0.00789899 -0.0408631 0)
(0.0138024 -0.0114411 0)
(0.041451 0.0329364 0)
(0.0494792 0.0504286 0)
(0.0517035 0.0444653 0)
(0.0483158 0.0467923 0)
(0.0489898 0.0492306 0)
(0.0465116 0.0540442 0)
(0.0294144 0.0520365 0)
(0.014684 0.0463341 0)
(0.00992956 0.0446992 0)
(0.00563978 0.0488205 0)
(0.000595711 0.058392 0)
(-0.0130039 0.0779523 0)
(-0.0163677 0.0839642 0)
(-0.0230036 0.0790504 0)
(-0.0191002 0.0867957 0)
(-0.0094768 0.0707531 0)
(0.0158672 0.0149723 0)
(0.00568669 -0.0885106 0)
(0.0156556 -0.150213 0)
(0.00430851 -0.194541 0)
(-0.00039651 -0.209021 0)
(-0.000335688 -0.214509 0)
(0.0104219 -0.194154 0)
(-0.00532055 -0.169784 0)
(0.00108378 -0.19572 0)
(-0.0105085 -0.176715 0)
(-0.0134542 -0.147779 0)
(-0.0281846 -0.0901284 0)
(-0.0223194 -0.0277189 0)
(0.00263361 -0.00910657 0)
(0.029559 0.0343316 0)
(0.0447776 0.0572688 0)
(0.0493499 0.056883 0)
(0.0477815 0.0584262 0)
(0.0461972 0.0598034 0)
(0.0446635 0.0605355 0)
(0.0313516 0.0585738 0)
(0.0188708 0.0508681 0)
(0.0126651 0.0487778 0)
(0.00754494 0.0514826 0)
(0.00224599 0.060942 0)
(-0.00557723 0.0786804 0)
(-0.00422408 0.0931148 0)
(-0.00764529 0.09192 0)
(-0.00797677 0.102233 0)
(-0.00124674 0.0815425 0)
(0.0179353 0.0332405 0)
(0.0115371 -0.0694181 0)
(0.0177801 -0.144126 0)
(0.0066489 -0.184307 0)
(0.00309938 -0.20197 0)
(-0.00339683 -0.21531 0)
(0.00277631 -0.190206 0)
(-0.00662046 -0.167653 0)
(0.000314864 -0.196826 0)
(-0.0127291 -0.178154 0)
(-0.0173475 -0.13762 0)
(-0.036497 -0.0840818 0)
(-0.0369749 -0.019919 0)
(-0.00675864 -0.000341824 0)
(0.0178226 0.0356239 0)
(0.0382053 0.0602981 0)
(0.0471254 0.0662761 0)
(0.0488009 0.071341 0)
(0.0473273 0.0705514 0)
(0.0464051 0.0693109 0)
(0.0380429 0.0655077 0)
(0.0247938 0.0585075 0)
(0.0162667 0.0538918 0)
(0.0107268 0.0557521 0)
(0.00484049 0.0628183 0)
(-0.00121454 0.0787182 0)
(-0.000444232 0.0942985 0)
(0.0040044 0.102033 0)
(0.00584809 0.11849 0)
(0.00549974 0.0995971 0)
(0.0203974 0.0467433 0)
(0.0187202 -0.0534676 0)
(0.0238007 -0.133978 0)
(0.0130228 -0.178168 0)
(0.00939964 -0.202127 0)
(-0.00152973 -0.220633 0)
(0.00257913 -0.188925 0)
(-0.00899216 -0.165826 0)
(0.003445 -0.1981 0)
(-0.0121546 -0.171594 0)
(-0.0227342 -0.131119 0)
(-0.0410729 -0.0798315 0)
(-0.0459319 -0.0170867 0)
(-0.011886 0.0088425 0)
(0.00948135 0.0393827 0)
(0.0307299 0.0596646 0)
(0.044082 0.0725185 0)
(0.0480489 0.0805168 0)
(0.0481048 0.0820028 0)
(0.0478588 0.0784394 0)
(0.0454478 0.0729125 0)
(0.0339696 0.0656646 0)
(0.0209672 0.0605296 0)
(0.0147867 0.05976 0)
(0.00885976 0.0660875 0)
(0.00108979 0.0790923 0)
(-0.00161999 0.0955632 0)
(0.00759685 0.105558 0)
(0.0138834 0.128592 0)
(0.011256 0.116752 0)
(0.0224541 0.0604183 0)
(0.0229392 -0.0394544 0)
(0.0287459 -0.122924 0)
(0.018309 -0.169238 0)
(0.0155214 -0.205989 0)
(0.00141876 -0.221687 0)
(0.00501782 -0.185772 0)
(-0.0138578 -0.164475 0)
(0.00156486 -0.192612 0)
(-0.0119307 -0.158155 0)
(-0.026435 -0.122208 0)
(-0.0442258 -0.0754353 0)
(-0.048161 -0.0187962 0)
(-0.0193719 0.0145759 0)
(0.00359319 0.0387242 0)
(0.0223884 0.0608588 0)
(0.0386345 0.0762245 0)
(0.0459391 0.0881667 0)
(0.0479602 0.090394 0)
(0.0482086 0.0890718 0)
(0.0471501 0.0820203 0)
(0.040822 0.0753701 0)
(0.0273555 0.0687082 0)
(0.0173808 0.0667949 0)
(0.0111801 0.0694701 0)
(0.000716413 0.0821664 0)
(-0.00431616 0.0965311 0)
(0.00483796 0.10787 0)
(0.0152433 0.132334 0)
(0.0134161 0.12777 0)
(0.0254802 0.0757421 0)
(0.0297439 -0.026031 0)
(0.0326566 -0.11381 0)
(0.0224652 -0.16049 0)
(0.0161661 -0.200365 0)
(0.00187552 -0.225864 0)
(0.00612671 -0.183073 0)
(-0.0175816 -0.164846 0)
(0.00117919 -0.184679 0)
(-0.0140485 -0.139136 0)
(-0.0279168 -0.109861 0)
(-0.0446936 -0.069917 0)
(-0.0494522 -0.0213839 0)
(-0.0260962 0.0158993 0)
(-0.000347695 0.035057 0)
(0.0174053 0.060698 0)
(0.0326618 0.0774924 0)
(0.0428131 0.0923806 0)
(0.0470392 0.0974659 0)
(0.0476056 0.0958312 0)
(0.0466988 0.0917725 0)
(0.0419777 0.0838315 0)
(0.0314334 0.0787574 0)
(0.0188766 0.0752568 0)
(0.0106271 0.0765985 0)
(7.55636e-05 0.0843603 0)
(-0.00568032 0.0983357 0)
(-0.00135874 0.109404 0)
(0.0094538 0.133498 0)
(0.0110286 0.130325 0)
(0.0201189 0.074115 0)
(0.0360433 -0.0166592 0)
(0.0356114 -0.102695 0)
(0.0265612 -0.147463 0)
(0.0182097 -0.189421 0)
(0.00102647 -0.223219 0)
(0.00851176 -0.181579 0)
(-0.0158846 -0.162953 0)
(0.00329498 -0.176303 0)
(-0.0134666 -0.125808 0)
(-0.0251224 -0.0976922 0)
(-0.0420323 -0.0650265 0)
(-0.0484026 -0.0228544 0)
(-0.0295566 0.0151399 0)
(-0.00393824 0.031807 0)
(0.0136793 0.0564165 0)
(0.0267099 0.0764211 0)
(0.0379929 0.0940257 0)
(0.0451309 0.102827 0)
(0.0460201 0.103171 0)
(0.04397 0.098209 0)
(0.0383542 0.0931692 0)
(0.0293729 0.0883509 0)
(0.0184428 0.0867524 0)
(0.00763125 0.0856644 0)
(-0.00109624 0.090875 0)
(-0.00622342 0.101098 0)
(-0.00605602 0.11311 0)
(0.00540452 0.133075 0)
(0.00761886 0.123015 0)
(0.0106062 0.0642647 0)
(0.0389407 -0.0127869 0)
(0.0378594 -0.0942403 0)
(0.0304541 -0.133466 0)
(0.021091 -0.170922 0)
(0.00232443 -0.214114 0)
(0.0108312 -0.179247 0)
(-0.0165792 -0.158423 0)
(0.00288134 -0.163753 0)
(-0.0129517 -0.11084 0)
(-0.0197448 -0.0844783 0)
(-0.0348855 -0.0608305 0)
(-0.0431007 -0.0254441 0)
(-0.0310552 0.0152627 0)
(-0.0076109 0.0362032 0)
(0.00967421 0.0538833 0)
(0.0203581 0.0808856 0)
(0.0311678 0.0964095 0)
(0.039315 0.108758 0)
(0.0449576 0.110984 0)
(0.0436425 0.109432 0)
(0.0379258 0.10468 0)
(0.0287545 0.10131 0)
(0.0179077 0.0983033 0)
(0.00687628 0.0978563 0)
(-0.00239533 0.0996318 0)
(-0.00757193 0.109766 0)
(-0.00952027 0.118617 0)
(-0.000257568 0.133114 0)
(0.00025785 0.112042 0)
(0.0141156 0.0602488 0)
(0.0390484 -0.0128694 0)
(0.039591 -0.0865694 0)
(0.0330967 -0.118259 0)
(0.0229914 -0.154006 0)
(0.00244126 -0.201596 0)
(0.00981726 -0.174938 0)
(-0.0198314 -0.148788 0)
(-0.000325323 -0.149798 0)
(-0.0120128 -0.0960594 0)
(-0.0149088 -0.0706076 0)
(-0.0268279 -0.0549542 0)
(-0.0353045 -0.0290145 0)
(-0.0294711 0.0149462 0)
(-0.00773524 0.0379801 0)
(0.00696584 0.0552824 0)
(0.0165185 0.0820365 0)
(0.0255546 0.102876 0)
(0.031999 0.114806 0)
(0.0376085 0.121424 0)
(0.035901 0.117387 0)
(0.0308976 0.114717 0)
(0.0227025 0.111099 0)
(0.0126762 0.110347 0)
(0.00370219 0.108695 0)
(-0.00374345 0.112433 0)
(-0.00836831 0.119552 0)
(-0.0101535 0.126877 0)
(-0.00249521 0.133578 0)
(-0.00306741 0.103586 0)
(0.0213647 0.0577888 0)
(0.0417079 -0.0145043 0)
(0.0392101 -0.0796084 0)
(0.031886 -0.106295 0)
(0.020246 -0.140653 0)
(0.00154091 -0.191697 0)
(0.00851913 -0.172975 0)
(-0.0202208 -0.135768 0)
(-0.00454705 -0.134266 0)
(-0.0125832 -0.0819705 0)
(-0.0111849 -0.0565465 0)
(-0.0188838 -0.0480139 0)
(-0.02713 -0.0304979 0)
(-0.0262039 0.015369 0)
(-0.00674844 0.0410994 0)
(0.00602305 0.0567583 0)
(0.0141207 0.0836663 0)
(0.0215137 0.105362 0)
(0.0263292 0.120252 0)
(0.0313111 0.127921 0)
(0.0320802 0.129945 0)
(0.0245079 0.123975 0)
(0.0172207 0.121835 0)
(0.00838574 0.119987 0)
(0.00141703 0.119729 0)
(-0.00384771 0.121784 0)
(-0.00717068 0.129472 0)
(-0.00858977 0.133201 0)
(-0.00213276 0.134648 0)
(-0.000319432 0.0983823 0)
(0.0268156 0.0567703 0)
(0.045454 -0.0152315 0)
(0.0366654 -0.0728797 0)
(0.0285019 -0.0951952 0)
(0.0164075 -0.128108 0)
(0.000744184 -0.183183 0)
(0.0093969 -0.169317 0)
(-0.015442 -0.126119 0)
(-0.00805317 -0.11247 0)
(-0.013715 -0.066464 0)
(-0.0094056 -0.0430691 0)
(-0.0128504 -0.0398672 0)
(-0.0197252 -0.0303865 0)
(-0.0234288 0.0174172 0)
(-0.00752586 0.045817 0)
(0.00684881 0.059472 0)
(0.0127458 0.0856376 0)
(0.0182388 0.110497 0)
(0.0218999 0.123879 0)
(0.0255262 0.135256 0)
(0.0270199 0.137688 0)
(0.0190234 0.133581 0)
(0.0125034 0.130023 0)
(0.00460509 0.129677 0)
(-0.000521244 0.127744 0)
(-0.00371455 0.130915 0)
(-0.00513757 0.134816 0)
(-0.00558211 0.137272 0)
(-0.00019237 0.134704 0)
(0.005428 0.0993578 0)
(0.0312012 0.0551554 0)
(0.0447021 -0.0133797 0)
(0.0324687 -0.0660046 0)
(0.0237489 -0.0848716 0)
(0.0121162 -0.119171 0)
(0.000514712 -0.176103 0)
(0.0113104 -0.165377 0)
(-0.0119459 -0.121445 0)
(-0.00815418 -0.0955993 0)
(-0.0108611 -0.0570663 0)
(-0.00944713 -0.0314393 0)
(-0.00709129 -0.0325337 0)
(-0.0141771 -0.0278915 0)
(-0.0210741 0.0193235 0)
(-0.00737854 0.0504125 0)
(0.00694957 0.0612315 0)
(0.0118335 0.0885371 0)
(0.0158267 0.11354 0)
(0.0180612 0.130376 0)
(0.01995 0.140366 0)
(0.0213929 0.146218 0)
(0.0136936 0.141747 0)
(0.0067905 0.139216 0)
(0.000881498 0.137276 0)
(-0.00229621 0.136974 0)
(-0.00330702 0.137583 0)
(-0.0022317 0.141213 0)
(-0.00148676 0.142503 0)
(0.00130316 0.136613 0)
(0.0147962 0.0995578 0)
(0.0385908 0.0597502 0)
(0.0427633 -0.010383 0)
(0.0283879 -0.0587293 0)
(0.0188776 -0.0788703 0)
(0.00927635 -0.112753 0)
(0.00033606 -0.170039 0)
(0.01282 -0.161233 0)
(-0.00834198 -0.118841 0)
(-0.00628681 -0.084545 0)
(-0.00756479 -0.0496887 0)
(-0.00560805 -0.0294034 0)
(-0.00151415 -0.0301195 0)
(-0.00393976 -0.0271094 0)
(-0.0189413 0.0195386 0)
(-0.00499299 0.0529314 0)
(0.0066917 0.0672336 0)
(0.0110622 0.0906381 0)
(0.013575 0.11776 0)
(0.0150452 0.13479 0)
(0.0154169 0.14665 0)
(0.0161684 0.151635 0)
(0.010643 0.151195 0)
(0.00199659 0.146651 0)
(-0.00206394 0.146018 0)
(-0.00376345 0.144235 0)
(-0.00337271 0.145482 0)
(-0.00225179 0.147807 0)
(-0.00389076 0.145155 0)
(-0.0018252 0.120341 0)
(0.0216804 0.0902763 0)
(0.0438465 0.0618249 0)
(0.0405904 -0.00800792 0)
(0.0251721 -0.0506885 0)
(0.0157095 -0.0751587 0)
(0.00734612 -0.109957 0)
(0.000238543 -0.164273 0)
(0.0131966 -0.15894 0)
(-0.00609386 -0.121582 0)
(-0.00189823 -0.0858425 0)
(-0.00391826 -0.052238 0)
(0.00230108 -0.0360043 0)
(0.00766916 -0.0337246 0)
(0.00714351 -0.0316721 0)
(-0.0124372 0.0171354 0)
(-0.00422571 0.0579236 0)
(0.00501985 0.0734411 0)
(0.00880813 0.0948548 0)
(0.00975593 0.120615 0)
(0.0106078 0.140375 0)
(0.0106367 0.151221 0)
(0.0109219 0.157992 0)
(0.00732715 0.157472 0)
(-0.00196062 0.154621 0)
(-0.00433165 0.152501 0)
(-0.00479666 0.1524 0)
(-0.00365081 0.15218 0)
(-0.00322047 0.154667 0)
(-0.00199103 0.138517 0)
(0.00224889 0.106406 0)
(0.0232453 0.0837168 0)
(0.0458312 0.062495 0)
(0.0377515 -0.00670275 0)
(0.0230385 -0.045974 0)
(0.0128753 -0.075648 0)
(0.00624878 -0.110106 0)
(5.67366e-05 -0.15987 0)
(0.0126729 -0.157953 0)
(-0.00622179 -0.125495 0)
(0.00495764 -0.0955958 0)
(0.00997312 -0.0673122 0)
(0.0140297 -0.0454905 0)
(0.0178004 -0.0391152 0)
(0.0170359 -0.0354563 0)
(-0.00908028 0.0192478 0)
(-0.00191541 0.0606627 0)
(0.00360744 0.0789899 0)
(0.00598528 0.0983209 0)
(0.0055393 0.124487 0)
(0.00518381 0.143494 0)
(0.00502905 0.156855 0)
(0.00516392 0.162488 0)
(0.00293673 0.163935 0)
(-0.00529396 0.160546 0)
(-0.00624747 0.159774 0)
(-0.00552568 0.158501 0)
(-0.00377632 0.159948 0)
(-0.00294183 0.159249 0)
(0.00453393 0.133319 0)
(0.0133432 0.100536 0)
(0.0267406 0.0801955 0)
(0.0463122 0.060934 0)
(0.0360661 -0.00647782 0)
(0.0206132 -0.0474043 0)
(0.00931109 -0.0764996 0)
(0.00417873 -0.111298 0)
(-0.000273764 -0.160154 0)
(0.0131323 -0.159544 0)
(-0.00733032 -0.122753 0)
(0.0102419 -0.0993181 0)
(0.0139301 -0.0752729 0)
(0.0178143 -0.0530459 0)
(0.020841 -0.0429683 0)
(0.0212655 -0.035227 0)
(-0.00947708 0.0228225 0)
(-0.00349624 0.0658395 0)
(0.00107076 0.0833634 0)
(0.00251118 0.103038 0)
(0.000587351 0.126821 0)
(-0.000382564 0.147095 0)
(-0.00114777 0.160072 0)
(-0.00107379 0.167604 0)
(-0.00227333 0.168385 0)
(-0.00810836 0.166982 0)
(-0.00783117 0.165165 0)
(-0.00561667 0.16529 0)
(-0.00282603 0.164818 0)
(0.000542916 0.162199 0)
(0.0123001 0.124066 0)
(0.0220308 0.0987139 0)
(0.029904 0.079699 0)
(0.046093 0.057315 0)
(0.0331187 -0.00690337 0)
(0.0159437 -0.045404 0)
(0.00496934 -0.0756845 0)
(0.000731852 -0.113854 0)
(-0.00281162 -0.163609 0)
(0.0143955 -0.162813 0)
(-0.0101905 -0.114868 0)
(0.00558839 -0.0981186 0)
(0.0108619 -0.0757577 0)
(0.0145337 -0.0522296 0)
(0.0180975 -0.0405427 0)
(0.0171921 -0.0280409 0)
(-0.0148381 0.0297497 0)
(-0.0109143 0.0718198 0)
(-0.00329285 0.0894756 0)
(-0.00188858 0.107092 0)
(-0.00474687 0.131288 0)
(-0.00623659 0.149879 0)
(-0.00756167 0.164024 0)
(-0.00749866 0.170668 0)
(-0.00789488 0.172715 0)
(-0.0105948 0.171398 0)
(-0.00889398 0.170864 0)
(-0.00538898 0.169685 0)
(-0.00125728 0.169374 0)
(0.00451106 0.161871 0)
(0.0167611 0.115197 0)
(0.0247006 0.0949512 0)
(0.0302403 0.0810885 0)
(0.0445897 0.0554684 0)
(0.0293993 -0.00415431 0)
(0.0108667 -0.0389725 0)
(0.00075723 -0.0729748 0)
(-0.00329513 -0.115108 0)
(-0.00752705 -0.165131 0)
(0.0153737 -0.164445 0)
(-0.0112122 -0.100179 0)
(0.00152035 -0.0961602 0)