/*--------------------------------*- C++ -*----------------------------------*\
| =========                 |                                                 |
| \\      /  F ield         | OpenFOAM: The Open Source CFD Toolbox           |
|  \\    /   O peration     | Version:  2.3.0                                 |
|   \\  /    A nd           | Web:      www.OpenFOAM.org                      |
|    \\/     M anipulation  |                                                 |
\*---------------------------------------------------------------------------*/
FoamFile
{
    version     2.0;
    format      ascii;
    class       surfaceScalarField;
    location    "44";
    object      phi.water;
}
// * * * * * * * * * * * * * * * * * * * * * * * * * * * * * * * * * * * * * //

dimensions      [0 3 -1 0 0 0 0];

internalField   nonuniform List<scalar> 
3650
(
5.35723e-05
-5.42174e-05
0.000106414
-5.75821e-05
0.000160911
-5.76269e-05
0.000214937
-5.51474e-05
0.000265285
-5.08809e-05
0.000310784
-4.55698e-05
0.000350628
-3.96758e-05
0.000384246
-3.33736e-05
0.000411156
-2.674e-05
0.00043088
-1.98462e-05
0.000442902
-1.2818e-05
0.000446933
-6.03046e-06
0.000441842
2.02993e-06
0.000426393
1.20241e-05
0.000401424
2.10741e-05
0.000368042
2.90496e-05
0.000327126
3.58683e-05
0.000280598
4.08477e-05
0.00023113
4.33736e-05
0.000182411
4.29915e-05
0.000138591
3.96505e-05
0.000101992
3.48152e-05
7.04172e-05
3.116e-05
3.70427e-05
3.01792e-05
2.95944e-05
5.90754e-05
-0.00010123
0.000108437
-9.83212e-05
0.000152982
-9.45712e-05
0.000194519
-8.85099e-05
0.000232723
-8.06263e-05
0.00026724
-7.13302e-05
0.000297471
-6.08983e-05
0.00032294
-4.95559e-05
0.000343217
-3.73998e-05
0.0003578
-2.43787e-05
0.000365894
-1.01519e-05
0.000366673
4.7342e-06
0.000362028
1.79991e-05
0.00035193
3.20742e-05
0.000334888
4.58601e-05
0.000310153
5.85993e-05
0.000278867
6.93791e-05
0.00024264
7.7085e-05
0.000203837
8.06584e-05
0.000163867
8.00771e-05
0.000124513
7.56787e-05
8.72886e-05
6.93485e-05
5.51734e-05
6.40146e-05
2.62795e-05
6.17156e-05
5.74561e-05
4.33299e-05
-0.00013438
8.2616e-05
-0.000130421
0.000115235
-0.000122415
0.000143629
-0.000112914
0.00016858
-0.000101803
0.000190115
-8.92418e-05
0.000208214
-7.54058e-05
0.000222779
-6.0489e-05
0.00023374
-4.465e-05
0.00024115
-2.80049e-05
0.000245441
-1.0822e-05
0.000246376
7.18513e-06
0.000241882
2.6382e-05
0.000232848
4.5304e-05
0.000219252
6.37375e-05
0.000201059
8.06197e-05
0.000178743
9.45215e-05
0.000152944
0.000104017
0.000125653
0.000107763
9.88954e-05
0.000106056
7.36862e-05
9.99352e-05
5.10706e-05
9.13061e-05
3.17827e-05
8.31188e-05
1.64076e-05
7.71511e-05
7.26451e-05
2.2509e-05
-0.000152123
4.29352e-05
-0.000147236
6.00318e-05
-0.00013805
7.5087e-05
-0.000126637
8.7446e-05
-0.00011311
9.68547e-05
-9.78501e-05
0.000103468
-8.13179e-05
0.000107441
-6.37662e-05
0.000108835
-4.53134e-05
0.000107614
-2.60088e-05
0.000103435
-5.81943e-06
9.63776e-05
1.5046e-05
8.73087e-05
3.62517e-05
7.65436e-05
5.72352e-05
6.4773e-05
7.71865e-05
5.27157e-05
9.4684e-05
4.09076e-05
0.000108035
3.03617e-05
0.000115738
2.09338e-05
0.000117395
1.3416e-05
0.000113371
7.70229e-06
0.000105234
3.70286e-06
9.51065e-05
8.93542e-07
8.56147e-05
-3.64644e-07
7.81808e-05
7.205e-05
3.00554e-06
-0.000154965
4.44743e-06
-0.00014901
3.37034e-06
-0.000138546
1.21953e-06
-0.000125818
-3.10952e-06
-0.000110609
-9.66923e-06
-9.3603e-05
-1.78721e-05
-7.56001e-05
-2.73014e-05
-5.68933e-05
-3.76831e-05
-3.75287e-05
-4.87186e-05
-1.75313e-05
-5.98897e-05
3.10615e-06
-7.05271e-05
2.4136e-05
-7.99765e-05
4.49029e-05
-8.74093e-05
6.45977e-05
-9.17413e-05
8.21561e-05
-9.21866e-05
9.62281e-05
-8.88102e-05
0.00010561
-8.18929e-05
0.000109378
-7.20082e-05
0.000107828
-6.01132e-05
0.000101619
-4.71364e-05
9.24113e-05
-3.42954e-05
8.2194e-05
-2.21532e-05
7.31778e-05
-1.06312e-05
6.6655e-05
6.17805e-05
-1.46549e-05
-0.000142796
-3.13284e-05
-0.000135594
-5.00216e-05
-0.000123688
-7.09522e-05
-0.000109576
-9.44578e-05
-9.31855e-05
-0.00011879
-7.57414e-05
-0.000142524
-5.82354e-05
-0.000164681
-4.08068e-05
-0.000184243
-2.3321e-05
-0.000200488
-5.57757e-06
-0.000212746
1.21801e-05
-0.000220241
2.97234e-05
-0.000222486
4.63695e-05
-0.000219117
6.12723e-05
-0.000210013
7.35587e-05
-0.000195534
8.23376e-05
-0.000176277
8.69372e-05
-0.000153626
8.72002e-05
-0.000128748
8.34607e-05
-0.000103313
7.66753e-05
-7.86815e-05
6.82662e-05
-5.60135e-05
5.97861e-05
-3.58832e-05
5.27297e-05
-1.73718e-05
4.79312e-05
4.49292e-05
-2.90835e-05
-0.000117507
-6.13835e-05
-0.000109021
-9.54049e-05
-9.53182e-05
-0.000133234
-8.00035e-05
-0.00017206
-6.34634e-05
-0.000208324
-4.76247e-05
-0.000240077
-3.33089e-05
-0.000265901
-2.01685e-05
-0.000285139
-7.67583e-06
-0.00029757
4.51167e-06
-0.000303108
1.6513e-05
-0.000301685
2.79409e-05
-0.000293424
3.82891e-05
-0.000278744
4.70759e-05
-0.00025823
5.36887e-05
-0.000232902
5.76229e-05
-0.000203895
5.85732e-05
-0.000172621
5.67337e-05
-0.000140867
5.25701e-05
-0.00011034
4.69275e-05
-8.22836e-05
4.07986e-05
-5.7469e-05
3.52137e-05
-3.6336e-05
3.10486e-05
-1.74635e-05
2.86826e-05
2.78881e-05
-3.90749e-05
-8.41074e-05
-8.13684e-05
-7.32069e-05
-0.000124162
-5.76077e-05
-0.000170281
-4.19989e-05
-0.00021345
-2.72328e-05
-0.000250596
-1.55368e-05
-0.000280052
-7.01762e-06
-0.000301296
-4.90241e-07
-0.000314684
5.08314e-06
-0.000320419
1.0286e-05
-0.000318553
1.52706e-05
-0.000309514
1.98114e-05
-0.000293924
2.38788e-05
-0.00027262
2.69596e-05
-0.000246675
2.87488e-05
-0.000217059
2.91391e-05
-0.000185348
2.8072e-05
-0.000153156
2.57655e-05
-0.000122132
2.26088e-05
-9.35599e-05
1.91455e-05
-6.8311e-05
1.59716e-05
-4.67572e-05
1.36515e-05
-2.89472e-05
1.25769e-05
-1.36385e-05
1.2882e-05
1.4509e-05
-4.56383e-05
-4.65013e-05
-9.07813e-05
-3.29409e-05
-0.00013474
-1.67701e-05
-0.000179253
-2.76662e-06
-0.000218131
8.26001e-06
-0.000249661
1.42947e-05
-0.000272958
1.60403e-05
-0.000287861
1.52011e-05
-0.000294799
1.32022e-05
-0.000294251
1.11663e-05
-0.000286425
9.50014e-06
-0.000272643
7.87179e-06
-0.000253911
6.56096e-06
-0.000230868
5.39329e-06
-0.000204605
4.15737e-06
-0.000176458
2.68369e-06
-0.000147873
1.00726e-06
-0.000120126
-7.32712e-07
-9.43302e-05
-2.31832e-06
-7.12657e-05
-3.47285e-06
-5.13348e-05
-3.90994e-06
-3.45072e-05
-3.38541e-06
-2.0709e-05
-1.72761e-06
-9.44879e-06
1.17724e-06
5.19972e-06
-4.72673e-05
-8.48164e-06
-8.95827e-05
7.00523e-06
-0.000130013
2.18593e-05
-0.000168133
3.23967e-05
-0.000200105
3.86941e-05
-0.000225013
3.88764e-05
-0.000242229
3.40166e-05
-0.000251517
2.61147e-05
-0.000252979
1.70663e-05
-0.000247915
8.53669e-06
-0.000237702
1.37774e-06
-0.0002232
-4.38726e-06
-0.000205217
-9.08406e-06
-0.000184837
-1.28574e-05
-0.00016288
-1.58949e-05
-0.00014033
-1.83275e-05
-0.000118049
-2.01765e-05
-9.67354e-05
-2.14106e-05
-7.68805e-05
-2.19393e-05
-5.88084e-05
-2.16036e-05
-4.26908e-05
-2.02345e-05
-2.86063e-05
-1.76885e-05
-1.68504e-05
-1.38372e-05
-7.56091e-06
-8.53577e-06
-2.26878e-06
-4.4569e-05
2.75327e-05
-8.04939e-05
4.36388e-05
-0.000115125
5.62821e-05
-0.000147236
6.27242e-05
-0.000173272
6.40359e-05
-0.000192762
5.85738e-05
-0.000205063
4.75636e-05
-0.000210223
3.34882e-05
-0.000209602
1.9063e-05
-0.000204459
6.09175e-06
-0.000195778
-4.74222e-06
-0.00018431
-1.35065e-05
-0.000170872
-2.05253e-05
-0.000156084
-2.60913e-05
-0.000140425
-3.04843e-05
-0.000124266
-3.38951e-05
-0.000107853
-3.63909e-05
-9.13973e-05
-3.79489e-05
-7.51097e-05
-3.84646e-05
-5.92187e-05
-3.77614e-05
-4.40422e-05
-3.56258e-05
-3.00379e-05
-3.18582e-05
-1.7912e-05
-2.62887e-05
-8.08705e-06
-1.87851e-05
-1.0316e-05
-3.90463e-05
5.96793e-05
-6.86361e-05
7.53692e-05
-9.6671e-05
8.57142e-05
-0.000123597
8.86726e-05
-0.000145102
8.54257e-05
-0.000160743
7.48231e-05
-0.000169897
5.84781e-05
-0.000173653
3.97105e-05
-0.000173626
2.16197e-05
-0.000170914
5.75529e-06
-0.000166191
-7.48902e-06
-0.000159898
-1.83206e-05
-0.000152315
-2.7159e-05
-0.000143516
-3.44054e-05
-0.000133481
-4.03835e-05
-0.000122194
-4.52787e-05
-0.00010967
-4.91321e-05
-9.6001e-05
-5.18735e-05
-8.13736e-05
-5.33468e-05
-6.60604e-05
-5.33081e-05
-5.04416e-05
-5.14373e-05
-3.50968e-05
-4.73652e-05
-2.10677e-05
-4.07022e-05
-9.35703e-06
-3.10919e-05
-2.00387e-05
-3.19706e-05
8.61427e-05
-5.62505e-05
0.000101511
-7.8918e-05
0.000109935
-0.000100813
0.000110122
-0.000118297
0.000103092
-0.000130714
8.82113e-05
-0.000138224
6.79028e-05
-0.000142523
4.61793e-05
-0.000144886
2.5921e-05
-0.000145957
8.25603e-06
-0.000145822
-6.70325e-06
-0.000144358
-1.9267e-05
-0.000141453
-2.98573e-05
-0.000136981
-3.88701e-05
-0.000130863
-4.66066e-05
-0.000123055
-5.32426e-05
-0.000113544
-5.88233e-05
-0.000102357
-6.32725e-05
-8.95163e-05
-6.64234e-05
-7.50857e-05
-6.79877e-05
-5.92461e-05
-6.75254e-05
-4.2471e-05
-6.44264e-05
-2.59428e-05
-5.78609e-05
-1.19344e-05
-4.67218e-05
-3.33524e-05
-2.4643e-05
0.000106572
-4.34863e-05
0.000121866
-6.11104e-05
0.00012899
-7.83085e-05
0.000127187
-9.22965e-05
0.000117374
-0.000102323
9.93822e-05
-0.000109448
7.66917e-05
-0.000115237
5.34449e-05
-0.000120254
3.19805e-05
-0.000124445
1.30753e-05
-0.000127558
-3.27271e-06
-0.0001293
-1.73706e-05
-0.000129507
-2.95793e-05
-0.000128123
-4.02377e-05
-0.000125167
-4.96114e-05
-0.000120628
-5.78894e-05
-0.000114429
-6.51661e-05
-0.000106458
-7.14186e-05
-9.6586e-05
-7.65162e-05
-8.46373e-05
-8.02024e-05
-7.04612e-05
-8.20172e-05
-5.4174e-05
-8.1213e-05
-3.64178e-05
-7.66255e-05
-1.98642e-05
-6.62439e-05
-5.3583e-05
-1.7387e-05
0.000120852
-3.07409e-05
0.000136293
-4.32922e-05
0.000142764
-5.60144e-05
0.0001399
-6.68805e-05
0.000128514
-7.53499e-05
0.000108799
-8.26962e-05
8.50628e-05
-8.9587e-05
6.11598e-05
-9.60432e-05
3.8984e-05
-0.00010177
1.9155e-05
-0.000106547
1.69984e-06
-0.000110181
-1.36501e-05
-0.000112492
-2.72156e-05
-0.000113423
-3.92631e-05
-0.000113011
-5.00031e-05
-0.000111311
-5.96227e-05
-0.000108292
-6.82731e-05
-0.000103798
-7.60249e-05
-9.76355e-05
-8.28324e-05
-8.95075e-05
-8.85345e-05
-7.90191e-05
-9.2793e-05
-6.57043e-05
-9.4998e-05
-4.94658e-05
-9.41026e-05
-2.97392e-05
-8.80899e-05
-8.04494e-05
-1.00508e-05
0.000128944
-1.78438e-05
0.000144752
-2.56532e-05
0.000151376
-3.40985e-05
0.000148391
-4.19721e-05
0.000136663
-4.92181e-05
0.000116599
-5.6336e-05
9.27316e-05
-6.32999e-05
6.86342e-05
-6.99429e-05
4.60341e-05
-7.60957e-05
2.55482e-05
-8.15326e-05
7.24507e-06
-8.60732e-05
-9.09174e-06
-8.95664e-05
-2.37332e-05
-9.19288e-05
-3.6894e-05
-9.3165e-05
-4.87382e-05
-9.3342e-05
-5.94308e-05
-9.25016e-05
-6.91524e-05
-9.0556e-05
-7.80573e-05
-8.72775e-05
-8.62036e-05
-8.23938e-05
-9.35173e-05
-7.55147e-05
-9.98029e-05
-6.59655e-05
-0.000104752
-5.31163e-05
-0.000107866
-3.21769e-05
-0.000108151
-0.000106976
-3.48686e-06
0.000131382
-6.07921e-06
0.000147642
-9.24611e-06
0.000154978
-1.34776e-05
0.000152696
-1.8178e-05
0.000141709
-2.37935e-05
0.000122481
-2.98422e-05
9.91674e-05
-3.61448e-05
7.52759e-05
-4.23657e-05
5.25179e-05
-4.82635e-05
3.15943e-05
-5.36168e-05
1.26467e-05
-5.8276e-05
-4.46347e-06
-6.21563e-05
-1.99447e-05
-6.51972e-05
-3.39786e-05
-6.73391e-05
-4.67212e-05
-6.85626e-05
-5.83371e-05
-6.88619e-05
-6.90231e-05
-6.81748e-05
-7.89807e-05
-6.6274e-05
-8.83321e-05
-6.29453e-05
-9.70135e-05
-5.80016e-05
-0.000104842
-5.10435e-05
-0.000111684
-4.16563e-05
-0.000117551
-2.5247e-05
-0.000122611
-0.000125963
1.61482e-06
0.000129113
3.64707e-06
0.000145717
4.97647e-06
0.00015383
4.96907e-06
0.000152745
3.60068e-06
0.000143403
1.34568e-07
0.000125998
-4.4915e-06
0.000103924
-9.7339e-06
8.06651e-05
-1.51494e-05
5.80555e-05
-2.04266e-05
3.69307e-05
-2.53407e-05
1.75456e-05
-2.97565e-05
-1.40622e-07
-3.36192e-05
-1.62627e-05
-3.69215e-05
-3.09683e-05
-3.9624e-05
-4.44312e-05
-4.16038e-05
-5.68697e-05
-4.26835e-05
-6.85324e-05
-4.26745e-05
-7.96361e-05
-4.13702e-05
-9.02738e-05
-3.86401e-05
-0.000100285
-3.45674e-05
-0.000109355
-2.92432e-05
-0.000117283
-2.31511e-05
-0.00012425
-1.45515e-05
-0.000131279
-0.000137069
5.80152e-06
0.000122964
1.25357e-05
0.000139142
1.79501e-05
0.000148322
2.17044e-05
0.000148994
2.336e-05
0.000141971
2.21036e-05
0.000127174
1.88541e-05
0.000107026
1.46241e-05
8.48345e-05
9.97104e-06
6.26822e-05
5.25544e-06
4.16084e-05
6.89241e-07
2.20218e-05
-3.62207e-06
3.99405e-06
-7.63516e-06
-1.2544e-05
-1.13254e-05
-2.7724e-05
-1.4654e-05
-4.1749e-05
-1.7449e-05
-5.49235e-05
-1.93591e-05
-6.75807e-05
-2.00348e-05
-7.9918e-05
-1.93237e-05
-9.18858e-05
-1.73037e-05
-0.00010313
-1.42467e-05
-0.000113154
-1.06302e-05
-0.000121588
-7.35012e-06
-0.000128482
-5.68903e-06
-0.000135333
-0.000142521
9.5784e-06
0.000113377
2.02306e-05
0.00012872
2.89588e-05
0.000139248
3.57962e-05
0.000142135
4.01194e-05
0.000137739
4.10958e-05
0.000126116
3.9206e-05
0.000108579
3.57897e-05
8.79712e-05
3.16646e-05
6.66181e-05
2.72704e-05
4.58607e-05
2.28113e-05
2.63251e-05
1.83445e-05
8.22526e-06
1.38721e-05
-8.45544e-06
9.4794e-06
-2.388e-05
5.31892e-06
-3.83123e-05
1.67584e-06
-5.2148e-05
-1.02898e-06
-6.57713e-05
-2.44792e-06
-7.92972e-05
-2.55802e-06
-9.24501e-05
-1.65716e-06
-0.000104644
-1.67547e-07
-0.000115242
1.26126e-06
-0.000123739
2.0674e-06
-0.000130037
-7.40094e-08
-0.000135788
-0.000143819
1.16599e-05
0.000101818
2.46994e-05
0.000115933
3.61211e-05
0.000127441
4.56235e-05
0.000132602
5.23834e-05
0.00013096
5.57022e-05
0.000122763
5.54982e-05
0.000108427
5.29662e-05
9.00473e-05
4.92805e-05
6.99426e-05
4.50754e-05
4.98095e-05
4.06164e-05
3.05773e-05
3.59249e-05
1.26577e-05
3.09992e-05
-3.92452e-06
2.59743e-05
-1.9393e-05
2.11097e-05
-3.40996e-05
1.68256e-05
-4.8515e-05
1.34664e-05
-6.29871e-05
1.1241e-05
-7.7502e-05
1.00563e-05
-9.15598e-05
9.53119e-06
-0.000104371
9.19711e-06
-0.000115206
8.53236e-06
-0.000123531
7.36521e-06
-0.000129198
3.71803e-06
-0.000133716
-0.000141814
1.28909e-05
8.91213e-05
2.7304e-05
0.000101683
4.058e-05
0.000113784
5.20695e-05
0.000121093
6.0711e-05
0.000122263
6.61034e-05
0.00011735
6.77734e-05
0.000106533
6.63642e-05
9.09696e-05
6.31812e-05
7.26376e-05
5.91433e-05
5.34769e-05
5.46879e-05
3.47835e-05
4.98271e-05
1.72424e-05
4.46461e-05
9.07377e-07
3.93134e-05
-1.44939e-05
3.41347e-05
-2.9385e-05
2.94848e-05
-4.42477e-05
2.55331e-05
-5.93352e-05
2.23544e-05
-7.45203e-05
1.98419e-05
-8.91518e-05
1.76853e-05
-0.000102289
1.54652e-05
-0.000113125
1.28483e-05
-0.000121169
9.7812e-06
-0.0001263
5.66631e-06
-0.000130049
-0.000137635
1.37511e-05
7.57526e-05
2.8834e-05
8.66521e-05
4.32792e-05
9.90033e-05
5.61059e-05
0.000108267
6.61447e-05
0.000112172
7.31104e-05
0.000110343
7.64588e-05
0.000103052
7.64378e-05
9.06256e-05
7.39992e-05
7.45609e-05
7.02635e-05
5.6763e-05
6.5907e-05
3.8846e-05
6.10293e-05
2.18315e-05
5.58164e-05
5.82496e-06
5.04757e-05
-9.4581e-06
4.53075e-05
-2.44504e-05
4.04562e-05
-3.95583e-05
3.59618e-05
-5.4954e-05
3.18071e-05
-7.04537e-05
2.79615e-05
-8.53479e-05
2.42626e-05
-9.85859e-05
2.03356e-05
-0.000109277
1.60521e-05
-0.000117016
1.14719e-05
-0.000121731
6.54676e-06
-0.00012508
-0.000132235
1.42458e-05
6.20312e-05
2.95208e-05
7.12781e-05
4.47041e-05
8.35653e-05
5.84595e-05
9.4561e-05
6.94908e-05
0.000101107
7.74552e-05
0.000102306
8.21862e-05
9.82425e-05
8.35786e-05
8.90416e-05
8.22096e-05
7.55463e-05
7.8996e-05
5.95196e-05
7.48643e-05
4.26391e-05
7.01753e-05
2.62547e-05
6.51486e-05
1.06214e-05
6.00398e-05
-4.49986e-06
5.50126e-05
-1.9465e-05
5.00333e-05
-3.4577e-05
4.50589e-05
-4.99701e-05
4.00395e-05
-6.54615e-05
3.50245e-05
-8.03534e-05
2.99891e-05
-9.35244e-05
2.46654e-05
-0.000104001
1.90456e-05
-0.000111461
1.33229e-05
-0.000115861
7.38209e-06
-0.000118965
-0.000125894
1.44409e-05
4.82117e-05
2.95598e-05
5.58965e-05
4.51038e-05
6.78707e-05
5.9463e-05
8.03455e-05
7.11301e-05
8.94265e-05
7.9847e-05
9.35278e-05
8.5686e-05
9.23993e-05
8.83e-05
8.63628e-05
8.80176e-05
7.56235e-05
8.55328e-05
6.16363e-05
8.17779e-05
4.60432e-05
7.74465e-05
3.03702e-05
7.28224e-05
1.51408e-05
6.80755e-05
2.66309e-07
6.31889e-05
-1.44967e-05
5.80946e-05
-2.93865e-05
5.2723e-05
-4.45278e-05
4.70343e-05
-5.97626e-05
4.10913e-05
-7.4433e-05
3.49574e-05
-8.73986e-05
2.85473e-05
-9.76273e-05
2.18745e-05
-0.00010483
1.52409e-05
-0.000108972
8.3469e-06
-0.000111859
-0.000118632
1.4459e-05
3.45291e-05
2.90969e-05
4.08666e-05
4.45282e-05
5.23468e-05
5.91914e-05
6.59403e-05
7.13212e-05
7.73334e-05
8.06296e-05
8.41875e-05
8.71274e-05
8.59102e-05
9.06937e-05
8.27784e-05
9.12499e-05
7.49763e-05
8.96079e-05
6.30923e-05
8.64018e-05
4.89418e-05
8.25608e-05
3.40612e-05
7.84368e-05
1.9293e-05
7.40224e-05
4.78762e-06
6.92698e-05
-9.60945e-06
6.41181e-05
-2.41094e-05
5.85154e-05
-3.88333e-05
5.24314e-05
-5.36407e-05
4.58794e-05
-6.79133e-05
3.89826e-05
-8.05483e-05
3.17988e-05
-9.04843e-05
2.43408e-05
-9.74136e-05
1.69617e-05
-0.000101291
9.23662e-06
-0.000103917
-0.000110549
1.39157e-05
2.15987e-05
2.75084e-05
2.67847e-05
4.22099e-05
3.75133e-05
5.68217e-05
5.16917e-05
6.93004e-05
6.49969e-05
7.91006e-05
7.44081e-05
8.62351e-05
7.88482e-05
9.07168e-05
7.83956e-05
9.22073e-05
7.34685e-05
9.12108e-05
6.39733e-05
8.85965e-05
5.13562e-05
8.52154e-05
3.73579e-05
8.14464e-05
2.3134e-05
7.7275e-05
9.08544e-06
7.26847e-05
-4.86616e-06
6.76243e-05
-1.89008e-05
6.2034e-05
-3.31247e-05
5.58611e-05
-4.73996e-05
4.90718e-05
-6.11432e-05
4.17842e-05
-7.33277e-05
3.41506e-05
-8.28999e-05
2.61909e-05
-8.95007e-05
1.8272e-05
-9.30588e-05
9.90042e-06
-9.53523e-05
-0.000101847
1.16453e-05
1.06749e-05
2.35405e-05
1.43275e-05
3.72225e-05
2.36551e-05
5.17587e-05
3.76268e-05
6.48168e-05
5.22738e-05
7.53319e-05
6.4053e-05
8.31491e-05
7.11938e-05
8.80925e-05
7.3488e-05
9.05101e-05
7.11223e-05
9.02441e-05
6.42425e-05
8.81473e-05
5.33517e-05
8.50679e-05
4.0405e-05
8.14724e-05
2.68028e-05
7.74902e-05
1.32163e-05
7.31125e-05
-3.09891e-07
6.82986e-05
-1.39041e-05
6.29735e-05
-2.76343e-05
5.70312e-05
-4.13418e-05
5.03908e-05
-5.44759e-05
4.31018e-05
-6.61013e-05
3.5375e-05
-7.52169e-05
2.72223e-05
-8.13986e-05
1.90206e-05
-8.4552e-05
1.0232e-05
-8.64268e-05
-9.28086e-05
7.26452e-06
3.03643e-06
1.72987e-05
3.85412e-06
3.01651e-05
1.07178e-05
4.49279e-05
2.352e-05
5.89412e-05
3.89042e-05
7.03893e-05
5.30116e-05
7.86307e-05
6.31819e-05
8.37788e-05
6.8478e-05
8.62392e-05
6.86846e-05
8.63379e-05
6.42128e-05
8.44698e-05
5.52425e-05
8.14736e-05
4.33937e-05
7.79808e-05
3.03759e-05
7.42107e-05
1.71487e-05
7.01749e-05
3.92685e-06
6.58281e-05
-9.33758e-06
6.10618e-05
-2.26499e-05
5.57061e-05
-3.58079e-05
4.96006e-05
-4.82868e-05
4.27369e-05
-5.92575e-05
3.53055e-05
-6.77959e-05
2.7279e-05
-7.34234e-05
1.90721e-05
-7.60636e-05
1.01453e-05
-7.745e-05
-8.37851e-05
3.47301e-06
-1.74192e-06
1.17142e-05
-4.66378e-06
2.36292e-05
-9.70246e-07
3.82124e-05
9.92647e-06
5.26789e-05
2.55195e-05
6.46539e-05
4.18394e-05
7.28508e-05
5.53521e-05
7.76854e-05
6.39394e-05
7.94882e-05
6.69919e-05
7.91041e-05
6.464e-05
7.69778e-05
5.73808e-05
7.39496e-05
4.64155e-05
7.06067e-05
3.37888e-05
6.7201e-05
2.07125e-05
6.37489e-05
7.59162e-06
6.01746e-05
-5.51213e-06
5.63071e-05
-1.85157e-05
5.18935e-05
-3.11603e-05
4.66973e-05
-4.29496e-05
4.06506e-05
-5.31638e-05
3.38594e-05
-6.09615e-05
2.62363e-05
-6.58492e-05
1.82442e-05
-6.78571e-05
9.56323e-06
-6.87812e-05
-7.51937e-05
3.27027e-06
-5.34379e-06
9.40737e-06
-1.11505e-05
1.94179e-05
-1.03929e-05
3.21285e-05
-1.50425e-06
4.53738e-05
1.38193e-05
5.66478e-05
3.1863e-05
6.41694e-05
4.8582e-05
6.79028e-05
6.05817e-05
6.88349e-05
6.63304e-05
6.7772e-05
6.57872e-05
6.53345e-05
5.98391e-05
6.23742e-05
4.93767e-05
5.94105e-05
3.68148e-05
5.66691e-05
2.36022e-05
5.41446e-05
1.03364e-05
5.16968e-05
-2.78662e-06
4.90647e-05
-1.55806e-05
4.59136e-05
-2.77361e-05
4.1959e-05
-3.87894e-05
3.70285e-05
-4.81082e-05
3.10885e-05
-5.4936e-05
2.40586e-05
-5.8858e-05
1.63485e-05
-6.01257e-05
8.44812e-06
-6.08458e-05
-6.74886e-05
4.39092e-06
-8.99264e-06
8.94314e-06
-1.60519e-05
1.61131e-05
-1.70573e-05
2.52876e-05
-9.51216e-06
3.54757e-05
5.33038e-06
4.46226e-05
2.43781e-05
5.08053e-05
4.36002e-05
5.33647e-05
5.86326e-05
5.33752e-05
6.67332e-05
5.17676e-05
6.75941e-05
4.9404e-05
6.22736e-05
4.69626e-05
5.18623e-05
4.48636e-05
3.89967e-05
4.32497e-05
2.53705e-05
4.20621e-05
1.17579e-05
4.1077e-05
-1.50588e-06
3.99558e-05
-1.41411e-05
3.83291e-05
-2.58024e-05
3.58595e-05
-3.60408e-05
3.2247e-05
-4.42726e-05
2.72046e-05
-4.98348e-05
2.08146e-05
-5.25494e-05
1.33637e-05
-5.30756e-05
6.78442e-06
-5.41473e-05
-6.12345e-05
4.74645e-06
-1.31206e-05
8.69035e-06
-2.02155e-05
1.30825e-05
-2.13706e-05
1.8098e-05
-1.39321e-05
2.407e-05
7.16427e-07
2.98403e-05
2.0257e-05
3.37799e-05
4.10745e-05
3.49037e-05
5.83321e-05
3.3989e-05
6.8127e-05
3.21491e-05
6.97176e-05
3.03578e-05
6.42167e-05
2.89911e-05
5.3356e-05
2.82558e-05
3.98766e-05
2.81577e-05
2.56581e-05
2.85641e-05
1.16065e-05
2.91883e-05
-1.83017e-06
2.96859e-05
-1.43045e-05
2.96735e-05
-2.54193e-05
2.86998e-05
-3.46974e-05
2.62856e-05
-4.15902e-05
2.20624e-05
-4.56019e-05
1.5998e-05
-4.69169e-05
9.22055e-06
-4.7171e-05
4.85236e-06
-4.94214e-05
-5.6835e-05
5.15789e-06
-1.77121e-05
8.57108e-06
-2.38134e-05
1.07573e-05
-2.36884e-05
1.21847e-05
-1.52347e-05
1.36404e-05
-1.00092e-07
1.51681e-05
1.98622e-05
1.57486e-05
4.15583e-05
1.48001e-05
5.99633e-05
1.30133e-05
7.03518e-05
1.13256e-05
7.17271e-05
1.04576e-05
6.53374e-05
1.04952e-05
5.35654e-05
1.13368e-05
3.92694e-05
1.28342e-05
2.44018e-05
1.4783e-05
9.92514e-06
1.6906e-05
-3.65174e-06
1.89008e-05
-1.59118e-05
2.0264e-05
-2.63438e-05
2.04032e-05
-3.44481e-05
1.8681e-05
-3.97753e-05
1.51055e-05
-4.21222e-05
9.1257e-06
-4.21802e-05
4.87386e-06
-4.33418e-05
3.39601e-06
-4.711e-05
-5.39622e-05
5.84787e-06
-2.27092e-05
8.59412e-06
-2.6684e-05
8.9543e-06
-2.42473e-05
7.74484e-06
-1.39859e-05
5.46402e-06
2.32218e-06
2.76241e-06
2.29451e-05
-3.98804e-07
4.50769e-05
-3.67914e-06
6.35595e-05
-6.3057e-06
7.32701e-05
-7.72967e-06
7.34643e-05
-7.6602e-06
6.56159e-05
-6.3521e-06
5.26217e-05
-4.21825e-06
3.74415e-05
-1.50071e-06
2.19581e-05
1.57486e-06
7.11349e-06
4.77652e-06
-6.52963e-06
7.71698e-06
-1.8425e-05
9.69002e-06
-2.79648e-05
1.01557e-05
-3.47634e-05
8.85332e-06
-3.85726e-05
5.71175e-06
-3.96211e-05
2.4068e-06
-3.96717e-05
1.86603e-06
-4.25635e-05
3.25071e-06
-4.72108e-05
-5.16325e-05
6.86498e-06
-2.77726e-05
8.77992e-06
-2.84712e-05
7.50354e-06
-2.30702e-05
4.05173e-06
-1.05028e-05
-9.95978e-07
7.3705e-06
-6.97274e-06
2.88543e-05
-1.30892e-05
5.10825e-05
-1.81444e-05
6.87113e-05
-2.15134e-05
7.67957e-05
-2.27408e-05
7.50354e-05
-2.19716e-05
6.53372e-05
-1.99025e-05
5.10242e-05
-1.71525e-05
3.50296e-05
-1.39535e-05
1.89945e-05
-1.04258e-05
3.83283e-06
-6.88696e-06
-9.7505e-06
-4.03637e-06
-2.10576e-05
-2.36558e-06
-2.95984e-05
-2.05464e-06
-3.51808e-05
-3.25018e-06
-3.78579e-05
-5.42807e-06
-3.87706e-05
-4.02411e-06
-4.09338e-05
-4.81353e-08
-4.59462e-05
3.94684e-06
-5.00244e-05
-4.9771e-05
7.22187e-06
-3.20484e-05
8.26976e-06
-2.8987e-05
5.53034e-06
-2.02949e-05
3.75989e-07
-5.34491e-06
-6.56304e-06
1.41518e-05
-1.45066e-05
3.64345e-05
-2.21699e-05
5.83618e-05
-2.79176e-05
7.44203e-05
-3.15178e-05
8.04648e-05
-3.26124e-05
7.65137e-05
-3.17678e-05
6.50275e-05
-2.99209e-05
4.95854e-05
-2.74799e-05
3.28244e-05
-2.45094e-05
1.62058e-05
-2.12163e-05
7.54434e-07
-1.82343e-05
-1.25821e-05
-1.62085e-05
-2.31503e-05
-1.5253e-05
-3.07179e-05
-1.55249e-05
-3.52961e-05
-1.6853e-05
-3.76908e-05
-1.58919e-05
-4.04292e-05
-1.06014e-05
-4.58964e-05
-2.97002e-06
-5.26611e-05
2.38072e-06
-5.49342e-05
-4.96209e-05
5.4126e-06
-3.43497e-05
5.55242e-06
-2.83324e-05
1.92995e-06
-1.66254e-05
-4.03602e-06
5.11969e-07
-1.18135e-05
2.14434e-05
-2.02911e-05
4.41384e-05
-2.76157e-05
6.5127e-05
-3.25404e-05
7.92068e-05
-3.55061e-05
8.3397e-05
-3.64719e-05
7.76768e-05
-3.61642e-05
6.49779e-05
-3.52418e-05
4.87882e-05
-3.38151e-05
3.13903e-05
-3.18002e-05
1.42418e-05
-2.95675e-05
-1.38182e-06
-2.78799e-05
-1.43521e-05
-2.6992e-05
-2.42345e-05
-2.692e-05
-3.09752e-05
-2.82936e-05
-3.48948e-05
-2.88177e-05
-3.83505e-05
-2.46733e-05
-4.44147e-05
-1.69527e-05
-5.28805e-05
-9.07581e-06
-6.01097e-05
-3.46287e-06
-6.09048e-05
-5.3391e-05
1.94561e-06
-3.46879e-05
6.82914e-07
-2.67034e-05
-3.39878e-06
-1.2691e-05
-9.66685e-06
6.19507e-06
-1.72616e-05
2.80119e-05
-2.461e-05
5.03862e-05
-2.99099e-05
6.98252e-05
-3.27462e-05
8.18577e-05
-3.43631e-05
8.47391e-05
-3.49816e-05
7.81133e-05
-3.48619e-05
6.48127e-05
-3.45252e-05
4.83569e-05
-3.4074e-05
3.08009e-05
-3.33528e-05
1.34477e-05
-3.2558e-05
-2.19267e-06
-3.22279e-05
-1.48136e-05
-3.24841e-05
-2.41246e-05
-3.38483e-05
-3.01117e-05
-3.59315e-05
-3.40572e-05
-3.4891e-05
-3.98806e-05
-2.96472e-05
-4.94437e-05
-2.15472e-05
-6.01854e-05
-1.45192e-05
-6.74062e-05
-8.42905e-06
-6.78568e-05
-6.10186e-05
-9.18691e-07
-3.37987e-05
-3.7211e-06
-2.42911e-05
-8.79711e-06
-8.57747e-06
-1.53209e-05
1.12363e-05
-2.17686e-05
3.28706e-05
-2.64545e-05
5.38441e-05
-2.84537e-05
7.11453e-05
-2.83755e-05
8.14875e-05
-2.75291e-05
8.37856e-05
-2.73978e-05
7.75459e-05
-2.73115e-05
6.45719e-05
-2.785e-05
4.86026e-05
-2.87342e-05
3.13568e-05
-2.94797e-05
1.39792e-05
-3.00655e-05
-1.70616e-06
-3.09253e-05
-1.40625e-05
-3.22931e-05
-2.27754e-05
-3.53614e-05
-2.79911e-05
-3.74851e-05
-3.28401e-05
-3.57902e-05
-4.15391e-05
-3.10115e-05
-5.38423e-05
-2.48469e-05
-6.61744e-05
-1.82122e-05
-7.44217e-05
-1.12575e-05
-7.6008e-05
-7.15046e-05
-2.12962e-06
-3.23354e-05
-6.77968e-06
-2.11495e-05
-1.32941e-05
-4.37616e-06
-1.93223e-05
1.50151e-05
-2.31894e-05
3.487e-05
-2.38499e-05
5.32062e-05
-2.09327e-05
6.77482e-05
-1.63116e-05
7.67431e-05
-1.17896e-05
7.93987e-05
-1.0094e-05
7.52427e-05
-1.06808e-05
6.4507e-05
-1.30361e-05
5.02227e-05
-1.62094e-05
3.38142e-05
-1.91676e-05
1.64683e-05
-2.14477e-05
4.66877e-07
-2.36757e-05
-1.18923e-05
-2.63975e-05
-2.01277e-05
-3.06428e-05
-2.4759e-05
-3.2982e-05
-3.09481e-05
-3.23293e-05
-4.20281e-05
-3.00884e-05
-5.59554e-05
-2.7169e-05
-6.94553e-05
-2.24042e-05
-7.98443e-05
-1.43047e-05
-8.47915e-05
-8.43649e-05
-3.23744e-06
-3.00984e-05
-1.01281e-05
-1.71775e-05
-1.61755e-05
-9.79394e-07
-1.93015e-05
1.59372e-05
-1.84797e-05
3.24968e-05
-1.32726e-05
4.74295e-05
-5.21375e-06
5.9527e-05
3.2406e-06
6.80504e-05
1.02596e-05
7.22251e-05
1.39426e-05
7.12542e-05
1.28949e-05
6.44297e-05
8.96858e-06
5.29804e-05
3.59177e-06
3.8092e-05
-1.86813e-06
2.10474e-05
-6.35071e-06
4.60465e-06
-1.0224e-05
-8.0776e-06
-1.44647e-05
-1.60414e-05
-1.96593e-05
-2.03568e-05
-2.32475e-05
-2.77278e-05
-2.49114e-05
-4.0405e-05
-2.56171e-05
-5.54432e-05
-2.54986e-05
-7.01081e-05
-2.3448e-05
-8.2912e-05
-1.55533e-05
-9.2529e-05
-9.72284e-05
-6.05201e-06
-2.56199e-05
-1.31019e-05
-1.27534e-05
-1.51896e-05
6.03285e-08
-1.2546e-05
1.24829e-05
-5.67167e-06
2.51798e-05
3.95556e-06
3.74738e-05
1.44703e-05
4.87192e-05
2.44006e-05
5.79485e-05
3.23533e-05
6.41228e-05
3.71294e-05
6.63551e-05
3.7366e-05
6.35324e-05
3.35572e-05
5.57746e-05
2.72097e-05
4.32698e-05
1.97942e-05
2.72034e-05
1.31695e-05
1.04859e-05
7.75157e-06
-2.71215e-06
2.06812e-06
-1.05594e-05
-4.16236e-06
-1.47308e-05
-9.44145e-06
-2.28623e-05
-1.35335e-05
-3.66378e-05
-1.63404e-05
-5.28983e-05
-1.77312e-05
-6.90331e-05
-1.72593e-05
-8.39701e-05
-1.1968e-05
-9.73215e-05
-0.000105965
-1.10603e-05
-1.82504e-05
-1.4684e-05
-9.5937e-06
-1.13484e-05
-2.87612e-06
-2.79907e-06
4.25764e-06
8.75531e-06
1.38101e-05
2.11154e-05
2.50647e-05
3.28674e-05
3.68008e-05
4.30213e-05
4.76464e-05
5.08069e-05
5.6264e-05
5.54448e-05
6.16284e-05
5.67299e-05
6.22125e-05
5.42648e-05
5.79851e-05
4.8485e-05
4.84124e-05
4.06141e-05
3.39833e-05
3.26045e-05
1.74761e-05
2.59225e-05
3.81294e-06
1.90742e-05
-4.01148e-06
1.21018e-05
-8.22194e-06
5.62836e-06
-1.68602e-05
-1.18281e-07
-3.14423e-05
-4.31276e-06
-4.90316e-05
-6.52341e-06
-6.67907e-05
-7.0493e-06
-8.32786e-05
-5.72512e-06
-9.85461e-05
-0.000109546
-1.28216e-05
-1.10581e-05
-1.20122e-05
-9.55188e-06
-4.38876e-06
-9.54484e-06
7.78436e-06
-6.98358e-06
2.20022e-05
4.47682e-07
3.60162e-05
1.15262e-05
4.81939e-05
2.47965e-05
5.76003e-05
3.82288e-05
6.3826e-05
4.99535e-05
6.70523e-05
5.83527e-05
6.75496e-05
6.17543e-05
6.58007e-05
5.98829e-05
6.14925e-05
5.26744e-05
5.50671e-05
3.99653e-05
4.7512e-05
2.42821e-05
4.02613e-05
1.07384e-05
3.27599e-05
3.05775e-06
2.54562e-05
-1.35002e-06
1.85237e-05
-1.04159e-05
1.19493e-05
-2.55876e-05
6.92858e-06
-4.44325e-05
3.84134e-06
-6.36453e-05
1.75413e-06
-8.09881e-05
2.24953e-08
-9.69682e-05
-0.00010935
-5.26361e-06
-7.9904e-06
-1.84543e-06
-1.22275e-05
6.86669e-06
-1.70698e-05
1.90149e-05
-1.75891e-05
3.27525e-05
-1.17244e-05
4.58906e-05
-2.89217e-07
5.67486e-05
1.47604e-05
6.43593e-05
3.10702e-05
6.82088e-05
4.60884e-05
6.96003e-05
5.69938e-05
6.92503e-05
6.21351e-05
6.7654e-05
6.15074e-05
6.48003e-05
5.56705e-05
6.05694e-05
4.42384e-05
5.49849e-05
2.97584e-05
4.80579e-05
1.72582e-05
4.04189e-05
1.00868e-05
3.3252e-05
5.34833e-06
2.66423e-05
-4.25304e-06
2.03282e-05
-1.9901e-05
1.50732e-05
-3.96452e-05
1.1312e-05
-5.98415e-05
7.93593e-06
-7.73858e-05
3.91854e-06
-9.31812e-05
-0.000106113
3.54672e-06
-1.05502e-05
9.16116e-06
-1.71398e-05
1.74139e-05
-2.40408e-05
2.69759e-05
-2.54757e-05
3.69707e-05
-1.99876e-05
4.67317e-05
-8.25581e-06
5.49212e-05
8.04041e-06
6.0424e-05
2.65339e-05
6.26777e-05
4.40341e-05
6.34787e-05
5.64681e-05
6.32821e-05
6.25256e-05
6.22894e-05
6.25663e-05
6.06762e-05
5.73248e-05
5.85015e-05
4.66072e-05
5.51393e-05
3.3462e-05
4.91818e-05
2.27769e-05
4.19264e-05
1.65123e-05
3.55241e-05
1.12479e-05
3.00889e-05
8.67273e-07
2.50719e-05
-1.52039e-05
2.03704e-05
-3.52704e-05
1.62859e-05
-5.56987e-05
1.19148e-05
-7.27296e-05
6.22811e-06
-8.77077e-05
-0.000100644
8.56139e-06
-1.79377e-05
1.62984e-05
-2.43536e-05
2.37214e-05
-3.03979e-05
2.95709e-05
-3.04733e-05
3.46491e-05
-2.4102e-05
3.94833e-05
-1.18757e-05
4.37795e-05
5.04017e-06
4.64816e-05
2.46865e-05
4.70199e-05
4.3548e-05
4.7567e-05
5.63337e-05
4.79661e-05
6.23693e-05
4.85125e-05
6.2209e-05
4.93798e-05
5.6683e-05
5.00657e-05
4.64359e-05
4.89496e-05
3.50761e-05
4.44823e-05
2.67557e-05
3.82986e-05
2.16278e-05
3.36496e-05
1.55192e-05
3.01738e-05
4.19814e-06
2.7158e-05
-1.21823e-05
2.37585e-05
-3.19213e-05
1.98762e-05
-5.17155e-05
1.505e-05
-6.74874e-05
7.86543e-06
-8.08987e-05
-9.36331e-05
1.1702e-05
-2.78265e-05
1.93094e-05
-3.15926e-05