/*--------------------------------*- C++ -*----------------------------------*\
| =========                 |                                                 |
| \\      /  F ield         | OpenFOAM: The Open Source CFD Toolbox           |
|  \\    /   O peration     | Version:  2.3.0                                 |
|   \\  /    A nd           | Web:      www.OpenFOAM.org                      |
|    \\/     M anipulation  |                                                 |
\*---------------------------------------------------------------------------*/
FoamFile
{
    version     2.0;
    format      ascii;
    class       volVectorField;
    location    "44";
    object      U.waterMean;
}
// * * * * * * * * * * * * * * * * * * * * * * * * * * * * * * * * * * * * * //

dimensions      [0 1 -1 0 0 0 0];

internalField   nonuniform List<vector> 
1875
(
(0.0634246 -0.212815 0)
(0.110533 -0.207553 0)
(0.178952 -0.185848 0)
(0.226782 -0.162298 0)
(0.255087 -0.138747 0)
(0.265957 -0.117913 0)
(0.261802 -0.101188 0)
(0.243741 -0.0843036 0)
(0.213503 -0.0707842 0)
(0.171029 -0.0596171 0)
(0.121306 -0.0495684 0)
(0.068176 -0.0465315 0)
(0.0131138 -0.0486447 0)
(-0.0397455 -0.0547092 0)
(-0.0902518 -0.0623902 0)
(-0.13762 -0.0701823 0)
(-0.178777 -0.0806621 0)
(-0.210777 -0.0933177 0)
(-0.231361 -0.105992 0)
(-0.239034 -0.11986 0)
(-0.232614 -0.136058 0)
(-0.210692 -0.156724 0)
(-0.169586 -0.181088 0)
(-0.106914 -0.20752 0)
(-0.0640364 -0.21834 0)
(0.0350667 -0.241993 0)
(0.0777955 -0.189494 0)
(0.117204 -0.111227 0)
(0.143077 -0.0442863 0)
(0.156671 0.013398 0)
(0.161812 0.0646757 0)
(0.158575 0.105958 0)
(0.146926 0.140036 0)
(0.130155 0.168783 0)
(0.107102 0.189744 0)
(0.07974 0.201888 0)
(0.0508801 0.20844 0)
(0.0203519 0.211502 0)
(-0.00944546 0.210276 0)
(-0.0389904 0.208234 0)
(-0.0670935 0.201399 0)
(-0.0907026 0.187005 0)
(-0.109664 0.162827 0)
(-0.123275 0.12817 0)
(-0.130187 0.0843696 0)
(-0.128981 0.031712 0)
(-0.121096 -0.0228237 0)
(-0.101339 -0.0897658 0)
(-0.0690525 -0.175693 0)
(-0.0310586 -0.238342 0)
(0.015824 -0.372908 0)
(0.0302911 -0.291383 0)
(0.0386813 -0.209489 0)
(0.0456308 -0.13814 0)
(0.0506734 -0.0747707 0)
(0.054879 -0.0182919 0)
(0.0574325 0.033861 0)
(0.0565376 0.0779306 0)
(0.0532841 0.113475 0)
(0.0483162 0.144776 0)
(0.0406966 0.166672 0)
(0.0305288 0.175557 0)
(0.0193499 0.177096 0)
(0.00778045 0.17048 0)
(-0.00349252 0.159997 0)
(-0.0112168 0.14195 0)
(-0.0182521 0.11544 0)
(-0.0221356 0.0813363 0)
(-0.0250639 0.0376428 0)
(-0.024897 -0.0123901 0)
(-0.0237827 -0.0630365 0)
(-0.0249978 -0.112857 0)
(-0.0236759 -0.171306 0)
(-0.0233616 -0.257239 0)
(-0.0123067 -0.353754 0)
(0.0027564 -0.380158 0)
(0.00328266 -0.276875 0)
(0.000331565 -0.190889 0)
(-0.000287538 -0.116501 0)
(0.0012847 -0.0491581 0)
(0.00397378 0.012758 0)
(0.00756849 0.0674481 0)
(0.00913112 0.113648 0)
(0.0110348 0.151435 0)
(0.0139019 0.183216 0)
(0.016892 0.205842 0)
(0.0196061 0.220004 0)
(0.0207196 0.225724 0)
(0.0212311 0.221278 0)
(0.0220502 0.211449 0)
(0.0231568 0.196358 0)
(0.0243164 0.172939 0)
(0.0251158 0.137416 0)
(0.0252269 0.0926408 0)
(0.0240435 0.0387342 0)
(0.0216107 -0.0197236 0)
(0.0165673 -0.0791385 0)
(0.0114562 -0.14502 0)
(0.00284432 -0.233546 0)
(0.000507809 -0.355707 0)
(-0.00319919 -0.389809 0)
(-0.007147 -0.286939 0)
(-0.0173566 -0.198619 0)
(-0.028604 -0.127214 0)
(-0.0359923 -0.0658145 0)
(-0.0391405 -0.00722934 0)
(-0.0380627 0.047392 0)
(-0.0352696 0.0915135 0)
(-0.0304483 0.127127 0)
(-0.0231453 0.155799 0)
(-0.0134369 0.176637 0)
(-0.00319008 0.193553 0)
(0.00641783 0.200687 0)
(0.0169351 0.197731 0)
(0.0276529 0.186582 0)
(0.0382193 0.170004 0)
(0.048511 0.144464 0)
(0.0573797 0.112721 0)
(0.0620482 0.0727728 0)
(0.0617706 0.0258432 0)
(0.0557853 -0.027132 0)
(0.0452968 -0.0800753 0)
(0.0296965 -0.143025 0)
(0.013056 -0.234498 0)
(0.00477178 -0.358396 0)
(-0.00511149 -0.377723 0)
(-0.0117028 -0.26374 0)
(-0.0243165 -0.163004 0)
(-0.0413666 -0.0877357 0)
(-0.0556553 -0.0338087 0)
(-0.0657158 0.0130972 0)
(-0.0685926 0.0556418 0)
(-0.0674101 0.0933085 0)
(-0.0618335 0.120881 0)
(-0.0523849 0.141639 0)
(-0.0400912 0.158024 0)
(-0.0250979 0.171841 0)
(-0.00864106 0.178107 0)
(0.00894323 0.173805 0)
(0.0264256 0.165114 0)
(0.0430041 0.151162 0)
(0.0574508 0.133627 0)
(0.0688963 0.111372 0)
(0.0747526 0.0843573 0)
(0.0743377 0.0512128 0)
(0.0662351 0.0121573 0)
(0.0516709 -0.0324166 0)
(0.0319496 -0.0969132 0)
(0.0144905 -0.199913 0)
(0.00551124 -0.339169 0)
(-0.0079345 -0.365042 0)
(-0.0132716 -0.251331 0)
(-0.0263286 -0.144699 0)
(-0.0418408 -0.0622804 0)
(-0.0595202 -0.0101697 0)
(-0.0715994 0.0279041 0)
(-0.0781194 0.0593088 0)
(-0.0789507 0.0841165 0)
(-0.0744509 0.100729 0)
(-0.0657684 0.112972 0)
(-0.053686 0.1219 0)
(-0.0382773 0.127688 0)
(-0.0196431 0.128397 0)
(-0.000285181 0.124057 0)
(0.0181767 0.118071 0)
(0.0349685 0.110102 0)
(0.0493914 0.0996471 0)
(0.0596791 0.0889925 0)
(0.0653481 0.0746482 0)
(0.0644814 0.0555216 0)
(0.0559254 0.0290003 0)
(0.040561 -0.00765141 0)
(0.0247546 -0.0781207 0)
(0.0111144 -0.187248 0)
(0.00514812 -0.328251 0)
(-0.0065591 -0.346317 0)
(-0.0123959 -0.227452 0)
(-0.0232478 -0.11558 0)
(-0.0346496 -0.0247007 0)
(-0.0511484 0.0273645 0)
(-0.0636276 0.055233 0)
(-0.0724556 0.0743328 0)
(-0.0743405 0.0880462 0)
(-0.0717804 0.0945687 0)
(-0.0640728 0.0964679 0)
(-0.0529762 0.096312 0)
(-0.0393591 0.0944419 0)
(-0.0223879 0.0915526 0)
(-0.00510289 0.0881144 0)
(0.0110013 0.0852747 0)
(0.0251 0.0829157 0)
(0.0369348 0.0817828 0)
(0.0445257 0.080794 0)
(0.0479015 0.0784389 0)
(0.0454331 0.0744904 0)
(0.0363892 0.0634632 0)
(0.023374 0.0286409 0)
(0.0111274 -0.0503773 0)
(0.0055267 -0.173166 0)
(0.00153551 -0.318533 0)
(-0.00599922 -0.333426 0)
(-0.00927479 -0.213708 0)
(-0.0170064 -0.102687 0)
(-0.0223967 -0.00672407 0)
(-0.0332052 0.0527195 0)
(-0.0448542 0.078181 0)
(-0.0537497 0.0886339 0)
(-0.0572308 0.0883038 0)
(-0.0567955 0.0828158 0)
(-0.0521804 0.0761356 0)
(-0.0444918 0.0701873 0)
(-0.0333793 0.0619787 0)
(-0.0202129 0.0552506 0)
(-0.00671079 0.0522212 0)
(0.00522467 0.0530834 0)
(0.0146511 0.0566885 0)
(0.0215321 0.0630502 0)
(0.0259856 0.0719355 0)
(0.0260719 0.0812583 0)
(0.0220072 0.0886322 0)
(0.0141904 0.0828796 0)
(0.00580186 0.0450534 0)
(0.00118595 -0.0453432 0)
(0.000166437 -0.172642 0)
(0.000359931 -0.319517 0)
(-0.0032521 -0.324319 0)
(-0.00360025 -0.202711 0)
(-0.00762572 -0.0924422 0)
(-0.00892463 0.00592782 0)
(-0.0130337 0.0740132 0)
(-0.0215403 0.101567 0)
(-0.0283143 0.105075 0)
(-0.0329238 0.0980821 0)
(-0.0350084 0.0860774 0)
(-0.0344914 0.0720618 0)
(-0.0313535 0.0570443 0)
(-0.0251494 0.0429127 0)
(-0.0184681 0.0351298 0)
(-0.0103025 0.0354322 0)
(-0.00299482 0.0404769 0)
(0.00436565 0.0478891 0)
(0.00803383 0.0593435 0)
(0.00883428 0.0750224 0)
(0.00557919 0.0918037 0)
(0.0001924 0.104593 0)
(-0.0056241 0.0998175 0)
(-0.0100694 0.0536539 0)
(-0.00724088 -0.046309 0)
(-0.00498766 -0.175295 0)
(-0.0008044 -0.325121 0)
(-0.000795055 -0.32612 0)
(0.00104464 -0.204161 0)
(0.00114192 -0.0939948 0)
(0.00308359 0.00496858 0)
(0.00343718 0.0791319 0)
(0.000855605 0.112313 0)
(-0.00450766 0.115863 0)
(-0.00876165 0.10506 0)
(-0.011849 0.0886865 0)
(-0.0139612 0.0699546 0)
(-0.0137645 0.051687 0)
(-0.0136511 0.0366323 0)
(-0.0123091 0.0228395 0)
(-0.00785812 0.0178527 0)
(-0.00425504 0.022206 0)
(1.00447e-05 0.0367363 0)
(0.00035013 0.057266 0)
(-0.00220608 0.0816984 0)
(-0.00742481 0.104122 0)
(-0.0137202 0.119781 0)
(-0.0190225 0.108174 0)
(-0.0186849 0.0476974 0)
(-0.0119014 -0.0612277 0)
(-0.00707767 -0.189844 0)
(-0.000626246 -0.337211 0)
(0.000843935 -0.331168 0)
(0.00388972 -0.208689 0)
(0.00614984 -0.098077 0)
(0.0110053 0.00100915 0)
(0.0140833 0.0783403 0)
(0.0155715 0.118303 0)
(0.0134851 0.125976 0)
(0.00949111 0.114509 0)
(0.00677654 0.0975301 0)
(0.00408709 0.0767816 0)
(0.00258846 0.0564635 0)
(0.00210151 0.0393859 0)
(0.00154705 0.0253497 0)
(0.000888043 0.0184583 0)
(-0.000796065 0.0236471 0)
(-0.00171222 0.0390284 0)
(-0.00385668 0.0651047 0)
(-0.00690367 0.0958259 0)
(-0.0137514 0.123061 0)
(-0.0195647 0.135311 0)
(-0.0231575 0.112941 0)
(-0.0184063 0.0366432 0)
(-0.0108342 -0.0744247 0)
(-0.00498463 -0.203776 0)
(-0.000730818 -0.346156 0)
(0.00164207 -0.340573 0)
(0.00477184 -0.216902 0)
(0.00787041 -0.108258 0)
(0.0132408 -0.0111262 0)
(0.0191389 0.0699011 0)
(0.0225595 0.115734 0)
(0.0239627 0.12952 0)
(0.0214372 0.120025 0)
(0.0185953 0.100054 0)
(0.0166944 0.0769519 0)
(0.0148947 0.0579965 0)
(0.0135018 0.0424806 0)
(0.01321 0.0290085 0)
(0.0105742 0.0259379 0)
(0.0057148 0.0320748 0)
(0.00138676 0.0470565 0)
(-0.003477 0.0721543 0)
(-0.00791408 0.104414 0)
(-0.0126687 0.135383 0)
(-0.0171598 0.14318 0)
(-0.0169458 0.108912 0)
(-0.00965696 0.0225089 0)
(-0.00391771 -0.0879038 0)
(-0.000873945 -0.214552 0)
(5.6545e-05 -0.351803 0)
(0.00174204 -0.350001 0)
(0.00502403 -0.224783 0)
(0.00830404 -0.11741 0)
(0.0133153 -0.0230689 0)
(0.0204029 0.0568325 0)
(0.025981 0.109293 0)
(0.0291642 0.127733 0)
(0.0300569 0.12486 0)
(0.0282625 0.106968 0)
(0.0256576 0.0846414 0)
(0.0233073 0.0632274 0)
(0.0220836 0.0457024 0)
(0.0207975 0.0362108 0)
(0.0178881 0.0395305 0)
(0.0126361 0.0469335 0)
(0.00759622 0.0611058 0)
(0.000387826 0.0834521 0)
(-0.00581694 0.115581 0)
(-0.0104111 0.146026 0)
(-0.0118823 0.145361 0)
(-0.0077529 0.098983 0)
(-0.0013672 0.0104399 0)
(0.00124802 -0.0943798 0)
(0.0011502 -0.216897 0)
(0.000219096 -0.353865 0)
(0.00136152 -0.358679 0)
(0.00380343 -0.233297 0)
(0.00682848 -0.127354 0)
(0.0108501 -0.0351491 0)
(0.0162436 0.0412724 0)
(0.0230119 0.0975313 0)
(0.0274574 0.120957 0)
(0.0303613 0.1213 0)
(0.0310718 0.109786 0)
(0.0315838 0.087448 0)
(0.030164 0.0677892 0)
(0.0282265 0.0499829 0)
(0.0264005 0.0404852 0)
(0.0238573 0.0461756 0)
(0.0189914 0.0577893 0)
(0.0132548 0.076296 0)
(0.0047835 0.100103 0)
(-0.00139847 0.129233 0)
(-0.0057481 0.150349 0)
(-0.00453967 0.141529 0)
(0.000497285 0.0900938 0)
(0.00481166 0.0028489 0)
(0.00388275 -0.0959666 0)
(0.00235223 -0.216932 0)
(0.000890764 -0.355152 0)
(0.000556772 -0.363655 0)
(0.00165893 -0.23787 0)
(0.00275397 -0.132516 0)
(0.0050559 -0.0411524 0)
(0.00872077 0.0322369 0)
(0.0142125 0.0846755 0)
(0.0203208 0.11204 0)
(0.0246063 0.11479 0)
(0.0283032 0.104147 0)
(0.0314444 0.0880126 0)
(0.0305938 0.0737281 0)
(0.0290773 0.0574508 0)
(0.0265465 0.0489641 0)
(0.0231076 0.0570047 0)
(0.0184138 0.0741584 0)
(0.0128815 0.0941759 0)
(0.00726338 0.11575 0)
(0.00327394 0.139192 0)
(0.00140344 0.15295 0)
(0.00372854 0.13521 0)
(0.00863296 0.0806269 0)
(0.00998836 0.00279324 0)
(0.00662391 -0.0922539 0)
(0.00420322 -0.213366 0)
(0.00191896 -0.352181 0)
(1.36322e-05 -0.36617 0)
(8.41169e-05 -0.240153 0)
(-0.000512852 -0.132952 0)
(-0.000272654 -0.0444711 0)
(0.00198973 0.0240821 0)
(0.00546494 0.0726251 0)
(0.0121378 0.0985015 0)
(0.0170862 0.101353 0)
(0.0206435 0.0919123 0)
(0.0231976 0.0827397 0)
(0.0242891 0.0728903 0)
(0.0247705 0.060607 0)
(0.0244717 0.0561726 0)
(0.0207725 0.0651985 0)
(0.0173427 0.0818887 0)
(0.0133117 0.102504 0)
(0.00932177 0.122396 0)
(0.00712885 0.143934 0)
(0.0071656 0.151258 0)
(0.0109385 0.127503 0)
(0.0132875 0.0775938 0)
(0.0121222 0.00768588 0)
(0.00974733 -0.0866399 0)
(0.00601389 -0.207286 0)
(0.00240073 -0.346788 0)
(-0.000161381 -0.366825 0)
(-0.000232841 -0.240635 0)
(-0.000767074 -0.131898 0)
(-0.00108832 -0.0448567 0)
(7.95075e-05 0.0201895 0)
(0.00311384 0.0633926 0)
(0.00840367 0.0864664 0)
(0.0118063 0.0919321 0)
(0.0138331 0.0857366 0)
(0.0140942 0.0771724 0)
(0.0160228 0.0692114 0)
(0.0160995 0.0604414 0)
(0.0164097 0.0588239 0)
(0.0145036 0.0721229 0)
(0.0117405 0.0907238 0)
(0.00841128 0.111298 0)
(0.00586865 0.129324 0)
(0.00516634 0.142638 0)
(0.00807716 0.144338 0)
(0.0114604 0.123256 0)
(0.013378 0.0776758 0)
(0.0124853 0.0114627 0)
(0.0110982 -0.0806158 0)
(0.00625491 -0.197598 0)
(0.00227931 -0.339064 0)
(0.000235112 -0.367789 0)
(-1.37331e-05 -0.242077 0)
(0.000125793 -0.13374 0)
(0.00169201 -0.0462236 0)
(0.00298645 0.0157371 0)
(0.00548713 0.0561727 0)
(0.00846167 0.0786867 0)
(0.0104584 0.0861054 0)
(0.0108607 0.0825354 0)
(0.00999372 0.0749268 0)
(0.00923089 0.0671399 0)
(0.006939 0.0611879 0)
(0.0042788 0.0614136 0)
(0.00100904 0.0762615 0)
(-0.000719681 0.0968751 0)
(-0.00218131 0.114067 0)
(-0.00119049 0.129791 0)
(0.00144443 0.137992 0)
(0.00451729 0.136392 0)
(0.00812204 0.118114 0)
(0.0111272 0.0768872 0)
(0.0109433 0.0144411 0)
(0.0100453 -0.0743089 0)
(0.00523804 -0.188357 0)
(0.00156446 -0.333212 0)
(-3.7112e-05 -0.368796 0)
(-0.000744474 -0.242567 0)
(-0.000671196 -0.136025 0)
(0.000888333 -0.0517907 0)
(0.00335229 0.0103244 0)
(0.00635186 0.0516479 0)
(0.00893504 0.0760865 0)
(0.0101471 0.0860838 0)
(0.00969179 0.0869593 0)
(0.00677477 0.0817246 0)
(0.00277067 0.0781232 0)
(-0.00331491 0.0750939 0)
(-0.00874839 0.0733598 0)
(-0.0125438 0.0816285 0)
(-0.0129034 0.0978544 0)
(-0.0119737 0.112201 0)
(-0.00895693 0.122126 0)
(-0.00414994 0.128175 0)
(-0.00111474 0.129074 0)
(0.00366076 0.109389 0)
(0.00714617 0.0718041 0)
(0.00821579 0.0142084 0)
(0.00726664 -0.0692626 0)
(0.00341844 -0.181894 0)
(0.00136884 -0.329962 0)
(-0.000496202 -0.367615 0)
(-0.00232935 -0.24119 0)
(-0.00311272 -0.136882 0)
(-0.0023539 -0.0559112 0)
(-0.000361998 0.00358338 0)
(0.00260213 0.0437241 0)
(0.00586217 0.0709928 0)
(0.00606805 0.0852114 0)
(0.00500844 0.091423 0)
(0.00156281 0.0932493 0)
(-0.00356472 0.092808 0)
(-0.00850988 0.0898018 0)
(-0.0125938 0.0849791 0)
(-0.015876 0.0875844 0)
(-0.0168826 0.0962761 0)
(-0.0153061 0.105964 0)
(-0.0114997 0.112368 0)
(-0.00756433 0.119728 0)
(-0.00311092 0.118567 0)
(0.00224486 0.101119 0)
(0.00545751 0.0669042 0)
(0.0060985 0.0141203 0)
(0.00493642 -0.0639229 0)
(0.00277045 -0.177197 0)
(0.00120924 -0.327879 0)
(-0.00102649 -0.364326 0)
(-0.0037958 -0.236896 0)
(-0.00618648 -0.135647 0)
(-0.00597091 -0.0576756 0)
(-0.00538157 -0.00122454 0)
(-0.00302155 0.0376422 0)
(-0.00140841 0.0683414 0)
(-0.00115357 0.0859588 0)
(-0.00254544 0.0965528 0)
(-0.00434757 0.100757 0)
(-0.00633932 0.101093 0)
(-0.00882717 0.0987489 0)
(-0.010813 0.0938749 0)
(-0.0120801 0.0949337 0)
(-0.0125122 0.0983245 0)
(-0.0108666 0.101805 0)
(-0.00842042 0.105993 0)
(-0.00553977 0.111746 0)
(-0.000877752 0.108933 0)
(0.00358372 0.0940668 0)
(0.00562082 0.065278 0)
(0.00576185 0.0158409 0)
(0.00485732 -0.0616527 0)
(0.00299479 -0.174464 0)
(0.00183552 -0.326093 0)
(-0.00156337 -0.358595 0)
(-0.00500551 -0.229658 0)
(-0.00895467 -0.13149 0)
(-0.0100614 -0.0562417 0)
(-0.0101742 -0.00119082 0)
(-0.00876532 0.0384607 0)
(-0.00790541 0.0697518 0)
(-0.0066866 0.0888598 0)
(-0.00604685 0.0976417 0)
(-0.00560573 0.10079 0)
(-0.00555307 0.103334 0)
(-0.0065267 0.101572 0)
(-0.00690123 0.0955901 0)
(-0.00677859 0.0953952 0)
(-0.005808 0.0970172 0)
(-0.00412875 0.0998866 0)
(-0.00284062 0.103143 0)
(-0.00110716 0.105116 0)
(0.00250433 0.101361 0)
(0.00544437 0.0881331 0)
(0.00696242 0.0645029 0)
(0.00663358 0.0179371 0)
(0.00659564 -0.0605867 0)
(0.00395468 -0.170832 0)
(0.00273207 -0.322957 0)
(-0.00129986 -0.353336 0)
(-0.0039492 -0.223238 0)
(-0.00818713 -0.125789 0)
(-0.0103915 -0.05525 0)
(-0.0105961 -0.00417563 0)
(-0.00943563 0.0350646 0)
(-0.00749194 0.064915 0)
(-0.00482447 0.0826235 0)
(-0.00232257 0.0929742 0)
(-0.00158187 0.0984273 0)
(-0.00126783 0.102871 0)
(-0.00190837 0.101967 0)
(-0.00156406 0.0969359 0)
(-0.00129236 0.0955558 0)
(-0.000466121 0.0958485 0)
(0.000180801 0.0981607 0)
(0.00122626 0.100426 0)
(0.00210138 0.0999707 0)
(0.00411638 0.0955903 0)
(0.00583622 0.083758 0)
(0.00695464 0.0626873 0)
(0.00730441 0.0176117 0)
(0.00798274 -0.0601242 0)
(0.00450095 -0.166412 0)
(0.00313259 -0.317367 0)
(-0.000991757 -0.349237 0)
(-0.00283402 -0.218197 0)
(-0.00477969 -0.119402 0)
(-0.00696943 -0.0524245 0)
(-0.00738125 -0.005473 0)
(-0.00668416 0.0321022 0)
(-0.00451739 0.0591096 0)
(-0.00170973 0.077303 0)
(0.000420383 0.0882351 0)
(0.000668472 0.096562 0)
(0.00124056 0.102504 0)
(0.0020027 0.101908 0)
(0.00386437 0.0958933 0)
(0.00426537 0.0955109 0)
(0.00445318 0.0961748 0)
(0.00362278 0.0973687 0)
(0.00330458 0.099018 0)
(0.00342773 0.0980493 0)
(0.00447237 0.0926903 0)
(0.00524958 0.0809183 0)
(0.0067933 0.0597971 0)
(0.00745589 0.0160869 0)
(0.00800179 -0.0579984 0)
(0.0045672 -0.1605 0)
(0.00314411 -0.310727 0)
(-0.000575109 -0.347592 0)
(-0.00102284 -0.217294 0)
(-0.0011701 -0.118927 0)
(-0.00117567 -0.0510634 0)
(-0.00197264 -0.00601909 0)
(-0.00214501 0.0292141 0)
(-0.000562668 0.0536948 0)
(0.00147489 0.0721992 0)
(0.00300892 0.0864567 0)
(0.00373383 0.0945294 0)
(0.00536372 0.0980853 0)
(0.00743114 0.0974712 0)
(0.00986453 0.093913 0)
(0.0103516 0.0963768 0)
(0.0101565 0.100182 0)
(0.00810918 0.10323 0)
(0.00621939 0.102807 0)
(0.00539648 0.0985272 0)
(0.00464357 0.0915531 0)
(0.00520409 0.0801819 0)
(0.00578656 0.0577208 0)
(0.00647189 0.014216 0)
(0.00598815 -0.0564251 0)
(0.00366977 -0.156679 0)
(0.00269365 -0.304828 0)
(-0.000429204 -0.347658 0)
(-0.000201502 -0.217991 0)
(0.00016225 -0.120365 0)
(0.0016654 -0.0516868 0)
(0.0024311 -0.00518753 0)
(0.00266418 0.0283804 0)
(0.00392202 0.0514117 0)
(0.00530408 0.0691424 0)
(0.00683641 0.0830963 0)
(0.00826014 0.0905435 0)
(0.00988485 0.093747 0)
(0.0114398 0.093914 0)
(0.0130791 0.0922358 0)
(0.0132317 0.0971919 0)
(0.012305 0.10407 0)
(0.0106733 0.109195 0)
(0.00856138 0.107923 0)
(0.0062032 0.103253 0)
(0.00357424 0.0939974 0)
(0.00296052 0.0799075 0)
(0.00280255 0.0581474 0)
(0.00392664 0.0124157 0)
(0.00350049 -0.0534508 0)
(0.00265298 -0.153824 0)
(0.00233839 -0.299615 0)
(-0.00063973 -0.348174 0)
(-0.000578805 -0.219467 0)
(-0.000179731 -0.123224 0)
(0.00175481 -0.0567889 0)
(0.00407185 -0.00905755 0)
(0.00600853 0.0251984 0)
(0.00759931 0.0483939 0)
(0.00899914 0.0661654 0)
(0.0107948 0.0810351 0)
(0.011931 0.0889854 0)
(0.0129589 0.0922322 0)
(0.013592 0.0926011 0)
(0.0136232 0.0925824 0)
(0.0121689 0.0995778 0)
(0.00923434 0.108079 0)
(0.00700679 0.113859 0)
(0.00440207 0.114098 0)
(0.00171619 0.109378 0)
(-0.00127056 0.0979765 0)
(-0.00313386 0.0812287 0)
(-0.00275756 0.0555502 0)
(-0.000953446 0.00964391 0)
(3.73401e-05 -0.0548331 0)
(0.00172209 -0.155129 0)
(0.00145924 -0.296571 0)
(-0.00117185 -0.347373 0)
(-0.00153803 -0.219621 0)
(-0.00167725 -0.126255 0)
(0.000320601 -0.0621195 0)
(0.00249892 -0.0146032 0)
(0.00531869 0.0198625 0)
(0.0075547 0.0447734 0)
(0.00913491 0.0631727 0)
(0.0105622 0.0779327 0)
(0.0123945 0.0861719 0)
(0.0128235 0.0913595 0)
(0.0127548 0.0940201 0)
(0.0109163 0.0982392 0)
(0.00759659 0.108505 0)
(0.00324515 0.11684 0)
(1.37552e-05 0.120661 0)
(-0.00297936 0.120661 0)
(-0.00532466 0.114837 0)
(-0.00776817 0.103293 0)
(-0.00932312 0.0832356 0)
(-0.00814335 0.0519037 0)
(-0.00523719 0.00455067 0)
(-0.00248664 -0.059824 0)
(0.000729946 -0.158927 0)
(0.000788156 -0.294906 0)
(-0.00160769 -0.345173 0)
(-0.00245672 -0.218066 0)
(-0.00354701 -0.128286 0)
(-0.00188178 -0.0665815 0)
(0.00010755 -0.0200803 0)
(0.00252973 0.0138083 0)
(0.00528088 0.0400055 0)
(0.00715424 0.0591597 0)
(0.0090272 0.0736404 0)
(0.00986117 0.084076 0)
(0.00949732 0.0921342 0)
(0.00795151 0.0982479 0)
(0.0049728 0.1065 0)
(0.00110298 0.118484 0)
(-0.00312118 0.127694 0)
(-0.00703424 0.13051 0)
(-0.0101116 0.127055 0)
(-0.0123146 0.119491 0)
(-0.0134677 0.105842 0)
(-0.0128133 0.082037 0)
(-0.0103064 0.0462559 0)
(-0.00711949 -0.00358705 0)
(-0.00327779 -0.068451 0)
(-0.000177542 -0.163483 0)
(0.000228473 -0.294981 0)
(-0.00194591 -0.341699 0)
(-0.00315838 -0.215003 0)
(-0.00528841 -0.128919 0)
(-0.00479161 -0.0704069 0)
(-0.00326068 -0.0238265 0)
(-0.00143469 0.00859884 0)
(0.000931331 0.0349717 0)
(0.00242747 0.0554094 0)
(0.00386543 0.072605 0)
(0.00370586 0.0862925 0)
(0.00305806 0.0970793 0)
(0.000683947 0.10675 0)
(-0.00266946 0.116604 0)
(-0.00670226 0.129942 0)
(-0.0106869 0.13839 0)
(-0.0137107 0.138719 0)
(-0.0155879 0.133863 0)
(-0.0169256 0.122784 0)
(-0.0160249 0.10509 0)
(-0.0135757 0.0776071 0)
(-0.0103111 0.0402932 0)
(-0.00689173 -0.0102412 0)
(-0.00304877 -0.0764985 0)
(-0.000674675 -0.167781 0)
(-0.000355347 -0.296209 0)
(-0.00219733 -0.336995 0)
(-0.00405503 -0.21033 0)
(-0.00677909 -0.12561 0)
(-0.00830422 -0.0713008 0)
(-0.00793253 -0.0272772 0)
(-0.00692283 0.00399598 0)
(-0.00623111 0.0304852 0)
(-0.00555063 0.0521313 0)
(-0.00495388 0.0708739 0)
(-0.00488788 0.0868305 0)
(-0.00526527 0.10062 0)
(-0.0070505 0.113034 0)
(-0.00935797 0.125304 0)
(-0.0121506 0.139368 0)
(-0.0145995 0.146317 0)
(-0.0163118 0.144474 0)
(-0.0172198 0.136578 0)
(-0.0168691 0.122102 0)
(-0.0147812 0.099977 0)
(-0.0118362 0.0714567 0)
(-0.00871048 0.0330111 0)
(-0.00527698 -0.0188342 0)
(-0.00255675 -0.0831355 0)
(-0.00064915 -0.172171 0)
(-0.00069287 -0.29781 0)
(-0.00238718 -0.330776 0)
(-0.0051458 -0.204458 0)
(-0.00821085 -0.120105 0)
(-0.0107451 -0.0672263 0)
(-0.0125894 -0.0264194 0)
(-0.0134011 0.00511004 0)
(-0.0140445 0.0310474 0)
(-0.0144991 0.0517334 0)
(-0.0144836 0.0705635 0)
(-0.0137645 0.0870981 0)
(-0.0129841 0.102422 0)
(-0.0132643 0.116869 0)
(-0.0142556 0.129956 0)
(-0.0152396 0.144287 0)
(-0.0156932 0.149529 0)
(-0.0153311 0.146012 0)
(-0.0144802 0.136295 0)
(-0.0128583 0.11995 0)
(-0.0106245 0.0954482 0)
(-0.0077272 0.0643533 0)
(-0.00483829 0.0265005 0)
(-0.00235648 -0.0247312 0)
(-0.00114664 -0.0880404 0)
(-0.000253439 -0.175156 0)
(-0.000688401 -0.299499 0)
(-0.00221408 -0.324035 0)
(-0.00533367 -0.197968 0)
(-0.00881576 -0.114361 0)
(-0.0116112 -0.0615118 0)
(-0.0139866 -0.0221548 0)
(-0.0152351 0.00707945 0)
(-0.0163388 0.0315698 0)
(-0.0178061 0.0521868 0)
(-0.0189456 0.069232 0)
(-0.0196351 0.0842144 0)
(-0.0191127 0.100558 0)
(-0.0184645 0.116419 0)
(-0.0175573 0.130711 0)
(-0.0164787 0.145014 0)
(-0.0149012 0.149206 0)
(-0.0127489 0.143894 0)
(-0.0104712 0.132552 0)
(-0.00765625 0.115622 0)
(-0.00503431 0.0909197 0)
(-0.00232137 0.0593913 0)
(-0.000847456 0.0210866 0)
(0.000724209 -0.0278295 0)
(0.00013636 -0.0898259 0)
(0.000298311 -0.176641 0)
(-0.00030455 -0.300944 0)
(-0.00214041 -0.316612 0)
(-0.00543196 -0.189796 0)
(-0.00905727 -0.10685 0)
(-0.0119307 -0.0552612 0)
(-0.0143634 -0.0178911 0)
(-0.0155408 0.0107411 0)
(-0.016518 0.0363333 0)
(-0.0182918 0.0582568 0)
(-0.019503 0.0749448 0)
(-0.0207328 0.0875691 0)
(-0.0209737 0.100476 0)
(-0.0200206 0.114577 0)
(-0.0183332 0.126891 0)
(-0.0160208 0.140954 0)
(-0.0130143 0.14331 0)
(-0.00936653 0.137901 0)
(-0.00682201 0.127218 0)
(-0.00355543 0.10939 0)
(-0.00112931 0.0847356 0)
(0.00183263 0.0537511 0)
(0.00222876 0.0185734 0)
(0.00297397 -0.0293209 0)
(0.00165958 -0.090072 0)
(0.00132703 -0.178109 0)
(0.000688362 -0.301596 0)
(-0.00165358 -0.310019 0)
(-0.00466437 -0.182671 0)
(-0.00752451 -0.100922 0)
(-0.00985528 -0.0497797 0)
(-0.0125726 -0.0145528 0)
(-0.0136238 0.0125794 0)
(-0.0143657 0.0383089 0)
(-0.0149808 0.0597039 0)
(-0.0151188 0.0758974 0)
(-0.0161945 0.0885111 0)
(-0.0172637 0.100299 0)
(-0.0175503 0.112307 0)
(-0.015817 0.122491 0)
(-0.0125687 0.135946 0)
(-0.00890789 0.137533 0)
(-0.00485367 0.132148 0)
(-0.00159803 0.121238 0)
(0.00154009 0.10345 0)
(0.00377687 0.0804051 0)
(0.00545786 0.0513804 0)
(0.00557694 0.0178479 0)
(0.00562151 -0.028567 0)
(0.00429759 -0.0885153 0)
(0.00319602 -0.176885 0)
(0.00191325 -0.299036 0)
(-0.00118695 -0.305086 0)
(-0.00382151 -0.177726 0)
(-0.0056495 -0.0971582 0)
(-0.00695776 -0.0450855 0)
(-0.0098765 -0.0105431 0)
(-0.0114594 0.0141316 0)
(-0.0124475 0.0386006 0)
(-0.0125041 0.0595597 0)
(-0.0126663 0.0780595 0)
(-0.0138675 0.0927006 0)
(-0.0152897 0.104161 0)
(-0.0162395 0.11263 0)
(-0.0145959 0.116983 0)
(-0.0111927 0.12665 0)
(-0.00711067 0.127745 0)
(-0.00313965 0.122177 0)
(0.000747859 0.113477 0)
(0.00386359 0.0980155 0)
(0.00592489 0.0766346 0)
(0.00747572 0.0493406 0)
(0.00767797 0.0179121 0)
(0.00721345 -0.0273742 0)
(0.00666968 -0.0869191 0)
(0.00464812 -0.17302 0)
(0.00284802 -0.293956 0)
(-0.00110866 -0.301019 0)
(-0.00346003 -0.172808 0)
(-0.00528971 -0.095764 0)
(-0.00521204 -0.041065 0)
(-0.00831809 -0.00559875 0)
(-0.0108755 0.0180521 0)
(-0.0132864 0.040393 0)
(-0.0140184 0.0599605 0)
(-0.0144173 0.0788147 0)
(-0.0147228 0.0957231 0)
(-0.0147965 0.106986 0)
(-0.014575 0.113182 0)
(-0.0128983 0.113119 0)
(-0.00990338 0.120138 0)
(-0.00644665 0.120916 0)
(-0.00349382 0.115283 0)
(-0.000334768 0.106009 0)
(0.00268099 0.0915771 0)
(0.00500608 0.0722483 0)
(0.00649725 0.0470218 0)
(0.00707576 0.0175424 0)
(0.00683679 -0.0274166 0)
(0.00753268 -0.0855962 0)
(0.00504146 -0.16762 0)
(0.00325427 -0.286984 0)
(-0.00159545 -0.297465 0)
(-0.00339157 -0.168071 0)
(-0.00589054 -0.0951188 0)
(-0.00535858 -0.0392716 0)
(-0.00738997 -0.000271067 0)
(-0.00942321 0.0236261 0)
(-0.0117549 0.0445089 0)
(-0.0133461 0.0616088 0)
(-0.014613 0.0800324 0)
(-0.0148133 0.0951429 0)
(-0.0139632 0.10547 0)
(-0.0132616 0.110409 0)
(-0.0115666 0.108474 0)
(-0.00896328 0.11397 0)
(-0.00537673 0.115228 0)
(-0.00291561 0.110274 0)
(-0.00064629 0.100408 0)
(0.00138078 0.0868417 0)
(0.00336673 0.0688396 0)
(0.00458445 0.0454965 0)
(0.00566665 0.0163635 0)
(0.006657 -0.0289115 0)
(0.00783714 -0.0852758 0)
(0.00499074 -0.162571 0)
(0.00326216 -0.279963 0)
(-0.00238381 -0.292604 0)
(-0.00403234 -0.162798 0)
(-0.00702844 -0.0922872 0)
(-0.007082 -0.0386603 0)
(-0.00716002 0.00201219 0)
(-0.00889935 0.0266635 0)
(-0.0104098 0.0486549 0)
(-0.0124478 0.0664223 0)
(-0.0136312 0.0832177 0)
(-0.0139302 0.0958562 0)
(-0.0132207 0.105134 0)
(-0.012774 0.110172 0)
(-0.0111933 0.105829 0)
(-0.009208 0.10811 0)
(-0.00688892 0.108249 0)
(-0.00456569 0.106312 0)
(-0.00290391 0.097018 0)
(-0.00149004 0.0828979 0)
(-2.47156e-05 0.0652613 0)
(0.00191295 0.0416016 0)
(0.004943 0.0119156 0)
(0.00717592 -0.0334258 0)
(0.00755357 -0.0841635 0)
(0.00464365 -0.157302 0)
(0.00302013 -0.273003 0)
(-0.00289057 -0.286445 0)
(-0.00483412 -0.157328 0)
(-0.00846674 -0.0885634 0)
(-0.0094997 -0.0398224 0)
(-0.00905241 0.00333105 0)
(-0.0103672 0.0296285 0)
(-0.0117818 0.0526142 0)
(-0.0134127 0.069809 0)
(-0.0139849 0.0847753 0)
(-0.014124 0.0957344 0)
(-0.0137104 0.104716 0)
(-0.0131964 0.108719 0)
(-0.0116811 0.103646 0)
(-0.0106293 0.106154 0)
(-0.00997317 0.105434 0)
(-0.00864338 0.10189 0)
(-0.00640841 0.0934775 0)
(-0.00424896 0.0798868 0)
(-0.00201216 0.0614788 0)
(0.00136175 0.0347841 0)
(0.00593241 0.00495601 0)
(0.00746371 -0.0351356 0)
(0.00748273 -0.0810082 0)
(0.00437931 -0.151209 0)
(0.00267963 -0.266426 0)
(-0.00358792 -0.279544 0)
(-0.0055161 -0.150268 0)
(-0.0100694 -0.0831106 0)
(-0.0122618 -0.0380482 0)
(-0.0131741 0.00361551 0)
(-0.0136636 0.0317706 0)
(-0.0146064 0.0554864 0)
(-0.0153302 0.0718908 0)
(-0.015821 0.085345 0)
(-0.0159013 0.0962049 0)
(-0.0164629 0.104866 0)
(-0.0162852 0.108526 0)
(-0.0154612 0.10318 0)
(-0.0154488 0.105959 0)
(-0.0148219 0.103877 0)
(-0.0133608 0.0979933 0)
(-0.010752 0.0872781 0)
(-0.00787034 0.0725434 0)
(-0.00396666 0.0528103 0)
(0.000439834 0.0237207 0)
(0.0042775 -0.00243452 0)
(0.00463216 -0.0369451 0)
(0.00535371 -0.0800946 0)
(0.00291821 -0.146496 0)
(0.00194348 -0.261135 0)
(-0.00411341 -0.270511 0)
(-0.00619982 -0.140939 0)
(-0.0113117 -0.075106 0)
(-0.0139819 -0.03255 0)
(-0.0168496 0.00642568 0)
(-0.0170081 0.0325275 0)
(-0.0178017 0.0564702 0)
(-0.0184203 0.0723824 0)
(-0.0189344 0.0862444 0)
(-0.0193291 0.0975819 0)
(-0.020063 0.106322 0)
(-0.0196932 0.10765 0)
(-0.0199149 0.103938 0)
(-0.0198725 0.10637 0)
(-0.0192152 0.102067 0)
(-0.0170024 0.0937398 0)
(-0.0135051 0.0811374 0)
(-0.00970696 0.0641944 0)
(-0.00508943 0.0434715 0)
(-0.00122781 0.0155942 0)
(0.00108143 -0.00607712 0)
(0.00160441 -0.0384493 0)
(0.00289703 -0.0801301 0)
(0.00125391 -0.144291 0)
(0.00120343 -0.258181 0)
(-0.00401167 -0.261694 0)
(-0.00578823 -0.133188 0)
(-0.00976059 -0.0671288 0)
(-0.0127187 -0.0259019 0)
(-0.0157194 0.00995703 0)
(-0.0162386 0.0340768 0)
(-0.0167658 0.0589771 0)
(-0.0176276 0.0745567 0)
(-0.0181519 0.087522 0)
(-0.01908 0.0987706 0)
(-0.0193871 0.106693 0)
(-0.0191145 0.108873 0)
(-0.0200331 0.105464 0)
(-0.0200336 0.10671 0)
(-0.0187967 0.0987174 0)
(-0.0157095 0.0872546 0)
(-0.0117759 0.0723983 0)
(-0.00744588 0.05458 0)
(-0.0030239 0.0359586 0)
(-0.000308539 0.0106897 0)
(0.00124079 -0.00826335 0)
(0.00197387 -0.0404062 0)
(0.00228405 -0.0800428 0)
(0.00101866 -0.142671 0)
(0.00101718 -0.256112 0)
(-0.00360046 -0.253538 0)
(-0.00497082 -0.127811 0)
(-0.00751808 -0.0615738 0)
(-0.00941056 -0.0202676 0)
(-0.0116131 0.0125303 0)
(-0.0117329 0.0336815 0)
(-0.0112581 0.058799 0)
(-0.0109055 0.07526 0)
(-0.0110772 0.0898362 0)
(-0.0118505 0.100541 0)
(-0.011869 0.106426 0)
(-0.0120375 0.109663 0)
(-0.0120217 0.10751 0)
(-0.0124941 0.106436 0)
(-0.0117495 0.0941536 0)
(-0.00990744 0.0803596 0)
(-0.00714627 0.0644683 0)
(-0.00414265 0.0462789 0)
(-0.000595214 0.0296335 0)
(0.00131657 0.00741969 0)
(0.00280533 -0.0102349 0)
(0.00279279 -0.040984 0)
(0.00158982 -0.0792291 0)
(0.000861159 -0.14293 0)
(0.000933993 -0.254679 0)
(-0.00307785 -0.246569 0)
(-0.00398374 -0.122668 0)
(-0.00577729 -0.0583091 0)
(-0.00611379 -0.0172016 0)
(-0.00658163 0.0136021 0)
(-0.00612072 0.032376 0)
(-0.00555433 0.0571902 0)
(-0.00509957 0.0745506 0)
(-0.00550472 0.0900049 0)
(-0.00573805 0.100643 0)
(-0.00561262 0.10659 0)
(-0.00544271 0.10939 0)
(-0.00468727 0.107172 0)
(-0.00368307 0.107432 0)
(-0.00340697 0.094555 0)
(-0.00335216 0.0787541 0)
(-0.00238188 0.0607931 0)
(-0.000405692 0.0410374 0)
(0.00157544 0.0251183 0)
(0.00303881 0.00435856 0)
(0.00417128 -0.0115258 0)
(0.0029292 -0.0380929 0)
(0.00183594 -0.0774993 0)
(0.00117508 -0.142801 0)
(0.000936587 -0.25314 0)
(-0.00267163 -0.241311 0)
(-0.00290335 -0.119759 0)
(-0.00388633 -0.0577187 0)
(-0.00317295 -0.0190965 0)
(-0.00200077 0.0119036 0)
(-0.00152944 0.0300884 0)
(-0.00158957 0.0559063 0)
(-0.00155334 0.0750209 0)
(-0.00198423 0.0915215 0)
(-0.00165816 0.100586 0)
(-0.00138083 0.105859 0)
(-0.000357753 0.108826 0)
(0.000690882 0.10442 0)
(0.00222999 0.105504 0)
(0.00341363 0.0951263 0)
(0.00353127 0.0793024 0)
(0.00417493 0.0588192 0)
(0.00468622 0.0384598 0)
(0.00533545 0.0225808 0)
(0.00526998 0.00296819 0)
(0.00480826 -0.0103217 0)