/*--------------------------------*- C++ -*----------------------------------*\
| =========                 |                                                 |
| \\      /  F ield         | OpenFOAM: The Open Source CFD Toolbox           |
|  \\    /   O peration     | Version:  2.3.0                                 |
|   \\  /    A nd           | Web:      www.OpenFOAM.org                      |
|    \\/     M anipulation  |                                                 |
\*---------------------------------------------------------------------------*/
FoamFile
{
    version     2.0;
    format      ascii;
    class       volScalarField;
    location    "0.17";
    object      alpha.particlesMean;
}
// * * * * * * * * * * * * * * * * * * * * * * * * * * * * * * * * * * * * * //

dimensions      [0 0 0 0 0 0 0];

internalField   nonuniform List<scalar> 
6000
(
0.385739
0.389779
0.389503
0.389618
0.390161
0.390602
0.391047
0.391191
0.391353
0.391369
0.391481
0.391476
0.391534
0.391478
0.391495
0.391475
0.391517
0.391509
0.391524
0.391441
0.391421
0.391311
0.391246
0.391002
0.390656
0.390103
0.389656
0.389443
0.389824
0.38571
0.380882
0.387412
0.386084
0.386135
0.386576
0.387389
0.387947
0.388532
0.388743
0.389001
0.389041
0.389197
0.389172
0.389263
0.389199
0.389226
0.389208
0.389208
0.389131
0.389085
0.388926
0.388793
0.388444
0.388
0.387287
0.386634
0.386037
0.38615
0.387331
0.380964
0.368031
0.388428
0.386109
0.385498
0.38624
0.386848
0.387616
0.388106
0.388536
0.388676
0.388879
0.388911
0.389026
0.389005
0.389086
0.389043
0.389045
0.388977
0.38896
0.388816
0.388732
0.388465
0.388172
0.387536
0.386926
0.386174
0.385591
0.38612
0.388531
0.368054
0.345502
0.369122
0.366484
0.36602
0.367326
0.371424
0.377879
0.384799
0.38839
0.389824
0.390215
0.390418
0.390444
0.390541
0.390541
0.390583
0.390512
0.390495
0.390382
0.390288
0.389789
0.388482
0.384815
0.378055
0.371524
0.367541
0.366138
0.366621
0.369159
0.345401
0.342035
0.354707
0.354975
0.353021
0.349608
0.348482
0.351693
0.359613
0.367419
0.372403
0.374504
0.375149
0.375346
0.375479
0.375562
0.3756
0.375521
0.375423
0.375205
0.374598
0.37249
0.367566
0.359753
0.351923
0.348517
0.349764
0.353006
0.355022
0.35466
0.341949
0.350055
0.365483
0.36723
0.363613
0.358108
0.352609
0.349196
0.34721
0.348978
0.351842
0.353516
0.35403
0.354254
0.354324
0.354435
0.354421
0.354393
0.35427
0.354117
0.353538
0.351964
0.348972
0.347335
0.348957
0.3528
0.358006
0.363792
0.367309
0.365496
0.349923
0.360811
0.383096
0.388397
0.382118
0.371911
0.363544
0.357894
0.35512
0.353461
0.353001
0.352629
0.352685
0.352586
0.35271
0.352619
0.352715
0.352579
0.352653
0.352531
0.352705
0.352811
0.353604
0.354855
0.35808
0.363402
0.372103
0.382392
0.388619
0.383089
0.360724
0.378069
0.404966
0.415709
0.40841
0.391599
0.376138
0.367989
0.363548
0.361769
0.36074
0.360543
0.360305
0.360401
0.360298
0.360411
0.360293
0.360375
0.360243
0.360374
0.360361
0.360839
0.361527
0.36372
0.367747
0.376245
0.39185
0.408763
0.415943
0.405122
0.378429
0.409219
0.429541
0.440717
0.434726
0.415145
0.391457
0.378603
0.37313
0.370394
0.369514
0.369021
0.369028
0.368945
0.369048
0.368985
0.369051
0.368946
0.368989
0.368893
0.369079
0.369334
0.370513
0.372873
0.378683
0.391362
0.415301
0.434886
0.440916
0.430207
0.410559
0.445479
0.454692
0.459718
0.454441
0.435818
0.407759
0.390096
0.382885
0.37995
0.378652
0.378391
0.378309
0.378448
0.378473
0.378557
0.378507
0.378499
0.378364
0.378329
0.378272
0.378706
0.379766
0.382976
0.38985
0.407349
0.435445
0.453862
0.459734
0.455559
0.44775
0.477771
0.47652
0.472646
0.466322
0.450154
0.421815
0.401519
0.393357
0.389684
0.388459
0.38812
0.388287
0.388476
0.388664
0.388736
0.388748
0.388632
0.388473
0.388223
0.388129
0.38835
0.389734
0.393176
0.401376
0.421146
0.449106
0.465004
0.470541
0.47626
0.480698
0.502138
0.493145
0.478727
0.473167
0.459214
0.433237
0.413019
0.403896
0.399952
0.398482
0.398317
0.398619
0.399032
0.399334
0.399491
0.399488
0.39933
0.399015
0.398611
0.398274
0.398496
0.39987
0.403912
0.412839
0.432694
0.458003
0.471142
0.475125
0.49042
0.505427
0.515434
0.501646
0.482796
0.47782
0.465813
0.443334
0.424455
0.41484
0.410388
0.408867
0.40875
0.40929
0.409937
0.410419
0.410668
0.410662
0.410433
0.409937
0.409294
0.408752
0.408857
0.41043
0.414833
0.424456
0.44324
0.46515
0.475742
0.47913
0.494832
0.51818
0.51851
0.503662
0.487789
0.482169
0.471835
0.453027
0.435971
0.42595
0.42114
0.419434
0.419406
0.420169
0.421014
0.421651
0.421949
0.421962
0.421657
0.421043
0.420186
0.419439
0.419471
0.421207
0.426074
0.436213
0.453449
0.47198
0.481087
0.48424
0.498088
0.518198
0.516034
0.505486
0.493558
0.486205
0.477747
0.462485
0.447378
0.437223
0.432063
0.430155
0.430114
0.430868
0.431728
0.432356
0.432684
0.432679
0.432379
0.431744
0.430913
0.430159
0.430242
0.43219
0.437473
0.447843
0.46328
0.478753
0.487056
0.491874
0.50413
0.509372
0.513228
0.500448
0.496644
0.489227
0.483097
0.471211
0.458105
0.44837
0.442963
0.440756
0.440391
0.440892
0.441569
0.442136
0.44242
0.442435
0.442139
0.441604
0.440924
0.440465
0.440857
0.443156
0.448706
0.458779
0.472396
0.484995
0.492687
0.501993
0.50719
0.502439
0.513681
0.488407
0.494674
0.491598
0.487048
0.478587
0.467644
0.458711
0.453266
0.450672
0.44988
0.450003
0.450471
0.450902
0.451165
0.451158
0.450928
0.450487
0.450056
0.449943
0.450806
0.453475
0.45913
0.468476
0.480108
0.489309
0.496525
0.507776
0.50447
0.497986
0.513397
0.487273
0.490997
0.493301
0.490257
0.484327
0.475702
0.467779
0.462462
0.459607
0.458419
0.458227
0.458442
0.458758
0.45894
0.458956
0.458762
0.458482
0.458263
0.458509
0.459731
0.462706
0.468207
0.476579
0.485595
0.491571
0.498287
0.503249
0.492423
0.498558
0.499693
0.488679
0.487965
0.494272
0.492957
0.4886
0.482085
0.475385
0.470406
0.467435
0.466003
0.465517
0.465529
0.465676
0.465813
0.465804
0.465705
0.465549
0.46558
0.46608
0.467582
0.470626
0.475797
0.482762
0.488971
0.493196
0.497423
0.494634
0.485942
0.509793
0.485474
0.493021
0.492873
0.497496
0.495155
0.491455
0.486715
0.481437
0.477013
0.474128
0.472539
0.471857
0.471644
0.47167
0.471711
0.471724
0.471675
0.471688
0.4719
0.472636
0.47425
0.477221
0.481758
0.487107
0.49101
0.494386
0.495431
0.48762
0.486248
0.514367
0.481178
0.498285
0.507882
0.510228
0.50014
0.493366
0.489901
0.485891
0.482243
0.479583
0.477984
0.47714
0.476787
0.47666
0.476656
0.476645
0.476688
0.476808
0.477204
0.478055
0.479705
0.482386
0.486087
0.48977
0.492328
0.495423
0.493849
0.487955
0.489835
0.496787
0.481054
0.506423
0.520484
0.518289
0.507363
0.495438
0.492284
0.489007
0.486095
0.483805
0.482265
0.481386
0.480919
0.480723
0.480641
0.480654
0.480729
0.480964
0.481423
0.482331
0.483861
0.486137
0.488846
0.491252
0.493243
0.498895
0.501936
0.497139
0.493787
0.483422
0.482523
0.514977
0.518241
0.513097
0.508233
0.496467
0.493564
0.490947
0.488679
0.486806
0.485459
0.484599
0.484129
0.483868
0.483779
0.48377
0.48389
0.484142
0.484637
0.485474
0.486817
0.488562
0.490464
0.492311
0.494578
0.507563
0.517819
0.514139
0.495614
0.481869
0.493128
0.513501
0.496951
0.497566
0.503812
0.496728
0.493404
0.49184
0.490139
0.488752
0.487657
0.486922
0.486453
0.48621
0.486093
0.486104
0.486205
0.486472
0.486918
0.487669
0.488721
0.490029
0.491439
0.493311
0.496719
0.512522
0.517745
0.522144
0.509469
0.482286
0.506345
0.501599
0.491043
0.493261
0.499751
0.496317
0.492785
0.492
0.490832
0.489863
0.489076
0.488475
0.488092
0.487858
0.487771
0.487762
0.487868
0.488086
0.488488
0.489077
0.489862
0.490793
0.491942
0.493437
0.498012
0.507058
0.500338
0.515676
0.519872
0.48687
0.514343
0.490242
0.489166
0.491095
0.497139
0.49595
0.49238
0.491872
0.491082
0.490439
0.489917
0.489505
0.489203
0.489033
0.488948
0.488954
0.489027
0.489214
0.489512
0.489945
0.490466
0.491138
0.492021
0.493065
0.49765
0.500245
0.494454
0.495724
0.515457
0.499204
0.518628
0.491265
0.48896
0.489746
0.494876
0.495437
0.492181
0.491701
0.491156
0.490724
0.49042
0.490158
0.489974
0.489846
0.489795
0.489791
0.489854
0.489973
0.490178
0.490438
0.490777
0.491248
0.491936
0.49264
0.49661
0.496797
0.492448
0.49201
0.493277
0.507397
0.514238
0.49773
0.489805
0.489223
0.492783
0.494484
0.492138
0.491527
0.491193
0.490906
0.490711
0.490577
0.49047
0.490408
0.490357
0.490364
0.490406
0.490479
0.490583
0.490735
0.490943
0.491283
0.491786
0.492162
0.495724
0.494381
0.489582
0.488238
0.487121
0.508403
0.511195
0.507453
0.496354
0.489403
0.491037
0.493264
0.492118
0.491404
0.491222
0.491039
0.490916
0.490842
0.4908
0.490771
0.490738
0.490735
0.490774
0.490801
0.490852
0.490931
0.491071
0.491294
0.491618
0.491994
0.494448
0.491879
0.487481
0.486941
0.487486
0.509963
0.51018
0.504152
0.501823
0.489332
0.490259
0.49217
0.491995
0.491355
0.491234
0.491139
0.491065
0.491034
0.491018
0.491017
0.49099
0.490989
0.491014
0.491021
0.491038
0.491077
0.491161
0.491288
0.491418
0.491859
0.492835
0.489767
0.487146
0.487799
0.490053
0.509758
0.511173
0.488422
0.499358
0.490212
0.48981
0.491364
0.491708
0.491349
0.491232
0.491196
0.491174
0.491168
0.491175
0.491183
0.49117
0.491168
0.491182
0.491174
0.491167
0.491167
0.491189
0.491237
0.491196
0.491509
0.491381
0.488999
0.487866
0.493146
0.493736
0.50988
0.511551
0.477432
0.495698
0.491695
0.489802
0.490791
0.491351
0.491257
0.49118
0.491182
0.491208
0.491236
0.491263
0.491281
0.491283
0.491283
0.49128
0.491262
0.491229
0.491189
0.491148
0.491147
0.491016
0.490997
0.490254
0.489062
0.489599
0.497425
0.49536
0.511209
0.501943
0.474754
0.489285
0.492038
0.489901
0.490483
0.490966
0.491045
0.491041
0.491074
0.491144
0.491208
0.491261
0.491292
0.491301
0.491303
0.491293
0.491261
0.491203
0.491128
0.49104
0.491006
0.490759
0.490481
0.489741
0.489458
0.49158
0.49719
0.494032
0.515287
0.480725
0.472688
0.479835
0.490298
0.490377
0.490266
0.490499
0.490729
0.490817
0.490893
0.490998
0.491097
0.49117
0.491212
0.491231
0.491234
0.491219
0.491174
0.491097
0.490993
0.490875
0.490796
0.490433
0.490049
0.489592
0.489921
0.492928
0.495222
0.495143
0.516127
0.467506
0.472308
0.475544
0.488529
0.491214
0.49012
0.48999
0.490324
0.490529
0.490675
0.490813
0.490937
0.491032
0.491082
0.49111
0.491111
0.491094
0.491036
0.490942
0.490815
0.490671
0.490527
0.490068
0.489741
0.489531
0.490322
0.493206
0.493587
0.496282
0.509851
0.465903
0.473027
0.481861
0.49267
0.497166
0.492621
0.489562
0.489891
0.490197
0.490429
0.490608
0.490758
0.490875
0.49094
0.490973
0.490973
0.490946
0.490876
0.490763
0.490615
0.490446
0.490216
0.48973
0.489523
0.489474
0.490514
0.492756
0.493305
0.498308
0.499417
0.46558
0.467819
0.498109
0.511802
0.509596
0.498377
0.490044
0.489591
0.489892
0.490191
0.490405
0.490577
0.490713
0.490792
0.490833
0.49083
0.490794
0.490709
0.490579
0.49041
0.490214
0.48989
0.489482
0.489333
0.48943
0.490385
0.492695
0.497674
0.501479
0.492623
0.466003
0.475878
0.515512
0.522011
0.516013
0.501562
0.491592
0.489492
0.489755
0.489998
0.490207
0.490404
0.49055
0.49064
0.490688
0.490681
0.490636
0.490541
0.490398
0.490213
0.489992
0.48963
0.489309
0.48917
0.489368
0.489969
0.495728
0.508609
0.505288
0.488506
0.470809
0.500497
0.521547
0.521604
0.510683
0.499979
0.492591
0.489337
0.489643
0.489839
0.490053
0.490246
0.490393
0.490486
0.49054
0.49053
0.49048
0.490379
0.490231
0.490039
0.489796
0.489432
0.489172
0.489074
0.489228
0.489755
0.501173
0.51587
0.51278
0.486326
0.496657
0.516612
0.521769
0.502217
0.494712
0.497792
0.492001
0.48916
0.489471
0.489691
0.489928
0.490107
0.490245
0.490338
0.490392
0.490382
0.490326
0.490228
0.490083
0.48989
0.489633
0.489283
0.489067
0.488989
0.488975
0.490335
0.50144
0.514598
0.51726
0.489415
0.511497
0.517168
0.505629
0.48856
0.488242
0.496631
0.490841
0.489055
0.489279
0.489556
0.489802
0.489978
0.49011
0.490195
0.490251
0.490243
0.490182
0.490092
0.489952
0.489757
0.489494
0.489168
0.488974
0.488868
0.488498
0.490721
0.497577
0.507692
0.511056
0.506291
0.516775
0.503589
0.489645
0.484268
0.48459
0.495062
0.489789
0.488934
0.489117
0.489432
0.489676
0.489856
0.489984
0.490066
0.490123
0.490118
0.490055
0.48997
0.489832
0.489636
0.489372
0.489067
0.48887
0.488728
0.488161
0.490588
0.492378
0.492486
0.492478
0.518675
0.513327
0.490429
0.482403
0.481678
0.482959
0.493095
0.489172
0.488761
0.48899
0.48931
0.489555
0.489739
0.489865
0.489949
0.490007
0.490005
0.489943
0.489855
0.48972
0.489522
0.48926
0.488972
0.488754
0.488565
0.487903
0.489958
0.489262
0.48778
0.487182
0.519842
0.508797
0.486545
0.481326
0.481518
0.482599
0.490845
0.488912
0.488565
0.488877
0.489193
0.489439
0.489628
0.489755
0.489845
0.489898
0.489898
0.489842
0.489748
0.489613
0.489416
0.489158
0.488877
0.488634
0.488376
0.487701
0.488701
0.486939
0.485513
0.487851
0.513661
0.508915
0.487966
0.481827
0.48138
0.482555
0.488592
0.488685
0.488402
0.488765
0.489083
0.489335
0.489523
0.489643
0.489725
0.489767
0.489767
0.489724
0.489639
0.489516
0.489321
0.489065
0.488779
0.4885
0.488145
0.487341
0.487496
0.485513
0.485635
0.489001
0.508267
0.509289
0.490881
0.481997
0.481495
0.482588
0.486838
0.488355
0.488259
0.48865
0.488981
0.489236
0.489406
0.489511
0.489584
0.489615
0.489618
0.489582
0.489512
0.489406
0.489232
0.488976
0.488675
0.488355
0.487869
0.486909
0.486274
0.48542
0.485483
0.489849
0.504501
0.50973
0.495711
0.483593
0.481332
0.482737
0.48574
0.487936
0.488134
0.488532
0.488877
0.489135
0.48928
0.489368
0.489417
0.489438
0.489438
0.489423
0.489371
0.489286
0.489135
0.488885
0.488564
0.488199
0.487571
0.486526
0.485692
0.485264
0.485718
0.49098
0.502006
0.510751
0.500969
0.4883
0.481551
0.483089
0.485241
0.487484
0.488012
0.488411
0.488765
0.489012
0.48913
0.489195
0.489231
0.489248
0.489254
0.489234
0.489206
0.489139
0.489023
0.488788
0.48845
0.488035
0.487281
0.486307
0.485545
0.485258
0.486683
0.492089
0.50165
0.510643
0.506227
0.49624
0.482422
0.483492
0.485078
0.487065
0.48785
0.488278
0.488633
0.488857
0.488957
0.489015
0.489046
0.48907
0.489068
0.489054
0.48902
0.488971
0.488877
0.488671
0.488324
0.487862
0.48706
0.486205
0.485574
0.485278
0.488896
0.492095
0.501775
0.510811
0.507261
0.502046
0.483978
0.483829
0.485063
0.486772
0.487667
0.488135
0.488484
0.488685
0.488792
0.488843
0.488879
0.488899
0.488904
0.488878
0.488852
0.488799
0.488709
0.488518
0.488185
0.487701
0.486897
0.486154
0.485573
0.485589
0.49074
0.491707
0.499284
0.511134
0.5041
0.503106
0.486735
0.484282
0.485137
0.48661
0.487493
0.487987
0.48833
0.488528
0.488646
0.488695
0.488728
0.488761
0.488757
0.488733
0.488694
0.488649
0.488545
0.488356
0.488037
0.487542
0.486778
0.486097
0.48561
0.485904
0.491242
0.493614
0.495315
0.509192
0.496004
0.498287
0.489731
0.484818
0.485262
0.48654
0.487355
0.487847
0.488182
0.488383
0.48852
0.488566
0.488603
0.488632
0.488636
0.4886
0.488568
0.488518
0.488396
0.488202
0.487887
0.48739
0.486686
0.486024
0.485573
0.486041
0.492212
0.495131
0.492911
0.507294
0.488588
0.486067
0.489687
0.485712
0.485441
0.486535
0.487261
0.487725
0.488043
0.48825
0.488384
0.488449
0.488484
0.488517
0.488514
0.488486
0.488446
0.488391
0.488256
0.48806
0.487745
0.487264
0.486621
0.485953
0.48546
0.486498
0.492993
0.490787
0.491736
0.504538
0.486069
0.480052
0.486962
0.486511
0.485694
0.486574
0.487206
0.48763
0.487914
0.488124
0.488251
0.488337
0.488372
0.488402
0.488406
0.48837
0.488337
0.488254
0.488129
0.487929
0.487621
0.487176
0.48658
0.485901
0.485402
0.486917
0.488952
0.484394
0.491961
0.501776
0.48438
0.480077
0.483506
0.486775
0.485971
0.486631
0.487176
0.487559
0.487805
0.488002
0.488125
0.488217
0.488262
0.488292
0.488293
0.488265
0.48822
0.488129
0.488008
0.487812
0.487531
0.487123
0.486565
0.485888
0.485511
0.486156
0.484277
0.480427
0.493259
0.50078
0.483714
0.479769
0.482253
0.485843
0.486187
0.486648
0.487153
0.487497
0.487717
0.487883
0.488004
0.488093
0.488155
0.488186
0.488191
0.488159
0.488101
0.488012
0.487897
0.487709
0.487467
0.487094
0.486569
0.485921
0.485529
0.483692
0.481661
0.480369
0.494566
0.501149
0.484173
0.479921
0.481175
0.484033
0.486176
0.486613
0.487111
0.487435
0.487633
0.487765
0.487888
0.487975
0.488047
0.488081
0.488084
0.488055
0.487987
0.487902
0.48779
0.487629
0.487418
0.487075
0.486579
0.485976
0.48525
0.481188
0.480349
0.48058
0.496959
0.501659
0.486743
0.479612
0.48031
0.482823
0.485888
0.486547
0.487049
0.487365
0.48755
0.487654
0.487774
0.487862
0.487931
0.487977
0.487983
0.487941
0.487877
0.487794
0.487684
0.487559
0.48737
0.487053
0.486576
0.485976
0.484617
0.479981
0.479528
0.483233
0.500079
0.501839
0.488851
0.479726
0.479946
0.482013
0.485543
0.486453
0.486967
0.487289
0.487463
0.487557
0.48766
0.48775
0.48782
0.487869
0.487875
0.487831
0.487769
0.487687
0.487581
0.487487
0.487317
0.487015
0.486524
0.485906
0.483662
0.479731
0.479682
0.486226
0.502193
0.500831
0.489459
0.480508
0.480058
0.481503
0.485249
0.486316
0.486864
0.487197
0.487373
0.487461
0.487548
0.487641
0.48771
0.487765
0.48777
0.487722
0.487662
0.487579
0.487489
0.487409
0.48725
0.486957
0.486444
0.485714
0.482636
0.479807
0.47938
0.488448
0.503105
0.494216
0.487296
0.483475
0.479988
0.481477
0.48502
0.486175
0.48675
0.487094
0.487275
0.487367
0.487437
0.487534
0.487604
0.487656
0.487659
0.487616
0.487554
0.487471
0.487398
0.487322
0.487168
0.486869
0.486338
0.485414
0.481982
0.479731
0.480397
0.486703
0.500042
0.485707
0.481981
0.486477
0.480305
0.481862
0.484855
0.486056
0.486652
0.486996
0.487179
0.487274
0.48734
0.487433
0.487501
0.487556
0.487558
0.48751
0.487448
0.487363
0.487303
0.487226
0.48707
0.486757
0.4862
0.485119
0.481685
0.479874
0.482569
0.483139
0.490288
0.48152
0.478491
0.486884
0.48091
0.482425
0.484819
0.485956
0.48657
0.486912
0.487092
0.487186
0.487256
0.487329
0.487405
0.48745
0.487448
0.487407
0.487342
0.487266
0.487206
0.487124
0.48696
0.486635
0.486049
0.484866
0.481638
0.479945
0.485094
0.478875
0.483752
0.478165
0.475839
0.486801
0.481687
0.48308
0.48488
0.485893
0.486507
0.48684
0.487015
0.487106
0.487171
0.48723
0.487298
0.487352
0.487348
0.487298
0.487237
0.487173
0.48711
0.487023
0.486854
0.486522
0.485917
0.484691
0.481845
0.480271
0.485461
0.476767
0.480086
0.478063
0.473472
0.485987
0.482021
0.483758
0.484991
0.485879
0.486469
0.486784
0.486946
0.487031
0.487088
0.487135
0.487197
0.487252
0.487244
0.487191
0.487132
0.487077
0.487018
0.486931
0.486764
0.486435
0.485822
0.484647
0.48235
0.480515
0.485913
0.473442
0.477982
0.481394
0.471117
0.485085
0.482009
0.484347
0.485148
0.485912
0.486458
0.486745
0.486889
0.48696
0.487013
0.487045
0.487101
0.48714
0.48713
0.487091
0.487027
0.486988
0.486934
0.486855
0.486698
0.486385
0.485785
0.484725
0.483057
0.480853
0.485834
0.470958
0.479856
0.485193
0.470444
0.483409
0.481851
0.484733
0.485332
0.485982
0.486471
0.486727
0.486848
0.486903
0.486934
0.486963
0.486987
0.487036
0.487022
0.486977
0.486935
0.48691
0.48687
0.486802
0.486661
0.486373
0.485812
0.484896
0.483744
0.481027
0.485866
0.468511
0.483852
0.488124
0.470956
0.481545
0.481568
0.484946
0.485508
0.486077
0.486503
0.486723
0.486817
0.486854
0.486862
0.486866
0.486881
0.486933
0.486921
0.486862
0.486847
0.486832
0.48682
0.486771
0.486653
0.486399
0.485889
0.485151
0.484349
0.48138
0.484917
0.469063
0.487278
0.489719
0.47204
0.477787
0.481186
0.485071
0.485668
0.486175
0.486545
0.486728
0.486797
0.486804
0.486791
0.486771
0.486777
0.486815
0.486802
0.48676
0.486753
0.486763
0.486778
0.486756
0.486667
0.486451
0.486008
0.485456
0.485011
0.481543
0.48377
0.469561
0.489106
0.490451
0.472411
0.473465
0.480165
0.484999
0.485742
0.486265
0.486581
0.486725
0.486766
0.486758
0.486709
0.486691
0.486664
0.486701
0.486693
0.486652
0.486658
0.486705
0.486743
0.486744
0.486683
0.486514
0.486162
0.485733
0.485381
0.481402
0.480247
0.470442
0.489858
0.49173
0.47442
0.471688
0.477954
0.484593
0.485689
0.486256
0.486535
0.48664
0.486667
0.486655
0.4866
0.486549
0.486544
0.48655
0.486544
0.486534
0.486537
0.486601
0.486662
0.486669
0.486639
0.486522
0.486251
0.485867
0.485337
0.480365
0.47502
0.470495
0.490929
0.493399
0.476433
0.470911
0.474785
0.483882
0.485543
0.486162
0.486403
0.486481
0.486499
0.486496
0.486461
0.486391
0.486399
0.486406
0.48641
0.486401
0.486403
0.486469
0.486516
0.486519
0.486506
0.486425
0.486203
0.485783
0.484822
0.47787
0.472383
0.472588
0.491475
0.495474
0.479492
0.471391
0.473471
0.482867
0.485281
0.485982
0.486207
0.486278
0.486297
0.486303
0.486278
0.486236
0.486234
0.48625
0.486252
0.486238
0.486241
0.486301
0.486317
0.48632
0.486308
0.48625
0.486053
0.485542
0.483851
0.473778
0.472127
0.474675
0.492513
0.498871
0.48259
0.476851
0.47359
0.481612
0.484905
0.485748
0.485984
0.486051
0.486082
0.486093
0.486086
0.48606
0.486065
0.486085
0.486089
0.48607
0.486061
0.486103
0.486102
0.486092
0.486079
0.486012
0.485816
0.485115
0.482511
0.47271
0.474575
0.478325
0.496033
0.501554
0.488621
0.49087
0.475893
0.480205
0.484462
0.485443
0.485727
0.485815
0.485846
0.485863
0.48588
0.485873
0.485892
0.485907
0.485908
0.485895
0.485874
0.485874
0.485863
0.485855
0.485825
0.485742
0.485515
0.484593
0.480613
0.474737
0.487913
0.483551
0.499796
0.503147
0.496661
0.502647
0.481465
0.47983
0.484083
0.485149
0.485477
0.485586
0.485631
0.48565
0.485691
0.485696
0.48572
0.485731
0.485733
0.485725
0.485693
0.485672
0.485646
0.485621
0.485566
0.485457
0.485188
0.48414
0.480165
0.480705
0.502431
0.49368
0.502056
0.503221
0.500345
0.510362
0.488102
0.4805
0.48369
0.484946
0.485271
0.485407
0.485448
0.485479
0.485509
0.485533
0.485532
0.485583
0.485582
0.485539
0.485523
0.485516
0.48547
0.485439
0.485385
0.485274
0.484948
0.483713
0.48071
0.488424
0.509999
0.501963
0.504139
0.495882
0.48982
0.510864
0.49554
0.482607
0.483301
0.484819
0.485121
0.485263
0.485299
0.485331
0.485355
0.48536
0.485366
0.485413
0.485405
0.485359
0.48536
0.485353
0.485323
0.485283
0.48525
0.485124
0.484815
0.48331
0.483086
0.497023
0.510111
0.494688
0.500293
0.485801
0.471913
0.508361
0.501137
0.486045
0.483181
0.484657
0.484968
0.485125
0.485181
0.485214
0.485229
0.4852
0.485242
0.485208
0.485199
0.485226
0.485212
0.485215
0.485202
0.485167
0.485125
0.484976
0.484668
0.483145
0.48692
0.501444
0.508069
0.476218
0.490233
0.478152
0.456809
0.503173
0.502398
0.48956
0.483477
0.484541
0.484861
0.485035
0.485109
0.48513
0.485125
0.485113
0.485048
0.485039
0.485023
0.485051
0.485106
0.485132
0.485121
0.485105
0.48504
0.484876
0.484548
0.483519
0.49058
0.502668
0.502656
0.459067
0.480593
0.473009
0.449966
0.494867
0.501197
0.492118
0.484175
0.484546
0.484887
0.485045
0.485104
0.485092
0.485055
0.485041
0.484869
0.48492
0.484905
0.48487
0.485027
0.485075
0.485087
0.485098
0.48505
0.484901
0.484552
0.484276
0.492933
0.501099
0.493387
0.450459
0.473904
0.472497
0.448171
0.477451
0.496886
0.492842
0.485047
0.484599
0.48491
0.485029
0.485055
0.485016
0.484951
0.484888
0.484728
0.484694
0.484687
0.484726
0.484895
0.48496
0.485012
0.485045
0.485031
0.484929
0.484602
0.485195
0.493608
0.496069
0.474509
0.447835
0.47214
0.47361
0.447072
0.459165
0.489067
0.492803
0.485954
0.484877
0.485007
0.485041
0.484998
0.484927
0.48483
0.484762
0.48459
0.484475
0.484478
0.484608
0.484768
0.484841
0.484922
0.484992
0.485045
0.485016
0.48489
0.486119
0.493411
0.487519
0.457538
0.446783
0.473058
0.473547
0.44666
0.451422
0.477769
0.491503
0.486427
0.485129
0.485107
0.485032
0.484915
0.484799
0.484703
0.484624
0.484468
0.4843
0.484311
0.48449
0.484625
0.484695
0.4848
0.484907
0.485031
0.485105
0.485158
0.486585
0.491796
0.47566
0.451013
0.446233
0.472968
0.470483
0.446492
0.446927
0.467303
0.488469
0.486345
0.485106
0.484964
0.484826
0.48468
0.484541
0.484452
0.484364
0.484253
0.484044
0.484059
0.484271
0.484371
0.48444
0.484544
0.484675
0.484822
0.484959
0.485142
0.486466
0.488416
0.466283
0.446592
0.446326
0.470016
0.466797
0.445212
0.445109
0.461447
0.484755
0.48557
0.484809
0.484599
0.484442
0.484297
0.484156
0.484054
0.483967
0.483862
0.48366
0.483677
0.483882
0.483977
0.484053
0.484161
0.484302
0.484441
0.484599
0.484839
0.485621
0.48452
0.460765
0.445063
0.445007
0.46643
0.463545
0.444503
0.444725
0.457724
0.481399
0.484088
0.48415
0.483963
0.483816
0.483688
0.483573
0.483487
0.48342
0.48335
0.483219
0.483233
0.483368
0.483427
0.483492
0.483584
0.483698
0.483818
0.483966
0.484168
0.484067
0.481174
0.457407
0.444791
0.444408
0.463316
0.461249
0.443031
0.445574
0.457678
0.479246
0.482351
0.483139
0.483054
0.482949
0.482872
0.482811
0.482789
0.482777
0.482767
0.482692
0.482699
0.482775
0.482777
0.482787
0.482818
0.482884
0.482955
0.483058
0.48315
0.482295
0.479121
0.457643
0.445687
0.442862
0.461071
0.458768
0.441722
0.446387
0.4601
0.478641
0.481017
0.482266
0.48228
0.482254
0.482231
0.48221
0.482203
0.482196
0.482189
0.482139
0.482142
0.482188
0.482194
0.482202
0.482215
0.482239
0.482259
0.482284
0.482271
0.480963
0.47865
0.460165
0.446521
0.441636
0.458612
0.455188
0.440384
0.447879
0.463518
0.478918
0.480259
0.481517
0.481631
0.48166
0.481664
0.481668
0.481664
0.481634
0.481624
0.481588
0.48159
0.481623
0.481638
0.481666
0.481671
0.481669
0.481665
0.481638
0.481521
0.480241
0.478982
0.463644
0.448055
0.44015
0.455039
0.45157
0.439087
0.449868
0.467439
0.479263
0.480021
0.480962
0.481123
0.481158
0.481169
0.481175
0.481159
0.481119
0.481094
0.481075
0.481077
0.481085
0.481115
0.481153
0.48117
0.481166
0.481159
0.481133
0.480973
0.480032
0.479295
0.467629
0.450127
0.438971
0.45143
0.448567
0.439043
0.45391
0.470971
0.479241
0.480094
0.480732
0.480866
0.480878
0.480864
0.480827
0.480784
0.480747
0.480711
0.480656
0.480657
0.480699
0.480732
0.480771
0.480816
0.480854
0.480873
0.480869
0.480741
0.480109
0.479255
0.471204
0.454256
0.438778
0.448428
0.446714
0.438425
0.462884
0.47367
0.47901
0.480005
0.48039
0.480489
0.480491
0.480464
0.480425
0.480381
0.480349
0.480325
0.480281
0.480278
0.480313
0.480338
0.480369
0.480418
0.480459
0.480488
0.480489
0.480394
0.480018
0.479032
0.473911
0.463126
0.438342
0.446574
0.447563
0.438567
0.472631
0.475389
0.478716
0.479667
0.479928
0.479978
0.479945
0.479915
0.4799
0.479902
0.479893
0.479893
0.479885
0.479882
0.479885
0.479889
0.479892
0.479894
0.479907
0.479942
0.479978
0.479928
0.47967
0.478757
0.475493
0.472777
0.438319
0.447393
0.45203
0.438967
0.477185
0.476144
0.478543
0.479295
0.479528
0.479596
0.479564
0.479526
0.479508
0.47951
0.47951
0.479508
0.479519
0.479516
0.479504
0.479507
0.479503
0.479504
0.479521
0.47956
0.47959
0.479517
0.479273
0.478587
0.476139
0.477244
0.438892
0.451869
0.458
0.442249
0.477963
0.475889
0.478444
0.479076
0.479297
0.47927
0.479206
0.479153
0.479114
0.479113
0.479115
0.479116
0.479147
0.47914
0.479114
0.479114
0.479109
0.479112
0.479147
0.479201
0.479262
0.479281
0.479035
0.478448
0.475781
0.47813
0.442077
0.457835
0.464546
0.446104
0.47769
0.474878
0.478638
0.479001
0.479091
0.478945
0.478818
0.478764
0.478743
0.47873
0.478739
0.478783
0.478848
0.47884
0.478779
0.478736
0.478728
0.478742
0.47876
0.478815
0.478941
0.479079
0.478994
0.478627
0.474735
0.477739
0.446202
0.464348
0.469783
0.450392
0.476882
0.473615
0.478912
0.478973
0.478948
0.478881
0.478758
0.478662
0.478598
0.478565
0.478591
0.478621
0.478697
0.478695
0.478616
0.47858
0.478561
0.478599
0.478662
0.478757
0.478877
0.478934
0.478967
0.478901
0.473503
0.476894
0.450212
0.469581
0.473089
0.454906
0.475598
0.471093
0.478847
0.478789
0.478766
0.478758
0.478617
0.478408
0.47825
0.47819
0.478143
0.47808
0.478096
0.478103
0.478117
0.478155
0.478201
0.478255
0.47841
0.478617
0.478754
0.478766
0.478784
0.478838
0.471017
0.475513
0.454751
0.47287
0.474637
0.45904
0.471356
0.4659
0.476236
0.47641
0.476389
0.4763
0.476089
0.475903
0.475787
0.475646
0.475526
0.475443
0.475316
0.475355
0.475409
0.475556
0.475662
0.475854
0.475951
0.476126
0.476315
0.476404
0.476418
0.476253
0.465798
0.471229
0.458832
0.47442
0.470948
0.455515
0.459707
0.455386
0.466182
0.466642
0.466729
0.466658
0.466531
0.466363
0.466209
0.466028
0.465976
0.465844
0.465814
0.465773
0.465899
0.465951
0.466078
0.46618
0.466392
0.466546
0.466725
0.466791
0.466696
0.466224
0.455332
0.459531
0.455445
0.470745
0.461988
0.44744
0.445406
0.443391
0.453503
0.454196
0.454447
0.454449
0.454327
0.454261
0.454082
0.453967
0.453753
0.453612
0.453413
0.453466
0.453579
0.453818
0.453951
0.454142
0.454253
0.454377
0.454438
0.454464
0.454198
0.45357
0.443252
0.445352
0.447352
0.461707
0.441987
0.437309
0.433241
0.430929
0.440024
0.440634
0.441178
0.441247
0.441196
0.440997
0.440792
0.440498
0.440263
0.439962
0.439826
0.439793
0.440014
0.440254
0.440567
0.440785
0.441055
0.441179
0.441287
0.441163
0.44067
0.440021
0.430812
0.433283
0.437179
0.441275
0.417273
0.427732
0.424659
0.419381
0.427148
0.42716
0.427846
0.428051
0.427821
0.427495
0.427044
0.426804
0.426583
0.426511
0.42641
0.426449
0.426506
0.426686
0.426906
0.427211
0.427572
0.427904
0.428075
0.427908
0.427178
0.427181
0.419233
0.424703
0.427615
0.415971
0.391508
0.418522
0.416435
0.408827
0.414671
0.413384
0.413903
0.413904
0.413549
0.413318
0.413333
0.41343
0.413604
0.413833
0.414172
0.414167
0.413914
0.413469
0.413514
0.413411
0.413477
0.413712
0.414099
0.414043
0.41352
0.414672
0.408692
0.416479
0.418454
0.389756
0.368566
0.407189
0.407635
0.398777
0.402388
0.401592
0.402061
0.402196
0.402221
0.402281
0.402394
0.402537
0.402737
0.403151
0.403761
0.403791
0.403249
0.402709
0.40248
0.402385
0.402301
0.402274
0.402235
0.402108
0.401591
0.402456
0.398648
0.407649
0.406993
0.367099
0.352072
0.393003
0.398227
0.388982
0.391256
0.391196
0.391685
0.39176
0.391875
0.391983
0.392098
0.39247
0.392896
0.393731
0.394359
0.394334
0.393881
0.393161
0.39239
0.392127
0.391976
0.391881
0.391806
0.391642
0.391178
0.391275
0.388848
0.398216
0.392709
0.351639
0.340449
0.377354
0.388243
0.379382
0.38132
0.381282
0.381683
0.381847
0.382122
0.38241
0.382785
0.383278
0.383763
0.384177
0.384599
0.384545
0.384399
0.383922
0.383315
0.382784
0.382431
0.382145
0.381867
0.381596
0.381185
0.381327
0.379235
0.388108
0.37671
0.340555
0.330879
0.362706
0.377333
0.370068
0.372214
0.372136
0.372644
0.372816
0.3733
0.373742
0.374279
0.374482
0.374405
0.374119
0.374174
0.374075
0.374398
0.374764
0.374567
0.37436
0.373863
0.373365
0.372876
0.372413
0.372053
0.372147
0.369957
0.377478
0.360971
0.331474
0.320415
0.34522
0.365288
0.361079
0.363229
0.36338