/*--------------------------------*- C++ -*----------------------------------*\
| =========                 |                                                 |
| \\      /  F ield         | OpenFOAM: The Open Source CFD Toolbox           |
|  \\    /   O peration     | Version:  2.3.0                                 |
|   \\  /    A nd           | Web:      www.OpenFOAM.org                      |
|    \\/     M anipulation  |                                                 |
\*---------------------------------------------------------------------------*/
FoamFile
{
    version     2.0;
    format      ascii;
    class       volScalarField;
    location    "0.17";
    object      Theta.particles;
}
// * * * * * * * * * * * * * * * * * * * * * * * * * * * * * * * * * * * * * //

dimensions      [0 2 -2 0 0 0 0];

internalField   nonuniform List<scalar> 
6000
(
0.000720273
0.000543057
0.000502011
0.00048808
0.000479218
0.000477696
0.000479035
0.000484302
0.00048996
0.000495518
0.000500482
0.000506399
0.000514564
0.0005206
0.000524335
0.000524001
0.00052075
0.000514527
0.000506543
0.000501235
0.00049522
0.000490195
0.000484645
0.00047898
0.000477882
0.000479333
0.000488461
0.000501566
0.000543082
0.000720521
1.27748e-05
6.88991e-06
9.51341e-06
1.70137e-05
2.46428e-05
3.12603e-05
3.39703e-05
3.3337e-05
3.31529e-05
3.41104e-05
3.58715e-05
3.80633e-05
4.01887e-05
4.16232e-05
4.23885e-05
4.23235e-05
4.163e-05
4.01358e-05
3.80723e-05
3.5853e-05
3.40923e-05
3.31272e-05
3.33351e-05
3.38947e-05
3.1244e-05
2.45787e-05
1.69961e-05
9.4481e-06
6.8951e-06
1.2875e-05
0.000553531
0.000396704
0.000396745
0.000399772
0.000375925
0.000317075
0.00022028
0.000129914
8.32373e-05
6.30351e-05
5.34563e-05
4.64263e-05
4.26548e-05
4.07421e-05
3.99322e-05
3.98531e-05
4.06977e-05
4.25818e-05
4.62866e-05
5.32537e-05
6.27573e-05
8.27359e-05
0.000129
0.000218825
0.000315744
0.000375495
0.000400142
0.000398373
0.000398798
0.000555414
0.000553471
0.000214661
0.000219222
0.000248797
0.000292781
0.000332553
0.00033178
0.000251646
0.000177297
0.000129525
0.000109337
0.000100591
9.7827e-05
9.64489e-05
9.60173e-05
9.57916e-05
9.62612e-05
9.71831e-05
0.000100212
0.000108516
0.000128961
0.00017602
0.000250602
0.000329699
0.000333255
0.000292379
0.000250571
0.000220715
0.000217119
0.000557635
0.000377166
2.24744e-05
2.11311e-05
2.94684e-05
4.43201e-05
7.37038e-05
0.000133461
0.000210105
0.000240016
0.000234088
0.000228087
0.000232112
0.000236978
0.000241058
0.000242718
0.000242726
0.000240742
0.000236811
0.000231699
0.000227878
0.000233223
0.000240207
0.000210119
0.000134829
7.34206e-05
4.46239e-05
2.95494e-05
2.12438e-05
2.2744e-05
0.000380364
0.00029408
7.16632e-07
1.2943e-06
1.26148e-06
1.09512e-06
7.54495e-07
6.40158e-07
9.2772e-06
3.74546e-05
6.32965e-05
8.09788e-05
9.15856e-05
9.83715e-05
0.000102345
0.000104885
0.00010481
0.000103003
9.85902e-05
9.22218e-05
8.12124e-05
6.38946e-05
3.74404e-05
9.58372e-06
6.25025e-07
7.45976e-07
1.08514e-06
1.26056e-06
1.31166e-06
7.36153e-07
0.000296722
0.000275298
1.08365e-06
1.82333e-06
1.47225e-06
1.3731e-06
1.27373e-06
9.22157e-07
1.09046e-06
2.98911e-06
6.17917e-06
6.62358e-06
5.22012e-06
3.86026e-06
3.16601e-06
2.87317e-06
2.8973e-06
3.14195e-06
3.88965e-06
5.13829e-06
6.59324e-06
6.10309e-06
3.03068e-06
1.08356e-06
9.22136e-07
1.27081e-06
1.36775e-06
1.4835e-06
1.88302e-06
1.12976e-06
0.00027822
0.000247497
1.5262e-06
1.90558e-06
1.39631e-06
1.27697e-06
1.21547e-06
1.26071e-06
1.84256e-06
3.44554e-06
3.94534e-06
2.98632e-06
2.10837e-06
1.57609e-06
1.29055e-06
1.16876e-06
1.16509e-06
1.28189e-06
1.55212e-06
2.06395e-06
2.89732e-06
3.82108e-06
3.37389e-06
1.82439e-06
1.24229e-06
1.19825e-06
1.2414e-06
1.37732e-06
1.93917e-06
1.62242e-06
0.000249233
0.000210643
1.91373e-06
2.07817e-06
1.50074e-06
1.29883e-06
1.05803e-06
1.3796e-06
1.90007e-06
2.90806e-06
3.30598e-06
2.63332e-06
1.97949e-06
1.5587e-06
1.32501e-06
1.22731e-06
1.22169e-06
1.31607e-06
1.53187e-06
1.93225e-06
2.53708e-06
3.1634e-06
2.7427e-06
1.829e-06
1.35559e-06
1.0162e-06
1.22486e-06
1.43386e-06
2.04559e-06
1.98827e-06
0.000210417
0.000187056
1.78032e-06
1.82647e-06
1.35241e-06
1.23055e-06
9.08134e-07
1.25591e-06
1.63553e-06
2.11233e-06
2.45922e-06
2.05529e-06
1.66686e-06
1.38869e-06
1.23301e-06
1.15667e-06
1.15687e-06
1.21833e-06
1.37371e-06
1.62431e-06
1.993e-06
2.31615e-06
1.96368e-06
1.52801e-06
1.19812e-06
8.40887e-07
1.09732e-06
1.20782e-06
1.67003e-06
1.74517e-06
0.0001861
0.000169177
1.26833e-06
1.59763e-06
1.25881e-06
1.10242e-06
7.89296e-07
9.70875e-07
1.29031e-06
1.57411e-06
1.72455e-06
1.60313e-06
1.39516e-06
1.24575e-06
1.14975e-06
1.10872e-06
1.10437e-06
1.14673e-06
1.22886e-06
1.37413e-06
1.54824e-06
1.63664e-06
1.46732e-06
1.21059e-06
9.10014e-07
7.25079e-07
9.34283e-07
1.10227e-06
1.44307e-06
1.0939e-06
0.000168347
0.000157664
8.41389e-07
1.88971e-06
1.29152e-06
9.33562e-07
7.04855e-07
7.85245e-07
1.05787e-06
1.22058e-06
1.33357e-06
1.33564e-06
1.25133e-06
1.1683e-06
1.1201e-06
1.09933e-06
1.10074e-06
1.11545e-06
1.16342e-06
1.23778e-06
1.31558e-06
1.28679e-06
1.16855e-06
1.0039e-06
7.56664e-07
6.81154e-07
8.16859e-07
1.10318e-06
1.86395e-06
6.73303e-07
0.000156928
0.000152258
1.42633e-06
3.258e-06
1.40693e-06
9.15292e-07
7.48506e-07
7.63536e-07
9.32794e-07
1.05865e-06
1.16083e-06
1.20359e-06
1.18987e-06
1.1671e-06
1.15262e-06
1.15231e-06
1.15115e-06
1.15284e-06
1.16517e-06
1.18788e-06
1.19767e-06
1.15181e-06
1.04665e-06
9.11678e-07
7.60254e-07
7.67207e-07
9.15067e-07
1.30959e-06
3.10224e-06
1.02369e-06
0.000146412
0.000139774
3.1094e-06
5.64079e-06
1.90581e-06
1.04641e-06
8.84846e-07
8.44307e-07
9.20197e-07
1.01347e-06
1.09807e-06
1.15036e-06
1.18466e-06
1.21252e-06
1.23003e-06
1.23922e-06
1.23901e-06
1.23188e-06
1.21612e-06
1.18935e-06
1.15691e-06
1.10581e-06
1.02278e-06
9.26057e-07
8.62609e-07
9.24054e-07
1.20303e-06
2.18534e-06
5.51356e-06
2.66732e-06
0.000137484
0.000123853
5.08808e-06
8.88138e-06
2.50503e-06
1.37056e-06
1.04036e-06
1.00345e-06
9.76585e-07
1.0307e-06
1.08983e-06
1.15899e-06
1.22514e-06
1.27978e-06
1.3113e-06
1.32575e-06
1.32779e-06
1.31468e-06
1.28492e-06
1.23382e-06
1.16898e-06
1.10502e-06
1.0452e-06
9.95388e-07
1.02726e-06
1.08231e-06
1.58557e-06
3.50808e-06
8.23556e-06
6.3082e-06
0.000149706
0.000116384
7.30181e-06
1.30935e-05
3.1257e-06
1.6982e-06
1.16911e-06
1.17736e-06
1.0896e-06
1.08446e-06
1.13416e-06
1.20531e-06
1.28606e-06
1.34086e-06
1.36971e-06
1.37925e-06
1.37951e-06
1.36986e-06
1.34234e-06
1.28997e-06
1.21326e-06
1.1438e-06
1.09867e-06
1.10881e-06
1.19927e-06
1.20488e-06
2.18073e-06
4.23933e-06
1.14222e-05
1.40873e-05
0.000159324
0.000115714
7.2208e-06
1.47909e-05
4.21733e-06
2.13642e-06
1.3086e-06
1.2921e-06
1.219e-06
1.16916e-06
1.19412e-06
1.25101e-06
1.3141e-06
1.36096e-06
1.38525e-06
1.39159e-06
1.38998e-06
1.38168e-06
1.35625e-06
1.30991e-06
1.24998e-06
1.19621e-06
1.17583e-06
1.23136e-06
1.29553e-06
1.31734e-06
3.0991e-06
4.99264e-06
1.83638e-05
1.59621e-05
0.000161911
0.000115655
7.68486e-06
1.36605e-05
6.85518e-06
2.90433e-06
1.45203e-06
1.29645e-06
1.28018e-06
1.21911e-06
1.21137e-06
1.25063e-06
1.29431e-06
1.33275e-06
1.35595e-06
1.36373e-06
1.36215e-06
1.35019e-06
1.32388e-06
1.28383e-06
1.23831e-06
1.20495e-06
1.21515e-06
1.28186e-06
1.26487e-06
1.50804e-06
3.65383e-06
6.26265e-06
2.18918e-05
1.06965e-05
0.000150895
0.000118356
1.08139e-05
1.56794e-05
1.1128e-05
4.55535e-06
1.82149e-06
1.22711e-06
1.23028e-06
1.198e-06
1.18164e-06
1.19715e-06
1.22951e-06
1.25835e-06
1.27945e-06
1.28809e-06
1.28507e-06
1.26999e-06
1.24227e-06
1.20895e-06
1.17637e-06
1.16328e-06
1.18248e-06
1.21674e-06
1.14258e-06
1.89208e-06
3.924e-06
8.91523e-06
1.72896e-05
6.51887e-06
0.000119024
0.00012174
2.02027e-05
2.06063e-05
1.49035e-05
8.41617e-06
2.89636e-06
1.19094e-06
1.06537e-06
1.08166e-06
1.07801e-06
1.08439e-06
1.09906e-06
1.11635e-06
1.12867e-06
1.13358e-06
1.13017e-06
1.11788e-06
1.09951e-06
1.0777e-06
1.05951e-06
1.05078e-06
1.05685e-06
1.0308e-06
1.06455e-06
2.57252e-06
4.88868e-06
1.19916e-05
1.44455e-05
7.28291e-06
0.000115965
0.000105206
2.32204e-05
3.5748e-05
2.22587e-05
1.26382e-05
4.47781e-06
1.26957e-06
8.43674e-07
8.58137e-07
8.79976e-07
8.87986e-07
8.98844e-07
9.0978e-07
9.15815e-07
9.17103e-07
9.13898e-07
9.06216e-07
8.9461e-07
8.78895e-07
8.6067e-07
8.48514e-07
8.29001e-07
8.00632e-07
1.32338e-06
3.76663e-06
7.73008e-06
1.4799e-05
1.74483e-05
1.40251e-05
0.000111292
8.71667e-05
1.14445e-05
3.68334e-05
2.0288e-05
1.54241e-05
8.23493e-06
1.76698e-06
6.68516e-07
5.7772e-07
6.09187e-07
6.29136e-07
6.41854e-07
6.48613e-07
6.52593e-07
6.53989e-07
6.50715e-07
6.42852e-07
6.32177e-07
6.17974e-07
6.02632e-07
5.84378e-07
5.55737e-07
6.89478e-07
1.96745e-06
5.39594e-06
1.16626e-05
2.20344e-05
3.19118e-05
2.11154e-05
9.91307e-05
8.98892e-05
9.66354e-06
4.37759e-05
1.92916e-05
9.02842e-06
7.99567e-06
2.75841e-06
6.08556e-07
3.38866e-07
3.45113e-07
3.7122e-07
3.81353e-07
3.84956e-07
3.86255e-07
3.86137e-07
3.83658e-07
3.78956e-07
3.71963e-07
3.62542e-07
3.52072e-07
3.33756e-07
3.57812e-07
8.0702e-07
2.74788e-06
7.36723e-06
1.54353e-05
2.53095e-05
3.42742e-05
1.08831e-05
8.53411e-05
8.8726e-05
7.5303e-06
5.6293e-05
3.07679e-05
7.67809e-06
4.91861e-06
3.29082e-06
6.65771e-07
2.12977e-07
1.6618e-07
1.77518e-07
1.86457e-07
1.90261e-07
1.90546e-07
1.88839e-07
1.87379e-07
1.86213e-07
1.82986e-07
1.79303e-07
1.7313e-07
1.71586e-07
2.92607e-07
1.04431e-06
3.30664e-06
7.21178e-06
1.13933e-05
1.90586e-05
3.18098e-05
6.42304e-06
7.85416e-05
8.42917e-05
3.1629e-06
5.59871e-05
4.44948e-05
1.13742e-05
3.05152e-06
2.39354e-06
7.85316e-07
1.87321e-07
8.49773e-08
8.12972e-08
8.60397e-08
8.73965e-08
8.62408e-08
8.43423e-08
8.34963e-08
8.37575e-08
8.37227e-08
8.36095e-08
8.39213e-08
1.09492e-07
3.09268e-07
1.00481e-06
2.84667e-06
4.69353e-06
8.14107e-06
2.16705e-05
3.99685e-05
6.4933e-06
8.3472e-05
7.80038e-05
1.27878e-06
3.50556e-05
4.57277e-05
1.5548e-05
2.40553e-06
1.06333e-06
6.93143e-07
2.22778e-07
9.22155e-08
6.30329e-08
5.93076e-08
5.58901e-08
5.22511e-08
4.96969e-08
4.89517e-08
4.99377e-08
5.2315e-08
5.42808e-08
6.17537e-08
1.11677e-07
2.93084e-07
7.10337e-07
1.653e-06
2.79108e-06
8.52811e-06
3.07546e-05
5.47829e-05
7.30301e-06
9.12986e-05
7.27812e-05
1.53848e-06
1.96849e-05
2.88261e-05
1.66405e-05
2.37274e-06
3.91364e-07
4.22412e-07
2.3344e-07
1.57978e-07
9.93618e-08
7.49077e-08
6.22999e-08
5.43499e-08
5.00006e-08
4.90429e-08
5.13342e-08
5.68191e-08
6.67531e-08
9.47053e-08
1.58692e-07
2.39876e-07
4.46186e-07
7.35537e-07
2.30772e-06
1.28671e-05
4.61475e-05
5.91834e-05
3.55595e-06
9.94237e-05
6.48673e-05
3.50239e-06
1.98613e-05
1.51768e-05
1.19177e-05
2.59866e-06
3.06598e-07
2.36481e-07
2.00798e-07
1.84662e-07
1.70243e-07
1.34244e-07
1.05642e-07
8.82713e-08
7.93124e-08
7.72072e-08
8.17773e-08
9.3992e-08
1.1821e-07
1.46593e-07
1.67524e-07
1.97966e-07
2.89349e-07
4.49031e-07
3.15467e-06
1.9625e-05
5.0644e-05
4.16927e-05
1.247e-06
9.76297e-05
5.14243e-05
4.98067e-06
2.13144e-05
1.07645e-05
9.41561e-06
3.18844e-06
4.5666e-07
2.23326e-07
1.93942e-07
1.72771e-07
1.6792e-07
1.57033e-07
1.42163e-07
1.27986e-07
1.18249e-07
1.14654e-07
1.16791e-07
1.2314e-07
1.30341e-07
1.35217e-07
1.42613e-07
1.71214e-07
2.44761e-07
6.0931e-07
4.97627e-06
2.15609e-05
3.19976e-05
2.90698e-05
1.92576e-06
9.16244e-05
4.43901e-05
9.14871e-06
2.19793e-05
6.69043e-06
6.95407e-06
3.43929e-06
8.16747e-07
3.01482e-07
2.19891e-07
1.66576e-07
1.44599e-07
1.30414e-07
1.18429e-07
1.08748e-07
1.02046e-07
9.8334e-08
9.67384e-08
9.77688e-08
1.01097e-07
1.0829e-07
1.27109e-07
1.86892e-07
3.15304e-07
9.54829e-07
6.59086e-06
1.6523e-05
2.16616e-05
3.33362e-05
2.59062e-06
8.074e-05
5.61851e-05
1.73724e-05
2.54508e-05
4.18099e-06
3.92599e-06
3.25324e-06
1.31948e-06
4.43145e-07
2.7486e-07
1.8549e-07
1.36746e-07
1.1132e-07
9.5152e-08
8.46926e-08
7.80038e-08
7.43293e-08
7.30503e-08
7.44927e-08
7.97123e-08
9.29003e-08
1.3039e-07
2.2069e-07
4.1791e-07
1.78907e-06
7.4836e-06
1.17128e-05
1.98935e-05
3.55921e-05
2.80332e-06
7.07995e-05
7.25677e-05
2.1305e-05
2.91065e-05
3.23277e-06
1.90514e-06
2.44844e-06
1.57225e-06
6.68659e-07
3.68002e-07
2.35198e-07
1.56485e-07
1.15411e-07
9.23574e-08
7.85893e-08
7.06634e-08
6.67021e-08
6.59456e-08
6.8741e-08
7.67138e-08
9.70639e-08
1.5075e-07
2.5913e-07
5.95959e-07
2.49247e-06
5.70058e-06
7.79124e-06
1.70911e-05
3.58795e-05
2.47541e-06
6.03886e-05
0.000119021
2.87255e-05
3.01167e-05
4.37241e-06
1.72612e-06
1.85945e-06
1.78204e-06
8.99676e-07
4.79965e-07
2.97787e-07
1.94144e-07
1.39818e-07
1.11678e-07
9.51664e-08
8.54687e-08
8.07646e-08
7.91187e-08
8.13052e-08
9.01496e-08
1.14753e-07
1.7198e-07
2.95968e-07
7.61419e-07
2.23654e-06
3.61414e-06
5.66294e-06
1.50841e-05
3.63613e-05
1.71882e-06
4.9949e-05
0.000182321
4.26839e-05
2.65269e-05
1.09636e-05
4.09049e-06
2.89833e-06
2.03666e-06
1.1241e-06
5.72053e-07
3.27336e-07
2.15913e-07
1.57571e-07
1.31088e-07
1.18227e-07
1.09493e-07
1.04381e-07
1.01288e-07
1.00068e-07
1.05437e-07
1.25387e-07
1.72913e-07
3.06997e-07
7.50835e-07
1.58864e-06
2.23711e-06
4.18848e-06
1.41664e-05
3.66604e-05
1.31316e-06
4.53581e-05
0.000160159
6.10747e-05
3.07876e-05
2.21968e-05
1.06521e-05
4.29494e-06
2.77568e-06
1.35358e-06
6.3967e-07
3.30544e-07
1.98766e-07
1.45603e-07
1.24602e-07
1.17956e-07
1.1378e-07
1.10105e-07
1.07783e-07
1.04358e-07
1.06038e-07
1.1852e-07
1.57249e-07
2.83674e-07
5.9658e-07
9.57234e-07
1.42489e-06
3.62951e-06
1.52963e-05
3.78495e-05
2.28928e-06
6.45211e-05
8.65881e-05
6.62085e-05
7.25055e-05
3.14277e-05
2.02479e-05
1.23131e-05
3.39493e-06
1.57049e-06
6.72526e-07
2.99052e-07
1.66407e-07
1.16562e-07
1.00917e-07
9.81391e-08
9.79345e-08
9.76518e-08
9.71575e-08
9.58008e-08
9.78866e-08
1.06916e-07
1.39421e-07
2.37529e-07
4.09838e-07
5.69851e-07
1.07418e-06
4.04667e-06
1.83447e-05
3.7261e-05
5.60796e-06
8.40775e-05
7.1814e-05
1.1797e-05
5.28489e-05
3.69674e-05
1.43856e-05
1.40659e-05
5.78224e-06
1.80812e-06
5.67079e-07
2.30675e-07
1.22279e-07
8.82469e-08
7.90286e-08
7.94759e-08
8.22526e-08
8.46651e-08
8.52481e-08
8.72637e-08
9.04608e-08
9.63995e-08
1.20875e-07
1.79476e-07
2.54223e-07
3.96701e-07
1.0765e-06
5.80092e-06
2.20148e-05
4.69687e-05
1.89102e-05
0.000125392
4.77266e-05
3.20845e-06
1.40071e-05
2.09592e-05
1.20858e-05
8.85356e-06
4.12613e-06
1.40568e-06
4.27674e-07
1.47557e-07
7.13633e-08
6.37635e-08
6.60324e-08
6.98312e-08
7.53619e-08
7.87035e-08
7.89124e-08
8.15389e-08
8.18277e-08
8.17885e-08
9.59922e-08
1.20856e-07
1.62936e-07
3.13088e-07
1.3486e-06
7.62493e-06
2.71357e-05
5.59491e-05
2.37663e-05
0.00016798
2.22198e-05
2.36668e-06
8.5011e-06
1.41514e-05
9.04332e-06
6.6765e-06
2.75575e-06
5.77235e-07
3.11974e-07
1.00354e-07
4.06724e-08
4.87258e-08
6.29021e-08
7.01036e-08
7.67269e-08
7.98449e-08
7.84195e-08
7.67023e-08
7.09575e-08
6.55805e-08
6.94399e-08
7.60713e-08
1.02174e-07
2.73904e-07
1.53288e-06
7.64828e-06
2.6341e-05
5.2824e-05
2.05807e-05
0.000137867
1.01836e-05
1.35755e-06
6.368e-06
2.07079e-05
1.05051e-05
4.43339e-06
1.46176e-06
1.24088e-07
1.92397e-07
7.55783e-08
5.8067e-08
6.17994e-08
6.93218e-08
7.80219e-08
8.25672e-08
8.39833e-08
8.11489e-08
7.30948e-08
6.40493e-08
5.6709e-08
5.32501e-08
5.05732e-08
6.13932e-08
2.55771e-07
1.35729e-06
6.04123e-06
2.29322e-05
5.7615e-05
1.66918e-05
0.000103305
1.01888e-05
4.96256e-06
1.83727e-05
2.73475e-05
1.8081e-05
3.89799e-06
7.2397e-07
2.21713e-07
1.93865e-07
1.14758e-07
9.71075e-08
8.13925e-08
8.06894e-08
8.58169e-08
8.65099e-08
8.50069e-08
8.1369e-08
7.23439e-08
6.42292e-08
5.80026e-08
5.29394e-08
4.27282e-08
4.06655e-08
1.74472e-07
6.81476e-07
4.02902e-06
2.27356e-05
7.22124e-05
1.48319e-05
0.000104891
2.11031e-05
1.42117e-05
3.47931e-05
3.58142e-05
1.95462e-05
4.97149e-06
1.38943e-06
3.82451e-07
2.29029e-07
1.60336e-07
1.17949e-07
9.79771e-08
9.1571e-08
8.9814e-08
8.65301e-08
8.33617e-08
8.00928e-08
7.50763e-08
6.97645e-08
6.60141e-08
6.17366e-08
4.68039e-08
3.54999e-08
8.84624e-08
2.94959e-07
3.80903e-06
3.11187e-05
8.00217e-05
1.08483e-05
0.000107364
4.14782e-05
5.98127e-06
3.05409e-05
3.41786e-05
1.63568e-05
4.72572e-06
1.34794e-06
4.66602e-07
2.30062e-07
1.67528e-07
1.27979e-07
1.06627e-07
9.50947e-08
8.69166e-08
8.11853e-08
7.79049e-08
7.70707e-08
7.75399e-08
7.62662e-08
7.42864e-08
6.9734e-08
5.81456e-08
4.90282e-08
7.22772e-08
3.56825e-07
5.67945e-06
4.22468e-05
7.20601e-05
7.83857e-06
0.000110221
4.60453e-05
1.37922e-06
2.18156e-05
2.55389e-05
1.09853e-05
3.95732e-06
1.03967e-06
4.02795e-07
1.97485e-07
1.4738e-07
1.16571e-07
9.73221e-08
8.33453e-08
7.26802e-08
6.64972e-08
6.39807e-08
6.49894e-08
6.91613e-08
7.22313e-08
7.40097e-08
7.18571e-08
6.75476e-08
6.74266e-08
1.11748e-07
6.74209e-07
8.51957e-06
3.91693e-05
5.4025e-05
8.55729e-06
0.000108321
3.80705e-05
1.06016e-06
2.70976e-05
2.48488e-05
8.22234e-06
3.22611e-06
9.8603e-07
2.94255e-07
1.54941e-07
1.11514e-07
8.89519e-08
7.30949e-08
6.1755e-08
5.3565e-08
4.91494e-08
4.73005e-08
4.78011e-08
5.09317e-08
5.5335e-08
6.11646e-08
6.45531e-08
6.59155e-08
7.78714e-08
1.62114e-07
1.13838e-06
8.80855e-06
2.4955e-05
4.77329e-05
1.26299e-05
0.000118498
2.45885e-05
1.07924e-06
2.8158e-05
2.67762e-05
7.1581e-06
2.84395e-06
1.04605e-06
2.39121e-07
1.19684e-07
7.92424e-08
6.11393e-08
5.06762e-08
4.4431e-08
4.12631e-08
3.9764e-08
3.85597e-08
3.64885e-08
3.63037e-08
3.84041e-08
4.35107e-08
4.96198e-08
5.66006e-08
8.15463e-08
2.1636e-07
1.48609e-06
6.4147e-06
1.67578e-05
5.12973e-05
2.04059e-05
0.000140536
1.72901e-05
8.862e-07
2.18143e-05
2.68872e-05
6.38739e-06
2.31403e-06
1.06182e-06
2.13252e-07
9.49628e-08
5.78289e-08
4.39652e-08
3.85717e-08
3.71793e-08
3.80914e-08
3.85734e-08
3.77421e-08
3.49517e-08
3.13789e-08
2.98373e-08
3.11466e-08
3.61031e-08
4.71726e-08
8.31921e-08
2.69229e-07
1.34297e-06
4.23456e-06
1.46585e-05
5.5619e-05
2.82701e-05
0.000162233
1.49833e-05
5.072e-07
1.75794e-05
2.14843e-05
5.3491e-06
1.74011e-06
9.27962e-07
2.2403e-07
8.00636e-08
4.60913e-08
3.74689e-08
3.60737e-08
3.71666e-08
3.83504e-08
3.86502e-08
3.84717e-08
3.75199e-08
3.45664e-08
3.09141e-08
2.86141e-08
2.96836e-08
4.03408e-08
8.37891e-08
2.76399e-07
9.83513e-07
3.17718e-06
1.36638e-05
5.71612e-05
3.62487e-05
0.000187628
1.37344e-05
4.63609e-07
1.84481e-05
1.78635e-05
4.41843e-06
1.2401e-06
6.55607e-07
2.39065e-07
7.44892e-08
4.24037e-08
3.67408e-08
3.70011e-08
3.74457e-08
3.7488e-08
3.75357e-08
3.78484e-08
3.83817e-08
3.83862e-08
3.69459e-08
3.41723e-08
3.11034e-08
3.8468e-08
8.15722e-08
2.42291e-07
7.34513e-07
2.75969e-06
1.29309e-05
6.04996e-05
4.80706e-05
0.000230486
1.02243e-05
6.57523e-07
1.94179e-05
1.60944e-05
3.24846e-06
7.95535e-07
4.34829e-07
2.02192e-07
7.13075e-08
4.18893e-08
3.58994e-08
3.54662e-08
3.53843e-08
3.5661e-08
3.62652e-08
3.69482e-08
3.78499e-08
3.90427e-08
3.99153e-08
3.9565e-08
3.74562e-08
4.12561e-08
7.6775e-08
1.98504e-07
6.1822e-07
2.63764e-06
1.35137e-05
6.6751e-05
6.13637e-05
0.000260535
7.26219e-06
5.32157e-07
2.08286e-05
1.54933e-05
2.30505e-06
4.9692e-07
2.56989e-07
1.45783e-07
6.57704e-08
3.91831e-08
3.28275e-08
3.20637e-08
3.26941e-08
3.37863e-08
3.48252e-08
3.60249e-08
3.70904e-08
3.82252e-08
3.95376e-08
4.02244e-08
4.19e-08
4.59152e-08
7.16319e-08
1.60703e-07
5.61925e-07
2.65333e-06
1.54423e-05
7.16938e-05
6.04575e-05
0.000211529
6.44313e-06
2.92692e-07
2.51454e-05
1.91391e-05
1.58458e-06
2.85053e-07
1.27266e-07
9.082e-08
5.3095e-08
3.60503e-08
3.01779e-08
2.87448e-08
3.02896e-08
3.17924e-08
3.31836e-08
3.45516e-08
3.58418e-08
3.69399e-08
3.79511e-08
3.97395e-08
4.29559e-08
4.94219e-08
6.41093e-08
1.26852e-07
5.1649e-07
2.74665e-06
1.6387e-05
7.14302e-05
6.10544e-05
0.000188235
7.27108e-06
5.28903e-07
2.6422e-05
2.66407e-05
1.60957e-06
1.8647e-07
5.95399e-08
4.8181e-08
3.87206e-08
3.43426e-08
2.8157e-08
2.70806e-08
2.83442e-08
3.00819e-08
3.16315e-08
3.30014e-08
3.43828e-08
3.56007e-08
3.66412e-08
3.90083e-08
4.26861e-08
4.92056e-08
5.07963e-08
9.69634e-08
4.70481e-07
2.71389e-06
1.62721e-05
7.47433e-05
5.95837e-05
0.000189725
9.31893e-06
3.168e-06
2.34134e-05
2.7849e-05
2.00674e-06
1.64923e-07
2.85651e-08
2.30726e-08
2.96383e-08
3.23009e-08
2.6942e-08
2.67064e-08
2.71722e-08
2.8836e-08
3.053e-08
3.19344e-08
3.31972e-08
3.4325e-08
3.60791e-08
3.87049e-08
4.32709e-08
4.36867e-08
3.81885e-08
7.59286e-08
4.12709e-07
2.44449e-06
1.69254e-05
7.779e-05
5.69398e-05
0.000191598
1.2348e-05
5.00386e-06
2.34997e-05
2.42837e-05
2.61186e-06
1.49277e-07
1.00993e-08
1.34904e-08
2.31993e-08
2.76417e-08
2.76457e-08
2.72457e-08
2.72032e-08
2.85005e-08
2.98613e-08
3.1232e-08
3.24334e-08
3.36567e-08
3.57398e-08
3.88361e-08
4.51725e-08
3.78928e-08
3.27137e-08
6.203e-08
3.434e-07
2.16662e-06
1.86901e-05
7.9171e-05
5.31499e-05
0.000187243
1.58443e-05
3.60854e-06
2.68888e-05
2.13583e-05
3.02438e-06
1.44436e-07
3.44437e-09
1.34875e-08
2.16884e-08
2.52034e-08
3.03347e-08
2.83995e-08
2.82121e-08
2.85945e-08
2.9604e-08
3.07596e-08
3.19871e-08
3.35028e-08
3.5532e-08
3.87596e-08
4.14932e-08
3.4946e-08
3.18061e-08
5.79904e-08
2.9153e-07
2.35141e-06
2.18702e-05
7.79164e-05
4.68177e-05
0.000183305
2.13128e-05
4.30826e-06
2.77913e-05
1.83855e-05
3.27845e-06
1.74097e-07
1.24038e-08
1.84827e-08
2.47412e-08
2.71655e-08
3.27907e-08
2.97662e-08
2.94251e-08
2.91647e-08
2.9868e-08
3.08076e-08
3.17376e-08
3.33984e-08
3.53535e-08
3.88363e-08
3.55364e-08
3.31441e-08
3.18039e-08
5.89565e-08
2.99624e-07
2.83131e-06
2.28723e-05
6.90904e-05
4.25014e-05
0.000186901
3.37685e-05
6.57209e-06
2.93049e-05
1.39821e-05
3.06614e-06
2.88144e-07
3.49037e-08
2.85516e-08
3.07311e-08
3.08629e-08
3.23953e-08
3.12085e-08
3.06932e-08
3.02047e-08
3.02943e-08
3.08375e-08
3.18769e-08
3.31726e-08
3.51311e-08
3.89615e-08
3.35706e-08
3.22811e-08
3.13955e-08
5.32699e-08
2.72409e-07
2.85028e-06
1.81604e-05
5.49897e-05
4.14478e-05
0.000204426
6.01007e-05
1.11901e-05
3.37864e-05
9.55835e-06
2.35001e-06
4.22574e-07
7.16004e-08
4.42961e-08
3.84424e-08
3.47967e-08
3.27556e-08
3.2264e-08
3.17543e-08
3.08832e-08
3.04954e-08
3.07323e-08
3.17821e-08
3.27957e-08
3.48592e-08
3.63882e-08
3.29804e-08
3.30793e-08
3.32059e-08
4.98099e-08
2.40342e-07
2.2244e-06
1.14691e-05
4.57462e-05
5.09622e-05
0.000226599
0.000161238
3.02711e-05
4.03028e-05
7.531e-06
1.79283e-06
4.47418e-07
1.16371e-07
6.36119e-08
4.81363e-08
3.95015e-08
3.59035e-08
3.46655e-08
3.25176e-08
3.10832e-08
3.09875e-08
3.11751e-08
3.12124e-08
3.25249e-08
3.47376e-08
3.30609e-08
3.3757e-08
3.64377e-08
4.11488e-08
6.42401e-08
2.6852e-07
1.66918e-06
8.325e-06
4.64238e-05
6.72798e-05
0.000238845
0.000427869
8.88564e-05
5.53606e-05
7.38267e-06
1.45426e-06
4.42452e-07
1.57372e-07
7.69221e-08
5.37964e-08
4.25309e-08
3.7284e-08
3.60843e-08
3.19937e-08
3.09423e-08
2.97913e-08
2.9788e-08
3.10572e-08
3.21091e-08
3.50747e-08
3.28408e-08
3.628e-08
4.23638e-08
5.56014e-08
9.83758e-08
3.47256e-07
1.57767e-06
7.97967e-06
5.30975e-05
8.68383e-05
0.000253663
0.000515757
0.000107738
7.37286e-05
9.05218e-06
1.44281e-06
4.28797e-07
1.79507e-07
8.03643e-08
5.29929e-08
4.18275e-08
3.54131e-08
3.24602e-08
3.08881e-08
2.92513e-08
2.91077e-08
2.91085e-08
2.95938e-08
3.14133e-08
3.37846e-08
3.42816e-08
3.98496e-08
5.00076e-08
7.32129e-08
1.43378e-07
4.40588e-07
1.73504e-06
8.91479e-06
6.69293e-05
0.000107184
0.00026474
0.000222045
8.47551e-05
8.27249e-05
1.16517e-05
1.57772e-06
3.73862e-07
1.63745e-07
7.41574e-08
4.7206e-08
3.7128e-08
3.22754e-08
2.97766e-08
2.93194e-08
2.88317e-08
2.79666e-08
2.79818e-08
2.87621e-08
3.06699e-08
3.11167e-08
3.48419e-08
4.21504e-08
5.54402e-08
8.59418e-08
1.80564e-07
5.18894e-07
1.89177e-06
1.12447e-05
8.49673e-05
9.87904e-05
0.000213389
0.000171996
7.22762e-05
7.65897e-05
1.28966e-05
1.54531e-06
3.07877e-07
1.26246e-07
5.85535e-08
3.71542e-08
3.05189e-08
2.76341e-08
2.66548e-08
2.74699e-08
2.62506e-08
2.48004e-08
2.51008e-08
2.70194e-08
2.9332e-08
2.95481e-08
3.40757e-08
4.11034e-08
5.47315e-08
8.79472e-08
1.97696e-07
5.29034e-07
1.98494e-06
1.32858e-05
8.36379e-05
7.74795e-05
0.00017449
0.000166806
6.17445e-05
6.98182e-05
1.31036e-05
1.38204e-06
2.237e-07
8.37889e-08
3.97601e-08
2.62448e-08
2.32853e-08
2.2215e-08
2.13027e-08
2.41866e-08
2.12109e-08
2.4464e-08
2.4765e-08
2.32997e-08
2.72054e-08
2.74629e-08
3.11841e-08
3.70196e-08
4.93295e-08
8.24131e-08
1.86408e-07
4.67144e-07
1.88212e-06
1.35977e-05
7.31234e-05
6.32127e-05
0.000171015
0.000167378
5.57792e-05
6.37202e-05
1.27478e-05
1.28066e-06
1.46933e-07
4.39382e-08
2.17165e-08
1.65244e-08
1.63743e-08
1.73319e-08
1.91893e-08
1.84105e-08
2.2113e-08
2.05057e-08
2.08056e-08
2.35312e-08
2.32422e-08
2.38488e-08
2.63486e-08
3.12243e-08
4.1637e-08
6.91453e-08
1.49297e-07
3.61418e-07
1.63415e-06
1.25133e-05
6.32515e-05
5.46457e-05
0.000169926
0.000174662
5.53575e-05
5.93636e-05
1.18934e-05
1.24419e-06
1.10982e-07
1.92067e-08
9.33936e-09
1.00754e-08
1.24343e-08
1.43966e-08
1.5925e-08
1.6145e-08
1.98066e-08
1.63217e-08
1.69606e-08
2.05977e-08
1.85698e-08
2.0373e-08
2.19914e-08
2.46657e-08
3.1017e-08
5.00546e-08
1.03818e-07
2.56462e-07
1.39079e-06
1.12226e-05
5.68294e-05
5.52916e-05
0.000174988
0.000187412
6.03245e-05
5.88418e-05
1.05679e-05
1.12704e-06
1.01673e-07
9.93257e-09
4.70899e-09
7.65163e-09
1.02635e-08
1.22919e-08
1.21772e-08
1.44546e-08
1.40951e-08
1.74039e-08
1.78894e-08
1.56552e-08
1.60641e-08
1.59313e-08
1.67222e-08
1.7665e-08
2.06571e-08
3.09698e-08
6.22319e-08
1.78528e-07
1.16211e-06
1.00207e-05
5.43977e-05
6.1314e-05
0.000188951
0.000195489
6.60234e-05
6.40659e-05
1.03757e-05
9.12725e-07
9.6202e-08
7.65587e-09
3.47858e-09
5.06362e-09
6.62527e-09
7.87369e-09
9.6824e-09
1.00069e-08
1.2824e-08
1.37991e-08
1.38199e-08
1.37509e-08
1.15201e-08
9.7291e-09
9.24819e-09
9.02129e-09
9.54275e-09
1.41098e-08
3.10551e-08
1.26457e-07
9.36371e-07
9.12292e-06
5.70604e-05
6.83247e-05
0.000202223
0.000193323
6.80222e-05
7.03955e-05
1.22002e-05
8.97752e-07
9.79275e-08
1.10088e-08
3.81196e-09
3.61036e-09
4.84133e-09
6.21389e-09
8.2135e-09
9.81972e-09
1.09697e-08
1.12367e-08
1.09797e-08
1.08772e-08
7.9437e-09
6.41804e-09
4.10342e-09
2.62479e-09
2.30799e-09
4.20428e-09
1.2663e-08
8.30024e-08
7.56256e-07
9.26038e-06
6.35186e-05
7.14415e-05
0.000200887
0.000185155
6.59872e-05
7.34866e-05
1.66022e-05
1.35146e-06
1.43878e-07
1.96877e-08
5.13646e-09
4.98287e-09
6.51352e-09
8.23022e-09
9.28656e-09
1.0817e-08
1.03529e-08
1.19095e-08
1.15646e-08
8.20727e-09
6.89309e-09
5.02281e-09
2.99396e-09
1.3948e-09
4.83481e-10
5.73229e-10
4.23918e-09
6.12619e-08
7.88687e-07
1.12743e-05
7.22129e-05
7.00842e-05
0.000193299
0.000174035
5.5778e-05
6.6724e-05
1.73951e-05
2.14932e-06
2.0869e-07
2.93668e-08
8.75197e-09
1.03534e-08
1.25432e-08
1.35814e-08
1.4425e-08
1.33159e-08
1.59451e-08
1.37598e-08
1.31367e-08
1.17425e-08
1.00014e-08
8.04945e-09
6.90599e-09
4.92661e-09
2.30343e-09
9.32926e-11
5.09469e-09
9.41996e-08
1.23798e-06
1.63023e-05
7.19703e-05
6.04989e-05
0.000176704
0.000168106
4.5876e-05
5.33404e-05
1.2647e-05
2.35998e-06
2.57096e-07
3.37123e-08
1.37008e-08
1.46273e-08
1.69677e-08
1.82822e-08
1.84954e-08
1.92392e-08
1.72804e-08
1.81446e-08
1.69666e-08
1.55351e-08
1.59534e-08
1.57954e-08
1.37171e-08
1.22722e-08
9.50524e-09
4.14944e-09
1.13822e-08
1.48518e-07
2.07893e-06
1.76119e-05
5.92591e-05
4.75306e-05
0.000162046
0.000168056
4.31148e-05
4.20823e-05
9.51577e-06
2.42826e-06
3.51942e-07
3.34103e-08
1.50116e-08
1.48825e-08
1.74244e-08
1.92155e-08
1.93542e-08
2.14142e-08
1.66063e-08
2.07182e-08
1.96348e-08
1.64528e-08
1.81528e-08
1.84631e-08
1.64097e-08
1.58644e-08
1.45337e-08
1.09308e-08
2.08927e-08
2.03541e-07
2.68847e-06
1.31448e-05
4.70157e-05
4.06927e-05
0.000159391
0.000175942
4.51292e-05
3.38794e-05
7.08372e-06
1.95921e-06
4.41444e-07
2.29073e-08
9.58647e-09
1.58961e-08
2.0026e-08
2.15399e-08
2.2193e-08
2.04303e-08
2.3267e-08
1.87177e-08
1.92952e-08
2.19468e-08
1.91688e-08
1.80789e-08
1.97085e-08
1.83215e-08
1.47101e-08
8.34942e-09
1.67563e-08
3.96405e-07
2.34068e-06
1.01932e-05
3.87458e-05
4.05897e-05
0.000167867
0.000181045
4.85475e-05
2.3853e-05
5.17499e-06
8.70672e-07
3.65273e-07
2.81769e-08
1.31117e-08
1.99292e-08
2.25358e-08
2.26751e-08
2.38813e-08
2.13327e-08
2.6319e-08
1.99489e-08
2.02262e-08
2.52744e-08
2.11215e-08
2.02173e-08
2.2062e-08
2.16615e-08
1.89926e-08
1.21435e-08
1.72752e-08
4.51908e-07
1.62293e-06
8.20443e-06
2.46013e-05
4.04411e-05
0.000177959
0.000178727
6.52355e-05
2.12647e-05
3.66304e-06
2.33875e-07
2.23893e-07
5.60638e-08
1.94982e-08
2.22169e-08
2.3933e-08
2.53072e-08
2.52156e-08
2.7184e-08
2.34358e-08
2.87149e-08
2.73444e-08
2.28674e-08
2.63305e-08
2.7302e-08
2.5281e-08
2.50739e-08
2.44328e-08
2.04112e-08
4.80445e-08
3.6992e-07
5.67104e-07
4.26237e-06
1.82995e-05
5.42891e-05
0.000172358
0.000196065
0.000106719
3.00386e-05
4.46764e-06
2.91244e-07
3.95697e-08
6.66887e-08
2.20981e-08
2.81447e-08
3.01801e-08
3.18334e-08
2.93262e-08
3.21086e-08
2.62155e-08
3.15759e-08
3.16304e-08
2.56075e-08
3.0812e-08
3.18333e-08
3.18501e-08
3.23232e-08
3.05913e-08
2.39541e-08
8.22343e-08
1.15925e-07
3.33683e-07
3.97782e-06
2.38452e-05
8.86908e-05
0.000184174
0.000188287
0.000136366
4.82626e-05
5.61528e-06
4.90912e-07
4.68004e-09
6.8322e-08
3.68657e-08
4.24186e-08
4.15507e-08
3.88865e-08
3.82165e-08
3.44382e-08
3.81767e-08
3.15505e-08
3.20763e-08
3.82266e-08
3.44729e-08
3.55482e-08
3.8631e-08
4.13344e-08
4.27332e-08
3.74214e-08
8.59766e-08
5.7631e-09
4.32231e-07
4.43194e-06
3.93683e-05
0.000132468
0.000197774
0.0001546
0.000117672
5.76163e-05
5.52656e-06
5.62947e-07
1.25527e-08
7.86441e-08
5.81953e-08
5.41229e-08
4.99571e-08
4.57761e-08
4.46513e-08
3.94628e-08
4.1107e-08
3.59417e-08
3.5406e-08
4.14059e-08
3.97857e-08
4.23488e-08
4.64562e-08
4.96411e-08
5.45921e-08
6.07912e-08
8.59065e-08
1.08089e-08
4.84949e-07
4.41814e-06
5.47764e-05
0.000127325
0.000167887
0.000153089
9.72573e-05
5.9625e-05
4.85773e-06
5.14166e-07
4.40755e-08
1.24892e-07
1.04651e-07
7.97551e-08
6.52329e-08
5.74902e-08
5.04055e-08
4.94644e-08
4.03549e-08
4.23248e-08
4.26194e-08
4.03376e-08
4.89044e-08
5.21141e-08
5.89662e-08
6.77048e-08
8.2197e-08
1.10561e-07
1.34123e-07
5.48624e-08
4.86535e-07
4.3155e-06
6.33984e-05
0.000108473
0.000155916
0.000171249
9.1318e-05
6.57831e-05
5.02075e-06
4.48684e-07
1.32349e-07
1.69711e-07
1.46027e-07
1.08837e-07
8.36007e-08
6.72358e-08
5.83023e-08
5.34406e-08
4.94986e-08
4.77747e-08
4.81515e-08
5.00603e-08
5.485e-08
6.04116e-08
6.83727e-08
8.63279e-08