/*--------------------------------*- C++ -*----------------------------------*\
| =========                 |                                                 |
| \\      /  F ield         | OpenFOAM: The Open Source CFD Toolbox           |
|  \\    /   O peration     | Version:  2.3.0                                 |
|   \\  /    A nd           | Web:      www.OpenFOAM.org                      |
|    \\/     M anipulation  |                                                 |
\*---------------------------------------------------------------------------*/
FoamFile
{
    version     2.0;
    format      ascii;
    class       volScalarField;
    location    "0.28";
    object      alpha.air;
}
// * * * * * * * * * * * * * * * * * * * * * * * * * * * * * * * * * * * * * //

dimensions      [0 0 0 0 0 0 0];

internalField   nonuniform List<scalar> 
6000
(
0.620072
0.584255
0.583959
0.583958
0.583958
0.583957
0.583956
0.583955
0.583955
0.583959
0.607933
0.660216
0.670386
0.667662
0.665192
0.666454
0.669569
0.671009
0.657545
0.60403
0.582343
0.582339
0.58234
0.582341
0.582342
0.582342
0.582343
0.582343
0.582346
0.620171
0.648104
0.648104
0.636041
0.632947
0.636949
0.636888
0.625399
0.603336
0.608745
0.653078
0.671661
0.670311
0.671723
0.670311
0.670878
0.670304
0.671607
0.670278
0.671596
0.670067
0.650867
0.608739
0.606126
0.626268
0.634351
0.634288
0.627695
0.631299
0.64471
0.645461
0.63352
0.6353
0.628254
0.621196
0.622885
0.625689
0.616272
0.605965
0.632652
0.671326
0.670305
0.671653
0.670311
0.671643
0.670304
0.671539
0.670274
0.671588
0.67007
0.671548
0.669859
0.632059
0.607448
0.616421
0.622918
0.618775
0.616227
0.622888
0.631327
0.626946
0.57683
0.610082
0.604459
0.601127
0.601024
0.606065
0.614169
0.624054
0.660519
0.670278
0.671508
0.670305
0.671642
0.670305
0.671498
0.670279
0.671568
0.670069
0.671566
0.66986
0.671376
0.658283
0.622639
0.609888
0.602958
0.595706
0.594889
0.59857
0.607552
0.565919
0.507327
0.577539
0.571044
0.563515
0.56651
0.582816
0.615013
0.640854
0.669992
0.671123
0.670278
0.67122
0.670305
0.671171
0.670279
0.671041
0.669992
0.671107
0.66986
0.671045
0.66986
0.66951
0.637642
0.604229
0.572965
0.560197
0.557588
0.568457
0.578189
0.498388
0.473291
0.538437
0.545059
0.523353
0.528332
0.583985
0.627515
0.651019
0.670135
0.669992
0.6705
0.670278
0.67073
0.670279
0.67041
0.669992
0.670328
0.66986
0.670377
0.66986
0.670645
0.669856
0.648324
0.612927
0.552699
0.522056
0.524978
0.547279
0.538986
0.468345
0.459696
0.492933
0.510178
0.489466
0.50139
0.602559
0.640857
0.659881
0.669799
0.670135
0.665489
0.66205
0.661355
0.661814
0.662097
0.662246
0.662045
0.66197
0.662949
0.667014
0.669856
0.669927
0.657382
0.627697
0.565587
0.489469
0.494735
0.517959
0.491189
0.455574
0.45826
0.465449
0.473783
0.465552
0.501643
0.606951
0.64426
0.659399
0.660193
0.640108
0.616932
0.605343
0.602368
0.603435
0.604551
0.604854
0.604336
0.604222
0.608211
0.621429
0.64512
0.662797
0.657629
0.63262
0.586971
0.469121
0.466372
0.480714
0.464665
0.454518
0.460077
0.458003
0.458164
0.457984
0.504816
0.583556
0.625014
0.633365
0.608333
0.563768
0.533167
0.520268
0.517184
0.517967
0.519207
0.51941
0.518867
0.518721
0.523245
0.538156
0.57149
0.615472
0.633814
0.618309
0.572361
0.488851
0.456033
0.456071
0.455111
0.454506
0.463159
0.458154
0.457873
0.490123
0.506816
0.536087
0.568543
0.564547
0.521857
0.487006
0.475944
0.475482
0.475578
0.475482
0.475578
0.475504
0.475578
0.475479
0.47558
0.477031
0.490427
0.529248
0.566917
0.565663
0.537924
0.540121
0.484738
0.454941
0.454733
0.457389
0.465259
0.457797
0.478642
0.670417
0.610962
0.514369
0.509273
0.494555
0.474923
0.475583
0.474379
0.47557
0.474495
0.475571
0.474717
0.475571
0.474635
0.475571
0.474454
0.475571
0.474344
0.475609
0.493472
0.505842
0.527441
0.66894
0.652469
0.470276
0.454902
0.457423
0.469027
0.458303
0.588502
0.778762
0.780766
0.637468
0.583701
0.576002
0.549934
0.501787
0.475627
0.47418
0.475593
0.47418
0.475588
0.474178
0.475591
0.474183
0.475602
0.474211
0.505809
0.547455
0.569627
0.579011
0.654821
0.789635
0.770326
0.546465
0.454832
0.457686
0.469395
0.486003
0.647709
0.786748
0.791452
0.786764
0.776807
0.769778
0.761184
0.724092
0.657532
0.598448
0.566073
0.551755
0.542585
0.544759
0.551427
0.569696
0.600507
0.664553
0.72655
0.758211
0.768167
0.773584
0.79032
0.786751
0.787943
0.611872
0.455396
0.457962
0.461907
0.5592
0.658581
0.787479
0.786774
0.793129
0.786824
0.792165
0.786774
0.790325
0.786747
0.78695
0.778592
0.772167
0.766853
0.76764
0.772003
0.780132
0.785971
0.788999
0.786751
0.791324
0.786774
0.792926
0.786774
0.792099
0.786751
0.652481
0.488516
0.458247
0.465795
0.625072
0.633989
0.780617
0.790832
0.786824
0.793091
0.786824
0.791579
0.786774
0.790417
0.786749
0.789368
0.78672
0.788606
0.786705
0.788946
0.786729
0.789809
0.786751
0.790988
0.786774
0.792258
0.7868
0.79299
0.786774
0.787429
0.652146
0.554143
0.456827
0.541851
0.627
0.610774
0.755844
0.786824
0.792799
0.786875
0.792093
0.786824
0.790936
0.786774
0.789859
0.786749
0.788929
0.78672
0.788677
0.786729
0.78934
0.786751
0.790381
0.786774
0.791416
0.7868
0.792851
0.7868
0.790601
0.780629
0.620534
0.609905
0.475944
0.57849
0.629154
0.602693
0.707774
0.788835
0.786824
0.792687
0.786824
0.791241
0.786774
0.79031
0.786749
0.789279
0.78672
0.788533
0.786705
0.788864
0.786729
0.789752
0.786751
0.790769
0.786774
0.791892
0.7868
0.792204
0.786774
0.752982
0.595101
0.6118
0.531546
0.591092
0.627004
0.601704
0.657596
0.786774
0.791658
0.786824
0.791623
0.786774
0.790628
0.786749
0.789667
0.78672
0.78876
0.786693
0.788565
0.786705
0.789166
0.786729
0.79017
0.786751
0.79105
0.786774
0.79227
0.786774
0.788925
0.702457
0.583499
0.613459
0.560109
0.594856
0.628706
0.601698
0.614097
0.787459
0.786774
0.792078
0.786774
0.790825
0.786749
0.790045
0.78672
0.789056
0.786693
0.788435
0.786673
0.788661
0.786705
0.789521
0.786729
0.790444
0.786751
0.791438
0.786774
0.791053
0.786751
0.655963
0.578198
0.611804
0.575068
0.580779
0.627004
0.606379
0.580818
0.786749
0.790374
0.786774
0.79118
0.786749
0.790269
0.78672
0.789395
0.786693
0.78851
0.786666
0.788346
0.786673
0.788923
0.786705
0.789879
0.786729
0.790636
0.786751
0.791562
0.786751
0.787619
0.620076
0.576624
0.613114
0.578738
0.557912
0.627323
0.609071
0.55657
0.758209
0.786749
0.79168
0.786749
0.790396
0.78672
0.789718
0.786693
0.788762
0.786666
0.788183
0.786638
0.788386
0.786673
0.789233
0.786705
0.790074
0.786729
0.79099
0.786751
0.789722
0.786729
0.59014
0.576665
0.611804
0.567957
0.540391
0.613604
0.597425
0.537377
0.6984
0.789247
0.786749
0.790729
0.78672
0.789858
0.786693
0.789056
0.786666
0.788202
0.786638
0.78806
0.786626
0.788615
0.786673
0.789542
0.786705
0.790211
0.786729
0.791043
0.786729
0.764081
0.559788
0.576183
0.612057
0.551901
0.52487
0.57996
0.572301
0.523567
0.651359
0.78672
0.791073
0.78672
0.789894
0.786693
0.78932
0.786666
0.788418
0.786638
0.787868
0.786612
0.788046
0.786626
0.78888
0.786673
0.789657
0.786705
0.790524
0.786729
0.788452
0.705448
0.535495
0.572521
0.599687
0.537188
0.512237
0.558598
0.56018
0.518557
0.629668
0.78817
0.78672
0.790125
0.786693
0.789375
0.786666
0.78866
0.786638
0.787828
0.786612
0.787707
0.786586
0.788234
0.786626
0.789137
0.786673
0.789712
0.786705
0.790341
0.786705
0.642102
0.516942
0.556968
0.566978
0.521434
0.501261
0.548735
0.560044
0.514796
0.618915
0.786693
0.790122
0.786693
0.789398
0.786666
0.788867
0.786638
0.787999
0.786612
0.787485
0.786586
0.787639
0.786559
0.78845
0.786626
0.789159
0.786673
0.789884
0.786705
0.787396
0.592507
0.50887
0.540943
0.541514
0.508121
0.488115
0.534484
0.559895
0.511781
0.604039
0.787228
0.786693
0.789533
0.786666
0.788822
0.786638
0.788187
0.786612
0.787437
0.786586
0.787293
0.786559
0.787779
0.786552
0.788654
0.786626
0.789231
0.786673
0.789304
0.786673
0.564427
0.507656
0.530316
0.527973
0.49816
0.473466
0.510427
0.548279
0.507431
0.592799
0.786666
0.789167
0.786666
0.788853
0.786638
0.788336
0.786612
0.787551
0.786586
0.787089
0.786559
0.787165
0.78653
0.787937
0.786552
0.788582
0.786626
0.789267
0.786673
0.777082
0.540403
0.506012
0.525813
0.51914
0.489231
0.461539
0.485258
0.524433
0.50095
0.582142
0.78206
0.786666
0.788894
0.786638
0.788234
0.786612
0.787679
0.786586
0.786959
0.786559
0.786842
0.78653
0.787243
0.786521
0.788087
0.786552
0.788666
0.786626
0.788222
0.747389
0.518371
0.504454
0.521182
0.508127
0.479626
0.454666
0.467324
0.49813
0.493153
0.57325
0.766517
0.788183
0.786638
0.78828
0.786612
0.78777
0.786586
0.78701
0.786559
0.78664
0.78653
0.786641
0.786499
0.78734
0.786521
0.787915
0.786552
0.788511
0.786626
0.706587
0.501457
0.504112
0.511204
0.493102
0.469605
0.451761
0.457108
0.476321
0.483518
0.568665
0.745957
0.786638
0.788095
0.786612
0.787586
0.786586
0.787073
0.786559
0.786242
0.782583
0.782839
0.78639
0.786649
0.786499
0.787429
0.786521
0.787976
0.786552
0.786958
0.666933
0.491434
0.500817
0.496289
0.477636
0.46096
0.451711
0.452148
0.461697
0.472739
0.566016
0.722513
0.786999
0.786612
0.787604
0.786586
0.787094
0.786559
0.786546
0.779922
0.774353
0.774531
0.78011
0.786473
0.786669
0.786499
0.787155
0.786521
0.787476
0.783627
0.635003
0.483102
0.490655
0.480545
0.465134
0.454659
0.451752
0.451716
0.453173
0.463951
0.559997
0.692308
0.769993
0.786996
0.786586
0.786809
0.786559
0.786128
0.779456
0.770177
0.765816
0.765789
0.770111
0.779232
0.786126
0.786682
0.786499
0.787137
0.786521
0.762404
0.608775
0.475897
0.477653
0.467454
0.456246
0.450772
0.477586
0.451895
0.451864
0.463713
0.554147
0.650032
0.724092
0.779656
0.786761
0.785523
0.782561
0.776953
0.767439
0.760332
0.75719
0.757087
0.760087
0.767057
0.777055
0.783369
0.785807
0.786499
0.778236
0.72536
0.588594
0.471102
0.466109
0.45802
0.451239
0.450368
0.573316
0.511992
0.465767
0.488004
0.52807
0.580393
0.661756
0.746659
0.774241
0.772949
0.768022
0.761553
0.754762
0.749975
0.747424
0.74732
0.74968
0.754336
0.76166
0.769289
0.773477
0.773941
0.74581
0.682077
0.570787
0.469034
0.458437
0.45241
0.450371
0.45036
0.577962
0.574664
0.524473
0.501268
0.506691
0.497171
0.571838
0.691854
0.743679
0.750994
0.748488
0.745107
0.741288
0.737818
0.735684
0.735593
0.737517
0.740832
0.745019
0.749088
0.750955
0.742727
0.697813
0.635777
0.54786
0.474091
0.454955
0.450396
0.450395
0.450473
0.577962
0.576645
0.552059
0.501722
0.486183
0.473093
0.494832
0.626108
0.702407
0.724572
0.72753
0.727384
0.72538
0.722792
0.721159
0.721074
0.72247
0.72475
0.726872
0.72693
0.723211
0.700371
0.646113
0.589439
0.519778
0.484
0.45998
0.451167
0.465406
0.518901
0.56884
0.551149
0.536306
0.489704
0.471504
0.469405
0.480834
0.567337
0.655831
0.692474
0.702966
0.706051
0.705623
0.70399
0.70298
0.702852
0.703604
0.70462
0.704821
0.700876
0.688935
0.651103
0.597616
0.551507
0.500905
0.483068
0.47738
0.463639
0.57565
0.609893
0.535139
0.518076
0.499888
0.474477
0.466988
0.469405
0.486431
0.532648
0.608921
0.65298
0.672149
0.679398
0.681349
0.681001
0.680691
0.680385
0.680378
0.679751
0.677095
0.668027
0.646083
0.600841
0.561944
0.531007
0.499418
0.481803
0.478731
0.516844
0.622236
0.610225
0.502355
0.491702
0.476862
0.46775
0.466323
0.472415
0.505896
0.525607
0.572201
0.610983
0.636201
0.648132
0.653351
0.65482
0.655186
0.654561
0.653605
0.650921
0.644279
0.629392
0.600681
0.563782
0.547611
0.527919
0.501212
0.482887
0.478818
0.559424
0.622228
0.580869
0.481062
0.47584
0.468885
0.466316
0.46636
0.480794
0.522491
0.533223
0.556634
0.578997
0.602229
0.61688
0.625124
0.628621
0.629535
0.628677
0.626608
0.621746
0.611315
0.593273
0.568479
0.552156
0.548054
0.529812
0.499882
0.485507
0.478901
0.56908
0.622237
0.550109
0.46798
0.46677
0.465286
0.466326
0.470163
0.502826
0.528433
0.551256
0.558003
0.565934
0.58037
0.593282
0.602292
0.607012
0.608269
0.607547
0.604593
0.598298
0.586825
0.572077
0.558807
0.555712
0.554147
0.531964
0.494051
0.489392
0.478997
0.567088
0.608763
0.529999
0.459968
0.460912
0.462459
0.464916
0.471714
0.524221
0.536111
0.566165
0.565483
0.565701
0.572871
0.581137
0.588212
0.592666
0.594058
0.593784
0.59063
0.584423
0.575606
0.567791
0.560642
0.565875
0.562077
0.530319
0.489261
0.492631
0.501116
0.559173
0.570826
0.514651
0.455116
0.457037
0.460497
0.463514
0.47299
0.526341
0.543244
0.569408
0.569972
0.568118
0.571996
0.576356
0.580522
0.58377
0.585195
0.585322
0.582674
0.578131
0.57364
0.568969
0.56675
0.570285
0.563495
0.522372
0.486378
0.500406
0.537287
0.546584
0.540036
0.501928
0.452985
0.454428
0.459215
0.464553
0.484413
0.520169
0.542149
0.566411
0.570056
0.57014
0.571061
0.573182
0.574778
0.576557
0.577873
0.578113
0.576629
0.574522
0.572995
0.570509
0.570435
0.570361
0.559057
0.509093
0.486278
0.511656
0.53722
0.530191
0.525151
0.492614
0.452975
0.452988
0.45652
0.465245
0.500191
0.514795
0.533229
0.554292
0.567383
0.567997
0.566749
0.567536
0.56751
0.568031
0.568947
0.569043
0.568874
0.569022
0.569476
0.56864
0.569909
0.569004
0.544724
0.497186
0.486303
0.521129
0.537336
0.507768
0.509287
0.483223
0.453005
0.452984
0.453744
0.464929
0.509964
0.515971
0.5201
0.533189
0.554178
0.558194
0.555947
0.556571
0.556534
0.556396
0.556754
0.556757
0.557455
0.558681
0.559209
0.55975
0.562547
0.556261
0.522972
0.49331
0.497416
0.527896
0.537148
0.48546
0.486869
0.472693
0.471931
0.455397
0.456591
0.477705
0.512525
0.516005
0.5132
0.514365
0.531718
0.540396
0.540297
0.541373
0.542683
0.542833
0.542913
0.54306
0.543861
0.544385
0.543452
0.544154
0.545128
0.531275
0.504937
0.493302
0.514772
0.535298
0.537168
0.474871
0.468669
0.464318
0.551097
0.473504
0.466571
0.495177
0.506508
0.513954
0.512813
0.510089
0.513474
0.522775
0.526504
0.527891
0.530269
0.531301
0.531498
0.531802
0.53218
0.531282
0.529232
0.529071
0.525025
0.509086
0.500057
0.496854
0.52721
0.535295
0.532628
0.476755
0.46374
0.463727
0.583259
0.520743
0.475718
0.493269
0.494487
0.507003
0.512653
0.510082
0.510094
0.515611
0.520623
0.522161
0.524075
0.525467
0.525792
0.525933
0.525726
0.524141
0.522241
0.520626
0.513281
0.503179
0.50009
0.507651
0.53414
0.535291
0.515656
0.479877
0.463756
0.463753
0.583473
0.565223
0.480891
0.483443
0.48681
0.496537
0.508478
0.510075
0.511897
0.516022
0.52047
0.522112
0.523502
0.524473
0.524695
0.524545
0.524013
0.522667
0.521314
0.518817
0.51236
0.506421
0.503925
0.512984
0.53424
0.531708
0.493945
0.480458
0.499402
0.515583
0.585019
0.600107
0.480572
0.480646
0.482828
0.487055
0.499022
0.510964
0.514108
0.517381
0.520745
0.52227
0.523292
0.523928
0.524023
0.523752
0.523237
0.522327
0.521459
0.51901
0.514037
0.513758
0.511489
0.518514
0.534127
0.524677
0.483099
0.480536
0.561223
0.561497
0.590929
0.627768
0.482494
0.480288
0.480645
0.481892
0.489923
0.507431
0.512403
0.516767
0.519963
0.52105
0.521485
0.521767
0.521745
0.521434
0.52111
0.520763
0.520638
0.51865
0.515451
0.515455
0.515056
0.529055
0.534233
0.513296
0.481709
0.481201
0.562188
0.561252
0.601754
0.629961
0.531531
0.480649
0.480598
0.480646
0.485971
0.501444
0.508138
0.513088
0.516193
0.516858
0.516825
0.516898
0.51694
0.516731
0.516643
0.516734
0.517251
0.51615
0.514292
0.515004
0.515961
0.534216
0.534099
0.500947
0.483414
0.487187
0.562201
0.55179
0.61506
0.630667
0.60119
0.480294
0.480645
0.481755
0.485878
0.501134
0.508178
0.509369
0.511225
0.511874
0.511935
0.511958
0.512137
0.512098
0.512104
0.512243
0.51267
0.512263
0.511721
0.51382
0.517623
0.534084
0.534137
0.496645
0.486452
0.49588
0.562194
0.539112
0.623819
0.629962
0.6302
0.497694
0.480488
0.484963
0.488061
0.504604
0.514577
0.510833
0.510904
0.510963
0.510998
0.510997
0.510998
0.510998
0.510998
0.510998
0.510998
0.510998
0.510998
0.514272
0.522232
0.534179
0.53272
0.494479
0.487713
0.495298
0.546782
0.528668
0.620525
0.630119
0.629962
0.582084
0.481663
0.483395
0.493181
0.509389
0.524412
0.520391
0.511976
0.510998
0.510997
0.511079
0.511671
0.511893
0.511737
0.511428
0.510998
0.510998
0.513011
0.517784
0.528436
0.534041
0.520985
0.490403
0.486327
0.487682
0.513144
0.518768
0.599438
0.607586
0.615771
0.611027
0.531191
0.483387
0.492735
0.510264
0.526658
0.526779
0.522178
0.517357
0.514778
0.515935
0.516426
0.516709
0.516701
0.516397
0.514716
0.514699
0.520329
0.524349
0.530953
0.532874
0.50059
0.486013
0.486016
0.485957
0.487799
0.507933
0.559179
0.576007
0.577916
0.610495
0.582736
0.483659
0.486207
0.509233
0.526699
0.526658
0.526746
0.526368
0.523025
0.522129
0.522065
0.522301
0.522706
0.523228
0.523217
0.523881
0.527331
0.529486
0.530938
0.525764
0.489156
0.486216
0.485765
0.495637
0.47871
0.49854
0.520789
0.563368
0.539944
0.60188
0.59128
0.496142
0.484212
0.505304
0.526658
0.526816
0.526658
0.526747
0.526658
0.525302
0.525001
0.525258
0.525627
0.52666
0.528254
0.529297
0.529984
0.530286
0.530576
0.515147
0.489127
0.496577
0.486018
0.518922
0.478741
0.493627
0.503253
0.563065
0.52143
0.574685
0.585384
0.529334
0.484231
0.497837
0.526669
0.526658
0.526744
0.526658
0.526682
0.525997
0.525752
0.525836
0.526145
0.527164
0.528975
0.530148
0.530229
0.530272
0.528906
0.509561
0.489332
0.520234
0.485757
0.529044
0.478714
0.496623
0.502859
0.563025
0.521327
0.53465
0.574926
0.567092
0.484215
0.490735
0.52432
0.526742
0.526658
0.526725
0.526658
0.526203
0.525972
0.525851
0.526145
0.527067
0.528674
0.529859
0.530246
0.530261
0.526471
0.510528
0.511976
0.536185
0.490425
0.531738
0.517745
0.506343
0.50334
0.563106
0.527015
0.509826
0.567576
0.56937
0.494809
0.490736
0.517701
0.526658
0.526705
0.526658
0.526662
0.52639
0.526154
0.525904
0.526099
0.526667
0.527707
0.528742
0.52981
0.529654
0.524947
0.515585
0.536903
0.536968
0.507931
0.537058
0.541278
0.510992
0.520035
0.562934
0.542957
0.508896
0.563458
0.56889
0.535126
0.491902
0.510784
0.525846
0.526658
0.526698
0.526602
0.526469
0.526353
0.526064
0.526106
0.526368
0.526723
0.527305
0.528504
0.527892
0.524175
0.520363
0.537238
0.536934
0.515107
0.539007
0.541242
0.508225
0.537146
0.562979
0.551949
0.508939
0.557422
0.56939
0.56889
0.506315
0.509632
0.522026
0.526347
0.526658
0.52661
0.526447
0.52645
0.526274
0.526211
0.526306
0.526285
0.526562
0.52723
0.526042
0.523256
0.521064
0.536934
0.532687
0.526841
0.530472
0.536861
0.502505
0.541569
0.562844
0.551082
0.509411
0.546223
0.56889
0.569491
0.525608
0.509692
0.518022
0.524607
0.526666
0.526656
0.526458
0.526454
0.526422
0.52636
0.526195
0.526118
0.526467
0.526568
0.524887
0.522271
0.521119
0.537208
0.521917
0.539955
0.505369
0.518577
0.49644
0.538077
0.56191
0.541973
0.505437
0.53221
0.569164
0.56889
0.542266
0.511304
0.517344
0.522719
0.526251
0.526651
0.526481
0.526428
0.526431
0.526414
0.526231
0.526119
0.526462
0.526
0.523984
0.522241
0.524405
0.536934
0.516676
0.539976
0.485481
0.49756
0.488722
0.528699
0.547086
0.523946
0.4965
0.518616
0.56889
0.569491
0.554054
0.521528
0.518952
0.522275
0.525407
0.52662
0.526513
0.526434
0.526435
0.526413
0.52637
0.526178
0.526454
0.525072
0.523002
0.522258
0.534953
0.53712
0.516633
0.53937
0.485348
0.482729
0.480008
0.522089
0.526661
0.505693
0.488714
0.503632
0.565798
0.56889
0.561256
0.534315
0.523429
0.52279
0.524916
0.526554
0.526528
0.526487
0.526454
0.526427
0.526423
0.526296
0.5262
0.523819
0.522257
0.522206
0.537184
0.536934
0.516672
0.535262
0.505662
0.476011
0.47298
0.523233
0.518739
0.494068
0.483022
0.48763
0.54739
0.56905
0.564495
0.54158
0.528373
0.524372
0.524971
0.526411
0.526523
0.526491
0.526445
0.5264
0.526421
0.52637
0.525604
0.522944
0.522233
0.522257
0.536934
0.537078
0.520564
0.531322
0.523755
0.471359
0.467504
0.523172
0.520221
0.485776
0.47549
0.477236
0.516853
0.566195
0.564125
0.54387
0.531061
0.52633
0.52528
0.52624
0.526496
0.526423
0.526391
0.526342
0.526415
0.52629
0.525034
0.522969
0.522257
0.524903
0.537186
0.536934
0.526969
0.528138
0.523875
0.465876
0.464067
0.523121
0.52042
0.477176
0.468602
0.475997
0.491769
0.549242
0.559542
0.543546
0.531781
0.527529
0.525713
0.526154
0.526438
0.526355
0.526332
0.526304
0.526411
0.526074
0.52483
0.523948
0.523476
0.536099
0.536934
0.536986
0.527049
0.522033
0.516753
0.464067
0.464039
0.523045
0.510316
0.46869
0.468571
0.478921
0.480801
0.52183
0.548542
0.541238
0.531806
0.527927
0.526041
0.526164
0.526434
0.526347
0.526292
0.526307
0.526406
0.525978
0.524997
0.526287
0.528923
0.536934
0.537089
0.536444
0.522852
0.513432
0.504344
0.464059
0.464049
0.518144
0.49015
0.466809
0.47349
0.489156
0.480798
0.50246
0.533669
0.536525
0.531243
0.527912
0.526142
0.526148
0.526429
0.526339
0.526239
0.526366
0.526406
0.526038
0.525805
0.528661
0.532881
0.537084
0.536934
0.529601
0.514139
0.507205
0.494096
0.464099
0.481996
0.494034
0.471946
0.466699
0.494959
0.511513
0.485497
0.498588
0.52047
0.53034
0.529378
0.527334
0.525943
0.525978
0.526425
0.526338
0.526186
0.526392
0.526397
0.52617
0.526721
0.529555
0.533531
0.536934
0.53304
0.517395
0.508334
0.507324
0.493024
0.50492
0.583476
0.470421
0.462704
0.466602
0.517912
0.536371
0.512186
0.500819
0.513149
0.524063
0.526166
0.5256
0.525011
0.525433
0.526225
0.526331
0.526187
0.526382
0.526396
0.526033
0.526596
0.528925
0.532179
0.534606
0.523593
0.508964
0.508357
0.512284
0.492551
0.536669
0.615342
0.462692
0.462705
0.49509
0.522904
0.540918
0.537821
0.510431
0.512221
0.519391
0.522704
0.523279
0.523459
0.524367
0.525459
0.526205
0.526184
0.526225
0.525926
0.525029
0.525169
0.526086
0.527388
0.525808
0.516185
0.508967
0.509156
0.512403
0.493025
0.559427
0.617526
0.46271
0.462742
0.507925
0.520286
0.540882
0.541057
0.529272
0.512306
0.517599
0.520842
0.522008
0.522505
0.523318
0.524565
0.525891
0.526168
0.52579
0.524601
0.523166
0.522648
0.521973
0.521006
0.516884
0.515602
0.518231
0.525393
0.511751
0.492417
0.582291
0.617442
0.504564
0.512658
0.508041
0.512607
0.540756
0.540882
0.541057
0.515791
0.518445
0.521162
0.522459
0.522861
0.523246
0.524295
0.525641
0.526115
0.525261
0.523425
0.521995
0.521315
0.519906
0.517424
0.515602
0.515606
0.538013
0.540101
0.505137
0.493027
0.602836
0.617442
0.583937
0.583292
0.508129
0.509529
0.53558
0.541011
0.540882
0.524933
0.52314
0.524105
0.525148
0.525052
0.524302
0.524619
0.525648
0.526061
0.525044
0.52345
0.52251
0.522166
0.520811
0.517761
0.515606
0.524351
0.541114
0.540951
0.504253
0.501539
0.61596
0.617442
0.588079
0.588234
0.562012
0.509969
0.523709
0.540882
0.541172
0.534125
0.530664
0.529581
0.529513
0.52871
0.526844
0.525725
0.525813
0.526055
0.525211
0.524605
0.52511
0.52573
0.525043
0.521781
0.515602
0.541044
0.541308
0.53484
0.504609
0.56298
0.617084
0.617336
0.584689
0.58797
0.588562
0.51224
0.514966
0.540312
0.540882
0.539339
0.535559
0.533624
0.532305
0.531074
0.529068
0.527099
0.526098
0.526106
0.525923
0.527
0.528881
0.530325
0.530933
0.529476
0.525571
0.541389
0.541114
0.520136
0.505168
0.614492
0.616438
0.607798
0.549874
0.588046
0.587838
0.52777
0.514975
0.535415
0.541045
0.540805
0.5363
0.534562
0.532727
0.531396
0.529682
0.527887
0.526402
0.526249
0.526918
0.528886
0.53101
0.532634
0.534205
0.535275
0.540931
0.541114
0.541154
0.513884
0.512053
0.614422
0.609744
0.571113
0.506378
0.586572
0.588407
0.559477
0.514985
0.52626
0.540882
0.54047
0.535138
0.53388
0.532049
0.530843
0.529455
0.528003
0.526785
0.526454
0.527505
0.529263
0.531101
0.53263
0.534389
0.536461
0.541114
0.541294
0.536991
0.513945
0.542301
0.614355
0.602231
0.531084
0.499827
0.582165
0.58767
0.580935
0.514981
0.51815
0.540775
0.538602
0.531928
0.531465
0.530037
0.529249
0.528615
0.527839
0.52706
0.526677
0.527639
0.529041
0.530382
0.53157
0.533353
0.535831
0.541155
0.541114
0.525151
0.514007
0.575334
0.614288
0.601169
0.522552
0.528639
0.581115
0.587615
0.577333
0.514964
0.516694
0.536331
0.535607
0.529251
0.528784
0.528089
0.52771
0.527609
0.527443
0.527048
0.526864
0.527586
0.528341
0.528885
0.529547
0.53089
0.533824
0.540705
0.539988
0.518215
0.51433
0.581893
0.610598
0.599485
0.546579
0.586158
0.584035
0.579095
0.55238
0.522887
0.518391
0.528964
0.533264
0.528941
0.527815
0.527594
0.527369
0.527258
0.527174
0.526975
0.526937
0.527437
0.527674
0.527834
0.528078
0.528711
0.531344
0.537082
0.533364
0.520746
0.525984
0.569292
0.600387
0.598121
0.595126
0.589431
0.586427
0.56925
0.526003
0.513361
0.518123
0.523243
0.531242
0.529242
0.528034
0.52789
0.527685
0.527506
0.527304
0.527001
0.527023
0.527443
0.527662
0.527834
0.528047
0.528405
0.529806
0.531881
0.524381
0.517133
0.521282
0.55369
0.588592
0.598043
0.598076
0.589283
0.586147
0.558714
0.527814
0.496028
0.499006
0.514063
0.529091
0.529233
0.528637
0.528602
0.528386
0.528118
0.527796
0.527307
0.527305
0.527672
0.527961
0.528216
0.528464
0.528672
0.529234
0.52686
0.507645
0.493478
0.51006
0.54629
0.573079
0.594618
0.598005
0.589142
0.576856
0.543193
0.519748
0.484562
0.474118
0.49809
0.52485
0.529164
0.528783
0.528767
0.528647
0.528414
0.528205
0.527811
0.527728
0.527977
0.528255
0.528469
0.528544
0.52857
0.528519
0.51954
0.487799
0.472438
0.492628
0.527967
0.553107
0.581648
0.597858
0.589003
0.554427
0.520248
0.495726
0.472824
0.46544
0.487451
0.519353
0.527895
0.527428
0.527615
0.527695
0.527718
0.527859
0.527821
0.527731
0.527677
0.527566
0.527438
0.52718
0.526823
0.526732
0.51298
0.478203
0.464679
0.474419
0.497669
0.525343
0.558132
0.597734
0.580466
0.524686
0.493016
0.474371
0.465429
0.465429
0.484754
0.513737
0.524265
0.523112
0.523568
0.524024
0.524659
0.525744
0.526633
0.526574
0.525681
0.524549
0.523819
0.523216
0.522657
0.523405
0.507859
0.476916
0.463928
0.464139
0.473486
0.493527
0.527102
0.58506
0.549208
0.495451
0.472412
0.464324
0.46426
0.465563
0.486005
0.509401
0.519585
0.518494
0.518868
0.519251
0.519984
0.521691
0.523201
0.523213
0.521831
0.52026
0.519632
0.519276
0.518953
0.519766
0.504429
0.477907
0.463829
0.462349
0.462384
0.470754
0.494783
0.549017
0.511052
0.472738
0.461203
0.460669
0.464157
0.472415
0.495325
0.508741
0.517631
0.517672
0.517713
0.517755
0.517798
0.51867
0.519642
0.519706
0.518972
0.518586
0.518519
0.518473
0.518428
0.518382
0.504796
0.484413
0.467996
0.462427
0.459184
0.45957
0.470624
0.507949
0.479331
0.458574
0.455343
0.458705
0.465554
0.482802
0.515494
0.510473
0.521928
0.524093
0.522968
0.522205
0.521124
0.520724
0.520578
0.520661
0.521012
0.522393
0.523672
0.52465
0.526183
0.523164
0.509859
0.502099
0.477118
0.465453
0.458078
0.454303
0.457051
0.475917
0.457948
0.450665
0.451259
0.45679
0.464606
0.491669
0.535948
0.524085
0.539235
0.54666
0.54423
0.541005
0.535991
0.531006
0.528361
0.528449
0.531453
0.538602
0.54311
0.545997
0.547352
0.541163
0.531568
0.52673
0.484647
0.464435
0.456407
0.450576
0.449859
0.456127
0.448217
0.448158
0.44853
0.455492
0.462418
0.494872
0.547589
0.549528
0.549937
0.549962
0.549937
0.549961
0.549936
0.544538
0.540691
0.540742
0.546329
0.548016
0.548096
0.548016
0.548096
0.548016
0.548095
0.543523
0.486517
0.461041
0.455039
0.448047
0.447742
0.447757
0.448147
0.448151
0.449126
0.458411
0.462219
0.498409
0.549738
0.549936
0.549961
0.549937
0.549961
0.549936
0.54996
0.54988
0.547311
0.547323
0.548016
0.548095
0.548016
0.548096
0.548016
0.548095
0.548016
0.546293
0.489675
0.460128
0.458315
0.449092
0.447738
0.447731
0.448148
0.448276
0.459667
0.46706
0.468221
0.499281
0.538443
0.54422
0.546963
0.545709
0.546442
0.546836
0.546866
0.546456
0.545453
0.54545
0.546032
0.545952
0.545798
0.545384
0.544637
0.545714
0.542456
0.534892
0.492136
0.465915
0.467149
0.460228
0.447876
0.447733
0.448329
0.490728
0.477368
0.47523
0.472627
0.489275
0.506951
0.514939
0.523416
0.52233
0.52452
0.526566
0.528291
0.530956
0.533273
0.533234
0.531022
0.528662
0.526935
0.524894
0.522617
0.523258
0.513721
0.504201
0.485295
0.471225
0.474481
0.477999
0.494321
0.447939
0.49352
0.614169
0.524064
0.47202
0.471399
0.474011
0.478524
0.482626
0.491176
0.493164
0.496193
0.499728
0.503416
0.508576
0.512716
0.512634
0.508501
0.503893
0.500394
0.496881
0.493684
0.491395
0.482233
0.477429
0.472821
0.470942
0.471298
0.524551
0.616749
0.500468
0.607296
0.652728
0.624926
0.512834
0.471375
0.471398
0.471357
0.47402
0.480781
0.483256
0.486313
0.489598
0.492946
0.496981
0.499827
0.499714
0.496823
0.493072
0.489868
0.486618
0.483478
0.481011
0.474361
0.470901
0.470942
0.47092
0.51297
0.624323
0.653652
0.61301
0.647551
0.653022
0.652728
0.622174
0.511073
0.471378
0.471404
0.479634
0.487959
0.490611
0.493041
0.495278
0.497178
0.499551
0.501163
0.501041
0.499371
0.497151
0.495308
0.49313
0.490704
0.48808
0.480346
0.47095
0.470923
0.511746
0.621179
0.654302
0.653546
0.650565
0.653337
0.652956
0.6533
0.652728
0.618406
0.527285
0.488796
0.496634
0.505026
0.508746
0.510303
0.511085
0.51085
0.510584
0.510331
0.510216
0.510381
0.510598
0.51076
0.510048
0.508584
0.505082
0.49754
0.491604
0.530409
0.617283
0.654034
0.653546
0.653643
0.653966
0.65339
0.651065
0.652728
0.653035
0.652487
0.600044
0.531018
0.50986
0.514387
0.518103
0.51988
0.520161
0.520107
0.519289
0.518667
0.518591
0.519109
0.519789
0.519845
0.519541
0.517881
0.514445
0.510393
0.531233
0.597994
0.653399
0.653363
0.654047
0.651185
0.653789
0.653337
0.651016
0.653026
0.652488
0.652465
0.614217
0.54875
0.514447
0.514595
0.517252
0.519029
0.519538
0.519534
0.519011
0.518626
0.518579
0.518871
0.519277
0.519269
0.518765
0.517109
0.514607
0.514423
0.546452
0.609386
0.653179
0.653953
0.653363
0.651155
0.653759
0.653018
0.651298
0.652488
0.652844
0.650412
0.60828
0.551972
0.517341
0.51465
0.515122
0.516357
0.516969
0.517116
0.517138
0.517124
0.517099
0.517075
0.517051
0.516895
0.516338
0.51518
0.514661
0.517069
0.54932
0.603248
0.648733
0.653179
0.653752
0.651988
0.653759
0.652828
0.649116
0.652515
0.652246
0.639888
0.592033
0.550406
0.523687
0.51612
0.516918
0.517404
0.517715
0.51805
0.518291
0.518485
0.518524
0.518407
0.518171
0.517849
0.517586
0.517175
0.516465
0.523264
0.548149
0.587864
0.636498
0.65354
0.653179
0.651326
0.653576
0.650931
0.634803
0.651467
0.652303
0.627282
0.576096
0.547152
0.533968
0.526909
0.527009
0.52635
0.525984
0.52655
0.527449
0.528029
0.528066
0.527682
0.526861
0.526383
0.526763
0.52742
0.527402
0.533539
0.545835
0.574349
0.625915
0.652983
0.652014
0.639138
0.648258
0.642133
0.616263
0.628589
0.643722
0.613563
0.566712
0.545867
0.543403
0.541475
0.541475
0.54093
0.540417
0.540791
0.541564
0.542002
0.541988
0.541745
0.541052
0.540878
0.541389
0.541814
0.541694
0.543209
0.545288
0.56708
0.613772
0.642993
0.628964
0.621494
0.63824
0.630367
0.597078
0.576799
0.597474
0.585073
0.557634