/*--------------------------------*- C++ -*----------------------------------*\
| =========                 |                                                 |
| \\      /  F ield         | OpenFOAM: The Open Source CFD Toolbox           |
|  \\    /   O peration     | Version:  2.3.0                                 |
|   \\  /    A nd           | Web:      www.OpenFOAM.org                      |
|    \\/     M anipulation  |                                                 |
\*---------------------------------------------------------------------------*/
FoamFile
{
    version     2.0;
    format      ascii;
    class       volScalarField;
    location    "0.28";
    object      p;
}
// * * * * * * * * * * * * * * * * * * * * * * * * * * * * * * * * * * * * * //

dimensions      [1 -1 -2 0 0 0 0];

internalField   nonuniform List<scalar> 
6000
(
106112
106111
106111
106110
106108
106105
106102
106099
106089
106074
106062
106053
106048
106046
106045
106045
106046
106048
106053
106062
106075
106090
106100
106104
106107
106111
106114
106114
106114
106115
106058
106056
106054
106050
106045
106039
106033
106026
106015
106006
106002
106000
105999
105997
105997
105997
105998
105999
106000
106002
106006
106016
106027
106035
106041
106047
106052
106056
106058
106060
106027
106023
106018
106013
106008
106001
105994
105984
105975
105970
105968
105967
105966
105965
105965
105965
105965
105966
105966
105968
105970
105975
105985
105995
106003
106009
106014
106019
106023
106028
105994
105985
105979
105973
105966
105958
105949
105941
105936
105935
105934
105933
105933
105933
105933
105933
105933
105933
105933
105933
105934
105936
105942
105951
105960
105967
105972
105977
105983
105992
105950
105941
105935
105929
105920
105910
105904
105900
105899
105899
105900
105901
105902
105903
105903
105903
105903
105902
105900
105899
105898
105898
105900
105904
105912
105919
105925
105929
105935
105944
105894
105890
105884
105878
105869
105858
105857
105860
105863
105865
105869
105872
105874
105876
105877
105876
105875
105873
105870
105867
105863
105861
105858
105856
105858
105866
105870
105874
105881
105884
105833
105834
105827
105822
105814
105808
105813
105820
105826
105833
105840
105846
105850
105852
105853
105853
105852
105849
105844
105838
105830
105823
105816
105808
105802
105807
105810
105814
105821
105820
105768
105769
105765
105759
105758
105762
105770
105780
105790
105801
105811
105819
105824
105827
105828
105828
105826
105823
105816
105808
105797
105785
105773
105762
105749
105744
105744
105749
105754
105754
105701
105703
105699
105690
105694
105711
105724
105735
105748
105760
105771
105778
105784
105788
105789
105789
105787
105783
105776
105768
105756
105743
105728
105712
105693
105670
105668
105677
105683
105685
105633
105633
105622
105595
105610
105643
105662
105677
105689
105696
105704
105711
105716
105720
105722
105722
105720
105715
105710
105702
105694
105684
105670
105651
105623
105584
105580
105601
105615
105619
105567
105562
105540
105517
105522
105549
105571
105582
105589
105601
105613
105622
105628
105633
105634
105634
105632
105628
105620
105611
105599
105588
105579
105563
105537
105514
105509
105530
105551
105559
105509
105504
105488
105477
105474
105475
105475
105474
105472
105477
105491
105506
105518
105523
105527
105526
105523
105516
105505
105488
105476
105472
105472
105472
105471
105472
105471
105482
105497
105506
105472
105469
105456
105449
105445
105438
105433
105428
105423
105419
105417
105415
105414
105414
105414
105414
105414
105414
105415
105416
105419
105422
105427
105431
105436
105443
105446
105453
105462
105465
105448
105440
105431
105425
105420
105415
105410
105405
105399
105394
105388
105383
105379
105377
105376
105376
105377
105379
105383
105388
105393
105399
105404
105408
105413
105418
105423
105430
105443
105442
105419
105414
105408
105403
105397
105392
105388
105384
105380
105375
105371
105367
105364
105362
105360
105360
105362
105364
105367
105371
105375
105379
105383
105387
105392
105396
105401
105407
105419
105429
105389
105386
105384
105382
105375
105371
105367
105364
105360
105357
105353
105350
105348
105346
105345
105345
105346
105348
105350
105353
105357
105360
105363
105367
105371
105375
105381
105386
105394
105402
105360
105360
105360
105360
105354
105350
105347
105344
105341
105338
105336
105333
105331
105330
105329
105329
105330
105331
105333
105336
105338
105341
105344
105347
105350
105355
105361
105363
105367
105370
105336
105336
105337
105338
105333
105330
105327
105324
105322
105320
105318
105316
105314
105313
105313
105313
105313
105314
105316
105318
105320
105322
105324
105327
105330
105334
105340
105340
105341
105342
105314
105313
105315
105316
105313
105310
105308
105305
105303
105301
105300
105298
105297
105296
105296
105296
105297
105297
105298
105300
105302
105304
105306
105308
105310
105313
105318
105318
105318
105318
105294
105292
105294
105296
105295
105291
105289
105287
105285
105283
105282
105281
105280
105279
105279
105279
105279
105280
105281
105282
105284
105285
105287
105289
105291
105294
105297
105297
105296
105297
105274
105273
105274
105277
105278
105273
105270
105269
105267
105266
105264
105263
105263
105262
105262
105262
105262
105263
105264
105265
105266
105267
105269
105271
105274
105277
105278
105277
105275
105277
105255
105255
105256
105258
105260
105255
105252
105250
105249
105248
105247
105246
105246
105245
105245
105245
105245
105246
105247
105247
105249
105250
105251
105253
105256
105261
105261
105258
105257
105258
105234
105235
105237
105239
105240
105236
105234
105233
105232
105231
105230
105229
105229
105229
105228
105229
105229
105229
105230
105230
105231
105233
105234
105236
105239
105245
105243
105240
105239
105238
105213
105214
105216
105219
105220
105218
105216
105215
105215
105214
105213
105213
105212
105212
105212
105212
105212
105213
105213
105214
105215
105216
105217
105219
105221
105226
105224
105222
105220
105219
105192
105193
105196
105200
105202
105201
105200
105199
105198
105197
105197
105196
105196
105196
105196
105196
105196
105196
105197
105197
105198
105199
105200
105202
105204
105207
105205
105202
105200
105198
105173
105174
105177
105183
105186
105185
105184
105183
105182
105181
105181
105181
105180
105180
105180
105180
105180
105180
105181
105181
105182
105183
105184
105186
105188
105189
105186
105182
105179
105177
105156
105157
105161
105167
105171
105170
105169
105168
105167
105166
105166
105165
105165
105165
105165
105165
105165
105165
105165
105166
105166
105167
105169
105170
105173
105173
105168
105163
105159
105157
105142
105143
105146
105152
105157
105157
105154
105153
105152
105151
105151
105151
105150
105150
105150
105150
105150
105150
105150
105151
105151
105152
105154
105155
105159
105158
105150
105144
105140
105138
105128
105129
105132
105139
105144
105144
105141
105139
105138
105137
105137
105136
105136
105136
105136
105136
105136
105136
105136
105136
105137
105138
105139
105141
105144
105142
105133
105127
105122
105121
105115
105116
105119
105126
105132
105131
105128
105126
105125
105124
105123
105122
105122
105122
105123
105122
105122
105122
105122
105122
105122
105123
105125
105127
105130
105126
105116
105110
105106
105104
105102
105102
105106
105113
105119
105119
105116
105114
105112
105110
105109
105109
105109
105109
105109
105109
105109
105108
105108
105108
105109
105110
105111
105113
105115
105111
105100
105093
105089
105088
105085
105087
105091
105100
105107
105107
105105
105102
105099
105097
105096
105096
105095
105095
105095
105095
105095
105095
105095
105095
105095
105096
105098
105101
105102
105096
105084
105077
105073
105071
105065
105064
105072
105084
105091
105094
105093
105090
105087
105085
105083
105082
105081
105081
105080
105080
105080
105080
105081
105081
105082
105083
105086
105088
105087
105081
105068
105059
105054
105052
105037
105040
105048
105059
105070
105078
105080
105077
105074
105071
105069
105068
105066
105065
105064
105064
105064
105065
105066
105067
105068
105070
105072
105073
105071
105064
105049
105039
105032
105029
105009
105012
105017
105028
105042
105057
105064
105062
105058
105055
105053
105051
105049
105048
105047
105047
105047
105048
105050
105051
105053
105055
105056
105055
105051
105042
105026
105014
105005
104997
104983
104985
104989
104998
105011
105025
105040
105042
105039
105036
105034
105032
105030
105029
105028
105028
105028
105029
105031
105032
105034
105036
105035
105032
105025
105012
104998
104983
104971
104966
104956
104958
104962
104968
104977
104989
105004
105013
105014
105013
105011
105009
105008
105007
105006
105006
105007
105008
105009
105011
105012
105012
105009
105002
104992
104977
104963
104947
104936
104934
104925
104927
104930
104933
104940
104950
104962
104976
104982
104984
104984
104983
104982
104982
104981
104981
104982
104983
104984
104984
104984
104982
104975
104966
104954
104940
104926
104911
104904
104905
104888
104889
104891
104893
104899
104907
104916
104931
104942
104948
104951
104952
104952
104951
104951
104951
104952
104952
104953
104952
104949
104943
104933
104924
104913
104901
104889
104877
104874
104876
104845
104846
104847
104850
104855
104862
104870
104881
104894
104904
104910
104913
104915
104915
104916
104916
104916
104915
104914
104912
104906
104897
104887
104879
104871
104860
104851
104843
104842
104843
104799
104800
104802
104805
104810
104815
104824
104832
104843
104854
104862
104868
104871
104873
104874
104874
104873
104872
104869
104864
104856
104847
104840
104834
104828
104818
104811
104808
104808
104808
104752
104753
104756
104760
104766
104771
104778
104785
104794
104803
104812
104819
104823
104826
104827
104827
104826
104824
104820
104814
104806
104799
104794
104790
104783
104775
104768
104768
104770
104769
104704
104705
104709
104715
104722
104728
104734
104740
104747
104754
104762
104769
104774
104777
104778
104779
104777
104774
104770
104764
104758
104753
104749
104745
104738
104730
104725
104726
104727
104726
104654
104656
104661
104668
104676
104684
104690
104696
104701
104707
104714
104720
104725
104728
104730
104730
104728
104725
104721
104716
104711
104707
104704
104700
104692
104684
104680
104682
104681
104680
104601
104604
104610
104619
104627
104636
104644
104651
104656
104661
104667
104672
104676
104679
104681
104681
104680
104677
104674
104669
104665
104662
104659
104652
104643
104636
104633
104635
104634
104633
104541
104547
104555
104567
104576
104585
104595
104604
104610
104615
104619
104623
104627
104629
104631
104631
104630
104628
104626
104623
104619
104616
104611
104602
104592
104587
104585
104586
104585
104584
104473
104482
104497
104511
104522
104532
104541
104551
104559
104564
104568
104572
104575
104577
104578
104579
104578
104577
104575
104573
104570
104567
104559
104549
104539
104536
104535
104535
104533
104532
104409
104419
104437
104453
104467
104477
104486
104495
104503
104509
104513
104516
104519
104521
104522
104522
104522
104522
104520
104518
104516
104511
104503
104493
104487
104485
104485
104482
104479
104476
104355
104359
104377
104395
104411
104422
104430
104437
104443
104449
104453
104457
104459
104461
104463
104463
104463
104463
104461
104459
104456
104451
104444
104437
104434
104433
104434
104427
104419
104413
104302
104301
104318
104336
104352
104365
104373
104378
104384
104389
104393
104396
104399
104401
104403
104403
104403
104403
104401
104399
104396
104391
104386
104382
104380
104380
104379
104369
104356
104351
104246
104246
104260
104278
104292
104305
104315
104320
104325
104329
104333
104337
104340
104342
104343
104344
104344
104343
104341
104339
104336
104331
104328
104325
104325
104326
104322
104313
104301
104298
104191
104192
104200
104219
104232
104245
104255
104262
104266
104271
104275
104278
104281
104283
104284
104285
104285
104284
104282
104280
104277
104274
104271
104268
104269
104270
104266
104259
104252
104251
104138
104140
104140
104159
104173
104184
104194
104202
104207
104211
104215
104219
104222
104224
104225
104226
104226
104225
104224
104222
104219
104216
104214
104212
104212
104213
104209
104205
104203
104203
104089
104090
104087
104100
104114
104124
104133
104140
104145
104150
104155
104158
104161
104163
104164
104165
104165
104165
104164
104162
104160
104158
104156
104156
104156
104156
104154
104153
104153
104154
104044
104043
104041
104042
104056
104065
104073
104079
104084
104088
104093
104096
104099
104101
104102
104103
104103
104103
104102
104101
104100
104099
104098
104099
104100
104100
104100
104101
104104
104102
104004
104001
103997
103991
103997
104008
104015
104021
104024
104027
104031
104034
104037
104038
104039
104040
104040
104041
104040
104040
104039
104039
104039
104042
104045
104044
104044
104046
104050
104048
103964
103961
103956
103946
103943
103953
103960
103965
103968
103970
103971
103973
103975
103977
103978
103978
103979
103979
103979
103978
103978
103979
103982
103984
103988
103986
103986
103986
103990
103989
103921
103916
103912
103902
103895
103900
103906
103910
103912
103913
103914
103915
103916
103917
103918
103919
103919
103919
103919
103919
103920
103921
103924
103926
103927
103924
103924
103922
103926
103926
103869
103864
103862
103855
103849
103847
103853
103856
103857
103858
103859
103859
103860
103861
103861
103862
103862
103862
103862
103862
103863
103864
103866
103867
103865
103861
103862
103859
103862
103862
103811
103807
103807
103806
103800
103793
103798
103801
103802
103802
103803
103804
103804
103805
103805
103805
103806
103806
103806
103806
103807
103807
103807
103807
103802
103799
103800
103798
103797
103798
103751
103750
103750
103753
103747
103740
103742
103746
103747
103747
103748
103748
103748
103749
103749
103750
103750
103750
103750
103750
103750
103750
103749
103747
103742
103741
103741
103740
103736
103737
103691
103691
103691
103695
103691
103687
103684
103689
103692
103692
103692
103692
103693
103693
103693
103694
103694
103694
103694
103694
103694
103694
103693
103690
103686
103686
103685
103685
103681
103682
103632
103634
103634
103636
103636
103632
103627
103631
103636
103637
103637
103637
103637
103637
103638
103638
103638
103638
103638
103639
103638
103638
103637
103635
103633
103633
103632
103633
103630
103630
103579
103581
103581
103582
103582
103578
103574
103575
103580
103581
103582
103582
103582
103582
103582
103582
103582
103582
103582
103582
103582
103582
103581
103580
103580
103581
103579
103584
103580
103579
103529
103530
103530
103531
103531
103526
103523
103521
103524
103526
103526
103526
103526
103526
103526
103526
103526
103526
103526
103526
103526
103526
103525
103525
103525
103527
103527
103533
103529
103526
103480
103481
103481
103480
103480
103475
103471
103467
103469
103470
103471
103471
103471
103471
103471
103471
103471
103470
103470
103470
103470
103470
103469
103468
103469
103472
103472
103477
103474
103471
103430
103431
103431
103430
103429
103423
103419
103415
103414
103415
103416
103416
103416
103415
103415
103415
103415
103414
103414
103414
103414
103414
103413
103412
103413
103415
103416
103416
103416
103414
103377
103378
103378
103378
103378
103374
103368
103363
103360
103360
103361
103361
103360
103360
103360
103359
103359
103359
103358
103358
103358
103357
103357
103356
103357
103358
103359
103356
103357
103356
103320
103321
103323
103324
103326
103324
103317
103312
103308
103307
103306
103306
103305
103305
103304
103304
103303
103303
103302
103302
103301
103301
103300
103300
103300
103300
103303
103301
103300
103300
103264
103264
103266
103268
103270
103272
103266
103260
103256
103253
103252
103251
103250
103249
103249
103248
103247
103247
103246
103246
103245
103244
103242
103243
103244
103244
103247
103247
103245
103245
103207
103208
103210
103211
103211
103215
103213
103208
103203
103200
103197
103196
103195
103194
103193
103192
103192
103191
103190
103189
103188
103187
103186
103187
103188
103189
103191
103191
103189
103189
103151
103153
103152
103149
103148
103153
103157
103153
103149
103145
103142
103140
103139
103138
103137
103137
103136
103135
103134
103133
103132
103131
103131
103131
103132
103133
103132
103131
103128
103125
103095
103096
103091
103084
103082
103089
103095
103095
103092
103089
103086
103085
103083
103082
103082
103081
103080
103079
103078
103077
103076
103075
103075
103076
103076
103075
103071
103066
103055
103042
103036
103033
103026
103017
103017
103022
103030
103034
103033
103032
103030
103029
103028
103027
103026
103025
103024
103024
103023
103022
103021
103020
103020
103020
103019
103015
103009
103000
102983
102970
102971
102967
102960
102955
102955
102957
102965
102971
102974
102974
102973
102972
102971
102971
102970
102969
102969
102968
102968
102967
102966
102966
102965
102964
102960
102955
102948
102938
102922
102916
102902
102900
102897
102897
102898
102899
102903
102910
102914
102915
102915
102915
102915
102914
102914
102913
102913
102913
102912
102912
102911
102911
102909
102905
102900
102894
102888
102880
102866
102864
102830
102831
102835
102840
102841
102843
102845
102850
102854
102856
102857
102858
102858
102858
102858
102857
102857
102857
102856
102856
102855
102854
102851
102846
102839
102833
102831
102823
102812
102812
102756
102761
102774
102783
102786
102787
102789
102792
102795
102797
102799
102800
102801
102801
102801
102801
102801
102800
102800
102799
102798
102796
102793
102788
102782
102778
102776
102767
102759
102760
102698
102702
102712
102725
102730
102732
102734
102735
102737
102739
102741
102743
102744
102745
102745
102745
102745
102744
102743
102742
102740
102739
102736
102731
102728
102725
102721
102709
102708
102709
102652
102653
102656
102668
102676
102678
102679
102680
102682
102683
102685
102687
102688
102689
102689
102689
102689
102688
102687
102685
102684
102682
102679
102677
102675
102673
102667
102655
102659
102661
102608
102605
102606
102612
102621
102625
102626
102627
102628
102630
102631
102632
102633
102634
102634
102634
102634
102633
102632
102630
102629
102627
102625
102625
102624
102622
102615
102608
102612
102616
102563
102557
102556
102558
102568
102573
102574
102575
102577
102577
102578
102579
102579
102579
102580
102580
102579
102579
102578
102577
102576
102575
102574
102574
102573
102571
102563
102562
102565
102572
102513
102508
102506
102507
102517
102522
102523
102525
102525
102526
102526
102526
102526
102525
102525
102525
102525
102525
102525
102525
102525
102525
102524
102524
102524
102521
102513
102514
102516
102522
102458
102458
102459
102461
102468
102473
102474
102474
102474
102474
102473
102473
102472
102472
102471
102471
102472
102472
102473
102474
102474
102475
102475
102476
102476
102473
102466
102467
102467
102467
102402
102408
102413
102418
102420
102423
102425
102424
102423
102421
102420
102419
102418
102417
102417
102417
102418
102419
102420
102422
102423
102425
102427
102428
102428
102425
102423
102421
102418
102413
102354
102360
102367
102374
102374
102375
102375
102373
102370
102368
102366
102364
102363
102363
102362
102363
102363
102365
102366
102369
102371
102375
102378
102381
102381
102380
102380
102376
102372
102366
102309
102313
102319
102325
102328
102329
102326
102322
102318
102314
102312
102310
102308
102307
102307
102307
102308
102310
102312
102315
102319
102323
102329
102334
102337
102336
102334
102331
102326
102322
102262
102266
102270
102273
102279
102282
102277
102270
102264
102260
102257
102254
102253
102252
102252
102252
102253
102255
102257
102260
102265
102271
102278
102287
102291
102288
102286
102285
102280
102276
102214
102219
102222
102224
102226
102228
102224
102217
102210
102205
102201
102199
102197
102196
102195
102196
102197
102199
102201
102205
102210
102216
102225
102234
102237
102238
102239
102238
102235
102230
102166
102171
102172
102173
102171
102169
102166
102160
102153
102148
102145
102142
102140
102139
102139
102139
102140
102142
102145
102149
102153
102159
102167
102175
102178
102184
102188
102189
102187
102183
102117
102119
102118
102115
102111
102107
102104
102099
102094
102090
102087
102084
102083
102082
102081
102081
102083
102084
102087
102090
102094
102099
102106
102112
102116
102123
102130
102134
102136
102135
102064
102062
102058
102052
102047
102042
102039
102035
102031
102028
102025
102024
102023
102022
102022
102022
102023
102024
102026
102028
102031
102036
102041
102046
102050
102057
102065
102072
102079
102081
102002
101998
101991
101984
101979
101974
101970
101968
101965
101962
101961
101960
101960
101960
101960
101961
101961
101961
101962
101963
101966
101969
101973
101976
101981
101987
101995
102003
102011
102016
101929
101925
101919
101914
101910
101906
101902
101900
101898
101896
101895
101895
101896
101897
101897
101898
101897
101897
101897
101898
101899
101901
101904
101907
101912
101917
101922
101928
101935
101940
101849
101846
101843
101842
101841
101841
101837
101835
101834
101834
101834
101834
101834
101835
101836
101836
101836
101836
101836
101837
101837
101838
101838
101841
101846
101847
101848
101850
101853
101857
101765
101764
101764
101767
101773
101777
101776
101775
101777
101778
101778
101779
101779
101779
101779
101780
101780
101781
101781
101781
101781
101780
101779
101780
101781
101777
101772
101769
101769
101770
101678
101677
101679
101688
101702
101714
101718
101720
101722
101725
101726
101727
101728
101728
101728
101728
101728
101729
101729
101728
101727
101725
101723
101721
101717
101704
101691
101682
101680
101681
101584
101577
101586
101604
101627
101647
101659
101666
101670
101674
101676
101677
101678
101678
101678
101678
101679
101679
101678
101677
101675
101672
101668
101661
101649
101628
101606
101587
101577
101585
101481
101475
101491
101518
101547
101576
101597
101610
101617
101621
101625
101627
101627
101628
101627
101627
101628
101628
101627
101625
101622
101618
101611
101598
101576
101548
101519
101492
101474
101480
101398
101396
101408
101435
101468
101499
101524
101542
101553
101560
101565
101568
101570
101570
101571
101571
101571
101570
101568
101566
101561
101554
101543
101525
101499
101468
101436
101408
101397
101397
101340
101344
101347
101358
101388
101421
101448
101467
101480
101489
101495
101500
101503
101505
101506
101506
101505
101503
101501
101496
101490
101481
101467
101448
101422
101389
101359
101348
101345
101341
101299
101302
101303
101304
101315
101344
101372
101392
101406
101416
101423
101429
101433
101436
101437
101438
101436
101434
101430
101424
101417
101407
101393
101373
101344
101316
101305
101304
101303
101301
101264
101265
101265
101264
101265
101278
101303
101325
101339
101349
101357
101362
101367
101370
101371
101371
101370
101367
101363
101358
101350
101340
101326
101304
101279
101266
101266
101266
101266
101265
101229
101229
101229
101229
101229
101234
101248
101268
101282
101291
101298
101303
101306
101309
101310
101310
101309
101307
101303
101299
101292
101283
101269
101250
101236
101231
101231
101231
101231
101230
101194
101195
101194
101195
101196
101199
101206
101219
101229
101237
101243
101247
101249
101251
101252
101252
101251
101250
101247
101243
101238
101231
101220
101208
101201
101198
101197
101196
101196
101196
101161
101161
101161
101161
101163
101165
101167
101173
101179
101184
101188
101191
101192
101193
101194
101194
101194
101193
101191
101188
101185
101180
101174
101169
101167
101165
101163
101163
101163
101162
101128
101129
101128
101129
101130
101130
101128
101128
101129
101131
101132
101134
101135
101135
101135
101135
101135
101135
101134
101133
101132
101130
101129
101130
101131
101131
101130
101130
101130
101130
101096
101098
101098
101096
101096
101093
101088
101083
101080
101078
101078
101078
101078
101078
101078
101078
101078
101078
101078
101079
101079
101081
101084
101089
101094
101097
101098
101099
101099
101098
101064
101065
101068
101065
101061
101054
101046
101038
101033
101029
101027
101026
101025
101025
101025
101025
101025
101026
101026
101028
101030
101034
101039
101047
101056
101063
101067
101070
101067
101065
101029
101031
101034
101032
101024
101013
101002
100993
100987
100982
100979
100977
100976
100975
100975
100975
100976
100976
100978
100980
100983
100987
100994
101003
101015
101026
101035
101036
101033
101030
100991
100992
100992
100989
100979
100966
100955
100946
100940
100935
100932
100929
100928
100927
100926
100926
100927
100928
100930
100932
100935
100940
100947
100956
100968
100982
100992
100995
100994
100992
100947
100944
100937
100931
100924
100914
100904
100897
100891
100887
100884
100881
100880
100879
100878
100878
100879
100880
100881
100884
100887
100892
100898
100906
100916
100927
100936
100941
100947
100949
100891
100883
100873
100866
100863
100857
100851
100846
100842
100838
100835
100832
100831
100830
100829
100829
100829
100830
100832
100834
100838
100842
100846
100852
100858
100865
100870
100878
100889
100895
100821
100814
100806
100803
100801
100799
100796
100793
100789
100786
100783
100781
100780
100778
100778
100778
100778
100779
100781
100783
100785
100789
100792
100795
100798
100801
100804
100810
100820
100827
100748
100745
100743
100742
100742
100742
100741
100739
100736
100734
100731
100729
100728
100726
100726
100726
100726
100727
100728
100730
100733
100735
100737
100739
100740
100739
100741
100743
100748
100752
100678
100679
100683
100686
100687
100688
100688
100686
100684
100682
100679
100677
100676
100674
100673
100673
100674
100675
100676
100678
100680
100682
100684
100685
100684
100682
100682
100679
100676
100676
100608
100614
100622
100629
100632
100634
100634
100632
100629
100626
100623
100619
100617
100615
100613
100613
100614
100615
100617
100620
100623
100626
100629
100630
100630
100627
100623
100616
100605
100597
100536
100547
100558
100567
100572
100573
100571
100567
100562
100556
100551
100546
100542
100540
100538
100537
100538
100540
100542
100546
100551
100557
100562
100566
100568
100567
100560
100548
100532
100518
100467
100480
100491
100499
100504
100503
100497
100488
100478
100468
100460
100454
100450
100448
100446
100445
100446
100447
100450
100455
100461
100469
100479
100489
100495
100496
100490
100478
100462
100444
100408
100416
100424
100430
100432
100427
100413
100399
100389
100383
100378
100375
100373
100371
100370
100370
100370
100372
100373
100376
100379
100383
100390
100400
100414
100421
100420
100410
100396
100388
100354
100355
100359
100362
100359
100347
100333
100326
100322
100320
100318
100317
100316
100315
100314
100314
100315
100315
100316
100317
100319
100320
100322
100326
100333
100348
100352
100346
100339
100338
100299
100299
100298
100296
100290
100277
100272
100271
100269
100268
100266
100265
100263
100262
100262
100262
100262
100263
100264
100265
100267
100268
100270
100271
100273
100281
100289
100289
100289
100290
100250
100248
100241
100236
100228
100223
100222
100220
100218
100216
100215
100213
100212
100211
100210
100210
100211
100212
100213
100214
100216
100217
100220
100222
100224
100226
100234
100239
100245
100246
100204
100199
100190
100183
100178
100176
100173
100171
100169
100167
100165
100164
100162
100161
100161
100161
100161
100162
100163
100164
100166
100168
100171
100174
100178
100181
100186
100193
100203
100206
100154
100146
100140
100135
100133
100131
100128
100125
100123
100121
100119
100118
100116
100114
100114
100114
100115
100116
100117
100118
100120
100122
100125
100129
100134
100139
100141
100147
100154
100161
100088
100082
100085
100084
100084
100082
100078
100075
100073
100072
100071
100069
100067
100064
100064
100065
100066
100067
100069
100071
100072
100073
100076
100080
100086
100092
100092
100094
100093
100098
100024
100023
100030
100032
100031
100028
100026
100024
100023
100022
100022
100021
100020
100018
100018
100019
100019
100020
100022
100023
100024
100024
100026
100028
100033
100039
100040
100037
100030
100030
100005
100005
100006
100006
100006
100006
100005
100005
100005
100005
100004
100004
100004
100004
100003
100003
100004
100004
100004
100005
100005
100005
100005
100006
100007
100008
100008
100008
100006
100006
100002
100002
100002
100002
100002
100002
100002
100002
100002
100002
100002
100001
100001
100002
100002
100001
100002
100001
100001
100002
100002
100002
100002
100002
100002
100002
100002
100002
100002
100002
100002
100002
100002
100002
100002
100002
100002
100002
100002
100002
100002
100002
100002
100002
100002
100002
100002
100002
100002
100002
100002
100002
100002
100002
100002
100002
100002
100002
100002
100002
100002
100002
100002
100002
100002
100002
100002
100002
100002
100002
100002
100002
100002
100002
100002
100002
100002
100002
100002
100002
100002
100002
100002
100002
100002
100002
100002
100002
100002
100002
100002
100002
100002
100002
100002
100002
100002
100002
100002
100002
100002
100002
100002
100002
100002
100002
100002
100002
100002
100002
100002
100002
100002
100002
100002
100002
100002
100002
100002
100002
100002
100002
100002
100002
100002
100002
100002
100002
100002
100002
100002
100002
100002
100002
100002
100002
100002
100002
100002
100002
100002
100002
100002
100002
100002
100002
100002
100002
100002
100002
100002
100002
100002
100002
100002
100002
100002
100002
100002
100002
100002
100002
100002
100002
100002
100002
100002
100002
100002
100002
100002
100002
100002
100002
100002
100002
100002
100002
100002
100002
100002
100002
100002
100002
100002
100002
100002
100002
100002
100002
100002
100002
100002
100002
100002
100002
100002
100002
100002
100002
100002
100002
100002
100002
100002
100002
100002
100002
100002
100002
100002
100002
100002
100002
100002
100002
100002
100002
100002
100002
100002
100002
100002
100002
100002
100002
100002
100002
100002
100002
100002
100002
100002
100002
100002
100002
100002
100002
100002
100002
100002
100002
100002
100002
100002
100002
100002
100002
100002
100002
100002
100002
100002
100002
100002
100002
100002
100002
100002
100002
100002
100002
100002
100002
100002
100002
100002
100002
100002
100002
100002
100002
100002
100002
100002
100002
100002
100002
100002
100002
100002
100002
100002
100002
100002
100002
100002
100002
100002
100002
100002
100002
100002
100002
100002
100002
100002
100002
100002
100002
100002
100002
100002
100002
100002
100002
100002
100002
100002
100002
100002
100002
100002
100002
100002
100002
100002
100002
100002
100002
100002
100002
100002