/*--------------------------------*- C++ -*----------------------------------*\
| =========                 |                                                 |
| \\      /  F ield         | OpenFOAM: The Open Source CFD Toolbox           |
|  \\    /   O peration     | Version:  2.3.0                                 |
|   \\  /    A nd           | Web:      www.OpenFOAM.org                      |
|    \\/     M anipulation  |                                                 |
\*---------------------------------------------------------------------------*/
FoamFile
{
    version     2.0;
    format      ascii;
    class       surfaceScalarField;
    location    "0.28";
    object      phi;
}
// * * * * * * * * * * * * * * * * * * * * * * * * * * * * * * * * * * * * * //

dimensions      [0 3 -1 0 0 0 0];

internalField   nonuniform List<scalar> 
11770
(
5.35836e-07
4.81213e-05
4.17916e-06
4.50454e-05
1.00295e-05
4.28056e-05
1.51192e-05
4.35928e-05
1.66502e-05
4.72288e-05
1.52143e-05
5.02382e-05
1.5122e-05
4.88349e-05
1.92841e-05
4.44832e-05
2.26209e-05
4.53681e-05
1.98262e-05
5.16592e-05
1.64793e-05
5.22322e-05
1.01613e-05
5.51821e-05
4.96037e-06
5.40057e-05
1.878e-06
5.18278e-05
-2.24839e-07
5.08211e-05
-2.50517e-06
5.09985e-05
-6.08976e-06
5.23414e-05
-1.1288e-05
5.39842e-05
-1.78018e-05
5.5374e-05
-2.09617e-05
5.20138e-05
-2.34779e-05
5.13717e-05
-2.02395e-05
4.54636e-05
-1.68301e-05
4.52531e-05
-1.72383e-05
4.91615e-05
-1.82388e-05
4.97978e-05
-1.63026e-05
4.6823e-05
-1.04965e-05
4.28677e-05
-4.21003e-06
4.23726e-05
-4.48949e-07
4.4931e-05
4.82271e-05
6.78632e-06
4.27764e-05
1.14499e-05
4.17293e-05
1.83394e-05
3.71709e-05
2.54087e-05
3.77513e-05
2.88015e-05
4.51116e-05
2.76704e-05
5.26819e-05
2.48574e-05
5.29081e-05
2.24363e-05
4.80732e-05
1.77855e-05
5.11871e-05
9.98732e-06
6.0726e-05
4.38721e-06
5.91606e-05
3.60649e-06
5.74052e-05
2.9743e-06
5.60885e-05
1.29654e-06
5.49329e-05
-4.19228e-07
5.39431e-05
-2.21877e-06
5.42104e-05
-3.4658e-06
5.50188e-05
-4.45572e-06
5.6416e-05
-5.35571e-06
5.77045e-05
-1.17958e-05
5.97651e-05
-1.96837e-05
6.05187e-05
-2.4638e-05
5.15862e-05
-2.72756e-05
4.90712e-05
-2.97335e-05
5.28856e-05
-3.016e-05
5.15277e-05
-2.60562e-05
4.39863e-05
-1.84699e-05
3.64954e-05
-1.14262e-05
3.65758e-05
-7.22514e-06
4.20717e-05
4.24514e-05
9.64704e-06
3.32325e-05
1.57732e-05
3.56934e-05
2.13814e-05
3.16527e-05
2.7054e-05
3.21723e-05
3.18997e-05
4.03692e-05
3.24809e-05
5.22199e-05
2.80245e-05
5.74997e-05
2.07542e-05
5.54728e-05
1.05415e-05
6.15398e-05
5.33894e-06
6.60855e-05
2.71533e-06
6.19414e-05
1.3111e-06
5.89675e-05
6.58654e-07
5.68965e-05
2.72029e-07
5.54716e-05
-3.08434e-07
5.46737e-05
-7.55314e-07
5.48074e-05
-1.30657e-06
5.5722e-05
-2.06375e-06
5.73273e-05
-3.79696e-06
5.95947e-05
-6.64871e-06
6.27725e-05
-1.29081e-05
6.69346e-05
-2.33866e-05
6.22062e-05
-3.05039e-05
5.632e-05
-3.39107e-05
5.64277e-05
-3.23861e-05
5.01207e-05
-2.66802e-05
3.83844e-05
-2.08406e-05
3.0751e-05
-1.54184e-05
3.12466e-05
-1.02305e-05
3.69787e-05
3.23268e-05
1.16105e-05
2.16733e-05
1.69163e-05
3.0442e-05
2.2996e-05
2.56257e-05
2.88863e-05
2.6335e-05
3.33974e-05
3.59146e-05
3.26999e-05
5.29802e-05
2.59093e-05
6.43629e-05
1.50049e-05
6.64509e-05
4.16101e-06
7.24619e-05
1.41076e-06
6.89126e-05
-2.34426e-07
6.3661e-05
-8.68743e-07
5.96739e-05
-8.85016e-07
5.69828e-05
-5.12289e-07
5.51677e-05
-1.6738e-07
5.43972e-05
2.35796e-07
5.44723e-05
4.49957e-07
5.55762e-05
3.01026e-07
5.75459e-05
-6.8483e-07
6.06522e-05
-2.71535e-06
6.48776e-05
-6.22152e-06
7.0519e-05
-1.78999e-05
7.39648e-05
-2.87402e-05
6.7236e-05
-3.39317e-05
6.16921e-05
-3.28871e-05
4.91393e-05
-2.75527e-05
3.31082e-05
-2.14017e-05
2.46559e-05
-1.57982e-05
2.56997e-05
-1.13475e-05
3.25879e-05
2.10337e-05
5.96984e-06
1.57431e-05
1.32704e-05
2.31891e-05
1.93106e-05
1.96316e-05
2.60583e-05
1.96328e-05
3.15836e-05
3.04391e-05
2.81006e-05
5.65218e-05
1.77882e-05
7.47418e-05
5.2815e-06
7.90264e-05
-2.56609e-06
8.03793e-05
-5.00071e-06
7.14123e-05
-5.26599e-06
6.39883e-05
-4.45572e-06
5.89237e-05
-3.01756e-06
5.56032e-05
-1.54325e-06
5.37512e-05
6.01964e-08
5.28509e-05
1.53378e-06
5.30557e-05
3.06031e-06
5.4107e-05
4.19883e-06
5.64658e-05
4.84042e-06
6.00709e-05
3.94865e-06
6.58326e-05
9.10439e-07
7.36242e-05
-7.97972e-06
8.29279e-05
-2.09895e-05
8.03171e-05
-3.02282e-05
7.09975e-05
-2.98817e-05
4.88506e-05
-2.41266e-05
2.74043e-05
-1.78242e-05
1.84021e-05
-1.21774e-05
2.01035e-05
-5.23051e-06
2.56943e-05
1.58462e-05
1.82307e-06
1.39533e-05
9.37499e-06
1.56764e-05
1.55652e-05
1.34808e-05
2.09289e-05
1.43073e-05
2.51719e-05
2.62392e-05
1.74736e-05
6.42781e-05
4.72347e-06
8.75591e-05
-7.44161e-06
9.12615e-05
-1.25852e-05
8.55906e-05
-1.37689e-05
7.2658e-05
-1.20338e-05
6.23116e-05
-8.85229e-06
5.57981e-05
-5.65063e-06
5.24562e-05
-2.57092e-06
5.07252e-05
2.38672e-07
5.00947e-05
3.13207e-06
5.02158e-05
6.06001e-06
5.12331e-05
9.28757e-06
5.32936e-05
1.21019e-05
5.73139e-05
1.34661e-05
6.45288e-05
1.16096e-05
7.55455e-05
5.60756e-06
8.90014e-05
-7.45479e-06
9.34527e-05
-2.03885e-05
8.39994e-05
-2.44015e-05
5.29191e-05
-2.01378e-05
2.31853e-05
-1.51131e-05
1.34194e-05
-9.40723e-06
1.44421e-05
-1.61727e-06
1.79489e-05
1.42656e-05
-1.68315e-07
1.41504e-05
5.77607e-06
9.76261e-06
1.1678e-05
7.61046e-06
1.44356e-05
1.15811e-05
1.48545e-05
2.58577e-05
1.36931e-06
7.78227e-05
-1.27338e-05
0.000101733
-2.24223e-05
0.000101023
-2.50133e-05
8.82501e-05
-2.32437e-05
7.09503e-05
-1.82694e-05
5.73941e-05
-1.2739e-05
5.03213e-05
-7.70374e-06
4.74728e-05
-3.4505e-06
4.65231e-05
4.30736e-07
4.62643e-05
4.30108e-06
4.63966e-05
8.65238e-06
4.69337e-05
1.36985e-05
4.83006e-05
1.92845e-05
5.17833e-05
2.38879e-05
5.99849e-05
2.50907e-05
7.44078e-05
2.18072e-05
9.23573e-05
1.13109e-05
0.000104026
-3.87067e-06
9.92537e-05
-1.69351e-05
6.60407e-05
-1.46465e-05
2.0935e-05
-1.14876e-05
1.02955e-05
-6.12884e-06
9.11979e-06
1.30739e-07
1.17243e-05
1.44287e-05
1.29547e-07
1.40467e-05
3.76186e-06
6.1546e-06
7.2004e-06
4.19551e-06
6.9315e-06
1.1875e-05
-2.95505e-06
3.57803e-05
-1.7752e-05
9.26819e-05
-2.72383e-05
0.000111295
-3.27942e-05
0.000106656
-3.05816e-05
8.61073e-05
-2.365e-05
6.40791e-05
-1.67131e-05
5.05102e-05
-1.11877e-05
4.4845e-05
-6.76586e-06
4.30985e-05
-3.07478e-06
4.2879e-05
2.76783e-07
4.29597e-05
3.66778e-06
4.30527e-05
7.47028e-06
4.31789e-05
1.21149e-05
4.37047e-05
1.79738e-05
4.59754e-05
2.54084e-05
5.26058e-05
3.23038e-05
6.75765e-05
3.40998e-05
9.06357e-05
2.84195e-05
0.000109788
1.72437e-05
0.000110508
-1.74316e-06
8.5091e-05
-7.18449e-06
2.64124e-05
-7.42884e-06
1.05684e-05
-4.06611e-06
5.78535e-06
-2.49038e-07
7.93561e-06
1.42091e-05
7.53287e-07
1.33178e-05
2.94227e-06
3.98604e-06
3.6796e-06
3.47653e-06
-3.94377e-06
1.95196e-05
-2.26696e-05
5.45486e-05
-2.84904e-05
9.85705e-05
-3.08993e-05
0.000113783
-2.98393e-05
0.000105674
-2.21554e-05
7.84907e-05
-1.46581e-05
5.66369e-05
-9.88578e-06
4.57849e-05
-6.8239e-06
4.1827e-05
-4.38354e-06
4.07009e-05
-2.13117e-06
4.06693e-05
5.9502e-08
4.08117e-05
2.27651e-06
4.08786e-05
4.5794e-06
4.09191e-05
7.17056e-06
4.11572e-05
1.05793e-05
4.26118e-05
1.59366e-05
4.72978e-05
2.43177e-05
5.92539e-05
3.26411e-05
8.23841e-05
3.48352e-05
0.000107677
3.31495e-05
0.000112277
2.19734e-05
9.63385e-05
-8.34324e-07
4.92623e-05
-5.64853e-06
1.54063e-05
-4.2025e-06
4.3624e-06
-1.46638e-06
5.22421e-06
1.27702e-05
2.24049e-06
1.11011e-05
6.18946e-06
5.39901e-08
8.79118e-06
8.87065e-07
-1.50599e-05
4.34025e-05
-3.36084e-05
7.31503e-05
-2.95897e-05
9.46249e-05
-2.24219e-05
0.000106698
-1.44684e-05
9.77997e-05
-8.15e-06
7.22355e-05
-5.83816e-06
5.43757e-05
-4.62136e-06
4.46136e-05
-3.73084e-06
4.09796e-05
-2.6517e-06
3.96642e-05
-1.42728e-06
3.94873e-05
-3.05868e-08
3.94576e-05
1.31976e-06
3.95708e-05
2.61971e-06
3.96619e-05
3.69036e-06
4.01295e-05
4.76767e-06
4.15786e-05
6.0886e-06
4.60234e-05
9.25787e-06
5.61373e-05
1.68744e-05
7.48336e-05
2.62029e-05
9.84293e-05
3.49934e-05
0.000103571
3.82593e-05
9.31488e-05
7.1906e-06
8.03888e-05
-9.70018e-06
3.2328e-05
-6.71133e-06
1.39404e-06
-2.7154e-06
1.25128e-06
1.00816e-05
4.74272e-06
6.3822e-06
1.36695e-05
-8.85655e-06
2.36646e-05
-9.08742e-06
-9.0195e-06
7.61475e-05
-3.22365e-05
9.64366e-05
-2.37669e-05
8.62222e-05
-1.16797e-05
9.46886e-05
-2.29899e-06
8.8496e-05
-7.28742e-07
7.07281e-05
-1.10688e-06
5.48067e-05
-1.2976e-06
4.48543e-05
-1.29122e-06
4.102e-05
-1.21137e-06
3.96296e-05
-6.85344e-07
3.90063e-05
-1.71204e-07
3.89883e-05
5.29422e-07
3.89153e-05
8.66826e-07
3.93697e-05
1.15727e-06
3.98848e-05
9.92886e-07
4.17903e-05
1.27792e-06
4.57892e-05
4.90606e-07
5.69784e-05
3.47462e-06
7.19137e-05
1.38809e-05
8.80995e-05
2.70502e-05
9.04763e-05
3.51587e-05
8.51064e-05
8.72111e-06
0.0001069
-2.11442e-05
6.2247e-05
-1.08951e-05
-8.83006e-06
-3.74344e-06
-5.8766e-06
6.36645e-06
7.7158e-06
-1.30983e-06
1.82206e-05
-1.93431e-05
2.51252e-05
-1.59611e-05
1.28846e-05
8.84577e-05
3.54322e-07
0.000109041
-1.06727e-06
8.77106e-05
5.56728e-06
8.81247e-05
1.12651e-05
8.28706e-05
8.85499e-06
7.32016e-05
4.36907e-06
5.93443e-05
1.29014e-06
4.79724e-05
3.14566e-07
4.20331e-05
5.1056e-08
3.99319e-05
-3.39167e-07
3.94367e-05
-9.88431e-08
3.87886e-05
-2.83478e-07
3.91406e-05
-3.42162e-07
3.94683e-05
-9.22153e-07
4.05036e-05
-1.65359e-06
4.25591e-05
-4.8838e-06
4.90587e-05
-9.20176e-06
6.13486e-05
-1.00078e-05
7.27827e-05
-3.76263e-06
8.19243e-05
2.30687e-06
8.44733e-05
-1.5319e-06
8.90089e-05
-4.92368e-06
0.000110366
-2.27206e-05
8.01069e-05
-1.53685e-05
-1.61534e-05
-5.4767e-06
-1.57439e-05
9.1887e-07
7.23746e-06
-8.52346e-06
1.49503e-05
-2.70326e-05
1.67903e-05
-1.77641e-05
2.36e-05
8.17146e-05
3.78974e-05
9.48133e-05
3.4045e-05
9.16305e-05
3.53446e-05
8.68904e-05
3.47384e-05
8.35416e-05
3.00181e-05
7.79849e-05
2.00616e-05
6.93599e-05
1.26126e-05
5.54741e-05
7.14313e-06
4.75526e-05
3.98859e-06
4.31346e-05
1.45016e-06
4.20227e-05
-2.22963e-07
4.05088e-05
-2.21195e-06
4.11768e-05
-4.38755e-06
4.16914e-05
-7.97016e-06
4.41346e-05
-1.27936e-05
4.74325e-05
-2.0928e-05
5.72458e-05
-2.84311e-05
6.89106e-05
-3.34689e-05
7.78825e-05
-3.23557e-05
8.08742e-05
-3.40363e-05
8.62166e-05
-3.48163e-05
8.98544e-05
-1.82437e-05
9.386e-05
-1.85413e-05
8.04665e-05
-1.52081e-05
-1.94553e-05
-6.62484e-06
-2.43033e-05
-5.67726e-06
6.97568e-06
-1.54732e-05
7.54176e-06
-2.75679e-05
1.30076e-05
-2.31918e-05
2.45703e-05
7.02149e-05
3.20189e-05
8.7429e-05
3.62744e-05
8.74375e-05
3.9049e-05
8.41775e-05
4.17138e-05
8.09386e-05
4.30924e-05
7.6668e-05
4.21688e-05
7.0345e-05
3.46437e-05
6.30591e-05
2.51179e-05
5.71359e-05
1.52539e-05
5.30541e-05
7.4483e-06
4.98828e-05
-4.77949e-07
4.84889e-05
-7.62928e-06
4.83821e-05
-1.61653e-05
5.02818e-05
-2.49433e-05
5.29681e-05
-3.51071e-05
5.76537e-05
-4.07618e-05
6.29602e-05
-4.1962e-05
7.01715e-05
-3.97503e-05
7.57317e-05
-3.81881e-05
7.93724e-05
-3.46058e-05
8.26948e-05
-3.00147e-05
8.53234e-05
-2.19316e-05
8.58387e-05
-1.56425e-05
7.42378e-05
-1.35188e-05
-2.15439e-05
-6.14928e-06
-3.1649e-05
-1.17995e-05
8.59867e-06
-2.40466e-05
3.47621e-06
-2.24118e-05
8.34053e-06
-2.80216e-05
2.62772e-05
5.23367e-05
2.85203e-05
8.5249e-05
3.10759e-05
8.49431e-05
3.31829e-05
8.21311e-05
3.47415e-05
7.94401e-05
3.53339e-05
7.61353e-05
3.38061e-05
7.19311e-05
2.95509e-05
6.73712e-05
2.33196e-05
6.34226e-05
1.61582e-05
6.02703e-05
8.05654e-06
5.80387e-05
-2.44379e-07
5.68439e-05
-8.65638e-06
5.68481e-05
-1.63658e-05
5.80456e-05
-2.35584e-05
6.02153e-05
-2.91785e-05
6.33292e-05
-3.32899e-05
6.71279e-05
-3.44503e-05
7.13897e-05
-3.38481e-05
7.5188e-05
-3.2435e-05
7.80183e-05
-2.99605e-05
8.02792e-05
-2.69706e-05
8.2393e-05
-2.24356e-05
8.13635e-05
-1.35563e-05
6.5417e-05
-8.15078e-06
-2.69139e-05
-7.35595e-06
-3.24178e-05
-1.91329e-05
-1.16564e-06
-2.28549e-05
-2.53915e-06
-2.10074e-05
2.13401e-07
-3.07425e-05
2.48053e-05
2.77977e-05
2.55301e-05
8.45867e-05
2.5975e-05
8.4559e-05
2.69296e-05
8.1236e-05
2.76392e-05
7.87899e-05
2.73959e-05
7.64372e-05
2.57839e-05
7.36011e-05
2.25581e-05
7.06539e-05
1.80691e-05
6.79678e-05
1.25262e-05
6.58686e-05
6.32041e-06
6.42996e-05
-2.34979e-07
6.3454e-05
-6.74915e-06
6.34171e-05
-1.28512e-05
6.42025e-05
-1.82143e-05
6.56339e-05
-2.25514e-05
6.77222e-05
-2.55695e-05
7.02027e-05
-2.70853e-05
7.29627e-05
-2.7353e-05
7.55139e-05
-2.68125e-05
7.75359e-05
-2.60514e-05
7.95766e-05
-2.51988e-05
8.15992e-05
-2.47977e-05
8.10223e-05
-8.23649e-06
4.89113e-05
-2.96925e-06
-3.21496e-05
-8.45955e-06
-2.68993e-05
-2.75703e-05
-4.47408e-06
-1.8351e-05
-5.42365e-06
-2.00256e-05
-5.947e-06
-3.01882e-05
1.87854e-05
3.11086e-06
1.99637e-05
8.34704e-05
2.09849e-05
8.35977e-05
2.17324e-05
8.05477e-05
2.2013e-05
7.85679e-05
2.14326e-05
7.70762e-05
1.98518e-05
7.52396e-05
1.72342e-05
7.33288e-05
1.36527e-05
7.16059e-05
9.42421e-06
7.01535e-05
4.70292e-06
6.90768e-05
-2.25316e-07
6.84381e-05
-5.1557e-06
6.84031e-05
-9.78695e-06
6.88896e-05
-1.39545e-05
6.98574e-05
-1.73705e-05
7.11947e-05
-1.99244e-05
7.28133e-05
-2.14945e-05
7.45903e-05
-2.21709e-05
7.62478e-05
-2.22558e-05
7.76789e-05
-2.2196e-05
7.95747e-05
-2.28859e-05
8.23482e-05
-2.3568e-05
8.17645e-05
-8.0193e-09
2.54023e-05
2.99068e-06
-3.51191e-05
1.94688e-06
-2.58265e-05
-2.55997e-05
-3.76819e-06
-1.45511e-05
-6.49273e-06
-1.72682e-05
-8.35481e-06
-2.82948e-05
9.99401e-06
-1.51993e-05
1.46704e-05
7.88547e-05
1.65285e-05
8.17991e-05
1.76089e-05
7.95256e-05
1.76896e-05
7.85456e-05
1.69761e-05
7.78477e-05
1.54804e-05
7.67932e-05
1.32584e-05
7.56081e-05
1.04282e-05
7.44932e-05
7.1208e-06
7.35176e-05
3.50936e-06
7.27449e-05
-2.60822e-07
7.22648e-05
-4.01603e-06
7.22148e-05
-7.59421e-06
7.25242e-05
-1.08415e-05
7.31615e-05
-1.3607e-05
7.4017e-05
-1.57535e-05
7.50169e-05
-1.72025e-05
7.60965e-05
-1.79974e-05
7.71004e-05
-1.81961e-05
7.79351e-05
-1.81125e-05
7.95492e-05
-1.78672e-05
8.21615e-05
-1.74906e-05
8.14483e-05
5.42287e-06
2.53315e-06
5.41814e-06
-3.50857e-05
4.17816e-06
-2.45565e-05
-2.13938e-05
-1.92041e-06
-1.25982e-05
-5.74124e-06
-1.34135e-05
-8.18623e-06
-2.58181e-05
3.03303e-06
-2.63849e-05
1.15392e-05
7.0407e-05
1.41515e-05
7.92452e-05
1.47692e-05
7.8966e-05
1.45372e-05
7.88355e-05
1.36303e-05
7.88128e-05
1.221e-05
7.82713e-05
1.02965e-05
7.75793e-05
7.99411e-06
7.6853e-05
5.3862e-06
7.61829e-05
2.59688e-06
7.55913e-05
-3.11954e-07
7.52307e-05
-3.19623e-06
7.5156e-05
-5.98753e-06
7.53726e-05
-8.55773e-06
7.57887e-05
-1.08165e-05
7.6333e-05
-1.26397e-05
7.68973e-05
-1.39688e-05
7.74832e-05
-1.47519e-05
7.79409e-05
-1.4918e-05
7.81588e-05
-1.42271e-05
7.89157e-05
-1.27517e-05
8.07447e-05
-8.66049e-06
7.74163e-05
7.65232e-06
-1.37416e-05
6.44912e-06
-3.38538e-05
3.9241e-06
-2.20006e-05
-1.74401e-05
-2.69371e-07
-1.2297e-05
-3.99408e-06
-9.65414e-06
-6.83861e-06
-2.29411e-05
-1.704e-06
-3.14886e-05
1.40511e-05
5.47077e-05
1.38778e-05
7.94771e-05
1.32453e-05
7.96562e-05
1.22936e-05
7.98454e-05
1.1129e-05
8.00355e-05
9.6959e-06
7.97624e-05
8.0266e-06
7.93063e-05
6.12019e-06
7.88172e-05
4.06656e-06
7.82941e-05
1.87464e-06
7.78408e-05
-3.55595e-07
7.75183e-05
-2.61361e-06
7.74715e-05
-4.79179e-06
7.76082e-05
-6.87301e-06
7.79274e-05
-8.74021e-06
7.82576e-05
-1.03484e-05
7.8563e-05
-1.15948e-05
7.87871e-05
-1.24643e-05
7.8868e-05
-1.27052e-05
7.84569e-05
-1.22376e-05
7.85054e-05
-9.50373e-06
7.80684e-05
-1.72591e-06
6.96959e-05
8.30942e-06
-2.37431e-05
6.30981e-06
-3.18251e-05
2.48041e-06
-1.81393e-05
-1.49292e-05
-7.75886e-07
-1.14903e-05
-2.84137e-06
-7.55328e-06
-5.21829e-06
-2.05311e-05
-4.68692e-06
-3.19906e-05
1.71426e-05
3.293e-05
1.42295e-05
8.24491e-05
1.19652e-05
8.19788e-05
1.04413e-05
8.14274e-05
9.02852e-06
8.15065e-05
7.67484e-06
8.11741e-05
6.20227e-06
8.08369e-05
4.66464e-06
8.04127e-05
3.01128e-06
8.00054e-05
1.32612e-06
7.95838e-05
-4.23897e-07
7.93261e-05
-2.15639e-06
7.92617e-05
-3.90231e-06
7.94119e-05
-5.58339e-06
7.96661e-05
-7.18453e-06
7.99165e-05
-8.62717e-06
8.00632e-05
-9.92638e-06
8.0144e-05
-1.09441e-05
7.99431e-05
-1.18315e-05
7.94017e-05
-1.223e-05
7.8961e-05
-1.15534e-05
7.74492e-05
2.8977e-06
5.52997e-05
8.28237e-06
-2.90964e-05
5.2774e-06
-2.87904e-05
1.15162e-06
-1.39809e-05
-1.37472e-05
-1.99517e-06
-9.46517e-06
-2.04379e-06
-7.46967e-06
-3.45996e-06
-1.90822e-05
-5.19418e-06
-3.0228e-05
1.431e-05
1.34718e-05
1.17113e-05
8.5108e-05
9.78039e-06
8.39682e-05
8.28762e-06
8.29787e-05
7.08001e-06
8.27724e-05
5.86177e-06
8.24506e-05
4.72239e-06
8.20344e-05
3.4569e-06
8.17364e-05
2.19473e-06
8.13256e-05
8.62153e-07
8.09745e-05
-4.50748e-07
8.0697e-05
-1.83006e-06
8.0699e-05
-3.18568e-06
8.08254e-05
-4.59208e-06
8.11305e-05
-5.94372e-06
8.13259e-05
-7.29724e-06
8.14746e-05
-8.55446e-06
8.14589e-05
-9.88931e-06
8.13358e-05
-1.13554e-05
8.09252e-05
-1.33418e-05
8.10049e-05
-1.53758e-05
7.95411e-05
6.10172e-06
3.38734e-05
7.49967e-06
-3.04647e-05
4.12236e-06
-2.53829e-05
1.44407e-06
-1.12691e-05
-1.22733e-05
-2.16027e-06
-7.27553e-06
-1.53237e-06
-8.0645e-06
-2.3165e-06
-1.82665e-05
-4.49031e-06
-2.80263e-05
6.60623e-06
2.41604e-06
7.21429e-06
8.456e-05
6.60581e-06
8.46355e-05
5.89487e-06
8.3748e-05
5.0799e-06
8.36458e-05
4.30334e-06
8.32854e-05
3.3846e-06
8.30114e-05
2.50279e-06
8.26763e-05
1.49147e-06
8.23951e-05
5.46356e-07
8.19778e-05
-5.04482e-07
8.1806e-05
-1.49787e-06
8.17505e-05
-2.63455e-06
8.20202e-05
-3.72036e-06
8.22743e-05
-4.9328e-06
8.25965e-05
-6.06678e-06
8.26665e-05
-7.30833e-06
8.27585e-05
-8.58673e-06
8.2672e-05
-1.01553e-05
8.25517e-05
-1.20143e-05
8.29218e-05
-1.43209e-05
8.19068e-05
7.60728e-06
1.19906e-05
6.23836e-06
-2.90675e-05
3.27768e-06
-2.23917e-05
2.42768e-06
-1.03858e-05
-9.8163e-06
-1.83999e-06
-5.40668e-06
-1.87598e-06
-7.99673e-06
-2.8874e-06
-1.7224e-05
-4.97823e-06
-2.59075e-05
-2.36789e-07
-2.28732e-06
2.55501e-06
8.18276e-05
3.49029e-06
8.37586e-05
3.56445e-06
8.37322e-05
3.38289e-06
8.38857e-05
2.92433e-06
8.38023e-05
2.35376e-06
8.36401e-05
1.6682e-06
8.34201e-05
1.01163e-06
8.31099e-05
2.54331e-07
8.27933e-05
-4.41039e-07
8.25596e-05
-1.26026e-06
8.26279e-05
-2.06828e-06
8.28864e-05
-3.02217e-06
8.32863e-05
-3.96189e-06
8.35942e-05
-4.99522e-06
8.37579e-05
-5.99062e-06
8.38118e-05
-7.02794e-06
8.37674e-05
-8.02653e-06
8.36082e-05
-8.83909e-06
8.37927e-05
-8.22412e-06
8.1351e-05
7.26843e-06
-3.4626e-06
5.08766e-06
-2.68592e-05
2.64563e-06
-1.99197e-05
2.39672e-06
-1.01054e-05
-7.39086e-06
-1.67065e-06
-3.70757e-06
-2.18573e-06
-7.45045e-06
-3.94569e-06
-1.54328e-05
-6.21551e-06
-2.36096e-05
-3.72513e-06
-4.74084e-06
-1.1836e-07
7.82791e-05
1.20667e-06
8.24916e-05
1.90659e-06
8.30902e-05
2.04242e-06
8.3808e-05
1.91526e-06
8.39874e-05
1.5688e-06
8.40447e-05
1.11579e-06
8.39313e-05
6.09485e-07
8.36745e-05
1.30087e-07
8.3331e-05
-3.96681e-07
8.31447e-05
-9.52849e-07
8.32423e-05
-1.60029e-06
8.35921e-05
-2.345e-06
8.40892e-05
-3.15202e-06
8.44593e-05
-4.01014e-06
8.4674e-05
-4.84555e-06
8.47054e-05
-5.49815e-06
8.44781e-05
-5.91191e-06
8.408e-05
-5.19252e-06
8.31314e-05
-1.35133e-06
7.75682e-05
6.46245e-06
-1.12415e-05
4.20729e-06
-2.45766e-05
2.52415e-06
-1.82071e-05
2.02762e-06
-9.57872e-06
-5.33497e-06
-1.54916e-06
-2.13036e-06
-2.28067e-06
-6.68841e-06
-4.20577e-06
-1.34761e-05
-6.48784e-06
-2.12991e-05
-5.16661e-06
-6.02619e-06
-1.60908e-06
7.47789e-05
1.11119e-07
8.08287e-05
9.23443e-07
8.23355e-05
1.30734e-06
8.34817e-05
1.25215e-06
8.41006e-05
1.08856e-06
8.42662e-05
7.3277e-07
8.43452e-05
3.83151e-07
8.40823e-05
3.72551e-08
8.37352e-05
-2.67218e-07
8.35074e-05
-6.36228e-07
8.36696e-05
-1.09864e-06
8.41127e-05
-1.72191e-06
8.47707e-05
-2.41777e-06
8.52133e-05
-3.20975e-06
8.55241e-05
-3.89854e-06
8.54522e-05
-4.54765e-06
8.51853e-05
-4.72641e-06
8.43167e-05
-4.07633e-06
8.25392e-05
3.86172e-06
6.96873e-05
6.92713e-06
-1.42742e-05
4.48674e-06
-2.21085e-05
2.7223e-06
-1.64133e-05
1.68774e-06
-8.51455e-06
-3.61919e-06
-1.12936e-06
-9.73342e-07
-1.98913e-06
-5.79915e-06
-3.85187e-06
-1.1582e-05
-6.68496e-06
-1.84373e-05
-6.64251e-06
-6.03337e-06
-1.42661e-06
6.96194e-05
1.08974e-07
7.935e-05
8.34213e-07
8.16673e-05
1.10024e-06
8.32732e-05
1.09589e-06
8.41626e-05
8.05494e-07
8.46145e-05
5.49065e-07
8.46596e-05
2.04699e-07
8.44847e-05
1.59726e-08
8.3982e-05
-1.10048e-07
8.36915e-05
-2.13853e-07
8.38315e-05
-5.76505e-07
8.45335e-05
-1.05295e-06
8.53052e-05
-1.77406e-06
8.59925e-05
-2.47667e-06
8.62847e-05
-3.29138e-06
8.63249e-05
-4.00026e-06
8.5952e-05
-4.71106e-06
8.50853e-05
-4.81156e-06
8.26974e-05
7.65233e-06
5.72782e-05
7.85931e-06
-1.44499e-05
5.01442e-06
-1.92353e-05
2.86814e-06
-1.42376e-05
1.519e-06
-7.13596e-06
-2.07226e-06
-7.02222e-07
-2.4379e-07
-1.45345e-06
-5.0195e-06
-3.33295e-06
-9.67213e-06
-6.66799e-06
-1.50734e-05
-7.62306e-06
-5.04352e-06
-4.88689e-08
6.21001e-05
1.15752e-06
7.82e-05
1.40588e-06
8.14758e-05
1.46061e-06
8.32757e-05
1.22888e-06
8.44519e-05
8.53338e-07
8.50477e-05
3.67086e-07
8.52037e-05
5.3954e-08
8.48558e-05
-8.93598e-08
8.41833e-05
1.81193e-07
8.34789e-05
3.17275e-07
8.37534e-05
1.33392e-07
8.47755e-05
-4.13954e-07
8.59108e-05
-1.07723e-06
8.67139e-05
-1.93581e-06
8.72014e-05
-2.73709e-06
8.71841e-05
-3.63693e-06
8.69097e-05
-4.47153e-06
8.59776e-05
-5.10417e-06
8.33878e-05
1.00927e-05
4.21325e-05
8.62833e-06
-1.29553e-05
5.31323e-06
-1.58916e-05
2.85231e-06
-1.17471e-05
1.32721e-06
-5.58164e-06
-7.17222e-07
-4.25974e-07
2.09231e-07
-1.03861e-06
-4.37925e-06
-2.71794e-06
-7.96356e-06
-6.19922e-06
-1.15634e-05
-7.99235e-06
-3.21597e-06
1.39802e-06
5.27624e-05
2.3478e-06
7.73064e-05
2.49327e-06
8.13869e-05
2.16303e-06
8.3663e-05
1.73248e-06
8.49398e-05
9.68755e-07
8.58691e-05
2.59529e-07
8.59708e-05
-3.82517e-07
8.55558e-05
-4.34781e-07
8.42935e-05
4.39417e-07
8.26626e-05
1.2878e-06
8.29629e-05
1.0957e-06
8.50258e-05
4.515e-07
8.66131e-05
-4.58792e-07
8.76824e-05
-1.35117e-06
8.81518e-05
-2.30257e-06
8.81936e-05
-3.05736e-06
8.77223e-05
-3.58971e-06
8.65677e-05
-2.73264e-06
8.25884e-05
1.05637e-05
2.88831e-05
8.34858e-06
-1.07108e-05
5.03203e-06
-1.25459e-05
2.4989e-06
-9.18451e-06
1.03057e-06
-4.08463e-06
3.40908e-07
-3.82705e-07
6.1878e-07
-1.021e-06
-3.71391e-06
-2.37885e-06
-6.57753e-06
-5.53449e-06
-8.37903e-06
-8.00995e-06
-7.06175e-07
1.30804e-06
4.34946e-05
3.70708e-06
7.49631e-05
3.86845e-06
8.1282e-05
3.31973e-06
8.42686e-05
2.34555e-06
8.59713e-05
1.29657e-06
8.69757e-05
3.61102e-08
8.72891e-05
-9.27885e-07
8.65778e-05
-5.69879e-07
8.39933e-05
6.96976e-07
8.14531e-05
1.9627e-06
8.17547e-05
2.34787e-06
8.46986e-05
1.35636e-06
8.76629e-05
2.18347e-07
8.88786e-05
-9.96024e-07
8.94243e-05
-1.93678e-06
8.91924e-05
-2.74638e-06
8.85899e-05
-2.53165e-06
8.64106e-05
9.06197e-07
7.92078e-05
9.79846e-06
2.00341e-05
7.54298e-06
-8.42609e-06
4.51518e-06
-9.48873e-06
2.05337e-06
-6.69383e-06
7.90114e-07
-2.79344e-06
1.15815e-06
-6.04448e-07
1.24959e-06
-1.45681e-06
-2.83489e-06
-2.78712e-06
-5.21979e-06
-5.31308e-06
-5.82458e-06
-8.43575e-06
2.4509e-06
-4.00618e-07
3.55071e-05
5.92999e-06
6.86877e-05
6.06317e-06
8.12052e-05
4.76901e-06
8.56197e-05
3.32416e-06
8.74736e-05
1.6784e-06
8.86791e-05
1.11298e-07
8.89141e-05
-4.36719e-07
8.71838e-05
2.72328e-07
8.33415e-05
8.38512e-07
8.09435e-05
1.51486e-06
8.1135e-05
2.4497e-06
8.38211e-05
2.18245e-06
8.79884e-05
6.989e-07
9.04206e-05
-7.00657e-07
9.08821e-05
-2.04198e-06
9.05919e-05
-3.00422e-06
8.961e-05
-2.93685e-06
8.64009e-05
4.70646e-06
7.16207e-05
9.24447e-06
1.55366e-05
6.82557e-06
-5.97809e-06
3.96404e-06
-6.59815e-06
1.79082e-06
-4.49254e-06
6.93513e-07
-1.66906e-06
1.87826e-06
-1.11718e-06
2.39188e-06
-2.64961e-06
-1.27619e-06
-4.28474e-06
-3.55786e-06
-6.76936e-06
-3.31182e-06
-1.07873e-05
6.50317e-06
-4.66734e-06
2.9432e-05
7.41396e-06
5.66596e-05
8.44788e-06
8.02277e-05
6.52506e-06
8.75997e-05
4.37027e-06
8.96861e-05
2.56997e-06
9.05374e-05
1.35849e-06
9.01837e-05
1.5483e-06
8.70514e-05
1.56071e-06
8.33856e-05
9.5221e-07
8.1608e-05
4.81198e-07
8.16621e-05
7.80533e-07
8.35783e-05
1.40799e-06
8.74185e-05
6.81896e-07
9.12051e-05
-7.99251e-07
9.24217e-05
-2.32569e-06
9.21767e-05
-3.76691e-06
9.11092e-05
-1.79865e-06
8.44901e-05
8.76435e-06
6.11113e-05
9.15791e-06
1.51816e-05
6.39578e-06
-3.18703e-06
3.72983e-06
-3.90383e-06
1.8811e-06
-2.61678e-06
7.87337e-07
-5.49132e-07
2.69166e-06
-1.60005e-06
4.01974e-06
-5.16568e-06
2.31495e-06
-7.50978e-06
-1.18741e-06
-1.25203e-05
1.72721e-06
-1.67183e-05
1.07352e-05
-1.05179e-05
2.3273e-05
3.65089e-06
4.25393e-05
9.80853e-06
7.41257e-05
8.22037e-06
8.92456e-05
6.06548e-06
9.18991e-05
4.56429e-06
9.20967e-05
4.05162e-06
9.07541e-05
3.65774e-06
8.75021e-05
2.47629e-06
8.4623e-05
9.91957e-07
8.31479e-05
-3.86548e-07
8.30962e-05
-1.22636e-06
8.44741e-05
-1.05647e-06
8.73054e-05
-7.99036e-07
9.10055e-05
-1.58464e-06
9.32657e-05
-2.74457e-06
9.33951e-05
-3.22463e-06
9.16476e-05
3.22974e-06
7.80922e-05
1.2504e-05
5.18871e-05
9.92063e-06
1.7802e-05
6.70693e-06
5.52143e-08
4.18621e-06
-1.35579e-06
2.48933e-06
-8.94085e-07
1.19899e-06
7.66352e-07
3.91617e-06
-3.49815e-06
7.55199e-06
-8.0172e-06
6.86389e-06
-1.20467e-05
2.86978e-06
-1.76329e-05
7.34231e-06
-2.01028e-05
1.32382e-05
-1.45768e-05
1.77838e-05
-3.03137e-06
3.10368e-05
7.22314e-06
6.39238e-05
8.60535e-06
8.79207e-05
7.44352e-06
9.31188e-05
6.53821e-06
9.30597e-05
5.8385e-06
9.15109e-05
4.53454e-06
8.88624e-05
2.75169e-06
8.64615e-05
9.14044e-07
8.50409e-05
-8.34099e-07
8.48995e-05
-2.31962e-06
8.60151e-05
-3.09476e-06
8.81367e-05
-2.95798e-06
9.09256e-05
-2.64771e-06
9.30131e-05
-2.22655e-06
9.30318e-05
9.59036e-07
8.85194e-05
9.97392e-06
6.91309e-05
1.58326e-05
4.60747e-05
1.20434e-05
2.16269e-05
7.96358e-06
4.16308e-06
5.48216e-06
1.15176e-06
3.73792e-06
8.74603e-07
2.05416e-06
2.47411e-06
5.99507e-06
-2.21095e-06
9.7975e-06
-5.72712e-06
1.04144e-05
-1.04351e-05
7.60852e-06
-1.32889e-05
1.02268e-05
-1.43704e-05
1.43517e-05
-1.32618e-05
1.6707e-05
-7.26908e-06
2.50806e-05
1.9423e-06
5.47605e-05
6.4968e-06
8.34219e-05
6.85706e-06
9.28158e-05
6.47162e-06
9.35022e-05
5.59209e-06
9.24471e-05
4.15872e-06
9.03517e-05
2.47745e-06
8.81981e-05
7.27655e-07
8.68456e-05
-9.46845e-07
8.66289e-05
-2.3921e-06
8.75155e-05
-3.36702e-06
8.91672e-05
-3.43008e-06
9.10449e-05
-2.34511e-06
9.19848e-05
-4.58343e-08
9.07891e-05
6.66393e-06
8.18646e-05
1.50759e-05
6.07684e-05
1.81386e-05
4.30547e-05
1.53866e-05
2.44128e-05
9.99686e-06
9.58026e-06
7.51077e-06
3.66277e-06
5.77588e-06
2.63275e-06
3.55576e-06
4.71621e-06
9.57376e-06
-1.90054e-06
1.17325e-05
-2.90828e-06
1.14567e-05
-6.67905e-06
1.14119e-05
-8.29369e-06
1.18714e-05
-8.85103e-06
1.49387e-05
-9.9169e-06
1.78025e-05
-9.51528e-06
2.47107e-05
-4.44708e-06
4.97358e-05
1.49754e-06
7.75305e-05
3.80382e-06
9.05659e-05
4.22719e-06
9.31354e-05
3.84437e-06
9.28862e-05
2.96283e-06
9.12889e-05
1.79848e-06
8.94174e-05
4.68538e-07
8.82301e-05
-7.99701e-07
8.79516e-05
-1.79487e-06
8.85654e-05
-2.28303e-06
8.97105e-05
-1.9451e-06
9.07625e-05
-1.17163e-07
9.02123e-05
4.07397e-06
8.66529e-05
1.22238e-05
7.37665e-05
1.74823e-05
5.55551e-05
1.86199e-05
4.19563e-05
1.74862e-05
2.55787e-05
1.30933e-05
1.40005e-05
1.03893e-05
6.39165e-06
9.34229e-06
3.70309e-06
4.58874e-06
9.49517e-06
1.41893e-05
-1.18048e-06
1.29465e-05
-1.63576e-06
1.19442e-05
-3.22112e-06
1.30283e-05
-4.51167e-06
1.31901e-05
-5.40986e-06
1.58647e-05
-7.40536e-06
1.98266e-05
-1.15859e-05
2.89223e-05
-1.07106e-05
4.89007e-05
-5.31289e-06
7.21831e-05
-1.21254e-06
8.65205e-05
6.31497e-07
9.13471e-05
1.3401e-06
9.22332e-05
1.32747e-06
9.13566e-05
8.77749e-07
8.99217e-05
1.81365e-07
8.89806e-05
-4.43708e-07
8.86306e-05
-7.71269e-07
8.8947e-05
-4.8439e-07
8.94779e-05
7.79266e-07
8.95534e-05
3.62986e-06
8.74159e-05
9.15766e-06
8.11777e-05
1.61238e-05
6.68484e-05
1.80273e-05
5.36936e-05
1.76284e-05
4.23921e-05
1.58428e-05
2.73951e-05
1.3656e-05
1.62149e-05
1.24598e-05
7.61319e-06
1.19825e-05
4.20567e-06
3.24747e-06
1.82624e-05
1.74705e-05
-1.10562e-07
1.30877e-05
-6.47541e-07
1.25105e-05
-1.01006e-06
1.34191e-05
-2.23401e-06
1.44405e-05
-3.53858e-06
1.71958e-05
-5.78166e-06
2.20973e-05
-1.27606e-05
3.5933e-05
-1.55199e-05
5.16987e-05
-1.18607e-05
6.85717e-05
-6.68416e-06
8.13967e-05
-3.40799e-06
8.81254e-05
-1.46713e-06
9.03471e-05
-5.07266e-07
9.04512e-05
-1.45276e-07
8.96136e-05
-7.18791e-08
8.89608e-05
7.84734e-08
8.85337e-05
5.44239e-07
8.85347e-05
1.67262e-06
8.84031e-05
3.99067e-06
8.72887e-05
7.92762e-06
8.35315e-05
1.37687e-05
7.53866e-05
1.78111e-05
6.28507e-05
1.71444e-05
5.44003e-05
1.57359e-05
4.38362e-05
1.30028e-05
3.01586e-05
1.08803e-05
1.83645e-05
1.05122e-05
8.00697e-06
6.28052e-06
8.46438e-06
-1.29004e-06
2.58691e-05
1.62154e-05
9.94677e-08
1.30158e-05
-1.53797e-07
1.27905e-05
-4.22164e-07
1.37134e-05
-1.49354e-06
1.55373e-05
-2.73565e-06
1.84636e-05
-5.33193e-06
2.47207e-05
-1.34171e-05
4.40518e-05
-1.75582e-05
5.5879e-05
-1.61489e-05
6.72083e-05
-1.14669e-05
7.67652e-05
-7.27772e-06
8.39891e-05
-4.24881e-06
8.73718e-05
-2.32363e-06
8.85796e-05
-1.13905e-06
8.84823e-05
-2.27335e-07
8.8102e-05
7.22471e-07
8.76367e-05
1.99771e-06
8.73122e-05
3.97891e-06
8.64745e-05
7.20542e-06
8.41142e-05
1.16462e-05
7.91411e-05
1.62395e-05
7.08404e-05
1.71615e-05
6.19712e-05
1.51907e-05
5.64109e-05
1.33595e-05
4.57028e-05
1.06024e-05
3.29461e-05
7.71468e-06
2.1279e-05
7.24119e-06
8.50503e-06
1.46091e-06
1.42746e-05
-2.66163e-06
3.00284e-05
1.35858e-05
1.16751e-07
1.29242e-05
-1.63581e-08
1.29484e-05
-4.26e-07
1.41475e-05
-1.1925e-06
1.63283e-05
-2.41291e-06
1.97088e-05
-7.03306e-06
2.93684e-05
-1.31003e-05
5.01545e-05
-1.73996e-05
6.02187e-05
-1.76072e-05
6.74611e-05
-1.44158e-05
7.3622e-05
-1.02902e-05
7.99143e-05
-6.72204e-06
8.38557e-05
-4.00825e-06
8.59183e-05
-2.01491e-06
8.65414e-05
-2.64056e-07
8.64034e-05
1.43238e-06
8.59923e-05
3.46076e-06
8.53357e-05
6.15302e-06
8.38337e-05
9.74486e-06
8.05728e-05
1.36462e-05
7.5288e-05
1.6171e-05
6.83607e-05
1.50523e-05
6.31321e-05
1.27736e-05
5.87297e-05
1.11484e-05
4.73635e-05
8.8733e-06
3.52512e-05
4.58227e-06
2.55968e-05
3.09387e-06
1.00172e-05
-6.50059e-07
1.80493e-05
-1.69858e-06
3.11142e-05
1.19161e-05
9.1369e-08
1.28559e-05
-1.57048e-07
1.32199e-05
-6.30109e-07
1.46437e-05
-1.16052e-06
1.68821e-05
-2.09075e-06
2.06632e-05
-8.6599e-06
3.59666e-05
-1.22555e-05
5.37862e-05
-1.62919e-05
6.42968e-05
-1.71167e-05
6.83305e-05
-1.53431e-05
7.18951e-05
-1.2054e-05
7.66741e-05
-8.56481e-06
8.04168e-05