/*--------------------------------*- C++ -*----------------------------------*\
| =========                 |                                                 |
| \\      /  F ield         | OpenFOAM: The Open Source CFD Toolbox           |
|  \\    /   O peration     | Version:  2.3.0                                 |
|   \\  /    A nd           | Web:      www.OpenFOAM.org                      |
|    \\/     M anipulation  |                                                 |
\*---------------------------------------------------------------------------*/
FoamFile
{
    version     2.0;
    format      ascii;
    class       volScalarField;
    location    "0.28";
    object      rho;
}
// * * * * * * * * * * * * * * * * * * * * * * * * * * * * * * * * * * * * * //

dimensions      [1 -3 0 0 0 0 0];

internalField   nonuniform List<scalar> 
6000
(
950.223
1039.74
1040.48
1040.48
1040.48
1040.48
1040.49
1040.49
1040.49
1040.48
980.559
849.887
824.468
831.277
837.449
834.296
826.51
822.911
856.562
990.314
1044.52
1044.53
1044.53
1044.52
1044.52
1044.52
1044.52
1044.52
1044.51
949.975
880.138
880.138
910.289
918.023
908.018
908.173
936.888
992.031
978.512
867.707
821.261
824.636
821.106
824.635
823.218
824.652
821.396
824.717
821.423
825.247
873.232
978.529
985.058
934.716
914.513
914.671
931.148
922.14
888.621
886.745
916.588
912.139
929.75
947.392
943.171
936.161
959.698
985.46
918.759
822.096
824.65
821.279
824.633
821.305
824.652
821.564
824.726
821.443
825.235
821.542
825.763
920.24
981.753
959.326
943.088
953.443
959.812
943.162
922.072
933.02
1058.28
975.171
989.225
997.552
997.808
985.21
964.955
940.249
849.109
824.716
821.643
824.65
821.306
824.65
821.668
824.715
821.493
825.24
821.496
825.762
821.972
854.697
943.784
975.654
992.976
1011.1
1013.14
1003.94
981.493
1085.55
1231.99
1056.51
1072.74
1091.56
1084.07
1043.32
962.845
898.259
825.432
822.605
824.716
822.363
824.65
822.485
824.715
822.81
825.432
822.644
825.762
822.8
825.762
826.635
906.287
989.798
1067.94
1099.85
1106.37
1079.21
1054.88
1254.34
1317.06
1154.24
1137.69
1191.94
1179.49
1040.4
931.596
872.852
825.074
825.432
824.161
824.715
823.585
824.715
824.386
825.432
824.592
825.762
824.468
825.762
823.798
825.77
879.588
968.059
1118.59
1195.18
1187.88
1132.14
1152.87
1329.42
1351.04
1267.97
1224.87
1276.64
1246.83
993.973
898.251
850.701
825.913
825.073
836.686
845.281
847.017
845.871
845.165
844.79
845.293
845.482
843.034
832.874
825.77
825.593
856.949
931.141
1086.38
1276.63
1263.46
1205.42
1272.33
1361.35
1354.63
1336.66
1315.83
1336.41
1246.2
982.995
889.745
851.908
849.923
900.122
958.047
987.014
994.45
991.781
988.994
988.235
989.53
989.815
979.844
946.809
887.595
843.413
856.331
918.838
1032.93
1327.48
1334.36
1298.51
1338.62
1363.98
1350.09
1355.27
1354.87
1355.32
1238.27
1041.47
937.847
916.976
979.54
1090.92
1167.41
1199.65
1207.36
1205.4
1202.3
1201.79
1203.15
1203.51
1192.21
1154.94
1071.62
961.698
915.854
954.606
1069.45
1278.17
1360.2
1360.1
1362.5
1364.01
1342.39
1354.9
1355.6
1274.99
1233.27
1160.11
1078.99
1088.98
1195.68
1282.78
1310.43
1311.59
1311.35
1311.59
1311.35
1311.53
1311.35
1311.59
1311.34
1307.71
1274.23
1177.2
1083.05
1086.19
1155.52
1150.03
1288.45
1362.93
1363.44
1356.81
1337.14
1355.79
1303.69
824.368
972.968
1214.39
1227.13
1263.92
1312.98
1311.33
1314.34
1311.37
1314.05
1311.36
1313.5
1311.36
1313.7
1311.36
1314.15
1311.36
1314.43
1311.27
1266.62
1235.7
1181.72
828.059
869.225
1324.6
1363.02
1356.72
1327.72
1354.52
1029.1
553.57
548.562
906.719
1041.1
1060.35
1125.5
1245.84
1311.22
1314.84
1311.31
1314.84
1311.32
1314.84
1311.31
1314.83
1311.29
1314.76
1235.79
1131.7
1076.28
1052.83
863.348
526.396
574.656
1134.17
1363.2
1356.06
1326.8
1285.29
881.124
533.61
521.854
533.571
558.457
576.026
597.504
690.212
856.571
1004.24
1085.16
1120.95
1143.87
1138.43
1121.77
1076.11
999.099
839.023
684.069
604.937
580.051
566.511
524.682
533.602
530.623
970.694
1361.79
1355.37
1345.51
1102.34
853.949
531.784
533.546
517.662
533.421
520.072
533.546
524.67
533.613
533.107
553.994
570.053
583.337
581.368
570.465
550.146
535.553
527.984
533.603
522.173
533.545
518.169
533.544
520.237
533.604
869.195
1279.01
1354.66
1335.8
937.702
915.414
548.934
523.403
533.421
517.757
533.421
521.536
533.546
524.44
533.607
527.062
533.68
528.966
533.719
528.118
533.658
525.959
533.602
523.014
533.544
519.839
533.481
518.01
533.544
531.909
870.033
1114.98
1358.21
1145.7
932.883
973.438
610.852
533.421
518.485
533.292
520.25
533.421
523.142
533.546
525.834
533.607
528.158
533.68
528.788
533.658
527.131
533.602
524.529
533.544
521.942
533.481
518.357
533.481
523.98
548.904
949.045
975.61
1310.43
1054.13
927.499
993.636
730.996
528.395
533.421
518.767
533.421
522.381
533.546
524.708
533.607
527.285
533.679
529.149
533.718
528.322
533.657
526.102
533.602
523.561
533.544
520.752
533.481
519.973
533.544
618.005
1012.61
970.872
1171.46
1022.63
932.873
996.106
856.41
533.546
521.338
533.421
521.426
533.546
523.912
533.607
526.314
533.679
528.582
533.747
529.068
533.718
527.566
533.657
525.057
533.602
522.859
533.544
519.809
533.544
528.169
744.285
1041.61
966.726
1100.07
1013.22
928.619
996.121
965.133
531.833
533.546
520.287
533.546
523.42
533.607
525.369
533.679
527.841
533.747
529.393
533.798
528.829
533.718
526.679
533.657
524.372
533.602
521.888
533.544
522.85
533.602
860.492
1054.86
970.863
1062.68
1048.41
932.873
984.422
1048.31
533.607
524.548
533.545
522.533
533.607
524.808
533.679
526.994
533.747
529.207
533.815
529.616
533.797
528.173
533.718
525.785
533.657
523.892
533.601
521.579
533.601
531.434
950.187
1058.79
967.59
1053.51
1105.56
932.076
977.695
1108.92
604.94
533.607
521.282
533.607
524.492
533.679
526.187
533.747
528.575
533.815
530.022
533.884
529.515
533.797
527.398
533.718
525.296
533.657
523.009
533.601
526.178
533.658
1025.01
1058.69
970.862
1080.45
1149.35
966.364
1006.8
1156.88
754.426
527.365
533.607
523.661
533.679
525.836
533.747
527.842
533.815
529.975
533.884
530.332
533.915
528.943
533.797
526.626
533.718
524.954
533.657
522.875
533.657
590.264
1100.87
1059.89
970.23
1120.59
1188.14
1050.45
1069.6
1191.4
872
533.679
522.799
533.679
525.748
533.747
527.181
533.815
529.435
533.884
530.81
533.95
530.366
533.915
528.28
533.797
526.338
533.718
524.173
533.657
529.351
736.811
1161.59
1069.05
1001.15
1157.36
1219.72
1103.85
1099.89
1203.92
926.214
530.056
533.679
525.169
533.746
527.045
533.815
528.831
533.884
530.91
533.95
531.212
534.015
529.895
533.915
527.639
533.797
526.201
533.718
524.629
533.718
895.137
1207.96
1107.92
1082.9
1196.73
1247.15
1128.5
1100.23
1213.32
953.09
533.747
525.176
533.746
526.987
533.815
528.314
533.884
530.482
533.95
531.767
534.015
531.382
534.081
529.355
533.915
527.584
533.797
525.771
533.718
531.991
1019.09
1228.13
1147.97
1146.54
1230.01
1280.01
1164.12
1100.6
1220.86
990.271
532.41
533.746
526.649
533.815
528.426
533.884
530.012
533.95
531.888
534.015
532.248
534.081
531.033
534.1
528.846
533.915
527.404
533.797
527.222
533.797
1089.28
1231.17
1174.53
1180.39
1254.9
1316.62
1224.24
1129.64
1231.73
1018.36
533.815
527.563
533.815
528.349
533.884
529.64
533.95
531.602
534.015
532.756
534.081
532.568
534.154
530.637
534.1
529.025
533.915
527.313
533.797
557.769
1149.32
1235.28
1185.79
1202.47
1277.22
1346.43
1287.15
1189.24
1247.93
1045
545.327
533.815
528.245
533.884
529.894
533.95
531.283
534.015
533.081
534.081
533.374
534.154
532.371
534.178
530.261
534.1
528.815
533.914
529.925
631.983
1204.39
1239.17
1197.36
1229.99
1301.23
1363.61
1331.98
1254.98
1267.42
1067.22
584.174
530.023
533.883
529.779
533.95
531.055
534.015
532.955
534.081
533.879
534.154
533.877
534.233
532.131
534.178
530.692
534.1
529.202
533.914
733.962
1246.66
1240.03
1222.3
1267.55
1326.27
1370.87
1357.51
1309.49
1291.5
1078.68
635.561
533.883
530.243
533.95
531.514
534.015
532.797
534.081
534.875
544.02
543.378
534.504
533.857
534.233
531.906
534.178
530.54
534.1
533.084
833.074
1271.71
1248.26
1259.58
1306.2
1347.88
1371
1369.91
1346.04
1318.44
1085.3
694.159
532.982
533.95
531.47
534.015
532.743
534.081
534.113
550.669
564.59
564.144
550.2
534.296
533.806
534.233
532.592
534.178
531.79
541.409
912.879
1292.54
1273.66
1298.93
1337.45
1363.63
1370.9
1370.98
1367.34
1340.41
1100.35
769.653
575.486
532.989
534.015
533.455
534.081
535.157
551.836
575.026
585.925
585.994
575.191
552.394
535.163
533.775
534.233
532.638
534.178
594.454
978.434
1310.55
1306.16
1331.65
1359.66
1373.35
1306.33
1370.54
1370.61
1341
1114.97
875.317
690.21
551.336
533.577
536.67
544.074
558.09
581.869
599.632
607.486
607.743
600.246
582.824
557.837
542.055
535.962
534.232
554.885
687.041
1028.87
1322.53
1335.01
1355.23
1372.18
1374.36
1067.06
1220.33
1335.87
1280.29
1180.15
1049.37
846.012
633.808
564.869
568.099
580.412
596.58
613.555
625.518
631.895
632.156
626.255
614.618
596.313
577.246
566.778
565.618
635.93
795.224
1073.38
1327.7
1354.19
1369.25
1374.35
1374.37
1055.45
1063.69
1189.14
1247.13
1233.58
1257.38
1070.75
770.787
641.256
622.972
629.236
637.686
647.232
655.903
661.238
661.466
656.657
648.37
637.907
627.735
623.069
643.633
755.892
910.945
1130.68
1315.06
1362.89
1374.28
1374.29
1374.09
1055.45
1058.74
1120.19
1246
1284.84
1317.56
1263.22
935.111
744.41
689.012
681.619
681.984
686.991
693.459
697.542
697.753
694.266
688.565
683.263
683.116
692.413
749.498
885.11
1026.76
1200.87
1290.29
1350.33
1372.36
1336.77
1203.06
1078.25
1122.46
1159.56
1276.04
1321.53
1326.77
1298.21
1082
860.82
769.236
743.012
735.303
736.371
740.452
742.977
743.297
741.418
738.878
738.377
748.236
778.082
872.64
1006.32
1121.57
1248.04
1292.62
1306.84
1341.19
1061.23
975.639
1162.48
1205.13
1250.58
1314.1
1332.81
1326.77
1284.22
1168.7
978.069
867.948
820.035
801.918
797.043
797.911
798.687
799.453
799.468
801.035
807.673
830.339
885.186
998.263
1095.48
1172.8
1251.76
1295.78
1303.46
1208.2
944.788
974.808
1244.42
1271.04
1308.13
1330.91
1334.48
1319.25
1235.57
1186.3
1069.84
972.913
909.885
880.065
867.019
863.347
862.434
863.996
866.384
873.093
889.695
926.902
998.664
1090.89
1131.3
1180.52
1247.28
1293.08
1303.25
1101.78
944.807
1048.18
1297.64
1310.69
1328.07
1334.49
1334.38
1298.31
1194.09
1167.27
1108.75
1052.86
994.794
958.175
937.57
928.829
926.545
928.689
933.861
946.013
972.084
1017.18
1079.15
1119.95
1130.2
1175.79
1250.6
1286.53
1303.04
1077.65
944.785
1125.06
1330.34
1333.36
1337.07
1334.47
1324.88
1243.24
1179.24
1122.19
1105.33
1085.51
1049.43
1017.16
994.635
982.839
979.697
981.501
988.884
1004.62
1033.29
1070.15
1103.32
1111.06
1114.97
1170.41
1265.17
1276.82
1302.8
1082.62
978.462
1175.32
1350.36
1348
1344.13
1337.99
1321
1189.76
1160.05
1084.93
1086.64
1086.09
1068.17
1047.51
1029.83
1018.7
1015.22
1015.9
1023.78
1039.3
1061.34
1080.87
1098.73
1085.66
1095.15
1174.53
1277.14
1268.72
1247.51
1102.41
1073.28
1213.69
1362.49
1357.68
1349.04
1341.5
1317.81
1184.47
1142.22
1076.82
1075.42
1080.05
1070.36
1059.46
1049.05
1040.93
1037.37
1037.05
1043.67
1055.02
1066.25
1077.92
1083.47
1074.63
1091.61
1194.39
1284.35
1249.29
1157.11
1133.87
1150.24
1245.48
1367.81
1364.21
1352.24
1338.9
1289.26
1199.89
1144.96
1084.32
1075.2
1074.99
1072.69
1067.39
1063.4
1058.96
1055.67
1055.07
1058.78
1064.04
1067.86
1074.07
1074.26
1074.44
1102.7
1227.58
1284.6
1221.17
1157.28
1174.84
1187.44
1268.76
1367.84
1367.8
1358.98
1337.17
1249.83
1213.32
1167.25
1114.6
1081.89
1080.35
1083.47
1081.5
1081.57
1080.27
1077.98
1077.74
1078.16
1077.79
1076.66
1078.74
1075.57
1077.84
1138.52
1257.34
1284.54
1197.49
1156.99
1230.89
1227.09
1292.24
1367.76
1367.81
1365.92
1337.96
1225.4
1210.39
1200.07
1167.35
1114.89
1104.85
1110.47
1108.91
1109
1109.35
1108.45
1108.44
1106.7
1103.64
1102.32
1100.96
1093.97
1109.69
1192.89
1267.02
1256.76
1180.58
1157.45
1286.64
1283.12
1318.55
1320.46
1361.78
1358.8
1306.03
1219
1210.3
1217.31
1214.4
1171.03
1149.34
1149.58
1146.9
1143.62
1143.25
1143.05
1142.68
1140.68
1139.37
1141.7
1139.94
1137.51
1172.13
1237.96
1267.04
1213.38
1162.08
1157.41
1313.11
1328.61
1339.49
1122.59
1316.53
1333.86
1262.36
1234.04
1215.43
1218.28
1225.09
1216.63
1193.38
1184.06
1180.59
1174.65
1172.07
1171.58
1170.82
1169.87
1172.12
1177.24
1177.64
1187.75
1227.59
1250.16
1258.17
1182.3
1162.09
1168.75
1308.4
1340.93
1340.96
1042.21
1198.46
1310.99
1267.13
1264.08
1232.8
1218.68
1225.1
1225.07
1211.28
1198.76
1194.91
1190.13
1186.65
1185.84
1185.49
1186
1189.97
1194.71
1198.75
1217.11
1242.36
1250.08
1231.18
1164.97
1162.1
1211.17
1300.6
1340.89
1340.9
1041.67
1087.28
1298.06
1291.68
1283.27
1258.96
1229.11
1225.12
1220.57
1210.26
1199.14
1195.04
1191.56
1189.13
1188.58
1188.95
1190.28
1193.65
1197.03
1203.27
1219.41
1234.25
1240.49
1217.85
1164.72
1171.05
1265.44
1299.15
1251.8
1211.36
1037.8
1000.1
1298.86
1298.68
1293.22
1282.66
1252.75
1222.9
1215.04
1206.86
1198.45
1194.64
1192.09
1190.5
1190.26
1190.94
1192.22
1194.5
1196.67
1202.79
1215.22
1215.92
1221.59
1204.03
1165.01
1188.62
1292.54
1298.95
1097.28
1096.6
1023.03
930.959
1294.06
1299.57
1298.68
1295.56
1275.49
1231.73
1219.3
1208.4
1200.41
1197.69
1196.6
1195.9
1195.95
1196.73
1197.54
1198.41
1198.72
1203.69
1211.68
1211.67
1212.67
1177.68
1164.74
1217.07
1296.02
1297.29
1094.87
1097.21
995.977
925.476
1171.49
1298.67
1298.79
1298.68
1285.37
1246.69
1229.96
1217.59
1209.83
1208.17
1208.25
1208.07
1207.96
1208.48
1208.7
1208.48
1207.18
1209.94
1214.58
1212.8
1210.41
1164.78
1165.08
1247.94
1291.76
1282.33
1094.84
1120.86
962.722
923.712
997.387
1299.56
1298.68
1295.9
1285.6
1247.47
1229.86
1226.89
1222.25
1220.62
1220.47
1220.41
1219.97
1220.06
1220.05
1219.7
1218.63
1219.65
1221.01
1215.76
1206.25
1165.11
1164.98
1258.69
1284.16
1260.6
1094.86
1152.55
940.83
925.475
924.88
1256.06
1299.07
1287.89
1280.14
1238.79
1213.87
1223.23
1223.05
1222.9
1222.81
1222.81
1222.81
1222.81
1222.81
1222.81
1222.81
1222.81
1222.81
1214.63
1194.73
1164.88
1168.52
1264.1
1281.01
1262.05
1133.38
1178.65
949.062
925.081
925.475
1045.14
1296.13
1291.8
1267.34
1226.83
1189.29
1199.34
1220.37
1222.81
1222.81
1222.61
1221.13
1220.58
1220.97
1221.74
1222.81
1222.81
1217.78
1205.85
1179.23
1165.22
1197.85
1274.29
1284.47
1281.09
1217.45
1203.39
1001.76
981.401
960.944
972.801
1172.34
1291.82
1268.46
1224.65
1183.67
1183.37
1194.87
1206.92
1213.36
1210.47
1209.25
1208.54
1208.56
1209.32
1213.52
1213.56
1199.49
1189.44
1172.94
1168.14
1248.83
1285.26
1285.25
1285.4
1280.8
1230.47
1102.39
1060.33
1055.56
974.131
1043.51
1291.14
1284.78
1227.22
1183.57
1183.67
1183.45
1184.4
1192.75
1194.99
1195.15
1194.56
1193.55
1192.25
1192.27
1190.61
1181.99
1176.6
1172.97
1185.91
1277.4
1284.75
1285.88
1261.21
1303.51
1253.95
1198.34
1091.92
1150.47
995.662
1022.16
1259.94
1289.76
1237.04
1183.67
1183.28
1183.67
1183.45
1183.67
1187.06
1187.81
1187.17
1186.25
1183.67
1179.68
1177.08
1175.36
1174.6
1173.88
1212.44
1277.48
1258.86
1285.25
1203.01
1303.44
1266.23
1242.17
1092.68
1196.74
1063.63
1036.89
1176.98
1289.71
1255.71
1183.64
1183.67
1183.46
1183.67
1183.61
1185.32
1185.94
1185.73
1184.95
1182.41
1177.88
1174.95
1174.75
1174.64
1178.05
1226.41
1276.96
1199.73
1285.9
1177.71
1303.5
1258.74
1243.16
1092.77
1197
1163.7
1063.03
1082.61
1289.75
1273.46
1189.52
1183.46
1183.67
1183.5
1183.67
1184.81
1185.39
1185.69
1184.95
1182.65
1178.63
1175.67
1174.7
1174.67
1184.14
1223.99
1220.37
1159.86
1274.23
1170.97
1205.95
1234.45
1241.95
1092.57
1182.78
1225.74
1081.4
1076.92
1263.27
1273.45
1206.06
1183.67
1183.55
1183.67
1183.66
1184.34
1184.93
1185.56
1185.07
1183.65
1181.05
1178.46
1175.79
1176.18
1187.95
1211.35
1158.06
1157.9
1230.48
1157.68
1147.13
1222.83
1200.22
1093
1142.93
1228.06
1091.69
1078.12
1162.51
1270.54
1223.35
1185.7
1183.67
1183.57
1183.81
1184.14
1184.43
1185.16
1185.05
1184.4
1183.51
1182.05
1179.06
1180.59
1189.88
1199.4
1157.23
1157.99
1212.54
1152.81
1147.22
1229.74
1157.46
1092.89
1120.46
1227.96
1106.78
1076.87
1078.12
1234.52
1226.23
1195.25
1184.45
1183.67
1183.79
1184.2
1184.19
1184.63
1184.79
1184.55
1184.6
1183.91
1182.24
1185.21
1192.17
1197.65
1157.99
1168.6
1183.21
1174.14
1158.17
1244.04
1146.4
1093.23
1122.63
1226.78
1134.77
1078.12
1076.61
1186.3
1226.08
1205.26
1188.8
1183.65
1183.68
1184.17
1184.18
1184.26
1184.42
1184.83
1185.02
1184.15
1183.9
1188.1
1194.64
1197.51
1157.3
1195.52
1150.44
1236.88
1203.87
1259.2
1155.13
1095.56
1145.39
1236.71
1169.79
1077.43
1078.11
1144.66
1222.05
1206.95
1193.52
1184.69
1183.69
1184.11
1184.25
1184.24
1184.28
1184.74
1185.02
1184.16
1185.32
1190.36
1194.71
1189.3
1157.99
1208.62
1150.38
1286.59
1256.4
1278.49
1178.57
1132.61
1190.45
1259.05
1203.77
1078.11
1076.61
1115.2
1196.49
1202.93
1194.63
1186.8
1183.77
1184.03
1184.23
1184.23
1184.28
1184.39
1184.87
1184.18
1187.64
1192.81
1194.67
1162.94
1157.52
1208.73
1151.9
1286.92
1293.47
1300.27
1195.09
1183.66
1236.07
1278.51
1241.22
1085.84
1078.11
1097.2
1164.53
1191.74
1193.34
1188.02
1183.93
1184
1184.1
1184.18
1184.25
1184.26
1184.58
1184.82
1190.77
1194.67
1194.8
1157.36
1157.99
1208.63
1162.17
1236.15
1310.26
1317.83
1192.23
1203.46
1265.12
1292.73
1281.22
1131.85
1077.72
1089.1
1146.37
1179.38
1189.38
1187.89
1184.29
1184.01
1184.09
1184.2
1184.31
1184.26
1184.39
1186.31
1192.95
1194.73
1194.67
1157.99
1157.63
1198.9
1172.01
1190.93
1321.89
1331.52
1192.38
1199.76
1285.85
1311.56
1307.2
1208.18
1084.85
1090.02
1140.65
1172.66
1184.49
1187.11
1184.71
1184.08
1184.26
1184.34
1184.46
1184.28
1184.59
1187.73
1192.89
1194.67
1188.06
1157.36
1157.99
1182.89
1179.97
1190.63
1335.59
1340.11
1192.51
1199.26
1307.35
1328.77
1310.29
1270.87
1127.22
1101.48
1141.46
1170.87
1181.49
1186.03
1184.93
1184.22
1184.43
1184.48
1184.56
1184.29
1185.13
1188.24
1190.44
1191.62
1160.07
1157.99
1157.86
1182.69
1195.23
1208.43
1340.11
1340.18
1192.7
1224.51
1328.55
1328.85
1302.98
1298.28
1195.74
1128.97
1147.23
1170.8
1180.5
1185.21
1184.9
1184.23
1184.45
1184.58
1184.55
1184.3
1185.37
1187.82
1184.6
1178.01
1157.99
1157.6
1159.21
1193.18
1216.73
1239.44
1340.13
1340.15
1204.95
1274.92
1333.26
1316.56
1277.4
1298.29
1244.15
1166.15
1159.01
1172.21
1180.53
1184.96
1184.94
1184.24
1184.47
1184.72
1184.4
1184.3
1185.22
1185.8
1178.66
1168.12
1157.61
1157.99
1176.31
1214.96
1232.29
1265.06
1340.03
1295.3
1265.21
1320.42
1333.53
1262.9
1221.52
1286.55
1253.83
1199.13
1174.47
1176.87
1181.98
1185.46
1185.37
1184.25
1184.47
1184.85
1184.33
1184.32
1184.89
1183.51
1176.43
1166.49
1157.99
1167.72
1206.82
1229.47
1231.99
1267.73
1238
1041.66
1324.23
1343.52
1333.77
1205.53
1159.39
1219.84
1248.25
1217.43
1190.16
1184.9
1186.31
1187.79
1186.73
1184.75
1184.49
1184.85
1184.36
1184.33
1185.23
1183.82
1178
1169.87
1163.8
1191.33
1227.89
1229.41
1219.6
1268.92
1158.65
962.012
1343.55
1343.51
1262.57
1193.05
1148.03
1155.77
1224.23
1219.75
1201.83
1193.55
1192.11
1191.66
1189.4
1186.67
1184.8
1184.85
1184.75
1185.5
1187.74
1187.39
1185.1
1181.85
1185.79
1209.85
1227.89
1227.41
1219.3
1267.73
1101.77
956.553
1343.5
1343.42
1230.49
1199.59
1148.12
1147.68
1177.14
1219.54
1206.31
1198.21
1195.29
1194.05
1192.02
1188.9
1185.59
1184.89
1185.84
1188.81
1192.4
1193.69
1195.38
1197.79
1208.1
1211.3
1204.73
1186.83
1220.93
1269.25
1044.62
956.763
1238.89
1218.66
1230.2
1218.79
1148.43
1148.12
1147.68
1210.83
1204.2
1197.41
1194.16
1193.16
1192.2
1189.57
1186.21
1185.02
1187.16
1191.75
1195.32
1197.02
1200.54
1206.75
1211.3
1211.29
1155.29
1150.07
1237.46
1267.73
993.269
956.763
1040.51
1042.12
1229.98
1226.48
1161.37
1147.8
1148.12
1187.98
1192.46
1190.05
1187.44
1187.68
1189.56
1188.77
1186.19
1185.16
1187.7
1191.69
1194.04
1194.9
1198.28
1205.91
1211.29
1189.43
1147.54
1147.94
1239.67
1246.45
960.465
956.762
1030.15
1029.76
1095.3
1225.38
1191.04
1148.12
1147.39
1165.01
1173.65
1176.36
1176.53
1178.54
1183.2
1186
1185.78
1185.17
1187.29
1188.8
1187.54
1185.99
1187.71
1195.86
1211.3
1147.71
1147.05
1163.22
1238.78
1092.88
957.656
957.027
1038.62
1030.42
1028.95
1219.71
1212.89
1149.54
1148.12
1151.97
1161.42
1166.26
1169.56
1172.63
1177.64
1182.57
1185.07
1185.05
1185.51
1182.81
1178.11
1174.5
1172.98
1176.63
1186.39
1146.85
1147.54
1199.97
1237.38
964.135
959.272
980.867
1125.64
1030.24
1030.76
1180.89
1212.87
1161.78
1147.71
1148.31
1159.57
1163.91
1168.5
1171.82
1176.11
1180.6
1184.31
1184.69
1183.02
1178.1
1172.79
1168.73
1164.81
1162.13
1147.99
1147.54
1147.44
1215.6
1220.17
964.309
976.001
1072.56
1234.36
1033.92
1029.33
1101.64
1212.84
1184.66
1148.12
1149.14
1162.47
1165.62
1170.19
1173.21
1176.68
1180.31
1183.35
1184.18
1181.55
1177.16
1172.56
1168.74
1164.35
1159.17
1147.54
1147.09
1157.84
1215.44
1144.57
964.478
994.781
1172.61
1250.73
1044.93
1031.17
1048.01
1212.85
1204.93
1148.38
1153.82
1170.49
1171.65
1175.22
1177.19
1178.78
1180.72
1182.66
1183.62
1181.22
1177.71
1174.36
1171.39
1166.93
1160.74
1147.43
1147.54
1187.43
1215.29
1062.01
964.644
997.433
1193.93
1178.72
1047.56
1031.31
1057.01
1212.9
1208.57
1159.49
1161.3
1177.19
1178.35
1180.09
1181.04
1181.29
1181.7
1182.69
1183.15
1181.35
1179.46
1178.1
1176.45
1173.09
1165.76
1148.56
1150.35
1204.77
1214.48
1045.61
973.868
1001.64
1133.88
1034.95
1040.26
1052.6
1119.38
1193.09
1204.33
1177.9
1167.16
1177.96
1180.78
1181.33
1181.89
1182.17
1182.38
1182.87
1182.97
1181.72
1181.13
1180.73
1180.12
1178.54
1171.95
1157.61
1166.91
1198.44
1185.35
1077.11
999.388
1005.05
1012.54
1026.77
1034.28
1077.21
1185.3
1216.9
1205
1192.2
1172.21
1177.21
1180.23
1180.59
1181.1
1181.55
1182.05
1182.81
1182.75
1181.71
1181.16
1180.73
1180.2
1179.3
1175.8
1170.61
1189.36
1207.47
1197.1
1116.1
1028.87
1005.25
1005.16
1027.14
1034.98
1103.55
1180.78
1260.22
1252.78
1215.15
1177.58
1177.23
1178.72
1178.81
1179.35
1180.02
1180.82
1182.05
1182.05
1181.13
1180.41
1179.77
1179.15
1178.63
1177.23
1183.16
1231.19
1266.6
1225.15
1134.6
1067.64
1013.81
1005.34
1027.49
1058.2
1142.34
1200.94
1288.88
1314.99
1255.07
1188.19
1177.4
1178.36
1178.4
1178.7
1179.28
1179.8
1180.78
1180.99
1180.37
1179.68
1179.14
1178.95
1178.89
1179.01
1201.46
1280.79
1319.19
1268.72
1180.39
1117.56
1046.23
1005.71
1027.84
1114.26
1199.69
1260.98
1318.22
1336.68
1281.66
1201.92
1180.57
1181.74
1181.27
1181.07
1181.02
1180.66
1180.76
1180.99
1181.12
1181.4
1181.72
1182.36
1183.25
1183.48
1217.85
1304.78
1338.58
1314.23
1256.12
1186.95
1105
1006.02
1049.18
1188.59
1267.75
1314.35
1336.7
1336.7
1288.4
1215.96
1189.65
1192.53
1191.39
1190.25
1188.66
1185.95
1183.73
1183.88
1186.11
1188.94
1190.76
1192.27
1193.67
1191.8
1230.65
1307.99
1340.45
1339.93
1316.57
1266.47
1182.56
1037.7
1127.3
1261.67
1319.25
1339.46
1339.63
1336.37
1285.27
1226.8
1201.34
1204.07
1203.14
1202.18
1200.35
1196.08
1192.31
1192.28
1195.73
1199.66
1201.23
1202.12
1202.92
1200.89
1239.23
1305.51
1340.7
1344.4
1344.31
1323.39
1263.34
1127.78
1222.67
1318.43
1347.27
1348.6
1339.88
1319.24
1261.98
1228.45
1206.23
1206.13
1206.02
1205.92
1205.81
1203.63
1201.2
1201.04
1202.88
1203.84
1204.01
1204.12
1204.24
1204.35
1238.31
1289.25
1330.29
1344.21
1352.31
1351.35
1323.72
1230.43
1301.95
1353.84
1361.91
1353.51
1336.39
1293.28
1211.57
1224.12
1195.49
1190.08
1192.89
1194.79
1197.5
1198.5
1198.86
1198.66
1197.78
1194.33
1191.13
1188.68
1184.85
1192.4
1225.65
1245.05
1307.49
1336.64
1355.08
1364.51
1357.64
1310.49
1355.4
1373.6
1372.12
1358.29
1338.76
1271.12
1160.45
1190.1
1152.23
1133.67
1139.75
1147.81
1160.34
1172.8
1179.41
1179.19
1171.68
1153.81
1142.55
1135.33
1131.94
1147.41
1171.39
1183.49
1288.67
1339.19
1359.25
1373.83
1375.62
1359.95
1379.72
1379.87
1378.94
1361.54
1344.23
1263.11
1131.35
1126.51
1125.48
1125.42
1125.48
1125.42
1125.48
1138.98
1148.59
1148.46
1134.5
1130.28
1130.08
1130.28
1130.08
1130.28
1130.08
1141.51
1284
1347.67
1362.67
1380.15
1380.91
1380.87
1379.9
1379.89
1377.45
1354.24
1344.72
1254.27
1125.98
1125.48
1125.42
1125.48
1125.42
1125.48
1125.42
1125.63
1132.04
1132.02
1130.28
1130.09
1130.28
1130.08
1130.28
1130.08
1130.28
1134.59
1276.1
1349.95
1354.48
1377.53
1380.92
1380.94
1379.89
1379.57
1351.1
1332.62
1329.72
1252.09
1154.21
1139.77
1132.91
1136.05
1134.22
1133.23
1133.16
1134.18
1136.69
1136.7
1135.24
1135.44
1135.83
1136.86
1138.73
1136.04
1144.18
1163.08
1269.95
1335.49
1332.4
1349.7
1380.57
1380.93
1379.44
1273.47
1306.86
1312.2
1318.71
1277.1
1232.92
1212.96
1191.77
1194.48
1189.01
1183.89
1179.58
1172.92
1167.13
1167.23
1172.76
1178.66
1182.97
1188.07
1193.76
1192.16
1216
1239.79
1287.05
1322.22
1314.08
1305.28
1264.49
1380.42
1266.49
964.938
1190.15
1320.23
1321.78
1315.25
1303.97
1293.72
1272.35
1267.38
1259.81
1250.97
1241.76
1228.86
1218.51
1218.72
1229.05
1240.57
1249.31
1258.09
1266.08
1271.8
1294.7
1306.71
1318.23
1322.92
1322.03
1188.93
958.489
1249.12
982.115
868.564
938.052
1218.22
1321.84
1321.78
1321.88
1315.23
1298.33
1292.14
1284.5
1276.29
1267.93
1257.84
1250.73
1251.01
1258.23
1267.61
1275.62
1283.74
1291.59
1297.75
1314.38
1323.02
1322.92
1322.98
1217.88
939.56
866.254
967.834
881.502
867.829
868.563
944.929
1222.62
1321.83
1321.77
1301.2
1280.39
1273.76
1267.69
1262.09
1257.35
1251.42
1247.39
1247.69
1251.87
1257.41
1262.02
1267.47
1273.53
1280.09
1299.42
1322.9
1322.97
1220.94
947.418
864.628
866.518
873.968
867.041
867.992
867.133
868.562
954.347
1182.1
1278.3
1258.71
1237.73
1228.43
1224.54
1222.59
1223.18
1223.84
1224.47
1224.76
1224.35
1223.8
1223.4
1225.18
1228.84
1237.59
1256.44
1271.28
1174.29
957.154
865.299
866.518
866.277
865.469
866.909
872.718
868.562
867.796
869.164
1000.24
1172.77
1225.65
1214.33
1205.05
1200.6
1199.9
1200.04
1202.08
1203.64
1203.83
1202.53
1200.83
1200.69
1201.45
1205.6
1214.19
1224.32
1172.23
1005.37
866.886
866.976
865.266
872.419
865.912
867.041
872.84
867.819
869.164
869.221
964.819
1128.45
1214.19
1213.81
1207.17
1202.73
1201.46
1201.47
1202.78
1203.74
1203.86
1203.13
1202.11
1202.13
1203.39
1207.53
1213.78
1214.24
1134.19
976.892
867.435
865.502
866.975
872.495
865.985
867.838
872.136
869.164
868.274
874.352
979.656
1120.39
1206.95
1213.68
1212.5
1209.41
1207.88
1207.51
1207.46
1207.49
1207.56
1207.62
1207.68
1208.06
1209.46
1212.35
1213.65
1207.63
1127.02
992.234
878.548
867.435
866.002
870.413
865.985
868.313
877.59
869.096
869.768
900.654
1020.26
1124.31
1191.09
1210
1208.01
1206.79
1206.02
1205.18
1204.58
1204.09
1203.99
1204.29
1204.88
1205.68
1206.34
1207.37
1209.14
1192.15
1129.95
1030.69
909.128
866.532
867.435
872.067
866.443
873.053
913.363
871.714
869.623
932.163
1060.1
1132.44
1165.39
1183.04
1182.78
1184.43
1185.35
1183.93
1181.69
1180.24
1180.15
1181.1
1183.15
1184.35
1183.4
1181.76
1181.8
1166.46
1135.73
1064.46
935.58
867.924
870.347
902.528
879.735
895.044
959.704
928.896
891.071
966.451
1083.55
1135.65
1141.81
1146.63
1146.63
1147.99
1149.27
1148.34
1146.41
1145.31
1145.35
1145.95
1147.69
1148.12
1146.84
1145.78
1146.08
1142.29
1137.1
1082.63
965.929
892.893
927.958
946.629
904.773
924.451
1007.66
1058.34
1006.66
1037.66
1106.24
1135.74
1135.79
1135.84
1135.89
1135.94
1136
1136.05
1136.1
1136.15
1136.2
1136.25
1136.3
1136.33
1136.29
1136.24
1136.2
1136.15
1136.11
1102.94
1038.64
1016.24
1054.08
994.321
925.371
977.548
1091.21
1193.76
1176.97
1138.91
1135.42
1136.29
1135.84
1135.89
1135.94
1136
1136.05
1136.1
1136.15
1136.2
1136.25
1136.3
1136.35
1136.37
1136.33
1136.29
1136.24
1136.2
1136.45
1133.96
1146.91
1191.21
1186.95
1075.55
962.599
1083.72
1206.19
1270.82
1262
1218.35
1164.22
1143.18
1137.67
1137.51
1137.85
1138.31
1138.21
1138.23
1138.3
1138.45
1138.61
1138.31
1138.27
1138.55
1138.69
1138.45
1138.1
1138.21
1143.09
1166.96
1235.38
1284.37
1271.38
1189.11
1052.76
1220.35
1295.51
1293.34
1254.69
1237.9
1184.33
1160.88
1152.03
1151.59
1152.12
1152.43
1151.66
1151.59
1151.73
1152.21
1152.43
1151.44
1151.04
1152.19
1153.03
1152.82
1152.36
1152.8
1161.06
1189.14
1266.2
1286.15
1302.16
1284.8
1189.71
1306.9
1313.78
1273.94
1237.23
1222.69
1184.74
1171.71
1165.88
1164.68
1164.25
1162.29
1160.68
1160.77
1161.95
1162.77
1162.69
1161.63
1160.33
1161.37
1162.51
1162.66
1163.7
1165.36
1172.4
1188.31
1253.33
1259.95
1304.91
1328.75
1294.17
1331.67
1313.65
1239.67
1208.76
1185.18
1177.86
1168.63
1163.62
1162.03
1161.27
1161.03
1160.87
1160.96
1161.27
1162.41
1161.87
1161.19
1160.54
1160.7
1160.91
1161.06
1161.41
1162.4
1169.15
1179.11
1207.18
1228.88
1278.94
1333.04
1335.74
1327.92
1263.99
1252.55
1203.5
1177.66
1177.51
1171.96
1169.5
1171.73
1174.45
1177.79
1180.84
1183.01
1184.8
1186.25
1185.9
1185.69
1184.08
1182.43
1180.72
1177.75
1174.03
1170.54
1174.03
1178.3
1178.99
1212.92
1267.6
1322.7
1342
1316.82
1263.7
1271.76
1227.66
1203.62
1211.87
1214.65
1219.54
1227.76
1235.18
1243.26
1249.63
1253.48
1255.65
1257.21
1257.73
1257.68
1255.8
1253.03
1249.38
1242.9
1233.78
1223.81
1217.38
1211.25
1203.37
1234.71
1287.08
1291.13
1336.51
1277.17
1266.5
1290.79
1278.15
1271.81
1283.66
1291.51
1298.58
1302.78
1303.59
1303.93
1303.59
1303.93
1303.58
1303.93
1303.56
1303.92
1303.55
1303.92
1303.54
1303.92
1303.54
1302.37
1293.01
1282.76
1274.8
1284.59
1300.21
1284.56
1289.58
1153.7
1282.31
1303.61
1303.75
1303.61
1304.25
1303.61
1304.77
1303.6
1304.76
1301.8
1294.02
1287.92
1286.73
1279.38
1272.4
1277.23
1280.3
1284.48
1291.06
1301.04
1304.22
1303.61
1304.47
1303.61
1304.14
1303.61
1304.06
1284.8
1122.96
1038.68
1273.56
1303.89
1303.62
1304.8
1303.62
1304.89
1275.98
1227.99
1172.44
1130.21
1110.53
1100.68
1094.87
1086.93
1077.67
1083.57
1087.07
1096.6
1107.74
1132.5
1178.74
1241.57
1292.07
1304.63
1303.62
1304.71
1303.61
1248.01
976.985
1038.87
1228.6
1303.6
1304.61
1303.62
1304.89
1180.85
1080.02
1050.19
1045.29
1043.07
1045.29
1042.78
1045.29
1042.68
1045.29
1042.55
1045.29
1042.76
1045.29
1043.24
1045.29
1057.65
1106.05
1239.01
1304.7
1303.62
1293.21
1151.87
977.907
1039.56
1180.16
1289.41
1303.61
1304.9
1182.17
1045.31
1043.12
1045.29
1042.92
1045.29
1042.83
1045.29
1042.83
1045.29
1042.79
1045.29
1042.77
1045.29
1042.89
1045.29
1042.96
1045.29
1043.54
1063.4
1288.21
1304.71
1256.42
1085.13
978.15
1039.71
1177.26
1247.77
1304.23
1257.85
1050.22
1043.48
1045.29
1043.43
1045.29
1043.39
1045.29
1043.43
1045.29
1043.47
1045.29
1043.35
1045.29
1043.43
1045.29
1043.46
1045.29
1043.61
1045.29
1044.07
1159.2
1294.76
1210.04
1096.56
978.252
1106.46
1225.91
1238
1279.39
1141.35
1044.91
1045.29
1044.51
1045.29