/*--------------------------------*- C++ -*----------------------------------*\
| =========                 |                                                 |
| \\      /  F ield         | OpenFOAM: The Open Source CFD Toolbox           |
|  \\    /   O peration     | Version:  2.3.0                                 |
|   \\  /    A nd           | Web:      www.OpenFOAM.org                      |
|    \\/     M anipulation  |                                                 |
\*---------------------------------------------------------------------------*/
FoamFile
{
    version     2.0;
    format      ascii;
    class       volScalarField;
    location    "4.99954";
    object      nut.air;
}
// * * * * * * * * * * * * * * * * * * * * * * * * * * * * * * * * * * * * * //

dimensions      [0 2 -1 0 0 0 0];

internalField   nonuniform List<scalar> 
18816
(
5.67917e-08
6.06476e-08
1.05105e-07
1.18301e-07
1.34227e-07
1.42305e-07
1.52632e-07
1.59392e-07
1.66925e-07
1.71327e-07
1.75361e-07
1.77126e-07
1.76781e-07
1.74731e-07
1.70572e-07
1.63985e-07
1.54668e-07
1.42296e-07
1.27041e-07
1.07087e-07
8.44468e-08
6.28026e-08
5.92914e-08
7.36936e-08
1.03864e-07
1.20963e-07
1.22974e-07
6.07407e-08
1.6431e-34
1.72101e-07
1.66097e-07
1.66901e-07
1.67189e-07
1.69344e-07
1.72151e-07
1.72518e-07
1.71381e-07
1.6945e-07
1.68114e-07
1.6783e-07
1.63732e-07
1.58555e-07
1.52786e-07
1.46225e-07
1.38166e-07
1.28177e-07
1.1673e-07
1.03929e-07
9.02184e-08
8.2489e-08
8.19552e-08
8.60944e-08
1.00811e-07
1.15143e-07
1.35666e-07
2.49051e-34
2.0316e-34
6.68863e-35
7.90868e-35
8.16936e-35
8.32606e-35
8.05755e-35
7.58216e-35
7.32995e-35
7.25894e-35
7.17063e-35
7.44276e-35
1.54381e-07
1.46088e-07
1.39854e-07
1.34674e-07
1.28662e-07
1.22253e-07
1.14875e-07
1.06128e-07
9.50503e-08
8.36292e-08
7.36373e-08
7.22361e-08
7.25908e-08
7.86427e-08
9.81957e-08
1.28662e-07
2.2218e-34
2.01427e-34
7.5815e-35
8.57773e-35
8.42358e-35
8.40475e-35
8.15665e-35
7.63013e-35
7.35253e-35
7.75576e-35
7.75483e-35
8.97169e-35
1.26484e-34
1.31535e-07
1.2752e-07
1.22915e-07
1.17123e-07
1.10396e-07
1.01775e-07
9.03041e-08
7.60692e-08
6.54332e-08
5.45021e-08
5.19106e-08
5.40512e-08
6.71551e-08
9.05473e-08
1.24804e-07
2.09203e-34
2.89288e-34
1.57191e-07
9.24445e-35
9.26764e-35
9.37507e-35
8.50473e-35
8.31027e-35
8.26772e-35
7.89201e-35
8.17474e-35
1.0559e-34
1.76105e-34
1.16926e-07
1.07565e-07
9.32401e-08
7.68606e-08
6.28028e-08
6.08963e-08
6.03015e-08
6.04974e-08
5.66104e-08
4.4198e-08
4.54022e-08
5.18972e-08
5.23268e-08
8.15652e-08
1.20335e-07
2.05339e-34
1.71091e-34
2.16791e-07
1.41496e-07
9.67889e-35
9.4793e-35
8.70787e-35
8.46201e-35
7.82463e-35
8.47631e-35
8.49725e-35
1.13802e-34
2.15586e-34
9.76144e-08
7.70447e-08
5.09905e-08
3.89971e-08
4.11535e-08
4.68513e-08
7.18362e-08
1.29015e-07
1.51404e-07
6.23989e-08
4.67992e-08
5.02248e-08
4.95832e-08
7.91551e-08
1.18809e-07
2.01849e-34
1.61967e-34
2.23307e-07
1.98639e-07
1.40833e-07
1.3223e-07
1.24279e-07
1.09055e-07
8.82286e-35
8.8019e-35
9.73155e-35
1.19807e-34
4.57156e-34
7.73007e-08
4.92568e-08
2.73719e-08
1.75389e-08
1.84686e-08
2.92344e-08
4.25494e-08
6.44838e-08
2.17365e-07
1.48436e-07
6.33117e-08
5.12256e-08
4.92097e-08
7.62132e-08
1.16092e-07
2.04666e-34
1.22322e-34
2.23589e-07
2.07385e-07
1.9044e-07
1.76499e-07
1.63155e-07
1.50032e-07
1.09663e-07
1.05184e-07
9.31665e-08
1.42642e-34
5.547e-34
6.40757e-08
3.92852e-08
1.895e-08
1.59329e-08
1.85085e-08
2.27171e-08
3.0986e-08
4.92926e-08
1.88756e-07
2.94678e-07
7.29558e-08
4.96836e-08
5.46478e-08
7.40881e-08
1.14587e-07
2.07026e-34
1.15723e-34
2.22919e-07
2.07853e-07
1.94585e-07
1.79064e-07
1.64542e-07
1.52421e-07
1.42797e-07
1.38224e-07
1.23697e-07
1.43818e-34
7.57714e-34
5.78053e-08
3.46587e-08
2.57499e-08
1.89833e-08
2.33618e-08
2.54789e-08
2.60154e-08
3.4081e-08
1.17156e-07
3.22653e-07
1.57014e-07
5.86275e-08
5.67815e-08
6.87433e-08
1.12385e-07
2.06679e-34
9.87127e-35
2.2226e-07
2.06921e-07
1.9413e-07
1.77388e-07
1.61993e-07
1.50054e-07
1.43951e-07
1.41474e-07
1.21808e-07
1.6046e-34
7.92585e-34
4.05114e-08
3.14154e-08
2.97967e-08
2.52507e-08
2.93847e-08
3.25218e-08
2.80781e-08
3.0835e-08
8.36982e-08
3.21599e-07
2.77274e-07
6.002e-08
5.55522e-08
6.45496e-08
1.10266e-07
2.13256e-34
9.29851e-35
2.21354e-07
2.05882e-07
1.93163e-07
1.76119e-07
1.60612e-07
1.49976e-07
1.44668e-07
1.4292e-07
1.05224e-07
1.93564e-34
1.24635e-33
2.81687e-08
3.44921e-08
3.31075e-08
2.93738e-08
2.8652e-08
3.07746e-08
2.72721e-08
3.40243e-08
6.86266e-08
3.17607e-07
3.18377e-07
1.01213e-07
5.05487e-08
6.56359e-08
1.08107e-07
2.1117e-34
9.22391e-35
2.20905e-07
2.05359e-07
1.92395e-07
1.75214e-07
1.59963e-07
1.50179e-07
1.4767e-07
1.42943e-07
1.04864e-07
6.66681e-08
5.63694e-08
3.20863e-08
3.095e-08
3.11821e-08
3.06793e-08
3.19807e-08
3.32676e-08
3.36732e-08
3.68427e-08
6.25452e-08
3.13464e-07
3.16614e-07
2.43758e-07
5.15275e-08
5.77849e-08
1.0804e-07
2.26106e-34
8.4584e-35
2.20311e-07
2.05438e-07
1.91612e-07
1.7455e-07
1.59753e-07
1.50754e-07
1.50884e-07
1.41603e-07
9.96923e-08
8.09977e-08
6.20703e-08
4.08573e-08
2.69524e-08
2.88153e-08
3.18264e-08
3.42264e-08
3.53376e-08
3.86719e-08
3.90723e-08
9.66621e-08
3.09631e-07
3.12176e-07
3.14801e-07
8.39526e-08
4.52787e-08
1.08059e-07
2.27336e-34
8.45469e-35
2.1899e-07
2.05797e-07
1.91095e-07
1.73996e-07
1.59624e-07
1.51808e-07
1.54529e-07
1.40725e-07
9.17032e-08
7.47971e-08
6.03623e-08
3.65713e-08
2.75715e-08
2.7974e-08
2.76818e-08
3.09744e-08
3.3066e-08
3.54275e-08
4.57961e-08
2.14505e-07
3.01322e-07
3.04994e-07
3.16766e-07
2.01703e-07
4.49319e-08
1.05131e-07
2.33868e-34
7.83205e-35
2.1783e-07
2.05972e-07
1.90673e-07
1.73435e-07
1.59527e-07
1.5299e-07
1.57826e-07
1.38513e-07
8.19133e-08
6.25568e-08
5.58174e-08
3.42483e-08
2.66216e-08
3.81752e-08
3.63099e-08
3.47102e-08
3.86716e-08
4.10371e-08
1.00808e-07
2.76826e-07
2.91562e-07
2.97973e-07
3.12513e-07
2.75727e-07
5.09351e-08
1.00829e-07
2.38345e-34
7.82093e-35
2.18245e-07
2.05667e-07
1.90439e-07
1.73033e-07
1.59553e-07
1.54946e-07
1.61008e-07
1.3208e-07
6.27445e-08
4.23777e-08
4.92548e-08
3.47023e-08
3.5631e-08
1.10074e-07
1.2699e-07
1.2229e-07
1.69067e-07
1.91637e-07
2.41094e-07
2.6931e-07
2.78755e-07
2.87747e-07
3.06054e-07
2.94817e-07
5.63299e-08
9.60239e-08
2.35762e-34
7.30097e-35
2.19381e-07
2.04913e-07
1.90023e-07
1.72501e-07
1.59694e-07
1.57507e-07
1.61773e-07
1.15106e-07
3.71428e-08
2.9983e-08
3.91099e-08
3.06946e-08
5.82039e-08
2.27256e-07
2.34848e-07
2.36439e-07
2.66704e-07
2.74223e-07
2.50905e-07
2.55695e-07
2.67062e-07
2.78956e-07
3.0035e-07
3.00571e-07
5.76335e-08
8.96283e-08
2.45552e-34
7.29992e-35
2.20032e-07
2.03967e-07
1.89788e-07
1.72312e-07
1.6045e-07
1.61569e-07
1.56989e-07
7.57913e-08
6.95255e-08
5.5766e-08
3.62563e-08
6.38826e-08
2.17e-07
2.59957e-07
2.57075e-07
2.58202e-07
2.87051e-07
3.11255e-07
2.65761e-07
2.46854e-07
2.55723e-07
2.69299e-07
2.93055e-07
2.99346e-07
5.74303e-08
8.46183e-08
2.50956e-34
6.82642e-35
2.19065e-07
2.03323e-07
1.89682e-07
1.72218e-07
1.62604e-07
1.64947e-07
1.44978e-07
4.91194e-08
2.2438e-07
2.48341e-07
1.55902e-07
2.67931e-07
2.36609e-07
2.70974e-07
2.47961e-07
2.52211e-07
2.8495e-07
3.14828e-07
2.85898e-07
2.44474e-07
2.46712e-07
2.61621e-07
2.85991e-07
2.92353e-07
5.63653e-08
8.46154e-08
2.48939e-34
6.85612e-35
2.1777e-07
2.03527e-07
1.89613e-07
1.72573e-07
1.66531e-07
1.67719e-07
1.20859e-07
1.03553e-07
2.39347e-07
2.714e-07
2.71053e-07
2.79994e-07
2.62455e-07
2.73551e-07
2.47028e-07
2.43813e-07
2.57857e-07
2.77751e-07
2.61138e-07
2.31223e-07
2.28996e-07
2.50095e-07
2.76496e-07
2.78895e-07
5.50361e-08
8.74281e-08
2.56748e-34
6.3926e-35
2.1757e-07
2.04593e-07
1.89974e-07
1.76064e-07
1.74983e-07
1.63659e-07
8.82928e-08
2.03697e-07
2.28716e-07
3.46949e-07
4.24142e-07
4.29476e-07
5.02271e-07
3.92971e-07
3.82408e-07
2.8523e-07
1.89154e-07
1.45011e-07
1.77911e-07
1.89674e-07
2.0977e-07
2.42147e-07
2.69129e-07
2.57851e-07
5.43782e-08
9.52178e-08
2.54996e-34
6.40373e-35
2.22058e-07
2.07304e-07
1.92385e-07
1.8219e-07
1.81355e-07
1.54179e-07
4.261e-34
4.74451e-08
7.17809e-08
1.0913e-07
1.42571e-07
1.35161e-07
1.43758e-07
1.29864e-07
1.30471e-07
1.29379e-07
1.36333e-07
1.44283e-07
1.6612e-07
1.84246e-07
2.09667e-07
2.39783e-07
2.62953e-07
2.17674e-07
5.4265e-08
1.02247e-07
2.63438e-34
5.94687e-35
2.27948e-07
2.09448e-07
1.95684e-07
1.88037e-07
1.84649e-07
1.40426e-07
4.31031e-34
4.42075e-31
3.41996e-08
5.86631e-08
9.26724e-08
1.09002e-07
1.18247e-07
1.16972e-07
1.18872e-07
1.22975e-07
1.32741e-07
1.43455e-07
1.64363e-07
1.80092e-07
2.03398e-07
2.33276e-07
2.55707e-07
1.2038e-07
5.29387e-08
1.06117e-07
2.66687e-34
5.93099e-35
2.31414e-07
2.12297e-07
2.00196e-07
1.93409e-07
1.84914e-07
1.2717e-07
3.88024e-34
3.01999e-32
1.76543e-08
2.91426e-08
5.84399e-08
8.84823e-08
1.01856e-07
9.95903e-08
1.01424e-07
1.05704e-07
1.18877e-07
1.32304e-07
1.55833e-07
1.75487e-07
2.01595e-07
2.30518e-07
2.50114e-07
5.19851e-31
5.90144e-08
1.08213e-07
2.64472e-34
5.52005e-35
2.31073e-07
2.13127e-07
2.03823e-07
1.97164e-07
1.83517e-07
1.09466e-07
5.1985e-34
7.4117e-32
1.52822e-08
2.20562e-08
4.36772e-08
8.94606e-08
1.03363e-07
1.01601e-07
1.04659e-07
1.10147e-07
1.22344e-07
1.34437e-07
1.53945e-07
1.72857e-07
1.95382e-07
2.21829e-07
2.41017e-07
4.34075e-31
9.10054e-08
1.08988e-07
2.67672e-34
5.51852e-35
2.32698e-07
2.15469e-07
2.08036e-07
1.99723e-07
1.77371e-07
9.11179e-08
6.61926e-34
5.37252e-32
1.52191e-08
1.73554e-08
2.63773e-08
8.79246e-08
9.95323e-08
9.7803e-08
1.00629e-07
1.06669e-07
1.17943e-07
1.2959e-07
1.4673e-07
1.65191e-07
1.85694e-07
2.07365e-07
2.2398e-07
3.2276e-31
1.61525e-07
1.09642e-07
2.68472e-34
5.14951e-35
2.35488e-07
2.17046e-07
2.09992e-07
2.0141e-07
1.70714e-07
8.25221e-08
6.94302e-34
4.24813e-32
1.45882e-08
1.47635e-08
1.5733e-08
9.25993e-08
9.77045e-08
9.61959e-08
9.83472e-08
1.03604e-07
1.1222e-07
1.2168e-07
1.34626e-07
1.47534e-07
1.61393e-07
1.75654e-07
1.87984e-07
2.29873e-31
2.03998e-07
1.09729e-07
2.67152e-34
4.9915e-35
2.41173e-07
2.20861e-07
2.13289e-07
2.01412e-07
1.56992e-07
4.6286e-34
7.99662e-34
1.25475e-08
9.77215e-09
1.16259e-08
9.88847e-09
7.099e-08
7.16677e-08
7.0836e-08
7.18279e-08
7.44172e-08
7.84992e-08
8.26524e-08
8.80879e-08
9.30913e-08
9.73492e-08
9.93415e-08
1.02965e-07
1.29625e-07
1.07129e-07
1.09127e-07
2.70621e-34
2.12877e-08
2.52874e-08
6.60382e-08
7.64774e-08
8.84608e-08
9.46894e-08
1.0218e-07
1.07065e-07
1.12261e-07
1.14988e-07
1.17286e-07
1.17359e-07
1.1619e-07
1.13586e-07
1.09335e-07
1.0301e-07
9.45357e-08
8.39406e-08
7.16454e-08
5.65362e-08
4.15365e-08
3.19242e-08
3.08942e-08
3.63717e-08
5.8232e-08
7.62727e-08
7.86963e-08
8.7201e-34
1.51126e-33
1.08745e-07
1.08111e-07
1.09766e-07
1.11127e-07
1.13129e-07
1.1523e-07
1.15209e-07
1.14592e-07
1.13615e-07
1.13334e-07
1.14259e-07
1.12002e-07
1.08778e-07
1.05171e-07
1.00853e-07
9.5138e-08
8.78314e-08
7.93229e-08
7.02263e-08
6.12696e-08
5.66839e-08
5.56923e-08
5.87226e-08
6.87249e-08
7.93725e-08
9.1538e-08
9.76987e-34
2.49387e-09
2.05449e-08
1.92446e-08
1.87168e-08
1.76956e-08
1.6936e-08
1.57982e-08
1.45876e-08
1.38656e-08
1.40088e-08
2.43041e-08
1.08337e-07
1.02981e-07
9.93504e-08
9.63206e-08
9.24313e-08
8.80033e-08
8.25889e-08
7.61353e-08
6.8519e-08
6.16133e-08
5.98165e-08
6.09559e-08
6.07287e-08
6.00059e-08
7.06193e-08
9.027e-08
1.03803e-33
1.99052e-09
3.69458e-09
3.24086e-09
2.94121e-09
2.45691e-09
1.79867e-09
1.51151e-09
1.39816e-09
1.31565e-09
9.02094e-10
1.58839e-09
2.06203e-08
9.49244e-08
9.31748e-08
9.08183e-08
8.71345e-08
8.23956e-08
7.57231e-08
6.61694e-08
5.51292e-08
4.8159e-08
4.3153e-08
4.66464e-08
4.52648e-08
4.96277e-08
6.49831e-08
8.783e-08
7.85852e-34
2.76935e-33
7.81771e-08
1.48916e-09
9.58965e-10
8.51824e-10
6.16358e-10
4.79099e-10
4.04089e-10
4.09499e-10
3.87274e-10
2.01664e-10
9.83176e-09
8.607e-08
8.04374e-08
7.13114e-08
6.07676e-08
5.02139e-08
5.27535e-08
5.30096e-08
5.67393e-08
5.06306e-08
4.66199e-08
4.17084e-08
5.37224e-08
4.31616e-08
5.87645e-08
8.48863e-08
7.47941e-34
1.68396e-33
1.42598e-07
6.94151e-08
9.57085e-10
1.64448e-10
2.15642e-11
9.50803e-12
1.89243e-11
2.28893e-11
1.9248e-11
1.90885e-11
4.58477e-09
7.31914e-08
5.87804e-08
3.89303e-08
3.18798e-08
3.47698e-08
3.89045e-08
5.60514e-08
1.12754e-07
1.67783e-07
7.00238e-08
4.75924e-08
4.36634e-08
4.91398e-08
5.75111e-08
8.3983e-08
6.84049e-34
1.17603e-33
1.53946e-07
1.30602e-07
7.30862e-08
6.90856e-08
6.51459e-08
5.26618e-08
3.73715e-10
5.09454e-11
8.63155e-11
4.78251e-11
3.57339e-09
5.87139e-08
3.74241e-08
2.15848e-08
1.70565e-08
1.90977e-08
2.54965e-08
3.32281e-08
4.80224e-08
1.89889e-07
1.99587e-07
5.55473e-08
4.05086e-08
4.7785e-08
5.6695e-08
8.24472e-08
6.52478e-34
7.79911e-34
1.5528e-07
1.4396e-07
1.27743e-07
1.18792e-07
1.0977e-07
9.86458e-08
5.8635e-08
5.57847e-08
4.68011e-08
4.41963e-10
1.37665e-09
4.87354e-08
3.08077e-08
1.71568e-08
1.41831e-08
1.74299e-08
1.87085e-08
2.52338e-08
3.75153e-08
1.48715e-07
2.80079e-07
8.85727e-08
4.69295e-08
4.69253e-08
5.59997e-08
8.13386e-08
6.57818e-34
6.79605e-34
1.55234e-07
1.4503e-07
1.35676e-07
1.24601e-07
1.14074e-07
1.05276e-07
9.6621e-08
9.33046e-08
8.30896e-08
1.1189e-10
1.65777e-10
4.44638e-08
2.82142e-08
2.39636e-08
1.66785e-08
1.93692e-08
2.90567e-08
2.05846e-08
2.80136e-08
9.20166e-08
2.89036e-07
1.8643e-07
5.11926e-08
4.57358e-08
5.28686e-08
7.98947e-08
6.48298e-34
5.40612e-34
1.54659e-07
1.44267e-07
1.35859e-07
1.24242e-07
1.13134e-07
1.04486e-07
1.00212e-07
9.87168e-08
8.61808e-08
7.70621e-11
6.09116e-11
3.43832e-08
2.6316e-08
2.65066e-08
2.11035e-08
2.10155e-08
3.20428e-08
3.0718e-08
3.09028e-08
6.79894e-08
2.85303e-07
2.65874e-07
6.08589e-08
4.37854e-08
5.05908e-08
7.82981e-08
6.71762e-34
5.20487e-34
1.54088e-07
1.43415e-07
1.3499e-07
1.23088e-07
1.11771e-07
1.04127e-07
1.01031e-07
1.00966e-07
7.3763e-08
1.02769e-09
1.0773e-09
2.8578e-08
2.72953e-08
3.10476e-08
2.51035e-08
2.34264e-08
2.93236e-08
2.29135e-08
3.48358e-08
5.68387e-08
2.80422e-07
2.85081e-07
1.32288e-07
4.30096e-08
5.25121e-08
7.63235e-08
6.92513e-34
4.61327e-34
1.53896e-07
1.43369e-07
1.34246e-07
1.22325e-07
1.11181e-07
1.04277e-07
1.03026e-07
1.01475e-07
7.56241e-08
3.92955e-08
3.56299e-08
3.8675e-08
2.74483e-08
3.14198e-08
2.53121e-08
2.5045e-08
3.01385e-08
2.66566e-08
3.2454e-08
5.2513e-08
2.75867e-07
2.79133e-07
2.53899e-07
4.49765e-08
4.99568e-08
7.63525e-08
6.96253e-34
4.41138e-34
1.53272e-07
1.43878e-07
1.33668e-07
1.21795e-07
1.11008e-07
1.04607e-07
1.05449e-07
1.0073e-07
7.30773e-08
5.79969e-08
4.58345e-08
4.27254e-08
3.05878e-08
2.9738e-08
2.82477e-08
2.91122e-08
3.04951e-08
3.12485e-08
3.31575e-08
8.67757e-08
2.69975e-07
2.73976e-07
2.87104e-07
1.64379e-07
4.17811e-08
7.69948e-08
7.23229e-34
4.3531e-34
1.52086e-07
1.44281e-07
1.33411e-07
1.21374e-07
1.10919e-07
1.05373e-07
1.08312e-07
1.00305e-07
6.80518e-08
5.54045e-08
4.53561e-08
3.55467e-08
2.87837e-08
3.4696e-08
2.78501e-08
2.51045e-08
3.01502e-08
3.07355e-08
4.0285e-08
1.9189e-07
2.58732e-07
2.64858e-07
2.83335e-07
2.70915e-07
5.27145e-08
7.5501e-08
7.45219e-34
4.10707e-34
1.51626e-07
1.44218e-07
1.33204e-07
1.20986e-07
1.10881e-07
1.06301e-07
1.11164e-07
9.95634e-08
5.96036e-08
4.70686e-08
4.23546e-08
3.29546e-08
3.31965e-08
5.62458e-08
4.98595e-08
4.05658e-08
5.41704e-08
6.01226e-08
1.32788e-07
2.36825e-07
2.46279e-07
2.55991e-07
2.76966e-07
2.87563e-07
5.43736e-08
7.25651e-08
7.47229e-34
4.10502e-34
1.5252e-07
1.43514e-07
1.33032e-07
1.2069e-07
1.10924e-07
1.07715e-07
1.14021e-07
9.60674e-08
4.52948e-08
3.64957e-08
3.71354e-08
3.13823e-08
3.73228e-08
2.06828e-07
1.77209e-07
1.61347e-07
2.4478e-07
2.34484e-07
2.39052e-07
2.24184e-07
2.31777e-07
2.43842e-07
2.68823e-07
2.85462e-07
5.61226e-08
6.9832e-08
7.56588e-34
3.90891e-34
1.53407e-07
1.42504e-07
1.3265e-07
1.2028e-07
1.1109e-07
1.09803e-07
1.15538e-07
8.64073e-08
3.3803e-08
3.77157e-08
2.87176e-08
3.62064e-08
1.11614e-07
2.77378e-07
2.72626e-07
2.74548e-07
3.0888e-07
3.09529e-07
2.46956e-07
2.11115e-07
2.199e-07
2.35022e-07
2.62235e-07
2.79295e-07
5.69021e-08
6.60011e-08
7.4385e-34
3.91636e-34
1.52725e-07
1.41615e-07
1.32226e-07
1.20081e-07
1.11629e-07
1.13043e-07
1.12997e-07
5.88978e-08
1.13223e-07
1.06283e-07
4.49487e-08
1.26414e-07
2.81289e-07
2.96905e-07
2.95411e-07
3.00563e-07
3.27513e-07
3.53326e-07
2.61747e-07
2.05057e-07
2.0914e-07
2.26064e-07
2.5444e-07
2.70091e-07
5.61793e-08
6.37186e-08
7.48389e-34
3.7212e-34
1.50954e-07
1.41341e-07
1.32054e-07
1.20025e-07
1.13067e-07
1.15261e-07
1.05812e-07
3.92224e-08
2.35738e-07
3.07011e-07
1.92602e-07
3.3329e-07
2.60782e-07
3.30592e-07
2.75501e-07
2.76673e-07
3.49154e-07
3.49441e-07
2.61326e-07
2.02037e-07
2.0089e-07
2.19303e-07
2.47606e-07
2.57286e-07
5.4124e-08
6.39138e-08
7.1691e-34
3.72109e-34
1.49975e-07
1.41708e-07
1.31722e-07
1.19769e-07
1.15173e-07
1.16689e-07
8.93919e-08
1.00073e-07
2.63779e-07
3.3742e-07
3.3524e-07
3.57003e-07
3.2839e-07
3.50176e-07
3.023e-07
2.94062e-07
3.30339e-07
3.33527e-07
2.26339e-07
1.77464e-07
1.81338e-07
2.10342e-07
2.3975e-07
2.3984e-07
5.2716e-08
6.52038e-08
6.96769e-34
3.51249e-34
1.51214e-07
1.4265e-07
1.31425e-07
1.21427e-07
1.20089e-07
1.14493e-07
6.63719e-08
1.52005e-07
2.48214e-07
4.17713e-07
5.07446e-07
5.30044e-07
5.88537e-07
4.99448e-07
4.79182e-07
3.79155e-07
2.5174e-07
1.66827e-07
1.35679e-07
1.50252e-07
1.73567e-07
2.08997e-07
2.35779e-07
2.15552e-07
5.25979e-08
6.92524e-08
7.12974e-34
3.50216e-34
1.56568e-07
1.44364e-07
1.32589e-07
1.25216e-07
1.24435e-07
1.07434e-07
5.6153e-09
5.02563e-08
5.99932e-08
9.68255e-08
1.2695e-07
1.25433e-07
1.30751e-07
1.17089e-07
1.16445e-07
1.11495e-07
1.19207e-07
1.26633e-07
1.37672e-07
1.53484e-07
1.79184e-07
2.09675e-07
2.31385e-07
1.70553e-07
5.21799e-08
7.25963e-08
7.25164e-34
3.31169e-34
1.60115e-07
1.4512e-07
1.34713e-07
1.29007e-07
1.27085e-07
9.85368e-08
1.32845e-09
4.84084e-09
3.15784e-08
4.72143e-08
7.44608e-08
9.1357e-08
8.89599e-08
8.7474e-08
8.97544e-08
9.32189e-08
1.02411e-07
1.10855e-07
1.31676e-07
1.50549e-07
1.75217e-07
2.04689e-07
2.25949e-07
1.05713e-07
5.84005e-08
7.47111e-08
7.22574e-34
3.31007e-34
1.60253e-07
1.46047e-07
1.37678e-07
1.32921e-07
1.28072e-07
9.21294e-08
9.67614e-10
2.19595e-09
2.29608e-08
2.8816e-08
5.23452e-08
9.15953e-08
9.10558e-08
8.91993e-08
9.09851e-08
9.46412e-08
1.04e-07
1.14123e-07
1.31495e-07
1.50289e-07
1.75174e-07
2.02678e-07
2.20765e-07
8.14554e-08
7.83508e-08
7.62891e-08
7.5413e-34
3.08681e-34
1.59008e-07
1.46135e-07
1.40071e-07
1.35771e-07
1.28503e-07
8.05748e-08
8.41749e-10
2.72221e-09
1.73838e-08
1.89159e-08
2.85939e-08
8.57058e-08
8.44161e-08
8.27749e-08
8.56451e-08
9.10535e-08
1.01651e-07
1.1216e-07
1.2913e-07
1.46982e-07
1.67486e-07
1.91614e-07
2.0883e-07
7.14301e-08
1.18065e-07
7.70899e-08
7.47867e-34
3.09583e-34
1.60706e-07
1.47855e-07
1.42943e-07
1.37901e-07
1.25923e-07
6.71836e-08
6.98954e-10
2.80756e-09
1.73153e-08
1.7798e-08
1.85318e-08
8.37691e-08
8.43732e-08
8.30192e-08
8.48823e-08
8.96873e-08
9.83594e-08
1.08574e-07
1.22035e-07
1.37194e-07
1.54498e-07
1.7268e-07
1.85757e-07
5.94014e-08
1.46293e-07
7.77791e-08
7.78122e-34
2.85305e-34
1.64101e-07
1.49667e-07
1.44325e-07
1.395e-07
1.22349e-07
6.28086e-08
6.43553e-10
3.86592e-09
1.55134e-08
1.60588e-08
1.5248e-08
7.81432e-08
7.88655e-08
7.77835e-08
7.91196e-08
8.2986e-08
8.88637e-08
9.5457e-08
1.04408e-07
1.13291e-07
1.22497e-07
1.31202e-07
1.37774e-07
5.34255e-08
1.31888e-07
7.78949e-08
7.8835e-34
2.7916e-34
1.68539e-07
1.52887e-07
1.46818e-07
1.39827e-07
1.1228e-07
5.96297e-09
6.30573e-10
2.51166e-08
1.1544e-08
1.35625e-08
1.33611e-08
5.43338e-08
5.45186e-08
5.43204e-08
5.42687e-08
5.4625e-08
5.48898e-08
5.51541e-08
5.49943e-08
5.4346e-08
5.22893e-08
4.52157e-08
4.08343e-08
8.5935e-08
4.62252e-08
7.75832e-08
7.95061e-34
2.95277e-08
2.06321e-08
4.39406e-08
4.95259e-08
5.73342e-08
6.18454e-08
6.71512e-08
7.07883e-08
7.46037e-08
7.65656e-08
7.75855e-08
7.68768e-08
7.56643e-08
7.26207e-08
6.82915e-08
6.20059e-08
5.43765e-08
4.60462e-08
3.82594e-08
3.15234e-08
2.9932e-08
3.48797e-08
3.60017e-08
3.01385e-08
3.25838e-08
4.64116e-08
4.86228e-08
6.26736e-09
9.63753e-09
6.58924e-08
6.81488e-08
7.07793e-08
7.32889e-08
7.56229e-08
7.80483e-08
7.883e-08
7.95084e-08
8.00437e-08
8.13671e-08
8.29902e-08
8.18015e-08
7.96426e-08
8.06429e-08
9.01898e-08
9.23199e-08
8.69359e-08
8.05986e-08
7.49488e-08
7.08745e-08
7.07343e-08
6.75334e-08
6.77726e-08
7.04942e-08
6.43293e-08
6.51861e-08
3.97563e-09
7.41515e-09
2.94157e-08
2.88721e-08
2.85508e-08
2.81506e-08
2.76893e-08
2.65079e-08
2.5409e-08
2.51996e-08
2.77846e-08
4.175e-08
8.1564e-08
8.03128e-08
8.45042e-08
9.01993e-08
9.27528e-08
9.12735e-08
8.71886e-08
8.15991e-08
7.50394e-08
6.89078e-08
6.9209e-08
7.19321e-08
6.87087e-08
6.64788e-08
7.27523e-08
6.74938e-08
4.31091e-33
9.2381e-33
1.57494e-08
1.47581e-08
1.48264e-08
1.32893e-08
1.19978e-08
1.09708e-08
1.09035e-08
1.15544e-08
1.39985e-08
1.88903e-08
3.86438e-08
7.32682e-08
7.26501e-08
7.10056e-08
6.84532e-08
6.49051e-08
5.93694e-08
5.25392e-08
4.79281e-08
4.61992e-08
4.84058e-08
5.18911e-08
4.85631e-08
4.48317e-08
6.14502e-08
6.60277e-08
3.03594e-33
1.10705e-32
3.37534e-08
1.46948e-08
1.58612e-08
1.49143e-08
1.40541e-08
1.30413e-08
1.29734e-08
1.33334e-08
1.41791e-08
1.50992e-08
2.77222e-08
6.68133e-08
6.34288e-08
5.75295e-08
5.00608e-08
4.98142e-08
4.71694e-08
5.71768e-08
7.3017e-08
7.96061e-08
5.56353e-08
5.52681e-08
5.92818e-08
4.53499e-08
4.71757e-08
6.3735e-08
3.03606e-33
5.51601e-33
9.19603e-08
2.90662e-08
1.38508e-08
1.27447e-08
1.12164e-08
1.24608e-08
1.4559e-08
1.46155e-08
1.39118e-08
1.23085e-08
2.07141e-08
5.71697e-08
4.64094e-08
3.0622e-08
2.87832e-08
3.13006e-08
3.37775e-08
4.47172e-08
9.44453e-08
2.00595e-07
1.48629e-07
5.45462e-08
4.84782e-08
5.52429e-08
4.55421e-08
6.30193e-08
2.53222e-33
2.89688e-33
1.08907e-07
8.38658e-08
3.39071e-08
3.29114e-08
3.19779e-08
2.32837e-08
1.40446e-08
1.43143e-08
1.47143e-08
1.38496e-08
1.65343e-08
4.63666e-08
2.91917e-08
1.86465e-08
1.95808e-08
2.24683e-08
2.40845e-08
2.77551e-08
4.13312e-08
1.95717e-07
2.56502e-07
7.65554e-08
4.95111e-08
5.2491e-08
4.64397e-08
6.21421e-08
2.41704e-33
2.32699e-33
1.11894e-07
1.02879e-07
8.64515e-08
8.11704e-08
7.5939e-08
6.60744e-08
3.09537e-08
2.86145e-08
2.16962e-08
1.50725e-08
1.20401e-08
3.86818e-08
2.53673e-08
1.70012e-08
1.46425e-08
1.8218e-08
1.93553e-08
2.37547e-08
3.36595e-08
1.22145e-07
2.82699e-07
1.46767e-07
4.99056e-08
4.79065e-08
4.72414e-08
6.13876e-08
2.48528e-33
1.83484e-33
1.12028e-07
1.05535e-07
9.83111e-08
9.06158e-08
8.35774e-08
7.72337e-08
6.82327e-08
6.52108e-08
5.74299e-08
1.0482e-08
9.80541e-09
3.6118e-08
2.43448e-08
2.41281e-08
1.70138e-08
1.89431e-08
3.71787e-08
2.33946e-08
3.29843e-08
8.07059e-08
2.79621e-07
2.3451e-07
5.65132e-08
4.89096e-08
4.73159e-08
6.05594e-08
2.49281e-33
1.72082e-33
1.11495e-07
1.05131e-07
9.92138e-08
9.11691e-08
8.36412e-08
7.7558e-08
7.4205e-08
7.27168e-08
6.38326e-08
9.7028e-09
7.95832e-09
3.22645e-08
2.43962e-08
2.82702e-08
2.14159e-08
1.85271e-08
3.73177e-08
3.58754e-08
3.96279e-08
6.28829e-08
2.72661e-07
2.72326e-07
9.28744e-08
4.89003e-08
4.74584e-08
5.94467e-08
2.58296e-33
1.52847e-33
1.11042e-07
1.04605e-07
9.87128e-08
9.03966e-08
8.26161e-08
7.72301e-08
7.5065e-08
7.53833e-08
5.69175e-08
1.69218e-08
1.32102e-08
4.5631e-08
2.72472e-08
3.93216e-08
2.73966e-08
2.53885e-08
3.74094e-08
2.48367e-08
4.25146e-08
5.40469e-08
2.66029e-07
2.74505e-07
2.00312e-07
4.56183e-08
4.90924e-08
5.80076e-08
2.55111e-33
1.50124e-33
1.10783e-07
1.04748e-07
9.79773e-08
8.97226e-08
8.20616e-08
7.73116e-08
7.63038e-08
7.58866e-08
6.3942e-08
2.76502e-08
2.68421e-08
6.07186e-08
3.602e-08
4.96211e-08
3.23876e-08
2.8368e-08
4.1459e-08
2.85804e-08
3.41959e-08
5.09103e-08
2.59112e-07
2.64931e-07
2.73366e-07
6.25522e-08
4.98989e-08
5.83258e-08
2.92586e-33
1.39991e-33
1.10239e-07
1.05183e-07
9.75633e-08
8.92902e-08
8.19097e-08
7.7479e-08
7.79424e-08
7.54719e-08
5.86125e-08
4.56375e-08
3.82474e-08
6.11357e-08
4.68999e-08
5.20133e-08
4.40752e-08
3.73742e-08
4.45084e-08
3.53545e-08
3.445e-08
8.88629e-08
2.4949e-07
2.57448e-07
2.81976e-07
2.63215e-07
5.99229e-08
5.93747e-08
2.94259e-33
1.35669e-33
1.09621e-07
1.05345e-07
9.74288e-08
8.89758e-08
8.18555e-08
7.80071e-08
8.00587e-08
7.51911e-08
5.86316e-08
4.53301e-08
3.91689e-08
5.36577e-08
3.78078e-08
6.49019e-08
4.34788e-08
3.40044e-08
5.03813e-08
4.20532e-08
5.11113e-08
1.99951e-07
2.34624e-07
2.44898e-07
2.72938e-07
2.91443e-07
7.87821e-08
5.87154e-08
2.96262e-33
1.36871e-33
1.0974e-07
1.05043e-07
9.7298e-08
8.87196e-08
8.18564e-08
7.87157e-08
8.23753e-08
7.47606e-08
4.80851e-08
4.0406e-08
3.6779e-08
5.09999e-08
4.94013e-08
1.64663e-07
1.43693e-07
9.84059e-08
1.62149e-07
1.67626e-07
2.42466e-07
2.27827e-07
2.19998e-07
2.33788e-07
2.64719e-07
2.87113e-07
8.60229e-08
5.66727e-08
2.95038e-33
1.28357e-33
1.10375e-07
1.04206e-07
9.71356e-08
8.85096e-08
8.18974e-08
7.96635e-08
8.47511e-08
7.29116e-08
3.81694e-08
4.99304e-08
3.15648e-08
4.72809e-08
7.70238e-08
3.50248e-07
2.63121e-07
2.34775e-07
3.72503e-07
3.14719e-07
3.03927e-07
2.13479e-07
2.04735e-07
2.20516e-07
2.55072e-07
2.78836e-07
9.04978e-08
5.5066e-08
2.9766e-33
1.30976e-33
1.10511e-07
1.03366e-07
9.67908e-08
8.82021e-08
8.20449e-08
8.12056e-08
8.64914e-08
6.75796e-08
4.87123e-08
6.97046e-08
2.62872e-08
6.14375e-08
2.4436e-07
3.87313e-07
3.45547e-07
3.54165e-07
4.14763e-07
3.84249e-07
3.02185e-07
1.98093e-07
1.93618e-07
2.12769e-07
2.48563e-07
2.68071e-07
9.07072e-08
5.26605e-08
2.80334e-33
1.2341e-33
1.09366e-07
1.02821e-07
9.62889e-08
8.80261e-08
8.24149e-08
8.372e-08
8.51666e-08
4.91389e-08
2.3891e-07
2.67132e-07
8.93711e-08
3.08482e-07
3.8544e-07
3.77253e-07
3.92544e-07
4.02735e-07
4.1529e-07
4.49933e-07
2.89391e-07
1.87728e-07
1.83527e-07
2.05455e-07
2.4117e-07
2.55706e-07
8.78652e-08
5.18652e-08
2.66448e-33
1.25397e-33
1.07979e-07
1.02862e-07
9.61617e-08
8.8e-08
8.3326e-08
8.49401e-08
8.01024e-08
3.51461e-08
2.86727e-07
4.11958e-07
2.60669e-07
4.5036e-07
3.25989e-07
4.51346e-07
3.53591e-07
3.5272e-07
4.88111e-07
4.44644e-07
2.72908e-07
1.80383e-07
1.74273e-07
2.00998e-07
2.3606e-07
2.40809e-07
8.27869e-08
5.20289e-08
2.48271e-33
1.17524e-33
1.07986e-07
1.0327e-07
9.58133e-08
8.75132e-08
8.41813e-08
8.5233e-08
6.84684e-08
9.54846e-08
3.27845e-07
4.43006e-07
4.21396e-07
4.80043e-07
4.2526e-07
4.78947e-07
3.98189e-07
3.96347e-07
4.8936e-07
4.73552e-07
2.28173e-07
1.50446e-07
1.60362e-07
1.99401e-07
2.31112e-07
2.21961e-07
7.97905e-08
5.22424e-08
2.37828e-33
1.17921e-33
1.10002e-07
1.03893e-07
9.52774e-08
8.80755e-08
8.67533e-08
8.3675e-08
5.02385e-08
1.42883e-07
3.04733e-07
4.99219e-07
5.88448e-07
6.26476e-07
6.65487e-07
6.07135e-07
5.77822e-07
4.98992e-07
3.57444e-07
2.78656e-07
1.41477e-07
1.39689e-07
1.62594e-07
2.02708e-07
2.29986e-07
1.98561e-07
7.84492e-08
5.3429e-08
2.49989e-33
1.11057e-33
1.1396e-07
1.04572e-07
9.5635e-08
9.0352e-08
8.97585e-08
7.74854e-08
1.33347e-08
4.39797e-08
4.37494e-08
8.1464e-08
1.17534e-07
1.23775e-07
1.27438e-07
1.15192e-07
1.14485e-07
1.0862e-07
1.13621e-07
1.2158e-07
1.25795e-07
1.42456e-07
1.71012e-07
2.043e-07
2.25897e-07
1.6432e-07
7.84027e-08
5.44654e-08
2.41256e-33
1.09419e-33
1.15145e-07
1.04523e-07
9.70463e-08
9.29595e-08
9.18777e-08
7.09204e-08
6.19774e-09
2.13539e-08
2.14201e-08
3.17515e-08
5.40884e-08
7.59478e-08
7.42412e-08
7.18647e-08
7.49569e-08
7.95308e-08
9.03591e-08
9.92548e-08
1.19034e-07
1.4095e-07
1.68391e-07
1.99398e-07
2.21149e-07
1.42846e-07
9.24031e-08
5.58266e-08
2.54999e-33
1.04586e-33
1.14364e-07
1.04606e-07
9.91527e-08
9.61011e-08
9.33248e-08
6.88931e-08
4.27163e-09
3.06921e-08
2.53533e-08
2.78326e-08
4.55246e-08
8.81059e-08
8.80309e-08
8.69883e-08
8.89163e-08
9.32091e-08
1.00712e-07
1.09961e-07
1.23506e-07
1.43931e-07
1.68021e-07
1.95289e-07
2.12968e-07
1.34344e-07
1.14331e-07
5.74491e-08
2.50941e-33
1.01591e-33
1.13932e-07
1.04875e-07
1.00936e-07
9.85477e-08
9.44477e-08
6.20349e-08
8.57078e-09
4.02692e-08
2.4165e-08
2.13065e-08
3.13888e-08
7.891e-08
7.83033e-08
7.72031e-08
7.96912e-08
8.51042e-08
9.4324e-08
1.04637e-07
1.19408e-07
1.36312e-07
1.56194e-07
1.79715e-07
1.95343e-07
1.26936e-07
1.34751e-07
5.86179e-08
2.66145e-33
9.67156e-34
1.15991e-07
1.06572e-07
1.03157e-07
1.00535e-07
9.41478e-08
5.12287e-08
2.17396e-08
5.3671e-08
2.99177e-08
2.32917e-08
2.98062e-08
7.87185e-08
7.94099e-08
7.86131e-08
8.06167e-08
8.57178e-08
9.22375e-08
1.01006e-07
1.11325e-07
1.23657e-07
1.38975e-07
1.55171e-07
1.64145e-07
1.07405e-07
1.28841e-07
5.94236e-08
2.69019e-33
9.60812e-34
1.18701e-07
1.08244e-07
1.04335e-07
1.02128e-07
9.21219e-08
4.89054e-08
3.5024e-08
5.66115e-08
2.84214e-08
2.25747e-08
2.83365e-08
7.21307e-08
7.24257e-08
7.2094e-08
7.31084e-08
7.60281e-08
7.99389e-08
8.43341e-08
9.04313e-08
9.67496e-08
1.04119e-07
1.11136e-07
1.1145e-07
9.11545e-08
8.34788e-08
5.96216e-08
2.69508e-33
9.04264e-34
1.20875e-07
1.10906e-07
1.06499e-07
1.02613e-07
8.4621e-08
1.72448e-08
8.87282e-08
5.87727e-08
5.52644e-08
2.59686e-08
4.61693e-08
6.77623e-08
6.77147e-08
6.82502e-08
6.83017e-08
6.84052e-08
6.81811e-08
6.90664e-08
7.15361e-08
7.6104e-08
8.21257e-08
6.17859e-08
6.00755e-08
6.50103e-08
1.95937e-08
5.94446e-08
2.7398e-33
6.46557e-08
4.77335e-08
4.78464e-08
4.55229e-08
4.71979e-08
4.87806e-08
5.11071e-08
5.27122e-08
5.43838e-08
5.50057e-08
5.44078e-08
5.33755e-08
5.16468e-08
4.85979e-08
4.51922e-08
4.09751e-08
3.77254e-08
3.59678e-08
3.70588e-08
4.16597e-08
4.99234e-08
5.80812e-08
5.91999e-08
5.06908e-08
3.68784e-08
3.3371e-08
3.40239e-08
2.07351e-08
2.62752e-08
4.33216e-08
4.59943e-08
4.92745e-08
5.23e-08
5.46939e-08
5.70398e-08
5.79536e-08
5.90071e-08
6.0053e-08
6.25284e-08
7.09592e-08
8.11078e-08
8.2442e-08
8.32713e-08
8.71202e-08
9.50476e-08
1.08388e-07
1.26207e-07
1.45169e-07
1.60944e-07
1.57219e-07
1.30517e-07
1.10395e-07
8.80885e-08
6.61836e-08
5.19271e-08
1.20679e-08
2.04807e-08
2.9942e-08
2.94693e-08
2.97903e-08
3.33285e-08
3.59186e-08
3.61482e-08
3.62016e-08
3.79654e-08
4.4383e-08
6.23369e-08
8.91076e-08
8.82838e-08
8.83962e-08
8.89913e-08
8.88978e-08
8.71341e-08
8.14978e-08
7.52222e-08
7.11895e-08
7.32345e-08
8.08501e-08
8.08451e-08
7.40702e-08
6.42923e-08
6.30638e-08
7.11896e-08
7.52328e-09
9.02842e-09
2.0642e-08
2.07903e-08
2.26583e-08
2.11832e-08
1.99803e-08
1.99453e-08
2.06963e-08
2.39126e-08
2.86912e-08
3.6765e-08
5.85913e-08
7.96883e-08
7.64114e-08
6.87039e-08