/*--------------------------------*- C++ -*----------------------------------*\
| =========                 |                                                 |
| \\      /  F ield         | OpenFOAM: The Open Source CFD Toolbox           |
|  \\    /   O peration     | Version:  2.3.0                                 |
|   \\  /    A nd           | Web:      www.OpenFOAM.org                      |
|    \\/     M anipulation  |                                                 |
\*---------------------------------------------------------------------------*/
FoamFile
{
    version     2.0;
    format      ascii;
    class       volVectorField;
    location    "4.99954";
    object      U;
}
// * * * * * * * * * * * * * * * * * * * * * * * * * * * * * * * * * * * * * //

dimensions      [0 1 -1 0 0 0 0];

internalField   nonuniform List<vector> 
18816
(
(-0.00698998 0.0113934 -0.00309898)
(-0.0171118 0.0132447 2.25558e-05)
(-0.0301441 0.0131667 -0.00212409)
(-0.0362703 0.0130041 -0.00221728)
(-0.046056 0.0138869 -0.00250984)
(-0.0514402 0.0133931 -0.00249501)
(-0.0593295 0.0139129 -0.00263931)
(-0.0647145 0.014218 -0.00269518)
(-0.0714097 0.0154352 -0.00278304)
(-0.0765069 0.016837 -0.00283602)
(-0.0823397 0.01872 -0.00290884)
(-0.0871285 0.0202969 -0.00293516)
(-0.0920229 0.0208489 -0.00291731)
(-0.0954377 0.0222551 -0.00302755)
(-0.0978525 0.0238525 -0.00313612)
(-0.0985885 0.0256031 -0.00334352)
(-0.0964548 0.0272235 -0.00359115)
(-0.0902632 0.0287938 -0.00386401)
(-0.0798624 0.0299616 -0.00403184)
(-0.0636391 0.0285081 -0.00424149)
(-0.0436419 0.0267287 -0.00413355)
(-0.016121 0.0257363 -0.00394248)
(0.00938817 0.0248456 -0.00371728)
(0.0341948 0.023999 -0.00368514)
(0.0565624 0.0226458 -0.00304753)
(0.0559299 0.0251089 -0.00240513)
(0.0418174 0.0268736 -0.00251469)
(0.0175121 0.0193292 -0.00490255)
(-0.00929397 0.0755815 -0.00315829)
(-0.0226779 0.0857047 -0.00437541)
(-0.0292086 0.0751243 -0.00414984)
(-0.0349311 0.0719583 -0.00393265)
(-0.0423748 0.0677063 -0.00380745)
(-0.0477894 0.0661758 -0.00368999)
(-0.0550826 0.0650871 -0.0035104)
(-0.0605387 0.0639293 -0.0032837)
(-0.0667205 0.0617778 -0.00304468)
(-0.0712822 0.0594375 -0.00276102)
(-0.0760979 0.0564417 -0.00222314)
(-0.0789366 0.0538927 -0.000599987)
(-0.0828784 0.0529693 -0.000585671)
(-0.0851593 0.0517843 -0.000491653)
(-0.086417 0.0515195 -0.000410467)
(-0.0866574 0.0517696 -0.000330433)
(-0.0849437 0.0526236 -0.000236793)
(-0.0801213 0.0528779 -0.000162791)
(-0.0717463 0.0520244 -0.000107797)
(-0.0575797 0.052358 -9.49344e-05)
(-0.0402137 0.0515981 -0.000141965)
(-0.0185172 0.049739 -0.000143259)
(0.00214707 0.0496229 -0.000144313)
(0.0234268 0.0451287 -4.32926e-05)
(0.0392769 0.0446508 -3.21677e-06)
(0.040229 0.049671 0.000133838)
(0.0300063 0.0649969 -2.60386e-05)
(0.0123455 0.0999014 -0.00408849)
(-0.00254152 0.104924 -0.00172142)
(-0.00448132 0.0981212 -0.00771835)
(-0.0172316 0.0925395 -0.00605132)
(-0.0216649 0.0896662 -0.00619715)
(-0.0282749 0.0866653 -0.00608072)
(-0.0334113 0.0845108 -0.00605664)
(-0.0391683 0.0813703 -0.00613082)
(-0.0423692 0.0775551 -0.00596514)
(-0.0456705 0.074145 -0.00562828)
(-0.0488814 0.0699687 -0.00517693)
(-0.0571179 0.0619702 -0.00774499)
(-0.0682352 0.0495782 -0.00196133)
(-0.0717878 0.0476249 0.000343102)
(-0.0739278 0.045807 0.00022249)
(-0.0764919 0.0445495 0.000307936)
(-0.0775883 0.0432187 0.000403837)
(-0.0774376 0.04092 0.000506419)
(-0.0747248 0.0382313 0.000564956)
(-0.0686935 0.0351114 0.000562587)
(-0.0565015 0.0314081 0.000477807)
(-0.0407888 0.0275258 0.000256684)
(-0.021665 0.0236223 -0.000104098)
(-0.00278382 0.0230137 -0.000273463)
(0.0162817 0.0202733 -0.000344767)
(0.0281548 0.0269076 -0.000106756)
(0.0323825 0.0427269 0.000380497)
(0.0191248 0.062289 0.000592036)
(0.00784327 0.113846 -0.00242795)
(0.000759146 0.12867 -0.000193974)
(0.000888186 0.134833 0.00651295)
(-0.0114262 0.100352 -0.00259368)
(-0.0114102 0.0976513 -0.000445412)
(-0.0165198 0.0930601 -0.000556113)
(-0.0199067 0.0902656 -0.000494032)
(-0.0238073 0.0865521 -0.000614046)
(-0.0260534 0.0832468 -0.000717701)
(-0.0276083 0.0787388 -0.000629561)
(-0.0285735 0.0746527 -0.000423873)
(-0.0334326 0.067456 -0.000564561)
(-0.0467756 0.0560489 -0.0054664)
(-0.0587597 0.0466399 -0.000416247)
(-0.062855 0.0442241 0.000567756)
(-0.0655591 0.0415604 0.000760417)
(-0.066849 0.0376845 0.00118567)
(-0.0675097 0.0339857 0.00162894)
(-0.0660437 0.0289065 0.00191647)
(-0.0615349 0.0218541 0.00180824)
(-0.0510083 0.0149714 0.00159622)
(-0.0374066 0.0121719 0.0012553)
(-0.0212947 0.0101101 0.000673121)
(-0.00491236 0.0101863 0.000198656)
(0.011616 0.0122304 0.000106786)
(0.0201275 0.0234395 0.000333618)
(0.0235322 0.0438366 0.000600835)
(0.0114014 0.067759 0.000656991)
(0.00452757 0.12262 -0.00116685)
(0.00300193 0.13613 5.10486e-05)
(-0.00318456 0.127913 0.00568384)
(-0.00549684 0.11312 0.00748844)
(-0.00771413 0.102133 -0.00124817)
(-0.0121019 0.0966952 -0.00103548)
(-0.0145993 0.0924675 -0.000893831)
(-0.018269 0.0872308 -0.000855998)
(-0.019181 0.0819067 -2.64491e-05)
(-0.0199266 0.0773756 -6.80158e-05)
(-0.0203239 0.0725971 1.12915e-05)
(-0.022396 0.0647098 0.00019591)
(-0.0337888 0.0525967 -0.00233629)
(-0.0480251 0.0437302 -0.000260234)
(-0.0492892 0.0377862 0.000425161)
(-0.0464267 0.0296371 0.000756639)
(-0.0424305 0.0191732 0.00112141)
(-0.0410567 0.00930927 0.00115293)
(-0.0425296 -0.00093232 0.00104657)
(-0.0460153 -0.00916908 0.0010455)
(-0.0438291 -0.0173421 0.000741601)
(-0.0359639 -0.0193214 0.000619669)
(-0.0250254 -0.0186246 0.000514982)
(-0.0116712 -0.0131784 0.000331742)
(0.00148628 -0.00704022 3.9788e-05)
(0.0101485 0.0127955 0.000150829)
(0.0143054 0.0389216 0.000286178)
(0.00725524 0.066102 0.000358752)
(0.00372575 0.123187 -0.000720126)
(0.00235545 0.137521 2.28131e-05)
(-0.00468812 0.123559 0.00236381)
(-0.0106512 0.116901 0.00484124)
(-0.00533627 0.108526 0.00734385)
(-0.00885583 0.100873 0.00634149)
(-0.0103716 0.095391 0.0058328)
(-0.0130377 0.0889825 0.00475047)
(-0.0134916 0.0823267 -0.000582176)
(-0.0145466 0.0782295 -0.000448898)
(-0.0142529 0.073273 -0.000270957)
(-0.0148367 0.063467 0.000390452)
(-0.0203576 0.0503795 -0.00128685)
(-0.0301695 0.0391199 -6.99161e-05)
(-0.0253393 0.0274726 0.000248169)
(-0.0164172 0.0130765 0.000368874)
(-0.0106106 0.00191513 0.000371534)
(-0.0113019 -0.00274997 0.00066217)
(-0.0196355 -0.00751296 0.00092005)
(-0.0329518 -0.0175317 0.00103702)
(-0.0372509 -0.0283602 0.00069384)
(-0.0344404 -0.033759 0.000419941)
(-0.0278678 -0.034856 0.000264977)
(-0.0179324 -0.029833 0.000230984)
(-0.00700722 -0.015478 8.84569e-05)
(0.000658257 0.00572232 0.000224119)
(0.00747788 0.0379514 0.000141705)
(0.00332534 0.0665567 0.000271871)
(0.00296527 0.122413 -0.000308238)
(0.00161282 0.137182 -0.0002576)
(-0.00501917 0.12026 0.000829424)
(-0.0109274 0.111314 0.00196684)
(-0.0115885 0.109526 0.00441425)
(-0.0166666 0.100092 0.00390226)
(-0.0178674 0.0911447 0.00360582)
(-0.0193239 0.0829525 0.00341373)
(-0.010635 0.0820959 0.00502015)
(-0.0102505 0.077978 0.0042253)
(-0.0105473 0.0716068 0.00352076)
(-0.0104378 0.060171 -3.50019e-05)
(-0.0114757 0.0438762 -0.000403327)
(-0.0140437 0.030527 -0.000204858)
(-0.00773969 0.0153536 -8.51159e-05)
(-0.00230964 0.00171099 -8.43065e-06)
(0.00153281 -0.0027474 -3.65219e-05)
(0.000949651 -0.00263132 6.55432e-05)
(-0.00110186 -0.00397206 0.000364117)
(-0.0138239 -0.0157746 0.000832506)
(-0.0254155 -0.0345043 0.000521377)
(-0.0273518 -0.0420152 0.000505251)
(-0.0261247 -0.0440473 0.000239922)
(-0.0208116 -0.0427841 0.000235627)
(-0.0132694 -0.0297389 0.000229641)
(-0.00636678 -0.00518322 9.78214e-05)
(0.00281427 0.0325662 -7.10346e-05)
(0.00133201 0.0638023 0.000106588)
(0.00252315 0.120531 -0.000174367)
(0.000862813 0.13631 -0.00040269)
(-0.00424433 0.118989 0.000452515)
(-0.00901222 0.107573 0.000769867)
(-0.0111204 0.102155 0.00174308)
(-0.0141536 0.0923957 0.00152036)
(-0.0142532 0.0822088 0.00133097)
(-0.0150163 0.0750871 0.00130256)
(-0.0134246 0.0764909 0.00290071)
(-0.0133592 0.074235 0.00266823)
(-0.0127968 0.0698277 0.0024524)
(-0.00698182 0.0577378 0.000551534)
(-0.00448917 0.0409467 5.324e-05)
(-0.00326637 0.0252996 1.16974e-05)
(-0.000434959 0.0113497 0.000156084)
(0.000757603 0.000671427 4.73611e-05)
(0.00242523 -0.00229975 -8.58215e-06)
(0.000528705 -0.00188287 4.03725e-05)
(0.00353642 -0.00752623 9.64008e-05)
(0.00026929 -0.0113441 0.00059048)
(-0.0139207 -0.0319639 0.000418577)
(-0.0199472 -0.046712 0.00040705)
(-0.0219086 -0.048714 0.000228372)
(-0.0198281 -0.0488263 0.000212264)
(-0.0153315 -0.0396189 0.000204446)
(-0.0105962 -0.0125458 0.000118662)
(-0.00076029 0.0288607 -0.00019283)
(-0.000365853 0.0623355 5.37064e-06)
(0.00195382 0.12024 3.43433e-05)
(0.0001987 0.13544 -0.000415234)
(-0.00335745 0.118159 0.000240418)
(-0.00668317 0.105894 0.000327129)
(-0.00785914 0.0979162 0.000517463)
(-0.00920985 0.0878381 0.000392507)
(-0.0082019 0.0778195 0.000300865)
(-0.00822298 0.0704673 0.000334424)
(-0.00748492 0.0683415 0.000951806)
(-0.00823028 0.0675474 0.000902509)
(-0.00779665 0.0617163 0.0011633)
(-0.0029519 0.053057 0.00079429)
(-0.00205346 0.0345696 0.000256521)
(0.000786732 0.020656 0.000360516)
(0.00207163 0.00667972 0.000260839)
(0.00104844 -0.00203431 3.79647e-05)
(0.00307861 -0.00100839 -0.000110917)
(-0.00459798 -0.00398788 9.45829e-05)
(0.0027468 -0.00341164 -0.00100776)
(0.00668956 -0.00955585 6.06368e-06)
(-0.00262626 -0.0219105 -3.3831e-06)
(-0.0124334 -0.0458056 0.000280935)
(-0.0177031 -0.0504314 0.000209681)
(-0.0179916 -0.0515557 0.000108809)
(-0.0157783 -0.0468348 0.000196667)
(-0.0129657 -0.0228169 0.00016318)
(-0.00244549 0.0229191 -0.000349227)
(-6.4171e-05 0.0597415 -2.87586e-05)
(0.00153288 0.120448 -2.93556e-05)
(-0.000137245 0.13542 -0.000352786)
(-0.00258109 0.117706 0.000149584)
(-0.00473346 0.105407 0.000167877)
(-0.00509798 0.0964393 0.000162457)
(-0.00576704 0.0863256 9.68016e-05)
(-0.00445853 0.0759696 3.70976e-05)
(-0.00462088 0.068895 4.90695e-05)
(-0.00369566 0.06559 0.000201314)
(-0.00907378 0.0668658 0.000542841)
(-0.00937206 0.0512893 0.000503014)
(-0.00138591 0.0454733 0.000640152)
(-0.0013988 0.0276356 4.74358e-05)
(0.00321423 0.00451883 0.000542065)
(0.00510971 0.00286148 7.24735e-05)
(0.00577285 -0.00346133 6.48671e-06)
(0.00351414 0.00246481 -0.000153952)
(0.0114236 -2.06184e-05 -0.000434407)
(0.00539512 -0.00129754 0.000765657)
(0.000481426 5.3869e-05 -0.000727194)
(0.00271854 -0.011748 2.10608e-05)
(-0.00905922 -0.0429528 0.000312283)
(-0.0143175 -0.0504626 0.00025938)
(-0.0160228 -0.0523338 7.84113e-05)
(-0.0147434 -0.0503583 0.000151098)
(-0.0134165 -0.0306124 0.000260416)
(-0.00375186 0.0186315 -0.000374295)
(-0.00157522 0.0577329 -8.31905e-05)
(0.00110898 0.120599 7.87446e-05)
(-0.000422915 0.135583 -0.000271718)
(-0.00201637 0.117162 0.000106575)
(-0.00335115 0.104919 0.000112566)
(-0.00305127 0.0957586 3.95111e-05)
(-0.0034163 0.0853773 1.76291e-05)
(-0.00159579 0.0752345 -1.83254e-05)
(-0.00300152 0.0690982 8.18241e-05)
(-0.00166086 0.0673123 0.000197107)
(-0.0152002 0.0662691 0.00107947)
(-0.0150662 0.0436339 -0.000716793)
(0.00132973 0.0409058 0.00189719)
(-0.00237355 0.0268649 0.000739653)
(0.0046678 -0.00420914 0.000143545)
(0.00852487 -0.000134772 0.000147375)
(0.00622879 -0.00309512 -2.32034e-05)
(0.00631964 -0.00102083 8.3159e-05)
(0.00732861 -0.000106142 -9.39878e-05)
(0.00617998 -0.00509728 0.000154835)
(0.00603268 0.00401766 -5.65426e-05)
(0.00402392 -0.00585881 0.000259834)
(-0.00531013 -0.0423233 0.000486569)
(-0.0113203 -0.0505355 0.000250208)
(-0.0137364 -0.052533 8.58046e-05)
(-0.0139186 -0.0523845 9.65338e-05)
(-0.0138791 -0.0382776 0.000463167)
(-0.00444648 0.0165621 -0.000100841)
(-0.00289342 0.056223 -0.000144645)
(0.000771229 0.121286 0.00012494)
(-0.000520169 0.136113 -0.000217403)
(-0.00162653 0.116748 4.5225e-05)
(-0.00243798 0.104548 8.21619e-05)
(-0.0017663 0.0953693 -9.96022e-07)
(-0.00183225 0.0847122 -2.53704e-05)
(-5.06312e-05 0.0749525 -2.59266e-05)
(-0.00147195 0.069071 4.54075e-05)
(-0.00100196 0.0702797 0.000291795)
(-0.0138608 0.0665048 0.000729967)
(-0.0133187 0.0423477 9.7609e-05)
(-0.00523642 0.0391099 0.00109982)
(-0.0036434 0.027975 0.000457385)
(0.000879713 -0.0115824 0.000117023)
(0.00428452 0.00130863 2.8285e-06)
(0.00502955 -0.00305799 -3.35681e-05)
(0.00657419 0.00176716 -0.000110446)
(0.00873236 0.00253778 -8.43691e-05)
(0.00831158 -0.00310412 -4.6111e-05)
(0.0100812 0.0040347 -7.45683e-05)
(0.00997727 -0.00350047 0.000836967)
(-0.00140845 -0.0420496 0.000640321)
(-0.00758017 -0.0496463 0.000295424)
(-0.0110592 -0.0514817 9.73874e-05)
(-0.0116554 -0.0521987 7.30722e-05)
(-0.0131767 -0.0438979 0.000483857)
(-0.00473574 0.00473964 0.000502405)
(-0.00138416 0.0558785 1.9392e-05)
(-0.000110163 0.123073 5.03845e-05)
(-0.00055511 0.136569 -0.000176096)
(-0.00133902 0.116351 -2.215e-05)
(-0.0018417 0.104052 4.30707e-05)
(-0.000924177 0.0949114 -1.12635e-05)
(-0.000879798 0.0842018 -3.30674e-05)
(0.000803223 0.0748763 -1.73417e-05)
(-0.000756235 0.0698125 6.88132e-05)
(-0.00119149 0.0729066 0.000335287)
(-0.0142226 0.0670898 0.000847893)
(-0.01649 0.0359799 0.000188975)
(-0.00690096 0.0298913 0.000129838)
(-0.00165868 0.0212769 9.40503e-05)
(0.000391247 -0.0152432 4.49073e-05)
(0.0012121 -0.00541762 7.7466e-05)
(0.00376097 -0.00592011 0.000105893)
(0.00756164 -0.00324374 0.000136364)
(0.00916653 -0.00147715 5.72569e-05)
(0.0101237 -0.0040807 8.12463e-05)
(0.0139096 -0.00119006 0.000245039)
(0.0133255 -0.0111624 0.00139709)
(0.00122553 -0.0449568 0.000740243)
(-0.00449159 -0.0495687 0.000304345)
(-0.0077742 -0.0508878 9.77856e-05)
(-0.00845173 -0.0516342 4.06236e-05)
(-0.00980974 -0.0480369 0.000130419)
(-0.00367665 -0.0159177 0.00015983)
(0.00248674 0.0537792 8.50625e-05)
(-0.00093235 0.12561 -0.000236507)
(-0.000576821 0.137421 -0.000155843)
(-0.00116553 0.116166 -1.1707e-05)
(-0.00148913 0.103735 -8.70444e-06)
(-0.000451595 0.094572 -2.17641e-05)
(-0.000300569 0.0837825 -3.9096e-05)
(0.00122095 0.0748127 -1.70635e-05)
(-0.000183331 0.0705456 7.94213e-05)
(-0.00126538 0.0759021 0.000443271)
(-0.016041 0.0683342 0.00100356)
(-0.0161824 0.0310778 -4.14131e-06)
(-0.00585933 0.0238036 -0.000308697)
(0.00156615 0.0208311 -9.33083e-06)
(-0.000394969 -0.0145745 -2.71152e-05)
(-0.000703352 -0.00302401 7.33024e-05)
(0.00297984 -0.0107468 0.000137432)
(0.00589001 -0.00408511 0.000198878)
(0.00982437 -3.48114e-05 0.000263559)
(0.0118891 -0.00692685 0.000248744)
(0.0170837 -0.00423607 0.000345124)
(0.014395 -0.0218864 0.0014551)
(0.00167403 -0.0473625 0.00057423)
(-0.00110645 -0.0492043 0.000262905)
(-0.00452459 -0.0499057 6.46856e-05)
(-0.00464335 -0.0507631 2.34776e-05)
(-0.00582378 -0.0484648 4.69974e-05)
(-0.00161848 -0.0236651 -6.1564e-05)
(0.00441204 0.0513401 8.26944e-05)
(-0.00107532 0.128048 -0.000365607)
(-0.000567801 0.138095 -0.000133054)
(-0.00102913 0.115905 5.58525e-05)
(-0.00128311 0.103495 -4.08658e-05)
(-0.000207596 0.0940782 -3.17754e-05)
(-6.67385e-05 0.0833115 -3.00814e-05)
(0.00119329 0.0747127 -1.98881e-06)
(-0.000309381 0.0713978 0.000138802)
(-0.00339826 0.0784344 0.000603375)
(-0.0188417 0.0667202 0.00125523)
(-0.0193986 0.0244014 0.000287496)
(-0.00585314 0.0161608 -0.0001302)
(0.00278067 0.0173096 1.81452e-05)
(0.000591175 -0.0123509 -0.000102432)
(0.00176779 -0.0105795 8.61901e-05)
(0.00531914 -0.0156982 9.80256e-05)
(0.00661156 -0.0127252 7.22736e-05)
(0.00949642 -0.0101649 0.000116531)
(0.0115723 -0.0134621 0.000114203)
(0.0153375 -0.0123436 0.000119562)
(0.0110738 -0.0303299 0.000905128)
(0.0026597 -0.0479283 0.000294394)
(0.00160843 -0.0487517 0.000134097)
(-0.00124218 -0.0491323 3.10396e-05)
(-0.00124374 -0.050373 1.37712e-05)
(-0.0019019 -0.0493868 -6.93419e-06)
(0.000841671 -0.0271297 1.95387e-05)
(0.00500027 0.049579 0.000136101)
(-0.00082301 0.130022 -0.000401171)
(-0.000565533 0.139143 -0.000138165)
(-0.00102788 0.11576 4.60041e-05)
(-0.00127473 0.103523 -6.21485e-05)
(-0.000238073 0.0938468 -4.26249e-05)
(-0.000159014 0.0830389 -3.11932e-05)
(0.000978059 0.0747405 1.80257e-05)
(-0.000975031 0.0730374 0.000183244)
(-0.00548003 0.0808377 0.00074833)
(-0.0218177 0.0622368 0.00158786)
(-0.017922 0.0134329 0.000692393)
(-0.00395674 0.00425122 0.00015337)
(0.00494883 0.0129654 0.000169821)
(0.00501194 -0.0123058 -2.82814e-05)
(0.00549804 -0.0149694 0.00028562)
(0.00687914 -0.018699 4.14442e-05)
(0.00774344 -0.0156378 0.000251304)
(0.00831846 -0.0141572 0.000359718)
(0.0110308 -0.0170838 1.5784e-05)
(0.0116274 -0.0142239 0.000366562)
(0.00887375 -0.0323875 0.000468852)
(0.00387382 -0.0463994 -1.07251e-05)
(0.0042734 -0.0467303 4.66389e-05)
(0.00166552 -0.04749 -2.82011e-05)
(0.00187766 -0.049381 2.61104e-06)
(0.00141563 -0.0490948 2.53009e-06)
(0.0033455 -0.0299153 4.89619e-05)
(0.00541706 0.0481601 0.000243872)
(-0.000553922 0.13197 -0.000421808)
(-0.000465212 0.14013 -0.00014744)
(-0.00108036 0.115889 -6.33613e-05)
(-0.00151714 0.103472 -4.82298e-05)
(-0.000550777 0.0935403 -4.43304e-05)
(-0.00057502 0.0826745 -2.3199e-05)
(0.000334104 0.0747659 6.22031e-05)
(-0.00318424 0.0748018 0.000360813)
(-0.0104734 0.0814608 0.00108446)
(-0.0298328 0.051755 0.00186514)
(-0.0123693 -7.69286e-05 0.000656556)
(-0.00655852 -0.00735087 0.000309095)
(0.00357382 0.00996727 -0.000126212)
(0.00703957 -0.0125591 0.000164603)
(0.0079818 -0.0156818 -0.000308116)
(0.00684315 -0.0202179 0.000313805)
(0.00531954 -0.0170943 -0.00037122)
(0.0106545 -0.0173147 -0.000255309)
(0.0117084 -0.02033 0.000310568)
(0.0105217 -0.0164421 -0.000153878)
(0.011246 -0.031701 0.000207869)
(0.00545484 -0.0427733 -0.000136585)
(0.00641101 -0.0440092 -2.53462e-06)
(0.00391779 -0.0455611 -6.68205e-05)
(0.0041497 -0.0484411 -7.34839e-06)
(0.00396051 -0.0493142 2.62431e-06)
(0.0056562 -0.031869 5.22747e-05)
(0.00583263 0.0461153 0.000415941)
(-0.000686625 0.132754 -0.000387718)
(-0.000471421 0.141409 -0.000165874)
(-0.00123308 0.11657 -0.000129307)
(-0.0018552 0.103621 -3.1199e-05)
(-0.00105485 0.0937336 -5.30699e-05)
(-0.00141795 0.0827682 2.45829e-06)
(-0.00119475 0.0757682 0.000151195)
(-0.00767229 0.0777661 0.000509349)
(-0.0177679 0.0809038 0.0013057)
(-0.0227833 0.0263087 0.00125879)
(-0.00693813 -0.0123828 0.000643094)
(-0.00703993 -0.0146396 7.11469e-05)
(0.000148061 -0.00571898 0.000218839)
(0.00449025 -0.0164372 8.36319e-05)
(0.00491548 -0.0157785 -5.67142e-06)
(0.00547297 -0.0190285 -2.09805e-05)
(0.0073381 -0.018307 6.39126e-05)
(0.00780819 -0.0193242 -1.91555e-05)
(0.011091 -0.0207196 -3.09979e-05)
(0.0134533 -0.0187645 0.000331243)
(0.0114481 -0.02823 8.63822e-05)
(0.00587744 -0.0385432 -0.000265706)
(0.00779729 -0.0404518 -3.14578e-05)
(0.00527918 -0.0430119 -8.97074e-05)
(0.00555659 -0.0471895 1.39267e-06)
(0.0052147 -0.0493017 2.51614e-05)
(0.00671744 -0.0330543 6.53491e-05)
(0.0056962 0.0442462 0.000505765)
(-0.00115066 0.132239 -0.000343149)
(-0.000382776 0.142849 -0.000204779)
(-0.00153814 0.117743 -8.22345e-05)
(-0.00250219 0.103786 -1.76186e-06)
(-0.00196566 0.094016 8.54791e-07)
(-0.00307808 0.0826894 6.23309e-05)
(-0.00476172 0.0776897 0.000244749)
(-0.0131697 0.0813279 0.000393767)
(-0.0226388 0.0730207 0.000440131)
(-0.00806882 -0.000678176 0.000661009)
(-0.00288576 -0.0174535 0.000475553)
(-0.00457366 -0.0188016 -3.45526e-05)
(-0.000556967 -0.0136581 0.000244509)
(0.00217691 -0.0197449 -1.43539e-05)
(0.00149938 -0.017297 0.000323901)
(0.00388028 -0.023153 -0.000334528)
(0.00755339 -0.0206865 0.00026772)
(0.0055492 -0.021655 0.00037658)
(0.0111926 -0.0275247 -0.000408945)
(0.0186268 -0.0254043 0.000587757)
(0.0160667 -0.0282435 0.000853653)
(0.00576518 -0.0353159 -0.000161956)
(0.00830486 -0.0381194 4.96894e-05)
(0.0057075 -0.0410675 -5.93642e-05)
(0.00571691 -0.0461698 8.03011e-06)
(0.00548543 -0.0494033 2.24413e-05)
(0.00607721 -0.0340855 6.12834e-05)
(0.00464588 0.0442273 0.000458353)
(-0.00234038 0.129533 -0.000283128)
(-0.000394431 0.144455 -0.000222787)
(-0.00184753 0.118783 6.45178e-05)
(-0.00311295 0.104549 -2.22375e-06)
(-0.00340184 0.0947725 -2.17464e-06)
(-0.00514701 0.0846923 -1.24157e-05)
(-0.0102026 0.0827037 0.000217513)
(-0.022347 0.0866201 0.000496175)
(-0.0283285 0.0652209 5.39706e-05)
(-0.00991732 -0.00720449 0.000458979)
(-0.00614189 -0.0167135 -0.000689476)
(-0.00452933 -0.0182913 -0.000463833)
(-0.00152658 -0.0148459 -0.00068315)
(-0.000348643 -0.0196361 -0.000410435)
(0.000377784 -0.0171565 -0.000689858)
(0.00177374 -0.0214734 -0.000380838)
(0.00201417 -0.0207148 -0.00074752)
(0.00790049 -0.023804 -0.000680074)
(0.0108053 -0.0294666 -0.000458582)
(0.0240276 -0.0328653 -0.000592412)
(0.0219978 -0.0357188 0.00153836)
(0.00846035 -0.0335562 -1.13788e-05)
(0.00890436 -0.0356317 7.78634e-05)
(0.00629352 -0.0388968 -2.57114e-05)
(0.00517607 -0.0444255 1.51391e-05)
(0.00433988 -0.0482884 -2.7164e-06)
(0.00368986 -0.0332717 -1.09742e-05)
(0.0023323 0.0471681 0.000247393)
(-0.00330028 0.125546 -0.000213519)
(-0.000436981 0.146616 -0.000361763)
(-0.0024482 0.119938 0.00020135)
(-0.00433714 0.105951 -1.12237e-05)
(-0.00544353 0.09692 -1.76878e-05)
(-0.00842696 0.0899846 0.000125828)
(-0.0184668 0.0926397 0.000175169)
(-0.0271367 0.0930151 0.000431861)
(-0.0268295 0.0478589 -0.000510158)
(-0.0153347 -0.00314506 0.000318376)
(-0.015475 -0.00933745 -0.00170048)
(-0.00841188 -0.00897421 -0.00162561)
(-0.00747448 -0.00608683 -0.00170388)
(-0.00393738 -0.00861301 -0.00174659)
(-0.00264379 -0.00730004 -0.00180847)
(0.000170934 -0.0099291 -0.00182268)
(0.000771443 -0.0100816 -0.00199081)
(0.00776529 -0.0119621 -0.00216813)
(0.00839279 -0.0165643 -0.00196306)
(0.025481 -0.0200985 -0.00225611)
(0.0241297 -0.026861 5.55273e-05)
(0.0122235 -0.0260356 -0.00018697)
(0.00910991 -0.0296041 -6.29868e-05)
(0.00636436 -0.0353439 -4.59682e-05)
(0.00419698 -0.0419259 -4.30549e-06)
(0.00283237 -0.0457237 -2.06487e-06)
(0.000955101 -0.0307164 -6.57267e-05)
(0.000276058 0.0516887 -4.28968e-05)
(-0.00248594 0.123406 -0.000143128)
(-0.000129543 0.149392 -0.000352679)
(-0.00246566 0.122169 0.000107279)
(-0.00456258 0.108829 -5.49488e-05)
(-0.00579369 0.100809 2.17904e-05)
(-0.0109144 0.0970389 0.000103669)
(-0.0181026 0.100797 0.000102163)
(-0.0242782 0.0929167 9.16158e-05)
(-0.00920756 0.0342638 -0.000582317)
(0.00345821 -0.000949773 6.09449e-06)
(0.000833449 0.0067685 0.000589176)
(-0.00261124 0.00569307 0.000555854)
(-0.00266253 0.00711761 0.000579371)
(-0.00194004 0.00555277 0.000529863)
(-0.00116686 0.00653296 0.000551822)
(0.000265163 0.00613371 0.000471016)
(0.00103197 0.0065609 0.000454159)
(0.003583 0.00721396 0.000331923)
(0.00478454 0.00319803 0.000329082)
(0.00624224 0.00155131 0.00030989)
(0.00543852 -0.0162773 0.000166982)
(0.00443284 -0.0207547 -4.78058e-05)
(0.00473874 -0.0268621 -5.62026e-06)
(0.00358778 -0.033415 -8.45511e-06)
(0.00225268 -0.0398186 1.77185e-05)
(0.0010256 -0.0419447 8.56954e-05)
(-0.00129207 -0.0273056 -6.70805e-05)
(-0.000690714 0.0564206 -0.000346128)
(-0.000996447 0.123481 -5.09213e-05)
(6.84768e-05 0.151718 -0.000431172)
(-0.00284903 0.124415 -0.000177139)
(-0.00549495 0.111522 -0.000100579)
(-0.00745891 0.105086 3.71451e-05)
(-0.0137679 0.104117 8.42894e-05)
(-0.0192877 0.106066 0.000177547)
(-0.0239964 0.088852 -0.000187055)
(-0.00633843 0.0186442 0.00144627)
(-0.00252528 -0.00578562 -0.000119383)
(-0.00362275 -0.0097415 -0.000131381)
(-0.00236135 -0.0101184 -8.71277e-05)
(-0.00222766 -0.0104642 -7.2719e-05)
(-0.00146295 -0.0108554 -7.54213e-05)
(-0.000938906 -0.0106888 -8.88208e-05)
(0.000401939 -0.01077 -0.00010344)
(0.00104457 -0.0110032 -7.99061e-05)
(0.00335387 -0.0114398 -0.000107686)
(0.00454721 -0.0131127 -8.10038e-05)
(0.00711602 -0.0148074 -0.000158487)
(0.00740903 -0.0181244 -4.54013e-05)
(0.00509297 -0.0201072 -6.17324e-05)
(0.00429798 -0.0247678 -2.13443e-05)
(0.00299357 -0.0313228 -2.8217e-05)
(0.00168943 -0.0377409 -9.63315e-06)
(0.000236974 -0.0357397 0.000215451)
(-0.00197398 -0.0243358 -1.98603e-05)
(-0.00075337 0.060161 -0.000484819)
(0.00101935 0.124696 1.50766e-05)
(0.000316621 0.154627 -0.000384468)
(-0.00269302 0.12873 -0.000203615)
(-0.00536204 0.115907 -9.48043e-05)
(-0.00746076 0.1106 5.26467e-05)
(-0.0136659 0.110222 0.000139769)
(-0.0180399 0.109189 0.000391313)
(-0.0212398 0.0810566 -4.35439e-05)
(-0.003539 0.013172 0.001456)
(-0.000269819 -0.00146183 -1.71092e-05)
(-0.000829486 7.95338e-05 2.1544e-05)
(-0.00130978 -0.000969998 3.77869e-05)
(-0.00150967 -0.00190336 5.13951e-05)
(-0.0012152 -0.00309037 6.3934e-05)
(-0.000688233 -0.00284075 5.5298e-05)
(0.000122469 -0.0027314 4.72043e-05)
(0.000605171 -0.00318297 5.27321e-05)
(0.0016218 -0.00385867 3.70951e-05)
(0.00216925 -0.00652989 5.30575e-05)
(0.00300512 -0.00895523 1.82721e-05)
(0.00311864 -0.0143006 1.78533e-05)
(0.00253729 -0.0181083 -2.00152e-05)
(0.00219968 -0.0235036 -1.40032e-05)
(0.00147652 -0.0299942 -1.35359e-05)
(0.000829674 -0.0359203 -5.30316e-06)
(-0.000325552 -0.0287271 0.000151202)
(-0.00196771 -0.0216565 -9.81965e-06)
(-0.000408189 0.0628908 -0.000446994)
(0.00189334 0.127355 2.26617e-05)
(0.000267648 0.156395 -0.000422588)
(-0.00284717 0.132012 -4.42848e-05)
(-0.00543984 0.11866 -2.61591e-05)
(-0.00850028 0.114871 8.19059e-05)
(-0.0136745 0.114646 0.000124274)
(-0.0173714 0.108647 0.000499666)
(-0.018117 0.0685905 -5.70064e-06)
(-0.00289629 0.00685091 0.00100647)
(-0.00141861 -0.00274929 -5.42323e-05)
(-0.00147801 -0.00335055 -7.7591e-05)
(-0.00100429 -0.00429581 -7.19103e-05)
(-0.00107264 -0.00560853 -7.55173e-05)
(-0.000834695 -0.00703823 -6.20345e-05)
(-0.000408267 -0.00696043 -6.92773e-05)
(0.000261936 -0.00676779 -7.35001e-05)
(0.000746109 -0.00714182 -5.96506e-05)
(0.00149468 -0.0077109 -6.36869e-05)
(0.00187268 -0.00935483 -3.84782e-05)
(0.00238068 -0.0110358 -6.04577e-05)
(0.00236458 -0.0143317 -2.1465e-05)
(0.00191816 -0.0175915 -8.16532e-06)
(0.00152868 -0.022328 -2.01218e-06)
(0.000902337 -0.0287147 -1.79197e-05)
(0.000623202 -0.0343969 -2.51294e-05)
(-0.000207729 -0.0258918 -0.000164687)
(-0.0012467 -0.0198616 -1.17892e-05)
(-7.20156e-05 0.0638648 -0.000294582)
(0.00190694 0.129767 -1.30503e-05)
(0.000310579 0.159342 -0.000379026)
(-0.00265623 0.136163 0.000142087)
(-0.00493319 0.123101 5.54425e-05)
(-0.00773127 0.119749 8.47716e-05)
(-0.0116678 0.117824 0.000186956)
(-0.016063 0.10624 0.0006471)
(-0.0156583 0.0538516 0.000321505)
(-0.00303551 0.0038445 0.000762378)
(-0.00114125 -0.00159035 -3.24869e-05)
(-0.000772191 -0.00082346 -7.24621e-05)
(-0.000617182 -0.0015769 -2.16061e-05)
(-0.000813475 -0.00286938 -1.08916e-05)
(-0.000624809 -0.00527412 1.35744e-05)
(-0.000243754 -0.00522052 1.5144e-05)
(7.39028e-05 -0.00505658 1.48472e-05)
(0.000309904 -0.00556723 1.5089e-05)
(0.000654031 -0.00641045 8.451e-06)
(0.000890007 -0.00821503 8.15221e-06)
(0.00106532 -0.0100568 2.64057e-06)
(0.00108213 -0.0132881 2.24233e-06)
(0.000848116 -0.0168768 -1.50253e-05)
(0.000732469 -0.0214762 -2.49122e-05)
(0.000434912 -0.0272963 -4.83609e-05)
(0.000421099 -0.0325357 -6.50573e-05)
(-7.52378e-05 -0.0235006 -8.3964e-05)
(-0.000711147 -0.018041 -4.23167e-05)
(0.000297451 0.0640498 -0.000152268)
(0.00131071 0.132878 -4.59362e-05)
(0.000314586 0.159992 -0.000347327)
(-0.00271106 0.137027 0.000164878)
(-0.00496982 0.124483 0.00010188)
(-0.00796151 0.121899 0.000128705)
(-0.0112755 0.119688 0.000245896)
(-0.0151649 0.102876 0.000517399)
(-0.0119687 0.0417574 -0.000318451)
(-0.00210972 0.00181319 0.000437978)
(-0.000944445 -0.00100355 -2.29239e-05)
(-0.000468586 -2.86762e-05 -3.26423e-05)
(-0.00017986 -0.00150732 -6.56113e-05)
(-0.000304461 -0.00263446 -5.476e-05)
(-0.00026031 -0.00589713 -2.86463e-05)
(-7.09851e-05 -0.00592505 -2.40617e-05)
(8.19083e-05 -0.00578854 -2.20159e-05)
(0.000219155 -0.00617335 -1.97253e-05)
(0.00036022 -0.00695224 -1.85832e-05)
(0.000402732 -0.00843198 -1.53315e-05)
(0.000469809 -0.0101892 -1.97652e-05)
(0.000499011 -0.0129522 -1.62355e-05)
(0.00048874 -0.0160764 -1.19529e-05)
(0.000475192 -0.020052 -1.31371e-05)
(0.000334356 -0.0248954 -3.24867e-05)
(0.000177048 -0.0295627 -3.3906e-05)
(8.53508e-05 -0.0224216 -0.000168447)
(-5.63586e-05 -0.0162852 8.10628e-06)
(0.000556284 0.0636243 -4.37026e-05)
(0.00106323 0.133989 -4.05948e-05)
(0.000108813 0.163838 -0.000464866)
(-0.00260072 0.140861 -5.75339e-05)
(-0.00435793 0.12894 4.91671e-06)
(-0.00684775 0.12561 0.00012175)
(-0.00888215 0.120117 0.000195016)
(-0.0115308 0.0960075 0.000404727)
(-0.00581558 0.0293316 -0.00113259)
(-0.00187257 -0.000827474 -2.39144e-05)
(-0.000875906 -0.00568656 -2.41292e-05)
(-0.000236712 -0.00217579 -9.12867e-06)
(4.08707e-05 -0.000339615 -3.70321e-05)
(-0.000155951 -0.00164936 -4.98213e-05)
(-0.0001139 -0.00524343 -7.18567e-05)
(-5.65707e-05 -0.00529688 -7.39677e-05)
(-1.14923e-05 -0.00519028 -7.27422e-05)
(2.0439e-05 -0.00554695 -7.80563e-05)
(4.43732e-05 -0.00628675 -8.59922e-05)
(5.7106e-05 -0.00759098 -0.000100837)
(6.20223e-05 -0.00911673 -0.000116986)
(5.72465e-05 -0.0115221 -0.000137906)
(8.29176e-05 -0.0142922 -0.000160411)
(0.000123932 -0.0176155 -0.00017432)
(0.000111637 -0.0209273 -0.000185992)
(4.30788e-05 -0.0247437 -0.000180215)
(0.000142199 -0.026651 -0.000173208)
(0.000384845 -0.0135312 -1.74913e-05)
(0.000564143 0.0623982 3.91548e-05)
(0.000426187 0.135986 -7.02826e-05)
(-0.0136517 0.0132123 -0.0043796)
(-0.0249826 0.0151296 -0.00638736)
(-0.0373494 0.0147995 -0.0051306)
(-0.0438734 0.014717 -0.00473191)
(-0.0546146 0.0155736 -0.00464116)
(-0.0605024 0.0146636 -0.00446363)
(-0.0692585 0.0146657 -0.00442119)
(-0.0751367 0.0143377 -0.00431231)
(-0.082488 0.0151125 -0.00420275)
(-0.0880044 0.0161842 -0.00413581)
(-0.0943461 0.0177504 -0.00411948)
(-0.0994697 0.0190481 -0.00417561)
(-0.104702 0.0198377 -0.0042273)
(-0.108254 0.0212541 -0.00443217)
(-0.110625 0.0228436 -0.00472074)
(-0.111168 0.0244861 -0.00520037)
(-0.108534 0.0258469 -0.00583817)
(-0.101324 0.0268604 -0.00656643)
(-0.0894896 0.0271072 -0.00722046)
(-0.0710325 0.0249729 -0.00787855)
(-0.0492544 0.0209323 -0.0085036)
(-0.0193549 0.018085 -0.00917851)
(0.00932412 0.0174623 -0.00880515)
(0.0373035 0.0176267 -0.00797473)
(0.0623616 0.018497 -0.00569753)
(0.0630426 0.0237646 -0.00372239)
(0.0478911 0.0267667 -0.00335882)
(0.0252185 0.0205935 -0.00304982)