/*--------------------------------*- C++ -*----------------------------------*\
| =========                 |                                                 |
| \\      /  F ield         | OpenFOAM: The Open Source CFD Toolbox           |
|  \\    /   O peration     | Version:  2.3.0                                 |
|   \\  /    A nd           | Web:      www.OpenFOAM.org                      |
|    \\/     M anipulation  |                                                 |
\*---------------------------------------------------------------------------*/
FoamFile
{
    version     2.0;
    format      ascii;
    class       volVectorField;
    location    "4.99954";
    object      U.air;
}
// * * * * * * * * * * * * * * * * * * * * * * * * * * * * * * * * * * * * * //

dimensions      [0 1 -1 0 0 0 0];

internalField   nonuniform List<vector> 
18816
(
(-0.0065949 0.0146207 -0.00286617)
(-0.0164867 0.0193196 -0.000285631)
(-0.0295367 0.0175377 -0.00207641)
(-0.0356648 0.017324 -0.00215739)
(-0.0455537 0.0177702 -0.00239508)
(-0.0509621 0.0172143 -0.00237416)
(-0.0589104 0.0176245 -0.00250934)
(-0.0643382 0.0179191 -0.00257398)
(-0.0710917 0.0190713 -0.0026684)
(-0.0762497 0.0203448 -0.00272798)
(-0.0821625 0.0220436 -0.00280496)
(-0.087043 0.0234731 -0.00284177)
(-0.0920331 0.0237132 -0.00282875)
(-0.0955352 0.0248069 -0.00294565)
(-0.0980369 0.0261429 -0.00306368)
(-0.0988489 0.0276747 -0.00328113)
(-0.0967813 0.0291331 -0.00353942)
(-0.0906328 0.0306027 -0.00382103)
(-0.0802371 0.0317319 -0.00399859)
(-0.0639524 0.0302683 -0.00420834)
(-0.0438552 0.0284573 -0.00409211)
(-0.0161916 0.0274548 -0.00388444)
(0.00948127 0.0265548 -0.00365869)
(0.0344295 0.025687 -0.00365152)
(0.0568602 0.0242868 -0.00302438)
(0.0560484 0.0268997 -0.00236794)
(0.0415506 0.0294996 -0.00244882)
(0.0172717 0.0228151 -0.00469407)
(-0.00915222 0.079657 -0.00295438)
(-0.0223724 0.0923399 -0.00387492)
(-0.0288846 0.0802072 -0.0037607)
(-0.0346201 0.0770022 -0.0035591)
(-0.0420832 0.072328 -0.00347984)
(-0.0475061 0.070742 -0.00339026)
(-0.054821 0.0695746 -0.0032538)
(-0.0603008 0.068416 -0.00306556)
(-0.0665167 0.0661372 -0.00285908)
(-0.0711057 0.0636346 -0.00260265)
(-0.0759424 0.0604189 -0.00209348)
(-0.0788277 0.0577304 -0.000576936)
(-0.0828375 0.0564106 -0.000565735)
(-0.0851568 0.0548354 -0.000476262)
(-0.0864607 0.0542693 -0.00039755)
(-0.0867435 0.0542842 -0.00032104)
(-0.0850749 0.0550052 -0.000229357)
(-0.0802972 0.0552047 -0.000155779)
(-0.0719663 0.054373 -9.94827e-05)
(-0.0578114 0.0546887 -9.10402e-05)
(-0.0403971 0.0539119 -0.000136224)
(-0.0186037 0.0520154 -0.000129896)
(0.00217504 0.0518202 -0.000131322)
(0.0235545 0.0472263 -3.374e-05)
(0.0393738 0.0466847 -4.40189e-07)
(0.0402121 0.0518392 0.000131325)
(0.0297882 0.0681776 8.95146e-06)
(0.0121827 0.104213 -0.00393904)
(-0.0023043 0.108859 -0.00165846)
(-0.00416826 0.101929 -0.0072667)
(-0.017056 0.0959135 -0.00572127)
(-0.0214626 0.093016 -0.00589121)
(-0.0280898 0.0898804 -0.00582398)
(-0.0332429 0.0877028 -0.00582119)
(-0.0390208 0.0845665 -0.00591823)
(-0.0422357 0.0807131 -0.00577267)
(-0.0455476 0.0771222 -0.00545928)
(-0.0487827 0.0727961 -0.0050111)
(-0.0570368 0.0646348 -0.00742582)
(-0.0681347 0.0521124 -0.00174403)
(-0.0717162 0.0498484 0.000341399)
(-0.0739079 0.0477801 0.000224466)
(-0.0765003 0.0463565 0.000307184)
(-0.0776285 0.0449351 0.000401049)
(-0.0775249 0.0426398 0.000500798)
(-0.0748779 0.0399723 0.000557281)
(-0.0689109 0.0368999 0.000554218)
(-0.056738 0.0332194 0.000471537)
(-0.0409879 0.0293482 0.000256098)
(-0.0217767 0.0254614 -9.72355e-05)
(-0.0027862 0.0248449 -0.000263074)
(0.0163708 0.0221024 -0.00033495)
(0.028238 0.0286774 -0.000100717)
(0.0323773 0.0444705 0.000378855)
(0.018987 0.0646469 0.00060532)
(0.00772391 0.117419 -0.00235509)
(0.000942377 0.132744 -0.000149265)
(0.00108284 0.140331 0.00612046)
(-0.0113202 0.103448 -0.00253245)
(-0.011257 0.100578 -0.000413625)
(-0.016381 0.0958942 -0.000528882)
(-0.0197791 0.0930801 -0.000467988)
(-0.0236965 0.0893627 -0.000593255)
(-0.025948 0.0859817 -0.000698872)
(-0.0275083 0.0813032 -0.000613611)
(-0.0284854 0.0770589 -0.00040767)
(-0.0333793 0.0696323 -0.000531559)
(-0.0467243 0.0580404 -0.00523569)
(-0.0586979 0.0484437 -0.000328395)
(-0.0628256 0.0458851 0.000561731)
(-0.0655693 0.043173 0.000751228)
(-0.0668985 0.0393141 0.00116645)
(-0.06761 0.0356903 0.00159753)
(-0.0662009 0.0306967 0.00187312)
(-0.0617603 0.0237248 0.00176088)
(-0.0512589 0.0168947 0.0015517)
(-0.0375998 0.014098 0.00122452)
(-0.0213809 0.0120145 0.000658345)
(-0.00488931 0.0120581 0.000194428)
(0.0117247 0.0140841 0.000105927)
(0.0202222 0.0252407 0.000326148)
(0.023529 0.0455472 0.00059245)
(0.0113027 0.0698197 0.000660808)
(0.00445796 0.125973 -0.00112466)
(0.00324041 0.139963 9.78442e-05)
(-0.00285373 0.136677 0.00483823)
(-0.00534766 0.116715 0.00710152)
(-0.00760855 0.105107 -0.00124548)
(-0.0119927 0.0995558 -0.00102702)
(-0.014496 0.0952963 -0.000882509)
(-0.0181768 0.090017 -0.000843971)
(-0.0190913 0.0845387 -2.66219e-05)
(-0.0198438 0.0798323 -6.75128e-05)
(-0.0202514 0.0748527 1.3017e-05)
(-0.0223479 0.0666578 0.000206912)
(-0.0337572 0.0542739 -0.00222569)
(-0.0479934 0.0453156 -0.000186556)
(-0.0492734 0.0393812 0.000420461)
(-0.0464421 0.031322 0.000744794)
(-0.0424634 0.021016 0.00110052)
(-0.041115 0.0113588 0.0011321)
(-0.0426538 0.0013208 0.0010301)
(-0.0462441 -0.00676825 0.00103187)
(-0.0441215 -0.0148851 0.000731664)
(-0.0362077 -0.0169121 0.000611003)
(-0.0251475 -0.0163411 0.000510381)
(-0.0116692 -0.0110857 0.000328378)
(0.00157196 -0.00511401 3.87747e-05)
(0.0102216 0.0145837 0.000144534)
(0.0143015 0.0406001 0.000281158)
(0.00720405 0.0679568 0.000365371)
(0.00369542 0.126285 -0.000698153)
(0.00249946 0.141205 7.16612e-05)
(-0.00439792 0.134262 0.0020684)
(-0.0104213 0.121605 0.00430892)
(-0.00522224 0.111975 0.00697893)
(-0.00876461 0.104022 0.00608474)
(-0.010287 0.0984323 0.0056287)
(-0.0129746 0.0919011 0.0045988)
(-0.0134246 0.0849376 -0.000577087)
(-0.014479 0.0806481 -0.000437308)
(-0.0141934 0.0754497 -0.000261868)
(-0.0147964 0.0652712 0.000395027)
(-0.0203346 0.0519139 -0.00122762)
(-0.0301454 0.0406836 -1.94531e-05)
(-0.0253287 0.0291523 0.00024606)
(-0.0164236 0.0149445 0.000366671)
(-0.0106133 0.00396423 0.000370414)
(-0.0113163 -0.000584331 0.000657834)
(-0.0196995 -0.00527912 0.000913363)
(-0.0331302 -0.0151629 0.00102781)
(-0.0375389 -0.0259144 0.000687615)
(-0.0347141 -0.0312818 0.000416428)
(-0.028039 -0.0324466 0.000262866)
(-0.0179748 -0.0276269 0.000232201)
(-0.0069654 -0.0135602 8.58515e-05)
(0.000701583 0.00747354 0.000217453)
(0.00747641 0.0396027 0.000139867)
(0.00328887 0.0683025 0.000278666)
(0.00293902 0.125361 -0.000297522)
(0.00169612 0.140729 -0.000221813)
(-0.00484186 0.13078 0.000770719)
(-0.0107005 0.11732 0.00172586)
(-0.0114025 0.113816 0.00399271)
(-0.0165503 0.103716 0.00358724)
(-0.0177593 0.0945207 0.00334936)
(-0.0192453 0.0860816 0.00316882)
(-0.010582 0.0847658 0.00483866)
(-0.0102012 0.0804276 0.0040995)
(-0.0105137 0.0737489 0.0034207)
(-0.0104112 0.0618644 -3.25934e-05)
(-0.0114566 0.0453683 -0.000374917)
(-0.0140296 0.0321278 -0.00016903)
(-0.00772993 0.0171009 -7.92733e-05)
(-0.00230699 0.00361865 -6.00628e-06)
(0.00154682 -0.000784112 -3.57963e-05)
(0.000964116 -0.000657744 6.44442e-05)
(-0.00109914 -0.00202796 0.000360367)
(-0.0139172 -0.0136943 0.000825614)
(-0.0256496 -0.0322317 0.000516016)
(-0.0276071 -0.0396512 0.000501403)
(-0.0263187 -0.0416739 0.000235259)
(-0.0209114 -0.0405253 0.000233005)
(-0.0132784 -0.0277911 0.000228405)
(-0.00635379 -0.00348996 9.82487e-05)
(0.00281033 0.0341851 -6.66333e-05)
(0.0013093 0.0654774 0.000115624)
(0.00250299 0.123379 -0.000172067)
(0.00091746 0.139759 -0.000375194)
(-0.00412427 0.129348 0.000442697)
(-0.00884823 0.114559 0.000705985)
(-0.0109599 0.107373 0.00157278)
(-0.014037 0.096536 0.00139726)
(-0.0141525 0.0859376 0.00124071)
(-0.0149281 0.0784315 0.00121682)
(-0.0133413 0.0793193 0.00272609)
(-0.0133033 0.0767826 0.00251626)
(-0.0127656 0.0719678 0.00231058)
(-0.00696297 0.0593683 0.000532649)
(-0.00447463 0.0424431 6.21799e-05)
(-0.00325403 0.0269127 2.72707e-05)
(-0.000429222 0.0131028 0.000157247)
(0.000758275 0.00252196 4.78056e-05)
(0.00243172 -0.000440602 -8.62593e-06)
(0.000530831 -3.11353e-05 3.90368e-05)
(0.00354934 -0.00575699 9.59562e-05)
(0.000242671 -0.00950478 0.000585156)
(-0.0140707 -0.0298963 0.000411844)
(-0.0201621 -0.0444582 0.000406345)
(-0.0220965 -0.04641 0.000221591)
(-0.0199541 -0.0465557 0.00020546)
(-0.0153741 -0.0375692 0.000203761)
(-0.0106099 -0.0108235 0.00012077)
(-0.000768313 0.0304644 -0.000187714)
(-0.000381886 0.0639855 1.62008e-05)
(0.00193398 0.123055 3.17934e-05)
(0.000229895 0.138837 -0.000394267)
(-0.00326916 0.128333 0.00024538)
(-0.00656289 0.113399 0.000305472)
(-0.00774663 0.103659 0.000482636)
(-0.00912229 0.0922424 0.000371537)
(-0.00812737 0.0816992 0.000286876)
(-0.00816451 0.0738939 0.0003203)
(-0.00742722 0.0712855 0.000899835)
(-0.00820537 0.0701775 0.000852734)
(-0.00778658 0.0637872 0.00110797)
(-0.00293023 0.0545995 0.000782831)
(-0.0020547 0.0360242 0.000257798)
(0.00079097 0.0222096 0.000361582)
(0.00207723 0.00836506 0.000259426)
(0.00103565 -0.000311597 3.60512e-05)
(0.0030891 0.000764133 -0.000111251)
(-0.00464114 -0.00223602 9.36453e-05)
(0.00273753 -0.00156533 -0.000989757)
(0.00673144 -0.00780642 7.30947e-06)
(-0.0026858 -0.0199513 -7.64647e-06)
(-0.0125643 -0.0436198 0.000277273)
(-0.0178527 -0.0481756 0.000216663)
(-0.0181178 -0.0492961 0.00010456)
(-0.0158499 -0.0447059 0.000192098)
(-0.0130027 -0.0210378 0.000164409)
(-0.00245376 0.0245223 -0.000343634)
(-7.51305e-05 0.061384 -1.71298e-05)
(0.00151275 0.123248 -3.12708e-05)
(-0.000116657 0.138791 -0.00033661)
(-0.00251682 0.127691 0.000159502)
(-0.00464609 0.113149 0.000159207)
(-0.00501769 0.10234 0.000154036)
(-0.00571138 0.0907746 9.35284e-05)
(-0.00441109 0.0798615 3.61227e-05)
(-0.00459818 0.072346 4.80251e-05)
(-0.00365169 0.0685909 0.000192453)
(-0.00910654 0.0695579 0.000528597)
(-0.00943753 0.0531919 0.000484652)
(-0.00136651 0.046944 0.000622905)
(-0.00140654 0.0290404 4.3699e-05)
(0.00322324 0.00601306 0.000533678)
(0.00512574 0.0044975 6.91197e-05)
(0.00578971 -0.00181339 3.72189e-06)
(0.00351415 0.00417865 -0.000153716)
(0.0114807 0.001737 -0.000432929)
(0.00538968 0.000556186 0.000749742)
(0.000464452 0.00191498 -0.000717322)
(0.00274651 -0.00978963 2.11645e-05)
(-0.00915471 -0.0407683 0.000306541)
(-0.0143948 -0.048213 0.00060514)
(-0.0161475 -0.0500896 7.12001e-05)
(-0.0148331 -0.0481739 0.000146207)
(-0.0134625 -0.0287519 0.000258434)
(-0.00376406 0.0202353 -0.000366753)
(-0.00159548 0.0593734 -7.10075e-05)
(0.0010897 0.123379 7.27198e-05)
(-0.000412734 0.138937 -0.000259244)
(-0.00197259 0.126797 0.000118055)
(-0.0032915 0.112624 0.000107213)
(-0.00299597 0.101706 3.80937e-05)
(-0.00337898 0.0898061 1.80313e-05)
(-0.00155772 0.0791092 -1.78138e-05)
(-0.00299279 0.072548 8.02218e-05)
(-0.00161357 0.0703288 0.000188989)
(-0.0153392 0.0689004 0.00105827)
(-0.0152645 0.0455443 -0.000709059)
(0.00136129 0.0424038 0.00183518)
(-0.00238987 0.0282934 0.00071043)
(0.00470761 -0.00263068 0.000144667)
(0.00858549 0.00143335 0.000144187)
(0.00627106 -0.00150129 -2.53783e-05)
(0.00636188 0.000613178 8.16639e-05)
(0.0073769 0.00162111 -9.53881e-05)
(0.00622185 -0.00338497 0.000153559)
(0.00607776 0.00586239 -5.69974e-05)
(0.00403852 -0.00397983 0.000255075)
(-0.00539813 -0.0401548 0.000477504)
(-0.0112482 -0.0482532 0.00104819)
(-0.0138587 -0.0503038 6.40299e-05)
(-0.0140257 -0.050179 9.23535e-05)
(-0.013947 -0.0363243 0.000449573)
(-0.00446081 0.0180875 -9.73685e-05)
(-0.00291714 0.0578819 -0.00013401)
(0.000746675 0.124043 0.00011501)
(-0.000514095 0.139456 -0.000207333)
(-0.00159888 0.126005 5.79593e-05)
(-0.00239927 0.112043 7.77866e-05)
(-0.00173145 0.101308 -4.68263e-07)
(-0.00180823 0.0891268 -2.35563e-05)
(-2.81752e-05 0.0788112 -2.52791e-05)
(-0.00146308 0.072526 4.39108e-05)
(-0.000985294 0.0732968 0.00028117)
(-0.0139357 0.0690304 0.000711935)
(-0.0134722 0.0442292 9.20267e-05)
(-0.00528766 0.0406458 0.00105139)
(-0.00366841 0.0294791 0.000431866)
(0.000892834 -0.00965562 0.000120821)
(0.00432112 0.002967 1.67099e-06)
(0.0050677 -0.00143484 -3.54814e-05)
(0.00662706 0.00339699 -0.0001107)
(0.00880556 0.00422966 -8.39992e-05)
(0.00837277 -0.00140001 -4.65467e-05)
(0.0101686 0.00578569 -7.49599e-05)
(0.0100319 -0.00169433 0.000826957)
(-0.00147494 -0.0399009 0.000627451)
(-0.00745493 -0.0474707 0.000510058)
(-0.0111824 -0.0497596 2.96035e-05)
(-0.0117804 -0.0499789 6.43489e-05)
(-0.0133055 -0.041803 0.00047259)
(-0.00474078 0.00630541 0.000490555)
(-0.00138981 0.0575605 2.61609e-05)
(-0.000150944 0.125845 4.47734e-05)
(-0.000551235 0.139901 -0.000168247)
(-0.00132255 0.125465 -7.79727e-06)
(-0.00182046 0.111331 4.02586e-05)
(-0.000902391 0.100788 -1.02991e-05)
(-0.000865493 0.088603 -3.09735e-05)
(0.000817684 0.0787191 -1.69758e-05)
(-0.000752202 0.0732852 6.64825e-05)
(-0.00118718 0.0759237 0.000322366)
(-0.014306 0.0695151 0.000827929)
(-0.0166571 0.0376802 0.000185378)
(-0.00695238 0.0313873 0.000119128)
(-0.00166142 0.0228081 8.96161e-05)
(0.000399118 -0.0132363 4.58393e-05)
(0.0012205 -0.00366688 7.81948e-05)
(0.0037929 -0.00422682 0.000105812)
(0.00762432 -0.001582 0.000135727)
(0.00923359 0.000186266 5.59332e-05)
(0.0101989 -0.00238831 7.93013e-05)
(0.0140164 0.000546558 0.000242327)
(0.0134027 -0.00926027 0.00138046)
(0.0011933 -0.0427907 0.000724521)
(-0.00433129 -0.0478227 5.53852e-05)
(-0.00782813 -0.050251 8.69225e-05)
(-0.00854579 -0.0493996 3.1791e-05)
(-0.00995949 -0.0458138 0.000135219)
(-0.00368618 -0.0139708 0.000158059)
(0.00248572 0.0554708 8.9415e-05)
(-0.000971899 0.128421 -0.000231734)
(-0.000573479 0.140743 -0.000149225)
(-0.00115741 0.125285 1.40395e-06)
(-0.00148295 0.110943 -8.79037e-06)
(-0.000440904 0.100362 -2.05468e-05)
(-0.000292985 0.0881686 -3.67939e-05)
(0.00122919 0.0786504 -1.66946e-05)
(-0.000183276 0.0740338 7.6491e-05)
(-0.00127244 0.078921 0.00042702)
(-0.0161562 0.0705962 0.000982345)
(-0.0163722 0.0326926 -6.88519e-06)
(-0.00590171 0.0252776 -0.000307836)
(0.00158457 0.0223667 -9.23545e-06)
(-0.000400261 -0.0126166 -2.68918e-05)
(-0.000716566 -0.00122092 7.37139e-05)
(0.00300334 -0.0088475 0.000140724)
(0.00594776 -0.00223894 0.000200143)
(0.00990921 0.00176154 0.000261804)
(0.0119937 -0.00506377 0.000247578)
(0.017257 -0.00232508 0.000342717)
(0.0145128 -0.0197952 0.00143849)
(0.0016465 -0.04519 0.000559885)
(-0.00110534 -0.0482098 0.000192605)
(-0.00455941 -0.0498453 6.40695e-05)
(-0.00472317 -0.0489012 -2.1343e-05)
(-0.00595062 -0.0462091 5.11664e-05)
(-0.00164252 -0.0215384 -5.98638e-05)
(0.00440839 0.05302 8.72881e-05)
(-0.00110034 0.130883 -0.000353968)
(-0.000564655 0.141405 -0.000127431)
(-0.00102567 0.124736 6.49029e-05)
(-0.00128601 0.110814 -3.86854e-05)
(-0.000206448 0.099801 -3.02347e-05)
(-6.62294e-05 0.0876821 -2.8116e-05)
(0.00119644 0.0785467 -1.9822e-06)
(-0.000315893 0.0749037 0.000133934)
(-0.00342816 0.08143 0.000581769)
(-0.0189632 0.0688026 0.00122828)
(-0.0195735 0.0259349 0.000279718)
(-0.0058972 0.0176263 -0.000133472)
(0.00280256 0.0188685 1.97756e-05)
(0.000588175 -0.0104775 -0.000102327)
(0.00177128 -0.00857691 8.68125e-05)
(0.00536945 -0.0135831 0.000101275)
(0.00667911 -0.0105835 7.412e-05)
(0.00959697 -0.00802858 0.000117477)
(0.0117026 -0.01132 0.000115757)
(0.0155215 -0.0101649 0.000119434)
(0.0111751 -0.0281687 0.000895796)
(0.00263795 -0.0457614 0.000291044)
(0.00159929 -0.0483736 0.000127038)
(-0.00124728 -0.0491153 3.08429e-05)
(-0.00127439 -0.0494237 -7.91151e-06)
(-0.0019779 -0.0471223 -1.72702e-06)
(0.000817423 -0.024952 1.72739e-05)
(0.00499896 0.0512296 0.000138732)
(-0.000836711 0.132859 -0.000387653)
(-0.000562298 0.142444 -0.000133007)
(-0.00103132 0.124116 5.24811e-05)
(-0.0012867 0.111042 -5.82131e-05)
(-0.000246311 0.0995498 -4.05956e-05)
(-0.000166858 0.0873974 -2.93678e-05)
(0.00097467 0.0785695 1.74438e-05)
(-0.00100005 0.0765702 0.000176781)
(-0.00553511 0.0837663 0.000722447)
(-0.0219503 0.0640293 0.00155955)
(-0.0181072 0.0149125 0.000677857)
(-0.00397969 0.00579304 0.000148722)
(0.00498686 0.0144597 0.000169861)
(0.00503749 -0.010511 -2.92479e-05)
(0.00555088 -0.0129204 0.000287212)
(0.00695458 -0.0165322 4.27429e-05)
(0.00785103 -0.0135028 0.000257539)
(0.00841116 -0.012002 0.000363405)
(0.0111583 -0.014883 1.93509e-05)
(0.0117846 -0.0120552 0.000373276)
(0.00891736 -0.030236 0.000483235)
(0.00384468 -0.0447402 2.51042e-05)
(0.00426947 -0.0466297 4.6242e-05)
(0.00166272 -0.0474883 -2.8272e-05)
(0.00186138 -0.0490911 1.91662e-05)
(0.00137038 -0.0468353 1.35587e-05)
(0.00333165 -0.0277118 4.52121e-05)
(0.00542025 0.0498135 0.00024417)
(-0.000561648 0.134793 -0.000407824)
(-0.000460006 0.143433 -0.000141945)
(-0.00108989 0.124165 -5.37691e-05)
(-0.00154051 0.111123 -4.44424e-05)
(-0.000569707 0.0992479 -4.22356e-05)
(-0.000593695 0.0870225 -2.1908e-05)
(0.000324251 0.078593 5.99783e-05)
(-0.00324042 0.0783626 0.000349189)
(-0.0105816 0.0841952 0.00104723)
(-0.0299962 0.0533229 0.00184511)
(-0.012547 0.00183393 0.000625482)
(-0.0066313 -0.00537715 0.000310315)
(0.00359793 0.0115646 -0.000124023)
(0.00712521 -0.01063 0.000165208)
(0.00809373 -0.0135888 -0.000306063)
(0.00692685 -0.0180855 0.000315543)
(0.00537598 -0.0149724 -0.000359665)
(0.0108163 -0.015284 -0.000239759)
(0.0118507 -0.0185579 0.000332908)
(0.0106504 -0.0147665 -0.000132262)
(0.0113128 -0.0300653 0.000264283)
(0.00543791 -0.0421754 -0.000134689)
(0.00640561 -0.0439746 -2.50296e-06)
(0.00391129 -0.0455666 -6.68595e-05)
(0.00413792 -0.0483438 1.72994e-05)
(0.00394426 -0.047058 2.63807e-05)
(0.00566584 -0.0296544 4.75183e-05)
(0.0058343 0.0478296 0.000413855)
(-0.000698541 0.135548 -0.000373799)
(-0.000466489 0.144723 -0.000160101)
(-0.00125712 0.125308 -0.000114328)
(-0.00190078 0.111251 -2.87792e-05)
(-0.0010871 0.0994661 -5.12759e-05)
(-0.00145474 0.0871167 2.45257e-06)
(-0.00123515 0.079618 0.000145293)
(-0.00775424 0.0813256 0.000490199)
(-0.0179061 0.083261 0.00126234)
(-0.0229055 0.0279834 0.00124088)
(-0.00702859 -0.0101515 0.000630996)
(-0.00714004 -0.0124381 7.43478e-05)
(0.000152749 -0.00355991 0.000219195)
(0.00455892 -0.014264 8.83624e-05)
(0.00498844 -0.0135621 -2.75566e-06)
(0.00555319 -0.0174157 -6.27323e-06)
(0.0074197 -0.0166372 7.8944e-05)
(0.00788556 -0.0178371 2.47711e-07)
(0.0111492 -0.0198809 -1.63929e-05)
(0.0134802 -0.0180539 0.000337174)
(0.0114515 -0.0276376 8.874e-05)
(0.00587049 -0.0384876 -0.000265238)
(0.00778781 -0.0404356 -3.13763e-05)
(0.00526786 -0.0430193 -8.9766e-05)
(0.00554824 -0.0471559 2.23751e-05)
(0.00522607 -0.047049 6.40821e-05)
(0.00676308 -0.0308571 5.96955e-05)
(0.00568759 0.0460315 0.000500448)
(-0.00117667 0.134972 -0.000329784)
(-0.000373084 0.14618 -0.000197036)
(-0.00156944 0.127006 -6.8437e-05)
(-0.00256035 0.111217 -2.27367e-06)
(-0.00201121 0.0997693 2.31745e-08)
(-0.00313026 0.0870239 5.90812e-05)
(-0.00485409 0.0815897 0.000234363)
(-0.0133039 0.0848342 0.000375592)
(-0.022779 0.0748891 0.000428815)
(-0.00813652 0.00131317 0.00064026)
(-0.00290672 -0.0153595 0.00050946)
(-0.00462812 -0.0166385 -2.03451e-05)
(-0.00055911 -0.0115055 0.000250094)
(0.00221662 -0.0175843 1.97334e-05)
(0.00153463 -0.0156452 0.000377355)
(0.0038686 -0.0225642 -0.000331174)
(0.00755438 -0.0201016 0.000268119)
(0.00554884 -0.0211622 0.000377158)
(0.0111947 -0.0273428 -0.000408827)
(0.0186305 -0.0253047 0.000587825)
(0.0160641 -0.0281899 0.000853641)
(0.00575652 -0.0352867 -0.000161773)
(0.00829355 -0.0381098 4.97204e-05)
(0.00569133 -0.0410735 -5.93255e-05)
(0.0057072 -0.0461604 2.30309e-05)
(0.00551183 -0.0471704 6.91798e-05)
(0.00614266 -0.0319226 5.63677e-05)
(0.00461826 0.0459733 0.000450049)
(-0.00238401 0.132164 -0.000273061)
(-0.000387138 0.147805 -0.000214783)
(-0.00189316 0.12795 6.76095e-05)
(-0.00319437 0.111709 -5.75957e-06)
(-0.0034745 0.10053 -5.02676e-06)
(-0.0052161 0.0890649 -1.7755e-05)
(-0.0102937 0.0867008 0.000200289)
(-0.0225299 0.0898553 0.000472935)
(-0.0285076 0.0669065 5.54221e-05)
(-0.00998195 -0.00493512 0.000460992)
(-0.00616839 -0.0146142 -0.000672637)
(-0.00456509 -0.0161315 -0.000451068)
(-0.00152675 -0.0127321 -0.000652109)
(-0.000320966 -0.0175052 -0.000385345)
(0.000368839 -0.016559 -0.000686238)
(0.00177392 -0.0214097 -0.000380493)
(0.00201578 -0.0206715 -0.000746691)
(0.0079009 -0.0237729 -0.000679907)
(0.0108055 -0.0294262 -0.000458473)
(0.0240296 -0.0328346 -0.0005923)
(0.0219955 -0.0356845 0.00153825)
(0.00845101 -0.0335331 -1.13414e-05)
(0.00889187 -0.0356234 7.79141e-05)
(0.00627547 -0.0388988 -2.56774e-05)
(0.0051646 -0.0444191 2.40625e-05)
(0.00436924 -0.0460695 2.87088e-05)
(0.00375048 -0.031145 -1.14077e-05)
(0.00229719 0.0488214 0.000236377)
(-0.00333849 0.128095 -0.00020934)
(-0.000424975 0.149994 -0.000350545)
(-0.0024785 0.128234 0.000190131)
(-0.00439645 0.11295 -1.85802e-05)
(-0.00548494 0.102663 -2.36608e-05)
(-0.00846464 0.094455 0.000110885)
(-0.0184915 0.09671 0.000153195)
(-0.027234 0.0957646 0.000412538)
(-0.0269388 0.0498286 -0.000442786)
(-0.0154673 -0.00068593 0.000392648)
(-0.0155909 -0.00681697 -0.00164385)
(-0.00845193 -0.00645981 -0.0015462)
(-0.00750714 -0.00353861 -0.00163217)
(-0.00394026 -0.00610482 -0.00165834)
(-0.00265463 -0.00645165 -0.00180333)
(0.000167983 -0.00975308 -0.00182112)
(0.000767952 -0.00992279 -0.00198956)
(0.00776318 -0.0117943 -0.00216724)
(0.00839048 -0.0164472 -0.00196195)
(0.0254809 -0.0200296 -0.00225564)
(0.0241287 -0.0268234 5.56655e-05)
(0.0122159 -0.0260159 -0.000186945)
(0.00909834 -0.0295972 -6.28944e-05)
(0.00634787 -0.0353416 -4.59129e-05)
(0.00418695 -0.0419167 4.85869e-07)
(0.00285755 -0.0434995 -4.80947e-06)
(0.000990851 -0.0286036 -6.44726e-05)
(0.000257498 0.0532274 -4.88866e-05)
(-0.0024972 0.125931 -0.00014422)
(-0.000111227 0.152799 -0.000339823)
(-0.00248463 0.129611 9.35828e-05)
(-0.00459325 0.115818 -6.22406e-05)
(-0.00579263 0.106496 1.13588e-05)
(-0.0109182 0.101559 8.7618e-05)
(-0.0180773 0.104789 8.46721e-05)
(-0.0242703 0.0950655 6.11313e-05)
(-0.0092211 0.0363224 -0.000549555)
(0.00351739 0.00138207 5.53108e-06)
(0.000860854 0.00920196 0.000579304)
(-0.00261751 0.00813651 0.000542464)
(-0.00267003 0.00959233 0.000566571)
(-0.0019469 0.00802349 0.000514176)
(-0.00117086 0.0083462 0.000543889)
(0.000263093 0.00639474 0.000469017)
(0.00103079 0.0068045 0.000452342)
(0.00358306 0.00747889 0.000330437)
(0.00478477 0.0033602 0.000328558)
(0.00623959 0.00163926 0.000309845)
(0.00543342 -0.0162453 0.000166996)
(0.0044257 -0.0207433 -4.77235e-05)
(0.00472905 -0.0268568 -5.54023e-06)
(0.00357481 -0.0334091 -8.3919e-06)
(0.00224333 -0.0398058 1.90176e-05)
(0.00103931 -0.0397104 4.21698e-05)
(-0.00129072 -0.0251923 -6.73889e-05)
(-0.000687093 0.0579069 -0.000346401)
(-0.00097564 0.126026 -5.28347e-05)
(9.27916e-05 0.155147 -0.000414854)
(-0.00285742 0.132249 -0.000180737)
(-0.00550795 0.118694 -0.000106908)
(-0.00742889 0.110759 2.34838e-05)
(-0.0137364 0.108673 6.909e-05)
(-0.019274 0.109859 0.000161127)
(-0.0240198 0.0906368 -0.000200732)
(-0.00637358 0.0207587 0.00138379)
(-0.00254854 -0.0035431 -0.000118996)
(-0.0036462 -0.0075196 -0.000127483)
(-0.00237134 -0.00788334 -8.53608e-05)
(-0.00223742 -0.00822329 -7.02179e-05)
(-0.00146828 -0.00861088 -7.33823e-05)
(-0.000944593 -0.00843814 -8.21942e-05)
(0.000400507 -0.0106427 -0.000103345)
(0.00104293 -0.0108854 -7.98964e-05)
(0.00335212 -0.0113201 -0.000107667)
(0.00454495 -0.0130429 -8.09832e-05)
(0.007113 -0.0147712 -0.00015845)
(0.00740479 -0.0181111 -4.53395e-05)
(0.00508736 -0.0201017 -6.16844e-05)
(0.00429125 -0.0247629 -2.12979e-05)
(0.0029854 -0.0313156 -2.81769e-05)
(0.00168439 -0.0377275 -9.48518e-06)
(0.000238645 -0.033485 0.000139796)
(-0.00199443 -0.0221838 -2.19884e-05)
(-0.000733469 0.061673 -0.000480067)
(0.00105935 0.127285 1.3537e-05)
(0.000346261 0.158073 -0.000367574)
(-0.00268276 0.137938 -0.000197589)
(-0.00535043 0.123349 -9.88278e-05)
(-0.00739827 0.116313 3.89706e-05)
(-0.0136029 0.114789 0.000123109)
(-0.0180079 0.112668 0.000372163)
(-0.0212583 0.0827271 -4.62052e-05)
(-0.00355577 0.0153412 0.00140219)
(-0.000263957 0.000801975 -1.69899e-05)
(-0.000826622 0.00237274 2.05171e-05)
(-0.00131324 0.00134554 3.64055e-05)
(-0.00151557 0.000429421 4.97867e-05)
(-0.00122065 -0.000752395 6.24527e-05)
(-0.000691397 -0.000499487 5.82932e-05)
(0.000120644 -0.00271261 4.73417e-05)
(0.000603616 -0.00316815 5.2761e-05)
(0.00161991 -0.00384911 3.71236e-05)
(0.00216707 -0.00652419 5.30782e-05)
(0.00300237 -0.00895154 1.83077e-05)
(0.00311528 -0.0142977 1.78761e-05)
(0.00253349 -0.0181048 -2.00079e-05)
(0.0021956 -0.0234987 -1.39859e-05)
(0.00147243 -0.0299867 -1.34859e-05)
(0.000827754 -0.0359101 -5.24922e-06)
(-0.000334659 -0.0264707 6.02879e-05)
(-0.00199238 -0.0194539 -1.20148e-05)
(-0.000385229 0.0644406 -0.000439469)
(0.00192947 0.129992 2.1781e-05)
(0.000296014 0.159848 -0.000405286)
(-0.00282386 0.142285 -4.49599e-05)
(-0.0053997 0.126224 -3.32669e-05)
(-0.00841811 0.12065 6.7538e-05)
(-0.0136057 0.119191 0.000110507)
(-0.0173546 0.111759 0.000480117)
(-0.0181601 0.0703151 -5.83733e-06)
(-0.00290642 0.00903201 0.000964691)
(-0.00142791 -0.000517854 -5.3075e-05)
(-0.00148473 -0.0011075 -7.594e-05)
(-0.00100814 -0.00202825 -7.13129e-05)
(-0.00107694 -0.00332606 -7.51422e-05)
(-0.000838379 -0.00474501 -6.15e-05)
(-0.000410967 -0.0046628 -6.62867e-05)
(0.000260692 -0.00676549 -7.34029e-05)
(0.000744781 -0.00714144 -5.9631e-05)
(0.00149319 -0.00771031 -6.36732e-05)
(0.00187095 -0.00935376 -3.84581e-05)
(0.00237866 -0.0110341 -6.04348e-05)
(0.00236235 -0.0143292 -2.14464e-05)
(0.0019156 -0.0175879 -8.14749e-06)
(0.00152619 -0.0223235 -1.99833e-06)
(0.000900057 -0.028709 -1.78407e-05)
(0.000623316 -0.0343913 -2.49051e-05)
(-0.00023126 -0.0240943 -0.000336863)
(-0.00126528 -0.0176087 -1.40681e-05)
(-5.629e-05 0.0654359 -0.000287983)
(0.00192699 0.132439 -1.37157e-05)
(0.000340457 0.162798 -0.000360667)
(-0.00262144 0.146255 0.00013113)
(-0.0048752 0.130464 4.37298e-05)
(-0.00763998 0.125614 7.16919e-05)
(-0.0115811 0.122324 0.00017279)
(-0.0160247 0.108964 0.000627766)
(-0.0157017 0.055686 0.000312348)
(-0.00305266 0.00603627 0.000729644)
(-0.00114922 0.000637075 -3.18825e-05)
(-0.000774596 0.00142641 -7.11244e-05)
(-0.000619754 0.00070147 -2.12447e-05)
(-0.000817538 -0.000574655 -1.11248e-05)
(-0.000628804 -0.00296137 1.38083e-05)
(-0.000245457 -0.00319385 1.9152e-05)
(7.29388e-05 -0.0050558 1.488e-05)
(0.000308978 -0.00556705 1.51037e-05)
(0.000652923 -0.00640985 8.46626e-06)
(0.000888788 -0.008214 8.16148e-06)
(0.00106399 -0.0100551 2.64059e-06)
(0.00108068 -0.0132855 2.25057e-06)
(0.0008466 -0.0168733 -1.50152e-05)
(0.000731214 -0.021472 -2.48855e-05)
(0.000433616 -0.0272929 -4.82384e-05)
(0.000422303 -0.0325368 -6.47913e-05)
(-8.12124e-05 -0.0228792 -0.000112365)
(-0.000718126 -0.0157633 -4.32522e-05)
(0.00030427 0.0656368 -0.0001475)
(0.00131765 0.135577 -4.50603e-05)
(0.000338493 0.163437 -0.000329767)
(-0.00267902 0.146334 0.000146082)
(-0.0049004 0.131456 8.44853e-05)
(-0.00787136 0.127813 0.000115276)
(-0.0112075 0.124081 0.000231764)
(-0.015146 0.105252 0.000507155)
(-0.0120119 0.0436864 -0.000294235)
(-0.00211828 0.00399181 0.000412153)
(-0.000951273 0.0012013 -1.85366e-05)
(-0.000470535 0.00219261 -3.34448e-05)
(-0.000181074 0.000752284 -6.56471e-05)
(-0.000306184 -0.000364289 -5.53019e-05)
(-0.000261742 -0.00358119 -2.84601e-05)
(-7.18648e-05 -0.00476003 -2.24211e-05)
(8.14031e-05 -0.0057887 -2.20028e-05)
(0.000218579 -0.00617335 -1.97166e-05)
(0.000359616 -0.00695175 -1.85743e-05)
(0.000402068 -0.00843087 -1.53254e-05)
(0.00046907 -0.0101873 -1.97571e-05)
(0.000498202 -0.0129495 -1.62215e-05)
(0.000487833 -0.0160727 -1.19487e-05)
(0.000474561 -0.0200478 -1.31529e-05)
(0.000334386 -0.024894 -3.24654e-05)
(0.000177755 -0.0295679 -3.38734e-05)
(8.67994e-05 -0.022396 -0.00016837)
(-2.72944e-05 -0.0119045 0.000214585)
(0.000557282 0.0652192 -4.0293e-05)
(0.00106434 0.136697 -3.89802e-05)
(0.00011917 0.167351 -0.000452122)
(-0.00256533 0.149852 -6.60481e-05)
(-0.00427324 0.135747 -5.98436e-06)
(-0.00676194 0.131548 0.000110744)
(-0.0088079 0.124398 0.000182807)
(-0.0114838 0.098114 0.000387032)
(-0.00584964 0.0312737 -0.00109458)
(-0.00188955 0.00131375 -9.46658e-06)
(-0.000885496 -0.00456778 -1.24699e-05)
(-0.000238284 -0.0010617 -5.49906e-06)
(4.12411e-05 0.00189999 -3.57345e-05)
(-0.000157231 0.000605924 -4.72831e-05)
(-0.000114829 -0.00406012 -6.12664e-05)
(-5.68446e-05 -0.0049909 -7.37262e-05)
(-1.16876e-05 -0.00519076 -7.27375e-05)
(2.02513e-05 -0.00554697 -7.80554e-05)
(4.41754e-05 -0.00628624 -8.59944e-05)
(5.68881e-05 -0.00758986 -0.000100838)
(6.17795e-05 -0.00911485 -0.000116988)
(5.69956e-05 -0.0115194 -0.000137911)
(8.27237e-05 -0.0142889 -0.000160404)
(0.000123886 -0.0176121 -0.000174316)
(0.000111931 -0.0209262 -0.000186018)
(4.35357e-05 -0.0247475 -0.000180273)
(0.000144094 -0.0266558 -0.000173149)
(0.000411597 0.00123203 0.00103569)
(0.000560661 0.0639922 3.95748e-05)
(0.000420634 0.138703 -6.95104e-05)
(-0.013396 0.0192021 -0.00420933)
(-0.0245694 0.0191219 -0.00668279)
(-0.0368685 0.0195569 -0.00518502)
(-0.0433445 0.0195806 -0.00479541)
(-0.0541572 0.0202509 -0.0046508)
(-0.0600716 0.0191385 -0.00446037)
(-0.0689268 0.0186864 -0.00439496)
(-0.0748935 0.0177831 -0.00427496)
(-0.0823508 0.0178749 -0.00414913)
(-0.087932 0.0184269 -0.00407279)
(-0.0943255 0.0196516 -0.00405177)
(-0.0994901 0.0207476 -0.00411461)
(-0.104759 0.0214036 -0.00416604)
(-0.108339 0.0227334 -0.00437261)
(-0.110743 0.0242781 -0.00467082)
(-0.111322 0.025912 -0.00516067)
(-0.108735 0.0273163 -0.00580953)
(-0.101578 0.0284568 -0.00654761)
(-0.0897818 0.0288294 -0.00720661)
(-0.0713034 0.0268138 -0.00784753)
(-0.0494474 0.0228904 -0.00841923)
(-0.0194211 0.0200741 -0.00905026)
(0.00940506 0.019419 -0.00867048)
(0.0375239 0.0195137 -0.00791055)
(0.0626071 0.0201971 -0.00568041)
(0.0631358 0.0251711 -0.00369232)
(0.0476234 0.0283597 -0.00328424)
(0.02501 0.0248183 -0.0029085)
(-0.0233557 0.120893 -0.00317578)