/*--------------------------------*- C++ -*----------------------------------*\
| =========                 |                                                 |
| \\      /  F ield         | OpenFOAM: The Open Source CFD Toolbox           |
|  \\    /   O peration     | Version:  2.3.0                                 |
|   \\  /    A nd           | Web:      www.OpenFOAM.org                      |
|    \\/     M anipulation  |                                                 |
\*---------------------------------------------------------------------------*/
FoamFile
{
    version     2.0;
    format      ascii;
    class       volScalarField;
    location    "22";
    object      rhom;
}
// * * * * * * * * * * * * * * * * * * * * * * * * * * * * * * * * * * * * * //

dimensions      [1 -3 0 0 0 0 0];

internalField   nonuniform List<scalar> 
1875
(
945.967
945.494
943.057
938.042
929.188
915.413
896.078
858.138
854.536
888.226
905.913
891.898
898.579
907.814
909.884
914.953
922.73
930.617
938.598
946.959
954.985
962.559
969.079
974.163
977.62
968.372
968.372
968.372
967.708
965.348
960.925
952.972
923.245
901.492
929.279
960.162
946.779
922.775
903.088
896.345
900.759
911.718
924.44
934.099
939.359
940.42
939.161
951.618
979.322
996.581
968.372
965.759
957.332
951.901
950.912
951.653
948.796
932.47
923.254
937.221
960.755
959.426
936.95
900.328
865.358
863.862
893.744
922.286
934.394
926.99
884.476
830.901
823.648
911.345
996.581
957.994
944.27
924.963
926.192
929.194
931.358
932.175
926.254
927.463
938.562
960.229
963.029
951.461
918.314
880.136
849.557
832.239
836.955
876.054
838.692
817.773
823.234
813.983
875.911
994.529
946.65
932.159
914.336
915.901
926.41
926.334
926.254
926.262
927.135
937.122
956.408
964.152
960.721
943.843
915.056
878.638
834.692
820.326
823.234
815.236
823.234
814.72
823.234
893.696
994.238
944.298
931.332
914.522
914.222
925.991
931.82
933.725
931.923
931.591
938.898
953.164
963.999
964.21
959.518
945.915
921.979
877.598
840.083
822.278
823.234
815.126
823.234
819.404
916.938
994.377
943.717
934.715
918.16
913.084
924.892
935.665
942.31
946.161
948.924
950.033
957.565
965.1
965.311
965.081
961.703
951.357
926.803
888.321
850.332
823.064
823.234
823.384
847.227
930.466
993.824
944.869
936.862
920.287
912.057
920.162
929.762
938.856
950.049
960.904
965.166
965.099
965.595
965.099
965.753
964.633
961.933
953.805
933.544
899.081
853.165
826.208
828.673
858.751
937.362
992.894
945.218
938.73
922.6
912.267
918.247
926.462
934.291
940.841
943.646
952.816
964.804
965.099
966.212
965.099
965.41
962.024
956.877
949.297
929.469
888.047
842.108
836.22
866.188
942.255
991.728
944.386
940.027
927.533
915.805
920.324
928.262
931.659
926.389
914.007
916.244
935.912
960.654
965.099
966.266
964.199
959.783
954.296
947.963
936.306
907.716
861.469
844.55
879.5
955.317
987.908
940.751
940.412
933.016
921.54
924.607
930.516
926.93
911.481
910.093
911.394
915.29
935.311
958.431
960.3
955.317
950.292
947.324
943.659
933.563
903.388
861.179
853.468
910.499
976.849
978.937
935.898
940.347
937.166
927.343
927
930.474
921.605
910.986
911.394
910.493
916.524
933.374
942.427
939.577
931.196
932.666
938.538
938.237
924.486
889.937
862.353
877.22
944.87
976.958
968.841
932.915
940.281
940.047
933.189
929.059
930.688
924.746
911.393
910.649
911.393
918.215
933.965
933.568
927.626
927.878
928.172
932.173
931.918
907.453
876.46
869.679
912.324
967.479
976.949
960.379
931.867
939.739
942.085
939.188
935.502
938.461
936.598
921.483
911.393
911.025
915.117
930.664
929.663
927.122
928.174
928.574
929.876
920.083
891.287
877.212
885.849
938.245
970.189
972.636
953.135
932.039
938.337
942.655
944.787
943.859
947.218
948.687
939.638
921.162
912.756
912.28
920.447
924.523
925.418
927.336
927.431
922.927
903.558
884.246
880.958
908.777
953.973
966.388
952.964
948.898
935.173
937.043
942.047
947.536
950.208
952.553
953.2
952.429
937.208
919.227
910.855
911.442
915.284
918.891
921.332
918.572
906.236
888.406
880.72
894.78
929.377
952.991
955.928
936.704
948.203
937.505
935.185
940.382
948.719
953.674
953.43
953.315
953.2
950.103
926.492
906.175
898.011
897.79
902.407
904.609
897.503
885.894
880.519
879.932
895.813
926.317
944.522
946.837
936.213
947.869
937.717
928.725
938.492
951.793
956.453
951.685
945.925
953.05
952.896
935.264
902.442
883.012
878.535
880.326
882.865
882.578
882.443
881.106
880.262
888.726
906.563
926.408
940.243
934.368
945.76
936.779
918.593
938.609
955.985
956.5
946.58
911.829
937.658
952.733
938.978
903.378
883.23
878.318
878.466
879.842
883.209
885.945
887.398
888.946
894.119
907.479
927.012
938.783
921.881
942.708
933.856
911.581
940.827
958.645
954.743
928.248
901.22
913.027
948.544
943.455
913.42
890.257
881.01
879.575
882.968
892.657
901.962
908.916
914.834
920.782
928.371
935.053
934.017
910.48
940.496
930.972
908.771
942.826
958.543
939.568
908.567
902.949
908.022
942.669
946.169
933.444
908.095
893.229
887.536
889.052
900.461
909.04
915.099
921.836
930.421
936.774
937.575
926.543
910.261
939.358
930.151
907.303
942.518
956.349
927.918
903.9
902.344
905.49
933.737
946.24
944.844
933.913
916.979
904.348
900.449
906.128
907.944
906.763
902.624
906.132
924.552
937.614
932.766
914.048
938.724
931.116
905.573
937.351
953.78
926.904
904.9
902.948
904.762
923.423
943.324
944.571
941.651
936.132
926.236
918.844
916.617
911.25
900.221
894.28
894.04
895.941
916.619
931.1
922.573
939.02
933.872
904.417
928.387
953.429
934.396
908.048
903.042
904.275
917.702
936.358
941.028
939.28
936.652
933.772
930.863
926.373
916.164
903.152
897.171
895.879
894.947
900.839
923.149
915.935
939.476
936.897
904.376
915.717
951.677
945.064
917.01
906.098
904.565
914.467
931.283
937.361
935.37
934.008
933.199
930.962
926.194
919.359
914.457
909.657
902.519
894.988
898.536
918.681
890.369
939.92
939.43
909.861
905.148
942.876
951.53
932.442
915.793
911.108
915.61
930.739
936.558
935.876
934.187
932.875
928.995
923.14
918.866
918.694
917.313
902.355
894.946
900.388
915
885.881
940.764
941.816
920.607
904.732
921.217
951.759
948.879
932.704
926.03
923.358
929.336
935.646
937.579
937.168
934.523
929.418
919.553
914.002
915.845
915.8
903.541
896.899
900.338
905.48
886.401
944.163
945.199
931.095
914.913
909.285
932.754
952.712
952.485
939.699
931.078
931.226
938.171
941.555
942.509
939.756
932.715
920.955
909.781
905.467
910.59
910.261
902.555
895.959
889.126
889.793
951.11
948.67
937.62
922.027
906.02
895.55
924.847
949.76
950.016
944.173
936.663
938.762
945.933
951.232
950.484
941.057
923.981
902.697
902.519
908.672
913.024
907.897
887.135
859.222
891.131
953.104
952.567
943.393
916.254
872.598
867.518
871.027
916.217
945.614
948.862
948.379
945.211
947.951
951.079
949.826
933.944
914.74
902.519
905.816
912.111
913.134
904.669
872.394
858.699
885.207
942.556
955.302
950.855
895.606
867.578
868.506
867.733
870.292
906.518
946.564
948.861
946.32
945.788
932.231
914.066
907.145
907.002
908.655
915.588
919.41
913.242
890.956
871.178
864.358
894.305
936.021
955.921
955.404
891.542
868.506
867.733
868.506
893.457
915.658
924.392
922.726
918.105
913.462
908.644
908.556
911.931
915.976
920.403
922.666
919.591
909.112
895.772
888.747
896.877
919.339
938.049
955.921
956.656
927.925
876.926
870.078
885.75
897.51
901.469
901.622
905.781
908.465
911.054
914.36
920.497
926.389
929.922
931.394
930.354
926.675
924.55
926.498
931.88
937.909
942.14
944.055
957.184
956.023
953.695
902.586
881.442
885.104
890.487
892.257
899.567
907.988
915.541
924.538
933.93
940.636
944.318
945.675
945.879
946.114
946.529
948.397
949.895
950.012
949.982
949.942
948.048
957.562
957.273
955.905
942.415
899.205
882.42
880.261
884.847
895.252
903.416
909.438
916.202
922.615
928.855
935.349
941.809
945.055
946.679
947.245
948.062
949.267
949.981
950.011
949.113
943.857
944.151
955.963
956.289
954.351
931.761
893.621
876.124
875.777
880.318
882.571
872.187
858.336
856.352
852.092
856.163
869.713
909.76
922.917
930.605
933.788
938.213
942.993
945.426
943.465
939.94
937.03
956.495
954.351
955.479
953.329
926.316
892.63
879.713
869.264
856.502
850.68
856.322
849.482
856.163
849.667
855.986
849.844
856.225
889.727
900.42
909.188
922.661
934.195
939.219
941.232
936.087
954.351
955.124
953.329
954.413
947.871
924.755
900.792
879.358
857.425
856.459
850.634
856.225
849.667
855.986
849.934
855.986
850.85
856.225
870.14
874.208
885.75
911.834
935.902
945.154
935.663
945.609
947.498
954.815
952.861
952.199
946.36
929.612
904.539
877.497
862.562
856.459
852.862
856.224
851.716
855.985
852.917
856.224
855.86
864.488
865.378
865.643
881.406
922.565
946.917
934.871
937.289
935.883
935.814
942.702
947.397
946.168
942.854
930.502
910.058
890.156
872.836
863.358
855.581
856.224
854.753
856.224
855.805
860.955
868.527
867.743
866.32
870.681
906.168
947.033
935.767
936.293
935.193
930.652
925.053
929.897
936.449
940.254
939.069
934.278
922.756
906.474
888.989
874.143
865.324
857.274
856.392
859.484
870.514
873.916
870.24
867.963
870.378
901.961
947.033
941.541
937.295
936.151
932.09
922.576
913.814
915.905
925.92
935.415
935.187
934.628
930.344
916.433
893.901
872.553
860.222
861.071
868.578
878.641
876.138
869.887
869.432
872.229
905.249
947.016
948.856
939.656
936.41
933.612
926.202
913.466
913.296
914.379
923.242
932.158
931.213
924.035
907.251
886.255
867.866
863.777
867.933
879.297
880.122
874.972
868.56
869.855
874.543
913.106
947.041
951.188
940.191
932.583
931.492
931.532
925.055
917.374
914.367
918.17
923.903
919.529
904.287
886.772
873.778
867.543
868.635
877.318
883.708
880.636
872.44
868.223
868.439
876.683
921.861
947.308
951.032
939.339
926.572
924.69
931.069
933.305
928.407
921.804
921.43
922.007
916.854
900.271
881.669
871.172
868.173
874.476
884.092
884.775
879.568
870.585
868.191
868.223
880.547
928.645
947.35
948.503
937.644
919.736
914.495
923.358
932.811
929.288
929.541
928.307
925.272
919.484
904.454
885.697
873.092
870.753
875.235
883.332
884.728
877.973
868.885
868.222
868.693
888.253
933.059
947.394
945.439
929.59
912.32
909.814
910.49
910.746
903.791
910.316
925.747
927.149
924.44
913.396
895.794
880.066
875.474
876.948
881.728
883
877.809
869.777
869.747
876.208
902.194
935.601
947.426
944.368
920.416
904.32
898.959
895.265
893.667
895.265
894.179
914.407
927.074
928.227
923.417
910.363
893.216
879.371
880.325
882.792
883.194
878.642
873.331
876.852
892.193
920.265
935.871
944.36
944.599
914.448
896.146
895.265
893.779
895.265
893.901
895.265
901.624
925.939
928.447
923.86
911.457
892.278
879.653
880.736
884.428
885.112
882.351
882.552
892.018
915.053
932.131
932.343
928.532
944.852
909.626
895.264
894.586
895.264
894.476
895.264
895.225
903.356
924.598
928.343
919.788
901.073
880.436
880.009
881.247
887.583
890
891.351
900.294
916.84
931.419
931.778
928.268
925.101
944.852
907.008
894.807
895.264
894.975
895.264
895.176
895.832
905.651
919.641
920.618
901.212
880.954
880.772
880.503
885.582
894.665
900.716
909.045
922.274
929.989
931.13
930.401
929.279
929.34
944.747
907.277
895.264
895.193
895.264
895.253
895.48
897.948
907.433
913.611
901.557
883.644
881.64
881.417
885.565
895.093
907.218
917.209
923.784
924.676
925.128
921.774
923.491
931.563
935.315
944.167
907.505
895.435
895.264
895.264
895.756
897.172
901.698
905.486
903.762
889.189
882.062
881.731
885.608
895.744
907.761
917.563
922.633
923.883
919.987
908.588
902.968
914.241
930.811
935.33
942.851
906.798
896.701
896.71
897.37
897.596
899.051
902.346
903.974
902.78
891.645
884.548
883.354
886.091
896.255
907.801
916.218
919.325
915.738
905.119
897.681
897.642
907.093
926.303
935.329
941.029
907.088
901.319
904.201
904.323
900.347
898.981
901.068
904.693
905.05
898.12
889.819
886.948
886.427
892.391
900.538
907.3
909.391
902.913
897.689
898.098
900.193
908.028
920.608
935.329
940.216
908.542
907.033
915.916
915.906
905.118
899.244
899.689
903.548
905.918
905.675
898.103
893.595
890.418
892.335
894.174
896.981
898.209
897.602
897.607
899.213
904.152
911.64
915.779
931.42
940.522
910.262
906.29
923.385
924.838
913.732
902.505
899.778
901.008
905.134
907.345
906.634
903.446
900.746
897.332
896.947
898.068
898.644
898.212
897.738
899.568
905.461
911.792
912.218
925.754
941.72
915.713
906.105
919.524
925.051
922.175
906.78
903.266
903.502
905.983
908.56
909.971
909.974
909.658
907.163
905.134
902.921
900.7
898.844
898.46
899.337
903.848
909.451
910.71
927.28
940.2
923.293
909.04
911.384
918.887
919.414
919.211
919.254
915.613
911.064
909.536
908.505
908.426
908.962
909.084
909.011
907.984
906.247
903.561
901.357
900.643
903.117
905.718
910.071
929.631
936.224
932.777
923.407
917.703
917.969
917.856
918.226
918.768
917.111
914.839
911.629
906.996
905.844
907.336
907.902
907.939
913.138
918.662
919.997
914.795
907.306
904.597
905.781
909.584
931.056
942.197
944.856
941.463
933.827
925.062
918.484
915.276
916.281
916.551
916.456
914.774
909.324
900.943
899.803
899.948
908.684
925.196
936.656
938.477
932.268
918.649
907.469
905.712
909.503
932.185
962.042
957.828
949.531
940.746
932.361
922.358
913.971
911.164
912.239
913.702
913.198
909.118
901.114
899.877
901.609
911.405
930.877
941.959
940.908
934.393
919.619
906.548
904.168
910.383
934.051
978.824
962.642
938.214
926.862
922.589
917.104
909.593
903.581
903.607
906.997
908.993
907.184
901.793
902.178
907.39
920.481
938.107
941.899
938.422
926.721
911.588
902.033
900.086
910.5
933.634
982.169
952.201
909.055
900.703
900.39
901.422
897.072
893.819
894.772
901.204
904.843
905.531
904.705
911.054
923.042
939.987
941.238
937.492
919.871
904.556
899.281
896.125
894.601
907.099
931.309
982.285
940.607
892.815
887.292
887.136
887.255
887.62
890.322
895.875
901.416
904.649
906.292
910.066
922.512
935.615
942.406
941.186
922.138
903.381
895.628
894.596
894.618
894.436
899.822
927.279
982.401
954.12
906.092
895.459
892.841
892.302
893.144
896.399
901.389
905.312
909.071
913.396
920.358
932.049
942.509
942.361
942.54
928.697
914.316
908.583
907.327
907.07
906.146
908.054
932.663
982.516
967.781
935.713
922.342
915.412
912.526
911.912
913.667
916.738
919.892
923.451
928.882
938.931
942.549
942.36
942.548
942.359
942.539
942.358
942.531
942.328
941.472
939.011
934.49
941.829
774.516
774.366
778.476
783.116
788.123
793.227
797.647
801.244
803.185
803.218
799.488
792.843
785.675
782.27
780.23
778.757
777.816
776.972
776.996
777.527
778.259
779.303
781.189
784.158
780.731
534.405
537.612
542.12
545.485
547.677
548.906
549.348
548.991
547.651
545.488
542.612
539.337
536.001
533.517
532.05
531.647
532.054
533.126
534.535
535.912
537.031
537.957
539.138
540.036
536.584
514.67
515.026
515.377
515.273
515.094
514.934
514.815
514.728
514.668
514.632
514.619
514.636
514.66
514.684
514.701
514.725
514.758
514.796
514.827
514.857
514.904
514.966
514.998
514.804
514.631
514.545
514.567
514.624
514.668
514.689
514.699
514.701
514.702
514.703
514.703
514.704
514.704
514.704
514.701
514.694
514.679
514.656
514.623
514.587
514.562
514.549
514.544
514.543
514.542
514.549
514.547
514.573
514.646
514.697
514.71
514.713
514.714
514.714
514.714
514.714
514.714
514.714
514.712
514.704
514.691
514.662
514.646
514.626
514.596
514.569
514.551
514.544
514.542
514.542
514.55
514.547
514.57
514.63
514.679
514.71
514.714
514.714
514.714
514.714
514.714
514.714
514.713
514.708
514.688
514.634
514.605
514.589
514.589
514.582
514.564
514.549
514.543
514.542
514.544
514.567
514.545
514.562
514.606
514.677
514.712
514.714
514.714
514.714
514.714
514.714
514.714
514.714
514.712
514.692
514.631
514.578
514.56
514.556
514.555
514.549
514.544
514.543
514.543
514.552
514.591
514.545
514.559
514.609
514.703
514.714
514.714
514.714
514.714
514.714
514.714
514.714
514.714
514.714
514.711
514.69
514.621
514.57
514.558
514.554
514.552
514.556
514.561
514.576
514.607
514.644
)
;

boundaryField
{
    inlet
    {
        type            calculated;
        value           nonuniform List<scalar> 
25
(
770.948
770.948
770.947
770.947
770.947
770.947
770.947
770.947
770.947
770.947
770.947
770.947
770.947
770.947
770.946
770.946
770.946
770.946
770.946
770.946
770.946
770.946
770.946
770.947
770.947
)
;
    }
    outlet
    {
        type            calculated;
        value           nonuniform List<scalar> 
25
(
514.545
514.558
514.608
514.714
514.714
514.714
514.714
514.714
514.714
514.714
514.714
514.714
514.714
514.714
514.714
514.623
514.571
514.558
514.555
514.553
514.557
514.563
514.578
514.611
514.646
)
;
    }
    walls
    {
        type            calculated;
        value           nonuniform List<scalar> 
150
(
945.967
968.372
968.372
957.994
946.65
944.298
943.717
944.869
945.218
944.386
940.751
935.898
932.915
931.867
932.039
935.173
937.505
937.717
936.779
933.856
930.972
930.151
931.116
933.872
936.897
939.43
941.816
945.199
948.67
952.567
955.302
955.921
955.921
957.184
957.562
944.151
937.03
936.087
935.663
934.871
935.767
941.541
948.856
951.188
951.032
948.503
945.439
944.368
944.599
944.852
944.852
944.747
944.167
942.851
941.029
940.216
940.522
941.72
940.2
936.224
942.197
962.042
978.824
982.169
982.285
982.401
982.516
774.516
534.405
514.67
514.545
514.547
514.547
514.545
514.545
977.62
996.581
996.581
994.529
994.238
994.377
993.824
992.894
991.728
987.908
978.937
968.841
960.379
953.135
948.898
948.203
947.869
945.76
942.708
940.496
939.358
938.724
939.02
939.476
939.92
940.764
944.163
951.11
953.104
942.556
936.021
938.049
944.055
948.048
943.857
939.94
941.232
945.154
946.917
947.033
947.033
947.016
947.041
947.308
947.35
947.394
947.426
944.36
928.532
925.101
929.34
935.315
935.33
935.329
935.329
931.42
925.754
927.28
929.631
931.056
932.185
934.051
933.634
931.309
927.279
932.663
941.829
780.731
536.584
514.631
514.549
514.55
514.567
514.591
514.644
)
;
    }
    defaultFaces
    {
        type            empty;
    }
}


// ************************************************************************* //
