/*--------------------------------*- C++ -*----------------------------------*\
| =========                 |                                                 |
| \\      /  F ield         | OpenFOAM: The Open Source CFD Toolbox           |
|  \\    /   O peration     | Version:  2.3.0                                 |
|   \\  /    A nd           | Web:      www.OpenFOAM.org                      |
|    \\/     M anipulation  |                                                 |
\*---------------------------------------------------------------------------*/
FoamFile
{
    version     2.0;
    format      ascii;
    class       volVectorField;
    location    "22";
    object      U.airMean;
}
// * * * * * * * * * * * * * * * * * * * * * * * * * * * * * * * * * * * * * //

dimensions      [0 1 -1 0 0 0 0];

internalField   nonuniform List<vector> 
1875
(
(0.105809 0.00582542 0)
(0.20999 0.0170241 0)
(0.324187 0.0444988 0)
(0.373806 0.0747405 0)
(0.379622 0.105168 0)
(0.354524 0.131177 0)
(0.308317 0.148761 0)
(0.250451 0.163848 0)
(0.191025 0.172956 0)
(0.134542 0.177308 0)
(0.0768887 0.18052 0)
(0.0183311 0.177131 0)
(-0.0412496 0.17242 0)
(-0.100638 0.167591 0)
(-0.158603 0.162047 0)
(-0.216288 0.157652 0)
(-0.275057 0.149618 0)
(-0.332392 0.138541 0)
(-0.382431 0.126192 0)
(-0.418053 0.10927 0)
(-0.430326 0.0880977 0)
(-0.413096 0.064082 0)
(-0.351791 0.0387089 0)
(-0.227177 0.011115 0)
(-0.112069 0.00120276 0)
(0.079987 -0.00964505 0)
(0.172105 0.0689427 0)
(0.238699 0.181905 0)
(0.259839 0.272271 0)
(0.249685 0.347285 0)
(0.222726 0.412077 0)
(0.185932 0.45861 0)
(0.144038 0.491375 0)
(0.107063 0.514977 0)
(0.0751137 0.529702 0)
(0.0453914 0.537103 0)
(0.0155893 0.541775 0)
(-0.018266 0.542524 0)
(-0.0541504 0.534268 0)
(-0.0903782 0.522501 0)
(-0.126816 0.505291 0)
(-0.163338 0.484774 0)
(-0.202246 0.458651 0)
(-0.239476 0.424204 0)
(-0.270016 0.378154 0)
(-0.28672 0.319911 0)
(-0.286463 0.253675 0)
(-0.255258 0.166979 0)
(-0.180401 0.055228 0)
(-0.0859303 -0.022312 0)
(0.0376588 -0.213725 0)
(0.0699111 -0.0842971 0)
(0.0766795 0.0416893 0)
(0.0765133 0.143243 0)
(0.0676715 0.232275 0)
(0.0547223 0.310525 0)
(0.042473 0.378805 0)
(0.0310893 0.428134 0)
(0.0249235 0.458581 0)
(0.0204832 0.48031 0)
(0.0141305 0.494068 0)
(0.00552346 0.496457 0)
(-0.00602719 0.492704 0)
(-0.0175456 0.476417 0)
(-0.0280283 0.451365 0)
(-0.0344685 0.419073 0)
(-0.0422351 0.38194 0)
(-0.0476048 0.342673 0)
(-0.0573892 0.295324 0)
(-0.0671302 0.238389 0)
(-0.0747469 0.175116 0)
(-0.0829639 0.113661 0)
(-0.0838768 0.0305922 0)
(-0.077827 -0.095053 0)
(-0.0408018 -0.226549 0)
(0.0121392 -0.239788 0)
(0.0207901 -0.0686757 0)
(0.0121143 0.0640468 0)
(0.00252054 0.170166 0)
(-0.006425 0.260834 0)
(-0.0133743 0.338178 0)
(-0.0151306 0.400571 0)
(-0.0139569 0.446201 0)
(-0.00761042 0.476448 0)
(0.000446995 0.497827 0)
(0.00921685 0.511905 0)
(0.0176923 0.519782 0)
(0.0234855 0.519023 0)
(0.0272967 0.502179 0)
(0.0305434 0.47582 0)
(0.0329804 0.446025 0)
(0.0336426 0.413302 0)
(0.0329175 0.374412 0)
(0.0287832 0.330688 0)
(0.0205007 0.273078 0)
(0.0103598 0.208352 0)
(-0.000972805 0.139891 0)
(-0.0112013 0.0509934 0)
(-0.0238075 -0.0810122 0)
(-0.0142277 -0.26301 0)
(0.00275159 -0.241467 0)
(0.00348988 -0.0677895 0)
(-0.00162733 0.0660206 0)
(-0.0172306 0.164242 0)
(-0.0292425 0.241342 0)
(-0.0360138 0.309275 0)
(-0.0360897 0.368182 0)
(-0.0331318 0.408447 0)
(-0.0263342 0.434778 0)
(-0.0156442 0.451391 0)
(-0.00164351 0.459375 0)
(0.0145506 0.467801 0)
(0.0296864 0.465619 0)
(0.0450921 0.450868 0)
(0.0579251 0.426226 0)
(0.0673467 0.399274 0)
(0.0739619 0.365095 0)
(0.0766752 0.33147 0)
(0.0744366 0.292414 0)
(0.0668051 0.247889 0)
(0.0517856 0.194883 0)
(0.0335359 0.141785 0)
(0.0136863 0.0617806 0)
(0.00147044 -0.0687948 0)
(-0.00069959 -0.256927 0)
(0.00267352 -0.227904 0)
(0.00185903 -0.0347981 0)
(0.00379387 0.117094 0)
(-0.011229 0.217835 0)
(-0.0273128 0.280075 0)
(-0.0420117 0.328986 0)
(-0.0471028 0.37068 0)
(-0.0482315 0.405991 0)
(-0.0439916 0.424975 0)
(-0.0342463 0.433849 0)
(-0.0202819 0.436722 0)
(-0.00166897 0.440803 0)
(0.019615 0.438833 0)
(0.0423031 0.423838 0)
(0.062666 0.406799 0)
(0.0781274 0.386088 0)
(0.0879089 0.364363 0)
(0.0912334 0.340307 0)
(0.0862451 0.315396 0)
(0.0739799 0.287749 0)
(0.0527143 0.256473 0)
(0.0296147 0.214748 0)
(0.00843864 0.132568 0)
(0.00307464 -0.0136607 0)
(-0.000105265 -0.226996 0)
(0.000623209 -0.223079 0)
(0.00235379 -0.0312018 0)
(0.00643237 0.133221 0)
(-0.000620045 0.247894 0)
(-0.0183359 0.308602 0)
(-0.0347274 0.346902 0)
(-0.0463347 0.37556 0)
(-0.0521532 0.396103 0)
(-0.0508343 0.403365 0)
(-0.0437412 0.403224 0)
(-0.031747 0.398909 0)
(-0.0150501 0.394167 0)
(0.00694897 0.38533 0)
(0.0301692 0.372208 0)
(0.0511815 0.361251 0)
(0.0675101 0.350494 0)
(0.0777951 0.338146 0)
(0.0796028 0.330025 0)
(0.0725058 0.323119 0)
(0.0573685 0.315468 0)
(0.0342496 0.295997 0)
(0.00947879 0.260275 0)
(-0.00390757 0.161539 0)
(-0.0030163 0.00296629 0)
(0.000250772 -0.213229 0)
(0.00284995 -0.218225 0)
(0.00308446 -0.017935 0)
(0.00776242 0.158616 0)
(0.00582662 0.29207 0)
(-0.00962993 0.358161 0)
(-0.0260039 0.385929 0)
(-0.0412941 0.399005 0)
(-0.0478038 0.406115 0)
(-0.0480156 0.401336 0)
(-0.0413349 0.389653 0)
(-0.0298125 0.377149 0)
(-0.015478 0.364861 0)
(0.00419888 0.352738 0)
(0.0240062 0.342879 0)
(0.0418845 0.337927 0)
(0.0557981 0.336888 0)
(0.0633384 0.340034 0)
(0.0616322 0.346719 0)
(0.0524498 0.355377 0)
(0.0357429 0.364751 0)
(0.012103 0.363508 0)
(-0.0094799 0.322402 0)
(-0.0190398 0.201149 0)
(-0.00889697 0.01499 0)
(-0.00594868 -0.209219 0)
(0.002804 -0.22163 0)
(0.00515751 -0.0186148 0)
(0.00896282 0.16151 0)
(0.0140543 0.310356 0)
(0.00530373 0.390908 0)
(-0.00929652 0.416871 0)
(-0.0246129 0.420508 0)
(-0.0326212 0.40798 0)
(-0.0345348 0.386639 0)
(-0.0299357 0.364752 0)
(-0.0211519 0.347029 0)
(-0.00762438 0.327242 0)
(0.00934859 0.311148 0)
(0.0252108 0.303448 0)
(0.0367591 0.305956 0)
(0.0435122 0.317365 0)
(0.0451902 0.334614 0)
(0.04012 0.358073 0)
(0.0280311 0.382492 0)
(0.0104432 0.405189 0)
(-0.00976742 0.407275 0)
(-0.0240859 0.354291 0)
(-0.0231369 0.205252 0)
(-0.0125198 0.00719317 0)
(-0.00701898 -0.221264 0)
(0.00464526 -0.226673 0)
(0.0107872 -0.0187107 0)
(0.015563 0.165079 0)
(0.0221898 0.324516 0)
(0.0212403 0.425593 0)
(0.00905851 0.456212 0)
(-0.00331593 0.448106 0)
(-0.011828 0.423533 0)
(-0.0159193 0.39204 0)
(-0.0146231 0.359962 0)
(-0.00938062 0.329325 0)
(0.000204184 0.300645 0)
(0.00930591 0.284231 0)
(0.0198661 0.283554 0)
(0.0266432 0.297806 0)
(0.0306471 0.318761 0)
(0.0270868 0.346047 0)
(0.0183573 0.379701 0)
(0.00380592 0.415251 0)
(-0.0144284 0.444604 0)
(-0.030484 0.444769 0)
(-0.0382563 0.371316 0)
(-0.0281744 0.202501 0)
(-0.0176991 -0.000822773 0)
(-0.00760293 -0.236538 0)
(0.00649116 -0.245312 0)
(0.0152152 -0.0344224 0)
(0.0232609 0.153118 0)
(0.0304535 0.319148 0)
(0.0331484 0.436759 0)
(0.0290571 0.479706 0)
(0.019098 0.470681 0)
(0.0112418 0.435807 0)
(0.00611436 0.392861 0)
(0.00347921 0.350386 0)
(0.00548949 0.312506 0)
(0.00762395 0.284279 0)
(0.00736653 0.262888 0)
(0.0111019 0.259125 0)
(0.0140481 0.274124 0)
(0.0183149 0.307864 0)
(0.0145879 0.35035 0)
(0.00462874 0.398994 0)
(-0.0114567 0.445684 0)
(-0.0290806 0.478927 0)
(-0.0425997 0.466186 0)
(-0.0430303 0.365604 0)
(-0.0297075 0.179525 0)
(-0.0204991 -0.0243143 0)
(-0.00627476 -0.262406 0)
(0.00739598 -0.26471 0)
(0.0172877 -0.0529787 0)
(0.0247915 0.138114 0)
(0.0340967 0.308506 0)
(0.0398891 0.436863 0)
(0.0414366 0.495358 0)
(0.0359424 0.493158 0)
(0.0290943 0.456041 0)
(0.0240003 0.410344 0)
(0.0196488 0.360001 0)
(0.016771 0.313925 0)
(0.0126477 0.279729 0)
(0.00823031 0.255762 0)
(0.00566705 0.249543 0)
(0.000865906 0.268479 0)
(-0.00210013 0.306749 0)
(-0.00668129 0.360283 0)
(-0.0104797 0.419737 0)
(-0.0230973 0.475545 0)
(-0.0349711 0.506765 0)
(-0.0437039 0.477147 0)
(-0.0380073 0.348069 0)
(-0.0276641 0.159113 0)
(-0.0196221 -0.0514991 0)
(-0.00637347 -0.286219 0)
(0.00702962 -0.286358 0)
(0.0155245 -0.0726425 0)
(0.0210934 0.115229 0)
(0.028937 0.284212 0)
(0.0387519 0.421829 0)
(0.0438438 0.494625 0)
(0.0450771 0.505672 0)
(0.0405778 0.470381 0)
(0.0348705 0.417085 0)
(0.0307369 0.359971 0)
(0.0254848 0.312798 0)
(0.0203213 0.278236 0)
(0.0151906 0.252639 0)
(0.00582379 0.251073 0)
(-0.00622902 0.272616 0)
(-0.0140873 0.310096 0)
(-0.0183319 0.362377 0)
(-0.0195417 0.428075 0)
(-0.0268379 0.493627 0)
(-0.0342886 0.518502 0)
(-0.0350145 0.470358 0)
(-0.0248949 0.324025 0)
(-0.0195049 0.137553 0)
(-0.0140628 -0.075003 0)
(-0.00546486 -0.304208 0)
(0.00549556 -0.303591 0)
(0.0124514 -0.0857183 0)
(0.0167405 0.0985108 0)
(0.0217261 0.261418 0)
(0.0323195 0.397936 0)
(0.0420588 0.483175 0)
(0.0480367 0.503343 0)
(0.0502285 0.4803 0)
(0.0471282 0.429363 0)
(0.0407581 0.372058 0)
(0.0330511 0.320018 0)
(0.0268647 0.279519 0)
(0.0208358 0.258439 0)
(0.011311 0.267411 0)
(-0.00140437 0.28879 0)
(-0.00936443 0.323954 0)
(-0.0171738 0.372344 0)
(-0.0222271 0.438796 0)
(-0.0266782 0.506824 0)
(-0.0294758 0.520258 0)
(-0.0241699 0.449962 0)
(-0.0147551 0.301559 0)
(-0.0121262 0.12583 0)
(-0.00915588 -0.0829481 0)
(-0.00447427 -0.313027 0)
(0.00422375 -0.317921 0)
(0.00917699 -0.0978734 0)
(0.0120598 0.0835525 0)
(0.0147137 0.239923 0)
(0.0207598 0.367703 0)
(0.031801 0.458635 0)
(0.0412953 0.487927 0)
(0.0491391 0.471966 0)
(0.0519079 0.433789 0)
(0.0508363 0.377752 0)
(0.0446942 0.328502 0)
(0.0357083 0.286356 0)
(0.0277222 0.264282 0)
(0.0202842 0.274974 0)
(0.00889467 0.298363 0)
(-0.00111394 0.337522 0)
(-0.0136744 0.388321 0)
(-0.0219962 0.453438 0)
(-0.026901 0.508912 0)
(-0.0237626 0.50897 0)
(-0.0157592 0.429871 0)
(-0.00852305 0.285404 0)
(-0.00839631 0.118719 0)
(-0.00626664 -0.0861295 0)
(-0.00335135 -0.319889 0)
(0.00239162 -0.324968 0)
(0.0057097 -0.10254 0)
(0.00518808 0.0773209 0)
(0.00388097 0.230247 0)
(0.00557516 0.348898 0)
(0.0141794 0.432423 0)
(0.026068 0.469458 0)
(0.0372403 0.459357 0)
(0.0477501 0.425102 0)
(0.0547466 0.379437 0)
(0.0500774 0.340709 0)
(0.0423594 0.301314 0)
(0.0322639 0.279696 0)
(0.022452 0.293169 0)
(0.0109891 0.323814 0)
(-0.000978862 0.363016 0)
(-0.011782 0.409183 0)
(-0.0175318 0.463554 0)
(-0.0210223 0.505466 0)
(-0.0162138 0.489851 0)
(-0.00584781 0.406553 0)
(-0.00221294 0.277698 0)
(-0.005442 0.119951 0)
(-0.00351995 -0.0877132 0)
(-0.00205853 -0.323403 0)
(0.000611002 -0.324189 0)
(0.00153136 -0.0999574 0)
(-2.71982e-06 0.0819814 0)
(-0.0041436 0.228555 0)
(-0.00491667 0.335727 0)
(-0.00109255 0.409775 0)
(0.0111935 0.443418 0)
(0.0237286 0.434403 0)
(0.0367704 0.403864 0)
(0.0454736 0.374362 0)
(0.045667 0.346037 0)
(0.0400623 0.312707 0)
(0.0315867 0.296731 0)
(0.0203315 0.30921 0)
(0.0115937 0.338013 0)
(0.0026466 0.377564 0)
(-0.00576626 0.419885 0)
(-0.0103268 0.469939 0)
(-0.0102362 0.499063 0)
(-0.00324775 0.471199 0)
(0.00238335 0.394962 0)
(0.00250887 0.281461 0)
(0.000204679 0.122581 0)
(-0.000768157 -0.0867191 0)
(-0.00108878 -0.323324 0)
(0.000164015 -0.320143 0)
(0.000195293 -0.0938343 0)
(-0.000348365 0.0928482 0)
(-0.00316331 0.234546 0)
(-0.00467326 0.333617 0)
(-0.00278544 0.394553 0)
(0.00719289 0.420939 0)
(0.0170946 0.416321 0)
(0.0256173 0.392528 0)
(0.0290956 0.366466 0)
(0.0317962 0.342378 0)
(0.027511 0.316113 0)
(0.0227011 0.304128 0)
(0.0145798 0.322425 0)
(0.00565969 0.354714 0)
(-0.00318296 0.395563 0)
(-0.00950531 0.433985 0)
(-0.0110147 0.469436 0)
(-0.0045961 0.485986 0)
(0.00258443 0.46048 0)
(0.00648013 0.391493 0)
(0.00631377 0.2844 0)
(0.00587865 0.127996 0)
(0.00181162 -0.0792682 0)
(-0.000372772 -0.317063 0)
(0.00126714 -0.31847 0)
(0.00186884 -0.0924079 0)
(0.00207535 0.096046 0)
(0.00380716 0.238771 0)
(0.00601881 0.329792 0)
(0.00948008 0.381941 0)
(0.0148692 0.405303 0)
(0.0193 0.403376 0)
(0.0206065 0.38332 0)
(0.0184595 0.357878 0)
(0.0161304 0.334663 0)
(0.00863911 0.314526 0)
(5.75403e-05 0.306931 0)
(-0.00793734 0.331378 0)
(-0.0139706 0.368723 0)
(-0.0203343 0.40358 0)
(-0.0215117 0.439664 0)
(-0.0173461 0.465105 0)
(-0.00925 0.473653 0)
(-0.00103808 0.452784 0)
(0.00542962 0.390605 0)
(0.00604117 0.290056 0)
(0.0067264 0.133838 0)
(0.00174504 -0.067459 0)
(-0.000784245 -0.308422 0)
(0.00171374 -0.319041 0)
(0.00184966 -0.0923139 0)
(0.00262106 0.0931489 0)
(0.00554129 0.230955 0)
(0.0113057 0.321907 0)
(0.0173108 0.374081 0)
(0.0211949 0.397414 0)
(0.0232901 0.398634 0)
(0.0222066 0.384495 0)
(0.0158298 0.361058 0)
(0.00648599 0.343347 0)
(-0.00699074 0.328506 0)
(-0.0218461 0.321211 0)
(-0.0328929 0.338559 0)
(-0.0367436 0.372197 0)
(-0.0387935 0.403948 0)
(-0.0361164 0.431223 0)
(-0.0278352 0.452374 0)
(-0.0213216 0.465219 0)
(-0.0114391 0.441597 0)
(-0.00340329 0.384078 0)
(0.00101674 0.287935 0)
(0.00207382 0.138869 0)
(-0.000813461 -0.0573376 0)
(-0.00208715 -0.304112 0)
(0.00165449 -0.318242 0)
(0.0003107 -0.0923933 0)
(0.000561431 0.0888151 0)
(0.00210161 0.220345 0)
(0.00663769 0.307369 0)
(0.0129402 0.358138 0)
(0.0190648 0.385536 0)
(0.0200764 0.391674 0)
(0.0189779 0.385112 0)
(0.0119535 0.373522 0)
(0.000974443 0.362555 0)
(-0.0119788 0.351027 0)
(-0.0258877 0.340114 0)
(-0.0392662 0.347881 0)
(-0.0463697 0.371506 0)
(-0.0470506 0.397764 0)
(-0.0429385 0.418577 0)
(-0.0370146 0.441978 0)
(-0.029203 0.450275 0)
(-0.0186173 0.426746 0)
(-0.0108199 0.371047 0)
(-0.00612506 0.28183 0)
(-0.00428894 0.141904 0)
(-0.00369233 -0.05298 0)
(-0.00340823 -0.304274 0)
(0.000880089 -0.313882 0)
(-0.0016074 -0.0879565 0)
(-0.00409162 0.0856863 0)
(-0.00278631 0.212721 0)
(-0.00115605 0.293629 0)
(0.00344379 0.341966 0)
(0.00609745 0.376639 0)
(0.00603445 0.390001 0)
(0.00378899 0.392252 0)
(0.000515645 0.386371 0)
(-0.00413306 0.378541 0)
(-0.0118511 0.368892 0)
(-0.0209111 0.357757 0)
(-0.031186 0.362958 0)
(-0.0393825 0.376735 0)
(-0.0410712 0.39239 0)
(-0.0401111 0.409562 0)
(-0.0366788 0.428827 0)
(-0.0282055 0.431475 0)
(-0.0175999 0.40887 0)
(-0.0120225 0.360698 0)
(-0.00926042 0.274589 0)
(-0.00726155 0.138086 0)
(-0.00440181 -0.0532167 0)
(-0.0031485 -0.306976 0)
(-0.00119727 -0.302459 0)
(-0.00552956 -0.0744664 0)
(-0.0102781 0.0898756 0)
(-0.010822 0.211349 0)
(-0.0101569 0.290265 0)
(-0.00809355 0.339829 0)
(-0.00767151 0.377194 0)
(-0.00776674 0.394487 0)
(-0.00696656 0.396521 0)
(-0.00537481 0.391012 0)
(-0.00509995 0.387056 0)
(-0.00858672 0.378652 0)
(-0.0138756 0.366086 0)
(-0.0203532 0.369439 0)
(-0.0254839 0.379571 0)
(-0.0288316 0.392755 0)
(-0.0307207 0.405994 0)
(-0.028172 0.416689 0)
(-0.0204489 0.414462 0)
(-0.0123034 0.392512 0)
(-0.00709022 0.351855 0)
(-0.00700708 0.27066 0)
(-0.00452802 0.132268 0)
(-0.00232992 -0.0529767 0)
(-0.00123356 -0.307839 0)
(-0.00190401 -0.288936 0)
(-0.0064218 -0.0577981 0)
(-0.0121764 0.102534 0)
(-0.0148975 0.214001 0)
(-0.013784 0.286641 0)
(-0.0114121 0.337039 0)
(-0.00972702 0.373346 0)
(-0.00712825 0.389117 0)
(-0.0031749 0.393772 0)
(-0.000675378 0.392295 0)
(4.47079e-05 0.391848 0)
(-0.00346774 0.385172 0)
(-0.0070969 0.37429 0)
(-0.0120661 0.375009 0)
(-0.015865 0.382375 0)
(-0.0187753 0.394149 0)
(-0.0196846 0.40414 0)
(-0.0192226 0.407672 0)
(-0.0141292 0.401545 0)
(-0.00867235 0.380825 0)
(-0.00472358 0.344451 0)
(-0.00332309 0.264583 0)
(-9.1066e-05 0.127311 0)
(-0.000579688 -0.051935 0)
(-0.000215199 -0.305286 0)
(-0.00124613 -0.276993 0)
(-0.00516795 -0.0422128 0)
(-0.00806678 0.119825 0)
(-0.0114748 0.223168 0)
(-0.0107804 0.288469 0)
(-0.00936074 0.33721 0)
(-0.00668944 0.368869 0)
(-0.00283999 0.385148 0)
(-6.84063e-05 0.390561 0)
(0.000412835 0.393754 0)
(0.000693984 0.3967 0)
(-0.00107649 0.390529 0)
(-0.00220375 0.377266 0)
(-0.00534527 0.378365 0)
(-0.00831719 0.384683 0)
(-0.011887 0.393458 0)
(-0.0134713 0.401733 0)
(-0.014133 0.402673 0)
(-0.0110279 0.393724 0)
(-0.00795446 0.372291 0)
(-0.00347723 0.33644 0)
(-0.000403921 0.259741 0)
(0.00323939 0.128972 0)
(0.000953984 -0.0450726 0)
(0.000501514 -0.299734 0)
(-0.000480608 -0.269778 0)
(-0.00265076 -0.0351691 0)
(-0.0027531 0.126485 0)
(-0.00269922 0.230273 0)
(-0.00241814 0.292642 0)
(-0.00225143 0.338362 0)
(-0.000353012 0.365162 0)
(0.00195486 0.382242 0)
(0.00267837 0.393406 0)
(0.0013298 0.397043 0)
(0.00236705 0.395834 0)
(0.00275242 0.388147 0)
(0.00304532 0.3767 0)
(0.000770208 0.38033 0)
(-0.00194667 0.389246 0)
(-0.0073718 0.398425 0)
(-0.0114037 0.401952 0)
(-0.0120396 0.397552 0)
(-0.0110235 0.386104 0)
(-0.00862416 0.366853 0)
(-0.00554652 0.329012 0)
(-0.000552098 0.25383 0)
(0.00222706 0.130447 0)
(0.00121316 -0.0399839 0)
(0.000700349 -0.293318 0)
(0.000211796 -0.266399 0)
(-0.000307049 -0.0320731 0)
(0.000326952 0.128414 0)
(0.0028061 0.232966 0)
(0.00516489 0.298162 0)
(0.00616095 0.342003 0)
(0.0080855 0.366883 0)
(0.00955556 0.382218 0)
(0.0106333 0.392995 0)
(0.0104346 0.394712 0)
(0.0106563 0.391717 0)
(0.0101643 0.384999 0)
(0.00931773 0.37614 0)
(0.00614672 0.381539 0)
(0.00171502 0.393173 0)
(-0.0038992 0.403897 0)
(-0.00870569 0.403772 0)
(-0.0115772 0.39819 0)
(-0.013751 0.384722 0)
(-0.0110401 0.362528 0)
(-0.00848288 0.325802 0)
(-0.00281044 0.247287 0)
(-0.000747146 0.134394 0)
(-0.000274684 -0.0366623 0)
(0.000616592 -0.287965 0)
(0.000800993 -0.265804 0)
(0.000454734 -0.0319504 0)
(0.00180224 0.126972 0)
(0.0051055 0.227943 0)
(0.00962859 0.2942 0)
(0.0134806 0.339163 0)
(0.0169249 0.364127 0)
(0.0190891 0.379572 0)
(0.0206311 0.391661 0)
(0.0208653 0.394445 0)
(0.0210518 0.391679 0)
(0.0200841 0.385168 0)
(0.0171253 0.377681 0)
(0.0109475 0.385491 0)
(0.00248144 0.399113 0)
(-0.00363027 0.410062 0)
(-0.00912167 0.412138 0)
(-0.0132138 0.405343 0)
(-0.0157236 0.386705 0)
(-0.0157909 0.359645 0)
(-0.0125105 0.318122 0)
(-0.00655514 0.241126 0)
(-0.00475752 0.133008 0)
(-0.0013293 -0.0384074 0)
(2.10282e-05 -0.285632 0)
(0.000959418 -0.265362 0)
(0.000697206 -0.0322857 0)
(0.00205615 0.122488 0)
(0.00607445 0.2206 0)
(0.0104405 0.286234 0)
(0.0160096 0.330762 0)
(0.0206306 0.359149 0)
(0.0236489 0.376028 0)
(0.0259515 0.387771 0)
(0.0283979 0.390163 0)
(0.0284844 0.390046 0)
(0.0272318 0.386023 0)
(0.0222234 0.385888 0)
(0.0130373 0.400039 0)
(0.00198988 0.412634 0)
(-0.0050907 0.418264 0)
(-0.0103946 0.418241 0)
(-0.013091 0.410009 0)
(-0.0154787 0.392093 0)
(-0.0176111 0.360707 0)
(-0.0149386 0.310775 0)
(-0.0100236 0.233745 0)
(-0.00688285 0.126185 0)
(-0.00159182 -0.0446064 0)
(-0.000598858 -0.284855 0)
(0.000908951 -0.26499 0)
(0.000753202 -0.0323974 0)
(0.00175749 0.117163 0)
(0.00586927 0.212185 0)
(0.00995987 0.276436 0)
(0.0154395 0.319461 0)
(0.0219227 0.350389 0)
(0.0261167 0.368975 0)
(0.0300538 0.380155 0)
(0.0327365 0.385158 0)
(0.0327647 0.38759 0)
(0.0301446 0.388072 0)
(0.0231789 0.395284 0)
(0.0143729 0.41247 0)
(0.00454332 0.42593 0)
(-0.00392257 0.429938 0)
(-0.00974306 0.425296 0)
(-0.0121771 0.414288 0)
(-0.0135774 0.394537 0)
(-0.0138832 0.359013 0)
(-0.0123685 0.303992 0)
(-0.00950605 0.223315 0)
(-0.00533203 0.114863 0)
(-0.000983157 -0.0493987 0)
(-0.000303112 -0.283768 0)
(0.00075732 -0.264641 0)
(0.00106755 -0.032416 0)
(0.00113838 0.111832 0)
(0.00394806 0.202223 0)
(0.00814765 0.266961 0)
(0.0128276 0.306675 0)
(0.0195867 0.337908 0)
(0.0244089 0.358543 0)
(0.029201 0.373149 0)
(0.0305362 0.381753 0)
(0.0303905 0.388206 0)
(0.0262607 0.394949 0)
(0.0190051 0.405425 0)
(0.00980469 0.425326 0)
(0.000934477 0.439511 0)
(-0.0051288 0.440394 0)
(-0.00865385 0.433005 0)
(-0.0109992 0.417803 0)
(-0.0102604 0.39367 0)
(-0.00830857 0.354218 0)
(-0.0063217 0.297538 0)
(-0.00460419 0.216714 0)
(-0.00145409 0.106928 0)
(0.000711745 -0.0495657 0)
(0.000660892 -0.279845 0)
(0.000710102 -0.263857 0)
(0.000807649 -0.0314446 0)
(0.00024995 0.11057 0)
(0.00017304 0.194365 0)
(0.0031897 0.25626 0)
(0.00641997 0.293726 0)
(0.0102708 0.324476 0)
(0.0140389 0.346787 0)
(0.0177505 0.363772 0)
(0.0186794 0.376908 0)
(0.0178154 0.38933 0)
(0.0143633 0.401478 0)
(0.00972729 0.415609 0)
(0.00337907 0.436869 0)
(-0.00182243 0.447739 0)
(-0.00542249 0.445507 0)
(-0.00715527 0.435512 0)
(-0.00776153 0.416356 0)
(-0.00554764 0.386424 0)
(-0.00262749 0.347423 0)
(-0.00053869 0.291402 0)
(0.00115668 0.210865 0)
(0.0025401 0.105596 0)
(0.00327129 -0.0460842 0)
(0.00117935 -0.272516 0)
(0.000454296 -0.261023 0)
(-0.000594223 -0.0287142 0)
(-0.001794 0.113337 0)
(-0.00438495 0.193598 0)
(-0.0049404 0.249891 0)
(-0.00426341 0.288361 0)
(-0.00334329 0.318026 0)
(-0.00243132 0.339477 0)
(-0.00158568 0.358423 0)
(-0.000489905 0.373978 0)
(0.000942517 0.388933 0)
(0.000899552 0.40368 0)
(-0.000365508 0.418559 0)
(-0.0029164 0.44036 0)
(-0.0054554 0.449125 0)
(-0.00592824 0.445161 0)
(-0.00509068 0.433343 0)
(-0.00328833 0.412906 0)
(-0.00133452 0.381631 0)
(0.0010678 0.340662 0)
(0.00325035 0.288117 0)
(0.00494401 0.210512 0)
(0.00531875 0.108972 0)
(0.00478303 -0.0383708 0)
(0.0015775 -0.263104 0)
(0.000234826 -0.256542 0)
(-0.00190293 -0.0237771 0)
(-0.00436918 0.118485 0)
(-0.00751537 0.198821 0)
(-0.0103912 0.251813 0)
(-0.0114818 0.286682 0)
(-0.0124672 0.314277 0)
(-0.0142707 0.336407 0)
(-0.0161283 0.352624 0)
(-0.0166537 0.365237 0)
(-0.0151619 0.380912 0)
(-0.0140107 0.398426 0)
(-0.0127857 0.41647 0)
(-0.0122381 0.438525 0)
(-0.0115698 0.4457 0)
(-0.00959212 0.43934 0)
(-0.00705106 0.425752 0)
(-0.00374272 0.406229 0)
(-0.000973085 0.376359 0)
(0.00257762 0.336176 0)
(0.00475583 0.28487 0)
(0.00736935 0.21306 0)
(0.00651967 0.115645 0)
(0.00552797 -0.0289173 0)
(0.00179423 -0.252792 0)
(-0.000547387 -0.248902 0)
(-0.00350351 -0.0147338 0)
(-0.00704308 0.126497 0)
(-0.0108437 0.205522 0)
(-0.0135835 0.256043 0)
(-0.0145794 0.289619 0)
(-0.0156967 0.318312 0)
(-0.0183078 0.342175 0)
(-0.0208286 0.358044 0)
(-0.0237052 0.367052 0)
(-0.0252387 0.377846 0)
(-0.025024 0.392553 0)
(-0.0233229 0.408094 0)
(-0.0212637 0.431114 0)
(-0.0187625 0.43582 0)
(-0.0147072 0.429975 0)
(-0.0120628 0.417908 0)
(-0.00718991 0.396915 0)
(-0.00346336 0.366653 0)
(0.00238452 0.327717 0)
(0.00429734 0.283549 0)
(0.00725026 0.215712 0)
(0.00576712 0.12287 0)
(0.00487951 -0.0206883 0)
(0.00144622 -0.243301 0)
(-0.00126522 -0.23849 0)
(-0.00513586 -0.00377307 0)
(-0.00777184 0.135273 0)
(-0.0107998 0.213322 0)
(-0.0144296 0.259582 0)
(-0.0144961 0.29091 0)
(-0.0147653 0.320368 0)
(-0.0157117 0.343298 0)
(-0.0161461 0.358238 0)
(-0.0197865 0.367759 0)
(-0.0247087 0.377355 0)
(-0.0294954 0.389024 0)
(-0.0305301 0.401155 0)
(-0.0283594 0.42378 0)
(-0.0248582 0.427457 0)
(-0.0195856 0.421264 0)
(-0.0148241 0.408432 0)
(-0.00878689 0.38612 0)
(-0.00406497 0.357877 0)
(0.00101301 0.322764 0)
(0.00335137 0.281865 0)
(0.00610382 0.21764 0)
(0.00513553 0.128687 0)
(0.0044015 -0.0138735 0)
(0.00090022 -0.234613 0)
(-0.000931916 -0.22817 0)
(-0.00563059 0.005662 0)
(-0.00677888 0.141456 0)
(-0.00757821 0.220665 0)
(-0.0114858 0.265069 0)
(-0.0128083 0.292604 0)
(-0.0135803 0.32129 0)
(-0.013532 0.343561 0)
(-0.0146849 0.362031 0)
(-0.019737 0.376031 0)
(-0.0271751 0.386927 0)
(-0.0350029 0.394201 0)
(-0.0378089 0.396668 0)
(-0.0352011 0.413081 0)
(-0.0302311 0.414371 0)
(-0.0244861 0.406487 0)
(-0.0179949 0.395499 0)
(-0.0119688 0.375563 0)
(-0.00686645 0.349522 0)
(-0.00171096 0.316732 0)
(0.00128525 0.279505 0)
(0.00377965 0.217768 0)
(0.0047709 0.13125 0)
(0.00377483 -0.00770226 0)
(0.000826036 -0.227487 0)
(-0.000676735 -0.217935 0)
(-0.00557878 0.0157184 0)
(-0.00717031 0.144462 0)
(-0.00532678 0.227948 0)
(-0.0098135 0.273874 0)
(-0.013375 0.299309 0)
(-0.0172322 0.324356 0)
(-0.0190783 0.345682 0)
(-0.02183 0.366487 0)
(-0.0266737 0.385214 0)
(-0.0326684 0.395879 0)
(-0.0382987 0.39874 0)
(-0.0397142 0.392243 0)
(-0.0372108 0.403262 0)
(-0.0328263 0.404598 0)
(-0.0283576 0.395841 0)
(-0.0222232 0.383129 0)
(-0.0154975 0.363852 0)
(-0.00974831 0.339681 0)
(-0.00500853 0.309633 0)
(-0.00163198 0.275657 0)
(0.000497087 0.215392 0)
(0.00339941 0.131191 0)
(0.00248355 -0.00296503 0)
(0.000806741 -0.221636 0)
(-0.000901654 -0.208889 0)
(-0.0044509 0.0254187 0)
(-0.00709606 0.145516 0)
(-0.00416696 0.232401 0)
(-0.00742048 0.285332 0)
(-0.0112144 0.31088 0)
(-0.0164586 0.333399 0)
(-0.0206085 0.350777 0)
(-0.0255256 0.37211 0)
(-0.0301243 0.389245 0)
(-0.03287 0.398756 0)
(-0.036398 0.398737 0)
(-0.0377298 0.386965 0)
(-0.0358382 0.393229 0)
(-0.0303943 0.393558 0)
(-0.0259718 0.384369 0)
(-0.0210497 0.369915 0)
(-0.0157368 0.352136 0)
(-0.0108228 0.330566 0)
(-0.00733305 0.304086 0)
(-0.00459386 0.271382 0)
(-0.0017221 0.210698 0)
(0.00191456 0.12785 0)
(0.00102818 -0.00103804 0)
(0.000507126 -0.218061 0)
(-0.00124701 -0.2 0)
(-0.00373172 0.0345152 0)
(-0.00678003 0.149908 0)
(-0.00487724 0.234069 0)
(-0.00447508 0.291849 0)
(-0.0076816 0.319135 0)
(-0.0111815 0.34384 0)
(-0.0166657 0.362779 0)
(-0.0219679 0.382381 0)
(-0.0257742 0.395097 0)
(-0.027576 0.401132 0)
(-0.0307227 0.39966 0)
(-0.0323761 0.382352 0)
(-0.0316832 0.381493 0)
(-0.0278591 0.379684 0)
(-0.0233389 0.376242 0)
(-0.0198081 0.362523 0)
(-0.0161316 0.343701 0)
(-0.0124546 0.323531 0)
(-0.00954041 0.297403 0)
(-0.00506904 0.263362 0)
(-0.00138358 0.200605 0)
(0.00110028 0.123348 0)
(-5.17159e-05 -0.000892918 0)
(0.000132586 -0.216015 0)
(-0.000962581 -0.191946 0)
(-0.00339768 0.0415313 0)
(-0.00612597 0.154227 0)
(-0.00550447 0.230932 0)
(-0.00258961 0.295293 0)
(-0.00430839 0.326781 0)
(-0.00711914 0.353678 0)
(-0.0118444 0.372398 0)
(-0.0151182 0.388564 0)
(-0.0174453 0.397634 0)
(-0.0187846 0.403311 0)
(-0.0213451 0.399837 0)
(-0.0227975 0.379547 0)
(-0.0246526 0.377583 0)
(-0.0251697 0.372361 0)
(-0.0226953 0.365857 0)
(-0.0185112 0.354232 0)
(-0.014928 0.337873 0)
(-0.0123979 0.317964 0)
(-0.0080783 0.286497 0)
(-0.0010883 0.251149 0)
(0.00155178 0.193842 0)
(0.00290816 0.122416 0)
(0.000793519 0.00138688 0)
(0.000538588 -0.213364 0)
(-0.000878268 -0.18571 0)
(-0.0025356 0.0477787 0)
(-0.00597066 0.158635 0)
(-0.00690749 0.230038 0)
(-0.00506702 0.294605 0)
(-0.00455397 0.332323 0)
(-0.00613886 0.362255 0)
(-0.00767741 0.379593 0)
(-0.00871619 0.392407 0)
(-0.0090662 0.400489 0)
(-0.0105557 0.405134 0)
(-0.0116155 0.401107 0)
(-0.0121627 0.381218 0)
(-0.0155332 0.379474 0)
(-0.0177075 0.370891 0)
(-0.0178542 0.359726 0)
(-0.0155418 0.345104 0)
(-0.0129322 0.328219 0)
(-0.00925247 0.306684 0)
(-0.00427015 0.269966 0)
(0.00153642 0.238808 0)
(0.00179059 0.18922 0)
(0.00391745 0.120253 0)
(0.00136387 0.00505747 0)
(0.00118146 -0.209069 0)
(-0.00133998 -0.177943 0)
(-0.00252092 0.0563227 0)
(-0.00661617 0.165061 0)
(-0.00822011 0.232997 0)
(-0.00912283 0.29466 0)
(-0.00620057 0.331426 0)
(-0.00530687 0.363231 0)
(-0.00449958 0.379674 0)
(-0.0034951 0.392763 0)
(-0.00238321 0.401559 0)
(-0.00290908 0.406259 0)
(-0.00225979 0.398573 0)
(-0.003679 0.38265 0)
(-0.00688537 0.382297 0)
(-0.00963016 0.371462 0)
(-0.00965117 0.356762 0)
(-0.00748274 0.338948 0)
(-0.0053451 0.318171 0)
(-0.0022868 0.294251 0)
(0.000329483 0.258541 0)
(0.00235046 0.233857 0)
(0.00161076 0.186365 0)
(0.00382259 0.118938 0)
(0.0007735 0.00785754 0)
(0.00150411 -0.204665 0)
(-0.00155815 -0.170856 0)
(-0.00228389 0.0629182 0)
(-0.00460901 0.172357 0)
(-0.00675143 0.237251 0)
(-0.00821958 0.293143 0)
(-0.00430665 0.3268 0)
(-0.00106003 0.361849 0)
(0.000751145 0.378352 0)
(0.00263213 0.39066 0)
(0.00362333 0.400496 0)
(0.00516989 0.405381 0)
(0.00691108 0.400376 0)
(0.00392336 0.38698 0)
(0.000863617 0.386149 0)
(-0.000902219 0.370201 0)
(0.000922593 0.350614 0)
(0.00345821 0.329945 0)
(0.00575603 0.308738 0)
(0.00810626 0.287852 0)
(0.00810241 0.253892 0)
(0.00734577 0.23211 0)
(0.00616732 0.184345 0)
(0.00605316 0.121625 0)
(0.00252449 0.0145179 0)
(0.00239393 -0.197184 0)
(-0.0010691 -0.165192 0)
(-0.0015458 0.065279 0)
(-0.0016081 0.176589 0)
(-0.00295644 0.241466 0)
(-0.00380529 0.290827 0)
(0.000250704 0.318431 0)
(0.00531436 0.353979 0)
(0.00953127 0.372878 0)
(0.0121061 0.388807 0)
(0.0130361 0.398953 0)
(0.0157065 0.401855 0)
(0.0169789 0.400843 0)
(0.0160465 0.391278 0)
(0.013209 0.387636 0)
(0.0121102 0.364835 0)
(0.0122766 0.343385 0)
(0.0131837 0.322699 0)
(0.014463 0.3003 0)
(0.0169646 0.2817 0)
(0.0159781 0.25243 0)
(0.0143514 0.233256 0)
(0.0112656 0.188305 0)
(0.00733735 0.129163 0)
(0.00408545 0.0212898 0)
(0.00276997 -0.187533 0)
(-0.000988024 -0.160472 0)
(-0.00124665 0.0677359 0)
(-0.000983935 0.177535 0)
(0.000440918 0.242697 0)
(0.00185657 0.286957 0)
(0.00649296 0.30897 0)
(0.0115351 0.343561 0)
(0.0154534 0.364175 0)
(0.017719 0.382715 0)
(0.0199655 0.393643 0)
(0.0226817 0.398032 0)
(0.0240467 0.398732 0)
(0.0254738 0.391024 0)
(0.0257638 0.390541 0)
(0.0236234 0.367732 0)
(0.0205758 0.343963 0)
(0.0189368 0.320379 0)
(0.0195948 0.295606 0)
(0.0204201 0.279374 0)
(0.0193342 0.253644 0)
(0.0179505 0.237951 0)
(0.0129617 0.200877 0)
(0.00861135 0.140349 0)
(0.00511106 0.0297974 0)
(0.00264378 -0.176661 0)
(-0.00102236 -0.156912 0)
(-0.000547217 0.0674814 0)
(0.000264109 0.17391 0)
(0.00344568 0.234853 0)
(0.00781661 0.277975 0)
(0.0116119 0.296872 0)
(0.0147932 0.333166 0)
(0.0170423 0.357062 0)
(0.0175288 0.377025 0)
(0.0195965 0.385629 0)
(0.022071 0.390811 0)
(0.0249923 0.393369 0)
(0.027474 0.383849 0)
(0.0298069 0.387907 0)
(0.0293121 0.372065 0)
(0.0256677 0.349945 0)
(0.0237 0.322579 0)
(0.0226441 0.296922 0)
(0.0218757 0.28065 0)
(0.0196282 0.256891 0)
(0.0170781 0.246047 0)
(0.0120986 0.211219 0)
(0.00964141 0.148822 0)
(0.00625172 0.038627 0)
(0.00242364 -0.165189 0)
(-0.00163199 -0.153442 0)
(-0.000454852 0.0657901 0)
(-0.000117994 0.16749 0)
(0.00358418 0.224931 0)
(0.00737745 0.269393 0)
(0.00912292 0.291496 0)
(0.00976612 0.328788 0)
(0.0110947 0.352102 0)
(0.0135844 0.370663 0)
(0.0172319 0.37959 0)
(0.0205058 0.382682 0)
(0.0240841 0.384046 0)
(0.0265039 0.377648 0)
(0.0290629 0.382266 0)
(0.0303047 0.371804 0)
(0.0279035 0.352048 0)
(0.025981 0.325837 0)
(0.0233387 0.300018 0)
(0.0213924 0.285908 0)
(0.0173808 0.26472 0)
(0.0145554 0.254811 0)
(0.0110393 0.218682 0)
(0.0106486 0.154232 0)
(0.00675537 0.0483051 0)
(0.00240724 -0.153099 0)
(-0.00236177 -0.146529 0)
(-0.00243416 0.0675864 0)
(-0.00303706 0.16485 0)
(-0.00168069 0.218525 0)
(0.000651797 0.264196 0)
(0.00139626 0.289049 0)
(0.00096294 0.322832 0)
(0.00292652 0.341459 0)
(0.00736498 0.356782 0)
(0.0125435 0.36557 0)