/*--------------------------------*- C++ -*----------------------------------*\
| =========                 |                                                 |
| \\      /  F ield         | OpenFOAM: The Open Source CFD Toolbox           |
|  \\    /   O peration     | Version:  2.3.0                                 |
|   \\  /    A nd           | Web:      www.OpenFOAM.org                      |
|    \\/     M anipulation  |                                                 |
\*---------------------------------------------------------------------------*/
FoamFile
{
    version     2.0;
    format      ascii;
    class       volVectorField;
    location    "22";
    object      U.water;
}
// * * * * * * * * * * * * * * * * * * * * * * * * * * * * * * * * * * * * * //

dimensions      [0 1 -1 0 0 0 0];

internalField   nonuniform List<vector> 
1875
(
(0.0764862 -0.203593 0)
(0.17498 -0.205558 0)
(0.280233 -0.193997 0)
(0.365941 -0.165916 0)
(0.424048 -0.12508 0)
(0.455056 -0.0992685 0)
(0.445875 -0.0680456 0)
(0.415653 -0.0229812 0)
(0.32779 0.02588 0)
(0.194789 0.0398456 0)
(0.0512943 0.0540047 0)
(-0.106732 0.101082 0)
(-0.234345 0.0760986 0)
(-0.357825 0.0147528 0)
(-0.458192 -0.0335458 0)
(-0.536208 -0.0765037 0)
(-0.585898 -0.115567 0)
(-0.611598 -0.144831 0)
(-0.617425 -0.169931 0)
(-0.603849 -0.191055 0)
(-0.579637 -0.225323 0)
(-0.523298 -0.26739 0)
(-0.422795 -0.328009 0)
(-0.269836 -0.4105 0)
(-0.136066 -0.438907 0)
(0.0937699 -0.43039 0)
(0.153822 -0.408214 0)
(0.248021 -0.310932 0)
(0.310925 -0.203735 0)
(0.356873 -0.0731057 0)
(0.371261 0.0758055 0)
(0.354533 0.14742 0)
(0.345792 0.273297 0)
(0.297902 0.359276 0)
(0.197125 0.333161 0)
(0.0810843 0.350813 0)
(-0.00925776 0.382233 0)
(-0.0955138 0.368986 0)
(-0.17243 0.369868 0)
(-0.230727 0.345616 0)
(-0.268745 0.301937 0)
(-0.249682 0.24634 0)
(-0.245502 0.196563 0)
(-0.202307 0.145386 0)
(-0.214835 0.0964743 0)
(-0.204113 0.0250799 0)
(-0.218783 -0.0808512 0)
(-0.211854 -0.270142 0)
(-0.142665 -0.54136 0)
(-0.0790228 -0.692625 0)
(0.0442729 -0.688315 0)
(0.0969882 -0.604115 0)
(0.145913 -0.452884 0)
(0.166179 -0.305157 0)
(0.191334 -0.160912 0)
(0.207635 -0.0469635 0)
(0.254897 0.074959 0)
(0.281029 0.254267 0)
(0.270329 0.42467 0)
(0.261107 0.516053 0)
(0.189844 0.543614 0)
(0.133572 0.531534 0)
(0.0789695 0.497527 0)
(0.0347564 0.448019 0)
(-0.0144513 0.348448 0)
(-0.0218533 0.232329 0)
(-0.0473669 0.0688315 0)
(-0.0155238 -0.100365 0)
(-0.00107175 -0.153616 0)
(0.0180073 -0.126988 0)
(0.0252407 -0.0934832 0)
(0.0328444 -0.149346 0)
(0.0210997 -0.239928 0)
(0.0148276 -0.50339 0)
(-0.0154523 -0.802381 0)
(0.011898 -0.763342 0)
(0.020817 -0.636749 0)
(0.0280116 -0.44023 0)
(0.0316528 -0.2592 0)
(0.0358851 -0.154821 0)
(0.0624298 -0.0756577 0)
(0.1224 0.0587181 0)
(0.168239 0.237382 0)
(0.223809 0.410954 0)
(0.246048 0.506971 0)
(0.256079 0.568068 0)
(0.24836 0.581428 0)
(0.240658 0.568556 0)
(0.230721 0.530444 0)
(0.217298 0.467387 0)
(0.190363 0.380459 0)
(0.175696 0.189752 0)
(0.134108 0.00280123 0)
(0.0345792 -0.072572 0)
(-0.0157343 -0.0888479 0)
(-0.0026042 -0.178315 0)
(0.0206086 -0.255789 0)
(0.051628 -0.339654 0)
(0.0641915 -0.509926 0)
(0.0329439 -0.79176 0)
(0.00143593 -0.781492 0)
(-0.00942405 -0.6419 0)
(-0.0102424 -0.456312 0)
(-0.0150487 -0.279539 0)
(-0.0232456 -0.21256 0)
(-0.0174435 -0.182446 0)
(0.0153476 -0.0936714 0)
(0.090567 0.107045 0)
(0.173799 0.30854 0)
(0.234695 0.439383 0)
(0.26962 0.526415 0)
(0.301368 0.55267 0)
(0.323255 0.55332 0)
(0.336582 0.532441 0)
(0.351849 0.477031 0)
(0.353255 0.427737 0)
(0.357839 0.359753 0)
(0.338712 0.248025 0)
(0.277717 0.13742 0)
(0.238733 -0.0126767 0)
(0.195053 -0.143009 0)
(0.175837 -0.247119 0)
(0.14773 -0.308105 0)
(0.090155 -0.44352 0)
(0.0294622 -0.669506 0)
(-0.0135803 -0.759528 0)
(-0.0202713 -0.62511 0)
(-0.0196107 -0.446249 0)
(-0.0249972 -0.249165 0)
(-0.0397682 -0.197797 0)
(-0.0498909 -0.18835 0)
(-0.0459983 -0.164405 0)
(-0.0137704 -0.0927506 0)
(0.0707496 0.0783514 0)
(0.173118 0.288487 0)
(0.24387 0.417364 0)
(0.309826 0.470023 0)
(0.353161 0.488383 0)
(0.388856 0.484135 0)
(0.409644 0.454958 0)
(0.421201 0.403923 0)
(0.428842 0.365927 0)
(0.438269 0.30441 0)
(0.423347 0.241484 0)
(0.404262 0.149256 0)
(0.372343 0.075645 0)
(0.309816 -0.032462 0)
(0.240818 -0.110804 0)
(0.145879 -0.265469 0)
(0.0313352 -0.55816 0)
(-0.00650982 -0.726217 0)
(-0.0179924 -0.61183 0)
(-0.017816 -0.448917 0)
(-0.0120194 -0.23602 0)
(-0.0176604 -0.156324 0)
(-0.0316408 -0.156969 0)
(-0.0397095 -0.16475 0)
(-0.0355327 -0.145727 0)
(-0.00844393 -0.092581 0)
(0.0641829 0.0418677 0)
(0.150267 0.182323 0)
(0.243613 0.291536 0)
(0.317811 0.37272 0)
(0.373564 0.410842 0)
(0.411901 0.413635 0)
(0.422914 0.387221 0)
(0.425081 0.360505 0)
(0.425994 0.3292 0)
(0.419984 0.290438 0)
(0.401028 0.229197 0)
(0.367724 0.167924 0)
(0.302108 0.0753112 0)
(0.225152 -0.00541023 0)
(0.116861 -0.171103 0)
(0.029019 -0.410449 0)
(-0.00583659 -0.709123 0)
(-0.0114134 -0.605602 0)
(-0.00762225 -0.476514 0)
(0.0110963 -0.262495 0)
(0.031723 -0.157783 0)
(0.0459155 -0.146278 0)
(0.0600009 -0.153777 0)
(0.0754896 -0.154579 0)
(0.0784422 -0.134464 0)
(0.0778957 -0.0852026 0)
(0.105824 -0.0150959 0)
(0.162112 0.0708951 0)
(0.221508 0.15589 0)
(0.293427 0.251673 0)
(0.356488 0.333423 0)
(0.387376 0.373287 0)
(0.394258 0.372543 0)
(0.393303 0.363408 0)
(0.382988 0.355713 0)
(0.375301 0.335419 0)
(0.346298 0.312135 0)
(0.300387 0.253444 0)
(0.195552 0.170157 0)
(0.0930771 0.0192297 0)
(0.00716823 -0.308501 0)
(-0.00596866 -0.689788 0)
(-0.00912677 -0.602531 0)
(-0.00439772 -0.501627 0)
(0.0158297 -0.335019 0)
(0.05892 -0.235625 0)
(0.0918718 -0.224143 0)
(0.134951 -0.22773 0)
(0.161971 -0.201958 0)
(0.16895 -0.147771 0)
(0.170935 -0.0681731 0)
(0.158045 -0.0221248 0)
(0.154896 0.00919208 0)
(0.177813 0.0516516 0)
(0.217354 0.11642 0)
(0.259655 0.197103 0)
(0.311871 0.298947 0)
(0.326792 0.354935 0)
(0.321081 0.37978 0)
(0.302829 0.379931 0)
(0.288225 0.402607 0)
(0.26658 0.417325 0)
(0.235358 0.401585 0)
(0.153114 0.334659 0)
(0.0570754 0.120478 0)
(0.0199991 -0.199073 0)
(-0.0016464 -0.682807 0)
(-0.0033341 -0.607179 0)
(0.00350001 -0.531879 0)
(0.0252335 -0.415719 0)
(0.0695407 -0.340114 0)
(0.100648 -0.335745 0)
(0.135217 -0.31778 0)
(0.158708 -0.256414 0)
(0.164554 -0.173001 0)
(0.176004 -0.0698432 0)
(0.167485 -0.00836444 0)
(0.161425 0.00545498 0)
(0.166997 0.0225324 0)
(0.178014 0.0598529 0)
(0.19464 0.14529 0)
(0.214242 0.25673 0)
(0.222348 0.354794 0)
(0.216241 0.424396 0)
(0.202381 0.448135 0)
(0.174596 0.456358 0)
(0.157675 0.506127 0)
(0.118786 0.513099 0)
(0.0856697 0.454113 0)
(0.00742588 0.232116 0)
(0.0120616 -0.148367 0)
(-0.00266655 -0.677497 0)
(-0.00200444 -0.616147 0)
(0.0031343 -0.55761 0)
(0.01823 -0.484282 0)
(0.050041 -0.405318 0)
(0.0655537 -0.384065 0)
(0.0686993 -0.349229 0)
(0.0776119 -0.25832 0)
(0.0696455 -0.171447 0)
(0.0891846 -0.0607178 0)
(0.0878911 -0.0164418 0)
(0.103963 -0.0135328 0)
(0.114959 0.0020724 0)
(0.112118 0.0529695 0)
(0.107294 0.151509 0)
(0.105637 0.267126 0)
(0.104363 0.36843 0)
(0.0959789 0.444107 0)
(0.0877992 0.487538 0)
(0.0662711 0.543254 0)
(0.0396571 0.592508 0)
(0.0257777 0.60338 0)
(-0.0418297 0.514971 0)
(-0.0100244 0.202664 0)
(0.00298351 -0.13084 0)
(-0.00205069 -0.673675 0)
(-0.00157289 -0.619769 0)
(0.000417279 -0.567218 0)
(0.00260084 -0.515016 0)
(0.0211563 -0.433302 0)
(0.0281958 -0.390875 0)
(0.0248534 -0.346111 0)
(0.0374686 -0.240952 0)
(0.0333646 -0.164606 0)
(0.0412039 -0.0707093 0)
(0.0522298 -0.0553616 0)
(0.0573227 -0.0488945 0)
(0.0557125 0.00312372 0)
(0.0374059 0.091929 0)
(0.0185341 0.196525 0)
(0.0049919 0.311225 0)
(-0.00685262 0.408503 0)
(-0.0143592 0.483915 0)
(-0.0247265 0.533644 0)
(-0.0405981 0.575783 0)
(-0.0817041 0.673111 0)
(-0.108946 0.691709 0)
(-0.100265 0.448109 0)
(-0.0274161 0.0974599 0)
(-0.0240449 -0.162172 0)
(-0.000373826 -0.674551 0)
(0.00252206 -0.621552 0)
(-0.000705248 -0.568507 0)
(-0.000965718 -0.527373 0)
(0.00275582 -0.457686 0)
(0.0133787 -0.395023 0)
(0.00936727 -0.359676 0)
(0.0125479 -0.267513 0)
(0.0230774 -0.181381 0)
(0.0253771 -0.107125 0)
(0.0394108 -0.0618463 0)
(0.024825 -0.029789 0)
(0.00994487 0.0471348 0)
(-0.0170761 0.137134 0)
(-0.0379576 0.239814 0)
(-0.0537402 0.34711 0)
(-0.0655789 0.432736 0)
(-0.0769488 0.49577 0)
(-0.0912701 0.562244 0)
(-0.13319 0.689433 0)
(-0.15675 0.746307 0)
(-0.156485 0.637042 0)
(-0.0967643 0.273265 0)
(-0.0415562 0.000205488 0)
(-0.0188322 -0.246315 0)
(0.0017404 -0.679557 0)
(0.00756122 -0.623596 0)
(0.00275832 -0.552928 0)
(-0.0031773 -0.527267 0)
(-0.00354892 -0.471757 0)
(0.00607292 -0.400487 0)
(-5.85178e-05 -0.354669 0)
(-0.00326482 -0.280166 0)
(0.0128899 -0.188061 0)
(0.00869944 -0.124384 0)
(0.0221104 -0.0574968 0)
(-0.00274322 0.00299068 0)
(-0.0161059 0.0937117 0)
(-0.0412367 0.185479 0)
(-0.0579928 0.279525 0)
(-0.0713399 0.373517 0)
(-0.083951 0.450267 0)
(-0.100569 0.528947 0)
(-0.137474 0.66276 0)
(-0.170406 0.750222 0)
(-0.180536 0.733185 0)
(-0.135202 0.540729 0)
(-0.0468235 0.15477 0)
(-0.0356814 -0.0346704 0)
(-0.0113326 -0.310603 0)
(0.0065159 -0.692737 0)
(0.0151086 -0.629639 0)
(0.01548 -0.536155 0)
(0.00187877 -0.503682 0)
(-0.00445545 -0.471798 0)
(-0.00177357 -0.397003 0)
(-0.00905981 -0.320522 0)
(-0.0267559 -0.275329 0)
(-0.0253664 -0.183723 0)
(-0.0290369 -0.118731 0)
(-0.0267233 -0.0253488 0)
(-0.0451051 0.0483032 0)
(-0.0466414 0.138211 0)
(-0.0689267 0.215904 0)
(-0.0770459 0.309837 0)
(-0.0970092 0.39791 0)
(-0.114545 0.491402 0)
(-0.158229 0.637259 0)
(-0.1945 0.742262 0)
(-0.199013 0.757689 0)
(-0.17363 0.670742 0)
(-0.0880567 0.325026 0)
(-0.0221733 0.0793262 0)
(-0.0177116 -0.0599164 0)
(-0.00617409 -0.354424 0)
(0.013852 -0.722863 0)
(0.0262761 -0.648346 0)
(0.02256 -0.527073 0)
(0.0185294 -0.479164 0)
(0.00767596 -0.451545 0)
(-0.000786302 -0.392552 0)
(0.00772942 -0.297369 0)
(-0.0297755 -0.231994 0)
(-0.0520219 -0.176707 0)
(-0.0703851 -0.100046 0)
(-0.0837864 -0.00707256 0)
(-0.0977156 0.0757362 0)
(-0.109399 0.177232 0)
(-0.130694 0.27142 0)
(-0.142557 0.370577 0)
(-0.166893 0.47916 0)
(-0.194598 0.601497 0)
(-0.216721 0.69942 0)
(-0.215282 0.734652 0)
(-0.202868 0.721163 0)
(-0.151811 0.499204 0)
(-0.0508015 0.143836 0)
(-0.0260266 0.0052318 0)
(-0.0119723 -0.0956849 0)
(-0.00541468 -0.380614 0)
(0.017015 -0.782104 0)
(0.0263827 -0.658242 0)
(0.021501 -0.5235 0)
(0.0198941 -0.472979 0)
(0.0168223 -0.436819 0)
(0.0132137 -0.382981 0)
(-0.000352311 -0.274988 0)
(-0.013326 -0.135025 0)
(-0.0802031 -0.108492 0)
(-0.101432 -0.0324842 0)
(-0.131461 0.0305976 0)
(-0.149778 0.128278 0)
(-0.180903 0.21571 0)
(-0.191065 0.320129 0)
(-0.207386 0.419939 0)
(-0.218537 0.518533 0)
(-0.220762 0.619847 0)
(-0.214023 0.683218 0)
(-0.197499 0.698552 0)
(-0.171241 0.625433 0)
(-0.0625796 0.287755 0)
(-0.0101927 0.0593004 0)
(-0.00624081 -0.0334256 0)
(-0.00269785 -0.111636 0)
(-0.00463361 -0.39361 0)
(0.0090843 -0.829568 0)
(0.0125744 -0.659611 0)
(0.00756841 -0.518843 0)
(0.0133067 -0.472693 0)
(0.0168087 -0.435235 0)
(0.0176265 -0.375638 0)
(-0.000337164 -0.259443 0)
(-0.0177761 -0.0841072 0)
(-0.0708784 -0.00969028 0)
(-0.12516 0.0116224 0)
(-0.165934 0.0990614 0)
(-0.196399 0.198388 0)
(-0.221422 0.269006 0)
(-0.234365 0.344132 0)
(-0.238367 0.426609 0)
(-0.230893 0.511883 0)
(-0.211026 0.596704 0)
(-0.171448 0.636601 0)
(-0.111986 0.621218 0)
(-0.034825 0.495126 0)
(0.0522798 0.189401 0)
(0.0589113 0.0425278 0)
(0.0445175 -0.0196606 0)
(0.0201334 -0.0810343 0)
(-0.00102968 -0.381563 0)
(0.0032019 -0.838111 0)
(-0.0058353 -0.642438 0)
(-0.0112459 -0.531218 0)
(0.000390159 -0.493239 0)
(0.010696 -0.443314 0)
(0.00753174 -0.363178 0)
(-0.0124952 -0.198991 0)
(-0.0465511 0.00195167 0)
(-0.0834048 0.0886971 0)
(-0.139954 0.128499 0)
(-0.189184 0.178685 0)
(-0.222922 0.241191 0)
(-0.239184 0.31143 0)
(-0.248689 0.363278 0)
(-0.249057 0.413937 0)
(-0.235762 0.469093 0)
(-0.191039 0.489699 0)
(-0.13242 0.460913 0)
(-0.0516859 0.384202 0)
(0.0281263 0.2851 0)
(0.0740246 0.141894 0)
(0.0662697 0.0711996 0)
(0.0460708 0.0381045 0)
(0.0189635 -0.0125749 0)
(-0.000858426 -0.371552 0)
(-0.00587213 -0.830322 0)
(-0.018359 -0.612872 0)
(-0.0270966 -0.542034 0)
(-0.0244985 -0.515714 0)
(-0.0213382 -0.452535 0)
(-0.0419615 -0.332831 0)
(-0.0636676 -0.126096 0)
(-0.089109 0.0701823 0)
(-0.105675 0.177978 0)
(-0.140476 0.224673 0)
(-0.154628 0.26778 0)
(-0.190081 0.303832 0)
(-0.211751 0.33225 0)
(-0.221246 0.361056 0)
(-0.221022 0.376672 0)
(-0.204037 0.369601 0)
(-0.1723 0.343833 0)
(-0.135877 0.288279 0)
(-0.0970923 0.212257 0)
(-0.062035 0.150784 0)
(-0.0280632 0.108097 0)
(-0.00968368 0.0852554 0)
(-0.00586316 0.06866 0)
(0.000886373 0.0151225 0)
(7.74477e-07 -0.366439 0)
(-0.018654 -0.788981 0)
(-0.0303487 -0.574447 0)
(-0.0484444 -0.519644 0)
(-0.0612998 -0.492923 0)
(-0.0767895 -0.406177 0)
(-0.103073 -0.24952 0)
(-0.108499 -0.054183 0)
(-0.1195 0.119417 0)
(-0.115193 0.191783 0)
(-0.119437 0.232406 0)
(-0.10336 0.287455 0)
(-0.103219 0.357927 0)
(-0.107752 0.389022 0)
(-0.118081 0.397849 0)
(-0.124619 0.391011 0)
(-0.119767 0.363514 0)
(-0.113176 0.320381 0)
(-0.102096 0.26133 0)
(-0.0954002 0.188285 0)
(-0.0943849 0.107115 0)
(-0.0859933 0.0342429 0)
(-0.0677259 0.00691998 0)
(-0.0352069 0.00824329 0)
(-0.0155698 -0.032155 0)
(-0.000540409 -0.384028 0)
(-0.0203491 -0.728968 0)
(-0.0332414 -0.530191 0)
(-0.0563409 -0.479031 0)
(-0.0796424 -0.454077 0)
(-0.102309 -0.361258 0)
(-0.118407 -0.219057 0)
(-0.126187 -0.0599056 0)
(-0.113871 0.107723 0)
(-0.104953 0.17563 0)
(-0.085777 0.20767 0)
(-0.0600618 0.251227 0)
(-0.0267508 0.322209 0)
(-0.0058401 0.378862 0)
(0.00901276 0.408883 0)
(0.0197262 0.402119 0)
(0.0306139 0.375207 0)
(0.0331335 0.341397 0)
(0.0290592 0.294977 0)
(0.0143665 0.232192 0)
(0.0050248 0.153111 0)
(-0.000139516 0.0593495 0)
(-0.00886654 -0.0245924 0)
(-0.00983808 -0.0437291 0)
(-0.00563678 -0.058306 0)
(0.00136903 -0.392239 0)
(-0.0114126 -0.682568 0)
(-0.0249772 -0.488114 0)
(-0.0497878 -0.429518 0)
(-0.0808791 -0.410996 0)
(-0.102545 -0.32924 0)
(-0.109509 -0.193569 0)
(-0.117951 -0.0574975 0)
(-0.100266 0.0643255 0)
(-0.0876567 0.110001 0)
(-0.0565824 0.124374 0)
(-0.0273655 0.145973 0)
(0.00592364 0.235477 0)
(0.0330557 0.31665 0)
(0.0529766 0.357493 0)
(0.0667443 0.361203 0)
(0.0794976 0.348282 0)
(0.0846478 0.329026 0)
(0.0872286 0.300994 0)
(0.0891441 0.249199 0)
(0.0978397 0.167066 0)
(0.0974688 0.0884826 0)
(0.0795404 0.0199992 0)
(0.0416509 -0.00774666 0)
(0.0110737 -0.034296 0)
(0.0048769 -0.37946 0)
(-0.00775146 -0.655272 0)
(-0.0161178 -0.445518 0)
(-0.0390751 -0.363503 0)
(-0.0719166 -0.350786 0)
(-0.0943321 -0.298217 0)
(-0.0996994 -0.186661 0)
(-0.102196 -0.078302 0)
(-0.0795901 0.0287771 0)
(-0.0675323 0.0581661 0)
(-0.0496969 0.0629547 0)
(-0.032519 0.08954 0)
(-0.014123 0.185042 0)
(0.00862764 0.270118 0)
(0.0279432 0.327385 0)
(0.0459186 0.344173 0)
(0.0568374 0.342188 0)
(0.0617918 0.328296 0)
(0.0767729 0.294309 0)
(0.105114 0.222088 0)
(0.122807 0.145342 0)
(0.118154 0.103145 0)
(0.0961652 0.0876689 0)
(0.0535194 0.0694232 0)
(0.0136206 0.0260572 0)
(0.00560323 -0.369318 0)
(-0.0102356 -0.627878 0)
(-0.0102673 -0.428245 0)
(-0.0213691 -0.306876 0)
(-0.0571139 -0.297195 0)
(-0.0866759 -0.260506 0)
(-0.0942549 -0.16668 0)
(-0.101337 -0.0950863 0)
(-0.0841065 -0.00973327 0)
(-0.0660298 0.035748 0)
(-0.0599138 0.0417485 0)
(-0.0572976 0.0697679 0)
(-0.0454725 0.158726 0)
(-0.0342948 0.2375 0)
(-0.020994 0.290186 0)
(-0.016059 0.31307 0)
(-0.0128683 0.309639 0)
(0.00111952 0.268225 0)
(0.0265861 0.19552 0)
(0.0568773 0.137412 0)
(0.0767334 0.138904 0)
(0.0684957 0.152616 0)
(0.0418698 0.161877 0)
(0.0303283 0.128248 0)
(0.00103755 0.0825153 0)
(0.0133564 -0.35909 0)
(-0.00977843 -0.605478 0)
(-0.00337942 -0.42689 0)
(-0.000966136 -0.265214 0)
(-0.0279486 -0.217831 0)
(-0.06828 -0.211381 0)
(-0.0823304 -0.150056 0)
(-0.0881949 -0.0825851 0)
(-0.0987232 -0.0462257 0)
(-0.0739987 0.0146858 0)
(-0.0686905 0.0401739 0)
(-0.0642336 0.0654606 0)
(-0.0515023 0.134275 0)
(-0.0308295 0.215137 0)
(-0.0193273 0.284214 0)
(-0.0166454 0.31576 0)
(-0.0201241 0.305426 0)
(-0.0192512 0.233877 0)
(-0.021433 0.14418 0)
(-0.0200604 0.106381 0)
(-0.0113911 0.133223 0)
(-0.00429811 0.173126 0)
(-0.00400856 0.172464 0)
(-0.00364551 0.135991 0)
(-0.013155 0.0817733 0)
(0.0205019 -0.350754 0)
(-0.00882321 -0.596315 0)
(0.00903854 -0.448583 0)
(0.0249122 -0.264653 0)
(0.0293248 -0.152656 0)
(-0.0110605 -0.147853 0)
(-0.0391248 -0.119185 0)
(-0.0426537 -0.0561194 0)
(-0.0460651 -0.0315108 0)
(-0.0696405 -0.0225666 0)
(-0.0779507 0.0161907 0)
(-0.0785083 0.0411701 0)
(-0.0632791 0.0800664 0)
(-0.0316712 0.170186 0)
(0.00259302 0.259057 0)
(0.0295324 0.315406 0)
(0.0278299 0.328839 0)
(0.0280203 0.276107 0)
(0.00323488 0.174687 0)
(-0.0274947 0.114774 0)
(-0.0365026 0.114863 0)
(-0.0262076 0.152434 0)
(-0.023503 0.16906 0)
(-0.0355283 0.143318 0)
(-0.0236662 0.0371412 0)
(0.0215704 -0.34822 0)
(-0.00626472 -0.595285 0)
(0.0255743 -0.496187 0)
(0.0503403 -0.31873 0)
(0.078394 -0.149283 0)
(0.0770917 -0.0710772 0)
(0.0379385 -0.0851975 0)
(0.00687088 -0.0708817 0)
(0.00653553 0.0090488 0)
(0.00218655 0.0716872 0)
(-0.0223468 0.0731602 0)
(-0.0386632 0.0371687 0)
(-0.0441705 0.0257098 0)
(-0.0360199 0.0567178 0)
(0.00167868 0.127893 0)
(0.0412369 0.259957 0)
(0.0824325 0.30133 0)
(0.0774229 0.309729 0)
(0.0626715 0.277651 0)
(0.0253652 0.195643 0)
(-0.00904709 0.12902 0)
(-0.013268 0.14477 0)
(-0.0124614 0.175715 0)
(-0.0449325 0.150544 0)
(-0.00302393 -0.0924669 0)
(0.00796104 -0.34303 0)
(-0.00110266 -0.638236 0)
(0.0423061 -0.57085 0)
(0.062106 -0.407066 0)
(0.0985247 -0.235754 0)
(0.1195 -0.0615188 0)
(0.104554 0.0107683 0)
(0.0722705 0.0017368 0)
(0.03006 0.000286926 0)
(0.0300952 0.0402109 0)
(0.0415595 0.0966251 0)
(0.0375217 0.102859 0)
(0.0268698 0.0834256 0)
(0.017826 0.0673744 0)
(0.0330392 0.0789089 0)
(0.036174 0.136854 0)
(0.0575491 0.256839 0)
(0.0566612 0.314741 0)
(0.0463676 0.301123 0)
(0.0305382 0.259666 0)
(0.00936721 0.188654 0)
(0.00104069 0.161828 0)
(0.000257803 0.20545 0)
(-0.0222398 0.156211 0)
(0.0250148 -0.131247 0)
(0.00946255 -0.326201 0)
(-0.00521201 -0.707812 0)
(0.0339945 -0.637966 0)
(0.041902 -0.478098 0)
(0.0604687 -0.300185 0)
(0.0849611 -0.132699 0)
(0.112796 0.0154843 0)
(0.103292 0.0798242 0)
(0.0822883 0.0745763 0)
(0.0664552 0.0638889 0)
(0.0765207 0.0712688 0)
(0.0948422 0.0880465 0)
(0.0922182 0.0716585 0)
(0.0645059 0.031129 0)
(0.0257659 0.053921 0)
(-0.0129614 0.155253 0)
(-0.0218028 0.281471 0)
(-0.0302643 0.336509 0)
(-0.0284312 0.331792 0)
(-0.0213487 0.269237 0)
(-0.0140705 0.193591 0)
(-0.020587 0.176641 0)
(-0.0133326 0.202484 0)
(0.00358851 0.123994 0)
(0.0481859 -0.130775 0)
(0.0277126 -0.264521 0)
(-0.0094808 -0.727545 0)
(-0.00485688 -0.657675 0)
(-0.0295481 -0.489435 0)
(-0.0222454 -0.319216 0)
(-0.0107487 -0.189864 0)
(0.0139198 -0.0656701 0)
(0.0457654 0.0283595 0)
(0.0394894 0.0421113 0)
(0.0330775 0.00948248 0)
(-0.0142192 0.00166269 0)
(-0.0265898 0.0860889 0)
(-0.0524674 0.165497 0)
(-0.15366 0.20622 0)
(-0.192735 0.265823 0)
(-0.235299 0.313427 0)
(-0.23487 0.340787 0)
(-0.197623 0.33341 0)
(-0.165927 0.279084 0)
(-0.116987 0.21225 0)
(-0.0941328 0.174534 0)
(-0.0671811 0.16214 0)
(-0.0318818 0.148161 0)
(0.0246458 0.0101951 0)
(0.0482855 -0.134774 0)
(0.0168302 -0.177917 0)
(-0.0363376 -0.664781 0)
(-0.103248 -0.55551 0)
(-0.172468 -0.353565 0)
(-0.210587 -0.212952 0)
(-0.237455 -0.133077 0)
(-0.254183 -0.00507496 0)
(-0.259661 0.0748117 0)
(-0.283903 0.116985 0)
(-0.339589 0.172186 0)
(-0.380098 0.219918 0)
(-0.417759 0.251127 0)
(-0.434066 0.269344 0)
(-0.442294 0.272778 0)
(-0.410309 0.273018 0)
(-0.385436 0.254914 0)
(-0.325175 0.219156 0)
(-0.277353 0.180068 0)
(-0.223393 0.127464 0)
(-0.178037 0.0924403 0)
(-0.14008 0.0766403 0)
(-0.0937167 0.0436182 0)
(-0.0449179 -0.00469609 0)
(-0.000366376 -0.0567491 0)
(0.01149 -0.0980381 0)
(0.00658799 -0.138229 0)
(-0.0535354 -0.455944 0)
(-0.142026 -0.37156 0)
(-0.225075 -0.206874 0)
(-0.293836 -0.0497899 0)
(-0.352132 0.0263141 0)
(-0.381291 0.10947 0)
(-0.40989 0.168932 0)
(-0.448849 0.201616 0)
(-0.472611 0.227988 0)
(-0.486819 0.237582 0)
(-0.491007 0.242112 0)
(-0.481871 0.233746 0)
(-0.461594 0.209275 0)
(-0.426461 0.165889 0)
(-0.391676 0.128965 0)
(-0.346352 0.0987806 0)
(-0.306971 0.0646575 0)
(-0.266238 0.0359581 0)
(-0.230203 0.00807968 0)
(-0.190182 -0.0175319 0)
(-0.147923 -0.0478599 0)
(-0.106249 -0.0743111 0)
(-0.0684207 -0.101994 0)
(-0.0366997 -0.128087 0)
(0.000889046 -0.137611 0)
(-0.0262609 -0.343665 0)
(-0.0789581 -0.266795 0)
(-0.15647 -0.118678 0)
(-0.225876 0.0131325 0)
(-0.276511 0.0877606 0)
(-0.330053 0.164896 0)
(-0.371223 0.219551 0)
(-0.411847 0.240865 0)
(-0.431387 0.2574 0)
(-0.445749 0.255706 0)
(-0.449522 0.230506 0)
(-0.442562 0.194133 0)
(-0.430347 0.147614 0)
(-0.413868 0.106838 0)
(-0.391312 0.0645842 0)
(-0.365312 0.0265245 0)
(-0.336305 -0.00956356 0)
(-0.304244 -0.0396025 0)
(-0.270376 -0.0699589 0)
(-0.233135 -0.101625 0)
(-0.192075 -0.135722 0)
(-0.147499 -0.170166 0)
(-0.101653 -0.201252 0)
(-0.0574127 -0.219692 0)
(-0.00877734 -0.20944 0)
(-0.0178962 -0.242646 0)
(-0.0388713 -0.189981 0)
(-0.0601186 -0.0174403 0)
(-0.101504 0.130959 0)
(-0.159203 0.229745 0)
(-0.227391 0.283156 0)
(-0.252722 0.333077 0)
(-0.283952 0.33934 0)
(-0.301532 0.313369 0)
(-0.313957 0.269885 0)
(-0.329643 0.225527 0)
(-0.339543 0.178211 0)
(-0.350903 0.120096 0)
(-0.357611 0.0604992 0)
(-0.363367 0.00459106 0)
(-0.362559 -0.0411468 0)
(-0.344308 -0.0847421 0)
(-0.319742 -0.123111 0)
(-0.291737 -0.156368 0)
(-0.259097 -0.195323 0)
(-0.222052 -0.240025 0)
(-0.17891 -0.281806 0)
(-0.12989 -0.313561 0)
(-0.0752349 -0.323003 0)
(-0.0398871 -0.301088 0)
(-0.00399159 -0.204927 0)
(-0.0150857 -0.174562 0)
(-0.00155743 -0.0182908 0)
(-0.00364444 0.13131 0)
(0.00397649 0.308846 0)
(-0.0236861 0.392595 0)
(-0.0651807 0.380572 0)
(-0.0803967 0.345155 0)
(-0.101104 0.338102 0)
(-0.116132 0.331767 0)
(-0.134025 0.315087 0)
(-0.15469 0.263922 0)
(-0.168369 0.194631 0)
(-0.186092 0.118093 0)
(-0.198501 0.051243 0)
(-0.215221 -0.0268662 0)
(-0.23194 -0.114558 0)
(-0.240544 -0.176718 0)
(-0.238319 -0.222163 0)
(-0.227259 -0.27088 0)
(-0.209461 -0.329295 0)
(-0.182217 -0.391423 0)
(-0.142895 -0.43946 0)
(-0.0894229 -0.461003 0)
(-0.0503334 -0.451664 0)
(0.000511798 -0.196757 0)
(0.0011556 -0.187918 0)
(0.0242567 -0.0571009 0)
(0.0531031 0.0927671 0)
(0.0763551 0.219156 0)
(0.116808 0.371117 0)
(0.140873 0.456999 0)
(0.121041 0.465437 0)
(0.0893566 0.440547 0)
(0.0515768 0.37428 0)
(0.0228006 0.298529 0)
(0.0111259 0.241436 0)
(-0.00977337 0.185741 0)
(-0.0206647 0.134299 0)
(-0.0321092 0.0707342 0)
(-0.0399315 0.00802369 0)
(-0.0533556 -0.0683143 0)
(-0.0755968 -0.1344 0)
(-0.0952917 -0.213144 0)
(-0.111333 -0.280485 0)
(-0.119501 -0.359767 0)
(-0.119463 -0.451892 0)
(-0.10449 -0.53786 0)
(-0.0696079 -0.594793 0)
(-0.0304396 -0.607146 0)
(0.00690962 -0.208233 0)
(0.0143905 -0.217574 0)
(0.0312742 -0.153204 0)
(0.0755769 0.0171972 0)
(0.109055 0.130856 0)
(0.141281 0.239643 0)
(0.202343 0.369702 0)
(0.240874 0.434875 0)
(0.27227 0.465026 0)
(0.26522 0.46142 0)
(0.2493 0.435733 0)
(0.218621 0.382483 0)
(0.190167 0.306234 0)
(0.160441 0.217882 0)
(0.134639 0.12968 0)
(0.111219 0.0466105 0)
(0.0912298 -0.0230435 0)
(0.0742218 -0.0957355 0)
(0.0566396 -0.168462 0)
(0.0334039 -0.236517 0)
(0.0126202 -0.318038 0)
(-0.0104931 -0.430233 0)
(-0.0279932 -0.559605 0)
(-0.0320108 -0.64846 0)
(-0.0106166 -0.678423 0)
(0.0120409 -0.24148 0)
(0.0248795 -0.245267 0)
(0.037025 -0.205692 0)
(0.0659932 -0.0908123 0)
(0.110384 0.0598484 0)
(0.142148 0.147792 0)
(0.178919 0.211034 0)
(0.233282 0.311142 0)
(0.287035 0.39918 0)
(0.325994 0.423196 0)
(0.353746 0.420289 0)
(0.370843 0.402839 0)
(0.368333 0.374137 0)
(0.356078 0.326132 0)
(0.332575 0.25965 0)
(0.296226 0.173527 0)
(0.255469 0.0806904 0)
(0.216362 -0.00955375 0)
(0.178781 -0.102587 0)
(0.143297 -0.182675 0)
(0.112439 -0.257511 0)
(0.0806609 -0.355541 0)
(0.0450139 -0.498728 0)
(0.0123104 -0.644914 0)
(0.000759295 -0.69604 0)
(0.0195756 -0.288464 0)
(0.0333933 -0.283704 0)
(0.0494518 -0.244939 0)
(0.0573411 -0.176704 0)
(0.0952201 -0.0404633 0)
(0.131737 0.0775745 0)
(0.154338 0.144629 0)
(0.178995 0.191365 0)
(0.221923 0.255629 0)
(0.273719 0.311855 0)
(0.326274 0.360459 0)
(0.36598 0.377908 0)
(0.387592 0.367331 0)
(0.39836 0.343945 0)
(0.389506 0.316007 0)
(0.37441 0.271436 0)
(0.339726 0.200079 0)
(0.296489 0.107449 0)
(0.248155 0.00357646 0)
(0.201379 -0.0893054 0)
(0.160535 -0.173164 0)
(0.123652 -0.271213 0)
(0.0871028 -0.408656 0)
(0.0442129 -0.574443 0)
(0.0218811 -0.659699 0)
(0.0277685 -0.356652 0)
(0.0384473 -0.326947 0)
(0.0499584 -0.264039 0)
(0.0524052 -0.207071 0)
(0.0699586 -0.121596 0)
(0.105643 0.00387221 0)
(0.133516 0.101425 0)
(0.144751 0.150544 0)
(0.166156 0.179231 0)
(0.200537 0.199487 0)
(0.243951 0.214748 0)
(0.299026 0.267249 0)
(0.350846 0.320761 0)
(0.37087 0.336916 0)
(0.369477 0.329254 0)
(0.358132 0.311334 0)
(0.337031 0.272034 0)
(0.29212 0.200689 0)
(0.244493 0.102254 0)
(0.201758 0.00495704 0)
(0.162315 -0.0851307 0)
(0.125226 -0.188224 0)
(0.091592 -0.328438 0)
(0.0507906 -0.493838 0)
(0.0291914 -0.57768 0)
(0.0239302 -0.435745 0)
(0.0311577 -0.345346 0)
(0.032379 -0.273681 0)
(0.0331239 -0.221404 0)
(0.0400036 -0.174352 0)
(0.068829 -0.0746227 0)
(0.105679 0.049934 0)
(0.127177 0.107053 0)
(0.15013 0.113356 0)
(0.182147 0.115251 0)
(0.217375 0.121708 0)
(0.246608 0.147483 0)
(0.280301 0.217407 0)
(0.296832 0.296912 0)
(0.292518 0.343776 0)
(0.272307 0.357203 0)
(0.239843 0.346192 0)
(0.210846 0.286797 0)
(0.185481 0.170886 0)
(0.15857 0.0749742 0)
(0.129527 -0.0140569 0)
(0.100396 -0.120793 0)
(0.07344 -0.263483 0)
(0.0421429 -0.428797 0)
(0.0241107 -0.507934 0)
(0.0111835 -0.476739 0)
(0.0161963 -0.342725 0)
(0.00433944 -0.262395 0)
(-0.00449534 -0.22375 0)
(0.00101104 -0.199459 0)
(0.0200758 -0.13814 0)
(0.0614355 -0.0249695 0)
(0.0969326 0.0417582 0)
(0.118801 0.047121 0)
(0.14093 0.0482711 0)
(0.154594 0.0695899 0)
(0.159151 0.138892 0)
(0.155328 0.250138 0)
(0.142449 0.355857 0)
(0.129038 0.414472 0)
(0.118995 0.422531 0)
(0.117542 0.390215 0)
(0.126663 0.28731 0)
(0.126395 0.193922 0)
(0.113039 0.119129 0)
(0.0950766 0.0363775 0)
(0.0751127 -0.0697679 0)
(0.0564984 -0.21385 0)
(0.0334951 -0.376161 0)
(0.0215953 -0.447972 0)
(-0.000254762 -0.492655 0)
(0.00987491 -0.322634 0)
(-0.00947788 -0.228179 0)
(-0.0191732 -0.216555 0)
(-0.0203451 -0.213766 0)
(-0.00827048 -0.189491 0)
(0.0229553 -0.110952 0)
(0.0621718 -0.0211523 0)
(0.0832171 0.00767951 0)
(0.0870762 0.0297299 0)
(0.0829375 0.0833493 0)
(0.0684263 0.187393 0)
(0.0506246 0.299692 0)
(0.039341 0.38001 0)
(0.0390842 0.410055 0)
(0.0478542 0.400868 0)
(0.0708881 0.331329 0)
(0.0886671 0.253903 0)
(0.0905134 0.198401 0)
(0.0827663 0.143335 0)
(0.0731078 0.064654 0)
(0.0603069 -0.0393346 0)
(0.0481381 -0.183478 0)
(0.0292583 -0.339113 0)
(0.0199079 -0.401323 0)
(-0.00389191 -0.502128 0)
(0.0118686 -0.321305 0)
(0.00664207 -0.204817 0)
(-0.00521378 -0.197476 0)
(-0.00800464 -0.230425 0)
(0.000543036 -0.230714 0)
(0.0141775 -0.18724 0)
(0.0392636 -0.0888606 0)
(0.057764 -0.0104869 0)
(0.0636173 0.0363416 0)
(0.0575238 0.108037 0)
(0.0496311 0.22257 0)
(0.0398237 0.327153 0)
(0.0363063 0.384709 0)
(0.0381724 0.393323 0)
(0.0520493 0.350377 0)
(0.0672784 0.283669 0)
(0.0747358 0.237211 0)
(0.0754258 0.20331 0)
(0.0724016 0.155557 0)
(0.068018 0.0810271 0)
(0.0597675 -0.0141397 0)
(0.0525239 -0.153033 0)
(0.0329878 -0.297731 0)
(0.0219115 -0.352506 0)
(-0.00363261 -0.520459 0)
(0.0177572 -0.347561 0)
(0.0269566 -0.209012 0)
(0.037792 -0.18853 0)
(0.0461353 -0.22999 0)
(0.0397863 -0.243466 0)
(0.0338799 -0.211431 0)
(0.0352756 -0.126156 0)
(0.0409416 -0.0396244 0)
(0.049754 0.0280704 0)
(0.0527283 0.107783 0)
(0.0604591 0.222671 0)
(0.0662198 0.333745 0)
(0.0731606 0.38448 0)
(0.0799747 0.382889 0)
(0.0869637 0.341259 0)
(0.0842648 0.276178 0)
(0.0815172 0.233287 0)
(0.0796551 0.203134 0)
(0.0789378 0.159176 0)
(0.0768636 0.093603 0)
(0.0697397 0.00832549 0)
(0.0641737 -0.124261 0)
(0.0416278 -0.248951 0)
(0.0248037 -0.293155 0)
(-0.00544693 -0.533592 0)
(0.0125448 -0.395897 0)
(0.02982 -0.262204 0)
(0.0607014 -0.227149 0)
(0.063719 -0.231716 0)
(0.0585102 -0.229467 0)
(0.0475326 -0.196607 0)
(0.0354543 -0.11306 0)
(0.0239281 -0.0421547 0)
(0.0230978 0.0182886 0)
(0.0325016 0.0857065 0)
(0.0555878 0.189734 0)
(0.0883848 0.299954 0)
(0.110708 0.360725 0)
(0.120703 0.368397 0)
(0.12146 0.352531 0)
(0.116721 0.301421 0)
(0.102244 0.249306 0)
(0.0907682 0.214203 0)
(0.0841736 0.171705 0)
(0.0776664 0.111726 0)
(0.0698927 0.0280727 0)
(0.0658782 -0.0984314 0)
(0.0438689 -0.193949 0)
(0.0229234 -0.226662 0)
(-0.00636294 -0.544534 0)
(0.0068399 -0.425609 0)
(0.0132126 -0.335989 0)
(0.040843 -0.275829 0)
(0.0489783 -0.24346 0)
(0.0464152 -0.215185 0)
(0.0324582 -0.167969 0)
(0.0164911 -0.0783549 0)
(0.00292698 -0.0128219 0)
(-0.00334792 0.0148895 0)
(0.00796896 0.0497493 0)
(0.0295699 0.106809 0)
(0.0647618 0.215704 0)
(0.101828 0.324169 0)
(0.109668 0.363683 0)
(0.109788 0.35767 0)
(0.1065 0.333109 0)
(0.0950317 0.290929 0)
(0.0865176 0.246955 0)
(0.0732615 0.19188 0)
(0.0601719 0.131328 0)
(0.057007 0.031902 0)
(0.0543401 -0.0801379 0)
(0.0355056 -0.143515 0)
(0.0151835 -0.164368 0)
(-0.0148484 -0.544219 0)
(-0.00449145 -0.43347 0)
(-0.0136584 -0.359051 0)
(-0.00579691 -0.303716 0)
(-0.00452305 -0.249942 0)
(-0.0104103 -0.196002 0)
(-0.0238761 -0.124974 0)
(-0.0344641 -0.0498915 0)
(-0.035392 0.00195827 0)
(-0.0307034 0.00161254 0)
(-0.0158347 0.0181561 0)
(0.001536 0.067657 0)
(0.01745 0.155622 0)
(0.0459459 0.277403 0)
(0.0648971 0.354553 0)
(0.0678679 0.351763 0)
(0.0667394 0.33114 0)
(0.0567295 0.2927 0)
(0.0483656 0.268814 0)
(0.0303434 0.233008 0)
(0.0296383 0.147894 0)
(0.0361611 0.0294444 0)
(0.0290473 -0.0519771 0)
(0.0161501 -0.103804 0)
(0.0039542 -0.126681 0)
(-0.0337992 -0.504551 0)
(-0.0337913 -0.411825 0)
(-0.0611103 -0.338919 0)
(-0.0638597 -0.286973 0)
(-0.0690813 -0.228691 0)
(-0.069423 -0.163842 0)