/*--------------------------------*- C++ -*----------------------------------*\
| =========                 |                                                 |
| \\      /  F ield         | OpenFOAM: The Open Source CFD Toolbox           |
|  \\    /   O peration     | Version:  2.3.0                                 |
|   \\  /    A nd           | Web:      www.OpenFOAM.org                      |
|    \\/     M anipulation  |                                                 |
\*---------------------------------------------------------------------------*/
FoamFile
{
    version     2.0;
    format      ascii;
    class       volVectorField;
    location    "22";
    object      U.waterMean;
}
// * * * * * * * * * * * * * * * * * * * * * * * * * * * * * * * * * * * * * //

dimensions      [0 1 -1 0 0 0 0];

internalField   nonuniform List<vector> 
1875
(
(0.0939699 -0.275831 0)
(0.152291 -0.261916 0)
(0.24208 -0.223205 0)
(0.297403 -0.185172 0)
(0.321203 -0.149695 0)
(0.319644 -0.120355 0)
(0.297247 -0.0986107 0)
(0.257142 -0.0766693 0)
(0.204526 -0.0617881 0)
(0.139823 -0.0512446 0)
(0.0708159 -0.0422439 0)
(0.00163667 -0.0443466 0)
(-0.0689024 -0.0505021 0)
(-0.135361 -0.0587482 0)
(-0.19675 -0.0701775 0)
(-0.251882 -0.0809069 0)
(-0.296878 -0.0940689 0)
(-0.330728 -0.110644 0)
(-0.351031 -0.126273 0)
(-0.356545 -0.144096 0)
(-0.344179 -0.165987 0)
(-0.311788 -0.193907 0)
(-0.25136 -0.229025 0)
(-0.158778 -0.270416 0)
(-0.0966261 -0.285174 0)
(0.0419246 -0.367027 0)
(0.0950738 -0.268339 0)
(0.137773 -0.13194 0)
(0.160886 -0.0261828 0)
(0.166359 0.0585174 0)
(0.16183 0.129028 0)
(0.147504 0.178538 0)
(0.123626 0.212708 0)
(0.0963189 0.236098 0)
(0.0645782 0.248904 0)
(0.031146 0.254594 0)
(-0.0020193 0.259261 0)
(-0.037391 0.261707 0)
(-0.0709067 0.255454 0)
(-0.101834 0.246195 0)
(-0.128712 0.231506 0)
(-0.149319 0.211567 0)
(-0.165415 0.1839 0)
(-0.176243 0.144795 0)
(-0.181248 0.0927527 0)
(-0.177292 0.0244495 0)
(-0.167119 -0.0516591 0)
(-0.140162 -0.15394 0)
(-0.0946213 -0.290737 0)
(-0.0444293 -0.389643 0)
(0.0148805 -0.498325 0)
(0.0201326 -0.351212 0)
(0.0163042 -0.221235 0)
(0.0144685 -0.118659 0)
(0.0138413 -0.0318824 0)
(0.0152255 0.0419453 0)
(0.0163416 0.107405 0)
(0.013031 0.154329 0)
(0.00875048 0.180709 0)
(0.00418377 0.199935 0)
(-0.0020665 0.212352 0)
(-0.00975457 0.213319 0)
(-0.0169855 0.209274 0)
(-0.0228692 0.192838 0)
(-0.0276126 0.168333 0)
(-0.0266734 0.136752 0)
(-0.0256987 0.101709 0)
(-0.0208048 0.0649033 0)
(-0.0175095 0.0200188 0)
(-0.0107379 -0.0339013 0)
(-0.00413065 -0.0931749 0)
(-0.00676354 -0.152287 0)
(-0.0114899 -0.231979 0)
(-0.0202275 -0.360273 0)
(-0.0148897 -0.512796 0)
(-0.00119595 -0.491994 0)
(-0.0118888 -0.308958 0)
(-0.0258627 -0.178384 0)
(-0.0344319 -0.0765144 0)
(-0.0365806 0.0101533 0)
(-0.0345367 0.0847234 0)
(-0.0277531 0.144553 0)
(-0.0228621 0.187998 0)
(-0.0169299 0.216235 0)
(-0.0100519 0.236308 0)
(-0.00308066 0.24936 0)
(0.00499144 0.257906 0)
(0.0122616 0.258076 0)
(0.0192724 0.241719 0)
(0.0270321 0.215961 0)
(0.0346172 0.187468 0)
(0.0418183 0.157124 0)
(0.0475566 0.119311 0)
(0.0527404 0.0767607 0)
(0.0569192 0.0202227 0)
(0.0576278 -0.0421319 0)
(0.0507922 -0.106717 0)
(0.0378696 -0.185598 0)
(0.0179138 -0.311052 0)
(0.00323184 -0.508258 0)
(-0.00209679 -0.488274 0)
(-0.0133989 -0.308957 0)
(-0.027545 -0.175504 0)
(-0.0451915 -0.0821416 0)
(-0.0543611 -0.010013 0)
(-0.0560313 0.0545792 0)
(-0.0501806 0.111995 0)
(-0.0429544 0.15128 0)
(-0.034304 0.177 0)
(-0.0232455 0.19331 0)
(-0.0097432 0.20119 0)
(0.00537267 0.210859 0)
(0.020149 0.209934 0)
(0.0367641 0.195844 0)
(0.052209 0.171357 0)
(0.0652856 0.14492 0)
(0.0772106 0.111771 0)
(0.087457 0.0795802 0)
(0.0937755 0.0414196 0)
(0.0949906 -0.00250582 0)
(0.0877807 -0.0533897 0)
(0.0727318 -0.102242 0)
(0.0475347 -0.172423 0)
(0.0228008 -0.298976 0)
(0.00550981 -0.494782 0)
(0.00168633 -0.479648 0)
(-0.0076804 -0.282151 0)
(-0.016388 -0.127224 0)
(-0.0361127 -0.0274179 0)
(-0.0513976 0.0318945 0)
(-0.0617923 0.0776942 0)
(-0.0615863 0.117003 0)
(-0.0580462 0.151215 0)
(-0.0497867 0.169503 0)
(-0.0380482 0.177749 0)
(-0.0233234 0.180928 0)
(-0.00519035 0.185643 0)
(0.0148164 0.184863 0)
(0.0360592 0.170811 0)
(0.0563418 0.154477 0)
(0.0736165 0.133839 0)
(0.0871389 0.113189 0)
(0.0972816 0.0902017 0)
(0.100606 0.0658422 0)
(0.096816 0.0389524 0)
(0.0824474 0.00879013 0)
(0.0610436 -0.0294493 0)
(0.0327395 -0.104945 0)
(0.0141319 -0.252122 0)
(0.0011791 -0.471081 0)
(-8.98326e-05 -0.480986 0)
(-0.00312452 -0.286855 0)
(-0.00805027 -0.120101 0)
(-0.0213956 -0.00432271 0)
(-0.0407035 0.0557763 0)
(-0.0535584 0.0920872 0)
(-0.0605226 0.119096 0)
(-0.0611944 0.138038 0)
(-0.0554872 0.143518 0)
(-0.0450056 0.14163 0)
(-0.0311814 0.136632 0)
(-0.0144691 0.131852 0)
(0.00682248 0.122854 0)
(0.028722 0.110434 0)
(0.0483608 0.100323 0)
(0.0646552 0.0906804 0)
(0.0770854 0.0793972 0)
(0.0831638 0.072536 0)
(0.0824788 0.0654595 0)
(0.0743855 0.0561399 0)
(0.0573423 0.0370716 0)
(0.0336759 0.00371516 0)
(0.0138858 -0.0904095 0)
(0.00302452 -0.251221 0)
(-0.000548855 -0.470987 0)
(0.00260467 -0.479192 0)
(-0.000220593 -0.276677 0)
(-0.00252347 -0.0986446 0)
(-0.00989902 0.0369073 0)
(-0.0284832 0.10313 0)
(-0.0429932 0.128973 0)
(-0.0541992 0.140979 0)
(-0.0563215 0.1462 0)
(-0.0530449 0.139572 0)
(-0.0432523 0.125964 0)
(-0.0298642 0.112078 0)
(-0.0144321 0.0981969 0)
(0.00580222 0.0854734 0)
(0.0254631 0.0756353 0)
(0.0425891 0.0717287 0)
(0.0559045 0.0718636 0)
(0.0650207 0.0768923 0)
(0.0664436 0.0851999 0)
(0.0620962 0.0928925 0)
(0.0508916 0.0998596 0)
(0.0324184 0.098142 0)
(0.0107387 0.0585032 0)
(-0.0051792 -0.0592735 0)
(-0.00413557 -0.248572 0)
(-0.00582731 -0.475241 0)
(0.00221966 -0.48693 0)
(0.0029678 -0.282457 0)
(0.00267196 -0.101898 0)
(0.00248523 0.0476469 0)
(-0.0095399 0.130694 0)
(-0.024898 0.155816 0)
(-0.037432 0.158265 0)
(-0.0421057 0.143935 0)
(-0.0413679 0.121021 0)
(-0.0348767 0.0974592 0)
(-0.0246119 0.0778345 0)
(-0.00944051 0.0562421 0)
(0.00794177 0.0395024 0)
(0.0245259 0.0322235 0)
(0.0376071 0.0356833 0)
(0.0450494 0.0484087 0)
(0.0477524 0.066986 0)
(0.0462438 0.0910111 0)
(0.0387541 0.114648 0)
(0.0256163 0.13458 0)
(0.00834194 0.134898 0)
(-0.00734823 0.0826168 0)
(-0.0120531 -0.0632192 0)
(-0.00817055 -0.262785 0)
(-0.00514914 -0.492553 0)
(0.00403654 -0.49571 0)
(0.00801928 -0.285938 0)
(0.0103724 -0.102157 0)
(0.0141116 0.0573457 0)
(0.0106538 0.160597 0)
(-0.00278354 0.192409 0)
(-0.0140392 0.183646 0)
(-0.0211855 0.15882 0)
(-0.0240655 0.126707 0)
(-0.0223771 0.0927999 0)
(-0.0167846 0.0596261 0)
(-0.00613235 0.0294872 0)
(0.00385056 0.0135916 0)
(0.0148822 0.0150506 0)
(0.0230467 0.0296824 0)
(0.0304398 0.0511279 0)
(0.0305385 0.0788724 0)
(0.0261784 0.112 0)
(0.0150998 0.145731 0)
(0.000742027 0.172986 0)
(-0.0135564 0.171004 0)
(-0.0234051 0.0974678 0)
(-0.0178391 -0.0695377 0)
(-0.0121317 -0.27282 0)
(-0.00503131 -0.510589 0)
(0.00504601 -0.516839 0)
(0.0107476 -0.305079 0)
(0.0169574 -0.117819 0)
(0.0240428 0.0479212 0)
(0.0261589 0.166883 0)
(0.0212694 0.211714 0)
(0.0101137 0.203319 0)
(0.00122084 0.168827 0)
(-0.00460214 0.12611 0)
(-0.00787986 0.0823071 0)
(-0.0058362 0.0425598 0)
(-0.00356282 0.0143246 0)
(7.70274e-06 -0.0080791 0)
(0.00817149 -0.011936 0)
(0.0132834 0.00371479 0)
(0.0193644 0.03958 0)
(0.0177038 0.0846234 0)
(0.0111362 0.133559 0)
(-0.000715031 0.177486 0)
(-0.0150625 0.208533 0)
(-0.0280173 0.19235 0)
(-0.0306195 0.0905446 0)
(-0.0200557 -0.0948593 0)
(-0.0135502 -0.297607 0)
(-0.00333466 -0.535556 0)
(0.00473303 -0.53511 0)
(0.0105696 -0.321821 0)
(0.0173344 -0.132067 0)
(0.0279596 0.0377209 0)
(0.0339038 0.166481 0)
(0.0354619 0.226629 0)
(0.0294538 0.226578 0)
(0.0199209 0.190837 0)
(0.0126686 0.145667 0)
(0.00660147 0.0952322 0)
(0.00368274 0.0491491 0)
(0.00375181 0.0145872 0)
(0.00443122 -0.00903279 0)
(0.00512884 -0.0156486 0)
(0.00340437 0.00368937 0)
(0.00283474 0.0421316 0)
(0.000133612 0.0970012 0)
(-0.00340882 0.157498 0)
(-0.0147627 0.211449 0)
(-0.0256242 0.240437 0)
(-0.0344193 0.206553 0)
(-0.0282847 0.0762936 0)
(-0.0176995 -0.110565 0)
(-0.0101263 -0.318721 0)
(-0.0029773 -0.55323 0)
(0.00373395 -0.553789 0)
(0.00789541 -0.338115 0)
(0.0132251 -0.152356 0)
(0.022637 0.0145225 0)
(0.0331914 0.152429 0)
(0.0382181 0.22604 0)
(0.0389198 0.238598 0)
(0.0322305 0.206557 0)
(0.0249172 0.15419 0)
(0.019877 0.0975741 0)
(0.0155371 0.0518916 0)
(0.0130199 0.0182213 0)
(0.0130131 -0.00614991 0)
(0.00954499 -0.00602013 0)
(0.00246504 0.014697 0)
(-0.00286494 0.0507013 0)
(-0.00867402 0.10176 0)
(-0.0134578 0.166374 0)
(-0.0201331 0.231141 0)
(-0.0271925 0.253759 0)
(-0.0277245 0.202529 0)
(-0.0157646 0.0567067 0)
(-0.00815494 -0.127095 0)
(-0.00368989 -0.335641 0)
(-0.00158373 -0.565206 0)
(0.00258802 -0.56697 0)
(0.00584321 -0.347329 0)
(0.00914137 -0.164786 0)
(0.0157968 -0.00457716 0)
(0.0276898 0.130603 0)
(0.0371058 0.217116 0)
(0.0420274 0.23866 0)
(0.042637 0.219143 0)
(0.0382229 0.171204 0)
(0.032228 0.115311 0)
(0.0263627 0.064141 0)
(0.022925 0.0243795 0)
(0.0203068 0.00521659 0)
(0.0157466 0.0150102 0)
(0.0076812 0.0357799 0)
(0.00255102 0.0697121 0)
(-0.00699944 0.115645 0)
(-0.0154125 0.180293 0)
(-0.0214598 0.245412 0)
(-0.0233902 0.256611 0)
(-0.0161005 0.185392 0)
(-0.00488212 0.0388036 0)
(-0.00116415 -0.134634 0)
(-0.000207256 -0.339837 0)
(-0.00125334 -0.571082 0)
(0.00142215 -0.576575 0)
(0.00269473 -0.354841 0)
(0.00470408 -0.175216 0)
(0.00839538 -0.0212259 0)
(0.0162869 0.104462 0)
(0.0278697 0.196155 0)
(0.0358903 0.227228 0)
(0.0408381 0.213622 0)
(0.0417578 0.17779 0)
(0.0422551 0.1232 0)
(0.0382511 0.0760623 0)
(0.0328677 0.0345101 0)
(0.0280582 0.0129175 0)
(0.0230095 0.0238483 0)
(0.0144601 0.0476154 0)
(0.0065244 0.0863645 0)
(-0.00553285 0.135913 0)
(-0.0135455 0.198331 0)
(-0.0197674 0.249651 0)
(-0.0165335 0.247944 0)
(-0.00666463 0.169033 0)
(0.00168502 0.0257311 0)
(0.00146317 -0.139434 0)
(0.000876256 -0.341829 0)
(-0.000577988 -0.576345 0)
(-2.22307e-05 -0.578823 0)
(-0.00111692 -0.354536 0)
(-0.00248994 -0.175947 0)
(-0.0020449 -0.0251641 0)
(0.0020692 0.0913756 0)
(0.0111359 0.173755 0)
(0.0225214 0.211176 0)
(0.030914 0.202065 0)
(0.0379356 0.168611 0)
(0.0434074 0.12637 0)
(0.0408067 0.0908053 0)
(0.0364427 0.0525513 0)
(0.0300022 0.0310476 0)
(0.023019 0.0445545 0)
(0.0146848 0.0758169 0)
(0.00590345 0.113845 0)
(-0.00306759 0.158265 0)
(-0.00913223 0.210304 0)
(-0.0117219 0.248666 0)
(-0.00704226 0.231572 0)
(0.0031035 0.147804 0)
(0.00749492 0.0207989 0)
(0.00368705 -0.137125 0)
(0.00269276 -0.340865 0)
(0.000383566 -0.576677 0)
(-0.000607019 -0.577443 0)
(-0.00333393 -0.35126 0)
(-0.00716331 -0.168565 0)
(-0.0100404 -0.024026 0)
(-0.00857563 0.0808917 0)
(-0.00351134 0.152213 0)
(0.00915775 0.184805 0)
(0.0188901 0.175589 0)
(0.0261471 0.145648 0)
(0.0309454 0.118358 0)
(0.0326445 0.0920069 0)
(0.0326737 0.0612772 0)
(0.0312725 0.0464788 0)
(0.024162 0.0590872 0)
(0.0184037 0.0875897 0)
(0.0112565 0.126881 0)
(0.00377152 0.168395 0)
(-0.000645998 0.21838 0)
(-0.00136114 0.245454 0)
(0.00562542 0.216256 0)
(0.0107277 0.139315 0)
(0.0105119 0.0260475 0)
(0.00846484 -0.131218 0)
(0.00551164 -0.335796 0)
(0.00120723 -0.573169 0)
(-0.000765475 -0.574358 0)
(-0.00327093 -0.3468 0)
(-0.00590929 -0.160429 0)
(-0.00909254 -0.0192668 0)
(-0.00920272 0.0779601 0)
(-0.00517606 0.136492 0)
(0.00461894 0.161413 0)
(0.0111614 0.15633 0)
(0.0154666 0.13256 0)
(0.0165576 0.107071 0)
(0.0208697 0.0848842 0)
(0.0212779 0.0612984 0)
(0.02233 0.0509941 0)
(0.0189339 0.0710865 0)
(0.0133806 0.104414 0)
(0.00655128 0.144847 0)
(0.0010835 0.183562 0)
(-0.00135933 0.217519 0)
(0.00301247 0.232945 0)
(0.00903811 0.207476 0)
(0.0126645 0.137662 0)
(0.0120316 0.0302337 0)
(0.0118519 -0.124712 0)
(0.00724799 -0.325443 0)
(0.0014413 -0.56554 0)
(-7.28455e-05 -0.572411 0)
(-0.00247911 -0.345756 0)
(-0.00298826 -0.159747 0)
(-0.00169775 -0.0176288 0)
(-0.000824706 0.0734715 0)
(0.00233776 0.125052 0)
(0.00723322 0.147015 0)
(0.0107368 0.144647 0)
(0.0116218 0.125059 0)
(0.0105455 0.100811 0)
(0.0101214 0.0790953 0)
(0.00700846 0.0610447 0)
(0.00322783 0.0549511 0)
(-0.00253308 0.0797415 0)
(-0.00586492 0.11762 0)
(-0.00923009 0.151588 0)
(-0.00857453 0.186928 0)
(-0.00540363 0.211453 0)
(-0.00119416 0.219702 0)
(0.00402997 0.198356 0)
(0.00901486 0.13563 0)
(0.00953673 0.0329344 0)
(0.0107846 -0.118925 0)
(0.00608157 -0.314589 0)
(0.000353618 -0.558403 0)
(-0.000460077 -0.571101 0)
(-0.00353145 -0.343943 0)
(-0.00348153 -0.161442 0)
(-0.00138321 -0.0258769 0)
(0.00262309 0.0653566 0)
(0.00740332 0.118965 0)
(0.0115371 0.143669 0)
(0.0136586 0.145216 0)
(0.0131087 0.132727 0)
(0.00835341 0.111383 0)
(0.00200319 0.0962268 0)
(-0.00805153 0.0833966 0)
(-0.0174864 0.0739397 0)
(-0.0242725 0.0873097 0)
(-0.0255936 0.119672 0)
(-0.0255307 0.150688 0)
(-0.0224989 0.176066 0)
(-0.016072 0.196414 0)
(-0.012763 0.208957 0)
(-0.00558465 0.183993 0)
(0.000653097 0.125425 0)
(0.00443139 0.0285623 0)
(0.00613261 -0.11631 0)
(0.00313524 -0.30842 0)
(-0.000823762 -0.556758 0)
(-0.00106469 -0.566571 0)
(-0.00593367 -0.339958 0)
(-0.0068902 -0.162547 0)
(-0.00541707 -0.0331938 0)
(-0.00184903 0.0526915 0)
(0.00379176 0.104143 0)
(0.00995617 0.133681 0)
(0.0105498 0.141927 0)
(0.00902722 0.138064 0)
(0.00297576 0.129652 0)
(-0.00629893 0.120266 0)
(-0.0151112 0.108104 0)
(-0.0230505 0.0950394 0)
(-0.0303926 0.100524 0)
(-0.034195 0.120899 0)
(-0.0339282 0.144719 0)
(-0.0300741 0.163785 0)
(-0.0258842 0.18632 0)
(-0.0198147 0.192896 0)
(-0.0106873 0.168466 0)
(-0.00361904 0.111494 0)
(0.000308045 0.0211019 0)
(0.00175536 -0.113423 0)
(0.00148599 -0.304802 0)
(-0.00125891 -0.557772 0)
(-0.00180866 -0.55849 0)
(-0.00836797 -0.330765 0)
(-0.012163 -0.160785 0)
(-0.0110609 -0.0366412 0)
(-0.00986527 0.0435147 0)
(-0.00520495 0.0923094 0)
(-0.00198815 0.128699 0)
(-0.00136514 0.143405 0)
(-0.00395743 0.147964 0)
(-0.00772225 0.143957 0)
(-0.0120074 0.13628 0)
(-0.0173465 0.125938 0)
(-0.0223391 0.113919 0)
(-0.0265524 0.117852 0)
(-0.0295452 0.129296 0)
(-0.0293702 0.14243 0)
(-0.0279236 0.15775 0)
(-0.0250353 0.175178 0)
(-0.0177628 0.175586 0)
(-0.00925171 0.152452 0)
(-0.00386251 0.10337 0)
(-0.000959697 0.0178354 0)
(0.000716106 -0.115388 0)
(0.00156186 -0.304051 0)
(-0.000595915 -0.559491 0)
(-0.00252732 -0.546459 0)
(-0.0102605 -0.316149 0)
(-0.0172547 -0.1539 0)
(-0.0186056 -0.0349616 0)
(-0.0186406 0.043537 0)
(-0.0161498 0.0939919 0)
(-0.0147167 0.131649 0)
(-0.0129987 0.149184 0)
(-0.0120419 0.151149 0)
(-0.0120867 0.145296 0)
(-0.0129174 0.142234 0)
(-0.0158965 0.133951 0)
(-0.0180714 0.120846 0)
(-0.019791 0.123132 0)
(-0.0202326 0.131964 0)
(-0.0196233 0.144194 0)
(-0.0192736 0.155933 0)
(-0.0176323 0.164435 0)
(-0.0113984 0.160901 0)
(-0.00521194 0.138531 0)
(-0.000790857 0.0972871 0)
(0.000816568 0.0158788 0)
(0.00372817 -0.119807 0)
(0.00302299 -0.303031 0)
(0.000858994 -0.558801 0)
(-0.00181513 -0.53586 0)
(-0.00790565 -0.302856 0)
(-0.0159202 -0.143192 0)
(-0.0199599 -0.0336896 0)
(-0.0203908 0.0382662 0)
(-0.0190248 0.0889234 0)
(-0.0162537 0.124658 0)
(-0.0123767 0.139685 0)
(-0.00880699 0.144536 0)
(-0.00857892 0.143771 0)
(-0.0091285 0.144337 0)
(-0.0117213 0.137676 0)
(-0.0125313 0.126663 0)
(-0.0134594 0.126649 0)
(-0.0134558 0.133214 0)
(-0.013394 0.14411 0)
(-0.0117908 0.153288 0)
(-0.0105113 0.155592 0)
(-0.00621334 0.148746 0)
(-0.00181196 0.127202 0)
(0.00170522 0.0902853 0)
(0.00401152 0.0113545 0)
(0.00690992 -0.123781 0)
(0.00390988 -0.301059 0)
(0.00140933 -0.555083 0)
(-0.0012831 -0.52726 0)
(-0.0060162 -0.291547 0)
(-0.0100074 -0.129296 0)
(-0.0147065 -0.0273299 0)
(-0.0160469 0.0374034 0)
(-0.016254 0.0858091 0)
(-0.0137405 0.11653 0)
(-0.0103002 0.132949 0)
(-0.00831403 0.138741 0)
(-0.00965839 0.143015 0)
(-0.010001 0.146231 0)
(-0.010039 0.14005 0)
(-0.00777975 0.126921 0)
(-0.00786942 0.1282 0)
(-0.0077066 0.134164 0)
(-0.00847442 0.142143 0)
(-0.00756542 0.149951 0)
(-0.00599955 0.150617 0)
(-0.00259703 0.141066 0)
(0.000163968 0.119546 0)
(0.00443263 0.0829344 0)
(0.00694592 0.00724372 0)
(0.00897607 -0.121496 0)
(0.00490815 -0.293722 0)
(0.00183309 -0.54886 0)
(-0.000647365 -0.522563 0)
(-0.00309261 -0.287564 0)
(-0.00406433 -0.125989 0)
(-0.00504396 -0.0224976 0)
(-0.00738839 0.0398217 0)
(-0.00952385 0.0849925 0)
(-0.00877741 0.111452 0)
(-0.00741823 0.12894 0)
(-0.00697748 0.141106 0)
(-0.00784015 0.144355 0)
(-0.00678741 0.142401 0)
(-0.0047991 0.135074 0)
(-0.00154756 0.124483 0)
(-0.00120028 0.128736 0)
(-0.000999121 0.137886 0)
(-0.00316465 0.147147 0)
(-0.00453103 0.150359 0)
(-0.00332158 0.145887 0)
(-0.0024155 0.13461 0)
(0.000339378 0.114467 0)
(0.0029179 0.075607 0)
(0.00604151 0.00123701 0)
(0.00621071 -0.120529 0)
(0.00389731 -0.289619 0)
(0.00150349 -0.543364 0)
(-0.000191545 -0.519989 0)
(-0.00158897 -0.285358 0)
(-0.0017326 -0.125121 0)
(-0.000401057 -0.0208021 0)
(4.81641e-05 0.0443229 0)
(-0.0008041 0.0878524 0)
(-0.000306439 0.11285 0)
(0.000391561 0.128726 0)
(0.00147635 0.139835 0)
(0.00217591 0.14111 0)
(0.00341214 0.138158 0)
(0.00443747 0.131842 0)
(0.00607809 0.123482 0)
(0.00581945 0.129567 0)
(0.00422299 0.141985 0)
(0.00230435 0.153053 0)
(-8.00624e-05 0.153057 0)
(-0.00231635 0.147516 0)
(-0.00480408 0.133045 0)
(-0.00329617 0.109229 0)
(-0.0015231 0.0722984 0)
(0.00260998 -0.00604617 0)
(0.00247906 -0.117764 0)
(0.00214527 -0.287451 0)
(0.00132994 -0.539076 0)
(5.89084e-05 -0.519109 0)
(-0.00143416 -0.285198 0)
(-0.00090767 -0.126799 0)
(0.00125753 -0.0265052 0)
(0.00435129 0.0398702 0)
(0.00690083 0.084557 0)
(0.0089645 0.109982 0)
(0.0105206 0.126086 0)
(0.0126046 0.138671 0)
(0.0135649 0.141779 0)
(0.0142701 0.138972 0)
(0.0146045 0.132632 0)
(0.0142992 0.125743 0)
(0.0115744 0.13406 0)
(0.00621187 0.147955 0)
(0.0028998 0.159185 0)
(-0.000440377 0.161424 0)
(-0.0034656 0.154563 0)
(-0.00696987 0.134622 0)
(-0.00852786 0.105766 0)
(-0.00644335 0.0634789 0)
(-0.00249929 -0.0131554 0)
(-0.00137488 -0.120512 0)
(0.00165633 -0.290246 0)
(0.000889317 -0.537147 0)
(-0.000121696 -0.51784 0)
(-0.00174575 -0.284734 0)
(-0.00118734 -0.130947 0)
(0.0017569 -0.0332995 0)
(0.00489778 0.0321078 0)
(0.00941544 0.0765761 0)
(0.0130362 0.105275 0)
(0.0152692 0.1229 0)
(0.0172383 0.135339 0)
(0.0200296 0.137717 0)
(0.0209128 0.137658 0)
(0.0214464 0.133902 0)
(0.0190929 0.134911 0)
(0.0139684 0.149975 0)
(0.00689951 0.162859 0)
(0.00216288 0.168102 0)
(-0.0017674 0.167739 0)
(-0.00445927 0.158698 0)
(-0.00752004 0.140154 0)
(-0.0100725 0.107651 0)
(-0.00871019 0.0569133 0)
(-0.00502129 -0.0200601 0)
(-0.00219444 -0.12671 0)
(0.00223337 -0.295612 0)
(0.00093607 -0.535398 0)
(-0.000291695 -0.516494 0)
(-0.0020152 -0.283655 0)
(-0.0022086 -0.1353 0)
(0.00103895 -0.0408003 0)
(0.00462095 0.0231104 0)
(0.00904028 0.065864 0)
(0.0145051 0.0972992 0)
(0.017938 0.116401 0)
(0.0216485 0.127615 0)
(0.0240039 0.133329 0)
(0.0249711 0.136475 0)
(0.0241287 0.13786 0)
(0.0204718 0.145816 0)
(0.0154111 0.163414 0)
(0.00976192 0.177293 0)
(0.00414275 0.181364 0)
(-0.000518702 0.175834 0)
(-0.00368784 0.164533 0)
(-0.00612484 0.144281 0)
(-0.00627812 0.107916 0)
(-0.00437858 0.052199 0)
(-0.00192455 -0.0284456 0)
(0.00147163 -0.135701 0)
(0.00380985 -0.297457 0)
(0.00161595 -0.532047 0)
(-0.000600145 -0.514708 0)
(-0.00232129 -0.282194 0)
(-0.0034151 -0.139159 0)
(-0.00144259 -0.0497397 0)
(0.00244461 0.0147635 0)
(0.00644199 0.0539838 0)
(0.01193 0.0855778 0)
(0.0158362 0.106975 0)
(0.0200041 0.122323 0)
(0.02143 0.131522 0)
(0.0224741 0.139431 0)
(0.0200073 0.147812 0)
(0.016021 0.158805 0)
(0.0107556 0.179018 0)
(0.00548685 0.192558 0)
(0.00160409 0.192701 0)
(-0.000723654 0.185596 0)
(-0.00299227 0.169885 0)
(-0.00239276 0.145361 0)
(-0.000226859 0.105455 0)
(0.00227532 0.048794 0)
(0.0041898 -0.031533 0)
(0.00622608 -0.139859 0)
(0.00555913 -0.294807 0)
(0.002248 -0.525587 0)
(-0.000832729 -0.512187 0)
(-0.00331181 -0.279346 0)
(-0.00519801 -0.137746 0)
(-0.00620674 -0.0552915 0)
(-0.00374534 0.00579237 0)
(-0.000706123 0.0431319 0)
(0.00216241 0.0742883 0)
(0.00512357 0.0971334 0)
(0.0080325 0.114933 0)
(0.00943161 0.129358 0)
(0.0102512 0.142549 0)
(0.00897845 0.155511 0)
(0.00709589 0.169931 0)
(0.00443822 0.190988 0)
(0.00255496 0.201424 0)
(0.0012712 0.198983 0)
(0.000853125 0.188823 0)
(0.00125581 0.169596 0)
(0.00379978 0.139378 0)
(0.0063525 0.100675 0)
(0.00812994 0.0447293 0)
(0.00957488 -0.0355907 0)
(0.00894387 -0.13916 0)
(0.00691825 -0.290104 0)
(0.00232295 -0.516904 0)
(-0.00136241 -0.507233 0)
(-0.00523683 -0.274336 0)
(-0.00784086 -0.132539 0)
(-0.0108116 -0.0529862 0)
(-0.0123214 0.00246199 0)
(-0.0121994 0.0408134 0)
(-0.0116606 0.0703865 0)
(-0.0109329 0.0920172 0)
(-0.00958627 0.110848 0)
(-0.00716304 0.126486 0)
(-0.00419592 0.141626 0)
(-0.00246069 0.15689 0)
(-0.0017932 0.172259 0)
(-0.00148121 0.193983 0)
(-0.00067216 0.202407 0)
(0.000979796 0.198239 0)
(0.00295196 0.186325 0)
(0.00547066 0.1665 0)
(0.00786446 0.135619 0)
(0.0104538 0.0949597 0)
(0.0124209 0.042719 0)
(0.0130418 -0.0344851 0)
(0.010606 -0.135315 0)
(0.00747755 -0.282286 0)
(0.00232778 -0.507463 0)
(-0.00168213 -0.500697 0)
(-0.00660827 -0.267309 0)
(-0.0104843 -0.125601 0)
(-0.0140301 -0.0456156 0)
(-0.0171604 0.00720773 0)
(-0.0182704 0.0414294 0)
(-0.0192182 0.0687822 0)
(-0.0205981 0.0907471 0)
(-0.0214146 0.10634 0)
(-0.0213147 0.118071 0)
(-0.018846 0.133678 0)
(-0.0161061 0.151093 0)
(-0.0129375 0.169437 0)
(-0.00999595 0.191729 0)
(-0.00668261 0.198833 0)
(-0.00278785 0.192452 0)
(0.000755812 0.178963 0)
(0.00497248 0.159865 0)
(0.00842176 0.130442 0)
(0.012156 0.0905649 0)
(0.0133173 0.0391527 0)
(0.0142479 -0.0323792 0)
(0.0103349 -0.129355 0)
(0.00730058 -0.273674 0)
(0.00231224 -0.497986 0)
(-0.00234129 -0.491449 0)
(-0.0080613 -0.25635 0)
(-0.0128485 -0.115703 0)
(-0.0168467 -0.0373626 0)
(-0.0199563 0.0126238 0)
(-0.0211997 0.0461124 0)
(-0.0222163 0.0749078 0)
(-0.0243583 0.0985238 0)
(-0.0251922 0.113485 0)
(-0.0264713 0.121659 0)
(-0.026523 0.131595 0)
(-0.0247257 0.145767 0)
(-0.0216931 0.160895 0)
(-0.017875 0.184272 0)
(-0.0133683 0.189119 0)
(-0.00785111 0.183512 0)
(-0.00443203 0.171885 0)
(0.000690409 0.150623 0)
(0.00464467 0.120502 0)
(0.010321 0.0817082 0)
(0.0110661 0.0375038 0)
(0.0122889 -0.0303501 0)
(0.00878793 -0.122661 0)
(0.00663917 -0.266261 0)
(0.00207064 -0.488897 0)
(-0.00242382 -0.480913 0)
(-0.0084908 -0.245495 0)
(-0.0124921 -0.10685 0)
(-0.0158308 -0.0293813 0)
(-0.0198757 0.0161393 0)
(-0.0205958 0.0469147 0)
(-0.0213669 0.0765292 0)
(-0.0220778 0.0991532 0)
(-0.0217476 0.113818 0)
(-0.0236701 0.123038 0)
(-0.0262444 0.131956 0)
(-0.0284762 0.142956 0)
(-0.0272573 0.15451 0)
(-0.0234065 0.177382 0)
(-0.0186414 0.181103 0)
(-0.0127442 0.175022 0)
(-0.00764114 0.161978 0)
(-0.00188723 0.139537 0)
(0.00275499 0.111344 0)
(0.00690871 0.0759699 0)
(0.00813805 0.0350885 0)
(0.009428 -0.029065 0)
(0.00754609 -0.117556 0)
(0.00610408 -0.259897 0)
(0.00173719 -0.480629 0)
(-0.0020685 -0.470824 0)
(-0.0082342 -0.23688 0)
(-0.0108675 -0.101625 0)
(-0.0127894 -0.0225586 0)
(-0.0175998 0.0218773 0)
(-0.0199327 0.0487543 0)
(-0.0216369 0.0768737 0)
(-0.0219482 0.0987418 0)
(-0.022899 0.117563 0)
(-0.0259138 0.132129 0)
(-0.0300064 0.143271 0)
(-0.0341123 0.149947 0)
(-0.0335467 0.150689 0)
(-0.0295277 0.165773 0)
(-0.0240011 0.167162 0)
(-0.0183302 0.15881 0)
(-0.0119448 0.147965 0)
(-0.00612688 0.128152 0)
(-0.00154516 0.101912 0)
(0.0027605 0.0689827 0)
(0.00487291 0.0317261 0)
(0.00583827 -0.0295824 0)
(0.00623294 -0.115879 0)
(0.00497033 -0.254083 0)
(0.00161505 -0.47398 0)
(-0.00200005 -0.46075 0)
(-0.00799212 -0.226804 0)
(-0.0109473 -0.0992948 0)
(-0.0106115 -0.0151546 0)
(-0.0165477 0.031137 0)
(-0.0214386 0.0561811 0)
(-0.0262573 0.0807303 0)
(-0.0284418 0.101841 0)
(-0.0308907 0.123025 0)
(-0.0336348 0.142276 0)
(-0.0359745 0.152548 0)
(-0.037685 0.154637 0)
(-0.0363981 0.146479 0)
(-0.0321823 0.156518 0)
(-0.0267327 0.157503 0)
(-0.0219153 0.148402 0)
(-0.0162335 0.135118 0)
(-0.0103105 0.115521 0)
(-0.005293 0.0915206 0)
(-0.0014197 0.0613198 0)
(0.000970558 0.0275967 0)
(0.00207393 -0.0326918 0)
(0.00466442 -0.116449 0)
(0.00355555 -0.249805 0)
(0.00149975 -0.46838 0)
(-0.00215075 -0.451693 0)
(-0.00699798 -0.216805 0)
(-0.0108835 -0.0979151 0)
(-0.00980956 -0.0109734 0)
(-0.0140191 0.0428986 0)
(-0.0186561 0.0685417 0)
(-0.0238786 0.0909966 0)
(-0.0281095 0.108224 0)
(-0.032275 0.129592 0)
(-0.0349277 0.146087 0)
(-0.0354973 0.154971 0)
(-0.0362889 0.154296 0)
(-0.0348084 0.141438 0)
(-0.0310251 0.146525 0)
(-0.024702 0.146589 0)
(-0.0200579 0.13749 0)
(-0.0155429 0.122358 0)
(-0.0114311 0.104311 0)
(-0.00745759 0.0825682 0)
(-0.00489089 0.0559064 0)
(-0.00257287 0.0227911 0)
(-0.000161862 -0.0383325 0)
(0.0034624 -0.120281 0)
(0.00242022 -0.248343 0)
(0.00135602 -0.464827 0)
(-0.00231053 -0.442618 0)
(-0.00644889 -0.207696 0)
(-0.0102576 -0.0930859 0)
(-0.00995647 -0.00922008 0)
(-0.010097 0.0493323 0)
(-0.0143607 0.077271 0)
(-0.0184862 0.102081 0)
(-0.0236781 0.121278 0)
(-0.0276759 0.140142 0)
(-0.0300249 0.151758 0)
(-0.0304981 0.157298 0)
(-0.0314429 0.155503 0)
(-0.0298433 0.137243 0)
(-0.0270147 0.13557 0)
(-0.0230944 0.132996 0)
(-0.0186024 0.129763 0)
(-0.0153755 0.115872 0)
(-0.0127513 0.0966897 0)
(-0.0106265 0.0762035 0)
(-0.00793001 0.0494254 0)
(-0.00296832 0.0149783 0)
(0.00103154 -0.0476707 0)
(0.00335471 -0.123544 0)
(0.00217675 -0.247017 0)
(0.00146502 -0.461797 0)
(-0.00188493 -0.434437 0)
(-0.00581186 -0.201244 0)
(-0.00927755 -0.0887248 0)
(-0.00970193 -0.012851 0)
(-0.00781898 0.0521961 0)
(-0.0105526 0.0846321 0)
(-0.0142371 0.112183 0)
(-0.0185121 0.130927 0)
(-0.0207513 0.146317 0)
(-0.0221684 0.154687 0)
(-0.0225952 0.160193 0)
(-0.0231534 0.156442 0)
(-0.0220224 0.135812 0)
(-0.0215063 0.133215 0)
(-0.0214174 0.127221 0)
(-0.0193619 0.119675 0)
(-0.0156303 0.107806 0)
(-0.0125278 0.0913818 0)
(-0.00992855 0.0710205 0)
(-0.00527095 0.0386205 0)
(0.00186928 0.0032993 0)
(0.00444434 -0.0524233 0)
(0.00604377 -0.122917 0)
(0.00357233 -0.242997 0)
(0.00214045 -0.457725 0)
(-0.00203789 -0.428119 0)
(-0.00515385 -0.194474 0)
(-0.00912353 -0.0841509 0)
(-0.0104943 -0.0133825 0)
(-0.0100685 0.051077 0)
(-0.0100915 0.0896925 0)
(-0.0119191 0.120186 0)
(-0.0135402 0.137594 0)
(-0.0144237 0.150209 0)
(-0.0144717 0.157986 0)
(-0.01554 0.162588 0)
(-0.0154457 0.158293 0)
(-0.0145092 0.138148 0)
(-0.015771 0.135994 0)
(-0.0163654 0.126416 0)
(-0.0156329 0.114285 0)
(-0.0127648 0.0991235 0)
(-0.00987145 0.082014 0)
(-0.00541377 0.0598139 0)
(0.000181284 0.0224912 0)
(0.00526355 -0.00752197 0)
(0.00514118 -0.0562712 0)
(0.0071054 -0.124411 0)
(0.00401521 -0.238419 0)
(0.00267428 -0.452445 0)
(-0.00236294 -0.420411 0)
(-0.00534433 -0.185558 0)
(-0.00987148 -0.0771735 0)
(-0.0113422 -0.0100347 0)
(-0.0131904 0.0512551 0)
(-0.0104816 0.0877333 0)
(-0.00974231 0.119917 0)
(-0.00916004 0.13625 0)
(-0.00844437 0.149188 0)
(-0.0078323 0.158169 0)
(-0.00815299 0.163219 0)
(-0.00690735 0.155383 0)
(-0.00746721 0.139727 0)
(-0.0085524 0.139089 0)
(-0.00966123 0.127794 0)
(-0.00856452 0.112506 0)
(-0.00555939 0.0943288 0)
(-0.00248302 0.0731844 0)
(0.00205377 0.0493701 0)
(0.00548122 0.0138279 0)
(0.00726789 -0.0102109 0)
(0.00681481 -0.057477 0)
(0.008419 -0.1238 0)
(0.00434809 -0.233541 0)
(0.00314688 -0.446108 0)
(-0.00208279 -0.413804 0)
(-0.00425173 -0.179974 0)
(-0.0069397 -0.0704668 0)
(-0.00915856 -0.00594327 0)
(-0.0110827 0.0490199 0)
(-0.00803957 0.0822016 0)
(-0.00502668 0.117733 0)
(-0.00307806 0.13448 0)
(-0.000968107 0.146708 0)
(-0.000316533 0.156822 0)
(0.000795197 0.161895 0)
(0.00217972 0.157525 0)
(0.000160259 0.144684 0)
(-0.000963752 0.144111 0)
(-0.000676747 0.127346 0)
(0.00210416 0.107381 0)
(0.00551521 0.0868199 0)
(0.00884101 0.0659413 0)
(0.0127537 0.0458321 0)
(0.0143353 0.0120505 0)
(0.0145867 -0.00947454 0)
(0.0135711 -0.0568237 0)
(0.0116099 -0.118807 0)
(0.00635576 -0.225156 0)
(0.00384245 -0.436905 0)
(-0.00185252 -0.408364 0)
(-0.00343627 -0.178311 0)
(-0.00400441 -0.0668304 0)
(-0.00504811 -0.00197222 0)
(-0.00605845 0.0465411 0)
(-0.00276791 0.0732897 0)
(0.00207606 0.108842 0)
(0.0065584 0.127881 0)
(0.00971413 0.144417 0)
(0.0111149 0.154659 0)
(0.0135216 0.157801 0)
(0.01446 0.157958 0)
(0.0147048 0.14945 0)
(0.0132925 0.145886 0)
(0.0133422 0.122938 0)
(0.0141822 0.101678 0)
(0.0155571 0.081188 0)
(0.0174733 0.0588641 0)
(0.0208087 0.0408739 0)
(0.0213039 0.0121269 0)
(0.0208521 -0.00658334 0)
(0.0175244 -0.0511055 0)
(0.0119426 -0.109937 0)
(0.00704493 -0.217973 0)
(0.00395574 -0.426659 0)
(-0.00203985 -0.403498 0)
(-0.00317536 -0.175793 0)
(-0.00328452 -0.0665341 0)
(-0.00195058 -0.00143899 0)
(-0.000405923 0.0423501 0)
(0.00364162 0.0635393 0)
(0.00812534 0.0981287 0)
(0.0123873 0.119153 0)
(0.0149586 0.137847 0)
(0.0176134 0.148998 0)
(0.0203708 0.153943 0)
(0.0225036 0.155354 0)
(0.0250094 0.148403 0)
(0.0268401 0.148998 0)
(0.0259399 0.127167 0)
(0.0236827 0.103791 0)
(0.0225968 0.080088 0)
(0.0232937 0.0552414 0)
(0.0240364 0.0392132 0)
(0.0235853 0.0138378 0)
(0.0226433 -0.00136312 0)
(0.017282 -0.0378957 0)
(0.0120724 -0.0986749 0)
(0.00760647 -0.209262 0)
(0.00387003 -0.415402 0)
(-0.00225005 -0.399369 0)
(-0.0028594 -0.175816 0)
(-0.00225998 -0.0705097 0)
(0.000711461 -0.010041 0)
(0.0049033 0.0330102 0)
(0.00798313 0.0519303 0)
(0.0105785 0.0885752 0)
(0.0134206 0.113103 0)
(0.0151664 0.133579 0)
(0.0180408 0.142041 0)
(0.0206304 0.146687 0)
(0.0243928 0.149774 0)
(0.0275345 0.14067 0)
(0.0306142 0.145663 0)
(0.0316836 0.131469 0)
(0.029692 0.110189 0)
(0.0283378 0.0825901 0)
(0.0266631 0.0570653 0)
(0.0256158 0.0411201 0)
(0.0234605 0.0176739 0)
(0.0206662 0.006953 0)
(0.0152724 -0.0278349 0)
(0.0122601 -0.0903908 0)
(0.00855301 -0.199774 0)
(0.00378164 -0.403275 0)
(-0.00311795 -0.394317 0)
(-0.00359884 -0.175736 0)
(-0.00391804 -0.0752348 0)
(-0.000700879 -0.0184983 0)
(0.00274278 0.0260509 0)
(0.00405784 0.0487602 0)
(0.0050434 0.0863789 0)
(0.00761821 0.109761 0)
(0.0116829 0.128162 0)
(0.0163705 0.137039 0)
(0.0207842 0.140732 0)
(0.0245633 0.141715 0)
(0.0276291 0.135545 0)
(0.0307854 0.140513 0)