/*--------------------------------*- C++ -*----------------------------------*\
| =========                 |                                                 |
| \\      /  F ield         | OpenFOAM: The Open Source CFD Toolbox           |
|  \\    /   O peration     | Version:  2.3.0                                 |
|   \\  /    A nd           | Web:      www.OpenFOAM.org                      |
|    \\/     M anipulation  |                                                 |
\*---------------------------------------------------------------------------*/
FoamFile
{
    version     2.0;
    format      ascii;
    class       volVectorField;
    location    "0.199965";
    object      U.waterMean;
}
// * * * * * * * * * * * * * * * * * * * * * * * * * * * * * * * * * * * * * //

dimensions      [0 1 -1 0 0 0 0];

internalField   nonuniform List<vector> 
10000
(
(-0.127463 -0.528784 -0.331597)
(-0.0106869 -0.540867 -0.348996)
(0.0224967 -0.572823 -0.366542)
(0.072656 -0.419005 -0.264865)
(0.0496126 -0.296653 -0.230308)
(0.0200024 -0.288784 -0.215339)
(0.0089067 -0.287993 -0.192025)
(0.00285047 -0.294631 -0.195711)
(0.0070478 -0.283103 -0.184672)
(-0.00444348 -0.282932 -0.184266)
(0.000705052 -0.297406 -0.190283)
(0.00598431 -0.283503 -0.182391)
(-0.000987325 -0.273357 -0.184205)
(-0.0125079 -0.270075 -0.187736)
(-0.0343092 -0.281046 -0.200858)
(-0.0666652 -0.338669 -0.221761)
(-0.0621699 -0.47149 -0.299693)
(-0.0125503 -0.567008 -0.361944)
(0.00788038 -0.570519 -0.339371)
(0.128024 -0.527691 -0.336316)
(0.00509 -0.525216 -0.0384636)
(-0.00183334 -0.484802 -0.0341887)
(-0.0042461 -0.592743 -0.0453108)
(0.00131375 -0.338862 0.0100852)
(-0.0011734 -0.143182 0.00123034)
(-0.00275312 -0.200306 -0.00737814)
(0.000565205 -0.266249 -0.0297781)
(-0.00020015 -0.228204 -0.0149746)
(0.0011669 -0.259264 -0.0332835)
(-0.000935963 -0.260563 -0.0331215)
(2.33776e-06 -0.232293 -0.0141279)
(0.00107861 -0.259711 -0.0333977)
(0.000276425 -0.255224 -0.0367629)
(-0.000102826 -0.251931 -0.0382044)
(-0.000531504 -0.258174 -0.0385023)
(-0.00169066 -0.299829 -0.0338377)
(-0.00441436 -0.446613 -0.0269672)
(-0.000528837 -0.603153 -0.0538744)
(0.0034245 -0.577757 -0.0482197)
(-0.00367837 -0.51896 -0.0411438)
(-0.000345798 -0.485741 -0.00738822)
(-0.00123395 -0.429386 -0.0039064)
(-0.00137961 -0.574203 -0.0106132)
(0.00162202 -0.332537 0.00188887)
(0.000827363 -0.0873421 0.0135371)
(0.000471816 -0.128986 0.00696228)
(0.000686577 -0.226355 -0.0185304)
(0.000115835 -0.178494 -0.00145052)
(0.00109203 -0.222278 -0.0220728)
(-0.000896379 -0.224337 -0.021684)
(7.1533e-05 -0.180537 -0.00186699)
(0.00100746 -0.223901 -0.0218592)
(0.000193765 -0.222271 -0.0256719)
(-0.000254938 -0.220353 -0.0271795)
(-0.000517835 -0.227334 -0.0265385)
(-0.0008823 -0.266396 -0.0207253)
(-0.00141477 -0.415824 -0.00649515)
(-0.00105208 -0.586999 -0.0192379)
(0.00326145 -0.55823 -0.015269)
(0.000935178 -0.479733 -0.00833675)
(0.0014191 -0.455437 -0.0013975)
(-0.00104197 -0.417584 -0.00123244)
(-0.00209877 -0.559645 -0.00363386)
(0.00157238 -0.311673 0.0101892)
(-0.000299408 -0.0584672 0.0179857)
(-0.000651994 -0.105108 0.00979811)
(0.000444562 -0.203334 -0.0197163)
(-5.9889e-05 -0.150877 -0.000489328)
(0.000744065 -0.20035 -0.0236321)
(-0.00059919 -0.201757 -0.0232222)
(6.83278e-05 -0.159152 -0.00133147)
(0.000814594 -0.201302 -0.0234261)
(0.000282323 -0.200004 -0.0276811)
(-1.83838e-06 -0.198638 -0.0291633)
(0.000309551 -0.205562 -0.0270833)
(-6.18057e-05 -0.236439 -0.0190825)
(-0.00128324 -0.394214 -0.000769269)
(-0.00166057 -0.582155 -0.0106223)
(0.00305033 -0.54368 -0.00789501)
(0.000390656 -0.442809 -0.000825744)
(0.00106235 -0.463558 -0.00384849)
(-0.000755909 -0.424388 -0.00197811)
(-0.00148966 -0.578796 -0.00405967)
(0.00226757 -0.314525 0.0080226)
(4.12788e-05 -0.0452373 0.0188243)
(-0.000481089 -0.0893944 0.0108483)
(0.000573306 -0.188799 -0.0213531)
(5.53333e-05 -0.13419 -2.81777e-05)
(0.000737398 -0.186046 -0.0251333)
(-0.000585902 -0.187279 -0.0245681)
(7.58754e-05 -0.141676 -0.000658809)
(0.000765384 -0.186716 -0.0248142)
(0.000215379 -0.1845 -0.0296359)
(-0.000118779 -0.182749 -0.0313464)
(7.38832e-06 -0.190567 -0.0291844)
(-0.00140172 -0.219677 -0.0209804)
(-0.00132768 -0.402403 -0.00190637)
(-0.00240588 -0.609753 -0.00874026)
(0.00265304 -0.562932 -0.00604962)
(0.00144888 -0.449209 -0.00259826)
(0.0005622 -0.466082 -0.00281036)
(-0.000776681 -0.427659 -0.00193997)
(-0.00135484 -0.583729 -0.00342933)
(0.00240892 -0.319073 0.00932667)
(0.000205022 -0.0319008 0.0225587)
(-0.000650977 -0.0626521 0.0141248)
(0.000484613 -0.158968 -0.0226515)
(-0.000149212 -0.106358 0.00153503)
(0.000798399 -0.157292 -0.0270574)
(-0.000847546 -0.158046 -0.0261839)
(3.61932e-05 -0.109906 0.000977675)
(0.00104272 -0.157264 -0.026533)
(0.000326602 -0.156926 -0.0321514)
(-9.21074e-05 -0.155953 -0.0342349)
(-1.9276e-05 -0.1606 -0.0309756)
(-0.000783438 -0.183691 -0.0212371)
(-0.000885728 -0.39613 -0.000980918)
(-0.00221509 -0.62102 -0.00745434)
(0.00161047 -0.572735 -0.00506611)
(0.00147537 -0.439825 -0.00143162)
(0.000249251 -0.47681 -0.00294225)
(-0.00151914 -0.431241 -0.00197421)
(-0.000951294 -0.595086 -0.00293571)
(0.00353115 -0.321848 0.0084117)
(3.81248e-05 -0.0252925 0.0267597)
(-0.000512637 -0.0456117 0.0178146)
(0.000425619 -0.137108 -0.0223993)
(-3.76297e-05 -0.0873608 0.00476539)
(0.000820266 -0.137566 -0.0269051)
(-0.000790085 -0.138012 -0.025466)
(5.57882e-05 -0.0891721 0.00442309)
(0.000960276 -0.137105 -0.0258162)
(0.000280822 -0.136097 -0.032219)
(-0.000151698 -0.135921 -0.0347541)
(-0.00021385 -0.141703 -0.0307624)
(-0.00199626 -0.158627 -0.0191942)
(-0.00183276 -0.391729 -0.000302377)
(-0.00234646 -0.63439 -0.00514474)
(0.00143025 -0.585772 -0.00328969)
(0.00254014 -0.440971 -0.000782078)
(-0.000134269 -0.476075 -0.00271088)
(-0.00160879 -0.433371 -0.00140183)
(-0.00119031 -0.607854 -0.00274605)
(0.00369121 -0.324558 0.00869303)
(-0.00014554 -0.0189355 0.035268)
(-0.000479758 -0.0288233 0.0248498)
(0.000264759 -0.0938491 -0.0184772)
(-4.35598e-05 -0.0587776 0.0117739)
(0.000707561 -0.0971129 -0.0225698)
(-0.000683932 -0.0965276 -0.0206756)
(4.12196e-05 -0.056359 0.0121554)
(0.000927183 -0.0956929 -0.0211354)
(0.000282926 -0.0978527 -0.0284771)
(-4.20529e-05 -0.0981897 -0.0317189)
(-0.000286837 -0.101461 -0.0261971)
(-0.000641591 -0.109911 -0.0134238)
(-0.0016149 -0.38411 0.000282394)
(-0.00184049 -0.650492 -0.00461834)
(0.00120442 -0.610704 -0.00322232)
(0.0026392 -0.442601 -0.000840267)
(3.59662e-05 -0.479161 -0.00271449)
(-0.00109068 -0.435529 -0.000944681)
(-0.00149847 -0.631498 -0.00334184)
(0.00329709 -0.334132 0.0101209)
(0.000302128 -0.0123147 0.0650079)
(-0.000135129 -0.0144423 0.046979)
(-0.00019111 -0.0554785 0.00491879)
(4.80913e-06 -0.0310613 0.03515)
(1.96148e-05 -0.0576829 0.00118289)
(0.00016016 -0.0573045 0.00315422)
(-6.82058e-06 -0.0310812 0.0349737)
(-9.36311e-05 -0.0569214 0.00229881)
(9.35396e-05 -0.0584014 -0.00476709)
(-6.51069e-05 -0.0590876 -0.00776726)
(0.000839962 -0.0611973 -0.0020294)
(-0.000216769 -0.0691668 0.0189667)
(-0.00207891 -0.377327 0.00152279)
(-0.000954524 -0.66763 -0.00480937)
(0.00111076 -0.629745 -0.00361681)
(0.00214133 -0.443646 -0.00122511)
(0.000357245 -0.476862 -0.00221378)
(-0.000681525 -0.433467 -9.24388e-05)
(-0.00152033 -0.650593 -0.00462518)
(-0.000518025 -0.360593 0.0067032)
(0.00373591 -0.0735276 0.00114008)
(0.000717179 -0.0520548 0.00260176)
(0.000253666 -0.0507265 0.00690447)
(6.29006e-05 -0.0481338 0.00467131)
(0.00037679 -0.0497469 0.00707725)
(-0.000362527 -0.0498563 0.0071286)
(6.04195e-06 -0.0479943 0.0048182)
(0.00040303 -0.0497157 0.00711571)
(2.95677e-05 -0.0489546 0.00703508)
(-0.000122462 -0.0489117 0.006971)
(-0.000617325 -0.0507814 0.00675207)
(-0.00292758 -0.0614855 0.0066188)
(-0.00167746 -0.38804 -0.000274463)
(-0.000824568 -0.683414 -0.00344122)
(0.00117616 -0.64501 -0.00364614)
(0.00163375 -0.440873 -0.000948248)
(0.00047368 -0.473335 -0.00205621)
(-0.0012375 -0.43215 0.000579923)
(-0.000875819 -0.661573 -0.0034538)
(0.000594489 -0.382825 0.0034392)
(0.00210993 -0.0547842 0.00185223)
(-0.000252889 -0.0439086 0.0012566)
(0.000106896 -0.0417991 0.00118461)
(2.48696e-05 -0.0410365 0.00147167)
(-0.000300502 -0.04054 0.00127341)
(0.000297532 -0.0405832 0.00127657)
(-4.27742e-06 -0.0410164 0.00144697)
(-0.00029895 -0.0405009 0.00123785)
(-2.89541e-05 -0.0402279 0.00119985)
(-0.000143252 -0.0405642 0.00106178)
(-0.000372992 -0.0435232 0.00062837)
(-0.000921052 -0.0758887 -0.000739077)
(-0.00169704 -0.388101 -0.00120297)
(-0.00100219 -0.707263 -0.00313008)
(0.000943729 -0.660017 -0.00408966)
(0.000946433 -0.43584 -0.000773363)
(0.000777014 -0.468655 -0.00142611)
(-0.00155931 -0.428381 0.00117721)
(-0.000817068 -0.68021 -0.00303725)
(0.000288419 -0.400608 0.00387502)
(0.00145575 -0.0558022 0.000373528)
(-0.000135728 -0.0403072 0.000670298)
(0.000174049 -0.0504875 -0.000659554)
(1.59873e-05 -0.0360426 0.000815033)
(-0.000269564 -0.0482027 -0.000609224)
(0.000253816 -0.0483034 -0.000605781)
(-2.54031e-06 -0.0359986 0.00079995)
(-0.000239088 -0.0481895 -0.000632638)
(-1.182e-06 -0.0476444 -0.00062533)
(-4.83603e-05 -0.0485534 -0.000727882)
(2.91238e-05 -0.054738 -0.00105067)
(0.00138377 -0.0863915 -0.00214916)
(-0.00137982 -0.382323 -0.00092007)
(-0.00107451 -0.733132 -0.00438378)
(0.0003222 -0.674369 -0.00455028)
(0.000754828 -0.430759 -0.000301313)
(0.00142355 -0.463992 -0.000905334)
(-0.00127507 -0.425517 0.00176811)
(-0.000717471 -0.706077 -0.00394116)
(-0.000378563 -0.408647 0.00341534)
(0.00150732 -0.0536835 0.000344455)
(1.03256e-05 -0.0396527 4.23221e-06)
(-2.72516e-05 -0.0447614 -0.000144314)
(-3.23425e-05 -0.0335764 0.000204966)
(0.00015978 -0.0428834 -0.000321088)
(-0.000154496 -0.0428853 -0.000308576)
(-2.28946e-06 -0.0337634 0.000224567)
(0.000140993 -0.0427321 -0.00031244)
(-7.81153e-06 -0.042147 -0.000441573)
(4.88964e-05 -0.0432992 -0.000473264)
(0.000253806 -0.050549 -0.000496873)
(0.00176885 -0.0794514 -0.000608176)
(-0.00102374 -0.375315 -0.000258001)
(-0.0012046 -0.752214 -0.00443676)
(-8.41017e-05 -0.685373 -0.00478619)
(0.000763997 -0.428094 0.000652403)
(0.00132846 -0.455172 -0.0002709)
(-0.000497918 -0.415324 0.00256196)
(-0.000246626 -0.727797 -0.00493096)
(-0.000217883 -0.424963 0.000639325)
(0.00092582 -0.0533152 -0.000167716)
(-0.00020179 -0.042671 -0.00064101)
(-0.00029078 -0.0512506 -0.00212265)
(-5.91182e-05 -0.0371514 -0.00124654)
(7.47506e-05 -0.0507728 -0.00263166)
(-6.40508e-05 -0.0507163 -0.00263121)
(-3.87452e-06 -0.0370072 -0.00127615)
(3.5864e-05 -0.0508187 -0.00263673)
(1.87469e-05 -0.0515707 -0.00279588)
(0.000241843 -0.0531794 -0.002708)
(0.000626509 -0.0610104 -0.00221172)
(0.00164325 -0.0834747 -0.000781616)
(-0.000425133 -0.369722 8.63888e-05)
(-0.00120718 -0.769127 -0.00489688)
(-0.000358027 -0.692015 -0.00489343)
(0.000533729 -0.425704 0.000974284)
(0.000907179 -0.441938 0.000217288)
(0.000156776 -0.404149 0.00284168)
(9.85914e-05 -0.743446 -0.00508867)
(0.000109101 -0.434615 -0.00116951)
(0.000133887 -0.0571479 -0.000407383)
(9.33157e-05 -0.0451486 -0.000476185)
(-0.000101455 -0.0664184 -0.00155908)
(-5.71246e-05 -0.050247 -0.00171912)
(0.000184788 -0.0695697 -0.00214408)
(-0.000189322 -0.0695224 -0.00218255)
(8.13018e-07 -0.0503514 -0.00171982)
(0.000167944 -0.0695827 -0.00216935)
(5.04892e-05 -0.0709164 -0.00235063)
(0.000273356 -0.0715295 -0.00207085)
(0.000321289 -0.0736215 -0.00113517)
(0.000896893 -0.0796684 -0.000178003)
(-0.000885667 -0.361769 0.000481525)
(-0.00098203 -0.780645 -0.00359401)
(-0.000465999 -0.69445 -0.00407789)
(0.000149794 -0.420919 0.00140088)
(0.000471908 -0.416556 0.0010125)
(0.000848513 -0.388548 0.00286597)
(0.000136342 -0.758711 -0.00495066)
(-0.000548437 -0.443757 -0.00183663)
(0.000618608 -0.0574403 -0.000124951)
(0.000217576 -0.0453995 -1.05037e-05)
(0.00022035 -0.0566001 0.000105825)
(8.43172e-06 -0.0501541 -2.86648e-05)
(0.000118976 -0.0599314 0.00014663)
(-0.000112808 -0.0602899 0.000150091)
(2.9041e-07 -0.0498228 1.89895e-05)
(0.000125047 -0.0604506 0.000161425)
(1.05227e-05 -0.0641626 0.000172728)
(-1.56287e-05 -0.062788 0.000198446)
(-0.000179854 -0.061772 0.000373109)
(0.000423077 -0.0748683 0.000519365)
(0.000345798 -0.350741 0.00128637)
(-0.000693696 -0.788421 -0.00252369)
(-0.00100704 -0.689336 -0.00304784)
(-0.000331782 -0.406773 0.00165727)
(-0.00135141 -0.379303 0.0019002)
(0.0020411 -0.364001 0.0029107)
(0.00024973 -0.772962 -0.00535904)
(-0.000967872 -0.454083 -0.00194203)
(0.00111089 -0.0581063 2.91913e-05)
(0.000160655 -0.0447599 -4.09633e-05)
(0.00027507 -0.0557154 0.000664234)
(5.04559e-05 -0.0443289 0.000934825)
(3.06478e-05 -0.0572776 0.000961974)
(-2.00097e-05 -0.0572093 0.000987361)
(7.91534e-07 -0.0443126 0.000952562)
(4.31315e-05 -0.0572648 0.000994415)
(-2.20199e-05 -0.0579886 0.00108516)
(-0.000116679 -0.0583005 0.000966926)
(-3.11963e-05 -0.0597083 0.000657681)
(0.000689779 -0.0684877 0.00126677)
(0.00200943 -0.335044 0.0023663)
(-0.000445143 -0.78964 -0.000641054)
(-0.00123763 -0.684244 -0.00255817)
(-0.0015545 -0.376206 0.00194263)
(-0.00198275 -0.321838 0.00274339)
(0.00204713 -0.33281 0.00278976)
(1.43025e-05 -0.787066 -0.00441547)
(-0.000681184 -0.464107 -0.00165359)
(-0.000710965 -0.0608923 -0.000580597)
(0.0003019 -0.0470546 -0.0004034)
(1.38751e-05 -0.0510958 0.00227529)
(6.4346e-05 -0.0427053 0.000480095)
(0.000445887 -0.0523139 0.00252054)
(-0.000440711 -0.0523481 0.00251928)
(-2.74356e-07 -0.04267 0.000519925)
(0.000299265 -0.0524265 0.00254487)
(-0.000151517 -0.0537928 0.00232626)
(-4.6836e-05 -0.0540182 0.00233583)
(0.00011746 -0.0557923 0.00209257)
(0.00042348 -0.0619885 0.0033491)
(0.00298774 -0.307081 0.00393745)
(-3.41105e-05 -0.788221 0.00190901)
(-0.000976394 -0.682213 -0.00197105)
(-0.00235449 -0.331856 0.00261217)
(-0.00096918 -0.225592 0.00341338)
(0.00175971 -0.277186 0.00266537)
(-0.000551713 -0.804435 -0.00332786)
(-0.00175183 -0.465168 0.00338994)
(-0.00331541 -0.0705016 -0.00375522)
(6.28011e-05 -0.051454 -0.00114663)
(-0.00010822 -0.044722 0.00112666)
(1.35277e-05 -0.045268 -0.000801123)
(0.000202801 -0.0436382 0.00142787)
(-0.000190762 -0.043645 0.00143329)
(-6.10824e-06 -0.0451608 -0.000729382)
(0.000144627 -0.0438393 0.00138206)
(-2.44476e-06 -0.0494332 0.000854244)
(-6.93103e-06 -0.0505185 0.000635971)
(6.48781e-05 -0.0543434 0.000460572)
(-0.000294895 -0.0588049 0.00220283)
(0.00295813 -0.257128 0.00706969)
(0.000656311 -0.788369 0.00562599)
(0.000226641 -0.67734 -0.000233521)
(-0.00146094 -0.25865 0.00283312)
(-0.000731111 -0.139374 0.00209016)
(0.00138695 -0.212243 0.00224728)
(-0.00045542 -0.814605 -0.00292296)
(-0.00156929 -0.460081 0.00182334)
(-0.00530629 -0.11198 -0.00326267)
(-0.000801774 -0.0633535 -0.000552427)
(-0.000143195 -0.0552044 -0.000503244)
(-4.36661e-05 -0.0552343 -0.000875089)
(-0.00020665 -0.0543165 -0.000458005)
(0.000200889 -0.0543179 -0.000459811)
(7.66453e-06 -0.0545461 -0.000841607)
(-6.04485e-05 -0.0552749 -0.000532987)
(0.000193059 -0.0628802 -0.000906636)
(6.99576e-05 -0.0661412 -0.00111608)
(5.98898e-05 -0.0693656 -0.000955616)
(0.000803064 -0.0698299 -0.000333056)
(0.00092702 -0.187131 0.00462722)
(0.00123676 -0.789348 0.0032302)
(0.000307195 -0.662613 4.43608e-05)
(-0.000446213 -0.169974 0.00201449)
(-0.137832 -0.528719 -0.296795)
(-0.011695 -0.544546 -0.312256)
(0.0247853 -0.569797 -0.3219)
(0.0776282 -0.417972 -0.235983)
(0.0512715 -0.300092 -0.209734)
(0.0213078 -0.291268 -0.193315)
(0.00974284 -0.285883 -0.169212)
(0.00308704 -0.295476 -0.174184)
(0.0076445 -0.281206 -0.162973)
(-0.00480905 -0.281065 -0.162648)
(0.000759401 -0.298366 -0.169197)
(0.00644051 -0.281624 -0.16094)
(-0.00110303 -0.271213 -0.162633)
(-0.0132604 -0.267836 -0.165759)
(-0.0361188 -0.278734 -0.177628)
(-0.0709671 -0.336996 -0.195961)
(-0.0669379 -0.47064 -0.265717)
(-0.0139133 -0.562555 -0.317032)
(0.00850831 -0.568556 -0.297746)
(0.138714 -0.528117 -0.301431)
(0.00314925 -0.536684 -0.0390413)
(-0.00245821 -0.508104 -0.0367943)
(-0.00429632 -0.602963 -0.0444947)
(0.00167198 -0.352185 0.00785792)
(-0.0013314 -0.189627 -0.00590369)
(-0.00243404 -0.230546 -0.012755)
(0.00070165 -0.274244 -0.0316455)
(-0.000205977 -0.253408 -0.0187447)
(0.00126667 -0.267379 -0.0350304)
(-0.0010242 -0.268952 -0.0347807)
(1.00458e-05 -0.25603 -0.0179665)
(0.00119622 -0.267966 -0.0351575)
(0.000281097 -0.262699 -0.0381546)
(-0.000173058 -0.258786 -0.0395573)
(-0.000680455 -0.262849 -0.0399443)
(-0.00260056 -0.305035 -0.0358123)
(-0.0057583 -0.458192 -0.0280829)
(-0.00063505 -0.611524 -0.0525037)
(0.00360087 -0.589369 -0.0475478)
(-0.00158411 -0.530499 -0.041808)
(-0.000538518 -0.517312 -0.0087266)
(-0.00118925 -0.47472 -0.00512935)
(-0.00143848 -0.59954 -0.010575)
(0.00163032 -0.355339 0.00173905)
(0.00145661 -0.145876 0.0106538)
(0.00103123 -0.180502 0.00374488)
(0.000766107 -0.248106 -0.0205154)
(0.000130069 -0.216521 -0.00403653)
(0.00116636 -0.243213 -0.0238427)
(-0.000941977 -0.245282 -0.0234337)
(7.56078e-05 -0.219048 -0.00428509)
(0.00107079 -0.244667 -0.0236378)
(0.000203783 -0.241751 -0.0272691)
(-0.000262079 -0.239451 -0.0287314)
(-0.00059212 -0.245733 -0.0280889)
(-0.00114689 -0.2867 -0.0227297)
(-0.00178273 -0.443612 -0.00744506)
(-0.000847195 -0.613165 -0.0182018)
(0.00328099 -0.585364 -0.0146548)
(0.00118975 -0.51028 -0.00945016)
(0.00161259 -0.494752 -0.00153795)
(-0.0010781 -0.466245 -0.000875532)
(-0.00220083 -0.592783 -0.00301888)
(0.00139444 -0.338325 0.0103717)
(-0.00064872 -0.117486 0.016409)
(-0.000726523 -0.158233 0.00819304)
(0.00047105 -0.224578 -0.0211903)
(-3.63815e-05 -0.191239 -0.00217505)
(0.00078942 -0.220597 -0.0249669)
(-0.000619212 -0.222049 -0.0245676)
(7.3595e-05 -0.19758 -0.00284888)
(0.00083968 -0.221416 -0.0248106)
(0.00028536 -0.218355 -0.0290456)
(-1.43225e-05 -0.216341 -0.0305616)
(0.000246511 -0.222585 -0.0284851)
(-1.03659e-05 -0.258292 -0.0208139)
(-0.00148156 -0.428008 -0.000784831)
(-0.00158007 -0.61511 -0.0093574)
(0.00317371 -0.578881 -0.0069175)
(0.00028645 -0.484674 -0.00116823)
(0.00119747 -0.501039 -0.00336753)
(-0.000735286 -0.471378 -0.00142483)
(-0.00153086 -0.607254 -0.00322889)
(0.00221861 -0.341978 0.00859897)
(0.000425318 -0.103338 0.017849)
(-0.000384665 -0.142867 0.00909266)
(0.000600159 -0.210965 -0.023144)
(8.2414e-05 -0.175898 -0.00176183)
(0.000714527 -0.207229 -0.0267859)
(-0.00057088 -0.208538 -0.0262369)
(8.01793e-05 -0.181356 -0.00262691)
(0.000745923 -0.207859 -0.0265285)
(0.000210619 -0.204089 -0.0312646)
(-0.000118401 -0.201843 -0.0329847)
(1.39486e-05 -0.208779 -0.0308787)
(-0.00130434 -0.24359 -0.0229906)
(-0.00172768 -0.432879 -0.00167632)
(-0.00237837 -0.638988 -0.00802902)
(0.00279936 -0.596859 -0.00526887)
(0.0014377 -0.490636 -0.0027307)
(0.000711087 -0.504309 -0.00244494)
(-0.000776807 -0.473953 -0.00151426)
(-0.00143582 -0.613274 -0.00255033)
(0.00235225 -0.345704 0.00961548)
(0.000636934 -0.0782032 0.0218637)
(-0.000989831 -0.115286 0.0123073)
(0.000491158 -0.182237 -0.0247461)
(-0.000143861 -0.147633 -0.00037378)
(0.000752759 -0.179519 -0.0289554)
(-0.000804717 -0.180479 -0.0281015)
(4.39152e-05 -0.150762 -0.00120643)
(0.000996658 -0.179597 -0.0285061)
(0.000314221 -0.177317 -0.0340296)
(-9.78986e-05 -0.175837 -0.0360924)
(-2.38863e-05 -0.180912 -0.0328711)
(-0.000617718 -0.212399 -0.023653)
(-0.00111453 -0.426567 -0.00102963)
(-0.00223003 -0.651473 -0.0064162)
(0.00167626 -0.608173 -0.0040812)
(0.00142245 -0.484216 -0.00153827)
(0.000444381 -0.51178 -0.0024687)
(-0.00158762 -0.476125 -0.00141927)
(-0.000998069 -0.625651 -0.00201603)
(0.00355033 -0.349659 0.00914072)
(-2.12248e-05 -0.062945 0.0263848)
(-0.00091559 -0.0921637 0.0163701)
(0.000435411 -0.159577 -0.0249994)
(-5.2738e-05 -0.123341 0.00280861)
(0.000769941 -0.158631 -0.0292431)
(-0.000751861 -0.159502 -0.0278515)
(5.91355e-05 -0.125886 0.00219328)
(0.000915423 -0.158591 -0.0282448)
(0.000272856 -0.156169 -0.0345009)
(-0.000158985 -0.155282 -0.0370163)
(-0.000204561 -0.161656 -0.0330158)
(-0.00214423 -0.185778 -0.0220332)
(-0.00205507 -0.422001 -0.00035977)
(-0.00250264 -0.66578 -0.00418519)
(0.00155666 -0.624461 -0.00280222)
(0.00255259 -0.485625 -0.000913169)
(5.46156e-08 -0.510963 -0.00229443)
(-0.00170321 -0.476014 -0.000820845)
(-0.00125132 -0.640943 -0.00199416)
(0.00365171 -0.353447 0.0100249)
(-0.000552366 -0.0475161 0.0349545)
(-0.00107444 -0.0629191 0.0235024)
(0.000287563 -0.115588 -0.021717)
(-3.45069e-05 -0.0858223 0.00952337)
(0.00064784 -0.117045 -0.0256696)
(-0.00062812 -0.117081 -0.0237977)
(5.00272e-05 -0.0853104 0.00977631)
(0.000870648 -0.116315 -0.0242781)
(0.00027398 -0.116677 -0.0314898)
(-5.75095e-05 -0.116453 -0.0347185)
(-0.000349545 -0.120444 -0.0293119)
(-0.00105672 -0.134599 -0.0169002)
(-0.00180914 -0.414745 0.000383329)
(-0.00196669 -0.682319 -0.00399681)
(0.00130691 -0.645994 -0.00296937)
(0.00264338 -0.484711 -0.000830993)
(0.000135389 -0.511958 -0.00236143)
(-0.00110571 -0.476042 -0.000583698)
(-0.00161036 -0.662971 -0.00251065)
(0.00313751 -0.363867 0.0115857)
(0.001088 -0.0321558 0.067357)
(-0.000946126 -0.037802 0.0481649)
(-0.000225868 -0.0726236 0.00361981)
(-2.10832e-06 -0.0509141 0.0350436)
(-0.000123937 -0.073707 -0.000243423)
(0.000310224 -0.0738253 0.00176172)
(-9.49311e-06 -0.0512171 0.034971)
(-0.000253307 -0.0734374 0.000926343)
(8.46551e-05 -0.0737269 -0.00624195)
(-7.54475e-05 -0.0738348 -0.00928356)
(0.000996918 -0.0764235 -0.00354567)
(-0.00129534 -0.0886405 0.0175813)
(-0.00203869 -0.410636 0.00173751)
(-0.00103227 -0.701045 -0.00373402)
(0.00110684 -0.662388 -0.00308409)
(0.00208242 -0.483776 -0.00118597)
(0.000420229 -0.509666 -0.00219642)
(-0.000621788 -0.473693 8.2809e-05)
(-0.00167166 -0.679792 -0.00317373)
(-0.000500598 -0.387599 0.0073614)
(0.00407951 -0.0747269 0.00252014)
(0.000728316 -0.0552531 0.00356022)
(0.000248937 -0.0554923 0.00639773)
(6.70941e-05 -0.0508864 0.00484)
(0.000390462 -0.054256 0.00647108)
(-0.000378097 -0.0543747 0.00652626)
(7.15825e-06 -0.0507599 0.00495682)
(0.000425405 -0.0541935 0.00651144)
(3.78653e-05 -0.0532542 0.00641071)
(-0.000128484 -0.05322 0.00634803)
(-0.000675119 -0.055361 0.0061949)
(-0.00344728 -0.0739049 0.0065166)
(-0.0017907 -0.418624 -0.000469245)
(-0.00092577 -0.717051 -0.00268294)
(0.00123002 -0.676044 -0.00351638)
(0.00152757 -0.479942 -0.00109888)
(0.000570806 -0.506186 -0.00200903)
(-0.00122687 -0.471455 0.000677553)
(-0.000891053 -0.691917 -0.00224794)
(0.000617584 -0.40671 0.00407069)
(0.00239813 -0.0567506 0.00124513)
(-0.000260839 -0.0449861 0.000948468)
(0.000103775 -0.0411573 0.000880277)
(2.35271e-05 -0.0413332 0.00114225)
(-0.000300058 -0.039777 0.000939425)
(0.000297474 -0.0398219 0.00094132)
(-3.76165e-06 -0.0412974 0.00112139)
(-0.00029798 -0.0397299 0.00091443)
(-2.56913e-05 -0.0393027 0.000884524)
(-0.000129715 -0.0396293 0.000788936)
(-0.000326408 -0.0424929 0.000488971)
(-0.000913819 -0.0702795 -0.000160557)
(-0.00176403 -0.415703 -0.00152651)
(-0.00112139 -0.740602 -0.00292402)
(0.000915267 -0.690078 -0.00384443)
(0.000888532 -0.475557 -0.000668778)
(0.000863077 -0.501191 -0.00140692)
(-0.0016523 -0.467412 0.00120854)
(-0.000922968 -0.710155 -0.00224938)
(0.000268345 -0.420397 0.0046205)
(0.0014131 -0.054585 0.000313799)
(-0.000140642 -0.0401979 0.000493247)
(0.000166652 -0.0479661 -0.000574407)
(1.49875e-05 -0.0353928 0.000631824)
(-0.0002604 -0.0458345 -0.000528053)
(0.00024524 -0.0459311 -0.000524898)
(-1.98727e-06 -0.0353587 0.000613714)
(-0.000230689 -0.0458348 -0.000542416)
(-4.23287e-07 -0.0453463 -0.000526925)
(-4.41654e-05 -0.0462191 -0.000601663)
(3.21082e-05 -0.0520261 -0.000847103)
(0.00127173 -0.0820819 -0.00185353)
(-0.00141741 -0.409622 -0.000981705)
(-0.00120992 -0.759451 -0.0035835)
(0.000258316 -0.703098 -0.00428469)
(0.000663748 -0.470385 -1.80117e-05)
(0.00151715 -0.495572 -0.00105348)
(-0.00132135 -0.462274 0.00179684)
(-0.000917208 -0.732386 -0.00340167)
(-0.000413164 -0.428791 0.00371456)
(0.00158377 -0.0525604 0.000223654)
(1.24671e-05 -0.0376886 -2.56885e-05)
(-2.85186e-05 -0.0430742 -8.04584e-05)
(-2.87395e-05 -0.0323403 7.95675e-05)
(0.000157381 -0.0413237 -0.000206984)
(-0.000152644 -0.0413389 -0.000197609)
(-2.11489e-06 -0.0324545 9.59269e-05)
(0.000139843 -0.0412288 -0.000200348)
(-7.57257e-06 -0.0407476 -0.000292118)
(4.6331e-05 -0.0418555 -0.000313694)
(0.000237681 -0.0486797 -0.000324345)
(0.00175643 -0.0800492 -0.000587912)
(-0.00105491 -0.40358 -0.000294307)
(-0.00127881 -0.775267 -0.0037549)
(-0.000252363 -0.712104 -0.00467007)
(0.000658299 -0.465991 0.000788653)
(0.00132584 -0.486591 -0.000724165)
(-0.000484638 -0.452195 0.00227442)
(-0.000268487 -0.750983 -0.0040567)
(-8.5826e-05 -0.442149 0.000963614)
(0.000955279 -0.0513086 -8.13787e-05)
(-0.00018856 -0.0399449 -0.000431342)
(-0.000277656 -0.0488394 -0.00154397)
(-5.47013e-05 -0.0346422 -0.000891139)
(7.21426e-05 -0.0483663 -0.00190915)
(-6.16621e-05 -0.0483129 -0.00190884)
(-3.63151e-06 -0.0345116 -0.000906043)
(3.49986e-05 -0.0484086 -0.00191381)
(1.76047e-05 -0.0491126 -0.00202846)
(0.000228409 -0.0506235 -0.00196396)
(0.000589424 -0.0580108 -0.0015983)
(0.00159547 -0.0855358 -0.000743466)
(-0.000372849 -0.39858 -6.74618e-05)
(-0.00122723 -0.788143 -0.00370359)
(-0.000679991 -0.718072 -0.00476352)
(0.000380417 -0.462065 0.000977836)
(0.000840919 -0.474489 -0.000553136)
(0.000236835 -0.442555 0.00202006)
(0.000287875 -0.764781 -0.0041322)
(0.000152833 -0.449896 -0.000409608)
(9.96884e-05 -0.0542568 -0.000279092)
(9.68357e-05 -0.0430976 -0.000275391)
(-9.3202e-05 -0.0635485 -0.0011611)
(-5.41946e-05 -0.0468686 -0.00117894)
(0.000170594 -0.066527 -0.00161587)
(-0.000174804 -0.0664921 -0.00164192)
(7.17323e-07 -0.0469649 -0.00118089)
(0.000154359 -0.0665567 -0.00163324)
(4.72154e-05 -0.0678051 -0.00174318)
(0.000256728 -0.0684129 -0.00155106)
(0.000296977 -0.0708974 -0.00088312)
(0.000785915 -0.0861249 -0.000297699)
(-0.00086603 -0.392013 0.000109013)
(-0.000905958 -0.797197 -0.00316387)
(-0.000784543 -0.719991 -0.00420491)
(-4.78502e-06 -0.456277 0.000852591)
(0.000271961 -0.453859 -0.000398114)
(0.00106829 -0.429119 0.00148356)
(0.000402667 -0.779252 -0.00421878)
(-0.00055106 -0.457593 -0.00103796)
(0.000596835 -0.0554778 -7.50852e-05)
(0.000203092 -0.0438625 5.14533e-06)
(0.000235539 -0.0604511 2.06122e-05)
(5.23803e-06 -0.0514643 -7.95691e-06)
(0.000118048 -0.0652907 1.54419e-06)
(-0.000112793 -0.0655925 2.96611e-06)
(1.2587e-07 -0.05135 2.17297e-05)
(0.000125024 -0.065771 8.58028e-06)
(1.03091e-05 -0.0684566 5.80168e-06)
(-2.22235e-05 -0.0673812 2.04475e-05)
(-0.000199055 -0.0661476 0.000116633)
(0.000326768 -0.0845766 0.000155299)
(0.000394327 -0.38248 0.000624418)
(-0.000542862 -0.804022 -0.00261381)
(-0.0014685 -0.716829 -0.00320216)
(-0.000485321 -0.443767 0.000514415)
(-0.00173054 -0.424937 -0.00104488)
(0.00250131 -0.410391 0.000873429)
(0.000604728 -0.791447 -0.00414486)
(-0.000907358 -0.466309 -0.00107185)
(0.00103797 -0.0559855 3.00346e-05)
(0.000152311 -0.0428636 -3.38207e-05)
(0.000283748 -0.0595752 0.000500266)
(4.78242e-05 -0.0453133 0.000682744)
(2.8868e-05 -0.0621057 0.000730364)
(-1.76244e-05 -0.0620476 0.00074614)
(7.7291e-07 -0.0453114 0.000698197)
(4.14761e-05 -0.0621336 0.000750668)
(-2.2621e-05 -0.063064 0.000792685)
(-0.000125747 -0.0633969 0.000712007)
(-4.44255e-05 -0.0650539 0.000445736)
(0.000629875 -0.0809692 0.000699315)
(0.00209969 -0.369494 0.00120805)
(-0.000190505 -0.801742 -0.000300622)
(-0.00176823 -0.714785 -0.00237278)
(-0.00166467 -0.420312 -5.75579e-05)
(-0.00265098 -0.382834 -0.00278941)
(0.00259161 -0.389352 -0.000523987)
(0.000385021 -0.801545 -0.00331396)
(-0.000720832 -0.476359 -0.000500218)
(-0.000663382 -0.0570167 -0.000340877)
(0.000281745 -0.0441938 -0.000276131)
(-4.17374e-06 -0.0544565 0.00187722)
(6.20785e-05 -0.0420509 0.000317334)
(0.000462203 -0.0565065 0.00207873)
(-0.000457561 -0.0565661 0.00207716)
(-4.58155e-07 -0.0421139 0.000341946)
(0.000302336 -0.0566726 0.00209938)
(-0.000164308 -0.0580792 0.00194789)
(-4.54193e-05 -0.0583509 0.00195821)
(0.00012008 -0.0607384 0.00179833)
(0.000144207 -0.0744263 0.00277069)
(0.00311194 -0.349712 0.00197468)
(0.000278242 -0.799113 0.00240054)
(-0.00151123 -0.716136 -0.00170067)
(-0.00218084 -0.388478 -0.00141691)
(-0.00189903 -0.327196 -0.00380889)
(0.00221044 -0.360483 -0.00180958)
(-0.000499506 -0.811641 -0.00261685)
(-0.00204126 -0.480863 0.00338871)
(-0.00298712 -0.0648388 -0.00234484)
(5.80473e-05 -0.0481943 -0.000750916)
(-0.000113678 -0.0446531 0.00105364)
(1.21869e-05 -0.0425181 -0.000525789)
(0.000180191 -0.0445481 0.00128154)
(-0.000169275 -0.0445585 0.00128688)
(-5.44009e-06 -0.0424219 -0.000476071)
(0.000134069 -0.0447135 0.001257)
(8.24453e-07 -0.0485845 0.000960087)
(-6.71491e-06 -0.0495383 0.000826152)
(5.69323e-05 -0.0536002 0.000731427)
(-0.000743592 -0.0615494 0.00207306)
(0.00296639 -0.326925 0.0030052)
(0.00103979 -0.799228 0.00580455)
(-2.68424e-05 -0.715727 -0.000675661)
(-0.000830548 -0.350001 -0.00333314)
(-0.00160282 -0.310771 -0.00232831)
(0.00145273 -0.348726 -0.00134221)
(-0.000705911 -0.814439 -0.00254424)
(-0.00214512 -0.478453 0.00043719)
(-0.00476019 -0.100613 -0.00181359)
(-0.000742054 -0.0590305 -0.000387835)
(-0.000132325 -0.0521148 -0.000416072)
(-3.98204e-05 -0.051616 -0.000609092)
(-0.000206099 -0.0512758 -0.000370082)
(0.000200364 -0.0512821 -0.000371678)
(6.87494e-06 -0.0509808 -0.000588308)
(-6.52336e-05 -0.0521486 -0.000420448)
(0.000179275 -0.0591721 -0.000647617)
(6.32998e-05 -0.0620233 -0.000762522)
(6.75879e-05 -0.0655474 -0.000667384)
(0.00070077 -0.0664857 -0.000241859)
(0.000461429 -0.320003 4.21158e-05)
(0.00149585 -0.792397 0.002233)
(0.00055084 -0.712896 -0.00139476)
(0.000312699 -0.332473 -0.00275346)
(-0.146967 -0.529241 -0.270918)
(-0.0123123 -0.547921 -0.290017)
(0.026771 -0.567861 -0.295626)
(0.0820232 -0.417238 -0.215938)
(0.052648 -0.303197 -0.194401)
(0.0225847 -0.293545 -0.177959)
(0.0105374 -0.284039 -0.15328)
(0.00332538 -0.296026 -0.158996)
(0.00835136 -0.27929 -0.147435)
(-0.00525682 -0.279073 -0.147033)
(0.000812447 -0.298948 -0.154064)
(0.00700353 -0.279645 -0.145504)
(-0.00119043 -0.26905 -0.147205)
(-0.0139781 -0.265668 -0.150168)
(-0.0379684 -0.276483 -0.160902)