/*--------------------------------*- C++ -*----------------------------------*\
| =========                 |                                                 |
| \\      /  F ield         | OpenFOAM: The Open Source CFD Toolbox           |
|  \\    /   O peration     | Version:  2.3.0                                 |
|   \\  /    A nd           | Web:      www.OpenFOAM.org                      |
|    \\/     M anipulation  |                                                 |
\*---------------------------------------------------------------------------*/
FoamFile
{
    version     2.0;
    format      ascii;
    class       volVectorField;
    location    "3.19998";
    object      U.water;
}
// * * * * * * * * * * * * * * * * * * * * * * * * * * * * * * * * * * * * * //

dimensions      [0 1 -1 0 0 0 0];

internalField   nonuniform List<vector> 
10000
(
(-0.3296 -1.26884 -0.807473)
(0.0662034 -1.31656 -0.84357)
(0.174717 -0.967983 -0.66866)
(0.205256 -0.640916 -0.414653)
(0.224556 -0.463583 -0.214212)
(0.346908 -0.341467 -0.43388)
(0.340563 -0.222107 -0.411683)
(0.0586688 -0.121032 -0.365887)
(9.20737e-05 -0.108042 -0.274761)
(-0.0458671 -0.130316 -0.314032)
(-0.170909 -0.222499 -0.509832)
(-0.278379 -0.420721 -0.23969)
(-0.27561 -0.396602 -0.108243)
(-0.294777 -0.406599 -0.103876)
(-0.28367 -0.418394 -0.125391)
(-0.183362 -0.488179 -0.208594)
(-0.233245 -0.780401 -0.424182)
(-0.120579 -1.23788 -0.750572)
(-0.0168075 -1.26916 -0.848554)
(0.328817 -1.20683 -0.765788)
(0.0200979 -1.2711 -0.0926611)
(-0.00781574 -1.26043 -0.0922418)
(-0.013308 -0.941305 -0.0620685)
(-0.00932823 -0.222967 0.0228647)
(0.0121151 -0.335191 -0.105771)
(0.082024 -0.0290865 -1.16357)
(0.00249714 0.0455285 -0.753826)
(-0.00350193 -0.0571567 -0.511049)
(0.000626013 -0.0720391 -0.3623)
(0.00106971 -0.0529539 -0.445904)
(-0.0506694 -0.021054 -1.17132)
(0.00210486 -0.0461909 -0.926994)
(0.00229128 -0.12205 -0.196722)
(-0.00846999 -0.114044 -0.20324)
(-0.00137043 -0.143925 -0.165899)
(0.0499642 -0.347247 -0.0651508)
(-0.00637265 -0.686084 -0.0321848)
(0.0179212 -1.33298 -0.0972771)
(0.00173519 -1.2446 -0.0992322)
(-0.0145598 -1.27814 -0.115939)
(0.00910845 -1.23392 0.0130211)
(0.0188531 -1.09237 0.0153525)
(-0.0262552 -0.980498 -0.0350204)
(-0.0179013 -0.439223 -0.0282431)
(0.00944833 -0.363251 -0.0751125)
(-0.00228375 -0.123422 -0.223398)
(0.00238484 -0.103653 -0.267881)
(0.00256985 -0.0873517 -0.282991)
(-0.000518088 -0.0927142 -0.26367)
(0.000725374 -0.110614 -0.224577)
(-0.000742871 -0.116525 -0.259514)
(0.0402602 -0.147434 -0.206227)
(0.00445253 -0.127342 -0.204098)
(0.00149628 -0.11604 -0.217353)
(0.00793104 -0.14015 -0.183032)
(0.000349284 -0.359992 -0.0749636)
(0.0122609 -0.716371 -0.042795)
(-0.00585241 -1.27882 -0.0326013)
(-0.0126583 -1.24612 -0.0193854)
(-0.0254717 -1.30913 -0.0462429)
(0.00841531 -1.26463 0.0351522)
(0.0199981 -1.08947 0.0204155)
(-0.00985947 -0.771527 0.0293902)
(-0.0091293 -0.612843 -0.0301127)
(0.00544438 -0.355833 -0.0725916)
(-0.00358374 -0.0945252 -0.260003)
(0.000793639 -0.0670029 -0.350944)
(-0.000444148 -0.0735277 -0.336458)
(-7.59598e-06 -0.0841273 -0.287734)
(-0.000396998 -0.0928059 -0.26303)
(-0.00030231 -0.0899491 -0.267187)
(-7.31919e-05 -0.0978683 -0.248756)
(1.15371e-05 -0.110768 -0.254236)
(-2.12682e-05 -0.109522 -0.262771)
(0.00450403 -0.14054 -0.206124)
(0.00501437 -0.314922 -0.0811996)
(0.0153628 -0.715444 -0.03173)
(-0.0146447 -1.11618 0.000264529)
(-0.00673113 -1.13942 0.00925102)
(-0.0244398 -1.25172 -0.0123586)
(-0.0369901 -1.54656 0.0280573)
(0.00844172 -1.31897 0.00764227)
(0.0270928 -0.698581 0.0448715)
(0.000334793 -0.700919 -0.0233887)
(0.00587572 -0.338619 -0.0718198)
(-0.00553036 -0.107804 -0.228901)
(0.00020233 -0.0779656 -0.315923)
(-7.78643e-05 -0.0748229 -0.325306)
(0.000121382 -0.0861954 -0.286928)
(-9.13403e-05 -0.0966991 -0.255842)
(-0.000374779 -0.102787 -0.238234)
(-0.000280211 -0.117574 -0.209531)
(0.000276104 -0.113191 -0.21721)
(0.000327955 -0.106715 -0.22874)
(0.00453797 -0.128047 -0.191628)
(-0.00288575 -0.299564 -0.0933898)
(0.00921795 -0.725543 -0.0238692)
(-0.0272205 -1.08395 0.0173049)
(0.0151318 -1.21582 0.0171311)
(0.0204669 -1.2211 -0.0174262)
(-0.0499953 -1.61592 0.0447363)
(-0.00186838 -1.39758 0.0257225)
(0.0362665 -0.708049 0.0321659)
(-0.00533366 -0.592323 0.00915693)
(-0.000246175 -0.293593 -0.0889393)
(-0.00480411 -0.0982875 -0.248145)
(-9.87933e-05 -0.0746943 -0.333212)
(-0.0002246 -0.0729278 -0.332723)
(3.19135e-06 -0.0836476 -0.293683)
(5.9053e-05 -0.0910408 -0.263271)
(-9.49353e-05 -0.097224 -0.251618)
(-0.00048138 -0.111138 -0.218582)
(-0.000131109 -0.111804 -0.216466)
(-0.000341175 -0.108142 -0.226678)
(0.00178719 -0.13066 -0.190786)
(-0.00168532 -0.290729 -0.0994107)
(-0.00681639 -0.669475 -0.000229222)
(-0.0137848 -1.09557 0.0194876)
(0.0176611 -1.33402 -0.00905226)
(-0.00382871 -1.07163 0.0164061)
(-0.0233302 -1.97959 -0.0105948)
(-0.0181643 -1.52885 0.00114153)
(0.02046 -0.85535 0.00960139)
(-0.00251733 -0.366505 0.0405862)
(0.0013667 -0.273902 -0.0996245)
(-0.00173226 -0.0982494 -0.249307)
(8.22963e-06 -0.072347 -0.326418)
(-2.76532e-05 -0.0742144 -0.334909)
(-9.99222e-06 -0.0834947 -0.293862)
(0.000138956 -0.0936851 -0.264876)
(-0.000228703 -0.0963762 -0.251352)
(-0.000423186 -0.113879 -0.213249)
(-2.92333e-05 -0.116919 -0.212011)
(-0.000408554 -0.108747 -0.223057)
(-2.37459e-05 -0.131355 -0.187868)
(-0.00505901 -0.282171 -0.0942065)
(-0.0126246 -0.445944 0.0190666)
(-0.0113832 -1.33547 -0.000493984)
(0.008889 -1.22397 0.0136087)
(-0.0216398 -1.04941 0.0284338)
(-0.00276096 -1.973 -0.060627)
(-0.0206074 -1.65005 -0.0487834)
(-0.0266198 -1.1337 0.00837403)
(0.00848278 -0.271832 0.0469473)
(0.0025803 -0.223605 -0.0988983)
(0.00127115 -0.0937849 -0.252339)
(-0.000202491 -0.0757337 -0.3216)
(-0.000107929 -0.0703517 -0.32485)
(-3.45516e-06 -0.0816583 -0.281531)
(0.000220567 -0.0880235 -0.258796)
(-5.49699e-05 -0.0921976 -0.247031)
(-0.000273122 -0.110116 -0.203197)
(-6.57856e-05 -0.110931 -0.199078)
(-0.000265168 -0.108263 -0.210016)
(-0.00188789 -0.12364 -0.176731)
(-0.000744908 -0.238016 -0.0741209)
(0.00396313 -0.383672 0.0181508)
(-0.0205388 -1.47289 -0.0331343)
(0.00339247 -1.20933 0.0252643)
(0.00301971 -1.08475 0.0202)
(0.0123042 -1.87714 -0.0639632)
(-0.000318065 -1.61055 -0.0547105)
(-0.0403362 -1.34895 -0.00314203)
(0.0146757 -0.267308 0.0343443)
(-0.00506768 -0.165527 -0.052363)
(0.00116629 -0.0664028 -0.204626)
(0.000158439 -0.0551054 -0.25295)
(-0.000604836 -0.0541853 -0.255434)
(-0.00154996 -0.0606009 -0.218823)
(0.000351217 -0.0651191 -0.19805)
(0.000116282 -0.067058 -0.190072)
(-0.000579203 -0.079068 -0.14408)
(0.000700639 -0.0850715 -0.13308)
(-0.000198369 -0.0794579 -0.149531)
(0.00093735 -0.091985 -0.124474)
(0.0076936 -0.172605 -0.0222897)
(0.00669678 -0.388451 0.0101706)
(0.00484911 -1.52924 -0.0224665)
(0.00582532 -1.3912 -0.00815213)
(0.00494826 -1.10948 0.015574)
(0.029449 -1.78996 -0.0402098)
(0.0182461 -1.5001 -0.0260228)
(-0.0355198 -1.3805 -0.0358592)
(0.0102986 -0.303339 0.0198076)
(-0.00123831 -0.07329 0.00794641)
(0.000749885 -0.0261939 0.00389755)
(0.000459617 -0.0185562 0.00385751)
(0.000145083 -0.0108324 0.00401103)
(0.000102889 -0.0259262 0.00421412)
(-0.000215308 -0.0300508 0.00450487)
(0.000161472 -0.0270058 0.00444096)
(0.000450058 -0.033739 0.00609557)
(-5.70951e-05 -0.0334362 0.00677879)
(-0.000839438 -0.0344323 0.00584901)
(-0.0011611 -0.0441118 0.00563287)
(0.000593578 -0.0756572 0.00639791)
(-0.0189654 -0.430095 0.00245122)
(0.0151926 -1.57202 -0.00870887)
(0.0120149 -1.37183 -0.0189483)
(0.00377635 -1.14181 0.0150251)
(0.0371031 -1.75779 -0.0534934)
(0.00499001 -1.38889 -0.0164273)
(-0.036149 -1.38894 -0.0469415)
(0.00532225 -0.352967 0.00343848)
(-0.00144968 -0.127506 -0.000582406)
(-0.000290767 -0.0451224 -0.000881439)
(9.80293e-05 -0.0268072 -0.000459934)
(7.47431e-05 -0.0242295 -0.000327742)
(7.311e-05 -0.0275889 0.000787742)
(0.000284305 -0.030156 0.00101823)
(5.65507e-05 -0.033831 0.000672381)
(-0.00021556 -0.0306242 0.00131837)
(-0.000170499 -0.0299026 0.00126506)
(-0.00061245 -0.0327711 0.000762643)
(0.00039697 -0.0583831 -0.00169265)
(0.00179236 -0.161963 -0.00589422)
(-0.0208592 -0.442237 0.000847639)
(0.00922298 -1.56023 -0.0153551)
(-0.00115846 -1.1902 0.0012745)
(-0.0107213 -1.15618 0.0200061)
(0.0244502 -1.73931 -0.0511802)
(-0.000438561 -1.24678 -0.00476536)
(-0.0258913 -1.41163 -0.0321586)
(0.00764196 -0.518607 -0.0175127)
(0.00181275 -0.104113 -0.00167058)
(-0.000459323 -0.0451217 -0.000822164)
(-3.76091e-05 -0.0344386 -0.00204036)
(1.77617e-06 -0.0214055 -3.73573e-06)
(-0.000189901 -0.0292869 -0.000407953)
(0.000415976 -0.0310831 -0.00016198)
(2.95761e-05 -0.0250398 0.00111457)
(-0.000371538 -0.0307703 -3.15528e-05)
(-7.70134e-05 -0.0304388 -3.59118e-05)
(0.00030153 -0.0377737 -0.000529086)
(0.00136043 -0.074337 -0.00149757)
(0.00066774 -0.127053 0.00189667)
(0.00140248 -0.446393 -0.000476495)
(-0.0155214 -1.44319 -0.0195301)
(-0.0164371 -1.09238 0.0312176)
(-0.0220647 -1.12074 0.0305473)
(-0.00326747 -1.72253 -0.0355788)
(0.00198057 -1.04707 0.0305913)
(-0.00149991 -1.4036 -0.0105168)
(0.0137888 -0.653809 -0.0234824)
(0.00440347 -0.143389 -0.00504311)
(-0.00040488 -0.0519478 -0.00235428)
(-0.00024146 -0.0437737 -0.0028701)
(2.68626e-05 -0.0240298 -0.000945458)
(7.6467e-06 -0.030099 -0.00123863)
(-5.07681e-05 -0.0301159 -0.000932603)
(6.39564e-05 -0.0220428 0.000103975)
(0.000139886 -0.0289897 -0.000595818)
(8.55969e-05 -0.028938 -0.000378598)
(0.000487351 -0.0373239 -0.000223221)
(0.000794834 -0.056254 0.000971821)
(-0.000341626 -0.0755566 0.00533601)
(0.0102221 -0.428824 0.00184318)
(-0.0133256 -1.34212 0.00455283)
(-0.0197786 -1.11923 0.0194955)
(0.00879729 -1.11653 0.0299449)
(-0.0128452 -1.65881 -0.0234753)
(-0.0018111 -1.05186 0.0320966)
(0.0102089 -1.39059 -0.0171345)
(0.0164745 -0.684284 -0.00914062)
(0.00662622 -0.153944 -0.00144812)
(-0.000276824 -0.0661658 -0.0013777)
(-0.000707522 -0.0628182 -0.0016682)
(-0.000505188 -0.0323634 -0.00177838)
(-0.000122297 -0.0414019 -0.00308092)
(-0.000206156 -0.0403079 -0.00310889)
(-2.02026e-05 -0.0259008 -0.00101469)
(0.000169403 -0.0366306 -0.00278332)
(0.00024414 -0.0344607 -0.00197742)
(0.000496326 -0.0406481 -0.00112385)
(0.000334068 -0.0556448 0.000623344)
(-0.00081888 -0.0772711 0.000510708)
(-0.000736174 -0.421066 0.00713852)
(-0.00618479 -1.36406 0.0212776)
(-0.00458061 -1.20773 0.00179151)
(0.0304854 -1.19204 0.013011)
(-0.00723419 -1.57882 -0.0201628)
(-0.00546298 -1.08006 0.0123745)
(0.00996877 -1.38994 -0.0255497)
(0.0138082 -0.683501 -0.00269989)
(0.00536141 -0.121281 0.00318346)
(-1.28413e-05 -0.0507311 0.000951142)
(-0.000333446 -0.0518087 0.00101542)
(-0.000375203 -0.0445648 -0.00084225)
(-1.5362e-05 -0.0603527 -0.00154515)
(-0.000600038 -0.0605585 -0.00207385)
(-0.000398461 -0.0352176 -0.00176199)
(-0.000133303 -0.0566297 -0.00382044)
(6.31878e-05 -0.0487677 -0.00360052)
(0.000365224 -0.0485529 -0.00247615)
(0.000462708 -0.0520655 0.000503033)
(-0.00113108 -0.0921128 -0.000677978)
(-0.0143481 -0.430909 0.00577198)
(-0.00177932 -1.58997 0.00281021)
(0.00262543 -1.19917 0.0141321)
(0.0277518 -1.21787 0.0129596)
(-0.0121792 -1.51982 -0.017884)
(-0.00667078 -0.971861 0.0131155)
(0.00910653 -1.40573 -0.0290882)
(0.00276132 -0.669481 -0.00395477)
(0.00220594 -0.0935652 0.00460044)
(-0.000653624 -0.044109 0.00102172)
(0.000199155 -0.0470746 0.00120906)
(0.000136883 -0.0380143 0.000606211)
(9.8721e-05 -0.0498129 0.000591672)
(-6.82567e-05 -0.0536037 0.000134463)
(5.16995e-05 -0.0460226 -0.00112919)
(0.000231152 -0.0740223 -0.000615433)
(-0.000341208 -0.0700066 -0.00188314)
(-0.000644059 -0.0650844 -0.00210425)
(0.000100032 -0.0571035 -0.000183687)
(0.000553103 -0.0749007 0.000848679)
(-0.00924231 -0.401313 0.0068486)
(-0.00144467 -1.71553 -0.0303663)
(-0.00637847 -1.0987 0.030421)
(0.0241089 -1.16192 0.0143137)
(0.0041631 -1.42432 -0.016731)
(-0.0074667 -0.92095 0.0107893)
(0.00358524 -1.44894 -0.0311462)
(-0.0144651 -0.64708 -0.000718509)
(8.73489e-05 -0.0764827 0.00422408)
(-0.000818109 -0.0468546 -0.000323112)
(-4.88964e-05 -0.048844 -0.000931007)
(5.45234e-05 -0.0378841 -0.000543578)
(-2.15594e-05 -0.0547851 -0.000373777)
(0.000421666 -0.0540926 0.000105839)
(0.00043494 -0.0478297 -1.39913e-05)
(0.000476297 -0.0546332 0.000851062)
(0.000220997 -0.056982 0.000477491)
(-0.00094982 -0.0654278 -7.74904e-05)
(-0.000307991 -0.0612088 -0.000995257)
(-0.000285551 -0.0705989 0.00194453)
(0.00416698 -0.354513 0.00754007)
(-0.00222111 -1.73196 -0.0393454)
(-0.0114812 -0.932688 0.0273906)
(0.0174669 -1.00253 0.0103736)
(-0.00939904 -1.17418 0.00602443)
(0.00685812 -0.821974 0.0192796)
(0.000485424 -1.48072 -0.0235869)
(-0.0267046 -0.640469 -0.00458509)
(-0.000311279 -0.0659485 0.00312668)
(-0.000796481 -0.0536813 -0.00419311)
(-0.000220784 -0.0631552 -0.00380025)
(7.63685e-05 -0.0486914 -0.00522399)
(0.000130234 -0.060838 -0.00301229)
(-0.000244931 -0.0602379 -0.00216204)
(1.67266e-05 -0.0465669 -0.00337784)
(0.000210143 -0.0666223 -0.0012177)
(0.000538152 -0.0567374 0.000355278)
(-5.63993e-05 -0.0564582 0.00128987)
(-1.02439e-05 -0.0673755 -0.00215015)
(-0.00187799 -0.0694539 0.00210044)
(0.00571036 -0.315866 0.00427012)
(-0.000932332 -1.75778 -0.0233451)
(-0.00660379 -0.787372 0.0145255)
(0.0104442 -0.82606 0.0127668)
(-0.0134874 -0.97642 0.0061133)
(0.0112597 -0.574467 0.0201372)
(0.00280795 -1.49401 -0.0104669)
(-0.0248045 -0.662891 -0.00907549)
(-0.00296053 -0.0776654 -0.0015956)
(-0.000359328 -0.0976695 -0.0118455)
(-0.000138227 -0.104205 -0.0115721)
(-3.82281e-05 -0.101338 -0.01347)
(0.00021737 -0.100808 -0.0114449)
(-0.00023088 -0.0961486 -0.0108492)
(8.24259e-05 -0.0898493 -0.0121405)
(-5.66975e-05 -0.0891031 -0.0092749)
(-5.41297e-05 -0.0736611 -0.00700417)
(0.000310299 -0.0647253 -2.96124e-05)
(0.000267963 -0.0936414 -0.00899413)
(-0.000305995 -0.0886131 -0.00182835)
(0.00438476 -0.216134 0.00372892)
(-0.00094842 -1.76168 -0.0104826)
(-0.00687347 -0.485178 0.013042)
(0.00631043 -0.447714 0.0161078)
(-0.00501718 -0.964261 -0.00620048)
(0.00438412 -0.468212 0.00847915)
(0.000488994 -1.49874 -0.00166836)
(-0.000894897 -0.678294 -0.00466813)
(-0.00600467 -0.116464 -0.0030411)
(7.72438e-05 -0.21378 -0.00821213)
(-3.8032e-05 -0.233058 -0.00951702)
(-2.84032e-05 -0.23002 -0.00955587)
(-2.78818e-05 -0.226888 -0.00938526)
(-0.000111462 -0.215951 -0.00906471)
(-8.38931e-05 -0.204788 -0.00889956)
(-0.000138914 -0.200235 -0.00867342)
(-0.000154575 -0.164355 -0.00741681)
(0.000344282 -0.0759215 -0.000991653)
(0.000344537 -0.195312 -0.00768897)
(0.00239086 -0.125105 -0.00314665)
(0.00124414 -0.123821 0.00283515)
(0.000376967 -1.76545 -0.00371598)
(-0.00367368 -0.282434 0.00480835)
(0.00194031 -0.259284 0.00495974)
(-0.349971 -1.26913 -0.732088)
(0.0715907 -1.31776 -0.761921)
(0.185893 -0.965783 -0.60427)
(0.212986 -0.651296 -0.383685)
(0.236124 -0.465093 -0.189925)
(0.362336 -0.338249 -0.422145)
(0.325561 -0.219305 -0.387129)
(0.0383274 -0.111862 -0.356206)
(-0.000163477 -0.103629 -0.26889)
(-0.0418132 -0.125589 -0.299528)
(-0.173395 -0.221243 -0.488436)
(-0.286404 -0.426219 -0.22975)
(-0.285685 -0.399242 -0.099454)
(-0.303745 -0.407991 -0.0961483)
(-0.294322 -0.418927 -0.111721)
(-0.196307 -0.487448 -0.180023)
(-0.248803 -0.778188 -0.373963)
(-0.134763 -1.22555 -0.655867)
(-0.0183987 -1.27055 -0.775426)
(0.345098 -1.20312 -0.69687)
(0.0200471 -1.27968 -0.0818295)
(-0.00817444 -1.27346 -0.0867998)
(-0.0125886 -0.942047 -0.0610198)
(-0.0109002 -0.321339 0.0150913)
(0.01417 -0.322011 -0.114464)
(0.083637 -0.0260303 -1.17305)
(0.00232682 0.0490024 -0.754946)
(-0.00351738 -0.0542881 -0.512926)
(0.000695329 -0.067031 -0.363561)
(0.00129505 -0.049154 -0.444617)
(-0.050226 -0.0192134 -1.17626)
(0.000679496 -0.0406369 -0.953704)
(0.00229178 -0.113426 -0.196234)
(-0.00944939 -0.106412 -0.203503)
(-0.00369598 -0.136933 -0.166785)
(0.0575815 -0.336276 -0.0700838)
(-0.00952789 -0.687039 -0.0329001)
(0.0159069 -1.32614 -0.0951202)
(0.000685262 -1.24773 -0.0978957)
(-0.0116877 -1.2786 -0.111836)
(0.00881523 -1.28558 0.0199947)
(0.0208186 -1.1517 0.018143)
(-0.0265424 -0.9933 -0.0333059)
(-0.0182756 -0.466582 -0.0161414)
(0.0106367 -0.354108 -0.0750715)
(-0.00201487 -0.12073 -0.220237)
(0.00238055 -0.0992333 -0.262541)
(0.00260397 -0.0820007 -0.281972)
(-0.000540991 -0.0870075 -0.262974)
(0.000729073 -0.104451 -0.222523)
(-0.000769361 -0.113501 -0.258412)
(0.0401574 -0.142536 -0.202676)
(0.00404729 -0.120564 -0.200543)
(0.00136824 -0.109218 -0.214411)
(0.00748132 -0.133248 -0.182639)
(-0.00105791 -0.351671 -0.0765571)
(0.0114059 -0.725692 -0.0416268)
(-0.00481888 -1.29699 -0.0290797)
(-0.0122544 -1.26241 -0.0131606)
(-0.0238882 -1.31789 -0.0470894)
(0.00659215 -1.3275 0.0441433)
(0.0210243 -1.14481 0.0278504)
(-0.00898177 -0.832123 0.0264655)
(-0.00977677 -0.630338 -0.0204201)
(0.00553094 -0.346408 -0.0739016)
(-0.00341994 -0.0876674 -0.260613)
(0.000783686 -0.0622706 -0.352323)
(-0.000452211 -0.0687211 -0.337025)
(-9.39085e-06 -0.0785538 -0.288048)
(-0.000402475 -0.0865954 -0.263693)
(-0.000332828 -0.0837592 -0.267928)
(-9.46603e-05 -0.0906739 -0.250243)
(1.91207e-05 -0.103705 -0.255244)
(-8.65972e-05 -0.102369 -0.263642)
(0.00439482 -0.136264 -0.206988)
(0.00421111 -0.306491 -0.0841112)
(0.0155728 -0.725084 -0.0301385)
(-0.0160885 -1.16161 0.00121001)
(-0.00659631 -1.18542 0.0147702)
(-0.0248517 -1.26296 -0.0147444)
(-0.0394772 -1.61337 0.0334419)
(0.0081305 -1.36835 0.0130288)
(0.0313806 -0.773209 0.0423202)
(0.000282965 -0.716454 -0.0194129)
(0.00572816 -0.331637 -0.0742456)
(-0.00549559 -0.100713 -0.228391)
(0.000192653 -0.0729548 -0.315815)
(-7.51863e-05 -0.0699392 -0.325327)
(0.000122256 -0.080638 -0.286949)
(-9.07645e-05 -0.0905832 -0.255902)
(-0.000377551 -0.0963005 -0.237871)
(-0.000271875 -0.110376 -0.208916)
(0.000284417 -0.106053 -0.217191)
(0.000307048 -0.0998442 -0.229014)
(0.00439097 -0.119597 -0.191944)
(-0.0034863 -0.291893 -0.0946549)
(0.00904607 -0.7356 -0.0230523)
(-0.0296408 -1.1394 0.0163346)
(0.0165316 -1.26637 0.0129928)
(0.0186227 -1.23455 -0.0137861)
(-0.0536534 -1.7387 0.0387913)
(-0.00122228 -1.4918 0.0192609)
(0.03974 -0.774515 0.0372365)
(-0.0045784 -0.667374 -6.10607e-05)
(-2.67978e-05 -0.286514 -0.0918315)
(-0.00450713 -0.0917957 -0.248571)
(-0.000144885 -0.0698104 -0.3337)
(-0.000223811 -0.068143 -0.332759)
(1.64725e-06 -0.0781948 -0.293827)
(5.7361e-05 -0.0849952 -0.263407)
(-9.17864e-05 -0.0908825 -0.251896)
(-0.000478115 -0.103904 -0.218764)
(-0.000128952 -0.104534 -0.216308)
(-0.000349984 -0.101176 -0.226679)
(0.00184789 -0.122343 -0.190541)
(-0.00209682 -0.281559 -0.0998707)
(-0.00760775 -0.703875 -0.00799965)
(-0.0142079 -1.15029 0.0188666)
(0.0179411 -1.35023 -0.00699863)
(-0.00440687 -1.11609 0.0190598)
(-0.0218221 -1.99587 -0.00879467)
(-0.0171758 -1.61113 -0.00450238)
(0.0198431 -0.901734 0.0224855)
(-0.000980842 -0.469991 0.0302668)
(0.00232559 -0.266971 -0.102814)
(-0.00163681 -0.0917852 -0.249462)
(-3.85347e-05 -0.0675736 -0.326472)
(-2.49713e-05 -0.0693728 -0.335042)
(-1.46569e-05 -0.0780531 -0.293978)
(0.000137014 -0.0876299 -0.265021)
(-0.000226805 -0.0900926 -0.251577)
(-0.000423325 -0.106422 -0.213326)
(-3.07252e-05 -0.109157 -0.212092)
(-0.00036264 -0.101557 -0.223068)
(0.000164204 -0.12262 -0.187982)
(-0.00547168 -0.273788 -0.0958954)
(-0.016399 -0.536178 0.0108293)
(-0.0113127 -1.3519 0.00257152)
(0.00848674 -1.27725 0.0159841)
(-0.0212728 -1.09885 0.029395)
(-0.00154576 -1.98642 -0.0635678)
(-0.01897 -1.68751 -0.0472354)
(-0.029216 -1.17479 0.0157823)
(0.0133134 -0.371498 0.0417457)
(0.00447396 -0.217905 -0.103147)
(0.00125463 -0.08747 -0.253965)
(-0.000217027 -0.0705691 -0.322553)
(-9.34204e-05 -0.0654645 -0.325977)
(2.46302e-05 -0.0760969 -0.28285)
(0.000216153 -0.0820773 -0.260388)
(-5.66763e-05 -0.0858971 -0.248669)
(-0.000244817 -0.102832 -0.205176)
(-8.01904e-05 -0.103877 -0.200744)
(-0.000172724 -0.101155 -0.211599)
(-0.00168803 -0.115823 -0.178765)
(-0.00187739 -0.232083 -0.0790005)
(0.00457624 -0.454874 0.0165374)
(-0.0214578 -1.48134 -0.0262568)
(0.00218929 -1.2794 0.0191477)
(0.00344186 -1.12849 0.0220602)
(0.0116186 -1.89949 -0.0698572)
(0.00146686 -1.63922 -0.0583804)
(-0.0388521 -1.34484 -0.00421401)
(0.0189716 -0.35056 0.0343171)
(-0.00331323 -0.163954 -0.0571602)
(0.00105461 -0.0606509 -0.207032)
(0.000124605 -0.0503064 -0.254653)
(-0.000590325 -0.0493303 -0.257422)
(-0.00153184 -0.0551532 -0.220634)
(0.000375375 -0.0593268 -0.19998)
(0.000113436 -0.0609892 -0.192233)
(-0.000598354 -0.0729659 -0.146653)
(0.000723727 -0.0789683 -0.135761)
(-0.000129211 -0.0733045 -0.152011)
(0.00109367 -0.0854288 -0.127481)
(0.0070013 -0.172518 -0.0290123)
(0.00738293 -0.446411 0.0119108)
(0.00431537 -1.53653 -0.019101)
(0.00553124 -1.40641 -0.0105063)
(0.00450094 -1.15007 0.0174566)
(0.0274188 -1.81997 -0.0439701)
(0.0174802 -1.51957 -0.0318788)
(-0.0360669 -1.36955 -0.0336667)
(0.0102719 -0.364789 0.0216013)
(-0.00223247 -0.112178 0.00695625)
(0.000828424 -0.0296537 0.00315212)
(0.000464376 -0.0234875 0.00303602)
(0.000137374 -0.0146899 0.00310697)
(9.62788e-05 -0.030614 0.00335353)
(-0.000237401 -0.0346682 0.00355598)
(0.000137181 -0.0304579 0.00348257)
(0.000432538 -0.0377599 0.00469905)
(-5.36352e-05 -0.0372139 0.00520585)
(-0.000859804 -0.0385763 0.00455195)
(-0.00123881 -0.0489966 0.00448599)
(0.00112123 -0.110556 0.0069023)
(-0.0193874 -0.475242 0.0041391)
(0.0150572 -1.57962 -0.00879338)
(0.0116382 -1.39089 -0.013321)
(0.00275074 -1.18223 0.0168238)
(0.0347641 -1.79347 -0.0540115)
(0.00476619 -1.40527 -0.0226682)
(-0.0389043 -1.37682 -0.0457344)
(0.00499695 -0.396096 0.00778534)
(-0.00110597 -0.125689 0.00068255)
(-0.000277896 -0.04153 -0.000407155)
(8.94944e-05 -0.0246972 -6.43477e-05)
(6.39713e-05 -0.0223265 -6.38178e-05)
(4.44229e-05 -0.0265251 0.000737265)
(0.000281697 -0.0292066 0.000888763)
(4.96848e-05 -0.033224 0.000639045)
(-0.000225313 -0.0296894 0.00106468)
(-0.000154462 -0.0288993 0.00102066)
(-0.000536482 -0.0317807 0.000684733)
(0.000390968 -0.053591 -0.000904654)
(0.00149703 -0.142278 -0.0025052)
(-0.0208131 -0.479918 -6.72028e-05)
(0.0102709 -1.57311 -0.0210821)
(-0.00242972 -1.23945 0.00150817)
(-0.0108345 -1.2007 0.0193717)
(0.0244224 -1.7792 -0.0516888)
(-0.000502086 -1.27016 -0.00575157)
(-0.0317052 -1.40413 -0.0321905)
(0.00753289 -0.523781 -0.00910261)
(0.00201149 -0.105673 -0.000593875)
(-0.000418782 -0.0414941 -0.000525914)
(-3.61562e-05 -0.0324891 -0.00151589)
(-3.91522e-06 -0.0196968 -8.10026e-07)
(-0.000185238 -0.0276564 -0.000423255)
(0.000398334 -0.0293556 -0.00025448)
(2.60789e-05 -0.0240279 0.000796934)
(-0.00035667 -0.0290604 -0.000163432)
(-7.1119e-05 -0.0287445 -0.000166797)
(0.000293313 -0.0356576 -0.00052639)
(0.00125762 -0.0700957 -0.00138011)
(0.000740922 -0.144957 -0.00170431)
(0.00233091 -0.469195 -0.0005919)
(-0.0148981 -1.46933 -0.0119717)
(-0.0186241 -1.15564 0.0302796)
(-0.0212739 -1.17722 0.0285847)
(-0.00222292 -1.76052 -0.0390311)
(0.00154349 -1.11651 0.0318568)
(-0.0030679 -1.40083 -0.011747)
(0.0129393 -0.652502 -0.0181777)
(0.00450542 -0.129987 -0.00243633)
(-0.000375349 -0.0476744 -0.00148166)
(-0.000227137 -0.041249 -0.00196873)
(2.22906e-05 -0.0220972 -0.000608583)
(5.83669e-06 -0.0283993 -0.000858606)
(-5.30178e-05 -0.028419 -0.000646002)
(5.47948e-05 -0.0209044 3.38585e-05)
(0.00013564 -0.0273578 -0.000413211)
(7.97354e-05 -0.0273067 -0.000263072)
(0.000456227 -0.0352211 -0.000155393)
(0.000734989 -0.0595345 0.000520239)
(-0.000589286 -0.109212 0.00256684)
(0.0116191 -0.466548 0.00283821)
(-0.0143472 -1.39797 0.011046)
(-0.0216956 -1.17195 0.0221476)
(0.0104005 -1.17616 0.0306961)
(-0.0138958 -1.69592 -0.0293222)
(-0.00186767 -1.11644 0.0322948)
(0.0114838 -1.38877 -0.0185251)
(0.0155092 -0.682671 -0.00808258)
(0.00616071 -0.141004 -0.000978749)
(-0.00026469 -0.0607499 -0.000990954)
(-0.000659087 -0.0591941 -0.00120176)
(-0.000465706 -0.0297317 -0.00113267)
(-0.000115505 -0.039022 -0.00211975)
(-0.000200024 -0.0379927 -0.00213836)
(-1.90821e-05 -0.0238215 -0.000700635)
(0.000164146 -0.034548 -0.00191547)
(0.000226826 -0.032506 -0.00136348)
(0.000467164 -0.0383492 -0.000767969)
(0.000293661 -0.0578228 0.000563032)
(-0.00117725 -0.104098 0.000874941)
(-0.00169848 -0.46936 0.00736327)
(-0.00673582 -1.42505 0.0199998)
(-0.00442773 -1.24716 0.00289039)
(0.0314125 -1.24015 0.0146087)
(-0.00830663 -1.61838 -0.0252126)
(-0.00548608 -1.12923 0.00838783)
(0.0122481 -1.38827 -0.0258727)
(0.0130956 -0.682315 -0.00297288)
(0.00534483 -0.123944 0.00202773)
(-1.46678e-05 -0.0536263 0.000509928)
(-0.000303124 -0.0540723 0.00066468)
(-0.000339763 -0.0409893 -0.000530867)
(-1.35307e-05 -0.0569266 -0.00107072)
(-0.000567643 -0.057092 -0.00142656)
(-0.000368205 -0.032346 -0.00111567)
(-0.000125861 -0.0533242 -0.00259444)
(5.72267e-05 -0.0459327 -0.00245813)
(0.000335172 -0.0457465 -0.00169139)
(0.000421758 -0.0528833 0.000413569)
(-0.00116961 -0.101085 -0.000172401)
(-0.0155978 -0.477965 0.00547148)
(-0.00329885 -1.61233 0.00102015)
(0.00222197 -1.25164 0.00883776)
(0.0289645 -1.26796 0.0101236)
(-0.0123645 -1.56159 -0.0235676)
(-0.00649331 -1.03131 0.00569727)
(0.0123876 -1.40461 -0.0273203)
(0.00265417 -0.668694 -0.00477993)
(0.00209784 -0.0923327 0.00317842)
(-0.000639307 -0.0444656 0.000770921)
(0.000211955 -0.0479031 0.000885361)
(0.000151577 -0.0376764 0.000385699)
(0.000121329 -0.0509688 0.00040904)
(-3.66642e-05 -0.0549242 9.58654e-05)
(4.18752e-05 -0.0422901 -0.000714792)
(0.000223277 -0.0698038 -0.000474686)
(-0.000327356 -0.0659744 -0.001373)
(-0.000619307 -0.0613424 -0.00152802)
(9.39217e-05 -0.0538529 -5.14048e-05)
(0.000603759 -0.0929011 0.000553321)
(-0.00886739 -0.443323 0.0043532)
(-0.00576634 -1.71222 -0.0306932)
(-0.00840047 -1.17847 0.0190593)
(0.0260364 -1.22422 0.00412741)
(0.0022163 -1.47458 -0.0193404)
(-0.00719186 -0.985854 0.00451719)
(0.00641849 -1.44682 -0.0279539)
(-0.013591 -0.646312 -0.00143353)
(5.80574e-05 -0.0746211 0.00279624)
(-0.000757274 -0.0430021 -8.85204e-05)
(-4.68314e-05 -0.0460546 -0.000563708)
(5.07308e-05 -0.0348364 -0.000292997)
(-2.22674e-05 -0.0516645 -0.000139462)
(0.000417049 -0.0540688 0.000144068)
(0.000401426 -0.0440181 8.78858e-06)
(0.000482458 -0.0564731 0.000601096)
(0.000251668 -0.0599345 0.000221521)
(-0.000910565 -0.0635152 -0.000196042)
(-0.000285639 -0.0576947 -0.000667934)
(-0.000783728 -0.0838375 0.00149418)
(0.00443419 -0.405388 0.0041375)
(-0.00561122 -1.72997 -0.036004)
(-0.0137921 -1.03493 0.0135248)
(0.0198565 -1.08321 -0.00485639)
(-0.0112579 -1.2874 -0.00408402)
(0.0084139 -0.908717 0.00546835)
(0.00382213 -1.47556 -0.019527)
(-0.0249691 -0.639076 -0.00394645)
(-0.000287275 -0.0642019 0.00197923)
(-0.000693217 -0.0490625 -0.00245891)
(-0.000202995 -0.0592251 -0.00196052)
(6.86618e-05 -0.0445061 -0.00310034)
(0.000111207 -0.057098 -0.00145481)
(-0.00023509 -0.0565773 -0.000920041)
(2.34391e-05 -0.042651 -0.00198677)
(0.00018516 -0.0626061 -0.000190607)
(0.000493303 -0.0583838 0.000756926)
(4.57537e-06 -0.0592944 0.00125984)
(-6.42397e-06 -0.0633241 -0.000970434)
(-0.00285461 -0.0771201 0.00225591)
(0.00598606 -0.387191 -0.00146501)
(-0.00390375 -1.75184 -0.0212603)
(-0.00821002 -0.908135 -0.0037494)
(0.0127421 -0.943963 -0.00977931)
(-0.0161859 -1.18972 -0.0124937)
(0.0129414 -0.703551 0.00348462)
(0.00505355 -1.48796 -0.00810881)
(-0.0225952 -0.664888 -0.00710022)
(-0.00267455 -0.0709151 -0.000953502)
(-0.000248915 -0.087394 -0.00653147)
(-0.000119428 -0.0928822 -0.00585881)
(-3.59291e-05 -0.0903296 -0.00737841)
(0.0002033 -0.0899913 -0.00584859)
(-0.000225312 -0.0860555 -0.00559191)
(7.01972e-05 -0.0806138 -0.00681319)
(-6.09096e-05 -0.0801054 -0.00475596)
(-8.24834e-05 -0.0668551 -0.00358477)
(0.000300084 -0.0593959 0.000489539)
(0.000263898 -0.0842476 -0.00460647)
(-0.000494571 -0.0809737 -0.000122604)
(0.00447627 -0.353229 -0.00482996)
(-0.00194884 -1.75488 -0.00970933)
(-0.00799928 -0.689541 -0.010577)
(0.00926904 -0.667454 -0.0109182)
(-0.00574374 -1.28446 -0.0118789)
(0.00459807 -0.623458 0.000482744)
(0.000980829 -1.49307 -0.00124633)
(-0.00233817 -0.697248 -0.0035269)
(-0.00571076 -0.105432 -0.00154359)
(0.000158134 -0.175451 -0.00341249)
(-4.67552e-05 -0.187298 -0.0038623)
(-2.63921e-05 -0.185276 -0.00391225)
(-2.54475e-05 -0.18327 -0.00385878)
(-0.000100801 -0.176455 -0.00383368)
(-7.35763e-05 -0.169518 -0.00390032)
(-0.000119991 -0.167014 -0.00386022)
(-0.000128269 -0.141488 -0.0035868)
(0.000306415 -0.0695865 -0.000609152)
(0.000313064 -0.164452 -0.00340745)
(0.0025671 -0.11346 -0.00175499)
(0.000338491 -0.343659 -0.00155429)
(0.000337785 -1.75885 -0.00339158)
(-0.00330718 -0.580732 -0.00616908)
(0.00323312 -0.561912 -0.00556847)
(-0.370827 -1.27141 -0.670557)
(0.0757216 -1.32104 -0.708115)
(0.196912 -0.965098 -0.553017)
(0.221834 -0.663774 -0.35471)
(0.249916 -0.467605 -0.171558)
(0.372268 -0.338288 -0.415939)
(0.307368 -0.214202 -0.38396)
(0.0321259 -0.107918 -0.351984)
(5.7435e-05 -0.101836 -0.266527)
(-0.039475 -0.122727 -0.294792)
(-0.175725 -0.219988 -0.480514)
(-0.28954 -0.428526 -0.225196)
(-0.292651 -0.400891 -0.0926922)
(-0.312035 -0.408841 -0.0890882)
(-0.305947 -0.417862 -0.101906)
(-0.213062 -0.486687 -0.156954)
(-0.266276 -0.776384 -0.331868)
(-0.145318 -1.21783 -0.597427)
(-0.0196322 -1.27467 -0.715639)
(0.364777 -1.19996 -0.632245)
(0.0193568 -1.29563 -0.0849945)
(-0.0078113 -1.29645 -0.097099)
(-0.0106315 -0.948774 -0.0599259)
(-0.0104814 -0.408313 0.0091756)
(0.0153608 -0.312548 -0.118546)
(0.0841916 -0.0246443 -1.17657)
(0.00223175 0.0498736 -0.755059)
(-0.00344081 -0.0527839 -0.513341)
(0.000686022 -0.0648349 -0.364007)
(0.0014216 -0.047534 -0.444387)
(-0.0506438 -0.0184921 -1.17815)
(9.85637e-05 -0.0388449 -0.964427)
(0.00211802 -0.109971 -0.196282)
(-0.00970333 -0.103368 -0.20387)
(-0.0047687 -0.134157 -0.167031)
(0.0644459 -0.327083 -0.0725312)
(-0.0143316 -0.690899 -0.0328073)
(0.0121691 -1.32605 -0.0933794)
(-0.00031296 -1.26058 -0.0973125)
(-0.00747234 -1.28268 -0.10726)
(0.00815034 -1.34392 0.0186745)
(0.0227761 -1.21465 0.012154)
(-0.0261242 -1.01451 -0.0382901)
(-0.0174432 -0.511735 -0.00912666)
(0.0115368 -0.345957 -0.0749513)