/*--------------------------------*- C++ -*----------------------------------*\
| =========                 |                                                 |
| \\      /  F ield         | OpenFOAM: The Open Source CFD Toolbox           |
|  \\    /   O peration     | Version:  2.3.0                                 |
|   \\  /    A nd           | Web:      www.OpenFOAM.org                      |
|    \\/     M anipulation  |                                                 |
\*---------------------------------------------------------------------------*/
FoamFile
{
    version     2.0;
    format      ascii;
    class       volVectorField;
    location    "1.05";
    object      U.airMean;
}
// * * * * * * * * * * * * * * * * * * * * * * * * * * * * * * * * * * * * * //

dimensions      [0 1 -1 0 0 0 0];

internalField   nonuniform List<vector> 
6000
(
(-0.0026204 0.250958 0)
(0.0260827 0.220683 0)
(0.0624577 0.231029 0)
(0.0865139 0.231826 0)
(0.0865236 0.237211 0)
(0.0552389 0.239668 0)
(0.0305993 0.215987 0)
(0.0163283 0.210861 0)
(-0.00187672 0.20172 0)
(-0.0126875 0.195589 0)
(-0.00998498 0.193176 0)
(-0.000482944 0.191653 0)
(-0.0169793 0.221011 0)
(-0.0575876 0.241267 0)
(-0.0810472 0.227793 0)
(-0.0476135 0.210697 0)
(-0.000695802 0.204393 0)
(0.0166578 0.211411 0)
(0.00491633 0.207317 0)
(0.00156265 0.200363 0)
(0.00393265 0.200172 0)
(0.0153093 0.210864 0)
(0.0327315 0.211767 0)
(0.0473869 0.214525 0)
(0.0310838 0.232558 0)
(-0.0147117 0.238651 0)
(-0.0345041 0.221403 0)
(-0.0213093 0.228687 0)
(-0.0287152 0.237491 0)
(-0.00988419 0.261825 0)
(0.0219975 0.944215 0)
(0.0473854 0.94004 0)
(0.0745372 0.941705 0)
(0.0803094 0.961559 0)
(0.0773068 0.999831 0)
(0.0828451 1.02315 0)
(0.0798697 1.01502 0)
(0.0483048 1.03055 0)
(0.00828394 1.04319 0)
(-0.0202548 1.00622 0)
(-0.0226482 0.994573 0)
(-0.026529 1.01729 0)
(-0.041002 1.02378 0)
(-0.0546237 1.03435 0)
(-0.0610248 0.981021 0)
(-0.0476497 0.918607 0)
(-0.0272715 0.94278 0)
(-0.0141062 0.999562 0)
(-0.0062805 0.99838 0)
(-0.000506425 1.0027 0)
(0.0139378 0.994551 0)
(0.0262123 0.980181 0)
(0.0382636 0.984 0)
(0.0248828 1.00866 0)
(-0.0137957 1.05503 0)
(-0.0491101 1.04188 0)
(-0.0572054 0.999628 0)
(-0.0564305 0.979115 0)
(-0.0540001 0.999521 0)
(-0.0297118 0.905711 0)
(0.000515834 0.785002 0)
(0.0287431 0.751818 0)
(0.0429356 0.770396 0)
(0.0409356 0.807565 0)
(0.0481927 0.829568 0)
(0.0679815 0.855454 0)
(0.0717374 0.872415 0)
(0.0393857 0.905518 0)
(0.00400258 0.906451 0)
(-0.0140298 0.836072 0)
(-0.010627 0.817504 0)
(-0.00690249 0.854446 0)
(-0.0174989 0.875488 0)
(-0.0334629 0.893643 0)
(-0.0443824 0.831036 0)
(-0.0553491 0.759547 0)
(-0.0591149 0.774277 0)
(-0.0480282 0.814245 0)
(-0.035588 0.819465 0)
(-0.0229029 0.799291 0)
(0.00375092 0.780936 0)
(0.0252132 0.789434 0)
(0.0253713 0.804408 0)
(-0.00570646 0.867745 0)
(-0.0439238 0.917722 0)
(-0.0474882 0.886689 0)
(-0.0330159 0.838498 0)
(-0.0290429 0.823439 0)
(-0.0351326 0.846134 0)
(-0.0078247 0.739729 0)
(-0.00550182 0.796394 0)
(0.00377867 0.769112 0)
(-0.00132544 0.797076 0)
(0.00789037 0.822471 0)
(0.0269999 0.828458 0)
(0.0485853 0.851674 0)
(0.0482832 0.89603 0)
(0.0259274 0.938656 0)
(0.00434266 0.940436 0)
(-0.00547347 0.860459 0)
(-0.00406749 0.830232 0)
(0.00295591 0.875387 0)
(-0.00405675 0.899919 0)
(-0.0196027 0.909143 0)
(-0.0403896 0.850943 0)
(-0.059148 0.781404 0)
(-0.0601624 0.783976 0)
(-0.0521213 0.826731 0)
(-0.0432918 0.834188 0)
(-0.0236844 0.810503 0)
(-0.00417594 0.801995 0)
(0.00215263 0.811018 0)
(-0.0170722 0.842454 0)
(-0.0540294 0.929908 0)
(-0.0630727 0.924212 0)
(-0.0414208 0.888435 0)
(-0.0178492 0.843588 0)
(-0.00824334 0.841367 0)
(-0.0184008 0.872015 0)
(-0.00274305 0.729907 0)
(-0.00432352 0.801458 0)
(-0.0200194 0.762479 0)
(-0.0198393 0.784702 0)
(-0.00198019 0.793873 0)
(0.0170885 0.803271 0)
(0.0274509 0.84228 0)
(0.0211819 0.905219 0)
(0.00544455 0.955262 0)
(-0.00486068 0.947601 0)
(-0.00786347 0.85983 0)
(-0.00728267 0.826062 0)
(-0.000536851 0.867641 0)
(-0.0154239 0.904296 0)
(-0.0344162 0.917629 0)
(-0.0498267 0.863413 0)
(-0.0501418 0.787511 0)
(-0.0397282 0.774713 0)
(-0.0369566 0.830662 0)
(-0.0359883 0.820496 0)
(-0.0200619 0.786097 0)
(-0.0116963 0.784755 0)
(-0.0223479 0.810009 0)
(-0.05069 0.866255 0)
(-0.0715171 0.931602 0)
(-0.0634202 0.907898 0)
(-0.0452722 0.863639 0)
(-0.0233319 0.826764 0)
(-0.0123567 0.827313 0)
(-0.014718 0.873463 0)
(0.000185766 0.708022 0)
(-0.00456504 0.808942 0)
(-0.0197783 0.766796 0)
(-0.0233608 0.77012 0)
(-0.00148392 0.768543 0)
(0.00351107 0.788409 0)
(0.00400594 0.837237 0)
(-0.00340278 0.90873 0)
(-0.0113249 0.957499 0)
(-0.0148789 0.947959 0)
(-0.0159153 0.865625 0)
(-0.0184345 0.825952 0)
(-0.0264543 0.873495 0)
(-0.0500272 0.927672 0)
(-0.0584116 0.921821 0)
(-0.0479353 0.853665 0)
(-0.0227308 0.769577 0)
(-0.0068014 0.780335 0)
(-0.0144448 0.843484 0)
(-0.0240578 0.819711 0)
(-0.0242859 0.782091 0)
(-0.0302435 0.792997 0)
(-0.0484109 0.834336 0)
(-0.0675619 0.881767 0)
(-0.0736719 0.927039 0)
(-0.0630949 0.888504 0)
(-0.0538576 0.843212 0)
(-0.0418708 0.803644 0)
(-0.0328992 0.815038 0)
(-0.0257286 0.859881 0)
(-0.00270246 0.687099 0)
(-0.00376174 0.808933 0)
(-0.0117066 0.767114 0)
(-0.00887472 0.747682 0)
(-0.00223375 0.753987 0)
(-0.00286731 0.780105 0)
(-0.011973 0.834786 0)
(-0.0150984 0.907614 0)
(-0.0173958 0.956436 0)
(-0.0225953 0.946294 0)
(-0.0285492 0.864692 0)
(-0.0416521 0.831635 0)
(-0.0620406 0.885572 0)
(-0.0781646 0.928616 0)
(-0.0581317 0.900461 0)
(-0.0302882 0.826153 0)
(-0.00379659 0.75002 0)
(0.00157054 0.780529 0)
(-0.0116194 0.85996 0)
(-0.0239859 0.825838 0)
(-0.0348264 0.787462 0)
(-0.0459992 0.802303 0)
(-0.0620916 0.843776 0)
(-0.0747073 0.88273 0)
(-0.076927 0.908701 0)
(-0.0679933 0.872828 0)
(-0.0670941 0.822135 0)
(-0.0661756 0.784329 0)
(-0.0622276 0.790105 0)
(-0.047337 0.829311 0)
(-0.00878765 0.654378 0)
(0.00275269 0.801285 0)
(0.00368058 0.757607 0)
(0.00357876 0.733323 0)
(-0.000343709 0.747447 0)
(-0.0142673 0.780961 0)
(-0.0198695 0.832426 0)
(-0.0205921 0.898366 0)
(-0.0144131 0.95259 0)
(-0.0209885 0.947575 0)
(-0.0415952 0.873439 0)
(-0.0669897 0.843857 0)
(-0.0828285 0.894098 0)
(-0.0752419 0.906606 0)
(-0.0405083 0.872915 0)
(-0.00895948 0.802453 0)
(0.0114934 0.742221 0)
(-0.00271314 0.805038 0)
(-0.0272465 0.868847 0)
(-0.0378011 0.832198 0)
(-0.0504308 0.792631 0)
(-0.0607387 0.808629 0)
(-0.0770851 0.850572 0)
(-0.0868105 0.883254 0)
(-0.0860159 0.893118 0)
(-0.0788432 0.855261 0)
(-0.0808852 0.809753 0)
(-0.087981 0.771697 0)
(-0.0879693 0.768068 0)
(-0.0644688 0.786447 0)
(-0.0144646 0.61155 0)
(0.00677623 0.78345 0)
(0.0134456 0.742195 0)
(0.010289 0.717391 0)
(-0.00592622 0.751958 0)
(-0.021631 0.782401 0)
(-0.0326208 0.83497 0)
(-0.0246497 0.889338 0)
(-0.0149699 0.944973 0)
(-0.0163755 0.958409 0)
(-0.0510918 0.895876 0)
(-0.0806282 0.855122 0)
(-0.0755035 0.881173 0)
(-0.0514881 0.874948 0)
(-0.0158928 0.84556 0)
(0.00707899 0.778406 0)
(0.0118073 0.746948 0)
(-0.0153968 0.833888 0)
(-0.0433395 0.876086 0)
(-0.0529024 0.834379 0)
(-0.0680812 0.793858 0)
(-0.0872048 0.814476 0)
(-0.102033 0.856353 0)
(-0.103645 0.878806 0)
(-0.099416 0.875262 0)
(-0.0895654 0.843761 0)
(-0.0911091 0.796936 0)
(-0.100576 0.766232 0)
(-0.09909 0.737893 0)
(-0.072277 0.739323 0)
(-0.0170002 0.561857 0)
(0.00929286 0.761754 0)
(0.0203239 0.729253 0)
(0.0127417 0.712335 0)
(-0.00733701 0.75615 0)
(-0.0257782 0.785391 0)
(-0.0319746 0.834242 0)
(-0.0240036 0.878886 0)
(-0.015521 0.93345 0)
(-0.010921 0.973267 0)
(-0.0455856 0.927985 0)
(-0.0674585 0.854871 0)
(-0.0496702 0.854429 0)
(-0.0212033 0.84591 0)
(0.0049098 0.828043 0)
(0.0121964 0.774124 0)
(-0.00330825 0.769218 0)
(-0.0370405 0.859584 0)
(-0.056267 0.882801 0)
(-0.068233 0.836735 0)
(-0.0915374 0.807831 0)
(-0.121368 0.826272 0)
(-0.130119 0.854956 0)
(-0.123631 0.867933 0)
(-0.111327 0.862165 0)
(-0.0986739 0.827414 0)
(-0.0956986 0.790879 0)
(-0.102824 0.75872 0)
(-0.0985966 0.714206 0)
(-0.0735426 0.694045 0)
(-0.0187214 0.515411 0)
(0.0110088 0.73569 0)
(0.0257082 0.716627 0)
(0.0176206 0.707083 0)
(-0.000627282 0.759817 0)
(-0.0183679 0.790023 0)
(-0.0249101 0.835558 0)
(-0.0184374 0.884518 0)
(-0.00802922 0.922007 0)
(0.00553706 0.987758 0)
(-0.0152015 0.953507 0)
(-0.0362297 0.852844 0)
(-0.0232601 0.824685 0)
(-0.00137571 0.82587 0)
(0.010965 0.820333 0)
(0.0024555 0.78324 0)
(-0.0291874 0.803641 0)
(-0.063103 0.872917 0)
(-0.0713361 0.886764 0)
(-0.08676 0.843195 0)
(-0.116936 0.833571 0)
(-0.147348 0.83529 0)
(-0.150754 0.848243 0)
(-0.13369 0.854636 0)
(-0.116868 0.842922 0)
(-0.102768 0.81516 0)
(-0.098197 0.781209 0)
(-0.10296 0.751324 0)
(-0.0975242 0.690416 0)
(-0.0735713 0.652109 0)
(-0.0194861 0.472191 0)
(0.011975 0.705826 0)
(0.030852 0.70393 0)
(0.0260266 0.701526 0)
(0.0159876 0.758388 0)
(-0.000511442 0.790518 0)
(-0.00683089 0.835369 0)
(-0.00465043 0.884315 0)
(0.0101056 0.910461 0)
(0.0273438 0.986159 0)
(0.0267213 0.981688 0)
(-0.00229097 0.86255 0)
(-0.00758412 0.810208 0)
(0.002924 0.819669 0)
(0.00312224 0.823215 0)
(-0.0194522 0.809151 0)
(-0.0598208 0.837541 0)
(-0.0868928 0.883084 0)
(-0.0876162 0.884548 0)
(-0.102907 0.862019 0)
(-0.135962 0.860456 0)
(-0.155391 0.840764 0)
(-0.146134 0.834621 0)
(-0.128604 0.834562 0)
(-0.117856 0.82766 0)
(-0.107697 0.800383 0)
(-0.104633 0.777001 0)
(-0.109415 0.741207 0)
(-0.0986734 0.671865 0)
(-0.0717112 0.606815 0)
(-0.0166171 0.431294 0)
(0.0111479 0.674774 0)
(0.034933 0.689885 0)
(0.0388328 0.687135 0)
(0.0418231 0.753628 0)
(0.027036 0.789942 0)
(0.0184158 0.834967 0)
(0.0191275 0.881878 0)
(0.0278304 0.904764 0)
(0.0404313 0.975238 0)
(0.0566015 0.998162 0)
(0.02769 0.894896 0)
(-0.00139541 0.808706 0)
(-0.00615277 0.821038 0)
(-0.0148161 0.834137 0)
(-0.0466579 0.844609 0)
(-0.0876179 0.871007 0)
(-0.103934 0.886163 0)
(-0.103719 0.882747 0)
(-0.114389 0.887058 0)
(-0.142137 0.876836 0)
(-0.142963 0.836913 0)
(-0.126628 0.815028 0)
(-0.116709 0.823218 0)
(-0.116783 0.817659 0)
(-0.117171 0.796482 0)
(-0.119997 0.771943 0)
(-0.123888 0.733686 0)
(-0.103178 0.646292 0)
(-0.0727826 0.562108 0)
(-0.0132307 0.394496 0)
(0.0101572 0.645523 0)
(0.0398893 0.669393 0)
(0.0561711 0.666899 0)
(0.0693021 0.742923 0)
(0.0600026 0.790915 0)
(0.0480698 0.834568 0)
(0.0450516 0.8805 0)
(0.0436912 0.908644 0)
(0.0534896 0.95758 0)
(0.0707653 1.00385 0)
(0.0512647 0.932112 0)
(0.00369448 0.834166 0)
(-0.0202236 0.829182 0)
(-0.04158 0.85231 0)
(-0.0780845 0.885316 0)
(-0.110743 0.892298 0)
(-0.120495 0.88483 0)
(-0.114034 0.882912 0)
(-0.121837 0.905585 0)
(-0.131031 0.882051 0)
(-0.120579 0.82302 0)
(-0.104541 0.799059 0)
(-0.104397 0.821998 0)
(-0.118932 0.82113 0)
(-0.131894 0.797685 0)
(-0.143155 0.774074 0)
(-0.140246 0.719286 0)
(-0.105973 0.61717 0)
(-0.0709765 0.518644 0)
(-0.0138247 0.357937 0)
(0.0100424 0.62 0)
(0.0400349 0.639181 0)
(0.0684859 0.639009 0)
(0.0926592 0.726715 0)
(0.094 0.789293 0)
(0.0792399 0.83686 0)
(0.069963 0.882496 0)
(0.059665 0.911142 0)
(0.0686965 0.950248 0)
(0.0764571 0.99746 0)
(0.0685305 0.964287 0)
(0.0146927 0.87745 0)
(-0.0306947 0.849032 0)
(-0.0636161 0.883493 0)
(-0.102994 0.919391 0)
(-0.128354 0.908138 0)
(-0.131378 0.879482 0)
(-0.122972 0.882438 0)
(-0.121629 0.907281 0)
(-0.113454 0.876444 0)
(-0.0949266 0.804459 0)
(-0.0845956 0.789654 0)
(-0.0958863 0.828565 0)
(-0.121873 0.832827 0)
(-0.149342 0.81084 0)
(-0.163118 0.772624 0)
(-0.146157 0.694039 0)
(-0.0992164 0.577668 0)
(-0.0616725 0.481933 0)
(-0.011451 0.325628 0)
(0.00928358 0.600211 0)
(0.0351437 0.606487 0)
(0.070282 0.605471 0)
(0.104994 0.697729 0)
(0.120046 0.787627 0)
(0.107317 0.841139 0)
(0.0961801 0.88968 0)
(0.0842909 0.917438 0)
(0.0830759 0.947676 0)
(0.0882542 0.998912 0)
(0.079499 0.985084 0)
(0.0298505 0.941275 0)
(-0.0273864 0.883859 0)
(-0.0742368 0.923538 0)
(-0.113471 0.954688 0)
(-0.140082 0.917721 0)
(-0.139356 0.875815 0)
(-0.131178 0.877789 0)
(-0.116004 0.897827 0)
(-0.0913904 0.854937 0)
(-0.0683636 0.786263 0)
(-0.0669875 0.789 0)
(-0.0869053 0.844418 0)
(-0.120492 0.857706 0)
(-0.157143 0.829186 0)
(-0.16305 0.760655 0)
(-0.130422 0.65388 0)
(-0.0794052 0.538971 0)
(-0.0476964 0.451484 0)
(-0.00855875 0.302032 0)
(0.00552464 0.584116 0)
(0.0276253 0.575926 0)
(0.0622681 0.566289 0)
(0.103414 0.65708 0)
(0.131775 0.779201 0)
(0.123835 0.840624 0)
(0.117866 0.892675 0)
(0.110526 0.924588 0)
(0.0998078 0.954243 0)
(0.0992245 0.99542 0)
(0.0916406 1.00803 0)
(0.0463248 0.991387 0)
(-0.00620877 0.937235 0)
(-0.066407 0.968081 0)
(-0.106074 0.991136 0)
(-0.137947 0.93288 0)
(-0.138503 0.873284 0)
(-0.123934 0.864999 0)
(-0.09537 0.870743 0)
(-0.0645878 0.824951 0)
(-0.0461738 0.7751 0)
(-0.0537351 0.795358 0)
(-0.0793528 0.864797 0)
(-0.114444 0.884261 0)
(-0.1453 0.848488 0)
(-0.137391 0.732067 0)
(-0.101381 0.612918 0)
(-0.0582696 0.503783 0)
(-0.0338201 0.434938 0)
(-0.00938789 0.282813 0)
(0.00152702 0.572874 0)
(0.0215014 0.548506 0)
(0.0506758 0.528256 0)
(0.0932974 0.609401 0)
(0.129391 0.765503 0)
(0.131417 0.834545 0)
(0.132047 0.885736 0)
(0.129097 0.933478 0)
(0.112361 0.964623 0)
(0.10656 1.00023 0)
(0.0949567 1.02857 0)
(0.06666 1.02924 0)
(0.0156195 0.995535 0)
(-0.0399717 1.0139 0)
(-0.0797882 1.03135 0)
(-0.114464 0.951795 0)
(-0.117965 0.866528 0)
(-0.0963414 0.839187 0)
(-0.06419 0.839756 0)
(-0.0409329 0.801587 0)
(-0.0303526 0.772235 0)
(-0.0457192 0.806041 0)
(-0.070991 0.887557 0)
(-0.102632 0.910271 0)
(-0.115403 0.843555 0)
(-0.105 0.710218 0)
(-0.0723348 0.573252 0)
(-0.0405957 0.481993 0)
(-0.0235545 0.422364 0)
(-0.00755893 0.266224 0)
(0.000863396 0.563622 0)
(0.0171763 0.526285 0)
(0.0412777 0.496287 0)
(0.0825506 0.563075 0)
(0.120831 0.743171 0)
(0.132575 0.825754 0)
(0.137289 0.874923 0)
(0.137721 0.940757 0)
(0.124152 0.977792 0)
(0.105595 1.00975 0)
(0.0943404 1.0463 0)
(0.0760977 1.06401 0)
(0.0321011 1.04978 0)
(-0.00708193 1.05543 0)
(-0.0385636 1.06693 0)
(-0.0724678 0.975167 0)
(-0.0819306 0.861858 0)
(-0.0650623 0.810638 0)
(-0.0357943 0.819982 0)
(-0.0223086 0.788136 0)
(-0.0212223 0.776262 0)
(-0.0388557 0.819859 0)
(-0.0635299 0.903169 0)
(-0.0848708 0.926208 0)
(-0.0841697 0.828971 0)
(-0.0759258 0.696081 0)
(-0.0500903 0.539568 0)
(-0.0277092 0.46354 0)
(-0.0149333 0.413197 0)
(-0.00306251 0.255518 0)
(0.0028391 0.557589 0)
(0.0159016 0.511187 0)
(0.0370902 0.466492 0)
(0.0750073 0.519569 0)
(0.113198 0.715827 0)
(0.1322 0.814299 0)
(0.133573 0.863239 0)
(0.139547 0.938227 0)
(0.124135 0.997602 0)
(0.10355 1.02732 0)
(0.0881413 1.05699 0)
(0.0805268 1.09168 0)
(0.0480561 1.08369 0)
(0.0211939 1.08607 0)
(0.00977388 1.09105 0)
(-0.0222467 1.00503 0)
(-0.0451638 0.869038 0)
(-0.0396754 0.787298 0)
(-0.0157331 0.805975 0)
(-0.00842886 0.783369 0)
(-0.0147147 0.782187 0)
(-0.0337989 0.83442 0)
(-0.0550748 0.912253 0)
(-0.0633821 0.934368 0)
(-0.0604209 0.809265 0)
(-0.0533134 0.688491 0)
(-0.0358882 0.513249 0)
(-0.0209532 0.44986 0)
(-0.00846716 0.401333 0)
(0.00604826 0.247882 0)
(0.00618848 0.547112 0)
(0.0213411 0.497301 0)
(0.0406225 0.439924 0)
(0.0725988 0.485292 0)
(0.108066 0.681299 0)
(0.130148 0.805749 0)
(0.129126 0.853772 0)
(0.134203 0.932959 0)
(0.124645 1.01786 0)
(0.100756 1.04657 0)
(0.0833529 1.06614 0)
(0.0810377 1.11007 0)
(0.0669032 1.11664 0)
(0.0428609 1.09781 0)
(0.0453256 1.10613 0)
(0.0236124 1.03782 0)
(-0.0117192 0.892252 0)
(-0.0199116 0.771769 0)
(-0.00264508 0.794912 0)
(0.00143637 0.781834 0)
(-0.0106746 0.79102 0)
(-0.0283166 0.848518 0)
(-0.0464928 0.914307 0)
(-0.0435321 0.931697 0)
(-0.0471662 0.800148 0)
(-0.0416465 0.68197 0)
(-0.0292169 0.496663 0)
(-0.0180698 0.437625 0)
(-0.00214263 0.382361 0)
(0.0145645 0.252327 0)
(0.0105064 0.532722 0)
(0.0303924 0.484027 0)
(0.0451732 0.421117 0)
(0.0726172 0.457199 0)
(0.104271 0.645898 0)
(0.126271 0.801001 0)
(0.123296 0.845929 0)
(0.129839 0.925245 0)
(0.12306 1.03127 0)
(0.0993504 1.07226 0)
(0.0782446 1.07508 0)
(0.077802 1.11307 0)
(0.0826435 1.13703 0)
(0.0637075 1.11602 0)
(0.0643651 1.1069 0)
(0.0517305 1.06869 0)
(0.0167595 0.926905 0)
(-0.00192664 0.76681 0)
(0.00450053 0.784981 0)
(0.00721702 0.784607 0)
(-0.00669747 0.800959 0)
(-0.0233311 0.858495 0)
(-0.0359005 0.915328 0)
(-0.032335 0.927211 0)
(-0.0445442 0.80038 0)
(-0.0387989 0.672314 0)
(-0.0300247 0.486539 0)
(-0.0162078 0.422436 0)
(0.00539791 0.36261 0)
(0.0162037 0.264298 0)
(0.0142175 0.510234 0)
(0.0362834 0.473428 0)
(0.0457263 0.407217 0)
(0.0676414 0.433797 0)
(0.0980423 0.612679 0)
(0.12215 0.79416 0)
(0.1194 0.841467 0)
(0.126013 0.914601 0)
(0.125378 1.04297 0)
(0.102433 1.09351 0)
(0.0774146 1.09062 0)
(0.0734865 1.10585 0)
(0.0872346 1.14269 0)
(0.0885555 1.13463 0)
(0.076857 1.11273 0)
(0.0669913 1.09139 0)
(0.0412155 0.961066 0)
(0.0159323 0.777331 0)
(0.0103956 0.78099 0)
(0.0127984 0.78914 0)
(-0.00270256 0.809989 0)
(-0.0173349 0.864612 0)
(-0.0282835 0.917152 0)
(-0.0264674 0.925175 0)
(-0.0452235 0.807862 0)
(-0.0391641 0.658142 0)
(-0.0329819 0.476105 0)
(-0.0148714 0.400196 0)
(0.00808121 0.344574 0)
(0.014204 0.27942 0)
(0.0131745 0.483735 0)
(0.0372618 0.462889 0)
(0.0395784 0.399335 0)
(0.0572329 0.410381 0)
(0.0885402 0.57875 0)
(0.118221 0.784053 0)
(0.120177 0.834842 0)
(0.121497 0.903998 0)
(0.125722 1.05189 0)
(0.108441 1.11355 0)
(0.0820019 1.11226 0)
(0.0724643 1.09872 0)
(0.0853233 1.13466 0)
(0.0998229 1.13827 0)
(0.0962377 1.13444 0)
(0.0792798 1.10741 0)
(0.0632562 0.989577 0)
(0.03398 0.800414 0)
(0.0182888 0.782896 0)
(0.0164943 0.795814 0)
(0.00156942 0.817276 0)
(-0.0130723 0.872661 0)
(-0.0250426 0.920417 0)
(-0.026041 0.926952 0)
(-0.0434204 0.81594 0)
(-0.0371129 0.643633 0)
(-0.0282289 0.467822 0)
(-0.00743218 0.379637 0)
(0.00884842 0.336282 0)
(0.0093492 0.291801 0)
(0.0106541 0.457875 0)
(0.0342068 0.45607 0)
(0.0315979 0.396463 0)
(0.0427372 0.391372 0)
(0.0738779 0.539603 0)
(0.113808 0.767848 0)
(0.123883 0.830843 0)
(0.120014 0.898429 0)
(0.122778 1.05158 0)
(0.110585 1.12921 0)
(0.0890532 1.13265 0)
(0.0730593 1.10418 0)
(0.0807248 1.11842 0)
(0.0992962 1.13388 0)
(0.105541 1.14504 0)
(0.096195 1.12444 0)
(0.0831179 1.01503 0)
(0.0537462 0.829547 0)
(0.0295516 0.794071 0)
(0.0170571 0.800151 0)
(0.00047783 0.825803 0)
(-0.0117444 0.87851 0)
(-0.0267828 0.925371 0)
(-0.0283167 0.921354 0)
(-0.0408185 0.816563 0)
(-0.0290142 0.62571 0)
(-0.0149974 0.452324 0)
(0.00353383 0.361511 0)
(0.00978442 0.330212 0)
(0.00707003 0.29874 0)
(0.00656417 0.435546 0)
(0.0305446 0.450073 0)
(0.0247843 0.397453 0)
(0.0296405 0.379023 0)
(0.0580514 0.497504 0)
(0.104936 0.740034 0)
(0.130246 0.826172 0)
(0.123204 0.90115 0)
(0.115882 1.05254 0)
(0.105722 1.14329 0)
(0.0908682 1.14879 0)
(0.076366 1.1182 0)
(0.0779162 1.10556 0)
(0.0908916 1.1233 0)
(0.104029 1.14642 0)
(0.112416 1.13553 0)
(0.098099 1.03959 0)
(0.0701603 0.860781 0)
(0.0427542 0.81266 0)
(0.0164813 0.813194 0)
(-0.00460687 0.83233 0)
(-0.0178674 0.88832 0)
(-0.0319975 0.931477 0)
(-0.0274849 0.920202 0)
(-0.0288617 0.813823 0)
(-0.0135083 0.601742 0)
(7.95198e-06 0.435705 0)
(0.0122565 0.351503 0)
(0.0100661 0.33207 0)
(0.00664544 0.305943 0)
(0.00169232 0.419565 0)
(0.0259684 0.444673 0)
(0.0209878 0.399576 0)
(0.0204642 0.371904 0)
(0.0421185 0.460012 0)
(0.0921792 0.699758 0)
(0.128944 0.814164 0)
(0.122586 0.914216 0)
(0.102794 1.06042 0)
(0.0952278 1.15209 0)
(0.0873482 1.15854 0)
(0.080256 1.12757 0)
(0.0750885 1.10487 0)
(0.0788582 1.11399 0)
(0.0942735 1.13751 0)
(0.11377 1.13226 0)
(0.0977036 1.06979 0)
(0.0695444 0.887508 0)
(0.0476678 0.838877 0)
(0.0118462 0.832447 0)
(-0.014664 0.847157 0)
(-0.0314975 0.897137 0)
(-0.0390908 0.934821 0)
(-0.0184502 0.903204 0)
(-0.0105938 0.806129 0)
(0.00214826 0.579983 0)
(0.0124876 0.425465 0)
(0.016442 0.350174 0)
(0.00895327 0.334457 0)
(0.00570544 0.312375 0)
(-0.0015769 0.405699 0)
(0.0230852 0.435227 0)
(0.0176719 0.404331 0)
(0.0148351 0.37075 0)
(0.0292882 0.428674 0)
(0.0783322 0.65332 0)
(0.116305 0.801272 0)
(0.110176 0.931865 0)
(0.0845629 1.07097 0)
(0.0790222 1.15577 0)
(0.0791842 1.16327 0)
(0.081032 1.13303 0)
(0.0726358 1.11382 0)
(0.0677569 1.11037 0)
(0.0785039 1.12269 0)
(0.0961549 1.12883 0)
(0.0792596 1.09646 0)
(0.0549449 0.913231 0)
(0.0351146 0.861657 0)
(-0.00013473 0.856503 0)
(-0.0296433 0.8648 0)
(-0.0495096 0.908844 0)
(-0.0436179 0.920471 0)
(-0.0161316 0.875748 0)
(-0.000830555 0.798814 0)
(0.0117125 0.558494 0)
(0.0209293 0.417029 0)
(0.0204638 0.350536 0)
(0.00822549 0.337107 0)
(0.00648261 0.315541 0)
(0.000682249 0.391457 0)
(0.0224701 0.429511 0)
(0.0135811 0.406518 0)
(0.012413 0.373805 0)
(0.0225383 0.402633 0)
(0.0681145 0.609457 0)
(0.100123 0.792519 0)
(0.0894122 0.950611 0)
(0.0641408 1.08297 0)
(0.0594856 1.15069 0)
(0.067473 1.15914 0)
(0.0744617 1.1367 0)
(0.0675267 1.12286 0)
(0.0564646 1.11801 0)
(0.0586981 1.10798 0)
(0.0649927 1.13159 0)
(0.0527757 1.11927 0)
(0.0343553 0.936893 0)
(0.0187173 0.884019 0)
(-0.0109956 0.882715 0)
(-0.0411195 0.893601 0)
(-0.0561652 0.914678 0)
(-0.0408477 0.901506 0)
(-0.0230618 0.857486 0)
(-0.00429847 0.786466 0)
(0.0153159 0.538909 0)
(0.025875 0.414095 0)
(0.0243682 0.35861 0)
(0.0104126 0.342901 0)
(0.00883339 0.323296 0)
(0.00309489 0.373463 0)
(0.0250056 0.432462 0)
(0.0123593 0.40915 0)
(0.0152949 0.377112 0)
(0.0227439 0.381344 0)
(0.062261 0.568517 0)
(0.0883912 0.791775 0)
(0.0719363 0.970871 0)
(0.04685 1.09182 0)
(0.0436442 1.14337 0)
(0.0546151 1.15118 0)
(0.0619109 1.13558 0)
(0.0583214 1.13249 0)
(0.0472985 1.12902 0)
(0.0408834 1.10717 0)
(0.0333958 1.13391 0)
(0.0257512 1.1344 0)
(0.0170118 0.954879 0)
(0.00933722 0.902317 0)
(-0.0161058 0.911671 0)
(-0.0433946 0.915303 0)
(-0.051685 0.915819 0)
(-0.040138 0.88339 0)
(-0.032235 0.852902 0)
(-0.0156262 0.76597 0)
(0.014529 0.515491 0)
(0.0268428 0.413325 0)
(0.0274554 0.366472 0)
(0.0129186 0.351679 0)
(0.0095403 0.334792 0)
(-0.00104079 0.353268 0)
(0.0248159 0.438634 0)
(0.0142839 0.406184 0)
(0.0212434 0.377593 0)
(0.0259894 0.367378 0)
(0.0578262 0.526365 0)
(0.0839463 0.794303 0)
(0.0633847 0.990321 0)
(0.0385088 1.10016 0)
(0.0367713 1.1348 0)
(0.0457349 1.14378 0)
(0.048995 1.13815 0)
(0.0467719 1.13871 0)
(0.0359287 1.13805 0)
(0.0235832 1.11654 0)
(0.00440599 1.14271 0)
(-0.00239569 1.14402 0)
(0.000412284 0.96061 0)
(0.00171118 0.91981 0)
(-0.014282 0.937528 0)
(-0.0385897 0.936048 0)
(-0.0442984 0.912189 0)
(-0.0450924 0.876551 0)
(-0.044094 0.852207 0)
(-0.0260534 0.733877 0)
(0.00878466 0.490567 0)
(0.0242258 0.409666 0)
(0.0279168 0.37201 0)
(0.0140074 0.361831 0)
(0.0088164 0.345635 0)
(-0.00534756 0.338718 0)
(0.0185796 0.438859 0)
(0.0130959 0.396162 0)
(0.0256666 0.374605 0)
(0.0291442 0.358364 0)
(0.0547964 0.488209 0)
(0.0790003 0.79779 0)
(0.0600278 1.00959 0)
(0.0394655 1.10171 0)
(0.0380832 1.12951 0)
(0.0425076 1.13911 0)
(0.0436864 1.13876 0)
(0.0403109 1.14644 0)
(0.0310679 1.14728 0)
(0.0102264 1.13673 0)
(-0.0173931 1.1546 0)
(-0.0231176 1.14848 0)
(-0.0103439 0.962317 0)
(-0.00635739 0.929108 0)
(-0.0162323 0.961824 0)
(-0.0349403 0.949383 0)
(-0.0416817 0.914448 0)
(-0.0510247 0.87605 0)
(-0.0565556 0.852518 0)
(-0.0335242 0.696351 0)
(0.00088496 0.467045 0)
(0.0197519 0.40299 0)
(0.0267741 0.376925 0)
(0.013263 0.375477 0)
(0.0080208 0.356369 0)
(-0.00868029 0.330481 0)
(0.00772173 0.436906 0)
(0.00797807 0.384827 0)
(0.0231202 0.369051 0)
(0.0280967 0.351262 0)
(0.0460407 0.455317 0)
(0.0653346 0.795466 0)
(0.0567999 1.02051 0)
(0.045216 1.10115 0)
(0.0451243 1.1267 0)
(0.0462734 1.13837 0)
(0.045236 1.14338 0)
(0.0411124 1.15016 0)
(0.029931 1.16146 0)
(0.00304414 1.16149 0)
(-0.0306702 1.17418 0)
(-0.0334803 1.14605 0)
(-0.0178116 0.956413 0)
(-0.0196819 0.937875 0)
(-0.0261239 0.976959 0)
(-0.04227 0.958137 0)
(-0.0466179 0.916042 0)
(-0.0569171 0.882466 0)
(-0.0643651 0.851081 0)
(-0.0378438 0.654547 0)
(-0.00466038 0.446831 0)
(0.0163179 0.391872 0)
(0.0243916 0.380181 0)
(0.0109165 0.389066 0)
(0.00687116 0.364828 0)
(-0.0109992 0.333599 0)
(-0.00311569 0.431991 0)
(-0.000429482 0.371058 0)
(0.0143871 0.359473 0)
(0.0232065 0.347494 0)
(0.0317771 0.433263 0)
(0.0493145 0.787614 0)
(0.0539402 1.02349 0)
(0.0534249 1.09416 0)
(0.0565445 1.12526 0)
(0.0560008 1.14252 0)
(0.0524387 1.14713 0)
(0.0446505 1.16056 0)
(0.0305577 1.17853 0)
(-0.000968693 1.19384 0)
(-0.0339725 1.19214 0)
(-0.0354171 1.14269 0)
(-0.0254022 0.959507 0)
(-0.0326763 0.946755 0)
(-0.0394383 0.995887 0)
(-0.0541453 0.963431 0)
(-0.0556097 0.920015 0)
(-0.0609846 0.888605 0)
(-0.0660121 0.848332 0)
(-0.0380323 0.614615 0)
(-0.00398979 0.428306 0)
(0.0170149 0.38228 0)
(0.0220992 0.382635 0)
(0.00711174 0.40573 0)
(0.00515875 0.371949 0)
(-0.0100127 0.342361 0)
(-0.00799642 0.43169 0)
(-0.00948961 0.363616 0)
(0.00263891 0.348896 0)
(0.0125163 0.346855 0)
(0.0166342 0.420626 0)
(0.0325776 0.767954 0)
(0.0555203 1.01487 0)
(0.063577 1.08267 0)
(0.0705359 1.12293 0)
(0.069987 1.14764 0)
(0.0626888 1.15709 0)
(0.0501888 1.171 0)
(0.03163 1.20268 0)
(0.000958808 1.22303 0)
(-0.0291434 1.21429 0)
(-0.0343131 1.14274 0)
(-0.0325979 0.968074 0)
(-0.0465129 0.958026 0)
(-0.0562534 1.0111 0)
(-0.0679869 0.96655 0)
(-0.068754 0.9181 0)
(-0.0671819 0.892349 0)
(-0.0662122 0.840305 0)
(-0.0322837 0.575695 0)
(0.00407538 0.407554 0)
(0.0215558 0.376576 0)
(0.0208543 0.388367 0)
(0.00505771 0.420838 0)
(0.00469106 0.375292 0)
(-0.00890818 0.349846 0)
(-0.0081259 0.435817 0)
(-0.015453 0.362128 0)
(-0.00628949 0.340838 0)
(0.00049423 0.349047 0)
(0.00231075 0.413447 0)
(0.019475 0.737399 0)
(0.0580483 0.996111 0)
(0.0768653 1.07138 0)
(0.0834391 1.11591 0)
(0.0832635 1.15902 0)
(0.0716478 1.16814 0)
(0.0553122 1.19042 0)
(0.0343439 1.22481 0)
(0.00476921 1.25223 0)
(-0.0189314 1.23043 0)
(-0.0301654 1.15272 0)
(-0.0375086 0.983275 0)
(-0.0575211 0.971655 0)
(-0.0691107 1.02657 0)
(-0.0793381 0.966 0)
(-0.0807567 0.917702 0)
(-0.079245 0.890564 0)
(-0.0623466 0.82112 0)
(-0.0170547 0.53534 0)
(0.0184824 0.38995 0)
(0.0261183 0.377246 0)
(0.020734 0.395055 0)
(0.00597395 0.435955 0)
(0.00800222 0.380398 0)
(-0.0107369 0.354215 0)
(-0.00653214 0.437512 0)
(-0.0116437 0.36033 0)
(-0.011397 0.339034 0)
(-0.0115129 0.354852 0)
(-0.00857847 0.407783 0)
(0.0121602 0.702788 0)
(0.0635515 0.9605 0)
(0.0911482 1.05923 0)
(0.0961212 1.11243 0)
(0.0909896 1.16914 0)
(0.0767035 1.18562 0)
(0.0595054 1.20666 0)
(0.0374999 1.25188 0)
(0.0101809 1.27431 0)
(-0.00904291 1.24673 0)
(-0.0227748 1.16895 0)
(-0.0384179 1.00622 0)
(-0.063805 0.987529 0)
(-0.0754841 1.04434 0)
(-0.0878175 0.971335 0)
(-0.0928274 0.919465 0)
(-0.0874553 0.881497 0)
(-0.048897 0.785743 0)
(0.00743472 0.492895 0)
(0.0332029 0.382884 0)
(0.0283357 0.383696 0)
(0.0200945 0.402752 0)
(0.00830044 0.443289 0)
(0.0114795 0.387523 0)
(-0.0162453 0.360007 0)
(-0.00717284 0.431644 0)
(-0.00839269 0.364986 0)
(-0.0162733 0.345708 0)
(-0.0250123 0.362092 0)
(-0.0180758 0.400123 0)
(0.010543 0.661963 0)
(0.0694329 0.917548 0)
(0.10491 1.04697 0)
(0.105438 1.11405 0)
(0.0926372 1.18487 0)
(0.0773115 1.19809 0)
(0.0606972 1.22602 0)
(0.0399154 1.27207 0)
(0.0155448 1.29869 0)
(-0.000647533 1.25611 0)
(-0.0150891 1.19062 0)
(-0.0348229 1.03603 0)
(-0.0654378 1.00608 0)
(-0.0786284 1.06173 0)
(-0.0939295 0.98377 0)
(-0.102202 0.919799 0)
(-0.0849154 0.859427 0)
(-0.0229474 0.732673 0)
(0.0327748 0.457396 0)
(0.0415643 0.389363 0)
(0.0280156 0.394611 0)
(0.0186062 0.407949 0)
(0.0056718 0.44679 0)
(0.0134872 0.394977 0)
(-0.0207713 0.371283 0)
(-0.0122582 0.418851 0)
(-0.00862923 0.367816 0)
(-0.0195341 0.36159 0)
(-0.0336589 0.368888 0)
(-0.0267568 0.388805 0)
(0.00550091 0.613122 0)
(0.0719709 0.867926 0)
(0.112141 1.03076 0)
(0.11014 1.1241 0)
(0.0912034 1.19852 0)
(0.075777 1.21512 0)
(0.0587065 1.23958 0)
(0.0402779 1.29368 0)
(0.0207572 1.31318 0)
(0.00598321 1.27017 0)
(-0.007263 1.20542 0)
(-0.0315374 1.07183 0)
(-0.0649624 1.02764 0)
(-0.0825764 1.07698 0)
(-0.0974568 1.00279 0)
(-0.105623 0.91367 0)
(-0.0696144 0.818728 0)
(0.00600097 0.670742 0)
(0.048353 0.439626 0)
(0.0428964 0.403897 0)
(0.0251599 0.406361 0)
(0.0118582 0.416031 0)
(-0.00345192 0.44381 0)
(0.0128429 0.399237 0)
(-0.0194389 0.387121 0)
(-0.0121871 0.40738 0)
(-0.0127318 0.366537 0)
(-0.0215608 0.376603 0)
(-0.0351106 0.376489 0)
(-0.0325563 0.379953 0)
(-0.00291824 0.559682 0)
(0.0659092 0.816143 0)
(0.110337 1.01334 0)
(0.107128 1.13234 0)
(0.0887159 1.21652 0)
(0.071761 1.22609 0)
(0.0565855 1.2573 0)
(0.0386991 1.30567 0)
(0.0239455 1.33029 0)
(0.0104251 1.28042 0)
(-0.00261806 1.22263 0)
(-0.0303484 1.11061 0)
(-0.0671931 1.05321 0)
(-0.0869774 1.08978 0)
(-0.0968349 1.0231 0)
(-0.0966889 0.897264 0)
(-0.0455922 0.761611 0)
(0.023675 0.616861 0)
(0.0506688 0.436132 0)
(0.0385278 0.420792 0)
(0.0175271 0.421513 0)
(0.00208235 0.423026 0)
(-0.013538 0.440291 0)
(0.00899067 0.395174 0)
(-0.0112229 0.396935 0)
(-0.00323767 0.406876 0)
(-0.0164626 0.368332 0)
(-0.0221135 0.387447 0)
(-0.032667 0.384428 0)
(-0.033533 0.376269 0)
(-0.0108139 0.509633 0)
(0.0507988 0.759418 0)
(0.099472 0.990747 0)
(0.101153 1.14193 0)
(0.0849433 1.22625 0)
(0.0696781 1.24086 0)
(0.0552829 1.26975 0)
(0.0368224 1.3207 0)
(0.0231884 1.33905 0)
(0.00920175 1.29873 0)
(-0.00462714 1.23474 0)
(-0.0362033 1.15527 0)
(-0.0721125 1.08018 0)
(-0.0895146 1.09691 0)
(-0.0883301 1.03333 0)
(-0.0769673 0.86817 0)
(-0.0276581 0.709035 0)
(0.0249835 0.577831 0)
(0.0419064 0.43936 0)
(0.0286347 0.438815 0)
(0.0049245 0.437514 0)
(-0.00816136 0.428122 0)
(-0.0224142 0.434629 0)
(0.00612367 0.383101 0)
(-0.00268413 0.396035 0)
(0.00811468 0.415988 0)
(-0.0121715 0.376367 0)
(-0.0211631 0.393186 0)
(-0.0274033 0.392092 0)
(-0.0301445 0.37656 0)
(-0.0124516 0.469686 0)
(0.0340426 0.707113 0)
(0.0823483 0.964313 0)
(0.0917603 1.14469 0)
(0.0813538 1.23771 0)
(0.0717418 1.24867 0)
(0.0568643 1.28868 0)
(0.0368229 1.33067 0)
(0.0184628 1.35636 0)
(0.00241848 1.312 0)
(-0.014085 1.2559 0)
(-0.0448583 1.19416 0)
(-0.0750133 1.10583 0)
(-0.0876242 1.09194 0)
(-0.074683 1.03162 0)
(-0.057789 0.83892 0)
(-0.0242685 0.671882 0)
(0.0125316 0.549352 0)
(0.0251518 0.4439 0)
(0.01091 0.457302 0)
(-0.00850359 0.451298 0)
(-0.0186289 0.428746 0)
(-0.0300718 0.429707 0)