/*--------------------------------*- C++ -*----------------------------------*\
| =========                 |                                                 |
| \\      /  F ield         | OpenFOAM: The Open Source CFD Toolbox           |
|  \\    /   O peration     | Version:  2.3.0                                 |
|   \\  /    A nd           | Web:      www.OpenFOAM.org                      |
|    \\/     M anipulation  |                                                 |
\*---------------------------------------------------------------------------*/
FoamFile
{
    version     2.0;
    format      ascii;
    class       volScalarField;
    location    "1.7994";
    object      epsilonm;
}
// * * * * * * * * * * * * * * * * * * * * * * * * * * * * * * * * * * * * * //

dimensions      [0 2 -3 0 0 0 0];

internalField   nonuniform List<scalar> 
18816
(
1.25991
1.61887
0.467606
10.5574
18.6493
17.8852
23.8926
31.3232
38.5563
47.2304
55.0099
59.0695
61.009
60.7118
58.341
54.2354
47.8011
39.5821
30.2764
20.2724
11.3572
5.25301
4.25422
7.57428
12.8914
16.6128
15.7196
3.66879
1.15302
0.28633
2.72303
33.0162
39.1906
41.4465
42.7405
48.6519
50.8335
50.3388
49.719
48.6796
45.9846
42.8826
38.3443
33.0893
27.6308
22.0493
16.8628
12.1456
8.40451
5.91242
5.79822
6.53849
9.81804
14.037
22.0804
7.8471
1.09394
0.238382
5.6296
20.6677
23.7049
27.0147
29.3663
34.668
34.5982
33.5316
30.2451
34.7963
33.9646
29.7547
26.3725
22.9899
20.0454
16.6408
13.3065
9.80033
6.33664
3.51159
2.4101
2.92497
5.04325
8.97655
16.3659
8.42608
1.08834
0.457084
6.51207
18.9868
22.4581
25.9478
29.2205
34.8532
32.799
31.0238
24.6573
18.1017
20.2445
15.2275
12.3337
10.7523
9.32351
6.95172
4.86463
3.07853
1.8523
0.896591
0.434136
0.675425
3.37397
8.18344
16.0897
8.82755
1.05087
0.155386
2.78658
19.3025
18.1796
25.1779
25.8476
29.8966
32.9944
29.5827
20.2082
9.61467
5.62893
1.83271
1.07714
0.942174
0.833858
0.636232
0.574856
0.521919
0.444488
0.364954
0.279061
0.21717
0.204403
5.53711
15.2112
8.63951
1.12099
0.353014
2.15555
9.97285
16.6942
22.5538
24.942
32.3211
30.8938
28.8202
18.7112
6.85919
2.37554
0.658148
0.313709
0.213077
0.26031
0.359007
0.403024
0.423773
0.408545
0.412496
0.363536
0.291059
0.185588
3.16023
14.6637
8.82743
1.24956
0.537485
2.53841
44.0627
66.8703
57.8754
48.3006
26.1891
29.5724
25.1302
17.6411
1.81887
1.33538
0.414797
0.203294
0.112449
0.230615
0.397427
0.462958
0.508577
0.474503
0.534286
0.576201
0.540798
0.347775
0.648898
12.8071
8.44998
1.17303
0.809897
2.20989
45.9486
77.099
67.6274
55.1309
42.8722
35.5828
23.3178
15.2999
0.434624
0.79674
0.336285
0.168
0.0636534
0.171614
0.358421
0.507014
0.629095
0.505119
0.567723
0.723023
0.849327
0.54069
0.0986377
10.3661
8.15536
1.17254
1.01083
1.7427
37.0744
76.9226
67.1357
54.4738
46.5288
38.8428
24.2986
13.0647
0.321218
0.374508
0.214499
0.15203
0.0593051
0.167887
0.107673
0.44925
0.794054
0.544871
0.566935
0.761855
1.08218
0.783187
0.154274
7.83619
8.10781
1.18277
1.53123
1.4666
25.0602
76.8822
66.9207
56.3216
48.7987
42.1238
21.1493
10.1266
1.34187
0.11778
0.173314
0.101604
0.16753
0.257897
0.16699
0.40619
1.1023
0.570989
0.55137
0.68131
1.09307
0.958403
0.226169
6.1174
7.43946
1.22877
3.90227
1.80093
14.473
76.38
68.4824
60.0405
51.406
40.0399
14.5551
7.04487
1.43381
0.398234
0.293506
0.163903
0.0872529
0.195021
0.380734
0.255041
1.30035
0.582659
0.544059
0.568859
0.873531
1.08157
0.255982
5.40949
7.42186
1.04236
7.82724
3.15824
7.38669
73.2169
71.446
61.9377
52.8446
34.0137
10.5195
5.43558
1.86415
0.530877
0.687701
0.327693
0.320035
0.195318
0.177326
0.118109
1.11145
0.561603
0.521968
0.512751
0.674085
1.10248
0.289968
5.23743
6.70068
1.38622
10.9506
4.54183
2.91541
66.6927
74.6695
63.7489
54.309
29.1813
7.18399
3.61995
1.50931
0.575414
0.668113
0.435133
0.315255
0.160671
0.174441
0.433303
1.04349
0.551758
0.513662
0.495654
0.566619
1.04175
0.346231
5.25875
6.64556
1.61791
10.8924
3.41792
1.31925
61.1682
76.7501
64.7925
55.4324
26.4534
5.26559
2.62488
1.66418
0.566619
1.04591
0.36789
0.612503
0.470687
0.389203
0.770645
0.673257
0.501515
0.486445
0.475663
0.493326
0.929009
0.403716
5.18219
6.04503
1.81368
3.19145
0.700704
1.31798
59.3572
77.8105
66.8971
56.0952
23.5259
4.90634
2.46243
1.67803
0.440787
1.10913
0.352067
0.26474
0.461595
0.916649
0.571568
0.376259
0.462751
0.4735
0.462175
0.45808
0.808661
0.514248
4.77941
5.81155
1.94143
0.181081
0.225033
2.46789
60.0518
78.3719
69.4254
56.1683
21.0949
4.29211
2.33978
1.41863
0.27239
1.33144
0.237084
0.367258
0.490855
0.408385
0.205766
0.274111
0.437378
0.445836
0.437301
0.431029
0.663152
0.773272
3.96044
5.72066
1.73305
0.0648348
0.32568
5.86048
61.3645
78.0575
71.2594
54.3237
17.8715
3.69691
2.15958
0.490113
0.323067
1.41864
0.226296
0.210012
0.189853
0.191988
0.153076
0.271468
0.419755
0.429024
0.416892
0.407956
0.525099
1.01164
3.47208
5.25031
1.70067
0.0848636
0.705108
11.564
63.5891
78.1136
72.6579
51.1365
13.1898
2.59792
0.533195
0.126582
0.138598
0.075232
0.120021
0.104882
0.123314
0.168321
0.190975
0.28015
0.385589
0.394187
0.382776
0.380523
0.425731
0.743201
3.18989
5.03344
1.35846
0.137824
1.5076
18.917
66.837
79.726
76.0521
45.2492
5.73652
0.247703
0.145202
0.0790248
0.0843238
0.0667464
0.105304
0.099306
0.143159
0.224679
0.280456
0.331024
0.357774
0.373898
0.358332
0.357534
0.372953
0.591285
3.17155
4.98499
1.28827
0.220768
2.77817
26.6406
70.9578
82.6906
78.1154
31.3084
0.459846
0.0855891
0.0949507
0.0754591
0.0886142
0.0744651
0.102904
0.113983
0.166507
0.239668
0.345148
0.392078
0.335271
0.340634
0.325294
0.329338
0.330392
0.490523
3.31512
4.66679
1.0502
0.354372
4.53029
34.297
76.894
89.155
76.4786
12.5001
0.169018
0.126143
0.100685
0.0815988
0.0741604
0.090386
0.113777
0.12477
0.0918881
0.0998827
0.162497
0.28387
0.265461
0.279741
0.289125
0.3028
0.288536
0.431948
3.34822
4.62378
0.99659
0.501063
5.25175
39.8238
81.075
91.4039
68.5176
5.39888
0.0560585
0.0468951
0.0613475
0.0469611
0.0339726
0.0564054
0.0820423
0.0946755
0.0724461
0.0246859
0.0195809
0.155565
0.211136
0.247248
0.265251
0.28189
0.238345
0.387815
3.36107
4.32905
0.920747
0.711649
5.09412
43.5518
84.3282
92.5401
54.7284
1.34534
0.0897255
0.103445
0.121547
0.114934
0.0837178
0.0448054
0.02583
0.0344027
0.0538799
0.0824317
0.101863
0.177168
0.210964
0.233161
0.250487
0.266196
0.148982
0.330394
3.28111
4.21657
0.869643
1.1162
3.75596
42.6363
86.6418
95.676
47.9545
0.508261
0.0505476
0.0634015
0.0936644
0.0962966
0.0736257
0.0364494
0.00290935
0.0178783
0.0510292
0.0813557
0.103971
0.168807
0.202356
0.223552
0.238289
0.251984
0.0473921
0.270708
3.22646
4.17281
0.7353
1.76127
1.69985
36.3438
84.8789
95.2373
39.8061
0.192938
0.0546389
0.0687739
0.0958705
0.103462
0.0917139
0.0692917
0.0300615
0.0239618
0.0734468
0.104765
0.128958
0.176392
0.201771
0.211459
0.2244
0.236982
0.0528545
0.205219
3.1689
3.94103
0.699348
2.07738
0.764056
20.0486
71.9409
80.5107
22.4785
0.118521
0.0345943
0.0539942
0.0772865
0.0817072
0.0724226
0.0618419
0.0257533
0.0258408
0.0780028
0.107564
0.128891
0.164159
0.185093
0.192764
0.202699
0.214293
0.0692444
0.151857
3.19842
3.84972
0.637707
1.99441
0.544756
4.82277
36.2128
37.9142
2.34539
0.0237672
0.0339081
0.0663195
0.0765596
0.0758235
0.0697386
0.0666063
0.0277864
0.0359938
0.0784272
0.100947
0.117123
0.14186
0.155686
0.157247
0.165009
0.17657
0.0976466
0.113755
3.17651
3.82391
0.616789
1.23376
0.443248
0.722321
3.30499
1.99975
0.0858341
0.00862977
0.03032
0.0577855
0.057142
0.0513794
0.0502495
0.0506497
0.0248807
0.0308735
0.0548262
0.0665918
0.0740362
0.0847912
0.091406
0.0925651
0.0968678
0.104344
0.114131
0.0781211
3.10837
3.71877
0.864973
0.404802
0.193846
2.53954
4.46048
4.49718
6.07095
8.1645
10.1471
12.4401
14.1307
14.8573
15.1063
14.7947
13.9789
12.7086
10.8792
8.68653
6.34646
4.00587
2.07196
0.946345
0.742693
1.33078
2.57904
3.75884
3.70798
2.67293
0.549963
0.100318
0.997192
8.9041
10.064
10.4368
10.9276
12.3582
12.7212
12.6306
12.7077
12.4984
11.8965
11.2017
10.118
8.81352
7.39243
5.90324
4.489
3.1848
2.14318
1.53469
1.46942
1.67378
2.51932
3.57367
5.38473
2.19437
0.301388
0.0288424
0.261619
1.81747
1.79608
1.66476
1.72982
1.84159
1.71009
1.65311
2.75107
9.59805
9.33764
8.35983
7.47589
6.51189
5.64691
4.64806
3.67643
2.68581
1.75334
1.05702
0.807694
0.92977
1.4551
2.45227
4.34846
2.11038
0.336955
0.0132723
0.0899188
0.638215
0.345024
0.26321
0.245644
0.228127
0.186384
0.194018
0.460649
1.97772
6.12483
4.67283
3.82712
3.35108
2.85589
2.07524
1.42079
0.887088
0.53088
0.285414
0.18659
0.250934
0.965564
2.22706
4.21107
2.45703
0.244227
0.0173138
0.0403265
0.332081
0.108572
0.0773984
0.0598216
0.0446045
0.0356448
0.036982
0.102699
0.574894
1.87509
0.651507
0.412411
0.356044
0.307592
0.232505
0.213334
0.195607
0.17101
0.148709
0.121812
0.101551
0.108986
1.54163
4.0188
2.54701
0.365697
0.068036
0.172202
0.154846
0.0751823
0.0640144
0.0429349
0.0242368
0.0196149
0.0185
0.0349092
0.234832
0.819538
0.21125
0.103889
0.0809934
0.104905
0.145479
0.168665
0.177327
0.171447
0.170538
0.152957
0.124054
0.09004
0.932506
3.89201
2.52095
0.233227
0.126278
0.537469
7.11728
11.2548
10.1241
7.73909
0.0370906
0.0227983
0.0166791
0.0252472
0.110094
0.460012
0.133419
0.0653653
0.0425633
0.0814292
0.140368
0.185153
0.208946
0.197867
0.209244
0.221227
0.2005
0.135398
0.227492
3.45964
2.5752
0.41537
0.214809
0.639067
11.4645
19.1918
17.0978
13.7236
7.54697
6.2079
3.74068
0.0193867
0.0530243
0.269184
0.107823
0.0563161
0.0282206
0.0579334
0.104397
0.184725
0.241091
0.207631
0.217952
0.261837
0.29244
0.184327
0.0638207
2.85498
2.55655
0.336512
0.272099
0.537177
10.2668
20.2434
17.7282
14.4631
11.8775
9.80432
5.91442
0.0376023
0.020278
0.131831
0.0753181
0.0542506
0.0277572
0.0543912
0.0467267
0.161624
0.286571
0.217531
0.218362
0.271383
0.345982
0.257097
0.0917639
2.17851
2.65746
0.410161
0.402314
0.424113
7.19514
20.2016
17.6857
14.9396
12.8777
11.2002
5.79157
1.94319
0.344172
0.0583764
0.0617784
0.04287
0.0547746
0.0741033
0.0757137
0.146318
0.358853
0.219908
0.210711
0.244534
0.347943
0.310584
0.114567
1.71564
2.56132
0.381272
0.934834
0.508478
4.16256
20.0274
18.0906
15.9904
13.8345
11.3055
4.12003
2.04564
0.46866
0.150254
0.0997005
0.0716891
0.0400054
0.0634629
0.116277
0.0903602
0.372476
0.21803
0.203835
0.206754
0.292059
0.343226
0.122269
1.49874
2.55491
0.214667
1.93287
0.946136
2.30786
19.2606
18.8081
16.457
14.3275
9.7955
3.11413
1.66768
0.594011
0.195763
0.21905
0.126688
0.107949
0.0705513
0.0681612
0.0510531
0.324645
0.208984
0.194882
0.190862
0.234446
0.348678
0.130078
1.43556
2.43749
0.250294
2.93542
1.37237
1.05715
17.6591
19.5151
16.9681
14.7248
8.32564
2.16054
1.11572
0.493451
0.210545
0.230693
0.159661
0.118122
0.0706632
0.0720778
0.141476
0.310413
0.204543
0.190262
0.183739
0.204103
0.330712
0.143053
1.4308
2.41795
0.183021
3.13763
1.10315
0.545733
16.2552
19.9368
17.3487
15.0096
7.46957
1.57049
0.802487
0.507644
0.208685
0.327769
0.14309
0.190277
0.155275
0.139104
0.224815
0.210636
0.18346
0.1794
0.174609
0.180682
0.296627
0.156823
1.41104
2.25014
0.348743
1.10707
0.256941
0.528316
16.0119
20.1691
17.8726
15.1716
6.64661
1.42858
0.735732
0.50608
0.174326
0.353992
0.137089
0.10646
0.149322
0.25943
0.181502
0.135621
0.169238
0.173222
0.168089
0.168653
0.262529
0.187406
1.30456
2.23756
0.389308
0.0887582
0.0945894
0.892809
16.2485
20.3061
18.338
15.1828
5.93293
1.24771
0.672872
0.423571
0.111188
0.405662
0.100147
0.109969
0.140887
0.124337
0.0835653
0.110536
0.158672
0.160959
0.157303
0.157154
0.220675
0.2691
1.08912
2.12096
0.560177
0.0313074
0.13093
1.94879
16.6704
20.2587
18.6728
14.8013
4.996
1.02666
0.585182
0.1615
0.1134
0.404304
0.0813791
0.0615815
0.0633028
0.0769153
0.0710891
0.110478
0.148435
0.152999
0.148526
0.147141
0.177975
0.325923
0.982526
2.08226
0.611814
0.0390994
0.263883
3.59702
17.1731
20.2518
18.9072
13.9148
3.73877
0.722394
0.167636
0.049542
0.0504376
0.0387786
0.044204
0.0422649
0.0513585
0.0782258
0.0914194
0.117763
0.133464
0.138894
0.135569
0.136556
0.146399
0.240566
0.919528
2.08711
0.684482
0.0611765
0.526082
5.59913
17.8675
20.5744
19.6194
12.262
1.744
0.0978572
0.0518217
0.0313645
0.0380227
0.0277992
0.046943
0.0426259
0.0621279
0.093908
0.128574
0.134802
0.124197
0.130741
0.126876
0.128144
0.129899
0.189641
0.9171
2.00167
0.694943
0.0923327
0.910008
7.62189
18.7535
21.258
20.007
8.71224
0.203042
0.0396041
0.0419577
0.0348215
0.0413348
0.0366545
0.0474958
0.048098
0.0668176
0.0855991
0.126337
0.133896
0.110863
0.115653
0.114721
0.118257
0.114555
0.162091
0.942861
2.00501
0.644927
0.138382
1.42839
9.64245
20.1772
22.7695
19.438
3.49027
0.075968
0.0526618
0.0460419
0.040739
0.0394568
0.0460091
0.0507599
0.0465851
0.0349406
0.0348184
0.0413617
0.0770106
0.0885553
0.098481
0.104396
0.110287
0.0970832
0.14541
0.944603
1.89749
0.672442
0.180368
1.65109
11.1197
21.2196
23.4551
17.8939
1.78062
0.0355323
0.0255487
0.0301853
0.0249322
0.0183069
0.0250322
0.0321653
0.0331216
0.0239769
0.0167775
0.0176848
0.0611097
0.0804928
0.0917107
0.0983414
0.103999
0.0713464
0.133355
0.941374
1.84892
0.585326
0.231098
1.6155
12.0987
22.0869
23.7645
14.489
0.565957
0.0345401
0.0339712
0.0408127
0.0413285
0.0307867
0.0172321
0.0110055
0.0150111
0.0230361
0.0335082
0.0414357
0.0673739
0.0806965
0.0876715
0.0936449
0.0987747
0.0356984
0.116187
0.921495
1.84178
0.589989
0.323811
1.25204
11.9531
22.6934
24.5653
13.2214
0.248419
0.0220189
0.0231936
0.0313414
0.0345454
0.0290007
0.0171998
0.00314351
0.00916519
0.0231053
0.0346059
0.0441592
0.0660743
0.0775039
0.0840124
0.089109
0.0935731
0.0210382
0.0993767
0.910653
1.71807
0.618197
0.460898
0.621462
10.5377
22.5813
24.9425
11.4947
0.0747303
0.0207227
0.0217263
0.0295177
0.0330308
0.0296258
0.0236933
0.0117911
0.0108662
0.0285427
0.0401471
0.0497902
0.0666317
0.0756173
0.0781376
0.0824591
0.0867331
0.0197391
0.0781637
0.902403
1.71729
0.666992
0.519921
0.314488
5.96512
19.9901
22.2815
7.0916
0.0554021
0.0157471
0.0183144
0.0245793
0.0258059
0.0233941
0.0208567
0.0100914
0.0112256
0.028206
0.0384842
0.0466975
0.0585624
0.0657985
0.0680213
0.0712824
0.0752039
0.0189961
0.0596263
0.911255
1.59366
0.628788
0.499155
0.227693
1.47744
10.2971
10.9067
0.781276
0.0174103
0.0147243
0.0194273
0.0219392
0.0212649
0.0204471
0.0198579
0.00905987
0.0119321
0.0237846
0.0311633
0.0367522
0.0442395
0.0482196
0.0484654
0.0506577
0.0541691
0.0208795
0.0430192
0.908651
1.54396
0.584258
0.326914
0.191175
0.312795
1.10013
0.716474
0.0512305
0.00825026
0.00947862
0.00966767
0.00930228
0.00840063
0.00831284
0.00874806
0.00541355
0.00612232
0.00895023
0.0103406
0.0108965
0.0109164
0.0112314
0.0113282
0.011662
0.0123548
0.0285903
0.0187805
0.895126
1.50198
0.0528574
0.114317
0.0807389
0.544114
0.986088
1.08403
1.48533
2.0833
2.67911
3.35265
3.71381
3.82586
3.82799
3.65424
3.35531
2.91061
2.33744
1.72592
1.15781
0.67605
0.341826
0.182644
0.14997
0.221788
0.429387
0.764873
0.816282
0.22462
0.0373958
0.0410123
0.353766
2.3146
2.44274
2.53538
2.78055
3.26107
3.48695
3.60762
3.72709
3.71525
3.55138
3.36079
3.04307
2.64817
2.20288
1.73587
1.30009
0.910799
0.618523
0.468308
0.44415
0.496614
0.731279
1.02927
1.49141
0.29751
0.0309173
0.0147584
0.112627
0.54452
0.59059
0.545117
0.595968
0.641264
0.60574
0.637021
1.15164
3.04839
2.99622
2.72525
2.4453
2.11736
1.81785
1.48512
1.17047
0.861874
0.579764
0.392998
0.32924
0.358166
0.498317
0.78078
1.33176
0.272631
0.0198304
0.009022
0.044711
0.158728
0.163565
0.133379
0.128076
0.121771
0.109238
0.128113
0.262586
0.874946
2.09726
1.62862
1.34543
1.18074
0.983025
0.68867
0.462265
0.291554
0.187462
0.126845
0.103754
0.120265
0.323182
0.697429
1.26842
0.512974
0.0173784
0.0086633
0.0223007
0.0755806
0.0777412
0.0644293
0.0572221
0.0520182
0.0453612
0.0495302
0.0882316
0.262014
0.6815
0.248382
0.169279
0.147621
0.124939
0.103089
0.100879
0.0985862
0.0910129
0.0846994
0.0747502
0.065197
0.0664872
0.486097
1.21259
0.534163
0.0199703
0.0162435
0.0220633
0.0478346
0.0636777
0.0593986
0.0430426
0.032258
0.0282174
0.0270141
0.0394424
0.108358
0.310661
0.0743677
0.0397253
0.0352637
0.0493227
0.0701898
0.0874349
0.0947455
0.0939645
0.09325
0.0866868
0.0721488
0.0561799
0.308346
1.166
0.540497
0.0145249
0.0301373
0.0759514
0.827233
1.57478
1.51092
1.0322
0.0357186
0.0288758
0.0251347
0.0273918
0.0591989
0.175749
0.0470595
0.0246337
0.0189814
0.0330992
0.0583637
0.0902109
0.106118
0.103173
0.104741
0.109302
0.0996811
0.07122
0.0920395
1.0441
0.546367
0.0297748
0.0590508
0.168853
2.80525
5.08187
4.62396
3.59417
1.20424
0.974929
0.511797
0.0199948
0.0321255
0.100819
0.0380215
0.0215114
0.0140936
0.0232477
0.0393063
0.0807978
0.113057
0.10471
0.105331
0.118895
0.127591
0.0860942
0.0430868
0.875713
0.547197
0.0389986
0.0753235
0.157666
2.91632
5.97534
5.24001
4.31684
3.33521
2.70581
1.5243
0.0225609
0.0155145
0.0527745
0.0303059
0.0226563
0.0141646
0.0220311
0.028237
0.0699187
0.125655
0.105756
0.104295
0.119732
0.139522
0.111222
0.0568355
0.674658
0.549701
0.0269826
0.10323
0.119948
2.21156
5.9932
5.27891
4.48185
3.86067
3.37692
1.77957
0.376612
0.0941906
0.0332584
0.0259755
0.0236251
0.0222221
0.0253165
0.0473319
0.0628005
0.140702
0.102702
0.0983278
0.107506
0.137619
0.128535
0.0658259
0.53908
0.525414
0.00325719
0.208438
0.140611
1.23519
5.89018
5.42464
4.80339
4.26215
3.66169
1.33783
0.678893
0.174662
0.0713666
0.0414231
0.0417193
0.0225213
0.0274967
0.0510404
0.0416759
0.13523
0.0993304
0.0936402
0.0931691
0.120374
0.136938
0.0691373
0.470619
0.535464
0.0475199
0.476297
0.294754
0.743156
5.60769
5.62195
4.93865
4.43757
3.24365
1.14758
0.597825
0.235183
0.089681
0.0863587
0.0635734
0.0461356
0.0331641
0.0389872
0.0298469
0.124279
0.0950612
0.088964
0.0869369
0.100189
0.137345
0.0722907
0.447735
0.472708
0.00662982
0.852371
0.458363
0.401936
5.12142
5.79962
5.10933
4.53853
2.71553
0.768107
0.407147
0.194018
0.0961436
0.0985942
0.0754618
0.0589467
0.0422983
0.0435068
0.0644559
0.119816
0.0925742
0.0859465
0.0829804
0.0900505
0.129438
0.0765141
0.442697
0.44534
0.0216039
1.01448
0.396126
0.23352
4.7202
5.89678
5.24828
4.59778
2.39742
0.57537
0.292261
0.18989
0.0965759
0.125253
0.0717914
0.0735755
0.0635311
0.0677973
0.0862614
0.0913297
0.0828847
0.0802881
0.0777918
0.0805463
0.116132
0.0812602
0.434069
0.455701
0.142789
0.431775
0.114898
0.215373
4.71418
5.94552
5.3781
4.62575
2.12289
0.488342
0.262502
0.185343
0.0868207
0.138013
0.0698628
0.0561666
0.0658849
0.0974363
0.0795847
0.0690377
0.076491
0.0766177
0.0740441
0.0752668
0.103876
0.0928787
0.398285
0.398114
0.0651896
0.0515405
0.0460023
0.323781
4.81989
5.97265
5.45682
4.61465
1.88284
0.442058
0.235508
0.15456
0.0611374
0.145948
0.0552562
0.04321
0.0536413
0.0606922
0.0532698
0.0617401
0.0704919
0.0699739
0.0683891
0.0694736
0.088911
0.119247
0.335044
0.389219
0.274251
0.0193907
0.0566967
0.66924
4.99238
5.95801
5.51157
4.52471
1.58273
0.355488
0.194901
0.0675355
0.054164
0.135633
0.0407726
0.030595
0.0377551
0.0504165
0.0523236
0.0617226
0.0641262
0.0656112
0.0641102
0.0646627
0.0729107
0.127912
0.312706
0.369973
0.260809
0.0222107
0.101298
1.19631
5.13659
5.9374
5.53903
4.26043
1.19269
0.239816
0.0681134
0.0285446
0.0310164
0.0251645
0.0262289
0.0281989
0.0359006
0.0594785
0.0645693
0.0644453
0.0565374
0.0588231
0.0584328
0.0600683
0.0610891
0.0931353
0.301879
0.386906
0.319444
0.0325484
0.190512
1.79073
5.31168
6.00165
5.69609
3.72935
0.587944
0.0478851
0.0305974
0.0182956
0.0274882
0.0175444
0.0338892
0.0292713
0.0444488
0.0688968
0.103346
0.0707109
0.0524358
0.0550235
0.0550692
0.0566921
0.0550285
0.0736615
0.304796
0.36982
0.387107
0.046322
0.311869
2.36456
5.52757
6.16404
5.75947
2.70883
0.0869071
0.0275105
0.0300757
0.0249948
0.0305566
0.0269154
0.0346752
0.0349062
0.0509217
0.0637088
0.110104
0.0588709
0.0446535
0.0484031
0.0503842
0.0529223
0.0480794
0.0652246
0.309993
0.366102
0.350662
0.0656757
0.478898
2.95179
5.91433
6.54575
5.55672
1.05778
0.0391666
0.0341813
0.0310919
0.028795
0.0281214
0.0317201
0.0312396
0.0257696
0.0195543
0.0192091
0.0203774
0.0319399
0.0392624
0.0444107
0.0476978
0.0504777
0.039028
0.0599047
0.308529
0.350468
0.332634
0.0811961
0.560006
3.39883
6.22283
6.805
5.242
0.628983
0.0198763
0.0148697
0.0163022
0.0146467
0.0109323
0.0125316
0.0140802
0.0135234
0.0124568
0.0128159
0.0154071
0.0314353
0.0390688
0.0431677
0.0459559
0.0482444
0.0260376
0.0558122
0.305663
0.371232
0.341609
0.095756
0.560743
3.6946
6.48821
6.92081
4.34463
0.239664
0.0156893
0.0135305
0.0154117
0.017444
0.0138223
0.00834178
0.00563262
0.0077998
0.0123694
0.01761
0.0221033
0.0329672
0.0390766
0.0414662
0.0439422
0.0460547
0.0160978
0.0498234
0.301036
0.334033
0.347926
0.11692
0.472621
3.68214
6.66226
7.17713
4.09473
0.11262
0.0123798
0.0109349
0.0108347
0.0132061
0.012432
0.00885663
0.00284604
0.00546527
0.0126972
0.0181587
0.0232748
0.0322185
0.0370551
0.0393244
0.0414436
0.0432696
0.0132638
0.0441781
0.300347
0.333666
0.414871
0.143045
0.271875
3.37114
6.75076
7.44734
3.7604
0.0352271
0.0113673
0.00913004
0.00927543
0.0106644
0.00957007
0.00870841
0.00562516
0.00580786
0.0133439
0.018746
0.023557
0.0306052
0.0346273
0.0353701
0.0370943
0.0388954
0.0131344
0.0356988
0.301687
0.290879
0.372919
0.150955
0.160974
2.01637
6.19404
6.90165
2.54444
0.0278416
0.0100746
0.0076636
0.00846687
0.0085899
0.00786393
0.00719894
0.00469638
0.00574374
0.0114235
0.015807
0.0196875
0.0242918
0.0272831
0.0281419
0.0294126
0.0309135
0.0121252
0.0273878
0.305691
0.277994
0.463672
0.145003
0.125964
0.565073
3.32653
3.52627
0.312046
0.0126371
0.0094264
0.00572613
0.00597425
0.00550705
0.00574902
0.00556705
0.00378483
0.00505339
0.00679029
0.00956549
0.0116955
0.0138762
0.0148112
0.0150886
0.0157105
0.0166072
0.011583
0.0172924
0.306496
0.263983
0.321575
0.10917
0.113544
0.177709
0.470565
0.32338
0.0333722
0.00840655
0.0059986
0.00128446
0.00130422
0.00134808
0.00126367
0.00121599
0.00187569
0.00200638
0.00130053
0.001648
0.0018648
0.00202415
0.00209167
0.00215074
0.00221563
0.00230686
0.00797471
0.00377607
0.304426
0.245286
0.0304078
0.0401189
0.0429659
0.171405
0.252264
0.307743
0.430456
0.611289
0.797827
0.979724
1.04188
1.03512
0.996778
0.906978
0.79399
0.644303
0.486663
0.346696
0.238293
0.156446
0.100728
0.0719396
0.0640157
0.0703585
0.0937447
0.148579
0.168724
0.0807198
0.0245991
0.0184952
0.123263
0.615967
0.651089
0.693543
0.825543
1.0096
1.10691
1.17184
1.21462
1.21299
1.15116
1.08932
0.981958
0.849463
0.701694
0.553079
0.420449
0.310102
0.23102
0.192378
0.182639
0.190095
0.24846
0.3289
0.457137
0.134124
0.0191538
0.0102423
0.0556404
0.208261
0.241067
0.2251
0.261549
0.280972
0.271497
0.312901
0.56261
1.08633
1.08619
1.00357
0.901358
0.77445
0.661659
0.546267
0.43889
0.33551
0.242568
0.189166
0.169627
0.172589
0.207851
0.284692
0.459345
0.12501
0.015353
0.0078672
0.0295349
0.079241
0.0891608
0.0724584
0.0724756
0.0714129
0.0685982
0.0926238
0.180331
0.465504
0.827607
0.66199
0.551396
0.481615
0.386503
0.259033
0.17768
0.124704
0.0931164
0.0774409
0.0714268
0.0747869
0.138372
0.254584
0.437869
0.177762
0.0143084
0.0068287
0.0180536
0.0456595
0.0517093
0.0404976
0.0371214
0.0356076
0.0335424
0.041201
0.0689644
0.151772
0.273785
0.103959
0.0774785
0.0693796
0.0602512
0.0567122
0.0614273
0.0636479
0.0615045
0.059542
0.0558157
0.0499313
0.0477003
0.179851
0.418814
0.181255
0.0152874
0.00789337
0.0126959
0.0330019
0.0417578
0.0368179
0.0288524
0.0245937
0.0224254
0.0227901
0.0330519
0.0661649
0.127278
0.0288003
0.0180783
0.0180328
0.027195
0.0404945
0.0546781
0.0615284
0.0617807
0.0608449
0.0590707
0.0513641
0.0418642
0.122075
0.397956
0.177428
0.0146105
0.0107548
0.0183568
0.107613
0.225835
0.237102
0.144974
0.0235914
0.0208313
0.0195463
0.0236669
0.0381754
0.0731707
0.0187102
0.0114808
0.0102486
0.0165586
0.029558
0.0524329
0.0639935
0.0636179
0.0630139
0.0647459
0.0619365
0.0476318
0.048409
0.357768
0.179439
0.0178119
0.0186697
0.0437586
0.635571
1.35966
1.30235
0.946126
0.192358
0.151269
0.0748225
0.0163935
0.0210805
0.0413564
0.0154098
0.0101638
0.00830988
0.0122497
0.0215042
0.0435497
0.0639332
0.0614572
0.0602297
0.065348
0.0689889
0.0535461
0.0334906
0.30641
0.166532
0.0206847
0.023252
0.0486296
0.877201
1.95596
1.7445
1.43543
0.969729
0.759628
0.386391
0.0165233
0.0114508
0.0246233
0.0144523
0.0118149
0.00849989
0.0120915
0.0218954
0.0384346
0.0679519
0.0599057
0.0582882
0.0629558
0.0709397
0.0632752
0.0411074
0.241894
0.168007
0.0201934
0.0285998
0.037817
0.732884
2.0086
1.79891
1.52201
1.28496
1.12543
0.614015
0.100951
0.0314447
0.0219345
0.0134462
0.0161239
0.0117794
0.0120925
0.0395226
0.0355424
0.0739539
0.0561467
0.0532966
0.055736
0.0673101
0.0682475
0.0458978
0.199669
0.142416
0.0159892
0.0472008
0.0406568
0.410054
1.96351
1.85812
1.63523
1.49566
1.38143
0.544013
0.279091
0.0795087
0.0457656
0.0229267
0.0332679
0.0161694
0.0178539
0.03916
0.0297631
0.0733105
0.0537559
0.050224
0.0493855
0.0598002
0.0696123
0.0481007
0.17768
0.142516
0.0155641
0.11135
0.0926532
0.260301
1.84602
1.91098
1.68501
1.57562
1.25216
0.635419
0.264105
0.136849
0.0552573
0.0504772
0.044474
0.0293467
0.0232298
0.0340171
0.025246
0.0717904
0.0517656
0.0472654
0.0459299
0.0508494
0.0673141
0.0500046
0.169631
0.106569
0.0188543
0.260497
0.169198
0.163793
1.65748
1.95793
1.75242
1.60176
1.03833
0.34047
0.184951
0.0976905
0.0599612
0.0573775
0.0506749
0.0424551
0.035278
0.0382473
0.0479593
0.0688745
0.0504657
0.0450671
0.0433349
0.046517
0.0619749
0.0517271
0.167569
0.101696
0.0299298
0.379101
0.160849
0.104034
1.52041
1.98165
1.80053
1.60235
0.894258
0.313319
0.138644
0.104596
0.0621106
0.070085
0.0510227
0.043611
0.0391692
0.0518996
0.0570378
0.0598076
0.0456716
0.0416079
0.0400446
0.0416895
0.0550112
0.0534078
0.163876
0.0716949
0.01071
0.196524
0.0617058
0.0902721
1.52955
1.98837
1.82661
1.59689
0.787132
0.216954
0.126373
0.0935852
0.0606367
0.07395
0.051206
0.0430621
0.0461393
0.0651759
0.0600742
0.0502042
0.0418412
0.0391296
0.0377555
0.0389208
0.0491511
0.0581283
0.15078
0.0591527
0.0391547
0.0336494
0.0253021
0.120618
1.57916
1.99319
1.83187
1.58034
0.697285
0.236997
0.116844
0.0862915
0.0498582
0.0770383
0.0439535
0.0291064
0.0367075
0.0535027
0.0508373
0.0469164
0.0377638
0.0351729
0.0345393
0.0357897
0.0422205
0.0651823
0.130985
0.053718
0.0860296
0.0136697
0.0271776
0.234341
1.6601
1.98967
1.83214
1.55231
0.597398
0.188848
0.0956443
0.0443238
0.0433958
0.0692335
0.0341247
0.0271603
0.0375863
0.0511747
0.0529858
0.0462581
0.0335045
0.0327208
0.0324215
0.0334172
0.0349338
0.0616542
0.125752
0.0448795
0.145687
0.0141222
0.0418281
0.426014
1.71332
1.97358
1.81763
1.46988
0.449919
0.110118
0.0458072
0.0264907
0.0315256
0.0234307
0.0241216
0.0305381
0.038789
0.0612553
0.0621417
0.0458605
0.0291109
0.0292861
0.0298306
0.0313212
0.0298252
0.044402
0.123872
0.0470551
0.196224
0.0190138
0.0746093
0.627852
1.76416
1.98118
1.84171
1.28288
0.233559
0.0350315
0.0301244
0.0159547
0.02976
0.0160532
0.0363197
0.0287825
0.0448518
0.0750282
0.112862
0.0488703
0.0270321
0.0275462
0.0285392
0.0299387
0.0271407
0.0362271
0.125567
0.048505
0.160197
0.0260239
0.11647
0.80994
1.82074
2.01194
1.841
0.946398
0.0442919
0.0266926
0.0322002
0.0244585
0.0328263
0.0260986
0.0371355
0.0366972
0.0569233
0.0825697
0.151349
0.037904
0.0233028
0.025289
0.0269518
0.0284368
0.0231948
0.0331183
0.125975
0.0463676
0.1315
0.0352027
0.176651
1.00125
1.93056
2.09671
1.74847
0.356949
0.0251169
0.0288051
0.0259104
0.0245981
0.0232893
0.0257753
0.0231663
0.018605
0.0146145
0.0143519
0.0152384
0.0183984
0.0219743
0.0245762
0.0263646
0.0276497
0.0179957
0.0309069
0.124287
0.0408253
0.163381
0.0423609
0.210775
1.15689
2.03413
2.19946
1.68304
0.240628
0.0117775
0.00935804
0.00931906
0.00904235
0.00710024
0.00719993
0.0072085
0.00731904
0.00836335
0.00958824
0.0123979
0.0192579
0.0226602
0.0241831
0.0254515
0.0264782
0.0123013
0.0289788
0.122131
0.042305
0.202605
0.0480823
0.220128
1.26103
2.12187
2.24731
1.42513
0.106696
0.00957818
0.00724827
0.00614141
0.00755499
0.00706864
0.00506071
0.00345314
0.00475283
0.00791397
0.0109008
0.0138484
0.018993
0.0221376
0.0229511
0.0241074
0.0250413
0.00956156
0.0263119
0.120855
0.0349465
0.190142
0.0533007
0.202292
1.27688
2.17782
2.33792
1.38373
0.0540848
0.00947623
0.00756408
0.00383711
0.00453045
0.0048589
0.00517517
0.00247968
0.00370165
0.00792836
0.0106508
0.0138623
0.0178459
0.0201771
0.0209888
0.0219167
0.0226529
0.00871585
0.0236459
0.121422
0.0320994
0.211651
0.0573032
0.141676
1.22055
2.28037
2.51824
1.37918
0.0204587
0.00891583
0.00598782
0.00295177
0.00316267
0.00283116
0.00356551
0.00344772
0.00367673
0.00682231
0.00935071
0.0118888
0.0150425
0.0171352
0.0175025
0.0182077
0.0189026
0.00847316
0.0190725
0.123393
0.0296261
0.130871
0.0571671
0.0955762
0.825894
2.19421
2.44695
1.06309
0.0182726
0.00861063
0.00485858
0.0028258
0.00268793
0.00242309
0.00229816
0.00292097
0.00374083
0.0046899
0.00649642
0.00846936
0.010169
0.0113735
0.0117796
0.0122519
0.0126355
0.00718683
0.0139217
0.125357
0.0281755
0.115661
0.0555843
0.0798222
0.287266
1.33876
1.40427
0.170671
0.0106932
0.00838731
0.00250722
0.00143137
0.001333
0.00150681
0.00140392
0.00244441
0.00341595
0.00180865
0.00271112
0.00346194
0.00404615
0.00424105
0.0045299
0.00470131
0.00478831
0.00585403
0.00697914
0.126432
0.0267249
0.0535503
0.0509068
0.0760692
0.122655
0.273739
0.194415
0.0262478
0.00894079
0.00618483
0.000410019
0.000373715
0.000409489
0.000382738
0.000339315
0.00153809
0.00192654
0.000396438
0.000540928
0.000632182
0.00069501
0.000691272
0.000722455
0.000740413
0.000754235
0.00216868
0.00153931
0.127594
0.0265229
0.0229115
0.0180865
0.0323501
0.0954238
0.108099
0.140123
0.195967
0.259383
0.316229
0.357039
0.364381
0.343994
0.319147
0.281354
0.242598
0.197
0.156388
0.122617
0.0973642
0.0766288
0.0604159
0.0501229
0.0461168
0.0436243
0.0433625
0.0472312
0.0478259
0.0392378
0.0196791
0.0105398
0.0505606
0.193437
0.214033
0.228259
0.294546
0.362223
0.398734
0.421058
0.429965
0.42372
0.399107
0.380048
0.343756
0.300291
0.253868
0.211506
0.175194
0.145611
0.121573
0.109933
0.10469
0.100332
0.110564
0.123294
0.155474
0.064255
0.0153053
0.00843155
0.0324498
0.0932115
0.109365
0.104511
0.125974
0.13336
0.132071
0.164758
0.281069
0.428164
0.436032
0.41137
0.37084
0.31971
0.278845
0.238211
0.199294
0.162449