/*--------------------------------*- C++ -*----------------------------------*\
| =========                 |                                                 |
| \\      /  F ield         | OpenFOAM: The Open Source CFD Toolbox           |
|  \\    /   O peration     | Version:  2.3.0                                 |
|   \\  /    A nd           | Web:      www.OpenFOAM.org                      |
|    \\/     M anipulation  |                                                 |
\*---------------------------------------------------------------------------*/
FoamFile
{
    version     2.0;
    format      ascii;
    class       volScalarField;
    location    "34";
    object      nut.air;
}
// * * * * * * * * * * * * * * * * * * * * * * * * * * * * * * * * * * * * * //

dimensions      [0 2 -1 0 0 0 0];

internalField   nonuniform List<scalar> 
1875
(
5.17766e-06
5.94903e-06
6.73798e-06
7.33035e-06
7.75798e-06
8.04413e-06
8.15435e-06
8.20751e-06
8.12181e-06
7.93385e-06
7.57985e-06
7.10964e-06
6.68102e-06
6.97285e-06
7.96339e-06
7.85571e-06
7.52375e-06
7.9451e-06
8.59442e-06
9.04096e-06
9.33172e-06
9.33581e-06
9.21374e-06
8.71871e-06
8.06314e-06
1.09454e-05
1.18311e-05
1.25569e-05
1.29617e-05
1.31444e-05
1.31424e-05
1.29532e-05
1.26091e-05
1.21736e-05
1.15644e-05
1.09446e-05
1.01539e-05
9.32549e-06
8.54501e-06
8.30521e-06
8.60797e-06
9.54184e-06
1.05165e-05
1.16716e-05
1.238e-05
1.29991e-05
1.3317e-05
1.32023e-05
1.25824e-05
1.14187e-05
1.33938e-05
1.44136e-05
1.51071e-05
1.54529e-05
1.55798e-05
1.55465e-05
1.53837e-05
1.50772e-05
1.46645e-05
1.40705e-05
1.32252e-05
1.21132e-05
1.09382e-05
9.84012e-06
9.36152e-06
9.64651e-06
1.06317e-05
1.19052e-05
1.33139e-05
1.45114e-05
1.53226e-05
1.57392e-05
1.59043e-05
1.54939e-05
1.43324e-05
1.49692e-05
1.63334e-05
1.69964e-05
1.71342e-05
1.69885e-05
1.67109e-05
1.64104e-05
1.60874e-05
1.56595e-05
1.50995e-05
1.43391e-05
1.333e-05
1.22939e-05
1.11514e-05
1.04552e-05
1.03514e-05
1.07783e-05
1.19832e-05
1.34861e-05
1.48598e-05
1.5848e-05
1.64919e-05
1.68183e-05
1.69255e-05
1.64161e-05
1.68682e-05
1.75568e-05
1.74097e-05
1.68857e-05
1.64022e-05
1.60904e-05
1.58705e-05
1.5654e-05
1.54097e-05
1.49804e-05
1.42954e-05
1.33754e-05
1.24131e-05
1.14505e-05
1.08605e-05
1.07078e-05
1.09506e-05
1.17316e-05
1.30416e-05
1.42174e-05
1.52276e-05
1.60946e-05
1.69375e-05
1.771e-05
1.79371e-05
1.80428e-05
1.80861e-05
1.74648e-05
1.65264e-05
1.56159e-05
1.50594e-05
1.47855e-05
1.4582e-05
1.43542e-05
1.40359e-05
1.35451e-05
1.30011e-05
1.24286e-05
1.18333e-05
1.13726e-05
1.12062e-05
1.13534e-05
1.174e-05
1.24622e-05
1.32565e-05
1.42149e-05
1.52226e-05
1.63854e-05
1.77349e-05
1.93681e-05
1.97014e-05
1.87941e-05
1.73445e-05
1.58788e-05
1.47412e-05
1.41167e-05
1.38707e-05
1.36286e-05
1.35391e-05
1.3415e-05
1.31589e-05
1.2892e-05
1.2567e-05
1.22608e-05
1.20881e-05
1.19511e-05
1.19015e-05
1.19846e-05
1.23002e-05
1.26825e-05
1.32844e-05
1.41865e-05
1.5548e-05
1.71643e-05
1.94092e-05
2.0486e-05
1.89044e-05
1.71066e-05
1.53568e-05
1.40477e-05
1.34356e-05
1.31859e-05
1.30424e-05
1.30492e-05
1.30647e-05
1.30313e-05
1.29925e-05
1.29337e-05
1.28218e-05
1.27123e-05
1.26076e-05
1.25307e-05
1.24698e-05
1.24709e-05
1.25965e-05
1.29424e-05
1.35927e-05
1.4687e-05
1.60753e-05
1.78572e-05
2.05064e-05
1.88711e-05
1.70446e-05
1.52147e-05
1.37955e-05
1.3127e-05
1.28724e-05
1.27791e-05
1.28432e-05
1.29189e-05
1.29653e-05
1.29724e-05
1.29597e-05
1.29013e-05
1.28195e-05
1.27293e-05
1.26359e-05
1.2555e-05
1.25091e-05
1.25714e-05
1.27491e-05
1.32342e-05
1.40823e-05
1.51247e-05
1.63087e-05
2.02715e-05
1.89279e-05
1.73019e-05
1.56118e-05
1.42119e-05
1.33611e-05
1.30032e-05
1.28747e-05
1.28127e-05
1.28083e-05
1.28088e-05
1.27877e-05
1.27643e-05
1.27242e-05
1.26784e-05
1.26199e-05
1.25657e-05
1.25242e-05
1.25079e-05
1.2559e-05
1.2743e-05
1.31468e-05
1.37692e-05
1.44719e-05
1.51955e-05
2.06331e-05
1.93142e-05
1.78067e-05
1.62496e-05
1.48874e-05
1.39531e-05
1.34466e-05
1.31944e-05
1.30061e-05
1.28584e-05
1.27055e-05
1.25647e-05
1.24524e-05
1.23712e-05
1.23248e-05
1.2325e-05
1.23507e-05
1.24149e-05
1.25026e-05
1.26232e-05
1.2811e-05
1.31793e-05
1.36309e-05
1.40439e-05
1.44438e-05
2.10391e-05
1.97437e-05
1.833e-05
1.69113e-05
1.56375e-05
1.47082e-05
1.41219e-05
1.37125e-05
1.33373e-05
1.29302e-05
1.25555e-05
1.22642e-05
1.20784e-05
1.20084e-05
1.2037e-05
1.21328e-05
1.22792e-05
1.24395e-05
1.25749e-05
1.27243e-05
1.29594e-05
1.32851e-05
1.35127e-05
1.36339e-05
1.36538e-05
2.13782e-05
2.00922e-05
1.87321e-05
1.74174e-05
1.62421e-05
1.53295e-05
1.4659e-05
1.40777e-05
1.34855e-05
1.28924e-05
1.23767e-05
1.20306e-05
1.18943e-05
1.1899e-05
1.20259e-05
1.22149e-05
1.23933e-05
1.25366e-05
1.2707e-05
1.294e-05
1.31827e-05
1.33371e-05
1.33946e-05
1.32637e-05
1.3098e-05
2.14949e-05
2.01982e-05
1.88675e-05
1.7609e-05
1.64792e-05
1.55389e-05
1.47571e-05
1.40313e-05
1.33101e-05
1.26438e-05
1.21629e-05
1.19575e-05
1.19184e-05
1.20093e-05
1.21697e-05
1.23342e-05
1.24822e-05
1.2714e-05
1.30056e-05
1.33192e-05
1.35359e-05
1.36266e-05
1.35788e-05
1.33566e-05
1.29537e-05
2.1087e-05
1.99381e-05
1.87045e-05
1.74915e-05
1.63662e-05
1.53925e-05
1.45344e-05
1.37091e-05
1.293e-05
1.2322e-05
1.20478e-05
1.19407e-05
1.19981e-05
1.21566e-05
1.23604e-05
1.26527e-05
1.31107e-05
1.36601e-05
1.43133e-05
1.47703e-05
1.50569e-05
1.52174e-05
1.50659e-05
1.45612e-05
1.38794e-05
2.0343e-05
1.9383e-05
1.82815e-05
1.71469e-05
1.60445e-05
1.49898e-05
1.4019e-05
1.31586e-05
1.24583e-05
1.21215e-05
1.19723e-05
1.20339e-05
1.22831e-05
1.26645e-05
1.31815e-05
1.38877e-05
1.48302e-05
1.57313e-05
1.64547e-05
1.69749e-05
1.72435e-05
1.72352e-05
1.68379e-05
1.59455e-05
1.4703e-05
1.93825e-05
1.86024e-05
1.76158e-05
1.65286e-05
1.54096e-05
1.43459e-05
1.34221e-05
1.26641e-05
1.22465e-05
1.20885e-05
1.21898e-05
1.25349e-05
1.30405e-05
1.36667e-05
1.44886e-05
1.54929e-05
1.65056e-05
1.74182e-05
1.81594e-05
1.86839e-05
1.895e-05
1.89403e-05
1.84992e-05
1.73784e-05
1.57003e-05
1.83869e-05
1.77687e-05
1.68966e-05
1.58658e-05
1.47874e-05
1.38022e-05
1.30176e-05
1.24912e-05
1.22823e-05
1.23264e-05
1.26542e-05
1.31661e-05
1.37834e-05
1.44939e-05
1.52638e-05
1.61995e-05
1.72317e-05
1.82588e-05
1.90975e-05
1.97351e-05
2.01945e-05
2.03923e-05
2.03112e-05
1.97228e-05
1.81058e-05
1.74521e-05
1.69629e-05
1.62149e-05
1.52913e-05
1.4331e-05
1.34974e-05
1.28817e-05
1.25328e-05
1.24589e-05
1.26567e-05
1.30511e-05
1.35481e-05
1.40692e-05
1.46833e-05
1.54847e-05
1.63847e-05
1.72898e-05
1.81665e-05
1.89762e-05
1.96691e-05
2.02146e-05
2.06251e-05
2.08858e-05
2.08249e-05
2.03356e-05
1.69057e-05
1.6385e-05
1.57025e-05
1.48981e-05
1.40933e-05
1.3437e-05
1.29672e-05
1.27223e-05
1.27168e-05
1.29267e-05
1.32905e-05
1.37507e-05
1.42489e-05
1.478e-05
1.54051e-05
1.60422e-05
1.67493e-05
1.7477e-05
1.82324e-05
1.90047e-05
1.97762e-05
2.04958e-05
2.10796e-05
2.14149e-05
2.10876e-05
1.63107e-05
1.59068e-05
1.53357e-05
1.46604e-05
1.40221e-05
1.34993e-05
1.31428e-05
1.29826e-05
1.30073e-05
1.31913e-05
1.35126e-05
1.39136e-05
1.43203e-05
1.47232e-05
1.51868e-05
1.56496e-05
1.61679e-05
1.67609e-05
1.7406e-05
1.81244e-05
1.89788e-05
1.98993e-05
2.07517e-05
2.14608e-05
2.19277e-05
1.58474e-05
1.55371e-05
1.5128e-05
1.45942e-05
1.40601e-05
1.36556e-05
1.34092e-05
1.32961e-05
1.33308e-05
1.34746e-05
1.37409e-05
1.40621e-05
1.43992e-05
1.47156e-05
1.50438e-05
1.54114e-05
1.57784e-05
1.62493e-05
1.68163e-05
1.75083e-05
1.83552e-05
1.93001e-05
2.01819e-05
2.09068e-05
2.12683e-05
1.58541e-05
1.54477e-05
1.50873e-05
1.46293e-05
1.41896e-05
1.3873e-05
1.3683e-05
1.36016e-05
1.36386e-05
1.37552e-05
1.39507e-05
1.4211e-05
1.44879e-05
1.47562e-05
1.50071e-05
1.52726e-05
1.55806e-05
1.59595e-05
1.6461e-05
1.71077e-05
1.79222e-05
1.87912e-05
1.96024e-05
2.02222e-05
2.05127e-05
1.59366e-05
1.55741e-05
1.52207e-05
1.48747e-05
1.44669e-05
1.41857e-05
1.40146e-05
1.39322e-05
1.39336e-05
1.40204e-05
1.41676e-05
1.43499e-05
1.45786e-05
1.48049e-05
1.50298e-05
1.52599e-05
1.55133e-05
1.58224e-05
1.62553e-05
1.68564e-05
1.76055e-05
1.84143e-05
1.9161e-05
1.97282e-05
2.00092e-05
1.5911e-05
1.57375e-05
1.55756e-05
1.53006e-05
1.49827e-05
1.46619e-05
1.44335e-05
1.43062e-05
1.42749e-05
1.4314e-05
1.44008e-05
1.45489e-05
1.47022e-05
1.49068e-05
1.50969e-05
1.5286e-05
1.55032e-05
1.5796e-05
1.61829e-05
1.67104e-05
1.7387e-05
1.81481e-05
1.88636e-05
1.94282e-05
1.97584e-05
1.5615e-05
1.58629e-05
1.59452e-05
1.58359e-05
1.56676e-05
1.54044e-05
1.51355e-05
1.49233e-05
1.47863e-05
1.47639e-05
1.47996e-05
1.48666e-05
1.4985e-05
1.51232e-05
1.52907e-05
1.54655e-05
1.56477e-05
1.58809e-05
1.62118e-05
1.66834e-05
1.72981e-05
1.80043e-05
1.86984e-05
1.92844e-05
1.97054e-05
1.54165e-05
1.60608e-05
1.64137e-05
1.65928e-05
1.6563e-05
1.64413e-05
1.62183e-05
1.59345e-05
1.56943e-05
1.54829e-05
1.53887e-05
1.54014e-05
1.54542e-05
1.55327e-05
1.56556e-05
1.57795e-05
1.59334e-05
1.61468e-05
1.63978e-05
1.67765e-05
1.73162e-05
1.79722e-05
1.86452e-05
1.9254e-05
1.97847e-05
1.55933e-05
1.65466e-05
1.72416e-05
1.76853e-05
1.7893e-05
1.78697e-05
1.77257e-05
1.74656e-05
1.70848e-05
1.67508e-05
1.64771e-05
1.62894e-05
1.62096e-05
1.62002e-05
1.62375e-05
1.63033e-05
1.63951e-05
1.64858e-05
1.66616e-05
1.69541e-05
1.74072e-05
1.79994e-05
1.86501e-05
1.92765e-05
1.98916e-05
1.63324e-05
1.74265e-05
1.84705e-05
1.91761e-05
1.95839e-05
1.97345e-05
1.96067e-05
1.93539e-05
1.89767e-05
1.8456e-05
1.79655e-05
1.75591e-05
1.72609e-05
1.70803e-05
1.69844e-05
1.69431e-05
1.69449e-05
1.69914e-05
1.70753e-05
1.72626e-05
1.76067e-05
1.81093e-05
1.86834e-05
1.92253e-05
1.96498e-05
1.71818e-05
1.88601e-05
2.02288e-05
2.11242e-05
2.16383e-05
2.18151e-05
2.17219e-05
2.14203e-05
2.09125e-05
2.02941e-05
1.96715e-05
1.89846e-05
1.845e-05
1.80603e-05
1.78051e-05
1.76448e-05
1.7546e-05
1.75075e-05
1.75327e-05
1.76334e-05
1.78674e-05
1.82567e-05
1.87052e-05
1.90876e-05
1.92433e-05
1.86598e-05
2.08397e-05
2.24189e-05
2.33189e-05
2.37408e-05
2.38075e-05
2.36005e-05
2.32034e-05
2.25904e-05
2.18375e-05
2.10063e-05
2.0229e-05
1.9533e-05
1.8978e-05
1.85687e-05
1.82968e-05
1.81122e-05
1.79982e-05
1.79593e-05
1.79978e-05
1.81401e-05
1.84116e-05
1.87169e-05
1.89302e-05
1.88962e-05
2.18691e-05
2.40061e-05
2.50464e-05
2.54335e-05
2.54398e-05
2.52017e-05
2.48063e-05
2.42473e-05
2.35514e-05
2.27288e-05
2.18068e-05
2.09412e-05
2.01867e-05
1.95926e-05
1.91572e-05
1.88307e-05
1.86008e-05
1.84345e-05
1.83444e-05
1.83328e-05
1.84006e-05
1.85679e-05
1.87668e-05
1.89204e-05
1.89087e-05
2.51264e-05
2.59988e-05
2.63198e-05
2.63035e-05
2.60463e-05
2.56278e-05
2.50918e-05
2.44478e-05
2.3692e-05
2.2835e-05
2.19374e-05
2.11141e-05
2.03877e-05
1.97816e-05
1.93394e-05
1.90615e-05
1.88864e-05
1.87471e-05
1.86604e-05
1.86227e-05
1.86404e-05
1.87298e-05
1.88315e-05
1.8873e-05
1.8746e-05
2.64447e-05
2.696e-05
2.69591e-05
2.66528e-05
2.6149e-05
2.55351e-05
2.48452e-05
2.4101e-05
2.33033e-05
2.2479e-05
2.16732e-05
2.0956e-05
2.03565e-05
1.98756e-05
1.95169e-05
1.92754e-05
1.9125e-05
1.90084e-05
1.89334e-05
1.88822e-05
1.88641e-05
1.88923e-05
1.89143e-05
1.88647e-05
1.86809e-05
2.68555e-05
2.70217e-05
2.68787e-05
2.64354e-05
2.57992e-05
2.50492e-05
2.42423e-05
2.34145e-05
2.26098e-05
2.18621e-05
2.12009e-05
2.06408e-05
2.02027e-05
1.98606e-05
1.9617e-05
1.94625e-05
1.93519e-05
1.92538e-05
1.91854e-05
1.91203e-05
1.90771e-05
1.90637e-05
1.9044e-05
1.89963e-05
1.89438e-05
2.65939e-05
2.67951e-05
2.65903e-05
2.60731e-05
2.53214e-05
2.44602e-05
2.35764e-05
2.27371e-05
2.19967e-05
2.13578e-05
2.08187e-05
2.04037e-05
2.01144e-05
1.9888e-05
1.97457e-05
1.96541e-05
1.95623e-05
1.94977e-05
1.94276e-05
1.93549e-05
1.92968e-05
1.9259e-05
1.92337e-05
1.92258e-05
1.92187e-05
2.64226e-05
2.65534e-05
2.6288e-05
2.56902e-05
2.48686e-05
2.39654e-05
2.30697e-05
2.22597e-05
2.15835e-05
2.1029e-05
2.06023e-05
2.03121e-05
2.0116e-05
1.99892e-05
1.9914e-05
1.98458e-05
1.97942e-05
1.9742e-05
1.96746e-05
1.96055e-05
1.95422e-05
1.94841e-05
1.94378e-05
1.93673e-05
1.9268e-05
2.64542e-05
2.63829e-05
2.60014e-05
2.53503e-05
2.45104e-05
2.36086e-05
2.27392e-05
2.19656e-05
2.13415e-05
2.08705e-05
2.05458e-05
2.03382e-05
2.02138e-05
2.01463e-05
2.00939e-05
2.006e-05
2.00253e-05
1.99829e-05
1.99229e-05
1.98533e-05
1.97723e-05
1.96945e-05
1.95928e-05
1.94417e-05
1.92344e-05
2.65243e-05
2.62589e-05
2.57743e-05
2.50908e-05
2.42589e-05
2.33878e-05
2.25661e-05
2.18303e-05
2.12531e-05
2.08398e-05
2.0579e-05
2.04344e-05
2.03553e-05
2.03113e-05
2.029e-05
2.02639e-05
2.02327e-05
2.01861e-05
2.01157e-05
2.00211e-05
1.9888e-05
1.97373e-05
1.9518e-05
1.91977e-05
1.87051e-05
2.66269e-05
2.61769e-05
2.5611e-05
2.49039e-05
2.40853e-05
2.3239e-05
2.24403e-05
2.17546e-05
2.12407e-05
2.09031e-05
2.06896e-05
2.05646e-05
2.05071e-05
2.04804e-05
2.04488e-05
2.04119e-05
2.03594e-05
2.02836e-05
2.01716e-05
2.00085e-05
1.98001e-05
1.95232e-05
1.91372e-05
1.85894e-05
1.7785e-05
2.67611e-05
2.61456e-05
2.55061e-05
2.47834e-05
2.39842e-05
2.31752e-05
2.24255e-05
2.17972e-05
2.13244e-05
2.10047e-05
2.08141e-05
2.07097e-05
2.06483e-05
2.06064e-05
2.05507e-05
2.04808e-05
2.03868e-05
2.0256e-05
2.00721e-05
1.9831e-05
1.95161e-05
1.90974e-05
1.85416e-05
1.77823e-05
1.67241e-05
2.68746e-05
2.61434e-05
2.5451e-05
2.4726e-05
2.39537e-05
2.31846e-05
2.24784e-05
2.18888e-05
2.14446e-05
2.11528e-05
2.09743e-05
2.0857e-05
2.07741e-05
2.07049e-05
2.06197e-05
2.05117e-05
2.03713e-05
2.01847e-05
1.99375e-05
1.9629e-05
1.92347e-05
1.87251e-05
1.80736e-05
1.71975e-05
1.60674e-05
2.65968e-05
2.60179e-05
2.5388e-05
2.47049e-05
2.39755e-05
2.3251e-05
2.25873e-05
2.20317e-05
2.16138e-05
2.13355e-05
2.11576e-05
2.10268e-05
2.09206e-05
2.08288e-05
2.07248e-05
2.05986e-05
2.04398e-05
2.02358e-05
1.9984e-05
1.96719e-05
1.92644e-05
1.87236e-05
1.7997e-05
1.69982e-05
1.57555e-05
2.60594e-05
2.57669e-05
2.52895e-05
2.46947e-05
2.40328e-05
2.33628e-05
2.27425e-05
2.22191e-05
2.18236e-05
2.15555e-05
2.13755e-05
2.12401e-05
2.11267e-05
2.10336e-05
2.09374e-05
2.08276e-05
2.06952e-05
2.05312e-05
2.03373e-05
2.00745e-05
1.96991e-05
1.91656e-05
1.83951e-05
1.73134e-05
1.59771e-05
2.56231e-05
2.55008e-05
2.51747e-05
2.46967e-05
2.41174e-05
2.35111e-05
2.29389e-05
2.2451e-05
2.20771e-05
2.182e-05
2.16447e-05
2.15179e-05
2.14188e-05
2.1348e-05
2.12891e-05
2.12304e-05
2.11659e-05
2.10917e-05
2.09958e-05
2.08509e-05
2.05703e-05
2.00799e-05
1.9298e-05
1.81613e-05
1.67717e-05
2.54218e-05
2.53713e-05
2.51257e-05
2.4736e-05
2.42383e-05
2.36999e-05
2.31812e-05
2.27284e-05
2.23772e-05
2.21353e-05
2.19734e-05
2.18644e-05
2.17945e-05
2.17605e-05
2.17522e-05
2.17633e-05
2.17858e-05
2.18133e-05
2.18357e-05
2.18189e-05
2.16534e-05
2.1246e-05
2.04964e-05
1.93441e-05
1.79577e-05
2.54784e-05
2.53568e-05
2.51482e-05
2.48262e-05
2.43977e-05
2.39242e-05
2.34584e-05
2.30469e-05
2.27231e-05
2.25015e-05
2.236e-05
2.22753e-05
2.22376e-05
2.22435e-05
2.22884e-05
2.23666e-05
2.24709e-05
2.25954e-05
2.27285e-05
2.28287e-05
2.27755e-05
2.24558e-05
2.17706e-05
2.06515e-05
1.92782e-05
2.53197e-05
2.53543e-05
2.52346e-05
2.49774e-05
2.46123e-05
2.41984e-05
2.37837e-05
2.34119e-05
2.31152e-05
2.29161e-05
2.27989e-05
2.27423e-05
2.27377e-05
2.27821e-05
2.28709e-05
2.30065e-05
2.31788e-05
2.33869e-05
2.36211e-05
2.38306e-05
2.39087e-05
2.37174e-05
2.31422e-05
2.2176e-05
2.09509e-05
2.53946e-05
2.5465e-05
2.53836e-05
2.51784e-05
2.48713e-05
2.45138e-05
2.41488e-05
2.38167e-05
2.35513e-05
2.33757e-05
2.32843e-05
2.32586e-05
2.3288e-05
2.33698e-05
2.34946e-05
2.36768e-05
2.39019e-05
2.41785e-05
2.44927e-05
2.47872e-05
2.49796e-05
2.49361e-05
2.45303e-05
2.37929e-05
2.28153e-05
2.5859e-05
2.57262e-05
2.56181e-05
2.5443e-05
2.51832e-05
2.48756e-05
2.4558e-05
2.42661e-05
2.40317e-05
2.38782e-05
2.38114e-05
2.38164e-05
2.38869e-05
2.40058e-05
2.41651e-05
2.43874e-05
2.4658e-05
2.49887e-05
2.53586e-05
2.57129e-05
2.59829e-05
2.60563e-05
2.58071e-05
2.53431e-05
2.46313e-05
2.61402e-05
2.60816e-05
2.5965e-05
2.57954e-05
2.55634e-05
2.52934e-05
2.50157e-05
2.47616e-05
2.45583e-05
2.44313e-05
2.43926e-05
2.44373e-05
2.45406e-05
2.46918e-05
2.48917e-05
2.51505e-05
2.5465e-05
2.58396e-05
2.62449e-05
2.66335e-05
2.69461e-05
2.70983e-05
2.69783e-05
2.66983e-05
2.62531e-05
2.64657e-05
2.64468e-05
2.63611e-05
2.62176e-05
2.60139e-05
2.57767e-05
2.55341e-05
2.5315e-05
2.51449e-05
2.50476e-05
2.50386e-05
2.51146e-05
2.52411e-05
2.54194e-05
2.56676e-05
2.59741e-05
2.63385e-05
2.67549e-05
2.71904e-05
2.76034e-05
2.7939e-05
2.81322e-05
2.80807e-05
2.78565e-05
2.7429e-05
2.6862e-05
2.68696e-05
2.68167e-05
2.67061e-05
2.65345e-05
2.633e-05
2.61209e-05
2.59349e-05
2.57968e-05
2.57283e-05
2.57401e-05
2.58219e-05
2.59919e-05
2.62231e-05
2.65214e-05
2.68805e-05
2.73012e-05
2.77649e-05
2.82387e-05
2.86805e-05
2.90398e-05
2.92603e-05
2.92558e-05
2.90694e-05
2.86707e-05
2.73281e-05
2.73711e-05
2.73516e-05
2.72743e-05
2.71349e-05
2.69624e-05
2.67857e-05
2.66316e-05
2.65246e-05
2.64846e-05
2.65259e-05
2.66461e-05
2.68623e-05
2.71446e-05
2.7496e-05
2.79179e-05
2.83996e-05
2.89167e-05
2.94362e-05
2.99156e-05
3.03061e-05
3.05541e-05
3.05888e-05
3.04374e-05
3.00583e-05
2.78725e-05
2.7972e-05
2.79887e-05
2.79433e-05
2.78348e-05
2.76941e-05
2.75505e-05
2.74311e-05
2.73602e-05
2.73589e-05
2.74435e-05
2.76243e-05
2.78846e-05
2.82238e-05
2.86422e-05
2.91345e-05
2.9683e-05
3.02607e-05
3.08331e-05
3.13583e-05
3.17875e-05
3.20689e-05
3.21428e-05
3.20267e-05
3.1677e-05
2.88204e-05
2.88138e-05
2.88026e-05
2.87641e-05
2.86777e-05
2.85671e-05
2.8459e-05
2.83793e-05
2.83523e-05
2.8399e-05
2.85363e-05
2.8772e-05
2.90918e-05
2.95133e-05
3.00074e-05
3.05757e-05
3.11977e-05
3.18441e-05
3.24785e-05
3.30579e-05
3.35329e-05
3.38542e-05
3.39691e-05
3.38909e-05
3.35696e-05
2.94325e-05
2.95976e-05
2.96923e-05
2.97192e-05
2.96872e-05
2.96262e-05
2.95662e-05
2.95356e-05
2.95598e-05
2.96611e-05
2.98584e-05
3.0159e-05
3.05592e-05
3.105e-05
3.1639e-05
3.22981e-05
3.30043e-05
3.37277e-05
3.44306e-05
3.50706e-05
3.55976e-05
3.59651e-05
3.61249e-05
3.60867e-05
3.58014e-05
3.00878e-05
3.05369e-05
3.07913e-05
3.0934e-05
3.09754e-05
3.09723e-05
3.09684e-05
3.09947e-05
3.10788e-05
3.12456e-05
3.15121e-05
3.18896e-05
3.23811e-05
3.29661e-05
3.36469e-05
3.4392e-05
3.5182e-05
3.59833e-05
3.67566e-05
3.74593e-05
3.80419e-05
3.84594e-05
3.86658e-05
3.867e-05
3.84173e-05
3.20631e-05
3.22688e-05
3.24654e-05
3.26131e-05
3.26932e-05
3.27391e-05
3.27928e-05
3.28831e-05
3.30369e-05
3.32784e-05
3.36243e-05
3.40841e-05
3.46525e-05
3.53424e-05
3.61115e-05
3.69433e-05
3.78127e-05
3.86871e-05
3.95275e-05
4.02914e-05
4.09307e-05
4.14018e-05
4.16594e-05
4.17093e-05
4.14959e-05
3.40785e-05
3.43466e-05
3.4586e-05
3.47652e-05
3.49119e-05
3.50428e-05
3.51737e-05
3.53398e-05
3.55709e-05
3.58912e-05
3.63166e-05
3.68562e-05
3.75096e-05
3.82567e-05
3.91008e-05
4.00217e-05
4.09648e-05
4.19048e-05
4.28058e-05
4.36276e-05
4.43238e-05
4.48525e-05
4.51695e-05
4.52773e-05
4.51112e-05
3.60558e-05
3.67427e-05
3.7203e-05
3.75489e-05
3.78029e-05
3.80255e-05
3.82496e-05
3.85078e-05
3.8827e-05
3.92292e-05
3.97301e-05
4.03393e-05
4.10612e-05
4.18741e-05
4.27704e-05
4.37268e-05
4.47133e-05
4.56964e-05
4.66422e-05
4.75131e-05
4.82664e-05
4.88629e-05
4.92597e-05
4.94539e-05
4.93733e-05
3.96687e-05
4.02847e-05
4.08084e-05
4.12341e-05
4.15784e-05
4.18844e-05
4.2198e-05
4.25452e-05
4.29487e-05
4.3427e-05
4.39931e-05
4.46531e-05
4.5402e-05
4.62509e-05
4.71624e-05
4.81152e-05
4.90995e-05
5.00872e-05
5.10487e-05
5.19515e-05
5.27594e-05
5.3439e-05
5.39524e-05
5.42926e-05
5.43729e-05
4.41657e-05
4.48369e-05
4.5423e-05
4.59004e-05
4.63154e-05
4.67097e-05
4.71027e-05
4.75245e-05
4.79945e-05
4.85255e-05
4.91251e-05
4.9796e-05
5.05352e-05
5.13422e-05
5.22101e-05
5.31229e-05
5.40644e-05
5.50098e-05
5.5944e-05
5.68493e-05
5.77028e-05
5.84855e-05
5.91718e-05
5.9752e-05
6.01178e-05
4.97948e-05
5.04412e-05
5.09909e-05
5.14731e-05
5.19175e-05
5.23674e-05
5.28318e-05
5.33259e-05
5.38555e-05
5.44245e-05
5.50345e-05
5.56867e-05
5.6381e-05
5.71034e-05
5.78631e-05
5.86501e-05
5.94568e-05
6.02748e-05
6.11038e-05
6.19463e-05
6.28073e-05
6.37003e-05
6.46327e-05
6.56061e-05
6.64526e-05
5.69655e-05
5.70487e-05
5.7245e-05
5.75772e-05
5.80001e-05
5.84883e-05
5.90302e-05
5.96034e-05
6.01951e-05
6.07972e-05
6.1405e-05
6.20146e-05
6.26222e-05
6.32211e-05
6.38072e-05
6.4381e-05
6.49453e-05
6.55117e-05
6.60956e-05
6.67293e-05
6.74671e-05
6.83986e-05
6.96434e-05
7.13434e-05
7.33938e-05
6.46722e-05
6.31693e-05
6.27248e-05
6.29216e-05
6.34482e-05
6.4129e-05
6.48662e-05
6.56001e-05
6.63041e-05
6.69664e-05
6.75822e-05
6.81468e-05
6.86566e-05
6.91066e-05
6.94879e-05
6.97965e-05
7.00347e-05
7.02079e-05
7.03365e-05
7.04674e-05
7.06939e-05
7.11928e-05
7.22818e-05
7.45031e-05
7.8378e-05
6.56305e-05
6.42013e-05
6.47042e-05
6.59031e-05
6.72738e-05
6.85789e-05
6.97435e-05
7.07647e-05
7.16514e-05
7.24156e-05
7.3066e-05
7.36074e-05
7.40392e-05
7.43561e-05
7.45456e-05
7.45928e-05
7.44816e-05
7.419e-05
7.36966e-05
7.29906e-05
7.20869e-05
7.10705e-05
7.01917e-05
7.01433e-05
7.26081e-05
4.84742e-05
5.81807e-05
6.40429e-05
6.77893e-05
7.05108e-05
7.25321e-05
7.40939e-05
7.53372e-05
7.6345e-05
7.71694e-05
7.78398e-05
7.83676e-05
7.87536e-05
7.89881e-05
7.90581e-05
7.89383e-05
7.85906e-05
7.79631e-05
7.69707e-05
7.54871e-05
7.33117e-05
7.01122e-05
6.53118e-05
5.78763e-05
4.72578e-05
8.38002e-05
7.98867e-05
7.94717e-05
7.98702e-05
8.05507e-05
8.13832e-05
8.22973e-05
8.32028e-05
8.40412e-05
8.47772e-05
8.53936e-05
8.58794e-05
8.62236e-05
8.64123e-05
8.64289e-05
8.62498e-05
8.58437e-05
8.51783e-05
8.42154e-05
8.29263e-05
8.1325e-05
7.95302e-05
7.7798e-05
7.65019e-05
7.71568e-05
0.000173549
0.000118942
0.000101673
9.30522e-05
8.96784e-05
8.85432e-05
8.8844e-05
8.95363e-05
9.03004e-05
9.10144e-05
9.16276e-05
9.21255e-05
9.24938e-05
9.27024e-05
9.27305e-05
9.25472e-05
9.21089e-05
9.13983e-05
9.04448e-05
8.93624e-05
8.86857e-05
8.97014e-05
9.53985e-05
0.000111844
0.000168825
0.000707722
0.000237842
0.000145327
0.00011158
9.92268e-05
9.5928e-05
9.62069e-05
9.70521e-05
9.79236e-05
9.87612e-05
9.93986e-05
9.99416e-05
0.000100256
0.000100211
9.98825e-05
9.90963e-05
9.76194e-05
9.56536e-05
9.36017e-05
9.18361e-05
9.12732e-05
9.54313e-05
0.00011185
0.000181125
0.000562066
0.000532265
0.000230881
0.000138326
0.00011353
9.93286e-05
9.03432e-05
8.34393e-05
8.06571e-05
7.98765e-05
8.04022e-05
8.14821e-05
8.33944e-05
8.55797e-05
8.84195e-05
9.14556e-05
9.48259e-05
9.95773e-05
0.000101645
0.000101393
0.00010006
9.6936e-05
9.73151e-05
0.000121315
0.000266053
0.000827387
0.000325462
0.000164459
0.000102596
6.70436e-05
4.6302e-05
2.75587e-05
1.84232e-05
1.44008e-05
1.28918e-05
1.37033e-05
1.52513e-05
1.74191e-05
2.01134e-05
2.49595e-05
2.80115e-05
3.42283e-05
4.00965e-05
5.11776e-05
6.49298e-05
7.85171e-05
9.44415e-05
9.80675e-05
0.000115715
0.000196396
0.000358687
0.000178318
0.000120881
4.88e-05
2.27456e-05
8.3923e-06
1.33046e-06
1.45966e-07
7.97552e-08
6.25964e-08
6.65224e-08
7.71114e-08
9.65411e-08
1.30056e-07
4.38086e-07
9.97854e-07
2.44575e-06
4.95286e-06
9.11269e-06
1.79229e-05
2.83911e-05
4.39367e-05
7.47594e-05
9.74547e-05
0.000157205
0.000213465
7.72283e-05
5.47034e-05
1.87965e-05
3.86397e-06
1.31538e-07
2.11819e-08
1.7742e-08
1.58534e-08
1.47905e-08
1.43346e-08
1.42663e-08
1.43955e-08
1.44909e-08
1.43518e-08
1.46406e-08
1.60649e-08
3.90477e-08
4.22751e-07
2.08877e-06
5.77566e-06
1.36571e-05
3.23119e-05
5.93019e-05
9.28546e-05
9.02424e-05
)
;

boundaryField
{
    inlet
    {
        type            calculated;
        value           nonuniform List<scalar> 
25
(
2.01902e-08
2.01902e-08
2.019e-08
2.01898e-08
2.01894e-08
2.0189e-08
2.01885e-08
2.01882e-08
2.0188e-08
2.01879e-08
2.01882e-08
2.01886e-08
2.0189e-08
2.01895e-08
2.01897e-08
2.01896e-08
2.01891e-08
2.01887e-08
2.01883e-08
2.01884e-08
2.01888e-08
2.01894e-08
2.01901e-08
2.01906e-08
2.01906e-08
)
;
    }
    outlet
    {
        type            calculated;
        value           nonuniform List<scalar> 
25
(
7.72427e-05
5.47272e-05
1.88075e-05
3.86466e-06
1.88546e-08
1.88546e-08
1.88546e-08
1.88546e-08
1.88546e-08
1.88546e-08
1.88546e-08
1.88546e-08
1.88546e-08
1.88546e-08
1.88546e-08
1.88546e-08
1.88546e-08
1.88546e-08
2.0888e-06
5.77562e-06
1.36548e-05
3.22967e-05
5.92797e-05
9.28367e-05
9.0236e-05
)
;
    }
    walls
    {
        type            nutkWallFunction;
        Cmu             0.09;
        kappa           0.41;
        E               9.8;
        value           uniform 1e-08;
    }
    defaultFaces
    {
        type            empty;
    }
}


// ************************************************************************* //
