/*--------------------------------*- C++ -*----------------------------------*\
| =========                 |                                                 |
| \\      /  F ield         | OpenFOAM: The Open Source CFD Toolbox           |
|  \\    /   O peration     | Version:  2.3.0                                 |
|   \\  /    A nd           | Web:      www.OpenFOAM.org                      |
|    \\/     M anipulation  |                                                 |
\*---------------------------------------------------------------------------*/
FoamFile
{
    version     2.0;
    format      ascii;
    class       volScalarField;
    location    "34";
    object      rhom;
}
// * * * * * * * * * * * * * * * * * * * * * * * * * * * * * * * * * * * * * //

dimensions      [1 -3 0 0 0 0 0];

internalField   nonuniform List<scalar> 
1875
(
887.758
889.718
890.536
889.914
888.883
887.337
885.219
882.49
880.554
879.376
878.761
885.023
897.473
891.303
876.868
876.772
884.521
875.069
870.12
875.583
881.901
888.325
891.633
891.068
884.383
911.577
916.604
922.764
924.999
924.929
923.896
921.286
916.342
908.538
900.129
892.446
888.627
897.598
918.088
918.428
918.088
897.988
885.119
896.473
917.643
933.916
943.778
947.514
947.356
942.3
926.855
933.036
938.215
938.442
937.651
935.961
933.836
931.592
928.319
920.125
907.486
893.904
896.072
914.251
918.088
918.418
895.966
885.137
912.474
938.182
951.358
957.293
960.443
961.533
960.265
943.662
943.342
944.092
943.748
942.865
940.965
937.888
934.089
929.006
923.207
914.396
898.454
894.474
908.663
919.001
918.088
899.798
885.151
904.54
931.46
946.659
954.088
958.773
963.517
965.61
950.307
944.747
944.235
944.003
942.214
938.891
934.776
930.207
924.448
918.216
910.014
894.476
894.479
905.004
918.087
919.055
906.276
887.7
891.081
908.843
927.765
939.97
945.856
956.761
965.66
950.333
940.458
938.631
938.716
933.033
925.907
919.41
914.252
909.973
904.816
898.828
894.481
896.026
907.228
919.18
918.087
912.919
895.534
891.107
892.36
900.02
913.412
920.295
936.444
965.713
950.359
929.043
925.941
922.396
910.839
903.773
900.146
898.426
897.939
897.839
897.813
897.438
903.598
913.415
918.087
919.546
918.087
907.199
896.08
891.988
891.979
896.491
899.488
911.052
965.764
950.384
912.243
911.952
905.803
897.036
895.131
896.949
898.178
899.206
901.22
903.926
907.996
914.529
918.086
919.73
918.086
918.483
914.943
905.83
896.762
892.072
892.938
890.695
894.834
952.718
946.482
895.045
900.099
899.279
895.004
894.965
898.221
902.381
906.89
911.055
914.733
917.67
918.086
918.489
918.086
920.022
918.086
918.16
913.373
903.936
894.552
891.077
890.516
890.561
938.757
936.385
890.822
890.707
895.678
893.443
895.761
902.012
908.977
914.521
917.431
918.159
918.086
918.468
918.086
920.112
918.086
918.942
918.086
915.763
908.136
896.628
890.536
890.561
890.541
929.881
933.915
890.649
890.793
893.253
891.656
895.937
904.427
911.812
916.386
918.122
918.085
918.396
918.085
918.882
918.085
920.225
918.085
918.235
914.018
905.412
894.631
890.56
890.904
892.547
928.398
934.898
890.793
890.342
892.168
889.863
894.962
903.761
911.28
916.376
918.085
918.371
918.085
918.703
918.085
920.249
918.085
919.071
915.384
906.987
898.093
891.992
891.221
893.749
899.529
926.055
937.272
890.663
890.765
892.001
889.182
892.887
902.323
910.534
916.281
918.23
918.085
918.574
918.085
919.115
918.085
920.21
916.911
904.032
896.064
893.285
892.873
895.3
901.663
909.79
921.565
939.909
890.765
890.341
891.832
889.18
891.106
901.027
910.856
916.828
918.084
918.568
918.084
918.934
918.084
920.095
916.704
900.554
895.524
895.11
895.186
899.323
905.93
913.731
918.15
917.855
940.358
890.63
890.739
891.481
889.238
891.325
901.725
912.434
918.051
918.458
918.084
918.885
918.084
919.035
911.082
896.117
894.781
895.718
899.201
905.249
913.332
920.654
924.866
924.279
917.854
940.064
890.739
890.364
890.971
889.416
892.587
904.096
914.755
918.174
918.084
918.879
918.084
918.978
910.635
896.857
894.117
895.455
901.69
911.257
920.738
928.435
933.509
935.524
931.002
921.662
939.276
890.656
890.714
890.703
889.901
895.28
907.775
916.698
918.084
918.717
918.084
919.13
916.764
901.681
894.576
895.455
894.617
911.255
922.144
929.822
935.672
939.965
942.569
942.92
939.332
938.158
890.738
890.539
890.794
891.003
899.004
911.36
917.809
918.358
918.083
919.109
918.083
911.896
897.316
895.455
894.476
895.454
908.966
920.317
927.874
934
939.153
944.422
951.746
960.932
936.942
890.738
890.737
891.049
893.005
902.995
913.724
917.744
918.083
918.804
918.083
919.113
909.514
895.932
895.289
895.454
894.592
896.022
907.309
916.737
924.751
931.499
936.01
951.359
969.673
935.989
890.882
890.723
891.45
895.581
906.724
914.984
917.469
918.349
918.083
919.245
918.083
911.622
898.463
895.454
895.294
895.454
895.041
895.454
897.814
906.676
915.914
917.163
936.033
969.673
935.901
891.786
890.827
891.828
896.554
907.204
914.796
917.04
918.082
918.846
918.082
919.298
915.17
904.767
897.898
895.483
895.354
895.453
895.23
895.453
896.245
902.718
901.701
913.698
968.619
935.313
894.416
891.388
892.069
896.067
906.013
913.782
916.303
918.274
918.082
919.312
918.082
917.847
911.843
903.756
898.057
895.571
895.41
895.453
895.398
895.469
898.491
897.734
900.942
956.208
933.751
899.497
893.01
892.537
894.916
902.862
911.082
914.725
918.082
918.839
918.082
919.327
918.082
916.168
910.437
903.565
898.421
895.855
895.415
895.453
895.646
898.008
898.022
897.787
944.085
931.412
906.687
896.68
893.602
894.263
898.506
905.847
911.171
916.059
918.081
919.291
918.081
918.227
917.768
915.166
909.908
903.618
898.235
895.705
895.442
895.745
898.069
897.772
898.047
937.341
928.538
914.427
903.131
896.305
895.039
895.979
899.676
904.908
910.649
918.409
918.081
919.262
918.081
918.091
917.676
914.791
909.384
902.851
897.45
895.572
895.79
898.107
898.046
897.839
934.357
925.346
920.689
911.468
901.926
897.544
896.928
897.501
899.336
903.174
910.707
918.863
918.081
918.238
918.08
918.083
917.508
914.437
908.485
901.313
896.666
896.195
898.172
897.856
898.073
933.109
919.951
923.426
919.229
910.377
903.549
900.241
898.807
898.986
899.29
901.811
910.459
918.685
918.08
918.09
918.081
918.098
917.365
913.657
906.559
899.463
897.046
898.427
898.072
897.932
932.493
908.879
923.432
924.725
920.258
913.776
908
903.845
901.249
899.969
899.981
900.851
904.795
913.184
916.864
918.12
918.08
918.114
916.798
911.558
903.543
898.453
898.956
897.982
898.1
932.119
907.647
921.628
929.803
928.715
925.37
920.193
914.272
908.592
903.987
900.723
900.257
900.745
901.477
909.531
915.901
918.19
918.08
918.054
915.079
907.793
900.483
899.733
898.099
898.035
931.938
909.247
922.119
934.213
934.546
933.507
930.822
926.305
919.917
912.731
905.633
900.744
899.641
900.772
902.813
910.069
916.849
918.191
918.08
916.846
911.197
902.862
900.609
898.076
898.128
932.008
928.384
933.052
938.578
937.694
936.398
934.717
932.128
927.857
921.242
912.837
900.207
900.771
900.151
900.804
904.877
912.96
918.079
918.191
917.609
913.353
904.967
901.446
898.128
898.129
932.159
958.477
949.725
941.461
938.117
936.04
933.856
931.136
927.48
922.709
915.323
900.771
899.971
900.804
900.733
902.57
908.998
917.936
918.079
917.941
914.389
906.298
902.085
898.15
898.224
932.531
976.17
955.543
938.578
936.274
933.872
930.974
928.092
924.764
919.369
911.301
900.014
900.804
900.604
900.842
902.947
909.297
917.054
918.292
917.962
914.154
906.398
902.517
898.283
898.672
933.278
979.14
946.851
930.134
931.13
927.841
924.416
921.164
916.463
909.121
901.798
900.803
900.586
900.842
901.351
904.581
910.916
917.143
918.078
917.75
913.412
906.252
902.691
898.863
899.992
933.155
976.619
930.072
919.94
922.485
917.516
913.629
909.248
903.687
900.707
900.841
900.642
900.841
901.208
903.256
907.726
913.52
917.595
918.304
917.036
912.141
906.222
903.002
900.151
902.362
932.47
964.315
915.495
911.74
913.503
907.523
904.113
901.597
900.826
900.881
900.795
900.841
901.307
903.113
906.827
911.746
916.121
918.097
918.078
915.778
910.988
906.557
903.906
902.313
905.625
931.189
951.705
907.021
906.86
908.28
903.576
901.957
901.143
900.92
900.881
900.888
901.35
903.183
906.711
911.191
915.286
917.588
918.072
918.254
914.841
911.062
907.62
905.782
905.44
909.472
929.462
944.559
902.678
905.123
907.114
903.762
902.374
901.513
901.106
900.994
901.479
903.266
906.531
910.845
914.86
917.314
918.064
918.135
918.072
914.993
911.921
909.527
908.435
909.277
913.52
927.508
941.194
900.656
904.662
907.166
904.31
903.082
902.134
901.654
901.565
902.909
906.01
910.108
914.104
916.797
917.843
918.045
918.066
918.039
915.877
913.69
911.873
911.243
913.372
917.544
925.702
939.482
899.61
904.462
907.283
904.974
903.814
902.777
902.343
902.331
904.733
908.84
912.895
915.872
917.302
917.775
917.985
918.116
917.968
916.85
915.226
913.959
913.917
917.629
921.083
922.61
938.461
898.934
904.296
907.299
905.512
904.409
903.265
902.759
903.249
906.731
911.068
914.548
916.504
917.227
917.605
917.889
918.013
917.93
916.843
915.754
915.325
917.02
921.868
923.469
913.783
937.795
898.414
904.129
907.313
905.755
904.697
903.583
903.184
904.263
908.377
912.532
915.303
916.559
917.068
917.353
917.714
917.977
917.757
916.495
916.008
916.861
920.945
925.789
924.714
912.5
937.352
897.955
903.931
907.298
905.748
904.732
903.782
903.512
905.104
909.49
913.27
915.411
916.411
916.828
917.058
917.346
917.637
917.075
916.04
916.351
919.41
924.79
928.19
925.481
912.505
937.088
897.544
903.694
907.309
905.722
904.741
903.877
903.661
905.6
909.978
913.327
915.211
916.092
916.524
916.756
916.86
916.771
916.028
915.587
917.535
922.683
927.295
928.15
925.658
912.508
936.913
897.187
903.438
907.291
905.694
904.765
903.92
903.667
905.489
909.789
913.08
914.784
915.634
916.146
916.462
916.55
916.1
915.271
915.356
919.622
925.433
928.15
928.263
921.903
912.514
936.811
896.672
903.192
907.165
905.702
904.81
903.963
903.674
905.157
909.31
912.572
914.237
915.096
915.694
916.151
916.315
915.705
914.551
914.901
921.083
926.647
928.222
928.15
907.369
913.955
936.814
896.575
902.97
907.041
905.74
904.895
904.05
903.677
904.547
908.518
911.904
913.677
914.604
915.257
915.766
915.897
915.062
913.28
913.711
920.463
926.408
928.149
926.907
901.165
917.82
936.761
896.594
902.776
906.995
905.825
905.02
904.188
903.724
903.857
907.359
911.026
913.112
914.249
914.971
915.352
915.065
913.603
911.182
911.874
918.15
925.18
928.231
921.535
902.301
924.636
936.379
896.88
902.649
906.945
905.952
905.177
904.358
903.863
903.858
906.135
909.848
912.462
913.924
914.761
914.885
913.922
911.302
908.895
909.861
914.441
921.985
927.965
908.915
900.854
933.353
935.692
897.481
902.572
906.88
906.099
905.365
904.556
904.081
903.887
905.178
908.491
911.539
913.522
914.448
914.27
912.603
909.123
907.706
908.425
910.876
916.902
924.771
901.464
902.3
940.46
934.797
898.204
902.54
906.804
906.242
905.574
904.787
904.32
904.026
904.641
907.243
910.437
912.935
913.806
913.264
911.012
907.979
907.632
907.895
908.834
912.021
919.665
902.3
900.778
943.261
933.885
898.745
902.553
906.744
906.374
905.787
905.047
904.545
904.244
904.648
906.317
909.379
912.028
912.565
911.682
909.264
907.631
907.592
907.761
908.309
909.294
914.914
901.297
902.3
943.586
932.936
899.092
902.586
906.745
906.497
905.973
905.303
904.754
904.467
904.714
905.797
908.406
910.696
910.646
909.537
907.855
907.472
907.486
907.669
908.34
908.487
911.857
902.299
900.821
943.642
931.924
899.293
902.621
906.761
906.581
906.047
905.473
904.923
904.646
904.796
905.761
907.582
908.833
908.388
907.527
907.129
907.271
907.346
907.62
908.399
908.508
910.287
901.298
902.299
943.71
930.849
899.346
902.619
906.779
906.587
906.034
905.501
905.026
904.735
904.808
905.595
906.758
907.425
906.976
906.915
906.961
907.107
907.291
907.654
908.521
908.573
909.522
902.299
900.974
944.046
930.007
899.083
902.503
906.783
906.561
905.992
905.488
905.067
904.737
904.778
905.303
906.163
906.669
906.827
906.91
906.968
907.106
907.346
907.811
908.697
908.673
909.149
901.372
902.298
944.65
929.629
898.973
902.361
906.698
906.461
905.941
905.474
905.075
904.725
904.711
904.974
905.816
906.155
906.773
906.895
907.013
907.192
907.536
908.065
908.81
908.738
908.957
902.298
901.166
945.536
928.991
898.991
902.377
906.522
906.269
905.919
905.485
905.096
904.726
904.708
904.767
905.374
906.07
906.66
906.864
907.116
907.394
907.799
908.258
908.821
908.737
908.82
901.488
902.298
946.592
927.841
899.052
902.245
906.343
906.144
905.895
905.535
905.158
904.774
904.722
904.768
905.051
905.839
906.529
906.919
907.199
907.59
907.959
908.31
908.816
908.707
908.689
902.297
901.381
947.836
927.16
898.798
902.118
906.017
906.061
905.872
905.601
905.255
904.897
904.779
904.793
905.01
905.397
906.251
906.848
907.223
907.605
907.956
908.297
908.78
908.617
908.521
901.64
902.297
949.198
926.963
898.482
902.031
905.621
905.867
905.84
905.601
905.346
905.076
904.906
904.858
904.948
905.198
905.732
906.562
907.156
907.533
907.879
908.219
908.691
908.459
908.304
902.297
901.621
950.735
926.752
897.989
901.827
905.729
905.814
905.781
905.6
905.435
905.258
905.086
904.979
904.965
905.205
905.483
906.175
906.845
907.261
907.626
907.997
908.537
908.252
908.006
901.838
902.296
952.462
926.551
896.669
901.92
906.038
905.86
905.636
905.548
905.409
905.247
905.081
904.956
904.964
905.016
905.333
905.731
906.246
906.655
907.042
907.492
908.22
907.905
907.526
902.296
901.884
954.34
926.128
894.203
902.097
906.118
905.701
905.413
905.313
905.254
905.121
904.982
904.857
904.86
904.857
905.002
905.102
905.362
905.721
906.095
906.686
907.669
907.406
906.9
902.092
902.296
955.47
925.887
894.166
902.245
906.221
905.543
905.383
905.29
905.291
905.186
905.068
904.947
904.92
904.936
904.873
904.848
904.845
904.955
905.506
906.329
907.467
907.424
907.013
902.295
902.2
955.51
927.067
894.507
904.715
907.993
907.369
907.277
907.262
907.329
907.296
907.238
907.174
907.146
907.173
907.113
907.131
907.187
907.395
907.923
908.622
909.546
909.592
909.434
904.098
902.323
955.51
928.828
898.253
913.956
913.963
913.97
913.978
913.985
914.17
914.177
914.183
914.189
914.195
914.202
914.208
914.215
914.221
914.372
914.748
914.862
914.861
914.862
914.861
909.929
903.692
955.539
896.276
883.039
911.788
911.824
901.973
893.327
891.046
891.731
892.964
893.499
893.324
892.824
892.13
891.283
890.391
889.544
888.822
888.215
887.606
886.898
885.2
885.983
883.859
874.824
915.335
675.707
708.887
746.331
739.792
715.649
700.387
699.097
701.04
703.544
704.51
704.14
703.216
701.913
700.379
698.674
696.855
694.858
692.659
690.514
688.17
684.629
685.35
689.802
683.635
665.826
526.464
533.318
537.519
536.805
534.879
533.743
533.701
533.925
534.178
534.285
534.264
534.183
534.057
533.9
533.709
533.477
533.204
532.899
532.591
532.282
531.959
531.969
532.175
529.951
524.192
514.581
514.709
514.973
515.072
515.038
514.994
514.967
514.955
514.953
514.956
514.959
514.961
514.963
514.963
514.963
514.963
514.963
514.964
514.968
514.978
514.996
515.019
514.971
514.723
514.566
514.542
514.542
514.543
514.546
514.547
514.549
514.551
514.553
514.553
514.553
514.553
514.553
514.552
514.551
514.55
514.549
514.548
514.547
514.546
514.545
514.544
514.544
514.543
514.541
514.541
514.545
514.546
514.551
514.563
514.586
514.624
514.651
514.664
514.669
514.666
514.662
514.656
514.649
514.637
514.629
514.616
514.602
514.585
514.569
514.558
514.549
514.544
514.542
514.541
514.541
514.55
514.559
514.584
514.646
514.688
514.708
514.713
514.713
514.714
514.714
514.714
514.713
514.713
514.712
514.71
514.706
514.698
514.688
514.664
514.638
514.593
514.563
514.549
514.544
514.542
514.566
514.598
514.662
514.701
514.713
514.714
514.714
514.714
514.714
514.714
514.714
514.714
514.714
514.714
514.714
514.714
514.714
514.712
514.707
514.697
514.675
514.626
514.581
514.556
514.546
)
;

boundaryField
{
    inlet
    {
        type            calculated;
        value           nonuniform List<scalar> 
25
(
770.947
770.947
770.947
770.947
770.947
770.947
770.947
770.947
770.947
770.947
770.947
770.947
770.947
770.947
770.947
770.947
770.947
770.947
770.947
770.947
770.947
770.947
770.947
770.947
770.947
)
;
    }
    outlet
    {
        type            calculated;
        value           nonuniform List<scalar> 
25
(
514.567
514.598
514.663
514.702
514.714
514.714
514.714
514.714
514.714
514.714
514.714
514.714
514.714
514.714
514.714
514.714
514.714
514.714
514.707
514.697
514.675
514.626
514.581
514.556
514.546
)
;
    }
    walls
    {
        type            calculated;
        value           nonuniform List<scalar> 
150
(
887.758
911.577
926.855
943.662
950.307
950.333
950.359
950.384
946.482
936.385
933.915
934.898
937.272
939.909
940.358
940.064
939.276
938.158
936.942
935.989
935.901
935.313
933.751
931.412
928.538
925.346
919.951
908.879
907.647
909.247
928.384
958.477
976.17
979.14
976.619
964.315
951.705
944.559
941.194
939.482
938.461
937.795
937.352
937.088
936.913
936.811
936.814
936.761
936.379
935.692
934.797
933.885
932.936
931.924
930.849
930.007
929.629
928.991
927.841
927.16
926.963
926.752
926.551
926.128
925.887
927.067
928.828
896.276
675.707
526.464
514.581
514.542
514.545
514.55
514.566
884.383
942.3
960.265
965.61
965.66
965.713
965.764
952.718
938.757
929.881
928.398
926.055
921.565
917.855
917.854
921.662
939.332
960.932
969.673
969.673
968.619
956.208
944.085
937.341
934.357
933.109
932.493
932.119
931.938
932.008
932.159
932.531
933.278
933.155
932.47
931.189
929.462
927.508
925.702
922.61
913.783
912.5
912.505
912.508
912.514
913.955
917.82
924.636
933.353
940.46
943.261
943.586
943.642
943.71
944.046
944.65
945.536
946.592
947.836
949.198
950.735
952.462
954.34
955.47
955.51
955.51
955.539
915.335
665.826
524.192
514.566
514.541
514.541
514.542
514.546
)
;
    }
    defaultFaces
    {
        type            empty;
    }
}


// ************************************************************************* //
