/*--------------------------------*- C++ -*----------------------------------*\
| =========                 |                                                 |
| \\      /  F ield         | OpenFOAM: The Open Source CFD Toolbox           |
|  \\    /   O peration     | Version:  2.3.0                                 |
|   \\  /    A nd           | Web:      www.OpenFOAM.org                      |
|    \\/     M anipulation  |                                                 |
\*---------------------------------------------------------------------------*/
FoamFile
{
    version     2.0;
    format      ascii;
    class       volScalarField;
    location    "0.002";
    object      p_rgh;
}
// * * * * * * * * * * * * * * * * * * * * * * * * * * * * * * * * * * * * * //

dimensions      [1 -1 -2 0 0 0 0];

internalField   nonuniform List<scalar> 
545
(
-6.78236e+07
-1.18036e+07
-888293
-1.41444e+06
-6.57386e+06
5.02368e+07
-1.72237e+06
-1.1779e+06
-1.33094e+06
-5.19418e+06
8.67279e+07
3.94679e+06
514215
452771
-5.49339e+06
5.06665e+07
-1.88317e+06
-779434
680569
-4.82685e+06
-7.81328e+07
-1.20553e+06
412694
4.42128e+06
1.08007e+07
-5.26724e+06
-830259
81472.8
630397
706199
679383
650477
604746
576848
534709
504680
462942
428978
388223
354143
318750
289778
262386
239532
218469
199469
180745
161952
143056
123716
105672
87362.5
72357.4
55417.9
44341.5
27532.3
21729.4
4908.06
7616.27
-7556.83
6283.37
-4980.6
18349.1
12924.9
37611.1
38529.8
53193.4
66580.3
69162
91149.5
-4.55928e+06
-239357
104726
530142
606358
633220
619029
596324
564732
532637
496691
460803
422483
385188
348422
315096
284986
258816
235626
215254
196272
177878
159239
140223
121238
102730
85518.1
69249.4
54688.1
40398.2
28282.8
16025.3
7865.16
-306.33
-1844.14
-3709.32
2885.91
8113.78
20859.6
30102.7
42401.4
50581.6
58923
60294.5
16939.5
-5.48088e+06
258497
347589
638921
637425
632711
619340
591259
565236
529096
497171
458411
422611
383222
347744
313266
284140
257633
234946
214523
195766
177392
158700
139683
120488
102343
84712.7
69294.9
53495.3
40930.3
26157.1
17406.9
4501.36
2441.25
-6489.05
544.71
-2574.11
13137.7
15906.5
34316.1
39276.5
50162.6
54669.1
54961.6
57645.6
-5.84079e+06
1.25486e+06
834514
842592
697744
655409
620129
596200
561847
531792
494679
460645
421386
384506
346613
313620
283577
258050
234887
214887
195991
177707
158955
139714
120735
102192
85318.7
68740.4
54592.9
39342.1
28156.3
14269.4
8157.53
-2566.9
-687.199
-6191.34
4852.27
5713.11
23099
28473.1
43217.5
46682.4
49011.2
39635
-14285.4
-806986
3.53691e+06
1.67322e+06
1.01053e+06
732173
662020
625861
592502
563911
529175
496498
459684
423310
383775
347110
312722
283959
258158
235228
215182
196459
178206
159297
140021
120759
102648
85180.8
69562.5
53791.3
40647.8
26170.9
16673.3
4713.22
1588.08
-5696.14
-223.062
-1307.06
12342.7
17082.4
33700.2
39253
47713.6
45522.3
39017.7
41282.1
-1.09986e+07
4.7463e+06
2.3092e+06
1.12137e+06
739499
665295
621891
597581
563991
534477
499333
465037
423277
385026
346305
315087
287469
262721
240895
219575
200614
182044
160311
140078
121011
102560
85790.1
69092
54819.2
39206.8
28019.3
13860.3
8152.7
-2840.22
-235.826
-6215.56
5632.79
5611.58
23701
28006.2
43248.1
45115.3
44385.7
28320.6
-24798.2
-7.81287e+07
-1.19965e+06
418495
4.42413e+06
1.08042e+07
5.06708e+07
-1.87871e+06
-775249
684076
-4.82497e+06
8.6733e+07
3.94799e+06
517359
455046
-5.49222e+06
5.02422e+07
-1.72388e+06
-1.17661e+06
-1.32918e+06
-5.19429e+06
-6.78176e+07
-1.18081e+07
-887583
-1.41408e+06
-6.57385e+06
-807032
3.53737e+06
1.67247e+06
1.01071e+06
731645
662030
625364
592393
563466
528883
496075
459393
423065
383757
347265
313038
284366
258605
235632
215482
196629
178229
159222
139992
120875
102931
85532.8
69856.6
53877.8
40543.5
25897.5
16444.6
4541.39
1654.08
-5529.1
155.464
-954.948
12686.8
17202.3
33524.4
39215
47877.1
45335
37560.1
40699.4
-5.84016e+06
1.2548e+06
833734
842284
697172
654928
619436
595664
561032
530977
493810
459947
420937
384490
346996
314360
284528
259087
235835
215593
196368
177748
158797
139648
120968
102773
86046.1
69345.3
54774.5
39145.8
27646.4
13875.7
7887.66
-2374.66
-323.132
-5391.44
5605.4
6455.03
23376
28248
43097.9
46821.8
48246.2
36610.9
-15225.4
-5.48072e+06
258396
346487
638255
636628
631809
618391
590276
564015
527761
495858
457327
421970
383223
348380
314456
285684
259301
236460
215650
196368
177469
158486
139594
120831
103183
85768.5
70170.5
53791.5
40694.6
25522.1
16926.6
4227.65
2791.9
-5855.05
1785.44
-1366.78
14338.5
16441.2
34176.6
39078.6
49895
52919.8
50438.4
56038.9
-4.55925e+06
-239928
103599
529070
605357
631948
617798
594938
563163
530866
494988
459371
421657
385160
349250
316652
287029
261028
237661
216789
197116
178045
159026
140118
121641
103729
86802.9
70316.4
55105.1
40169.4
27636.1
15496.7
7631.51
149.406
-922.83
-2088.24
4568.45
9806.75
21746.5
30235.1
42051.9
49808.1
56109
55511.1
15511.4
-5.26798e+06
-830717
80053
629206
704935
677974
648993
603139
575055
532675
502737
461296
428011
388137
355042
320493
292118
264944
241905
220266
200471
180999
161800
143009
124172
106702
88668.4
73476.6
55939.7
44219.8
26933.8
21176.5
4640.22
8133.22
-6426.53
8190.41
-3024.08
20442.2
14136.2
37892.3
38199.5
51941
63226.6
63996.7
89330.3
)
;

boundaryField
{
    AirInlet
    {
        type            fixedFluxPressure;
        gradient        uniform 3.63415e+08;
        value           uniform -1.0995e+07;
    }
    WaterInlet
    {
        type            fixedFluxPressure;
        gradient        nonuniform List<scalar> 10(0 -0.0659498 0 0 -0.038761 0 -0.0362504 0 0 -0.0673307);
        value           nonuniform List<scalar> 10(-6.78236e+07 5.02368e+07 8.67279e+07 5.06665e+07 -7.81328e+07 -7.81287e+07 5.06708e+07 8.6733e+07 5.02422e+07 -6.78176e+07);
    }
    ChannelWall
    {
        type            fixedFluxPressure;
        gradient        uniform 0;
        value           nonuniform List<scalar> 
110
(
-7.81328e+07
-1.20553e+06
412694
4.42128e+06
1.08007e+07
-7.81287e+07
-1.19965e+06
418495
4.42413e+06
1.08042e+07
-6.78176e+07
-1.18081e+07
-887583
-1.41408e+06
-6.57385e+06
-5.26798e+06
-830717
80053
629206
704935
677974
648993
603139
575055
532675
502737
461296
428011
388137
355042
320493
292118
264944
241905
220266
200471
180999
161800
143009
124172
106702
88668.4
73476.6
55939.7
44219.8
26933.8
21176.5
4640.22
8133.22
-6426.53
8190.41
-3024.08
20442.2
14136.2
37892.3
38199.5
51941
63226.6
63996.7
89330.3
-6.78236e+07
-1.18036e+07
-888293
-1.41444e+06
-6.57386e+06
-5.26724e+06
-830259
81472.8
630397
706199
679383
650477
604746
576848
534709
504680
462942
428978
388223
354143
318750
289778
262386
239532
218469
199469
180745
161952
143056
123716
105672
87362.5
72357.4
55417.9
44341.5
27532.3
21729.4
4908.06
7616.27
-7556.83
6283.37
-4980.6
18349.1
12924.9
37611.1
38529.8
53193.4
66580.3
69162
91149.5
)
;
    }
    Outlet
    {
        type            totalPressure;
        rho             rho;
        psi             none;
        gamma           1;
        p0              uniform 0;
        value           uniform 0;
    }
    FrontAndBack
    {
        type            empty;
    }
}


// ************************************************************************* //
