/*--------------------------------*- C++ -*----------------------------------*\
| =========                 |                                                 |
| \\      /  F ield         | OpenFOAM: The Open Source CFD Toolbox           |
|  \\    /   O peration     | Version:  2.3.0                                 |
|   \\  /    A nd           | Web:      www.OpenFOAM.org                      |
|    \\/     M anipulation  |                                                 |
\*---------------------------------------------------------------------------*/
FoamFile
{
    version     2.0;
    format      ascii;
    class       volScalarField;
    location    "0.18";
    object      alpha.particles;
}
// * * * * * * * * * * * * * * * * * * * * * * * * * * * * * * * * * * * * * //

dimensions      [0 0 0 0 0 0 0];

internalField   nonuniform List<scalar> 
6000
(
0.450991
0.451459
0.451356
0.451237
0.451112
0.450985
0.448277
0.446258
0.444366
0.441804
0.439348
0.437436
0.436005
0.434716
0.433758
0.433755
0.434568
0.435875
0.43724
0.439236
0.441561
0.444182
0.446024
0.4481
0.450847
0.450889
0.451026
0.451133
0.451267
0.450772
0.447541
0.451572
0.451478
0.447567
0.441343
0.435414
0.434422
0.434381
0.434266
0.434226
0.434111
0.434071
0.433953
0.433915
0.433795
0.433756
0.433915
0.433915
0.434071
0.434071
0.434226
0.434226
0.434381
0.434382
0.435291
0.441306
0.447429
0.45127
0.451316
0.447283
0.451593
0.451642
0.451593
0.451482
0.451431
0.451307
0.451128
0.450994
0.45096
0.450884
0.450802
0.45055
0.450416
0.450317
0.450242
0.450117
0.45017
0.450212
0.450341
0.450425
0.450735
0.450769
0.450889
0.450894
0.451038
0.451139
0.451363
0.451338
0.451514
0.451337
0.441066
0.451775
0.451643
0.451594
0.451483
0.451434
0.451312
0.451132
0.450994
0.45096
0.450885
0.450805
0.450551
0.450416
0.450317
0.450242
0.450212
0.450341
0.450425
0.450739
0.45077
0.45089
0.450894
0.451044
0.451141
0.451364
0.451339
0.451515
0.451517
0.441652
0.296648
0.320187
0.316604
0.334662
0.353974
0.362473
0.375685
0.412689
0.451026
0.450911
0.450898
0.450687
0.450575
0.450445
0.4504
0.450139
0.450329
0.450308
0.450519
0.450525
0.450838
0.450774
0.41422
0.377157
0.363342
0.353954
0.334041
0.315192
0.319103
0.296962
0.224387
0.225034
0.224634
0.227424
0.230502
0.22712
0.231711
0.262531
0.321162
0.375415
0.402361
0.414719
0.420351
0.422985
0.424024
0.424267
0.423144
0.420761
0.415209
0.403173
0.376181
0.323521
0.264522
0.231566
0.227744
0.229682
0.226784
0.223714
0.224325
0.22365
0.224315
0.224388
0.224242
0.224459
0.223946
0.22453
0.22223
0.224504
0.223773
0.241569
0.259062
0.270051
0.275266
0.278571
0.279605
0.27993
0.278655
0.275773
0.270034
0.259582
0.241305
0.223945
0.222195
0.223871
0.222106
0.223798
0.2235
0.223726
0.223575
0.223651
0.248187
0.244402
0.241068
0.237739
0.225293
0.223291
0.224504
0.222401
0.224435
0.22329
0.224367
0.223655
0.224299
0.223752
0.224228
0.223688
0.224157
0.223512
0.224087
0.223224
0.224017
0.222514
0.223944
0.221746
0.223871
0.22437
0.237066
0.240542
0.244719
0.250644
0.306158
0.291092
0.278339
0.270693
0.246377
0.224573
0.222306
0.224504
0.222953
0.224435
0.223488
0.224367
0.223645
0.224299
0.223682
0.224228
0.223601
0.224157
0.22337
0.224087
0.222905
0.224017
0.221998
0.223944
0.223302
0.245562
0.27053
0.278658
0.292532
0.311172
0.369393
0.34599
0.319792
0.307541
0.27557
0.225881
0.224573
0.222625
0.224504
0.223307
0.224435
0.223695
0.224367
0.223818
0.224299
0.223752
0.224228
0.223547
0.224157
0.22324
0.224087
0.222588
0.224017
0.22195
0.224739
0.273909
0.307261
0.319635
0.346978
0.376163
0.42199
0.400773
0.35857
0.338829
0.297831
0.233228
0.222821
0.224573
0.223146
0.224504
0.223642
0.224435
0.223844
0.224367
0.223926
0.224299
0.223849
0.224228
0.223579
0.224157
0.223026
0.224087
0.22233
0.224017
0.231258
0.295247
0.336714
0.355136
0.399823
0.431287
0.459844
0.445721
0.390641
0.362815
0.310923
0.238879
0.224639
0.223088
0.224573
0.223531
0.224504
0.223983
0.224435
0.224092
0.224367
0.224064
0.224299
0.223838
0.224228
0.223483
0.224157
0.222882
0.224087
0.222679
0.238075
0.30876
0.359138
0.383715
0.445967
0.472984
0.482557
0.470229
0.415378
0.379602
0.318214
0.242494
0.223629
0.224639
0.223553
0.224573
0.223978
0.224504
0.224214
0.224435
0.224305
0.224367
0.224227
0.224299
0.22395
0.224228
0.223361
0.224157
0.222898
0.224087
0.243204
0.318582
0.377652
0.40854
0.481145
0.500395
0.493691
0.479022
0.436981
0.391905
0.325241
0.247714
0.224704
0.223755
0.224639
0.223967
0.224573
0.224429
0.224504
0.224417
0.225002
0.224987
0.224367
0.224252
0.224299
0.223918
0.224228
0.223397
0.224157
0.223544
0.250544
0.329454
0.395496
0.433927
0.503599
0.511782
0.501186
0.48136
0.454688
0.400685
0.335998
0.25917
0.224515
0.224704
0.224174
0.224639
0.224484
0.225342
0.228757
0.231693
0.233294
0.233317
0.231742
0.228748
0.22524
0.224299
0.223902
0.224228
0.22366
0.224157
0.263905
0.344982
0.410596
0.455892
0.50903
0.514177
0.509811
0.481582
0.464803
0.41184
0.352512
0.278598
0.231386
0.224551
0.224704
0.224551
0.227341
0.234089
0.241156
0.245848
0.247961
0.247992
0.245922
0.24126
0.234166
0.227247
0.224299
0.224095
0.224228
0.232895
0.285371
0.365774
0.422412
0.472836
0.497269
0.5142
0.516994
0.484735
0.467134
0.428389
0.373275
0.304449
0.252517
0.231194
0.228347
0.231123
0.23923
0.249066
0.256714
0.261493
0.263702
0.263721
0.261555
0.256819
0.249224
0.239416
0.231285
0.228487
0.231682
0.255629
0.312938
0.387769
0.434553
0.482782
0.472223
0.514226
0.517418
0.497459
0.468572
0.448686
0.397541
0.334397
0.281056
0.25194
0.244574
0.248229
0.256667
0.265326
0.272151
0.276716
0.278945
0.278954
0.276768
0.272248
0.265509
0.256999
0.248835
0.245376
0.253358
0.284639
0.343449
0.407394
0.446461
0.48275
0.461275
0.514257
0.517441
0.512451
0.481385
0.469759
0.425883
0.366801
0.312607
0.280347
0.269016
0.269793
0.275306
0.281958
0.287997
0.292409
0.294669
0.294679
0.292474
0.28812
0.282187
0.275745
0.270539
0.270106
0.282072
0.316714
0.374282
0.424418
0.459029
0.474662
0.461344
0.504005
0.517463
0.517433
0.503077
0.487253
0.452932
0.400352
0.346721
0.310962
0.295526
0.292465
0.295081
0.300132
0.305491
0.309686
0.311931
0.311939
0.309778
0.305661
0.300449
0.295651
0.293323
0.296794
0.313091
0.351631
0.403899
0.440923
0.471722
0.474186
0.481514
0.503764
0.517595
0.517455
0.517346
0.503574
0.477138
0.432916
0.382168
0.343513
0.323605
0.316964
0.317174
0.320748
0.325191
0.328908
0.33099
0.330988
0.329032
0.325426
0.321174
0.317922
0.318044
0.32523
0.346592
0.387438
0.430078
0.458438
0.485409
0.487306
0.503942
0.503854
0.440556
0.517254
0.517269
0.507888
0.492896
0.461935
0.417301
0.377921
0.354278
0.344157
0.342023
0.343803
0.346926
0.349815
0.351522
0.351523
0.35
0.347276
0.344405
0.342968
0.345544
0.356466
0.381958
0.420162
0.451296
0.476424
0.501681
0.505827
0.506024
0.497769
0.431187
0.49382
0.51719
0.507136
0.491792
0.477187
0.44827
0.41189
0.386647
0.373439
0.368759
0.368467
0.369995
0.37177
0.372923
0.372952
0.372019
0.370483
0.369256
0.369865
0.375124
0.389359
0.415519
0.446257
0.46836
0.49271
0.505827
0.506121
0.505827
0.459853
0.431196
0.471239
0.517111
0.511205
0.489988
0.477994
0.468636
0.441306
0.41737
0.402531
0.395518
0.393202
0.393042
0.393605
0.394135
0.394188
0.393887
0.393601
0.393999
0.396623
0.404405
0.420184
0.442791
0.464976
0.47875
0.498778
0.505905
0.505828
0.50633
0.440131
0.431207
0.445081
0.515082
0.513119
0.491517
0.475394
0.474667
0.461585
0.44234
0.42825
0.419865
0.415831
0.414178
0.413672
0.413648
0.413705
0.413938
0.414686
0.41648
0.420815
0.429955
0.444433
0.46083
0.474389
0.480295
0.498106
0.505827
0.506521
0.505826
0.433981
0.43124
0.434513
0.457188
0.512225
0.496248
0.472744
0.47245
0.470792
0.458715
0.447506
0.439276
0.434295
0.431663
0.430432
0.430027
0.430071
0.430655
0.432069
0.434876
0.440202
0.448887
0.459751
0.469954
0.475406
0.479174
0.498762
0.505868
0.505827
0.496096
0.430865
0.448508
0.440382
0.440508
0.493187
0.499435
0.474155
0.471535
0.471944
0.466512
0.459228
0.452578
0.447758
0.444838
0.443297
0.442704
0.442734
0.443481
0.445176
0.448382
0.453639
0.460371
0.467077
0.473156
0.47389
0.478645
0.502611
0.505827
0.506821
0.464458
0.43082
0.470992
0.456064
0.440634
0.463066
0.499443
0.479672
0.471542
0.471939
0.468979
0.464925
0.460803
0.456998
0.454336
0.452794
0.45215
0.452168
0.452931
0.454597
0.457543
0.461616
0.465693
0.46939
0.473161
0.472455
0.481781
0.505827
0.50638
0.505826
0.439521
0.43082
0.490195
0.474291
0.440761
0.445067
0.499377
0.487309
0.471535
0.471941
0.469549
0.467
0.465043
0.462818
0.460886
0.459604
0.459017
0.459026
0.459673
0.461019
0.463077
0.465339
0.467351
0.469787
0.472517
0.47247
0.490117
0.505965
0.505826
0.480435
0.432417
0.430905
0.508144
0.491321
0.444611
0.444782
0.495567
0.49146
0.473754
0.471108
0.469907
0.467953
0.466755
0.46565
0.464586
0.463773
0.463358
0.46336
0.463775
0.464582
0.465646
0.466755
0.468039
0.470027
0.471665
0.474284
0.498323
0.505826
0.476125
0.441099
0.43211
0.431144
0.522026
0.500942
0.459631
0.444897
0.486044
0.49146
0.479169
0.471662
0.470797
0.469207
0.468051
0.467269
0.466601
0.466086
0.465812
0.465802
0.466034
0.4665
0.467112
0.467869
0.469014
0.47072
0.472074
0.479875
0.500827
0.504439
0.4515
0.445011
0.437178
0.441109
0.524382
0.501396
0.478653
0.444966
0.473467
0.491458
0.483702
0.474394
0.472753
0.471371
0.470001
0.469154
0.468589
0.46819
0.467975
0.467947
0.468079
0.468397
0.468873
0.469633
0.470864
0.472329
0.474417
0.486467
0.500609
0.482671
0.45144
0.456218
0.450795
0.462124
0.524382
0.500251
0.490364
0.453254
0.465109
0.488842
0.4848
0.478348
0.475457
0.474131
0.472735
0.471766
0.471219
0.470885
0.470699
0.470653
0.470708
0.470939
0.471399
0.472239
0.473412
0.474794
0.478411
0.488187
0.493393
0.468558
0.455032
0.46723
0.468589
0.486431
0.52443
0.501038
0.497909
0.476077
0.466361
0.4813
0.483728
0.480788
0.477724
0.476338
0.47529
0.474447
0.473996
0.473779
0.473643
0.473587
0.473583
0.473729
0.474139
0.474866
0.475725
0.477325
0.481183
0.486682
0.480398
0.466514
0.463793
0.475451
0.48805
0.508384
0.52452
0.496894
0.505195
0.500372
0.477245
0.479682
0.479857
0.480778
0.478797
0.477456
0.476686
0.476144
0.475818
0.475696
0.475645
0.475603
0.475613
0.475729
0.476053
0.476528
0.477144
0.478922
0.481461
0.482457
0.473367
0.466921
0.474505
0.483948
0.506817
0.52318
0.439687
0.464288
0.509905
0.510012
0.49949
0.492206
0.479812
0.480767
0.478995
0.47773
0.477084
0.476754
0.476474
0.476327
0.476325
0.47634
0.476407
0.476589
0.476865
0.477164
0.477745
0.479317
0.480767
0.477768
0.472513
0.470568
0.4849
0.491447
0.521227
0.524842
0.360481
0.397675
0.48461
0.511733
0.517746
0.511459
0.481496
0.480611
0.47864
0.47767
0.477164
0.476893
0.476634
0.476454
0.476455
0.476515
0.476601
0.476828
0.477066
0.477291
0.477866
0.479096
0.47877
0.474995
0.473136
0.477941
0.494767
0.500884
0.524839
0.524844
0.360558
0.360656
0.444011
0.509007
0.519868
0.514259
0.48467
0.478808
0.47796
0.477482
0.477046
0.476892
0.476688
0.476538
0.476542
0.476609
0.476679
0.476875
0.477049
0.47721
0.477714
0.478177
0.476425
0.474445
0.475137
0.483573
0.501073
0.510219
0.52484
0.524855
0.360664
0.363783
0.453037
0.512996
0.520004
0.511635
0.488094
0.47686
0.477664
0.477075
0.47654
0.476708
0.47668
0.47663
0.47664
0.476684
0.476724
0.476842
0.476853
0.476842
0.477128
0.476708
0.474766
0.474458
0.477283
0.483161
0.497529
0.511521
0.52125
0.524843
0.360752
0.393422
0.491987
0.519906
0.51987
0.506132
0.492064
0.47616
0.477202
0.47631
0.476064
0.476416
0.476666
0.47667
0.476683
0.476697
0.47671
0.47668
0.476449
0.476283
0.476292
0.475418
0.473788
0.474713
0.476589
0.479004
0.489959
0.511456
0.497828
0.458203
0.364814
0.430384
0.519415
0.519872
0.520006
0.504537
0.492053
0.476177
0.476472
0.475711
0.476015
0.476183
0.476557
0.476656
0.47667
0.476683
0.476697
0.476392
0.476052
0.475844
0.475649
0.474666
0.473584
0.474699
0.472525
0.473025
0.488183
0.511393
0.484733
0.449896
0.393342
0.435263
0.518963
0.520004
0.514909
0.507027
0.49057
0.476564
0.475657
0.475581
0.475927
0.475965
0.476254
0.476607
0.476569
0.4765
0.476506
0.476071
0.475772
0.475568
0.475247
0.474284
0.473595
0.474633
0.47045
0.47311
0.496122
0.511325
0.475594
0.45709
0.43701
0.435195
0.486488
0.503656
0.497051
0.507016
0.487049
0.476593
0.474883
0.475365
0.475648
0.475681
0.475851
0.476062
0.475984
0.475879
0.475875
0.475721
0.475513
0.475296
0.474871
0.474004
0.473598
0.474008
0.470447
0.480137
0.508448
0.511286
0.4756
0.476766
0.465044
0.435559
0.449715
0.462369
0.482282
0.507005
0.48266
0.475732
0.474123
0.47482
0.475074
0.475183
0.475255
0.475226
0.475185
0.475138
0.475132
0.475208
0.475088
0.474853
0.474363
0.473685
0.473525
0.473362
0.471213
0.490221
0.506676
0.485724
0.477506
0.493723
0.47396
0.435286
0.448412
0.451557
0.474971
0.505873
0.480994
0.473786
0.473308
0.473926
0.47421
0.474394
0.47445
0.47441
0.474453
0.474459
0.474403
0.47446
0.474367
0.474133
0.47367
0.473232
0.473283
0.473294
0.474721
0.49071
0.487845
0.46311
0.483567
0.506509
0.477832
0.435803
0.450473
0.453835
0.473191
0.498546
0.481293
0.472499
0.472597
0.473016
0.473323
0.473591
0.473765
0.473912
0.474033
0.474055
0.473911
0.473761
0.473564
0.47328
0.472896
0.472701
0.472992
0.473627
0.478318
0.490732
0.464666
0.462961
0.491969
0.517083
0.485501
0.435888
0.448888
0.454674
0.472323
0.489322
0.481714
0.472431
0.472386
0.472526
0.472849
0.473224
0.473556
0.473839
0.47395
0.473964
0.473822
0.473509
0.473149
0.472727
0.47234
0.472349
0.472901
0.474214
0.478382
0.484402
0.462969
0.463109
0.494221
0.521318
0.496855
0.446193
0.449237
0.452505
0.469974
0.480471
0.481409
0.472973
0.472379
0.472529
0.472889
0.473301
0.473644
0.47388
0.473945
0.473955
0.47387
0.473591
0.473203
0.472714
0.472271
0.472277
0.472981
0.474433
0.476315
0.472368
0.463109
0.463919
0.488484
0.52132
0.506147
0.460269
0.459131
0.452521
0.464223
0.473084
0.479731
0.4741
0.472675
0.472884
0.473255
0.473607
0.473834
0.47392
0.473935
0.473945
0.473925
0.473802
0.473518
0.473046
0.472529
0.472439
0.473209
0.474125
0.472861
0.467623
0.462974
0.470257
0.482113
0.521354
0.512034
0.467799
0.477984
0.452854
0.45488
0.467657
0.47658
0.474704
0.473408
0.473555
0.47375
0.473866
0.473902
0.473916
0.473926
0.473935
0.473925
0.473908
0.473843
0.473625
0.473248
0.473022
0.473453
0.473251
0.470454
0.466948
0.463109
0.478362
0.478995
0.521361
0.517189
0.482231
0.493807
0.455196
0.454886
0.464464
0.47319
0.474553
0.473972
0.473925
0.473915
0.473905
0.473896
0.473906
0.473916
0.473926
0.473916
0.473905
0.473895
0.473877
0.473825
0.47372
0.473564
0.472202
0.469591
0.467013
0.463097
0.478525
0.478615
0.491195
0.521878
0.502402
0.498118
0.464571
0.454891
0.462594
0.470515
0.473905
0.473963
0.473953
0.473922
0.473902
0.473892
0.473897
0.473906
0.473916
0.473906
0.473896
0.473887
0.473878
0.473869
0.47386
0.473524
0.471378
0.469487
0.467477
0.464796
0.478456
0.477752
0.457307
0.52424
0.515627
0.487633
0.477889
0.454897
0.461075
0.468938
0.472733
0.473806
0.473942
0.473918
0.473901
0.473896
0.473911
0.47392
0.473911
0.473909
0.4739
0.47389
0.47388
0.473891
0.473879
0.473246
0.470845
0.469524
0.468036
0.468533
0.47877
0.476478
0.457341
0.525201
0.521146
0.466326
0.478083
0.45547
0.460037
0.468234
0.471622
0.47324
0.473931
0.473912
0.473902
0.473918
0.473924
0.47393
0.473928
0.473911
0.473918
0.47391
0.473906
0.47388
0.473893
0.472655
0.470597
0.469571
0.468156
0.473676
0.478457
0.468654
0.457378
0.526993
0.522062
0.457136
0.477956
0.461565
0.460279
0.467832
0.470991
0.47262
0.473919
0.473906
0.473906
0.473926
0.473935
0.473928
0.473937
0.473933
0.473911
0.47392
0.47391
0.473911
0.473804
0.472017
0.47053
0.469483
0.468617
0.478306
0.479072
0.458738
0.457404
0.529367
0.517545
0.456827
0.478269
0.471561
0.462183
0.467594
0.470716
0.472132
0.473733
0.473907
0.473926
0.473937
0.473928
0.473942
0.47395
0.473941
0.473936
0.473911
0.473932
0.47391
0.472903
0.471589
0.470471
0.469136
0.470581
0.478517
0.478457
0.458841
0.467703
0.532238
0.512489
0.456944
0.477956
0.477632
0.46622
0.467649
0.470582
0.471845
0.472938
0.473926
0.473937
0.473928
0.473944
0.473956
0.473943
0.473954
0.473941
0.473942
0.473911
0.473938
0.472327
0.471343
0.470317
0.469032
0.473551
0.478457
0.479073
0.458835
0.48584
0.536087
0.514918
0.456899
0.478097
0.477721
0.471018
0.468315
0.470592
0.471755
0.47254
0.473937
0.473928
0.473945
0.473956
0.47397
0.473957
0.473943
0.473956
0.473941
0.473942
0.4738
0.472062
0.471199
0.470067
0.469034
0.474799
0.478682
0.468944
0.458927
0.496114
0.540123
0.52287
0.456983
0.4598
0.477671
0.474518
0.469795
0.470902
0.471839
0.47253
0.473928
0.473945
0.473956
0.473972
0.473957
0.473972
0.473962
0.473943
0.473966
0.473941
0.472828
0.471948
0.471134
0.469902
0.469517
0.474148
0.468515
0.456814
0.461958
0.496132
0.541038
0.53066
0.457316
0.456855
0.477624
0.475622
0.471581
0.471627
0.472168
0.472623
0.473578
0.473956
0.473974
0.473957
0.473973
0.473985
0.473973
0.47397
0.473943
0.473973
0.47256
0.471948
0.471169
0.470013
0.470951
0.472507
0.456814
0.456687
0.466476
0.496152
0.541039
0.529746
0.463295
0.456719
0.473525
0.475355
0.47282
0.472324
0.472605
0.472829
0.473124
0.473977
0.473957
0.473976
0.473987
0.473973
0.473988
0.473972
0.47397
0.473941
0.472582
0.47208
0.47143
0.470579
0.472423
0.47118
0.45669
0.458171
0.468873
0.496167
0.541112
0.509138
0.475872
0.456855
0.465913
0.473961
0.473125
0.472603
0.472834
0.472991
0.473124
0.473957
0.473976
0.473982
0.473997
0.473987
0.473972
0.473988
0.473966
0.473268
0.472738
0.472423
0.471967
0.471562
0.472713
0.469908
0.456814
0.466775
0.465138
0.464593
0.541047
0.474215
0.476135
0.456852
0.461715
0.471114
0.472914
0.472614
0.472852
0.473016
0.473126
0.473976
0.47398
0.474003
0.473984
0.474
0.47399
0.473967
0.473996
0.473145
0.472991
0.472809
0.472493
0.472431
0.472726
0.468111
0.456798
0.472563
0.453969
0.430302
0.469431
0.450134
0.476647
0.457388
0.460271
0.4678
0.472083
0.472506
0.472799
0.472989
0.473101
0.473661
0.473998
0.47398
0.474
0.473999
0.473986
0.47399
0.473963
0.47321
0.473148
0.473007
0.472735
0.472752
0.472739
0.466136
0.457211
0.472391
0.446005
0.430301
0.438057
0.446123
0.476135
0.459791
0.460088
0.465631
0.470904
0.472206
0.472647
0.472906
0.473045
0.473167
0.47397
0.473989
0.473992
0.473986
0.473993
0.473975
0.473897
0.473241
0.47317
0.473029
0.472774
0.472764
0.471876
0.464536
0.458049
0.473153
0.441846
0.432443
0.451271
0.44939
0.476827
0.46419
0.461035
0.465106
0.470009
0.471799
0.472438
0.472789
0.472965
0.473103
0.473984
0.473985
0.473998
0.473992
0.473976
0.473997
0.47336
0.473221
0.473149
0.472998
0.472721
0.472354
0.469117
0.463612
0.45889
0.472391
0.443973
0.450629
0.465104
0.456625
0.476135
0.468388
0.463909
0.465506
0.469641
0.47145
0.472248
0.472681
0.472899
0.473067
0.473765
0.473988
0.473985
0.473983
0.473992
0.473961
0.473233
0.473159
0.473068
0.472869
0.472493
0.471529
0.467042
0.463283
0.459449
0.473155
0.447908
0.467285
0.469136
0.457164
0.47684
0.470851
0.467221
0.466834
0.469665
0.471303
0.472139
0.4726
0.472851
0.473005
0.473236
0.473974
0.473983
0.473989
0.473967
0.473947
0.473132
0.473042
0.472912
0.472624
0.472081
0.470629
0.466257
0.463265
0.459897
0.472391
0.447935
0.472637
0.465064
0.447834
0.476135
0.473078
0.469349
0.46848
0.469917
0.471272
0.472069
0.472519
0.472775
0.472954
0.473128
0.473959
0.473969
0.473967
0.47396
0.473323
0.472993
0.472847
0.47265
0.472265
0.471575
0.469922
0.466139
0.463537
0.461136
0.473092
0.447801
0.466648
0.457156
0.446959
0.47686
0.475353
0.47154
0.469365
0.470351
0.471325
0.472057
0.472497
0.472758
0.472968
0.473148
0.473772
0.473906
0.473941
0.473943
0.473123
0.472916
0.472681
0.472396
0.471924
0.471164
0.469545
0.466231
0.464658
0.464345
0.472391
0.44795
0.455523
0.453174
0.447827
0.476135
0.472523
0.473745
0.469743
0.470782
0.471595
0.47228
0.472678
0.472925
0.473134
0.473285
0.473497
0.473893
0.473867
0.473846
0.473157
0.472965
0.472717
0.472405
0.471911
0.471076
0.469504
0.466832
0.468087
0.468971
0.473134
0.447509
0.44781
0.4586
0.446963
0.476862
0.452752
0.473805
0.47054
0.471383
0.472259
0.472901
0.47319
0.473352
0.473496
0.47354
0.473613
0.473888
0.473863
0.473636
0.473346
0.473214
0.473014
0.472735
0.472276
0.471373
0.469885
0.468247
0.472862
0.46939
0.472391
0.447846
0.447756
0.476833
0.447827
0.458545
0.447826
0.473759
0.472191
0.472334
0.473145
0.473532
0.473675
0.473738
0.473781
0.473792
0.473797
0.473882
0.473866
0.473692
0.473663
0.47363
0.473523
0.473364
0.473069
0.472321
0.471086
0.470416
0.473781
0.454598
0.473249
0.447594
0.461292
0.497046
0.447283
0.447826
0.446944
0.473859
0.473796
0.473264
0.473708
0.473781
0.473812
0.473823
0.473829
0.473839
0.473818
0.473876
0.473862
0.473801
0.473835
0.47383
0.473809
0.473773
0.473682
0.473346
0.472639
0.472599
0.473867
0.452071
0.472391
0.447934
0.486733
0.506701
0.447828
0.446945
0.447826
0.473802
0.473839
0.473664
0.473756
0.473815
0.473824
0.473832
0.473839
0.473845
0.473852
0.473871
0.473856
0.473853
0.473846
0.473839
0.473832
0.473824
0.473784
0.47365
0.473501
0.473809
0.473792
0.451248
0.473053
0.447901
0.503803
0.507372
0.455882
0.447826
0.446947
0.471422
0.473816
0.47381
0.47379
0.473826
0.473829
0.473832
0.47384
0.473845
0.473858
0.473866
0.47386
0.473862
0.473851
0.473844
0.47384
0.473833
0.473798
0.473726
0.473762
0.473804
0.473886
0.452068
0.455999
0.45217
0.507752
0.507373
0.486221
0.447574
0.447826
0.458659
0.473905
0.473827
0.473832
0.473833
0.473835
0.473839
0.473847
0.473853
0.473859
0.473873
0.473876
0.473869
0.473861
0.473855
0.473846
0.473839
0.473827
0.473811
0.473817
0.473857
0.469972
0.451292
0.452069
0.477597
0.508129
0.507476
0.507372
0.466668
0.447402
0.449873
0.473827
0.473862
0.473838
0.473839
0.473841
0.473851
0.473855
0.473868
0.473863
0.473879
0.473886
0.47387
0.473873
0.473865
0.473855
0.473847
0.473829
0.473805
0.473844
0.473817
0.455498
0.452068
0.455461
0.507367
0.508331
0.505884
0.50776
0.497212
0.447826
0.44878
0.471973
0.473839
0.473846
0.473852
0.473852
0.473858
0.473866
0.473874
0.473881
0.473881
0.473892
0.473887
0.47388
0.473871
0.473864
0.473857
0.473846
0.473836
0.473829
0.473918
0.452068
0.451862
0.479475
0.508443
0.50833
0.459981
0.507331
0.507216
0.454081
0.449511
0.463293
0.473921
0.473852
0.47386
0.47386
0.473866
0.473876
0.473881
0.473887
0.473889
0.473898
0.473894
0.473884
0.473877
0.473869
0.47385
0.473844
0.473838
0.473908
0.465613
0.451983
0.452343
0.503557
0.508128
0.481978
0.458816
0.507891
0.507223
0.471941
0.453882
0.459494
0.473852
0.473866
0.473864
0.473866
0.473874
0.473883
0.473892
0.473894
0.4739
0.473907
0.473901
0.473893
0.473883
0.473863
0.47383
0.473838
0.473839
0.473826
0.459243
0.452888
0.465769
0.507839
0.508728
0.463382
0.471983
0.494013
0.507319
0.491667
0.461925
0.459523
0.473935
0.473864
0.473878
0.473876
0.473882
0.473888
0.473896
0.473901
0.473907
0.473911
0.473908
0.473864
0.473842
0.473812
0.473826
0.473836
0.473826
0.473918
0.459276
0.460356
0.489201
0.507952
0.508011
0.472557
0.477845
0.478364
0.507178
0.504177
0.471839
0.45956
0.473218
0.473778
0.47369
0.473648
0.473642
0.47364
0.473631
0.473822
0.473911
0.473914
0.47377
0.473513
0.473583
0.473586
0.473632
0.473716
0.473842
0.473533
0.459303
0.472761
0.504933
0.507807
0.49407
0.478224
0.469562
0.475457
0.507364
0.507067
0.483761
0.460698
0.468783
0.472074
0.472711
0.47296
0.473125
0.473129
0.473158
0.47341
0.473914
0.473918
0.473346
0.473194
0.473213
0.4732
0.473085
0.472944
0.47282
0.469075
0.460808
0.486717
0.507689
0.508035
0.474358
0.46507
0.431673
0.451625
0.507066
0.507335
0.497316
0.466229
0.467744
0.471022
0.472138
0.472647
0.472965
0.473038
0.473112
0.473184
0.473918
0.473927
0.47318
0.473155
0.473147
0.473069
0.472779
0.472345
0.471283
0.468335
0.467322
0.4999
0.507767
0.507686
0.44542
0.426484
0.398188
0.405989
0.505355
0.507019
0.506665
0.476328
0.469215
0.471826
0.472828
0.473198
0.473431
0.473502
0.473519
0.473318
0.473834
0.473927
0.473313
0.473509
0.473548
0.473483
0.473241
0.472893
0.471872
0.469554
0.47787
0.507326
0.507501
0.501246
0.401816
0.39699
0.389113
0.386986
0.44754
0.507181
0.506904
0.487241
0.474644
0.474838
0.475353
0.475277
0.475129
0.474957
0.474719
0.474097
0.473967
0.473998
0.474112
0.474669
0.474902
0.475072
0.475175
0.475237
0.474744
0.474939
0.488515
0.507501
0.507942
0.440621
0.387083
0.389027
0.387182
0.387167
0.398692
0.489063
0.507026
0.493671
0.481204
0.478589
0.478353
0.477837
0.47726
0.476757
0.476276
0.475538
0.474753
0.474756
0.475598
0.476249
0.476675
0.477161
0.477724
0.478254
0.478567
0.481571
0.494263
0.507688
0.483754
0.395665
0.387294
0.387247
0.387063
0.386866
0.389115
0.429572
0.496456
0.49204
0.484329
0.48041
0.47952
0.478859
0.478195
0.477691
0.477257
0.476659
0.475817
0.475847
0.476749
0.477262
0.477648
0.478152
0.478833
0.479512
0.480451
0.484571
0.491991
0.494119
0.425256
0.38828
0.387005
0.387196
0.38697
0.387063
0.389829
0.40241
0.466189
0.482981
0.483268
0.479976
0.47891
0.478273
0.477736
0.477409
0.477121
0.476676
0.476068
0.476113
0.476759
0.477151
0.477403
0.477749
0.478297
0.47892
0.479993
0.483306
0.482209
0.464614
0.401687
0.389259
0.387196
0.387102
0.387063
0.38697
0.392939
0.40125
0.452795
0.471614
0.478258
0.477051
0.47616
0.475765
0.475591
0.475606
0.475587
0.475517
0.475283
0.475323
0.475566
0.475651
0.475666
0.475682
0.475855
0.476185
0.477015
0.478049
0.470972
0.452483
0.40107
0.3928
0.387102
0.387196
0.387912
0.387172
0.397378
0.405146
0.45069
0.466035
0.472079
0.472852
0.472583
0.472535
0.472613
0.472725
0.472853
0.47308
0.473249
0.473275
0.473092
0.472896
0.472797
0.472685
0.472606
0.472601
0.472821
0.47192
0.465896
0.450583
0.405188
0.397736
0.387294
0.388073
0.396349
0.387193
0.402517
0.413076
0.451759
0.465708
0.469365
0.470811
0.47094
0.470996
0.471023
0.471017
0.471084
0.471299
0.471492
0.471504
0.4713
0.471081
0.471024
0.471024
0.471001
0.470946
0.47083
0.469383
0.465725
0.451736
0.413496
0.403447
0.387329
0.396383
0.413284
0.387953
0.409265
0.421826
0.454907
0.466946
0.469471
0.470537
0.470768
0.470808
0.470807
0.470806
0.47082
0.470925
0.470992
0.470999
0.470927
0.470818
0.470792
0.470795
0.470801
0.470773
0.470569
0.469528
0.467051
0.455146
0.422813
0.410634
0.388093
0.413111
0.434908
0.392679
0.418856
0.431612
0.458891
0.468993
0.470053
0.47061
0.470756
0.470829
0.470843
0.470857
0.470881
0.470946
0.470975
0.47098
0.470948
0.470884
0.47085
0.470842
0.470826
0.470761
0.470634
0.470116
0.469095
0.459466
0.433026
0.42015
0.392783
0.434689
0.455256
0.403146
0.43061
0.443082
0.462741
0.469318
0.470558
0.470716
0.470786
0.470882
0.470906
0.470922
0.470938
0.470945
0.470963
0.470965
0.470949
0.470941
0.470925
0.470915
0.470884
0.470794
0.470725
0.470573
0.46933
0.463428
0.444394
0.431326
0.403114
0.455079
0.470042
0.418068
0.44094
0.453746
0.466148
0.468404
0.470554
0.470726
0.470795
0.470871
0.470893
0.470896
0.470892
0.470839
0.470779
0.470763
0.470825
0.47089
0.470892
0.470897
0.470875
0.470806
0.470737
0.470551
0.468448
0.466681
0.45442
0.441006
0.417829
0.469913
0.479434
0.436045
0.448221
0.460852
0.468845
0.468409
0.470254
0.470626
0.470584
0.470601
0.470592
0.470554
0.470435
0.470087
0.46986
0.469808
0.470004
0.470382
0.470502
0.470577
0.470582
0.47059
0.470639
0.47025
0.468454
0.469146
0.46084
0.447976
0.43565
0.479317
0.487194
0.452468
0.453362
0.464796
0.471397
0.468414
0.469464
0.470025
0.469592
0.469501
0.469443
0.469364
0.469205
0.469165
0.469162
0.469159
0.469157
0.469154
0.469295
0.46941
0.469437
0.469586
0.470027
0.46946
0.468459
0.471509
0.464503
0.453069
0.451866
0.487086
0.49491
0.463696
0.45577
0.4667
0.4734
0.46842
0.468602
0.469153
0.469155
0.469157
0.469159
0.469161
0.469163
0.469162
0.469159
0.469157
0.469154
0.469152
0.46915
0.469147
0.469145
0.469143
0.469142
0.468589
0.468464
0.473415
0.46641
0.455492
0.462865
0.494815
0.499914
0.471425
0.456247
0.466003
0.473501
0.468931
0.468857
0.469144
0.469155
0.469159
0.469161
0.469163
0.469166
0.469165
0.469162
0.469159
0.469157
0.469154
0.469152
0.46915
0.469147
0.469145
0.469141
0.468854
0.468946
0.473484
0.465741
0.45595
0.470679
0.499677
0.50113
0.480565
0.45641
0.462892
0.473484
0.470986
0.470503
0.470323
0.469956
0.469746
0.469702
0.469742
0.46995
0.47025
0.470527
0.470529
0.470249
0.469938
0.469747
0.469709
0.469764
0.469981
0.470344
0.47053
0.470948
0.473529
0.462607
0.456112
0.480416
0.500776
0.501179
0.490687
0.456496
0.459519
0.473553
0.473024
0.472687
0.472393
0.472097
0.471844
0.471816
0.471875
0.472201
0.4726
0.472899
0.472892
0.472611
0.472172
0.471883
0.47181
0.471874
0.472122
0.472422
0.472706
0.472996
0.473484
0.459105
0.456244
0.491562
0.500848
0.501229
0.496003
0.456552
0.458343
0.473484
0.473495
0.473484
0.473492
0.473484
0.473491
0.473484
0.473495
0.473484
0.473503
0.473484
0.473507
0.473484
0.473498
0.473484
0.473491
0.473484
0.473491
0.473484
0.473494
0.473484
0.473582
0.457884
0.45633
0.497814
0.500898
0.501297
0.494653
0.456891
0.458653
0.473628
0.473484
0.473547
0.473484
0.473543
0.473484
0.473548
0.473484
0.473559
0.473484
0.473574
0.473484
0.473566
0.473484
0.473548
0.473484
0.47354
0.473484
0.473536
0.473484
0.473541
0.473484
0.458104
0.457161
0.496349
0.50095
0.490743
0.487467
0.460228
0.459424
0.473484
0.473649
0.473484
0.473644
0.473484
0.473654
0.473484
0.473663
0.473484
0.473675
0.473484
0.473678
0.473484
0.473665
0.473484
0.473652
0.473484
0.473641
0.473484
0.473645
0.473484
0.473701
0.45886
0.461666
0.488056
0.482091
0.433432
0.475217
0.466537
0.459454
0.473812
0.473484
0.473786
0.473484
0.473785
0.473484
0.473801
0.473484
0.473809
0.473484
0.473793
0.473484
0.473793
0.473484
0.4738
0.473484
0.473785
0.473484
0.473767
0.473484
0.473778
0.473484
0.459187
0.468558
0.474496
0.426189
0.416529
0.463348
0.470952
0.457846
0.473484
0.473818
0.473484
0.473818
0.473484
0.473818
0.473484
0.473817
0.473484
0.473811
0.473484
0.473793
0.473484
0.473807
0.473484
0.473811
0.473484
0.473812
0.473484
0.473812
0.473484
0.473813
0.457834
0.471808
0.461936
0.413306
0.416682
0.452678
0.47093
0.455196
0.473818
0.473465
0.473818
0.473484
0.472572
0.470737
0.469248
0.468279
0.468591
0.469633
0.470712
0.470606
0.469843
0.468532
0.468585
0.469263
0.471102
0.472824
0.473813
0.473484
0.473677
0.473484
0.455201
0.471763
0.449742
0.413938
0.41816
0.446183
0.47114
0.455158