/*--------------------------------*- C++ -*----------------------------------*\
| =========                 |                                                 |
| \\      /  F ield         | OpenFOAM: The Open Source CFD Toolbox           |
|  \\    /   O peration     | Version:  2.3.0                                 |
|   \\  /    A nd           | Web:      www.OpenFOAM.org                      |
|    \\/     M anipulation  |                                                 |
\*---------------------------------------------------------------------------*/
FoamFile
{
    version     2.0;
    format      ascii;
    class       surfaceScalarField;
    location    "0.18";
    object      phi;
}
// * * * * * * * * * * * * * * * * * * * * * * * * * * * * * * * * * * * * * //

dimensions      [0 3 -1 0 0 0 0];

internalField   nonuniform List<scalar> 
11770
(
-2.64186e-06
5.14323e-05
-1.77772e-07
4.62629e-05
1.9214e-06
4.66478e-05
2.60362e-06
4.80955e-05
1.94901e-06
4.94525e-05
3.79278e-07
5.03831e-05
-1.18691e-06
5.03593e-05
-2.10641e-06
4.96867e-05
-2.33436e-06
4.89714e-05
-2.12816e-06
4.85187e-05
-1.72988e-06
4.83149e-05
-1.25184e-06
4.82247e-05
-7.77528e-07
4.82227e-05
-3.63396e-07
4.82781e-05
-3.95954e-08
4.83673e-05
2.73642e-07
4.8376e-05
6.77651e-07
4.82872e-05
1.14153e-06
4.8232e-05
1.61409e-06
4.82285e-05
2.02018e-06
4.83066e-05
2.23793e-06
4.85069e-05
2.03606e-06
4.89453e-05
1.15224e-06
4.96479e-05
-3.86113e-07
5.03291e-05
-1.93501e-06
5.03697e-05
-2.57591e-06
4.94408e-05
-1.89553e-06
4.80916e-05
1.85103e-07
4.66658e-05
2.6466e-06
4.62673e-05
5.1434e-05
-1.27113e-06
5.39596e-05
1.32487e-06
4.4797e-05
3.95628e-06
4.51398e-05
4.45095e-06
4.87389e-05
3.42692e-06
5.1631e-05
1.20652e-06
5.37731e-05
-1.11829e-06
5.38452e-05
-2.38931e-06
5.21053e-05
-2.48516e-06
5.0202e-05
-1.99586e-06
4.91558e-05
-1.35393e-06
4.87949e-05
-8.3036e-07
4.88204e-05
-4.88501e-07
4.89993e-05
-2.54374e-07
4.91631e-05
-5.27858e-08
4.92861e-05
1.38357e-07
4.93053e-05
3.65427e-07
4.91791e-05
7.01894e-07
4.90141e-05
1.22155e-06
4.88281e-05
1.84332e-06
4.88065e-05
2.35896e-06
4.91172e-05
2.28833e-06
5.01499e-05
1.0737e-06
5.20091e-05
-1.20798e-06
5.37715e-05
-3.41283e-06
5.37474e-05
-4.43493e-06
5.16185e-05
-3.94486e-06
4.8737e-05
-1.32414e-06
4.51689e-05
1.26834e-06
4.48055e-05
5.39583e-05
3.07778e-08
5.39523e-05
2.68716e-06
4.21616e-05
3.98751e-06
4.38709e-05
4.80894e-06
4.79556e-05
4.55603e-06
5.19272e-05
2.55623e-06
5.582e-05
-4.9729e-07
5.69459e-05
-2.27145e-06
5.39227e-05
-2.08261e-06
5.00522e-05
-1.3474e-06
4.84576e-05
-6.35267e-07
4.81186e-05
-1.74522e-07
4.83952e-05
6.96138e-09
4.88536e-05
9.01448e-09
4.91972e-05
-5.77222e-08
4.93894e-05
-1.30006e-07
4.94144e-05
-1.38113e-07
4.92236e-05
4.54901e-08
4.88663e-05
4.85504e-07
4.84236e-05
1.20163e-06
4.81258e-05
1.93639e-06
4.84188e-05
2.15488e-06
4.99702e-05
4.491e-07
5.3758e-05
-2.54569e-06
5.68132e-05
-4.51977e-06
5.5768e-05
-4.77804e-06
5.19195e-05
-4.00615e-06
4.80035e-05
-2.75583e-06
4.39504e-05
-1.58951e-07
4.22298e-05
5.38227e-05
2.47194e-06
5.1483e-05
5.76252e-06
3.88659e-05
5.1923e-06
4.44391e-05
6.0106e-06
4.7137e-05
7.07607e-06
5.08647e-05
4.86407e-06
5.80401e-05
-6.87917e-07
6.25081e-05
-3.93581e-06
5.71769e-05
-2.61347e-06
4.87312e-05
-1.54972e-06
4.73926e-05
-5.96341e-07
4.71623e-05
-1.09196e-08
4.78054e-05
1.91109e-07
4.86464e-05
1.17944e-07
4.9265e-05
-7.45037e-08
4.95769e-05
-2.81212e-07
4.96164e-05
-3.44424e-07
4.9282e-05
-1.4585e-07
4.86623e-05
4.40196e-07
4.78324e-05
1.3839e-06
4.71784e-05
2.43557e-06
4.7366e-05
3.72434e-06
4.86833e-05
6.66721e-07
5.68217e-05
-4.78377e-06
6.22725e-05
-6.96928e-06
5.79602e-05
-5.96535e-06
5.09187e-05
-5.22882e-06
4.7268e-05
-5.9575e-06
4.46776e-05
-2.72816e-06
3.89959e-05
5.1097e-05
7.63637e-06
4.38247e-05
1.02073e-05
3.62704e-05
1.17519e-05
4.28723e-05
1.30187e-05
4.58512e-05
1.37269e-05
5.01418e-05
1.17849e-05
5.99732e-05
7.09234e-06
6.71969e-05
1.92633e-06
6.23411e-05
-5.36561e-07
5.1189e-05
-2.38557e-07
4.70902e-05
4.35695e-07
4.64845e-05
7.67468e-07
4.74697e-05
6.91699e-07
4.87176e-05
3.58423e-07
4.95939e-05
-1.16138e-07
5.00472e-05
-5.51611e-07
5.00474e-05
-8.81938e-07
4.96078e-05
-9.41882e-07
4.87174e-05
-5.98954e-07
4.74842e-05
9.63769e-08
4.64787e-05
3.44519e-07
4.71148e-05
-1.95113e-06
5.09754e-05
-7.01664e-06
6.18853e-05
-1.1877e-05
6.71287e-05
-1.37269e-05
5.98008e-05
-1.31863e-05
5.03636e-05
-1.19648e-05
4.60276e-05
-1.04925e-05
4.31832e-05
-7.79485e-06
3.62737e-05
4.32802e-05
1.36586e-05
3.01282e-05
2.01111e-05
2.97794e-05
2.65473e-05
3.63994e-05
2.95648e-05
4.27989e-05
2.87172e-05
5.09567e-05
2.67946e-05
6.18655e-05
2.41548e-05
6.98096e-05
1.8938e-05
6.75346e-05
1.08599e-05
5.92468e-05
7.02465e-06
5.09098e-05
4.96637e-06
4.85306e-05
3.54712e-06
4.88788e-05
2.2205e-06
5.00354e-05
1.06551e-06
5.07412e-05
-1.4037e-07
5.12456e-05
-1.26907e-06
5.11684e-05
-2.44308e-06
5.07738e-05
-3.70825e-06
4.99738e-05
-5.16685e-06
4.89323e-05
-7.1296e-06
4.8429e-05
-1.09989e-05
5.0969e-05
-1.88363e-05
5.87932e-05
-2.45985e-05
6.76245e-05
-2.69022e-05
6.94056e-05
-2.93364e-05
6.22048e-05
-3.01465e-05
5.1141e-05
-2.72307e-05
4.30768e-05
-2.06093e-05
3.65249e-05
-1.38968e-05
2.95225e-05
2.93451e-05
1.45089e-05
1.55766e-05
2.51618e-05
1.90846e-05
3.33739e-05
2.81473e-05
3.86373e-05
3.74976e-05
3.83653e-05
5.11931e-05
3.7471e-05
6.27262e-05
3.89419e-05
6.83066e-05
3.78348e-05
6.86108e-05
3.08888e-05
6.6162e-05
2.15223e-05
6.02455e-05
1.43602e-05
5.56631e-05
9.16574e-06
5.40452e-05
5.50761e-06
5.36667e-05
2.43312e-06
5.37897e-05
-1.9221e-07
5.38453e-05
-2.92976e-06
5.38804e-05
-5.86442e-06
5.36825e-05
-9.62061e-06
5.37032e-05
-1.46381e-05
5.39219e-05
-2.19455e-05
5.57069e-05
-3.09928e-05
5.99853e-05
-3.8482e-05
6.62513e-05
-3.93524e-05
6.8464e-05
-3.81903e-05
6.82115e-05
-3.9084e-05
6.30648e-05
-3.93323e-05
5.13536e-05
-3.41134e-05
3.78199e-05
-2.58725e-05
2.82439e-05
-1.51271e-05
1.87349e-05
1.4175e-05
1.46602e-05
8.73433e-07
2.62931e-05
7.4099e-06
3.50365e-05
1.93643e-05
4.25503e-05
2.99466e-05
4.47926e-05
4.89161e-05
4.05525e-05
6.69337e-05
3.80076e-05
7.08192e-05
3.55112e-05
7.10748e-05
3.23328e-05
6.93075e-05
2.68036e-05
6.57409e-05
2.00558e-05
6.23765e-05
1.38872e-05
6.01791e-05
8.52909e-06
5.89902e-05
3.93433e-06
5.83499e-05
-3.54339e-07
5.80995e-05
-4.58542e-06
5.8077e-05
-9.26376e-06
5.83263e-05
-1.45229e-05
5.89277e-05
-2.07476e-05
6.01121e-05
-2.73421e-05
6.2267e-05
-3.30071e-05
6.56164e-05
-3.59736e-05
6.91847e-05
-3.85437e-05
7.10016e-05
-4.11713e-05
7.08067e-05
-4.51101e-05
6.69711e-05
-4.31806e-05
4.93894e-05
-3.55804e-05
3.01822e-05
-2.68752e-05
1.9499e-05
-1.51419e-05
6.95974e-06
-1.01009e-06
1.15589e-05
-1.07258e-05
2.23473e-05
-3.41819e-06
3.03917e-05
1.1282e-05
3.82443e-05
2.20583e-05
4.42246e-05
4.29027e-05
3.92441e-05
7.18834e-05
3.4572e-05
7.54596e-05
3.08342e-05
7.47805e-05
2.71963e-05
7.29126e-05
2.27078e-05
7.01958e-05
1.76452e-05
6.74047e-05
1.26215e-05
6.51679e-05
7.97189e-06
6.36046e-05
3.68189e-06
6.26045e-05
-3.98507e-07
6.21444e-05
-4.47747e-06
6.21205e-05
-8.76027e-06
6.25737e-05
-1.34027e-05
6.35348e-05
-1.83975e-05
6.50719e-05
-2.34449e-05
6.728e-05
-2.7867e-05
7.00048e-05
-3.14422e-05
7.27271e-05
-3.49791e-05
7.45061e-05
-3.93478e-05
7.51436e-05
-4.45172e-05
7.21096e-05
-3.845e-05
4.3289e-05
-3.04284e-05
2.2125e-05
-2.24014e-05
1.14341e-05
-1.16441e-05
-3.83732e-06
-1.26946e-05
7.27146e-06
-1.80345e-05
1.64949e-05
-1.26789e-05
2.33778e-05
4.36322e-06
2.98961e-05
1.55059e-05
3.65593e-05
3.62075e-05
3.41425e-05
7.42705e-05
2.94916e-05
8.00796e-05
2.56772e-05
7.85631e-05
2.21204e-05
7.64371e-05
1.837e-05
7.39131e-05
1.44158e-05
7.13253e-05
1.04666e-05
6.90828e-05
6.66954e-06
6.7367e-05
3.04558e-06
6.61936e-05
-4.42711e-07
6.55978e-05
-3.95265e-06
6.55955e-05
-7.54969e-06
6.61359e-05
-1.13483e-05
6.72988e-05
-1.528e-05
6.89694e-05
-1.92106e-05
7.11768e-05
-2.29462e-05
7.37072e-05
-2.63941e-05
7.61424e-05
-3.00863e-05
7.81663e-05
-3.46006e-05
7.96268e-05
-3.66516e-05
7.41304e-05
-2.97378e-05
3.6343e-05
-2.30533e-05
1.54062e-05
-1.64067e-05
4.75158e-06
-7.22085e-06
-1.30605e-05
-1.99526e-05
3.93976e-06
-2.20089e-05
1.08887e-05
-1.96628e-05
1.63672e-05
-1.14955e-06
2.12811e-05
1.05587e-05
2.58515e-05
3.16052e-05
2.67213e-05
7.33711e-05
2.34607e-05
8.33098e-05
2.04398e-05
8.15527e-05
1.74849e-05
7.93599e-05
1.44303e-05
7.6935e-05
1.12773e-05
7.4445e-05
8.16138e-06
7.2165e-05
5.13876e-06
7.03555e-05
2.28046e-06
6.90176e-05
-5.08693e-07
6.83525e-05
-3.26222e-06
6.83145e-05
-6.1422e-06
6.89815e-05
-9.13326e-06
7.02557e-05
-1.22677e-05
7.207e-05
-1.54077e-05
7.42835e-05
-1.84753e-05
7.6742e-05
-2.14188e-05
7.90538e-05
-2.44605e-05
8.11765e-05
-2.74541e-05
8.25897e-05
-2.62021e-05
7.28484e-05
-2.11346e-05
3.12431e-05
-1.60751e-05
1.0313e-05
-1.08941e-05
-4.63997e-07
-3.73383e-06
-2.0256e-05
-2.37209e-05
1.80304e-06
-2.38449e-05
5.9151e-06
-2.38082e-05
9.86205e-06
-5.12998e-06
1.3404e-05
6.98377e-06
1.64253e-05
2.85513e-05
1.87673e-05
7.09988e-05
1.75113e-05
8.45355e-05
1.5474e-05
8.35588e-05
1.32419e-05
8.15601e-05
1.07792e-05
7.93653e-05
8.2642e-06
7.69271e-05
5.78656e-06
7.46092e-05
3.53141e-06
7.25768e-05
1.40696e-06
7.1108e-05
-5.40413e-07
7.02656e-05
-2.53519e-06
7.02751e-05
-4.60096e-06
7.10132e-05
-6.89805e-06
7.2519e-05
-9.33984e-06
7.44783e-05
-1.19142e-05
7.68248e-05
-1.44014e-05
7.91967e-05
-1.67684e-05
8.13889e-05
-1.88638e-05
8.32405e-05
-2.04557e-05
8.41509e-05
-1.73925e-05
6.97546e-05
-1.37573e-05
2.75748e-05
-9.91327e-06
6.43545e-06
-5.88007e-06
-4.53116e-06
-1.24204e-06
-2.49276e-05
-2.49954e-05
4.40303e-07
-2.43173e-05
1.76875e-06
-2.51693e-05
4.40162e-06
-7.79597e-06
6.57946e-06
4.77274e-06
8.93922e-06
2.6158e-05
1.25649e-05
6.73416e-05
1.23939e-05
8.46757e-05
1.12544e-05
8.4667e-05
9.46138e-06
8.33214e-05
7.43206e-06
8.13624e-05
5.28159e-06
7.90447e-05
3.36363e-06
7.64939e-05
1.74883e-06
7.41579e-05
4.5579e-07
7.2367e-05
-6.20295e-07
7.13075e-05
-1.64109e-06
7.12617e-05
-2.96136e-06
7.22994e-05
-4.51264e-06
7.40365e-05
-6.48751e-06
7.64199e-05
-8.62308e-06
7.89276e-05
-1.07897e-05
8.13309e-05
-1.26749e-05
8.32423e-05
-1.41733e-05
8.47074e-05
-1.45818e-05
8.45286e-05
-1.05113e-05
6.56523e-05
-7.57084e-06
2.46007e-05
-4.97171e-06
3.80279e-06
-1.8467e-06
-7.68972e-06
2.74207e-07
-2.70806e-05
-2.47522e-05
-6.43337e-07
-2.37058e-05
-1.16833e-06
-2.46769e-05
6.08463e-08
-9.05783e-06
7.20923e-07
4.0793e-06
2.8491e-06
2.39957e-05
8.17473e-06
6.19833e-05
8.80451e-06
8.40147e-05
7.88053e-06
8.55594e-05
6.30721e-06
8.48629e-05
4.29232e-06
8.33451e-05
2.33017e-06
8.09743e-05
6.79818e-07
7.81112e-05
-1.58054e-07
7.49621e-05
-5.26561e-07
7.27015e-05
-6.57476e-07
7.14042e-05
-7.87993e-07
7.1358e-05
-1.10304e-06
7.25804e-05
-1.92352e-06
7.48232e-05
-3.50902e-06
7.79722e-05
-5.57293e-06
8.09587e-05
-7.58744e-06
8.33132e-05
-9.40633e-06
8.50293e-05
-1.0454e-05
8.57236e-05
-1.02619e-05
8.43053e-05
-4.57033e-06
5.9928e-05
-1.9811e-06
2.19773e-05
-1.10234e-06
2.89072e-06
4.62451e-07
-9.28735e-06
3.18795e-07
-2.69682e-05
-2.44641e-05
-1.61297e-06
-2.21245e-05
-3.30795e-06
-2.30146e-05
-3.59561e-06
-8.80247e-06
-4.04617e-06
4.49634e-06
-2.18519e-06
2.21003e-05
4.47929e-06
5.52853e-05
6.56917e-06
8.18929e-05
5.57594e-06
8.6521e-05
3.69596e-06
8.67111e-05
1.49432e-06
8.55147e-05
-3.94716e-07
8.28308e-05
-1.2901e-06
7.89736e-05
-1.33225e-06
7.49709e-05
-9.82846e-07
7.23185e-05
-6.61198e-07
7.10488e-05
-3.42355e-07
7.10053e-05
4.86567e-10
7.22039e-05
-2.04294e-08
7.48107e-05
-8.51032e-07
7.87697e-05
-2.67087e-06
8.2746e-05
-4.97422e-06
8.55844e-05
-6.83859e-06
8.68619e-05
-8.17497e-06
8.70284e-05
-5.76879e-06
8.18673e-05
1.05251e-06
5.30733e-05
3.14749e-06
1.98481e-05
2.40595e-06
3.59924e-06
2.2638e-06
-9.17744e-06
1.51691e-07
-2.48875e-05
-2.43435e-05
-2.35651e-06
-1.97995e-05
-4.8506e-06
-2.05537e-05
-6.56645e-06
-7.11894e-06
-7.60149e-06
5.49792e-06
-6.63347e-06
2.10981e-05
-2.97064e-07
4.89152e-05
4.71761e-06
7.6846e-05
3.91169e-06
8.72954e-05
1.87599e-06
8.87153e-05
-1.83133e-07
8.75421e-05
-1.2178e-06
8.38335e-05
-1.1816e-06
7.89051e-05
-9.64848e-07
7.47216e-05
-7.60565e-07
7.20815e-05
-6.14128e-07
7.08697e-05
-4.74432e-07
7.08329e-05
-2.77216e-07
7.1974e-05
-5.54697e-08
7.45564e-05
-2.91101e-08
7.8711e-05
-9.47938e-07
8.36328e-05
-2.86365e-06
8.74683e-05
-4.9096e-06
8.88763e-05
-5.52244e-06
8.76097e-05
5.26048e-08
7.62603e-05
6.3963e-06
4.66961e-05
7.20622e-06
1.90045e-05
5.48828e-06
5.28437e-06
4.39748e-06
-8.11864e-06
3.87127e-07
-2.091e-05
-2.39885e-05
-2.97365e-06
-1.68575e-05
-5.81567e-06
-1.77454e-05
-8.65886e-06
-4.30856e-06
-9.96165e-06
6.7676e-06
-9.95307e-06
2.10558e-05
-5.29685e-06
4.42256e-05
8.85409e-07
7.06319e-05
2.18814e-06
8.59615e-05
1.06514e-06
8.98074e-05
2.42219e-07
8.83341e-05
1.49837e-07
8.38949e-05
1.72551e-07
7.88512e-05
-2.42242e-08
7.48871e-05
-3.02149e-07
7.2328e-05
-5.62157e-07
7.10982e-05
-8.24598e-07
7.10639e-05
-1.09595e-06
7.22139e-05
-1.27735e-06
7.47064e-05
-1.19674e-06
7.85992e-05
-1.18749e-06
8.35924e-05
-1.77378e-06
8.80236e-05
-2.5351e-06
8.96067e-05
-6.51292e-07
8.56949e-05
6.01158e-06
6.95656e-05
1.06263e-05
4.20484e-05
9.88536e-06
1.97126e-05
7.66935e-06
7.46775e-06
5.68677e-06
-6.16827e-06
8.00328e-07
-1.60585e-05
-2.32215e-05
-3.84037e-06
-1.30494e-05
-6.77556e-06
-1.48437e-05
-9.75414e-06
-1.36333e-06
-1.13991e-05
8.38005e-06
-1.21057e-05
2.17296e-05
-9.07756e-06
4.11651e-05
-3.63919e-06
6.51624e-05
-2.47535e-07
8.254e-05
9.07023e-07
8.86233e-05
1.51342e-06
8.76983e-05
1.64532e-06
8.37334e-05
1.26044e-06
7.92063e-05
6.58496e-07
7.54591e-05
5.18078e-08
7.29046e-05
-5.21656e-07
7.16414e-05
-1.08969e-06
7.16017e-05
-1.67839e-06
7.27724e-05
-2.23648e-06
7.52345e-05
-2.54198e-06
7.88748e-05
-2.23296e-06
8.32537e-05
-1.29081e-06
8.7052e-05
4.21221e-07
8.78651e-05
4.49531e-06
8.15908e-05
1.05085e-05
6.35214e-05
1.33851e-05
3.91396e-05
1.15967e-05
2.14687e-05
9.49093e-06
9.54109e-06
6.33443e-06
-3.04468e-06
1.99222e-06
-1.17527e-05
-2.12642e-05
-4.56002e-06
-8.52235e-06
-7.71462e-06
-1.1722e-05
-9.96817e-06
8.57245e-07
-1.20129e-05
1.0393e-05
-1.31429e-05
2.2828e-05
-1.15031e-05
3.94942e-05
-7.071e-06
6.07005e-05
-2.62922e-06
7.80699e-05
1.67786e-07
8.57987e-05
1.60315e-06
8.62353e-05
1.92225e-06
8.33864e-05
1.53614e-06
7.95641e-05
8.89794e-07
7.60768e-05
1.8782e-07
7.35778e-05
-4.93694e-07
7.2294e-05
-1.17041e-06
7.22495e-05
-1.84033e-06
7.34135e-05
-2.42131e-06
7.57868e-05
-2.6824e-06
7.91074e-05
-2.14414e-06
8.26873e-05
-3.89113e-07
8.5269e-05
2.94236e-06
8.45056e-05
8.1049e-06
7.63996e-05
1.32973e-05
5.82989e-05
1.47484e-05
3.76574e-05
1.25772e-05
2.36083e-05
1.06944e-05
1.13916e-05
6.88781e-06
7.27989e-07
4.26052e-06
-9.16217e-06
-1.70398e-05
-4.85252e-06
-3.70358e-06
-7.84559e-06
-8.76209e-06
-9.20803e-06
2.18814e-06
-1.18309e-05
1.29852e-05
-1.36101e-05
2.45772e-05
-1.31025e-05
3.8957e-05
-9.51154e-06
5.70813e-05
-4.99674e-06
7.35284e-05
-1.5262e-06
8.23023e-05
4.47239e-07
8.4236e-05
1.21547e-06
8.25919e-05
1.21342e-06
7.95395e-05
7.94364e-07
7.64688e-05
1.88287e-07
7.41565e-05
-4.70751e-07
7.29256e-05
-1.12754e-06
7.28788e-05
-1.7029e-06
7.39615e-05
-2.05642e-06
7.61131e-05
-1.94163e-06
7.89658e-05
-9.84517e-07
8.17038e-05
1.29846e-06
8.29598e-05
5.20473e-06
8.0573e-05
1.04222e-05
7.11548e-05
1.46573e-05
5.40349e-05
1.4857e-05
3.74277e-05
1.285e-05
2.55843e-05
1.10433e-05
1.31663e-05
7.62116e-06
4.11601e-06
6.14063e-06
-7.71729e-06
-1.09346e-05
-6.27806e-06
2.53981e-06
-7.19562e-06
-7.87889e-06
-8.36968e-06
3.33158e-06
-1.12855e-05
1.5872e-05
-1.39199e-05
2.71835e-05
-1.44092e-05
3.94188e-05
-1.16883e-05
5.43341e-05
-7.45297e-06
6.92681e-05
-3.73327e-06
7.85585e-05
-1.28558e-06
8.17643e-05
5.57647e-08
8.12262e-05
5.65505e-07
7.90049e-05
4.8621e-07
7.65228e-05
8.33163e-08
7.45338e-05
-4.52209e-07
7.34353e-05
-9.86054e-07
7.33868e-05
-1.36311e-06
7.43128e-05
-1.39012e-06
7.61147e-05
-8.01877e-07
7.83525e-05
6.83489e-07
8.01937e-05
3.32067e-06
8.02981e-05
7.35874e-06
7.65101e-05
1.21126e-05
6.63751e-05
1.48538e-05
5.12664e-05
1.38416e-05
3.84114e-05
1.2144e-05
2.72519e-05
1.03028e-05
1.49764e-05
8.52262e-06
5.86328e-06
6.91042e-06
-6.13909e-06
-4.05891e-06
-6.9679e-06
9.47109e-06
-7.61064e-06
-7.2704e-06
-7.77666e-06
3.46667e-06
-1.00467e-05
1.81139e-05
-1.32995e-05
3.04102e-05
-1.51288e-05
4.12231e-05
-1.34773e-05
5.26582e-05
-9.79678e-06
6.55646e-05
-5.9924e-06
7.47318e-05
-3.11838e-06
7.88681e-05
-1.26172e-06
7.9347e-05
-3.00663e-07
7.80207e-05
9.91239e-09
7.61887e-05
-1.15537e-07
7.46354e-05
-4.37088e-07
7.37329e-05
-7.58062e-07
7.36837e-05
-8.73437e-07
7.44043e-05
-5.40689e-07
7.57583e-05
4.8899e-07
7.72995e-05
2.37701e-06
7.82827e-05
5.34684e-06
7.73056e-05
9.34336e-06
7.24905e-05
1.31284e-05
6.25659e-05
1.42088e-05
5.01604e-05
1.24616e-05
4.01316e-05
1.09052e-05
2.87798e-05
8.5157e-06
1.73364e-05
7.79306e-06
6.55457e-06
7.13339e-06
-5.51354e-06
3.04097e-06
-3.26401e-06
1.2702e-05
-7.72608e-06
-2.84267e-06
-7.87688e-06
3.5862e-06
-9.59595e-06
1.98046e-05
-1.2603e-05
3.33916e-05
-1.53401e-05
4.3937e-05
-1.47103e-05
5.20062e-05
-1.16967e-05
6.25296e-05
-8.02696e-06
7.10416e-05
-4.89161e-06
7.57124e-05
-2.65238e-06
7.70871e-05
-1.27061e-06
7.66178e-05
-5.92504e-07
7.54889e-05
-3.86726e-07
7.44076e-05
-4.19006e-07
7.3743e-05
-4.47162e-07
7.36897e-05
-2.41388e-07
7.41765e-05
4.53437e-07
7.50417e-05
1.80916e-06
7.59224e-05
4.01382e-06
7.60571e-05
7.1537e-06
7.41448e-05
1.08174e-05
6.88054e-05
1.33597e-05
6.00012e-05
1.31813e-05
5.03149e-05
1.08883e-05
4.23996e-05
8.86306e-06
3.07784e-05
6.45403e-06
1.97166e-05
6.44524e-06
6.53139e-06
7.33077e-06
-6.43424e-06
1.03377e-05
-5.92194e-07
1.32607e-05
-6.96705e-06
3.49742e-06
-8.34088e-06
4.92833e-06
-9.50398e-06
2.09394e-05
-1.15265e-05
3.53885e-05
-1.45189e-05
4.69068e-05
-1.51282e-05
5.25946e-05
-1.29033e-05
6.02849e-05
-9.65059e-06
6.77698e-05
-6.46942e-06
7.25124e-05
-3.99161e-06
7.45903e-05
-2.30097e-06
7.49078e-05
-1.27995e-06
7.44481e-05
-7.23028e-07
7.38306e-05
-4.01831e-07
7.34015e-05
-7.89817e-08
7.33465e-05
4.67572e-07
7.36098e-05
1.46145e-06
7.40279e-05
3.09035e-06
7.4274e-05
5.46731e-06
7.36608e-05
8.51964e-06
7.10732e-05
1.14744e-05
6.58309e-05
1.28176e-05
5.86371e-05
1.18317e-05
5.12787e-05
9.40693e-06
4.4801e-05
7.43796e-06
3.27215e-05
5.4615e-06
2.16644e-05
5.73707e-06
6.22289e-06
5.81472e-06
-6.54802e-06
1.6119e-05
1.34875e-06
1.18774e-05
-2.9232e-06
7.7333e-06
-8.5209e-06
1.04945e-05
-9.86924e-06
2.22599e-05
-1.08215e-05
3.63153e-05
-1.31629e-05
4.92258e-05
-1.46284e-05
5.40397e-05
-1.32949e-05
5.89323e-05
-1.06515e-05
6.51082e-05
-7.6938e-06
6.95371e-05
-5.15705e-06
7.20358e-05
-3.27652e-06
7.30094e-05
-1.97365e-06
7.3127e-05
-1.08067e-06
7.29191e-05
-3.92741e-07
7.26949e-05
2.89781e-07
7.26454e-05
1.15583e-06
7.27252e-05
2.40207e-06
7.27634e-05
4.19466e-06
7.24634e-05
6.60006e-06
7.12375e-05
9.29212e-06
6.83631e-05
1.13878e-05
6.37165e-05
1.19259e-05
5.80794e-05
1.04335e-05
5.27501e-05
8.31926e-06
4.68926e-05
6.91488e-06
3.41e-05
5.62122e-06
2.29292e-05
5.69443e-06
6.11594e-06
3.6336e-06
-4.52392e-06
1.97206e-05
2.4239e-06
9.41698e-06
1.25767e-06
8.86248e-06
-7.60833e-06
1.93264e-05
-1.03963e-05
2.502e-05
-1.0847e-05
3.67405e-05
-1.20453e-05
5.04016e-05
-1.33075e-05
5.52811e-05
-1.28535e-05
5.84592e-05
-1.0924e-05
6.31609e-05
-8.435e-06
6.70308e-05
-6.05147e-06
6.96354e-05
-4.09655e-06
7.10375e-05
-2.58266e-06
7.1596e-05
-1.39906e-06
7.17182e-05
-3.92587e-07
7.1671e-05
6.0185e-07
7.16335e-05
1.7439e-06
7.15658e-05
3.17158e-06
7.13186e-05
5.01615e-06
7.06018e-05
7.25765e-06
6.8979e-05
9.40709e-06
6.61963e-05
1.07256e-05
6.23798e-05
1.08302e-05
5.79556e-05
9.26905e-06
5.42906e-05
7.81236e-06
4.83267e-05
7.00328e-06
3.48829e-05
6.23505e-06
2.36683e-05
5.97568e-06
6.341e-06
7.17238e-07
6.98896e-07
2.04067e-05
2.31308e-06
7.06659e-06
3.40901e-06
7.72888e-06
-3.66829e-06
2.63701e-05
-1.05098e-05
3.18327e-05
-1.13333e-05
3.7538e-05
-1.11007e-05
5.0146e-05
-1.17255e-05
5.58846e-05
-1.17381e-05
5.84521e-05
-1.0529e-05
6.19336e-05
-8.65129e-06
6.51358e-05
-6.56453e-06
6.75319e-05
-4.65188e-06
6.91082e-05
-3.02282e-06
6.99504e-05
-1.63649e-06
7.03152e-05
-3.9449e-07
7.04123e-05
8.33472e-07
7.03889e-05
2.17059e-06
7.02122e-05
3.70611e-06
6.97666e-05
5.49426e-06
6.87971e-05
7.39355e-06
6.70631e-05
8.95382e-06
6.46188e-05
9.7298e-06
6.15858e-05
9.61409e-06
5.80519e-05
8.49434e-06
5.53896e-05
7.9324e-06
4.88657e-05
7.25476e-06
3.55342e-05
6.32127e-06
2.45726e-05
5.51813e-06
7.10964e-06
-1.02075e-06
7.20272e-06
1.93547e-05
1.15678e-06
5.87226e-06
2.91137e-06
5.9362e-06
-2.1895e-06
3.1438e-05
-1.05444e-05
4.01581e-05
-1.15264e-05
3.84931e-05
-1.02778e-05
4.88737e-05
-1.03981e-05
5.59832e-05
-1.0364e-05
5.83977e-05
-9.65196e-06
6.12028e-05
-8.34085e-06
6.38071e-05
-6.63512e-06
6.58092e-05
-4.87094e-06
6.73275e-05
-3.23877e-06
6.83018e-05
-1.76388e-06
6.8824e-05
-3.91552e-07
6.90237e-05
9.69707e-07
6.90114e-05
2.40005e-06
6.87656e-05
3.9514e-06
6.8199e-05
5.58574e-06
6.71465e-05
7.07118e-06
6.55609e-05
8.12036e-06
6.35523e-05
8.61231e-06
6.10755e-05
8.46353e-06
5.8181e-05
7.99811e-06
5.58339e-05
8.78189e-06
4.80585e-05
7.96392e-06
3.63258e-05
6.4495e-06
2.60577e-05
2.29872e-06
1.12253e-05
-1.47471e-06
1.09403e-05
1.78474e-05
-2.45565e-08
5.8593e-06
1.08804e-06
4.78528e-06
-2.39022e-06
3.4884e-05
-8.69052e-06
4.64295e-05
-1.05644e-05
4.03397e-05
-9.56393e-06
4.78487e-05
-9.22655e-06
5.56236e-05
-9.129e-06
5.82794e-05
-8.55391e-06
6.06083e-05
-7.56386e-06
6.27988e-05
-6.2501e-06
6.4478e-05
-4.75509e-06
6.58157e-05
-3.24103e-06
6.67713e-05
-1.78501e-06
6.73517e-05
-3.86656e-07
6.76092e-05
1.00306e-06
6.76055e-05
2.41867e-06
6.73338e-05
3.85938e-06
6.6742e-05
5.22501e-06
6.57643e-05
6.34561e-06
6.44233e-05
7.12167e-06
6.27585e-05
7.54234e-06
6.0636e-05
7.48346e-06
5.82198e-05
7.76614e-06
5.55298e-05
9.46e-06
4.63408e-05
9.00957e-06
3.67497e-05
5.47875e-06
2.95584e-05
-1.75585e-06
1.84251e-05
-1.47947e-06
1.06275e-05
1.63328e-05
-6.77474e-07
6.4996e-06
-1.30061e-06
5.37031e-06
-2.4665e-06
3.60182e-05
-6.2009e-06
5.01366e-05
-9.37157e-06
4.34833e-05
-9.19807e-06
4.76505e-05
-8.21361e-06
5.46166e-05
-8.03304e-06
5.80777e-05
-7.47135e-06
6.00268e-05
-6.61646e-06
6.19252e-05
-5.57157e-06
6.34153e-05
-4.34817e-06
6.45751e-05
-3.03338e-06
6.54397e-05
-1.70226e-06
6.60041e-05
-3.84917e-07
6.62755e-05
9.23479e-07
6.62808e-05
2.21682e-06
6.60241e-05
3.46348e-06
6.54788e-05
4.57275e-06
6.46382e-05
5.46448e-06
6.35142e-05
6.1371e-06
6.20677e-05
6.56045e-06
6.01936e-05
6.67416e-06
5.80859e-05
7.77664e-06
5.44057e-05
9.11356e-06
4.49796e-05
8.66009e-06
3.71759e-05
2.69862e-06
3.54897e-05
-2.42577e-06
2.35147e-05
-1.50935e-06
9.67377e-06
1.47872e-05
-9.13554e-07
7.37643e-06
-3.68469e-06
8.10375e-06
-2.48527e-06
3.47877e-05
-4.61501e-06
5.22399e-05
-8.30836e-06
4.71502e-05
-8.55453e-06
4.78717e-05
-7.42775e-06
5.34672e-05
-6.99217e-06
5.76209e-05
-6.45341e-06
5.94679e-05
-5.68621e-06
6.11389e-05
-4.80961e-06
6.25204e-05
-3.81109e-06
6.35589e-05
-2.71001e-06
6.43214e-05
-1.55259e-06
6.48298e-05
-3.79198e-07
6.50854e-05
7.84592e-07
6.51004e-05
1.90842e-06
6.48836e-05
2.95129e-06
6.4419e-05
3.8611e-06
6.37111e-05
4.6172e-06
6.27403e-05
5.22087e-06
6.14456e-05
5.60686e-06
5.97883e-05
5.91972e-06
5.77527e-05
7.31769e-06
5.29859e-05
7.43882e-06
4.48341e-05
4.3131e-06
4.02749e-05
-7.83045e-07
4.05569e-05
-2.21567e-06
2.49141e-05
-1.63383e-06
9.05435e-06
1.31171e-05
-1.30374e-06
8.64337e-06
-5.78412e-06
1.2547e-05
-4.17665e-06
3.31498e-05
-3.937e-06
5.19745e-05
-7.066e-06
5.02536e-05
-7.51955e-06
4.83002e-05
-6.82159e-06
5.27464e-05
-6.05505e-06
5.68332e-05
-5.51697e-06
5.89097e-05
-4.85205e-06
6.04547e-05
-4.10402e-06
6.17539e-05
-3.27676e-06
6.27138e-05
-2.36013e-06
6.33874e-05
-1.37811e-06
6.38306e-05
-3.69516e-07
6.40598e-05
6.3122e-07
6.40827e-05
1.58538e-06
6.39124e-05
2.45697e-06
6.35303e-05
3.22036e-06
6.29302e-05
3.87142e-06
6.20714e-05
4.38659e-06
6.0912e-05
4.73564e-06
5.94201e-05
5.25763e-06
5.72106e-05
6.00111e-06
5.22208e-05
4.83173e-06
4.59798e-05
-8.0677e-08
4.51616e-05
-2.50517e-06
4.29541e-05
-3.00045e-06
2.53775e-05
-1.62608e-06
7.64289e-06
1.14551e-05
-2.83733e-06
1.14442e-05
-8.63846e-06
1.83128e-05
-8.13445e-06
3.26158e-05
-4.48026e-06
4.82948e-05
-5.44503e-06
5.11933e-05
-6.25575e-06
4.90861e-05
-5.99293e-06
5.2461e-05
-5.16966e-06
5.59889e-05
-4.64457e-06
5.83647e-05
-4.11356e-06
5.99047e-05
-3.49012e-06
6.11121e-05
-2.79818e-06
6.2004e-05
-2.03443e-06
6.26061e-05
-1.20945e-06
6.29884e-05
-3.56766e-07
6.319e-05
4.89819e-07
6.32191e-05
1.29508e-06
6.30901e-05
2.02872e-06
6.27794e-05
2.67724e-06
6.22642e-05
3.22444e-06
6.15063e-05
3.62379e-06
6.04943e-05
3.95595e-06
5.9069e-05
4.46191e-06
5.66848e-05
4.24472e-06
5.24167e-05
1.35445e-06
4.8847e-05
-2.41791e-06
4.89098e-05
-2.97179e-06
4.34822e-05
-3.14352e-06
2.55181e-05
-1.00467e-06
5.46746e-06
1.04154e-05
-4.9618e-06
1.63713e-05
-1.23203e-05
2.5641e-05
-1.26965e-05
3.29639e-05
-6.76925e-06
4.23424e-05
-4.4298e-06
4.88291e-05
-4.54428e-06
4.91761e-05
-4.70489e-06
5.25993e-05
-4.19982e-06
5.54632e-05
-3.78215e-06
5.79275e-05
-3.40724e-06
5.9511e-05
-2.93159e-06
6.06183e-05
-2.36466e-06
6.14194e-05
-1.73401e-06
6.19582e-05
-1.05201e-06
6.22893e-05
-3.41385e-07
6.24624e-05
3.63992e-07
6.24967e-05
1.04166e-06
6.23954e-05
1.66431e-06
6.21396e-05
2.21182e-06
6.16994e-05
2.64286e-06
6.10577e-05
2.92626e-06
6.0193e-05
3.18995e-06
5.87867e-05
3.27477e-06
5.65807e-05
2.14434e-06
5.35265e-05
-1.30195e-06
5.22712e-05
-3.5145e-06
5.10997e-05
-2.80254e-06
4.27451e-05
-2.46029e-06
2.5145e-05
-3.15383e-07
3.28619e-06
1.0066e-05
-1.07589e-05
2.70975e-05
-1.80491e-05
3.29088e-05
-1.63674e-05
3.12579e-05
-1.05112e-05
3.64624e-05
-4.74033e-06
4.3034e-05
-2.43466e-06
4.68463e-05
-2.94537e-06
5.30881e-05
-2.97098e-06
5.54685e-05
-2.86179e-06
5.77992e-05
-2.68512e-06
5.9316e-05
-2.38798e-06
6.03034e-05
-1.95718e-06
6.09712e-05
-1.45151e-06
6.14354e-05
-9.01865e-07
6.17227e-05
-3.21081e-07
6.18648e-05
2.61394e-07
6.18975e-05
8.27118e-07
6.18129e-05
1.35186e-06
6.1598e-05
1.79813e-06
6.12361e-05
2.11235e-06
6.07262e-05
2.29592e-06
5.99918e-05
2.36409e-06
5.87004e-05
1.94733e-06
5.69786e-05
7.54337e-08
5.53786e-05
-2.50256e-06
5.48286e-05
-3.72902e-06
5.23047e-05
-2.61931e-06
4.16108e-05
-1.57558e-06
2.40709e-05
-1.2417e-07
1.79858e-06
9.90845e-06
-1.43374e-05
4.14126e-05
-2.06362e-05
3.91925e-05
-1.6269e-05
2.68697e-05
-1.05588e-05
3.07294e-05
-4.05683e-06
3.65089e-05
-4.23951e-07
4.31905e-05
-9.24151e-07
5.35679e-05
-1.61591e-06
5.61408e-05
-1.95855e-06
5.81234e-05
-2.01682e-06
5.93565e-05
-1.88351e-06
6.01527e-05
-1.59293e-06
6.06635e-05
-1.20331e-06
6.10288e-05
-7.63069e-07
6.12657e-05
-2.90618e-07
6.13756e-05
1.93575e-07
6.13966e-05
6.6239e-07
6.13274e-05
1.0944e-06
6.11493e-05
1.44267e-06
6.0871e-05
1.66142e-06
6.04904e-05
1.75255e-06
5.98834e-05
1.59426e-06
5.88411e-05
7.69597e-07
5.77851e-05
-1.17578e-06
5.73052e-05
-2.88704e-06
5.65207e-05
-3.27479e-06
5.26723e-05
-2.19656e-06
4.05087e-05
-8.39933e-07
2.26846e-05
-1.66354e-07
1.0895e-06
9.70944e-06
-9.30235e-06
5.0694e-05
-1.5511e-05
4.53829e-05
-1.1417e-05
2.27526e-05
-5.62494e-06
2.49138e-05
-1.23774e-06
3.20989e-05
1.54826e-06
4.03834e-05
9.79232e-07
5.41183e-05
-4.58417e-07
5.75605e-05
-1.17469e-06
5.88222e-05
-1.46027e-06
5.96249e-05
-1.47974e-06
6.01552e-05
-1.30538e-06
6.04723e-05
-1.01095e-06
6.07177e-05
-6.48808e-07
6.0887e-05
-2.53606e-07
6.09639e-05
1.55619e-07
6.09709e-05
5.48553e-07
6.0918e-05
9.0048e-07
6.07808e-05
1.16813e-06
6.05867e-05
1.31988e-06
6.0322e-05
1.33675e-06
5.98496e-05
1.01191e-06
5.91487e-05
-3.89196e-08
5.88185e-05
-1.4822e-06
5.8731e-05
-2.57097e-06
5.75918e-05
-2.58811e-06
5.26707e-05
-1.75913e-06
3.96571e-05
-1.27809e-07
2.10249e-05
2.11616e-07
7.15447e-07
9.88977e-06
-5.0157e-06
5.56873e-05
-8.61206e-06
4.89555e-05
-5.77809e-06
1.98897e-05
-1.15292e-06
2.02622e-05
1.16423e-06
2.97576e-05
1.80611e-06
3.97203e-05
1.68418e-06
5.42229e-05
1.71627e-08
5.92111e-05
-7.55649e-07
5.95784e-05
-1.10725e-06
5.99599e-05
-1.21862e-06
6.025e-05
-1.11761e-06
6.03548e-05
-8.80303e-07
6.04639e-05
-5.67211e-07
6.05574e-05
-2.21943e-07
6.06022e-05
1.31752e-07
6.06008e-05
4.70995e-07
6.05623e-05
7.65572e-07
6.04698e-05
9.76531e-07
6.03593e-05
1.08359e-06
6.01984e-05
1.05197e-06
5.98647e-05
6.29144e-07
5.95549e-05
-2.94065e-07
5.97252e-05
-1.12409e-06
5.95446e-05
-1.56709e-06
5.80184e-05
-1.94727e-06
5.30336e-05
-1.90464e-06
3.95932e-05
-3.18315e-07
1.94109e-05
-6.09828e-08
4.23671e-07
9.79846e-06
-6.73687e-06
6.24037e-05
-2.93833e-06
4.5132e-05
1.6748e-06
1.52452e-05
2.99877e-06
1.89099e-05
2.99507e-06
2.97361e-05
1.48837e-06
4.12055e-05
1.20813e-06
5.44862e-05
-1.1036e-07
6.05141e-05
-7.32199e-07
6.01844e-05
-1.04648e-06
6.02582e-05
-1.12379e-06
6.03112e-05
-1.02633e-06
6.02411e-05
-8.01975e-07
6.02232e-05
-5.15419e-07
6.02545e-05
-2.03537e-07
6.0274e-05
1.1021e-07
6.02707e-05
4.13491e-07
6.02427e-05
6.67434e-07
6.01995e-05
8.39183e-07
6.01713e-05
9.22792e-07
6.00986e-05
8.63341e-07
5.99079e-05
4.80766e-07
5.99213e-05
-6.23906e-08
6.02524e-05
-3.3209e-07
5.97985e-05
-4.68118e-07
5.81388e-05
-9.38057e-07
5.34868e-05
-1.03918e-06
3.96733e-05
9.76152e-07
1.73674e-05
1.24142e-06
1.24035e-07
1.10076e-05
-5.14845e-06
6.75345e-05
2.91271e-06
3.70466e-05
6.45247e-06
1.16749e-05
5.11624e-06
2.02183e-05
3.13362e-06
3.16939e-05
2.71912e-07
4.4046e-05
-3.16914e-07
5.50581e-05
-7.45984e-07
6.0928e-05
-1.02834e-06
6.04513e-05
-1.17685e-06
6.03909e-05
-1.11653e-06
6.0235e-05
-9.84172e-07
6.00927e-05
-7.59602e-07
5.99826e-05
-4.85568e-07
5.99644e-05
-1.98619e-07
5.99709e-05
8.47874e-08
5.99712e-05
3.62586e-07
5.99488e-05
5.77119e-07
5.99689e-05
7.26046e-07
6.00063e-05
8.07761e-07
6.00008e-05
7.51354e-07
5.99483e-05
5.09026e-07
6.01477e-05
3.38677e-07
6.04071e-05
4.72136e-07
5.96495e-05
1.19167e-07
5.84763e-05
-3.78063e-07
5.39671e-05
9.55739e-08
3.91777e-05
2.39439e-06
1.50395e-05
2.12631e-06
3.57188e-07
1.30982e-05
2.31854e-06
6.51998e-05
7.21542e-06
3.21266e-05
7.38978e-06
1.14717e-05
4.54113e-06
2.30403e-05
4.14428e-07
3.57972e-05
-1.77107e-06
4.62111e-05
-1.97459e-06
5.52447e-05
-1.59487e-06
6.05332e-05
-1.53121e-06
6.03722e-05
-1.39692e-06
6.02411e-05
-1.17418e-06
5.99965e-05
-9.68462e-07
5.98711e-05
-7.41304e-07
5.97394e-05
-4.66997e-07
5.96741e-05