/*--------------------------------*- C++ -*----------------------------------*\
| =========                 |                                                 |
| \\      /  F ield         | OpenFOAM: The Open Source CFD Toolbox           |
|  \\    /   O peration     | Version:  2.3.0                                 |
|   \\  /    A nd           | Web:      www.OpenFOAM.org                      |
|    \\/     M anipulation  |                                                 |
\*---------------------------------------------------------------------------*/
FoamFile
{
    version     2.0;
    format      ascii;
    class       surfaceScalarField;
    location    "0.18";
    object      phi.air;
}
// * * * * * * * * * * * * * * * * * * * * * * * * * * * * * * * * * * * * * //

dimensions      [0 3 -1 0 0 0 0];

internalField   nonuniform List<scalar> 
11770
(
-3.9037e-06
0.000102623
-2.17073e-07
9.67945e-05
2.62627e-06
9.70947e-05
3.60466e-06
9.8701e-05
2.54216e-06
0.000100201
5.75941e-08
0.000101226
-2.42354e-06
0.000101003
-3.9174e-06
9.98567e-05
-4.33318e-06
9.86405e-05
-4.04224e-06
9.78589e-05
-3.40435e-06
9.74677e-05
-2.56441e-06
9.72958e-05
-1.65726e-06
9.72775e-05
-7.8985e-07
9.73336e-05
-4.17857e-08
9.74367e-05
6.86907e-07
9.74443e-05
1.53552e-06
9.73418e-05
2.42252e-06
9.7282e-05
3.24843e-06
9.72947e-05
3.89639e-06
9.74511e-05
4.20139e-06
9.78281e-05
3.82415e-06
9.85874e-05
2.38467e-06
9.97835e-05
-5.5899e-08
0.00010094
-2.51367e-06
0.000101191
-3.55882e-06
0.000100167
-2.58898e-06
9.86764e-05
2.18728e-07
9.70902e-05
3.8971e-06
9.67676e-05
0.000102587
-2.46195e-06
9.68705e-05
1.31136e-06
8.76321e-05
4.37032e-06
8.73015e-05
4.79528e-06
8.96995e-05
3.32144e-06
9.14675e-05
1.92809e-07
9.29023e-05
-3.17267e-06
9.24041e-05
-5.05802e-06
8.99022e-05
-5.20778e-06
8.70612e-05
-4.44815e-06
8.53578e-05
-3.35999e-06
8.45749e-05
-2.34259e-06
8.43463e-05
-1.51203e-06
8.43976e-05
-7.79619e-07
8.45103e-05
-6.14248e-08
8.46298e-05
6.38995e-07
8.46597e-05
1.35813e-06
8.45338e-05
2.17726e-06
8.442e-05
3.18501e-06
8.43549e-05
4.23489e-06
8.45828e-05
5.03485e-06
8.52962e-05
4.92209e-06
8.69781e-05
3.12459e-06
8.97531e-05
-1.79704e-07
9.22912e-05
-3.29228e-06
9.2854e-05
-4.77196e-06
9.14403e-05
-4.35975e-06
8.96917e-05
-1.32868e-06
8.73304e-05
2.43754e-06
8.76119e-05
9.67795e-05
-8.63047e-07
0.000111149
1.98403e-06
9.7626e-05
2.76027e-06
9.94714e-05
3.32261e-06
0.000102536
3.11393e-06
0.000105078
8.55915e-07
0.000107692
-3.26703e-06
0.000106859
-5.7865e-06
0.000100591
-5.34619e-06
9.34322e-05
-4.11401e-06
9.01637e-05
-2.80871e-06
8.88018e-05
-1.75068e-06
8.8479e-05
-1.02085e-06
8.86137e-05
-5.06166e-07
8.88086e-05
-6.85904e-08
8.89516e-05
3.59244e-07
8.89864e-05
8.54418e-07
8.88328e-05
1.58471e-06
8.86143e-05
2.60241e-06
8.84881e-05
3.91229e-06
8.87829e-05
5.14181e-06
9.00755e-05
5.6278e-06
9.32781e-05
3.21905e-06
0.000100278
-8.20296e-07
0.000106594
-3.04995e-06
0.000107547
-3.27454e-06
0.000105037
-2.79151e-06
0.000102599
-2.0949e-06
9.96179e-05
6.33951e-07
9.77467e-05
0.000110944
1.19087e-06
0.000103405
5.24419e-06
8.94274e-05
2.91547e-06
9.67032e-05
3.04992e-06
0.000100032
4.30971e-06
0.000104665
1.0752e-06
0.000113455
-6.89278e-06
0.000118695
-1.09668e-05
0.000111167
-7.68125e-06
9.83963e-05
-5.43011e-06
9.45029e-05
-3.42907e-06
9.26501e-05
-1.95405e-06
9.2496e-05
-1.00802e-06
9.30266e-05
-4.63746e-07
9.35404e-05
-9.50077e-08
9.38245e-05
2.45446e-07
9.38666e-05
8.05667e-07
9.3538e-05
1.73919e-06
9.30098e-05
3.21359e-06
9.24807e-05
5.19611e-06
9.26137e-05
7.42585e-06
9.4408e-05
1.06336e-05
9.82372e-05
6.87952e-06
0.000110655
-9.31246e-07
0.000118404
-4.1001e-06
0.000113359
-2.93305e-06
0.000104734
-2.91e-06
0.00010017
-5.49778e-06
9.69758e-05
-1.56558e-06
8.95841e-05
0.000102986
8.69057e-06
7.65702e-05
1.13468e-05
6.88299e-05
1.24409e-05
7.65654e-05
1.32799e-05
8.09979e-05
1.34963e-05
8.73096e-05
9.96559e-06
9.97989e-05
2.46578e-06
0.000110047
-5.49423e-06
0.000108075
-8.21491e-06
9.8551e-05
-5.80287e-06
9.54157e-05
-3.23164e-06
9.56747e-05
-1.50441e-06
9.74853e-05
-6.22817e-07
9.94142e-05
-2.56309e-07
0.000100716
-1.68109e-07
0.000101383
-1.28716e-08
0.000101377
3.53989e-07
0.000100729
1.25827e-06
9.94109e-05
2.99901e-06
9.75131e-05
5.59801e-06
9.56766e-05
7.89825e-06
9.54837e-05
5.49312e-06
9.83586e-05
-2.29429e-06
0.000107707
-1.0048e-05
0.00011006
-1.34479e-05
9.96809e-05
-1.34666e-05
8.754e-05
-1.26861e-05
8.11371e-05
-1.1696e-05
7.68161e-05
-8.87564e-06
6.87533e-05
7.58989e-05
1.61242e-05
5.3618e-05
2.35423e-05
5.33503e-05
3.0989e-05
6.08028e-05
3.42808e-05
6.81265e-05
3.26304e-05
7.77074e-05
2.96896e-05
9.0436e-05
2.62417e-05
0.000100204
1.98762e-05
9.9419e-05
9.35191e-06
9.26603e-05
4.97078e-06
8.66142e-05
3.36941e-06
8.66333e-05
2.5456e-06
8.89641e-05
1.60727e-06
9.1513e-05
7.79256e-07
9.30206e-05
-2.03509e-07
9.39318e-05
-1.06258e-06
9.38643e-05
-1.91418e-06
9.309e-05
-2.75978e-06
9.14998e-05
-3.64644e-06
8.90839e-05
-5.10396e-06
8.6596e-05
-9.52334e-06
8.67396e-05
-1.97265e-05
9.2246e-05
-2.68099e-05
9.94985e-05
-2.98057e-05
9.98001e-05
-3.33943e-05
9.07123e-05
-3.4978e-05
7.78491e-05
-3.18129e-05
6.83438e-05
-2.41395e-05
6.08506e-05
-1.64059e-05
5.29515e-05
5.25967e-05
1.72991e-05
3.59705e-05
2.99321e-05
4.02817e-05
3.95478e-05
5.04673e-05
4.5725e-05
6.1139e-05
4.49363e-05
7.67068e-05
4.33894e-05
9.01467e-05
4.51034e-05
9.67289e-05
4.39323e-05
9.67258e-05
3.58976e-05
9.3506e-05
2.49999e-05
8.71892e-05
1.66382e-05
8.27389e-05
1.0558e-05
8.15016e-05
6.32584e-06
8.15313e-05
2.76283e-06
8.19613e-05
-2.43382e-07
8.21796e-05
-3.40172e-06
8.22122e-05
-6.77754e-06
8.18606e-05
-1.11416e-05
8.15681e-05
-1.69897e-05
8.13808e-05
-2.55425e-05
8.2767e-05
-3.6023e-05
8.69025e-05
-4.47148e-05
9.34927e-05
-4.56118e-05
9.64723e-05
-4.4297e-05
9.65015e-05
-4.58096e-05
9.04095e-05
-4.65918e-05
7.67887e-05
-4.04659e-05
6.13877e-05
-3.08401e-05
5.04649e-05
-1.80879e-05
3.97932e-05
3.43072e-05
1.81368e-05
1.97003e-05
3.21346e-05
2.75029e-05
4.25143e-05
4.09511e-05
5.14186e-05
5.30077e-05
5.35979e-05
7.43114e-05
4.7786e-05
9.44152e-05
4.43471e-05
9.88253e-05
4.14634e-05
9.88723e-05
3.80706e-05
9.65211e-05
3.17611e-05
9.20419e-05
2.38094e-05
8.79186e-05
1.64835e-05
8.52977e-05
1.01095e-05
8.39136e-05
4.6555e-06
8.31959e-05
-4.33346e-07
8.2912e-05
-5.44888e-06
8.28863e-05
-1.10107e-05
8.31499e-05
-1.72613e-05
8.38247e-05
-2.46608e-05
8.51863e-05
-3.24294e-05
8.77589e-05
-3.89124e-05
9.18437e-05
-4.20608e-05
9.63158e-05
-4.50324e-05
9.87071e-05
-4.85634e-05
9.87082e-05
-5.40366e-05
9.43773e-05
-5.22343e-05
7.47457e-05
-4.32376e-05
5.31833e-05
-3.29281e-05
4.10081e-05
-1.88356e-05
2.69253e-05
1.74902e-05
1.51058e-05
6.82205e-06
2.84219e-05
1.57956e-05
3.81568e-05
3.25606e-05
4.76473e-05
4.47879e-05
5.41629e-05
6.8479e-05
4.68104e-05
9.9867e-05
4.06318e-05
0.00010361
3.61171e-05
0.000102632
3.20046e-05
0.000100232
2.69067e-05
9.6891e-05
2.09967e-05
9.35202e-05
1.50511e-05
9.08509e-05
9.5131e-06
8.89984e-05
4.38928e-06
8.78279e-05
-4.87198e-07
8.72833e-05
-5.36307e-06
8.72541e-05
-1.04782e-05
8.77753e-05
-1.60095e-05
8.88967e-05
-2.19239e-05
9.07065e-05
-2.78198e-05
9.3338e-05
-3.28563e-05
9.66173e-05
-3.69011e-05
9.99586e-05
-4.11887e-05
0.000102219
-4.70261e-05
0.000103135
-5.45842e-05
9.99579e-05
-4.80181e-05
6.87928e-05
-3.83259e-05
4.47649e-05
-2.8609e-05
3.26392e-05
-1.53439e-05
1.51935e-05
4.30633e-06
1.01233e-05
-2.18076e-06
2.20092e-05
4.81069e-06
3.05756e-05
2.47351e-05
3.87099e-05
3.73507e-05
4.58883e-05
6.12056e-05
4.12517e-05
0.000102637
3.49825e-05
0.000108519
3.02292e-05
0.000106536
2.60655e-05
0.000103877
2.17654e-05
0.00010081
1.71617e-05
9.77139e-05
1.24969e-05
9.50338e-05
7.97405e-06
9.2998e-05
3.63835e-06
9.16007e-05
-5.41174e-07
9.08976e-05
-4.74781e-06
9.08847e-05
-9.05062e-06
9.1526e-05
-1.35776e-05
9.28909e-05
-1.82236e-05
9.48771e-05
-2.28072e-05
9.74981e-05
-2.71035e-05
0.000100526
-3.11697e-05
0.000103469
-3.57879e-05
0.000106006
-4.18578e-05
0.000107868
-4.60937e-05
0.000102253
-3.86708e-05
6.11719e-05
-3.03214e-05
3.70686e-05
-2.20513e-05
2.50287e-05
-1.02029e-05
4.13535e-06
-4.92772e-06
5.88036e-06
-7.92803e-06
1.54058e-05
-4.44948e-06
2.25296e-05
1.75133e-05
2.88736e-05
3.08454e-05
3.34163e-05
5.54377e-05
3.28188e-05
0.000101591
2.81409e-05
0.000111765
2.42478e-05
0.000109512
2.06947e-05
0.000106777
1.71288e-05
0.000103851
1.3431e-05
0.000100868
9.74314e-06
9.81534e-05
6.13867e-06
9.59812e-05
2.71929e-06
9.43878e-05
-6.22557e-07
9.3582e-05
-3.91998e-06
9.35406e-05
-7.36716e-06
9.43263e-05
-1.09332e-05
9.58498e-05
-1.46485e-05
9.80047e-05
-1.83352e-05
0.000100649
-2.19387e-05
0.000103574
-2.5492e-05
0.000106379
-2.94382e-05
0.000108991
-3.38179e-05
0.000110855
-3.39451e-05
0.000100796
-2.88463e-05
5.48046e-05
-2.23274e-05
3.03352e-05
-1.56534e-05
1.81187e-05
-5.76593e-06
-5.47825e-06
-1.07406e-05
3.05904e-06
-1.13568e-05
9.1825e-06
-1.0649e-05
1.47273e-05
1.12928e-05
1.94702e-05
2.53524e-05
2.21395e-05
5.08939e-05
2.36024e-05
9.8381e-05
2.13105e-05
0.000112605
1.85332e-05
0.000111235
1.57731e-05
0.00010878
1.28213e-05
0.000106106
9.83499e-06
0.000103195
6.8817e-06
0.000100406
4.19247e-06
9.7969e-05
1.65578e-06
9.61842e-05
-6.6135e-07
9.51713e-05
-3.03857e-06
9.51685e-05
-5.50083e-06
9.60694e-05
-8.24403e-06
9.78694e-05
-1.11523e-05
0.000100233
-1.42191e-05
0.00010303
-1.72094e-05
0.000105876
-2.01577e-05
0.000108527
-2.30267e-05
0.000110832
-2.57514e-05
0.000112081
-2.34616e-05
9.6882e-05
-2.00603e-05
4.96137e-05
-1.49425e-05
2.45468e-05
-9.46015e-06
1.19263e-05
-2.45542e-06
-1.24993e-05
-1.38343e-05
1.24146e-06
-1.31022e-05
3.71888e-06
-1.34506e-05
8.00192e-06
6.41854e-06
1.09787e-05
2.12461e-05
1.30739e-05
4.68483e-05
1.63935e-05
9.33952e-05
1.54318e-05
0.000112025
1.36796e-05
0.000111859
1.13529e-05
0.000110161
8.84809e-06
0.000107795
6.2339e-06
0.000104993
3.92479e-06
0.000101924
1.99869e-06
9.90637e-05
4.79547e-07
9.68776e-05
-7.62035e-07
9.56013e-05
-1.93306e-06
9.5548e-05
-3.4868e-06
9.67795e-05
-5.33122e-06
9.89065e-05
-7.71307e-06
0.000101795
-1.03069e-05
0.000104832
-1.29899e-05
0.000107709
-1.54372e-05
0.000110048
-1.76471e-05
0.000111862
-1.89614e-05
0.000111861
-1.51637e-05
9.15514e-05
-1.23603e-05
4.50207e-05
-8.7632e-06
2.00934e-05
-4.02266e-06
6.72807e-06
-4.34927e-07
-1.64971e-05
-1.4819e-05
-2.86136e-07
-1.35019e-05
-2.40215e-07
-1.37986e-05
2.42272e-06
3.44175e-06
3.4385e-06
1.90601e-05
5.64951e-06
4.30982e-05
1.13879e-05
8.6528e-05
1.13794e-05
0.00011046
9.81202e-06
0.000112129
7.65719e-06
0.000111251
5.07182e-06
0.000109386
2.61602e-06
0.00010653
5.85028e-07
0.000103072
-3.8986e-07
9.941e-05
-7.54625e-07
9.67886e-05
-8.10019e-07
9.53087e-05
-8.64056e-07
9.52521e-05
-1.15933e-06
9.66385e-05
-2.11104e-06
9.92227e-05
-4.0573e-06
0.000102889
-6.64162e-06
0.000106464
-9.2228e-06
0.000109327
-1.16861e-05
0.000111399
-1.3408e-05
0.000112325
-1.40202e-05
0.000110778
-7.90714e-06
8.43813e-05
-5.09465e-06
4.08251e-05
-3.62881e-06
1.7808e-05
-5.46854e-07
3.68572e-06
-8.27552e-08
-1.70833e-05
-1.5088e-05
-1.65854e-06
-1.27744e-05
-3.08018e-06
-1.2529e-05
-2.48735e-06
2.64108e-06
-2.88169e-06
1.84346e-05
-5.49213e-07
3.98213e-05
7.19282e-06
7.83921e-05
8.96288e-06
0.000107382
7.23203e-06
0.000112493
4.58322e-06
0.000112643
1.66328e-06
0.000111202
-7.76763e-07
0.000108085
-1.89754e-06
0.000103808
-1.88805e-06
9.94715e-05
-1.34437e-06
9.66136e-05
-8.22337e-07
9.52411e-05
-3.02342e-07
9.51894e-05
2.37538e-07
9.64771e-05
2.80818e-07
9.92772e-05
-7.51987e-07
0.000103553
-3.10005e-06
0.000107966
-6.14604e-06
0.000111229
-8.76783e-06
0.000112805
-1.09266e-05
0.000113059
-8.80194e-06
0.000107467
-8.85329e-07
7.61085e-05
1.86675e-06
3.73363e-05
1.2595e-06
1.77286e-05
2.18086e-06
2.8129e-06
-3.02153e-07
-1.46031e-05
-1.47658e-05
-2.66067e-06
-1.09515e-05
-5.01859e-06
-1.01303e-05
-6.66332e-06
4.21235e-06
-7.7239e-06
1.88986e-05
-6.24914e-06
3.79737e-05
1.50121e-06
7.08938e-05
7.01524e-06
0.000101815
5.40886e-06
0.000112992
2.46392e-06
0.000114501
-3.65086e-07
0.000113226
-1.78932e-06
0.000109335
-1.76004e-06
0.00010421
-1.42981e-06
9.98217e-05
-1.07284e-06
9.70311e-05
-7.7391e-07
9.5741e-05
-4.82304e-07
9.56969e-05
-1.28768e-07
9.69013e-05
2.17718e-07
9.96246e-05
2.45087e-07
0.000103979
-1.02205e-06
0.000109089
-3.6617e-06
0.00011313
-6.61598e-06
0.000114676
-7.98535e-06
0.000113413
-1.76018e-06
0.000101372
6.10891e-06
6.85914e-05
7.6713e-06
3.56752e-05
5.63367e-06
1.91662e-05
5.04607e-06
3.4941e-06
-7.99788e-08
-9.11401e-06
-1.39593e-05
-3.40168e-06
-7.25289e-06
-6.12433e-06
-6.75439e-06
-9.77077e-06
7.76787e-06
-1.10678e-05
2.01208e-05
-1.07299e-05
3.76036e-05
-4.70738e-06
6.55681e-05
2.53414e-06
9.56579e-05
3.50337e-06
0.000112168
1.62281e-06
0.000116274
2.96559e-07
0.000114832
3.82783e-08
0.000110288
3.66188e-08
0.000105004
-1.82527e-07
0.000100778
-4.70508e-07
9.80195e-05
-7.17849e-07
9.66824e-05
-9.67314e-07
9.66397e-05
-1.24244e-06
9.78784e-05
-1.43403e-06
0.000100557
-1.34919e-06
0.0001047
-1.46661e-06
0.000109933
-2.48443e-06
0.000114487
-3.90272e-06
0.000116082
-2.19075e-06
0.000111948
5.74963e-06
9.46233e-05
1.19971e-05
6.32093e-05
1.16987e-05
3.61888e-05
8.94847e-06
2.15787e-05
6.96665e-06
6.02564e-06
4.70841e-07
-2.71546e-06
-1.26265e-05
-4.44225e-06
-1.09383e-06
-7.46813e-06
-2.43428e-06
-1.15781e-05
1.19937e-05
-1.33207e-05
2.22599e-05
-1.38633e-05
3.83768e-05
-9.6472e-06
6.23251e-05
-3.01428e-06
9.04712e-05
6.96192e-07
0.000109859
1.67454e-06
0.000116465
2.14509e-06
0.000115525
2.15012e-06
0.000111277
1.57602e-06
0.000106322
7.81653e-07
0.000102178
2.20011e-08
9.93362e-05
-6.74403e-07
9.79266e-05
-1.36271e-06
9.78756e-05
-2.09607e-06
9.917e-05
-2.82828e-06
0.000101897
-3.29263e-06
0.000105915
-3.05244e-06
0.0001107
-2.14314e-06
0.000114773
-4.41298e-07
0.000115599
4.18251e-06
0.000108793
1.17254e-05
8.85907e-05
1.6178e-05
5.98997e-05
1.43859e-05
3.82193e-05
1.1832e-05
2.40673e-05
7.69224e-06
1.03085e-05
2.09058e-06
2.71203e-06
-9.69674e-06
-5.57136e-06
6.81035e-06
-9.51638e-06
3.06564e-06
-1.23029e-05
1.60475e-05
-1.47394e-05
2.55996e-05
-1.57415e-05
4.01772e-05
-1.30973e-05
6.0838e-05
-7.40679e-06
8.63431e-05
-2.1271e-06
0.000106345
1.01678e-06
0.000114942
2.53831e-06
0.000115322
2.73147e-06
0.000112037
2.09127e-06
0.000107661
1.1784e-06
0.000103671
2.40112e-07
0.000100811
-6.46431e-07
9.93379e-05
-1.52591e-06
9.92805e-05
-2.4199e-06
0.000100603
-3.24396e-06
0.000103306
-3.71932e-06
0.000107091
-3.23424e-06
0.000111175
-1.29437e-06
0.000114143
2.55731e-06
0.000113362
8.83388e-06
0.000104281
1.57492e-05
8.33159e-05
1.85143e-05
5.83235e-05
1.59745e-05
4.09731e-05
1.37718e-05
2.65364e-05
8.09825e-06
1.54309e-05
4.91146e-06
6.12379e-06
-3.50638e-06
-6.64662e-06
1.69843e-05
-1.09982e-05
9.23836e-06
-1.24062e-05
1.94758e-05
-1.54928e-05
3.01051e-05
-1.72184e-05
4.31037e-05
-1.57878e-05
6.07829e-05
-1.07528e-05
8.3025e-05
-5.09294e-06
0.00010242
-9.61331e-07
0.000112368
1.26337e-06
0.000114348
2.00246e-06
0.000112267
1.81681e-06
0.000108629
1.15131e-06
0.00010501
2.86021e-07
0.000102294
-6.24088e-07
0.000100847
-1.53109e-06
0.000100786
-2.35401e-06
0.000102046
-2.93273e-06
0.00010456
-2.96209e-06
0.000107907
-1.97629e-06
0.000111156
6.55249e-07
0.000112746
5.36582e-06
0.000110183
1.19985e-05
9.9377e-05
1.80938e-05
7.8987e-05
1.91085e-05
5.84404e-05
1.65663e-05
4.38887e-05
1.43046e-05
2.93946e-05
9.08765e-06
2.05322e-05
7.5887e-06
8.95744e-06
5.63615e-06
-1.08344e-05
2.75529e-05
-1.16576e-05
1.22435e-05
-1.2851e-05
2.20579e-05
-1.60603e-05
3.50092e-05
-1.87094e-05
4.73568e-05
-1.83705e-05
6.20309e-05
-1.40664e-05
8.05617e-05
-8.40072e-06
9.8558e-05
-3.76852e-06
0.000109302
-8.67502e-07
0.000112756
6.29428e-07
0.000111872
1.09954e-06
0.000109093
8.43899e-07
0.00010607
1.96489e-07
0.000103665
-6.06205e-07
0.00010234
-1.40803e-06
0.000102277
-2.02315e-06
0.000103384
-2.20989e-06
0.000105552
-1.63867e-06
0.000108269
4.72435e-08
0.000110566
3.18945e-06
0.000110896
8.23744e-06
0.000106675
1.46406e-05
9.4787e-05
1.90635e-05
7.63657e-05
1.82424e-05
6.03208e-05
1.61057e-05
4.68554e-05
1.37218e-05
3.27382e-05
1.1109e-05
2.41278e-05
9.21707e-06
1.27591e-05
1.68013e-05
-1.21322e-05
3.6403e-05
-1.34968e-05
1.36232e-05
-1.30173e-05
2.27932e-05
-1.57484e-05
3.83024e-05
-1.93198e-05
5.23232e-05
-2.05457e-05
6.50806e-05
-1.7234e-05
7.92666e-05
-1.18702e-05
9.51412e-05
-6.84497e-06
0.000105992
-3.24788e-06
0.000110617
-1.01053e-06
0.000110897
6.36587e-08
0.000109093
3.0215e-07
0.00010675
-2.01258e-08
0.000104801
-5.91422e-07
0.000103676
-1.16532e-06
0.000103614
-1.47517e-06
0.000104512
-1.21114e-06
0.000106212
-4.83682e-08
0.000108182
2.21427e-06
0.000109554
5.92301e-06
0.000108629
1.11902e-05
0.000103102
1.6727e-05
9.11775e-05
1.89978e-05
7.57706e-05
1.69874e-05
6.33614e-05
1.52532e-05
4.98661e-05
1.23988e-05
3.71045e-05
1.1727e-05
2.65612e-05
1.10145e-05
1.51446e-05
2.76622e-05
-6.04588e-06
4.12944e-05
-1.42048e-05
2.06143e-05
-1.33237e-05
2.36006e-05
-1.53239e-05
4.04869e-05
-1.92074e-05
5.64258e-05
-2.21133e-05
6.90806e-05
-1.99203e-05
7.90042e-05
-1.50495e-05
9.22354e-05
-9.84353e-06
0.00010261
-5.68329e-06
0.000108031
-2.83457e-06
0.000109399
-1.16142e-06
0.000108579
-4.35629e-07
0.000107026
-3.42571e-07
0.000105595
-5.68552e-07
0.00010473
-7.9029e-07
0.000104666
-7.00178e-07
0.000105311
4.70447e-08
0.000106472
1.67406e-06
0.000107718
4.4553e-06
0.000108109
8.59422e-06
0.000106039
1.37745e-05
9.97189e-05
1.79106e-05
8.88785e-05
1.83921e-05
7.67023e-05
1.57254e-05
6.7111e-05
1.37777e-05
5.32128e-05
1.07788e-05
4.09522e-05
1.10187e-05
2.74964e-05
1.21964e-05
1.46345e-05
3.76075e-05
-1.97585e-06
4.23366e-05
-1.30851e-05
2.99393e-05
-1.39308e-05
2.6726e-05
-1.49886e-05
4.24006e-05
-1.7683e-05
5.92481e-05
-2.16875e-05
7.32247e-05
-2.14587e-05
8.008e-05
-1.74272e-05
8.99388e-05
-1.24761e-05
9.93773e-05
-8.01045e-06
0.000105106
-4.70336e-06
0.000107428
-2.54598e-06
0.000107583
-1.33544e-06
0.000106828
-7.74203e-07
0.000105937
-5.41479e-07
0.000105343
-3.07044e-07
0.000105279
2.37925e-07
0.000105669
1.40744e-06
0.000106314
3.46794e-06
0.000106805
6.6166e-06
0.000106272
1.08928e-05
0.000103289
1.54197e-05
9.68834e-05
1.80028e-05
8.78187e-05
1.73624e-05
7.84997e-05
1.44921e-05
7.06989e-05
1.22597e-05
5.5947e-05
9.50559e-06
4.35673e-05
1.04068e-05
2.78634e-05
1.00081e-05
1.52411e-05
4.57357e-05
9.04857e-07
3.9935e-05
-6.4311e-06
3.52884e-05
-1.48967e-05
3.53579e-05
-1.55116e-05
4.46691e-05
-1.632e-05
6.05145e-05
-1.97986e-05
7.63097e-05
-2.1326e-05
8.20767e-05
-1.85989e-05
8.84334e-05
-1.43433e-05
9.65033e-05
-9.97618e-06
0.000102098
-6.43875e-06
0.0001051
-3.93797e-06
0.000106134
-2.3014e-06
0.000106113
-1.26335e-06
0.00010573
-5.20518e-07
0.000105386
2.14616e-07
0.000105329
1.21433e-06
0.000105498
2.77036e-06
0.000105671
5.13902e-06
0.000105464
8.48517e-06
0.000104105
1.24847e-05
0.000100617
1.59466e-05
9.47415e-05
1.7356e-05
8.74454e-05
1.58473e-05
8.06069e-05
1.31182e-05
7.34932e-05
1.13172e-05
5.76838e-05
9.39812e-06
4.52656e-05
1.04729e-05
2.85672e-05
6.59275e-06
1.91557e-05
5.14188e-05
2.7632e-06
3.59759e-05
4.02901e-07
3.62797e-05
-1.3555e-05
4.68753e-05
-1.65548e-05
4.8517e-05
-1.60266e-05
6.08147e-05
-1.78507e-05
7.76623e-05
-1.94989e-05
8.36459e-05
-1.83207e-05
8.78353e-05
-1.51186e-05
9.4199e-05
-1.13161e-05
9.93091e-05
-7.87169e-06
0.000102618
-5.18528e-06
0.000104294
-3.2021e-06
0.000104878
-1.72333e-06
0.000104936
-5.09596e-07
0.000104824
6.87285e-07
0.000104783
2.10846e-06
0.000104758
3.96904e-06
0.000104549
6.50387e-06
0.000103768
9.75259e-06
0.000101809
1.30789e-05
9.82725e-05
1.53698e-05
9.3276e-05
1.59931e-05
8.7374e-05
1.40859e-05
8.26225e-05
1.19982e-05
7.52585e-05
1.10698e-05
5.85443e-05
1.01488e-05
4.65601e-05
1.14343e-05
2.97866e-05
2.1591e-06
2.75963e-05
5.30627e-05
3.2423e-06
3.23559e-05
4.36857e-06
3.45468e-05
-6.7802e-06
5.48549e-05
-1.6899e-05
5.75113e-05
-1.64833e-05
6.1346e-05
-1.59662e-05
7.70313e-05
-1.69596e-05
8.43949e-05
-1.6734e-05
8.7814e-05
-1.47445e-05
9.2636e-05
-1.18536e-05
9.70078e-05
-8.79153e-06
0.000100182
-6.10151e-06
0.000102202
-3.89941e-06
0.00010323
-2.08799e-06
0.000103642
-5.01487e-07
0.000103737
1.06571e-06
0.000103714
2.80935e-06
0.000103532
4.88012e-06
0.000103031
7.40538e-06
0.000101855
1.0222e-05
9.96442e-05
1.26587e-05
9.64267e-05
1.39934e-05
9.23339e-05
1.40981e-05
8.75102e-05
1.24981e-05
8.40494e-05
1.16514e-05
7.57632e-05
1.11759e-05
5.9356e-05
1.08213e-05
4.84999e-05
1.12319e-05
3.16791e-05
-7.81882e-07
3.69498e-05
5.19303e-05
2.03312e-06
2.98773e-05
4.63883e-06
3.17434e-05
-3.213e-06
6.03199e-05
-1.63281e-05
6.78937e-05
-1.64703e-05
6.20826e-05
-1.41675e-05
7.51456e-05
-1.46806e-05
8.45474e-05
-1.4579e-05
8.77977e-05
-1.34832e-05
9.17032e-05
-1.15197e-05
9.53343e-05
-9.02882e-06
9.80688e-05
-6.53122e-06
0.000100097
-4.28498e-06
0.000101368
-2.30359e-06
0.000102033
-4.87674e-07
0.000102283
1.31414e-06
0.000102275
3.23593e-06
0.000101981
5.37375e-06
0.000101276
7.70191e-06
9.99216e-05
9.90019e-06
9.78264e-05
1.14957e-05
9.51092e-05
1.22694e-05
9.16932e-05
1.21363e-05
8.77152e-05
1.11827e-05
8.46595e-05
1.25442e-05
7.45726e-05
1.22232e-05
6.0544e-05
1.15974e-05
5.12285e-05
5.70077e-06
3.74371e-05
-1.52232e-06
4.19854e-05
4.96062e-05
5.50755e-07
2.85811e-05
2.61019e-06
2.93563e-05
-2.74783e-06
6.41853e-05
-1.27645e-05
7.60199e-05
-1.47704e-05
6.45637e-05
-1.27126e-05
7.38494e-05
-1.25727e-05
8.41751e-05
-1.25924e-05
8.77416e-05
-1.18111e-05
9.09722e-05
-1.04307e-05
9.40536e-05
-8.5579e-06
9.64078e-05
-6.4438e-06
9.82544e-05
-4.34372e-06
9.955e-05
-2.35903e-06
0.000100326
-4.7208e-07
0.000100668
1.40592e-06
0.000100669
3.34002e-06
0.000100319
5.34808e-06
9.95416e-05
7.29269e-06
9.82294e-05
8.89939e-06
9.63952e-05
9.98779e-06
9.40853e-05
1.0566e-05
9.11383e-05
1.0372e-05
8.78447e-05
1.04469e-05
8.43405e-05
1.35311e-05
7.22439e-05
1.42988e-05
6.11086e-05
1.00088e-05
5.56242e-05
-1.5747e-06
4.57558e-05
-1.70353e-06
4.09839e-05
4.66272e-05
-4.13726e-07
2.82325e-05
-4.70912e-07
2.93437e-05
-2.13424e-06
6.51798e-05
-8.4436e-06
8.1161e-05
-1.27969e-05
6.92967e-05
-1.20571e-05
7.38467e-05
-1.07665e-05
8.30251e-05
-1.08257e-05
8.76398e-05
-1.01352e-05
9.02946e-05
-9.01116e-06
9.29424e-05
-7.59536e-06
9.50416e-05
-5.90519e-06
9.66789e-05
-4.08782e-06
9.78905e-05
-2.26055e-06
9.86715e-05
-4.62402e-07
9.90438e-05
1.32727e-06
9.9053e-05
3.10898e-06
9.87044e-05
4.84217e-06
9.79539e-05
6.38243e-06
9.6782e-05
7.59512e-06
9.52074e-05
8.47962e-06
9.31917e-05
9.00242e-06
9.06131e-05
8.91283e-06
8.77961e-05
1.03924e-05
8.29572e-05
1.31328e-05
7.04609e-05
1.39308e-05
6.15378e-05
4.66744e-06
6.26709e-05
-3.13759e-06
5.12548e-05
-1.99029e-06
3.87904e-05
4.3391e-05
-8.3145e-07
2.90267e-05
-3.67254e-06
3.27183e-05
-1.31955e-06
6.33674e-05
-5.54036e-06
8.40878e-05
-1.12664e-05
7.48359e-05
-1.12535e-05
7.45176e-05
-9.50909e-06
8.18169e-05
-9.19228e-06
8.73064e-05
-8.59058e-06
8.97335e-05
-7.61139e-06
9.2008e-05
-6.46901e-06
9.39208e-05
-5.13216e-06
9.53718e-05
-3.63621e-06
9.64394e-05
-2.05602e-06
9.71488e-05
-4.52358e-07
9.75032e-05
1.14153e-06
9.75217e-05
2.68202e-06
9.72164e-05
4.10845e-06
9.65631e-05
5.33635e-06
9.55691e-05
6.33122e-06
9.42154e-05
7.10244e-06
9.24359e-05
7.531e-06
9.02076e-05
7.71969e-06
8.75628e-05
9.95538e-06
8.12649e-05
1.10522e-05
7.05814e-05
6.91422e-06
6.59833e-05
-1.0201e-06
6.92624e-05
-2.75869e-06
5.30442e-05
-2.41616e-06
3.76337e-05
4.03811e-05
-1.11521e-06
3.17375e-05
-6.28383e-06
3.88913e-05
-3.19427e-06
6.12067e-05
-3.94165e-06
8.37399e-05
-9.42395e-06
7.94813e-05
-9.88182e-06
7.55593e-05
-8.75402e-06
8.12541e-05
-7.81849e-06
8.66117e-05
-7.22982e-06
8.92803e-05
-6.39822e-06
9.13148e-05
-5.44334e-06
9.30628e-05
-4.36367e-06
9.43662e-05
-3.14014e-06
9.52851e-05
-1.8126e-06
9.589e-05
-4.41624e-07
9.61999e-05
9.21335e-07
9.62248e-05
2.21667e-06
9.59828e-05
3.38999e-06
9.54479e-05
4.40082e-06
9.46163e-05
5.24856e-06
9.34412e-05
5.90135e-06
9.18836e-05
6.27606e-06
8.99307e-05
6.94153e-06
8.70975e-05
8.52659e-06
8.05197e-05
7.46514e-06
7.24595e-05
-2.59316e-07
7.27584e-05
-3.63867e-06
7.25977e-05
-4.02685e-06
5.35807e-05
-2.63562e-06
3.58096e-05
3.74777e-05
-2.62424e-06
3.80548e-05
-9.79297e-06
4.78407e-05
-8.75543e-06
6.14481e-05
-4.04372e-06
7.92448e-05
-6.75106e-06
8.11934e-05
-8.18515e-06
7.70593e-05
-7.78895e-06
8.12721e-05
-6.64184e-06
8.58453e-05
-6.03386e-06
8.88967e-05
-5.38709e-06
9.08798e-05
-4.59586e-06
9.24608e-05
-3.70225e-06
9.36379e-05
-2.69357e-06
9.44341e-05
-1.58574e-06
9.49383e-05
-4.32284e-07
9.52004e-05
7.15339e-07
9.52291e-05
1.80157e-06
9.50434e-05
2.78127e-06
9.46127e-05
3.63823e-06
9.39102e-05
4.35757e-06
9.28917e-05
4.86236e-06
9.15568e-05
5.274e-06
8.97132e-05
6.15122e-06
8.66306e-05
6.31408e-06
8.09969e-05
2.07432e-06
7.66465e-05
-3.83629e-06
7.80736e-05
-4.36667e-06
7.32954e-05
-4.48093e-06
5.3626e-05
-2.0595e-06
3.27425e-05
3.52235e-05
-5.50628e-06
5.05799e-05
-1.52527e-05
6.06426e-05
-1.5746e-05
6.36328e-05
-7.06727e-06
7.23955e-05
-4.93785e-06
7.89544e-05
-5.71978e-06
7.77909e-05
-6.12845e-06
8.18703e-05
-5.41819e-06
8.54522e-05
-4.90717e-06
8.86192e-05
-4.46931e-06
9.06404e-05
-3.86944e-06
9.20675e-05
-3.13314e-06
9.31057e-05
-2.3002e-06
9.38051e-05
-1.38545e-06
9.42324e-05
-4.249e-07
9.445e-05
5.30122e-07
9.44824e-05
1.44461e-06
9.43333e-05
2.27956e-06
9.39779e-05
3.01254e-06
9.33794e-05
3.58696e-06
9.25213e-05
3.95085e-06
9.13862e-05
4.35799e-06
8.95524e-05
4.71503e-06
8.66579e-05
3.31645e-06
8.26661e-05
-2.06023e-06
8.15062e-05
-5.50075e-06
8.12748e-05
-4.14091e-06
7.23578e-05
-3.61843e-06
5.3145e-05
-1.09421e-06
2.91948e-05
3.38551e-05
-1.54681e-05
6.96588e-05
-2.50801e-05
7.33927e-05
-2.20203e-05
6.31251e-05
-1.31468e-05
6.6196e-05
-5.4764e-06
7.25077e-05
-2.70918e-06
7.52502e-05
-3.77816e-06
8.30108e-05
-3.8476e-06
8.5781e-05
-3.7403e-06
8.87073e-05
-3.55129e-06
9.06132e-05
-3.18162e-06
9.18542e-05
-2.61293e-06
9.27026e-05
-1.93851e-06
9.3298e-05
-1.20044e-06
9.36648e-05
-4.14201e-07
9.38387e-05
3.75314e-07
9.38682e-05
1.14178e-06
9.37434e-05
1.85395e-06
9.34426e-05
2.46177e-06
9.2948e-05
2.88509e-06
9.22656e-05
3.13758e-06
9.13004e-05
3.31802e-06
8.96e-05
2.9098e-06
8.73345e-05
1.39069e-07
8.53795e-05
-3.87012e-06
8.52321e-05
-5.89908e-06
8.30998e-05
-3.96589e-06
7.09587e-05
-2.29598e-06
5.23144e-05
-4.2571e-07
2.66867e-05
3.34483e-05
-2.19009e-05
8.3398e-05
-3.20978e-05
8.04021e-05
-2.43779e-05
5.93318e-05
-1.59782e-05
5.97503e-05
-6.1186e-06
6.49101e-05
-9.57268e-08
7.1504e-05
-1.20194e-06
8.43181e-05
-2.16363e-06
8.70433e-05
-2.63844e-06
8.93733e-05
-2.72972e-06
9.08414e-05
-2.55604e-06
9.17972e-05
-2.15756e-06
9.24228e-05
-1.62667e-06
9.2882e-05
-1.03119e-06
9.31795e-05
-3.8923e-07
9.33092e-05
2.70578e-07
9.33247e-05
9.09221e-07
9.32248e-05
1.50328e-06
9.29757e-05
1.98536e-06
9.25965e-05
2.28694e-06
9.20917e-05
2.43453e-06
9.12976e-05
2.29573e-06
8.99313e-05
1.18526e-06
8.85952e-05
-1.82454e-06
8.82319e-05
-4.49948e-06
8.7845e-05
-5.17367e-06
8.39078e-05
-3.40032e-06
6.98122e-05
-1.1674e-06
5.12812e-05
-4.00223e-07
2.59465e-05
3.42947e-05
-1.31997e-05
8.97841e-05
-2.5956e-05
8.40396e-05
-2.14565e-05
5.30973e-05
-1.18667e-05
5.13611e-05
-4.24024e-06
5.86312e-05
1.15267e-06
6.81813e-05
8.38113e-07
8.53068e-05
-9.48201e-07
8.9043e-05
-1.79289e-06
9.03765e-05
-2.09973e-06
9.12698e-05
-2.08056e-06
9.18952e-05
-1.81493e-06
9.22627e-05
-1.39692e-06
9.25604e-05
-8.95861e-07
9.27679e-05
-3.51743e-07
9.28538e-05
2.12748e-07
9.28531e-05
7.54015e-07
9.27789e-05
1.24461e-06
9.25891e-05
1.62251e-06
9.23299e-05
1.84329e-06
9.19877e-05
1.906e-06
9.1376e-05
1.50648e-06
9.04798e-05
-5.95895e-08
9.01716e-05
-2.29342e-06
9.04212e-05
-4.00017e-06
8.96184e-05
-3.92664e-06
8.4355e-05
-2.65576e-06
6.93793e-05
-3.01623e-07
4.99575e-05
-9.92272e-09
2.69506e-05
3.65037e-05
-6.63461e-06
9.52064e-05
-1.53044e-05
8.66839e-05
-1.37711e-05
4.73575e-05
-6.08927e-06
4.37922e-05
-1.45164e-06
5.46499e-05
2.63369e-07
6.66981e-05
1.24548e-06
8.49268e-05
-6.42624e-07
9.10185e-05
-1.40099e-06
9.12831e-05
-1.72628e-06
9.1724e-05
-1.80275e-06
9.20812e-05
-1.61064e-06
9.21793e-05
-1.25338e-06
9.22997e-05
-8.0426e-07
9.24115e-05
-3.17497e-07
9.24594e-05
1.79516e-07
9.24505e-05
6.56028e-07
9.2398e-05
1.07529e-06
9.2272e-05
1.38141e-06
9.21299e-05
1.54947e-06
9.19274e-05
1.55423e-06
9.14972e-05
9.74552e-07
9.11338e-05
-4.27808e-07
9.1539e-05
-1.66436e-06
9.1691e-05
-2.20018e-06
9.0401e-05
-2.4606e-06
8.51271e-05
-2.37351e-06
7.0007e-05
-2.50751e-07
4.85375e-05
1.43379e-07
2.92325e-05
4.05583e-05
-9.98779e-06
0.000103128
-7.19069e-06
8.2373e-05
-1.43657e-06
4.08602e-05
7.69341e-07
4.18537e-05
1.49377e-06
5.43462e-05
-2.98412e-07
6.81457e-05
4.7778e-07
8.44206e-05
-9.06056e-07
9.24418e-05
-1.40647e-06
9.19671e-05
-1.67935e-06
9.21132e-05
-1.71517e-06
9.21808e-05
-1.52723e-06
9.20749e-05
-1.17246e-06
9.20471e-05
-7.48054e-07
9.20871e-05
-2.97644e-07
9.21089e-05
1.524e-07
9.21002e-05
5.89423e-07
9.20608e-05
9.59354e-07
9.20024e-05
1.21329e-06
9.19665e-05
1.35278e-06
9.18714e-05
1.3125e-06
9.1622e-05
7.70167e-07
9.16921e-05
-2.52556e-08
9.23295e-05
-3.03784e-07
9.20633e-05
-1.58326e-07
9.05513e-05
-5.23075e-07
8.56272e-05
-9.05376e-07
7.00685e-05
2.72833e-06
4.55421e-05
3.83848e-06
3.00014e-05
4.42951e-05
-9.00938e-06
0.000109311
1.08185e-06
7.37909e-05
6.95196e-06
3.68235e-05
5.14099e-06
4.4595e-05
2.4314e-06
5.68918e-05
-1.31353e-06
7.12715e-05
-1.16029e-06
8.46597e-05
-1.56919e-06
9.28262e-05
-1.75438e-06
9.22656e-05
-1.8629e-06
9.22742e-05
-1.70449e-06
9.20908e-05
-1.47763e-06
9.19294e-05
-1.12469e-06
9.17998e-05
-7.13593e-07
9.17832e-05
-2.93692e-07
9.17965e-05
1.19188e-07
9.17955e-05
5.29596e-07
9.17592e-05
8.42637e-07
9.17812e-05
1.06216e-06
9.1822e-05
1.20023e-06
9.18026e-05
1.15333e-06
9.17259e-05
8.26791e-07
9.20393e-05
6.24758e-07
9.25452e-05
1.06966e-06
9.1777e-05
8.82374e-07
9.07809e-05
3.442e-07
8.58675e-05
8.0227e-07
6.87239e-05
5.68891e-06
4.15855e-05
5.29481e-06
2.93636e-05
4.59116e-05
1.67455e-06
0.000107295
8.33569e-06
6.97311e-05
9.155e-06
3.80136e-05
5.43563e-06
4.98122e-05
-3.0527e-07
6.24373e-05
-2.9691e-06
7.35783e-05
-3.01712e-06
8.48917e-05
-2.42177e-06
9.23511e-05
-2.32707e-06
9.22201e-05
-2.10768e-06
9.2113e-05
-1.74093e-06
9.1837e-05
-1.43041e-06
9.17131e-05
-1.09576e-06
9.15624e-05
-6.85373e-07
9.1491e-05
-2.92385e-07
9.15195e-05
7.75454e-08