/*--------------------------------*- C++ -*----------------------------------*\
| =========                 |                                                 |
| \\      /  F ield         | OpenFOAM: The Open Source CFD Toolbox           |
|  \\    /   O peration     | Version:  2.3.0                                 |
|   \\  /    A nd           | Web:      www.OpenFOAM.org                      |
|    \\/     M anipulation  |                                                 |
\*---------------------------------------------------------------------------*/
FoamFile
{
    version     2.0;
    format      ascii;
    class       volScalarField;
    location    "3.30045";
    object      epsilon.air;
}
// * * * * * * * * * * * * * * * * * * * * * * * * * * * * * * * * * * * * * //

dimensions      [0 2 -3 0 0 0 0];

internalField   nonuniform List<scalar> 
18816
(
1.2962
6.52558
10.7372
13.3607
18.1346
20.7853
25.2126
28.4079
32.5678
35.4051
38.5128
40.7721
42.5697
42.7628
41.9551
39.455
35.5229
29.6288
22.77
15.3843
9.00416
4.60627
3.80461
6.14933
11.8264
15.9343
15.3375
3.45957
12.4899
44.2959
36.9003
36.3514
35.8838
37.0927
39.057
40.1667
40.8631
40.7574
41.2895
41.6066
39.5937
37.3016
34.2845
30.3256
25.98
21.3341
17.1244
13.6289
10.8381
9.25929
8.94587
8.39801
10.3466
14.5329
22.9201
8.19926
10.3383
30.2298
25.385
24.4967
24.2968
25.1141
26.3166
26.8794
27.1482
27.5108
27.4448
31.1251
29.6503
26.4766
23.7008
20.7244
18.1253
15.4944
12.9992
10.3331
7.54358
5.26943
4.31048
3.77949
5.33342
9.60014
18.0165
9.23052
10.4545
27.0074
23.5546
23.8242
24.0465
24.6673
26.0546
26.7291
25.4973
25.6532
23.3314
17.8967
21.1662
19.3436
17.7024
16.0781
14.5366
12.6707
10.3639
7.64561
5.13999
2.83836
2.08181
1.95987
3.34241
7.35298
17.4606
9.75289
7.35975
73.3254
21.885
21.7775
21.7514
23.7341
23.954
23.8846
25.356
24.585
20.2867
13.7585
15.8992
14.2175
11.6087
8.57416
6.07342
3.91321
2.58522
1.72077
1.33275
0.903285
0.57975
1.06344
2.55939
5.71637
15.7472
10.0091
12.7787
81.4621
55.1889
20.8549
21.4714
23.0155
23.4649
25.2768
23.5813
23.6488
18.6885
11.8273
10.6302
6.67529
2.57696
0.71845
0.506874
0.53116
0.779068
1.02114
0.76139
0.588449
0.543002
0.287179
1.54074
5.25056
15.5836
10.1212
13.441
79.2882
62.5626
49.4727
41.7153
35.873
30.1871
22.3222
22.667
20.8467
18.1724
6.42546
5.95248
2.09959
0.292742
0.0220901
0.106226
0.269927
0.534108
1.88254
2.20872
1.84803
0.711313
0.612153
0.137456
4.77121
14.9417
10.0849
18.0967
78.0234
61.9361
53.3675
43.4344
35.5839
30.2109
26.2445
24.421
20.4438
14.7474
5.1576
3.63984
0.871644
0.0705302
0.0718053
0.157062
0.364523
0.327566
1.72791
2.31001
2.46706
2.0597
0.673307
0.683906
3.63365
14.7384
10.0039
18.5574
77.0743
61.4805
51.8992
41.2789
32.9248
27.8357
25.5234
24.4279
18.8987
14.8405
4.33367
2.68014
0.370187
0.0298414
0.11182
0.157392
0.296126
0.260039
1.42392
2.32274
2.56843
2.6516
1.347
0.810304
2.62524
14.5062
9.99216
21.9061
76.6319
61.5745
51.1411
39.9056
31.5717
27.1668
25.2105
25.1814
15.3237
12.4426
3.46966
1.40173
0.369963
0.14912
0.15012
0.363926
0.311401
0.219961
1.43152
2.33859
2.60677
2.73537
2.5008
0.700446
0.220482
14.0819
9.79464
23.3285
76.2262
61.4076
50.5408
38.9094
30.9403
27.4657
26.3744
25.0515
11.4049
10.3128
2.42525
1.45133
0.504682
0.232072
0.133892
0.225039
0.299936
0.432853
1.46505
2.41558
2.63374
2.76045
2.76962
1.39691
0.416137
12.6675
9.81406
23.6886
76.3507
61.1715
50.1154
38.1413
30.4952
27.6541
27.8598
23.3386
9.70882
6.94332
4.70788
1.51997
0.738071
0.209651
0.132674
0.202656
0.267439
0.614062
1.37985
2.44068
2.61567
2.75801
2.83758
1.84087
0.552271
11.4393
9.59455
26.5199
76.7911
60.7269
49.7513
37.4532
30.0756
28.1406
29.1703
21.8294
7.17728
4.82672
3.91918
1.46857
0.713003
0.256898
0.249404
0.252699
0.309167
0.780471
1.41714
2.54969
2.65279
2.7684
2.88479
2.24925
0.714852
10.3867
9.61512
26.6814
76.9047
60.5686
49.4028
36.843
30.1062
28.8477
30.7002
20.1531
5.39883
3.35341
3.4635
1.25801
1.06171
0.200178
0.259756
0.217515
0.56242
0.733258
1.53477
2.61086
2.61749
2.70498
2.8546
2.54282
0.809547
9.42367
9.393
29.2537
76.106
60.5431
49.0118
36.3999
30.4053
29.7396
30.7995
17.2419
3.75056
2.40607
2.93096
1.09246
0.875641
0.318503
0.263517
0.257745
0.843795
0.831255
1.59772
2.52967
2.54735
2.62003
2.8073
2.73182
0.824937
8.67277
9.24724
29.4066
75.0763
60.6776
48.7396
36.2466
31.1044
31.9519
31.6258
12.7837
1.55359
1.33702
2.62326
0.720364
0.458398
0.258833
0.214375
0.616956
0.877796
0.722225
1.55214
2.32942
2.35143
2.43413
2.65406
2.72396
0.71585
8.03499
9.28723
31.7187
75.986
60.9995
48.7372
36.8998
33.9877
37.0999
28.1307
3.41127
0.201882
0.928135
2.45669
0.223669
0.162123
0.195954
0.542999
0.758022
0.961075
0.769582
1.43667
2.02227
2.12267
2.24609
2.50663
2.64436
0.648771
7.6104
8.92572
31.9196
79.1684
61.6766
49.3643
39.5395
39.5459
39.3001
14.2323
0.260792
0.159131
0.185986
1.15126
0.0946804
0.175119
0.499039
0.585476
0.693082
0.928111
0.949285
1.32341
1.76286
1.86947
2.01762
2.31118
2.49771
0.848562
7.32831
8.73337
33.8963
81.4334
62.2088
50.6373
43.064
43.5175
37.8114
4.18095
0.718115
0.542366
0.236736
0.0354292
0.318274
0.308341
0.635022
0.61766
0.712596
1.19866
1.41191
1.48235
1.53503
1.68952
1.84834
2.17128
2.36868
1.42769
7.05885
8.76
34.0909
82.4442
63.3197
53.0474
47.711
47.1885
32.9372
0.72737
0.682705
0.644342
0.482195
0.217306
0.427633
0.337416
0.55988
0.532946
0.801478
1.20575
1.79782
1.92421
1.43459
1.50356
1.67644
2.00231
2.21293
1.63086
6.78462
8.31486
36.0566
83.1338
65.049
56.7955
52.9046
50.5785
22.4598
0.244127
0.507489
0.609384
0.304128
0.186205
0.194176
0.161525
0.230781
0.265713
0.371995
0.509802
0.980356
1.30125
1.00745
1.16806
1.48464
1.85116
2.03539
1.54663
6.29506
8.3457
36.0756
87.9366
68.2101
61.0014
56.7924
49.8101
14.2272
8.70284
0.955364
0.084544
0.0700659
0.101911
0.0789523
0.0979722
0.10695
0.129411
0.156138
0.0872977
0.112065
0.501937
0.698475
1.00959
1.37704
1.75332
1.76605
1.45665
5.80671
7.92346
38.1575
93.5817
71.0496
64.4586
58.6186
46.7341
8.19179
3.17362
0.402766
0.395068
0.317041
0.275054
0.260585
0.245856
0.251254
0.273335
0.290665
0.370616
0.462112
0.615102
0.698669
0.935194
1.30391
1.68616
1.17069
1.34572
5.11653
7.74236
37.9919
98.2739
75.2034
67.8545
58.7371
43.7775
6.36865
0.672784
0.347165
0.207585
0.124774
0.0754048
0.0557725
0.0439406
0.0409622
0.0674276
0.0820748
0.168056
0.245832
0.448059
0.613227
0.884126
1.25932
1.63519
0.385253
1.25085
4.52434
7.73692
40.1716
98.5365
77.8652
70.4969
59.5331
40.6159
2.81397
0.189499
0.412903
0.291583
0.217558
0.169969
0.145299
0.133761
0.131491
0.157481
0.184379
0.251859
0.320459
0.455525
0.606001
0.841043
1.20582
1.58993
0.423639
1.19715
3.9972
7.37292
40.0896
98.9867
81.5619
73.1224
59.6937
31.4546
0.265829
0.396729
0.324255
0.218875
0.152845
0.112077
0.0868169
0.0737964
0.0749492
0.0965796
0.143664
0.213007
0.285727
0.410545
0.56718
0.798482
1.12311
1.48879
0.574612
1.12372
3.60316
7.20049
42.6724
99.478
82.7847
74.5625
59.2548
23.5941
0.410934
0.366185
0.246193
0.187441
0.133611
0.114056
0.0985796
0.0891827
0.0918177
0.10781
0.156379
0.214844
0.282883
0.387488
0.518732
0.69943
0.948437
1.26479
0.790463
1.02711
3.41245
7.1941
43.8422
106.182
86.6635
76.8789
56.1028
12.0404
0.439203
0.244608
0.152139
0.125793
0.0869546
0.0796215
0.0712386
0.0658823
0.0697079
0.0845247
0.120408
0.160955
0.206775
0.275682
0.360871
0.474066
0.59226
0.773414
0.969766
0.758353
3.36746
6.89464
0.540155
1.02432
2.48521
3.27799
4.58155
5.31159
6.48545
7.3127
8.35384
9.03186
9.74589
10.1924
10.4543
10.3409
9.94967
9.13088
7.98514
6.41966
4.71776
2.96696
1.5346
0.734327
0.606316
1.04976
2.41239
3.67816
3.63582
2.48594
1.39269
10.5106
9.15409
9.10643
9.10893
9.4419
9.91015
10.1233
10.2479
10.2127
10.344
10.4518
10.0219
9.47462
8.73519
7.76188
6.6754
5.47049
4.3558
3.40835
2.66434
2.26039
2.17249
2.10353
2.62396
3.7032
5.66974
2.18282
0.304145
1.91539
1.56319
1.47132
1.39372
1.37194
1.34453
1.29538
1.26806
1.30471
2.21283
8.38203
7.89704
7.09348
6.40326
5.63784
4.94598
4.22166
3.53207
2.81348
2.07555
1.53172
1.31303
1.19378
1.5327
2.63079
4.8535
2.09806
0.250202
0.340104
0.257496
0.225707
0.190991
0.168189
0.144525
0.129748
0.121276
0.137767
0.327628
1.6012
5.86514
5.39861
5.00332
4.59786
4.14596
3.59107
2.9018
2.12065
1.40153
0.825837
0.643209
0.613131
0.949329
1.97937
4.63506
2.67112
0.741306
12.409
0.115657
0.0682294
0.0559805
0.0406522
0.031361
0.0291449
0.0287456
0.0326513
0.102941
0.832041
4.54704
4.13046
3.48256
2.65593
1.91878
1.2292
0.794556
0.527397
0.410057
0.295876
0.232807
0.35071
0.727295
1.55793
4.15652
2.7338
1.28853
20.4287
9.20401
0.0699168
0.0471229
0.0378813
0.0302793
0.0200775
0.0201528
0.0199088
0.0513653
0.515938
3.13323
2.01429
0.831648
0.278535
0.201993
0.223742
0.345741
0.487826
0.376669
0.248526
0.223392
0.141477
0.483066
1.43685
4.1045
2.93595
1.7747
20.8397
15.6102
8.88479
7.53685
6.47771
4.84189
0.0278664
0.0266529
0.0219553
0.0277489
0.23404
1.80305
0.660055
0.110049
0.014539
0.0475438
0.108878
0.213952
0.790748
0.928254
0.882459
0.374694
0.248258
0.114362
1.30518
3.96108
2.95235
2.8458
20.6146
16.3996
13.6229
11.0915
9.04342
7.47542
4.77604
4.39891
3.40122
0.0227238
0.0965105
1.10416
0.281871
0.0268008
0.0261526
0.0553899
0.111062
0.128636
0.726895
0.944022
0.995559
0.9347
0.298263
0.254579
1.0538
3.92617
2.97144
3.16863
20.3168
16.2945
13.6954
10.903
8.6513
7.28672
6.52225
6.21042
4.74933
0.0324558
0.0361988
0.829094
0.130422
0.0168108
0.0353826
0.054398
0.0887109
0.0949114
0.608689
0.936642
1.01286
1.05366
0.748361
0.339635
0.836761
3.87888
2.99031
4.15175
20.1657
16.2267
13.4911
10.5247
8.25564
7.08523
6.60902
6.65135
4.1421
0.0299194
0.0125653
0.431306
0.124143
0.054517
0.0454187
0.0943206
0.117741
0.117786
0.605373
0.940139
1.01724
1.05772
1.07476
0.326397
0.140233
3.79105
2.92231
4.24606
20.0654
16.1403
13.2983
10.2325
8.06573
7.13619
6.94483
6.86355
2.94314
0.0384575
0.015804
0.39207
0.159911
0.0822054
0.0476872
0.0701536
0.108448
0.231468
0.573362
0.956642
1.01242
1.05304
1.0917
1.00434
0.234818
3.46716
2.89145
4.86023
20.0551
16.089
13.1817
10.0228
7.95226
7.19009
7.37991
6.45226
2.66616
1.38014
1.02113
0.445432
0.220691
0.0772847
0.0480333
0.0672312
0.116695
0.312764
0.54647
0.965321
1.00187
1.04224
1.09764
1.07077
0.279417
3.13418
2.92465
5.16637
20.0602
16.0185
13.0899
9.844
7.8504
7.33392
7.74564
6.01665
2.06083
1.34371
1.10174
0.442121
0.225671
0.0904312
0.0859833
0.0932871
0.157772
0.357659
0.568968
0.985963
0.997847
1.02749
1.09339
1.1114
0.327685
2.85631
2.93498
5.16844
20.0184
15.9948
13.0028
9.68303
7.86342
7.56193
8.21343
5.57956
1.53154
0.972267
0.995313
0.384637
0.307533
0.0818392
0.0832146
0.0775326
0.280536
0.333764
0.596648
0.959008
0.957091
0.982885
1.06381
1.10806
0.355509
2.59622
2.92733
5.66459
19.9201
15.9807
12.8885
9.56997
7.96385
7.82938
8.29263
4.8195
1.07933
0.691998
0.848788
0.330744
0.266493
0.112905
0.101969
0.126272
0.3733
0.366145
0.59871
0.87737
0.899063
0.931326
1.02685
1.08881
0.375858
2.384
2.94767
5.6814
19.9628
15.9699
12.7952
9.52575
8.15616
8.3464
8.53613
3.67389
0.463107
0.387247
0.7564
0.222449
0.140701
0.0887721
0.0923631
0.261667
0.375731
0.326624
0.554338
0.769035
0.802497
0.849924
0.959227
1.03041
0.400144
2.20017
2.91091
6.13691
20.2811
15.9921
12.7604
9.65009
8.83139
9.69137
7.72649
1.07736
0.0747242
0.273004
0.685254
0.0868748
0.0610258
0.1019
0.23685
0.299055
0.412711
0.358424
0.526656
0.661661
0.715492
0.777719
0.901677
0.979136
0.502079
2.07325
2.87652
6.19232
20.8291
16.0999
12.8703
10.2641
10.2082
10.2818
4.36161
0.137002
0.0831526
0.0696669
0.318883
0.0491268
0.123927
0.230672
0.260478
0.30023
0.42222
0.460753
0.526501
0.581568
0.627689
0.697661
0.832024
0.91936
0.699112
1.99269
2.87979
6.56549
21.2226
16.2186
13.1574
11.1166
11.1921
9.89134
1.45506
0.337219
0.247464
0.149
0.0241188
0.193202
0.157962
0.302676
0.267168
0.310518
0.517905
0.651437
0.623529
0.521145
0.564657
0.641974
0.784545
0.868932
0.812624
1.92302
2.78695
6.65905
21.6629
16.4996
13.7229
12.2217
12.0574
8.8001
0.319513
0.264112
0.301598
0.26864
0.148684
0.251841
0.19694
0.292033
0.257708
0.341504
0.492305
0.708298
0.697216
0.467252
0.482366
0.57992
0.725767
0.804904
0.775981
1.85278
2.80733
7.02927
22.1788
16.9625
14.634
13.5242
12.9351
6.26638
0.126143
0.189221
0.319706
0.225914
0.171459
0.171424
0.153109
0.18787
0.204169
0.232809
0.225296
0.260511
0.331746
0.308191
0.385725
0.528263
0.683337
0.71951
0.719201
1.72991
2.68664
7.05036
23.2583
17.7916
15.7011
14.5997
12.928
4.11975
0.113235
0.0481025
0.0497815
0.0441218
0.0579193
0.0465394
0.0547777
0.0526903
0.0581954
0.0623489
0.0497306
0.0639263
0.181928
0.245964
0.356792
0.504334
0.655977
0.566622
0.655218
1.61151
2.6365
7.41327
24.0931
18.4859
16.5878
15.0886
12.2694
2.45851
0.0324199
0.133768
0.12069
0.0920315
0.0771305
0.0713871
0.06707
0.0692223
0.077714
0.0848978
0.11172
0.140737
0.198331
0.241727
0.333797
0.48064
0.632276
0.302675
0.582461
1.43929
2.63726
7.3927
24.9011
19.4306
17.4194
15.1103
11.5429
2.02338
0.0349059
0.120038
0.0760868
0.0462966
0.0290181
0.0217371
0.0177551
0.017111
0.0264702
0.0348925
0.0648666
0.0929913
0.158785
0.220193
0.321381
0.467241
0.613005
0.180943
0.530047
1.28847
2.54248
7.82269
25.1529
20.018
18.0615
15.2997
10.8084
0.987171
0.0802431
0.137203
0.0891694
0.063096
0.0477268
0.0401499
0.0367258
0.0367654
0.044852
0.0584114
0.0836885
0.109738
0.158573
0.215999
0.303401
0.440249
0.585577
0.170875
0.501718
1.15167
2.54905
7.7745
25.9291
20.9411
18.7502
15.4542
8.65626
0.122623
0.137869
0.095048
0.0631366
0.0419727
0.0316578
0.0252102
0.021779
0.0228449
0.0302377
0.0478739
0.0718253
0.0978904
0.141073
0.196781
0.278913
0.393859
0.523763
0.162908
0.459175
1.04554
2.46213
8.34012
26.3504
21.3128
19.0932
15.397
6.70102
0.395485
0.109496
0.0687848
0.0514095
0.0349701
0.0301027
0.0264596
0.0242522
0.0256862
0.0317415
0.0481559
0.0673633
0.0894743
0.122225
0.163234
0.218543
0.294135
0.387811
0.175233
0.388489
0.998166
2.43352
8.46529
27.7777
22.3208
19.7326
14.7133
3.45191
0.218291
0.0467148
0.0326314
0.0261081
0.0185171
0.0168117
0.015309
0.0144814
0.0155354
0.0192734
0.0270407
0.0352041
0.043688
0.0551864
0.067873
0.0820542
0.091017
0.101094
0.240216
0.183831
0.986726
2.41545
0.172371
0.153931
0.516976
0.737758
1.07489
1.27648
1.58948
1.81701
2.09449
2.26905
2.43032
2.50768
2.53457
2.44468
2.27604
1.9893
1.63843
1.21702
0.82052
0.463782
0.230474
0.128746
0.113586
0.173292
0.415197
0.783079
0.8064
0.22483
0.484259
2.35093
2.17666
2.21943
2.29294
2.4232
2.59355
2.69005
2.77264
2.81927
2.92238
3.00975
2.91314
2.76672
2.5611
2.45737
2.41288
2.07911
1.66419
1.30494
1.02458
0.884697
0.851983
0.852251
1.02555
1.11483
1.59077
0.325655
0.306081
0.569597
0.48936
0.46668
0.454576
0.452165
0.443329
0.430289
0.427083
0.472172
0.878243
2.61485
2.52938
2.48598
2.48621
2.33378
2.10878
1.82508
1.54233
1.24766
0.951946
0.748002
0.659088
0.588266
0.713958
1.12724
1.50106
0.449625
0.227357
0.140596
0.112062
0.10965
0.0952196
0.0855929
0.0746166
0.0690864
0.069768
0.0876677
0.180043
0.676963
1.88811
1.76973
1.65818
1.51864
1.3582
1.17142
0.950865
0.706861
0.480329
0.318832
0.26525
0.250132
0.398326
0.830067
1.42762
0.652786
0.19169
1.77281
0.0736521
0.0582668
0.0520713
0.0431921
0.0353251
0.0327176
0.0328032
0.0410019
0.084375
0.367082
1.47144
1.36216
1.17582
0.930467
0.680151
0.439236
0.329605
0.238766
0.194377
0.145823
0.122056
0.157024
0.260225
0.643889
1.29566
0.662155
0.384108
5.32989
1.28047
0.0564335
0.0437381
0.034752
0.0272032
0.023549
0.0235109
0.0280733
0.0520509
0.227034
1.02576
0.677041
0.29535
0.123107
0.088968
0.113399
0.208058
0.335447
0.340968
0.232881
0.12066
0.0924014
0.195965
0.52492
1.27468
0.737304
0.745464
6.00589
4.07422
1.45285
1.26873
1.12399
0.696816
0.0273155
0.0258272
0.0261248
0.0320735
0.111546
0.600557
0.225593
0.0429638
0.00884907
0.0240456
0.0480162
0.106579
0.407028
0.478684
0.496827
0.341971
0.12841
0.092697
0.450111
1.22788
0.720626
0.926723
6.0129
4.82279
3.76821
3.1007
2.55971
2.02884
0.86554
0.762332
0.505357
0.02398
0.0498831
0.368513
0.100078
0.0118866
0.0115542
0.0233277
0.0397046
0.0634395
0.368736
0.473166
0.497236
0.511576
0.24832
0.154362
0.377581
1.21094
0.717612
1.19042
5.92436
4.83687
4.04839
3.23746
2.58852
2.18355
1.86651
1.74324
1.29818
0.0250671
0.0244767
0.285528
0.0519867
0.0107457
0.01431
0.0223793
0.0337472
0.0490605
0.319425
0.460815
0.493544
0.514092
0.481085
0.153297
0.318823
1.19425
0.696431
1.25654
5.86274
4.79309
3.99931
3.14632
2.48316
2.1341
1.98269
1.98724
1.24202
0.0302779
0.0128947
0.154886
0.0479423
0.0266095
0.0175293
0.0316599
0.0638817
0.103142
0.31308
0.458989
0.486876
0.50582
0.53659
0.291268
0.105177
1.17127
0.711589
1.45449
5.83043
4.74969
3.93418
3.04841
2.41534
2.13913
2.09792
2.127
0.866011
0.0401127
0.0171049
0.126892
0.0593432
0.0412081
0.0261338
0.0392218
0.14399
0.196434
0.294576
0.458626
0.475376
0.49467
0.528352
0.568932
0.309633
1.09136
0.703455
1.46462
5.81722
4.73635
3.89604
2.98373
2.38399
2.15486
2.22688
2.01586
0.878472
0.325723
0.255202
0.15458
0.0778604
0.0407209
0.0302503
0.0511041
0.240125
0.246241
0.290118
0.459546
0.464433
0.4801
0.521998
0.567096
0.375427
0.990703
0.735067
1.63211
5.79822
4.72721
3.86909
2.93154
2.35692
2.20035
2.32957
1.86528
0.685184
0.430301
0.358489
0.158553
0.08888
0.0456476
0.0517842
0.0673116
0.255867
0.268172
0.302754
0.454821
0.449207
0.460918
0.507181
0.553404
0.395649
0.910771
0.746637
1.70305
5.78235
4.72294
3.84444
2.88403
2.36105
2.27644
2.47875
1.72516
0.518842
0.326974
0.339797
0.141026
0.105605
0.0454876
0.0484667
0.0851305
0.27495
0.239847
0.310222
0.414029
0.413604
0.428195
0.483432
0.52922
0.403491
0.832702
0.782064
1.71242
5.79897
4.71524
3.80515
2.85298
2.39423
2.35774
2.50717
1.49777
0.359512
0.234513
0.287073
0.121808
0.0991676
0.0556148
0.061095
0.169915
0.280239
0.261144
0.299469
0.355325
0.371493
0.394862
0.457315
0.503258
0.45237
0.76607
0.783753
1.85553
5.87185
4.6948
3.77081
2.83924
2.44701
2.47963
2.56616
1.17352
0.154885
0.135105
0.257252
0.0861089
0.0499889
0.0530586
0.103125
0.186136
0.265542
0.225414
0.268528
0.296243
0.318774
0.352875
0.423031
0.470172
0.47731
0.706393
0.791379
1.84987
5.95143
4.68105
3.75103
2.86301
2.61793
2.85744
2.35247
0.378023
0.0453536
0.0964895
0.221481
0.0504966
0.0407785
0.145219
0.171734
0.208343
0.285249
0.25563
0.261434
0.255989
0.280833
0.32129
0.397361
0.445672
0.49209
0.666111
0.760966
1.97531
6.03379
4.69798
3.77058
3.01625
2.98367
3.02105
1.46141
0.083809
0.1201
0.0464766
0.10131
0.051477
0.141816
0.164732
0.186201
0.21324
0.305123
0.325034
0.276707
0.226993
0.245171
0.289307
0.369085
0.418845
0.477908
0.648811
0.771482
1.97342
6.12078
4.73263
3.84223
3.2429
3.25062
2.88356
0.551469
0.174393
0.171338
0.167366
0.0399398
0.171193
0.110644
0.2259
0.179521
0.211034
0.375377
0.480048
0.323313
0.208149
0.219795
0.269193
0.351426
0.395301
0.430667
0.646546
0.729018
2.0937
6.29959
4.81425
3.9892
3.52975
3.4688
2.58792
0.141922
0.130019
0.220679
0.212759
0.1227
0.200131
0.150653
0.224561
0.186807
0.245273
0.363512
0.554889
0.318763
0.170697
0.181997
0.247366
0.330098
0.362861
0.399325
0.646071
0.724947
2.08439
6.48543
4.94638
4.23984
3.90373
3.73766
1.91583
0.0617437
0.1009
0.232683
0.19712
0.169509
0.163618
0.153187
0.169165
0.178581
0.17795
0.1415
0.13008
0.115793
0.116947
0.15854
0.2365
0.319448
0.31317
0.365363
0.613019
0.694341
2.17196
6.69463
5.18579
4.5526
4.25192
3.79194
1.31232
0.0368617
0.0274107
0.0323387
0.028876
0.0359231
0.029371
0.0337211
0.0295194
0.0305145
0.0304985
0.0303195
0.0393414
0.0791942
0.105411
0.157085
0.232478
0.31062
0.228345
0.328931
0.570396
0.705753
2.19398
6.80012
5.37977
4.81923
4.41059
3.63769
0.810466
0.0144849
0.0537817
0.044281
0.0302796
0.0232698
0.020208
0.0186316
0.0193122
0.0236468
0.0281408
0.0403437
0.0521894
0.0778049
0.103171
0.148887
0.222812
0.300123
0.143626
0.290618
0.507521
0.673809
2.26788
6.96811
5.62379
5.05303
4.41312
3.445
0.704841
0.0193041
0.0504066
0.0322246
0.019496
0.0125833
0.00947971
0.00793779
0.00790402
0.0119204
0.0174515
0.0303497
0.0430421
0.0689815
0.0979701
0.145706
0.216905
0.289162
0.117319
0.266432
0.458769
0.67685
2.32126
7.1297
5.78199
5.24051
4.47794
3.24636
0.386979
0.0364932
0.0529723
0.0314258
0.0207889
0.0152025
0.0124585
0.0112089
0.0115472
0.0147114
0.022426
0.0337856
0.0458957
0.0671902
0.0941757
0.134308
0.19805
0.26652
0.113941
0.249255
0.419316
0.652971
2.41345
7.49483
6.05638
5.46413
4.57778
2.6685
0.0535764
0.0533441
0.0318303
0.0211484
0.0134358
0.0104808
0.00865261
0.00765892
0.0083031
0.0113315
0.0192386
0.0292701
0.040585
0.0581807
0.0814623
0.116017
0.164787
0.217774
0.104029
0.217295
0.399867
0.650177
2.4299
7.65033
6.18682
5.57082
4.57113
2.12732
0.170791
0.0343491
0.0214609
0.0161191
0.010595
0.00922665
0.00828305
0.00772963
0.00843934
0.011059
0.0173309
0.0244163
0.0323763
0.043539
0.0573216
0.0754002
0.0984217
0.11946
0.0965883
0.156635
0.399114
0.638761
2.55668
7.95228
6.50399
5.78648
4.38411
1.08986
0.064394
0.0102723
0.00878314
0.00720227
0.00544598
0.00493315
0.00459508
0.00446245
0.00481221
0.00596485
0.00786968
0.00960145
0.0111653
0.0129077
0.0146861
0.0166345
0.016714
0.0173854
0.0674494
0.0361132
0.381119
0.636972
0.0714924
0.0439338
0.126395
0.181417
0.265872
0.321409
0.405167
0.467721
0.539357
0.58108
0.608173
0.612576
0.602024
0.554635
0.490398
0.401979
0.313663
0.225106
0.156592
0.101822
0.0686444
0.0528562
0.0496575
0.0584322
0.0920534
0.163125
0.171296
0.0835898
0.202871
0.562035
0.568465
0.607604
0.65727
0.712341
0.778492
0.815793
0.851212
0.879111
0.958553
1.11947
1.21802
1.19765
1.12978
1.05006
0.961829
0.854779
0.742627
0.629682
0.534698
0.480448
0.462676
0.464734
0.458996
0.495741
0.55458
0.147591
0.152073
0.217389
0.191599
0.195151
0.220169
0.235509
0.238767
0.23848
0.248058
0.302254
0.580478
1.26933
1.23678
1.13997
1.05515
0.945697
0.838437
0.695768
0.579203
0.473307
0.376745
0.3182
0.288608
0.253475
0.284386
0.423184
0.712614
0.142393
0.099212
0.0719565
0.0663594
0.069453
0.0614952
0.0565399
0.051715
0.0503583
0.0562678
0.0788562
0.159842
0.473654
0.958053
0.889775
0.817124
0.723489
0.614744
0.521783
0.444402
0.33626
0.237363
0.180082
0.149532
0.129882
0.143201
0.294556
0.671297
0.25191
0.0669609
0.280413
0.0507386
0.0449004
0.0398159
0.0340316
0.0290298
0.0276089
0.0299928
0.0408768
0.0813091
0.250295
0.587909
0.516416
0.455304
0.376182
0.298666
0.218155
0.149762
0.123385
0.114952
0.0999406
0.100794
0.100296
0.123788
0.205677
0.58237
0.264094
0.141038
1.44726
0.228088
0.0416839
0.034738
0.0282942
0.0227967
0.0210268
0.0215931
0.0266112
0.0433607
0.129367
0.380069
0.256008
0.118065
0.0616056
0.046739
0.0693473
0.156505
0.26838
0.298997
0.290029
0.155278
0.0836433
0.110249
0.181954
0.56137
0.268231
0.28017
1.94903
1.10912
0.29336
0.278465
0.261452
0.138615
0.0222747
0.0209034
0.0206908
0.026326
0.0664546
0.223619
0.0837147
0.0178576
0.00599802
0.013752
0.0244342
0.0689915
0.246176
0.289683
0.303086
0.31222
0.129046
0.0916039
0.172983
0.536427
0.274109
0.295925
2.00253
1.59969
1.12734
0.957453
0.880888
0.729289
0.20417
0.143767
0.0848102
0.018932
0.0310663
0.137769
0.039516
0.00641727
0.00644764
0.0121519
0.0175276
0.0381397
0.219356
0.279825
0.291637
0.307538
0.270861
0.0968905
0.161335
0.523459
0.265108
0.435349
1.9688
1.64329
1.35769
1.09189
0.926921
0.872931
0.659802
0.529936
0.384073
0.0192254
0.0180842
0.113179
0.024093
0.00778166
0.00839556
0.0125759
0.0175402
0.0286543
0.195561
0.266625
0.281855
0.293311
0.316637
0.109348
0.155296
0.495854
0.25977
0.444532
1.93809
1.62004
1.35172
1.07525
0.909973
0.850642
0.716597
0.670496
0.43051
0.0327204
0.0104851
0.0699474
0.0222415
0.0188209
0.0099712
0.0128734
0.045498
0.0836499
0.201474
0.26287
0.272332
0.282601
0.309578
0.296306
0.0905165
0.488373
0.255262
0.532468
1.92083
1.59686
1.32917
1.04317
0.89667
0.848899
0.730114
0.762995
0.320932
0.0342293
0.0148639
0.0596255
0.0311801
0.0588491
0.0301969
0.0458583
0.286792
0.184554
0.203658
0.257206
0.259509
0.269718
0.299664
0.327184
0.333689
0.476791
0.254784
0.538402
1.91073
1.58942
1.31345
1.02114
0.896716
0.851019
0.77137
0.725164
0.446392
0.116449
0.108546
0.0846505
0.0626339
0.112757
0.122966
0.199574
0.351365
0.238645
0.208427
0.254469
0.247786
0.254454
0.288335
0.32083
0.350096
0.454616
0.268731
0.600561
1.90259
1.58741
1.30384
1.00516
0.885442
0.849549
0.801268
0.667547
0.288062
0.21519
0.14761
0.0981655
0.0865219
0.1052
0.206555
0.295744
0.342909
0.288928
0.216038
0.241053
0.22927
0.236458
0.272935
0.303091
0.350697
0.43636
0.272322
0.623269
1.90435
1.58506
1.29631
0.991491
0.877209
0.830434
0.853331
0.613123
0.374034
0.226605
0.172563
0.1003
0.0836206
0.0868725
0.170186
0.224388
0.319154
0.240222
0.22157
0.204967
0.200259
0.212566
0.255203
0.287346
0.345734
0.410522
0.275199
0.633272
1.92706
1.58003
1.28187
0.983867
0.860906
0.821766
0.863175
0.53177
0.219992
0.203929
0.153284
0.105243
0.0754133
0.0881457
0.210862
0.274489
0.313181
0.283695
0.207539
0.166261
0.171077
0.191102
0.23765
0.269418
0.349377
0.383195
0.273822
0.672246
1.96071
1.56709
1.26955
0.978825
0.856455
0.844527
0.873896
0.432758
0.110948
0.138663
0.127781
0.118054
0.0392927
0.143613
0.191328
0.193942
0.292287
0.221291
0.180775
0.135805
0.142118
0.168215
0.21953
0.252307
0.333661
0.358204
0.275788
0.674708
1.97586
1.55705
1.26099
0.980772
0.894432
0.956854
0.811354
0.157376
0.122544
0.108759
0.138303
0.117926
0.105916
0.219862
0.171204
0.213561
0.305662
0.251922
0.174541
0.119518
0.12536
0.154054
0.207606
0.239502
0.307441
0.342731
0.260314
0.708621
1.98668
1.56098
1.26439
1.01811
0.993845
1.00095
0.545241
0.0897023
0.201533
0.168771
0.150698
0.183212
0.166537
0.160992
0.200505
0.232038
0.306423
0.323114
0.18348
0.10625
0.109379
0.141118
0.195652
0.225492
0.278097
0.336345
0.25564
0.708422
2.01397
1.5747
1.28305
1.07919
1.06409
0.940566
0.233615
0.104983
0.163258
0.197059
0.0667152
0.186475
0.100154
0.240204
0.169225
0.201258
0.405192
0.486813
0.210902
0.0988723
0.0983979
0.134304
0.18907
0.211886
0.248045
0.332474
0.248457
0.741598
2.08275
1.60099
1.32268
1.1552
1.11607
0.842531
0.0687374
0.0817317
0.220084
0.222523
0.11573
0.202637
0.139891
0.23321
0.179156
0.250221
0.421198
0.660509
0.194838
0.0754401
0.0847532
0.12928
0.182479
0.191373
0.232394
0.326326
0.247553
0.737681
2.13412
1.63918
1.39624
1.27059
1.20721
0.642766
0.038251
0.0684793
0.197413
0.180939
0.169447
0.158852
0.153629
0.157209
0.163378
0.150113
0.111778
0.0991916
0.0581869
0.0564224
0.0804268
0.128828
0.18047
0.159709
0.210929
0.311284
0.232353
0.760657
2.16475
1.71195
1.4973
1.3977
1.25081
0.467376
0.0181012
0.019279
0.0222788
0.0192164
0.0235657
0.0193027
0.0220236
0.0179398
0.0177776
0.0173461
0.0188808
0.0249842
0.0403668
0.0540282
0.0833496
0.128719
0.175597
0.116025
0.1901
0.296251
0.220346
0.761055
2.17744
1.7724
1.58772
1.45709
1.20998
0.299671
0.0097382
0.0264822
0.0196431
0.0119585
0.00862379
0.00678848
0.00621287
0.00623753
0.0085315
0.011613
0.018225
0.0245129
0.0373217
0.0530979
0.0797859
0.122974
0.168253
0.0882637
0.169318
0.272551
0.218761
0.782251
2.23208
1.84273
1.66059
1.45548
1.15575
0.276514
0.0129801
0.0251898
0.0156289
0.00925426
0.00610997
0.00464151
0.00396432
0.00405791
0.00608492
0.00990173
0.0165467
0.0234453
0.0358951
0.0519472
0.077966
0.117472
0.157726
0.0788438
0.156097
0.251614
0.190031
0.784743
2.31357
1.89303
1.72133
1.47923
1.10535
0.175527
0.0191009
0.0230786
0.0127408
0.00805287
0.00586439
0.00475077
0.00422317
0.00447921
0.0060384
0.0105138
0.0163166
0.0227697
0.0332356
0.0473966
0.0681174
0.100762
0.134801
0.074648
0.140801
0.233747
0.185912
0.818199
2.44734
1.98761
1.80734
1.54189
0.937949
0.0334344
0.0220659
0.0125155
0.00876879
0.00548459
0.00439552
0.00373449
0.00338443
0.00375353
0.00527801
0.00946342
0.014238
0.0197302
0.0275345
0.0378524
0.0531411
0.0743282
0.0940179
0.0624468
0.111928
0.222299
0.167118
0.827681
2.49422
2.03751
1.84567
1.54753
0.769847
0.0755835
0.011577
0.00802558
0.00637166
0.00423484
0.0037224
0.00339625
0.00322776
0.0035895
0.00490587
0.0075748
0.0103902
0.0133465
0.017158
0.0215482
0.0270509
0.0337303
0.035812
0.0491079
0.0644544
0.22014
0.160661
0.853584
2.55967
2.15419
1.92952
1.48908
0.396302
0.0244607
0.0037141
0.00364746
0.00320686
0.00258453
0.0023648
0.00224474
0.00221313
0.00237591
0.00288287
0.00355169
0.00404535
0.0044282
0.00473832
0.0051821
0.00584608
0.00601551
0.00565833
0.0188385
0.0143569
0.214207
0.145575
0.0530515
0.0274716
0.0558873
0.0719113
0.096875
0.113531
0.137653
0.155077
0.172848
0.181365
0.184674
0.180783
0.173258
0.156056
0.137027
0.114102
0.0942439
0.075448
0.0617011
0.0503775
0.0431394
0.038437
0.0367694
0.037741
0.0421692
0.0525756
0.0509473
0.0421644
0.0863224
0.156877
0.168364
0.190674
0.221615
0.263156
0.319336
0.358946
0.39056
0.417657
0.464483
0.515617
0.557971
0.60831
0.657706
0.693731
0.699094
0.652009
0.5679
0.453742
0.388365
0.347461
0.31958
0.288634
0.239409
0.238527
0.239586
0.071688
0.0814457
0.115316
0.113038
0.118844
0.126059
0.130351
0.133144
0.136727
0.15173
0.198837
0.365112
0.606744
0.598753
0.547771
0.475299
0.407706
0.356395
0.313331
0.279363
0.255039
0.231805
0.21661
0.189286
0.157168
0.141359
0.180821
0.288908
0.0769318
0.0612022
0.0525084
0.0465195
0.0437254
0.0387147
0.0367053
0.0353074
0.0366192
0.0438296
0.0637453
0.118979
0.272257
0.410469
0.376147
0.347423
0.320631
0.290396
0.2588
0.214142
0.173241
0.147605
0.133053
0.114333
0.103411
0.0897587
0.125846
0.26991
0.0911912
0.0397128
0.0921658
0.0349248
0.0324759
0.027719
0.0236182
0.0204478
0.0195222
0.0223849
0.0317542
0.0600749
0.148025
0.254362
0.226839
0.202648
0.186663
0.158676
0.110058
0.117423
0.14314
0.163885
0.146171
0.0944647
0.0905581
0.0798159
0.0952624
0.230929
0.0910745
0.0669628
0.539568
0.0704293
0.027516
0.0226384
0.0181625
0.0153566
0.0146041
0.0158791
0.0202814
0.033011
0.078884
0.16026
0.109568
0.0596808
0.0299599
0.0285545
0.0455932
0.119938
0.196222
0.216194
0.225488
0.222603
0.0920319
0.089308
0.0907889
0.222008
0.0885729
0.103681
0.904097
0.422759
0.0861545
0.0735311
0.0619775
0.0318155
0.0139518
0.0140421
0.0155927
0.0200604
0.0405457
0.0929061
0.0335908
0.00846092
0.00461578
0.00894394
0.0150504
0.0457347
0.165651
0.19228
0.197018
0.218858
0.188599