/*--------------------------------*- C++ -*----------------------------------*\
| =========                 |                                                 |
| \\      /  F ield         | OpenFOAM: The Open Source CFD Toolbox           |
|  \\    /   O peration     | Version:  2.3.0                                 |
|   \\  /    A nd           | Web:      www.OpenFOAM.org                      |
|    \\/     M anipulation  |                                                 |
\*---------------------------------------------------------------------------*/
FoamFile
{
    version     2.0;
    format      ascii;
    class       volScalarField;
    location    "3.30045";
    object      km;
}
// * * * * * * * * * * * * * * * * * * * * * * * * * * * * * * * * * * * * * //

dimensions      [0 2 -2 0 0 0 0];

internalField   nonuniform List<scalar> 
18816
(
0.00611147
0.0151743
0.0240803
0.0283038
0.0349447
0.038388
0.0436988
0.0472884
0.0516583
0.0543975
0.0572349
0.0590847
0.060296
0.0600171
0.0587385
0.05582
0.0514829
0.0450692
0.0373275
0.0282853
0.0192032
0.0120253
0.0105898
0.0148271
0.0240715
0.0304042
0.0302009
0.0104269
1e-15
0.0614605
0.0550885
0.0547328
0.0544711
0.0557067
0.0575009
0.0582769
0.0585717
0.0581799
0.0584374
0.0586573
0.056571
0.0541728
0.0509887
0.0468246
0.0421036
0.0367807
0.0316303
0.0269522
0.022969
0.0206181
0.020141
0.0195487
0.0226979
0.0287364
0.0389475
1e-15
1e-15
1e-15
1e-15
1e-15
1e-15
1e-15
1e-15
1e-15
1e-15
1e-15
1e-15
0.049063
0.0468818
0.0432982
0.0401233
0.036603
0.0333803
0.0299775
0.0266078
0.0228614
0.0186381
0.0149858
0.0133569
0.0123168
0.0150667
0.0220826
0.0338235
1e-15
1e-15
1e-15
1e-15
1e-15
1e-15
1e-15
1e-15
1e-15
1e-15
1e-15
1e-15
1e-15
0.0376708
0.0354358
0.0334021
0.0313264
0.029129
0.0264239
0.0229841
0.0186662
0.0142448
0.00979857
0.00818518
0.00784217
0.0108148
0.0182552
0.0327976
1e-15
1e-15
0.0749579
1e-15
1e-15
1e-15
1e-15
1e-15
1e-15
1e-15
1e-15
1e-15
1e-15
0.0313957
0.0292024
0.0255745
0.02086
0.0165124
0.0121639
0.00909448
0.00686262
0.00579145
0.0045613
0.00376598
0.00528133
0.00908085
0.0154697
0.030547
1e-15
1e-15
0.0929908
0.0616576
1e-15
1e-15
1e-15
1e-15
1e-15
1e-15
1e-15
1e-15
1e-15
0.0241504
0.0177338
0.00940037
0.00414942
0.00270378
0.00235698
0.0024202
0.00237118
0.00247367
0.00271869
0.00310301
0.00253471
0.00664247
0.0145983
0.0302389
1e-15
1e-15
0.0930457
0.077705
0.058255
0.0518295
0.0466505
0.040111
1e-15
1e-15
1e-15
1e-15
1e-15
0.0165055
0.00826221
0.00229052
0.000544466
0.00108884
0.00165031
0.00187326
0.00196633
0.00209598
0.00226501
0.00261941
0.00347223
0.00231848
0.0136995
0.0294303
1e-15
1e-15
0.0923172
0.0789281
0.0702236
0.060966
0.0531482
0.0471109
0.0376716
0.0357272
0.0308901
1e-15
1e-15
0.0118515
0.00459348
0.000892831
0.000893831
0.00147743
0.00195913
0.00177887
0.00192085
0.0020954
0.00219965
0.0023459
0.0029041
0.00399376
0.0116681
0.0291691
1e-15
1e-15
0.0915413
0.0787572
0.0699585
0.0598557
0.0512614
0.045592
0.0424688
0.0410869
0.0341502
1e-15
1e-15
0.00965858
0.00266595
0.000614193
0.00114493
0.00150626
0.00177123
0.00153159
0.00172817
0.00209375
0.00222545
0.00230818
0.00260086
0.00416428
0.00967565
0.0289211
1e-15
1e-15
0.0911702
0.0787394
0.0693523
0.0585401
0.0497845
0.0448253
0.0425927
0.0424209
0.0305004
1e-15
1e-15
0.00622876
0.0026317
0.00146097
0.00137252
0.00235056
0.00198537
0.00120744
0.00164084
0.00209866
0.0022346
0.00230642
0.00240538
0.00293081
0.00252649
0.028435
1e-15
1e-15
0.0909134
0.0785342
0.0687881
0.0575414
0.0490701
0.0451062
0.043871
0.0425491
0.0246092
1e-15
1e-15
0.0060966
0.00318635
0.0019563
0.00135071
0.00180053
0.00179773
0.00117919
0.00157471
0.00212945
0.00223604
0.00230633
0.0023556
0.00257645
0.00291763
0.0266685
1e-15
1e-15
0.0910074
0.078335
0.0684056
0.0567692
0.0485974
0.0453356
0.0456099
0.04086
0.0226144
0.0155162
0.0124373
0.00655267
0.00403901
0.00186049
0.00135262
0.00170358
0.0016143
0.00114679
0.001506
0.00214175
0.0022224
0.00229559
0.00236601
0.00254133
0.00324819
0.0249155
1e-15
1e-15
0.091203
0.078047
0.0680898
0.0560896
0.0481628
0.0458802
0.0470946
0.0389516
0.018722
0.014165
0.0122568
0.00648391
0.00403857
0.00209343
0.00202786
0.00194261
0.00149888
0.00119308
0.00152829
0.00218006
0.00222585
0.00228466
0.00237023
0.00253457
0.00369211
0.0233884
1e-15
1e-15
0.0910593
0.0779778
0.0677891
0.055476
0.0481981
0.0467285
0.0488255
0.0369237
0.0153994
0.0112569
0.0113887
0.00588944
0.00510768
0.00191439
0.00200969
0.00149785
0.00134228
0.00110744
0.00158155
0.00217562
0.00218249
0.00223175
0.00233573
0.00246759
0.00382967
0.0219311
1e-15
1e-15
0.0903927
0.0779691
0.0674176
0.0550334
0.0485368
0.0477637
0.0490292
0.0333092
0.0121135
0.00898491
0.0102053
0.00533783
0.00458605
0.00243579
0.001978
0.00131531
0.00126558
0.00117266
0.00159953
0.00209215
0.00211762
0.0021667
0.00229285
0.00240427
0.00372386
0.0207308
1e-15
1e-15
0.0901044
0.0780134
0.0671272
0.0548662
0.0493154
0.0500079
0.0498342
0.027216
0.00671913
0.00606119
0.00943399
0.00406961
0.00295305
0.00197376
0.00125349
0.00106052
0.00121268
0.00107634
0.00154446
0.00195216
0.00198692
0.00204958
0.00219821
0.00230171
0.00330403
0.0196665
1e-15
1e-15
0.0912738
0.0781739
0.0670493
0.0554139
0.0521344
0.0551352
0.0458926
0.0110997
0.00178649
0.0046822
0.00894656
0.00199768
0.00143579
0.00114111
0.000954271
0.00106488
0.00127592
0.0011488
0.00148289
0.00177273
0.00184858
0.00193674
0.00211187
0.00221748
0.00281061
0.0189159
1e-15
1e-15
0.093517
0.078598
0.067487
0.0578306
0.0575704
0.0571787
0.0296861
0.0016803
0.00106572
0.00164877
0.00521425
0.00106165
0.000781396
0.000880486
0.000964276
0.00105533
0.00128021
0.00133712
0.00145829
0.00162609
0.00169783
0.00180278
0.00200126
0.00212358
0.0024084
0.0184095
1e-15
1e-15
0.094735
0.0789566
0.0685344
0.0611104
0.0612978
0.0556329
0.0133845
0.00104734
0.000891881
0.00089281
0.000560035
0.000844548
0.00066473
0.00104881
0.000987133
0.00105462
0.00144599
0.00163861
0.00159457
0.00150177
0.0015846
0.00170316
0.00192174
0.00204278
0.00207728
0.0179429
1e-15
1e-15
0.0955127
0.0798209
0.0705654
0.0652401
0.0644865
0.0507649
0.00443532
0.000947812
0.00100927
0.000969672
0.000729182
0.000964548
0.000837862
0.00105279
0.000964244
0.00111019
0.0013856
0.00174588
0.00174279
0.00141675
0.00144552
0.00159257
0.00182215
0.00193907
0.00191914
0.0174566
1e-15
1e-15
0.0968322
0.0812921
0.0737181
0.0697945
0.0673634
0.0394158
0.00154816
0.000741923
0.00102999
0.000960121
0.000994423
0.000983645
0.000987443
0.000959529
0.000921347
0.000903723
0.000808319
0.000951161
0.00119275
0.00108278
0.00122891
0.00148251
0.00174008
0.00180148
0.00180871
0.0165787
1e-15
1e-15
0.100736
0.0839476
0.0772585
0.0732721
0.0668421
0.0292332
1e-15
1e-15
0.000252175
0.000269731
0.000351624
0.000300272
0.000343921
0.000323534
0.000345977
0.000359831
0.000286039
0.000332743
0.000725465
0.000898296
0.0011452
0.00142556
0.00168458
0.00155252
0.0016811
0.0157014
1e-15
1e-15
0.104047
0.086241
0.0801259
0.0748682
0.0642452
0.0203155
1e-15
0.000599608
0.000582252
0.00049719
0.000449575
0.000431034
0.00041535
0.00042255
0.000449847
0.000471758
0.000557643
0.000647376
0.000797954
0.000890794
0.00109257
0.00137708
0.00163852
0.000941476
0.00153539
0.0144338
1e-15
1e-15
0.106368
0.0893447
0.0828499
0.0749317
0.0614905
0.0173781
1e-15
0.000553328
0.000405043
0.000290738
0.00021106
0.00017371
0.000149889
0.000145119
0.000197378
0.000234513
0.000361816
0.00046192
0.000669802
0.000828053
0.00105835
0.00134644
0.0016003
1e-15
0.00141587
0.0133021
1e-15
1e-15
0.106308
0.0912053
0.0849025
0.075475
0.0584207
0.0102401
0.00105784
0.000617173
0.000476156
0.000385444
0.000324223
0.000291308
0.000275359
0.000273831
0.000310139
0.00035648
0.000445683
0.000528939
0.000671376
0.00081748
0.00101897
0.00129542
0.00155281
1e-15
0.00135958
0.0122566
1e-15
1e-15
0.107464
0.0939162
0.0869858
0.075632
0.0495826
0.00136737
0.000633976
0.000503026
0.000385291
0.000298141
0.000244796
0.000208253
0.000188167
0.000192405
0.000230576
0.000307277
0.000400891
0.000489134
0.000621798
0.000771947
0.00096794
0.00120852
0.00144925
1e-15
0.00128035
0.0114361
1e-15
1e-15
0.108921
0.0949115
0.0880654
0.0752883
0.0411765
0.000844439
0.000550498
0.000413537
0.000341879
0.000269073
0.000242625
0.000221558
0.000208456
0.000214604
0.000242916
0.000315396
0.000391398
0.000470353
0.000577284
0.000697212
0.000843464
0.00102008
0.00122337
1e-15
0.00115569
0.0110564
1e-15
1e-15
0.113659
0.0978265
0.0898977
0.0727551
0.0259769
0.000633687
0.00035866
0.00027096
0.000235725
0.000186221
0.000175115
0.000163622
0.000156449
0.00016312
0.000186572
0.000234732
0.000281961
0.000328951
0.000391128
0.000458628
0.000536871
0.000604401
0.000704904
0.000889241
0.000784455
0.0109719
1e-15
0.00227284
0.00399471
0.00918979
0.0112801
0.0142375
0.0157905
0.0180844
0.0195954
0.0213624
0.0224043
0.0234126
0.0239026
0.0240761
0.0236327
0.0227355
0.021129
0.0189699
0.0160375
0.0127195
0.00898652
0.00549015
0.0033235
0.0029579
0.00427457
0.00805657
0.0114331
0.0116586
1e-15
1e-15
0.0239169
0.0221567
0.022209
0.022363
0.0229451
0.0236601
0.0238925
0.0239741
0.0238405
0.0239945
0.0241889
0.0234589
0.0225125
0.0212278
0.0195531
0.0176116
0.0153211
0.0130667
0.0110197
0.00927163
0.00828654
0.00806975
0.00802078
0.00940442
0.0119813
0.0158733
1e-15
0.000502612
0.00440936
0.00381848
0.00363442
0.00344678
0.00334209
0.00319629
0.00302951
0.00293851
0.003019
0.00520127
0.0212732
0.0202586
0.0188195
0.01756
0.0160995
0.014717
0.0132173
0.0117221
0.0100692
0.00829233
0.00694214
0.00637462
0.00594349
0.00691209
0.00975566
0.0146682
1e-15
0.00042735
0.000777308
0.000623612
0.000551013
0.000464839
0.000369268
0.000316748
0.00028419
0.00027561
0.00024427
0.000517103
0.00406552
0.0167568
0.0158784
0.0151098
0.0142766
0.0132432
0.0119568
0.0103101
0.00832191
0.00630127
0.00459659
0.00402743
0.00384324
0.00488461
0.00797077
0.0141213
1e-15
1e-15
0.0217374
0.000280017
0.000170102
0.000145027
0.000104981
8.21377e-05
6.93792e-05
7.22794e-05
4.54178e-05
9.10443e-05
0.00203701
0.0143011
0.0134877
0.0120746
0.0100974
0.00807558
0.00589781
0.00434857
0.00329457
0.00281046
0.0023785
0.00225628
0.00277712
0.00418398
0.0068281
0.0130958
1e-15
1e-15
0.0377993
0.0176136
0.000172141
4.86646e-05
1.71504e-05
1.11564e-05
1.38082e-05
1.39246e-05
1.0494e-05
2.60249e-05
0.00124388
0.0112431
0.00842424
0.00467081
0.00225127
0.00152069
0.00135524
0.00136309
0.00136512
0.00142855
0.0015483
0.00173409
0.00175203
0.00331674
0.00646814
0.0129506
1e-15
1e-15
0.0396327
0.0314495
0.0178208
0.0159436
0.0143721
0.0111448
6.88213e-05
2.58458e-05
3.25257e-05
1.96241e-05
0.000707902
0.00783662
0.00402212
0.00121802
0.000404111
0.000690756
0.000977713
0.00108393
0.0011914
0.00128837
0.00136281
0.00153099
0.00191058
0.00196341
0.00607874
0.0126591
1e-15
1e-15
0.0395698
0.0338391
0.0290604
0.0252603
0.021958
0.0189762
0.0117489
0.0110274
0.00888748
6.98818e-05
0.000329331
0.00564604
0.00228094
0.000497424
0.000496105
0.000793093
0.000977384
0.000981507
0.00113644
0.00127816
0.00133203
0.00140657
0.00164225
0.00225034
0.00540604
0.0125991
1e-15
1e-15
0.0392294
0.0338836
0.0299643
0.0256288
0.0218554
0.0193713
0.0176295
0.0169807
0.0139444
7.49177e-05
8.50233e-05
0.00467422
0.00140992
0.000440816
0.000579494
0.00079382
0.000890427
0.000815912
0.001034
0.00126338
0.00132904
0.00137509
0.00150952
0.00218873
0.00480985
0.0125282
1e-15
1e-15
0.0390236
0.0337612
0.0297483
0.0251241
0.0212297
0.019071
0.0181555
0.0181774
0.0132098
9.42541e-05
5.78518e-05
0.00301735
0.00134973
0.000828272
0.00067225
0.00100232
0.00113093
0.000723059
0.00101221
0.00126144
0.00132129
0.00136103
0.00142236
0.00160091
0.00188761
0.0123785
1e-15
1e-15
0.0389281
0.0336069
0.0294649
0.0246324
0.0208619
0.0191318
0.018806
0.0187438
0.0103872
0.000144377
9.54482e-05
0.00268732
0.00157677
0.00111767
0.000770742
0.000917549
0.00107168
0.000784467
0.000972482
0.00126588
0.00130654
0.00134705
0.0014001
0.00149519
0.00178782
0.0117585
1e-15
1e-15
0.0389052
0.0335489
0.0292964
0.0242846
0.0206661
0.0192367
0.0196315
0.018168
0.0100351
0.00530965
0.00453136
0.00306535
0.00192215
0.00110093
0.000780071
0.000908003
0.0010195
0.000810641
0.000954536
0.00126863
0.00129083
0.00132704
0.00139387
0.00148561
0.00193087
0.0110026
1e-15
1e-15
0.0388284
0.0335081
0.0291673
0.0239959
0.0204975
0.0194992
0.0203128
0.0172897
0.00859894
0.0063266
0.00553298
0.00310633
0.00202776
0.00119979
0.00113649
0.00105912
0.000993524
0.000864642
0.000970652
0.00126997
0.00127256
0.001301
0.0013761
0.00146814
0.00208412
0.0103633
1e-15
1e-15
0.0386634
0.0335102
0.0290448
0.0237305
0.0205222
0.0199453
0.0211818
0.0164396
0.0070336
0.00520683
0.00525793
0.00285883
0.00238286
0.00120103
0.0010541
0.000855794
0.000923693
0.000798909
0.00098332
0.00122028
0.00122041
0.00124952
0.00133892
0.00142409
0.00211815
0.00973596
1e-15
1e-15
0.0385979
0.0334917
0.0288601
0.0235501
0.020708
0.020459
0.0213749
0.0149304
0.00555989
0.004137
0.00473381
0.00258089
0.00222706
0.0013679
0.00108823
0.000853573
0.000907974
0.000851337
0.000966101
0.00112895
0.00115418
0.00119333
0.00129719
0.0013785
0.00204143
0.00919219
1e-15
1e-15
0.038949
0.0334255
0.0286945
0.0234726
0.0210583
0.0213146
0.021777
0.0124149
0.00313092
0.00281516
0.00436798
0.00201017
0.00142631
0.00105125
0.000750335
0.000697506
0.000865117
0.000761506
0.000903879
0.00102002
0.00105805
0.00111444
0.00123422
0.00131548
0.00182815
0.00869499
1e-15
1e-15
0.039571
0.0333824
0.0285985
0.0236275
0.0221309
0.0235042
0.0202975
0.00532032
0.000971281
0.00219636
0.00402413
0.00118088
0.000749885
0.000727803
0.000655889
0.000721612
0.000903059
0.000832898
0.000883454
0.000922144
0.00097625
0.00104795
0.00118314
0.00126588
0.00158757
0.00833144
1e-15
1e-15
0.0400582
0.0334504
0.0287014
0.024519
0.0243076
0.0243979
0.0141125
0.0010153
0.000718747
0.000952566
0.00230396
0.000769728
0.00060159
0.000633121
0.000700452
0.000759744
0.000922848
0.000993783
0.000909346
0.000851398
0.000893441
0.000975993
0.00112358
0.00121124
0.00139342
0.00809952
1e-15
1e-15
0.0403087
0.0335756
0.0290701
0.0257976
0.0258119
0.0237636
0.00688785
0.000659507
0.000631604
0.000701456
0.000421894
0.000694792
0.000502658
0.000809334
0.00068399
0.000726361
0.00104952
0.00117074
0.000988748
0.00079686
0.00083098
0.000925984
0.00108328
0.00116169
0.00123949
0.00791018
1e-15
1e-15
0.0409227
0.0339427
0.0298309
0.0273696
0.0270079
0.02197
0.00256023
0.000564762
0.000764745
0.000821311
0.000651978
0.000839175
0.000713669
0.000861665
0.000739326
0.000796294
0.000999987
0.00120325
0.00097811
0.000714205
0.000736389
0.000867841
0.00103264
0.00109369
0.00116857
0.00771036
1e-15
1e-15
0.0419619
0.0345908
0.0310674
0.0292338
0.0282392
0.0175869
0.000851059
0.000442789
0.000841086
0.000905005
0.000981869
0.000965561
0.000978327
0.000923645
0.000867674
0.000806218
0.000628924
0.000536437
0.000537317
0.000541958
0.000649743
0.000829194
0.00100064
0.000990543
0.00109635
0.00735569
1e-15
1e-15
0.0432643
0.0357213
0.0325359
0.0308266
0.0283226
0.0134388
8.32288e-05
6.05875e-05
0.000183427
0.000205752
0.000262675
0.000227331
0.000256107
0.000220013
0.000220063
0.000214122
0.000202901
0.000237338
0.000403862
0.00049283
0.000635587
0.000813623
0.000976589
0.000792227
0.00101294
0.00701779
1e-15
1e-15
0.0437453
0.0366158
0.0337397
0.0315315
0.0274955
0.00954697
9.43261e-05
0.000313623
0.000286042
0.000233263
0.00020258
0.00019005
0.000181173
0.000186296
0.000205438
0.000222646
0.000272609
0.000319954
0.000411427
0.000484604
0.000609796
0.00078801
0.000949909
0.000457004
0.000916743
0.00651892
1e-15
1e-15
0.0441594
0.0377169
0.034817
0.0315321
0.0264196
0.00851455
0.000165405
0.000296594
0.000223674
0.000160656
0.000119071
9.86141e-05
8.66947e-05
8.5652e-05
0.000113506
0.000143642
0.000210432
0.000265967
0.000369072
0.000461912
0.000597563
0.000771701
0.000924277
0.000304813
0.000848325
0.00606834
1e-15
1e-15
0.0444646
0.0383555
0.0356228
0.0317554
0.0252452
0.00534108
0.000611136
0.000318012
0.000232512
0.000180273
0.00014822
0.000131265
0.000123364
0.000124591
0.000143815
0.000180929
0.000234051
0.000283912
0.000364195
0.000451636
0.00056834
0.000728985
0.000879027
0.000279582
0.000811882
0.00564755
1e-15
1e-15
0.0458887
0.0394652
0.0365266
0.0320102
0.0218893
0.000724889
0.000328431
0.000239199
0.000180904
0.00013518
0.000113246
9.85399e-05
9.02189e-05
9.43749e-05
0.000115608
0.000160916
0.000212017
0.000261841
0.000332737
0.000414956
0.000522221
0.000653487
0.000783018
0.000246927
0.00074508
0.00530763
1e-15
1e-15
0.0468773
0.039968
0.0369491
0.0319482
0.0186199
0.000437495
0.000258526
0.000188709
0.000153823
0.000117633
0.000106561
9.86554e-05
9.37721e-05
9.85297e-05
0.000115926
0.000154687
0.000193743
0.000233486
0.000284931
0.000342316
0.00041058
0.000492132
0.000577901
0.000242828
0.000618887
0.00517158
1e-15
1e-15
0.0483962
0.041232
0.0377954
0.0310832
0.0117576
0.000260462
0.000121562
0.000103773
8.94243e-05
7.37202e-05
6.90623e-05
6.56441e-05
6.40403e-05
6.70944e-05
7.7013e-05
9.36592e-05
0.000108446
0.000121624
0.000136738
0.000150605
0.000162671
0.000159365
0.00015618
0.000356544
0.000278894
0.00514651
1e-15
0.00150706
0.00123121
0.00335085
0.00426519
0.00550701
0.00620811
0.00720805
0.00788651
0.00864859
0.00907811
0.0093994
0.00948229
0.00943346
0.00904701
0.00845384
0.00752991
0.00643023
0.00511068
0.00383428
0.00261467
0.00177496
0.00141103
0.00133906
0.00154099
0.00248246
0.00401181
0.00424207
0.00076322
0.0014334
0.00883988
0.00860221
0.00881727
0.00912095
0.00950797
0.00996632
0.0101939
0.0103861
0.010501
0.010773
0.0110167
0.0107563
0.0103525
0.00974947
0.00894877
0.00800075
0.00688551
0.00582382
0.00490063
0.00415833
0.00379325
0.00371585
0.00374464
0.00432468
0.00550125
0.00708
0.000735767
0.000963925
0.00288965
0.00262997
0.00254547
0.00249695
0.00246358
0.00238609
0.00231367
0.00230174
0.00255227
0.00426348
0.0102695
0.00987935
0.00920456
0.00861779
0.00791827
0.00725285
0.00652892
0.00580527
0.00505409
0.00429659
0.00379713
0.00358003
0.00334897
0.00365769
0.00483651
0.00703718
1e-15
1e-15
0.00103561
0.000891245
0.000877262
0.000774332
0.000697495
0.000629643
0.000602787
0.000641412
0.000787909
0.0013083
0.00361682
0.00832386
0.00794944
0.00759784
0.00719163
0.006653
0.00599436
0.00515885
0.00417002
0.00321997
0.00261548
0.00244202
0.00232746
0.00263673
0.00393933
0.00678377
1e-15
1e-15
0.00538587
0.000717999
0.00066909
0.000611913
0.000538294
0.000474108
0.000454427
0.000472739
0.000530502
0.000787185
0.00227174
0.00713521
0.00682405
0.0061996
0.00532915
0.00426994
0.00305845
0.00223659
0.00177885
0.00159903
0.00152756
0.00165435
0.001898
0.00235283
0.00342939
0.00625502
1e-15
1e-15
0.0154855
0.00424444
0.000603476
0.0005005
0.000424125
0.000399156
0.000400844
0.000403451
0.000429063
0.000567692
0.00160814
0.00564331
0.0043175
0.00247947
0.00127869
0.000921659
0.000865601
0.000886138
0.00093981
0.000993912
0.00106688
0.00120994
0.00143428
0.00209277
0.00327323
0.00617539
1e-15
1e-15
0.017885
0.0128724
0.00494431
0.00454083
0.00421311
0.00279349
0.000419466
0.000413424
0.000429329
0.000439589
0.00100776
0.00397443
0.0020675
0.000674639
0.00030994
0.000474804
0.000635351
0.000712636
0.000838797
0.000919072
0.000964896
0.00105769
0.00129658
0.00173158
0.00311246
0.00606586
1e-15
1e-15
0.0181339
0.0155228
0.0125885
0.011054
0.00971999
0.00806377
0.0036129
0.00325582
0.00229266
0.000409072
0.000579438
0.00287413
0.00120673
0.00031509
0.000319476
0.000487076
0.000588162
0.00062137
0.000790697
0.000899617
0.000937286
0.000984948
0.00111551
0.00150963
0.00290542
0.0060629
1e-15
1e-15
0.0179988
0.0157564
0.0138593
0.0119084
0.0102301
0.00906573
0.00789494
0.00748123
0.005996
0.000365734
0.000350486
0.00244054
0.000813042
0.000349023
0.000367249
0.000491777
0.000611322
0.000555776
0.000749612
0.000876408
0.000917997
0.0009539
0.0010395
0.00136558
0.00277755
0.00603724
1e-15
1e-15
0.0178758
0.0156658
0.013833
0.0117661
0.0100078
0.00900049
0.00852216
0.00849169
0.00616042
0.000419058
0.000259655
0.00164194
0.00076607
0.000589909
0.000419737
0.000512228
0.000850382
0.000560639
0.000776842
0.000869523
0.000898807
0.000931201
0.000988683
0.00108636
0.00151539
0.00598418
1e-15
1e-15
0.0178188
0.015562
0.0137027
0.0115231
0.00981108
0.0090078
0.00889504
0.00901735
0.00490639
0.000595633
0.000338658
0.00141056
0.000901692
0.000869368
0.000577924
0.00063097
0.000949641
0.000694505
0.000789363
0.000862446
0.000874926
0.000908194
0.000970736
0.00103289
0.00129649
0.00576789
1e-15
1e-15
0.0177809
0.0155439
0.0136137
0.0113545
0.00972783
0.00905376
0.00927762
0.00880691
0.00527867
0.00216961
0.00192529
0.00167637
0.00107152
0.000883094
0.000588989
0.000672335
0.000941226
0.000760873
0.000796721
0.000859054
0.000852708
0.000878179
0.000949921
0.0010218
0.00133445
0.00542543
1e-15
1e-15
0.0177093
0.0155513
0.0135524
0.0112228
0.00966017
0.00918303
0.00957489
0.00835493
0.00443523
0.00317989
0.0028205
0.00174224
0.00125129
0.000941242
0.000879635
0.000854279
0.000936367
0.000847346
0.000801605
0.000840415
0.000820375
0.000843747
0.00092144
0.000989941
0.00136166
0.00515197
1e-15
1e-15
0.0176616
0.0155541
0.0134972
0.0111007
0.00967201
0.00941374
0.0100068
0.00792385
0.00376311
0.00273101
0.00283352
0.00164088
0.00129614
0.000971105
0.000742855
0.000698837
0.000893478
0.00075721
0.000808064
0.000776712
0.000763972
0.00079324
0.000883781
0.000955211
0.00134959
0.00486954
1e-15
1e-15
0.0177611
0.0155324
0.0133956
0.0110254
0.00976633
0.00965782
0.0101133
0.00721349
0.00288552
0.00220186
0.00250296
0.00150051
0.0013111
0.00101841
0.000868882
0.000798109
0.000896505
0.0008372
0.000775075
0.000693377
0.000701768
0.000744862
0.000846182
0.000916391
0.00127952
0.00461312
1e-15
1e-15
0.0180406
0.0154552
0.0133007
0.0109877
0.00991241
0.00996526
0.0102558
0.00610816
0.00162648
0.00156344
0.00234583
0.0012421
0.000794923
0.000823895
0.000656535
0.000633505
0.000852301
0.000709629
0.000704715
0.000614442
0.000629261
0.000687634
0.000802256
0.000874661
0.0011582
0.00436873
1e-15
1e-15
0.0182423
0.0153829
0.0132321
0.0110254
0.0103295
0.0109197
0.00964459
0.00276412
0.000642429
0.00124702
0.00207416
0.000893403
0.000549366
0.000683476
0.000615474
0.000692008
0.000878904
0.000787799
0.000682731
0.000554317
0.000577651
0.000646932
0.00077089
0.00084199
0.00102938
0.00418652
1e-15
1e-15
0.0182976
0.0153876
0.0132512
0.011357
0.0112165
0.0113016
0.00711649
0.000674068
0.000673785
0.000765008
0.00117796
0.00070973
0.000601548
0.00059594
0.000687855
0.000749195
0.000886699
0.000946553
0.000692688
0.000511265
0.000527499
0.000606761
0.000737469
0.000806376
0.000932797
0.00407905
1e-15
1e-15
0.018394
0.0154501
0.0133879
0.011879
0.0118514
0.0109608
0.00375867
0.000458975
0.000585307
0.000698465
0.000362763
0.000694193
0.000459937
0.000806761
0.000632461
0.000675134
0.00105462
0.00113171
0.000727094
0.000478868
0.000488435
0.000581741
0.000716981
0.000771137
0.000854473
0.00400068
1e-15
1e-15
0.0187966
0.0156254
0.0136888
0.0125032
0.0123109
0.0101623
0.00152727
0.000406636
0.000742643
0.000825229
0.000632699
0.000839989
0.000688083
0.000860806
0.000713147
0.00077744
0.00103625
0.00126572
0.000665497
0.000403838
0.000432486
0.000558731
0.000693392
0.000720074
0.000814112
0.00390653
1e-15
1e-15
0.019268
0.015906
0.0142168
0.0133418
0.0129058
0.00832815
0.000468557
0.000338543
0.000809055
0.000902695
0.00099678
0.000974157
0.000991513
0.000924673
0.000863529
0.000782746
0.000587037
0.000484108
0.00032738
0.000327099
0.000407842
0.00055112
0.000683076
0.000637282
0.00075849
0.0037384
1e-15
1e-15
0.0195607
0.0164023
0.0148958
0.0141661
0.0130864
0.00660312
0.000114475
9.83342e-05
0.000148995
0.000162672
0.000204471
0.000178954
0.000199734
0.000162398
0.000155766
0.000148508
0.000154982
0.000183602
0.000258088
0.000314558
0.000415504
0.000549222
0.000669296
0.000499386
0.000699077
0.003584
1e-15
1e-15
0.0195405
0.016784
0.0154712
0.0145385
0.0128201
0.00479637
0.00013067
0.000190529
0.000163281
0.000120301
9.92276e-05
8.7609e-05
8.30637e-05
8.41763e-05
9.9818e-05
0.000118395
0.000156183
0.000187848
0.000248081
0.000308888
0.000401185
0.000531433
0.000649514
0.000363324
0.000634504
0.0033605
1e-15
1e-15
0.0196727
0.0172205
0.0159468
0.014535
0.0124013
0.00445289
0.000207451
0.000183076
0.000137773
9.82177e-05
7.43173e-05
6.19009e-05
5.53012e-05
5.58535e-05
7.3662e-05
0.000100102
0.000141389
0.000178174
0.000237296
0.00030243
0.000395247
0.000516987
0.000624396
0.000314749
0.000591154
0.00316029
1e-15
1e-15
0.0200638
0.0174972
0.0163202
0.0146687
0.0119051
0.00302083
0.00036966
0.000183427
0.000127355
9.46834e-05
7.67106e-05
6.68571e-05
6.21212e-05
6.411e-05
7.74965e-05
0.000107666
0.000143098
0.000177381
0.000228141
0.000287704
0.000365615
0.000473344
0.000573537
0.00029944
0.000553523
0.00297852
1e-15
1e-15
0.0209506
0.0180328
0.0167962
0.0149242
0.0104826
0.000416108
0.000182916
0.000130224
9.93821e-05
7.24899e-05
6.18296e-05
5.49572e-05
5.13186e-05
5.47076e-05
6.87891e-05
9.94418e-05
0.000130806
0.000162286
0.000203889
0.000253361
0.000319007
0.000400634
0.00047454
0.000262852
0.000479017
0.00283437
1e-15
1e-15
0.021383
0.0183124
0.0170139
0.014923
0.00909685
0.000233882
0.000130488
9.97114e-05
8.15375e-05
6.23365e-05
5.64515e-05
5.2664e-05
5.07528e-05
5.42128e-05
6.61885e-05
8.84404e-05
0.000110011
0.000131263
0.000157547
0.000186968
0.000222285
0.000266096
0.000287809
0.000230273
0.000336345
0.00279359
1e-15
1e-15
0.0217983
0.0189575
0.0174755
0.0145575
0.00573128
0.000107869
6.43968e-05
6.02485e-05
5.38987e-05
4.6586e-05
4.36891e-05
4.20997e-05
4.15756e-05
4.3447e-05
4.918e-05
5.70219e-05
6.35148e-05
6.93802e-05
7.64003e-05
8.41527e-05
9.38351e-05
8.25268e-05
7.99192e-05
0.000162636
9.27258e-05
0.00280628
1e-15
0.0015071
0.000948971
0.00165723
0.0019608
0.00242469
0.00271168
0.00311708
0.00339636
0.00368561
0.00382563
0.00388553
0.00384008
0.00373536
0.00347138
0.00314733
0.00272639
0.00232281
0.0019288
0.00163501
0.00140804
0.00127034
0.00119491
0.00115856
0.00116291
0.0012575
0.00155772
0.00160456
0.000874572
0.0015585
0.00350825
0.003614
0.003849
0.00412192
0.00437752
0.00466194
0.0048069
0.00494785
0.00505827
0.00526203
0.00540105
0.00527295
0.00506214
0.0047411
0.00432851
0.00384875
0.00332278
0.00287348
0.00253636
0.00230349
0.00220064
0.00217799
0.00216645
0.00232298
0.00277666
0.00341778
0.000873736
0.00120923
0.00179829
0.00165875
0.00162194
0.00161076
0.00159465
0.0015545
0.00153568
0.00159503
0.00190026
0.00310015
0.00542382
0.00526205
0.00491978
0.00462734
0.00427734
0.00395728
0.00361951
0.00328558
0.00295884
0.00266005
0.00250448
0.00241629
0.00224157
0.00225548
0.00266612
0.00372345
0.000674093
0.000618707
0.000843567
0.000727036
0.000692989
0.000614911
0.000566966
0.000541058
0.000545332
0.000626269
0.00080827
0.00129152
0.00277437
0.00460777
0.00442096
0.00423687
0.0040172
0.00372471
0.00335749
0.00287887
0.00235446
0.00195066
0.00180236
0.00179834
0.00174819
0.00176351
0.00220548
0.00360559
1e-15
0.000590114
0.00157972
0.000631286
0.000597992
0.000538239
0.000487163
0.000450742
0.000445475
0.0004843
0.000575312
0.000863034
0.00192131
0.00394473
0.00380504
0.00350053
0.00308673
0.00244004
0.00171111
0.00130839
0.00114711
0.00110706
0.00116163
0.0013824
0.00158935
0.00168962
0.00197554
0.00330588
1e-15
0.000511853
0.00638761
0.00124328
0.000556666
0.000491276
0.00043892
0.000412832
0.000409571
0.000420742
0.000468269
0.000643905
0.00139266
0.00309202
0.00239739
0.00140496
0.000777229
0.000620994
0.000614487
0.00065719
0.000738078
0.000785352
0.000833602
0.000960751
0.001259
0.0016737
0.00193237
0.00324906
1e-15
1e-15
0.0087214
0.00530889
0.00153287
0.00141469
0.00132405
0.000807356
0.000419337
0.000433525
0.000466757
0.000501147
0.000896626
0.00218029
0.00112034
0.000405233
0.000261935
0.000363763
0.000475823
0.00053772
0.000664805
0.000723996
0.000753047
0.000819866
0.00100365
0.00155981
0.00191899
0.00322311
1e-15
1e-15
0.00912077
0.00769675
0.00568421
0.00506521
0.00452401
0.0034911
0.00118891
0.0010496
0.000758696
0.000446606
0.00053615
0.00158562
0.00068858
0.000234592
0.000245312
0.000366225
0.000462146
0.000486849
0.000638462
0.000698131
0.00072461
0.000758518
0.00086007
0.00115814
0.00189944
0.00325548
1e-15
1e-15
0.00906576
0.00805576
0.00698858
0.00604608
0.00525967
0.00462672
0.00373377
0.00343679
0.00269841
0.00040874
0.000377392
0.00140628
0.000519559
0.000301043
0.000300104
0.000391845
0.000566129
0.000485519
0.000642912
0.000671977
0.000693748
0.000726535
0.00080311
0.00101196
0.00195315
0.003262
1e-15
1e-15
0.0089831
0.00800626
0.00706679
0.00606327
0.00522048
0.0046882
0.00437252
0.00431149
0.0031986
0.000549081
0.000279993
0.00104135
0.000494807
0.000486813
0.000341627
0.00037493
0.000798752
0.0005373
0.000717492
0.000663854
0.000668641
0.000696279
0.000759296
0.000847749
0.00130469
0.00327392
1e-15
1e-15
0.00893047
0.00793739
0.00701407
0.0059674
0.00512595
0.00469365
0.00464562
0.00480506
0.00282821
0.00067596
0.000368837
0.00101156
0.000652239
0.000857472
0.00054361
0.000596562
0.00107358
0.00073405
0.000781389
0.000652547
0.00063847
0.000666861
0.000738474
0.000798389
0.00108355
0.00321288
1e-15
1e-15
0.00889365
0.00791862
0.00696163
0.00587852
0.0050916
0.00471798
0.00483981
0.00471363
0.00383139
0.00127801
0.00127952
0.00118669
0.000796344
0.00087649
0.000554166
0.000654467
0.00106479
0.000803102
0.000801652
0.000645646
0.000609983
0.00063014
0.000707166
0.000779248
0.00106579
0.00306273
1e-15
1e-15
0.00886514
0.00792177
0.00692721
0.00581652
0.00506723
0.00479391
0.00496816
0.00447472
0.00273904
0.00195171
0.00174989
0.00124585
0.00100831
0.000922276
0.000898886
0.000923519
0.00106237
0.00096584
0.000798969
0.000618516
0.000568701
0.000593043
0.000675716
0.000738489
0.00103808
0.00295302
1e-15
1e-15
0.00888506
0.00791565
0.00690144
0.00575985
0.00507471
0.00493217
0.00519089
0.00422596
0.00269862
0.00175984
0.00204619
0.00121218
0.000935188
0.00095856
0.000694817
0.000711175
0.00102222
0.000801595
0.000811827
0.000559649
0.000513469
0.000546373
0.000640829
0.000709456
0.00100378
0.00283615
1e-15
1e-15
0.00900002
0.00789246
0.00684576
0.005732
0.00513262
0.00506211
0.00524578
0.00384144
0.00183705
0.00147735
0.00161962