/*--------------------------------*- C++ -*----------------------------------*\
| =========                 |                                                 |
| \\      /  F ield         | OpenFOAM: The Open Source CFD Toolbox           |
|  \\    /   O peration     | Version:  2.3.0                                 |
|   \\  /    A nd           | Web:      www.OpenFOAM.org                      |
|    \\/     M anipulation  |                                                 |
\*---------------------------------------------------------------------------*/
FoamFile
{
    version     2.0;
    format      ascii;
    class       surfaceScalarField;
    location    "0.306";
    object      phi;
}
// * * * * * * * * * * * * * * * * * * * * * * * * * * * * * * * * * * * * * //

dimensions      [0 3 -1 0 0 0 0];

internalField   nonuniform List<scalar> 
1024
(
2.44359e-12
5.64096e-14
2.54304e-12
-9.94503e-14
2.5776e-12
-3.45552e-14
2.61635e-12
-3.87518e-14
4.03682e-14
2.57598e-12
2.57498e-12
-1.85711e-14
2.55785e-12
-8.23179e-14
2.56167e-12
-3.83755e-14
2.58229e-12
-5.9369e-14
6.79537e-14
2.5547e-12
2.59533e-12
-1.13902e-13
2.53626e-12
-2.32432e-14
2.52362e-12
-2.57351e-14
2.53766e-12
-7.34143e-14
9.21303e-14
2.51349e-12
2.52428e-12
-1.38178e-13
2.46627e-12
3.47594e-14
2.46031e-12
-1.97761e-14
2.46279e-12
-7.58876e-14
1.00518e-13
2.4544e-12
2.36182e-12
2.39658e-12
2.37681e-12
2.30092e-12
2.40144e-12
2.37072e-12
2.05263e-13
2.32484e-12
4.58736e-14
2.32348e-12
1.36605e-15
2.33174e-12
-8.26491e-15
2.33673e-12
-4.98447e-15
2.33889e-12
-2.16528e-15
2.33965e-12
-7.62692e-16
2.33992e-12
-2.62888e-16
2.33999e-12
-7.18711e-17
2.34001e-12
-1.8067e-17
2.34e-12
5.43757e-18
2.34e-12
-8.2962e-19
2.34e-12
5.30603e-18
2.34e-12
-2.98413e-18
2.34e-12
4.10875e-18
2.34e-12
-4.54092e-18
2.34e-12
4.52841e-18
2.34e-12
-5.71711e-18
2.34e-12
4.52943e-18
2.34e-12
-4.74017e-18
2.34e-12
4.86988e-18
2.34e-12
-3.77141e-18
2.34e-12
5.10856e-18
2.34e-12
-4.32147e-18
2.34e-12
4.07728e-18
2.34e-12
-5.4818e-18
2.34e-12
5.37308e-18
2.34e-12
-6.02041e-18
2.34e-12
4.26865e-18
2.34e-12
-4.76513e-18
2.34e-12
5.94192e-18
2.34e-12
-5.30638e-18
2.34e-12
5.99972e-18
2.34e-12
-5.4073e-18
2.34e-12
5.85186e-18
2.34e-12
-5.37626e-18
2.33999e-12
5.82109e-18
2.34e-12
-6.69215e-18
2.33999e-12
6.78844e-18
2.34e-12
-6.58029e-18
2.33999e-12
6.39461e-18
2.34e-12
-6.72319e-18
2.33999e-12
8.14478e-18
2.33999e-12
-8.89828e-19
3.21119e-17
2.36499e-12
3.94978e-13
2.32549e-12
8.53657e-14
2.32745e-12
-5.86923e-16
2.33355e-12
-1.43723e-14
2.33743e-12
-8.86228e-15
2.33907e-12
-3.80398e-15
2.3397e-12
-1.38857e-15
2.33991e-12
-4.74524e-16
2.33999e-12
-1.51445e-16
2.34e-12
-2.93365e-17
2.34001e-12
-1.88433e-18
2.34e-12
6.48704e-18
2.34e-12
-3.37671e-19
2.34e-12
4.14254e-18
2.34e-12
-2.73171e-18
2.34e-12
2.70518e-18
2.34e-12
-2.24509e-18
2.34e-12
1.29111e-18
2.34e-12
-2.95932e-18
2.34e-12
2.97671e-18
2.34e-12
-3.46985e-18
2.34e-12
5.35182e-18
2.34e-12
-3.30761e-18
2.33999e-12
5.22395e-18
2.34e-12
-5.67292e-18
2.33999e-12
3.59318e-18
2.34e-12
-3.93425e-18
2.34e-12
2.44628e-18
2.34001e-12
-6.87714e-18
2.34e-12
4.92219e-18
2.34001e-12
-3.45302e-18
2.34e-12
4.58907e-18
2.34001e-12
-3.72645e-18
2.34e-12
5.45293e-18
2.34001e-12
-4.56945e-18
2.34e-12
5.53296e-18
2.34001e-12
-5.13527e-18
2.34e-12
3.93892e-18
2.34001e-12
-4.42141e-18
2.34e-12
4.03469e-18
2.34001e-12
-6.07445e-18
2.34e-12
5.35629e-18
2.34001e-12
-4.61533e-18
2.34e-12
1.11662e-17
-1.59476e-17
2.34442e-12
5.64044e-13
2.32843e-12
1.01356e-13
2.33406e-12
-6.21472e-15
2.33774e-12
-1.80537e-14
2.33925e-12
-1.03785e-14
2.33973e-12
-4.27998e-15
2.33989e-12
-1.54997e-15
2.33996e-12
-5.46417e-16
2.33999e-12
-1.77353e-16
2.34e-12
-4.00489e-17
2.34e-12
-4.80135e-19
2.34e-12
4.43813e-18
2.34e-12
1.78427e-18
2.34e-12
2.10018e-18
2.34e-12
-1.95065e-19
2.34e-12
-3.22592e-19
2.34e-12
1.49618e-18
2.34e-12
-3.26365e-18
2.34e-12
1.18216e-18
2.34e-12
-9.23559e-19
2.34e-12
-2.51683e-19
2.34e-12
2.54115e-18
2.34e-12
5.28856e-19
2.34e-12
1.994e-18
2.34e-12
-1.94781e-18
2.34e-12
-1.48162e-18
2.34e-12
1.79532e-18
2.34e-12
-2.49579e-18
2.34e-12
-3.66379e-18
2.34e-12
1.66099e-20
2.34e-12
2.47726e-18
2.34e-12
-6.21441e-19
2.34e-12
1.44998e-18
2.34e-12
1.02627e-18
2.34e-12
4.88535e-19
2.34e-12
7.43865e-19
2.34e-12
5.61686e-19
2.34e-12
-1.89812e-18
2.33999e-12
2.04913e-18
2.34e-12
-1.97859e-18
2.34e-12
-3.47704e-19
2.34e-12
-1.32039e-18
2.33999e-12
2.90551e-18
2.34e-12
7.57765e-18
2.52221e-17
2.32061e-12
6.97833e-13
2.33592e-12
8.60417e-14
2.3438e-12
-1.40931e-14
2.34309e-12
-1.73367e-14
2.34149e-12
-8.78432e-15
2.34052e-12
-3.30862e-15
2.34017e-12
-1.19585e-15
2.34003e-12
-4.10009e-16
2.34001e-12
-1.62166e-16
2.33999e-12
-1.71147e-17
2.34001e-12
-1.47999e-17
2.33999e-12
1.91555e-17
2.34001e-12
-1.50949e-17
2.33999e-12
1.86056e-17
2.34001e-12
-1.72696e-17
2.33999e-12
1.63474e-17
2.34001e-12
-1.47453e-17
2.33999e-12
1.2774e-17
2.34001e-12
-1.54177e-17
2.33999e-12
1.66328e-17
2.34001e-12
-1.92384e-17
2.33999e-12
2.20204e-17
2.34001e-12
-1.90535e-17
2.33999e-12
2.24136e-17
2.34001e-12
-2.22991e-17
2.33999e-12
1.77985e-17
2.34001e-12
-1.60535e-17
2.33999e-12
1.70427e-17
2.34001e-12
-2.50608e-17
2.33999e-12
2.03033e-17
2.34001e-12
-1.69213e-17
2.33999e-12
1.91814e-17
2.34001e-12
-1.95028e-17
2.33999e-12
2.26827e-17
2.34001e-12
-2.16261e-17
2.33999e-12
2.29781e-17
2.34001e-12
-2.11392e-17
2.33999e-12
1.9647e-17
2.34001e-12
-1.88447e-17
2.33999e-12
1.99472e-17
2.34001e-12
-2.29332e-17
2.33999e-12
2.10417e-17
2.34001e-12
-2.2146e-17
2.33999e-12
2.76106e-17
-3.53849e-17
2.30979e-12
7.89483e-13
2.35592e-12
3.99067e-14
2.35593e-12
-1.41018e-14
2.34795e-12
-9.35615e-15
2.34314e-12
-3.97991e-15
2.3411e-12
-1.26034e-15
2.34037e-12
-4.69344e-16
2.34009e-12
-1.33389e-16
2.34003e-12
-9.48154e-17
2.33999e-12
1.71075e-17
2.34e-12
-2.79475e-17
2.33999e-12
3.23545e-17
2.34001e-12
-3.18366e-17
2.33999e-12
3.37664e-17
2.34001e-12
-3.2806e-17
2.33999e-12
3.05537e-17
2.34001e-12
-2.73459e-17
2.34e-12
2.45062e-17
2.34001e-12
-2.72863e-17
2.33999e-12
3.07565e-17
2.34001e-12
-3.5445e-17
2.33999e-12
3.84157e-17
2.34001e-12
-3.64236e-17
2.33999e-12
3.95188e-17
2.34001e-12
-3.86819e-17
2.34e-12
3.17188e-17
2.34001e-12
-2.86447e-17
2.33999e-12
3.35521e-17
2.34001e-12
-4.17882e-17
2.33999e-12
3.52134e-17
2.34001e-12
-3.04498e-17
2.33999e-12
3.27851e-17
2.34001e-12
-3.45893e-17
2.33999e-12
3.79595e-17
2.34001e-12
-3.75504e-17
2.33999e-12
3.79811e-17
2.34001e-12
-3.58717e-17
2.34e-12
3.27236e-17
2.34001e-12
-3.21287e-17
2.33999e-12
3.46776e-17
2.34001e-12
-3.76998e-17
2.34e-12
3.54473e-17
2.34001e-12
-3.81986e-17
2.34e-12
3.7842e-17
-1.8984e-17
2.57901e-12
-7.89525e-13
2.65875e-12
-3.98344e-14
2.63061e-12
1.40363e-14
2.61183e-12
9.42417e-15
2.60394e-12
3.91204e-15
2.60135e-12
1.33022e-15
2.60048e-12
3.97747e-16
2.60014e-12
2.05385e-16
2.60002e-12
2.35455e-17
2.59999e-12
5.48073e-17
2.6e-12
-4.44641e-17
2.6e-12
4.05632e-17
2.60001e-12
-4.20205e-17
2.6e-12
4.18635e-17
2.60001e-12
-4.37305e-17
2.59999e-12
4.54693e-17
2.60001e-12
-4.89573e-17
2.59999e-12
5.19623e-17
2.60001e-12
-4.98358e-17
2.59999e-12
4.68706e-17
2.6e-12
-4.2804e-17
2.6e-12
4.16705e-17
2.60001e-12
-4.45098e-17
2.6e-12
4.12931e-17
2.60001e-12
-4.10808e-17
2.59999e-12
4.78416e-17
2.60001e-12
-5.13648e-17
2.6e-12
4.68828e-17
2.6e-12
-3.95531e-17
2.59999e-12
4.64057e-17
2.60001e-12
-5.11702e-17
2.59999e-12
4.93361e-17
2.6e-12
-4.88342e-17
2.6e-12
4.67315e-17
2.60001e-12
-4.73991e-17
2.6e-12
4.71418e-17
2.60001e-12
-4.89838e-17
2.59999e-12
5.05974e-17
2.60001e-12
-5.08849e-17
2.6e-12
4.8785e-17
2.6e-12
-4.57257e-17
2.59999e-12
4.78488e-17
2.6e-12
-4.81363e-17
2.6e-12
3.63338e-17
-7.97497e-17
2.36182e-12
1.38178e-13
2.39658e-12
-3.47597e-14
2.37681e-12
1.9776e-14
2.30092e-12
7.58865e-14
-1.0052e-13
2.40144e-12
2.52428e-12
1.13903e-13
2.46627e-12
2.32433e-14
2.46031e-12
2.5735e-14
2.46279e-12
7.34137e-14
-9.21325e-14
2.4544e-12
2.59533e-12
1.85711e-14
2.53626e-12
8.23176e-14
2.52362e-12
3.83753e-14
2.53766e-12
5.93682e-14
-6.79558e-14
2.51349e-12
2.57498e-12
-5.64096e-14
2.55785e-12
9.94502e-14
2.56167e-12
3.4555e-14
2.58229e-12
3.8751e-14
-4.03691e-14
2.5547e-12
2.44359e-12
2.54304e-12
2.5776e-12
2.61635e-12
2.57598e-12
2.30976e-12
-6.97849e-13
2.35594e-12
-8.60134e-14
2.35591e-12
1.40686e-14
2.34797e-12
1.73638e-14
2.34312e-12
8.75747e-15
2.34112e-12
3.33724e-15
2.34035e-12
1.16621e-15
2.34011e-12
4.39388e-16
2.34e-12
1.33762e-16
2.34001e-12
4.59549e-17
2.33998e-12
-1.4121e-17
2.34001e-12
9.95014e-18
2.33999e-12
-1.47271e-17
2.34002e-12
1.25176e-17
2.33999e-12
-1.40444e-17
2.34002e-12
1.41686e-17
2.33998e-12
-1.59477e-17
2.34002e-12
1.77017e-17
2.33998e-12
-1.53956e-17
2.34002e-12
1.45015e-17
2.33999e-12
-1.23038e-17
2.34002e-12
1.10352e-17
2.33999e-12
-1.44697e-17
2.34002e-12
1.05363e-17
2.33999e-12
-9.42991e-18
2.34002e-12
1.36005e-17
2.33998e-12
-1.55323e-17
2.34002e-12
1.47265e-17
2.33998e-12
-7.36458e-18
2.34002e-12
1.22518e-17
2.33998e-12
-1.55383e-17
2.34002e-12
1.37391e-17
2.33998e-12
-1.46247e-17
2.34002e-12
1.25205e-17
2.33998e-12
-1.37193e-17
2.34002e-12
1.24747e-17
2.33998e-12
-1.38719e-17
2.34002e-12
1.37126e-17
2.33998e-12
-1.42367e-17
2.34002e-12
1.35373e-17
2.33998e-12
-1.05709e-17
2.34002e-12
1.25315e-17
2.33998e-12
-1.31158e-17
2.34001e-12
9.82996e-18
5.04031e-18
2.3206e-12
-5.64051e-13
2.33593e-12
-1.01346e-13
2.34379e-12
6.20822e-15
2.3431e-12
1.80618e-14
2.34148e-12
1.03715e-14
2.34053e-12
4.28786e-15
2.34016e-12
1.54177e-15
2.34004e-12
5.54344e-16
2.34e-12
1.70078e-16
2.34e-12
4.77737e-17
2.34e-12
-7.10646e-18
2.34e-12
3.09055e-18
2.34e-12
-9.58787e-18
2.34e-12
6.30378e-18
2.34e-12
-8.20942e-18
2.34e-12
8.25491e-18
2.34e-12
-9.7169e-18
2.34e-12
1.11674e-17
2.34e-12
-9.26047e-18
2.34e-12
9.12051e-18
2.34e-12
-7.87275e-18
2.34e-12
6.39331e-18
2.34e-12
-9.55758e-18
2.34e-12
6.7933e-18
2.34e-12
-6.35462e-18
2.34e-12
9.66854e-18
2.34e-12
-1.01157e-17
2.34e-12
1.08206e-17
2.34e-12
-5.01351e-18
2.34e-12
8.6784e-18
2.34e-12
-1.09565e-17
2.34e-12
9.23481e-18
2.34e-12
-1.05058e-17
2.34e-12
8.3273e-18
2.34e-12
-9.75914e-18
2.34e-12
8.73071e-18
2.34e-12
-9.94774e-18
2.34e-12
1.02962e-17
2.34e-12
-1.04954e-17
2.34e-12
1.05951e-17
2.34e-12
-7.84909e-18
2.34e-12
9.06532e-18
2.34e-12
-1.05313e-17
2.34001e-12
2.20974e-18
-3.60136e-17
2.34441e-12
-3.94979e-13
2.32843e-12
-8.53642e-14
2.33405e-12
5.87303e-16
2.33774e-12
1.43739e-14
2.33925e-12
8.86159e-15
2.33973e-12
3.80516e-15
2.33989e-12
1.38726e-15
2.33997e-12
4.75799e-16
2.33999e-12
1.50467e-16
2.34e-12
3.08278e-17
2.34e-12
5.99242e-19
2.34e-12
-5.29991e-18
2.34e-12
-8.61801e-19
2.34e-12
-2.81218e-18
2.33999e-12
1.34141e-18
2.34e-12
-1.44699e-18
2.33999e-12
6.6752e-19
2.34001e-12
-6.4132e-20
2.33999e-12
1.62261e-18
2.34e-12
-1.5411e-18
2.33999e-12
2.35781e-18
2.34e-12
-3.85204e-18
2.33999e-12
1.85991e-18
2.34e-12
-3.7714e-18
2.33999e-12
4.19557e-18
2.34001e-12
-2.18436e-18
2.33999e-12
2.46677e-18
2.34e-12
-1.08689e-18
2.33999e-12
5.3318e-18
2.34001e-12
-3.31327e-18
2.33999e-12
2.05743e-18
2.34001e-12
-3.16058e-18
2.33999e-12
2.23701e-18
2.34001e-12
-4.03996e-18
2.33999e-12
3.22609e-18
2.34e-12
-3.88638e-18
2.33999e-12
3.33475e-18
2.34e-12
-2.59202e-18
2.33999e-12
2.76555e-18
2.34e-12
-2.09273e-18
2.33999e-12
4.35623e-18
2.34e-12
-3.54977e-18
2.33999e-12
2.15447e-18
2.34e-12
-6.26572e-18
2.13352e-17
2.36499e-12
-2.05265e-13
2.32549e-12
-4.58717e-14
2.32745e-12
-1.36601e-15
2.33355e-12
8.26611e-15
2.33743e-12
4.98445e-15
2.33907e-12
2.16547e-15
2.3397e-12
7.62495e-16
2.33991e-12
2.62998e-16
2.33999e-12
7.22312e-17
2.34e-12
1.83361e-17
2.34e-12
-5.35707e-18
2.34e-12
6.9253e-19
2.34e-12
-5.23032e-18
2.34e-12
2.88881e-18
2.34e-12
-4.12763e-18
2.34e-12
4.29182e-18
2.34e-12
-4.81896e-18
2.34e-12
5.38973e-18
2.34e-12
-4.43341e-18
2.34e-12
4.97611e-18
2.34e-12
-4.35962e-18
2.34e-12
3.98914e-18
2.34e-12
-5.03329e-18
2.33999e-12
4.05742e-18
2.34e-12
-4.32061e-18
2.34e-12
5.22955e-18
2.34e-12
-5.39137e-18
2.34e-12
5.90523e-18
2.34001e-12
-4.25713e-18
2.34e-12
4.91097e-18
2.34001e-12
-5.76376e-18
2.34e-12
5.3533e-18
2.34001e-12
-6.00947e-18
2.34e-12
5.16614e-18
2.34001e-12
-5.52838e-18
2.34e-12
5.43377e-18
2.34001e-12
-5.83232e-18
2.34e-12
6.13966e-18
2.34001e-12
-6.5078e-18
2.34e-12
6.51797e-18
2.34001e-12
-5.34316e-18
2.34e-12
5.27954e-18
2.34001e-12
-7.08446e-18
2.34e-12
-4.11437e-19
-3.67306e-17
2.37071e-12
2.32484e-12
2.32347e-12
2.33174e-12
2.33673e-12
2.33889e-12
2.33965e-12
2.33992e-12
2.33999e-12
2.34001e-12
2.34e-12
2.34e-12
2.34e-12
2.34e-12
2.34e-12
2.34e-12
2.34e-12
2.34e-12
2.34e-12
2.34e-12
2.34e-12
2.34e-12
2.34e-12
2.34e-12
2.34e-12
2.34e-12
2.34e-12
2.34e-12
2.34e-12
2.34e-12
2.34e-12
2.34e-12
2.34e-12
2.34e-12
2.34e-12
2.34e-12
2.33999e-12
2.34e-12
2.33999e-12
2.34e-12
2.34e-12
2.34e-12
2.33999e-12
2.33999e-12
)
;

boundaryField
{
    AirInlet
    {
        type            calculated;
        value           uniform -1e-12;
    }
    WaterInlet
    {
        type            calculated;
        value           nonuniform List<scalar> 10(-2.5e-12 -2.5e-12 -2.5e-12 -2.5e-12 -2.5e-12 -2.5e-12 -2.5e-12 -2.5e-12 -2.5e-12 -2.5e-12);
    }
    ChannelWall
    {
        type            calculated;
        value           uniform 0;
    }
    Outlet
    {
        type            calculated;
        value           nonuniform List<scalar> 
11
(
2.33996e-12
2.34005e-12
2.33996e-12
2.34005e-12
2.33998e-12
2.60006e-12
2.33993e-12
2.34005e-12
2.33994e-12
2.34006e-12
2.33996e-12
)
;
    }
    FrontAndBack
    {
        type            empty;
        value           nonuniform 0();
    }
}


// ************************************************************************* //
