/*--------------------------------*- C++ -*----------------------------------*\
| =========                 |                                                 |
| \\      /  F ield         | OpenFOAM: The Open Source CFD Toolbox           |
|  \\    /   O peration     | Version:  2.3.0                                 |
|   \\  /    A nd           | Web:      www.OpenFOAM.org                      |
|    \\/     M anipulation  |                                                 |
\*---------------------------------------------------------------------------*/
FoamFile
{
    version     2.0;
    format      ascii;
    class       volScalarField;
    location    "4.50185";
    object      Ct2;
}
// * * * * * * * * * * * * * * * * * * * * * * * * * * * * * * * * * * * * * //

dimensions      [0 0 0 0 0 0 0];

internalField   nonuniform List<scalar> 
1000
(
1
1
1
1
1
1
1
1
1
1.00006
1.00016
1
1
1
1
1
1
1.00014
1.00006
1
1
1
1
1.02583
1.33433
2.20226
4.35012
5.7895
6.68334
5.51814
3.05891
2.68999
1.37653
1
1
1.42285
1.71077
1.38341
1.65462
1
1
1
1.00035
2.22265
8.39017
8.87981
8.93944
8.89684
7.97593
3.87264
1.66448
1.47121
1.43648
1
1
1.12676
1.47441
1.22746
1.23269
1
1
1
1.17566
7.54465
8.95629
8.95912
8.95898
8.9245
7.74684
3.18983
1.48843
1.39633
1.35973
1
1
1.00006
1.16948
1.18037
1.1627
1.00001
1
1.04277
4.07077
8.83525
8.95762
8.95943
8.95938
8.95135
8.19735
2.94262
1.47595
1.39262
1.39712
1
1
1
1.04326
1.12087
1.08988
1.00007
1
2.03163
8.34815
7.6373
8.95511
8.95947
8.95941
8.959
8.86422
6.57807
1.80576
1.19301
1.00821
1
1
1
1
1.01885
1.02624
1.00015
1
5.48762
6.73173
6.5871
8.95469
8.95949
8.95948
8.95946
8.9564
8.60266
4.47728
1.38831
1.12039
1.00038
1
1
1
1
1.00311
1.00038
1
5.37173
5.15141
7.26748
8.95759
8.9595
8.9595
8.9595
8.95949
8.95669
8.80414
7.73462
6.42882
6.43596
5.3595
1.24673
1.00001
1
1.00091
1.00072
1
4.90323
4.39351
8.70522
8.95926
8.95951
8.95951
8.95951
8.95951
8.95951
8.95947
8.95889
8.95812
8.95907
8.95663
7.19448
1.1883
1.00016
1.00141
1.00119
1
3.843
3.49263
8.95609
8.95951
8.95952
8.95952
8.95952
8.95952
8.95952
8.95952
8.95952
8.95952
8.95952
8.95952
8.88484
1.33783
1.04621
1.00152
1.00184
1
1
1
1
1
1
1
1.00447
1.07138
1.17295
1.15436
1.12365
1.00812
1
1
1
1
1.00003
1.00002
1
1
1.00711
1.00039
1.27371
3.12591
5.03175
6.60069
7.71283
8.23194
6.41707
3.48365
2.2207
1.32958
1.0039
1
1.23696
1.38407
1.22681
1.42876
1
1
1
1.16708
4.30036
8.86251
8.94992
8.95613
8.94785
8.69176
5.7362
2.20626
1.44518
1.35284
1.04377
1
1.12207
1.26253
1.16903
1.17645
1.00001
1
1
1.29726
8.46468
8.95897
8.95939
8.95938
8.95523
8.72282
5.58213
1.93324
1.33215
1.29816
1.02523
1.00003
1.03691
1.1424
1.14491
1.13527
1.00034
1
1.07832
5.74752
8.79233
8.95883
8.95944
8.95942
8.95911
8.88719
6.70793
2.03483
1.30053
1.21707
1.05184
1.00339
1.00646
1.08227
1.12169
1.11621
1.00116
1
2.26616
8.46495
8.51205
8.95876
8.95947
8.95947
8.95946
8.9537
8.44553
3.47763
1.27901
1.17014
1.01282
1.01369
1.02489
1.06124
1.11468
1.10497
1.00187
1
6.81603
8.1578
8.73438
8.95925
8.95949
8.95949
8.95948
8.95943
8.93133
7.61184
2.78092
1.41049
1.30435
1.25557
1.08588
1.09086
1.12659
1.12887
1.00859
1
7.08347
7.86747
8.93504
8.95946
8.9595
8.9595
8.9595
8.9595
8.95945
8.95069
8.8289
8.60541
8.70712
8.41457
3.36958
1.23356
1.13248
1.13788
1.02603
1
6.73028
6.05856
8.95886
8.95951
8.95951
8.95951
8.95951
8.95951
8.95951
8.95951
8.95951
8.95949
8.95951
8.95947
8.76363
1.65641
1.18513
1.14647
1.05178
1
5.56979
4.8901
8.95949
8.95952
8.95952
8.95952
8.95952
8.95952
8.95952
8.95952
8.95952
8.95952
8.95952
8.95952
8.9562
2.81985
1.22871
1.15034
1.092
1
1
1
1
1
1
1.00005
1.01563
1.10329
1.18223
1.17094
1.14713
1.06201
1
1
1
1
1
1
1
1.18222
1.62794
2.22317
3.14967
5.37722
6.05335
7.44762
8.28792
8.67572
8.61606
7.44872
4.45695
2.74163
1.22394
1
1.16452
1.28365
1.17386
1.29313
1
1.35173
1.36968
2.12943
8.12147
8.95327
8.95758
8.95896
8.95906
8.95147
8.69444
6.58913
2.76273
1.91903
1.33603
1.00178
1.13007
1.21653
1.14656
1.16442
1.00001
1.34223
1.1712
2.87254
8.92889
8.95937
8.95942
8.9594
8.95918
8.95037
8.69463
6.1807
2.29204
1.50239
1.30935
1.11814
1.13029
1.14972
1.13376
1.13945
1.00031
1.36651
1.28565
8.28638
8.90613
8.95932
8.95945
8.95941
8.95934
8.94741
8.7112
7.10124
2.42902
1.3029
1.23802
1.14042
1.12194
1.12776
1.13033
1.13574
1.0013
1.39777
5.61218
8.81787
8.86529
8.95936
8.95947
8.95946
8.95943
8.9555
8.82696
8.10129
5.03138
2.28655
1.32633
1.26971
1.20395
1.17206
1.14854
1.14006
1.00268
1.42132
8.50609
8.80265
8.94077
8.95946
8.95949
8.95949
8.95947
8.95907
8.92822
8.67071
8.07522
6.73007
6.55515
5.07528
2.68714
1.49855
1.25752
1.19578
1.02813
1.44495
8.50485
8.62174
8.95876
8.95949
8.9595
8.9595
8.9595
8.95948
8.95928
8.95684
8.95486
8.95068
8.9566
8.90643
8.60805
4.15353
1.62349
1.28702
1.08102
1.44557
8.25965
7.48033
8.95949
8.95951
8.95951
8.95951
8.95951
8.95951
8.95951
8.95951
8.95951
8.95951
8.95951
8.95951
8.94223
7.6556
2.91494
1.50972
1.13333
1.44068
7.50362
6.92877
8.95952
8.95952
8.95952
8.95952
8.95952
8.95952
8.95952
8.95952
8.95952
8.95952
8.95952
8.95952
8.95947
6.2069
2.85381
1.62067
1.17814
1
1
1
1
1
1
1
1.00611
1.08708
1.17854
1.16576
1.13884
1.01369
1
1
1
1
1
1
1
1
1.15902
3.09645
4.31786
4.34045
5.13286
6.53748
7.56658
7.95307
6.43136
4.19193
2.45703
1.36864
1.00614
1
1.23031
1.33357
1.18252
1.30766
1
1
2.97805
7.90185
8.91279
8.94448
8.94689
8.94778
8.86558
8.16662
5.03437
2.63244
1.47623
1.36265
1.04044
1
1.12212
1.24572
1.15304
1.156
1
1
3.36115
8.22738
8.94912
8.95908
8.95927
8.95682
8.89796
7.93277
4.51859
2.28467
1.36935
1.34103
1.02853
1.00012
1.04536
1.14232
1.13708
1.13039
1.00021
1
6.05775
8.87165
8.76284
8.95879
8.95937
8.95924
8.93308
7.90911
4.50771
2.67185
1.62077
1.18507
1.0086
1.00056
1.00187
1.06975
1.12599
1.11443
1.00087
1
7.8746
8.53764
8.51219
8.95873
8.95947
8.95946
8.95777
8.7479
6.39113
3.41377
2.4562
1.40488
1.22521
1.22419
1.13492
1.08926
1.09095
1.11062
1.00159
1.00002
7.73152
8.1575
8.74139
8.95925
8.95949
8.95949
8.95947
8.94885
8.3466
5.04571
3.00753
3.00235
1.82822
3.16563
3.30267
1.54649
1.21445
1.17231
1.01431
1.00018
7.46957
7.85809
8.9357
8.95946
8.9595
8.9595
8.9595
8.95947
8.95357
8.8565
8.593
8.47012
8.56321
5.9519
6.54763
1.70701
1.40266
1.23545
1.05372
1.00107
7.00557
6.09022
8.95885
8.95951
8.95951
8.95951
8.95951
8.95951
8.95951
8.95951
8.95945
8.95934
8.95947
8.938
7.19244
1.4284
1.33029
1.26848
1.11998
1.00754
5.78787
4.88974
8.95949
8.95952
8.95952
8.95952
8.95952
8.95952
8.95952
8.95952
8.95952
8.95952
8.95952
8.95952
8.93193
1.54592
1.25421
1.24685
1.16911
1
1
1
1
1
1
1
1
1
1.00002
1.00009
1
1
1
1
1
1
1.00008
1.00003
1
1
1.00001
1.41053
2.31056
2.27974
2.50532
3.91487
5.08214
5.60866
4.89008
3.20593
2.76316
1.38325
1
1
1.44423
1.72189
1.38175
1.61229
1
1
1.14667
3.24592
8.24632
8.86893
8.88993
8.89309
8.43718
6.37789
3.05607
1.63149
1.47938
1.43935
1
1
1.12805
1.46944
1.23909
1.22612
1
1
1.9541
7.31313
8.88636
8.95863
8.95908
8.946
8.64945
6.13525
2.21276
1.43683
1.39448
1.4161
1
1
1.00007
1.16761
1.30295
1.16422
1.00001
1
5.4239
8.88885
8.83987
8.95753
8.95943
8.9581
8.87912
7.07152
2.0884
1.4201
1.23225
1.22134
1
1
1
1.02618
1.27676
1.09189
1.00004
1
6.2597
8.42674
7.6262
8.95493
8.95947
8.95945
8.95336
8.55664
4.53502
1.59469
1.39182
1.14582
1
1
1
1
1.02661
1.04398
1.00013
1
5.99932
6.70464
6.54247
8.95453
8.95949
8.95948
8.95944
8.93776
7.9442
3.3132
1.45251
1.11386
1
1
1
1
1
1.06627
1.00044
1
5.47347
5.09971
7.17987
8.95751
8.9595
8.9595
8.9595
8.95948
8.95129
8.67535
6.83459
5.09518
4.86817
2.19951
1.06838
1
1
1.08472
1.00116
1
4.96837
4.33933
8.68144
8.95925
8.95951
8.95951
8.95951
8.95951
8.95951
8.95945
8.95797
8.95451
8.95687
8.91002
3.14485
1.08639
1.00002
1.04304
1.0029
1
3.90137
3.43196
8.95557
8.95951
8.95952
8.95952
8.95952
8.95952
8.95952
8.95952
8.95952
8.95952
8.95952
8.95952
8.6327
1.43884
1.0183
1.02319
1.00632
)
;

boundaryField
{
    aeration
    {
        type            calculated;
        value           uniform 1;
    }
    xsides
    {
        type            calculated;
        value           nonuniform List<scalar> 
100
(
1
1
1
1
1
1
1
1
1
1
1
1
1
1
1
1
1
1
1
1
1
1.06979
1
1
1
1
1
1
1
1
1
1
1
1
1
1
1
1
1
1
1
1
1
1
1
1
1
1
1
1
1
1
1
1.00001
1.0001
1.00026
1.00063
1.00112
1.00175
1.00249
1
1
1
1.00022
1.0008
1.00133
1.00628
1.01775
1.03453
1.05612
1
1
1.00001
1.0002
1.00089
1.00193
1.0205
1.05625
1.09025
1.11527
1
1
1
1.00014
1.00059
1.00113
1.01019
1.03577
1.07267
1.10104
1
1
1
1.00001
1.00007
1.00021
1.00071
1.00173
1.004
1.00826
)
;
    }
    zsides
    {
        type            calculated;
        value           nonuniform List<scalar> 
400
(
1
1
1
1
1
1
1
1
1
1
1
1
1
1
1.07398
2.46894
6.0504
5.84912
5.34753
4.29486
1
1
1.0006
1.29247
4.91618
8.5504
7.28969
5.85667
5.05239
4.06276
1
1.03941
2.56058
7.89265
8.8715
7.9243
6.95706
7.50084
8.7338
8.95633
1
1.43149
8.4912
8.95702
8.9581
8.9561
8.95564
8.95792
8.95929
8.95951
1
2.41811
8.89514
8.9592
8.95944
8.95947
8.95949
8.9595
8.95951
8.95952
1
4.75398
8.94337
8.95906
8.95939
8.95942
8.95948
8.9595
8.95951
8.95952
1
6.18169
8.90662
8.92944
8.95253
8.95907
8.95946
8.9595
8.95951
8.95952
1
6.93671
8.07556
7.8439
8.27034
8.87525
8.95676
8.9595
8.95951
8.95952
1.00008
1.00014
1.00005
1.00008
3.095
6.74816
8.6335
8.95698
8.95951
8.95952
1.0002
1.00003
1
1
1.00008
1.95449
4.67285
8.81882
8.95948
8.95952
1
1.00002
1
1
1
1.28183
1.4921
7.84017
8.95896
8.95952
1
1
1
1.22293
1
1.01235
1.20579
6.63509
8.95827
8.95952
1
1
1
1
1
1
1.00088
6.67182
8.9591
8.95952
1
1
1
1
1
1
1
5.60132
8.95673
8.95952
1
1.76427
1.21314
1.0001
1
1
1
1.36003
7.29643
8.88438
1
2.07594
1.73051
1.31869
1.07754
1
1
1.00001
1.27776
1.51364
1.0003
1.55903
1.34059
1.28583
1.22076
1.03389
1
1
1.00025
1.06983
1.00012
2.09021
1.40105
1.2779
1.15976
1.05403
1.00705
1.0016
1.00225
1.00225
1
1
1
1.00001
1.0001
1.00026
1.00063
1.00112
1.00175
1.00249
1
1
1
1
1
1
1
1
1
1
1
1.00002
1.31718
2.45815
6.06523
6.76145
6.51782
6.00329
5.48509
4.42411
1
1.5508
3.75895
7.74817
8.91428
8.60047
7.26445
5.81891
5.01082
4.01284
1
2.5361
8.3742
8.90576
8.87398
7.91418
6.91792
7.42401
8.71274
8.95585
1
2.51727
8.88553
8.95882
8.95803
8.95597
8.95552
8.95785
8.95929
8.95951
1
2.78131
8.90325
8.95916
8.95944
8.95947
8.95949
8.9595
8.95951
8.95952
1
4.30554
8.90587
8.94847
8.95836
8.95946
8.95948
8.9595
8.95951
8.95952
1
5.43605
8.514
8.68831
8.88927
8.95421
8.95945
8.9595
8.95951
8.95952
1
5.30079
6.53502
6.09295
6.98068
8.57637
8.9403
8.95948
8.95951
8.95952
1.00003
1.0001
1.00003
1.00001
1.00001
1.00008
7.98876
8.95213
8.95951
8.95952
1.00012
1.00003
1
1
1
1
1.00003
8.699
8.95945
8.95952
1
1.00002
1
1
1.24575
1
1
6.92938
8.95807
8.95952
1
1
1
1.08791
1.25381
1
1
1.00011
1.20528
8.95952
1
1
1
1
1
1
1
1.0001
3.0902
8.95952
1
1
1
1
1
1
1
1.00001
1.28606
8.95743
1
1.79637
1.2143
1.00012
1
1
1
1
1.00003
1.00298
1
2.09013
1.71451
1.3092
1.04898
1
1
1
1
1
1.00016
1.54852
1.31084
1.19098
1.00018
1
1
1
1
1
1.00006
2.03962
1.39248
1.27395
1.1549
1.069
1.02475
1.00007
1.00146
1.01931
1
1
1
1.00001
1.00007
1.00021
1.00071
1.00173
1.004
1.00826
)
;
    }
    outlet
    {
        type            calculated;
        value           nonuniform List<scalar> 
100
(
1
1
1.44068
1.00754
1
3.84304
5.56983
7.50365
5.78792
3.90143
8.95953
8.95953
8.95953
8.95953
8.95953
8.95953
8.95953
8.95953
8.95953
8.95953
8.95953
8.95953
8.95953
8.95953
8.95953
8.95953
8.95953
8.95953
8.95953
8.95953
8.95953
8.95953
8.95953
8.95953
8.95953
8.95953
8.95953
8.95953
8.95953
8.95953
8.95953
8.95953
8.95953
8.95953
8.95953
8.95953
8.95953
8.95953
8.95953
8.95953
8.95953
8.95953
8.95953
8.95953
8.95953
8.95953
8.95953
8.95953
8.95953
8.95953
8.95953
8.95953
8.95953
8.95953
8.95953
8.95953
8.95953
8.95953
8.95953
8.95953
8.95953
8.95953
8.95953
8.95953
8.95953
8.95953
8.95953
8.95953
8.95953
8.95953
1.33785
8.95953
8.95953
1.2426
1.43884
1.04621
1.22872
2.85385
1.25422
1.0183
1.00152
1.15034
1.62069
1.24686
1.02319
1.00184
1.09201
1.17815
1.16912
1.00632
)
;
    }
}


// ************************************************************************* //
