/*--------------------------------*- C++ -*----------------------------------*\
| =========                 |                                                 |
| \\      /  F ield         | OpenFOAM: The Open Source CFD Toolbox           |
|  \\    /   O peration     | Version:  2.3.0                                 |
|   \\  /    A nd           | Web:      www.OpenFOAM.org                      |
|    \\/     M anipulation  |                                                 |
\*---------------------------------------------------------------------------*/
FoamFile
{
    version     2.0;
    format      ascii;
    class       volVectorField;
    location    "4.50185";
    object      U.water;
}
// * * * * * * * * * * * * * * * * * * * * * * * * * * * * * * * * * * * * * //

dimensions      [0 1 -1 0 0 0 0];

internalField   nonuniform List<vector> 
1000
(
(-0.0443901 0.0307066 -0.00347888)
(-0.0493168 0.0158855 -0.00421909)
(-0.0608406 0.0210671 -0.00479851)
(-0.0642139 0.0314108 -0.00401525)
(-0.0597667 0.0394457 -0.00146953)
(-0.055229 0.0405885 0.000164164)
(-0.0525671 0.0368008 0.00082149)
(-0.0459807 0.0294871 -0.000325626)
(-0.0258753 0.024061 -0.00155812)
(0.0061225 0.0169075 -0.00545935)
(0.0487209 -0.00142708 -0.00488089)
(0.0844471 0.0263184 -0.00377373)
(0.0632405 0.0458303 -0.00358297)
(-0.000221215 0.0497977 -0.00544523)
(-0.0256958 0.0247902 -0.00193518)
(-0.0331228 0.00432286 -8.10121e-05)
(-0.0220546 -0.00208324 0.000173349)
(-0.00177438 -0.0159264 0.000398496)
(0.0348821 -0.0204092 -0.00052042)
(0.0582309 0.0288321 0.000365484)
(-0.0360648 0.0992724 -0.000707538)
(-0.0373195 0.0548103 -0.000145348)
(-0.049923 0.0464488 0.00134265)
(-0.049979 0.02098 0.00234401)
(-0.0381815 -0.000902659 0.000543844)
(-0.0282578 -0.00632656 -0.000514561)
(-0.020496 -0.011198 -0.000282961)
(-0.0130877 -0.015148 0.000587357)
(0.000452231 -0.0241618 -7.36572e-05)
(0.0220205 -0.0155113 7.73926e-05)
(0.0373703 -0.0185041 -0.000987014)
(0.058344 -0.00715236 -0.000261764)
(0.0573747 0.0456208 0.00163818)
(0.0138184 0.0904451 0.000708937)
(0.0085774 0.0456482 -0.000763722)
(-2.5194e-05 -0.00569283 -5.80798e-05)
(-0.00388433 -0.0166212 -0.000112113)
(0.00503026 -0.0305567 0.000129099)
(0.00742255 -0.0256577 -0.000100014)
(0.0418243 0.0463679 0.000282727)
(-0.0229827 0.136789 0.00122383)
(-0.024699 0.0628428 0.00189619)
(-0.0339407 0.0390975 0.0013013)
(-0.0215209 -0.00421423 0.00158769)
(-0.0178295 -0.0100812 0.000430119)
(-0.0165435 -0.00935257 0.000105526)
(-0.013065 -0.0143558 0.000131875)
(-0.00942177 -0.024538 7.86613e-05)
(-0.000304414 -0.0394343 -0.000332607)
(0.0112576 -0.0462952 0.000696016)
(0.0317294 -0.0467204 -0.00051414)
(0.0476088 -0.0266832 0.000755462)
(0.0484777 0.0332128 0.00202807)
(0.0131248 0.111881 0.00298085)
(0.0233675 0.0747536 -1.38749e-05)
(0.00763111 0.0109501 -0.000264056)
(-0.00346857 -0.0181586 5.23093e-05)
(0.00242014 -0.035742 3.05674e-05)
(-0.000421683 -0.0339839 0.000784346)
(0.0302428 0.0641498 0.0004452)
(-0.0105697 0.156806 0.00160427)
(-0.0160514 0.0538768 0.00165654)
(-0.0125279 0.0178832 0.00073621)
(-0.00648366 -0.00900572 0.000487356)
(-0.00823186 -0.0107264 -1.29798e-06)
(-0.00765467 -0.0113769 8.17276e-06)
(-0.007615 -0.0162513 7.48265e-05)
(-0.0072006 -0.0264155 0.000154174)
(-0.00501277 -0.0439332 9.96289e-05)
(-0.00384472 -0.0557146 -0.000923218)
(0.00504545 -0.0555596 -0.00034354)
(0.0131983 -0.0340816 -6.53462e-05)
(0.0266359 0.033712 0.00260028)
(0.00480671 0.110158 0.0020779)
(0.0245129 0.078531 0.00060668)
(0.0219916 0.0225928 -0.000368166)
(0.00743008 -0.00887448 -0.000257621)
(0.00312005 -0.0327766 -0.000358737)
(-0.00831516 -0.0386516 0.000564864)
(0.0232891 0.06884 0.00039183)
(-0.00144853 0.167879 0.00148617)
(-0.01203 0.0321846 0.00107034)
(-0.00603558 -5.20758e-05 0.000745445)
(-0.00364103 -0.00865449 0.000173172)
(-0.00375326 -0.00990653 3.73315e-05)
(-0.00297985 -0.0103731 5.70295e-05)
(-0.00422188 -0.0146607 7.2036e-05)
(-0.00554004 -0.024902 2.60902e-05)
(-0.00982272 -0.0431174 -0.000241981)
(-0.0166478 -0.057414 -0.00044033)
(-0.0210151 -0.0564939 -0.000707893)
(-0.0282603 -0.0321 -0.00178061)
(-0.000439971 0.0433504 0.000707395)
(0.00259914 0.0978155 -0.00163188)
(0.0330161 0.0728952 -0.00132532)
(0.0440469 0.0327631 -0.000312422)
(0.0211578 0.000607695 -0.000528376)
(0.00920744 -0.0230166 -0.000173452)
(-0.012268 -0.0390261 0.000299151)
(0.0144585 0.0700186 0.000288081)
(0.00252549 0.17618 0.00106493)
(-0.00978203 0.019449 0.000536619)
(-0.00656182 -0.00419005 0.00034241)
(-0.00383665 -0.0104936 7.46162e-05)
(-0.00166388 -0.0113907 1.1553e-05)
(-0.00100932 -0.0105614 1.76749e-05)
(-0.00214824 -0.0126789 3.16566e-05)
(-0.00483502 -0.0192541 0.000114713)
(-0.0102617 -0.0332586 2.26491e-06)
(-0.023313 -0.0518319 -0.000450885)
(-0.0318311 -0.056883 -0.000721647)
(-0.044068 -0.0335258 0.00131155)
(-0.0251418 0.03322 0.000758686)
(0.0152347 0.0783479 -0.000117653)
(0.0616291 0.0699326 -0.000613863)
(0.0766154 0.0548435 -0.000887333)
(0.0564716 0.0340086 -0.000739352)
(0.0289493 -0.00512293 -0.000348028)
(-0.0104901 -0.0289996 0.000363056)
(0.0023586 0.0630534 -0.000312581)
(0.00334522 0.18057 0.000623516)
(-0.00693786 0.0172069 2.64181e-05)
(-0.00720673 -0.00550505 0.000198048)
(-0.00372639 -0.012212 1.40827e-05)
(-0.000786914 -0.0125182 -1.07148e-06)
(-0.000368025 -0.00989884 7.80799e-06)
(-0.00175721 -0.010842 5.78341e-06)
(-0.00394301 -0.0162878 -1.12406e-06)
(-0.00846988 -0.0251286 0.000159895)
(-0.0181846 -0.0355125 0.000441201)
(-0.0339608 -0.0415846 0.000444986)
(-0.0451968 -0.0321835 0.000837005)
(-0.0383299 0.00166987 0.00276261)
(-0.00494979 0.0142165 0.00128522)
(0.0497636 0.0352859 0.00267138)
(0.096411 0.0642614 0.00209991)
(0.0928276 0.0673195 -0.000168133)
(0.072377 0.047327 -0.000318187)
(0.0210461 0.00106097 -0.000993264)
(-0.0096324 0.0662141 -0.00241136)
(0.0023553 0.187257 0.000218715)
(-0.00624723 0.0181119 -0.00031839)
(-0.00768582 -0.00586866 0.0001637)
(-0.00319679 -0.014953 5.03223e-05)
(-0.000271953 -0.0134795 -5.56671e-06)
(-0.000248716 -0.0092545 -2.24676e-06)
(-0.00102565 -0.00895423 1.54328e-05)
(-0.00282904 -0.0127515 4.34476e-05)
(-0.00606476 -0.0208974 5.62188e-05)
(-0.00960896 -0.0297648 4.39845e-05)
(-0.0145724 -0.0322333 0.00015195)
(-0.0205158 -0.0308014 0.000180884)
(-0.024563 -0.0269813 -0.00037829)
(-0.0117048 -0.0285316 -0.00147959)
(0.00986995 -0.0394492 0.00100707)
(0.0627861 0.00190282 0.00204453)
(0.0850721 0.0702742 0.00200867)
(0.0689179 0.0727766 0.00118794)
(0.0242759 0.0455937 -0.00109273)
(-0.0105422 0.08515 -0.00215908)
(0.00245288 0.189535 9.38321e-05)
(-0.00621588 0.0180885 -0.000222933)
(-0.00723056 -0.00742004 0.000176853)
(-0.00260417 -0.0189292 0.000131412)
(-0.000813371 -0.0138817 3.80043e-05)
(-0.00041884 -0.00880434 1.94917e-05)
(-0.000682839 -0.00798569 1.76411e-05)
(-0.0012516 -0.0112011 3.9218e-05)
(-0.00252956 -0.0181612 0.000100477)
(-0.00473563 -0.0250877 0.000171839)
(-0.00706242 -0.025586 0.000139174)
(-0.00821857 -0.0227892 -7.21858e-06)
(-0.00765659 -0.0223274 0.000245513)
(-0.00222365 -0.0309778 0.000204253)
(0.00867785 -0.0491643 0.000423164)
(0.0229677 -0.0488919 0.00285903)
(0.071162 0.0474148 0.00153573)
(0.060549 0.0856265 0.00140125)
(0.0355648 0.0715768 1.33735e-05)
(-0.00556128 0.0997954 -0.00205151)
(0.00481853 0.195335 8.33716e-05)
(-0.00468569 0.0194508 -6.17883e-05)
(-0.00326105 -0.0103824 0.000326282)
(-0.00117914 -0.0209847 7.6967e-05)
(-0.000659013 -0.0141265 2.02622e-05)
(-0.000264971 -0.00876684 2.63418e-05)
(-0.00020094 -0.00766645 3.18142e-05)
(-0.000265357 -0.0105597 3.02413e-05)
(-0.000622659 -0.0166835 1.64383e-05)
(-0.000967888 -0.0230206 -3.54566e-05)
(-0.0012995 -0.0233028 -6.9516e-05)
(-0.0015392 -0.0204685 -0.00015358)
(-0.00121747 -0.0233778 -0.000107646)
(-2.65936e-05 -0.0344092 -3.76705e-05)
(0.004442 -0.0581969 -0.000339554)
(0.00535778 -0.0640417 0.002401)
(0.0424775 0.00294913 0.00047646)
(0.0383878 0.0920318 0.000789703)
(0.024825 0.105864 0.000211159)
(-0.00287369 0.135521 -0.00136939)
(-0.0484412 0.018046 -0.00465875)
(-0.0543602 -0.00961964 -0.00517721)
(-0.0686741 -0.00136283 -0.00710493)
(-0.0725533 0.0166304 -0.00542657)
(-0.066408 0.0289355 -0.00196013)
(-0.0617772 0.0302332 -0.000656688)
(-0.0569563 0.0202637 -0.000335711)
(-0.045672 8.54837e-05 -0.000951893)
(-0.0236466 -0.0096439 -0.00139675)
(0.010913 -0.0262178 -0.00419587)
(0.0431384 -0.0357957 -0.00354304)
(0.0813605 -0.0352431 -0.00254787)
(0.0948154 -0.0145707 -0.000294416)
(0.0391956 0.020414 -0.0045306)
(-0.0262933 0.023235 -0.00269196)
(-0.0352947 0.00300502 2.452e-05)
(-0.0234369 -0.00307093 0.000251776)
(-0.00173736 -0.0171782 0.000325858)
(0.0366135 -0.0226606 0.000250132)
(0.0616362 0.0278665 -0.000506257)
(-0.0391077 0.0537674 -0.00285353)
(-0.0429434 0.0250913 -0.00160324)
(-0.0547448 0.025402 0.000996435)
(-0.0510983 0.00566492 0.00225861)
(-0.0393128 -0.0107916 0.00113372)
(-0.0303622 -0.0111457 0.000669231)
(-0.0222592 -0.0146827 0.000791858)
(-0.0134466 -0.0204554 0.000906295)
(0.0013465 -0.0341824 0.000616589)
(0.0162408 -0.0558991 0.00143124)
(0.033128 -0.0557797 -0.00127767)
(0.0421143 -0.0381788 0.000817314)
(0.0694932 0.0207989 0.00525625)
(0.0299596 0.0635231 0.000875943)
(0.011726 0.0438931 -0.0014399)
(9.15261e-05 -0.00533038 -3.17964e-06)
(-0.00416986 -0.0169674 -5.03356e-05)
(0.00533874 -0.0322875 -0.000243909)
(0.00772694 -0.0264581 0.000107558)
(0.0445936 0.0467649 -0.000184713)
(-0.028632 0.0992929 -0.00119839)
(-0.0268934 0.0453145 0.00197062)
(-0.0335808 0.0243671 0.00188657)
(-0.0218005 -0.00861223 0.00165823)
(-0.0193364 -0.011399 0.00026608)
(-0.0183273 -0.0107649 8.6373e-05)
(-0.0143682 -0.0168455 3.54512e-05)
(-0.0106305 -0.0294378 -2.68896e-05)
(-0.00172417 -0.0499612 -0.000143979)
(0.00244197 -0.0728667 0.00142213)
(0.0177943 -0.0778493 0.000180039)
(0.0266654 -0.0539643 0.000732173)
(0.0497865 0.0127785 0.00378551)
(0.0215399 0.0947635 0.00228363)
(0.0274207 0.0746925 -0.000940652)
(0.00941417 0.0128273 -0.000264235)
(-0.00357782 -0.0184769 -8.69305e-05)
(0.0023986 -0.0384652 -0.000223588)
(-0.000676635 -0.0358203 -0.000309888)
(0.032478 0.0655152 -0.000139182)
(-0.0176625 0.129533 -0.000288607)
(-0.0169825 0.0440227 0.00330948)
(-0.012631 0.0111283 0.00240812)
(-0.00709533 -0.0103693 0.000378318)
(-0.00921236 -0.0119744 -7.7739e-05)
(-0.00857323 -0.0130237 -2.67456e-05)
(-0.00866979 -0.018941 -2.66339e-05)
(-0.00850955 -0.0311858 -3.21387e-05)
(-0.0066207 -0.0536216 0.000100086)
(-0.0102972 -0.0746501 0.000460394)
(-0.0110575 -0.0787968 -0.000182982)
(-0.0142394 -0.054709 -0.000789895)
(0.026353 0.0370819 0.00337521)
(0.00495691 0.0999509 0.00080729)
(0.0270014 0.0775695 -1.33287e-05)
(0.0242417 0.0230237 -0.000266324)
(0.00861094 -0.00842989 -0.000289335)
(0.0035904 -0.0363595 -0.00020175)
(-0.00935889 -0.0422639 -0.000324227)
(0.025168 0.0706437 -4.89831e-06)
(-0.00726929 0.147594 0.000226116)
(-0.0130399 0.0277434 0.00172239)
(-0.00677384 -0.00150356 0.00125325)
(-0.00425938 -0.0096498 3.60632e-05)
(-0.00424841 -0.0111285 -2.835e-05)
(-0.00337614 -0.0117236 -8.25513e-06)
(-0.00482117 -0.0168006 -3.43322e-05)
(-0.00653855 -0.0287194 -0.000106695)
(-0.0123618 -0.0492798 -0.000140517)
(-0.0223172 -0.0705706 0.000373486)
(-0.028191 -0.0775573 0.000827264)
(-0.0378679 -0.0585214 -0.00113232)
(-0.00736384 0.0277489 -0.00473033)
(0.00156519 0.0883548 -0.00247349)
(0.0327616 0.0694979 -0.00248776)
(0.0479521 0.0303616 -0.000832255)
(0.0245347 1.93688e-05 -0.000730474)
(0.0116055 -0.0263432 -1.3947e-05)
(-0.012957 -0.0441206 -0.000146358)
(0.015994 0.0726927 7.48002e-05)
(-0.00162743 0.163547 0.00038233)
(-0.010081 0.0182813 0.000244873)
(-0.00720837 -0.00482672 -4.3346e-05)
(-0.00442515 -0.0123043 -0.000184247)
(-0.00190286 -0.0131526 -8.06769e-05)
(-0.00115113 -0.0120533 -4.30643e-05)
(-0.00249621 -0.0146551 -3.72654e-05)
(-0.00552227 -0.0224574 -1.37697e-05)
(-0.0106448 -0.0379844 -0.000181908)
(-0.0252181 -0.059116 -0.000465656)
(-0.0376803 -0.0665738 0.000103111)
(-0.0485469 -0.0540487 0.00183224)
(-0.0379773 -0.00512327 -0.00189842)
(0.00637495 0.0551486 0.00047212)
(0.057421 0.0482182 -0.000978475)
(0.0835466 0.0408016 -0.00241874)
(0.0718337 0.0332515 -0.00245525)
(0.0402161 -0.00345415 -0.0015475)
(-0.00766923 -0.0336955 0.000147123)
(0.00258924 0.0660767 -0.000496254)
(0.00125999 0.172824 -2.05518e-05)
(-0.00727228 0.016359 0.000148716)
(-0.00813696 -0.00687044 -0.000172241)
(-0.00440226 -0.0156323 -0.000259864)
(-0.000891211 -0.0150686 -0.00010154)
(-0.000427437 -0.0115355 -5.23837e-05)
(-0.00201696 -0.0126142 -4.46023e-05)
(-0.00458261 -0.0194493 -0.000118627)
(-0.00958585 -0.0309387 -0.000175499)
(-0.0173736 -0.0439542 -0.000485523)
(-0.0321792 -0.0521946 -0.000602571)
(-0.0448166 -0.0459161 0.000837184)
(-0.0431739 -0.0228333 0.00338565)
(-0.0111603 -0.013085 0.00162285)
(0.0346558 -0.00497526 0.0033498)
(0.097218 0.0362041 0.00293226)
(0.0999974 0.0518913 -0.000606325)
(0.0865809 0.0429744 -0.00102746)
(0.0358117 0.00417143 -0.000284231)
(-0.00766067 0.0647439 -0.00215933)
(0.00186478 0.185746 0.000300738)
(-0.00671067 0.0167374 4.06608e-05)
(-0.0087923 -0.00849087 -0.000161284)
(-0.00361965 -0.0206363 -0.000237178)
(-0.000192297 -0.0172267 -0.000138348)
(-0.000301479 -0.0111959 -7.71227e-05)
(-0.0011804 -0.0107292 -5.20079e-05)
(-0.00319087 -0.0158219 -3.86262e-05)
(-0.006357 -0.0266269 -4.66749e-05)
(-0.00975322 -0.0384453 -0.000181413)
(-0.0137946 -0.0424199 -0.000338084)
(-0.0180584 -0.0422168 -3.58475e-05)
(-0.0211724 -0.0417065 -0.000476709)
(-0.0117326 -0.0503712 -0.00165303)
(0.00759378 -0.068831 -0.00223532)
(0.0467505 -0.0372305 0.00157029)
(0.0905341 0.0496255 0.00190372)
(0.0764147 0.0649657 0.00175793)
(0.0370122 0.0456027 -0.000308428)
(-0.00901424 0.0833732 -0.00202393)
(0.00148917 0.190144 0.000442761)
(-0.00700634 0.0162068 1.04789e-05)
(-0.00822476 -0.0108615 -0.00011499)
(-0.00264607 -0.0265607 -0.000149182)
(-0.000955618 -0.018538 -0.000131618)
(-0.000480312 -0.0111349 -8.21966e-05)
(-0.000823128 -0.0100241 -6.90248e-05)
(-0.00140297 -0.0146231 -7.80809e-05)
(-0.0025576 -0.0245709 -0.000126954)
(-0.00408467 -0.0356695 -0.000198058)
(-0.00586711 -0.0386512 -0.00025839)
(-0.00690289 -0.0379777 -0.000596851)
(-0.00652169 -0.0377378 -0.00068359)
(-0.00161428 -0.0555412 -0.000583471)
(0.00776472 -0.0836044 -0.00110002)
(0.0154855 -0.076697 -0.00115845)
(0.0692385 0.0236654 0.000255715)
(0.0661981 0.0779842 0.00186768)
(0.0458277 0.0700513 0.000948072)
(-0.00091123 0.0985138 -0.00191037)
(0.0039865 0.199764 0.000233525)
(-0.00532432 0.0175256 6.83371e-05)
(-0.00338997 -0.0137563 -8.80514e-05)
(-0.00105621 -0.0290771 -3.04569e-05)
(-0.000660445 -0.0194326 -5.85799e-05)
(-0.0002972 -0.0116128 -4.75797e-05)
(-0.000204896 -0.0101053 -4.06318e-05)
(-0.000229971 -0.0145222 -3.98281e-05)
(-0.000457042 -0.024267 -6.40083e-05)
(-0.000677169 -0.0357001 -0.000108035)
(-0.00090843 -0.0393114 -0.000144511)
(-0.00109815 -0.0400716 -0.00021704)
(-0.00105646 -0.0414405 -0.000124586)
(-9.09042e-05 -0.0602575 -0.000155091)
(0.002663 -0.0904838 0.000408096)
(0.0038723 -0.0921702 -0.000534935)
(0.0391209 -0.0129966 0.00043982)
(0.0423514 0.0853909 0.000954936)
(0.0318893 0.106098 0.0010474)
(9.04244e-05 0.137028 -0.00153308)
(-0.048816 -0.00118862 -0.000247415)
(-0.0559993 -0.0262884 -0.00361264)
(-0.0710588 -0.0160097 -0.00674852)
(-0.0735791 0.00780745 -0.00552686)
(-0.067473 0.0214992 -0.00167683)
(-0.0637881 0.0226165 -0.00042018)
(-0.0577211 0.00821528 0.000187865)
(-0.0442735 -0.0129749 7.32135e-05)
(-0.0226546 -0.0220364 0.000353359)
(0.0110644 -0.0388045 5.58127e-05)
(0.0414385 -0.0470825 -0.000137532)
(0.0748325 -0.0480649 -0.000204566)
(0.0958867 -0.0270189 -0.000138191)
(0.0478924 0.0119573 -5.20725e-05)
(-0.0261047 0.021378 3.01305e-05)
(-0.0357764 0.00262216 3.879e-05)
(-0.0237428 -0.00293346 8.34881e-05)
(-0.00174392 -0.0166284 0.0002704)
(0.0370858 -0.0227015 0.000154481)
(0.0626187 0.027387 2.70111e-05)
(-0.0375772 0.0240203 -0.000225911)
(-0.0437814 0.00665749 -0.00279529)
(-0.0540428 0.000862232 0.0006742)
(-0.0475347 -0.0117077 0.00255243)
(-0.0387397 -0.0160046 0.000750301)
(-0.0311559 -0.0124979 0.000111562)
(-0.0225069 -0.0161322 8.19574e-05)
(-0.0136262 -0.0229646 0.000116343)
(0.00104841 -0.0402046 0.000154547)
(0.012792 -0.0676363 0.000608366)
(0.0289643 -0.0661259 0.000145372)
(0.0334247 -0.047056 0.000497763)
(0.0631834 -0.0053945 0.000722827)
(0.0405102 0.0407373 -3.70994e-05)
(0.0150899 0.0402094 1.39123e-05)
(0.000261669 -0.00462032 -4.98355e-06)
(-0.00418954 -0.0166306 -2.14177e-05)
(0.00543258 -0.0322527 -1.1231e-05)
(0.0078874 -0.0263295 4.66292e-05)
(0.045524 0.0466328 -2.97661e-05)
(-0.0289196 0.0559211 -0.00136849)
(-0.0265741 0.0206613 0.000970361)
(-0.0295722 0.00389855 0.00212299)
(-0.0203839 -0.0121061 0.0017198)
(-0.0197074 -0.0117367 8.98414e-05)
(-0.0188484 -0.0111771 -4.54468e-05)
(-0.0147728 -0.0178376 -5.00532e-05)
(-0.0111396 -0.0315943 1.73386e-05)
(-0.00302998 -0.0558543 0.000159481)
(-0.00123589 -0.0814442 0.00058202)
(0.0103908 -0.0882555 0.000436718)
(0.016372 -0.0638728 0.000419566)
(0.0426033 -0.00683751 2.37917e-05)
(0.0277404 0.0719089 -0.000102473)
(0.0302616 0.0693827 1.40188e-05)
(0.0107788 0.0141421 5.36642e-06)
(-0.00352078 -0.0182076 -4.3515e-05)
(0.0023599 -0.0391045 -0.000179573)
(-0.000784692 -0.0361331 5.67448e-05)
(0.0332307 0.0656984 4.06915e-06)
(-0.0233398 0.0747307 -0.000618663)
(-0.0163452 0.0245903 0.00353841)
(-0.0109264 -0.000103659 0.00314402)
(-0.00722499 -0.0111953 0.000428552)
(-0.00952128 -0.0123193 -4.19138e-05)
(-0.0088377 -0.0135595 -1.14592e-05)
(-0.00901558 -0.0198877 -1.01117e-07)
(-0.00910924 -0.0332159 -4.90498e-05)
(-0.00816274 -0.058597 0.000129684)
(-0.0136538 -0.0814366 -0.000304054)
(-0.0167794 -0.0863674 0.000114205)
(-0.0213842 -0.0641105 -0.0010321)
(0.0179968 0.0266441 0.00031335)
(0.00438354 0.0844021 -0.000113058)
(0.0280164 0.0714092 -1.92475e-05)
(0.0251477 0.022465 5.02598e-06)
(0.00934452 -0.00830068 -6.00878e-05)
(0.00381938 -0.0379896 -0.000272498)
(-0.00989951 -0.0438939 5.47663e-05)
(0.0258844 0.0713517 8.91895e-05)
(-0.0155817 0.0865331 0.000112738)
(-0.012368 0.0196394 0.0019746)
(-0.00695373 -0.00306691 0.00151819)
(-0.00457922 -0.0100046 0.000127432)
(-0.00439783 -0.0114834 1.59077e-05)
(-0.00349597 -0.0121185 -1.7054e-06)
(-0.00501099 -0.0174742 -3.62138e-05)
(-0.00697868 -0.0300573 -0.000109639)
(-0.0137791 -0.0519243 -5.83981e-05)
(-0.0246839 -0.0779694 -0.000461297)
(-0.0320315 -0.0873478 -0.000167262)
(-0.0408176 -0.0729911 -0.000680039)
(-0.0166445 0.00987559 -0.00247439)
(0.000557714 0.0757449 -0.00235369)
(0.0332585 0.0626119 -0.00224248)
(0.0500776 0.0272726 -0.00071262)
(0.0271156 -0.000830721 -0.000358315)
(0.0133216 -0.0282554 -0.000325888)
(-0.0129954 -0.0465801 0.000112909)
(0.0165762 0.0734233 0.000134329)
(-0.0106678 0.1004 0.000315404)
(-0.00973503 0.0161763 0.000532931)
(-0.00746493 -0.00529851 0.000159513)
(-0.00462297 -0.012927 2.69204e-05)
(-0.00197523 -0.0136948 1.371e-06)
(-0.00118941 -0.0124888 -2.92595e-06)
(-0.00259195 -0.0152589 -1.57257e-05)
(-0.00566608 -0.0235241 -2.68361e-05)
(-0.0101339 -0.0395331 -0.000107214)
(-0.0250003 -0.0612621 -0.000709649)
(-0.0412743 -0.0745952 -0.000152059)
(-0.0499907 -0.0727235 0.00199654)
(-0.0457726 -0.0333729 -0.000110368)
(-0.00227185 0.0271947 0.00207694)
(0.0496556 0.0202411 0.000477012)
(0.0877269 0.0244785 -0.0023393)
(0.0802841 0.0263885 -0.00242851)
(0.0508632 -0.000440436 -0.00152649)
(-0.00370083 -0.0365816 0.000313433)
(0.00212503 0.0672118 0.000101895)
(-0.00840967 0.105244 -0.000152666)
(-0.00771669 0.0149705 0.000262944)
(-0.00854367 -0.00764828 0.0001193)
(-0.0046288 -0.0169495 1.72708e-05)
(-0.000906395 -0.0159851 1.63415e-06)
(-0.000446682 -0.0120523 -2.3067e-06)
(-0.00208732 -0.013154 -1.74527e-05)
(-0.00475865 -0.0205327 -7.91876e-05)
(-0.00985518 -0.033247 -0.000181995)
(-0.0154991 -0.0477596 -0.000499487)
(-0.0291744 -0.0560608 -0.000895429)
(-0.0412759 -0.0561071 0.000198176)
(-0.0447072 -0.0485599 0.00281426)
(-0.015877 -0.040138 0.00177562)
(0.0213241 -0.0432515 0.0040752)
(0.0845559 -0.00689166 0.00364231)
(0.102048 0.0298053 9.68102e-05)
(0.09247 0.0321731 -0.00102429)
(0.050646 0.00477971 0.000315818)
(-0.00472755 0.0611018 -0.000271092)
(-0.00581923 0.115576 -0.000114758)
(-0.00738325 0.0156023 0.000129502)
(-0.00917876 -0.0097291 9.03127e-05)
(-0.00367596 -0.0232604 6.76268e-06)
(-0.000175388 -0.0188072 5.07183e-07)
(-0.000304131 -0.0118484 1.04085e-06)
(-0.00121279 -0.0113366 4.60523e-06)
(-0.00322057 -0.0170087 1.95866e-05)
(-0.00614014 -0.0291082 1.99791e-05)
(-0.00961108 -0.0426139 -0.000147659)
(-0.0128842 -0.0475926 -0.000598333)
(-0.016129 -0.0479399 -0.000278788)
(-0.016567 -0.0490794 -0.000838906)
(-0.0109976 -0.0635424 -0.00151123)
(0.00661154 -0.0852536 -0.00193682)
(0.0332351 -0.0653084 0.00214776)
(0.0872384 0.0192691 0.00195696)
(0.0795528 0.0485741 0.00152599)
(0.0487612 0.0410618 0.000467398)
(-0.0064966 0.0798245 -0.000633918)
(-0.00532291 0.120893 0.000123696)
(-0.00741364 0.0149506 8.60917e-06)
(-0.00847196 -0.0125535 1.77083e-05)
(-0.00257832 -0.0295891 -8.2911e-07)
(-0.00101185 -0.0204078 4.29853e-07)
(-0.00051189 -0.0120499 -5.18657e-07)
(-0.000856465 -0.0107866 -2.73834e-06)
(-0.0013747 -0.0159916 -1.58011e-05)
(-0.00240011 -0.0271717 -5.03123e-05)
(-0.00371084 -0.039846 5.51782e-05)
(-0.00529816 -0.0442718 0.000246135)
(-0.0059601 -0.0456024 -0.000169344)
(-0.00557695 -0.0466469 -0.000310152)
(-0.00147227 -0.0690431 -0.000103328)
(0.00711468 -0.0987627 0.000244525)
(0.0118063 -0.0916762 -0.000669907)
(0.0612153 -0.000505979 0.000705522)
(0.0681308 0.0628136 0.00123839)
(0.0536087 0.0630436 0.00107653)
(0.00421436 0.0943407 -0.00075325)
(-0.00270495 0.134301 0.000109298)
(-0.00551486 0.0161111 -9.11632e-06)
(-0.00329766 -0.0153453 1.8113e-06)
(-0.000967791 -0.0319257 1.27229e-06)
(-0.000638237 -0.0213615 8.10568e-07)
(-0.000299496 -0.0126793 -6.68091e-09)
(-0.000193172 -0.0110584 -2.08186e-07)
(-0.000212396 -0.0160341 1.55141e-06)
(-0.000409192 -0.0268965 -7.50134e-06)
(-0.000603216 -0.0396675 -4.1811e-05)
(-0.000803211 -0.0444543 -8.35143e-05)
(-0.000918769 -0.0467999 -9.05459e-05)
(-0.000876617 -0.0494708 -1.34978e-05)
(-0.000178634 -0.0734643 6.32868e-05)
(0.00217816 -0.105724 0.000241225)
(0.00338332 -0.105506 0.000410283)
(0.0343956 -0.0232551 0.00067453)
(0.0439038 0.0735555 -9.34656e-05)
(0.0382076 0.0987263 0.00100775)
(0.00368666 0.132815 -0.000764901)
(-0.0482248 0.0179319 0.00461579)
(-0.054642 -0.015216 -0.000377771)
(-0.0677381 -0.0100449 -0.0034386)
(-0.0689817 0.00912527 -0.00303285)
(-0.0641684 0.0254716 -0.000636279)
(-0.0613764 0.0284046 9.74315e-05)
(-0.0576612 0.0186203 0.000615552)
(-0.0454111 -0.00160323 0.00113426)
(-0.0238224 -0.0114297 0.00227783)
(0.010619 -0.0294923 0.00468474)
(0.042868 -0.0377855 0.00368166)
(0.0794863 -0.0377697 0.0024287)
(0.0942218 -0.0159824 0.000120162)
(0.0389474 0.0203804 0.00447179)
(-0.0264191 0.0235821 0.00273016)
(-0.0353544 0.00353617 3.20968e-05)
(-0.0234185 -0.00220684 -0.000138256)
(-0.0017673 -0.015676 5.8797e-05)
(0.0367997 -0.0216246 -3.2282e-05)
(0.0615528 0.0282924 0.000542297)
(-0.0385191 0.0585945 0.00266036)
(-0.041463 0.00622933 -0.00339621)
(-0.0505804 -0.0116 0.000243637)
(-0.0442773 -0.0186173 0.00107523)
(-0.0376887 -0.0149694 -7.65672e-05)
(-0.0308876 -0.010699 -0.000459798)
(-0.022491 -0.0140029 -0.000623218)
(-0.0134412 -0.0203756 -0.000838869)
(0.00136752 -0.0361012 -0.00039635)
(0.0145886 -0.0599682 0.000162613)
(0.030461 -0.0590113 0.00146473)
(0.0408707 -0.0405896 -0.000278691)
(0.069014 0.0180603 -0.00490023)
(0.029412 0.0629724 -0.0010776)
(0.0115517 0.0438034 0.00146647)
(7.13307e-05 -0.00526205 3.12887e-06)
(-0.00409054 -0.0165449 4.03236e-05)
(0.00532821 -0.0310822 0.000497651)
(0.00784339 -0.025797 -2.84587e-05)
(0.0445567 0.0471152 0.000151357)
(-0.0248902 0.0928992 -0.000785238)
(-0.0256598 0.0103829 0.000292043)
(-0.0242905 -0.0081522 0.00140853)
(-0.0186089 -0.0134128 0.000971555)
(-0.0192447 -0.0113816 -9.66339e-05)
(-0.0183824 -0.0106733 -0.000141727)
(-0.0143751 -0.0168168 -0.000110992)
(-0.0107256 -0.0291224 0.000166345)
(-0.00252969 -0.051774 0.000882209)
(-0.000468166 -0.075824 0.000117287)
(0.0139418 -0.0807507 0.000695181)
(0.0267968 -0.0542725 -0.000491498)
(0.0501294 0.0130211 -0.00394078)
(0.0210065 0.094908 -0.00247819)
(0.0273534 0.0747152 0.000926752)
(0.00945275 0.012912 0.000270761)
(-0.00349911 -0.0180699 4.95274e-05)
(0.00224213 -0.0373298 0.000496301)
(-0.000652994 -0.034794 0.000467861)
(0.0324361 0.0658047 0.000164961)
(-0.0154548 0.114466 -0.000460752)
(-0.0155492 0.0138737 0.0022907)
(-0.00918041 -0.00625099 0.0022218)
(-0.0069804 -0.0112815 0.000295774)
(-0.00925622 -0.0119267 1.03355e-05)
(-0.00857511 -0.0130195 1.75685e-05)
(-0.00868852 -0.018774 7.04327e-05)
(-0.00857525 -0.0309551 0.000193571)
(-0.00779451 -0.0555521 0.000717279)
(-0.0137449 -0.0767691 -0.000174325)
(-0.0156839 -0.0810617 0.000393611)
(-0.0142073 -0.056963 -0.00120849)
(0.0285665 0.0359174 -0.00312149)
(0.0045431 0.099465 -0.000978961)
(0.0268768 0.0769658 -5.05646e-06)
(0.0241977 0.0227825 0.00027607)
(0.00887921 -0.00792686 0.000151384)
(0.00298707 -0.0357731 0.00014071)
(-0.0100073 -0.0415168 0.000569302)
(0.0252282 0.0711379 0.000155822)
(-0.00753066 0.127954 -2.64515e-05)
(-0.0114748 0.0155366 0.00159579)
(-0.00661827 -0.00367248 0.0011334)
(-0.00452328 -0.00977341 0.00015925)
(-0.00425274 -0.0111387 4.63752e-05)
(-0.00337917 -0.0117173 7.59681e-06)
(-0.00483742 -0.0167701 2.07061e-06)
(-0.00671155 -0.028629 9.34742e-05)
(-0.0139882 -0.0498135 -0.000417268)
(-0.0259215 -0.0735994 -0.00132471)
(-0.0342844 -0.0819965 -0.000774414)
(-0.0407479 -0.0659894 0.000623045)
(-0.00894274 0.0285517 0.00224924)
(0.00295056 0.087271 -0.00028955)
(0.0344895 0.0681482 0.000190479)
(0.0489338 0.0302915 -8.96676e-05)
(0.0250544 0.000453846 -0.000524111)
(0.0108008 -0.0261757 -0.00102302)
(-0.0137492 -0.0438095 0.000569459)
(0.0160332 0.0731487 0.000118451)
(-0.00277828 0.145589 -0.000151542)
(-0.00906021 0.0151776 0.000629213)
(-0.00722093 -0.0052686 0.00026878)
(-0.0044332 -0.0123363 0.000209227)
(-0.00190644 -0.0131553 8.19389e-05)
(-0.00115422 -0.012057 3.98413e-05)
(-0.00250364 -0.0146748 1.1803e-05)
(-0.00554397 -0.022463 -0.000125974)
(-0.0104689 -0.0374877 -0.000352124)
(-0.0275409 -0.0577374 -0.00145281)
(-0.0450707 -0.070355 -0.0015156)
(-0.0506472 -0.0719567 0.00115202)
(-0.045683 -0.0363467 0.00194334)
(-0.00321337 0.0204082 0.0038811)
(0.0488128 0.0137487 0.00300424)
(0.0885062 0.0260943 0.000396038)
(0.0781414 0.0306627 0.00033008)
(0.043661 -0.000698075 0.000154187)
(-0.00671691 -0.0347836 0.000512199)
(0.00219432 0.0667742 0.000776659)
(-7.94198e-05 0.154033 -0.000259099)
(-0.00778469 0.0148269 0.000318924)
(-0.00823733 -0.00707367 0.000303203)
(-0.00442721 -0.0156245 0.000281834)
(-0.000897108 -0.0150663 0.000103832)
(-0.000430907 -0.0115353 4.93425e-05)
(-0.00204352 -0.0126244 1.82996e-05)
(-0.00471638 -0.019481 -4.09994e-05)
(-0.0102259 -0.0310126 -0.000357174)
(-0.0177197 -0.0436622 -0.000955272)
(-0.0342395 -0.0482234 -0.0025936)
(-0.0444316 -0.0473974 -0.00315492)
(-0.0439438 -0.0488516 -0.000171377)
(-0.015926 -0.0394737 -0.000980681)
(0.0193866 -0.0469666 0.00073635)
(0.0799876 -0.0194157 0.00243588)
(0.101045 0.0251502 0.00074364)
(0.0902507 0.0304074 -0.000496687)
(0.0500814 0.00447335 0.00128043)
(-0.00602821 0.0630812 0.00241049)
(0.00106464 0.165744 -0.00040868)
(-0.00731063 0.0161876 0.000185466)
(-0.00878894 -0.00846235 0.000265322)
(-0.00364005 -0.0205794 0.000246471)
(-0.000195302 -0.0172281 0.000139195)
(-0.000301287 -0.0111957 7.87964e-05)
(-0.00117619 -0.0107242 6.05629e-05)
(-0.00317112 -0.0157933 7.78785e-05)
(-0.0062468 -0.0265895 0.000143599)
(-0.00982059 -0.0392945 -4.98269e-05)
(-0.0141109 -0.0443607 -0.000504854)
(-0.0180572 -0.0432909 -0.000209613)
(-0.0170978 -0.0441064 -0.00107124)
(-0.0113479 -0.0591649 -0.000768842)
(0.00600417 -0.0732208 -0.00298844)
(0.0364341 -0.0560425 -8.65132e-05)
(0.0881993 0.0201812 -0.00096807)
(0.0789997 0.0443581 8.51865e-05)
(0.0476302 0.0388412 0.00153903)
(-0.0078997 0.0817301 0.00175537)
(0.000536909 0.169943 -0.000402801)
(-0.00712172 0.0159173 5.10324e-05)
(-0.00821646 -0.0107515 0.000155652)
(-0.00265386 -0.0265092 0.000150229)
(-0.000955748 -0.0185433 0.000132482)
(-0.000481218 -0.0111345 8.15601e-05)
(-0.000826994 -0.0100241 6.45382e-05)
(-0.00141947 -0.0146107 5.65525e-05)
(-0.00261063 -0.0244268 7.56779e-05)
(-0.00447004 -0.0350711 0.000238419)
(-0.00649284 -0.0384185 0.000492916)
(-0.00696824 -0.0386884 0.000227901)
(-0.00581864 -0.0422535 -0.000636796)
(-0.00165985 -0.0637059 -0.00051598)
(0.00738551 -0.0922236 0.000887454)
(0.0188045 -0.0774398 -0.00352245)
(0.0696506 0.0256629 -0.00222452)
(0.0689192 0.0651798 -0.00122207)
(0.0536006 0.061928 0.000552825)
(0.00244711 0.0956963 0.00146204)
(0.00272522 0.1801 -0.000269368)
(-0.00527109 0.0172614 -4.56564e-05)
(-0.00342334 -0.0136303 9.89502e-05)
(-0.00106293 -0.0290396 3.36388e-05)
(-0.00065996 -0.0194387 5.9429e-05)
(-0.00029741 -0.0116132 4.77357e-05)
(-0.000204447 -0.0101054 4.09472e-05)
(-0.00023284 -0.0145265 4.46688e-05)
(-0.000454179 -0.0241345 3.68152e-05)
(-0.000675199 -0.0350818 1.05096e-05)
(-0.00092349 -0.0393379 8.07378e-06)
(-0.00105865 -0.0399331 -8.46666e-05)
(-0.000835563 -0.0431576 -0.000155271)
(-8.21709e-05 -0.0675858 -0.000213085)
(0.00245627 -0.100733 -8.13668e-05)
(0.00372242 -0.0975682 -0.000540117)
(0.0452905 0.000519336 0.000565562)
(0.0444446 0.0829961 -0.00264468)
(0.0382006 0.10009 0.000253228)
(0.0024538 0.133203 0.000970005)
(-0.044172 0.027212 0.00328262)
(-0.049987 0.00532212 0.00133225)
(-0.0605437 0.00589545 -0.00045022)
(-0.0617147 0.0154706 -0.00133114)
(-0.0576327 0.0316915 -0.000700079)
(-0.0550508 0.037209 -0.000566029)
(-0.0535109 0.0359093 -0.000680955)
(-0.0460755 0.0285867 0.000406004)
(-0.027126 0.0245402 0.0023334)
(0.00623553 0.0131509 0.0059744)
(0.0487262 -0.00446848 0.00517332)
(0.083809 0.0226643 0.0039078)
(0.0632231 0.0439568 0.0036586)
(-0.000333497 0.0506367 0.00544098)