/*--------------------------------*- C++ -*----------------------------------*\
| =========                 |                                                 |
| \\      /  F ield         | OpenFOAM: The Open Source CFD Toolbox           |
|  \\    /   O peration     | Version:  2.3.0                                 |
|   \\  /    A nd           | Web:      www.OpenFOAM.org                      |
|    \\/     M anipulation  |                                                 |
\*---------------------------------------------------------------------------*/
FoamFile
{
    version     2.0;
    format      ascii;
    class       volVectorField;
    location    "4.50185";
    object      Ur;
}
// * * * * * * * * * * * * * * * * * * * * * * * * * * * * * * * * * * * * * //

dimensions      [0 1 -1 0 0 0 0];

internalField   nonuniform List<vector> 
1000
(
(2.79438e-05 0.00351947 1.23717e-06)
(-1.17259e-07 0.00239 -1.60985e-07)
(-3.13709e-05 0.00226944 -4.50006e-06)
(-4.22623e-05 0.00198628 9.65749e-07)
(-3.39488e-05 0.00222271 -5.47989e-06)
(-1.97882e-05 0.00246795 -6.61657e-06)
(-5.12882e-05 0.00279924 -5.92622e-06)
(-8.74715e-05 0.00313913 -5.01215e-06)
(-8.7043e-05 0.00353006 -2.96724e-06)
(-1.49366e-05 0.00388275 -1.92586e-05)
(0.000128284 0.00382936 -4.5395e-06)
(0.000167075 0.00368558 6.49771e-06)
(-3.17215e-05 0.00246944 4.55559e-05)
(-0.000205466 0.00222734 -2.32669e-05)
(8.18083e-05 0.00214726 -3.24292e-05)
(-9.58616e-06 0.00290503 -9.01743e-07)
(-3.9724e-05 0.00337823 1.12666e-06)
(-5.34739e-06 0.00381882 2.22109e-06)
(0.000108661 0.00373867 6.38591e-06)
(5.78084e-05 0.00233631 -1.13835e-05)
(6.38554e-06 0.0032472 -2.09863e-05)
(6.47843e-05 0.0023231 8.50288e-06)
(3.89604e-05 0.00233994 7.98848e-06)
(-3.61625e-05 0.00233346 1.17279e-05)
(-5.1471e-05 0.00229682 2.62613e-06)
(-3.66781e-05 0.00229971 3.60662e-06)
(-3.47921e-05 0.00232022 7.41309e-07)
(-3.89768e-05 0.0023408 2.25478e-06)
(-2.92217e-05 0.00236852 4.93757e-06)
(3.47093e-05 0.00242098 -7.09952e-06)
(3.04887e-05 0.00242555 -9.60657e-06)
(8.17521e-05 0.00239836 7.04253e-06)
(-0.000182308 0.00255173 1.41626e-05)
(-6.5673e-05 0.0024094 6.11687e-06)
(0.000111472 0.00208285 -7.58783e-06)
(3.40098e-06 0.00220657 9.75504e-08)
(1.05603e-05 0.00225987 4.94466e-07)
(-1.38382e-06 0.00225 -2.93732e-06)
(3.02074e-05 0.00226153 8.77891e-06)
(-3.48077e-05 0.00222961 -4.24502e-06)
(5.13832e-05 0.00265495 -5.82703e-06)
(3.17055e-05 0.00211376 4.71768e-06)
(3.9091e-05 0.00234856 -3.72559e-09)
(-2.49973e-05 0.00235707 2.41538e-06)
(-1.69379e-05 0.00233385 1.99959e-06)
(-2.35742e-05 0.00183069 3.32934e-06)
(-2.54827e-05 0.00187109 7.40705e-06)
(-2.89787e-05 0.00234329 1.91649e-06)
(-3.27821e-06 0.00234171 1.16041e-06)
(7.37888e-05 0.00236876 3.49418e-06)
(0.000111031 0.00237243 -3.8752e-06)
(0.000129687 0.00238459 7.31887e-06)
(-0.000173194 0.00262626 1.38867e-05)
(-1.47854e-05 0.00240786 -1.99158e-05)
(6.60326e-05 0.0020728 -7.54343e-06)
(7.64211e-06 0.00213541 9.91617e-07)
(-1.81077e-06 0.00224443 2.12603e-07)
(1.08452e-06 0.00221821 -5.74559e-07)
(3.05184e-05 0.00223579 -8.96115e-06)
(-2.22174e-05 0.00225739 -5.81798e-06)
(0.000102222 0.00241464 -1.29115e-06)
(-2.89612e-06 0.00208986 -8.02516e-06)
(5.49298e-06 0.00232069 2.89946e-06)
(-3.07453e-06 0.0023568 2.28247e-06)
(-7.11966e-06 0.00208976 8.04862e-06)
(-8.28659e-06 0.000743008 4.05433e-07)
(-7.94485e-06 0.000818887 2.06067e-07)
(-1.11695e-05 0.00233454 -1.00835e-06)
(1.51189e-05 0.00232461 -4.24815e-07)
(9.20602e-05 0.00232906 1.08704e-05)
(0.000168224 0.002308 2.5323e-07)
(0.000162425 0.00231488 3.43126e-06)
(-0.000123132 0.00241083 -4.59615e-08)
(5.59962e-05 0.00224613 -3.62343e-05)
(4.91532e-05 0.00195852 -8.14142e-06)
(3.14132e-05 0.00208554 2.23351e-06)
(-1.84318e-05 0.00219542 3.91524e-07)
(-1.28021e-05 0.00219208 1.4144e-06)
(1.75223e-05 0.00218849 -7.04479e-06)
(-1.82151e-05 0.00220773 -3.48339e-06)
(9.52404e-05 0.00227881 -4.02718e-06)
(-1.352e-05 0.00215451 -1.38295e-05)
(-2.1913e-05 0.00234601 -2.1448e-06)
(-7.60888e-06 0.00234899 3.06127e-07)
(-2.54093e-06 0.00184058 4.92982e-08)
(4.34627e-07 0.000108978 1.55227e-07)
(1.26857e-06 0.000170623 1.40596e-07)
(4.54737e-06 0.00185639 -1.69129e-06)
(1.80178e-05 0.00230859 -1.91873e-07)
(5.91063e-05 0.00229073 8.03059e-06)
(0.000133373 0.0022638 1.36979e-05)
(9.57186e-05 0.00222937 4.99883e-06)
(-9.80013e-05 0.0022105 -4.96547e-06)
(0.000138689 0.00203669 -2.82111e-05)
(0.000198328 0.0018909 -7.34186e-06)
(8.05382e-05 0.00202343 3.67282e-06)
(-3.57716e-05 0.00213101 4.42625e-06)
(-6.27649e-05 0.00213936 4.935e-06)
(-3.04346e-05 0.00211215 -3.30696e-06)
(-2.81958e-05 0.00216276 -2.52044e-06)
(8.26097e-05 0.00224453 -5.70593e-06)
(-1.12972e-06 0.00227257 -7.04712e-06)
(-2.68006e-05 0.0023516 -3.27564e-06)
(-6.37999e-06 0.00233449 -1.48415e-06)
(-7.73108e-07 0.00208608 1.80358e-06)
(5.90852e-06 3.53686e-05 1.69569e-08)
(9.2098e-06 6.67865e-05 5.04466e-08)
(1.30573e-05 0.000802562 -1.73521e-07)
(2.10297e-05 0.00231195 -6.69891e-07)
(3.16732e-05 0.00226929 3.54134e-06)
(4.1047e-05 0.00221738 7.50383e-06)
(3.37606e-05 0.00218268 1.11623e-05)
(-2.12432e-05 0.00221866 -1.83405e-05)
(0.000306056 0.00205469 -1.45301e-05)
(0.000439778 0.00214157 -6.09505e-06)
(0.000176895 0.00216849 3.62761e-06)
(-3.71835e-05 0.00212124 8.2011e-06)
(-0.000152044 0.00200197 4.54122e-06)
(-0.000135173 0.00199283 4.00175e-06)
(-2.94971e-05 0.00216753 -7.39063e-06)
(5.87904e-05 0.00222397 -3.81389e-06)
(-7.54736e-06 0.00231943 -1.09818e-06)
(-1.76042e-05 0.00234198 -2.74593e-06)
(-5.19022e-06 0.0023297 -1.36426e-06)
(-4.82304e-07 0.00213477 3.68642e-06)
(7.70035e-06 1.98527e-05 -9.13051e-08)
(1.19123e-05 3.17216e-05 1.29197e-08)
(1.76181e-05 0.000123984 4.66477e-08)
(2.39676e-05 0.00174209 -2.52773e-06)
(2.33391e-05 0.00228537 -3.26426e-06)
(1.9924e-05 0.00222607 -4.74728e-06)
(1.88167e-05 0.00217827 -3.72853e-07)
(2.13605e-05 0.0021911 3.74144e-06)
(0.000144068 0.0019942 -1.07135e-05)
(0.000577981 0.00253205 5.79121e-06)
(0.000450902 0.00256263 9.48138e-06)
(0.000138686 0.00236268 -2.22286e-05)
(-9.92442e-05 0.0021503 2.8578e-06)
(-0.000281814 0.00193783 1.74533e-06)
(-7.03611e-05 0.00226324 -6.96393e-06)
(2.70333e-05 0.00219957 -9.33076e-07)
(-2.0716e-05 0.0023467 -1.67413e-06)
(-1.22828e-05 0.00234429 -2.71532e-06)
(-3.72182e-06 0.0023283 -1.33464e-06)
(1.21734e-06 0.0014074 3.56557e-06)
(6.67995e-06 1.60052e-05 -2.67767e-07)
(9.99222e-06 1.34566e-05 -1.24055e-07)
(1.48189e-05 1.30801e-05 -2.41e-07)
(1.72395e-05 0.000582519 -2.52015e-07)
(1.21235e-05 0.00171771 6.07887e-06)
(-2.49974e-06 0.00169499 1.45314e-06)
(-3.44189e-07 0.00179735 6.69993e-07)
(-2.33029e-06 0.00194471 -9.29587e-08)
(1.2606e-05 0.00172263 -1.45471e-05)
(5.50202e-06 0.00229182 -1.31795e-05)
(0.000775872 0.00302638 4.82075e-06)
(0.000220395 0.00292927 1.07202e-05)
(-0.000102066 0.00237487 4.15839e-06)
(-0.000183205 0.00215062 5.42143e-07)
(-1.27029e-05 0.00238162 5.03069e-06)
(3.4121e-05 0.00216414 1.18353e-06)
(-7.41388e-06 0.00235562 1.04291e-06)
(-1.08679e-05 0.00235388 -1.9703e-06)
(-1.79403e-06 0.00233226 -5.91792e-07)
(1.33071e-06 0.000500901 4.11966e-07)
(4.32967e-06 1.52922e-05 -1.87136e-07)
(7.6418e-06 1.10329e-05 -1.74244e-07)
(1.14798e-05 4.95275e-06 -8.46029e-08)
(1.77749e-05 -6.71232e-06 4.12938e-08)
(2.57102e-05 0.000551597 2.20963e-07)
(3.02675e-05 0.000533975 4.11524e-06)
(2.29708e-05 0.000763604 3.15869e-05)
(1.32016e-05 0.00107399 6.72096e-05)
(5.62579e-06 0.000600375 8.24755e-05)
(-5.97791e-05 0.00163721 0.000160919)
(6.53539e-05 0.00230669 -8.65483e-06)
(0.000316393 0.00298432 -2.90179e-06)
(-0.000121285 0.00250059 -1.47499e-06)
(-0.000150331 0.00229508 -3.73413e-06)
(-6.43555e-05 0.00243082 -3.03846e-06)
(3.6988e-05 0.00211398 5.67761e-07)
(-1.7548e-06 0.00236163 3.86198e-07)
(-1.06448e-05 0.00119667 -2.19645e-06)
(-1.91029e-06 0.00118652 1.82175e-05)
(-3.27742e-07 6.50806e-05 2.4482e-08)
(1.27082e-06 1.15733e-05 -5.60309e-08)
(2.68043e-06 7.97358e-06 -1.03134e-07)
(4.6184e-06 -6.07088e-07 -5.16867e-08)
(7.64642e-06 -1.53548e-05 1.03636e-08)
(1.15171e-05 -3.65406e-05 1.35017e-07)
(1.37744e-05 -5.66951e-05 4.98697e-07)
(1.4554e-05 3.78077e-05 1.26584e-06)
(1.4412e-05 0.000177182 1.21221e-06)
(1.42519e-05 -8.45664e-05 3.52022e-06)
(-7.77717e-06 0.000455263 -2.89555e-06)
(-8.44885e-06 0.00118439 4.00372e-05)
(0.000321332 0.00302497 -3.67608e-05)
(-5.99073e-05 0.00278406 5.00311e-06)
(-0.0001148 0.00235904 -4.66885e-06)
(-3.89178e-05 0.00245601 -7.03058e-07)
(1.58786e-05 0.00210452 2.05545e-05)
(2.39231e-05 0.00209317 -7.52297e-06)
(2.48998e-05 0.00214181 -2.47874e-05)
(-3.80097e-05 0.00236122 -1.08685e-05)
(-3.52946e-05 0.00269143 -1.02931e-05)
(-2.62258e-05 0.00298609 -8.44242e-06)
(-6.10018e-05 0.00349813 -9.94478e-06)
(-9.4716e-05 0.0041098 -6.43959e-06)
(-0.000102975 0.00476968 -4.17372e-06)
(-1.59058e-05 0.00566681 -3.65264e-05)
(4.67139e-05 0.00535917 -1.50429e-05)
(0.000171107 0.0051043 3.43895e-06)
(7.63278e-05 0.00424673 3.71038e-05)
(-0.000196894 0.00285573 -3.19657e-05)
(5.58711e-05 0.00207196 -5.98802e-05)
(-9.19415e-06 0.00289873 9.53977e-08)
(-4.57197e-05 0.00331718 1.62942e-06)
(2.23425e-07 0.00369611 -4.37543e-08)
(0.000129804 0.00363213 2.7744e-06)
(5.5849e-05 0.00236828 -8.06269e-06)
(1.72668e-06 0.00213973 -3.82771e-05)
(6.35951e-05 0.0020275 -3.44383e-06)
(2.13568e-05 0.0021797 -3.23464e-06)
(-4.76006e-05 0.00236738 1.5447e-05)
(-6.9398e-05 0.00230531 1.26018e-05)
(-5.83264e-05 0.00230192 7.93146e-06)
(-6.0091e-05 0.00232116 7.20509e-06)
(-5.97424e-05 0.00233376 1.11646e-05)
(-5.34152e-05 0.00236345 1.20503e-05)
(2.36434e-05 0.00237126 -1.29986e-05)
(1.87845e-05 0.00242185 -1.7976e-05)
(3.01431e-05 0.00239314 6.67378e-06)
(-5.84384e-05 0.00258183 4.26113e-05)
(-0.000100823 0.00247354 2.65095e-05)
(8.00866e-05 0.00206248 -3.3905e-05)
(-2.21593e-05 0.0021769 4.60324e-07)
(1.34755e-05 0.00225865 1.0303e-06)
(-9.18959e-06 0.0022444 -9.02116e-07)
(5.67604e-05 0.00225998 2.79437e-06)
(-2.71068e-05 0.00224391 -4.04975e-06)
(4.05702e-06 0.0022047 -1.92938e-05)
(2.83664e-05 0.00211219 8.2966e-07)
(5.08214e-05 0.0023489 8.43111e-09)
(-3.15395e-05 0.00238665 6.01721e-06)
(-2.82862e-05 0.00185632 5.25572e-06)
(-4.38411e-05 0.00178902 4.42753e-06)
(-4.96907e-05 0.00179726 4.63327e-06)
(-5.14263e-05 0.00234895 1.31596e-06)
(-2.04155e-05 0.00234312 -1.40452e-06)
(6.69674e-05 0.00234557 8.80245e-06)
(0.000129485 0.00233613 -3.29356e-06)
(8.45354e-05 0.00238861 7.15661e-06)
(-5.54623e-05 0.00261519 1.24172e-05)
(-0.000101296 0.00252576 -5.43824e-06)
(3.29103e-05 0.00205624 -1.45204e-05)
(-8.38729e-06 0.00206904 1.49986e-06)
(8.71363e-06 0.00224161 1.05524e-07)
(-4.59431e-06 0.00221326 8.08914e-07)
(5.46311e-05 0.00223678 -7.85604e-06)
(-8.54876e-06 0.00228217 -4.26761e-06)
(5.02044e-05 0.00223707 -1.44399e-05)
(7.02702e-06 0.00206404 -6.21541e-06)
(2.2202e-06 0.00233055 1.10808e-06)
(-8.29286e-06 0.00239022 1.78435e-06)
(-1.39994e-05 0.000890364 2.84595e-08)
(-2.19154e-05 0.000643768 -1.01423e-07)
(-2.4661e-05 0.000650827 2.90085e-07)
(-2.93019e-05 0.00183691 -3.08678e-07)
(2.53776e-06 0.0023251 -1.10099e-06)
(7.93361e-05 0.0022988 8.22158e-06)
(0.000144815 0.00229526 9.60692e-07)
(0.000117722 0.00230334 6.73809e-06)
(-9.73231e-05 0.00248529 4.89717e-06)
(3.02011e-05 0.00227669 -2.27182e-05)
(6.32414e-05 0.00195108 -8.82561e-08)
(3.14956e-05 0.00203505 8.53172e-08)
(-1.99781e-05 0.00218839 -2.48443e-07)
(-1.64713e-05 0.00218459 2.37499e-06)
(2.94575e-05 0.00218745 -5.88786e-06)
(-2.74108e-06 0.00223385 -2.00685e-06)
(8.92619e-05 0.00225008 -1.51173e-05)
(-1.57551e-05 0.00210965 -6.26978e-06)
(-4.46405e-05 0.00237209 3.08695e-08)
(-1.89995e-05 0.00237876 -6.26033e-07)
(-1.10207e-05 0.000449654 -2.16003e-07)
(-8.93759e-06 6.26478e-05 1.39909e-07)
(-9.82568e-06 6.65003e-05 2.76087e-07)
(-9.26003e-06 0.000750482 5.85437e-07)
(1.36201e-05 0.00231264 -2.51557e-07)
(3.51121e-05 0.00227002 5.63039e-06)
(0.000122472 0.00223998 9.3697e-06)
(8.52638e-05 0.00216435 -1.46671e-06)
(-6.25432e-05 0.00220822 -1.60314e-05)
(0.00022205 0.00205944 -2.9687e-05)
(0.000223058 0.00188222 -2.17892e-05)
(8.77784e-05 0.00199065 4.42342e-06)
(-5.46581e-05 0.00212037 7.30622e-06)
(-8.81171e-05 0.00212938 9.37288e-06)
(-2.33844e-05 0.00209814 -2.40258e-06)
(-9.04807e-06 0.00220798 -2.63701e-06)
(7.57802e-05 0.00227132 -1.4714e-05)
(-9.82044e-06 0.00227497 -1.07219e-05)
(-4.3002e-05 0.00237748 -2.83244e-06)
(-1.39262e-05 0.00235478 -1.81713e-06)
(-7.31779e-06 0.000417578 -5.1787e-07)
(1.06501e-06 4.50456e-05 -1.9828e-08)
(4.31061e-06 4.28506e-05 1.21811e-07)
(8.50555e-06 0.000102073 7.5733e-07)
(1.77004e-05 0.0017547 -3.11916e-07)
(3.0836e-05 0.00225832 2.34095e-06)
(5.64314e-05 0.00218285 9.03817e-06)
(2.08336e-05 0.00209611 1.24722e-05)
(2.93976e-05 0.00215515 -2.49056e-05)
(0.000316703 0.00190231 3.07242e-07)
(0.00051883 0.00211962 -2.17209e-05)
(0.000248883 0.00225259 1.54542e-06)
(-1.7867e-05 0.00221719 6.94357e-06)
(-0.000223593 0.00198971 6.9292e-06)
(-0.00015975 0.00194538 3.87947e-06)
(4.21442e-06 0.00221983 -1.23353e-05)
(5.91782e-05 0.00229709 -4.78955e-06)
(-1.80138e-05 0.00233916 -2.18938e-06)
(-2.93755e-05 0.00236597 -3.29502e-06)
(-1.1137e-05 0.00234793 -1.76512e-06)
(-3.97423e-06 0.000237369 -6.03711e-07)
(5.26129e-06 3.34941e-05 -1.79834e-07)
(1.01899e-05 2.81675e-05 3.09883e-08)
(1.7152e-05 2.50268e-05 2.98654e-08)
(2.54728e-05 0.000608573 -9.70296e-07)
(2.73984e-05 0.00171544 -1.85848e-06)
(3.38162e-05 0.00220129 -2.61667e-06)
(2.98048e-05 0.00212828 -4.28224e-06)
(2.63231e-05 0.00213591 1.328e-05)
(0.00018225 0.00193897 2.13019e-06)
(0.00059779 0.00243915 3.84867e-05)
(0.000648765 0.00269085 1.39178e-05)
(0.000173875 0.00244988 -5.40642e-05)
(-9.0506e-05 0.00215037 -3.53405e-06)
(-0.000278805 0.00193338 9.18695e-06)
(-7.63201e-05 0.00227866 -2.42675e-05)
(3.16062e-05 0.00228756 1.04244e-05)
(-2.28976e-05 0.00237744 2.45976e-06)
(-2.06405e-05 0.00236597 -2.76777e-06)
(-6.6535e-06 0.00189831 -1.03721e-06)
(1.92972e-06 7.78368e-05 -3.88355e-07)
(5.74871e-06 2.79488e-05 -4.20101e-07)
(8.52399e-06 2.29754e-05 -2.21105e-07)
(1.31431e-05 1.38868e-05 -3.29722e-07)
(1.66443e-05 1.29091e-05 -8.69246e-08)
(1.86698e-05 0.000575077 -4.73797e-07)
(-4.93235e-06 0.0016683 8.57973e-07)
(-1.70511e-05 0.00161309 5.04751e-06)
(-2.14369e-06 0.00156227 5.02605e-06)
(3.72016e-05 0.00148607 -1.47181e-05)
(3.40488e-05 0.00157923 -2.47894e-05)
(0.00091678 0.00317984 2.84988e-05)
(0.000345053 0.00304285 2.57195e-05)
(-8.82024e-05 0.00241852 1.95614e-05)
(-0.000183133 0.00211646 -1.43957e-05)
(-2.89973e-05 0.002402 -1.339e-05)
(2.44103e-05 0.00222897 1.34909e-05)
(-1.20543e-05 0.00238443 1.53781e-06)
(-1.64918e-05 0.00237045 -1.92262e-06)
(-5.13423e-06 0.000864745 6.01448e-07)
(1.48434e-06 2.6491e-05 4.28369e-08)
(3.95503e-06 2.3357e-05 -1.95345e-07)
(6.88985e-06 1.97982e-05 -2.34455e-07)
(1.04564e-05 1.0951e-05 -8.4617e-10)
(1.70367e-05 -4.64719e-06 1.5718e-07)
(2.50972e-05 -3.06183e-05 4.83838e-07)
(3.04376e-05 0.000490585 1.63806e-06)
(2.92109e-05 0.000428668 1.10637e-06)
(2.9153e-05 0.000365005 2.12659e-06)
(2.96142e-05 0.000238866 5.31338e-06)
(-8.78773e-06 0.000287071 1.86294e-05)
(3.67383e-05 0.00225968 -3.37486e-05)
(0.000393355 0.00322295 2.29326e-06)
(-3.93406e-06 0.00261862 -1.20393e-06)
(-0.000155355 0.00231499 -6.16144e-06)
(-6.9505e-05 0.00244149 -1.52692e-05)
(3.41849e-05 0.00214623 1.74912e-06)
(-3.55486e-06 0.00239523 1.82787e-06)
(-1.59385e-05 0.0012099 -2.00179e-06)
(-6.10385e-08 0.000146872 -5.45958e-08)
(-6.3396e-07 1.53624e-05 9.76801e-08)
(8.68152e-07 1.74488e-05 3.09189e-08)
(2.29431e-06 1.4128e-05 -4.74329e-08)
(4.33011e-06 4.49749e-06 2.28002e-08)
(7.38817e-06 -1.26808e-05 6.94954e-08)
(1.10486e-05 -3.78084e-05 3.1393e-07)
(1.38438e-05 -6.89527e-05 7.26688e-07)
(1.46669e-05 -0.000112426 1.66102e-06)
(1.54379e-05 -0.00017182 1.13736e-06)
(1.70959e-05 -0.000273662 6.61401e-06)
(-2.12675e-06 -0.000328226 1.33495e-05)
(5.48906e-05 0.0012812 -6.26269e-05)
(0.000414901 0.00241419 -2.70146e-06)
(2.24978e-07 0.0028711 6.96608e-06)
(-9.15868e-05 0.00239527 4.08974e-06)
(-3.89556e-05 0.00245273 -9.18616e-06)
(1.62153e-05 0.00204693 4.19529e-05)
(1.20684e-05 0.00227272 1.65861e-07)
(5.64965e-06 0.00241426 -4.44136e-05)
(-5.52299e-05 0.00263136 -3.31574e-05)
(-4.0105e-05 0.00286366 -7.16737e-06)
(-3.41764e-05 0.00316978 -4.09151e-07)
(-6.87604e-05 0.00375453 -2.73737e-07)
(-9.86714e-05 0.00433024 1.25562e-07)
(-0.000108621 0.00504902 -5.68511e-07)
(-1.46758e-05 0.00603726 -2.9793e-06)
(2.88766e-05 0.00579475 -1.70959e-06)
(0.000159033 0.00547679 -2.71588e-06)
(0.000114078 0.00472746 -1.03972e-06)
(-0.000190302 0.00303055 4.8077e-07)
(4.86933e-05 0.00208406 -5.87475e-07)
(-4.20665e-06 0.00286204 3.04778e-07)
(-4.44573e-05 0.00325786 2.67035e-07)
(1.34541e-06 0.00360109 9.68088e-07)
(0.000131712 0.00354384 2.37714e-07)
(5.58667e-05 0.00236097 -3.40993e-07)
(1.18727e-06 0.00212504 -2.50086e-06)
(5.43856e-05 0.00214074 -3.52795e-05)
(-3.45208e-05 0.00224087 -2.68865e-05)
(-6.79962e-05 0.00233509 2.04436e-05)
(-5.80312e-05 0.00227892 1.16934e-05)
(-5.73802e-05 0.00203189 2.34019e-06)
(-6.21022e-05 0.00182897 1.00752e-06)
(-5.73711e-05 0.00182629 2.62194e-06)
(-5.23393e-05 0.0023454 2.54107e-06)
(1.41358e-05 0.00236452 -4.0458e-06)
(3.07694e-05 0.00242532 -1.54138e-06)
(5.73488e-06 0.0023912 1.91107e-06)
(4.54001e-05 0.00250826 1.90882e-07)
(-5.57978e-05 0.00257483 -4.17954e-06)
(8.79901e-05 0.00209708 -2.33785e-07)
(-1.30104e-05 0.00218086 7.26809e-08)
(1.38983e-05 0.00225852 3.87609e-07)
(-8.70138e-06 0.00224811 -2.5708e-07)
(5.33226e-05 0.00226097 5.59586e-07)
(-2.79388e-05 0.00223693 -2.53638e-09)
(-1.98299e-06 0.00224769 -1.41875e-05)
(2.38575e-05 0.00222607 -3.80305e-06)
(1.17991e-05 0.00236024 4.95364e-06)
(-2.30718e-05 0.00236839 1.47818e-05)
(-3.14878e-05 0.00178985 5.94337e-06)
(-4.2769e-05 0.00124756 -3.94951e-07)
(-4.25668e-05 0.000792609 -3.03279e-07)
(-4.82219e-05 0.000804703 4.85235e-07)
(-1.4775e-05 0.00234496 -6.19288e-09)
(6.29167e-05 0.00232625 4.04053e-06)
(0.000124191 0.00231689 2.23901e-08)
(8.07872e-05 0.00241545 6.69796e-06)
(-2.63033e-05 0.00258781 -1.0974e-06)
(-0.000109469 0.00252167 -6.7952e-07)
(3.51459e-05 0.00211554 6.92014e-07)
(-1.27351e-05 0.00206697 1.52508e-07)
(7.6811e-06 0.00223997 4.69615e-07)
(-5.42296e-06 0.00221677 -1.61395e-06)
(5.4167e-05 0.00223916 1.15e-07)
(-1.21531e-05 0.00227556 3.75108e-07)
(-1.38232e-05 0.00223888 -3.75359e-06)
(-1.02557e-06 0.00220424 1.12119e-05)
(-6.27052e-06 0.00234802 8.27114e-06)
(-9.53311e-06 0.00239146 3.13613e-06)
(-1.50436e-05 0.000683626 -1.30792e-07)
(-2.23516e-05 0.000363698 -1.05679e-07)
(-2.42682e-05 0.000141726 3.00239e-07)
(-2.92111e-05 0.000220242 2.68102e-07)
(7.09299e-06 0.0023236 1.21393e-06)
(7.38874e-05 0.00228282 5.27876e-06)
(0.000127568 0.00228125 4.48217e-06)
(0.00013049 0.0023057 1.41221e-06)
(-7.63461e-05 0.00246808 7.20089e-07)
(3.91168e-06 0.00228178 5.91516e-07)
(4.97805e-05 0.00201049 1.23806e-06)
(3.05113e-05 0.0020496 -1.80788e-06)
(-1.94176e-05 0.00218933 9.3497e-07)
(-2.01829e-05 0.00218771 1.54789e-06)
(2.71354e-05 0.00219499 -2.3695e-07)
(-9.00375e-06 0.0022268 8.68074e-07)
(2.07553e-05 0.00223177 9.77572e-09)
(-1.96779e-05 0.00220205 -9.30752e-06)
(-4.97881e-05 0.00238468 1.9572e-06)
(-1.94684e-05 0.00238118 9.0492e-07)
(-1.15717e-05 0.000130232 -1.12754e-07)
(-9.56499e-06 5.82264e-05 6.31736e-08)
(-9.67594e-06 6.39302e-05 3.08675e-07)
(-6.88387e-06 0.00013393 1.1018e-06)
(1.71743e-05 0.00231302 4.61122e-06)
(4.38118e-05 0.00227312 9.01969e-07)
(0.000110978 0.00221277 1.62755e-06)
(9.83952e-05 0.00209482 -2.11947e-05)
(-7.08981e-06 0.00223295 -1.17917e-05)
(0.000177395 0.00208672 -2.91672e-05)
(0.000206479 0.00194908 -2.74596e-05)
(9.22743e-05 0.0020027 -4.78345e-06)
(-4.77795e-05 0.00212548 8.28832e-06)
(-8.85155e-05 0.00212965 1.07171e-05)
(-3.29441e-05 0.0021072 -1.8146e-07)
(-1.69401e-05 0.00219188 7.86805e-07)
(3.13102e-05 0.00225555 -5.85283e-06)
(-8.94619e-06 0.00230937 -1.46508e-06)
(-4.34614e-05 0.00237708 4.25102e-07)
(-1.45482e-05 0.00236202 2.63985e-07)
(-7.85539e-06 0.00010796 3.65168e-08)
(7.71717e-07 4.69205e-05 4.7816e-09)
(4.43096e-06 4.735e-05 1.89573e-07)
(9.69881e-06 6.92037e-05 1.29905e-06)
(2.29578e-05 0.00181646 2.394e-06)
(3.63722e-05 0.00225896 -1.60932e-06)
(8.89556e-05 0.00217397 -6.75663e-06)
(1.72796e-05 0.00202609 7.36184e-06)
(1.7435e-05 0.00193969 -2.05552e-05)
(0.000210312 0.00179098 1.56866e-05)
(0.000476627 0.00207902 -2.24163e-05)
(0.000307659 0.00231681 -3.09117e-05)
(4.79689e-05 0.00235223 -2.0444e-06)
(-0.000197192 0.00206877 8.40868e-06)
(-0.000176519 0.00196589 7.6449e-06)
(3.33614e-06 0.0021959 -2.37615e-06)
(1.61932e-05 0.00221854 -7.52413e-06)
(-1.30516e-05 0.00234509 3.47245e-07)
(-2.93169e-05 0.00236576 1.07269e-06)
(-1.1626e-05 0.00189871 3.48136e-08)
(-4.01179e-06 5.98782e-05 1.97886e-10)
(5.16109e-06 3.5505e-05 1.97483e-09)
(1.03943e-05 3.15751e-05 5.7278e-08)
(1.78852e-05 3.64465e-05 1.97676e-07)
(2.68401e-05 0.00073779 -1.44747e-06)
(2.60125e-05 0.00174097 -3.66137e-06)
(6.02403e-05 0.00209551 -4.68309e-06)
(4.40693e-05 0.00207662 -4.16214e-06)
(1.96376e-05 0.00202139 7.89578e-06)
(5.84321e-05 0.00190107 9.075e-06)
(0.000345447 0.00221315 7.52104e-05)
(0.00064172 0.00262054 -1.7054e-05)
(0.000307647 0.00259505 -4.02505e-05)
(1.23892e-05 0.00232845 -2.21639e-05)
(-0.000207568 0.00203395 1.57739e-05)
(-9.76126e-05 0.00227668 -1.45851e-05)
(1.85706e-05 0.0022488 8.76352e-07)
(-2.13798e-05 0.00237634 -2.79267e-06)
(-1.99542e-05 0.00236445 -1.08553e-07)
(-7.21027e-06 0.000855209 5.92321e-09)
(1.65104e-06 2.70147e-05 -1.83817e-08)
(5.91524e-06 2.68697e-05 -6.49328e-09)
(8.66547e-06 2.49921e-05 -3.04658e-08)
(1.33115e-05 1.71204e-05 -2.3932e-07)
(1.64231e-05 7.89822e-05 -3.55847e-07)
(1.86195e-05 0.000622811 -2.01564e-07)
(-3.51905e-06 0.00143358 -3.04846e-06)
(-3.16142e-05 0.00161894 1.60218e-06)
(-2.85884e-05 0.00157272 1.09657e-05)
(5.84781e-06 0.00146283 7.75735e-06)
(2.8428e-06 0.0016189 -3.03448e-05)
(0.000632183 0.00272668 0.000105386)
(0.000273926 0.00276881 3.93167e-05)
(8.89577e-05 0.00256361 1.73655e-05)
(-0.000144599 0.00228242 -9.12137e-06)
(-4.52408e-05 0.00240395 -1.28937e-05)
(2.4551e-05 0.0023546 6.61712e-06)
(-9.45022e-06 0.00238267 -1.5835e-06)
(-1.57724e-05 0.00236989 -2.05952e-07)
(-3.3456e-06 0.000146458 -1.34424e-08)
(1.63766e-06 1.82005e-05 1.17185e-09)
(4.04145e-06 2.19529e-05 3.74562e-09)
(6.95121e-06 2.05935e-05 1.44032e-08)
(1.04927e-05 1.10595e-05 5.78802e-08)
(1.74276e-05 -2.93504e-06 2.17828e-07)
(2.55609e-05 -2.10307e-06 4.26438e-07)
(2.9376e-05 0.000380938 9.67826e-07)
(3.27656e-05 0.000422034 1.85969e-06)
(2.24919e-05 0.000350725 -4.54261e-06)
(2.19335e-05 0.000139108 -2.45062e-06)
(-1.74456e-05 0.000233068 -3.10931e-06)
(2.12799e-06 0.00178752 1.84172e-05)
(0.000354047 0.00304174 -3.10046e-05)
(4.05409e-05 0.00265349 -3.93909e-06)
(-0.000100016 0.00242373 -6.57948e-07)
(-6.51797e-05 0.00245945 -1.41029e-05)
(3.30765e-05 0.00242049 2.77692e-06)
(-3.77231e-06 0.00239362 -7.60337e-07)
(-1.64833e-05 0.00121109 -1.23588e-08)
(-3.40743e-07 1.64845e-05 2.28815e-08)
(-6.56251e-07 1.48807e-05 5.16772e-09)
(8.25768e-07 1.84981e-05 5.50928e-09)
(2.30003e-06 1.43772e-05 8.87723e-09)
(4.37138e-06 4.60914e-06 1.01116e-08)
(7.35107e-06 -1.32151e-05 1.88817e-08)
(1.08407e-05 -4.00651e-05 -1.75944e-07)
(1.43519e-05 -7.46387e-05 -4.84966e-07)
(1.47543e-05 -0.000119394 -5.78885e-07)
(1.51667e-05 -0.00018074 -2.99648e-06)
(1.57333e-05 -0.00033659 6.8223e-07)
(-2.62895e-05 -0.000522909 2.18303e-06)
(-5.2001e-05 0.000456789 -3.80101e-05)
(0.00030042 0.00205337 -4.93036e-05)
(3.61644e-05 0.0027797 1.15952e-05)
(-5.89148e-05 0.00247009 9.00603e-06)
(-4.06467e-05 0.00248409 -9.62403e-06)
(1.08573e-05 0.00199514 5.23931e-05)
(2.20223e-06 0.00215512 9.20838e-06)
(-1.13938e-05 0.00240465 -4.94823e-05)
(-4.81492e-05 0.00256208 -1.02236e-05)
(-3.29556e-05 0.00265113 1.01915e-05)
(-2.3259e-05 0.00296152 1.10423e-05)
(-6.26228e-05 0.00350596 9.61236e-06)
(-9.56002e-05 0.00414199 6.81589e-06)
(-0.000104961 0.00485019 1.12215e-05)
(-1.35152e-05 0.00577213 3.48032e-05)
(4.90948e-05 0.00549605 1.64678e-05)
(0.000167809 0.00521684 -4.5966e-06)
(7.8755e-05 0.00432953 -3.65758e-05)
(-0.000193775 0.0028731 3.29968e-05)
(5.62001e-05 0.00206647 5.97965e-05)
(-9.77991e-06 0.00286528 -3.68986e-10)
(-4.5509e-05 0.00325415 -1.40528e-06)
(1.1679e-06 0.00357807 1.37572e-06)
(0.000128942 0.00353505 -3.69322e-06)
(5.6013e-05 0.00234963 7.41028e-06)
(-9.64921e-06 0.00208217 3.79563e-06)
(5.16556e-05 0.00230372 -3.4594e-05)
(-7.08389e-05 0.00235619 -2.79325e-05)
(-5.81105e-05 0.00230437 4.22736e-06)
(-5.91143e-05 0.00227018 9.328e-07)
(-5.80632e-05 0.00229579 -2.36427e-06)
(-6.15786e-05 0.00231878 -5.3016e-06)
(-5.13716e-05 0.00232694 -7.86114e-06)
(-3.64144e-05 0.0023508 -7.39169e-06)
(2.18778e-05 0.00236271 1.01647e-05)
(2.3002e-05 0.0024179 1.40534e-05)
(3.98427e-05 0.00239228 -7.09837e-06)
(-5.06408e-05 0.0025768 -4.37909e-05)
(-9.83141e-05 0.00248078 -2.93192e-05)
(8.14519e-05 0.00206391 3.39312e-05)
(-2.20053e-05 0.00217758 -1.79125e-07)
(1.36033e-05 0.00225792 -5.3324e-07)
(-8.11504e-06 0.0022399 5.59756e-06)
(5.83376e-05 0.00225752 -3.53955e-07)
(-2.61387e-05 0.00224105 4.22572e-06)
(-3.8292e-06 0.00220752 -1.14069e-05)
(2.06748e-05 0.00231157 -4.43015e-06)
(-1.7058e-05 0.0023784 9.85292e-06)
(-1.93398e-05 0.00235678 8.54674e-06)
(-3.12616e-05 0.00183675 -1.18261e-06)
(-4.36584e-05 0.00180909 -2.88006e-06)
(-4.70035e-05 0.00224123 -1.70357e-06)
(-4.94523e-05 0.00234278 1.53714e-07)
(-1.24951e-05 0.00233807 9.27649e-07)
(6.9878e-05 0.00232852 1.0086e-06)
(0.000131662 0.00232716 3.21391e-06)
(9.71246e-05 0.00239442 -4.2794e-06)
(-5.91158e-05 0.00261281 -1.42452e-05)
(-0.000100374 0.00252581 5.05208e-06)
(3.30525e-05 0.00205196 1.35071e-05)
(-8.43544e-06 0.00206892 -1.6913e-06)
(8.2794e-06 0.0022408 2.14838e-07)
(-3.52152e-06 0.00221037 6.46407e-06)
(5.70058e-05 0.00223791 1.10918e-05)
(-7.87593e-06 0.00228228 4.73491e-06)
(2.1162e-05 0.00221751 9.70248e-06)
(1.2355e-05 0.00227603 -3.42966e-06)
(-1.20492e-05 0.00238457 6.93817e-06)
(-8.4588e-06 0.00238856 2.61841e-06)
(-1.48906e-05 0.000863279 -2.68216e-07)
(-2.20983e-05 0.000696067 -8.66257e-08)
(-2.39339e-05 0.00159223 9.98043e-07)
(-2.6134e-05 0.00233518 1.94729e-06)
(9.90479e-06 0.00231598 6.59483e-06)
(8.08795e-05 0.00229345 4.20837e-06)
(0.00015121 0.00229871 5.82071e-06)
(0.00011457 0.00232985 -6.86666e-06)
(-9.80817e-05 0.00246323 -1.07341e-06)
(2.64689e-05 0.00226983 2.16311e-05)
(6.17259e-05 0.00194642 3.96926e-07)
(3.25187e-05 0.00203375 -4.6903e-07)
(-1.92865e-05 0.0021899 8.21992e-07)
(-1.58091e-05 0.00219027 3.39964e-06)
(2.99313e-05 0.00219197 7.45864e-06)
(-3.6768e-06 0.0022291 2.65113e-06)
(5.58185e-05 0.00225597 1.27338e-05)
(-2.19829e-05 0.00228582 -2.50729e-05)
(-5.51574e-05 0.00239947 1.34104e-06)
(-1.94366e-05 0.00237819 1.61715e-06)
(-1.11632e-05 0.000449744 4.89865e-08)
(-8.93287e-06 0.000107387 -5.95605e-08)
(-9.11158e-06 0.000587885 1.83973e-07)
(-3.73226e-06 0.00207255 2.29389e-06)
(2.70302e-05 0.00230797 3.17098e-06)
(5.65099e-05 0.0022865 -3.47838e-07)
(0.00012679 0.0022524 -8.70977e-08)
(5.9305e-05 0.00216998 -8.96964e-06)
(-4.77045e-05 0.00226468 1.61821e-05)
(0.000226021 0.00208529 7.9353e-06)
(0.000235328 0.0018963 1.19495e-05)
(9.49e-05 0.00196711 -8.51714e-06)
(-5.50349e-05 0.00211823 -9.78648e-06)
(-7.22648e-05 0.00213388 -6.49665e-06)
(-2.88843e-05 0.00210606 8.26273e-06)
(-1.12728e-05 0.00220401 3.68619e-06)
(5.31658e-05 0.00228173 6.24883e-06)
(-2.37039e-05 0.00234815 -1.12965e-05)
(-4.4389e-05 0.00237592 3.26048e-06)
(-1.41964e-05 0.00235456 1.86789e-06)
(-7.34418e-06 0.000433257 5.69233e-07)
(1.09379e-06 5.71324e-05 1.66651e-08)
(4.66334e-06 7.78497e-05 4.65239e-08)
(9.89157e-06 0.00123511 3.28408e-07)
(2.73254e-05 0.00231555 -5.80132e-07)
(4.85502e-05 0.00227351 -5.86174e-06)
(6.68849e-05 0.00219647 -1.00272e-05)
(1.41337e-05 0.00205126 1.6867e-06)
(4.91284e-05 0.0019487 2.86534e-06)
(0.000144682 0.00178969 4.19569e-05)
(0.000383835 0.00198077 -5.95103e-06)
(0.000301841 0.00226892 -2.28091e-05)
(5.93156e-05 0.00238134 6.9164e-06)
(-0.000174799 0.00211419 8.55025e-06)
(-0.000155627 0.00197253 9.72988e-06)
(6.84621e-06 0.00221013 1.06414e-05)
(4.62007e-05 0.00226858 4.43452e-06)
(-2.20404e-05 0.00235708 -5.77123e-06)
(-2.91058e-05 0.00236663 3.28818e-06)
(-1.137e-05 0.00234795 1.6758e-06)
(-3.98578e-06 0.000242252 5.98523e-07)
(5.27651e-06 3.34973e-05 1.76906e-07)
(1.02478e-05 3.03045e-05 4.1903e-08)
(1.70179e-05 0.000342326 1.50972e-07)
(2.51133e-05 0.00175017 -1.62129e-06)
(2.34001e-05 0.00228126 -7.69554e-06)
(2.31535e-05 0.00220799 -7.13495e-06)
(2.5463e-05 0.00212693 -1.17047e-05)
(3.2922e-06 0.00202757 -2.51287e-06)
(-8.98578e-06 0.00198156 -1.54766e-05)
(0.000100589 0.00210794 4.33161e-06)
(0.000571657 0.00244669 -1.47642e-05)
(0.000289631 0.00257401 -2.70757e-05)
(-7.83422e-07 0.00236145 -7.16797e-06)
(-0.000153217 0.0021078 1.71574e-05)
(-8.32553e-05 0.00227103 2.79837e-05)
(2.90326e-05 0.00226963 -1.42798e-06)
(-1.5826e-05 0.00238986 -4.05581e-06)
(-2.08752e-05 0.00236653 1.73473e-06)
(-6.6149e-06 0.00190006 9.90546e-07)
(1.91032e-06 7.84981e-05 3.63548e-07)
(5.75108e-06 2.79877e-05 4.04049e-07)
(8.48972e-06 2.33511e-05 1.67872e-07)
(1.2951e-05 1.68804e-05 6.83884e-08)
(1.23502e-05 0.000592756 1.49955e-07)
(6.4188e-06 0.00170303 -1.66925e-06)
(-1.45975e-05 0.00165027 -4.37347e-06)
(-7.39355e-06 0.00161513 -5.15947e-06)
(-3.80085e-05 0.00165255 -3.95885e-06)
(-1.91749e-05 0.00154748 -1.15366e-05)
(-6.00342e-05 0.0022944 -2.22605e-05)
(0.000336828 0.00248114 2.34334e-05)
(0.000284726 0.00268876 1.99083e-05)
(1.06828e-05 0.00251888 -3.50131e-06)
(-0.000130528 0.00230088 1.57403e-05)
(-3.65887e-05 0.00241216 9.44001e-06)
(1.93968e-05 0.00225647 -4.35713e-06)
(-6.84615e-06 0.00239198 -2.44396e-06)
(-1.66764e-05 0.00237125 1.74387e-06)
(-5.08824e-06 0.000867979 -5.68397e-07)
(1.4902e-06 2.67872e-05 -4.22176e-08)
(3.95571e-06 2.33684e-05 2.02858e-07)
(6.88444e-06 1.98896e-05 2.59412e-07)
(1.04948e-05 1.15297e-05 1.03162e-07)
(1.77435e-05 6.29834e-07 2.38398e-08)
(2.3872e-05 0.000545072 -7.67034e-08)