/*--------------------------------*- C++ -*----------------------------------*\
| =========                 |                                                 |
| \\      /  F ield         | OpenFOAM: The Open Source CFD Toolbox           |
|  \\    /   O peration     | Version:  2.3.0                                 |
|   \\  /    A nd           | Web:      www.OpenFOAM.org                      |
|    \\/     M anipulation  |                                                 |
\*---------------------------------------------------------------------------*/
FoamFile
{
    version     2.0;
    format      ascii;
    class       volScalarField;
    location    "1.53";
    object      rho;
}
// * * * * * * * * * * * * * * * * * * * * * * * * * * * * * * * * * * * * * //

dimensions      [1 -3 0 0 0 0 0];

internalField   nonuniform List<scalar> 
6000
(
1172.81
1156.2
1103.21
1019.52
943.355
927.527
1009.49
1082.86
1075.35
1084.77
1013.28
1158.67
1166.59
1169.29
1171.97
1161.37
1161.3
1163.6
1176.22
1174.96
1164.69
1103.95
1106.7
1202.48
1202.48
1202.48
1078.42
945.335
915.502
842.709
1003.61
956.328
927.784
927.566
927.347
927.121
926.896
926.669
907.501
838.15
831.011
964.534
997.324
1012.56
1040.05
1069.93
1106.51
1126.03
1138.72
1136.23
1115.34
1103.94
1104.63
1133.15
1190.6
1100.04
911.182
843.237
843.031
842.893
1159.68
1133.46
1081.5
1030.05
992.057
990.372
1024.2
1027.04
962.689
830.997
823.54
1071.32
1161.22
1186.91
1204.74
1203.94
1205.32
1203.95
1205.99
1203.96
1205.99
1203.97
1205.35
1203.97
1207.48
1203.96
972.389
849.382
859.793
843.079
1289.27
1289.12
1273.87
1204.05
1141.83
1125.3
1147.13
1146.5
1019.22
821.55
830.997
1023.85
1154.33
1182.47
1168.13
1111.18
1079.38
1106.7
1144.28
1177.62
1203.97
1207.87
1203.97
1208.23
1203.97
1208.23
1016.18
869.665
864.337
843.288
1289.42
1289.37
1289.13
1289.4
1285.79
1270.86
1274.74
1264.05
1068.57
830.995
819.72
835.678
920.997
979.175
918.235
856.05
838.831
854.971
900.146
947.17
1033.4
1145.04
1208.23
1203.96
1208.35
1203.39
1078.31
966.721
920.053
867.785
1289.55
1289.41
1289.38
1289.11
1289.71
1288.75
1288.79
1287.62
1057.94
823.878
830.994
817.942
830.994
827.246
830.994
829.158
830.994
830.268
842.428
880.169
911.638
963.708
1010.67
1054.13
892.746
948.137
1101.39
1109.34
1037.22
979.83
848.097
974.498
1141.71
1289.81
1288.74
1289.96
1288.41
1287.59
1046.72
830.994
818.587
830.994
817.953
830.993
830.176
830.993
845.674
898.214
965.735
1011.63
1013.4
992.633
861.648
693.877
679.192
717.925
1139.09
1228.21
1147.28
1106.4
424.621
489.933
599.662
823.763
1198.48
1288.39
1289.68
1287.49
1061.24
827.447
830.993
815.363
830.993
828.92
849.837
908.183
981.409
1067.88
1143.84
1177.97
1176.56
1104.4
849.182
679.472
693.086
683.136
1210.39
1300.29
1198.16
1132.17
400.013
401.641
432.028
470.191
683.847
1219.82
1287.5
1288.78
1115.26
830.994
818.883
830.993
818.551
830.993
998.867
1086.37
1154.48
1200.03
1234.68
1242.98
1242.98
1158.69
842.739
693.085
671.507
693.096
1216.85
1329.06
1225.1
1132.62
399.519
404.111
442.809
459.254
464.345
787.711
1290.11
1287.38
1204.17
829.604
830.993
815.373
830.993
901.69
1174.13
1231.78
1242.96
1233.99
1221.47
1213.61
1197.55
1110.45
824.882
678.192
692.856
678.371
1135.03
1329.2
1260.92
1146.9
400.048
414.73
479.372
506.614
484.67
553.395
1097.82
1290.15
1276.78
850.244
821.106
830.993
823.385
978.385
1225.11
1262.49
1254.56
1227.6
1183.91
1135.1
1090.85
1023.67
806.685
692.856
671.877
692.859
954.813
1329.16
1303.89
1221.25
400.951
432.142
527.204
586.976
556.263
576.713
828.529
1287.23
1288.05
939.149
830.993
819.633
830.993
945.275
1176.91
1262.3
1253.43
1220.34
1155.26
1083.68
1029.12
970.984
792.905
679.961
692.856
675.973
764.41
1327.45
1335.2
1301.78
401.356
456.725
574.213
667.497
656.305
657.457
789.596
1286.53
1287.09
1082.64
827.361
830.993
828.73
909.557
1130.79
1249.71
1245.17
1207.72
1140.11
1072.37
1024.49
960.404
783.517
693.257
675.593
693.257
689.147
1221.71
1335.84
1333.06
409.527
493.726
620.125
737.678
759.599
763.793
850.595
1188.15
1289.45
1182.24
830.995
826.711
830.993
925.167
1124.67
1234.26
1222.61
1186.04
1132.04
1079.54
1039.61
975.825
786.257
682.824
693.257
677.949
693.651
1007.15
1335.89
1339.05
454.128
550.979
675.211
803.435
854.991
878.76
974.853
1215.14
1286.91
1193.98
829.571
830.993
858.916
989.601
1150.43
1219.83
1201.51
1171.88
1137.19
1104.29
1073.83
1015.71
804.307
693.648
680.274
693.648
685.218
843.859
1225.27
1338.95
539.459
633.258
750.34
878.568
944.169
985.909
1106.57
1256.6
1289.71
1129.64
830.994
829.896
925.084
1078.91
1185.21
1216.94
1196.91
1186.26
1170.25
1150.64
1124.48
1068.21
836.463
687.822
693.648
683.231
694.054
767.308
1068.09
1240.89
649.868
740.576
852.462
972.115
1030.72
1054.18
1127.77
1232.76
1261.6
1010.18
830.299
838.47
1002.57
1141.68
1205.8
1227.52
1236.14
1249.14
1243.61
1226.72
1201.33
1128.37
882.876
694.054
687.092
694.054
689.063
736.803
1065.44
1060.83
772.376
870.801
982.921
1091.54
1173.08
1212.48
1213.02
1192.01
1152.42
957.6
836.421
905.437
1060.83
1141.49
1204.5
1271.97
1307.38
1319.11
1316.14
1304.61
1283.27
1214.33
972.175
710.071
694.054
690.668
694.426
770.431
1088.3
1060.83
902.612
1022.22
1161.11
1274.51
1314.53
1338.19
1343.28
1279.87
1117.34
960.259
901.12
986.497
1055.48
1102.94
1217.37
1324.57
1351.63
1353.49
1353.61
1349.32
1334.64
1302.04
1141.41
863.545
728.003
694.426
728.101
934.574
1197.08
1155.05
1040.15
1192.7
1312.98
1356.18
1361.25
1365.6
1369.97
1368.81
1232.22
1018.66
990.289
1022.86
1027.16
1071.45
1247.3
1352.21
1353.53
1354.22
1353.59
1354.07
1352.89
1344.38
1295.08
1131.19
939.54
871.13
955.276
1190.79
1315.41
1306.6
1176.19
1310.07
1361.47
1362.75
1363.23
1366.82
1370.96
1371.78
1356.73
1194.29
1079.1
1040.44
1027.48
1067.26
1271.03
1353.41
1354.11
1353.29
1354.08
1353.41
1349.2
1348.61
1348.35
1318.55
1236.33
1204.23
1283.19
1319.88
1319.94
1319.93
1282.83
1357.27
1361.07
1339.61
1332.15
1355.15
1370.16
1372.76
1372.05
1341.8
1227.72
1102.14
1048.94
1091.59
1276.64
1353.68
1242.14
1046.68
1039.46
1218.95
1342.74
1348.17
1348.02
1347.61
1260.09
1166.3
1190.47
1319.68
1319.8
1319.84
1339.88
1357.06
1329.48
1251.35
1250.88
1305.08
1359.37
1373.62
1372.94
1366.02
1340.54
1251.23
1149.27
1158.75
1252.13
1097.08
662.74
504.276
507.799
631.455
872.897
1049.77
1095.78
1031.55
862.58
728.291
698.942
855.756
941.132
1044.27
1356.13
1345.76
1252.79
1250.85
1268.88
1301.66
1367.62
1375.31
1373.67
1366.64
1362.23
1344.89
1287.08
1248.46
1078.65
589.495
403.213
403.485
403.55
408.358
446.489
503.678
531.727
506.721
447.434
420.653
410.798
428.053
452.624
581.928
1351.55
1292.83
1298.21
1266.68
1325.24
1397.07
1398.15
1388.33
1381.16
1372.29
1363.99
1359.08
1338.2
1281.28
784.266
403.505
403.478
403.535
405.074
419.232
419.978
403.221
401.57
401.572
401.558
401.261
401.558
401.165
401.558
574.516
1309.56
1292.45
1341.99
1357.22
1407.32
1424.95
1416.08
1386.31
1384.25
1379.2
1367.73
1358.64
1345.61
1224.45
545.53
403.683
403.543
403.706
423.794
449.856
454.425
442.821
443.307
443.26
436.696
426.915
418.167
404.594
417.84
630.14
1309.94
1340.24
1398.68
1413.01
1431.21
1426.13
1405.16
1384.57
1385.05
1383.21
1370.44
1357.11
1336.64
1041.84
466.489
403.677
403.711
409.541
450.098
486.807
502.732
503.766
510.635
512.17
502.632
490.414
473.026
445.462
468.099
659.806
1310.37
1399.41
1428.8
1435.78
1433.06
1416.97
1393.34
1386.09
1385.53
1377.38
1376.26
1360.99
1314.86
771.092
458.974
426.52
430.565
441.844
487.311
534.284
558.985
567.958
577.313
580.513
573.641
565.416
546.286
517.456
538.981
682.489
1345.13
1429.14
1446.22
1444.51
1434.52
1418.28
1400.7
1397.23
1386.4
1355.8
1373.98
1369.93
1158.26
637.277
507.04
496.339
492.15
511.732
562.098
614.819
636.683
645.313
644.126
644.601
642.006
640.041
624.382
600.647
616.015
716.752
1396.66
1447.21
1455.28
1450.16
1440.95
1430.55
1423.77
1419.66
1395.86
1355.49
1342.04
1346.22
980.303
677.986
615.594
606.769
600.936
635.713
697.246
740.301
741.466
740.989
723.282
713.269
712.009
715.076
705.151
691.044
697.754
765.127
1434.14
1456.62
1458.04
1454.58
1449.41
1445.3
1444.98
1443.66
1429.94
1393.41
1330.75
1166.22
922.794
793.91
775.801
762.6
768.412
824.206
884.69
891.604
868.7
851.979
821.287
799.693
797.033
806.138
801.629
798.015
791.822
827.3
1454.26
1461.14
1460.32
1458.32
1454.18
1450.4
1450.07
1450.02
1449.54
1445.38
1379.24
1163.85
975.842
937.743
952.745
948.164
979.227
1043.78
1075.08
1041.69
1007.05
976.669
941.83
915.973
909.615
923.585
929.295
930.278
895.272
902.021
1463.67
1464.07
1462.36
1457.94
1448.46
1436.36
1430.64
1444.27
1449.35
1449.25
1447.71
1335.95
1103.45
1047.54
1084.58
1116.92
1179.84
1222.42
1215.28
1173.14
1139.34
1110.87
1083.53
1063.51
1057.29
1072.73
1086.08
1078.67
997.249
987.472
1466.14
1464.97
1457.84
1439.98
1409.06
1366.29
1333.27
1347.72
1415.83
1448.19
1448.95
1446.37
1343.82
1179.2
1145.04
1209.48
1278.22
1297.59
1282.67
1256.74
1237.59
1227.54
1221.45
1215.29
1212.52
1222.98
1231.28
1190
1078.93
1082.6
1466.07
1457.34
1430.43
1371.34
1305.46
1256.6
1231.47
1229.39
1232.31
1381.3
1446.91
1448.62
1445.25
1378.43
1256.13
1230.2
1288.13
1313.82
1307.76
1295.77
1293.25
1296.63
1300.55
1302.54
1303.17
1304.36
1297.98
1220.74
1124.41
1179.48
1465.05
1425.02
1357.12
1275.11
1268.57
1267.06
1277.48
1235.42
1173.76
1176.27
1388.82
1445.73
1448.11
1444.35
1403.97
1329.14
1311.35
1325.62
1318.63
1314.06
1313.94
1313.81
1313.69
1313.57
1313.45
1306.73
1266.02
1200.59
1127.18
1251.87
1384.91
1343.08
1288.48
1275.89
1300.93
1331.21
1349.07
1311.54
1218.94
1173.76
1238.8
1415.21
1444.33
1447.35
1443.24
1421.62
1381.94
1343.41
1300.17
1275.34
1312.81
1313.7
1313.58
1313.45
1291.03
1225.73
1175.3
1154.9
1126.22
1265.17
954.729
1021.99
1241.23
1319.92
1344.01
1359.33
1359.44
1359.25
1316.55
1208.5
1156.91
1269.46
1357.56
1429.21
1443.68
1442.18
1417.06
1328.84
1215.41
1176.12
1205.75
1234.48
1242.91
1228.14
1175.68
1137.17
1127.11
1126.5
1127.12
1263.75
338.476
425.107
817.904
1170.98
1300.75
1357.4
1358.89
1338.66
1283.88
1169.68
1007.67
743.127
825.139
1196.85
1417.05
1441.91
1428.32
1309.78
1156.08
1130.45
1130.54
1133.21
1136.21
1135.44
1127.14
1127.12
1126.37
1127.11
1126.19
1206.34
148.881
176.232
247.339
456.695
711.816
876.266
931.41
887.509
786.379
688.865
510.163
288.672
311.306
622.099
1175.39
1414.45
1425.63
1314.88
1161.91
1143.37
1143.52
1152.81
1156.88
1153.62
1144.45
1131.09
1127.12
1126.68
1127.11
1167.55
140.789
162.117
151.084
152.824
196.769
293.724
352.154
344.138
291.736
244.542
197.3
162.314
179.203
351.747
847.498
1282.74
1381.23
1299.23
1218.79
1206.67
1217.09
1232.62
1239.07
1233.74
1216.1
1181.82
1146.47
1136.93
1136.32
1189.86
153.902
173.203
152.754
148.841
152.755
167.556
223.151
236.7
204.844
167.743
153.172
152.699
170.792
319.244
744.554
1191.34
1314.24
1298.1
1303.39
1300.66
1306.08
1307.89
1304.14
1296.18
1282.13
1254.9
1216.83
1185.23
1154.27
1230.56
177.77
189.134
150.402
152.754
148.982
152.754
204.54
233.116
205.749
167.586
152.16
153.171
181.622
359.56
816.357
1214.18
1317.77
1331.84
1334.53
1334.54
1331.85
1327.03
1319.86
1309.96
1297
1281.97
1263.58
1223.83
1154.63
1236.18
206.81
202.996
152.754
148.273
152.754
150.468
193.489
228.375
207.12
168.599
153.082
152.871
208.481
429.862
903.563
1274.37
1339.79
1341.87
1341.94
1340.3
1331.28
1319.55
1308.76
1299.03
1287.58
1271.33
1248.7
1205.58
1155
1213.17
240.162
215.882
149.901
152.754
149.158
152.754
182.247
217.896
204.132
168.837
151.07
157.931
250.849
514.127
954.719
1291.05
1341.72
1341.73
1331.52
1317.04
1300.05
1282.42
1269.8
1262.23
1251.53
1219.93
1183.94
1156.76
1155.36
1217.28
277.174
230.547
152.754
148.274
152.754
150.406
171.777
202.643
194.72
164.335
152.991
166.132
309.474
624.306
991.246
1226.57
1295.05
1289.72
1278.48
1264.03
1244.94
1226.17
1214.46
1209.2
1199.77
1167.06
1157.38
1157.08
1160.74
1321.42
316.979
248.79
149.506
152.754
149.608
152.754
162.713
187.495
181.576
154.819
149.853
175.749
375.668
755.354
1062.46
1169.27
1205.71
1221.22
1223.71
1222.8
1217.8
1203.61
1191.81
1182.84
1169.18
1158.01
1157.72
1239.08
1329.36
1389.08
358.967
268.11
152.754
148.485
152.754
150.794
156.101
175.699
171.111
151.214
152.903
186.595
441.353
874.226
1132.35
1168.96
1177.72
1194.42
1204.08
1210.41
1219.25
1236
1249.58
1250.4
1241.07
1259.8
1298.82
1357.9
1390.08
1390.75
403.125
283.3
149.257
152.754
150.138
152.754
152.285
167.836
163.057
152.814
149.312
205.618
517.731
985.939
1179.8
1213.76
1228.46
1229.26
1250.52
1277.82
1301.5
1318.96
1327.9
1324.33
1316.15
1332.21
1365.81
1389.47
1390.96
1390.76
447.775
289.127
152.754
149.021
152.754
151.378
152.754
162.96
156.147
150.135
152.814
235.062
632.764
1115.57
1231.29
1259.45
1289.37
1310.89
1325.73
1339.59
1349.87
1356.39
1354.34
1340.49
1331.71
1354.19
1381.16
1390.71
1390.66
1390.88
490.884
279.53
149.591
152.754
150.729
152.754
152.311
159.945
152
152.754
149.514
269.25
805.854
1231.81
1301.5
1320.31
1334.6
1347.71
1357.52
1364.72
1364.72
1363.36
1338.41
1310.77
1323.98
1366.26
1389.29
1390.5
1391.15
1365.92
532.131
246.412
152.754
149.676
152.754
152.01
152.754
157.071
152.754
150.278
152.754
286.559
944.601
1295.94
1340.14
1355.94
1361.94
1366.49
1368.43
1368.34
1362.38
1332.01
1310.84
1311.48
1347.88
1388.11
1390.34
1391.25
1390.31
1341.72
579.828
193.165
149.864
152.754
151.51
152.754
152.497
153.492
151.537
152.754
151.399
285.155
946.043
1318.52
1361.56
1368.99
1368.94
1369.12
1367.26
1355.19
1325.98
1310.87
1311.51
1347.12
1387.82
1390.12
1391.03
1390.34
1387.21
1290.37
630.094
152.139
152.754
150.597
152.754
152.542
152.754
152.353
152.754
151.881
152.754
273.48
685.382
1200.33
1306.2
1321.89
1368.85
1368.88
1347.93
1330.86
1313.16
1313.4
1361.7
1387.46
1390.02
1390.84
1390.16
1390.91
1319.39
1236.82
658.061
152.754
150.476
152.754
152.313
152.754
152.691
152.754
152.361
152.754
199.674
335.971
516.846
674.756
746.766
847.294
1240.8
1357.92
1330.7
1330.49
1338.08
1368.59
1387.37
1389.83
1390.67
1390.05
1390.6
1358.77
1236.93
1236.31
665.916
152.043
152.754
151.287
152.754
157.437
160.663
161.73
165.085
209.286
354.726
485.545
471.169
360.854
266.75
278.836
625.984
1270.06
1321.54
1349.91
1370.94
1385.7
1389.54
1390
1389.72
1390.19
1360.19
1252.55
1235.16
1241.07
681.002
152.754
151.357
152.754
152.501
178.476
207.113
231.55
262.472
386.814
524.968
524.898
400.283
247.859
205.931
206.01
258.304
874.969
1325.62
1364.97
1376.12
1376.19
1369.12
1361.69
1353.14
1335.21
1268.06
1237
1237.43
1238.78
730.984
152.656
152.754
151.614
152.754
238.917
337.705
411.254
463.035
552.519
550.314
422.912
267.117
205.771
205.85
205.93
216.485
429.309
1288.97
1364.84
1358.96
1318.21
1317.8
1307.89
1299.74
1272.49
1241.12
1237.95
1236.3
1250.47
789.772
154.464
152.201
152.754
164.886
324.528
485.876
556.627
556.706
552.445
418.95
260.76
199.887
200.017
206.487
214.131
225.071
279.314
890.102
1345.95
1291.65
1275.65
1275.9
1287.53
1300.61
1285.72
1247.35
1237.88
1237.95
1288.54
861.692
163.339
152.754
158.894
221.132
378.386
513.126
523.941
497.129
378.562
242.067
186.712
189.158
201.34
214.151
229.039
248.736
257.756
434.495
1193.92
1287.15
1285.14
1307.13
1305.95
1302.24
1289.29
1260.8
1239.26
1274.1
1333.08
986.113
208.673
186.14
216.323
314.835
396.953
413.576
355.226
285.172
210.485
172.741
175.502
191.267
207.4
223.874
245.301
268.03
279.491
344.228
829.429
1323.4
1323.81
1323.81
1304.65
1295.61
1294.88
1291
1296.72
1327.09
1358.28
1152.16
349.746
327.761
366.925
395.43
363.087
268.669
197.575
170.317
161.992
163.609
176.613
197.46
213.5
232.371
258.53
280.997
299.258
339.931
626.92
1312.89
1323.81
1285.51
1250.01
1264.62
1284.38
1294.16
1315.79
1344.37
1367.26
1182.14
588.09
543.956
513.919
409.271
265.245
170.979
147.018
150.187
157.58
165.771
182.662
202.688
217.671
239.705
267.885
291.632
313.774
337.918
500.693
1104.13
1297.77
1234.77
1234.33
1234.76
1257.05
1286.08
1323.96
1354.35
1375.54
839.62
729.336
609.749
447.717
300.547
175.603
142.838
142.814
150.157
161.152
172.096
190.327
207.025
221.688
245.08
275.316
299.407
325.419
358.472
471.257
865.565
1199.58
1242.19
1275.71
1280.31
1289.71
1317.64
1347.68
1369.95
1386.68
377.059
565.807
399.997
258.08
179.533
142.676
142.634
144.668
155.087
168.216
181.149
197.9
211.665
226.397
249.74
282.185
304.362
330.092
382.869
555.405
859.881
1246.13
1329.95
1340.54
1343.56
1345.83
1356.74
1370.18
1383.77
1396.05
159.889
238.174
187.675
150.766
138.325
138.351
142.584
151.798
164.08
176.737
190.529
205.482
218.384
233.903
257.776
288.209
308.101
329.122
423.477
758.111
1179.43
1338.81
1358.05
1363.63
1366.49
1368.45
1373.42
1381.82
1392.45
1402.53
120.051
127.647
127.989
129.893
133.06
139.351
148.248
161.43
173.507
185.354
199.981
215.263
230.325
246.823
270.956
294.816
308.626
328.675
501.411
1016.75
1328.63
1359.39
1360.11
1363.79
1367.9
1372.23
1378.51
1387.82
1398.51
1407.73
121.016
121.037
123.249
129.602
136.718
146.087
158.022
170.675
182.919
195.273
210.605
229.222
248.506
267.686
289.546
304.175
313.635
337.354
563.6
1224.16
1351.27
1351.45
1349.12
1354.72
1362.63
1371.57
1382
1393.47
1404.39
1412.81
127.874
126.105
128.74
135.301
145.363
156.504
168.126
179.809
193.479
206.12
223.888
248.517
274.306
296.013
315.553
321.321
331.729
363.719
619.883
1290.67
1351.33
1345.56
1345.81
1351.27
1362.73
1376
1389.17
1401.04
1410.95
1418.08
138.733
136.063
138.959
145.91
156.147
167.446
178.328
190.189
205.601
219.386
240.049
272.903
307.381
333.715
347.979
352.153
366.137
418.944
739.963
1298.31
1350.32
1338.24
1346.45
1358.24
1373.38
1388.36
1400.66
1410.3
1418.03
1423.67
149.083
146.309
149.67
157.167
166.626
177.971
189.556
203.255
219.555
235.486
259.123
300.506
346.181
380.29
391.074
400.387
418.451
515.467
889.241
1311.42
1332.23
1337.17
1356.7
1376.47
1393.12
1405.43
1413.66
1419.52
1424.88
1429.77
157.916
155.093
159.351
167.618
177.073
189.253
202.978
219.1
236.739
254.109
281.479
328.816
389.209
434.08
450.925
469.4
489.492
650.586
1023.6
1329.18
1334.07
1356.73
1383.84
1403.47
1415.64
1422.19
1425.1
1427.18
1430.87
1435.79
165.968
163.033
168.518
178.055
188.576
202.467
219.516
238.433
257.583
276.881
306.364
359.783
434.248
491.927
531.932
558.715
588.835
797.559
1194.29
1351.69
1368.55
1396.06
1417.23
1429.75
1436.28
1436.66
1433.75
1431.84
1434.17
1439.31
174.081
171.451
178.219
189.307
202.19
218.386
239.481
262.971
284.282
305.533
336.124
393.291
476.985
561.338
636.18
660.754
733.732
941.743
1317.36
1380.01
1409.42
1429.37
1441.4
1441.54
1441.38
1436.84
1431.87
1429.24
1432.03
1437.96
183.084
181.049
189.414
202.632
218.087
237.335
264.011
294.168
319.164
343.545
375.333
431.707
522.046
640.883
741.54
775.799
884.657
1114.07
1357.28
1414.6
1435.65
1435.76
1426.91
1392.65
1373.3
1371.09
1388.97
1408.27
1421.09
1431.57
193.447
192.385
202.648
218.531
236.643
260.049
293.57
332.975
366.42
396.393
429.922
484.758
582.917
720.203
826.357
911.444
1011.81
1309.07
1409.83
1435.64
1435.36
1390.42
1314.43
1317.73
1313.78
1317.65
1315.83
1358.51
1402.45
1423.72
205.296
205.913
218.153
236.783
258.861
288.383
329.191
379.938
429.514
472.281
511.348
570.126
669.771
802.346
918.637
998.806
1203.27
1394.1
1435.07
1434.84
1360.23
1313.66
1317.55
1313.69
1317.57
1316.57
1317.92
1359.8
1407.13
1431.84
219.12
221.919
236.318
258.495
285.761
323.119
373.727
437.616
511.856
584.161
639.087
701.722
793.605
915.257
1014.39
1120.01
1354.23
1434.27
1434.7
1391.86
1313.9
1317.55
1314.97
1317.63
1348.4
1389.97
1403.58
1418.2
1441.35
1455.55
235.755
241.191
257.958
284.927
319.545
366.674
429.465
512.955
621.573
741.968
827.23
885.442
956.271
1044.75
1100.87
1299.72
1415.8
1434.66
1424.31
1348.57
1317.57
1315.08
1317.66
1368.58
1413.65
1442.68
1453.09
1455.82
1456.2
1456.11
255.91
264.579
284.673
318.722
363.877
423.537
502.084
613.016
769.258
941.072
1054.89
1091.88
1121.69
1127.03
1237.43
1391.85
1434.18
1434.36
1406.87
1323.3
1314.17
1317.61
1363.81
1417.47
1443.61
1447.88
1448.93
1450.33
1454.14
1427.26
281.183
293.775
319.177
364.441
425.417
502.433
601.936
751.776
954.422
1135.9
1226.84
1228.3
1205.74
1220.91
1358.72
1429.84
1434.7
1426.14
1389.86
1316.58
1317.59
1341.63
1408.05
1438.49
1439.68
1427.94
1403.57
1393.72
1376.2
1033.97
315.32
332.423
366.841
429.689
515.458
619.313
747.294
936.108
1145.96
1261.61
1284.75
1277.4
1244
1334.24
1414.49
1434.15
1434.04
1416
1377.68
1325.42
1317.4
1386.87
1429.62
1431.95
1415.17
1362.52
1271.89
1249.62
868.943
458.582
364.087
386.929
437.307
528.943
652.289
791.634
947.662
1141.33
1275.21
1309.55
1306.61
1290.68
1311.78
1392.31
1432.61
1434.48
1427.82
1405.37
1367.73
1325.79
1355.64
1411.73
1426.33
1411.06
1354.92
1211.81
1033.56
769.922
362.686
324.565
437.038
468.99
547.944
684.087
852.266
1014.38
1162.14
1280.13
1322.67
1325.84
1319.19
1303.37
1359.82
1415.62
1434.32
1434.27
1420.73
1393.21
1355
1331.54
1383.04
1411.46
1411.55
1369.5
1217.87
886.208
597.33
288.766
267.607
346.039
548.568
598.064
724.508
908.216
1089.28
1212.86
1282.69
1321.72
1340.4
1339.11
1328.14
1324.37
1382.18
1425.33
1434.31
1430.4
1410.95
1376.45
1334.52
1342.79
1390.81
1407.34
1376.83
1226.06
802.24
417.811
219.865
129.842
249.278
395.272
713.594
793.538
972.017
1153.06
1263.81
1303.3
1309.4
1327.25
1351.01
1354.11
1342.45
1355.39
1401.72
1431.51
1434.3
1423.42
1396.81
1355.7
1314.21
1338.75
1385.15
1373.14
1191.36
711.995
293.603
134.156
70.6254
78.3828
244.59
441.344
925.962
1037.2
1208.72
1297
1317.72
1318.82
1314.66
1320.26
1350.62
1365.5
1363.14
1382.26
1414.92
1431.44
1429.93
1413.64
1378.76
1334.46
1302.22
1318.23
1320.82
1083.71
559.174
193.974
78.6003
47.4204
32.2097
50.934
216.734
496.849
1127.94
1233.26
1311.24
1319.02
1318.88
1319.63
1315.71
1295.77
1332.15
1365.42
1376.96
1398.23
1421.04
1430.6
1423.61
1400.24
1357.09
1317.26
1298.51
1270.81
970.503
401.394
104.442
43.45
31.6943
27.6648
25.4952
34.9569
185.573
560.5
1228.21
1293.18
1319.19
1318.88
1320.17
1318.88
1313.74
1295.5
1312.84
1353.4
1379.96
1405.87
1423.47
1427.26
1416.12
1383.5
1334.57
1302.57
1230.03
867.853
309.64
61.7235
26.798
25.489
25.562
25.4211
25.5919
26.7443
168.963
613.768
1238.29
1289.72
1318.88
1320.51
1318.89
1321.14
1318.88
1314.83
1309.55
1338.47
1373.38
1408.7
1423.58
1423.56
1406.55
1359.51
1302.24
1113.65
653.704
205.494
46.1967
25.5165
25.3892
25.5458
25.4154
25.5605
25.41
25.592
163.1
649.1
1257.76
1291.08
1320.7
1318.89
1321.43
1318.89
1321.26
1318.86
1304.87
1289.89
1349.07
1410.13
1423.5
1419.2
1385.44
1309.62
928.406
396.989
110.469
35.4339
25.516
25.4045
25.5159
25.4139
25.5458
25.4259
25.5605
25.3888
149.587
683.57
1291.56
1272.17
1309.21
1321.2
1318.85
1321.39
1301.72
1250.63
1166
1196.02
1341.92
1418.04
1423.26
1397.39
1288.55
765.855
275.649
89.6861
41.7775
28.7995
25.4724
25.5003
25.4139
25.5159
25.5057
25.5458
25.4143
25.5605
125.979
728.272
1291.55
1134.02
1107.15
1121.5
1136.44
1114.94
1082.77
1083.02
1082.92
1203.76
1378.6
1417.92
1411.54
1347.96
901.09
439.888
226.968
114.578
51.9958
31.2368
26.0674
25.4336
25.5003
25.4569
25.5159
25.488
25.5458
25.3608
112.473
772.307
1242.42
1079.21
1083.02
1079.23
1083.02
1080.07
1083.02
1082.31
1116.33
1307.64
1407.88
1413.33
1379.28
1052.65
693.724
526.024
329.393
142.372
56.2159
33.6692
27.4567
25.4773
25.4401
25.5003
25.5078
25.521
25.4578
25.5458
108.219
807.562
1105.38
1083.02
1080.5
1083.02
1080.87
1083.02
1082.72
1126.12
1199.46
1353.95
1404.62
1365.88
1068.7
794.375
748.125
649.59
365.522
122.217
48.91
34.5511
28.868
25.4706
25.4794
25.4798
25.5365
25.4918
25.5457
25.3922
109.928
831.446
1177.6
1082.32
1083.02
1082.14
1083.02
1118.09
1175.98
1225.84
1263.24
1333.68
1340.35
1101.59
856.2
841.741
864.877
699.23
309.99
73.6308
35.2369
33.8652
29.4847
25.4686
25.4751
25.4882
25.5546
25.5457
25.5236
25.5661
117.355
849.636
1289.97
1203.77
1160
1153.4
1172.58
1216.94
1253.67
1277.98
1295.48
1314.8
1205.76
934.697
887.275
972.14
976.556
675.357
182.326
34.429
25.4816
30.8719
28.953
25.4904
25.5695
25.532
25.5488
25.5152
25.5661
25.5148
130.937
865.925
1326.59
1314.81
1280.04
1255.59
1257.73
1271.28
1284.76
1296.7
1310.89
1299.78
1120.73
975.333
1060.04
1148.03
1008
456.347
71.254
25.4428
25.563
26.9988
27.088
25.458
25.7281
25.7089
25.557
25.5661
25.5565
25.5862
148.53
881.045
1306.76
1340.66
1328.56
1306.49
1290.25
1290.85
1298.49
1308.8
1313.84
1229.64
1119.21
1125.28
1192.92
1187.64
876.354
211.383
33.4215
25.563
25.4578
25.5376
25.4345
25.5176
25.853
25.8726
25.5736
25.5553
25.5862
25.5747
167.185
894.655
1272.45
1340.75
1341.05
1326.99
1309.98
1302.91
1309.57
1316.92
1314.24
1192.03
1184.44
1233.53
1264.79
1176.89
570.385
93.9724
28.8005
25.4592
25.5619
25.4355
25.5362
25.4467
25.8894
25.9546
25.5825
25.5862
25.5846
25.6044
187.89
907.303
1270.35
1332.81
1343.22
1336.57
1322.68
1315.37
1317.09
1316.95
1255.45
1238.7
1276.22
1285.56
1279.22
1051.36
340.287
72.1548
30.6144
25.581
25.5328
25.5619
25.3918
25.5368
25.7869
26.0567
25.7051
25.6554
25.6339
25.6316
210.769
921.54
1270.24
1326.87
1343.16
1339.57
1328.21
1323.31
1317.15
1257.28
1254.43
1296.53
1301.71
1300.89
1278.84
878.546
258.973
80.2285
47.3647
31.492
25.581
25.4428
25.5619
25.4458
25.5956
26.3057
26.5963
26.95
26.9013
27.5319
233.344
937.746
1270.05
1320.28
1343.32
1340.14
1330.57
1321.76
1240.19
1238.91
1302.39
1314.27
1316.93
1314.97
1236.84
695.623
261.764
153.588
103.027
55.1942
29.1898
25.5809
25.3578
25.5625
25.5579
26.8901
29.2355
31.0216
30.9654
33.6939
253.66
955.019
1269.86
1307.85
1343.15
1340.72
1334.01
1275.18
1233.46
1273.93
1317.09
1321.44
1321.54
1317.8
1092.2
594.901
356.004
292.958
208.751
106.753
40.4115
25.5175
25.5809
25.4587
25.5816
28.1444
34.2882
38.9565
38.5382
43.7651
271.375
975.158
1269.68
1256.61
1340
1333.13
1298.01
1227.99
1233.36
1290.31
1311.51
1313.75
1318.81
1271.16
953.145
601.258
508.247
456.298
346.395
183.826
58.417
25.6017
25.3778
25.5816
26.2378
31.0834
41.9906
50.6502
48.4417
55.041
288.769
999.403
1282.69
1147.11
1286.82
1258.02
1221.93
1223.06
1259.18
1276.39
1268.41
1244.62
1241.07
1173.02
954.732
805.248
714.386
622.465
477.457
259.987
79.168
26.2407
25.6017
25.4845
28.7548
37.3946
52.5571
64.4508
58.1052
64.9912
307.568
1028.29
1312.47
1121.39
1141.8
1164.12
1207.57
1244.91
1259.21
1254.97
1200.78
1149.53
1141.98
1142.08
1135.02
1062.93
945.7
784.478
566.118
301.53
97.8754
29.259
25.4639
25.6019
32.5885
47.3731
65.7301
77.8547
65.7949
72.9708
332.224
1060.39
1275.69
1123.98
1123.4
1164.1
1208.78
1224.47
1225.45
1181.9
1141.05
1139.79
1149.74
1201.01
1224.46
1209.69
1112.87
888.379
596.033
309.647
115.383
36.5343
25.6189
25.5195
35.3123
57.9433
79.583
88.7935
71.9606
80.1316
367.437
1092.23
1139.85
1120.86
1123.97
1165.69
1181.37
1179.94
1161.45
1139.51
1138.69
1139.16
1167.05
1250.5
1278.1
1266.05
1163.7
903.167
574.319
308.031
138.046
50.0703
25.807
25.619
35.8932
64.5018
90.764
97.0709
78.4832
88.5055
416.482
1119.4
1125.52
1123.97
1125.25
1147.79
1150.03
1145.06
1137.29
1137.01
1137.42
1141.93
1219
1285.96
1288.28
1284.43
1153.97
842.888
541.428
324.118
170.352
70.536
28.594
25.5923
34.7552
66.1075
96.876
104.431
86.9548
100.018
481.592
1137.78
1151.75
1121.77
1123.97
1133.36
1134.92
1135.17
1135.42
1135.68
1136.88
1162.52
1242.6
1288.28
1288.27
1273.26
1115.03
829.166
575.961
372.663
214.576
98.3813
36.4478
25.7752
32.7284
63.6076
98.6282
112.967
97.6806
115.969
565.477
1146.27
1188.9
1123.97
1127.93
1132.85
1136.84
1137.97
1137.78
1141.06
1153.37
1185.46
1228.3
1253.46
1255.26
1226.84
1147.82
970.301
723.189
478.047
279.696
133.624
50.2206
27.7043
31.5906
57.819
98.4203
123.796
110.387
137.199
672.349
1147.59
1245.59
1125.71
1157.85
1158.18
1163.63
1167.28
1170.19
1175.76
1186.62
1201.23
1211.37
1213.53
1213.78
1219.21
1244.55
1240.87
1009.8
666.607
374.167
176.463
69.186
32.7995
31.8221
52.5612
97.6024
136.698
124.872
164.168
791.281
1143.44
1306.6
1221.21
1212.07
1210.17
1213.79
1218.35
1223.21
1228.88
1234.39
1236.99
1236.08
1238.38
1260.18
1298.35
1321.93
1313.62
1226.8
907.037
498.981
227.973
92.1182
41.3175
33.9834
50.6366
96.8921
151.17
141.266
196.806
892.867
1140.52
1351.13
1304.79
1278.05
1271.22
1272.42
1277.64
1284.79
1292.33
1298.07
1301.05
1303.27
1310.07
1326.79
1340.39
1336.02
1317.01
1277.51
1060.45
630.639
288.367
117.982
53.1713
39.3942
51.0317
97.836
167.016
160.543
235.076
948.615
1151.63
1376.44
1350.07
1328.8
1320.05
1320.35
1325.49
1332.99
1340.64
1346.83
1351.18
1354.06
1356.89
1358.29
1351
1332.05
1308.8
1284.83
1136.31
736.285
354.392
147.096
67.5541
48.243
53.6013
104.837
184.658
184.159
280.969
972.329
1184.18
1389.77
1374.21
1359.76
1352.05
1351.29
1354.85
1360.36
1365.88
1370.96
1375.11
1375.46
1375.26
1369.42
1357.13
1335.84
1309.35
1277.29
1158.73
804.65
417.067
179.612
84.3588
60.7906
61.6496
124.334
207.033
214.204
339.574
991.885
1217.38
1398.38
1388.17
1377.74
1370.69
1367.52
1367.06
1367.65
1368
1368.81
1369.39
1366.37
1356.7
1350.45
1346.86
1339.03
1317.7
1271.15
1150.26
838.346
467.059
214.389
105.499
78.8195
80.7835
161.027
239.886
255.579
414.291
992.827
1238.96
1405.41
1398.19
1390.16
1383.07
1376.56
1369.38
1359.87
1346.2
1326.27
1297.35
1261.61
1246.15
1245.53
1244.76
1270.91
1284.82
1256.95
1128.68
841.235
499.58
250.514
135.548
106.927
118.841
219.084
290.801
316.149
509.656
994.369
1268.71
1411.57
1406.77
1401.11
1395.47
1389.05
1380.23
1366.86
1346.64
1318.59
1287.52
1259.8
1245.65
1244.89
1244.2
1243.5
1242.89
1241.33
1114.43
835.181
521.423
291.752
182.057
154.775
186.3
299.956
365.244
408.613
636.183
1020.43
1304.01
1415.73
1413.44
1410.37
1407.47
1404.69
1401.64
1397.17
1390.64
1383.47
1377.96
1373.71
1366.92
1359.08
1349.04
1338.46
1332.13
1333.68
1234.7
909.776
564.301
347.693
255.566
236.213
295.068
399.213
463.284
545.354
804.742
1084.87
1303.5
1416.17
1416.02
1415.84
1415.05
1414.82
1415.06
1415.53
1415.39
1415.53
1415.24
1415.61
1415.21
1414.86
1411.36
1403.24
1392.56
1379.34
1335.87
1086.64
677.83
438.294
366.489
365.14
446.159
513.262
578.924
710.684
971.798
1135.14
1213.96
1416.17
1416.18
1416.05
1416.05
1415.91
1415.91
1415.74
1415.73
1415.55
1415.99
1415.55
1415.96
1415.53
1415.48
1413.69
1406.72
1391.51
1362.4
1231.68
865.947
587.532
511.715
543.806
617.401
632.627
697.974
846.43
1043.59
1114.97
1146.37
1416.3
1416.18
1416.19
1416.05
1416.01
1415.75