/*--------------------------------*- C++ -*----------------------------------*\
| =========                 |                                                 |
| \\      /  F ield         | OpenFOAM: The Open Source CFD Toolbox           |
|  \\    /   O peration     | Version:  2.3.0                                 |
|   \\  /    A nd           | Web:      www.OpenFOAM.org                      |
|    \\/     M anipulation  |                                                 |
\*---------------------------------------------------------------------------*/
FoamFile
{
    version     2.0;
    format      ascii;
    class       surfaceScalarField;
    location    "14";
    object      phi.water;
}
// * * * * * * * * * * * * * * * * * * * * * * * * * * * * * * * * * * * * * //

dimensions      [0 3 -1 0 0 0 0];

internalField   nonuniform List<scalar> 
3650
(
0.000266127
-0.000265951
0.000474918
-0.000210516
0.000583288
-0.000108077
0.000649299
-5.95247e-05
0.000681973
-2.10617e-05
0.000666977
3.08105e-05
0.00061499
6.77527e-05
0.000531932
8.98816e-05
0.000411085
0.000118231
0.00028447
0.000121707
8.89691e-05
0.000171584
-0.000125952
0.000180482
-0.000327645
0.000181528
-0.000478345
0.000145472
-0.00061241
0.000131723
-0.000724266
0.000115143
-0.000796397
8.4231e-05
-0.000834437
5.32387e-05
-0.000835205
1.40976e-05
-0.000800008
-2.50872e-05
-0.000739791
-5.31719e-05
-0.000652623
-8.28007e-05
-0.000515512
-0.000134804
-0.000300917
-0.000215993
-0.000302021
0.000135902
-0.000421742
0.000227505
-0.000323714
0.000254845
-0.000159619
0.000281526
-9.72847e-05
0.000291623
-3.93949e-05
0.000276953
4.58455e-05
0.000238142
0.000122627
0.000185227
0.000154882
0.000113772
0.00018735
3.3596e-05
0.000194229
-1.61177e-05
0.0002159
-9.55788e-05
0.000254045
-0.000163237
0.000238783
-0.00024184
0.000210197
-0.000320349
0.000205949
-0.000366782
0.000166589
-0.000377894
0.000116835
-0.000356593
5.85939e-05
-0.000342977
1.56638e-05
-0.000315332
-6.15105e-05
-0.000279233
-0.000114337
-0.000245666
-0.000148813
-0.000212446
-0.00020093
-0.000144463
-0.000301472
-0.000465538
1.96007e-05
-0.000449694
1.58496e-05
-0.000326678
1.30793e-05
-0.000168878
1.41364e-05
-0.000116305
2.7224e-05
-6.28037e-05
6.66891e-05
1.27837e-05
7.36655e-05
0.000119634
6.44065e-05
0.00016783
4.27745e-05
0.000208228
1.12595e-05
0.000221245
7.30669e-06
0.000216594
8.33922e-06
0.000251502
1.55123e-06
0.000242609
-1.28482e-05
0.000220091
-2.63022e-05
0.000216585
-2.5549e-05
0.000179582
4.3511e-06
0.000118627
3.74562e-05
4.53391e-05
8.50721e-05
-2.76406e-05
0.000116424
-9.65539e-05
0.000122122
-0.000138244
0.000113765
-0.000164621
7.97637e-05
-0.000189982
1.06982e-05
-0.000258612
-0.000470789
-2.21565e-05
-0.000429012
-2.34776e-05
-0.000326814
-3.43431e-05
-0.000163549
-4.98833e-05
-0.000107021
-7.43577e-05
-3.1845e-05
-8.15366e-05
3.33587e-05
-6.82406e-05
0.000108235
-5.23941e-05
0.000152834
-2.97873e-05
0.000184893
-8.59183e-06
0.000197607
2.01447e-05
0.000184682
4.85373e-05
0.000221204
8.23647e-05
0.00020808
0.000128298
0.000173916
0.000185905
0.000157068
0.000231133
0.000139424
0.000262918
0.000101464
0.000274234
5.55952e-05
0.000285517
-7.94019e-06
0.000290767
-6.69072e-05
0.000279408
-0.000100117
0.000246216
-0.000128636
0.000167275
-0.00014481
6.72889e-05
-0.000194453
-0.000419835
-3.66127e-05
-0.000392331
-3.98305e-05
-0.000319766
-5.49425e-05
-0.000143855
-8.14214e-05
-7.91589e-05
-0.000102718
-5.89772e-06
-0.000125266
6.40596e-05
-0.000128427
0.000116987
-0.000113685
0.000140607
-8.73649e-05
0.000159325
-4.55468e-05
0.000155078
3.26032e-06
0.000133824
5.58972e-05
0.000167311
0.000102917
0.000160842
0.000150035
0.000127959
0.000208171
0.000101235
0.000270625
8.12182e-05
0.000320495
5.81732e-05
0.000343082
4.27067e-05
0.000345037
4.67974e-06
0.000346947
-3.83015e-05
0.000336734
-5.41433e-05
0.000290525
-6.08557e-05
0.000187169
-5.22467e-05
6.11297e-05
-9.97484e-05
-0.000371684
-3.17228e-05
-0.000361482
-4.06833e-05
-0.000307964
-4.24304e-05
-0.000135861
-8.70242e-05
-3.35632e-05
-0.000138182
4.70563e-05
-0.00017548
0.000106391
-0.000182979
0.0001321
-0.000169535
0.000132062
-0.000135756
0.000127661
-8.37681e-05
0.000103441
-3.17745e-05
8.08864e-05
3.66696e-05
9.81883e-05
8.66288e-05
0.000110934
0.000122835
9.27628e-05
0.000167775
5.85721e-05
0.000220294
3.28137e-05
0.000260147
2.26804e-05
0.000290267
1.89912e-05
0.000306343
-2.11952e-06
0.000308781
-2.6479e-05
0.000301911
-2.22327e-05
0.000246795
2.18972e-05
0.000129407
6.12163e-05
4.47721e-05
-3.16642e-05
-0.00033623
-2.78977e-05
-0.000332296
-4.4848e-05
-0.000290912
-2.14472e-05
-0.000157582
-6.55074e-05
8.27347e-06
-0.000118606
9.88731e-05
-0.00015295
0.000144299
-0.000164348
0.000152038
-0.000155204
0.000129009
-0.000121704
9.76914e-05
-8.06426e-05
6.40701e-05
-3.78302e-05
3.84871e-05
1.87714e-05
4.15531e-05
5.83331e-05
7.08841e-05
8.68343e-05
6.42884e-05
0.000116233
2.98589e-05
0.000144802
5.94102e-06
0.000168464
2.40427e-06
0.000196448
-4.62129e-06
0.000220401
-2.02004e-05
0.00022407
-2.21877e-05
0.000208492
4.68147e-06
0.000130438
0.000112141
2.96725e-05
0.000161694
1.543e-05
-2.89529e-05
-0.000324512
6.85074e-06
-0.000337248
1.08831e-05
-0.000295759
4.42034e-05
-0.000189004
4.18964e-05
3.02372e-06
-1.85732e-05
0.000149212
-6.92986e-05
0.000201691
-0.000102342
0.000194558
-0.000105245
0.000137566
-7.95959e-05
7.58422e-05
-5.00903e-05
3.66639e-05
-1.95891e-05
8.51327e-06
1.79893e-05
3.85054e-06
5.14895e-05
3.68677e-05
7.79757e-05
3.73437e-05
9.17088e-05
1.58813e-05
0.000100086
-1.87561e-06
0.000111277
-6.8769e-06
0.000130999
-2.11907e-05
0.000144241
-3.08509e-05
0.000144064
-1.96773e-05
0.000102332
4.88035e-05
1.96055e-05
0.000199628
-2.80312e-05
0.000204755
-4.15152e-06
-6.13301e-05
-0.000329432
5.61239e-05
-0.000392941
8.69217e-05
-0.000328539
9.05343e-05
-0.000193582
0.000145726
-5.08748e-05
0.000132927
0.000157081
6.31106e-05
0.000268014
1.15661e-08
0.000264064
-4.28939e-05
0.000187966
-5.14236e-05
8.6697e-05
-4.52577e-05
3.18624e-05
-3.0715e-05
-5.59413e-06
-9.05811e-06
-1.79751e-05
3.02674e-05
-2.70838e-06
6.02641e-05
7.06641e-06
7.17855e-05
4.08599e-06
7.35703e-05
-3.7642e-06
7.65064e-05
-9.40142e-06
8.40394e-05
-2.81825e-05
8.97477e-05
-3.78415e-05
8.50158e-05
-1.4507e-05
1.02668e-05
0.000122551
-5.17521e-05
0.000261369
-4.01654e-05
0.000190252
-3.67436e-06
-0.000103009
-0.000334802
7.1152e-05
-0.000468017
0.000103237
-0.000361896
0.000103966
-0.000196375
0.000145762
-9.04142e-05
0.000210127
9.75128e-05
0.000204519
0.00027808
0.000134552
0.000333701
3.98787e-05
0.000283556
-1.99231e-05
0.000146636
-3.80525e-05
4.9432e-05
-3.93336e-05
-4.34576e-06
-2.81599e-05
-2.94163e-05
-1.51951e-06
-2.9712e-05
2.46746e-05
-1.93669e-05
3.71778e-05
-8.53514e-06
3.87208e-05
-5.6125e-06
3.66588e-05
-7.94069e-06
3.28544e-05
-2.50123e-05
2.77286e-05
-3.43756e-05
-1.06579e-05
2.19495e-05
-9.81604e-05
0.000218974
-0.000125687
0.000288988
-4.05035e-05
9.77429e-05
-7.59214e-06
-0.000139652
-0.000343935
4.2657e-05
-0.000514404
5.65866e-05
-0.000377168
8.47273e-05
-0.000226104
9.91483e-05
-0.000104089
0.000165263
3.55965e-05
0.000197395
0.000253999
0.000171514
0.000362084
0.000109891
0.00034437
2.90624e-05
0.000224142
-5.53025e-06
7.95268e-05
-1.96687e-05
8.31921e-06
-1.72131e-05
-3.21415e-05
-8.383e-06
-3.89968e-05
7.29999e-06
-3.5373e-05
2.14537e-05
-2.30122e-05
1.98041e-05
-4.12936e-06
1.11636e-05
8.89311e-07
-3.36641e-06
-9.84526e-06
-2.11821e-05
-1.53553e-05
-7.57881e-05
7.85952e-05
-0.000137481
0.000290093
-0.000142746
0.000299531
-4.59871e-05
-3.65809e-06
-2.38477e-05
-0.000166235
-0.000366937
1.31123e-05
-0.000529252
1.14775e-05
-0.00037629
3.50179e-05
-0.000247441
4.93877e-05
-0.000117219
8.70969e-05
1.81134e-06
0.000121886
0.000230242
0.000116787
0.000374146
8.45803e-05
0.000374118
3.52486e-05
0.000266604
1.46546e-05
9.44631e-05
5.38728e-06
1.50843e-05
1.44335e-05
-4.1165e-05
2.99929e-05
-5.45817e-05
4.54461e-05
-5.12268e-05
5.98943e-05
-3.7927e-05
6.45214e-05
-8.95106e-06
5.31626e-05
1.27403e-05
2.18807e-05
2.24788e-05
-1.68795e-05
2.46124e-05
-5.2658e-05
0.000111061
-8.49206e-05
0.000326932
-8.88433e-05
0.000318484
-6.09686e-05
-3.2296e-05
-3.42804e-05
-0.000196875
-0.000400823
-6.46947e-06
-0.000524238
-1.38682e-05
-0.000367887
-7.9658e-06
-0.000249714
-1.41347e-06
-0.000122978
5.16481e-06
2.04974e-06
2.25033e-05
0.000227048
2.02535e-05
0.000385554
2.77773e-06
0.000385571
-6.20308e-07
0.000258443
2.0868e-05
6.97713e-05
4.91333e-05
-1.46467e-05
8.18557e-05
-7.43503e-05
0.000115021
-8.77034e-05
0.000140983
-7.75334e-05
0.000154961
-5.25881e-05
0.00016077
-1.56589e-05
0.000138914
3.40205e-05
8.29132e-05
7.85601e-05
2.40403e-05
8.36399e-05
-1.90697e-06
0.000133823
-1.21418e-05
0.000338659
-1.01896e-05
0.000331709
-3.39159e-05
-4.77197e-08
-1.87171e-05
-0.000212151
-0.000419473
-1.97528e-05
-0.000506344
-2.97912e-05
-0.000357261
-3.73856e-05
-0.000240452
-4.18936e-05
-0.000114955
-6.14092e-05
2.93108e-05
-6.93351e-05
0.000249445
-5.98567e-05
0.000384294
-6.29961e-05
0.000380452
-2.44811e-05
0.0002108
4.68636e-05
-2.40232e-06
0.00011717
-8.37552e-05
0.000163244
-0.000120363
0.000193552
-0.000117648
0.00021122
-9.54421e-05
0.000211332
-5.49578e-05
0.00019301
-1.73782e-06
0.000154222
7.13196e-05
0.000107353
0.000125103
5.83157e-05
0.000132732
-8.61933e-06
0.000200388
-1.54196e-05
0.000355747
6.03749e-06
0.000321354
-1.0109e-05
2.12539e-05
-3.73297e-07
-0.000225021
-0.000419813
-2.11461e-05
-0.00048494
-4.27994e-05
-0.000336161
-6.87798e-05
-0.000214613
-9.41329e-05
-8.63818e-05
-0.000124598
7.03607e-05
-0.000148739
0.000285868
-0.000142083
0.000381444
-0.000114005
0.000342557
-2.73884e-05
0.000116136
5.18793e-05
-8.21704e-05
0.000108949
-0.000140581
0.000146456
-0.00015829
0.000178073
-0.000151088
0.000191812
-0.000110322
0.000166787
-2.76089e-05
0.000113988
5.32098e-05
6.94215e-05
0.000116346
3.03576e-05
0.000164492
-3.91461e-05
0.000202517
-0.000124099
0.000285133
-0.000107363
0.000352123
-4.18135e-05
0.000258769
-2.54245e-05
-2.56986e-06
5.23196e-06
-0.00025615
-0.000413019
-1.92688e-05
-0.000464976
-4.04058e-05
-0.000315647
-6.86267e-05
-0.000188827
-0.00010133
-5.29888e-05
-0.000120368
9.5058e-05
-0.000132067
0.000305758
-0.000147601
0.0003953
-0.000139492
0.000327281
-9.26452e-05
6.83118e-05
-8.91075e-05
-8.92407e-05
-9.22874e-05
-0.000141637
-9.48881e-05
-0.000162996
-8.92266e-05
-0.000166527
-7.03783e-05
-0.000128883
-8.22537e-05
-2.99116e-06
-9.76681e-05
8.02957e-05
-0.000107779
0.000129934
-0.000134733
0.000191778
-0.000200221
0.000266441
-0.000235452
0.000320384
-0.000205751
0.000324738
-9.53495e-05
0.000144391
-6.76339e-05
-3.80551e-05
-2.63504e-05
-0.000292241
-0.000438682
-1.30838e-05
-0.000451822
-2.16066e-05
-0.000308279
-3.18502e-05
-0.000182342
-5.69987e-05
-3.04388e-05
-6.66786e-05
0.000105163
-6.01527e-05
0.000297388
-9.27032e-05
0.0004304
-0.000140903
0.000371323
-0.000211991
0.000135343
-0.000272919
-3.51124e-05
-0.000315047
-0.000108712
-0.000335009
-0.000150196
-0.000326845
-0.000171247
-0.000286011
-0.000160302
-0.000209831
-7.44666e-05
-0.000167297
4.2547e-05
-0.00015584
0.000120495
-0.000156785
0.000192794
-0.000177523
0.000286679
-0.000180956
0.000326052
-0.000152884
0.000301025
-9.34716e-05
8.67333e-05
-7.33708e-05
-5.58507e-05
-4.73914e-05
-0.000315465
-0.00048907
1.11522e-05
-0.000460964
2.48267e-05
-0.000320407
3.71319e-05
-0.000198374
3.45293e-05
-3.48307e-05
3.04009e-05
0.000105322
7.77393e-05
0.000241855
6.68716e-05
0.000437626
-1.21e-05
0.000452137
-0.000173616
0.000296596
-0.000329613
0.00012086
-0.000422908
-1.0473e-05
-0.000438133
-0.000129069
-0.000417195
-0.000187072
-0.000379358
-0.000195932
-0.000291463
-0.000161432
-0.000180261
-6.67071e-05
-0.000111326
5.13934e-05
-8.60404e-05
0.000165567
-6.77073e-05
0.00026391
-4.4029e-05
0.000299782
-3.15439e-06
0.000271424
2.028e-06
0.000106415
-5.8115e-06
-4.14199e-05
-1.67712e-05
-0.000310289
-0.000509345
2.63444e-05
-0.000488033
5.46114e-05
-0.000347968
9.04891e-05
-0.000234425
0.000111962
-6.46897e-05
0.000117789
8.74802e-05
0.000167988
0.00018481
0.000251465
0.000350013
0.000256684
0.000450734
0.000154211
0.000405899
-1.13262e-05
0.00030274
-0.000181774
0.000167353
-0.000298614
-1.41609e-05
-0.000339652
-0.000144485
-0.000336321
-0.000199013
-0.000303236
-0.000195476
-0.000209826
-0.000161389
-8.68246e-05
-7.45912e-05
2.13698e-06
7.26738e-05
5.24208e-05
0.000210538
8.1683e-05
0.000269989
0.000103746
0.000255939
7.081e-05
0.00014918
5.60871e-05
-2.1951e-05
1.29111e-05
-0.00027033
-0.000497078
1.73603e-05
-0.000507284
3.69095e-05
-0.000369408
6.31456e-05
-0.000262281
8.06018e-05
-9.25563e-05
9.81367e-05
5.90537e-05
0.000107994
0.000162155
0.000196052
0.000258277
0.000237796
0.000409144
0.000228589
0.0004204
0.000165078
0.000374447
6.34273e-05
0.000276415
-6.88077e-05
0.000114357
-0.000164214
-5.41405e-05
-0.000192171
-0.000173831
-0.000192471
-0.000197655
-0.000164116
-0.000192272
-9.0254e-05
-0.000153394
1.16806e-05
-3.6191e-05
6.08119e-05
0.000157786
7.77995e-05
0.000251125
7.78387e-05
0.000256573
5.56468e-05
0.000173642
4.89478e-05
-1.46532e-05
1.9979e-05
-0.000240586
-0.000474647
4.34985e-06
-0.000513438
4.10174e-07
-0.000369322
-3.6882e-06
-0.000261384
5.62603e-06
-0.000100968
3.7322e-05
2.76051e-05
5.42965e-05
0.000138221
9.46822e-05
0.000215284
0.000165671
0.00033907
0.000174458
0.000410584
0.000153243
0.000398166
9.44007e-05
0.000337067
-1.2701e-06
0.00020087
-7.40649e-05
1.10124e-05
-0.000128213
-0.000122976
-0.000150397
-0.000178156
-0.000145267
-0.000200426
-0.000108578
-0.000194209
-3.62265e-05
-0.000111652
4.94012e-06
0.000115321
2.68455e-05
0.000227808
3.52933e-05
0.00024729
3.83145e-05
0.00017003
3.22617e-05
-9.7929e-06
2.02202e-05
-0.000226438
-0.000454099
-1.19626e-05
-0.000504106
-2.58455e-05
-0.000358507
-3.74832e-05
-0.000250633
-2.98763e-05
-0.000100144
-1.41277e-05
2.14729e-05
1.66486e-06
0.000125598
6.17719e-07
0.00021267
3.58715e-05
0.000311484
4.82436e-05
0.000407357
2.53506e-05
0.000418102
-1.68536e-05
0.000368665
-5.94074e-05
0.000234191
-0.00010955
5.60949e-05
-0.000181389
-5.7628e-05
-0.000231571
-0.000135639
-0.000244091
-0.000191223
-0.000231679
-0.000205474
-0.000169068
-0.000169742
-7.14499e-05
1.96628e-05
-2.52966e-05
0.000180396
5.83793e-06
0.000215231
3.36396e-05
0.000142914
3.38576e-05
-9.13969e-06
2.8046e-05
-0.000219689
-0.000428289
-1.53983e-05
-0.000489686
-3.38777e-05
-0.000343
-5.62691e-05
-0.000230462
-5.61795e-05
-9.43975e-05
-5.96291e-05
3.30135e-05
-5.62709e-05
0.000132261
-6.69841e-05
0.000228631
-7.61208e-05
0.000324425
-6.71925e-05
0.00040131
-6.57052e-05
0.000413309
-6.48074e-05
0.00036334
-7.2565e-05
0.000238676
-0.000107929
8.97201e-05
-0.000184715
1.05447e-05
-0.000253331
-7.00956e-05
-0.000297306
-0.000149766
-0.00030201
-0.000198818
-0.000277388
-0.000193711
-0.000150912
-0.000106283
-3.95174e-05
6.81556e-05
1.12716e-05
0.000163604
4.45842e-05
0.000110852
3.26023e-05
3.48612e-06
2.60134e-05
-0.000213549
-0.000403089
-1.80051e-05
-0.000472394
-3.68271e-05
-0.000325517
-6.54064e-05
-0.000204111
-7.53623e-05
-8.41063e-05
-9.00606e-05
4.97849e-05
-9.53508e-05
0.000144391
-9.89009e-05
0.000240568
-9.5989e-05
0.000324633
-7.37111e-05
0.000382017
-5.42017e-05
0.0003938
-3.91333e-05
0.000346694
-3.77847e-05
0.000235716
-4.43634e-05
9.81138e-05
-5.8349e-05
3.91443e-05
-9.11573e-05
-2.50623e-05
-0.000153799
-9.93714e-05
-0.000217012
-0.000150059
-0.000249647
-0.000163884
-0.000197158
-0.00015938
-4.83478e-05
-7.75898e-05
2.53435e-05
9.06669e-05
4.29456e-05
9.25228e-05
2.3083e-05
2.12261e-05
2.33476e-05
-0.000215089
-0.00037945
-1.45802e-05
-0.000457387
-2.98832e-05
-0.000310797
-6.11029e-05
-0.000174436
-7.48472e-05
-7.18297e-05
-9.14925e-05
6.63226e-05
-0.000102291
0.000156782
-0.000100465
0.00024371
-8.27159e-05
0.000309131
-4.14223e-05
0.000341765
1.01898e-05
0.000342583
5.21584e-05
0.000305844
6.49899e-05
0.000224999
6.54863e-05
0.000106001
9.1244e-05
3.38554e-05
0.000104494
-2.64252e-05
8.82163e-05
-7.8366e-05
2.52064e-05
-0.000102791
-4.6731e-05
-0.000112456
-9.15655e-05
-0.000121645
-6.12068e-05
-0.000106387
4.39556e-06
2.78775e-05
3.40616e-06
9.26292e-05
-2.50745e-06
2.5887e-05
1.41727e-05
-0.000233361
-0.000365542
-1.15456e-05
-0.000445585
-2.34323e-05
-0.00029927
-5.49122e-05
-0.000144074
-6.62463e-05
-5.92547e-05
-7.71846e-05
7.74563e-05
-9.13378e-05
0.000170425
-9.04755e-05
0.000243369
-6.18368e-05
0.000281111
-8.68435e-06
0.00028797
6.23031e-05
0.000269794
0.000129435
0.000237912
0.000172368
0.000182311
0.000190552
9.03569e-05
0.000214338
2.21003e-05
0.000223788
-2.52465e-05
0.000207425
-5.59354e-05
0.000174655
-7.08417e-05
0.000112754
-6.78311e-05
4.09862e-05
-6.46834e-05
-7.15881e-06
-6.33045e-05
-4.7989e-06
2.41664e-05
-2.60725e-05
0.000114449
-1.19708e-05
1.15714e-05
6.48897e-06
-0.000252799
-0.000359129
-6.44132e-06
-0.000438695
-1.40199e-05
-0.000292023
-4.51789e-05
-0.000114207
-5.41198e-05
-4.77452e-05
-5.23846e-05
7.75031e-05
-6.38353e-05
0.000181232
-5.96728e-05
0.000239751
-3.72157e-05
0.000258936
1.43204e-06
0.000246969
5.73797e-05
0.000209055
0.000131062
0.000158392
0.000204795
0.000102807
0.000252853
3.81544e-05
0.000281728
-5.92395e-06
0.00028756
-2.64261e-05
0.000271716
-3.53742e-05
0.000235407
-2.96208e-05
0.000186964
-2.12201e-05
0.000120619
-1.23204e-05
4.53754e-05
5.97695e-06
-2.24408e-05
8.92339e-05
-5.13758e-05
0.000141211
-6.66615e-06
-3.37789e-05
5.98297e-06
-0.00026518
-0.000353003
-4.63331e-06
-0.000433878
-9.96802e-06
-0.000286679
-4.13274e-05
-8.51988e-05
-5.11256e-05
-3.61446e-05
-3.05435e-05
5.93177e-05
-3.18859e-05
0.000183303
-3.31241e-05
0.000241994
-3.00372e-05
0.000255867
-1.27784e-05
0.000227409
4.1078e-05
0.000150618
0.00012525
6.78531e-05
0.0002047
1.62901e-05
0.000251955
-1.3292e-05
0.000270676
-2.51636e-05
0.00026768
-2.10872e-05
0.000250439
-1.36754e-05
0.000225111
3.38749e-07
0.000183358
2.38107e-05
0.000104105
6.51483e-05
-7.68447e-06
0.000112501
-8.73968e-05
0.000165275
-7.34123e-05
0.000126602
-1.70831e-05
-9.13688e-05
8.28512e-07
-0.000285086
-0.000352655
-3.81335e-06
-0.000430474
-8.42997e-06
-0.000281658
-3.29349e-05
-6.43881e-05
-4.28853e-05
-2.6083e-05
-1.58985e-05
3.54796e-05
-4.02757e-06
0.000174644
-7.12024e-06
0.000245119
-8.40393e-06
0.000257022
3.20397e-06
0.000216087
6.50262e-05
8.63467e-05
0.000136434
-5.71358e-06
0.000186215
-3.43914e-05
0.000210082
-3.70228e-05
0.000219055
-3.20565e-05
0.0002194
-1.66353e-05
0.000197224
1.50793e-05
0.000144866
5.81366e-05
5.44192e-05
0.0001154
-5.24023e-05
0.000173921
-0.000139072
0.000198389
-0.000153617
0.000176619
-7.09338e-05
4.15256e-05
-2.83938e-05
-0.000138227
-8.69596e-06
-0.000305609
-0.000361859
-6.9544e-06
-0.000425031
-1.17656e-05
-0.000276195
-2.72435e-05
-5.18264e-05
-3.94988e-05
-1.4437e-05
-2.44045e-05
2.25911e-05
-1.21165e-06
0.000155982
7.30835e-06
0.000238389
1.47905e-05
0.000250373
3.61765e-05
0.00019592
9.27096e-05
3.17722e-05
0.000128202
-3.91818e-05
0.000147129
-5.13995e-05
0.000155935
-4.33962e-05
0.000146402
-1.91459e-05
0.000109064
2.274e-05
4.16617e-05
8.30607e-05
-4.76889e-05
0.000150645
-0.000128016
0.000200923
-0.000170391
0.000218408
-0.000186803
0.000212501
-0.000152659
0.000140638
-8.31397e-05
-3.21161e-05
-4.90029e-05
-0.000177093
-3.16145e-05
-0.00032307
-0.000393781
-1.03193e-05
-0.000416082
-1.68288e-05
-0.000269025
-2.56646e-05
-4.3864e-05
-4.29042e-05
1.89414e-06
-3.91307e-05
1.93615e-05
-1.42656e-05
0.000134325
-3.28935e-07
0.000228778
1.27557e-05
0.000240627
5.01527e-05
0.00016038
8.19322e-05
3.58711e-06
8.45276e-05
-4.08155e-05
7.69911e-05
-4.38385e-05
5.30116e-05
-1.97793e-05
6.87481e-06
2.56693e-05
-5.3534e-05
8.32701e-05
-0.000109946
0.000141987
-0.00014636
0.000190173
-0.000157441
0.0002135
-0.000157892
0.000219192
-0.000140786
0.000194914
-8.29792e-05
8.39982e-05
-7.65624e-05
-3.67865e-05
-5.05623e-05
-0.000203706
-3.99216e-05
-0.000335644
-0.000435439
-1.04616e-05
-0.000406215
-1.73812e-05
-0.000261758
-2.07221e-05
-4.03636e-05
-4.30323e-05
2.23688e-05
-4.69232e-05
2.35042e-05
-3.10463e-05
0.000120004
-1.99349e-05
0.000222089
-6.35041e-06
0.000231779
2.44308e-05
0.000132539
1.92801e-05
8.39236e-06
-1.38154e-06
-2.24253e-05
-2.33766e-05
-2.22304e-05
-5.5846e-05
1.16226e-05
-9.46764e-05
6.32321e-05
-0.000124415
0.000113272
-0.000138843
0.000157692
-0.000138003
0.000189967
-0.000127084
0.000201961
-9.96825e-05
0.000191728
-4.31327e-05
0.000138896
-6.29398e-06
4.9824e-05
-1.28055e-05
-2.52269e-05
-6.01219e-06
-0.000207043
-1.68261e-05
-0.000327923
-0.000453203
-9.79651e-06
-0.00039632
-1.7395e-05
-0.00025427
-1.59204e-05
-4.1894e-05
-4.39747e-05
4.76861e-05
-5.28528e-05
3.24936e-05
-3.39553e-05
0.000101581
-1.88802e-05
0.000209534
-1.15462e-05
0.000227304
-1.16411e-05
0.000133915
-4.21592e-05
3.69782e-05
-6.93572e-05
3.86285e-06
-9.22606e-05
-2.64512e-07
-0.000111141
2.87667e-05
-0.000126114
7.7888e-05
-0.000132642
0.000120256
-0.000127864
0.000152771
-0.00010675
0.000168827
-7.42378e-05
0.000169064
-3.38804e-05
0.000151637
2.97386e-06
0.000102783
5.56727e-06
4.88173e-05
2.50098e-05
-4.67955e-05
2.6123e-05
-0.000204017
1.26301e-06
-0.000302682
-0.000452313
-1.00044e-05
-0.000385628
-1.97837e-05
-0.000244846
-1.57472e-05
-4.54877e-05
-4.36947e-05
7.25664e-05
-5.61532e-05
4.52211e-05
-3.29686e-05
7.80925e-05
1.75011e-06
0.000175784
8.92495e-06
0.000220687
-1.18599e-05
0.000153766
-4.6956e-05
7.2098e-05
-7.69283e-05
3.34586e-05
-0.000103783
2.55949e-05
-0.000121458
4.52631e-05
-0.000123278
7.92142e-05
-0.000112097
0.000109422
-8.85485e-05
0.000129719
-6.03837e-05
0.000140607
-3.40722e-05
0.00014251
-1.59474e-05
0.000132964
-1.51397e-05
0.000101168
-1.12068e-05
4.51405e-05
3.1839e-05
-8.97789e-05
2.91638e-05
-0.000199996
8.06219e-06
-0.000281841
-0.000443463
-1.07685e-05
-0.000374802
-2.14361e-05
-0.000234711
-1.47309e-05
-5.14147e-05
-3.69559e-05
9.15229e-05
-4.84489e-05
5.65929e-05
-3.0882e-05
6.01015e-05
1.9594e-05
0.000125305
3.94667e-05
0.000201115
2.13374e-05
0.000170545
-7.69486e-06
0.000101911
-3.39921e-05
5.99977e-05
-6.22974e-05
5.33178e-05
-8.52883e-05
6.75439e-05
-8.66461e-05
8.04567e-05
-7.05643e-05
9.36797e-05
-5.31054e-05
0.000112033
-4.41656e-05
0.000131227
-3.92754e-05
0.000136982
-3.90481e-05
0.000131236
-3.82382e-05
9.89397e-05
-5.10786e-06
1.15487e-05
1.92012e-05
-0.000111498
1.6409e-05
-0.000196814
7.19195e-06
-0.000274142
-0.000436082
-9.32532e-06
-0.000365641
-2.09837e-05
-0.000223923
-5.06909e-06
-6.7999e-05
-2.55338e-05
0.000108902
-4.23425e-05
7.25781e-05
-3.49866e-05
5.31663e-05
6.00686e-06
8.45336e-05
4.37134e-05
0.000163512
3.85816e-05
0.000173002
1.92892e-05
0.000120602
3.39274e-06
7.6319e-05
-1.57798e-05
7.20243e-05
-3.38644e-05
8.52919e-05
-4.43348e-05
9.05337e-05
-4.68691e-05
9.59148e-05
-5.26537e-05
0.00011728
-5.92125e-05
0.000136974
-6.56409e-05
0.000141913
-6.32858e-05
0.00012791
-3.71617e-05
7.21324e-05
5.42269e-06
-3.05322e-05
1.45759e-05
-0.00011974
6.36444e-06
-0.000190278
4.5413e-06
-0.00027322
-0.00043189
-3.5938e-06
-0.00036174
-1.31707e-05
-0.000214867
1.37161e-05
-9.58552e-05
5.12453e-07
0.000118986
-3.28252e-05
0.000104274
-3.63016e-05
5.72195e-05
-1.20515e-05
6.07512e-05
3.45335e-05
0.000116661
4.55382e-05
0.000160768
3.79683e-05
0.00012606
2.89215e-05
8.55544e-05
1.42098e-05
8.58937e-05
-3.38095e-06
0.000102068
-2.40286e-05
0.000110048
-4.53174e-05
0.000115881
-6.44219e-05
0.000135008
-7.59868e-05
0.000147149
-7.78068e-05
0.000142335
-5.7861e-05
0.00010725
-2.33156e-05
3.76975e-05
-9.68056e-07
-5.15183e-05
-1.12114e-06
-0.000121104
-9.86349e-06
-0.000186594
1.66348e-06
-0.00028523
-0.000430367
8.1848e-07
-0.000362049
-6.12393e-06
-0.000208883
2.06395e-05
-0.000122112
2.70222e-05
0.000111441
-8.86557e-06
0.000137497
-2.96013e-05
7.80738e-05
-1.65671e-05
4.82099e-05
2.05976e-05
7.99324e-05
4.17904e-05
0.000139552
4.32674e-05
0.000123121
3.59836e-05
9.23625e-05
1.58622e-05
0.000104291
-8.44165e-06
0.000124566
-3.29344e-05
0.000132773
-5.7216e-05
0.000138273
-7.28633e-05
0.000148546
-7.93328e-05
0.000150778
-6.6562e-05
0.000127534
-3.51617e-05
7.39359e-05
-1.25961e-05
1.20877e-05
-1.03809e-05
-5.88084e-05
-1.92033e-05
-0.000118276
-1.46804e-05
-0.000196233
7.74961e-07
-0.000300753
-0.000429492
-2.81936e-07
-0.000361686
-1.08076e-05
-0.000200231
7.08328e-06
-0.000138274
4.25195e-05
7.62806e-05
2.88265e-05
0.000149097
-3.12444e-06
0.000108496
-5.57221e-06
5.04656e-05
1.20773e-05
6.35139e-05
2.56937e-05
0.000126063
2.50417e-05
0.000123865
4.11131e-06
0.00011128
-2.20158e-05
0.000128101
-4.02541e-05
0.000140583
-5.23752e-05
0.000142584
-6.21153e-05
0.000145315
-6.95854e-05
0.000151103
-6.60214e-05
0.000143014
-4.94749e-05
0.000106033
-3.10138e-05
5.06538e-05
-2.23256e-05
-3.38442e-06
-2.63686e-05
-6.10252e-05
-2.71537e-05
-0.000124177
-1.13447e-05
-0.000214619
8.08271e-07
-0.000312858
-0.000429196
-7.58163e-06
-0.000354146
-1.97095e-05
-0.000188446
-1.02698e-05
-0.000145057
5.66568e-05
8.43232e-06
6.44215e-05
0.000138586
3.99434e-05
0.000130885
1.83362e-05
7.15841e-05
1.26031e-05
6.91207e-05
1.32578e-05
0.000125613
3.47711e-06
0.000133325
-2.00376e-05
0.000133104
-3.73389e-05
0.000143422
-4.56063e-05
0.000146955
-4.9781e-05
0.000144461
-5.35178e-05
0.000145933
-5.91554e-05
0.000152174
-5.20847e-05
0.000132297
-4.07636e-05
9.2586e-05
-3.38444e-05
4.05567e-05
-2.61853e-05
-1.26298e-05
-1.65285e-05
-7.15491e-05
-1.85105e-06
-0.000138013
6.15605e-06
-0.000222548
7.4857e-06
-0.000315182
-0.000422842
-1.01374e-05
-0.000344145
-2.23315e-05
-0.000175996
-2.3257e-05
-0.000144121
4.6516e-05
-5.82565e-05
6.84399e-05
0.000116249
6.00881e-05
0.000136951
3.48586e-05
9.44711e-05
1.66286e-05
8.66859e-05
9.46643e-06
0.000132658
-5.5505e-06
0.000147901
-2.25586e-05
0.00014883
-3.26712e-05
0.000151979
-3.41381e-05
0.000147272
-3.31985e-05
0.000142383
-4.11871e-05
0.000150651
-4.5084e-05
0.00015457
-3.95867e-05
0.0001277
-2.96271e-05
8.37278e-05
-1.94796e-05
3.21211e-05
-5.2421e-06
-2.48365e-05
8.46564e-06
-8.36479e-05
1.89653e-05
-0.00014684
2.18599e-05
-0.000224431
1.65294e-05
-0.000309766
-0.000406884
-9.60187e-06
-0.000335036
-2.50134e-05
-0.000161601
-3.53563e-05
-0.000134736
1.39764e-06
-8.97103e-05
5.03865e-05
7.01909e-05
5.90203e-05
0.000128161
4.47564e-05
0.00010548
3.19649e-05
9.80202e-05
2.85861e-05
0.000135362
1.64073e-05
0.000159032
3.35559e-06
0.000160563
-1.19845e-06
0.000155919
7.94246e-07
0.000145136
-2.3042e-06
0.000144301
-1.71212e-05
0.000162339
-1.85684e-05
0.000157066
-1.28852e-05
0.000123903
-5.54624e-06
7.85389e-05
4.03684e-07
2.84588e-05
7.26956e-06
-2.96414e-05
1.61056e-05
-9.06765e-05
2.16844e-05
-0.000151
2.52709e-05
-0.000226422
1.75707e-05
-0.00030143
-0.000390138
-1.13339e-05
-0.000323853
-2.92832e-05
-0.000144798
-5.41433e-05
-0.000109671
-4.31944e-05
-9.78572e-05
3.86394e-05
-8.41142e-06
8.06023e-05
8.81316e-05
8.65933e-05
9.84162e-05
8.3044e-05
9.84887e-05
8.85071e-05
0.000127801
8.27706e-05
0.000162752
7.23318e-05
0.000170337
6.39168e-05
0.000164559
5.83284e-05
0.000150927
4.71602e-05
0.000153377
3.58517e-05
0.000171367
3.0372e-05
0.00016373
2.72155e-05
0.000129656
2.37756e-05
8.49676e-05
2.26349e-05
3.24298e-05
2.62139e-05
-3.04442e-05
3.16347e-05
-9.36362e-05
3.23694e-05
-0.000149837
3.35182e-05
-0.000225929
2.0342e-05
-0.000288681
-0.000371461
-8.49088e-06
-0.000314929
-1.72269e-05
-0.00013552
-4.53302e-05
-8.3428e-05
-5.88517e-05
-8.41697e-05
2.30187e-06
-6.55054e-05
9.09532e-05
2.1582e-06
0.000145686
4.4763e-05
0.000170227
7.20939e-05
0.000186914
0.000109154
0.000186118
0.000161203
0.000172139
0.000183276
0.00014807
0.000188855
0.000122093
0.000177305
9.937e-05
0.00017444
8.80991e-05
0.00018238
8.02297e-05
0.000172946
7.15531e-05
0.00014157
6.38869e-05
9.64211e-05
5.85772e-05
4.19558e-05
5.62795e-05
-2.43417e-05
5.19339e-05
-8.56447e-05
4.66702e-05
-0.000142562
4.16366e-05
-0.00021887
2.47671e-05
-0.000272929
-0.000348731
-3.1435e-06
-0.000311711
6.0709e-06
-0.000145196
1.11029e-05
-8.81237e-05
3.73005e-06
-7.67047e-05
1.19389e-05
-7.33285e-05
7.25035e-05
-5.68386e-05
0.000140917
-2.21075e-05
0.000193534
2.06966e-05
0.000234638
6.79794e-05
0.000261756
0.000132949
0.000264727
0.000179944
0.000248703
0.000205331
0.000213984
0.000212357
0.000174024
0.000214162
0.000145475
0.000210859
0.000126488
0.000194263
0.000114255
0.000157552
0.000103987
0.000111116
9.47398e-05
5.62499e-05
8.54484e-05
-8.97446e-06
7.48083e-05
-7.0053e-05
6.68465e-05
-0.000131318
5.31743e-05
-0.000204424
3.06495e-05
-0.000252855
-0.000321902
-2.29631e-07
-0.00031112
1.99609e-05
-0.000164671
5.04579e-05
-0.000118326
7.1118e-05
-9.9093e-05
8.10556e-05
-8.51791e-05
9.19631e-05
-6.92438e-05
0.000116726
-4.70672e-05
0.000156795
-1.9711e-05
0.000204269
2.0365e-05
0.000261093
7.64196e-05
0.000297022
0.000143677
0.000312649
0.000190098
0.000309313
0.000216621
0.000290913
0.000233394
0.000264553
0.000238686
0.000231626
0.000229342
0.000200266
0.000192912
0.000178612
0.000138138
0.000162407
8.01126e-05
0.000144669
1.5281e-05
0.000126032
-4.76773e-05
0.000107952
-0.000112613
7.97846e-05
-0.000177733
4.11239e-05
-0.000218285
-0.000285355
7.76076e-08
-0.000311205
1.31458e-05
-0.000176637
4.04502e-05
-0.000144911
6.95585e-05
-0.000129353
9.05434e-05
-0.000108868
0.000105192
-8.77147e-05
0.000113394
-5.92325e-05
0.000126391
-3.57272e-05
0.000156036
-1.07563e-05
0.000207907
2.39459e-05
0.00026529
8.66492e-05
0.0002971
0.000160115
0.000303295
0.000211916
0.000296729
0.000241288
0.000287768
0.000249898
0.000275565
0.000244923
0.000251257
0.000221134
0.000224199
0.000170337
0.000198014
0.00010935
0.000171483
4.37378e-05
0.000142384
-1.90745e-05
0.00011547
-8.75318e-05
7.9713e-05
-0.000144776
4.00015e-05
-0.000182363
-0.00024812
-2.62093e-06
-0.000309027
-3.74826e-06
-0.000175437
-6.41391e-06
-0.000145165
-5.59558e-06
-0.000134059
1.06181e-05
-0.000127505
4.04058e-05
-0.000118693
7.39115e-05
-9.34185e-05
9.5803e-05
-5.97187e-05
0.000119655
-3.69716e-05
0.000146896
-4.76862e-06
0.000188369
4.55205e-05
0.000228782
0.000121748
0.000248692
0.000195495
0.00025118
0.000241106
0.000247856
0.000255143
0.000242437
0.000252415
0.000229777
0.000235522
0.000211619
0.000189734
0.00018672
0.000133881
0.000158336
7.00852e-05
0.000128332
7.29144e-06
9.74262e-05
-5.96203e-05
5.75016e-05
-0.00010844
2.92199e-05
-0.000156415
-0.00021915
-1.11503e-05
-0.000299075