/*--------------------------------*- C++ -*----------------------------------*\
| =========                 |                                                 |
| \\      /  F ield         | OpenFOAM: The Open Source CFD Toolbox           |
|  \\    /   O peration     | Version:  2.3.0                                 |
|   \\  /    A nd           | Web:      www.OpenFOAM.org                      |
|    \\/     M anipulation  |                                                 |
\*---------------------------------------------------------------------------*/
FoamFile
{
    version     2.0;
    format      ascii;
    class       volScalarField;
    location    "14";
    object      pMean;
}
// * * * * * * * * * * * * * * * * * * * * * * * * * * * * * * * * * * * * * //

dimensions      [1 -1 -2 0 0 0 0];

internalField   nonuniform List<scalar> 
1875
(
107140
107126
107095
107069
107051
107042
107040
107043
107047
107051
107053
107053
107050
107046
107039
107032
107025
107021
107021
107028
107042
107065
107095
107128
107143
106921
106901
106876
106858
106847
106845
106848
106854
106861
106866
106869
106869
106866
106862
106856
106849
106841
106834
106831
106832
106840
106855
106877
106904
106924
106772
106762
106753
106745
106741
106741
106743
106747
106750
106753
106754
106754
106752
106750
106746
106741
106737
106733
106732
106732
106736
106743
106752
106763
106772
106656
106652
106646
106641
106638
106636
106636
106637
106638
106639
106639
106638
106636
106634
106632
106630
106628
106627
106628
106631
106636
106642
106648
106654
106660
106560
106558
106555
106551
106548
106545
106544
106543
106543
106543
106543
106543
106542
106541
106540
106540
106539
106540
106541
106545
106549
106555
106560
106564
106567
106461
106460
106458
106455
106451
106448
106445
106444
106443
106443
106443
106443
106444
106444
106444
106443
106443
106444
106446
106450
106455
106460
106465
106468
106470
106363
106363
106361
106358
106354
106351
106348
106347
106346
106345
106345
106345
106346
106346
106347
106347
106347
106347
106349
106352
106355
106360
106365
106368
106368
106260
106259
106258
106255
106252
106248
106245
106243
106242
106241
106240
106239
106239
106240
106240
106240
106240
106240
106241
106243
106247
106250
106254
106256
106257
106154
106153
106152
106150
106147
106143
106140
106138
106136
106134
106133
106132
106131
106130
106130
106129
106129
106130
106131
106133
106136
106139
106142
106144
106145
106042
106042
106041
106039
106037
106034
106031
106029
106027
106025
106023
106021
106019
106018
106017
106015
106015
106015
106016
106018
106021
106024
106026
106028
106029
105929
105928
105927
105926
105924
105922
105920
105918
105916
105913
105911
105908
105906
105905
105904
105903
105902
105902
105902
105904
105906
105908
105909
105911
105912
105813
105812
105811
105810
105809
105807
105806
105804
105801
105799
105795
105792
105790
105789
105789
105789
105790
105791
105791
105792
105793
105793
105794
105796
105797
105699
105698
105697
105696
105694
105693
105692
105690
105688
105685
105682
105679
105677
105675
105676
105678
105680
105681
105682
105683
105683
105683
105684
105686
105687
105585
105584
105583
105581
105580
105579
105578
105577
105575
105573
105571
105569
105567
105567
105567
105568
105571
105572
105573
105574
105574
105575
105576
105578
105579
105472
105471
105470
105469
105468
105467
105467
105466
105465
105464
105463
105461
105461
105461
105461
105462
105464
105465
105466
105467
105468
105469
105470
105472
105472
105362
105361
105360
105358
105357
105357
105358
105358
105358
105357
105356
105355
105355
105355
105356
105357
105359
105360
105361
105362
105363
105364
105365
105366
105367
105254
105254
105252
105251
105250
105250
105251
105253
105253
105252
105250
105248
105248
105249
105251
105253
105255
105257
105258
105259
105260
105261
105262
105262
105263
105148
105147
105146
105145
105144
105144
105145
105146
105146
105145
105143
105141
105140
105142
105144
105147
105150
105153
105155
105156
105157
105158
105159
105159
105160
105041
105040
105039
105038
105037
105037
105036
105036
105036
105035
105034
105033
105033
105035
105037
105041
105044
105048
105050
105052
105053
105054
105054
105055
105055
104934
104933
104932
104931
104930
104929
104928
104928
104927
104926
104925
104925
104926
104928
104931
104935
104938
104941
104944
104945
104946
104947
104947
104949
104949
104828
104827
104826
104826
104825
104824
104823
104822
104821
104820
104819
104819
104821
104823
104826
104829
104832
104835
104837
104838
104839
104839
104840
104841
104842
104725
104724
104723
104722
104721
104720
104719
104718
104717
104716
104715
104715
104716
104718
104720
104723
104725
104728
104730
104731
104732
104732
104733
104734
104735
104623
104622
104621
104620
104619
104618
104617
104616
104615
104613
104612
104612
104612
104612
104614
104616
104618
104621
104622
104623
104624
104624
104625
104626
104626
104520
104520
104519
104519
104518
104516
104515
104514
104512
104510
104509
104507
104506
104506
104507
104508
104510
104511
104513
104513
104514
104515
104516
104516
104517
104416
104416
104415
104415
104414
104412
104410
104408
104407
104404
104402
104400
104398
104398
104398
104399
104400
104401
104402
104403
104404
104405
104406
104407
104408
104308
104308
104308
104308
104306
104305
104303
104301
104298
104296
104293
104291
104289
104289
104289
104289
104290
104292
104293
104294
104295
104296
104297
104298
104299
104199
104199
104199
104198
104197
104196
104194
104192
104189
104187
104185
104183
104181
104180
104180
104181
104182
104184
104185
104186
104186
104187
104188
104189
104190
104090
104090
104089
104089
104088
104087
104085
104083
104081
104079
104077
104075
104074
104073
104073
104074
104074
104075
104076
104077
104077
104078
104079
104081
104081
103981
103981
103980
103980
103979
103978
103977
103975
103973
103972
103970
103968
103967
103966
103966
103966
103966
103966
103967
103967
103968
103969
103971
103972
103972
103872
103872
103871
103871
103870
103869
103868
103867
103865
103864
103862
103861
103859
103858
103858
103858
103858
103858
103858
103859
103860
103862
103863
103864
103865
103764
103763
103763
103762
103761
103761
103760
103758
103757
103756
103754
103753
103752
103752
103751
103751
103751
103752
103752
103753
103755
103756
103758
103759
103760
103656
103656
103655
103654
103653
103652
103651
103650
103649
103648
103647
103647
103646
103646
103646
103647
103647
103648
103649
103651
103652
103654
103655
103656
103657
103549
103548
103547
103546
103545
103544
103543
103543
103542
103542
103541
103541
103541
103541
103542
103543
103545
103546
103548
103549
103551
103552
103554
103554
103554
103442
103441
103441
103440
103439
103438
103437
103436
103436
103436
103435
103436
103436
103437
103438
103440
103441
103443
103445
103447
103449
103450
103451
103451
103451
103336
103335
103335
103334
103333
103332
103331
103331
103330
103330
103330
103330
103331
103332
103333
103335
103337
103339
103341
103343
103344
103345
103346
103346
103346
103230
103230
103229
103229
103228
103227
103226
103225
103224
103224
103223
103224
103225
103226
103228
103229
103231
103233
103235
103236
103238
103238
103239
103239
103239
103124
103124
103123
103123
103122
103121
103120
103119
103118
103117
103117
103117
103118
103120
103121
103122
103124
103126
103127
103128
103130
103130
103131
103131
103131
103018
103018
103018
103017
103016
103015
103014
103013
103012
103011
103011
103011
103012
103012
103013
103014
103016
103017
103018
103019
103021
103021
103022
103022
103022
102912
102912
102912
102911
102910
102910
102909
102908
102907
102906
102905
102905
102905
102905
102906
102906
102907
102908
102909
102910
102911
102912
102912
102912
102912
102807
102806
102806
102805
102805
102804
102803
102802
102801
102800
102799
102798
102797
102797
102798
102799
102799
102800
102800
102801
102801
102801
102802
102802
102803
102700
102700
102700
102699
102699
102698
102697
102696
102695
102694
102692
102691
102690
102690
102691
102691
102692
102692
102692
102692
102692
102693
102693
102694
102694
102594
102593
102593
102593
102592
102592
102591
102590
102589
102588
102586
102585
102584
102584
102584
102584
102584
102584
102584
102584
102585
102585
102586
102586
102587
102486
102486
102486
102485
102485
102484
102484
102483
102482
102481
102480
102479
102478
102478
102478
102478
102477
102477
102477
102477
102478
102478
102479
102480
102480
102379
102379
102378
102377
102377
102376
102376
102375
102374
102374
102373
102373
102372
102372
102372
102371
102371
102371
102371
102372
102372
102373
102374
102374
102374
102270
102270
102270
102269
102269
102268
102268
102267
102267
102266
102266
102266
102265
102265
102265
102265
102265
102265
102265
102266
102266
102267
102268
102268
102268
102162
102162
102162
102161
102161
102160
102160
102159
102159
102158
102158
102158
102158
102158
102158
102158
102158
102158
102158
102159
102159
102160
102160
102161
102161
102054
102054
102054
102053
102053
102052
102051
102051
102051
102050
102050
102050
102050
102050
102050
102051
102051
102051
102051
102051
102052
102052
102053
102053
102053
101946
101946
101945
101945
101944
101943
101943
101943
101942
101942
101942
101942
101942
101942
101942
101943
101943
101943
101943
101944
101944
101944
101945
101945
101945
101838
101838
101837
101837
101836
101836
101836
101835
101835
101835
101835
101835
101835
101835
101835
101835
101835
101835
101835
101836
101836
101836
101837
101837
101838
101730
101730
101729
101729
101728
101728
101728
101727
101727
101727
101727
101727
101727
101727
101727
101727
101727
101727
101727
101728
101728
101729
101729
101730
101730
101621
101621
101621
101620
101620
101619
101619
101619
101619
101619
101619
101619
101618
101618
101618
101618
101619
101619
101620
101620
101621
101621
101622
101622
101623
101513
101513
101512
101512
101511
101510
101510
101510
101509
101509
101509
101509
101509
101509
101509
101510
101511
101512
101513
101514
101514
101515
101515
101515
101516
101404
101403
101403
101403
101402
101402
101401
101400
101400
101399
101399
101399
101398
101398
101399
101400
101402
101404
101405
101406
101406
101407
101407
101407
101408
101296
101295
101295
101295
101294
101293
101293
101292
101291
101290
101290
101290
101290
101290
101291
101293
101295
101296
101297
101298
101299
101299
101299
101300
101300
101190
101190
101190
101189
101188
101188
101187
101186
101185
101185
101184
101184
101185
101185
101187
101188
101190
101191
101192
101193
101193
101193
101194
101194
101194
101087
101087
101086
101085
101085
101084
101083
101082
101082
101082
101082
101082
101082
101083
101084
101086
101087
101088
101089
101089
101089
101089
101090
101090
101090
100986
100985
100985
100984
100983
100982
100982
100982
100981
100981
100981
100981
100982
100982
100983
100984
100985
100985
100986
100986
100987
100987
100987
100988
100988
100888
100887
100887
100886
100885
100885
100884
100884
100884
100883
100883
100883
100883
100883
100883
100883
100884
100884
100885
100886
100886
100887
100887
100888
100888
100792
100791
100791
100790
100790
100789
100788
100788
100788
100787
100786
100786
100786
100785
100785
100785
100785
100785
100786
100787
100787
100788
100788
100789
100789
100697
100697
100697
100696
100695
100694
100694
100693
100692
100692
100691
100691
100691
100690
100690
100690
100690
100690
100690
100691
100691
100692
100693
100693
100693
100603
100603
100602
100602
100601
100601
100600
100599
100598
100598
100597
100597
100597
100597
100597
100597
100597
100597
100597
100598
100598
100599
100600
100600
100601
100511
100510
100510
100510
100509
100509
100508
100507
100506
100505
100504
100503
100503
100503
100503
100503
100504
100504
100505
100506
100507
100508
100509
100509
100509
100420
100420
100420
100419
100419
100418
100417
100416
100414
100413
100412
100411
100410
100410
100410
100411
100412
100413
100415
100416
100417
100419
100419
100420
100420
100332
100332
100331
100330
100330
100329
100329
100328
100327
100326
100325
100324
100323
100323
100322
100323
100324
100325
100327
100328
100330
100331
100332
100332
100333
100248
100247
100246
100245
100244
100244
100243
100243
100243
100243
100242
100242
100241
100241
100240
100240
100240
100240
100241
100242
100243
100244
100245
100246
100247
100166
100165
100164
100164
100164
100164
100164
100164
100164
100164
100164
100164
100164
100163
100163
100162
100162
100161
100161
100161
100161
100161
100162
100163
100164
100089
100088
100088
100087
100086
100086
100085
100084
100084
100084
100084
100084
100084
100084
100084
100083
100083
100082
100082
100082
100082
100083
100085
100086
100087
100025
100024
100025
100025
100025
100024
100024
100024
100024
100024
100024
100025
100025
100025
100025
100024
100024
100024
100024
100023
100023
100023
100023
100023
100024
100003
100003
100003
100003
100003
100003
100002
100002
100002
100002
100002
100002
100002
100002
100002
100002
100002
100002
100002
100002
100002
100002
100002
100003
100003
100001
100001
100001
100001
100001
100001
100001
100001
100001
100001
100001
100001
100001
100001
100001
100001
100001
100001
100001
100001
100001
100001
100001
100001
100001
100001
100001
100001
100001
100001
100001
100001
100001
100001
100001
100001
100001
100001
100001
100001
100001
100001
100001
100001
100001
100001
100001
100001
100001
100001
100001
100001
100001
100001
100001
100001
100001
100001
100001
100001
100001
100001
100001
100001
100001
100001
100001
100001
100001
100001
100001
100001
100001
100001
100001
100000
100000
100000
100000
100000
100000
100000
100000
100000
100000
100000
100000
100000
100000
100000
100000
100000
100000
100000
100000
100000
100000
100000
100000
100000
100000
100000
100000
100000
100000
100000
100000
100000
100000
100000
100000
100000
100000
100000
100000
100000
100000
100000
100000
100000
100000
100000
100000
100000
100000
100000
100000
100000
100000
100000
100000
100000
100000
100000
100000
100000
100000
100000
100000
100000
100000
100000
100000
100000
100000
100000
100000
100000
100000
100000
)
;

boundaryField
{
    inlet
    {
        type            calculated;
        value           nonuniform List<scalar> 
25
(
107147
107133
107102
107077
107060
107051
107050
107052
107057
107061
107063
107062
107060
107055
107049
107042
107035
107031
107030
107037
107051
107073
107103
107135
107150
)
;
    }
    outlet
    {
        type            calculated;
        value           uniform 100000;
    }
    walls
    {
        type            calculated;
        value           nonuniform List<scalar> 
150
(
107140
106921
106772
106656
106560
106461
106363
106260
106154
106042
105929
105813
105699
105585
105472
105362
105254
105148
105041
104934
104828
104725
104623
104520
104416
104308
104199
104090
103981
103872
103764
103656
103549
103442
103336
103230
103124
103018
102912
102807
102700
102594
102486
102379
102270
102162
102054
101946
101838
101730
101621
101513
101404
101296
101190
101087
100986
100888
100792
100697
100603
100511
100420
100332
100248
100166
100089
100025
100003
100001
100001
100001
100000
100000
100000
107143
106924
106772
106660
106567
106470
106368
106257
106145
106029
105912
105797
105687
105579
105472
105367
105263
105160
105055
104949
104842
104735
104626
104517
104408
104299
104190
104081
103972
103865
103760
103657
103554
103451
103346
103239
103131
103022
102912
102803
102694
102587
102480
102374
102268
102161
102053
101945
101838
101730
101623
101516
101408
101300
101194
101090
100988
100888
100789
100693
100601
100509
100420
100333
100247
100164
100087
100024
100003
100001
100001
100001
100000
100000
100000
)
;
    }
    defaultFaces
    {
        type            empty;
    }
}


// ************************************************************************* //
