/*--------------------------------*- C++ -*----------------------------------*\
| =========                 |                                                 |
| \\      /  F ield         | OpenFOAM: The Open Source CFD Toolbox           |
|  \\    /   O peration     | Version:  2.3.0                                 |
|   \\  /    A nd           | Web:      www.OpenFOAM.org                      |
|    \\/     M anipulation  |                                                 |
\*---------------------------------------------------------------------------*/
FoamFile
{
    version     2.0;
    format      ascii;
    class       volVectorField;
    location    "69";
    object      U.air;
}
// * * * * * * * * * * * * * * * * * * * * * * * * * * * * * * * * * * * * * //

dimensions      [0 1 -1 0 0 0 0];

internalField   nonuniform List<vector> 
1875
(
(0.00715832 0.114244 0)
(0.0215986 0.108254 0)
(0.0659525 0.105295 0)
(0.10974 0.106024 0)
(0.150197 0.110504 0)
(0.185849 0.117134 0)
(0.215484 0.124452 0)
(0.238817 0.131522 0)
(0.255873 0.137866 0)
(0.266808 0.143469 0)
(0.271659 0.1484 0)
(0.270929 0.153746 0)
(0.264789 0.158739 0)
(0.252266 0.161831 0)
(0.232729 0.163463 0)
(0.207167 0.166157 0)
(0.177899 0.169867 0)
(0.147082 0.174591 0)
(0.117479 0.175676 0)
(0.0916857 0.173474 0)
(0.0717082 0.169266 0)
(0.05711 0.16409 0)
(0.0464972 0.156614 0)
(0.0192177 0.154064 0)
(0.0079824 0.153006 0)
(0.0250511 0.212581 0)
(0.0503995 0.208167 0)
(0.09405 0.208019 0)
(0.127201 0.212746 0)
(0.156898 0.219678 0)
(0.183034 0.22792 0)
(0.205475 0.237209 0)
(0.223896 0.247464 0)
(0.237978 0.258746 0)
(0.247375 0.271114 0)
(0.25164 0.284653 0)
(0.249431 0.298771 0)
(0.242044 0.313299 0)
(0.230959 0.328647 0)
(0.215672 0.344368 0)
(0.196394 0.3583 0)
(0.173274 0.368682 0)
(0.151141 0.373853 0)
(0.126105 0.37591 0)
(0.100934 0.374875 0)
(0.0766187 0.371466 0)
(0.0538395 0.36808 0)
(0.0312932 0.370001 0)
(0.0111647 0.372648 0)
(0.00395543 0.371967 0)
(0.0221607 0.0899569 0)
(0.058053 0.0974672 0)
(0.0964128 0.107895 0)
(0.123355 0.120611 0)
(0.145159 0.135108 0)
(0.163191 0.151123 0)
(0.177784 0.168275 0)
(0.188871 0.186299 0)
(0.196363 0.205002 0)
(0.200224 0.224293 0)
(0.201054 0.244232 0)
(0.199775 0.264869 0)
(0.194338 0.286657 0)
(0.184419 0.30893 0)
(0.171628 0.331044 0)
(0.156123 0.351524 0)
(0.137213 0.368166 0)
(0.114811 0.377339 0)
(0.0928203 0.381568 0)
(0.0715391 0.380183 0)
(0.0518554 0.374952 0)
(0.0347813 0.369397 0)
(0.0214575 0.368839 0)
(0.00906995 0.367856 0)
(0.00476417 0.362783 0)
(0.0201776 0.0592058 0)
(0.0569473 0.071544 0)
(0.0764222 0.0861603 0)
(0.0925197 0.102484 0)
(0.107021 0.120937 0)
(0.11879 0.141367 0)
(0.126947 0.163382 0)
(0.131375 0.186558 0)
(0.132488 0.210536 0)
(0.130858 0.235223 0)
(0.126344 0.260601 0)
(0.119218 0.286597 0)
(0.110341 0.312547 0)
(0.100037 0.338929 0)
(0.0888073 0.364959 0)
(0.0767618 0.38921 0)
(0.0636701 0.409098 0)
(0.0500802 0.423216 0)
(0.0382961 0.428744 0)
(0.0276114 0.426112 0)
(0.0187987 0.417675 0)
(0.011774 0.407588 0)
(0.00652059 0.397943 0)
(0.00130973 0.391468 0)
(0.0007269 0.384748 0)
(0.0160231 0.0304516 0)
(0.0410833 0.0414529 0)
(0.0419219 0.0570606 0)
(0.049041 0.0753414 0)
(0.0578586 0.0966591 0)
(0.0632408 0.120433 0)
(0.0647255 0.146014 0)
(0.0629187 0.172916 0)
(0.0584195 0.200659 0)
(0.0516943 0.228947 0)
(0.0432924 0.257686 0)
(0.0333095 0.286754 0)
(0.0220088 0.316274 0)
(0.0100649 0.345838 0)
(-0.0019085 0.374449 0)
(-0.0126151 0.400358 0)
(-0.0203415 0.421205 0)
(-0.0242925 0.434342 0)
(-0.0250123 0.437403 0)
(-0.0230914 0.431633 0)
(-0.0192666 0.420735 0)
(-0.0148753 0.408307 0)
(-0.0102708 0.397402 0)
(-0.00461504 0.389967 0)
(-0.00161564 0.384259 0)
(0.0143666 0.0174093 0)
(0.025427 0.0295092 0)
(0.00968234 0.0467993 0)
(0.0101404 0.0672019 0)
(0.0115251 0.0912659 0)
(0.00776421 0.118001 0)
(0.000776229 0.146658 0)
(-0.00815197 0.17643 0)
(-0.0186507 0.206651 0)
(-0.0304441 0.236961 0)
(-0.0432866 0.267222 0)
(-0.0565015 0.297268 0)
(-0.0693576 0.326889 0)
(-0.0811747 0.35552 0)
(-0.090403 0.381902 0)
(-0.0949923 0.404237 0)
(-0.093632 0.420139 0)
(-0.0872515 0.427487 0)
(-0.0770294 0.426766 0)
(-0.0638041 0.418917 0)
(-0.0496725 0.406655 0)
(-0.0365189 0.39389 0)
(-0.0244966 0.38317 0)
(-0.00969582 0.376088 0)
(-0.00382421 0.370253 0)
(0.0113624 0.0210466 0)
(0.0123461 0.0337836 0)
(-0.0171208 0.0528673 0)
(-0.0238338 0.0751066 0)
(-0.0324421 0.100663 0)
(-0.0459149 0.128941 0)
(-0.0608649 0.158907 0)
(-0.0767269 0.189395 0)
(-0.0931296 0.219574 0)
(-0.109606 0.249144 0)
(-0.125282 0.278102 0)
(-0.139087 0.305808 0)
(-0.149916 0.331826 0)
(-0.15644 0.355394 0)
(-0.157386 0.375679 0)
(-0.152245 0.391109 0)
(-0.141231 0.399894 0)
(-0.125503 0.401524 0)
(-0.106237 0.396833 0)
(-0.0852395 0.387288 0)
(-0.0650975 0.37555 0)
(-0.0471424 0.364267 0)
(-0.0308262 0.355124 0)
(-0.0115092 0.34776 0)
(-0.00463112 0.342463 0)
(0.00749029 0.0438496 0)
(0.000523774 0.0575289 0)
(-0.0396045 0.0781567 0)
(-0.0537041 0.100938 0)
(-0.0723209 0.127396 0)
(-0.0931509 0.156262 0)
(-0.11394 0.185733 0)
(-0.134755 0.214507 0)
(-0.154418 0.241879 0)
(-0.1715 0.26704 0)
(-0.185174 0.288748 0)
(-0.194495 0.30977 0)
(-0.198413 0.328548 0)
(-0.196397 0.345382 0)
(-0.188482 0.357164 0)
(-0.1749 0.364058 0)
(-0.156511 0.365917 0)
(-0.134382 0.363024 0)
(-0.110327 0.356367 0)
(-0.0865881 0.347351 0)
(-0.0650242 0.337909 0)
(-0.0460836 0.329681 0)
(-0.0289155 0.323795 0)
(-0.00993804 0.320626 0)
(-0.0038612 0.318628 0)
(0.00152615 0.0815926 0)
(-0.0112301 0.0962725 0)
(-0.0563013 0.117756 0)
(-0.0768026 0.140758 0)
(-0.101233 0.167378 0)
(-0.124946 0.195089 0)
(-0.147561 0.221527 0)
(-0.168392 0.245347 0)
(-0.186003 0.265078 0)
(-0.199778 0.280891 0)
(-0.208078 0.29828 0)
(-0.210733 0.311449 0)
(-0.207741 0.319963 0)
(-0.200209 0.325844 0)
(-0.186464 0.328814 0)
(-0.167859 0.328581 0)
(-0.145601 0.325556 0)
(-0.121482 0.32031 0)
(-0.0973958 0.313699 0)
(-0.0750079 0.306771 0)
(-0.0551863 0.300685 0)
(-0.0379379 0.296353 0)
(-0.0226295 0.29458 0)
(-0.00703526 0.295811 0)
(-0.00267367 0.297538 0)
(-0.00315581 0.129498 0)
(-0.0185908 0.145689 0)
(-0.0657709 0.16728 0)
(-0.0891156 0.190058 0)
(-0.114336 0.21563 0)
(-0.136858 0.240224 0)
(-0.157259 0.261577 0)
(-0.174431 0.278863 0)
(-0.188103 0.293484 0)
(-0.196852 0.304942 0)
(-0.200834 0.307496 0)
(-0.200594 0.306219 0)
(-0.194376 0.306057 0)
(-0.181105 0.300846 0)
(-0.164358 0.296187 0)
(-0.144121 0.291101 0)
(-0.122049 0.285395 0)
(-0.0997705 0.279656 0)
(-0.0785651 0.27445 0)
(-0.0593231 0.270417 0)
(-0.042385 0.268143 0)
(-0.0277588 0.268129 0)
(-0.0152551 0.27095 0)
(-0.00381473 0.277142 0)
(-0.001374 0.283411 0)
(-0.00558596 0.182264 0)
(-0.021025 0.199216 0)
(-0.0660082 0.220653 0)
(-0.088387 0.242437 0)
(-0.111101 0.26544 0)
(-0.130505 0.285219 0)
(-0.147534 0.299708 0)
(-0.16153 0.307867 0)
(-0.172632 0.309407 0)
(-0.179213 0.305907 0)
(-0.180364 0.300062 0)
(-0.175374 0.292209 0)
(-0.165932 0.282157 0)
(-0.152551 0.273863 0)
(-0.136325 0.264986 0)
(-0.118156 0.256818 0)
(-0.0993303 0.249842 0)
(-0.080826 0.244422 0)
(-0.0633085 0.240878 0)
(-0.0472089 0.239559 0)
(-0.032778 0.240803 0)
(-0.0202327 0.244993 0)
(-0.00971142 0.252627 0)
(-0.0010795 0.264301 0)
(0.000117496 0.275791 0)
(-0.00572734 0.232924 0)
(-0.0191114 0.250696 0)
(-0.0589823 0.271753 0)
(-0.0785845 0.29159 0)
(-0.0976667 0.310772 0)
(-0.113736 0.32504 0)
(-0.127798 0.332543 0)
(-0.139476 0.332584 0)
(-0.148076 0.325552 0)
(-0.152252 0.312439 0)
(-0.151713 0.296953 0)
(-0.146818 0.281414 0)
(-0.138318 0.265901 0)
(-0.127009 0.251528 0)
(-0.113815 0.239048 0)
(-0.0995993 0.228751 0)
(-0.0850113 0.220812 0)
(-0.0704551 0.215382 0)
(-0.0561915 0.212637 0)
(-0.0424266 0.212844 0)
(-0.0294146 0.216365 0)
(-0.0175491 0.223716 0)
(-0.00712692 0.235562 0)
(0.0016994 0.252756 0)
(0.0023174 0.270805 0)
(-0.00455895 0.2767 0)
(-0.0151155 0.295476 0)
(-0.0496854 0.315814 0)
(-0.0663781 0.333092 0)
(-0.0816716 0.348317 0)
(-0.0945547 0.357423 0)
(-0.105877 0.358692 0)
(-0.115345 0.351512 0)
(-0.121826 0.336804 0)
(-0.12454 0.316941 0)
(-0.123961 0.294829 0)
(-0.120442 0.272954 0)
(-0.114527 0.252734 0)
(-0.106936 0.234968 0)
(-0.0981769 0.219981 0)
(-0.0886176 0.207856 0)
(-0.0784797 0.198601 0)
(-0.0678863 0.192237 0)
(-0.0568825 0.188889 0)
(-0.0455287 0.188866 0)
(-0.0340178 0.192721 0)
(-0.0225525 0.201243 0)
(-0.0110759 0.215616 0)
(-0.000400856 0.237679 0)
(0.000511079 0.26177 0)
(-0.00361831 0.312518 0)
(-0.0110877 0.331412 0)
(-0.0385357 0.350777 0)
(-0.0515336 0.366032 0)
(-0.0635511 0.377739 0)
(-0.0735432 0.382765 0)
(-0.0824695 0.379375 0)
(-0.089894 0.366819 0)
(-0.094811 0.346494 0)
(-0.0972492 0.321368 0)
(-0.0977832 0.294749 0)
(-0.0966329 0.269119 0)
(-0.0942375 0.245855 0)
(-0.0909221 0.225577 0)
(-0.0867636 0.208453 0)
(-0.0818061 0.194424 0)
(-0.0760533 0.183381 0)
(-0.0694966 0.175266 0)
(-0.0620821 0.170199 0)
(-0.0537723 0.168509 0)
(-0.044517 0.170872 0)
(-0.0340055 0.17842 0)
(-0.022086 0.192824 0)
(-0.00920513 0.216032 0)
(-0.00601678 0.241651 0)
(-0.0027527 0.340137 0)
(-0.00694176 0.359136 0)
(-0.0252353 0.377232 0)
(-0.0340155 0.390031 0)
(-0.042901 0.399202 0)
(-0.0501162 0.401515 0)
(-0.0567973 0.395033 0)
(-0.0624547 0.379097 0)
(-0.0665574 0.355292 0)
(-0.0696719 0.327085 0)
(-0.0721839 0.297864 0)
(-0.0741343 0.269953 0)
(-0.0754495 0.244609 0)
(-0.0759985 0.222441 0)
(-0.0757433 0.203525 0)
(-0.0746263 0.187748 0)
(-0.0725923 0.17494 0)
(-0.0696164 0.164864 0)
(-0.0656663 0.157502 0)
(-0.060495 0.153363 0)
(-0.0537826 0.153202 0)
(-0.0451006 0.157441 0)
(-0.0349449 0.168148 0)
(-0.0183859 0.186183 0)
(-0.0113077 0.206512 0)
(-0.000902253 0.355181 0)
(-0.00225323 0.373979 0)
(-0.0118538 0.393553 0)
(-0.016297 0.40558 0)
(-0.0210574 0.413328 0)
(-0.025092 0.414038 0)
(-0.0291426 0.406174 0)
(-0.0332974 0.388803 0)
(-0.037474 0.363599 0)
(-0.0418838 0.334147 0)
(-0.0465307 0.303691 0)
(-0.0511768 0.274499 0)
(-0.0553763 0.24789 0)
(-0.0587858 0.224376 0)
(-0.0613206 0.204073 0)
(-0.0629305 0.1869 0)
(-0.063641 0.172685 0)
(-0.0634237 0.161304 0)
(-0.0624878 0.152448 0)
(-0.0609991 0.145721 0)
(-0.0586093 0.141112 0)
(-0.0546359 0.140124 0)
(-0.0483858 0.143308 0)
(-0.028667 0.151528 0)
(-0.0151863 0.160482 0)
(0.000304856 0.362526 0)
(0.00214272 0.381291 0)
(0.000774913 0.398997 0)
(0.00105421 0.410946 0)
(0.00071882 0.418579 0)
(0.000260372 0.419295 0)
(-0.00100869 0.411861 0)
(-0.00367482 0.395625 0)
(-0.00808183 0.371203 0)
(-0.013687 0.342171 0)
(-0.0199085 0.311749 0)
(-0.0262069 0.282181 0)
(-0.0321626 0.254793 0)
(-0.0374802 0.230242 0)
(-0.0419212 0.208763 0)
(-0.0454052 0.190386 0)
(-0.0480146 0.175003 0)
(-0.0502967 0.162499 0)
(-0.0525725 0.152191 0)
(-0.0545465 0.143277 0)
(-0.0557337 0.13537 0)
(-0.0560672 0.128767 0)
(-0.0540635 0.123468 0)
(-0.0382896 0.119059 0)
(-0.0165909 0.115172 0)
(0.000820902 0.359581 0)
(0.00538731 0.377712 0)
(0.0133994 0.394126 0)
(0.0176802 0.407156 0)
(0.021323 0.415859 0)
(0.0244959 0.41902 0)
(0.0261265 0.413896 0)
(0.0254015 0.399509 0)
(0.0214993 0.377861 0)
(0.0153128 0.350874 0)
(0.00802499 0.321592 0)
(0.000449235 0.292308 0)
(-0.00689614 0.2645 0)
(-0.0136636 0.23904 0)
(-0.0195652 0.216366 0)
(-0.0244878 0.19669 0)
(-0.0285184 0.180017 0)
(-0.0324001 0.165962 0)
(-0.0365763 0.153756 0)
(-0.0402785 0.142826 0)
(-0.042576 0.132855 0)
(-0.0427447 0.122527 0)
(-0.0422142 0.111548 0)
(-0.0378342 0.100293 0)
(-0.015335 0.0895517 0)
(0.000696971 0.344654 0)
(0.00797834 0.360972 0)
(0.0247039 0.379766 0)
(0.0327608 0.394735 0)
(0.0398168 0.405618 0)
(0.0461008 0.410749 0)
(0.0505005 0.409428 0)
(0.0522094 0.400406 0)
(0.0499965 0.382997 0)
(0.0440795 0.35965 0)
(0.0359972 0.332662 0)
(0.0272434 0.304436 0)
(0.0186189 0.276671 0)
(0.0105329 0.250511 0)
(0.00324482 0.226653 0)
(-0.00312201 0.205535 0)
(-0.00858357 0.187318 0)
(-0.0131384 0.171644 0)
(-0.0170036 0.157917 0)
(-0.0200527 0.145043 0)
(-0.0216178 0.132073 0)
(-0.0204964 0.118767 0)
(-0.0191965 0.105458 0)
(-0.025338 0.0914683 0)
(-0.012276 0.0792122 0)
(0.000354166 0.323075 0)
(0.00918042 0.33813 0)
(0.0323036 0.357896 0)
(0.0444203 0.375178 0)
(0.0544263 0.388875 0)
(0.0632542 0.397734 0)
(0.0702635 0.401034 0)
(0.0742295 0.396176 0)
(0.0746211 0.383968 0)
(0.0702696 0.366699 0)
(0.0623574 0.343963 0)
(0.0526491 0.318087 0)
(0.0427018 0.29118 0)
(0.0332912 0.264742 0)
(0.0247002 0.239827 0)
(0.0170907 0.217143 0)
(0.0104835 0.197092 0)
(0.00547629 0.179577 0)
(0.00221715 0.163802 0)
(-0.000207905 0.148857 0)
(-0.00199392 0.13396 0)
(-0.0016846 0.118907 0)
(0.00111541 0.103396 0)
(-0.00938017 0.0870451 0)
(-0.00827619 0.0749029 0)
(9.20507e-05 0.300135 0)
(0.0086447 0.312903 0)
(0.0354033 0.330669 0)
(0.0517124 0.34969 0)
(0.0643109 0.366573 0)
(0.0751092 0.379467 0)
(0.0838385 0.386954 0)
(0.0902506 0.390483 0)
(0.0927878 0.38537 0)
(0.0915325 0.371839 0)
(0.0855009 0.354714 0)
(0.0756203 0.332519 0)
(0.0643123 0.307479 0)
(0.0533715 0.281443 0)
(0.0434085 0.255784 0)
(0.0346498 0.231573 0)
(0.0272184 0.209464 0)
(0.0214054 0.189692 0)
(0.0175318 0.171635 0)
(0.014916 0.154584 0)
(0.0127319 0.138035 0)
(0.0111582 0.121921 0)
(0.0116085 0.106111 0)
(0.00173852 0.0886752 0)
(-0.00246398 0.0751716 0)
(-0.000176202 0.27529 0)
(0.00666297 0.285052 0)
(0.0341024 0.300868 0)
(0.0540104 0.320469 0)
(0.0693184 0.340225 0)
(0.0816779 0.357266 0)
(0.0917681 0.370099 0)
(0.0992454 0.376648 0)
(0.104032 0.379907 0)
(0.105372 0.37367 0)
(0.101921 0.36129 0)
(0.093896 0.345538 0)
(0.0825053 0.324316 0)
(0.0701285 0.299767 0)
(0.0585052 0.274025 0)
(0.0483214 0.24858 0)
(0.0398971 0.224497 0)
(0.0331455 0.202342 0)
(0.0281299 0.182066 0)
(0.0247383 0.163205 0)
(0.0219127 0.145454 0)
(0.0184503 0.128754 0)
(0.0159787 0.113476 0)
(0.00643717 0.0967425 0)
(0.00141454 0.0815272 0)
(-0.000545622 0.251736 0)
(0.00392284 0.257814 0)
(0.0293895 0.271094 0)
(0.0508504 0.290129 0)
(0.0687062 0.31172 0)
(0.0828151 0.33256 0)
(0.0939296 0.350318 0)
(0.102205 0.363594 0)
(0.107592 0.370273 0)
(0.10956 0.374564 0)
(0.108634 0.36979 0)
(0.104037 0.356602 0)
(0.0952898 0.339839 0)
(0.0832843 0.318374 0)
(0.0703158 0.293596 0)
(0.0583765 0.26757 0)
(0.0484646 0.241893 0)
(0.0406384 0.217588 0)
(0.0345158 0.195212 0)
(0.0299767 0.17476 0)
(0.0262893 0.156064 0)
(0.021805 0.139149 0)
(0.0171832 0.124471 0)
(0.00723929 0.109378 0)
(0.00313149 0.0934853 0)
(-0.000629436 0.231526 0)
(0.00162976 0.233235 0)
(0.0229047 0.243346 0)
(0.0425743 0.260798 0)
(0.0614782 0.283045 0)
(0.0773377 0.306862 0)
(0.0895608 0.329258 0)
(0.0985181 0.348131 0)
(0.104075 0.361936 0)
(0.106922 0.371536 0)
(0.10656 0.372435 0)
(0.104556 0.367625 0)
(0.0991438 0.35443 0)
(0.0901067 0.336393 0)
(0.0782065 0.313448 0)
(0.0653868 0.287678 0)
(0.0538188 0.260937 0)
(0.0446416 0.234833 0)
(0.037545 0.210491 0)
(0.0319872 0.188452 0)
(0.0274434 0.168931 0)
(0.0225095 0.151835 0)
(0.0170858 0.13751 0)
(0.0062638 0.123644 0)
(0.00296366 0.108402 0)
(-0.000500701 0.215609 0)
(0.000603333 0.212594 0)
(0.0163502 0.218829 0)
(0.0315384 0.233949 0)
(0.048971 0.255794 0)
(0.0655002 0.281434 0)
(0.0788473 0.307717 0)
(0.0886142 0.331813 0)
(0.094749 0.351582 0)
(0.0981981 0.364728 0)
(0.0986905 0.373426 0)
(0.0972339 0.373666 0)
(0.0939677 0.366711 0)
(0.0879488 0.351975 0)
(0.0791551 0.332379 0)
(0.0678708 0.307637 0)
(0.0560136 0.280467 0)
(0.0457343 0.252976 0)
(0.0377941 0.226817 0)
(0.0316508 0.203216 0)
(0.0264465 0.182755 0)
(0.0212433 0.165351 0)
(0.0159238 0.151118 0)
(0.00513215 0.137862 0)
(0.0023355 0.123611 0)
(-0.000382692 0.203742 0)
(0.000161957 0.196222 0)
(0.0107523 0.198451 0)
(0.0214489 0.210798 0)
(0.0351369 0.231398 0)
(0.0500061 0.257665 0)
(0.0632705 0.286631 0)
(0.0734361 0.315105 0)
(0.0802113 0.340157 0)
(0.0836192 0.359203 0)
(0.0846706 0.371126 0)
(0.084018 0.37763 0)
(0.081925 0.376469 0)
(0.0781579 0.366196 0)
(0.0722467 0.348538 0)
(0.0641051 0.325738 0)
(0.0540787 0.298844 0)
(0.0440153 0.27047 0)
(0.0357012 0.242869 0)
(0.0294609 0.217743 0)
(0.0241767 0.19628 0)
(0.018967 0.178475 0)
(0.0140477 0.1642 0)
(0.00424228 0.151131 0)
(0.00184359 0.137544 0)
(0.000208915 0.194587 0)
(0.000366363 0.184074 0)
(0.00669691 0.183185 0)
(0.014023 0.192775 0)
(0.0232162 0.211418 0)
(0.0344914 0.237294 0)
(0.0458573 0.267654 0)
(0.055358 0.299249 0)
(0.0621411 0.328631 0)
(0.0657586 0.352982 0)
(0.0669455 0.369834 0)
(0.066877 0.37822 0)
(0.0656883 0.37988 0)
(0.063489 0.374971 0)
(0.0600206 0.361186 0)
(0.0549039 0.340346 0)
(0.0478591 0.314466 0)
(0.0395847 0.285838 0)
(0.0318134 0.257233 0)
(0.0258769 0.230927 0)
(0.0211828 0.208528 0)
(0.0164991 0.190325 0)
(0.0118703 0.176074 0)
(0.00336158 0.162802 0)
(0.00146392 0.149492 0)
(0.00214962 0.186219 0)
(0.00199303 0.175531 0)
(0.00402642 0.172853 0)
(0.00887624 0.180291 0)
(0.0140935 0.196878 0)
(0.021273 0.221683 0)
(0.0295064 0.252344 0)
(0.0370963 0.285743 0)
(0.042913 0.318159 0)
(0.0462604 0.346181 0)
(0.0477235 0.366619 0)
(0.0481827 0.378839 0)
(0.0477386 0.383153 0)
(0.0467147 0.379837 0)
(0.045037 0.368824 0)
(0.0424721 0.350437 0)
(0.0384853 0.326102 0)
(0.0328759 0.297923 0)
(0.0267308 0.268868 0)
(0.0216518 0.241817 0)
(0.0179677 0.218895 0)
(0.0145965 0.20052 0)
(0.00963905 0.186807 0)
(0.00193089 0.172689 0)
(0.00103936 0.159368 0)
(0.00506291 0.176837 0)
(0.00670675 0.168953 0)
(0.00392496 0.167781 0)
(0.00414133 0.172672 0)
(0.00654904 0.188376 0)
(0.0105782 0.211637 0)
(0.0157462 0.241856 0)
(0.0207802 0.275938 0)
(0.0248019 0.310041 0)
(0.0272466 0.340363 0)
(0.0285605 0.363014 0)
(0.0294106 0.377418 0)
(0.0298117 0.383601 0)
(0.0298428 0.382019 0)
(0.0295837 0.37277 0)
(0.0289677 0.356029 0)
(0.0276361 0.333098 0)
(0.0249473 0.30577 0)
(0.0211705 0.276761 0)
(0.0176919 0.249335 0)
(0.0154945 0.226118 0)
(0.0145622 0.20784 0)
(0.00771124 0.194942 0)
(-0.000752756 0.179567 0)
(0.000327333 0.166042 0)
(0.00753079 0.165217 0)
(0.0139574 0.162157 0)
(0.00758537 0.164082 0)
(5.52482e-05 0.171512 0)
(8.68273e-05 0.183849 0)
(0.00232661 0.206561 0)
(0.0047342 0.236076 0)
(0.00690692 0.270095 0)
(0.008636 0.304758 0)
(0.00985162 0.335977 0)
(0.0109487 0.359702 0)
(0.0120451 0.37508 0)
(0.0130511 0.382258 0)
(0.0139943 0.381519 0)
(0.0149298 0.373156 0)
(0.0157369 0.357528 0)
(0.0162194 0.335801 0)
(0.0159624 0.309308 0)
(0.0146034 0.280733 0)
(0.0127737 0.253352 0)
(0.0116131 0.230301 0)
(0.0114015 0.212648 0)
(0.00564567 0.198547 0)
(-0.00085077 0.183877 0)
(0.000220521 0.17002 0)
(0.00851833 0.153146 0)
(0.016448 0.159579 0)
(0.00950563 0.164047 0)
(0.00113709 0.172235 0)
(-0.0021682 0.185129 0)
(-0.00250827 0.205852 0)
(-0.00307817 0.234596 0)
(-0.00378737 0.268168 0)
(-0.00447292 0.302551 0)
(-0.00453072 0.333484 0)
(-0.00377065 0.357044 0)
(-0.00268706 0.372321 0)
(-0.00134336 0.379469 0)
(0.000230907 0.378901 0)
(0.00201403 0.370961 0)
(0.00384818 0.356076 0)
(0.00547353 0.335169 0)
(0.00672536 0.309703 0)
(0.00722727 0.281885 0)
(0.00692742 0.255056 0)
(0.00647792 0.232606 0)
(0.0055052 0.215766 0)
(0.00325105 0.203272 0)
(0.00135109 0.187186 0)
(0.00103136 0.173468 0)
(0.00910973 0.149427 0)
(0.0147718 0.159444 0)
(0.00693206 0.167593 0)
(0.002896 0.175038 0)
(-0.00180619 0.18915 0)
(-0.00531069 0.209595 0)
(-0.00857806 0.237724 0)
(-0.0117805 0.270417 0)
(-0.0145347 0.303612 0)
(-0.0156802 0.333152 0)
(-0.0152615 0.355483 0)
(-0.0142836 0.369942 0)
(-0.0127636 0.37651 0)
(-0.0107269 0.375499 0)
(-0.00831913 0.367262 0)
(-0.00569525 0.352464 0)
(-0.00311773 0.332057 0)
(-0.00076886 0.307407 0)
(0.00116425 0.280623 0)
(0.00245608 0.254807 0)
(0.00311837 0.233301 0)
(0.00259817 0.217457 0)
(0.00134629 0.205359 0)
(0.00182984 0.188524 0)
(0.0017363 0.175602 0)
(0.0094983 0.151314 0)
(0.0123114 0.160552 0)
(0.00122825 0.171476 0)
(0.000505017 0.181856 0)
(-0.00326353 0.195159 0)
(-0.00852354 0.216535 0)
(-0.0138851 0.244221 0)
(-0.0190192 0.275723 0)
(-0.0229391 0.30705 0)
(-0.0244689 0.334348 0)
(-0.0241788 0.35466 0)
(-0.0231539 0.36753 0)
(-0.02137 0.372807 0)
(-0.0189223 0.370867 0)
(-0.0159938 0.362048 0)
(-0.0127413 0.347048 0)
(-0.00940741 0.326832 0)
(-0.00613098 0.302752 0)
(-0.00306641 0.276906 0)
(-0.000636596 0.252225 0)
(0.000896383 0.23181 0)
(0.00106453 0.217049 0)
(0.000263613 0.205944 0)
(0.0015276 0.191316 0)
(0.00185374 0.176385 0)
(0.00599173 0.153649 0)
(0.00743696 0.16503 0)
(-0.00278982 0.177677 0)
(-0.0035932 0.188254 0)
(-0.00640344 0.203425 0)
(-0.0124869 0.224938 0)
(-0.0194403 0.252278 0)
(-0.0256702 0.282426 0)
(-0.0297274 0.311538 0)
(-0.0310542 0.336249 0)
(-0.03056 0.3542 0)
(-0.0292658 0.364748 0)
(-0.0272702 0.368474 0)
(-0.0244962 0.365356 0)
(-0.0211428 0.355687 0)
(-0.0174108 0.340254 0)
(-0.0134978 0.320026 0)
(-0.00949494 0.296391 0)
(-0.00558193 0.271471 0)
(-0.00239031 0.248059 0)
(-0.000305817 0.228989 0)
(0.000344475 0.215334 0)
(0.000561914 0.207376 0)
(0.000814413 0.191012 0)
(0.000750572 0.178146 0)
(0.00199611 0.158034 0)
(0.00186287 0.170664 0)
(-0.0060806 0.183737 0)
(-0.00681779 0.196011 0)
(-0.0098462 0.212017 0)
(-0.0168074 0.234165 0)
(-0.0247718 0.261057 0)
(-0.0309994 0.289582 0)
(-0.0344196 0.3161 0)
(-0.0352635 0.337103 0)
(-0.0346163 0.351378 0)
(-0.0331578 0.36201 0)
(-0.0308535 0.364055 0)
(-0.0277207 0.359077 0)
(-0.0240376 0.348416 0)
(-0.0199388 0.332406 0)
(-0.0155706 0.312047 0)
(-0.0109884 0.288803 0)
(-0.00645741 0.264832 0)
(-0.00275297 0.242777 0)
(-0.000241739 0.22513 0)
(0.00104062 0.212952 0)
(0.00279605 0.203498 0)
(0.000577586 0.1901 0)
(-0.00135951 0.177222 0)
(0.000400744 0.16457 0)
(-0.000974461 0.177857 0)
(-0.00795319 0.190932 0)
(-0.00879073 0.204045 0)
(-0.0132981 0.221183 0)
(-0.0211997 0.243738 0)
(-0.0292107 0.26988 0)
(-0.0344262 0.296435 0)
(-0.036759 0.32014 0)
(-0.0372373 0.337866 0)
(-0.0366869 0.35211 0)
(-0.0350249 0.358261 0)
(-0.0323168 0.357845 0)
(-0.0289627 0.352145 0)
(-0.0250462 0.340439 0)
(-0.0207431 0.323803 0)
(-0.0160993 0.303267 0)
(-0.0111826 0.280383 0)
(-0.00639029 0.257321 0)
(-0.00251556 0.236534 0)
(0.000193012 0.220242 0)
(0.0019908 0.209408 0)
(0.00465239 0.20175 0)
(0.000821584 0.19113 0)
(-0.00243139 0.176493 0)
(8.29689e-05 0.172637 0)
(-0.00165296 0.185965 0)
(-0.00887841 0.199179 0)
(-0.0103879 0.212638 0)
(-0.0166078 0.230758 0)
(-0.0251412 0.253291 0)
(-0.0321364 0.278267 0)
(-0.035925 0.302496 0)
(-0.0373133 0.323364 0)
(-0.0373823 0.340882 0)
(-0.0365136 0.351705 0)
(-0.0344711 0.353125 0)
(-0.031796 0.352247 0)
(-0.0284322 0.344889 0)
(-0.0245377 0.332237 0)
(-0.0202905 0.315049 0)
(-0.0156771 0.294428 0)
(-0.0108505 0.272017 0)
(-0.00635384 0.249956 0)
(-0.00291043 0.230489 0)
(-0.000560592 0.215494 0)
(0.00073031 0.205847 0)
(0.00271665 0.200844 0)
(0.000423365 0.187508 0)
(-0.00144803 0.177863 0)
(0.000182497 0.181802 0)
(-0.00122796 0.19472 0)
(-0.00937911 0.208054 0)
(-0.0123469 0.221886 0)
(-0.0196661 0.240424 0)
(-0.0279257 0.262542 0)
(-0.0332206 0.285899 0)
(-0.035773 0.30756 0)
(-0.0366034 0.325756 0)
(-0.0361793 0.340804 0)
(-0.0347475 0.347601 0)
(-0.0323683 0.34975 0)
(-0.02978 0.34634 0)
(-0.0265028 0.337804 0)
(-0.0228021 0.324349 0)
(-0.0187679 0.306766 0)
(-0.014387 0.286239 0)
(-0.00993593 0.264477 0)
(-0.00604707 0.24354 0)
(-0.00334434 0.225423 0)
(-0.00155044 0.211689 0)
(-0.000731579 0.203258 0)
(5.33209e-05 0.197248 0)
(-0.000420095 0.187116 0)
(-0.000481011 0.175389 0)
(0.000314633 0.191287 0)
(-0.000594114 0.20377 0)
(-0.00939205 0.21693 0)
(-0.0141107 0.231303 0)
(-0.0218625 0.249795 0)
(-0.0287828 0.271069 0)
(-0.0323381 0.292402 0)
(-0.0339661 0.311459 0)
(-0.0342905 0.326873 0)
(-0.0337058 0.337224 0)
(-0.0316824 0.342729 0)
(-0.0295608 0.34523 0)
(-0.0268377 0.340526 0)
(-0.0236964 0.331031 0)
(-0.0202059 0.316964 0)
(-0.0164165 0.299165 0)
(-0.0123542 0.278902 0)
(-0.00840529 0.257913 0)
(-0.00524431 0.238128 0)
(-0.00325614 0.221231 0)
(-0.00191484 0.208657 0)
(-0.0013083 0.200158 0)
(-0.000841513 0.196563 0)
(-0.000650357 0.189444 0)
(-0.000228602 0.174764 0)
(0.000464931 0.200753 0)
(-0.000293482 0.212921 0)
(-0.00940606 0.225987 0)
(-0.015349 0.240446 0)
(-0.0227371 0.258516 0)
(-0.0277991 0.27845 0)
(-0.0300504 0.297554 0)
(-0.0309958 0.31419 0)
(-0.0308985 0.327316 0)
(-0.0299141 0.335718 0)
(-0.0282616 0.340671 0)
(-0.0260902 0.339981 0)
(-0.0233945 0.334845 0)
(-0.0203536 0.324595 0)
(-0.0170659 0.310132 0)
(-0.0135433 0.292321 0)
(-0.00987859 0.27249 0)
(-0.00654784 0.252361 0)
(-0.00419919 0.233638 0)
(-0.00284462 0.217805 0)
(-0.00192817 0.206117 0)
(-0.00161377 0.199064 0)
(-0.00134572 0.194415 0)
(-0.00104718 0.185927 0)
(-0.000326122 0.176139 0)
(0.000702257 0.20995 0)
(-0.000173472 0.221814 0)
(-0.00965971 0.234804 0)
(-0.0161526 0.249024 0)
(-0.0224268 0.266315 0)
(-0.02574 0.284507 0)
(-0.0271653 0.301398 0)
(-0.0276368 0.315851 0)
(-0.0271881 0.327016 0)
(-0.0259877 0.334251 0)
(-0.0242686 0.337197 0)
(-0.0220746 0.33563 0)
(-0.0194855 0.329349 0)
(-0.0165816 0.318575 0)
(-0.0135089 0.303927 0)
(-0.0102904 0.286304 0)
(-0.00709516 0.26706 0)
(-0.00453781 0.247832 0)
(-0.002953 0.230053 0)
(-0.00200927 0.215177 0)
(-0.00146659 0.20426 0)
(-0.00127616 0.199561 0)
(-0.000952442 0.193493 0)
(-0.00149794 0.184657 0)
(-0.000654621 0.173234 0)
(0.000862348 0.218686 0)
(-0.000346572 0.230248 0)
(-0.0100194 0.243015 0)
(-0.0162259 0.256748 0)
(-0.0210873 0.272938 0)
(-0.0231424 0.289243 0)
(-0.0240284 0.304102 0)
(-0.0241094 0.316646 0)
(-0.0233762 0.326152 0)
(-0.0219729 0.332109 0)
(-0.0201292 0.333807 0)
(-0.0179161 0.331107 0)
(-0.0154122 0.32416 0)
(-0.0126679 0.313055 0)
(-0.00982639 0.298412 0)
(-0.00694829 0.281143 0)
(-0.0044007 0.262611 0)
(-0.00269352 0.24418 0)
(-0.00170203 0.22733 0)
(-0.00103268 0.213202 0)
(-0.000830061 0.202884 0)
(-0.00101666 0.196356 0)
(-0.000758436 0.194524 0)
(-0.00144321 0.186292 0)
(-0.00072912 0.172515 0)
(0.00101154 0.226896 0)
(-0.000860255 0.238341 0)
(-0.0105368 0.250535 0)
(-0.01561 0.263538 0)
(-0.0190705 0.278341 0)
(-0.0203312 0.292792 0)
(-0.0208039 0.305835 0)
(-0.0205359 0.316683 0)
(-0.0195611 0.324622 0)
(-0.0180371 0.329 0)
(-0.0160966 0.329793 0)
(-0.0139101 0.326696 0)
(-0.0114834 0.3193 0)
(-0.00889371 0.308059 0)
(-0.00629527 0.293608 0)
(-0.00380434 0.276844 0)
(-0.00192278 0.259027 0)
(-0.000855194 0.241491 0)
(-0.000239183 0.225471 0)
(0.00025782 0.212081 0)
(0.000245961 0.202346 0)
(-0.00067375 0.196349 0)
(-0.00085294 0.192042 0)
(-0.00152319 0.183808 0)
(-0.000799652 0.174146 0)
(0.00150543 0.234049 0)
(-0.00158218 0.245428 0)
(-0.0112992 0.256943 0)
(-0.0145762 0.269124 0)
(-0.0168901 0.282438 0)
(-0.0175709 0.295221 0)
(-0.0176571 0.306681 0)
(-0.0170732 0.316073 0)
(-0.0158862 0.322786 0)
(-0.0142826 0.326251 0)
(-0.0123567 0.326213 0)
(-0.010206 0.322447 0)
(-0.00786518 0.314774 0)
(-0.00542379 0.303561 0)
(-0.00307791 0.289425 0)
(-0.00105903 0.273295 0)
(0.000309188 0.256229 0)
(0.000996105 0.239525 0)
(0.0013494 0.224242 0)
(0.00176477 0.211515 0)
(0.0016995 0.202333 0)
(-2.10289e-05 0.197197 0)
(-0.000582562 0.192121 0)
(-0.00169188 0.183392 0)
(-0.00100509 0.17341 0)
(0.00132701 0.239975 0)
(-0.00192345 0.250406 0)
(-0.0104002 0.262146 0)
(-0.0126721 0.273389 0)
(-0.0143798 0.285319 0)
(-0.0147072 0.296675 0)
(-0.014528 0.306779 0)
(-0.0137346 0.31493 0)
(-0.0124326 0.32057 0)
(-0.0107966 0.323225 0)
(-0.00889499 0.322575 0)
(-0.00682391 0.318399 0)
(-0.00461672 0.310595 0)
(-0.00240599 0.299537 0)
(-0.000324021 0.285914 0)
(0.0012831 0.270324 0)
(0.00221371 0.254074 0)
(0.00262835 0.238117 0)
(0.00279328 0.223508 0)
(0.00307382 0.211397 0)
(0.00286622 0.202677 0)
(0.000519292 0.197006 0)
(-0.000640738 0.192586 0)
(-0.00178411 0.185288 0)
(-0.000999497 0.173126 0)
(0.000335654 0.245064 0)
(-0.00159532 0.255182 0)
(-0.0076107 0.266504 0)
(-0.010025 0.276739 0)
(-0.0114803 0.287428 0)
(-0.0116692 0.297577 0)
(-0.0113725 0.306513 0)
(-0.0105059 0.313567 0)
(-0.00920596 0.318315 0)
(-0.00762563 0.320269 0)
(-0.00581384 0.319139 0)
(-0.00389793 0.314698 0)
(-0.00189607 0.306904 0)
(8.13149e-05 0.296144 0)
(0.00185555 0.282264 0)
(0.00316276 0.268186 0)
(0.00377374 0.252567 0)
(0.00392847 0.237292 0)
(0.00391514 0.223298 0)
(0.00391895 0.211728 0)
(0.00330143 0.203499 0)
(0.000558082 0.198171 0)
(-0.000746119 0.192826 0)
(-0.00185121 0.184861 0)
(-0.000984763 0.1736 0)
(-0.000221297 0.249448 0)
(-0.00104394 0.259712 0)
(-0.00526515 0.27017 0)
(-0.00778649 0.279512 0)
(-0.00886623 0.289138 0)
(-0.00888502 0.297837 0)
(-0.00842439 0.305665 0)
(-0.00753375 0.312188 0)
(-0.0063093 0.316108 0)
(-0.00478647 0.317484 0)
(-0.00310183 0.315972 0)
(-0.00131135 0.311451 0)
(0.000531503 0.303653 0)
(0.00226882 0.293073 0)
(0.00367145 0.279852 0)
(0.00436366 0.265426 0)
(0.00477806 0.251617 0)
(0.00473355 0.237013 0)
(0.00459034 0.22361 0)
(0.00422502 0.212564 0)
(0.00286411 0.204666 0)
(0.000431057 0.198851 0)
(-0.00037409 0.194048 0)
(-0.00187646 0.184959 0)
(-0.00108284 0.174251 0)
(-0.000320074 0.252789 0)
(-0.000638302 0.26256 0)
(-0.00375439 0.272776 0)
(-0.00586659 0.281113 0)
(-0.00636066 0.289705 0)
(-0.00626936 0.297124 0)
(-0.0059958 0.304157 0)
(-0.0051967 0.310317 0)
(-0.00394705 0.313942 0)
(-0.00259193 0.314852 0)
(-0.000975416 0.313072 0)
(0.000779506 0.30784 0)
(0.0024292 0.301089 0)
(0.00392306 0.291122 0)
(0.00503696 0.280633 0)
(0.00550157 0.26508 0)
(0.00545947 0.251201 0)
(0.00533114 0.237228 0)
(0.00503283 0.224391 0)
(0.00418419 0.213807 0)
(0.00189784 0.206028 0)
(2.6067e-05 0.200256 0)
(-4.83373e-05 0.194404 0)
(-0.00207717 0.18491 0)
(-0.00130766 0.174747 0)
(-0.000270982 0.254476 0)
(-0.000650591 0.263802 0)
(-0.00257693 0.27366 0)
(-0.00378912 0.281508 0)
(-0.00432172 0.289647 0)
(-0.00422488 0.299554 0)
(-0.00379095 0.305918 0)
(-0.00305547 0.307953 0)
(-0.00194809 0.312012 0)
(-0.000529821 0.312617 0)
(0.000967494 0.309141 0)
(0.00237959 0.305104 0)
(0.00352843 0.297911 0)
(0.00470106 0.287855 0)
(0.00567257 0.277318 0)
(0.00630645 0.266785 0)
(0.00621729 0.251315 0)
(0.00596462 0.237942 0)
(0.00543184 0.225648 0)
(0.00402506 0.21544 0)
(0.00113039 0.207678 0)
(-0.00042645 0.201501 0)
(-0.000109461 0.194409 0)
(-0.00266987 0.185562 0)
(-0.00177042 0.174379 0)
(-0.000361311 0.255502 0)
(-0.000762002 0.267439 0)
(-0.00175393 0.274424 0)
(-0.00242334 0.284661 0)