/*--------------------------------*- C++ -*----------------------------------*\
| =========                 |                                                 |
| \\      /  F ield         | OpenFOAM: The Open Source CFD Toolbox           |
|  \\    /   O peration     | Version:  2.3.0                                 |
|   \\  /    A nd           | Web:      www.OpenFOAM.org                      |
|    \\/     M anipulation  |                                                 |
\*---------------------------------------------------------------------------*/
FoamFile
{
    version     2.0;
    format      ascii;
    class       volVectorField;
    location    "69";
    object      U.water;
}
// * * * * * * * * * * * * * * * * * * * * * * * * * * * * * * * * * * * * * //

dimensions      [0 1 -1 0 0 0 0];

internalField   nonuniform List<vector> 
1875
(
(0.0226439 -0.10424 0)
(0.0422586 -0.111186 0)
(0.0764501 -0.114092 0)
(0.111217 -0.112623 0)
(0.144724 -0.108373 0)
(0.175522 -0.102575 0)
(0.202833 -0.096003 0)
(0.226178 -0.0891072 0)
(0.245209 -0.0820937 0)
(0.25967 -0.0749985 0)
(0.26936 -0.0677664 0)
(0.274136 -0.0603941 0)
(0.273538 -0.0529511 0)
(0.267045 -0.0455498 0)
(0.254553 -0.0381428 0)
(0.236438 -0.0309396 0)
(0.213494 -0.024828 0)
(0.18699 -0.0207435 0)
(0.158616 -0.0197141 0)
(0.130492 -0.0221071 0)
(0.10448 -0.0271622 0)
(0.0813848 -0.0329932 0)
(0.0603896 -0.0371815 0)
(0.0364886 -0.0386533 0)
(0.0217008 -0.0411938 0)
(0.0301989 -0.0715816 0)
(0.0551332 -0.0773762 0)
(0.0856066 -0.0803855 0)
(0.112691 -0.0774805 0)
(0.13751 -0.0701729 0)
(0.159897 -0.0598526 0)
(0.179708 -0.0476912 0)
(0.196766 -0.0343749 0)
(0.210805 -0.0203204 0)
(0.221555 -0.00560514 0)
(0.228653 0.00985381 0)
(0.231416 0.0260478 0)
(0.23003 0.0421962 0)
(0.225228 0.0578509 0)
(0.216708 0.0727965 0)
(0.203754 0.0864338 0)
(0.18601 0.0971979 0)
(0.164263 0.104166 0)
(0.140079 0.106993 0)
(0.115188 0.10609 0)
(0.0905836 0.102866 0)
(0.0672454 0.0994845 0)
(0.0459587 0.0989494 0)
(0.0259127 0.101992 0)
(0.0116651 0.0987614 0)
(0.0217733 -0.188675 0)
(0.0496698 -0.183458 0)
(0.0761467 -0.173695 0)
(0.0972449 -0.160883 0)
(0.114954 -0.145747 0)
(0.129908 -0.128872 0)
(0.142287 -0.110645 0)
(0.152124 -0.091357 0)
(0.159542 -0.0711643 0)
(0.164662 -0.0502389 0)
(0.167706 -0.0286603 0)
(0.169078 -0.00625923 0)
(0.168213 0.0171896 0)
(0.164308 0.0413169 0)
(0.15733 0.0652567 0)
(0.147251 0.0877088 0)
(0.134087 0.106299 0)
(0.118038 0.118979 0)
(0.0997015 0.124529 0)
(0.080435 0.123335 0)
(0.0617004 0.117518 0)
(0.0445378 0.110561 0)
(0.0293272 0.106009 0)
(0.01652 0.103479 0)
(0.0085422 0.0979699 0)
(0.00829288 -0.224536 0)
(0.0325432 -0.214515 0)
(0.0490487 -0.198338 0)
(0.0622224 -0.179912 0)
(0.0734436 -0.159643 0)
(0.0827332 -0.137622 0)
(0.0898711 -0.11413 0)
(0.0947852 -0.0895537 0)
(0.0975884 -0.0641928 0)
(0.0984409 -0.0381773 0)
(0.0973866 -0.0115259 0)
(0.0944499 0.0156367 0)
(0.0900344 0.0431363 0)
(0.0844755 0.0709571 0)
(0.0777683 0.098547 0)
(0.0699034 0.124576 0)
(0.0609358 0.146557 0)
(0.051353 0.161377 0)
(0.0413989 0.167574 0)
(0.0315584 0.165269 0)
(0.0226252 0.156749 0)
(0.0150936 0.14608 0)
(0.00926455 0.136507 0)
(0.00501875 0.128726 0)
(0.00216883 0.120357 0)
(-0.000491474 -0.247236 0)
(0.013778 -0.237492 0)
(0.0189408 -0.220186 0)
(0.0232533 -0.199825 0)
(0.0269574 -0.176837 0)
(0.0292283 -0.151467 0)
(0.0298136 -0.124237 0)
(0.0288 -0.0958264 0)
(0.0263789 -0.0668149 0)
(0.0227748 -0.0374178 0)
(0.0182215 -0.00764014 0)
(0.0128743 0.0224918 0)
(0.00693377 0.0528705 0)
(0.000719853 0.0831695 0)
(-0.00538977 0.112553 0)
(-0.0108313 0.139354 0)
(-0.01495 0.160759 0)
(-0.0172895 0.173445 0)
(-0.0180077 0.176894 0)
(-0.0171989 0.171509 0)
(-0.0151573 0.160165 0)
(-0.012374 0.14725 0)
(-0.00907372 0.136142 0)
(-0.00524368 0.127308 0)
(-0.00334833 0.119139 0)
(-0.00556607 -0.250916 0)
(-0.00185526 -0.240177 0)
(-0.0071465 -0.221321 0)
(-0.0118375 -0.199491 0)
(-0.0166983 -0.174201 0)
(-0.0228067 -0.146061 0)
(-0.0299619 -0.116095 0)
(-0.0377567 -0.0851938 0)
(-0.0459038 -0.0540789 0)
(-0.0541493 -0.0230574 0)
(-0.0622403 0.00781734 0)
(-0.069809 0.038425 0)
(-0.0764414 0.0684929 0)
(-0.0816687 0.0974802 0)
(-0.0848138 0.124132 0)
(-0.0850892 0.146372 0)
(-0.0819598 0.161683 0)
(-0.0756808 0.168434 0)
(-0.0668921 0.166797 0)
(-0.0562963 0.157741 0)
(-0.0450596 0.144585 0)
(-0.0340908 0.131183 0)
(-0.0236004 0.120081 0)
(-0.0131096 0.111743 0)
(-0.00786242 0.104669 0)
(-0.0134843 -0.237857 0)
(-0.0156917 -0.225898 0)
(-0.029654 -0.206078 0)
(-0.0428174 -0.183373 0)
(-0.0562713 -0.156503 0)
(-0.0706599 -0.126777 0)
(-0.08518 -0.0957923 0)
(-0.0992221 -0.0646066 0)
(-0.112311 -0.0339265 0)
(-0.123996 -0.00406329 0)
(-0.133804 0.0248696 0)
(-0.141223 0.052602 0)
(-0.145708 0.0785837 0)
(-0.146691 0.101908 0)
(-0.143679 0.121186 0)
(-0.136511 0.134924 0)
(-0.125434 0.14208 0)
(-0.11115 0.142177 0)
(-0.0946405 0.135847 0)
(-0.0772143 0.124849 0)
(-0.0602891 0.112174 0)
(-0.0445827 0.100395 0)
(-0.0301119 0.0910017 0)
(-0.0164287 0.0842739 0)
(-0.00974869 0.0793545 0)
(-0.0197712 -0.208796 0)
(-0.0264637 -0.195204 0)
(-0.0474958 -0.174657 0)
(-0.0676354 -0.151231 0)
(-0.0881921 -0.123389 0)
(-0.108929 -0.0935016 0)
(-0.12862 -0.0634989 0)
(-0.146485 -0.0345389 0)
(-0.161761 -0.00734284 0)
(-0.173713 0.0177108 0)
(-0.181818 0.040364 0)
(-0.185714 0.0605539 0)
(-0.185111 0.0778017 0)
(-0.179916 0.0917112 0)
(-0.170219 0.101474 0)
(-0.156446 0.106549 0)
(-0.139319 0.106419 0)
(-0.119866 0.101576 0)
(-0.099396 0.0931732 0)
(-0.0793193 0.0829838 0)
(-0.0606763 0.0729638 0)
(-0.0438278 0.0645373 0)
(-0.0287346 0.0586181 0)
(-0.0152338 0.0556834 0)
(-0.00872305 0.0544512 0)
(-0.0239468 -0.167623 0)
(-0.0338276 -0.152535 0)
(-0.0591331 -0.131475 0)
(-0.0834729 -0.107736 0)
(-0.107877 -0.0801223 0)
(-0.131348 -0.0520358 0)
(-0.152507 -0.0255925 0)
(-0.170423 -0.0020783 0)
(-0.184276 0.0179051 0)
(-0.193527 0.0342284 0)
(-0.197819 0.0474206 0)
(-0.197076 0.0575723 0)
(-0.191511 0.064911 0)
(-0.181336 0.0691505 0)
(-0.167067 0.070048 0)
(-0.149556 0.067867 0)
(-0.12978 0.062867 0)
(-0.108999 0.055951 0)
(-0.0884636 0.0481651 0)
(-0.0692001 0.0406684 0)
(-0.0517812 0.0344518 0)
(-0.0363753 0.0302306 0)
(-0.0230241 0.0286561 0)
(-0.0117442 0.0302835 0)
(-0.00658766 0.0332063 0)
(-0.0263108 -0.118781 0)
(-0.0368721 -0.102563 0)
(-0.0634691 -0.0813517 0)
(-0.0888085 -0.0581205 0)
(-0.113539 -0.0323641 0)
(-0.136321 -0.00811865 0)
(-0.155862 0.0124573 0)
(-0.1713 0.0282235 0)
(-0.182164 0.0390346 0)
(-0.187728 0.0450713 0)
(-0.188558 0.0475513 0)
(-0.184183 0.0475835 0)
(-0.17529 0.0448501 0)
(-0.162515 0.0398494 0)
(-0.146693 0.033686 0)
(-0.128661 0.0267739 0)
(-0.10958 0.019607 0)
(-0.0905206 0.0128687 0)
(-0.0723214 0.00716974 0)
(-0.0555535 0.003063 0)
(-0.04053 0.000975719 0)
(-0.0274305 0.00130295 0)
(-0.0164567 0.00460067 0)
(-0.00783517 0.0114917 0)
(-0.00415833 0.018816 0)
(-0.0255765 -0.0678915 0)
(-0.0354822 -0.0509643 0)
(-0.0607158 -0.0300935 0)
(-0.0844283 -0.00845065 0)
(-0.106989 0.0138434 0)
(-0.127126 0.0326566 0)
(-0.143821 0.0458994 0)
(-0.156446 0.0527013 0)
(-0.16406 0.0536044 0)
(-0.167289 0.0497062 0)
(-0.165642 0.0419106 0)
(-0.159668 0.0318603 0)
(-0.149975 0.0207342 0)
(-0.137351 0.00968985 0)
(-0.122745 -0.000817434 0)
(-0.106998 -0.0102175 0)
(-0.0908984 -0.0180178 0)
(-0.0750554 -0.023864 0)
(-0.0599006 -0.0274934 0)
(-0.0457419 -0.0286628 0)
(-0.0328277 -0.0271236 0)
(-0.0214417 -0.022534 0)
(-0.0119583 -0.0143537 0)
(-0.00486004 -0.0019835 0)
(-0.00202485 0.0101358 0)
(-0.0227854 -0.0204933 0)
(-0.0312826 -0.00284449 0)
(-0.0535156 0.0174264 0)
(-0.0741237 0.0368397 0)
(-0.0933595 0.0551719 0)
(-0.110248 0.0684959 0)
(-0.124047 0.0749057 0)
(-0.134236 0.0738137 0)
(-0.140327 0.0657909 0)
(-0.142106 0.0521448 0)
(-0.139827 0.0353465 0)
(-0.134159 0.0177024 0)
(-0.125835 0.000543095 0)
(-0.115619 -0.0151262 0)
(-0.104195 -0.0286372 0)
(-0.0921148 -0.0396583 0)
(-0.079761 -0.0480238 0)
(-0.06737 -0.0536336 0)
(-0.0550952 -0.0563614 0)
(-0.0430794 -0.0559955 0)
(-0.031527 -0.0522062 0)
(-0.0207657 -0.0444908 0)
(-0.0112861 -0.0321505 0)
(-0.00385186 -0.0143221 0)
(-0.000900333 0.00367031 0)
(-0.0195791 0.0202551 0)
(-0.0263299 0.0388982 0)
(-0.0450117 0.0584296 0)
(-0.0620265 0.0753065 0)
(-0.0776358 0.0897126 0)
(-0.0912401 0.0980337 0)
(-0.102327 0.0984689 0)
(-0.110453 0.090472 0)
(-0.115155 0.0748177 0)
(-0.116403 0.0537933 0)
(-0.114745 0.0304916 0)
(-0.110831 0.00739527 0)
(-0.10528 -0.0139208 0)
(-0.0986275 -0.0325792 0)
(-0.0912253 -0.0482311 0)
(-0.0832756 -0.0608031 0)
(-0.0748738 -0.0703213 0)
(-0.0660473 -0.076797 0)
(-0.0567854 -0.0801236 0)
(-0.0470947 -0.0800035 0)
(-0.0370561 -0.0758753 0)
(-0.0268463 -0.0668882 0)
(-0.0168886 -0.0519256 0)
(-0.00822971 -0.0293533 0)
(-0.00420127 -0.00409924 0)
(-0.016132 0.0538956 0)
(-0.0208316 0.0736113 0)
(-0.0352523 0.0923039 0)
(-0.0482345 0.106439 0)
(-0.0601837 0.117338 0)
(-0.0706499 0.121648 0)
(-0.0792795 0.117526 0)
(-0.0856758 0.104291 0)
(-0.0895286 0.0830334 0)
(-0.091063 0.0569445 0)
(-0.0908481 0.0294252 0)
(-0.0893827 0.00295189 0)
(-0.0870642 -0.0210116 0)
(-0.0841285 -0.0418204 0)
(-0.0806535 -0.0593194 0)
(-0.0766356 -0.0735785 0)
(-0.072028 -0.0847305 0)
(-0.0667606 -0.0928677 0)
(-0.0607419 -0.0979506 0)
(-0.0538503 -0.0994843 0)
(-0.0459531 -0.0968634 0)
(-0.0369841 -0.0890874 0)
(-0.0272148 -0.0745197 0)
(-0.0172386 -0.0508544 0)
(-0.0114074 -0.0250744 0)
(-0.0114257 0.0793983 0)
(-0.0142123 0.0994427 0)
(-0.0237239 0.117145 0)
(-0.0324539 0.129491 0)
(-0.0407716 0.137972 0)
(-0.0481923 0.139557 0)
(-0.0545229 0.132458 0)
(-0.0594888 0.115818 0)
(-0.0629821 0.0912348 0)
(-0.0653282 0.0623332 0)
(-0.0669344 0.0324912 0)
(-0.0680493 0.00410333 0)
(-0.0687512 -0.0215151 0)
(-0.0690058 -0.0438924 0)
(-0.0687605 -0.0629679 0)
(-0.0679486 -0.0788657 0)
(-0.0665034 -0.091759 0)
(-0.0643555 -0.101795 0)
(-0.0614055 -0.108992 0)
(-0.0574587 -0.113219 0)
(-0.052249 -0.113872 0)
(-0.0454163 -0.109647 0)
(-0.0368857 -0.0989845 0)
(-0.0254862 -0.0798132 0)
(-0.0171849 -0.0603983 0)
(-0.00584531 0.0948119 0)
(-0.00687662 0.114915 0)
(-0.0115379 0.132435 0)
(-0.0159795 0.144147 0)
(-0.0203823 0.151444 0)
(-0.0245778 0.151786 0)
(-0.0285005 0.143449 0)
(-0.0321534 0.125487 0)
(-0.0355699 0.0998144 0)
(-0.0388634 0.0700857 0)
(-0.0421219 0.0394763 0)
(-0.0453112 0.0101661 0)
(-0.048281 -0.0166417 0)
(-0.0508622 -0.0403665 0)
(-0.0529455 -0.0608827 0)
(-0.0544694 -0.0782773 0)
(-0.0554275 -0.0927277 0)
(-0.0558412 -0.104454 0)
(-0.0556826 -0.113703 0)
(-0.0547938 -0.12063 0)
(-0.0528431 -0.124947 0)
(-0.0492289 -0.12608 0)
(-0.0429318 -0.122598 0)
(-0.0310541 -0.113902 0)
(-0.0191729 -0.104141 0)
(-0.000686621 0.0993569 0)
(0.000137783 0.119896 0)
(0.000382228 0.137562 0)
(0.000325896 0.149417 0)
(-0.000103612 0.156898 0)
(-0.000909908 0.157643 0)
(-0.00229645 0.150079 0)
(-0.00451243 0.133219 0)
(-0.007677 0.108565 0)
(-0.0115914 0.0795051 0)
(-0.0159769 0.0490791 0)
(-0.0205459 0.0194527 0)
(-0.0250374 -0.00809013 0)
(-0.0292348 -0.0328663 0)
(-0.0329714 -0.0546212 0)
(-0.036173 -0.073312 0)
(-0.0388715 -0.0890437 0)
(-0.0412014 -0.102067 0)
(-0.043222 -0.112849 0)
(-0.0447431 -0.121919 0)
(-0.0452819 -0.129673 0)
(-0.0440781 -0.13637 0)
(-0.0398817 -0.142061 0)
(-0.0296206 -0.146635 0)
(-0.0147398 -0.148582 0)
(0.00331414 0.0945488 0)
(0.00632884 0.11459 0)
(0.0116239 0.13266 0)
(0.0157541 0.145563 0)
(0.0191094 0.154289 0)
(0.0216305 0.156931 0)
(0.0228833 0.15198 0)
(0.0224722 0.138258 0)
(0.0201053 0.116505 0)
(0.0161068 0.0895971 0)
(0.0110431 0.0604121 0)
(0.00544618 0.0311588 0)
(-0.000264377 0.00327639 0)
(-0.00577365 -0.0223703 0)
(-0.0108503 -0.0453158 0)
(-0.0153739 -0.0652977 0)
(-0.0193433 -0.082264 0)
(-0.0228862 -0.0964423 0)
(-0.0260033 -0.108662 0)
(-0.0283529 -0.119842 0)
(-0.0294471 -0.130733 0)
(-0.0288743 -0.141962 0)
(-0.0263323 -0.15414 0)
(-0.0200944 -0.167839 0)
(-0.0058651 -0.177281 0)
(0.00678805 0.0805957 0)
(0.0116379 0.0989583 0)
(0.021274 0.118039 0)
(0.0292482 0.132995 0)
(0.0360283 0.143936 0)
(0.0415865 0.149562 0)
(0.0454923 0.148402 0)
(0.0471749 0.139647 0)
(0.0462679 0.122684 0)
(0.0428096 0.0995198 0)
(0.0374871 0.072747 0)
(0.031108 0.0446671 0)
(0.0243248 0.0169498 0)
(0.0176025 -0.00929585 0)
(0.0112657 -0.0333583 0)
(0.00552579 -0.0547411 0)
(0.000504561 -0.0732138 0)
(-0.00371947 -0.0889588 0)
(-0.00709403 -0.103034 0)
(-0.00951864 -0.116574 0)
(-0.0108002 -0.130252 0)
(-0.0107674 -0.1444 0)
(-0.00981239 -0.159467 0)
(-0.00837586 -0.176744 0)
(-5.41025e-05 -0.188936 0)
(0.00891642 0.0601611 0)
(0.0151191 0.076137 0)
(0.0279106 0.0956707 0)
(0.0392635 0.113003 0)
(0.0490711 0.126834 0)
(0.0573191 0.136131 0)
(0.0636726 0.139691 0)
(0.0676226 0.136192 0)
(0.0686245 0.125488 0)
(0.0664761 0.107846 0)
(0.061586 0.0850651 0)
(0.0548282 0.0593226 0)
(0.0471546 0.0325385 0)
(0.0393 0.00613975 0)
(0.0317566 -0.01887 0)
(0.0248592 -0.0417549 0)
(0.0188357 -0.0621138 0)
(0.0139059 -0.0800353 0)
(0.0101293 -0.0962542 0)
(0.00730183 -0.111843 0)
(0.00526291 -0.127503 0)
(0.00400198 -0.143441 0)
(0.00307343 -0.159404 0)
(0.000606275 -0.177229 0)
(0.0021816 -0.19099 0)
(0.00976338 0.0360081 0)
(0.016599 0.0488646 0)
(0.0311594 0.0676353 0)
(0.0451291 0.0870385 0)
(0.0574593 0.104073 0)
(0.0679326 0.117355 0)
(0.0763549 0.125851 0)
(0.0823828 0.128544 0)
(0.0854158 0.124514 0)
(0.0852415 0.113597 0)
(0.0816325 0.0963234 0)
(0.0751539 0.074307 0)
(0.0669377 0.0494627 0)
(0.0580817 0.0235387 0)
(0.049363 -0.00210475 0)
(0.0412938 -0.0264356 0)
(0.0341978 -0.0487819 0)
(0.028273 -0.069026 0)
(0.0235697 -0.0874908 0)
(0.0198523 -0.104933 0)
(0.0167345 -0.122005 0)
(0.0139118 -0.138753 0)
(0.0110248 -0.154502 0)
(0.00649933 -0.171546 0)
(0.00450734 -0.186782 0)
(0.00970569 0.0106276 0)
(0.0162641 0.0197789 0)
(0.0311883 0.0364989 0)
(0.0467105 0.0570058 0)
(0.0609829 0.0771335 0)
(0.073235 0.0945389 0)
(0.0832696 0.107938 0)
(0.0908405 0.116215 0)
(0.0957134 0.118537 0)
(0.0972503 0.114744 0)
(0.0954557 0.104779 0)
(0.0902019 0.0882899 0)
(0.0822875 0.0667937 0)
(0.072904 0.0422695 0)
(0.0631817 0.0165325 0)
(0.0539375 -0.0089819 0)
(0.0456786 -0.0332277 0)
(0.0386178 -0.0557055 0)
(0.0327763 -0.0763603 0)
(0.0279712 -0.0954607 0)
(0.0237321 -0.113448 0)
(0.0195433 -0.130371 0)
(0.0151734 -0.14559 0)
(0.00957205 -0.161248 0)
(0.00654301 -0.177241 0)
(0.00892708 -0.0133415 0)
(0.0144828 -0.00845402 0)
(0.0284581 0.00500275 0)
(0.0441767 0.0251712 0)
(0.0595328 0.0476858 0)
(0.0730831 0.0691023 0)
(0.084291 0.0874559 0)
(0.0929246 0.101518 0)
(0.0987595 0.110198 0)
(0.101561 0.113056 0)
(0.101329 0.109816 0)
(0.0981289 0.0999623 0)
(0.0916983 0.0832891 0)
(0.0828444 0.0614363 0)
(0.0727566 0.0364376 0)
(0.0626118 0.0102266 0)
(0.0532547 -0.0156417 0)
(0.0450899 -0.0401457 0)
(0.0381605 -0.0628424 0)
(0.0323048 -0.0835371 0)
(0.0271058 -0.102298 0)
(0.0219996 -0.119209 0)
(0.0167157 -0.1339 0)
(0.0106158 -0.148352 0)
(0.00768108 -0.16377 0)
(0.00754972 -0.0338892 0)
(0.0118434 -0.0338135 0)
(0.0237158 -0.0244381 0)
(0.037987 -0.00615309 0)
(0.0530918 0.0174173 0)
(0.0672238 0.0422979 0)
(0.0792207 0.0655007 0)
(0.0886088 0.0851939 0)
(0.0951634 0.100056 0)
(0.0989194 0.109279 0)
(0.0998033 0.111544 0)
(0.0982168 0.10781 0)
(0.0937958 0.0971993 0)
(0.0865665 0.0795554 0)
(0.077296 0.056585 0)
(0.0670824 0.0304799 0)
(0.0570896 0.00339461 0)
(0.0481011 -0.0229547 0)
(0.0403547 -0.0475644 0)
(0.0337239 -0.0698358 0)
(0.0278662 -0.089462 0)
(0.0222794 -0.106457 0)
(0.0166385 -0.120758 0)
(0.0103944 -0.134394 0)
(0.00789428 -0.148942 0)
(0.00570124 -0.0499923 0)
(0.00887547 -0.0549089 0)
(0.018048 -0.0495699 0)
(0.02966 -0.0343368 0)
(0.0430245 -0.0114942 0)
(0.0565773 0.0154345 0)
(0.0687509 0.0428352 0)
(0.0786088 0.0678901 0)
(0.0857441 0.0885511 0)
(0.0901536 0.103517 0)
(0.0920162 0.112024 0)
(0.0912689 0.113163 0)
(0.0884917 0.107627 0)
(0.0831968 0.0946983 0)
(0.0756873 0.0750584 0)
(0.0665974 0.0502923 0)
(0.0569556 0.0227601 0)
(0.0478109 -0.00510271 0)
(0.0397486 -0.0314956 0)
(0.03281 -0.0553515 0)
(0.0266945 -0.0759771 0)
(0.021008 -0.0933195 0)
(0.0154678 -0.107474 0)
(0.00949322 -0.120654 0)
(0.00733707 -0.134546 0)
(0.00376802 -0.0617095 0)
(0.00619105 -0.070924 0)
(0.012794 -0.0691923 0)
(0.0213869 -0.0574484 0)
(0.03194 -0.0366223 0)
(0.0435153 -0.00938582 0)
(0.0547119 0.0207726 0)
(0.064307 0.0503389 0)
(0.071586 0.0763527 0)
(0.0762699 0.096745 0)
(0.078588 0.109973 0)
(0.0787779 0.116047 0)
(0.0771189 0.114853 0)
(0.0735968 0.106398 0)
(0.0680797 0.090213 0)
(0.0609487 0.0676965 0)
(0.0527412 0.040725 0)
(0.0443827 0.0119886 0)
(0.036708 -0.0159125 0)
(0.0300464 -0.0412123 0)
(0.0241852 -0.0628531 0)
(0.0187902 -0.0807386 0)
(0.0136619 -0.0949882 0)
(0.00827368 -0.107988 0)
(0.00639513 -0.121539 0)
(0.00250246 -0.0702213 0)
(0.00447895 -0.0822969 0)
(0.00880334 -0.0834409 0)
(0.0146367 -0.0745499 0)
(0.0220079 -0.0560697 0)
(0.0306524 -0.0297738 0)
(0.0396993 0.00148325 0)
(0.0480237 0.0341033 0)
(0.0547341 0.0644522 0)
(0.059335 0.0896833 0)
(0.0618799 0.107343 0)
(0.062666 0.11714 0)
(0.0618904 0.11928 0)
(0.059806 0.114165 0)
(0.0562243 0.101269 0)
(0.051254 0.0812319 0)
(0.0451252 0.0556099 0)
(0.0383831 0.0268329 0)
(0.0318141 -0.00207312 0)
(0.0259853 -0.0285792 0)
(0.0208734 -0.0510744 0)
(0.0161404 -0.0694546 0)
(0.0115663 -0.0838822 0)
(0.00687131 -0.0969473 0)
(0.00528351 -0.110385 0)
(0.00253473 -0.0776569 0)
(0.00428696 -0.0898955 0)
(0.00632567 -0.0928189 0)
(0.00955294 -0.0856776 0)
(0.0139184 -0.0692016 0)
(0.0194671 -0.0443585 0)
(0.0257754 -0.0132467 0)
(0.0320248 0.0208704 0)
(0.0374049 0.054077 0)
(0.0413712 0.0828745 0)
(0.0438577 0.103895 0)
(0.0450268 0.116768 0)
(0.045026 0.121581 0)
(0.04406 0.118682 0)
(0.042134 0.108204 0)
(0.0392123 0.0903571 0)
(0.0353365 0.0663755 0)
(0.0306908 0.038248 0)
(0.025811 0.00899008 0)
(0.0212946 -0.0183024 0)
(0.0173074 -0.0413707 0)
(0.0135308 -0.0599466 0)
(0.00943584 -0.0743713 0)
(0.00528122 -0.0878156 0)
(0.00403025 -0.101344 0)
(0.00347299 -0.0862061 0)
(0.00568435 -0.0947848 0)
(0.00561403 -0.0974975 0)
(0.00587332 -0.0912932 0)
(0.00744742 -0.0763975 0)
(0.0102722 -0.0530535 0)
(0.0139029 -0.0227191 0)
(0.0177667 0.0117338 0)
(0.0213115 0.0463665 0)
(0.0241457 0.0772846 0)
(0.0261882 0.100457 0)
(0.0274975 0.115229 0)
(0.0281291 0.121798 0)
(0.0281423 0.120415 0)
(0.0275955 0.111462 0)
(0.0264536 0.0951428 0)
(0.024677 0.0726271 0)
(0.0222315 0.045467 0)
(0.0193369 0.016395 0)
(0.0164506 -0.011225 0)
(0.0138189 -0.0345323 0)
(0.0111792 -0.0528998 0)
(0.00744057 -0.0668405 0)
(0.00359836 -0.0812303 0)
(0.00270613 -0.0950599 0)
(0.00373386 -0.096605 0)
(0.00732996 -0.0990099 0)
(0.00588738 -0.0982481 0)
(0.00348548 -0.0921108 0)
(0.00272276 -0.0786137 0)
(0.00320635 -0.0567168 0)
(0.00434047 -0.0273432 0)
(0.00577266 0.00682123 0)
(0.00728349 0.041807 0)
(0.00875936 0.0734755 0)
(0.0101629 0.0974592 0)
(0.0114062 0.113053 0)
(0.012439 0.120412 0)
(0.013234 0.119778 0)
(0.0137931 0.11156 0)
(0.0140571 0.0961681 0)
(0.0139413 0.0746822 0)
(0.0133611 0.0485373 0)
(0.0122925 0.0200626 0)
(0.0109269 -0.00735746 0)
(0.00949123 -0.0303962 0)
(0.00786339 -0.0478323 0)
(0.00523806 -0.060363 0)
(0.0025062 -0.0765188 0)
(0.0018018 -0.0908877 0)
(0.00227402 -0.106368 0)
(0.00668774 -0.101801 0)
(0.00526658 -0.0954827 0)
(0.00224899 -0.0889257 0)
(-0.000104846 -0.0765933 0)
(-0.00161014 -0.0557955 0)
(-0.00274238 -0.0272715 0)
(-0.00357306 0.00619861 0)
(-0.00402273 0.0405953 0)
(-0.00391028 0.0716857 0)
(-0.00324322 0.0952699 0)
(-0.0022381 0.110641 0)
(-0.00102529 0.117923 0)
(0.000307623 0.117361 0)
(0.00167734 0.109304 0)
(0.00298013 0.0943915 0)
(0.00408644 0.0736071 0)
(0.00488933 0.0483389 0)
(0.0052825 0.0207738 0)
(0.00523662 -0.00595129 0)
(0.00484735 -0.0283916 0)
(0.00409003 -0.0450529 0)
(0.00297868 -0.0569003 0)
(0.0018812 -0.0734272 0)
(0.00124997 -0.0878882 0)
(4.67239e-05 -0.110986 0)
(0.00423615 -0.102067 0)
(0.0027746 -0.0926148 0)
(0.00046314 -0.0840344 0)
(-0.00247708 -0.0714742 0)
(-0.00543152 -0.0510683 0)
(-0.00831636 -0.0232078 0)
(-0.010936 0.00931153 0)
(-0.01294 0.0424311 0)
(-0.0139176 0.0718994 0)
(-0.0138666 0.0940868 0)
(-0.0130902 0.108378 0)
(-0.0117811 0.114807 0)
(-0.0100512 0.113712 0)
(-0.00805649 0.105382 0)
(-0.00593561 0.0905394 0)
(-0.0038436 0.0701613 0)
(-0.0019231 0.0456006 0)
(-0.000313101 0.0189513 0)
(0.000849239 -0.00679114 0)
(0.00149827 -0.0282825 0)
(0.00160114 -0.0440576 0)
(0.00134742 -0.0554787 0)
(0.00118648 -0.0718523 0)
(0.000779499 -0.0857979 0)
(-0.00203507 -0.111268 0)
(0.00144798 -0.0996567 0)
(-0.000743467 -0.088161 0)
(-0.00289846 -0.0779726 0)
(-0.00591721 -0.0644057 0)
(-0.00964593 -0.0437378 0)
(-0.0136608 -0.0162635 0)
(-0.0174447 0.015146 0)
(-0.0203529 0.0464014 0)
(-0.0218898 0.0734566 0)
(-0.0221228 0.0935218 0)
(-0.0213859 0.106075 0)
(-0.0199088 0.111131 0)
(-0.0178132 0.10903 0)
(-0.0152933 0.100057 0)
(-0.0125081 0.0849618 0)
(-0.0096254 0.0647188 0)
(-0.00680642 0.0406748 0)
(-0.00423962 0.0149013 0)
(-0.00216048 -0.00971525 0)
(-0.000720896 -0.0300316 0)
(4.41425e-05 -0.0447013 0)
(0.000361134 -0.0553771 0)
(0.000688899 -0.0713947 0)
(0.000611572 -0.084755 0)
(-0.00371047 -0.108285 0)
(-0.00159482 -0.0954118 0)
(-0.00409078 -0.082725 0)
(-0.00651214 -0.071442 0)
(-0.00972735 -0.0565003 0)
(-0.0139783 -0.0351415 0)
(-0.0187114 -0.00784772 0)
(-0.0230879 0.0222762 0)
(-0.026288 0.0512009 0)
(-0.0279067 0.0754188 0)
(-0.0280998 0.0929941 0)
(-0.0272201 0.103441 0)
(-0.0255233 0.106852 0)
(-0.023092 0.103462 0)
(-0.0201369 0.0936019 0)
(-0.0168282 0.0780367 0)
(-0.0133367 0.0577452 0)
(-0.00983942 0.0341028 0)
(-0.00657269 0.00920663 0)
(-0.00384807 -0.0141527 0)
(-0.00186164 -0.0331277 0)
(-0.00063303 -0.0465482 0)
(7.43869e-05 -0.0563101 0)
(0.000379373 -0.0716549 0)
(0.000575218 -0.0841517 0)
(-0.00455782 -0.102768 0)
(-0.00397751 -0.0895248 0)
(-0.00680062 -0.076338 0)
(-0.00954632 -0.0642114 0)
(-0.0131445 -0.0479559 0)
(-0.0178664 -0.0257611 0)
(-0.0229875 0.00125667 0)
(-0.0274404 0.0297085 0)
(-0.0304693 0.0558708 0)
(-0.0318825 0.076982 0)
(-0.0319151 0.0918693 0)
(-0.0308525 0.100244 0)
(-0.0288961 0.101944 0)
(-0.0261471 0.0971183 0)
(-0.0228408 0.0862415 0)
(-0.0191398 0.0700843 0)
(-0.0152087 0.049641 0)
(-0.0112381 0.0263518 0)
(-0.00750529 0.00236787 0)
(-0.00435434 -0.0196361 0)
(-0.00197492 -0.0371634 0)
(-0.000365792 -0.0492586 0)
(0.000688809 -0.0579982 0)
(0.00046569 -0.0721197 0)
(0.000391831 -0.0841761 0)
(-0.00521579 -0.0954897 0)
(-0.00538627 -0.0822408 0)
(-0.00857039 -0.0690548 0)
(-0.0117373 -0.0561812 0)
(-0.0158855 -0.0387807 0)
(-0.0209947 -0.0159496 0)
(-0.026138 0.0103705 0)
(-0.0302371 0.0367028 0)
(-0.0328013 0.0599601 0)
(-0.0338842 0.0781784 0)
(-0.0337196 0.0906363 0)
(-0.0324621 0.0965959 0)
(-0.0302271 0.0964101 0)
(-0.0272689 0.0901337 0)
(-0.0237529 0.0782246 0)
(-0.019847 0.0614467 0)
(-0.0157089 0.0408251 0)
(-0.0115493 0.0178922 0)
(-0.00767609 -0.0051613 0)
(-0.00442095 -0.0258272 0)
(-0.00193279 -0.0419491 0)
(-0.000185868 -0.0526517 0)
(0.000957457 -0.0598516 0)
(0.000532592 -0.0718353 0)
(0.00022885 -0.0844227 0)
(-0.00565414 -0.0869183 0)
(-0.00608711 -0.0739634 0)
(-0.00964676 -0.0609634 0)
(-0.0132776 -0.0473482 0)
(-0.0179182 -0.0290706 0)
(-0.0231877 -0.00609873 0)
(-0.0279912 0.0188969 0)
(-0.0314896 0.0427336 0)
(-0.0334903 0.0631197 0)
(-0.0341474 0.0787664 0)
(-0.0336335 0.0886901 0)
(-0.032121 0.0923762 0)
(-0.0297615 0.0904991 0)
(-0.0267509 0.0828809 0)
(-0.0232331 0.0700315 0)
(-0.0193683 0.0527136 0)
(-0.0153173 0.0320102 0)
(-0.0113195 0.00955908 0)
(-0.00769951 -0.0124535 0)
(-0.00474682 -0.0317378 0)
(-0.00254224 -0.0464508 0)
(-0.00104117 -0.0557785 0)
(-2.1239e-05 -0.061425 0)
(0.000109061 -0.0719511 0)
(0.000359168 -0.0846806 0)
(-0.00578814 -0.0776172 0)
(-0.00634043 -0.0650327 0)
(-0.0102553 -0.0522039 0)
(-0.0143154 -0.0380259 0)
(-0.0192033 -0.0191846 0)
(-0.024282 0.00329115 0)
(-0.0284634 0.0264021 0)
(-0.0312832 0.0475797 0)
(-0.0327341 0.0651882 0)
(-0.0329336 0.078256 0)
(-0.0320088 0.0857956 0)
(-0.0303142 0.0879393 0)
(-0.0279293 0.0845587 0)
(-0.024976 0.0757847 0)
(-0.0215959 0.0621572 0)
(-0.0179334 0.044454 0)
(-0.0141581 0.0238409 0)
(-0.0105304 0.00204281 0)
(-0.00736282 -0.0188315 0)
(-0.00487563 -0.036769 0)
(-0.00305806 -0.0502423 0)
(-0.00182752 -0.0585465 0)
(-0.000955611 -0.0635736 0)
(-0.000388097 -0.0729221 0)
(0.000339554 -0.0853355 0)
(-0.0057227 -0.0681322 0)
(-0.00632682 -0.0558855 0)
(-0.0104209 -0.0430187 0)
(-0.014747 -0.0285133 0)
(-0.01958 -0.0096 0)
(-0.0241269 0.0117155 0)
(-0.0275454 0.0326166 0)
(-0.0296909 0.0511979 0)
(-0.0306255 0.066212 0)
(-0.0304607 0.0768173 0)
(-0.0293895 0.0824843 0)
(-0.0276125 0.0832659 0)
(-0.0252218 0.0786864 0)
(-0.0223673 0.0689989 0)
(-0.0191747 0.0547942 0)
(-0.0157809 0.0368913 0)
(-0.0123649 0.0165508 0)
(-0.00919057 -0.00445699 0)
(-0.00653163 -0.0241656 0)
(-0.00451366 -0.0408512 0)
(-0.00305171 -0.0532374 0)
(-0.00204571 -0.0606194 0)
(-0.00128043 -0.0648275 0)
(-0.000627151 -0.0735355 0)
(9.93121e-05 -0.0857568 0)
(-0.00552121 -0.0587385 0)
(-0.00619091 -0.0468149 0)
(-0.01029 -0.033868 0)
(-0.0146275 -0.0192566 0)
(-0.0191109 -0.000828508 0)
(-0.0229341 0.018842 0)
(-0.0256074 0.0374786 0)
(-0.027154 0.0537034 0)
(-0.0276602 0.0665119 0)
(-0.0272456 0.075173 0)
(-0.0260916 0.0792752 0)
(-0.0242785 0.0786064 0)
(-0.0219414 0.0729885 0)
(-0.0192186 0.0625908 0)
(-0.0162472 0.0480137 0)
(-0.013167 0.0301108 0)
(-0.0101664 0.0102176 0)
(-0.0074974 -0.00991157 0)
(-0.00536935 -0.0285103 0)
(-0.00380812 -0.0441436 0)
(-0.00269905 -0.0556928 0)
(-0.00194816 -0.0624825 0)
(-0.00132959 -0.0666304 0)
(-0.000697073 -0.074969 0)
(0.000227617 -0.0866611 0)
(-0.00521451 -0.0496573 0)
(-0.00596129 -0.0380125 0)
(-0.00997355 -0.0250248 0)
(-0.0141094 -0.0106017 0)
(-0.018037 0.00681054 0)
(-0.0211045 0.0245989 0)
(-0.0231232 0.0410818 0)
(-0.0241617 0.0551929 0)
(-0.0242978 0.0660721 0)
(-0.0236486 0.0730677 0)
(-0.0223674 0.0757741 0)
(-0.020533 0.0739946 0)
(-0.0182773 0.0675371 0)
(-0.0157207 0.0566334 0)
(-0.0130045 0.041887 0)
(-0.0102771 0.0241803 0)
(-0.00773263 0.00488823 0)
(-0.00559474 -0.0143116 0)
(-0.00397049 -0.0318825 0)
(-0.00280503 -0.0466055 0)
(-0.00200869 -0.0574243 0)
(-0.00146921 -0.0636752 0)
(-0.00101262 -0.0676796 0)
(-0.000588658 -0.0760363 0)
(0.000420157 -0.0875284 0)
(-0.00485571 -0.0410679 0)
(-0.00568354 -0.0296618 0)
(-0.00950472 -0.0167724 0)
(-0.0132452 -0.00286084 0)
(-0.0165218 0.0131771 0)
(-0.0188988 0.0290691 0)
(-0.0203565 0.0435929 0)
(-0.0209594 0.0558365 0)
(-0.0207784 0.065037 0)
(-0.0199222 0.0706004 0)
(-0.0185288 0.0721649 0)
(-0.0166867 0.0694719 0)
(-0.0145213 0.0623921 0)
(-0.0121488 0.051185 0)
(-0.00971022 0.0364648 0)
(-0.00736141 0.0191364 0)
(-0.00529945 0.00056819 0)
(-0.00367909 -0.0177067 0)
(-0.00250179 -0.0344015 0)
(-0.00168938 -0.0483822 0)
(-0.00120392 -0.0586705 0)
(-0.000943944 -0.0647358 0)
(-0.000684738 -0.0684986 0)
(-0.000410598 -0.0764995 0)
(0.000472173 -0.0878777 0)
(-0.00447047 -0.0330948 0)
(-0.00538286 -0.0218973 0)
(-0.00893343 -0.00931691 0)
(-0.0121306 0.00378098 0)
(-0.0147373 0.0182855 0)
(-0.0165076 0.0323869 0)
(-0.0174813 0.0451485 0)
(-0.0177106 0.0557425 0)
(-0.0172659 0.0634735 0)
(-0.0162558 0.0678014 0)
(-0.0147908 0.0684311 0)
(-0.0129727 0.065066 0)
(-0.010914 0.0575749 0)
(-0.00873417 0.0462623 0)
(-0.00657722 0.0317559 0)
(-0.00460007 0.0149686 0)
(-0.0029756 -0.00279216 0)
(-0.00177989 -0.0202063 0)
(-0.000957653 -0.0361054 0)
(-0.000441393 -0.049403 0)
(-0.000248002 -0.0591379 0)
(-0.000344138 -0.0649676 0)
(-0.000361956 -0.0689718 0)
(-0.000222456 -0.0770587 0)
(0.000703802 -0.0880422 0)
(-0.00400125 -0.0260112 0)
(-0.00498588 -0.0149714 0)
(-0.00820556 -0.0029418 0)
(-0.0107992 0.0091391 0)
(-0.0127933 0.022145 0)
(-0.0140462 0.0346479 0)
(-0.0146121 0.0458705 0)
(-0.0145348 0.0550457 0)
(-0.0138859 0.0615485 0)
(-0.0127747 0.0648866 0)
(-0.0112865 0.0647501 0)
(-0.00952683 0.0608558 0)
(-0.00759762 0.0531105 0)
(-0.00562164 0.04185 0)
(-0.00374417 0.0276998 0)
(-0.00211828 0.0115521 0)
(-0.000862627 -0.00539468 0)
(2.39825e-06 -0.0220037 0)
(0.00054149 -0.0371905 0)
(0.000817711 -0.0498639 0)
(0.000772332 -0.0590595 0)
(0.000363743 -0.0646869 0)
(6.39284e-05 -0.0690755 0)
(2.12482e-06 -0.0770992 0)
(0.0009608 -0.0879787 0)
(-0.00342641 -0.0199196 0)
(-0.00430717 -0.00892226 0)
(-0.00699554 0.00234059 0)
(-0.00906 0.0133186 0)
(-0.0105877 0.0249449 0)
(-0.0114634 0.0360435 0)
(-0.0117399 0.0459288 0)
(-0.0114572 0.053886 0)
(-0.0106884 0.0593474 0)
(-0.00953571 0.0618658 0)
(-0.00807741 0.0611281 0)
(-0.00641691 0.0568765 0)
(-0.00465311 0.0490292 0)
(-0.00290677 0.0379543 0)
(-0.00130924 0.0242706 0)
(-3.87324e-06 0.00881489 0)
(0.000926232 -0.00735573 0)
(0.001502 -0.0232206 0)
(0.00178477 -0.0377596 0)
(0.0018208 -0.0498472 0)
(0.00153324 -0.0585025 0)
(0.000849688 -0.0638752 0)
(0.000309138 -0.0684682 0)
(0.000131886 -0.0767188 0)
(0.00104597 -0.0875768 0)
(-0.0027656 -0.0148125 0)
(-0.00339034 -0.00400448 0)
(-0.00541083 0.00659973 0)
(-0.00705811 0.0166114 0)
(-0.00823826 0.0270231 0)
(-0.00885002 0.0368905 0)
(-0.00893653 0.0456073 0)
(-0.00853901 0.0525152 0)
(-0.00772978 0.0570998 0)
(-0.00659818 0.0589478 0)
(-0.00522255 0.0577426 0)
(-0.00370208 0.053257 0)
(-0.00213331 0.0454223 0)
(-0.000632919 0.0346219 0)
(0.000675754 0.0214286 0)
(0.00168187 0.00671132 0)
(0.00232339 -0.00870401 0)
(0.0026289 -0.0238724 0)
(0.00266094 -0.0378067 0)
(0.00244276 -0.0493441 0)
(0.00190993 -0.0575282 0)
(0.00104909 -0.062782 0)
(0.000416371 -0.0680166 0)
(0.000205739 -0.0764255 0)
(0.00112889 -0.0871706 0)
(-0.00208966 -0.0106774 0)
(-0.00250517 -0.00016668 0)
(-0.00397732 0.00997466 0)
(-0.00524835 0.0191912 0)
(-0.0060997 0.0285522 0)
(-0.00647359 0.0373377 0)
(-0.00640487 0.0450371 0)
(-0.00593173 0.0510593 0)
(-0.00511504 0.0549055 0)
(-0.00402873 0.0561996 0)
(-0.0027508 0.054636 0)
(-0.00137216 0.0500189 0)
(2.25796e-06 0.042286 0)
(0.00125374 0.0318435 0)
(0.00225322 0.0192181 0)
(0.00294094 0.00515485 0)
(0.0033102 -0.00950773 0)
(0.00337157 -0.0240049 0)