/*--------------------------------*- C++ -*----------------------------------*\
| =========                 |                                                 |
| \\      /  F ield         | OpenFOAM: The Open Source CFD Toolbox           |
|  \\    /   O peration     | Version:  2.3.0                                 |
|   \\  /    A nd           | Web:      www.OpenFOAM.org                      |
|    \\/     M anipulation  |                                                 |
\*---------------------------------------------------------------------------*/
FoamFile
{
    version     2.0;
    format      ascii;
    class       volScalarField;
    location    "4.69984";
    object      k.air;
}
// * * * * * * * * * * * * * * * * * * * * * * * * * * * * * * * * * * * * * //

dimensions      [0 2 -2 0 0 0 0];

internalField   nonuniform List<scalar> 
1000
(
0.00382103
0.00541518
0.00561755
0.00485634
0.00386468
0.00294824
0.00194638
0.0011905
0.000815821
0.000761735
0.000896935
6.81019e-09
1e-15
0.00233464
0.00219646
0.00113709
0.000726173
0.000672771
0.00101946
0.00203695
0.00593631
0.00513691
0.00290468
0.00108284
0.000742301
0.000837928
0.00106696
0.00145065
0.00212434
5.32913e-15
3.57566e-15
2.75076e-15
1.92776e-15
0.00168005
0.00366378
0.000933838
0.000499173
0.000653571
0.000792832
0.00165409
0.00731924
0.00356091
0.000985849
0.00172396
0.00160712
0.00155305
0.00176183
0.002356
0.00305545
4.66242e-15
1.83402e-15
1.44783e-15
1.49235e-15
0.0011305
0.00493577
0.00143336
0.000496591
0.000788543
0.000997689
0.00152808
0.00824959
0.00275207
0.000605894
0.0014998
0.0013934
0.00136991
0.00164151
0.00226728
0.00311107
5.12054e-13
1.42183e-15
1.311e-15
1.38748e-15
0.00136688
0.00555623
0.00227388
0.000642297
0.000784643
0.00112588
0.0014982
0.00878678
0.00236561
0.00123885
0.00134057
0.00133667
0.00125883
0.00146678
0.00206344
0.0029908
0.00125756
9.37218e-11
1.40339e-15
1.37495e-15
0.00220194
0.00537723
0.0030862
0.00133871
0.000951104
0.00116488
0.00143556
0.00913557
0.00175177
0.00196616
0.00125613
0.00133811
0.00119259
0.00127398
0.00165964
0.00239027
0.00172483
0.00119508
0.00142668
0.00139781
0.00274653
0.00457718
0.00406153
0.00334412
0.00199957
0.0011201
0.00128309
0.00913109
0.0015897
0.00155836
0.00130936
0.0013082
0.00107329
0.00111869
0.0014543
0.00195582
0.00193106
0.000725303
0.00126762
0.00181638
0.00227537
0.00195682
0.00233373
0.00357149
0.00357928
0.00251898
0.00134201
0.00903229
0.00316371
0.00106041
0.00146829
0.00124996
0.00096028
0.000920102
0.0011363
0.00160802
0.00178148
0.00158152
0.00101751
0.000641344
0.000582191
0.000982011
0.00124911
0.00124515
0.00315792
0.00302061
0.00159017
0.00878869
0.00328997
0.000851672
0.00136084
0.00109414
0.000860001
0.000815745
0.000965107
0.0011734
0.00126841
0.00118013
0.00100305
0.0010333
0.00110166
0.00133773
0.00157364
0.00198665
0.00258173
0.00318838
0.00178418
0.00868078
0.00283058
0.00077536
0.000853036
0.000770428
0.000674908
0.00064679
0.00070111
0.000761669
0.000771588
0.000668318
0.000542101
0.000501475
0.000622199
0.000905619
0.00109713
0.00109925
0.00148406
0.00333504
0.00226447
0.00149241
0.00209781
0.0019875
0.0018755
0.00151066
0.00110339
0.000712367
0.00051701
0.000453296
0.000415774
0.000387723
0.000353619
0.00037351
0.000666635
0.000733357
0.000572
0.000472704
0.000485459
0.000662119
0.000953137
0.00184631
0.00236909
0.00158861
0.000944539
0.000936195
0.000996547
0.00111611
0.00130513
0.00157079
0.000683351
0.000339232
0.000217176
0.000193739
0.000724927
0.000944247
0.000482037
0.000334547
0.00038571
0.000620286
0.000859803
0.00201354
0.00211282
0.00100648
0.00111901
0.00103035
0.0010382
0.00110981
0.00136115
0.00167992
0.000524525
0.00023382
0.000211434
0.000108914
0.000498515
0.00133822
0.000600251
0.000376369
0.000448212
0.000753072
0.000843472
0.00204655
0.00184345
0.000549807
0.000863911
0.000802001
0.000806762
0.000905345
0.00115028
0.0015427
0.000643264
0.000271475
0.000296648
8.25842e-05
0.00052069
0.00189368
0.000948443
0.00049068
0.000516858
0.000811473
0.000843515
0.00204353
0.00160267
0.00116324
0.000767427
0.00070728
0.000686255
0.000765467
0.000981359
0.00132816
0.000760958
0.000402156
0.000541529
0.000247364
0.000941174
0.0020898
0.0014108
0.000867568
0.000691913
0.000855066
0.000842806
0.0019438
0.00144585
0.00182073
0.000720881
0.000634092
0.000593745
0.000616011
0.000743218
0.000990591
0.00117901
0.000643954
0.000978195
0.00109098
0.00166061
0.00224357
0.00201175
0.00168522
0.00117957
0.00103602
0.000808214
0.00174122
0.00146996
0.00159344
0.000645773
0.000562521
0.000506168
0.000527608
0.000619795
0.000748081
0.000850518
0.000553871
0.000729846
0.00127889
0.00156278
0.00151481
0.00166952
0.00203129
0.00192503
0.00169557
0.000864272
3.21496e-10
0.00375624
0.000894595
0.000575553
0.000481986
0.000396809
0.000380901
0.000438065
0.000581114
0.000660401
0.000709475
0.000747984
0.000820718
0.00100639
0.00125979
0.00133918
0.00217031
0.00204441
0.00177349
0.000962621
1e-15
0.00411832
0.00058836
0.000449101
0.000391502
0.000336991
0.000325021
0.000361369
0.000412206
0.000455141
0.00052741
0.000540124
0.000577652
0.000749689
0.000933627
0.000882131
0.00126867
0.00172567
0.00178094
0.00103507
1e-15
0.00367969
0.000446257
0.000355567
0.000344075
0.000314511
0.000305301
0.00032525
0.000347254
0.000359716
0.000367807
0.000371373
0.000377811
0.000499398
0.000603357
0.000610545
0.000500465
0.00167415
0.00182988
0.00118619
0.00107737
0.00152636
0.00135557
0.00122633
0.00100876
0.000648235
0.000431426
0.000339944
0.000307674
0.000236014
0.000239052
0.000249834
0.000255429
0.000315349
0.000512483
0.000482088
0.000428704
0.000438536
0.000603071
0.000742449
0.000949746
0.00178288
0.00114667
0.00114817
0.00101304
0.00102958
0.0010319
0.00106411
0.00105267
0.000617619
0.000512682
0.000284286
0.000221168
0.000344417
0.0004919
0.000380381
0.000292327
0.000286856
0.000572765
0.000641806
4.2924e-15
0.00183552
0.00150976
0.000935541
0.000895829
0.000895881
0.000924179
0.00100568
0.00097559
0.000613936
0.000502792
0.000257588
0.000155612
0.000278919
0.000680835
0.000448376
0.000336163
0.00029976
0.000683203
0.000627416
1.35904e-15
0.00164978
0.000765355
0.000724002
0.000679294
0.000682001
0.000717867
0.000794871
0.000808276
0.000709478
0.000537192
0.000342607
0.000125237
0.000302909
0.00101644
0.000610241
0.000454441
0.000370645
0.00071382
0.000626752
1.37698e-15
0.00139936
0.00139624
0.000636655
0.00057864
0.000571426
0.00061819
0.000697103
0.000725042
0.000746192
0.000586588
0.000544412
0.000378072
0.000665608
0.00147817
0.00108028
0.000851169
0.00053092
0.000740408
0.000629512
1.37213e-15
0.00135608
0.0017904
0.000558315
0.000481764
0.000475289
0.000488691
0.000551622
0.000578285
0.00074433
0.00100425
0.000849823
0.000911281
0.00118398
0.00149607
0.00138764
0.00112428
0.000788233
0.000884662
0.000642022
1.37525e-15
0.00154331
0.00147341
0.000423502
0.00038341
0.00038927
0.000406124
0.000428622
0.000451757
0.000475357
0.000587745
0.000811697
0.00108641
0.00127305
0.00154845
0.00171207
0.00180897
0.00140846
0.00129634
0.000712436
1.38425e-15
0.00572218
0.000832973
0.000331058
0.000304724
0.000284887
0.000277519
0.000292277
0.00033173
0.000405239
0.000427102
0.000401815
0.000371462
0.000505442
0.000572313
0.000569414
0.00204305
0.00269467
0.00146017
0.000792844
1.39215e-15
0.00447628
0.000532113
0.0002928
0.000276634
0.000252995
0.000246677
0.000264227
0.000285073
0.000301195
0.000332501
0.000369494
0.000336955
0.000429986
0.00056166
0.000486432
0.000607795
0.00360404
0.00169753
0.000840545
1.40078e-15
0.00437404
0.000399126
0.000292123
0.000286131
0.000264555
0.000258037
0.000271712
0.000287471
0.000296097
0.000302486
0.000323933
0.000330648
0.000348789
0.000354117
0.000348331
0.000359922
0.00232847
0.00161096
0.000864922
0.0016247
0.00193968
0.0018476
0.00181886
0.00166728
0.00109662
0.000740606
0.000520315
0.000413832
0.000354093
0.000360319
0.00033351
0.000351645
0.000645756
0.000740697
0.000573458
0.000467703
0.000461328
0.000643731
0.000950924
0.00138962
0.00252499
0.00146055
0.000996453
0.000947436
0.00102923
0.00102436
0.00108968
0.000913324
0.000390945
0.000333784
0.000228803
0.000195589
0.000734062
0.000953309
0.000481733
0.000320571
0.000255795
0.000586627
0.000859479
0.00119048
0.00539944
0.00174476
0.00106119
0.00104587
0.00103905
0.0010797
0.00116226
0.000837614
0.000176638
0.000203626
0.000203328
9.98932e-05
0.000493801
0.00136963
0.000612031
0.000355746
0.000216298
0.000727047
0.000849939
0.00111534
0.00463767
0.00151433
0.000841495
0.000804287
0.000803277
0.000876809
0.00097209
0.000657789
0.000117065
0.000173331
0.000244527
6.03952e-05
0.000507569
0.00185632
0.000891604
0.000506846
0.00024161
0.000758344
0.000853668
0.00108335
0.00200121
0.00174302
0.00076334
0.000707306
0.000688395
0.000771494
0.000901985
0.000644997
0.000105876
0.00012939
0.000382023
0.000542755
0.00106164
0.0022181
0.00156589
0.0010819
0.00036314
0.000748975
0.000843361
0.000949891
0.00206979
0.00186817
0.00071894
0.000634772
0.000594822
0.000630917
0.000792303
0.000724151
0.000172996
0.000109445
0.000447743
0.000625898
0.000828661
0.00109414
0.000936189
0.000684949
0.000472669
0.000723577
0.00081266
0.000719325
0.00519719
0.00144579
0.000641605
0.000562784
0.000506719
0.000530556
0.000659394
0.000784647
0.000376464
7.51444e-05
0.000214807
0.000842997
0.00094222
0.00153319
0.00147078
0.00179499
0.000977119
0.000881048
0.00074691
5.52132e-14
0.00622553
0.0008833
0.000577524
0.000481934
0.000396722
0.000379557
0.000436245
0.000579722
0.000760823
0.000606587
4.56269e-05
4.35412e-06
1.71621e-05
6.17915e-05
9.48937e-05
0.0014544
0.000697727
0.00079748
0.00083496
1.04465e-15
0.00423203
0.00059582
0.000449225
0.000391516
0.000337146
0.000325768
0.000364026
0.000412401
0.000451906
0.000478983
0.000458407
0.000179247
0.000270318
0.000878149
0.00101505
0.000958503
0.000259066
0.000489267
0.000847918
1.03468e-15
0.00369275
0.000454974
0.000355662
0.000344077
0.000314447
0.000305069
0.000324614
0.000349289
0.000374309
0.00038037
0.000451988
0.000485432
0.000503799
0.000437978
0.000456539
0.000372911
0.000202464
0.000435828
0.000914267
0.00339591
0.00341147
0.00362545
0.00424525
0.00427715
0.00306281
0.00211224
0.00134203
0.000850227
0.000653008
0.000901908
2.48906e-08
1e-15
0.00235422
0.002251
0.00115564
0.00071557
0.000619337
0.000993696
0.00204772
0.0030308
0.00171449
0.00129556
0.000821618
0.000730207
0.000713547
0.00088036
0.00104145
0.00115349
3.61114e-15
3.14484e-15
2.70677e-15
1.92244e-15
0.00171134
0.00369314
0.000935987
0.000476584
0.000405255
0.000721376
0.00168762
0.00313942
0.00378661
0.00239768
0.00173205
0.00162315
0.00155024
0.00169701
0.00201582
0.00175422
4.28853e-15
2.16514e-15
1.52964e-15
1.56347e-15
0.00110892
0.00497994
0.00149297
0.000460544
0.000223708
0.000952529
0.00156231
0.0034521
0.00425826
0.00231963
0.00149338
0.00139329
0.00136184
0.00158829
0.00195795
0.00170942
2.69927e-15
1.44575e-15
1.37041e-15
1.39966e-15
0.00131392
0.00550055
0.0021612
0.000659609
2.97246e-10
0.00105746
0.0015352
0.00370192
0.00526206
0.00225596
0.00131369
0.00133585
0.00126173
0.00147394
0.00192783
0.00183021
2.16864e-15
1.36971e-15
0.000338955
0.000861826
0.00225702
0.00541194
0.00331086
0.00171392
1.00019e-15
0.00105123
0.00146245
0.00402541
0.00683158
0.00198884
0.00124541
0.00133859
0.00119402
0.00129329
0.0017466
0.00183527
2.21566e-15
1.33295e-15
1.16433e-15
1.17034e-15
1.48023e-15
1e-15
1e-15
1e-15
1e-15
0.000702426
0.00131433
0.00424452
0.00641805
0.00142575
0.00129827
0.00130791
0.00107359
0.00112547
0.00152587
0.00200218
0.000714864
1.39945e-15
1.06444e-15
1.13202e-15
1.00885e-15
1e-15
1e-15
1e-15
1e-15
6.64324e-15
0.00119218
0.00441191
0.00467683
0.0010209
0.00146353
0.00124969
0.000959639
0.000915377
0.00112478
0.00157819
0.00192604
0.000818852
3.50949e-06
1.08356e-15
1.02452e-15
1.34143e-15
1.32915e-15
1.03231e-15
1e-15
1.00001e-15
0.00133555
0.00449881
0.00295549
0.000835974
0.00135938
0.00109405
0.000860445
0.000819067
0.000976089
0.00115773
0.0011987
0.00109262
0.000590923
2.47569e-15
4.58211e-15
0.000746115
7.07063e-11
1.48971e-15
1.00561e-15
1.00003e-15
0.00135362
0.00480401
0.00242751
0.000771438
0.000853003
0.000770503
0.000674629
0.000645678
0.000698006
0.000792411
0.000860807
0.000763946
0.000746917
0.000670716
0.00071402
0.000524565
0.000454818
6.25102e-15
1.23982e-15
0.00058094
0.00161107
)
;

boundaryField
{
    aeration
    {
        type            fixedValue;
        value           uniform 3.75e-05;
    }
    xsides
    {
        type            kqRWallFunction;
        value           nonuniform List<scalar> 
100
(
0.00382103
0.00593631
0.00731924
0.00824959
0.00878678
0.00913557
0.00913109
0.00903229
0.00878869
0.00868078
0.00149241
0.00184631
0.00201354
0.00204655
0.00204353
0.0019438
0.00174122
3.21496e-10
1e-15
1e-15
0.00107737
0.000949746
4.2924e-15
1.35904e-15
1.37698e-15
1.37213e-15
1.37525e-15
1.38425e-15
1.39215e-15
1.40078e-15
0.0016247
0.00138962
0.00119048
0.00111534
0.00108335
0.000949891
0.000719325
5.52132e-14
1.04465e-15
1.03468e-15
0.00339591
0.0030308
0.00313942
0.0034521
0.00370192
0.00402541
0.00424452
0.00441191
0.00449881
0.00480401
0.00203695
0.00165409
0.00152808
0.0014982
0.00143556
0.00128309
0.00134201
0.00159017
0.00178418
0.00226447
0.000953137
0.000859803
0.000843472
0.000843515
0.000842806
0.000808214
0.000864272
0.000962621
0.00103507
0.00118619
0.000742449
0.000641806
0.000627416
0.000626752
0.000629512
0.000642022
0.000712436
0.000792844
0.000840545
0.000864922
0.000950924
0.000859479
0.000849939
0.000853668
0.000843361
0.00081266
0.00074691
0.00083496
0.000847918
0.000914267
0.00204772
0.00168762
0.00156231
0.0015352
0.00146245
0.00131433
0.00119218
0.00133555
0.00135362
0.00161107
)
;
    }
    zsides
    {
        type            kqRWallFunction;
        value           nonuniform List<scalar> 
400
(
0.00382103
0.00593631
0.00731924
0.00824959
0.00878678
0.00913557
0.00913109
0.00903229
0.00878869
0.00868078
0.00541518
0.00513691
0.00356091
0.00275207
0.00236561
0.00175177
0.0015897
0.00316371
0.00328997
0.00283058
0.00561755
0.00290468
0.000985849
0.000605894
0.00123885
0.00196616
0.00155836
0.00106041
0.000851672
0.00077536
0.00485634
0.00108284
0.00172396
0.0014998
0.00134057
0.00125613
0.00130936
0.00146829
0.00136084
0.000853036
0.00386468
0.000742301
0.00160712
0.0013934
0.00133667
0.00133811
0.0013082
0.00124996
0.00109414
0.000770428
0.00294824
0.000837928
0.00155305
0.00136991
0.00125883
0.00119259
0.00107329
0.00096028
0.000860001
0.000674908
0.00194638
0.00106696
0.00176183
0.00164151
0.00146678
0.00127398
0.00111869
0.000920102
0.000815745
0.00064679
0.0011905
0.00145065
0.002356
0.00226728
0.00206344
0.00165964
0.0014543
0.0011363
0.000965107
0.00070111
0.000815821
0.00212434
0.00305545
0.00311107
0.0029908
0.00239027
0.00195582
0.00160802
0.0011734
0.000761669
0.000761735
5.32913e-15
4.66242e-15
5.12054e-13
0.00125756
0.00172483
0.00193106
0.00178148
0.00126841
0.000771588
0.000896935
3.57566e-15
1.83402e-15
1.42183e-15
9.37218e-11
0.00119508
0.000725303
0.00158152
0.00118013
0.000668318
6.81019e-09
2.75076e-15
1.44783e-15
1.311e-15
1.40339e-15
0.00142668
0.00126762
0.00101751
0.00100305
0.000542101
1e-15
1.92776e-15
1.49235e-15
1.38748e-15
1.37495e-15
0.00139781
0.00181638
0.000641344
0.0010333
0.000501475
0.00233464
0.00168005
0.0011305
0.00136688
0.00220194
0.00274653
0.00227537
0.000582191
0.00110166
0.000622199
0.00219646
0.00366378
0.00493577
0.00555623
0.00537723
0.00457718
0.00195682
0.000982011
0.00133773
0.000905619
0.00113709
0.000933838
0.00143336
0.00227388
0.0030862
0.00406153
0.00233373
0.00124911
0.00157364
0.00109713
0.000726173
0.000499173
0.000496591
0.000642297
0.00133871
0.00334412
0.00357149
0.00124515
0.00198665
0.00109925
0.000672771
0.000653571
0.000788543
0.000784643
0.000951104
0.00199957
0.00357928
0.00315792
0.00258173
0.00148406
0.00101946
0.000792832
0.000997689
0.00112588
0.00116488
0.0011201
0.00251898
0.00302061
0.00318838
0.00333504
0.00203695
0.00165409
0.00152808
0.0014982
0.00143556
0.00128309
0.00134201
0.00159017
0.00178418
0.00226447
0.00339591
0.0030308
0.00313942
0.0034521
0.00370192
0.00402541
0.00424452
0.00441191
0.00449881
0.00480401
0.00341147
0.00171449
0.00378661
0.00425826
0.00526206
0.00683158
0.00641805
0.00467683
0.00295549
0.00242751
0.00362545
0.00129556
0.00239768
0.00231963
0.00225596
0.00198884
0.00142575
0.0010209
0.000835974
0.000771438
0.00424525
0.000821618
0.00173205
0.00149338
0.00131369
0.00124541
0.00129827
0.00146353
0.00135938
0.000853003
0.00427715
0.000730207
0.00162315
0.00139329
0.00133585
0.00133859
0.00130791
0.00124969
0.00109405
0.000770503
0.00306281
0.000713547
0.00155024
0.00136184
0.00126173
0.00119402
0.00107359
0.000959639
0.000860445
0.000674629
0.00211224
0.00088036
0.00169701
0.00158829
0.00147394
0.00129329
0.00112547
0.000915377
0.000819067
0.000645678
0.00134203
0.00104145
0.00201582
0.00195795
0.00192783
0.0017466
0.00152587
0.00112478
0.000976089
0.000698006
0.000850227
0.00115349
0.00175422
0.00170942
0.00183021
0.00183527
0.00200218
0.00157819
0.00115773
0.000792411
0.000653008
3.61114e-15
4.28853e-15
2.69927e-15
2.16864e-15
2.21566e-15
0.000714864
0.00192604
0.0011987
0.000860807
0.000901908
3.14484e-15
2.16514e-15
1.44575e-15
1.36971e-15
1.33295e-15
1.39945e-15
0.000818852
0.00109262
0.000763946
2.48906e-08
2.70677e-15
1.52964e-15
1.37041e-15
0.000338955
1.16433e-15
1.06444e-15
3.50949e-06
0.000590923
0.000746917
1e-15
1.92244e-15
1.56347e-15
1.39966e-15
0.000861826
1.17034e-15
1.13202e-15
1.08356e-15
2.47569e-15
0.000670716
0.00235422
0.00171134
0.00110892
0.00131392
0.00225702
1.48023e-15
1.00885e-15
1.02452e-15
4.58211e-15
0.00071402
0.002251
0.00369314
0.00497994
0.00550055
0.00541194
1e-15
1e-15
1.34143e-15
0.000746115
0.000524565
0.00115564
0.000935987
0.00149297
0.0021612
0.00331086
1e-15
1e-15
1.32915e-15
7.07063e-11
0.000454818
0.00071557
0.000476584
0.000460544
0.000659609
0.00171392
1e-15
1e-15
1.03231e-15
1.48971e-15
6.25102e-15
0.000619337
0.000405255
0.000223708
2.97246e-10
1.00019e-15
1e-15
1e-15
1e-15
1.00561e-15
1.23982e-15
0.000993696
0.000721376
0.000952529
0.00105746
0.00105123
0.000702426
6.64324e-15
1.00001e-15
1.00003e-15
0.00058094
0.00204772
0.00168762
0.00156231
0.0015352
0.00146245
0.00131433
0.00119218
0.00133555
0.00135362
0.00161107
)
;
    }
    outlet
    {
        type            inletOutlet;
        phi             phi.air;
        inletValue      uniform 3.75e-05;
        value           nonuniform List<scalar> 
100
(
0.00868078
1e-15
1.40078e-15
1.03468e-15
0.00480401
0.00283058
0.00367969
0.00437404
0.00369275
0.00242751
3.75e-05
3.75e-05
3.75e-05
3.75e-05
3.75e-05
3.75e-05
3.75e-05
3.75e-05
3.75e-05
3.75e-05
3.75e-05
3.75e-05
3.75e-05
3.75e-05
3.75e-05
3.75e-05
3.75e-05
3.75e-05
3.75e-05
3.75e-05
3.75e-05
3.75e-05
3.75e-05
3.75e-05
3.75e-05
3.75e-05
3.75e-05
3.75e-05
3.75e-05
3.75e-05
3.75e-05
3.75e-05
3.75e-05
3.75e-05
3.75e-05
3.75e-05
3.75e-05
3.75e-05
3.75e-05
3.75e-05
3.75e-05
3.75e-05
3.75e-05
3.75e-05
3.75e-05
3.75e-05
3.75e-05
3.75e-05
3.75e-05
3.75e-05
3.75e-05
3.75e-05
3.75e-05
3.75e-05
3.75e-05
3.75e-05
3.75e-05
3.75e-05
3.75e-05
3.75e-05
3.75e-05
3.75e-05
3.75e-05
3.75e-05
3.75e-05
3.75e-05
3.75e-05
3.75e-05
3.75e-05
3.75e-05
3.75e-05
3.75e-05
3.75e-05
3.75e-05
3.75e-05
0.00148406
0.00167415
0.00232847
0.000202464
1.23982e-15
0.00333504
0.00182988
0.00161096
0.000435828
0.00058094
0.00226447
0.00118619
0.000864922
0.000914267
0.00161107
)
;
    }
}


// ************************************************************************* //
