/*--------------------------------*- C++ -*----------------------------------*\
| =========                 |                                                 |
| \\      /  F ield         | OpenFOAM: The Open Source CFD Toolbox           |
|  \\    /   O peration     | Version:  2.3.0                                 |
|   \\  /    A nd           | Web:      www.OpenFOAM.org                      |
|    \\/     M anipulation  |                                                 |
\*---------------------------------------------------------------------------*/
FoamFile
{
    version     2.0;
    format      ascii;
    class       volScalarField;
    location    "0.46";
    object      p_rgh;
}
// * * * * * * * * * * * * * * * * * * * * * * * * * * * * * * * * * * * * * //

dimensions      [1 -1 -2 0 0 0 0];

internalField   nonuniform List<scalar> 
545
(
-6.09859e+07
-1.13363e+07
-1.62557e+06
-2.0924e+06
-6.64115e+06
4.36842e+07
-2.39834e+06
-1.89829e+06
-2.01573e+06
-5.42441e+06
7.60442e+07
2.62048e+06
-396550
-439537
-5.68771e+06
4.40677e+07
-2.53638e+06
-1.54229e+06
-232708
-5.09874e+06
-7.01572e+07
-1.9e+06
-466349
3.08242e+06
8.75383e+06
-5.48253e+06
-1.52452e+06
-711403
-190547
-109115
-100044
-108520
-111952
-113238
-112653
-111507
-110129
-109004
-108010
-107251
-106577
-106036
-105352
-104537
-103560
-102537
-101298
-99990.8
-98237.1
-96322.7
-93927.9
-91151
-87756.5
-84032.6
-79666
-75060.9
-69784.6
-64402.2
-58615.7
-52883.4
-47033.5
-41389.9
-35793.6
-30689
-25722.9
-21128
-16168
-11735.3
-6458.52
-1951.48
-4.84735e+06
-1.00098e+06
-679615
-279802
-186985
-140538
-126288
-118403
-115574
-112935
-111752
-109816
-109169
-107669
-107405
-106314
-106211
-105104
-104707
-103257
-102717
-101033
-100201
-97979.4
-96522.6
-93684
-91403.3
-87466.3
-84239.9
-79418.5
-75271.1
-69562.5
-64603.6
-58395.7
-53098.8
-46772.3
-41617.1
-35504.8
-30810.6
-25519.6
-21285.4
-16026.4
-11902.1
-6336.94
-2250.55
-5.66317e+06
-557423
-466423
-178814
-160809
-135972
-128530
-118409
-117003
-112234
-112807
-108932
-110200
-106649
-108398
-105359
-107222
-104159
-105707
-102191
-103746
-100022
-101272
-96937
-97561.3
-92644.2
-92532.6
-86280.1
-85298.4
-78328.9
-76323.3
-68483.7
-65674.7
-57365.7
-54216.5
-45679.7
-42826.3
-34296.5
-31844
-24422.3
-22393.4
-14863.3
-13091.6
-5011.26
-3146.72
-5.98725e+06
326496
-35399.3
209.511
-105623
-117327
-127239
-114883
-119456
-109776
-115609
-106366
-113104
-103870
-111214
-102667
-110043
-101467
-108550
-99278.7
-106616
-97181.3
-104194
-94022.9
-100430
-89680
-95624.8
-83069.4
-88227.3
-75347
-79243
-65515.8
-68652.4
-54456
-57323.9
-42633.3
-46126
-31119.4
-34739.7
-21529.4
-25334.3
-11848.1
-16058.9
-1812.1
-6096.97
-1.521e+06
2.34701e+06
703769
151284
-86085
-108144
-128582
-111788
-122902
-106921
-118979
-103234
-116596
-100511
-114654
-99412.6
-113387
-98295.2
-111959
-95822.7
-110101
-93741.7
-107746
-90484.6
-103870
-86058.9
-99398.9
-79052.6
-91819.6
-71639.7
-82792.9
-61944.6
-72234
-50952.7
-61109.6
-38951.7
-50230.6
-27197.5
-38262.5
-18079.1
-28909.7
-8049.04
-19884.4
2151.19
-9587.85
-1.05692e+07
3.41467e+06
1.27278e+06
239598
-73056.8
-117524
-121921
-117056
-113141
-110619
-107513
-106811
-108068
-108105
-105043
-103832
-103091
-101602
-101645
-103445
-99893.9
-98430.8
-96070.7
-95219.7
-93281.3
-91419.9
-90813.4
-87335.1
-82015.3
-75203.7
-69838.4
-66651
-61104.3
-55606
-50427.2
-47381
-41627.5
-35640.4
-26774.3
-20519.1
-17486.9
-13789.5
-7131.43
-3364.78
-1572.71
-7.01678e+07
-1.9063e+06
-465856
3.09025e+06
8.76616e+06
4.4057e+07
-2.5425e+06
-1.54113e+06
-224268
-5.08595e+06
7.60336e+07
2.61469e+06
-394983
-431138
-5.67594e+06
4.36737e+07
-2.40389e+06
-1.89648e+06
-2.0078e+06
-5.41391e+06
-6.0996e+07
-1.13413e+07
-1.62362e+06
-2.08491e+06
-6.63152e+06
-1.50567e+06
2.33649e+06
716661
138785
-73260.2
-122559
-114236
-125614
-109480
-120678
-105286
-117155
-101959
-116014
-100288
-114040
-98886.9
-113144
-97411.9
-111847
-95244.7
-108936
-92567.6
-105733
-88412.8
-101457
-82570.5
-95760.6
-75617.3
-86722.5
-67333.7
-77609.7
-56626.7
-66730.6
-45452.5
-56233.9
-33156.9
-44640.2
-22755.9
-33756.7
-13021.4
-23802.3
-4323.02
-16242.5
4298.34
-5.97367e+06
322593
-27305.8
-6628.23
-98744.8
-125558
-119621
-122572
-112251
-117537
-108199
-114168
-105250
-112645
-103650
-110899
-102227
-109852
-100848
-108431
-98723.5
-105646
-95846.2
-102360
-91785.9
-97873.3
-86172.3
-91974.9
-79167
-83403.6
-70564.3
-74151.4
-60078.5
-63296
-48999.6
-52417.1
-37161.2
-40972.7
-26533.9
-30222.3
-16507.1
-20441
-7624.47
-12251
1630.68
-5.6533e+06
-555346
-462748
-180547
-159066
-138877
-126537
-120966
-115101
-114839
-110840
-111514
-108149
-109749
-106531
-108150
-105140
-106993
-103801
-105413
-101700
-102721
-98764.1
-99338.6
-94735.7
-94740.1
-89283
-88665.9
-82218.4
-80397.7
-73491
-71021.8
-63145.7
-60222.3
-52115
-49116.6
-40568.5
-37790.1
-29734.2
-27182.8
-19603.1
-17432.9
-10483.3
-8991.22
-2051.97
-4.83862e+06
-996863
-677077
-279778
-186880
-141627
-126264
-119249
-115515
-113824
-111704
-110724
-109175
-108835
-107527
-107300
-106147
-106081
-104771
-104407
-102660
-101764
-99682.8
-98322.4
-95640.5
-93684.1
-90245
-87515.5
-83157.4
-79407.5
-74386.9
-69963.7
-64125.8
-59224.9
-53111.2
-48047.9
-41728.3
-36783.6
-30817.8
-26228.3
-20674.4
-16412.4
-11479.6
-7627.23
-2390.46
-5.4747e+06
-1.51942e+06
-709247
-189820
-109522
-100523
-109111
-112330
-113718
-113073
-112044
-110596
-109664
-108627
-107948
-107088
-106581
-105821
-105168
-104082
-103034
-101472
-100035
-97973.8
-95977.3
-93305.2
-90600.4
-87084.4
-83472.8
-79059.3
-74700.9
-69550.6
-64490.5
-58860.3
-53496.9
-47670.7
-42190.3
-36471.1
-31208.6
-25969.6
-21025.4
-16146.5
-11748.4
-7436.06
-3465.2
)
;

boundaryField
{
    AirInlet
    {
        type            fixedFluxPressure;
        gradient        uniform 3.63632e+08;
        value           uniform -1.05656e+07;
    }
    WaterInlet
    {
        type            fixedFluxPressure;
        gradient        nonuniform List<scalar> 10(0 -0.0292394 -0.0303843 0 -0.0171903 0 0 0 0 -0.0298503);
        value           nonuniform List<scalar> 10(-6.09859e+07 4.36842e+07 7.60442e+07 4.40677e+07 -7.01572e+07 -7.01678e+07 4.4057e+07 7.60336e+07 4.36737e+07 -6.0996e+07);
    }
    ChannelWall
    {
        type            fixedFluxPressure;
        gradient        uniform 0;
        value           nonuniform List<scalar> 
110
(
-7.01572e+07
-1.9e+06
-466349
3.08242e+06
8.75383e+06
-7.01678e+07
-1.9063e+06
-465856
3.09025e+06
8.76616e+06
-6.0996e+07
-1.13413e+07
-1.62362e+06
-2.08491e+06
-6.63152e+06
-5.4747e+06
-1.51942e+06
-709247
-189820
-109522
-100523
-109111
-112330
-113718
-113073
-112044
-110596
-109664
-108627
-107948
-107088
-106581
-105821
-105168
-104082
-103034
-101472
-100035
-97973.8
-95977.3
-93305.2
-90600.4
-87084.4
-83472.8
-79059.3
-74700.9
-69550.6
-64490.5
-58860.3
-53496.9
-47670.7
-42190.3
-36471.1
-31208.6
-25969.6
-21025.4
-16146.5
-11748.4
-7436.06
-3465.2
-6.09859e+07
-1.13363e+07
-1.62557e+06
-2.0924e+06
-6.64115e+06
-5.48253e+06
-1.52452e+06
-711403
-190547
-109115
-100044
-108520
-111952
-113238
-112653
-111507
-110129
-109004
-108010
-107251
-106577
-106036
-105352
-104537
-103560
-102537
-101298
-99990.8
-98237.1
-96322.7
-93927.9
-91151
-87756.5
-84032.6
-79666
-75060.9
-69784.6
-64402.2
-58615.7
-52883.4
-47033.5
-41389.9
-35793.6
-30689
-25722.9
-21128
-16168
-11735.3
-6458.52
-1951.48
)
;
    }
    Outlet
    {
        type            totalPressure;
        rho             rho;
        psi             none;
        gamma           1;
        p0              uniform 0;
        value           uniform 0;
    }
    FrontAndBack
    {
        type            empty;
    }
}


// ************************************************************************* //
