/*--------------------------------*- C++ -*----------------------------------*\
| =========                 |                                                 |
| \\      /  F ield         | OpenFOAM: The Open Source CFD Toolbox           |
|  \\    /   O peration     | Version:  2.3.0                                 |
|   \\  /    A nd           | Web:      www.OpenFOAM.org                      |
|    \\/     M anipulation  |                                                 |
\*---------------------------------------------------------------------------*/
FoamFile
{
    version     2.0;
    format      ascii;
    class       volScalarField;
    location    "0.34";
    object      k.air;
}
// * * * * * * * * * * * * * * * * * * * * * * * * * * * * * * * * * * * * * //

dimensions      [0 2 -2 0 0 0 0];

internalField   nonuniform List<scalar> 
6000
(
0.814544
0.905515
0.940357
0.954053
0.966541
0.98367
0.988368
0.976762
0.963107
0.967086
0.986197
1.01731
1.04863
1.06184
1.05387
1.0526
1.0601
1.04496
1.01363
0.984251
0.966513
0.963602
0.976748
0.987473
0.986516
0.969906
0.954899
0.937438
0.902834
0.8149
0.540981
0.853242
0.945068
0.981821
1.01501
1.04732
1.08601
1.08835
1.05427
1.05822
1.1007
1.20088
1.30535
1.34913
1.3566
1.35499
1.3416
1.29354
1.17058
1.08962
1.05531
1.05715
1.09257
1.08994
1.04528
1.01049
0.978443
0.943379
0.849548
0.539308
0.393295
0.741343
0.869568
0.926913
0.968062
1.00575
1.03756
1.05548
1.06447
1.09029
1.1358
1.20854
1.26146
1.29363
1.3078
1.30651
1.29053
1.25782
1.19451
1.12724
1.08634
1.06192
1.05453
1.03732
1.00382
0.965249
0.923909
0.867233
0.737763
0.390412
0.330424
0.653684
0.784716
0.860718
0.91533
0.961708
0.999568
1.0346
1.06088
1.09794
1.16777
1.21052
1.22081
1.23563
1.24446
1.24449
1.23647
1.2244
1.21926
1.15185
1.0907
1.057
1.0303
0.996652
0.958057
0.910946
0.856115
0.780896
0.64934
0.324147
0.270409
0.568772
0.711175
0.8029
0.871158
0.929414
0.978697
1.02929
1.06937
1.12426
1.21868
1.20157
1.19353
1.19638
1.19986
1.20068
1.1994
1.20046
1.21539
1.19681
1.11111
1.06329
1.02141
0.973207
0.923127
0.864361
0.796059
0.704962
0.563538
0.265761
0.218752
0.489116
0.64961
0.757
0.838881
0.910253
0.972969
1.03611
1.08709
1.16267
1.23854
1.19813
1.18009
1.17477
1.17405
1.17525
1.17887
1.18866
1.21447
1.25642
1.15435
1.08107
1.02609
0.964298
0.900897
0.829647
0.746874
0.638938
0.479662
0.214013
0.196965
0.447198
0.611696
0.730115
0.825
0.908584
0.983242
1.05596
1.12077
1.21541
1.23309
1.20057
1.1813
1.17153
1.16787
1.16918
1.17597
1.19022
1.21823
1.26731
1.21024
1.11272
1.04478
0.971061
0.895121
0.812026
0.717411
0.599277
0.437832
0.191034
0.202401
0.450463
0.60634
0.729526
0.833366
0.926545
1.01555
1.09867
1.1951
1.31114
1.25635
1.2213
1.19854
1.18492
1.17894
1.18017
1.18896
1.20654
1.23578
1.28115
1.30608
1.18187
1.08423
0.997075
0.907942
0.816136
0.714849
0.598446
0.445128
0.196613
0.222677
0.47743
0.627562
0.752969
0.865908
0.969142
1.07476
1.17965
1.3199
1.38918
1.30935
1.26598
1.23673
1.2175
1.20824
1.20939
1.22124
1.244
1.27876
1.33045
1.4139
1.30149
1.15598
1.04686
0.944014
0.843111
0.737373
0.624878
0.476993
0.217552
0.246641
0.524516
0.682678
0.808291
0.927087
1.03931
1.16022
1.3242
1.48805
1.4595
1.38135
1.32636
1.28592
1.25821
1.24456
1.24591
1.26256
1.29443
1.34054
1.40267
1.48864
1.46725
1.28486
1.12248
1.00549
0.899939
0.792931
0.679516
0.520644
0.23918
0.269047
0.583346
0.764268
0.896164
1.02355
1.15801
1.33537
1.55562
1.68332
1.56985
1.47122
1.3876
1.32617
1.28582
1.26627
1.26804
1.29154
1.33689
1.40489
1.49346
1.59428
1.6827
1.50881
1.27891
1.1121
0.992075
0.881976
0.753842
0.57048
0.257018
0.292102
0.647589
0.856449
1.01411
1.16475
1.33859
1.58609
1.84088
1.84193
1.67772
1.54101
1.42655
1.34064
1.28233
1.25455
1.25695
1.28964
1.35384
1.4462
1.56875
1.70707
1.87601
1.80064
1.51406
1.27857
1.12955
0.998125
0.837176
0.621137
0.272469
0.312034
0.707132
0.947973
1.14841
1.33819
1.58557
1.91263
2.13715
1.93289
1.74602
1.586
1.44252
1.32761
1.25302
1.21798
1.22067
1.26146
1.34286
1.46481
1.61293
1.77655
1.98323
2.12643
1.82854
1.51296
1.29217
1.12164
0.916703
0.664132
0.28409
0.328058
0.758487
1.03913
1.29007
1.5495
1.88236
2.26685
2.27105
1.94812
1.78456
1.60292
1.42762
1.2999
1.22204
1.18608
1.18843
1.22966
1.31455
1.45135
1.63247
1.81002
1.98612
2.29867
2.16719
1.7911
1.48491
1.24082
0.989213
0.697844
0.293101
0.341877
0.803415
1.12746
1.43843
1.77653
2.18384
2.46032
2.23803
1.95194
1.77633
1.57212
1.39645
1.27434
1.19916
1.16427
1.16609
1.20559
1.28645
1.4174
1.60202
1.80496
1.97433
2.26754
2.39642
2.07992
1.69471
1.3681
1.05719
0.725438
0.300743
0.352531
0.836665
1.20193
1.57845
2.01264
2.44216
2.4427
2.21467
1.95441
1.74794
1.5441
1.37975
1.26358
1.19173
1.1575
1.15912
1.19624
1.27331
1.39522
1.56842
1.77414
1.97393
2.2217
2.39472
2.3318
1.91734
1.498
1.12608
0.757327
0.308324
0.349659
0.840707
1.24435
1.68971
2.20959
2.55296
2.40368
2.23425
1.97632
1.77351
1.57725
1.41541
1.29779
1.22314
1.18789
1.18881
1.22733
1.30514
1.4279
1.59283
1.78779
1.99077
2.22933
2.35373
2.45093
2.13453
1.63414
1.20501
0.801739
0.319323
0.320646
0.798418
1.25661
1.77182
2.31811
2.42469
2.29145
2.19155
1.97774
1.78786
1.6243
1.47986
1.36762
1.29076
1.25291
1.25322
1.29323
1.37101
1.48681
1.62851
1.79831
1.99309
2.18639
2.24865
2.34933
2.27414
1.77861
1.27971
0.8537
0.326847
0.332533
0.812022
1.25684
1.75539
2.24891
2.22722
2.11955
2.03472
1.90492
1.7355
1.58001
1.45941
1.36529
1.29946
1.26391
1.26455
1.29871
1.36587
1.45912
1.58324
1.74503
1.91833
2.03008
2.08889
2.17683
2.22314
1.79537
1.30523
0.848389
0.342947
0.343582
0.828402
1.25502
1.71568
2.07966
2.02108
1.92967
1.84394
1.74088
1.616
1.49354
1.39041
1.30811
1.25003
1.21999
1.21986
1.24967
1.30714
1.38855
1.49417
1.61962
1.74356
1.83591
1.90531
1.99523
2.08077
1.76446
1.28819
0.854571
0.352177
0.340427
0.821703
1.23613
1.66763
1.95765
1.85901
1.75746
1.66798
1.57553
1.47782
1.38493
1.30292
1.23657
1.19056
1.16659
1.1663
1.1892
1.2347
1.29961
1.38123
1.47542
1.57119
1.65682
1.74085
1.84717
1.96983
1.72518
1.26535
0.847392
0.346422
0.336879
0.809198
1.20287
1.61498
1.87849
1.74012
1.61853
1.52056
1.43239
1.35047
1.27553
1.21008
1.15813
1.12206
1.10352
1.10292
1.12039
1.1551
1.20572
1.26932
1.34303
1.42396
1.50894
1.60555
1.73324
1.88834
1.67673
1.22627
0.822745
0.338666
0.332842
0.790822
1.15868
1.54175
1.81081
1.65071
1.50855
1.40108
1.3133
1.23913
1.17556
1.12241
1.08108
1.05294
1.03841
1.0378
1.05095
1.0777
1.11728
1.16851
1.23064
1.30376
1.39035
1.4998
1.64826
1.82291
1.60255
1.1785
0.795902
0.330138
0.325791
0.768579
1.10905
1.45847
1.745
1.58209
1.42257
1.30496
1.21568
1.14531
1.08882
1.0439
1.01031
0.987817
0.976327
0.97569
0.98591
1.00694
1.03908
1.08235
1.13768
1.20715
1.29692
1.4166
1.58084
1.75494
1.51333
1.12671
0.770277
0.323227
0.318823
0.743777
1.06137
1.3808
1.6716
1.52753
1.35401
1.22826
1.13611
1.06746
1.0152
0.975878
0.947442
0.928939
0.91954
0.919005
0.927251
0.944621
0.971821
1.01018
1.06167
1.13049
1.22375
1.35266
1.52854
1.68328
1.42468
1.07581
0.745672
0.316783
0.310963
0.720951
1.01937
1.31541
1.60819
1.4873
1.30117
1.16748
1.07232
1.00375
0.953931
0.917893
0.892868
0.876893
0.868985
0.868533
0.875658
0.890776
0.915217
0.950775
1.0008
1.0704
1.16789
1.30509
1.49242
1.61092
1.3454
1.03121
0.723293
0.310977
0.303763
0.700467
0.983842
1.26174
1.5537
1.4654
1.2645
1.12206
1.02262
0.952924
0.903691
0.869336
0.846112
0.83171
0.824657
0.824402
0.830938
0.845029
0.868103
0.902816
0.953107
1.02527
1.12786
1.27415
1.47404
1.55115
1.28074
0.994464
0.70664
0.306098
0.298222
0.682132
0.952715
1.21777
1.50749
1.45385
1.242
1.0907
0.986059
0.913667
0.863612
0.829394
0.806779
0.792978
0.786359
0.786258
0.792718
0.806535
0.829592
0.864897
0.917243
0.993588
1.1039
1.26185
1.47572
1.50011
1.22835
0.962823
0.692046
0.301199
0.295279
0.665875
0.923478
1.17832
1.46501
1.45551
1.23468
1.07352
0.961861
0.88519
0.832724
0.797348
0.77424
0.760291
0.753708
0.753712
0.760339
0.77459
0.798548
0.835742
0.891608
0.974332
1.09458
1.26592
1.48858
1.45635
1.18286
0.932818
0.676641
0.29517
0.294983
0.650247
0.89353
1.13925
1.42447
1.46535
1.24207
1.07088
0.949864
0.866761
0.810249
0.772389
0.747818
0.733098
0.726201
0.726207
0.733191
0.748278
0.773797
0.81369
0.874169
0.964392
1.09689
1.2835
1.51018
1.40912
1.1371
0.900898
0.658272
0.288186
0.288093
0.634384
0.861689
1.09822
1.38239
1.48717
1.26679
1.08087
0.949432
0.857607
0.795353
0.75376
0.72687
0.710809
0.703232
0.703128
0.710531
0.726679
0.754077
0.797092
0.862457
0.960242
1.10362
1.30547
1.51288
1.35093
1.08838
0.865502
0.63629
0.280287
0.265592
0.605801
0.82521
1.05111
1.32993
1.50696
1.30876
1.10429
0.957424
0.856465
0.787033
0.740654
0.710711
0.692757
0.684206
0.683853
0.69166
0.708917
0.738299
0.784409
0.854363
0.958523
1.11037
1.32236
1.49723
1.29099
1.04008
0.82848
0.611803
0.273204
0.237939
0.561255
0.777383
0.99399
1.25934
1.49476
1.3484
1.13369
0.973654
0.860759
0.783808
0.732025
0.698468
0.678281
0.668528
0.667784
0.675925
0.694261
0.725565
0.774602
0.848674
0.958441
1.11746
1.34041
1.46787
1.23469
0.993553
0.791411
0.58614
0.265379
0.211974
0.509208
0.715739
0.923981
1.1716
1.43214
1.37643
1.16432
0.993606
0.869871
0.784304
0.726696
0.689272
0.666666
0.655577
0.65434
0.662728
0.682069
0.71517
0.766924
0.844731
0.959286
1.12463
1.35534
1.43462
1.18261
0.948685
0.754739
0.559813
0.25098
0.191473
0.457035
0.649654
0.846336
1.0769
1.3395
1.392
1.19243
1.01283
0.879722
0.786274
0.723245
0.68213
0.657161
0.644703
0.642928
0.651509
0.671731
0.706483
0.760696
0.841851
0.960711
1.13119
1.36675
1.39385
1.13051
0.903116
0.716853
0.528193
0.230666
0.170189
0.408244
0.588306
0.771698
0.985515
1.23981
1.38316
1.20445
1.02307
0.88544
0.787081
0.720095
0.675975
0.648959
0.635253
0.632958
0.641663
0.662633
0.698751
0.754994
0.838747
0.960312
1.13294
1.36386
1.34283
1.07376
0.854348
0.674484
0.4903
0.209106
0.145517
0.368839
0.537384
0.708299
0.903586
1.14403
1.33306
1.19692
1.0205
0.884331
0.785141
0.715967
0.669885
0.641337
0.626623
0.623802
0.632556
0.654023
0.691099
0.748592
0.833722
0.956062
1.127
1.34282
1.27384
1.00857
0.800397
0.626763
0.450288
0.189592
0.144398
0.348873
0.503283
0.658838
0.841279
1.06388
1.26545
1.17568
1.00857
0.87752
0.77956
0.710004
0.663025
0.633555
0.618125
0.614898
0.623517
0.645173
0.682515
0.740066
0.824344
0.943667
1.10664
1.29071
1.18387
0.93552
0.7419
0.577573
0.412669
0.173208
0.14983
0.347028
0.485326
0.628597
0.796604
1.00085
1.19916
1.14859
0.989755
0.864331
0.769729
0.701539
0.654713
0.624915
0.609088
0.605522
0.613925
0.635325
0.672183
0.728275
0.808987
0.919861
1.06672
1.20786
1.08037
0.859069
0.682749
0.531344
0.379674
0.159734
0.144096
0.340257
0.473184
0.606289
0.759789
0.945754
1.12575
1.11137
0.966335
0.847074
0.756537
0.690459
0.644454
0.614808
0.598819
0.594993
0.603027
0.623854
0.659456
0.712915
0.787881
0.887359
1.01241
1.10046
0.971816
0.784012
0.627393
0.490431
0.351421
0.148306
0.14141
0.333031
0.460931
0.585237
0.726482
0.891008
1.04708
1.06538
0.939242
0.826522
0.740119
0.676434
0.631677
0.602477
0.586549
0.582494
0.590107
0.610039
0.643839
0.693616
0.7615
0.848187
0.947788
0.983141
0.867298
0.714987
0.579074
0.455698
0.327451
0.137971
0.141786
0.327083
0.450055
0.566768
0.694736
0.834992
0.971498
1.01514
0.910051
0.803107
0.720387
0.659141
0.61573
0.587144
0.571374
0.567172
0.574239
0.593076
0.624501
0.669825
0.729316
0.803167
0.874665
0.868905
0.777551
0.656524
0.539298
0.428109
0.30596
0.12773
0.142108
0.323312
0.440352
0.548418
0.660287
0.775859
0.898195
0.956181
0.874353
0.774022
0.695815
0.637707
0.59633
0.568886
0.553612
0.549277
0.555512
0.572577
0.60081
0.640786
0.692325
0.753401
0.790261
0.76977
0.703974
0.610902
0.508541
0.40955
0.289612
0.125293
0.141606
0.318123
0.428194
0.526129
0.621124
0.71717
0.822195
0.878384
0.823322
0.736248
0.665433
0.612485
0.574571
0.549332
0.535056
0.530668
0.535749
0.550431
0.575096
0.610263
0.655165
0.697315
0.710729
0.695155
0.648377
0.574422
0.483013
0.39033
0.288028
0.128739
0.139574
0.309517
0.411623
0.498938
0.580807
0.666772
0.755104
0.799407
0.761231
0.692991
0.63247
0.586008
0.552449
0.529953
0.516952
0.512672
0.516736
0.52931
0.551152
0.58247
0.618382
0.643231
0.653272
0.647745
0.611795
0.542811
0.460783
0.376634
0.281512
0.128818
0.135715
0.297514
0.391832
0.470428
0.547234
0.627871
0.706925
0.739522
0.703604
0.650086
0.600657
0.560817
0.531536
0.511608
0.499897
0.495936
0.499441
0.510658
0.530246
0.55709
0.583385
0.601421
0.617794
0.620886
0.586604
0.517947
0.4379
0.357742
0.268716
0.124556
0.130058
0.282241
0.370248
0.444947
0.520411
0.599854
0.674502
0.697191
0.657227
0.61148
0.571901
0.538633
0.513513
0.495982
0.48552
0.481966
0.485182
0.495315
0.51239
0.534086
0.553558
0.572364
0.59563
0.60311
0.565411
0.493615
0.415947
0.338397
0.253201
0.118458
0.123231
0.266631
0.350629
0.423498
0.497237
0.575993
0.647495
0.662045
0.619136
0.578296
0.546847
0.520201
0.499423
0.484465
0.475283
0.472059
0.474811
0.483302
0.496915
0.513244
0.528997
0.549149
0.573048
0.580168
0.540354
0.466366
0.39237
0.320245
0.238611
0.111889
0.117037
0.253157
0.333917
0.404084
0.474963
0.551106
0.618078
0.627176
0.584741
0.548875
0.524071
0.504061
0.487947
0.475809
0.468097
0.465219
0.467002
0.472779
0.482002
0.493219
0.505844
0.522832
0.540952
0.546884
0.508192
0.438264
0.368141
0.301433
0.226009
0.106347
0.112278
0.242192
0.319284
0.385576
0.451899
0.523146
0.584385
0.587728
0.54962
0.520149
0.500989
0.486924
0.475482
0.466414
0.460414
0.457963
0.458323
0.460794
0.465586
0.472241
0.48116
0.492275
0.504742
0.508557
0.473343
0.411481
0.346909
0.28357
0.214943
0.101495
0.10893
0.233309
0.306181
0.36761
0.428061
0.492372
0.545777
0.544174
0.513154
0.490337
0.475867
0.466436
0.458911
0.452761
0.448529
0.446376
0.445368
0.445268
0.446592
0.449718
0.455244
0.462509
0.471268
0.471172
0.440612
0.38939
0.330638
0.271136
0.205343
0.0971392
0.106734
0.226144
0.294335
0.350336
0.404279
0.460445
0.504396
0.500638
0.476744
0.459462
0.44869
0.442273
0.437335
0.433298
0.430456
0.428529
0.426919
0.425753
0.425288
0.426327
0.429929
0.435381
0.441922
0.436614
0.411849
0.37352
0.319577
0.262778
0.199058
0.0940997
0.105712
0.220724
0.283765
0.333905
0.381189
0.429136
0.463262
0.459622
0.441746
0.42872
0.420437
0.415621
0.412132
0.409365
0.407351
0.405668
0.404212
0.403168
0.402281
0.402623
0.405475
0.410396
0.415129
0.40502
0.386403
0.361613
0.313305
0.256844
0.195163
0.0929568
0.106244
0.217241
0.274421
0.318137
0.358722
0.398982
0.425461
0.423391
0.409973
0.399727
0.392878
0.38881
0.386165
0.384161
0.382614
0.381223
0.380122
0.379402
0.378778
0.379455
0.38252
0.38768
0.388712
0.377133
0.363791
0.347484
0.307034
0.252167
0.193132
0.094192
0.110832
0.216473
0.266118
0.302739
0.336662
0.369733
0.391848
0.392443
0.382199
0.373826
0.36799
0.364408
0.362279
0.360747
0.359509
0.3584
0.35751
0.356866
0.356615
0.358008
0.361754
0.366308
0.363638
0.353138
0.343695
0.331431
0.301053
0.24969
0.192679
0.0934962
0.122906
0.218863
0.257975
0.287626
0.315551
0.342717
0.362199
0.365608
0.358385
0.351492
0.346504
0.343333
0.341527
0.340303
0.339306
0.338427
0.337657
0.336999
0.337013
0.338744
0.342352
0.344963
0.340114
0.331777
0.326806
0.31828
0.296134
0.246014
0.185579
0.0913675
0.129859
0.221139
0.25009
0.274561
0.297986
0.319962
0.336214
0.341665
0.337543
0.331998
0.327662
0.324833
0.32327
0.322282
0.321489
0.320802
0.320133
0.319457
0.319486
0.320935
0.32339
0.32378
0.318121
0.313053
0.31189
0.307603
0.287339
0.23637
0.174881
0.0868387
0.129851
0.217675
0.244397
0.2659
0.285248
0.301971
0.314643
0.32027
0.318425
0.31413
0.310344
0.307797
0.306431
0.305616
0.304941
0.304334
0.303696
0.303023
0.302893
0.303661
0.304678
0.303441
0.298376
0.296929
0.296569
0.294994
0.273563
0.225223
0.162159
0.0797824
0.121659
0.210624
0.241171
0.262351
0.277488
0.289028
0.298128
0.302179
0.300568
0.297051
0.293779
0.291483
0.290207
0.289405
0.288693
0.28802
0.287333
0.286692
0.286398
0.286522
0.286407
0.284341
0.281068
0.281371
0.280821
0.278818
0.257584
0.210941
0.146255
0.0698206
0.103806
0.185953
0.242899
0.266767
0.27572
0.280794
0.286566
0.288478
0.285232
0.281111
0.278118
0.275967
0.274536
0.273476
0.272518
0.271632
0.270837
0.27025
0.269933
0.269671
0.268948
0.266888
0.265888
0.265812
0.265483
0.260677
0.238738
0.197283
0.13283
0.0605592
0.0791677
0.147516
0.232078
0.279241
0.280362
0.276582
0.279297
0.279251
0.27393
0.267801
0.264163
0.261862
0.259999
0.258441
0.257093
0.255916
0.254965
0.25435
0.254029
0.253659
0.252881
0.251637
0.252619
0.25179
0.250979
0.242394
0.219114
0.183988
0.126843
0.0570482
0.0592919
0.118539
0.202158
0.272149
0.289567
0.275684
0.275097
0.273333
0.266454
0.258095
0.252613
0.249562
0.247058
0.244952
0.243194
0.241716
0.240575
0.239828
0.23941
0.239045
0.238551
0.238536
0.2406
0.239506
0.237175
0.225325
0.202102
0.171585
0.124755
0.0567095
0.0521514
0.110888
0.181468
0.247072
0.286246
0.275941
0.271063
0.268593
0.260973
0.25121
0.243688
0.239131
0.235856
0.233217
0.231067
0.229302
0.227953
0.227046
0.226515
0.226187
0.226168
0.227753
0.229156
0.228471
0.224369
0.210748
0.189218
0.162193
0.124416
0.0579979
0.0523326
0.113549
0.174028
0.228386
0.269443
0.276881
0.266508
0.263171
0.255367
0.245062
0.236732
0.230797
0.226635
0.223489
0.221005
0.219016
0.217465
0.21634
0.215662
0.215415
0.216076
0.218716
0.218532
0.218582
0.212659
0.199102
0.180236
0.155378
0.124215
0.0629608
0.0561128
0.122307
0.173688
0.220031
0.252476
0.27677
0.263161
0.257322
0.24939
0.238779
0.230146
0.223967
0.219319
0.215817
0.21314
0.211062
0.209412
0.208125
0.207304
0.207128
0.208088
0.209265
0.209063
0.208894
0.201694
0.18981
0.174149
0.149664
0.121813
0.0644415
0.0675713
0.135105
0.174495
0.214245
0.243578
0.272483
0.261348
0.251665
0.243711
0.232845
0.223799
0.21743
0.212775
0.209221
0.206486
0.204384
0.202744
0.201478
0.200714
0.200554
0.200865
0.200777
0.200694
0.199112
0.192488
0.1828
0.169573
0.143677
0.115509
0.0625673
0.0729048
0.141714
0.17455
0.209477
0.238929
0.262238
0.259581
0.246863
0.238841
0.228017
0.218462
0.21157
0.206642
0.202992
0.200199
0.198034
0.196374
0.195146
0.194415
0.194121
0.193869
0.19357
0.193323
0.190644
0.186496
0.178336
0.165812
0.138781
0.109685
0.0599563
0.0714611
0.140766
0.173389
0.207329
0.236876
0.252829
0.258958
0.244592
0.235312
0.224747
0.214464
0.206892
0.201465
0.197521
0.194569
0.192305
0.190562
0.189276
0.188421
0.187913
0.18745
0.187004
0.186775
0.183954
0.182618
0.17562
0.162495
0.135246
0.105397
0.0583541
0.0673591
0.135089
0.170572
0.20641
0.23503
0.248333
0.259673
0.245683
0.23336
0.223036
0.21182
0.203347
0.197319
0.192993
0.189811
0.187409
0.185561
0.184156
0.183128
0.182404
0.181773
0.181213
0.180666
0.178426
0.177872
0.173672
0.160339
0.133297
0.102203
0.056349
0.0622014
0.127221
0.167324
0.203775
0.232762
0.24894
0.258531
0.250742
0.233721
0.222527
0.210327
0.200755
0.194018
0.189262
0.185818
0.183249
0.181276
0.179726
0.178525
0.17763
0.176913
0.17638
0.175389
0.174325
0.173925
0.172822
0.160024
0.133332
0.100378
0.0544444
0.0617065
0.126132
0.166351
0.202017
0.232308
0.253346
0.258061
0.261368
0.237765
0.222746
0.209518
0.198832
0.191366
0.186164
0.182449
0.179706
0.177597
0.175913
0.17457
0.173542
0.172782
0.172327
0.171139
0.171342
0.172482
0.173057
0.16066
0.13548
0.0999884
0.0535391
0.0640605
0.12775
0.1675
0.202943
0.233423
0.26064
0.261163
0.266623
0.245988
0.223868
0.209013
0.197297
0.189174
0.183557
0.179587
0.176677
0.174441
0.172648
0.171197
0.170046
0.169179
0.168609
0.167827
0.168953
0.172404
0.173689
0.161782
0.140455
0.100747
0.0535153
0.0673123
0.130176
0.1696
0.203896
0.232612
0.264621
0.265892
0.264952
0.255617
0.227041
0.208964
0.196082
0.187332
0.181336
0.177136
0.174076
0.171734
0.169858
0.168332
0.167067
0.166069
0.16536
0.165602
0.167155
0.172045
0.174565
0.161994
0.14007
0.102054
0.0535015
0.0673526
0.129383
0.168575
0.200822
0.2273
0.262509
0.266725
0.261361
0.260601
0.231708
0.209298
0.195156
0.185756
0.179413
0.175012
0.17183
0.169407
0.16747
0.165882
0.164532
0.163514
0.16303
0.16433
0.165327
0.170544
0.175108
0.161527
0.135981
0.101884
0.0533102
0.0668025
0.125198
0.162297
0.189611
0.216642
0.254129
0.263047
0.255607
0.256023
0.234217
0.20945
0.194219
0.184303
0.177689
0.173139
0.169876
0.167402
0.165424
0.16377
0.162369
0.161429
0.161418
0.163338
0.163285
0.167934
0.175676
0.160586
0.132036
0.0997414
0.0526155
0.0634587
0.113986
0.147123
0.174359
0.205026
0.242118
0.254227
0.246965
0.245034
0.231812
0.208641
0.192908
0.182776
0.176047
0.171442
0.168154
0.165669
0.163675
0.161966
0.16053
0.159658
0.159945
0.161416
0.161135
0.165101
0.175319
0.160385
0.131147
0.097908
0.0517872
0.054405
0.096279
0.132566
0.163949
0.195918
0.229317
0.243489
0.237445
0.234142
0.225204
0.206044
0.190966
0.181044
0.174408
0.169856
0.166612
0.164172
0.162204
0.160494
0.159072
0.158229
0.15852
0.15898
0.158991
0.16239
0.172404
0.16021
0.131468
0.0985488
0.051742
0.0474905
0.0862373
0.126616
0.159893
0.190346
0.216959
0.232601
0.228539
0.224646
0.21722
0.201851
0.188402
0.179098
0.172746
0.168343
0.16521
0.162871
0.161
0.159399
0.158107
0.157363
0.157721
0.157263
0.157208
0.159878
0.167119
0.159258
0.133032
0.101004
0.0524467
0.0459755
0.086173
0.126901
0.160151
0.187083
0.206165
0.221726
0.220936
0.216594
0.209651
0.196978
0.185326
0.17692
0.171021
0.166861
0.163896
0.161716
0.160025
0.158648
0.157605
0.157138
0.15713
0.156292
0.155869
0.157259
0.160884
0.156004
0.134539
0.10469
0.0543573
0.0466632
0.0901564
0.130284
0.162707
0.183166
0.196453
0.209776
0.214017
0.209723
0.202785
0.191966
0.181915
0.174491
0.169174
0.165364
0.162629
0.160655
0.159188
0.158064
0.157259
0.156922
0.156569
0.155887
0.155119
0.154905
0.154623
0.150467
0.135188
0.10893
0.0582642
0.0488818
0.0967771
0.135923
0.164619
0.177251
0.187228
0.197217
0.205018
0.203177
0.196265
0.18685
0.178221
0.17179
0.167178
0.163845
0.161416
0.159657
0.158386
0.157452
0.156843
0.156622
0.156452
0.155958
0.155068
0.153593
0.150723
0.14691
0.136321
0.114882
0.065717
0.0507951
0.102735
0.140298
0.162272
0.170614
0.178768
0.185983
0.193317
0.195162
0.189297
0.181435
0.174277
0.168884
0.165056
0.162314
0.160257
0.158675
0.157498
0.156661
0.156233
0.156258
0.156369
0.156192
0.155226
0.152939
0.150379
0.147088
0.139506
0.126121
0.0768099
0.0542364
0.113019
0.145403
0.158584
0.166271
0.172594
0.177161
0.182156
0.185109
0.181561
0.175792
0.170341
0.166064
0.162995
0.16081
0.159114
0.157659
0.156483
0.155642
0.155294
0.155561
0.156066
0.156131
0.155077
0.153111
0.15272
0.151484
0.147406
0.140957
0.0852251
0.06095
0.127905
0.15164
0.158863
0.165741
0.169666
0.171622
0.173794
0.175695
0.174065
0.170434
0.166725
0.16361
0.161259
0.159514
0.158086
0.156758
0.155589
0.154705
0.154327
0.154688
0.155489
0.155758
0.155083
0.155413
0.158961
0.15923
0.158765
0.153943
0.0841567
0.0664539
0.139205
0.154851
0.159374
0.166059
0.168209
0.168585
0.168814
0.169125
0.168308
0.166168
0.163796
0.16167
0.159989
0.158687
0.157506
0.15632
0.15519
0.154308
0.153879
0.154118
0.154916
0.155503
0.156303
0.16026
0.16627
0.166418
0.175712
0.152596
0.0749874
0.0703955
0.139056
0.155764
0.159534
0.165533
0.166901
0.165954
0.165605
0.165381
0.164737
0.163395
0.161812
0.16033
0.159169
0.158297
0.15741
0.156364
0.155327
0.154559
0.154201
0.154362
0.155023
0.156129
0.15891
0.164844
0.171398
0.174016
0.191312
0.14681
0.067824
0.0743368
0.136392
0.156919
0.160018
0.163812
0.165063
0.163726
0.162855
0.162655
0.162347
0.161567
0.160476
0.159374
0.158516
0.157926
0.157339
0.156583
0.155873
0.155459
0.155356
0.155537
0.156192
0.15778
0.161241
0.167542
0.172586
0.179862
0.196626
0.146587
0.0706482
0.0814901
0.136534
0.15848
0.159952
0.161728
0.163234
0.162137
0.161113
0.160698
0.16056
0.160147
0.159367
0.158499
0.157808
0.157358
0.157043
0.156716
0.156542
0.156631
0.156851
0.157124
0.15774
0.159239
0.162681
0.168318
0.171791
0.18304
0.193934
0.149602
0.081792
0.0934902
0.137454
0.155548
0.157613
0.159927
0.162286
0.161737
0.160973
0.160277
0.159914
0.159437
0.158653
0.157836
0.157253
0.156936
0.156815
0.156851
0.157154
0.157741
0.158273
0.15868
0.159399
0.160974
0.164135
0.168596
0.170305
0.183641
0.184305
0.150768
0.093282
0.0937679
0.136216
0.149851
0.15284
0.157814
0.162656
0.162844
0.162152
0.161239
0.160407
0.159641
0.158686
0.157783
0.157225
0.157009
0.157025
0.157319
0.158073
0.159149
0.160076
0.160959
0.16218
0.164022
0.167081
0.169087
0.17043
0.18447
0.174545
0.146285
0.0921994
0.0897331
0.130471
0.149869
0.153894
0.157037
0.164317
0.166247
0.16506
0.163694
0.162171
0.160768
0.159415
0.15832
0.157785
0.15767
0.15787
0.158477
0.159582
0.161138
0.162534
0.164054
0.165737
0.168245
0.17135
0.16984
0.171881
0.180603
0.163156
0.133501
0.086878
0.0804297
0.118675
0.14608
0.154891
0.157487
0.166195
0.170208
0.16826
0.166099
0.164372
0.162793
0.160991
0.159666
0.159232
0.15931
0.159664
0.160331
0.161538
0.163457
0.165119
0.166602
0.168538
0.171437
0.173097
0.168985
0.169166
0.168392
0.151191
0.120817
0.0784785
0.0724097
0.11062
0.137165
0.148926
0.154849
0.165073
0.170333
0.168876
0.166491
0.165354
0.164507
0.162784
0.161512
0.161205
0.161528
0.161986
0.16248
0.163591
0.165456
0.16669
0.16727
0.168574
0.171081
0.170751
0.163989
0.159878
0.156996
0.142557
0.113812
0.072038
0.0688487
0.107064
0.130926
0.140166
0.147372
0.159228
0.166493
0.166713
0.165256
0.165007
0.16496
0.164174
0.163494
0.163369
0.163732
0.16423
0.164633
0.165386
0.166393
0.166572
0.166141
0.166401
0.16708
0.163658
0.154558
0.149306
0.148528
0.137493
0.110849
0.0700217
0.0683106
0.104398
0.125362
0.130957
0.137359
0.14946
0.158653
0.161937
0.162691
0.16342
0.164297
0.1645
0.165053
0.165372
0.165737
0.166163
0.166413
0.166274
0.165879
0.165136
0.163632
0.162431
0.160404
0.154328
0.143924
0.137382
0.136552
0.13069
0.107812
0.0697257
0.0672472
0.0987082
0.113189
0.11776
0.12718
0.140668
0.151561
0.157526
0.160411
0.161911
0.162533
0.163679
0.165206
0.166281
0.166769
0.16706
0.166894
0.165731
0.164098
0.162523
0.161378
0.159049
0.154694
0.14658
0.134867
0.12447
0.118864
0.115214
0.101001
0.0685249
0.0639075
0.0834455
0.0928257
0.104741
0.12
0.135151
0.146961
0.15457
0.159087
0.161578
0.162131
0.162723
0.164321
0.165636
0.166126
0.166325
0.165904
0.164202
0.162558
0.161762
0.160292
0.15688
0.151022
0.141791
0.129172
0.115134
0.101855
0.0911847
0.0831053
0.0647398
0.055653
0.0609502
0.0764645
0.0983344
0.117461
0.133076
0.144911
0.153193
0.158749
0.162154
0.163573
0.163256
0.163455
0.164003
0.164024
0.16416
0.16411
0.163479
0.163113
0.16252
0.160267
0.155922
0.14932
0.139854
0.127225
0.111645
0.09303
0.0719552
0.0596881
0.0560222
0.046225
0.0503294
0.073253
0.0986546
0.118301
0.133522
0.144958
0.153263
0.159342
0.163798
0.166207
0.164845
0.163721
0.163413
0.162895
0.163032
0.163574
0.163917
0.164747
0.164632
0.161147
0.15614
0.149322
0.1401
0.127935
0.112461
0.0928994
0.0676657
0.0483958
0.0465688
0.0417141
0.0502751
0.0775039
0.10341
0.122439
0.136417
0.146845
0.154852
0.161432
0.166957
0.168601
0.166199
0.164742
0.164037
0.163419
0.163538
0.164204
0.164836
0.166429
0.166849
0.163821
0.157864
0.150942
0.142408
0.131439
0.117032
0.0977029
0.0718216
0.0477789
0.0415222
0.0417831
0.0577746
0.090987
0.115005
0.131654
0.143293
0.151866
0.15891
0.165566
0.170909
0.170673
0.168165
0.167077
0.165991
0.165242
0.16534
0.166154
0.167007
0.168122
0.169852
0.167717
0.161991
0.155325
0.148196
0.139394
0.127362
0.110261
0.0859504
0.054297
0.041271
0.0454578
0.077721
0.109126
0.130151
0.144281
0.153479
0.159638
0.164516
0.170253
0.173937
0.172594
0.171524
0.17054
0.169359
0.168537
0.168601
0.169468
0.170445
0.171074
0.171931
0.172013
0.167002
0.161653
0.157014
0.150801
0.141232
0.126611
0.105245
0.0739087
0.0443726
0.0544259
0.0985227
0.128367
0.147464
0.159389
0.165899
0.168811
0.170175
0.175179
0.177049
0.176816
0.176162
0.175007
0.173688
0.172813
0.172859
0.173759
0.174893
0.175688
0.175861
0.175633
0.172805
0.168513
0.16755
0.164503
0.157507
0.144894
0.125217
0.0953664
0.0530436
0.0636299
0.118965
0.149054
0.1663
0.175489
0.178854
0.178049
0.176537
0.180531
0.182952
0.182515
0.181368
0.179792
0.178154
0.177128
0.177181
0.178243
0.179756
0.181046
0.181718
0.18156
0.179039
0.176157
0.178341
0.178562
0.174648
0.164638
0.146615
0.116202
0.0623141
0.0755166
0.141987
0.171062
0.184485
0.189876
0.190127
0.186733
0.18434
0.188646
0.190638
0.188348
0.185839
0.18348
0.181396
0.180193
0.180261
0.181558
0.183625
0.185857
0.188046
0.189944
0.187779
0.184658
0.187644
0.190568
0.189717
0.18352
0.169313
0.139779
0.0744243
0.0977222
0.170801
0.189985
0.197108
0.199478
0.198105
0.194591
0.193228
0.197516
0.198173
0.193359
0.188936
0.185357
0.182754
0.181389
0.181481
0.182999
0.185706
0.189326
0.193715
0.198459
0.196967
0.193421
0.195398
0.198714
0.199255
0.19642
0.188743
0.168989
0.096551
0.123699
0.188648
0.201168
0.204041
0.20554
0.204671
0.202701
0.202814
0.205785
0.204394
0.198173
0.191816
0.186723
0.183509
0.182002
0.182103
0.183804
0.187203
0.192467
0.199092
0.205288
0.205379
0.202567
0.203056
0.2049
0.205
0.203023
0.199939
0.187188
0.122348
0.145934
0.204087
0.208244
0.214222
0.214957
0.213512
0.212132
0.212533
0.213551
0.210329
0.203456
0.195442
0.189004
0.185104
0.183385
0.183489
0.185433
0.189564
0.196237
0.204637
0.211503
0.213456
0.211949
0.211799
0.212941
0.213264
0.211981
0.206039
0.202688
0.144741
0.142741
0.208304
0.22601
0.237578
0.232993
0.22808
0.223414
0.22191
0.220632
0.216117
0.20829
0.198897
0.191447
0.186866
0.184833
0.184927
0.187191
0.192045
0.199765
0.209525
0.217426
0.220882
0.221208
0.222497
0.226402
0.229519
0.232505
0.22241
0.206568
0.141755
0.127283
0.19529
0.230267
0.261134
0.264638
0.248988
0.237371
0.23123
0.227699
0.221578
0.211997
0.201264
0.192804
0.1874
0.184911
0.185004
0.18773
0.193435
0.20224
0.213287
0.222952
0.228213
0.230615
0.236024
0.24562
0.259299
0.255153
0.226725
0.193805
0.126321
0.109425
0.174369
0.218944
0.259293
0.275338
0.274365
0.252444
0.239742
0.234404
0.226724
0.215083
0.202947
0.193335
0.187126
0.18423
0.18434
0.187512
0.194088
0.20417
0.216669
0.22834
0.235257
0.2395
0.250692
0.27104
0.271047
0.253932
0.216232
0.173856
0.108512
0.0963795
0.15728
0.200889
0.242958
0.265176
0.272939
0.264658
0.24395
0.238991