/*--------------------------------*- C++ -*----------------------------------*\
| =========                 |                                                 |
| \\      /  F ield         | OpenFOAM: The Open Source CFD Toolbox           |
|  \\    /   O peration     | Version:  2.3.0                                 |
|   \\  /    A nd           | Web:      www.OpenFOAM.org                      |
|    \\/     M anipulation  |                                                 |
\*---------------------------------------------------------------------------*/
FoamFile
{
    version     2.0;
    format      ascii;
    class       volScalarField;
    location    "3.49804";
    object      nut.air;
}
// * * * * * * * * * * * * * * * * * * * * * * * * * * * * * * * * * * * * * //

dimensions      [0 2 -1 0 0 0 0];

internalField   nonuniform List<scalar> 
1000
(
1.50277e-07
1.45201e-07
1.01625e-07
7.45695e-08
6.92232e-08
7.10659e-08
2.75645e-08
8.6592e-21
3.18651e-08
1.31748e-07
5.17317e-32
5.61355e-32
2.76065e-32
1.28331e-07
9.02973e-08
7.36772e-08
6.83263e-08
6.91512e-08
7.11446e-08
1.30386e-07
1.5367e-07
1.50581e-07
1.10499e-07
1.67387e-07
3.58326e-07
4.74755e-07
5.59727e-07
5.08145e-07
4.67408e-31
1.75783e-32
8.79593e-08
2.71577e-12
3.82921e-08
2.65312e-07
4.16271e-07
5.56167e-07
6.23378e-07
4.17043e-07
4.90132e-07
1.33776e-07
1.61152e-07
1.32923e-07
9.90498e-08
1.06782e-07
4.35403e-07
5.9333e-07
6.12187e-07
6.08961e-07
1.31285e-12
1.9847e-32
8.80969e-33
8.29742e-15
4.70643e-07
6.51387e-07
6.3742e-07
6.44767e-07
6.59433e-07
3.6232e-07
1.08651e-06
1.38365e-07
1.76823e-07
1.14146e-07
9.61181e-08
9.09089e-08
4.03457e-07
5.56513e-07
5.83741e-07
5.87943e-07
5.99895e-07
2.65076e-32
9.95448e-33
1.3206e-11
4.68844e-07
5.70205e-07
3.75125e-07
4.35276e-07
5.98669e-07
2.39503e-07
9.36626e-07
1.44059e-07
1.98367e-07
1.13375e-07
1.21671e-07
9.13233e-08
3.70695e-07
5.23313e-07
5.581e-07
5.66061e-07
5.81193e-07
5.67403e-32
1.61248e-32
9.32317e-09
3.38311e-08
3.46344e-07
1.94421e-07
2.52483e-07
5.6252e-07
2.1305e-07
7.83834e-07
1.50857e-07
1.92912e-07
1.41429e-07
1.26971e-07
8.29034e-08
3.4763e-07
4.72205e-07
5.08735e-07
5.41162e-07
5.29071e-07
3.98293e-08
5.91801e-09
6.18439e-08
4.25337e-08
7.11517e-08
1.45856e-07
1.54137e-07
4.79831e-07
2.29879e-07
7.10308e-07
1.5468e-07
1.85806e-07
1.67484e-07
1.16585e-07
6.77811e-08
3.47326e-07
4.21099e-07
4.45531e-07
4.67318e-07
4.57283e-07
5.56856e-07
5.76932e-08
1.29031e-07
1.10578e-07
8.90633e-08
1.03702e-07
1.24466e-07
4.09725e-07
3.19453e-07
5.49677e-07
1.53257e-07
1.70842e-07
1.63028e-07
1.01522e-07
6.59751e-08
3.27975e-07
3.4311e-07
3.49923e-07
3.52556e-07
3.46179e-07
4.15509e-07
7.44299e-08
1.80648e-07
1.64362e-07
1.02412e-07
1.00459e-07
1.23893e-07
3.38622e-07
3.63905e-07
4.89144e-07
1.4863e-07
1.55967e-07
1.54083e-07
4.55666e-08
1.46451e-07
2.52963e-07
2.50129e-07
2.45703e-07
2.43111e-07
2.41151e-07
2.7719e-07
1.03894e-07
1.92226e-07
1.94467e-07
1.31273e-07
1.0182e-07
1.66265e-07
2.42452e-07
2.69972e-07
4.66159e-07
1.37665e-07
1.30191e-07
9.17844e-08
4.26454e-08
2.23911e-07
1.46043e-07
1.33481e-07
1.32292e-07
1.36306e-07
1.48003e-07
1.31447e-07
1.80993e-07
2.11059e-07
2.02013e-07
1.34032e-07
8.80609e-08
1.52257e-07
1.38765e-07
1.53334e-07
3.71638e-07
1.36358e-07
5.5448e-08
9.81597e-08
6.97003e-08
6.61815e-08
6.9606e-08
7.27062e-08
4.88214e-08
4.58882e-08
3.56284e-08
6.2881e-08
3.96577e-08
2.54477e-08
4.42599e-08
8.5732e-08
6.66139e-08
6.68497e-08
7.02963e-08
6.79725e-08
5.84363e-08
6.00939e-08
4.67549e-08
1.27613e-07
1.39918e-07
2.31593e-07
4.39054e-07
5.38991e-07
5.8768e-07
5.86503e-07
8.10032e-08
3.74648e-08
3.21302e-08
2.08598e-08
1.07832e-07
3.30227e-07
4.2199e-07
5.11941e-07
6.10662e-07
4.87008e-07
6.30503e-07
5.53916e-08
5.57788e-08
1.19212e-07
1.0025e-07
1.07971e-07
3.97908e-07
4.92311e-07
5.12642e-07
5.24725e-07
4.13747e-07
1.99225e-07
2.11134e-08
1.30079e-08
4.4956e-07
4.0819e-07
3.36457e-07
3.42601e-07
5.01022e-07
5.11468e-07
1.39972e-06
5.50218e-08
4.12179e-08
1.17574e-07
1.20275e-07
7.94701e-08
3.30325e-07
4.22971e-07
4.468e-07
4.37341e-07
4.86688e-07
8.52421e-08
2.23664e-08
1.33653e-08
2.02203e-07
2.98646e-07
1.56103e-07
1.74332e-07
4.24392e-07
5.52243e-07
1.5045e-06
6.20923e-08
3.43619e-08
1.08632e-07
1.44315e-07
7.71204e-08
2.90955e-07
3.80549e-07
4.03872e-07
4.03149e-07
4.50973e-07
1.33084e-08
2.67258e-08
1.63975e-08
5.38409e-08
1.90941e-07
1.20385e-07
1.10279e-07
3.36384e-07
5.63469e-07
1.55237e-06
6.36011e-08
3.36857e-22
9.51154e-08
1.16547e-07
6.21824e-08
2.57486e-07
3.19158e-07
3.3028e-07
3.3363e-07
3.31424e-07
2.89914e-07
4.41285e-08
2.67314e-08
3.18625e-08
7.5854e-08
1.04703e-07
8.91845e-08
2.7012e-07
4.80266e-07
1.77739e-06
5.94164e-08
2.10528e-32
1.00111e-07
9.23703e-08
4.57461e-08
2.45356e-07
2.73649e-07
2.69007e-07
2.57535e-07
2.36182e-07
4.60381e-07
6.62788e-08
5.60689e-08
4.34956e-08
5.04427e-08
7.981e-08
8.09484e-08
2.34568e-07
3.58333e-07
1.48864e-06
5.54711e-08
2.14583e-32
9.32177e-08
6.43013e-08
4.88484e-08
2.24484e-07
2.09652e-07
2.02811e-07
1.90436e-07
1.51126e-07
2.14435e-07
8.57888e-08
1.02016e-07
8.8088e-08
5.8719e-08
7.78032e-08
9.28933e-08
2.13313e-07
2.81821e-07
1.14401e-06
5.69381e-08
1.86681e-32
8.45472e-08
2.68615e-08
1.25907e-07
1.93197e-07
1.79661e-07
1.80315e-07
1.85741e-07
1.53001e-07
1.51053e-07
9.86517e-08
1.32295e-07
1.27305e-07
9.0172e-08
8.0564e-08
1.3741e-07
2.09066e-07
2.28917e-07
7.69355e-07
3.60195e-29
2.63437e-32
3.29409e-08
4.98593e-08
1.9055e-07
1.72496e-07
1.82409e-07
2.08398e-07
2.35001e-07
2.17679e-07
1.46727e-07
1.65337e-07
1.47336e-07
1.36211e-07
9.75644e-08
7.50999e-08
1.93896e-07
2.63891e-07
2.25893e-07
3.52491e-07
6.80458e-32
4.78319e-08
9.41712e-08
7.40149e-08
7.28799e-08
7.39055e-08
7.43973e-08
5.5843e-08
5.46671e-08
4.51629e-08
5.48681e-08
4.70137e-08
3.92956e-08
6.35009e-08
7.95756e-08
6.91642e-08
7.20254e-08
7.54524e-08
7.23902e-08
6.57933e-08
5.384e-08
2.23886e-11
3.08967e-07
3.74077e-07
4.6845e-07
5.25707e-07
5.55913e-07
5.75048e-07
5.85448e-07
2.58782e-07
1.06476e-07
3.58646e-08
3.43113e-08
1.69807e-07
2.88554e-07
3.37467e-07
4.22303e-07
5.5121e-07
6.1475e-07
9.56696e-07
3.89013e-08
1.76875e-31
2.03985e-07
1.66313e-07
3.0086e-07
4.44229e-07
4.61678e-07
4.80893e-07
5.03799e-07
4.68628e-07
2.09081e-07
2.91237e-08
3.80397e-08
2.85359e-07
2.21821e-07
1.7972e-07
2.29871e-07
4.2443e-07
6.54778e-07
1.96429e-06
3.52382e-08
1.49904e-31
1.63124e-07
1.53211e-07
1.78202e-07
3.60691e-07
3.73471e-07
3.82547e-07
3.59578e-07
4.51784e-07
2.06879e-07
3.15289e-08
3.02013e-08
1.83731e-07
1.86537e-07
1.21375e-07
1.32484e-07
3.25965e-07
6.91424e-07
2.37924e-06
4.08333e-08
1.25568e-31
1.21832e-07
1.69917e-07
1.33356e-07
3.13895e-07
3.21029e-07
3.14049e-07
2.79845e-07
3.25743e-07
1.71898e-07
4.79824e-08
2.59607e-08
5.96407e-08
1.56692e-07
1.06812e-07
9.63906e-08
2.2615e-07
5.93601e-07
2.53194e-06
3.81804e-08
1.66937e-31
8.99817e-08
1.25271e-07
8.71947e-08
2.57868e-07
2.45993e-07
2.26284e-07
1.96484e-07
2.03944e-07
7.94028e-07
3.17772e-07
3.29579e-08
3.60207e-08
6.97286e-08
8.33193e-08
8.6014e-08
1.86404e-07
4.36303e-07
2.6975e-06
1.67312e-19
1.09103e-31
7.9208e-08
8.6976e-08
7.6769e-08
2.28815e-07
2.09345e-07
1.90841e-07
1.67267e-07
1.48561e-07
6.81011e-07
2.63679e-07
7.41553e-08
3.38177e-08
4.16576e-08
6.27029e-08
8.39811e-08
1.83238e-07
2.99996e-07
1.9852e-06
1.60114e-31
8.20706e-32
7.60781e-08
4.38719e-08
1.05897e-07
2.00586e-07
1.80301e-07
1.77886e-07
1.73771e-07
1.48038e-07
1.9332e-07
2.16802e-07
1.01459e-07
4.91985e-08
3.94854e-08
5.94562e-08
1.0062e-07
1.86458e-07
2.55853e-07
1.55483e-06
1.83862e-31
6.78535e-32
5.30691e-08
2.28952e-08
1.58349e-07
1.8627e-07
1.76968e-07
1.83784e-07
1.89758e-07
1.66686e-07
1.62524e-07
3.15394e-07
1.16651e-07
8.28582e-08
4.50178e-08
6.50334e-08
1.56221e-07
2.02121e-07
2.23826e-07
1.27431e-06
2.07775e-31
7.8163e-32
8.91006e-09
1.09341e-07
1.90942e-07
1.79017e-07
1.79188e-07
1.77827e-07
1.7762e-07
1.76432e-07
1.71048e-07
2.94046e-07
1.19188e-07
1.1023e-07
6.44568e-08
7.54951e-08
1.87982e-07
1.83367e-07
1.85215e-07
5.85174e-07
2.32957e-31
5.64085e-08
9.81797e-08
6.91825e-08
6.57927e-08
6.94929e-08
7.33722e-08
5.0196e-08
4.47873e-08
3.5208e-08
6.19872e-08
3.59855e-08
2.51424e-08
4.52288e-08
8.69419e-08
6.75348e-08
6.71731e-08
7.03783e-08
6.8092e-08
5.85651e-08
6.01067e-08
4.69083e-08
1.31831e-07
1.48139e-07
2.49866e-07
4.50218e-07
5.45101e-07
5.87954e-07
5.92971e-07
8.68894e-08
3.80473e-08
2.8525e-08
2.1208e-08
1.03118e-07
3.26454e-07
4.1939e-07
5.07034e-07
6.06232e-07
4.8371e-07
6.24841e-07
5.54555e-08
5.6307e-08
1.20009e-07
1.00553e-07
1.10966e-07
4.03358e-07
4.92077e-07
5.12373e-07
5.26808e-07
4.46236e-07
2.02788e-07
2.62164e-08
2.11523e-08
4.51488e-07
4.14928e-07
3.35785e-07
3.24004e-07
4.9316e-07
5.06016e-07
1.38811e-06
5.51149e-08
4.24085e-08
1.18233e-07
1.20381e-07
7.99942e-08
3.32586e-07
4.22749e-07
4.4729e-07
4.39404e-07
5.23105e-07
7.16658e-08
2.70154e-08
3.28486e-08
2.03702e-07
3.01368e-07
1.51454e-07
1.59234e-07
4.10097e-07
5.44871e-07
1.49808e-06
6.20387e-08
3.35769e-08
1.08853e-07
1.45531e-07
7.73488e-08
2.90124e-07
3.8043e-07
4.01954e-07
4.0558e-07
4.52671e-07
1.67856e-08
2.38274e-08
2.58223e-08
4.43127e-08
1.8281e-07
1.01495e-07
9.51731e-08
3.18985e-07
5.5301e-07
1.54489e-06
6.40338e-08
1.45791e-21
9.60434e-08
1.1667e-07
6.2231e-08
2.57182e-07
3.18579e-07
3.29973e-07
3.30639e-07
3.49313e-07
4.8548e-07
5.12388e-08
2.66147e-08
2.53177e-08
3.64813e-08
4.80762e-08
6.88408e-08
2.52167e-07
4.71373e-07
1.77018e-06
5.88654e-08
2.11887e-32
1.00081e-07
9.24698e-08
4.56993e-08
2.44379e-07
2.73189e-07
2.69017e-07
2.56514e-07
2.46711e-07
7.21931e-07
3.71312e-08
1.77171e-08
1.36631e-08
2.08629e-08
3.49472e-08
5.99344e-08
2.22021e-07
3.56755e-07
1.49242e-06
5.54981e-08
1.97726e-32
9.16978e-08
6.45466e-08
4.83377e-08
2.24427e-07
2.10225e-07
2.02508e-07
1.89617e-07
1.50683e-07
3.32346e-07
1.64398e-08
3.84442e-09
5.92131e-09
1.14667e-08
3.26872e-08
7.10921e-08
2.11753e-07
2.81451e-07
1.14759e-06
5.44176e-08
2.13982e-32
8.44394e-08
2.68434e-08
1.25776e-07
1.93906e-07
1.7908e-07
1.8021e-07
1.84443e-07
1.48282e-07
1.41066e-07
3.61153e-08
1.54349e-09
2.79888e-09
1.34638e-08
4.27578e-08
1.15118e-07
2.0879e-07
2.28909e-07
7.72113e-07
1.03391e-29
2.53703e-32
3.31792e-08
4.91467e-08
1.91026e-07
1.72265e-07
1.82583e-07
2.08513e-07
2.37933e-07
2.16455e-07
1.55992e-07
2.86363e-08
2.47872e-09
7.33498e-09
1.61197e-08
5.01005e-08
2.07457e-07
2.59054e-07
2.24688e-07
3.52959e-07
6.62894e-32
1.50534e-07
1.43515e-07
9.91907e-08
7.25285e-08
6.71008e-08
6.96331e-08
3.92639e-08
4.95948e-19
2.86352e-08
1.27965e-07
5.22486e-32
5.14065e-32
2.79055e-32
1.30337e-07
9.26568e-08
7.48633e-08
6.9113e-08
7.00064e-08
7.18128e-08
1.31355e-07
1.51502e-07
1.51832e-07
1.12424e-07
1.69913e-07
3.69312e-07
4.89336e-07
5.52708e-07
5.29672e-07
6.09109e-31
1.7379e-32
5.93226e-32
8.28863e-21
3.81777e-08
2.5265e-07
4.11279e-07
5.51511e-07
6.19135e-07
4.13792e-07
4.84253e-07
1.34716e-07
1.58923e-07
1.32601e-07
9.83769e-08
1.06518e-07
4.35197e-07
5.93577e-07
6.12819e-07
6.11134e-07
2.2164e-17
2.22085e-32
5.2474e-32
4.53513e-09
4.39147e-07
6.51686e-07
6.31431e-07
6.37516e-07
6.52625e-07
3.58446e-07
1.06851e-06
1.39327e-07
1.75465e-07
1.13217e-07
9.5789e-08
9.08153e-08
4.01911e-07
5.56734e-07
5.84511e-07
5.8839e-07
6.33739e-07
2.46256e-32
7.64769e-08
7.48597e-08
4.24106e-07
5.69154e-07
3.58858e-07
4.3494e-07
5.92357e-07
2.37246e-07
9.29791e-07
1.44869e-07
1.97129e-07
1.12785e-07
1.22077e-07
9.12543e-08
3.68181e-07
5.23525e-07
5.57454e-07
5.67013e-07
5.79795e-07
4.66806e-32
7.27249e-33
5.93558e-08
5.78421e-08
2.82825e-07
1.45696e-07
2.4308e-07
5.56468e-07
2.11192e-07
7.78915e-07
1.51709e-07
1.91957e-07
1.41537e-07
1.26239e-07
8.28046e-08
3.46558e-07
4.72051e-07
5.08493e-07
5.40464e-07
5.37676e-07
1.15608e-07
9.69096e-33
1.20201e-32
3.03994e-32
1.74564e-31
9.66786e-09
1.32591e-07
4.69303e-07
2.29098e-07
7.08487e-07
1.55458e-07
1.85129e-07
1.6718e-07
1.1667e-07
6.77834e-08
3.46557e-07
4.20932e-07
4.45729e-07
4.6538e-07
4.63815e-07
6.07285e-07
1.13367e-32
1.25481e-32
2.33669e-32
1.06759e-31
6.13706e-10
8.85923e-08
3.99353e-07
3.2151e-07
5.54114e-07
1.5417e-07
1.67731e-07
1.62134e-07
1.02381e-07
6.56949e-08
3.27837e-07
3.4354e-07
3.4995e-07
3.53641e-07
3.46155e-07
4.56272e-07
1.86969e-32
1.27331e-32
1.92213e-32
7.81972e-32
1.67449e-09
9.36177e-08
3.31079e-07
3.64582e-07
4.94216e-07
1.49064e-07
1.57071e-07
1.53396e-07
4.61576e-08
1.45036e-07
2.53997e-07
2.5039e-07
2.45999e-07
2.42284e-07
2.40524e-07
2.83671e-07
2.85381e-32
1.65219e-32
2.35384e-32
1.93904e-28
1.345e-08
1.42679e-07
2.40477e-07
2.69762e-07
4.7027e-07
1.38254e-07
1.29803e-07
9.21582e-08
4.23777e-08
2.257e-07
1.45583e-07
1.33165e-07
1.32182e-07
1.36596e-07
1.48219e-07
1.34e-07
4.93086e-32
1.87488e-32
3.92968e-09
1.65681e-08
4.15104e-08
1.49896e-07
1.38712e-07
1.54107e-07
3.73039e-07
1.36876e-07
)
;

boundaryField
{
    aeration
    {
        type            calculated;
        value           nonuniform List<scalar> 
100
(
1.89062e-08
1.89062e-08
1.89062e-08
1.89062e-08
1.89062e-08
1.8906e-08
1.89059e-08
1.89059e-08
1.89059e-08
1.8906e-08
1.8906e-08
1.8906e-08
1.89059e-08
1.8906e-08
1.8906e-08
1.89062e-08
1.89062e-08
1.89061e-08
1.89062e-08
1.89062e-08
1.89064e-08
1.89064e-08
1.89063e-08
1.89064e-08
1.89064e-08
1.89066e-08
1.89065e-08
1.89065e-08
1.89065e-08
1.89066e-08
1.89067e-08
1.89066e-08
1.89066e-08
1.89066e-08
1.89067e-08
1.89067e-08
1.89067e-08
1.89067e-08
1.89067e-08
1.89067e-08
1.89067e-08
1.89067e-08
1.89067e-08
1.89067e-08
1.89067e-08
1.89066e-08
1.89065e-08
1.89065e-08
1.89065e-08
1.89066e-08
1.89063e-08
1.89064e-08
1.89064e-08
1.89064e-08
1.89063e-08
1.89061e-08
1.89061e-08
1.89061e-08
1.89061e-08
1.89061e-08
1.89061e-08
1.8906e-08
1.8906e-08
1.8906e-08
1.89061e-08
1.89061e-08
1.89061e-08
1.8906e-08
1.89061e-08
1.89061e-08
1.89062e-08
1.89062e-08
1.89061e-08
1.89062e-08
1.89062e-08
1.89064e-08
1.89064e-08
1.89064e-08
1.89064e-08
1.89064e-08
1.89066e-08
1.89066e-08
1.89065e-08
1.89066e-08
1.89066e-08
1.89065e-08
1.89065e-08
1.89065e-08
1.89065e-08
1.89065e-08
1.89063e-08
1.89063e-08
1.89063e-08
1.89063e-08
1.89063e-08
1.89062e-08
1.89062e-08
1.89062e-08
1.89062e-08
1.89062e-08
)
;
    }
    xsides
    {
        type            nutkWallFunction;
        Cmu             0.09;
        kappa           0.41;
        E               9.8;
        value           uniform 1e-08;
    }
    zsides
    {
        type            nutkWallFunction;
        Cmu             0.09;
        kappa           0.41;
        E               9.8;
        value           uniform 1e-08;
    }
    outlet
    {
        type            calculated;
        value           nonuniform List<scalar> 
100
(
1.30173e-07
2.634e-32
7.8152e-32
2.53667e-32
1.29785e-07
9.17713e-08
3.29363e-08
8.90887e-09
3.31745e-08
9.21451e-08
4.26398e-08
4.98527e-08
1.09325e-07
4.91402e-08
4.23721e-08
1.68929e-07
1.68929e-07
1.68929e-07
1.68929e-07
1.68929e-07
1.68929e-07
1.68929e-07
1.68929e-07
1.68929e-07
1.68929e-07
1.68929e-07
1.68929e-07
1.68929e-07
1.68929e-07
1.68929e-07
1.68929e-07
1.68929e-07
1.68929e-07
1.68929e-07
1.68929e-07
1.68929e-07
1.68929e-07
1.68929e-07
1.68929e-07
1.68929e-07
1.68929e-07
1.68929e-07
1.68929e-07
1.68929e-07
1.68929e-07
1.68929e-07
1.68929e-07
1.68929e-07
1.68929e-07
1.68929e-07
1.80972e-07
1.65318e-07
1.68929e-07
1.68929e-07
4.93027e-32
2.1103e-07
1.47316e-07
1.19173e-07
2.4784e-09
1.87463e-32
2.01985e-07
1.36193e-07
1.10216e-07
7.33401e-09
3.92914e-09
1.34012e-07
9.75512e-08
6.44483e-08
1.61175e-08
1.65657e-08
8.80487e-08
7.50895e-08
7.54849e-08
5.00936e-08
4.15047e-08
1.68929e-07
1.68929e-07
1.68929e-07
1.68929e-07
1.68929e-07
1.68929e-07
1.68929e-07
1.68929e-07
1.68929e-07
1.68929e-07
1.68929e-07
1.68929e-07
1.68929e-07
1.68929e-07
1.68929e-07
3.71593e-07
2.41823e-08
1.68929e-07
2.41571e-08
3.72993e-07
1.3634e-07
6.80367e-32
2.32926e-31
6.62805e-32
1.36858e-07
)
;
    }
}


// ************************************************************************* //
