/*--------------------------------*- C++ -*----------------------------------*\
| =========                 |                                                 |
| \\      /  F ield         | OpenFOAM: The Open Source CFD Toolbox           |
|  \\    /   O peration     | Version:  2.3.0                                 |
|   \\  /    A nd           | Web:      www.OpenFOAM.org                      |
|    \\/     M anipulation  |                                                 |
\*---------------------------------------------------------------------------*/
FoamFile
{
    version     2.0;
    format      ascii;
    class       surfaceScalarField;
    location    "3.49804";
    object      phi.air;
}
// * * * * * * * * * * * * * * * * * * * * * * * * * * * * * * * * * * * * * //

dimensions      [0 3 -1 0 0 0 0];

internalField   nonuniform List<scalar> 
2650
(
-6.41478e-08
1.02579e-07
-3.26875e-08
-8.22469e-08
3.34304e-08
-9.43047e-09
-7.55319e-08
9.24607e-09
-9.79426e-09
-4.90377e-08
-8.36953e-09
-1.16811e-08
-1.64943e-08
-1.72295e-08
-8.75135e-09
1.22204e-08
-1.51967e-08
-6.98207e-09
4.42657e-08
-1.5682e-08
-9.82621e-09
7.03555e-08
-1.12081e-08
-8.33961e-09
8.89734e-08
2.40184e-09
-1.46896e-08
1.79788e-08
1.07759e-07
-3.11802e-08
-4.75745e-08
1.2337e-07
-5.20095e-08
-5.91415e-08
3.50941e-08
-1.80423e-08
-6.16571e-08
1.48758e-08
-6.38243e-09
-5.77321e-08
3.29942e-09
-9.5186e-10
-4.61012e-08
-2.83384e-09
-2.465e-09
-1.89112e-08
-1.26936e-08
-7.91242e-09
1.89509e-08
-2.36687e-08
-7.37541e-09
5.31545e-08
-2.39262e-08
-3.59425e-09
7.35587e-08
-1.09529e-08
-3.11137e-09
8.91167e-08
-1.00896e-08
-5.39903e-08
1.5869e-07
-1.52198e-09
-7.00411e-08
4.64714e-08
3.18602e-09
-7.01901e-08
1.04531e-08
-1.09173e-09
-5.72551e-08
-2.3665e-08
2.26301e-09
-4.05587e-08
-3.87753e-08
4.81234e-09
-2.44458e-08
-3.51583e-08
3.86895e-09
-8.84526e-09
-3.52246e-08
3.94803e-09
1.24333e-08
-3.62104e-08
3.85973e-09
3.75458e-08
-3.23589e-08
9.5938e-09
2.16789e-08
1.33612e-07
-9.67396e-09
-8.55868e-09
1.72928e-07
-1.93903e-08
-2.84901e-08
5.95294e-08
-4.19387e-09
-3.91554e-08
2.73935e-08
-1.63381e-09
-4.40775e-08
9.45784e-09
-1.06573e-09
-4.03195e-08
-9.39454e-09
2.8744e-09
-2.36125e-08
-3.33813e-08
3.93462e-09
6.14626e-10
-4.87806e-08
7.58603e-10
1.82084e-08
-4.15798e-08
-6.55024e-11
2.29107e-08
-1.91682e-08
3.85355e-09
1.13888e-07
-1.68663e-09
-3.07663e-08
1.84064e-07
5.83346e-09
-4.79688e-08
6.31733e-08
2.25047e-10
-5.19673e-08
1.57702e-08
-1.65278e-09
-4.36813e-08
-3.10535e-08
-9.36241e-10
-3.47911e-08
-4.80711e-08
4.28867e-10
-2.30108e-08
-4.55752e-08
-1.35623e-09
-1.09677e-08
-4.55124e-08
-1.7522e-09
6.92366e-09
-5.06577e-08
-3.44749e-09
1.83979e-08
-4.8892e-08
5.4573e-09
3.36162e-08
1.32279e-07
-1.38324e-08
1.19831e-08
2.17365e-07
-2.28477e-08
-2.24013e-08
8.5859e-08
8.36739e-09
-2.86059e-08
3.24838e-08
9.91525e-10
-3.63345e-08
1.51575e-08
2.03344e-09
-3.64875e-08
-1.16166e-08
2.3801e-09
-2.39547e-08
-4.70041e-08
1.09067e-09
-2.17496e-09
-6.82239e-08
-2.33462e-09
1.49214e-08
-5.60788e-08
-2.7215e-09
1.7969e-08
-2.28394e-08
8.37623e-10
1.29581e-07
2.36134e-09
-1.10556e-08
1.92757e-07
2.38366e-09
-2.5288e-08
7.84696e-08
-1.36817e-09
-2.99344e-08
1.91816e-08
9.79521e-10
-3.01813e-08
-3.05689e-08
-2.84077e-10
-2.64538e-08
-5.24521e-08
6.95027e-10
-2.01308e-08
-5.11732e-08
-6.84204e-10
-1.08477e-08
-5.45301e-08
-1.13251e-09
5.21339e-09
-6.3836e-08
-2.81281e-09
1.82108e-08
-6.49442e-08
3.73654e-09
4.0626e-08
1.01502e-07
8.55565e-09
3.85505e-08
2.38861e-07
-1.93012e-08
9.05145e-10
1.43384e-07
-2.00287e-08
-1.37752e-08
4.89166e-08
-1.85476e-09
-2.05811e-08
2.16757e-08
2.1613e-10
-2.46682e-08
-9.3628e-09
1.76127e-09
-2.04551e-08
-5.32066e-08
1.9379e-09
-4.02662e-09
-8.21479e-08
-2.50724e-09
1.09945e-08
-6.7381e-08
-3.81736e-09
1.35143e-08
-2.53515e-08
-6.11548e-11
1.42107e-07
1.10713e-09
4.66862e-09
1.88512e-07
-4.57088e-10
-5.07366e-09
8.98327e-08
-1.85547e-09
-9.93287e-09
2.30559e-08
8.77282e-10
-1.52835e-08
-2.65721e-08
1.35967e-09
-1.61279e-08
-5.11846e-08
-4.35268e-10
-1.43911e-08
-5.30384e-08
-9.23999e-10
-9.15069e-09
-5.9863e-08
-1.38215e-09
-8.20826e-10
-7.07779e-08
-2.7513e-09
1.06055e-08
-7.3495e-08
-2.34579e-09
5.0738e-08
1.76063e-08
4.41957e-08
6.71213e-08
2.36818e-07
-1.4363e-08
3.35205e-08
1.98661e-07
-2.15875e-08
5.12243e-09
8.55406e-08
-8.69237e-09
-7.99559e-09
3.44444e-08
2.79647e-10
-1.22788e-08
-7.17464e-09
2.01762e-09
-1.18148e-08
-5.63453e-08
2.62933e-09
4.97709e-12
-9.17553e-08
-2.23818e-09
9.98476e-09
-7.36898e-08
-3.7322e-09
8.82844e-09
-2.38682e-08
-4.72325e-10
1.50552e-07
4.97031e-10
1.39648e-08
1.74122e-07
5.07656e-10
1.04457e-08
9.54027e-08
-2.2146e-09
5.41228e-09
2.68298e-08
1.23218e-09
-1.56633e-09
-2.19004e-08
2.33027e-09
-6.85038e-09
-4.55429e-08
-3.35522e-10
-7.62972e-09
-5.25125e-08
-1.18473e-09
-5.1408e-09
-6.12615e-08
-1.72668e-09
-5.60338e-10
-7.63847e-08
-5.70277e-10
1.29833e-08
-8.2158e-08
-4.67702e-09
4.77379e-08
-5.5148e-08
3.88503e-08
7.50946e-08
2.06141e-07
3.13485e-09
6.20914e-08
2.1177e-07
-6.33255e-11
3.2517e-08
1.34121e-07
-1.9392e-08
1.47222e-08
5.51497e-08
-3.24761e-09
4.88728e-09
3.5012e-09
-1.03687e-09
1.85044e-09
-5.35542e-08
1.88994e-10
6.09439e-09
-9.38427e-08
-2.18519e-09
1.19326e-08
-7.63382e-08
-3.29574e-09
7.80475e-09
-1.89503e-08
-9.82684e-10
1.57282e-07
1.19762e-09
1.53298e-08
1.56005e-07
2.90898e-09
1.68045e-08
9.45183e-08
-6.52651e-10
1.24854e-08
2.74177e-08
3.80505e-09
5.03083e-09
-1.67052e-08
2.35357e-09
-3.86729e-10
-3.8842e-08
-1.30814e-09
-1.85016e-09
-5.00916e-08
-1.35306e-09
3.78087e-10
-6.16201e-08
-1.93247e-09
8.35888e-09
-8.2935e-08
-1.58104e-09
2.77395e-08
-1.00115e-07
-2.81004e-09
4.87009e-08
-8.32255e-08
7.72018e-09
7.53893e-08
1.51974e-07
2.76013e-08
6.49818e-08
2.0552e-07
1.67596e-08
4.38371e-08
1.6031e-07
-5.23997e-09
2.64381e-08
8.09172e-08
-8.66869e-09
1.70356e-08
1.71505e-08
-4.26239e-09
1.15728e-08
-4.46794e-08
-3.46963e-09
1.31268e-08
-9.29747e-08
-2.47283e-09
1.724e-08
-7.8183e-08
-2.43502e-09
1.25997e-08
-1.25418e-08
-2.01704e-09
1.6901e-07
1.10493e-09
1.056e-08
1.4227e-07
3.2389e-09
1.71332e-08
8.66338e-08
1.35354e-09
1.45001e-08
2.43039e-08
5.94354e-09
8.32116e-09
-1.11415e-08
7.05172e-10
2.48202e-09
-3.07998e-08
-2.22989e-09
5.96492e-10
-4.66163e-08
-1.6534e-09
2.71811e-09
-6.22011e-08
-1.53725e-09
1.04198e-08
-8.83407e-08
-2.22016e-09
2.71229e-08
-1.17306e-07
-1.05458e-09
3.95127e-08
-1.03081e-07
7.78034e-09
6.99568e-08
8.61353e-08
3.55033e-08
5.49341e-08
1.96541e-07
2.4064e-08
3.84273e-08
1.72372e-07
4.40029e-09
2.69874e-08
1.004e-07
-8.18545e-09
2.03158e-08
3.19834e-08
-8.14078e-09
1.57201e-08
-3.41603e-08
-5.9399e-09
1.78331e-08
-9.30042e-08
-2.12194e-09
2.5036e-08
-8.39323e-08
-1.65714e-09
1.98572e-08
-7.22838e-09
-4.76707e-10
1.89703e-07
-4.29891e-10
6.30346e-09
1.2905e-07
6.90332e-09
1.53798e-08
7.28879e-08
4.77715e-09
1.22388e-08
2.23469e-08
5.41661e-09
6.86086e-09
-4.98122e-09
-7.37415e-10
2.15611e-09
-2.60846e-08
-1.64894e-09
7.12048e-10
-4.40465e-08
-1.12609e-09
2.03403e-09
-6.25702e-08
-9.35265e-10
6.43697e-09
-9.20805e-08
-6.4304e-10
1.84344e-08
-1.29619e-07
8.94652e-11
3.3745e-08
-1.24417e-07
6.59992e-09
6.18305e-08
4.81369e-08
9.09968e-09
4.22642e-08
1.86733e-07
2.95098e-08
3.11142e-08
1.73763e-07
9.78594e-09
2.3468e-08
1.14548e-07
-6.52122e-09
1.59838e-08
4.96061e-08
-1.00076e-08
1.21093e-08
-2.44688e-08
-5.78505e-09
1.46688e-08
-9.56694e-08
-1.4511e-09
2.44914e-08
-9.52053e-08
4.14083e-10
1.53214e-08
1.41962e-10
1.25969e-09
2.0409e-07
1.3283e-09
2.37677e-09
1.10024e-09
5.11725e-09
-1.44764e-09
5.15747e-09
1.22903e-09
2.12123e-09
-4.03114e-10
7.82872e-10
-5.40748e-10
2.34985e-10
-3.49844e-10
3.02598e-10
-3.89875e-10
1.15447e-09
-2.66408e-10
4.60638e-09
-1.71233e-10
1.58677e-08
4.25637e-09
2.86023e-08
8.0941e-09
1.69725e-08
1.56205e-08
1.49445e-08
5.29718e-09
1.28644e-08
-4.45554e-09
8.34773e-09
-4.75113e-09
3.49588e-09
-2.38451e-09
3.39833e-09
-6.66281e-11
8.59562e-09
2.75197e-09
2.22669e-09
-5.71237e-10
1.9015e-09
-7.72263e-08
7.12775e-08
-2.09969e-08
-9.0594e-08
1.71039e-08
-7.26024e-09
-8.2968e-08
-4.22759e-09
-6.90718e-09
-5.53327e-08
-2.48203e-08
-7.88297e-09
-2.20446e-08
-2.96065e-08
-5.7289e-09
7.5198e-09
-2.60394e-08
-3.89951e-09
3.65814e-08
-2.71198e-08
-5.21296e-09
6.3882e-08
-2.53564e-08
-3.75687e-09
9.21353e-08
-2.89935e-08
-7.22024e-09
5.59167e-08
2.70881e-08
-1.55995e-08
-4.88416e-08
8.28132e-08
-2.41839e-08
-6.54438e-08
1.24499e-08
-8.13958e-09
-6.92022e-08
6.17653e-09
-2.85102e-09
-6.41632e-08
7.05386e-10
-5.31004e-10
-5.03706e-08
-7.97748e-09
-1.93127e-09
-2.23527e-08
-2.52913e-08
-3.93334e-09
1.75761e-08
-3.63209e-08
-4.06928e-09
5.46269e-08
-3.17976e-08
-2.14497e-09
7.62404e-08
-1.69142e-08
-1.43887e-09
7.78276e-08
-6.02389e-09
-5.56596e-08
1.27061e-07
-6.35798e-10
-7.35794e-08
3.46667e-08
3.61769e-09
-7.56425e-08
-2.30318e-09
-9.19541e-10
-6.37992e-08
-3.5506e-08
9.41241e-10
-4.44641e-08
-4.73611e-08
3.10657e-09
-2.66095e-08
-4.21778e-08
2.13028e-09
-9.34245e-09
-4.21728e-08
1.74968e-09
1.13445e-08
-4.29076e-08
7.64006e-10
3.62285e-08
-4.9133e-08
4.94858e-09
6.02509e-08
-2.2696e-09
-4.35835e-09
4.51978e-09
1.25396e-07
-5.23572e-09
-2.25549e-08
3.69142e-08
-1.01424e-09
-4.03824e-08
2.29117e-08
-3.19843e-10
-4.83135e-08
7.93448e-09
-2.41576e-10
-4.27346e-08
-1.27441e-08
2.12977e-09
-2.4717e-08
-4.13843e-08
1.90416e-09
7.66198e-11
-6.05136e-08
2.86015e-12
1.88626e-08
-5.05598e-08
-1.84345e-10
2.64517e-08
-2.21418e-08
1.67115e-09
1.03741e-07
-9.14359e-10
-3.06004e-08
1.64321e-07
-4.00113e-10
-5.0407e-08
5.46665e-08
-3.022e-10
-5.49105e-08
1.53996e-09
-1.25561e-09
-4.72844e-08
-4.36406e-08
-4.16413e-10
-3.67905e-08
-5.8147e-08
7.45676e-10
-2.41516e-08
-5.54555e-08
-7.28228e-10
-1.08984e-08
-5.72105e-08
-1.00259e-09
8.89889e-09
-6.36819e-08
-2.46902e-09
2.95931e-08
-6.59743e-08
1.31999e-09
3.86952e-08
-1.75198e-08
-7.57026e-09
1.77133e-08
1.38184e-07
-1.43064e-08
-2.00997e-08
8.1438e-08
1.71923e-09
-3.21682e-08
3.57509e-08
1.06052e-10
-3.94526e-08
1.6253e-08
9.7153e-10
-3.79268e-08
-1.32893e-08
1.38657e-09
-2.38523e-08
-5.47503e-08
3.86784e-10
-1.31664e-09
-8.36694e-08
-1.69309e-09
1.59471e-08
-6.90386e-08
-1.44878e-09
1.95043e-08
-2.53914e-08
4.24289e-10
1.2479e-07
8.75641e-10
-1.2913e-08
1.81133e-07
-1.44776e-09
-2.85855e-08
6.96124e-08
-9.32627e-10
-3.2027e-08
4.86023e-09
9.15897e-10
-3.1392e-08
-4.40458e-08
-5.00055e-10
-2.70402e-08
-6.24324e-08
6.66192e-10
-2.09297e-08
-6.25799e-08
-4.5157e-10
-1.09793e-08
-6.88196e-08
-9.63331e-10
6.02639e-09
-8.22245e-08
-2.65819e-09
2.5505e-08
-8.34259e-08
1.41272e-09
4.56401e-08
-2.58871e-08
-3.31439e-09
6.58596e-08
1.194e-07
-2.07135e-08
1.33446e-08
1.29236e-07
-1.55538e-08
-1.50997e-08
6.2495e-08
-2.92153e-10
-2.22241e-08
2.33979e-08
1.31166e-10
-2.52347e-08
-9.51249e-09
9.12103e-10
-1.89001e-08
-6.02783e-08
1.09512e-09
-1.71738e-09
-1.01452e-07
-1.88843e-09
1.16108e-08
-8.38834e-08
-2.22305e-09
1.38387e-08
-2.77521e-08
-7.10532e-11
1.39529e-07
2.75832e-10
3.4174e-09
1.8089e-07
-3.70763e-09
-7.2758e-09
7.9883e-08
-1.62606e-09
-1.05981e-08
8.65442e-09
2.58474e-10
-1.42325e-08
-3.98916e-08
8.83681e-10
-1.57961e-08
-6.10658e-08
-2.12368e-10
-1.44975e-08
-6.55663e-08
-6.39267e-10
-8.8462e-09
-7.53986e-08
-9.61114e-10
-1.36729e-10
-9.32064e-08
-2.03727e-09
1.21214e-08
-9.75795e-08
-1.1763e-09
6.0994e-08
-5.87303e-08
2.9078e-08
8.51503e-08
9.28315e-08
-1.18368e-08
5.76303e-08
1.49097e-07
-1.40049e-08
1.17547e-08
1.06952e-07
-7.63822e-09
-8.1466e-09
4.36665e-08
-2.36138e-10
-1.17186e-08
-4.17086e-09
1.53834e-10
-9.4076e-09
-6.09913e-08
9.65027e-10
2.11305e-09
-1.13841e-07
-1.33252e-09
1.10277e-08
-9.41613e-08
-2.28875e-09
9.52395e-09
-2.66111e-08
-1.48914e-10
1.50092e-07
-4.77567e-10
1.29718e-08
1.72886e-07
-4.59411e-09
8.29115e-09
8.52547e-08
-3.03013e-09
6.15176e-09
1.19829e-08
-2.25323e-11
-1.54527e-11
-3.28644e-08
1.50272e-09
-6.14204e-09
-5.50464e-08
-1.76542e-10
-7.4358e-09
-6.55324e-08
-6.39988e-10
-5.07922e-09
-7.86481e-08
-8.96492e-10
2.08611e-09
-1.01419e-07
2.87276e-10
1.73684e-08
-1.16445e-07
-2.79477e-09
6.32874e-08
-8.87302e-08
2.32411e-08
9.43062e-08
7.36803e-08
-9.04259e-09
8.97142e-08
1.57512e-07
-4.04881e-09
5.38402e-08
1.38962e-07
-1.55777e-08
2.21223e-08
7.58668e-08
-3.99757e-09
7.54421e-09
9.95757e-09
-6.76957e-10
3.62481e-09
-5.6826e-08
-1.49281e-10
8.16766e-09
-1.19635e-07
-8.89329e-10
1.30248e-08
-1.00453e-07
-1.69988e-09
8.42055e-09
-2.27614e-08
-1.27859e-10
1.59337e-07
4.38712e-10
1.51396e-08
1.58453e-07
2.22755e-09
1.47177e-08
8.61583e-08
-1.21806e-09
1.44755e-08
1.52749e-08
7.79691e-10
6.64063e-09
-2.47651e-08
2.18215e-09
-5.92682e-11
-4.86542e-08
-1.01343e-09
-1.62885e-09
-6.48843e-08
-6.1448e-10
5.16136e-10
-8.2134e-08
-6.47508e-10
9.66194e-09
-1.12035e-07
-1.27973e-10
3.019e-08
-1.40277e-07
-7.47657e-10
6.06784e-08
-1.17081e-07
5.80829e-09
9.09782e-08
6.52621e-08
4.99573e-09
8.82252e-08
1.67493e-07
9.24989e-09
7.0887e-08
1.55947e-07
-4.87428e-09
4.0675e-08
1.03177e-07
-5.924e-09
2.09964e-08
2.71651e-08
-1.8159e-09
1.27051e-08
-4.97458e-08
-2.31856e-09
1.41873e-08
-1.22873e-07
-6.88605e-10
1.80679e-08
-1.05867e-07
-7.10234e-10
1.28911e-08
-1.89202e-08
-5.67041e-10
1.72549e-07
9.06275e-10
1.06886e-08
1.44919e-07
6.18287e-09
1.58345e-08
8.16769e-08
6.54151e-10
1.70112e-08
1.64262e-08
3.87636e-09
9.76726e-09
-1.77446e-08
1.01293e-09
2.39407e-09
-4.31842e-08
-1.27736e-09
4.14315e-10
-6.40144e-08
-6.10257e-10
2.74657e-09
-8.57042e-08
-3.43508e-10
8.93382e-09
-1.19873e-07
-5.83999e-10
2.41378e-08
-1.56438e-07
-3.0086e-10
4.52651e-08
-1.37611e-07
7.44471e-09
7.82464e-08
4.15952e-08
2.59029e-08
7.38066e-08
1.7242e-07
2.34549e-08
6.04317e-08
1.6819e-07
5.60175e-09
3.91344e-08
1.18832e-07
-2.55644e-09
2.3771e-08
4.10683e-08
-6.61143e-09
1.56942e-08
-4.37331e-08
-3.87336e-09
1.74954e-08
-1.26247e-07
-4.92054e-10
2.52952e-08
-1.15242e-07
-5.75843e-11
1.99869e-08
-1.41849e-08
-1.21744e-11
1.93811e-07
-1.51028e-09
6.2175e-09
1.36984e-07
8.72745e-09
1.54047e-08
7.34876e-08
3.88609e-09
1.38921e-08
1.85994e-08
5.02018e-09
6.92334e-09
-1.11094e-08
-3.53275e-10
1.89709e-09
-4.06756e-08
-6.25073e-10
3.96164e-10
-6.3433e-08
-2.53097e-10
1.48366e-09
-8.75769e-08
-2.09808e-10
5.11833e-09
-1.24276e-07
-2.08305e-11
1.52904e-08
-1.66947e-07
-5.01931e-11
3.70964e-08
-1.57611e-07
4.15174e-09
6.22586e-08
1.6609e-08
8.46868e-09
5.81037e-08
1.74137e-07
3.19833e-08
4.79661e-08
1.74777e-07
1.34133e-08
3.3449e-08
1.29194e-07
-2.35656e-09
1.81581e-08
5.64028e-08
-9.93489e-09
1.0524e-08
-3.8218e-08
-3.64251e-09
1.16665e-08
-1.30259e-07
-1.16536e-10
2.39342e-08
-1.28972e-07
6.00149e-10
1.59536e-08
-5.85286e-09
5.8745e-10
2.13123e-07
-1.84762e-09
2.82902e-09
2.12215e-09
4.33149e-09
-1.35396e-09
4.84843e-09
1.53581e-09
1.68686e-09
-1.09649e-10
5.1426e-10
-1.3426e-10
1.94815e-10
6.62151e-12
2.87831e-10
-4.50291e-11
9.23442e-10
3.94086e-11
3.77067e-09
3.10409e-11
1.71368e-08
1.56406e-09
2.92023e-08
7.30566e-09
2.63583e-08
1.69763e-08
2.36745e-08
8.13814e-09
1.77311e-08
-3.59113e-09
8.99738e-09
-5.33528e-09
2.87243e-09
-1.31181e-09
2.76666e-09
2.14091e-10
9.74222e-09
6.836e-10
2.11929e-09
-6.61362e-10
-3.66855e-10
-8.06348e-08
4.63904e-08
1.94094e-08
-9.27911e-08
6.30671e-09
4.63209e-09
-8.50481e-08
-1.21121e-08
3.77858e-09
-5.74054e-08
-3.24674e-08
3.58961e-09
-2.44664e-08
-3.47906e-08
2.8411e-09
6.15451e-09
-2.95565e-08
1.60849e-09
3.44416e-08
-2.97442e-08
2.79398e-09
6.14723e-08
-2.681e-08
2.56031e-09
9.15398e-08
-3.66256e-08
6.12318e-09
6.54551e-08
3.57253e-09
1.32059e-08
-4.44677e-08
6.82857e-08
2.37082e-08
-6.6268e-08
1.07643e-08
8.66331e-09
-7.10922e-08
3.40849e-09
4.66927e-09
-6.57603e-08
-9.94725e-10
1.35764e-09
-5.16591e-08
-1.2838e-08
3.20793e-09
-2.30298e-08
-3.03557e-08
4.52094e-09
1.696e-08
-4.20353e-08
4.9389e-09
5.44322e-08
-3.55029e-08
2.61733e-09
7.63611e-08
-1.91103e-08
2.13153e-09
6.9313e-08
6.72539e-09
-5.69465e-08
1.03133e-07
3.79267e-10
-7.37997e-08
2.9272e-08
-2.61098e-09
-7.71767e-08
-9.89674e-09
3.00227e-10
-6.63393e-08
-4.33536e-08
8.62396e-10
-4.56595e-08
-5.17571e-08
-7.82521e-10
-2.71705e-08
-4.66494e-08
-4.37958e-10
-9.43784e-09
-4.58052e-08
7.03918e-11
1.06388e-08
-4.63294e-08
3.18783e-10
3.77677e-08
-5.39412e-08
-4.90945e-09
5.71314e-08
-2.70503e-08
6.70867e-09
8.06048e-09
1.04692e-07
8.40147e-09
-2.24343e-08
3.83907e-08
2.37354e-09
-4.06346e-08
2.14861e-08
1.45854e-11
-4.94377e-08
7.57932e-09
1.9818e-10
-4.33373e-08
-1.36602e-08
-3.14037e-09
-2.49844e-08
-4.44345e-08
-2.5275e-09
-1.12069e-11
-6.63346e-08
-8.69145e-10
1.89973e-08
-5.45416e-08
-2.68488e-10
2.75019e-08
-2.34546e-08
-2.3119e-09
9.51095e-08
9.09284e-10
-3.11467e-08
1.3405e-07
4.32051e-10
-5.1812e-08
4.74503e-08
1.96006e-09
-5.70525e-08
-8.88104e-09
2.8518e-09
-4.94535e-08
-5.18966e-08
5.26473e-10
-3.70582e-08
-6.29256e-08
-5.0598e-10
-2.41367e-08
-6.25684e-08
8.00689e-10
-1.06982e-08
-6.28956e-08
1.28996e-09
8.51458e-09
-7.04681e-08
2.45876e-09
3.06223e-08
-7.29597e-08
-1.72353e-09
3.98838e-08
-4.9355e-08
5.52726e-09
2.23694e-08
9.98841e-08
8.6328e-09
-1.77304e-08
8.12377e-08
-9.59272e-10
-3.30122e-08
3.75498e-08
-8.02325e-10
-4.03178e-08
1.69973e-08
-1.18077e-09
-3.75989e-08
-1.33257e-08
-1.69786e-09
-2.31135e-08
-5.796e-08
-5.74155e-10
-7.20332e-10
-9.18814e-08
1.50364e-09
1.63534e-08
-7.45191e-08
1.46164e-09
2.03402e-08
-2.65745e-08
-4.84526e-10
1.17199e-07
-8.3484e-10
-1.40524e-08
1.45035e-07
1.79657e-09
-3.05695e-08
6.08053e-08
1.99693e-09
-3.35013e-08
-4.54202e-09
-7.10374e-10
-3.22557e-08
-5.42908e-08
6.83257e-10
-2.67574e-08
-6.72306e-08
-4.97083e-10
-2.0736e-08
-6.99882e-08
5.78864e-10
-1.07738e-08
-7.62095e-08
8.33871e-10
5.28644e-09
-9.27012e-08
2.05254e-09
2.82939e-08
-9.42121e-08
-2.75493e-10
5.12521e-08
-7.61456e-08
1.21377e-09
7.31282e-08
4.51404e-08
1.25757e-08
1.50975e-08
1.11911e-07
1.19722e-08
-1.4864e-08
6.62551e-08
8.40068e-10
-2.26221e-08
2.48552e-08
-2.77764e-11
-2.48993e-08
-8.7625e-09
-1.46736e-09
-1.76169e-08
-6.26344e-08
-1.56778e-09
-6.37757e-10
-1.12354e-07
1.64862e-09
1.19996e-08
-9.14911e-08
2.18119e-09
1.42243e-08
-2.90754e-08
9.28954e-11
1.31978e-07
-2.22342e-10
4.1543e-09
1.3324e-07
3.95877e-09
-8.98193e-09
7.02226e-08
1.92289e-09
-1.15594e-08
-1.86241e-09
-1.05393e-11
-1.33411e-08
-5.12372e-08
-3.81877e-10
-1.52155e-08
-6.56943e-08
1.52101e-10
-1.41382e-08
-7.23684e-08
6.05457e-10
-8.57927e-09
-8.40836e-08
1.13993e-09
-4.29524e-11
-1.06414e-07
1.53208e-09
1.41981e-08
-1.13184e-07
2.26251e-09
6.85341e-08
-8.31356e-08
-1.86563e-08
8.76455e-08
9.04149e-09
5.3055e-09
6.95567e-08
1.07806e-07
8.45677e-09
1.56114e-08
1.03204e-07
9.17729e-09
-7.87394e-09
4.89617e-08
-1.0164e-09
-1.11558e-08
-2.03873e-09
-3.39793e-09
-8.15497e-09
-6.24558e-08
-2.30005e-09
3.29536e-09
-1.26143e-07
1.05487e-09
1.15447e-08
-1.04197e-07
2.24813e-09
1.0426e-08
-2.8319e-08
1.3742e-10
1.41553e-07
4.85075e-10
1.47805e-08
1.09463e-07
4.49333e-09
7.14976e-09
7.18059e-08
2.95047e-09
5.66802e-09
-1.16499e-09
7.38716e-10
6.87325e-10
-4.32776e-08
-1.50957e-09
-5.73969e-09
-5.95129e-08
9.8009e-11
-7.04316e-09
-7.23492e-08
6.6325e-10
-4.93074e-09
-8.80761e-08
9.73052e-10
3.47168e-09
-1.15099e-07
4.88931e-10
1.78615e-08
-1.33567e-07
1.66712e-09
8.06363e-08
-9.87879e-08
-2.42175e-08
9.53833e-08
-1.47366e-08
2.95703e-10
1.01796e-07
9.31015e-08
4.09614e-09
6.59756e-08
1.15696e-07
7.89754e-09
2.62874e-08
8.32205e-08
1.30972e-09
9.06344e-09
1.5881e-08
-1.49998e-09
4.3465e-09
-5.77691e-08
-2.33129e-10
8.63727e-09
-1.32288e-07
9.54775e-10
1.31636e-08
-1.12178e-07
1.7782e-09
9.77844e-09
-2.52601e-08
1.94146e-10
1.52494e-07
-6.24931e-10
1.56308e-08
9.8284e-08
-2.30422e-09
1.43599e-08
7.02897e-08
1.56296e-09
1.44013e-08
2.68047e-10
-6.14307e-10
8.31256e-09
-3.27123e-08
-2.26772e-09
-7.84508e-11
-5.32045e-08
1.08236e-09
-1.62407e-09
-7.20122e-08
6.20044e-10
5.18942e-10
-9.15773e-08
7.15219e-10
9.68438e-09
-1.24157e-07
-1.51227e-10
2.97397e-08
-1.54947e-07
4.07673e-10
7.56695e-08
-1.31824e-07
-7.19433e-09
8.91378e-08
-1.9286e-08
-3.86686e-09
9.76498e-08
9.51857e-08
-1.75036e-09
8.44323e-08
1.19946e-07
4.19486e-09
5.10264e-08
1.03318e-07
7.46755e-09
2.4591e-08
3.68497e-08
3.66307e-09
1.29432e-08
-5.1121e-08
2.64043e-09
1.38145e-08
-1.35119e-07
1.21203e-09
1.77454e-08
-1.1825e-07
8.32728e-10
1.35711e-08
-2.22628e-08
6.10768e-10
1.68099e-07
-9.91081e-10
9.76136e-09
1.00556e-07
-5.94811e-09
1.46764e-08
6.62592e-08
-2.40263e-10
1.86111e-08
4.02915e-09
-3.78533e-09
1.08503e-08
-2.28087e-08
-1.05271e-09
2.26167e-09
-4.86463e-08
1.25154e-09
2.27574e-10
-7.1132e-08
5.67155e-10
2.63906e-09
-9.45948e-08
2.96417e-10
7.87614e-09
-1.30351e-07
4.80078e-10
2.15409e-08
-1.67373e-07
-1.48517e-09
5.50761e-08
-1.51275e-07
-6.73287e-09
7.65582e-08
-1.79361e-08
2.77264e-09
8.68664e-08
1.09642e-07
-1.87943e-09
7.91761e-08
1.32416e-07
6.94658e-10
5.28518e-08
1.18566e-07
8.72028e-09
2.80344e-08
5.13257e-08
3.90567e-09
1.55873e-08
-4.64119e-08
3.89185e-09
1.6582e-08
-1.37784e-07
1.13642e-09
2.48869e-08
-1.28216e-07
1.98518e-10
1.97582e-08
-1.75563e-08
2.19794e-10
1.84997e-07
1.67768e-09
4.73646e-09
1.12506e-07
-8.24291e-09
1.37872e-08
6.45861e-08
-3.59047e-09
1.56497e-08
1.23853e-08
-5.12785e-09
6.52935e-09
-1.57648e-08
3.06906e-10
1.71191e-09
-4.65787e-08
5.55509e-10
3.36876e-10
-7.02414e-08
2.47534e-10
1.28867e-09
-9.58852e-08
1.30903e-10
4.81993e-09
-1.33995e-07
-9.00482e-12
1.46329e-08
-1.76494e-07
-1.20795e-09
4.31704e-08
-1.6961e-07
-7.66915e-09
5.48209e-08
-2.48769e-08
3.57166e-09
7.28537e-08
1.30361e-07
-7.49352e-09
6.88057e-08
1.51516e-07
-1.78653e-09
4.76676e-08
1.32504e-07
5.08593e-09
2.19517e-08
6.30414e-08
4.34554e-09
1.0127e-08
-4.2656e-08
4.47542e-09
1.0917e-08
-1.41176e-07
8.5671e-10
2.39896e-08
-1.4115e-07
-5.77393e-10
1.61679e-08
-9.13838e-09
-3.7781e-10
1.98002e-07
1.69622e-09
2.9098e-09
-1.88691e-09
3.55366e-09
1.27909e-09
4.29554e-09
-1.53374e-09
1.47137e-09
5.89071e-11
4.54657e-10
1.41371e-10
1.57103e-10
9.95076e-12
2.20031e-10
4.43315e-11
8.02507e-10
-5.89336e-11
3.42651e-09
-4.6347e-11
1.98043e-08
-2.70884e-09
2.57843e-08
1.49101e-09
3.72569e-08
-1.11034e-08
3.66609e-08
8.26143e-11
2.53445e-08
-1.83247e-10
1.04519e-08
1.21971e-09
2.67087e-09
2.18104e-09
2.58472e-09
2.50196e-11
1.01716e-08
-6.59882e-10
2.17757e-09
7.44766e-10
2.79773e-10
-7.7315e-08
7.09559e-08
3.15137e-08
-9.05878e-08
1.58564e-08
7.9718e-09
-8.30326e-08
-5.87552e-09
8.40537e-09
-5.55393e-08
-2.59474e-08
8.66067e-09
-2.23907e-08
-3.02783e-08
6.6705e-09
7.18256e-09
-2.63598e-08
4.99501e-09
3.61457e-08
-2.72064e-08
7.58287e-09
6.32988e-08
-2.54217e-08
7.34602e-09
9.16191e-08
-2.99835e-08
1.45133e-08
5.5842e-08
2.60591e-08
2.94235e-08
-4.86288e-08
7.98529e-08
5.41914e-08
-6.55248e-08
1.20358e-08
1.93006e-08
-6.92756e-08
6.63362e-09
7.74973e-09
-6.41681e-08
9.57896e-10
1.46617e-09
-5.02856e-08
-7.25646e-09
2.91729e-09
-2.22568e-08
-2.49692e-08
8.16684e-09
1.76282e-08
-3.61275e-08
8.09649e-09
5.47235e-08
-3.17023e-08
3.92797e-09
7.6365e-08
-1.67796e-08
3.64012e-09
7.81664e-08
1.05749e-08
-5.563e-08
1.26546e-07
1.43041e-09
-7.31865e-08
3.35429e-08
-2.67866e-09
-7.55374e-08
-3.43016e-09
2.43357e-10
-6.41172e-08
-3.61097e-08
-5.71571e-10
-4.457e-08
-4.75292e-08
-3.21083e-09
-2.66833e-08
-4.22401e-08
-2.47269e-09
-9.30988e-09
-4.22325e-08
-2.26674e-09
1.12319e-08
-4.28077e-08
-2.80218e-09
3.59664e-08
-4.91132e-08
-1.0428e-08
6.01675e-08
-3.66096e-09
1.2264e-08
4.32263e-09
1.23401e-07
2.16841e-08
-2.26527e-08
3.63606e-08
5.60408e-09
-4.05577e-08
2.33295e-08
1.44372e-09
-4.83233e-08
7.94323e-09
1.09371e-09
-4.27347e-08
-1.27289e-08
-3.18348e-09
-2.47153e-08
-4.13783e-08
-4.24279e-09
9.50301e-11
-6.05773e-08
-1.38061e-09
1.88702e-08
-5.05928e-08
-2.52188e-10
2.64525e-08
-2.21212e-08
-4.36764e-09
1.04103e-07
1.65942e-09
-3.06704e-08
1.63588e-07
-5.49973e-09
-5.02384e-08
5.3728e-08
1.01312e-09
-5.48525e-08
7.87817e-10
2.9888e-09
-4.73538e-08
-4.4066e-08
9.92328e-10
-3.67898e-08
-5.82033e-08
-3.73143e-10
-2.41504e-08
-5.5467e-08
1.37724e-09
-1.08438e-08
-5.71929e-08
1.90767e-09
8.88763e-09
-6.34309e-08
3.3523e-09
2.93461e-08
-6.5817e-08
-5.78873e-09
3.78687e-08
-2.09646e-08
1.44624e-08
1.83218e-08
1.39787e-07
1.19613e-08
-1.98585e-08
8.26944e-08
-9.10186e-09
-3.21292e-08
3.56869e-08
-9.99714e-10
-3.94288e-08
1.61806e-08
-2.14562e-09
-3.79801e-08
-1.33656e-08
-2.52218e-09
-2.38457e-08
-5.48116e-08
-1.27397e-09
-1.32386e-09
-8.38581e-08
2.285e-09
1.59531e-08
-6.91075e-08
2.75516e-09
1.95036e-08
-2.53908e-08
-8.68313e-10
1.25176e-07
-2.34336e-09
-1.30609e-08
1.80528e-07
-2.00746e-09
-2.85224e-08
6.89856e-08
1.90551e-09
-3.20191e-08
4.43246e-09
-1.05071e-09
-3.1455e-08
-4.43803e-08
4.49839e-10
-2.7054e-08
-6.24153e-08
-6.49496e-10
-2.09095e-08
-6.26117e-08
7.6621e-10
-1.09922e-08
-6.8835e-08
1.06955e-09
5.73132e-09
-8.20922e-08
2.61289e-09
2.59458e-08
-8.3078e-08
-3.52e-09
4.6918e-08
-3.35258e-08
-7.17498e-09
6.49e-08
1.1957e-07
1.4789e-08
1.23797e-08
1.32093e-07
1.48928e-08
-1.5086e-08
6.22286e-08
1.61425e-09
-2.2073e-08
2.34444e-08
-3.73969e-10
-2.52159e-08
-9.58888e-09
-2.18007e-09
-1.88321e-08
-6.04953e-08
-2.30622e-09
-1.70026e-09
-1.01797e-07
2.47573e-09
1.1623e-08
-8.40169e-08
3.84594e-09
1.38513e-08
-2.77468e-08
7.70173e-11
1.39962e-07
-1.08825e-09
3.46511e-09
1.804e-07
5.45361e-10
-7.28885e-09
7.96027e-08
1.86149e-09
-1.05656e-08
8.25461e-09
-7.04333e-10
-1.41901e-08
-3.9973e-08
-1.12567e-09
-1.57823e-08
-6.10461e-08
4.02077e-10
-1.45009e-08
-6.56033e-08
9.06935e-10
-8.75996e-09
-7.54384e-08
1.49372e-09
5.75278e-11
-9.33121e-08
2.36999e-09
1.27556e-08
-9.6995e-08
2.76029e-09
5.93936e-08
-5.39312e-08
-4.41225e-08
8.28509e-08
8.23403e-08
1.9482e-08
5.50478e-08
1.46277e-07
2.22089e-08
1.09111e-08
1.06251e-07
8.78454e-09
-7.7863e-09
4.35463e-08
-2.61615e-09
-1.15434e-08
-4.08275e-09
-5.23705e-09
-9.30725e-09
-6.16306e-08
-3.46299e-09
2.1371e-09
-1.14371e-07
2.23004e-09
1.10439e-08
-9.43667e-08
3.7732e-09
9.52311e-09
-2.6602e-08
4.73979e-10
1.5056e-07
-5.24717e-10
1.30121e-08
1.72353e-07
-6.05304e-10
8.29099e-09
8.49969e-08
2.15196e-09
6.16637e-09
1.1827e-08
-7.84404e-10
-1.62983e-11
-3.28309e-08
-2.43794e-09
-6.14914e-09
-5.50541e-08
2.91638e-10
-7.43556e-09
-6.55348e-08
1.19634e-09
-5.07999e-09
-7.86511e-08
1.76729e-09
2.348e-09
-1.01555e-07
1.11107e-09
1.70281e-08
-1.158e-07
4.09403e-09
6.66153e-08
-8.5712e-08
-4.17599e-08
9.49922e-08
4.65025e-08
7.79198e-09
9.0804e-08
1.41699e-07
1.28703e-08
5.47752e-08
1.33605e-07
1.65925e-08
2.31525e-08
7.91351e-08
-3.07431e-09
7.62983e-09
1.23082e-08
-2.47358e-09
3.6382e-09
-5.75324e-08
-3.86202e-10
8.17974e-09
-1.20195e-07
2.28884e-09
1.30432e-08
-1.00649e-07
3.35662e-09
8.43528e-09
-2.27328e-08
1.03043e-09
1.59772e-07
-1.3339e-09
1.51605e-08
1.57756e-07
-2.84614e-09
1.47526e-08
8.59581e-08
9.27846e-10
1.44551e-08
1.53322e-08
-3.79894e-09
6.63654e-09
-2.4743e-08
-2.4448e-09
-5.41847e-11
-4.8641e-08
1.34683e-09
-1.6225e-09
-6.48783e-08
1.35389e-09
5.38265e-10
-8.2131e-08
1.97788e-09
9.58923e-09
-1.12095e-07
1.32301e-09
3.02194e-08
-1.39988e-07
2.68674e-09
6.43646e-08
-1.18001e-07
-8.97614e-09
9.07389e-08
2.43856e-08
-8.08102e-09
9.35189e-08
1.4317e-07
-6.11778e-09
7.84504e-08
1.45291e-07
7.58396e-09
4.62966e-08
1.11665e-07
6.87872e-09
2.16962e-08
3.20704e-08
8.45933e-09
1.26365e-08
-5.03763e-08
4.48211e-09
1.41498e-08
-1.23245e-07
2.77746e-09
1.8047e-08
-1.05997e-07
2.47637e-09
1.29072e-08
-1.89243e-08
2.0565e-09
1.72999e-07
-1.19021e-09
1.07237e-08
1.44223e-07
-3.03537e-09
1.58361e-08
8.17051e-08
-1.13484e-09
1.70648e-08
1.65205e-08
-5.94259e-09
9.79303e-09
-1.77115e-08
-7.28161e-10
2.40008e-09
-4.31573e-08
2.21645e-09
4.09259e-10
-6.4019e-08
1.63222e-09
2.723e-09
-8.57138e-08
1.52126e-09
8.97052e-09
-1.19952e-07
2.07687e-09
2.36949e-08
-1.56337e-07
-7.2144e-11
4.65476e-08
-1.40113e-07
-7.38072e-09
7.84219e-08
1.06247e-08
-1.54347e-08
8.46329e-08
1.53283e-07
-1.83556e-08
7.22513e-08
1.60481e-07
-2.14398e-09
4.72709e-08
1.32363e-07
1.29712e-08
2.46672e-08
4.69929e-08
1.16433e-08
1.55621e-08
-4.44029e-08
7.01286e-09
1.74287e-08
-1.26418e-07
2.49657e-09
2.52643e-08
-1.15273e-07
1.71372e-09
2.00553e-08
-1.4207e-08
6.00266e-10
1.94468e-07
4.54988e-10
6.25559e-09
1.3653e-07
-6.6975e-09
1.54014e-08
7.37528e-08
-4.68116e-09
1.39113e-08
1.86942e-08
-5.5472e-09
6.92729e-09
-1.10666e-08
6.96754e-10
1.89558e-09
-4.06744e-08
1.61047e-09
3.9609e-10
-6.34469e-08
1.12834e-09
1.45892e-09
-8.75854e-08
8.80054e-10
5.08206e-09
-1.24319e-07
5.8942e-10
1.4917e-08
-1.66995e-07
-8.65825e-10
3.66946e-08
-1.62023e-07
-8.57103e-09
5.77908e-08
-6.89805e-09
-3.71261e-10
7.36096e-08
1.71483e-07
-4.15773e-08
6.28083e-08
1.78639e-07
-8.97536e-09
4.13303e-08
1.44996e-07
1.39317e-08
1.88136e-08
5.99728e-08
1.4026e-08
1.03822e-08
-3.87405e-08
7.26544e-09
1.16345e-08
-1.30329e-07
2.00976e-09
2.39174e-08
-1.2894e-07
-4.10156e-10
1.59682e-08
-5.83062e-09
-1.13002e-09
2.13724e-07
-1.40333e-09
2.89483e-09
-1.01354e-09
4.34391e-09
1.40955e-09
4.85856e-09
-1.2145e-09
1.68723e-09
3.73612e-10
5.14884e-10
5.56351e-10
1.94959e-10
3.62454e-10
2.88279e-10
3.9054e-10
9.15839e-10
2.46384e-10
3.77214e-09
1.19667e-10
1.7453e-08
-5.78924e-09
3.05135e-08
-8.79013e-09
3.95104e-08
-2.9294e-08
3.51233e-08
-1.27552e-09
2.16244e-08
9.18648e-09
8.96506e-09
6.42239e-09
2.85679e-09
3.1497e-09
2.76082e-09
2.82537e-10
9.74414e-09
-2.73174e-09
2.12208e-09
6.25979e-10
-1.95867e-09
-6.47704e-08
1.02015e-07
-8.24091e-08
3.15294e-08
-7.56824e-08
7.83546e-09
-4.95551e-08
-1.10023e-08
-1.73135e-08
-1.89913e-08
1.09257e-08
-1.66948e-08
4.23566e-08
-1.7286e-08
6.89854e-08
-1.27222e-08
8.89301e-08
8.80059e-10
1.81519e-08
1.05812e-07
-4.7522e-08
1.25784e-07
-5.94216e-08
3.66798e-08
-6.17614e-08
1.60447e-08
-5.76795e-08
3.65442e-09
-4.59645e-08
-2.45848e-09
-1.88068e-08
-1.24022e-08
1.91275e-08
-2.30249e-08
5.33708e-08
-2.36325e-08
7.37801e-08
-1.04309e-08
8.98218e-08
-5.38111e-08
1.57896e-07
-6.95313e-08
4.47272e-08
-7.00764e-08
8.60373e-09
-5.73931e-08
-2.43672e-08
-4.07085e-08
-3.89356e-08
-2.46216e-08
-3.52407e-08
-8.89593e-09
-3.52765e-08
1.18499e-08
-3.6136e-08
3.44989e-08
-3.22206e-08
2.26267e-08
1.30141e-07
-1.01029e-08
1.80092e-07
-2.90668e-08
6.1514e-08
-3.94282e-08
2.80753e-08
-4.4073e-08
9.56186e-09
-4.03043e-08
-9.34436e-09
-2.36077e-08
-3.33939e-08
6.55236e-10
-4.87949e-08
1.82339e-08
-4.15872e-08
2.2892e-08