/*--------------------------------*- C++ -*----------------------------------*\
| =========                 |                                                 |
| \\      /  F ield         | OpenFOAM: The Open Source CFD Toolbox           |
|  \\    /   O peration     | Version:  2.3.0                                 |
|   \\  /    A nd           | Web:      www.OpenFOAM.org                      |
|    \\/     M anipulation  |                                                 |
\*---------------------------------------------------------------------------*/
FoamFile
{
    version     2.0;
    format      ascii;
    class       volScalarField;
    location    "0.028";
    object      alpha.water;
}
// * * * * * * * * * * * * * * * * * * * * * * * * * * * * * * * * * * * * * //

dimensions      [0 0 0 0 0 0 0];

internalField   nonuniform List<scalar> 
545
(
1
1
1
1
1
1
1
1
1
1
1
1
1
1
1
1
1
1
1
1
1
1
1
1
1
1
1
1
1
1
1
1
1
1
1
1
1
1
1
1
1
1
1
1
1
1
1
1
1
1
1
1
1
1
1
1
1
1
1
1
1
1
1
1
1
1
1
1
1
1
1
1
1
1
1
1
1
1
1
1
1
1
1
1
1
1
1
1
1
1
1
1
1
1
1
1
1
1
1
1
1
1
1
1
1
1
1
1
1
1
1
1
1
1
1
1
1
1
1
0.999999
0.999999
0.999999
0.999999
0.999999
0.999999
0.999999
0.999999
0.999999
0.999999
0.999999
0.999999
0.999999
0.999999
0.999999
0.999999
0.999999
0.999999
0.999999
0.999999
0.999999
0.999999
0.999999
0.999999
0.999999
0.999999
0.999999
0.999999
0.999999
0.999999
0.999999
0.999999
0.999999
0.999999
0.999999
0.999999
0.999999
0.999999
0.999999
0.999999
0.999999
1
1
0.999988
0.99996
0.999938
0.999932
0.999934
0.999937
0.99994
0.999941
0.999941
0.99994
0.999939
0.999938
0.999938
0.999938
0.999938
0.999938
0.999938
0.999938
0.999938
0.999938
0.999938
0.999938
0.999938
0.999938
0.999938
0.999938
0.999938
0.999938
0.999938
0.999938
0.999938
0.999938
0.999938
0.999938
0.999938
0.999938
0.999938
0.999938
0.999938
0.999938
0.999938
0.999938
0.999937
1
1
0.99966
0.997764
0.994708
0.994001
0.994642
0.995121
0.995493
0.995687
0.99572
0.995649
0.995539
0.995434
0.995364
0.995332
0.99533
0.995344
0.995365
0.995382
0.995393
0.995396
0.995395
0.995391
0.995386
0.99538
0.995374
0.995368
0.995366
0.995362
0.995363
0.995362
0.995363
0.995363
0.995366
0.995367
0.995367
0.995365
0.995362
0.995357
0.995354
0.99535
0.995348
0.995347
0.995344
0.196351
0.36884
0.932088
0.56272
0.4309
0.425493
0.428
0.521979
0.947616
0.9544
0.557812
0.536923
0.532455
0.53185
0.532145
0.717808
0.987219
0.676737
0.482209
0.535887
0.534537
0.534974
0.534574
0.740385
0.991491
0.985562
0.718499
0.421063
0.301716
0.349582
0.406389
0.353868
0.354514
0.411758
0.829679
0.995543
0.995592
0.995495
0.967821
0.51898
0.489378
0.496083
0.489876
0.492095
0.638221
1
1
1
1
1
1
1
1
1
1
1
1
1
1
1
1
1
1
1
1
1
1
1
1
1
1
1
0.99966
0.997763
0.994707
0.994
0.994642
0.995121
0.995493
0.995686
0.995719
0.995648
0.995537
0.995432
0.995362
0.995329
0.995327
0.995341
0.995362
0.995377
0.995389
0.995391
0.995391
0.995386
0.995381
0.995375
0.995368
0.995362
0.99536
0.995355
0.995356
0.995355
0.995356
0.995356
0.995359
0.995361
0.995361
0.995359
0.995355
0.99535
0.995347
0.995343
0.995341
0.99534
0.995336
1
1
0.999988
0.99996
0.999938
0.999932
0.999934
0.999937
0.99994
0.999941
0.999941
0.99994
0.999939
0.999938
0.999938
0.999938
0.999938
0.999938
0.999938
0.999938
0.999938
0.999938
0.999938
0.999938
0.999938
0.999938
0.999938
0.999938
0.999938
0.999938
0.999938
0.999938
0.999938
0.999938
0.999938
0.999938
0.999938
0.999938
0.999938
0.999938
0.999938
0.999938
0.999938
0.999938
0.999937
1
1
1
1
0.999999
0.999999
0.999999
0.999999
0.999999
0.999999
0.999999
0.999999
0.999999
0.999999
0.999999
0.999999
0.999999
0.999999
0.999999
0.999999
0.999999
0.999999
0.999999
0.999999
0.999999
0.999999
0.999999
0.999999
0.999999
0.999999
0.999999
0.999999
0.999999
0.999999
0.999999
0.999999
0.999999
0.999999
0.999999
0.999999
0.999999
0.999999
0.999999
0.999999
0.999999
1
1
1
1
1
1
1
1
1
1
1
1
1
1
1
1
1
1
1
1
1
1
1
1
1
1
1
1
1
1
1
1
1
1
1
1
1
1
1
1
1
1
1
1
1
1
1
1
1
1
1
1
1
1
1
1
1
1
1
1
1
1
1
1
1
1
1
1
1
1
1
1
1
1
1
1
1
1
1
1
1
1
1
1
1
1
1
1
1
1
)
;

boundaryField
{
    AirInlet
    {
        type            fixedValue;
        value           uniform 0;
    }
    WaterInlet
    {
        type            fixedValue;
        value           uniform 1;
    }
    ChannelWall
    {
        type            zeroGradient;
    }
    Outlet
    {
        type            inletOutlet;
        inletValue      uniform 0;
        value           nonuniform List<scalar> 
11
(
1
1
0.999999
0.999937
0.995344
0.638221
0.995336
0.999937
0.999999
1
1
)
;
    }
    FrontAndBack
    {
        type            empty;
    }
}


// ************************************************************************* //
