/*--------------------------------*- C++ -*----------------------------------*\
| =========                 |                                                 |
| \\      /  F ield         | OpenFOAM: The Open Source CFD Toolbox           |
|  \\    /   O peration     | Version:  2.3.0                                 |
|   \\  /    A nd           | Web:      www.OpenFOAM.org                      |
|    \\/     M anipulation  |                                                 |
\*---------------------------------------------------------------------------*/
FoamFile
{
    version     2.0;
    format      ascii;
    class       volVectorField;
    location    "1";
    object      U.particlesMean;
}
// * * * * * * * * * * * * * * * * * * * * * * * * * * * * * * * * * * * * * //

dimensions      [0 1 -1 0 0 0 0];

internalField   nonuniform List<vector> 
6000
(
(-0.00180299 -0.313767 0)
(0.00954358 -0.332651 0)
(0.0290851 -0.330723 0)
(0.043609 -0.339322 0)
(0.0553349 -0.360429 0)
(0.0558722 -0.393543 0)
(0.0413711 -0.412632 0)
(0.024068 -0.419978 0)
(0.015758 -0.420962 0)
(0.00869258 -0.427495 0)
(0.001158 -0.43498 0)
(0.00226718 -0.439812 0)
(-0.010629 -0.429996 0)
(-0.0319422 -0.409058 0)
(-0.0349673 -0.387394 0)
(-0.0211637 -0.391077 0)
(-0.0114151 -0.399711 0)
(0.00125392 -0.406635 0)
(-0.00212171 -0.410286 0)
(-0.00510735 -0.40135 0)
(-0.00118893 -0.387769 0)
(0.00662614 -0.376695 0)
(0.0140349 -0.384499 0)
(0.0173832 -0.389288 0)
(0.0128245 -0.381998 0)
(-0.00495282 -0.370256 0)
(-0.0191198 -0.376618 0)
(-0.023026 -0.372519 0)
(-0.028199 -0.344185 0)
(-0.00609201 -0.287127 0)
(0.0128157 -0.00929255 0)
(0.0211237 0.00491404 0)
(0.037437 -0.00059389 0)
(0.0463245 -0.00196909 0)
(0.0550796 -0.00178009 0)
(0.0667921 -0.00737521 0)
(0.0665497 -0.0102695 0)
(0.0478279 0.000324422 0)
(0.0340931 0.0067018 0)
(0.0163836 0.00247158 0)
(0.00248259 -0.00215581 0)
(-0.00305841 -0.000471422 0)
(-0.0150685 -0.012902 0)
(-0.0230232 -0.0123437 0)
(-0.0191688 -0.0118952 0)
(-0.0195603 -0.0154542 0)
(-0.0226381 -0.0069696 0)
(-0.0221741 0.0129031 0)
(-0.018508 -0.000310471 0)
(-0.0160003 0.0225981 0)
(-0.00734765 0.0392355 0)
(-0.00159166 0.0264612 0)
(0.00632457 0.0200583 0)
(0.00192998 0.0233095 0)
(-0.00986619 0.0249709 0)
(-0.0258368 0.0079956 0)
(-0.0351598 -0.01141 0)
(-0.044716 -0.0254974 0)
(-0.03215 -0.00418792 0)
(-0.0122636 -0.0271905 0)
(-0.00506506 -0.0605117 0)
(0.0111965 -0.0899395 0)
(0.0250823 -0.0931345 0)
(0.0331557 -0.086531 0)
(0.0448203 -0.0802057 0)
(0.0543015 -0.0687938 0)
(0.0595408 -0.0545055 0)
(0.0487958 -0.0397843 0)
(0.0385085 -0.0343589 0)
(0.0232036 -0.0454399 0)
(0.0115523 -0.0506718 0)
(0.00550576 -0.0487042 0)
(-0.000258822 -0.0511444 0)
(-0.0042914 -0.0479344 0)
(-0.00296443 -0.0601939 0)
(-0.0131585 -0.0585803 0)
(-0.0302969 -0.052661 0)
(-0.0394739 -0.049366 0)
(-0.0350616 -0.0591535 0)
(-0.0277006 -0.0629582 0)
(-0.0180551 -0.0689286 0)
(-0.0106483 -0.0613266 0)
(-0.0148218 -0.0615055 0)
(-0.0202327 -0.0594541 0)
(-0.0227462 -0.0478441 0)
(-0.0255848 -0.0587901 0)
(-0.0262895 -0.0808517 0)
(-0.0293152 -0.0988408 0)
(-0.0170824 -0.0882041 0)
(0.00736522 -0.0927164 0)
(-0.00592212 -0.068775 0)
(0.00308823 -0.0974998 0)
(0.00597574 -0.0987078 0)
(0.022451 -0.0959632 0)
(0.0352274 -0.0904758 0)
(0.0455572 -0.0765634 0)
(0.0481309 -0.053314 0)
(0.0457405 -0.0327681 0)
(0.0412306 -0.0237319 0)
(0.0306454 -0.0320179 0)
(0.019179 -0.0387891 0)
(0.0132947 -0.0366527 0)
(0.00809819 -0.0390073 0)
(0.00837555 -0.040363 0)
(0.0066662 -0.0495184 0)
(-0.00772264 -0.0450789 0)
(-0.0267798 -0.0400047 0)
(-0.0426689 -0.0399591 0)
(-0.0426263 -0.0498379 0)
(-0.0332525 -0.0590271 0)
(-0.0293639 -0.0649323 0)
(-0.0343692 -0.0629594 0)
(-0.0475913 -0.0685967 0)
(-0.0475974 -0.0713823 0)
(-0.0344641 -0.0682033 0)
(-0.0246708 -0.0784966 0)
(-0.0183337 -0.0969937 0)
(-0.0154716 -0.112986 0)
(-0.0118 -0.105298 0)
(0.00713583 -0.109454 0)
(0.0079674 -0.0878891 0)
(0.00386034 -0.114182 0)
(0.0039656 -0.121544 0)
(0.01649 -0.119944 0)
(0.0223846 -0.111045 0)
(0.029177 -0.0912789 0)
(0.0309622 -0.0598985 0)
(0.0316562 -0.032931 0)
(0.0294899 -0.0263949 0)
(0.0220031 -0.0381193 0)
(0.0131537 -0.0477456 0)
(0.0116468 -0.0516685 0)
(0.00765811 -0.0506676 0)
(0.0113697 -0.0515265 0)
(0.00913782 -0.050786 0)
(-0.00578685 -0.044248 0)
(-0.020288 -0.0399615 0)
(-0.0361526 -0.0429843 0)
(-0.0398386 -0.0677901 0)
(-0.0306084 -0.0927662 0)
(-0.0314914 -0.0950593 0)
(-0.0419242 -0.083632 0)
(-0.0572575 -0.0848685 0)
(-0.0588288 -0.0865153 0)
(-0.040105 -0.0911703 0)
(-0.0277217 -0.106827 0)
(-0.0204519 -0.124678 0)
(-0.0175417 -0.140168 0)
(-0.0100778 -0.12909 0)
(0.00673651 -0.132572 0)
(0.0130414 -0.102493 0)
(0.0181692 -0.117973 0)
(0.00958995 -0.125988 0)
(0.0174444 -0.126859 0)
(0.0115872 -0.115313 0)
(0.0109122 -0.0959045 0)
(0.0112837 -0.0669562 0)
(0.0122547 -0.042093 0)
(0.011131 -0.0324797 0)
(0.00568083 -0.0436544 0)
(0.000227174 -0.0558182 0)
(-0.00115776 -0.0572372 0)
(-0.00239514 -0.0542501 0)
(0.00769857 -0.0550352 0)
(0.00619249 -0.0494148 0)
(-0.00469093 -0.0429781 0)
(-0.0134989 -0.0372952 0)
(-0.0241154 -0.041473 0)
(-0.0269354 -0.0789491 0)
(-0.025851 -0.102547 0)
(-0.0318254 -0.101737 0)
(-0.0440782 -0.0886324 0)
(-0.0567751 -0.0866739 0)
(-0.0611659 -0.0880921 0)
(-0.04537 -0.0999305 0)
(-0.0351533 -0.119146 0)
(-0.0317868 -0.138923 0)
(-0.024646 -0.154622 0)
(-0.00995402 -0.139808 0)
(0.00589799 -0.142108 0)
(0.0100044 -0.111503 0)
(0.0219813 -0.123028 0)
(0.0254782 -0.128882 0)
(0.0211161 -0.124077 0)
(0.016822 -0.113271 0)
(0.00565237 -0.0902643 0)
(-0.00124401 -0.0615036 0)
(-0.00423499 -0.0361813 0)
(-0.00836346 -0.0332324 0)
(-0.0128821 -0.0465796 0)
(-0.016514 -0.0576593 0)
(-0.0171266 -0.0574323 0)
(-0.0147207 -0.0550303 0)
(0.00206553 -0.0533822 0)
(-0.00226008 -0.0452293 0)
(-0.0166341 -0.0486434 0)
(-0.0223327 -0.0482707 0)
(-0.0196367 -0.0605132 0)
(-0.0170542 -0.0894143 0)
(-0.0225157 -0.104085 0)
(-0.0309784 -0.098544 0)
(-0.043916 -0.0848018 0)
(-0.0551366 -0.0850754 0)
(-0.060413 -0.0906136 0)
(-0.0504035 -0.102791 0)
(-0.0463936 -0.12402 0)
(-0.0415569 -0.144577 0)
(-0.0322387 -0.16035 0)
(-0.0138832 -0.145962 0)
(0.00525475 -0.146051 0)
(0.0127247 -0.118197 0)
(0.0258444 -0.125004 0)
(0.0323314 -0.129024 0)
(0.0341477 -0.120814 0)
(0.0221339 -0.104025 0)
(0.011336 -0.076451 0)
(-0.00529021 -0.0478019 0)
(-0.0175545 -0.0245953 0)
(-0.0229054 -0.027894 0)
(-0.0280087 -0.0432296 0)
(-0.0318147 -0.0532246 0)
(-0.0284883 -0.0562526 0)
(-0.0225013 -0.0527632 0)
(-0.00494969 -0.0513157 0)
(-0.011403 -0.0423553 0)
(-0.0220992 -0.0502667 0)
(-0.0291867 -0.059892 0)
(-0.0213503 -0.072115 0)
(-0.0157243 -0.0887452 0)
(-0.0244936 -0.0979865 0)
(-0.0310275 -0.0913743 0)
(-0.0412571 -0.0777115 0)
(-0.0509688 -0.0772015 0)
(-0.0590142 -0.085691 0)
(-0.0582326 -0.101918 0)
(-0.0553567 -0.12744 0)
(-0.0478389 -0.14559 0)
(-0.0365295 -0.159266 0)
(-0.0152568 -0.148749 0)
(0.00469434 -0.148099 0)
(0.0127871 -0.121987 0)
(0.0284118 -0.126132 0)
(0.0381073 -0.127711 0)
(0.0406457 -0.11826 0)
(0.0344092 -0.0933419 0)
(0.0127673 -0.0561322 0)
(-0.00345079 -0.0284588 0)
(-0.0291133 -0.0122654 0)
(-0.0329674 -0.0232142 0)
(-0.0380617 -0.0419211 0)
(-0.0416709 -0.0527833 0)
(-0.0331528 -0.0547636 0)
(-0.0258097 -0.0564908 0)
(-0.00947185 -0.0567643 0)
(-0.0159447 -0.046027 0)
(-0.0242482 -0.0539439 0)
(-0.0320879 -0.0600971 0)
(-0.0274033 -0.071795 0)
(-0.0191459 -0.0862205 0)
(-0.0263766 -0.0944862 0)
(-0.0317652 -0.0866277 0)
(-0.0373219 -0.0689509 0)
(-0.0488982 -0.0649638 0)
(-0.0618962 -0.0789257 0)
(-0.0606118 -0.101004 0)
(-0.0599321 -0.130205 0)
(-0.050245 -0.146795 0)
(-0.0382393 -0.159705 0)
(-0.0171996 -0.153932 0)
(0.00497276 -0.151034 0)
(0.0118073 -0.123644 0)
(0.0307352 -0.125975 0)
(0.0410888 -0.123166 0)
(0.0449583 -0.112615 0)
(0.0416407 -0.0847095 0)
(0.0265585 -0.0440338 0)
(0.00929551 -0.0182468 0)
(-0.0262384 -0.00838518 0)
(-0.0331889 -0.0194021 0)
(-0.0375749 -0.0377284 0)
(-0.0413172 -0.0518633 0)
(-0.0335971 -0.0541726 0)
(-0.0247204 -0.0605118 0)
(-0.0132067 -0.0593704 0)
(-0.0194248 -0.0483348 0)
(-0.028493 -0.0519365 0)
(-0.0354827 -0.0554331 0)
(-0.0289037 -0.0698313 0)
(-0.0244202 -0.0868901 0)
(-0.0317517 -0.0921791 0)
(-0.0368221 -0.0822486 0)
(-0.0447316 -0.0613676 0)
(-0.053719 -0.0581413 0)
(-0.0609666 -0.0691733 0)
(-0.062477 -0.0936237 0)
(-0.0593271 -0.12677 0)
(-0.0503136 -0.146782 0)
(-0.035523 -0.159707 0)
(-0.0164107 -0.157738 0)
(0.00467722 -0.155152 0)
(0.00977119 -0.126671 0)
(0.0301102 -0.129834 0)
(0.0421086 -0.122611 0)
(0.0493414 -0.107632 0)
(0.0501731 -0.076838 0)
(0.0362403 -0.0350622 0)
(0.0227915 -0.00435801 0)
(-0.00467062 0.000731847 0)
(-0.0196274 -0.0101541 0)
(-0.0240082 -0.0299635 0)
(-0.0330879 -0.0477012 0)
(-0.0324328 -0.0550259 0)
(-0.0246659 -0.0615166 0)
(-0.018945 -0.0591048 0)
(-0.0256911 -0.0476168 0)
(-0.0339957 -0.0497258 0)
(-0.0387469 -0.0520363 0)
(-0.0297311 -0.0633807 0)
(-0.0331335 -0.0811872 0)
(-0.0420992 -0.082763 0)
(-0.0541898 -0.0717246 0)
(-0.0631455 -0.0581989 0)
(-0.0600273 -0.0553816 0)
(-0.0611866 -0.0617274 0)
(-0.0603858 -0.0846841 0)
(-0.0573938 -0.118398 0)
(-0.0485455 -0.143714 0)
(-0.0317085 -0.158751 0)
(-0.0152017 -0.157717 0)
(0.00395377 -0.158211 0)
(0.00832802 -0.1325 0)
(0.0293549 -0.138665 0)
(0.0412384 -0.124666 0)
(0.0518212 -0.1047 0)
(0.0562903 -0.0753135 0)
(0.0472005 -0.0353245 0)
(0.0381248 -0.00377796 0)
(0.0237707 0.00468486 0)
(-0.00147322 5.53774e-05 0)
(-0.00691138 -0.0195832 0)
(-0.0193191 -0.0424804 0)
(-0.029146 -0.0522724 0)
(-0.0271529 -0.0567718 0)
(-0.0271146 -0.0544163 0)
(-0.0342457 -0.0469789 0)
(-0.0400703 -0.04872 0)
(-0.0405086 -0.0510866 0)
(-0.0350299 -0.0549598 0)
(-0.0375121 -0.0674524 0)
(-0.0536571 -0.067899 0)
(-0.0695818 -0.0634589 0)
(-0.0689793 -0.0615468 0)
(-0.066329 -0.0576758 0)
(-0.0662809 -0.0602521 0)
(-0.0615029 -0.0797872 0)
(-0.0544069 -0.109502 0)
(-0.0463347 -0.135082 0)
(-0.0273992 -0.152319 0)
(-0.0148162 -0.154944 0)
(0.0045279 -0.161945 0)
(0.00674944 -0.139352 0)
(0.02655 -0.149645 0)
(0.0384081 -0.131867 0)
(0.052454 -0.106835 0)
(0.0591199 -0.0780384 0)
(0.057708 -0.0380123 0)
(0.0501835 -0.00688558 0)
(0.0406652 0.00816793 0)
(0.0122192 0.00910295 0)
(0.00497438 -0.0111822 0)
(-0.00467106 -0.0373016 0)
(-0.0260784 -0.0471285 0)
(-0.032211 -0.0497604 0)
(-0.0356567 -0.0483565 0)
(-0.041637 -0.045379 0)
(-0.0429792 -0.0464059 0)
(-0.0408977 -0.0410101 0)
(-0.0406425 -0.0442107 0)
(-0.0428618 -0.0528111 0)
(-0.0639696 -0.0582261 0)
(-0.0686643 -0.0645023 0)
(-0.070327 -0.0639675 0)
(-0.0711928 -0.0582353 0)
(-0.0701182 -0.0587574 0)
(-0.0622347 -0.0758404 0)
(-0.0525606 -0.1008 0)
(-0.0432964 -0.125448 0)
(-0.0249919 -0.143514 0)
(-0.0179354 -0.149693 0)
(0.0048983 -0.163264 0)
(0.00606133 -0.145874 0)
(0.0249138 -0.158467 0)
(0.0345435 -0.139073 0)
(0.0497953 -0.111133 0)
(0.0602661 -0.0799891 0)
(0.0661232 -0.0435151 0)
(0.0580699 -0.00748655 0)
(0.0500292 0.0128549 0)
(0.0336605 0.015221 0)
(0.0145692 0.00184364 0)
(0.00586604 -0.0281832 0)
(-0.0233994 -0.0364337 0)
(-0.0358732 -0.0393917 0)
(-0.0444524 -0.0404488 0)
(-0.0493652 -0.0401133 0)
(-0.0465725 -0.038157 0)
(-0.0466461 -0.0327989 0)
(-0.0425837 -0.0328953 0)
(-0.0534719 -0.0391503 0)
(-0.0624808 -0.0534694 0)
(-0.0644992 -0.0634381 0)
(-0.0687917 -0.0611403 0)
(-0.0715529 -0.0535072 0)
(-0.072648 -0.0550915 0)
(-0.0624943 -0.0710436 0)
(-0.0515806 -0.0946634 0)
(-0.0402641 -0.117103 0)
(-0.0233207 -0.135415 0)
(-0.0187274 -0.149603 0)
(0.00253244 -0.162687 0)
(0.00676178 -0.149532 0)
(0.0214403 -0.162047 0)
(0.0305918 -0.142262 0)
(0.0457271 -0.112933 0)
(0.0607802 -0.0797417 0)
(0.070224 -0.0439869 0)
(0.0637823 -0.00835848 0)
(0.0516303 0.0138425 0)
(0.0462402 0.0220545 0)
(0.0238262 0.0117059 0)
(0.0115154 -0.0191084 0)
(-0.0141925 -0.0270881 0)
(-0.0348913 -0.0279142 0)
(-0.0471839 -0.0290145 0)
(-0.0514498 -0.0301769 0)
(-0.051834 -0.0278063 0)
(-0.0472244 -0.0251375 0)
(-0.0440599 -0.023962 0)
(-0.0571979 -0.0330129 0)
(-0.0581289 -0.0489923 0)
(-0.0607904 -0.0578282 0)
(-0.0653469 -0.0556595 0)
(-0.0717514 -0.0479905 0)
(-0.0742006 -0.0511479 0)
(-0.0637111 -0.0683594 0)
(-0.0504767 -0.0902789 0)
(-0.0399071 -0.111358 0)
(-0.0229962 -0.131223 0)
(-0.0143179 -0.153723 0)
(0.0039751 -0.162619 0)
(0.0071526 -0.147229 0)
(0.0187615 -0.160538 0)
(0.0275614 -0.140604 0)
(0.0412021 -0.112441 0)
(0.0592634 -0.0746237 0)
(0.0706233 -0.0422037 0)
(0.0694193 -0.00367818 0)
(0.0536901 0.0197827 0)
(0.0497692 0.0269339 0)
(0.03875 0.0255797 0)
(0.0221105 -0.00616024 0)
(0.00297715 -0.0191466 0)
(-0.0268103 -0.016751 0)
(-0.045147 -0.0151411 0)
(-0.0485339 -0.0155862 0)
(-0.05447 -0.0157389 0)
(-0.0466967 -0.0176094 0)
(-0.049785 -0.0166221 0)
(-0.0551107 -0.0275987 0)
(-0.0542496 -0.0434235 0)
(-0.0565133 -0.0509176 0)
(-0.0620933 -0.0484716 0)
(-0.0710933 -0.0399444 0)
(-0.0743448 -0.0439477 0)
(-0.0632046 -0.0650281 0)
(-0.0504869 -0.085559 0)
(-0.0381163 -0.107809 0)
(-0.0214122 -0.128135 0)
(-0.0109774 -0.156659 0)
(0.00315607 -0.161463 0)
(0.00458887 -0.145078 0)
(0.0162639 -0.156874 0)
(0.0250013 -0.139564 0)
(0.0359999 -0.111745 0)
(0.0557122 -0.0721926 0)
(0.0676557 -0.0405279 0)
(0.0726845 0.00104215 0)
(0.0607797 0.026198 0)
(0.051125 0.0335249 0)
(0.0457694 0.0325668 0)
(0.03932 0.013365 0)
(0.0166112 -0.00694317 0)
(-0.00977049 -0.00356503 0)
(-0.03756 -0.000433469 0)
(-0.0403795 0.00333779 0)
(-0.04871 -0.000475941 0)
(-0.0445203 -0.00922802 0)
(-0.0482732 -0.0125058 0)
(-0.0500385 -0.0212647 0)
(-0.0494206 -0.0361465 0)
(-0.0520197 -0.043256 0)
(-0.0611682 -0.0408308 0)
(-0.0735454 -0.0338632 0)
(-0.0704983 -0.0373569 0)
(-0.0586172 -0.0625426 0)
(-0.0475282 -0.0801804 0)
(-0.0332788 -0.105439 0)
(-0.0179065 -0.127169 0)
(-0.00830003 -0.156582 0)
(-0.00190978 -0.162849 0)
(0.00101573 -0.139382 0)
(0.0143797 -0.151228 0)
(0.0225409 -0.137836 0)
(0.0317723 -0.111754 0)
(0.0491432 -0.0729188 0)
(0.0649163 -0.0402512 0)
(0.0751266 0.00265054 0)
(0.0694842 0.0311355 0)
(0.0557918 0.0396462 0)
(0.0518634 0.0374614 0)
(0.0459676 0.0285218 0)
(0.0360426 0.0106361 0)
(0.00561794 0.0135314 0)
(-0.0246665 0.0187783 0)
(-0.0289193 0.0258371 0)
(-0.0376462 0.0155856 0)
(-0.0382073 -0.000133682 0)
(-0.0421198 -0.00425759 0)
(-0.0425754 -0.0145925 0)
(-0.0444604 -0.0285237 0)
(-0.0489345 -0.0355448 0)
(-0.0616287 -0.0328954 0)
(-0.0738056 -0.0265182 0)
(-0.0647079 -0.0318928 0)
(-0.0505438 -0.0618646 0)
(-0.0398918 -0.0768896 0)
(-0.0248408 -0.103114 0)
(-0.0123967 -0.126847 0)
(-0.00510071 -0.159052 0)
(-0.00194164 -0.167744 0)
(7.46947e-05 -0.132494 0)
(0.0128325 -0.145436 0)
(0.0203126 -0.136891 0)
(0.0284209 -0.114298 0)
(0.041806 -0.0750447 0)
(0.0619508 -0.0423887 0)
(0.0751702 0.000186498 0)
(0.0786712 0.0331134 0)
(0.068925 0.0428224 0)
(0.0604127 0.0436054 0)
(0.0523148 0.0421514 0)
(0.0451528 0.0306541 0)
(0.0165025 0.0302954 0)
(-0.0130168 0.0384317 0)
(-0.0175889 0.0460047 0)
(-0.0241976 0.0288854 0)
(-0.0264435 0.0115508 0)
(-0.0319641 0.00159639 0)
(-0.0350873 -0.00647786 0)
(-0.0402935 -0.0220459 0)
(-0.0482273 -0.0292383 0)
(-0.0613976 -0.0242439 0)
(-0.0710691 -0.019061 0)
(-0.0564198 -0.0287991 0)
(-0.0412783 -0.0664889 0)
(-0.0293986 -0.0818009 0)
(-0.0159168 -0.104742 0)
(-0.00736833 -0.12831 0)
(-0.00128186 -0.162378 0)
(0.00223749 -0.17135 0)
(0.00238315 -0.125336 0)
(0.012563 -0.139169 0)
(0.0197546 -0.13683 0)
(0.0271653 -0.119321 0)
(0.0362046 -0.0788721 0)
(0.0591869 -0.045724 0)
(0.0709192 -0.00370092 0)
(0.0820008 0.0320441 0)
(0.0760357 0.0465183 0)
(0.0693161 0.047902 0)
(0.0594986 0.0507618 0)
(0.0538173 0.0474502 0)
(0.0307343 0.042142 0)
(-0.00345496 0.0595168 0)
(-0.00492122 0.0602469 0)
(-0.0102425 0.0408096 0)
(-0.0155255 0.0203808 0)
(-0.0212067 0.00717929 0)
(-0.0282582 6.12276e-05 0)
(-0.0369005 -0.0159587 0)
(-0.0482652 -0.0244083 0)
(-0.0607993 -0.0172881 0)
(-0.0645789 -0.0156026 0)
(-0.0431013 -0.0299709 0)
(-0.033191 -0.0736846 0)
(-0.0202591 -0.0934373 0)
(-0.00981955 -0.116371 0)
(-0.00291591 -0.133484 0)
(0.0011924 -0.164764 0)
(0.00941372 -0.175962 0)
(0.0054669 -0.122816 0)
(0.0165144 -0.136678 0)
(0.0227562 -0.13856 0)
(0.0282757 -0.123339 0)
(0.0321503 -0.0826788 0)
(0.0526305 -0.0493583 0)
(0.0680308 -0.00792726 0)
(0.0785821 0.0300471 0)
(0.0799241 0.0495891 0)
(0.0763358 0.050519 0)
(0.0680919 0.0560585 0)
(0.0592502 0.0622656 0)
(0.0445993 0.0581493 0)
(0.010586 0.0726993 0)
(0.00398845 0.0777692 0)
(0.00120193 0.0557469 0)
(-0.00655595 0.0316074 0)
(-0.0131947 0.0121015 0)
(-0.0226793 0.0055636 0)
(-0.0338137 -0.0104936 0)
(-0.048037 -0.0202332 0)
(-0.0575436 -0.0140373 0)
(-0.0566013 -0.0145481 0)
(-0.0305071 -0.0382584 0)
(-0.027735 -0.0879829 0)
(-0.0141215 -0.109087 0)
(-0.00731254 -0.13274 0)
(-0.00121926 -0.145842 0)
(0.00376613 -0.166614 0)
(0.0157817 -0.174529 0)
(0.00766829 -0.12425 0)
(0.0210057 -0.140283 0)
(0.0245183 -0.14026 0)
(0.0302043 -0.128129 0)
(0.0298606 -0.0873963 0)
(0.0453194 -0.0481319 0)
(0.0621973 -0.0158875 0)
(0.0777885 0.0296162 0)
(0.0785064 0.0509525 0)
(0.07935 0.0550171 0)
(0.071625 0.0620706 0)
(0.0625481 0.0726918 0)
(0.0546744 0.0747853 0)
(0.027289 0.083449 0)
(0.0137754 0.0890672 0)
(0.00509305 0.0721363 0)
(0.000980209 0.0425614 0)
(-0.0073169 0.0176824 0)
(-0.0188431 0.00928579 0)
(-0.0312613 -0.00529971 0)
(-0.0463178 -0.0157897 0)
(-0.0515696 -0.0107118 0)
(-0.0473998 -0.0154087 0)
(-0.0231592 -0.0476696 0)
(-0.0267727 -0.106264 0)
(-0.0110881 -0.127792 0)
(-0.00768451 -0.148584 0)
(-0.00158693 -0.157587 0)
(0.00471555 -0.165596 0)
(0.0133746 -0.169835 0)
(0.00781252 -0.131142 0)
(0.0211642 -0.147549 0)
(0.0240979 -0.143551 0)
(0.0286982 -0.128923 0)
(0.0275381 -0.0904395 0)
(0.039864 -0.0487123 0)
(0.0559243 -0.0190243 0)
(0.0748185 0.0232428 0)
(0.0814618 0.0520997 0)
(0.0833862 0.0594839 0)
(0.0766155 0.0684399 0)
(0.0667318 0.0801019 0)
(0.058605 0.0875868 0)
(0.0441467 0.0894216 0)
(0.0184017 0.0938844 0)
(0.00919359 0.0854612 0)
(0.00760741 0.0543175 0)
(-0.00119006 0.023717 0)
(-0.0155662 0.013075 0)
(-0.0251042 0.00221864 0)
(-0.0408083 -0.00998715 0)
(-0.0456593 -0.0081049 0)
(-0.0385233 -0.0174035 0)
(-0.0178222 -0.0530284 0)
(-0.0241205 -0.119105 0)
(-0.0105911 -0.145514 0)
(-0.0107381 -0.162535 0)
(-0.00572604 -0.166109 0)
(0.000398618 -0.172579 0)
(0.00820973 -0.164027 0)
(0.00410682 -0.13917 0)
(0.0200322 -0.158859 0)
(0.0215231 -0.149154 0)
(0.0268231 -0.130376 0)
(0.0242395 -0.0930402 0)
(0.0329537 -0.0485831 0)
(0.051889 -0.0271204 0)
(0.0689445 0.015639 0)
(0.0806215 0.0498181 0)
(0.0854846 0.0631652 0)
(0.0827774 0.0729674 0)
(0.0731589 0.0849432 0)
(0.0609845 0.0981311 0)
(0.0481736 0.099708 0)
(0.0334859 0.0970874 0)
(0.0167841 0.0946832 0)
(0.011697 0.0651282 0)
(0.00104266 0.029736 0)
(-0.0119991 0.0152995 0)
(-0.0186149 0.00784433 0)
(-0.0317791 -0.00435832 0)
(-0.0380469 -0.00326724 0)
(-0.0323749 -0.0203681 0)
(-0.0152772 -0.0576473 0)
(-0.0195739 -0.122177 0)
(-0.00959522 -0.154424 0)
(-0.0100107 -0.167548 0)
(-0.00526865 -0.170908 0)
(-0.00332943 -0.175355 0)
(0.00244993 -0.159092 0)
(0.00228082 -0.14775 0)
(0.0194039 -0.168039 0)
(0.0191992 -0.157334 0)
(0.02347 -0.130618 0)
(0.0189753 -0.0958542 0)
(0.0255183 -0.0510626 0)
(0.0475974 -0.0290167 0)
(0.0633596 0.00868206 0)
(0.0779881 0.0448468 0)
(0.0854397 0.065125 0)
(0.087399 0.0770736 0)
(0.0790039 0.0908283 0)
(0.0622807 0.105559 0)
(0.0523269 0.108857 0)
(0.0439431 0.106819 0)
(0.0282458 0.0979354 0)
(0.0151093 0.0751154 0)
(0.00163677 0.0337706 0)
(-0.00984865 0.0178187 0)
(-0.0162978 0.00973341 0)
(-0.0229941 0.0020725 0)
(-0.0256778 0.00749043 0)
(-0.0272735 -0.0121809 0)
(-0.0138219 -0.0553231 0)
(-0.0140249 -0.1146 0)
(-0.00526795 -0.150368 0)
(-0.00599005 -0.166972 0)
(-0.00272232 -0.173098 0)
(-0.0037552 -0.178255 0)
(0.00113252 -0.155472 0)
(0.000177432 -0.15384 0)
(0.0209184 -0.174362 0)
(0.0185705 -0.158179 0)
(0.0194025 -0.13246 0)
(0.0159522 -0.0991539 0)
(0.019434 -0.0545908 0)
(0.0447829 -0.0278009 0)
(0.0593092 0.00554921 0)
(0.0719156 0.0397355 0)
(0.0825119 0.0659457 0)
(0.0885772 0.0808387 0)
(0.0805781 0.0967934 0)
(0.0656079 0.109807 0)
(0.0569595 0.115058 0)
(0.0527259 0.116718 0)
(0.0441153 0.105657 0)
(0.0193711 0.0828655 0)
(0.00174849 0.041283 0)
(-0.00749776 0.0229099 0)
(-0.0142489 0.0158866 0)
(-0.017123 0.0114298 0)
(-0.0175178 0.0211884 0)
(-0.0224719 0.00406479 0)
(-0.0125471 -0.0450983 0)
(-0.0096257 -0.104353 0)
(-0.00206369 -0.142793 0)
(-0.00270524 -0.160509 0)
(0.000165239 -0.175002 0)
(-0.00327649 -0.177852 0)
(0.00153844 -0.151401 0)
(-0.00367124 -0.156368 0)
(0.0185992 -0.174041 0)
(0.0176806 -0.152685 0)
(0.0162446 -0.131212 0)
(0.0128103 -0.100242 0)
(0.015889 -0.0579112 0)
(0.0383691 -0.0264334 0)
(0.0541337 0.00289983 0)
(0.0623762 0.0383275 0)
(0.0766595 0.0667446 0)
(0.0852998 0.0847168 0)
(0.0805038 0.0990864 0)
(0.0694456 0.112945 0)
(0.0589443 0.120321 0)
(0.0582472 0.125001 0)
(0.0515428 0.118394 0)
(0.0239949 0.0925291 0)
(0.00354089 0.0500726 0)
(-0.00341308 0.0326259 0)
(-0.0120824 0.0259264 0)
(-0.0145128 0.0217483 0)
(-0.015283 0.0298545 0)
(-0.0214647 0.01247 0)
(-0.0116164 -0.0349654 0)
(-0.00327012 -0.0941515 0)
(0.000444297 -0.13592 0)
(-0.000128704 -0.154049 0)
(0.000139179 -0.171122 0)
(-0.00394893 -0.179733 0)
(0.00134645 -0.14819 0)
(-0.00755582 -0.158838 0)
(0.0150427 -0.171287 0)
(0.0145605 -0.143055 0)
(0.0133476 -0.126227 0)
(0.00891132 -0.0990293 0)
(0.0107237 -0.0609778 0)
(0.02798 -0.0269934 0)
(0.0459374 -0.000922793 0)
(0.0525068 0.038502 0)
(0.0685109 0.0668581 0)
(0.0795545 0.0873308 0)
(0.0802514 0.100782 0)
(0.0706461 0.114238 0)
(0.0608292 0.125255 0)
(0.0578354 0.130464 0)
(0.0539477 0.129008 0)
(0.0332512 0.104755 0)
(0.00677079 0.0610211 0)
(7.70581e-05 0.0437539 0)
(-0.00984662 0.0366292 0)
(-0.0162185 0.0315079 0)
(-0.0204607 0.0347155 0)
(-0.0245847 0.0110258 0)
(-0.0168666 -0.0378882 0)
(1.78569e-05 -0.0879738 0)
(0.00296368 -0.129722 0)
(0.00250621 -0.146212 0)
(0.00174152 -0.164617 0)
(-0.00491199 -0.177821 0)
(0.00236426 -0.146491 0)
(-0.00907408 -0.159525 0)
(0.0110468 -0.170558 0)
(0.0101315 -0.13865 0)
(0.0104755 -0.121297 0)
(0.00429768 -0.0989315 0)
(0.00468404 -0.0654299 0)
(0.0180251 -0.0290703 0)
(0.0340845 -0.00523778 0)
(0.0437464 0.0336046 0)
(0.0592972 0.0636519 0)
(0.0727295 0.0871019 0)
(0.0773207 0.101705 0)
(0.0690621 0.116728 0)
(0.0604378 0.127646 0)
(0.053909 0.13503 0)
(0.0497059 0.1377 0)
(0.0356647 0.124201 0)
(0.00852873 0.0716879 0)
(0.00159908 0.0557957 0)
(-0.010527 0.0472586 0)
(-0.0204386 0.0412424 0)
(-0.0235048 0.0349353 0)
(-0.0271068 0.00284128 0)
(-0.0246303 -0.0450652 0)
(-0.000183355 -0.0868554 0)
(0.00569644 -0.125758 0)
(0.00581544 -0.139227 0)
(0.00437808 -0.153696 0)
(-0.0039011 -0.172296 0)
(0.00441811 -0.144371 0)
(-0.0117917 -0.155033 0)
(0.0078819 -0.166667 0)
(0.0067323 -0.134321 0)
(0.00911333 -0.116575 0)
(0.00295112 -0.101866 0)
(-0.000487252 -0.0721151 0)
(0.00712802 -0.0320382 0)
(0.0228006 -0.00856546 0)
(0.035584 0.0237226 0)
(0.0503167 0.0625846 0)
(0.0641261 0.0863627 0)
(0.0698356 0.104106 0)
(0.066549 0.119301 0)
(0.0593927 0.131021 0)
(0.0533006 0.139648 0)
(0.047328 0.146323 0)
(0.0353618 0.139551 0)
(0.0123285 0.0865546 0)
(0.00278228 0.0690894 0)
(-0.0140472 0.0609132 0)
(-0.0234183 0.0486218 0)
(-0.0255398 0.0328064 0)
(-0.0308896 -0.0043412 0)
(-0.0216659 -0.0476177 0)
(-0.000827645 -0.087627 0)
(0.00774367 -0.121577 0)
(0.00838223 -0.131406 0)
(0.00673477 -0.144614 0)
(-0.00315972 -0.164755 0)
(0.0046108 -0.140073 0)
(-0.0180789 -0.148898 0)
(0.00339369 -0.159285 0)
(0.00327347 -0.127856 0)
(0.00723976 -0.113114 0)
(0.000588108 -0.105072 0)
(-0.00541288 -0.0804427 0)
(-0.000194735 -0.0397227 0)
(0.0163686 -0.0152328 0)
(0.0295909 0.0198818 0)
(0.0434726 0.0599085 0)
(0.0567059 0.0888335 0)
(0.0607878 0.107537 0)
(0.0596333 0.123349 0)
(0.0531079 0.130949 0)
(0.0496699 0.142354 0)
(0.0399768 0.153399 0)
(0.0299967 0.151744 0)
(0.0122927 0.0969521 0)
(-0.00026008 0.0857193 0)
(-0.0120254 0.0751044 0)
(-0.0227361 0.0557677 0)
(-0.025537 0.0310741 0)
(-0.0320209 -0.0078018 0)
(-0.0136218 -0.046551 0)
(0.00247997 -0.0876619 0)
(0.00815378 -0.11866 0)
(0.00883769 -0.124927 0)
(0.00614779 -0.137308 0)
(-0.00334883 -0.158349 0)
(0.00381273 -0.136627 0)
(-0.0182093 -0.136851 0)
(-0.000413331 -0.146476 0)
(-0.00238482 -0.121402 0)
(0.00462812 -0.109194 0)
(-0.00233944 -0.105247 0)
(-0.00821337 -0.0868283 0)
(-0.00557689 -0.0454174 0)
(0.0127245 -0.0138837 0)
(0.0269819 0.0188596 0)
(0.0392404 0.0591837 0)
(0.0504396 0.0886095 0)
(0.0546456 0.111153 0)
(0.0542257 0.125176 0)
(0.0513072 0.133803 0)
(0.045986 0.145153 0)
(0.0319593 0.161114 0)
(0.0253741 0.161939 0)
(0.0122784 0.107663 0)
(-0.00376065 0.0967508 0)
(-0.0149477 0.0884391 0)
(-0.0225499 0.06088 0)
(-0.0251444 0.0327886 0)
(-0.0291281 -0.00733647 0)
(-0.00843176 -0.0426976 0)
(0.00639484 -0.0864761 0)
(0.00716576 -0.115322 0)
(0.00758631 -0.11805 0)
(0.00469835 -0.12951 0)
(-0.0037012 -0.152067 0)
(0.00374043 -0.132272 0)
(-0.0145099 -0.128061 0)
(-0.00265793 -0.130499 0)
(-0.00621265 -0.111607 0)
(-0.00147186 -0.100763 0)
(-0.00623731 -0.102469 0)
(-0.0107345 -0.0921831 0)
(-0.0122585 -0.0470314 0)
(0.00788013 -0.0106876 0)
(0.0264072 0.020819 0)
(0.0367161 0.0597535 0)
(0.0463424 0.0925174 0)
(0.0517081 0.112078 0)
(0.0516279 0.128946 0)
(0.0504849 0.135494 0)
(0.0421955 0.150059 0)
(0.0267962 0.16866 0)
(0.0206465 0.168118 0)
(0.00744483 0.11085 0)
(-0.0148851 0.100727 0)
(-0.0221127 0.0900529 0)
(-0.0254876 0.0627333 0)
(-0.0252313 0.035468 0)
(-0.0242177 -0.00206144 0)
(-0.00360601 -0.0385542 0)
(0.00828478 -0.0827924 0)
(0.00632191 -0.111099 0)
(0.00581135 -0.113296 0)
(0.00289816 -0.123689 0)
(-0.00400808 -0.146113 0)
(0.00430491 -0.12858 0)
(-0.0116371 -0.121256 0)
(-0.00369608 -0.116715 0)
(-0.00766805 -0.104717 0)
(-0.00729875 -0.0933353 0)
(-0.00862904 -0.0980275 0)
(-0.0148197 -0.092655 0)
(-0.0168804 -0.0486612 0)
(0.00432606 -0.00824162 0)
(0.0257045 0.0201748 0)
(0.0350148 0.0626618 0)
(0.0429105 0.0955115 0)
(0.0496209 0.116483 0)
(0.0481689 0.132691 0)
(0.0457435 0.142327 0)
(0.035672 0.155392 0)
(0.0231132 0.174805 0)
(0.0164186 0.168793 0)
(-0.000388529 0.115515 0)
(-0.0212344 0.103235 0)
(-0.023929 0.0938515 0)
(-0.0250253 0.0678086 0)
(-0.0230174 0.0436912 0)
(-0.0146064 0.00449384 0)
(0.00459556 -0.0304447 0)
(0.0116459 -0.07738 0)
(0.00733542 -0.103896 0)
(0.00483875 -0.108481 0)
(0.00157136 -0.119581 0)
(-0.0049604 -0.141159 0)
(0.0043364 -0.124831 0)
(-0.00890696 -0.116507 0)
(-0.00377961 -0.106755 0)
(-0.00825128 -0.0985414 0)
(-0.00981196 -0.0902352 0)
(-0.00965507 -0.0936365 0)
(-0.0142073 -0.0921929 0)
(-0.0193227 -0.0522875 0)
(0.00352375 -0.0100193 0)
(0.0256747 0.0215067 0)
(0.0326181 0.0644064 0)
(0.0393293 0.100467 0)
(0.0471861 0.118835 0)
(0.0443696 0.138032 0)
(0.0401803 0.147126 0)
(0.0315856 0.162215 0)
(0.0209968 0.181512 0)
(0.0125126 0.166674 0)
(-0.00351818 0.120461 0)
(-0.0232023 0.109069 0)
(-0.0253505 0.0996198 0)
(-0.0275292 0.0743277 0)
(-0.0240908 0.0404433 0)
(-0.00525086 0.00784729 0)
(0.0125222 -0.0244132 0)
(0.0150695 -0.0717999 0)
(0.00867386 -0.0946971 0)
(0.00530789 -0.103696 0)
(0.000635667 -0.116334 0)
(-0.00522216 -0.137466 0)
(0.00470631 -0.126098 0)
(-0.00749756 -0.115172 0)
(-0.00174753 -0.10534 0)
(-0.00832395 -0.097551 0)
(-0.00811353 -0.0920665 0)
(-0.00769561 -0.0935574 0)
(-0.00919922 -0.0933223 0)
(-0.0179353 -0.0576502 0)
(0.00115272 -0.0108393 0)
(0.0228451 0.0237949 0)
(0.0303259 0.0653228 0)
(0.0351331 0.104789 0)
(0.0428368 0.126257 0)
(0.0403362 0.142925 0)
(0.036355 0.152252 0)
(0.0293995 0.167358 0)
(0.0194603 0.187664 0)
(0.0111247 0.160621 0)
(-0.00284523 0.12844 0)
(-0.0231884 0.115626 0)
(-0.0279053 0.10519 0)
(-0.0295964 0.0711453 0)
(-0.0214311 0.0340118 0)
(-0.00171617 0.00695636 0)
(0.0183131 -0.0197593 0)
(0.0176305 -0.0660402 0)
(0.0111169 -0.0871516 0)
(0.00607163 -0.100953 0)
(0.000590123 -0.114397 0)
(-0.00430961 -0.135537 0)
(0.00806037 -0.128655 0)
(-0.00786082 -0.115977 0)
(0.00258512 -0.110122 0)
(-0.000458343 -0.10414 0)
(-0.00348514 -0.0952288 0)
(-0.003446 -0.0958083 0)
(-0.00450704 -0.0957201 0)
(-0.0168102 -0.0590563 0)
(-0.000432172 -0.013251 0)
(0.0171552 0.0256072 0)
(0.0281985 0.0633404 0)
(0.0327871 0.107935 0)
(0.038318 0.130646 0)
(0.0367345 0.15038 0)
(0.0327727 0.157624 0)
(0.0283198 0.174575 0)
(0.0191767 0.190258 0)
(0.0129109 0.159715 0)
(0.00137414 0.135695 0)
(-0.0220733 0.123863 0)
(-0.0286207 0.112705 0)
(-0.026729 0.0700131 0)
(-0.0129523 0.0315991 0)
(0.00400316 0.00586759 0)
(0.0223877 -0.0177319 0)
(0.0196594 -0.0603176 0)
(0.0134855 -0.0844671 0)
(0.00618785 -0.0989444 0)
(0.000884128 -0.113701 0)
(-0.0026563 -0.139968 0)
(0.0111841 -0.131665 0)
(-0.00954547 -0.114255 0)
(0.00590593 -0.112303 0)
(0.00269437 -0.106482 0)
(-0.00150765 -0.0991571 0)
(-0.00261294 -0.0977811 0)
(-0.00268701 -0.0957963 0)
(-0.016973 -0.0571307 0)
(-0.00599322 -0.0140215 0)
(0.011881 0.0252419 0)
(0.0251183 0.0638305 0)
(0.0281641 0.109665 0)
(0.0344086 0.137095 0)
(0.0325711 0.155064 0)
(0.0297713 0.164904 0)
(0.027833 0.181826 0)
(0.019655 0.192831 0)
(0.0159326 0.160417 0)
(0.00955058 0.144789 0)
(-0.0168423 0.132362 0)
(-0.0264978 0.119956 0)
(-0.0203117 0.0671284 0)
(-0.00443916 0.0310067 0)
(0.010296 0.00671318 0)
(0.0260473 -0.0165331 0)
(0.0230356 -0.0576573 0)
(0.0141842 -0.0809812 0)
(0.00497749 -0.0957439 0)
(0.00189818 -0.11706 0)
(-0.0035089 -0.145337 0)
(0.0135008 -0.133709 0)
(-0.0122137 -0.109557 0)
(0.00369679 -0.111917 0)
(0.00166775 -0.10436 0)
(-0.00158725 -0.0976136 0)
(-0.00331176 -0.0942716 0)
(-0.00508379 -0.0899644 0)
(-0.0218728 -0.0530378 0)
(-0.0128638 -0.013981 0)
(0.00770104 0.0249602 0)
(0.0197622 0.0645411 0)
(0.0239434 0.112568 0)
(0.0311528 0.142174 0)
(0.0281247 0.162784 0)
(0.0257982 0.170974 0)
(0.0271081 0.1885 0)
(0.021435 0.192436 0)
(0.0197999 0.163508 0)
(0.0165265 0.151824 0)
(-0.00898611 0.141683 0)
(-0.0232345 0.126328 0)
(-0.0116615 0.0654412 0)
(0.000789595 0.0276567 0)
(0.0138158 0.00749803 0)
(0.0291013 -0.0149632 0)
(0.0237929 -0.0539877 0)
(0.0119897 -0.0749288 0)
(0.0039278 -0.0935464 0)