/*--------------------------------*- C++ -*----------------------------------*\
| =========                 |                                                 |
| \\      /  F ield         | OpenFOAM: The Open Source CFD Toolbox           |
|  \\    /   O peration     | Version:  2.3.0                                 |
|   \\  /    A nd           | Web:      www.OpenFOAM.org                      |
|    \\/     M anipulation  |                                                 |
\*---------------------------------------------------------------------------*/
FoamFile
{
    version     2.0;
    format      ascii;
    class       volVectorField;
    location    "1";
    object      U.particles;
}
// * * * * * * * * * * * * * * * * * * * * * * * * * * * * * * * * * * * * * //

dimensions      [0 1 -1 0 0 0 0];

internalField   nonuniform List<vector> 
6000
(
(-0.00576626 -0.376949 0)
(-0.0127575 -0.402224 0)
(-0.00513917 -0.343545 0)
(0.0143667 -0.318516 0)
(0.0492478 -0.322801 0)
(0.0794989 -0.393599 0)
(0.0649267 -0.505677 0)
(-0.0997961 -0.524771 0)
(-0.158547 -0.478092 0)
(-0.120706 -0.395023 0)
(-0.0834723 -0.374923 0)
(-0.0277198 -0.412859 0)
(-0.141181 -0.388055 0)
(-0.18291 -0.323317 0)
(-0.100551 -0.244279 0)
(-0.0123923 -0.268396 0)
(0.0744925 -0.260159 0)
(0.108493 -0.352628 0)
(0.0533017 -0.458008 0)
(0.0338506 -0.411355 0)
(0.0583317 -0.376335 0)
(0.0748301 -0.355989 0)
(0.0703316 -0.317101 0)
(0.0480302 -0.248459 0)
(0.0482764 -0.191083 0)
(0.0627697 -0.191921 0)
(0.0801535 -0.286481 0)
(0.0514639 -0.385615 0)
(-0.0330671 -0.34595 0)
(-0.0329355 -0.194182 0)
(-0.00683782 0.0282331 0)
(-0.0354086 0.0584115 0)
(-0.046094 -0.0049752 0)
(-0.047956 -0.0645877 0)
(-0.0345086 -0.093399 0)
(0.0104156 -0.0806223 0)
(0.00861225 -0.260036 0)
(-0.0877961 -0.357236 0)
(-0.10614 -0.0975428 0)
(-0.109164 0.0028307 0)
(-0.154353 -0.0300804 0)
(-0.144648 -0.108053 0)
(-0.135326 -0.188204 0)
(-0.131224 -0.117756 0)
(-0.0805781 -0.189123 0)
(-0.0431178 -0.189323 0)
(-0.00108786 -0.106976 0)
(0.0569661 -0.0833799 0)
(0.0570401 -0.0709207 0)
(0.0552637 -0.0394813 0)
(0.0825624 -0.0348325 0)
(0.1311 -0.0197816 0)
(0.190941 0.00942217 0)
(0.204614 0.0646438 0)
(0.197311 0.124695 0)
(0.150908 0.150479 0)
(0.023022 0.120466 0)
(-0.0502959 0.032251 0)
(-0.0692705 -0.00610199 0)
(-0.0325358 -0.0304805 0)
(-0.0348006 -0.0330644 0)
(-0.0717386 -0.0785874 0)
(-0.0974895 -0.134274 0)
(-0.102535 -0.174579 0)
(-0.0761052 -0.192881 0)
(-0.0286876 -0.161666 0)
(0.0327705 -0.152742 0)
(-0.0288694 -0.212369 0)
(-0.0633466 -0.0810997 0)
(-0.0898245 -0.0519541 0)
(-0.134822 -0.0755418 0)
(-0.151805 -0.0839947 0)
(-0.134172 -0.154545 0)
(-0.088516 -0.181374 0)
(-0.0606638 -0.248323 0)
(-0.0452413 -0.255259 0)
(-0.00389597 -0.154572 0)
(0.00389775 -0.0998609 0)
(0.0164798 -0.0883747 0)
(0.0401488 -0.138324 0)
(0.0924058 -0.174533 0)
(0.157903 -0.150952 0)
(0.249465 -0.107585 0)
(0.265544 -0.0182199 0)
(0.187788 0.149624 0)
(0.128251 0.203692 0)
(0.0308033 0.168472 0)
(-0.0864297 0.100782 0)
(-0.0549064 -0.0032312 0)
(-0.016405 -0.0939898 0)
(-0.0620509 -0.0323073 0)
(-0.123366 -0.07043 0)
(-0.147922 -0.118592 0)
(-0.126196 -0.177507 0)
(-0.0991215 -0.190082 0)
(-0.0387491 -0.159029 0)
(0.0316596 -0.131108 0)
(0.027126 -0.14343 0)
(-0.00752929 -0.0633811 0)
(-0.0614078 -0.0167415 0)
(-0.113493 -0.0370528 0)
(-0.128802 -0.0390193 0)
(-0.135965 -0.124699 0)
(-0.0476642 -0.169093 0)
(-0.0284329 -0.236606 0)
(-0.0199967 -0.246655 0)
(0.00776433 -0.137592 0)
(0.0169285 -0.0520683 0)
(0.0293334 -0.0458668 0)
(0.0819536 -0.114228 0)
(0.136847 -0.168356 0)
(0.184311 -0.148753 0)
(0.252887 -0.0501723 0)
(0.170777 0.0747838 0)
(0.090609 0.211802 0)
(0.068643 0.270703 0)
(0.0410232 0.25966 0)
(-0.0954068 0.143869 0)
(-0.0335173 0.0418291 0)
(0.004468 -0.0628778 0)
(-0.082119 -0.00694109 0)
(-0.145393 -0.0422749 0)
(-0.156264 -0.113269 0)
(-0.132598 -0.168625 0)
(-0.11202 -0.18192 0)
(-0.0677408 -0.164016 0)
(0.00997977 -0.120409 0)
(0.0631236 -0.111532 0)
(0.0449834 -0.0535404 0)
(-0.0190233 0.0212975 0)
(-0.0907844 0.00565455 0)
(-0.0995246 0.0176541 0)
(-0.121183 -0.0773294 0)
(-0.0151229 -0.143327 0)
(0.00919767 -0.221208 0)
(0.0144918 -0.219357 0)
(0.018623 -0.138949 0)
(0.0551637 0.00915865 0)
(0.0887134 0.0141756 0)
(0.157099 -0.0655097 0)
(0.17605 -0.123131 0)
(0.184323 -0.0966009 0)
(0.212852 0.0188 0)
(0.0682373 0.206921 0)
(0.000229623 0.265386 0)
(-0.0106306 0.303025 0)
(-0.0360253 0.323986 0)
(-0.081295 0.174218 0)
(-0.0321462 0.0658117 0)
(0.0106764 -0.0213616 0)
(-0.0908953 0.0531264 0)
(-0.152153 0.0200264 0)
(-0.169909 -0.0770215 0)
(-0.163883 -0.126949 0)
(-0.147822 -0.140815 0)
(-0.110188 -0.125939 0)
(-0.0335807 -0.0863475 0)
(0.0676028 -0.0861183 0)
(0.0729876 -0.0224963 0)
(0.00187025 0.0580689 0)
(-0.0735909 0.0373645 0)
(-0.0698299 0.0676752 0)
(-0.0863537 0.00319068 0)
(0.0270411 -0.0926112 0)
(0.0620605 -0.189198 0)
(0.0543688 -0.179702 0)
(0.0320939 -0.123911 0)
(0.0837111 0.0344042 0)
(0.151921 0.0549206 0)
(0.186122 -0.024589 0)
(0.182843 -0.0778191 0)
(0.161976 -0.0296075 0)
(0.126135 0.0931724 0)
(0.0374905 0.256767 0)
(-0.0356872 0.303102 0)
(-0.063576 0.31271 0)
(-0.0940411 0.298468 0)
(-0.0962758 0.204582 0)
(-0.0419255 0.0674629 0)
(-0.000227152 0.0213948 0)
(-0.0846302 0.129719 0)
(-0.141712 0.0814374 0)
(-0.178418 -0.0398423 0)
(-0.193132 -0.0924633 0)
(-0.183704 -0.109546 0)
(-0.15618 -0.0983808 0)
(-0.0850714 -0.0338246 0)
(0.0464281 -0.0252042 0)
(0.0672313 0.0478621 0)
(0.0143858 0.0961578 0)
(-0.0535749 0.0662324 0)
(-0.0434654 0.105048 0)
(-0.0313311 0.0898597 0)
(0.0781443 -0.0424826 0)
(0.112681 -0.155091 0)
(0.103566 -0.141978 0)
(0.074133 -0.0868973 0)
(0.101618 0.00819825 0)
(0.153182 0.00551027 0)
(0.164318 -0.0501286 0)
(0.150971 -0.0649617 0)
(0.126873 -0.0154473 0)
(0.0674346 0.100883 0)
(-0.0160727 0.271684 0)
(-0.0624427 0.323168 0)
(-0.083172 0.312033 0)
(-0.0978033 0.274161 0)
(-0.109044 0.190003 0)
(-0.0655117 0.0685917 0)
(-0.0158523 0.0253313 0)
(-0.0726675 0.215031 0)
(-0.122782 0.145863 0)
(-0.180164 0.00922783 0)
(-0.210479 -0.0469125 0)
(-0.210603 -0.0685075 0)
(-0.193133 -0.0670779 0)
(-0.138227 0.0117077 0)
(-0.0133514 0.100676 0)
(0.0398141 0.128249 0)
(0.0278833 0.138378 0)
(-0.0224641 0.101191 0)
(-0.0212946 0.143986 0)
(0.0213818 0.143964 0)
(0.122075 -0.000492431 0)
(0.16021 -0.111075 0)
(0.149602 -0.100118 0)
(0.129774 -0.0631023 0)
(0.126815 -0.033369 0)
(0.132097 -0.043118 0)
(0.130794 -0.0711853 0)
(0.111046 -0.082245 0)
(0.0769183 -0.034988 0)
(0.00859684 0.0744505 0)
(-0.0694775 0.271886 0)
(-0.0831163 0.326814 0)
(-0.0760213 0.298221 0)
(-0.0717652 0.248388 0)
(-0.0707585 0.162549 0)
(-0.0501229 0.0693736 0)
(-0.0138964 0.0197323 0)
(-0.0574571 0.309941 0)
(-0.101313 0.216671 0)
(-0.165288 0.0666996 0)
(-0.205101 -0.00380464 0)
(-0.213997 -0.033635 0)
(-0.210358 -0.0398558 0)
(-0.177405 0.0248774 0)
(-0.0789995 0.1527 0)
(0.00111091 0.192486 0)
(0.0361535 0.188274 0)
(0.00875086 0.153055 0)
(0.00124056 0.177498 0)
(0.0492061 0.160803 0)
(0.152245 0.00694909 0)
(0.188294 -0.0862215 0)
(0.176717 -0.0815583 0)
(0.153447 -0.0607452 0)
(0.13572 -0.0527472 0)
(0.12019 -0.0705844 0)
(0.108118 -0.105265 0)
(0.0641432 -0.12529 0)
(0.00704227 -0.125704 0)
(-0.0666603 -0.0887535 0)
(-0.0796258 0.0317684 0)
(-0.0733056 0.282305 0)
(-0.0469769 0.269415 0)
(-0.0305839 0.228595 0)
(-0.0253188 0.14547 0)
(-0.0242772 0.0463821 0)
(-0.00264621 0.00766331 0)
(-0.0358835 0.433954 0)
(-0.0763686 0.305944 0)
(-0.129151 0.141203 0)
(-0.16953 0.0417473 0)
(-0.190197 -0.00543375 0)
(-0.197791 -0.0177693 0)
(-0.18683 0.0120534 0)
(-0.126374 0.112865 0)
(-0.0296133 0.206803 0)
(0.0295249 0.209964 0)
(0.0310242 0.180193 0)
(0.0341589 0.1766 0)
(0.0761404 0.126538 0)
(0.168835 -0.0108282 0)
(0.19515 -0.0760804 0)
(0.183099 -0.0830043 0)
(0.158429 -0.0771689 0)
(0.138666 -0.0791216 0)
(0.101949 -0.104133 0)
(0.0452328 -0.20041 0)
(-0.0243793 -0.307078 0)
(-0.0697041 -0.35379 0)
(-0.0568726 -0.311551 0)
(-0.0391887 -0.261542 0)
(-0.0287521 -0.135438 0)
(-0.0254359 0.123055 0)
(0.0215318 0.124335 0)
(0.00415632 0.0168169 0)
(-0.0162197 -0.0216163 0)
(0.0019553 -0.0269657 0)
(0.00304487 0.56829 0)
(-0.0224961 0.42983 0)
(-0.0581809 0.241262 0)
(-0.0948294 0.0992681 0)
(-0.134222 0.0149988 0)
(-0.157553 -0.0110319 0)
(-0.162419 0.00147356 0)
(-0.133456 0.0521121 0)
(-0.0573628 0.150454 0)
(0.0179137 0.185194 0)
(0.0416529 0.16663 0)
(0.066926 0.133605 0)
(0.113624 0.0563344 0)
(0.162844 -0.0396383 0)
(0.182758 -0.0885027 0)
(0.172036 -0.103146 0)
(0.137991 -0.10116 0)
(0.0928052 -0.149842 0)
(0.0217759 -0.293124 0)
(-0.0618268 -0.457106 0)
(-0.063763 -0.476217 0)
(-0.0531913 -0.42007 0)
(-0.0367503 -0.351699 0)
(-0.0273422 -0.322822 0)
(-0.000343195 -0.323765 0)
(0.0196801 -0.304195 0)
(0.0265328 -0.278458 0)
(0.0284504 -0.292473 0)
(-0.0188028 -0.167408 0)
(-0.02302 -0.0705529 0)
(0.0424778 0.638839 0)
(0.0695954 0.535346 0)
(0.0577621 0.322241 0)
(0.0191429 0.150914 0)
(-0.0467045 0.0282242 0)
(-0.0955945 -0.0263492 0)
(-0.112102 -0.0304033 0)
(-0.0976861 0.00634847 0)
(-0.0554363 0.0589397 0)
(-0.00790411 0.103336 0)
(0.0351596 0.102967 0)
(0.0770915 0.0597926 0)
(0.120385 -0.018513 0)
(0.147279 -0.0852361 0)
(0.155157 -0.114022 0)
(0.123341 -0.141029 0)
(0.0273484 -0.257006 0)
(-0.0854292 -0.43789 0)
(-0.073099 -0.485452 0)
(-0.0503077 -0.501467 0)
(-0.0239015 -0.486079 0)
(-0.0219304 -0.434684 0)
(-0.0134789 -0.357832 0)
(-0.0141057 -0.338475 0)
(0.0072835 -0.343672 0)
(0.0255595 -0.343712 0)
(0.0318292 -0.340758 0)
(0.0582864 -0.333155 0)
(0.0205566 -0.285348 0)
(-0.0722808 -0.273862 0)
(0.0548665 0.636125 0)
(0.124133 0.540493 0)
(0.164806 0.314228 0)
(0.132045 0.123126 0)
(0.0538627 -0.0279668 0)
(-0.0172646 -0.0746311 0)
(-0.0527814 -0.085946 0)
(-0.045113 -0.0725546 0)
(-0.0298735 -0.0202441 0)
(-0.00172705 0.00862673 0)
(0.0326677 0.000193259 0)
(0.0674207 -0.0457455 0)
(0.0916828 -0.101725 0)
(0.091607 -0.136823 0)
(0.0701835 -0.181694 0)
(-0.071673 -0.367347 0)
(-0.122995 -0.453891 0)
(-0.107473 -0.480202 0)
(-0.0568845 -0.483656 0)
(-0.03113 -0.493774 0)
(-0.00274008 -0.475215 0)
(0.00071916 -0.437342 0)
(0.00485152 -0.355046 0)
(0.00369125 -0.331276 0)
(0.0181062 -0.342178 0)
(0.0350743 -0.333545 0)
(0.041745 -0.340471 0)
(0.069232 -0.331792 0)
(-0.0117645 -0.294721 0)
(0.000234075 -0.454347 0)
(0.0574057 0.496372 0)
(0.133668 0.358809 0)
(0.183501 0.0484304 0)
(0.160936 -0.188086 0)
(0.143457 -0.324197 0)
(0.121009 -0.339489 0)
(0.0791186 -0.266015 0)
(0.0474057 -0.175021 0)
(0.0293171 -0.118368 0)
(0.0311102 -0.0840909 0)
(0.0427484 -0.101269 0)
(0.0526934 -0.137889 0)
(0.0439432 -0.176125 0)
(0.0167439 -0.204336 0)
(-0.101471 -0.341456 0)
(-0.158647 -0.452865 0)
(-0.136495 -0.457221 0)
(-0.0973863 -0.466876 0)
(-0.0410332 -0.473163 0)
(-0.0151511 -0.479463 0)
(0.0157341 -0.457336 0)
(0.0182688 -0.415399 0)
(0.0211989 -0.343539 0)
(0.0201252 -0.309714 0)
(0.0284619 -0.319174 0)
(0.040187 -0.312076 0)
(0.0473967 -0.316586 0)
(0.0719478 -0.317088 0)
(-0.022976 -0.327064 0)
(-0.00460899 -0.457753 0)
(0.0454493 -0.00333245 0)
(0.0919335 -0.183176 0)
(0.10893 -0.390445 0)
(0.13016 -0.474369 0)
(0.167375 -0.494898 0)
(0.201264 -0.503173 0)
(0.227228 -0.482813 0)
(0.194028 -0.380904 0)
(0.155936 -0.304047 0)
(0.110761 -0.230805 0)
(0.0842101 -0.232472 0)
(0.0496102 -0.228545 0)
(0.000269992 -0.239408 0)
(-0.10258 -0.292383 0)
(-0.199197 -0.403013 0)
(-0.161807 -0.433761 0)
(-0.132764 -0.441486 0)
(-0.0847649 -0.453558 0)
(-0.0365261 -0.457988 0)
(-0.00046954 -0.450925 0)
(0.0266408 -0.431535 0)
(0.0323355 -0.388727 0)
(0.0275625 -0.320065 0)
(0.033206 -0.278799 0)
(0.0351961 -0.282918 0)
(0.0402271 -0.275476 0)
(0.0378812 -0.281058 0)
(0.0484687 -0.297244 0)
(-0.0233613 -0.334052 0)
(0.00034141 -0.435393 0)
(0.0376612 -0.348965 0)
(0.0633917 -0.420683 0)
(0.0977371 -0.454398 0)
(0.135811 -0.469677 0)
(0.177615 -0.479676 0)
(0.21351 -0.481166 0)
(0.242755 -0.483725 0)
(0.267686 -0.456522 0)
(0.244496 -0.403591 0)
(0.2129 -0.388652 0)
(0.147668 -0.375308 0)
(0.0760936 -0.349072 0)
(-0.0259051 -0.304411 0)
(-0.161646 -0.319567 0)
(-0.18766 -0.355409 0)
(-0.151284 -0.384746 0)
(-0.120204 -0.410679 0)
(-0.0718665 -0.434403 0)
(-0.0222449 -0.438789 0)
(0.0141104 -0.422311 0)
(0.0371486 -0.39491 0)
(0.0377552 -0.351358 0)
(0.0300287 -0.285803 0)
(0.0391115 -0.237671 0)
(0.0334066 -0.233233 0)
(0.0245848 -0.231397 0)
(-0.0018594 -0.2427 0)
(0.00116209 -0.273183 0)
(-0.00921664 -0.328707 0)
(0.0108463 -0.41463 0)
(0.0377901 -0.375634 0)
(0.0640518 -0.408783 0)
(0.103738 -0.433696 0)
(0.138672 -0.449457 0)
(0.180077 -0.456007 0)
(0.220317 -0.456053 0)
(0.242662 -0.451218 0)
(0.272894 -0.422372 0)
(0.25954 -0.36694 0)
(0.230083 -0.360143 0)
(0.176663 -0.385953 0)
(0.106969 -0.382892 0)
(0.026003 -0.319687 0)
(-0.107317 -0.266408 0)
(-0.153683 -0.295723 0)
(-0.125893 -0.316837 0)
(-0.10446 -0.369677 0)
(-0.0613485 -0.408501 0)
(-0.00740512 -0.4084 0)
(0.0239943 -0.381497 0)
(0.0405232 -0.341661 0)
(0.0361685 -0.297358 0)
(0.0237692 -0.241308 0)
(0.0362241 -0.187623 0)
(0.031 -0.18136 0)
(-0.0028797 -0.187732 0)
(-0.0406251 -0.217026 0)
(-0.0417045 -0.245106 0)
(0.0090776 -0.260394 0)
(0.0155433 -0.378472 0)
(0.0333294 -0.355355 0)
(0.0717232 -0.387795 0)
(0.109038 -0.406293 0)
(0.14555 -0.419921 0)
(0.184889 -0.424842 0)
(0.226481 -0.422024 0)
(0.242775 -0.413046 0)
(0.266325 -0.388701 0)
(0.256716 -0.329055 0)
(0.232412 -0.313111 0)
(0.182356 -0.330649 0)
(0.122295 -0.332374 0)
(0.0538886 -0.285045 0)
(-0.0466048 -0.217818 0)
(-0.105982 -0.233289 0)
(-0.0701625 -0.246267 0)
(-0.0708591 -0.323955 0)
(-0.0444031 -0.37356 0)
(0.00186695 -0.364161 0)
(0.0285922 -0.336204 0)
(0.0378275 -0.28815 0)
(0.0295193 -0.242885 0)
(0.0101524 -0.190432 0)
(0.0168785 -0.126267 0)
(0.026823 -0.117681 0)
(-0.028623 -0.138992 0)
(-0.0698235 -0.168419 0)
(-0.059931 -0.2022 0)
(0.0312607 -0.18423 0)
(0.0261091 -0.344383 0)
(0.0330037 -0.338032 0)
(0.0717181 -0.361418 0)
(0.109142 -0.380667 0)
(0.148615 -0.389096 0)
(0.181842 -0.394468 0)
(0.224968 -0.385573 0)
(0.241434 -0.373832 0)
(0.254061 -0.349885 0)
(0.241154 -0.287317 0)
(0.225138 -0.27121 0)
(0.183614 -0.282323 0)
(0.133487 -0.288301 0)
(0.088235 -0.256539 0)
(0.019422 -0.191984 0)
(-0.0494856 -0.156544 0)
(-0.00328707 -0.188227 0)
(-0.0177139 -0.28187 0)
(-0.0259209 -0.345774 0)
(0.0140612 -0.328018 0)
(0.0327427 -0.286162 0)
(0.0341101 -0.230912 0)
(0.016764 -0.176854 0)
(-0.0131927 -0.132609 0)
(-0.0113729 -0.0631373 0)
(0.00977569 -0.0410512 0)
(-0.0345972 -0.0619698 0)
(-0.0741493 -0.0761931 0)
(-0.0578144 -0.103899 0)
(0.056701 -0.106386 0)
(0.0364127 -0.292881 0)
(0.0317108 -0.313522 0)
(0.071657 -0.333919 0)
(0.10958 -0.348485 0)
(0.148226 -0.355214 0)
(0.183381 -0.352876 0)
(0.215694 -0.346042 0)
(0.233992 -0.3356 0)
(0.233215 -0.315343 0)
(0.216111 -0.248819 0)
(0.207261 -0.231254 0)
(0.17451 -0.23515 0)
(0.136996 -0.244538 0)
(0.107337 -0.222749 0)
(0.0706317 -0.17081 0)
(0.0280692 -0.128798 0)
(0.0751025 -0.132974 0)
(0.0496269 -0.220679 0)
(-0.00316417 -0.321347 0)
(0.0224715 -0.298186 0)
(0.0370427 -0.243369 0)
(0.0324438 -0.174682 0)
(0.00728599 -0.112453 0)
(-0.0321598 -0.0684972 0)
(-0.0429469 0.00363611 0)
(-0.0160871 0.0540231 0)
(-0.03635 0.0605584 0)
(-0.0375082 0.0621335 0)
(-0.0115359 0.0522415 0)
(0.0736845 -0.0161471 0)
(0.0409406 -0.238896 0)
(0.0295521 -0.285854 0)
(0.0690733 -0.302616 0)
(0.107837 -0.314636 0)
(0.145492 -0.317314 0)
(0.179985 -0.313484 0)
(0.207721 -0.308486 0)
(0.21804 -0.298774 0)
(0.205189 -0.283966 0)
(0.182255 -0.213119 0)
(0.180636 -0.19291 0)
(0.162257 -0.194431 0)
(0.131709 -0.205986 0)
(0.117807 -0.193403 0)
(0.100581 -0.151029 0)
(0.0946526 -0.117528 0)
(0.123444 -0.123131 0)
(0.109118 -0.187431 0)
(0.0287686 -0.299702 0)
(0.037366 -0.262989 0)
(0.0353708 -0.207835 0)
(0.0236455 -0.13789 0)
(0.00425353 -0.0663215 0)
(-0.0315458 -0.00511302 0)
(-0.0737311 0.0718517 0)
(-0.0420895 0.175533 0)
(-0.0160278 0.207778 0)
(0.00957526 0.200684 0)
(0.0452117 0.179457 0)
(0.0916204 0.0498354 0)
(0.0450262 -0.195208 0)
(0.027669 -0.256981 0)
(0.0683171 -0.26934 0)
(0.10717 -0.277219 0)
(0.142994 -0.277152 0)
(0.170955 -0.274018 0)
(0.191352 -0.27124 0)
(0.193165 -0.269659 0)
(0.169277 -0.255567 0)
(0.142546 -0.181615 0)
(0.154592 -0.160193 0)
(0.140758 -0.15897 0)
(0.124661 -0.169843 0)
(0.122569 -0.16047 0)
(0.112052 -0.133856 0)
(0.119937 -0.101916 0)
(0.148934 -0.104525 0)
(0.164986 -0.15923 0)
(0.0597571 -0.263013 0)
(0.0350616 -0.236017 0)
(0.0243742 -0.186026 0)
(0.00330508 -0.1158 0)
(-0.0176932 -0.0371334 0)
(-0.0421058 0.0394684 0)
(-0.0797585 0.119671 0)
(-0.0560145 0.24916 0)
(0.0253051 0.28048 0)
(0.0398029 0.269633 0)
(0.0664274 0.232024 0)
(0.0906157 0.0654074 0)
(0.042155 -0.17129 0)
(0.0265543 -0.222867 0)
(0.0669374 -0.233151 0)
(0.103866 -0.239339 0)
(0.134599 -0.238774 0)
(0.156337 -0.237533 0)
(0.167902 -0.239669 0)
(0.162152 -0.245327 0)
(0.126671 -0.23282 0)
(0.104884 -0.159589 0)
(0.130381 -0.133397 0)
(0.117172 -0.136939 0)
(0.113747 -0.140927 0)
(0.10806 -0.135528 0)
(0.101125 -0.110516 0)
(0.112885 -0.0905878 0)
(0.14459 -0.0831898 0)
(0.193664 -0.151132 0)
(0.0945083 -0.241767 0)
(0.0367055 -0.224886 0)
(0.0146881 -0.174532 0)
(-0.0234971 -0.0988133 0)
(-0.057969 -0.0112985 0)
(-0.0739295 0.0697487 0)
(-0.0802947 0.136195 0)
(-0.0413547 0.192871 0)
(0.0370208 0.202482 0)
(0.044537 0.201906 0)
(0.0660742 0.151067 0)
(0.0678805 -0.061545 0)
(0.018918 -0.230301 0)
(0.0245311 -0.191283 0)
(0.0636456 -0.199427 0)
(0.0969204 -0.204165 0)
(0.121203 -0.20454 0)
(0.134427 -0.206669 0)
(0.138189 -0.212784 0)
(0.124102 -0.226235 0)
(0.0842993 -0.213131 0)
(0.0740437 -0.138176 0)
(0.101959 -0.116102 0)
(0.0956486 -0.110234 0)
(0.0862446 -0.117115 0)
(0.084688 -0.116773 0)
(0.0879532 -0.097773 0)
(0.0992575 -0.0939481 0)
(0.129262 -0.0829675 0)
(0.203756 -0.144122 0)
(0.118936 -0.219963 0)
(0.0398297 -0.224095 0)
(0.00360856 -0.167818 0)
(-0.0504021 -0.0856309 0)
(-0.099667 -0.00848472 0)
(-0.100889 0.0423367 0)
(-0.0607769 -0.0258339 0)
(-0.0453895 -0.17289 0)
(-0.0105044 -0.155789 0)
(0.0261239 -0.14115 0)
(0.0529199 -0.193074 0)
(0.0530536 -0.305201 0)
(0.0125566 -0.376925 0)
(0.0218099 -0.164616 0)
(0.0575214 -0.17105 0)
(0.0851556 -0.17504 0)
(0.101253 -0.177345 0)
(0.106842 -0.182354 0)
(0.103604 -0.191734 0)
(0.0845106 -0.209148 0)
(0.0478245 -0.191559 0)
(0.0473132 -0.11358 0)
(0.0747562 -0.0911365 0)
(0.0756924 -0.0865826 0)
(0.0533105 -0.1042 0)
(0.0653711 -0.0994788 0)
(0.0589351 -0.0887657 0)
(0.0638968 -0.08059 0)
(0.121907 -0.0745485 0)
(0.213522 -0.140213 0)
(0.176924 -0.198645 0)
(0.0459291 -0.248532 0)
(-0.0499446 -0.251646 0)
(-0.118348 -0.262707 0)
(-0.114841 -0.399069 0)
(-0.0917747 -0.413625 0)
(-0.0692778 -0.404056 0)
(-0.0567496 -0.399463 0)
(-0.0361319 -0.381072 0)
(0.0070222 -0.370505 0)
(0.0289791 -0.385718 0)
(0.0364923 -0.399138 0)
(0.0166952 -0.424681 0)
(0.0182066 -0.145495 0)
(0.0480125 -0.150978 0)
(0.0683316 -0.154391 0)
(0.07677 -0.157891 0)
(0.0768706 -0.163807 0)
(0.0675424 -0.175316 0)
(0.0501446 -0.190909 0)
(0.0127677 -0.164039 0)
(0.0150198 -0.0705573 0)
(0.0594034 -0.0601475 0)
(0.0492468 -0.0759063 0)
(0.00915611 -0.0742393 0)
(0.0159908 -0.0721074 0)
(0.00880776 -0.0710854 0)
(0.0405035 -0.0635444 0)
(0.137884 -0.0814923 0)
(0.183261 -0.144109 0)
(0.058287 -0.234064 0)
(-0.0788077 -0.349026 0)
(-0.14082 -0.427562 0)
(-0.148031 -0.449052 0)
(-0.130133 -0.450843 0)
(-0.104571 -0.442895 0)
(-0.0765983 -0.428572 0)
(-0.0496933 -0.412847 0)
(-0.0350592 -0.408757 0)
(-0.00254533 -0.395624 0)
(0.0173292 -0.38875 0)
(0.0271784 -0.375234 0)
(0.0157069 -0.388432 0)
(0.0124981 -0.134555 0)
(0.0362722 -0.138668 0)
(0.0488112 -0.140811 0)
(0.0515941 -0.143356 0)
(0.0479982 -0.14871 0)
(0.0345714 -0.160411 0)
(0.0217456 -0.172638 0)
(-0.0270871 -0.122697 0)
(-0.0250685 -0.0242122 0)
(0.0419838 -0.0365696 0)
(-0.00353965 -0.0590796 0)
(-0.0425054 -0.0417953 0)
(-0.0413468 -0.0483597 0)
(-0.0144646 -0.053034 0)
(0.0396946 -0.0541645 0)
(0.120085 -0.0909693 0)
(0.10035 -0.150641 0)
(-0.0692343 -0.264129 0)
(-0.156189 -0.34043 0)
(-0.164876 -0.379358 0)
(-0.156829 -0.395469 0)
(-0.139138 -0.400691 0)
(-0.115116 -0.395442 0)
(-0.0842781 -0.387614 0)
(-0.0527207 -0.372986 0)
(-0.0316764 -0.368104 0)
(-0.00868096 -0.360391 0)
(0.0134349 -0.350183 0)
(0.0235473 -0.335809 0)
(0.0141545 -0.349566 0)
(0.00628912 -0.126717 0)
(0.0237891 -0.130244 0)
(0.0300136 -0.129869 0)
(0.0289816 -0.129852 0)
(0.0217864 -0.1334 0)
(0.00605784 -0.144154 0)
(-0.00909461 -0.153295 0)
(-0.070975 -0.0890684 0)
(-0.0647689 -0.00204378 0)
(-0.00709464 -0.0174773 0)
(-0.0639127 -0.0260271 0)
(-0.0826235 -0.0153334 0)
(-0.0731101 -0.0321953 0)
(-0.0228637 -0.0305562 0)
(0.0311648 -0.043304 0)
(0.0660565 -0.0887362 0)
(-0.0309029 -0.17625 0)
(-0.147212 -0.254753 0)
(-0.172545 -0.299848 0)
(-0.175144 -0.32763 0)
(-0.167224 -0.349191 0)
(-0.152085 -0.357405 0)
(-0.128518 -0.356005 0)
(-0.0965891 -0.347596 0)
(-0.0624024 -0.33598 0)
(-0.0333811 -0.323075 0)
(-0.0162745 -0.323183 0)
(0.0102962 -0.308992 0)
(0.0199661 -0.297286 0)
(0.0119515 -0.309744 0)
(0.000405341 -0.116139 0)
(0.0128017 -0.119914 0)
(0.0142789 -0.116874 0)
(0.0100572 -0.113302 0)
(-0.00130617 -0.113868 0)
(-0.0189581 -0.121129 0)
(-0.0471991 -0.12471 0)
(-0.123 -0.0386175 0)
(-0.109074 0.0143021 0)
(-0.0749522 0.00787658 0)
(-0.105247 0.00937891 0)
(-0.108829 0.00913144 0)
(-0.0831311 -0.00861919 0)
(-0.0321377 -0.00652196 0)
(0.00884299 -0.0240508 0)
(-0.00643465 -0.0800785 0)
(-0.123133 -0.165059 0)
(-0.182891 -0.217929 0)
(-0.186862 -0.250149 0)
(-0.185255 -0.276972 0)
(-0.175744 -0.298332 0)
(-0.16178 -0.314554 0)
(-0.143236 -0.316264 0)
(-0.115427 -0.307581 0)
(-0.0773821 -0.295312 0)
(-0.0420243 -0.279901 0)
(-0.0237053 -0.284204 0)
(0.00621106 -0.267739 0)
(0.0172008 -0.256242 0)
(0.0103625 -0.26736 0)
(-0.00489555 -0.0984431 0)
(0.00405836 -0.104143 0)
(0.00234268 -0.0983625 0)
(-0.0042892 -0.0914999 0)
(-0.0196455 -0.088543 0)
(-0.0356244 -0.090648 0)
(-0.0873949 -0.0802254 0)
(-0.169845 0.0120553 0)
(-0.15266 0.0403458 0)
(-0.128307 0.0365101 0)
(-0.134082 0.0420885 0)
(-0.123055 0.0333301 0)
(-0.085919 0.0302376 0)
(-0.0499869 0.0244647 0)
(-0.0259541 0.000816524 0)
(-0.0771653 -0.0579796 0)
(-0.16836 -0.124113 0)
(-0.199409 -0.165337 0)
(-0.195137 -0.19681 0)
(-0.191038 -0.224298 0)
(-0.182841 -0.249399 0)
(-0.172968 -0.266854 0)
(-0.157322 -0.274963 0)
(-0.131994 -0.268153 0)
(-0.0976687 -0.256823 0)
(-0.0560649 -0.242091 0)
(-0.0319546 -0.240136 0)
(0.000777283 -0.22589 0)
(0.0139934 -0.214944 0)
(0.00828949 -0.223726 0)
(-0.00890607 -0.0725015 0)
(-0.00148238 -0.0815856 0)
(-0.00482552 -0.074354 0)
(-0.0121958 -0.0652967 0)
(-0.028086 -0.0590041 0)
(-0.0400057 -0.0574048 0)
(-0.102947 -0.0280305 0)
(-0.201126 0.0637784 0)
(-0.184941 0.0859915 0)
(-0.155659 0.0851369 0)
(-0.145743 0.0735289 0)
(-0.128887 0.0681706 0)
(-0.0914054 0.072609 0)
(-0.0691562 0.0665593 0)
(-0.0690832 0.0396204 0)
(-0.1297 -0.0150176 0)
(-0.192463 -0.0666057 0)
(-0.207317 -0.104171 0)
(-0.203296 -0.139497 0)
(-0.197111 -0.167942 0)
(-0.188124 -0.193198 0)
(-0.180162 -0.213898 0)
(-0.170396 -0.226919 0)
(-0.150937 -0.230211 0)
(-0.117399 -0.222343 0)
(-0.0770213 -0.207239 0)
(-0.0445603 -0.190288 0)
(-0.00666788 -0.183639 0)
(0.0104177 -0.171216 0)
(0.00635711 -0.177298 0)
(-0.00731585 -0.0432863 0)
(-0.00295453 -0.0547382 0)
(-0.00683677 -0.0477236 0)
(-0.0138971 -0.0369691 0)
(-0.0268924 -0.0263985 0)
(-0.042042 -0.0227638 0)
(-0.119003 0.0350859 0)
(-0.234053 0.126613 0)
(-0.209645 0.148458 0)
(-0.160809 0.137046 0)
(-0.146009 0.116525 0)
(-0.120956 0.115813 0)
(-0.0966779 0.124555 0)
(-0.0856306 0.124183 0)
(-0.103392 0.0987328 0)
(-0.155701 0.051766 0)
(-0.199666 0.0063143 0)
(-0.211941 -0.0345736 0)
(-0.209608 -0.0735364 0)
(-0.202242 -0.105752 0)
(-0.190565 -0.13253 0)
(-0.181641 -0.155322 0)
(-0.175264 -0.174185 0)
(-0.164017 -0.184793 0)
(-0.14057 -0.183957 0)
(-0.10423 -0.173359 0)
(-0.0596782 -0.147358 0)
(-0.0175151 -0.136207 0)
(0.00559253 -0.123288 0)
(0.00508493 -0.127183 0)
(-0.00270336 -0.0225627 0)
(-0.00249785 -0.0305769 0)
(-0.00671276 -0.0232956 0)
(-0.0135139 -0.00982045 0)
(-0.0228123 0.0063929 0)
(-0.0522083 0.0178006 0)
(-0.189019 0.124467 0)
(-0.259766 0.181274 0)
(-0.206679 0.216257 0)
(-0.147915 0.176323 0)
(-0.124248 0.162327 0)
(-0.100252 0.174572 0)
(-0.0885656 0.187472 0)
(-0.0912616 0.191381 0)
(-0.113283 0.172586 0)
(-0.152035 0.136103 0)
(-0.187476 0.0948574 0)
(-0.20675 0.0493369 0)
(-0.212471 0.00195297 0)
(-0.207471 -0.0380314 0)
(-0.193953 -0.0686099 0)
(-0.181161 -0.09171 0)
(-0.174582 -0.111685 0)
(-0.169613 -0.129448 0)
(-0.155865 -0.138892 0)
(-0.127491 -0.136054 0)
(-0.0834202 -0.120992 0)
(-0.0315708 -0.0863007 0)
(-0.00369662 -0.0689564 0)
(0.00399961 -0.0723614 0)
(-0.000405124 -0.0107274 0)
(-0.0034352 -0.0128379 0)
(-0.00912002 -0.00365076 0)
(-0.0167729 0.0134623 0)
(-0.0278182 0.0381608 0)
(-0.0792652 0.0859194 0)
(-0.259211 0.2061 0)
(-0.263156 0.237069 0)
(-0.164725 0.23569 0)
(-0.0991544 0.210474 0)
(-0.08035 0.212308 0)
(-0.0709912 0.229097 0)
(-0.0713336 0.240637 0)
(-0.0801942 0.241975 0)
(-0.0950986 0.232115 0)
(-0.117635 0.211397 0)
(-0.146306 0.183098 0)
(-0.175402 0.143397 0)
(-0.198277 0.09156 0)
(-0.206824 0.0397345 0)
(-0.198152 -0.00122544 0)
(-0.183111 -0.0289832 0)
(-0.172959 -0.0494682 0)
(-0.169688 -0.0687209 0)
(-0.163768 -0.0827444 0)
(-0.144581 -0.0836271 0)
(-0.108618 -0.0741544 0)
(-0.0544826 -0.0441018 0)
(-0.0231003 -0.0100656 0)
(0.00122314 -0.0123793 0)
(-0.000247925 -0.00304238 0)
(-0.0060751 0.00055406 0)
(-0.0151174 0.0122349 0)
(-0.0281063 0.0337604 0)
(-0.055787 0.0720125 0)
(-0.181333 0.194579 0)
(-0.266284 0.249849 0)
(-0.211077 0.272703 0)
(-0.08113 0.242961 0)
(-0.0357767 0.240549 0)
(-0.0449012 0.251186 0)
(-0.0543525 0.266214 0)
(-0.0627202 0.267448 0)
(-0.0694264 0.263893 0)
(-0.0770642 0.257004 0)
(-0.0874061 0.246795 0)
(-0.102062 0.233321 0)
(-0.122319 0.21315 0)
(-0.15142 0.178146 0)
(-0.181998 0.127996 0)
(-0.194125 0.0756949 0)
(-0.186155 0.0368825 0)
(-0.1737 0.0128006 0)
(-0.168459 -0.00702255 0)
(-0.166541 -0.0215969 0)
(-0.154165 -0.0257317 0)
(-0.126995 -0.018235 0)
(-0.081923 0.00776326 0)
(-0.0464366 0.0514882 0)
(-0.00968608 0.0548717 0)
(-0.000648408 0.00291118 0)
(-0.00828411 0.0118089 0)
(-0.0223295 0.0261966 0)
(-0.0508859 0.0566075 0)
(-0.14473 0.141411 0)
(-0.230803 0.236837 0)
(-0.218945 0.278934 0)
(-0.0888065 0.265234 0)
(-0.00271523 0.253529 0)
(-0.017543 0.260701 0)
(-0.0363073 0.279551 0)
(-0.0463608 0.280796 0)
(-0.0527886 0.279482 0)
(-0.0597971 0.275581 0)
(-0.0676674 0.269612 0)
(-0.0759951 0.261602 0)
(-0.0846796 0.251614 0)
(-0.094048 0.239035 0)
(-0.10665 0.222919 0)
(-0.129474 0.198223 0)
(-0.162241 0.155668 0)
(-0.179478 0.109135 0)
(-0.175083 0.0769457 0)
(-0.16682 0.056348 0)
(-0.163204 0.0417439 0)
(-0.155159 0.0378313 0)
(-0.137652 0.0460252 0)
(-0.107981 0.0679715 0)
(-0.0729571 0.115425 0)
(-0.0334187 0.123755 0)
(-0.00169782 0.00856574 0)
(-0.00853918 0.0230658 0)
(-0.0276364 0.0445074 0)
(-0.11335 0.108029 0)
(-0.174921 0.190852 0)
(-0.175902 0.245251 0)
(-0.0826437 0.262661 0)
(0.00573566 0.247797 0)
(0.00495246 0.263607 0)
(-0.0137785 0.281792 0)
(-0.0253196 0.288269 0)
(-0.0327943 0.290437 0)
(-0.0411351 0.289781 0)
(-0.0508898 0.286764 0)
(-0.0610245 0.281274 0)
(-0.0706808 0.273619 0)
(-0.0793464 0.264294 0)
(-0.086957 0.25362 0)
(-0.0941101 0.241559 0)
(-0.102486 0.227012 0)
(-0.117021 0.207784 0)
(-0.145009 0.176389 0)
(-0.166558 0.142349 0)
(-0.165025 0.119363 0)
(-0.154154 0.102841 0)
(-0.144956 0.0992345 0)
(-0.13344 0.111109 0)
(-0.119344 0.133758 0)
(-0.103197 0.171045 0)
(-0.053381 0.182888 0)
(-0.00857532 0.01554 0)
(-0.0188542 0.0391779 0)
(-0.0484739 0.0882146 0)
(-0.124724 0.147896 0)
(-0.113427 0.193713 0)
(-0.0535106 0.2329 0)
(0.0103655 0.238127 0)
(0.0160799 0.25798 0)
(0.00677568 0.274056 0)
(-0.00112066 0.286894 0)
(-0.0096791 0.294925 0)
(-0.019921 0.299356 0)
(-0.0310977 0.300276 0)
(-0.043252 0.297929 0)
(-0.0556562 0.292541 0)
(-0.0674028 0.284615 0)
(-0.0776452 0.27488 0)
(-0.0859708 0.264024 0)
(-0.0923951 0.252581 0)
(-0.0974996 0.240749 0)
(-0.102718 0.228166 0)
(-0.111966 0.213596 0)
(-0.135424 0.194469 0)
(-0.15481 0.176958 0)
(-0.140904 0.155481 0)
(-0.126981 0.148377 0)
(-0.113296 0.162305 0)
(-0.108916 0.186639 0)
(-0.111774 0.215105 0)
(-0.0714655 0.211069 0)
(-0.0336991 0.0271847 0)
(-0.0778059 0.0402432 0)
(-0.0933888 0.11153 0)
(-0.0815458 0.152233 0)
(-0.031915 0.192646 0)
(0.0140877 0.222558 0)
(0.0245646 0.243178 0)
(0.0222657 0.260929 0)
(0.0180074 0.277401 0)
(0.010879 0.291299 0)
(0.00193369 0.301451 0)
(-0.00893951 0.307636 0)
(-0.0216324 0.309875 0)
(-0.0356327 0.308211 0)
(-0.0502344 0.302904 0)
(-0.0643583 0.294584 0)
(-0.0769833 0.284106 0)
(-0.0871115 0.272439 0)
(-0.0942128 0.260488 0)
(-0.0986887 0.248819 0)
(-0.101384 0.237928 0)
(-0.103844 0.228427 0)
(-0.111462 0.221003 0)
(-0.132307 0.213616 0)
(-0.125686 0.188951 0)
(-0.106514 0.17547 0)
(-0.0921476 0.188743 0)
(-0.0895593 0.207745 0)
(-0.0982327 0.231254 0)
(-0.0790725 0.200663 0)
(-0.0102127 -0.0261064 0)
(-0.0590264 0.0123109 0)
(-0.0704678 0.10821 0)
(-0.025676 0.153755 0)
(0.0164502 0.198113 0)
(0.0311002 0.222325 0)
(0.0323104 0.241952 0)
(0.0310213 0.261306 0)
(0.0273909 0.279189 0)
(0.0213646 0.294619 0)
(0.0128533 0.306643 0)
(0.00165165 0.314713 0)
(-0.0120422 0.318386 0)
(-0.0278762 0.317461 0)
(-0.0447813 0.312146 0)
(-0.0615246 0.303283 0)
(-0.0766962 0.291968 0)
(-0.0891223 0.279205 0)
(-0.0979229 0.266142 0)
(-0.102791 0.253875 0)
(-0.104545 0.243052 0)
(-0.104406 0.23483 0)
(-0.10582 0.230662 0)
(-0.115744 0.227044 0)
(-0.109998 0.196853 0)
(-0.0903987 0.1812 0)
(-0.0780228 0.192556 0)
(-0.0717696 0.209979 0)
(-0.0666704 0.22354 0)
(-0.0448852 0.154215 0)
(0.0139049 -0.0172834 0)
(-0.0210587 0.0217535 0)
(-0.0262731 0.113707 0)
(0.0142881 0.167786 0)
(0.0337991 0.197735 0)
(0.0381382 0.218231 0)
(0.0392389 0.239649 0)
(0.0390418 0.259905 0)
(0.0367092 0.279136 0)
(0.031825 0.296341 0)
(0.0239698 0.310461 0)