/*--------------------------------*- C++ -*----------------------------------*\
| =========                 |                                                 |
| \\      /  F ield         | OpenFOAM: The Open Source CFD Toolbox           |
|  \\    /   O peration     | Version:  2.3.0                                 |
|   \\  /    A nd           | Web:      www.OpenFOAM.org                      |
|    \\/     M anipulation  |                                                 |
\*---------------------------------------------------------------------------*/
FoamFile
{
    version     2.0;
    format      ascii;
    class       volScalarField;
    location    "1.06";
    object      p;
}
// * * * * * * * * * * * * * * * * * * * * * * * * * * * * * * * * * * * * * //

dimensions      [1 -1 -2 0 0 0 0];

internalField   nonuniform List<scalar> 
6000
(
106113
106110
106101
106090
106099
106135
106147
106144
106132
106123
106110
106093
106073
106058
106055
106063
106086
106110
106128
106137
106141
106143
106146
106157
106165
106167
106176
106189
106200
106200
106054
106045
106028
106006
106003
106013
106039
106044
106040
106035
106022
106010
106008
106011
106011
106010
106013
106020
106029
106036
106043
106049
106057
106068
106082
106095
106105
106110
106107
106104
106013
106002
105975
105957
105953
105949
105956
105966
105969
105969
105964
105965
105970
105974
105978
105979
105979
105982
105987
105994
106001
106008
106015
106022
106032
106048
106062
106063
106050
106045
105959
105945
105923
105917
105914
105910
105905
105907
105913
105918
105923
105930
105935
105941
105945
105949
105953
105956
105960
105967
105974
105981
105987
105992
105997
106005
106017
106017
106008
106007
105902
105893
105879
105879
105878
105876
105873
105873
105878
105885
105891
105897
105903
105908
105914
105920
105926
105931
105937
105943
105950
105957
105963
105969
105974
105977
105982
105982
105979
105979
105855
105852
105843
105843
105843
105842
105843
105844
105849
105855
105861
105866
105871
105878
105885
105892
105900
105908
105916
105923
105929
105936
105942
105949
105954
105956
105956
105953
105953
105953
105817
105819
105812
105810
105809
105810
105811
105815
105819
105826
105832
105837
105842
105848
105857
105866
105876
105886
105896
105904
105911
105918
105924
105931
105935
105936
105932
105929
105928
105928
105785
105789
105782
105778
105777
105778
105780
105784
105789
105797
105804
105811
105815
105821
105830
105840
105852
105865
105876
105885
105893
105900
105906
105911
105913
105911
105907
105907
105905
105904
105752
105758
105750
105746
105745
105746
105750
105755
105761
105770
105779
105787
105792
105798
105806
105816
105829
105841
105852
105862
105870
105876
105881
105881
105878
105876
105878
105883
105883
105880
105716
105722
105715
105712
105713
105716
105721
105728
105736
105745
105756
105766
105771
105776
105783
105793
105804
105812
105820
105828
105834
105836
105833
105826
105822
105824
105835
105852
105859
105856
105673
105679
105677
105676
105679
105685
105693
105702
105711
105721
105733
105744
105750
105754
105761
105770
105776
105775
105775
105775
105773
105768
105761
105753
105750
105755
105769
105796
105823
105825
105625
105632
105637
105640
105646
105654
105665
105676
105685
105694
105705
105716
105725
105731
105737
105741
105734
105722
105714
105707
105700
105691
105680
105671
105667
105672
105686
105713
105750
105772
105581
105587
105598
105603
105612
105624
105637
105648
105656
105662
105668
105677
105688
105698
105701
105691
105670
105655
105645
105636
105624
105610
105595
105582
105575
105576
105587
105609
105640
105668
105543
105550
105560
105568
105580
105594
105605
105614
105619
105618
105615
105617
105627
105638
105631
105607
105590
105580
105573
105563
105548
105528
105506
105485
105472
105468
105473
105488
105517
105538
105512
105518
105525
105536
105549
105558
105563
105563
105559
105546
105533
105531
105536
105537
105523
105504
105496
105498
105497
105488
105470
105443
105411
105380
105364
105358
105348
105353
105394
105419
105485
105489
105496
105505
105512
105509
105496
105480
105462
105441
105425
105422
105424
105420
105405
105385
105386
105407
105415
105410
105391
105358
105308
105279
105269
105265
105254
105254
105276
105315
105455
105457
105464
105466
105452
105423
105396
105374
105349
105320
105301
105304
105311
105307
105289
105267
105274
105302
105327
105328
105311
105270
105234
105217
105213
105210
105210
105210
105212
105230
105405
105406
105402
105375
105336
105303
105276
105256
105236
105214
105202
105204
105205
105205
105200
105192
105200
105224
105251
105260
105246
105216
105196
105190
105187
105185
105186
105187
105184
105193
105304
105299
105270
105244
105227
105212
105197
105183
105168
105157
105152
105149
105148
105149
105150
105155
105162
105180
105200
105208
105201
105186
105176
105172
105169
105168
105167
105167
105166
105170
105207
105203
105194
105187
105180
105172
105164
105153
105142
105133
105128
105124
105120
105120
105124
105130
105137
105150
105164
105171
105170
105164
105158
105154
105151
105150
105149
105148
105149
105151
105172
105170
105169
105166
105162
105157
105149
105137
105124
105115
105110
105106
105103
105102
105104
105108
105112
105121
105131
105139
105141
105141
105140
105136
105133
105132
105132
105132
105134
105135
105158
105157
105156
105154
105150
105144
105134
105117
105100
105093
105089
105087
105085
105084
105084
105086
105089
105094
105100
105106
105111
105117
105122
105119
105117
105116
105116
105117
105120
105119
105146
105146
105145
105142
105138
105129
105113
105090
105075
105071
105068
105066
105064
105063
105063
105064
105066
105068
105069
105071
105075
105086
105099
105102
105100
105100
105100
105102
105105
105101
105134
105133
105131
105128
105121
105109
105086
105060
105049
105047
105045
105044
105043
105042
105041
105041
105042
105042
105037
105030
105028
105034
105055
105071
105075
105076
105078
105080
105077
105068
105119
105117
105115
105110
105101
105083
105052
105027
105024
105024
105023
105022
105021
105020
105019
105019
105017
105010
104996
104976
104961
104956
104968
104992
105007
105018
105024
105023
105012
105008
105099
105098
105094
105087
105074
105049
105014
104997
105000
105000
105000
105000
104999
104998
104997
104995
104988
104967
104935
104913
104905
104902
104902
104907
104915
104921
104923
104916
104906
104902
105075
105073
105068
105059
105042
105012
104981
104974
104977
104978
104978
104978
104978
104976
104975
104970
104953
104922
104899
104890
104886
104884
104882
104882
104881
104880
104879
104876
104873
104872
105046
105043
105036
105025
105006
104975
104951
104953
104955
104957
104958
104957
104956
104955
104953
104942
104919
104897
104888
104884
104881
104878
104876
104874
104872
104869
104867
104865
104864
104864
105013
105009
105002
104991
104971
104943
104930
104933
104935
104937
104938
104937
104936
104935
104930
104916
104896
104886
104881
104879
104876
104873
104871
104868
104866
104863
104862
104860
104859
104859
104979
104976
104970
104959
104941
104918
104913
104915
104917
104918
104918
104918
104917
104916
104909
104895
104883
104878
104875
104873
104870
104868
104865
104862
104860
104858
104856
104855
104854
104853
104948
104945
104940
104930
104914
104898
104897
104898
104899
104900
104900
104900
104899
104898
104890
104880
104874
104871
104869
104866
104864
104861
104859
104856
104854
104852
104850
104849
104848
104848
104919
104917
104913
104904
104890
104879
104879
104880
104881
104882
104883
104883
104883
104882
104876
104870
104867
104864
104862
104860
104857
104855
104852
104850
104847
104845
104844
104843
104842
104842
104893
104891
104887
104880
104869
104861
104862
104863
104864
104866
104867
104869
104870
104869
104865
104862
104860
104858
104855
104853
104850
104848
104845
104843
104841
104839
104838
104837
104836
104836
104867
104866
104862
104857
104848
104843
104845
104846
104848
104850
104853
104855
104858
104858
104856
104854
104853
104851
104848
104846
104843
104841
104839
104836
104835
104833
104832
104831
104830
104830
104842
104841
104839
104836
104828
104826
104828
104830
104833
104836
104840
104843
104846
104847
104847
104846
104845
104843
104841
104838
104836
104833
104831
104830
104828
104827
104826
104825
104824
104823
104817
104817
104816
104814
104809
104809
104811
104814
104818
104823
104827
104831
104834
104835
104836
104836
104836
104835
104833
104831
104828
104826
104824
104822
104821
104821
104819
104818
104817
104817
104792
104792
104794
104793
104791
104793
104795
104799
104804
104809
104814
104818
104819
104820
104821
104823
104825
104825
104824
104822
104820
104818
104816
104815
104814
104814
104813
104812
104811
104811
104768
104769
104773
104774
104773
104776
104780
104784
104790
104796
104800
104801
104801
104800
104802
104805
104809
104812
104813
104812
104811
104809
104807
104807
104807
104807
104806
104806
104805
104804
104743
104746
104752
104754
104756
104759
104764
104770
104776
104780
104781
104779
104775
104773
104775
104780
104786
104792
104797
104800
104801
104800
104799
104798
104799
104799
104799
104799
104798
104797
104718
104723
104731
104735
104738
104743
104749
104755
104759
104759
104755
104748
104741
104738
104740
104745
104754
104765
104775
104783
104788
104789
104789
104789
104789
104790
104791
104791
104791
104790
104691
104697
104707
104713
104720
104726
104732
104737
104736
104729
104718
104707
104699
104695
104697
104702
104712
104725
104741
104757
104768
104775
104777
104778
104778
104780
104782
104783
104783
104783
104660
104667
104677
104688
104698
104706
104712
104711
104702
104686
104670
104657
104649
104645
104646
104651
104661
104676
104694
104715
104737
104752
104760
104763
104764
104766
104770
104773
104774
104773
104618
104629
104642
104657
104671
104679
104680
104669
104650
104629
104612
104599
104590
104586
104587
104592
104602
104617
104635
104659
104685
104712
104731
104740
104743
104746
104751
104757
104760
104761
104571
104583
104603
104620
104634
104639
104629
104608
104585
104564
104546
104533
104524
104520
104520
104526
104535
104550
104568
104591
104617
104647
104676
104697
104708
104712
104720
104731
104738
104740
104533
104542
104559
104576
104585
104578
104558
104534
104511
104490
104473
104459
104450
104446
104446
104451
104461
104475
104493
104515
104540
104568
104597
104624
104645
104656
104665
104680
104696
104702
104497
104503
104514
104524
104520
104502
104478
104454
104430
104409
104392
104378
104369
104364
104365
104370
104380
104394
104412
104433
104456
104482
104508
104533
104554
104570
104582
104595
104614
104626
104457
104463
104467
104463
104445
104420
104394
104368
104343
104321
104303
104288
104279
104275
104275
104281
104292
104307
104325
104346
104368
104392
104415
104437
104456
104470
104480
104488
104497
104502
104413
104419
104413
104392
104364
104335
104305
104277
104250
104226
104206
104191
104182
104177
104179
104186
104197
104213
104233
104254
104277
104300
104322
104342
104358
104370
104376
104376
104372
104365
104366
104366
104345
104312
104278
104244
104211
104179
104150
104124
104103
104087
104077
104073
104075
104084
104097
104115
104136
104160
104184
104208
104230
104248
104263
104272
104274
104268
104259
104254
104310
104297
104263
104224
104186
104148
104111
104076
104044
104016
103992
103975
103965
103961
103965
103975
103992
104013
104037
104063
104089
104115
104138
104157
104171
104180
104180
104176
104172
104175
104233
104208
104170
104129
104087
104046
104006
103968
103932
103901
103874
103855
103844
103841
103846
103860
103881
103906
103934
103964
103995
104024
104050
104070
104083
104095
104102
104101
104107
104112
104124
104101
104066
104026
103983
103941
103898
103856
103815
103778
103748
103727
103714
103708
103716
103736
103764
103796
103830
103865
103900
103934
103964
103989
104004
104019
104030
104039
104049
104055
104002
103988
103958
103919
103878
103834
103788
103741
103694
103653
103623
103602
103582
103564
103571
103601
103641
103683
103725
103767
103807
103846
103882
103913
103931
103942
103961
103978
103988
103994
103890
103878
103850
103814
103773
103727
103678
103626
103578
103544
103518
103493
103461
103426
103427
103464
103515
103568
103620
103669
103715
103759
103801
103837
103860
103869
103887
103906
103915
103919
103786
103773
103746
103712
103671
103624
103573
103522
103482
103452
103427
103399
103356
103318
103315
103350
103402
103460
103519
103574
103626
103674
103720
103761
103788
103796
103806
103822
103829
103833
103685
103671
103646
103614
103574
103526
103477
103434
103402
103375
103347
103310
103268
103253
103251
103269
103313
103367
103426
103484
103539
103591
103639
103684
103715
103724
103728
103737
103742
103747
103586
103573
103551
103520
103482
103438
103395
103360
103332
103304
103272
103232
103212
103214
103212
103214
103246
103292
103345
103401
103458
103511
103561
103606
103641
103654
103655
103657
103660
103665
103491
103480
103461
103434
103398
103359
103325
103297
103269
103239
103204
103180
103180
103183
103182
103176
103191
103230
103276
103328
103382
103435
103485
103530
103566
103584
103583
103584
103587
103589
103404
103394
103378
103354
103322
103292
103265
103240
103211
103180
103154
103151
103155
103156
103155
103149
103149
103177
103218
103264
103314
103365
103413
103457
103492
103513
103516
103518
103520
103522
103322
103315
103301
103280
103257
103234
103212
103188
103158
103134
103127
103130
103132
103132
103130
103127
103121
103134
103169
103209
103253
103301
103346
103388
103422
103445
103453
103455
103459
103462
103246
103240
103230
103214
103199
103184
103167
103144
103118
103108
103109
103110
103111
103110
103108
103105
103101
103103
103128
103161
103200
103242
103285
103323
103356
103380
103390
103395
103401
103403
103175
103171
103163
103155
103147
103140
103129
103113
103097
103092
103092
103092
103091
103090
103088
103086
103083
103079
103094
103120
103153
103190
103228
103263
103294
103317
103329
103336
103341
103343
103108
103105
103100
103097
103096
103096
103094
103091
103084
103078
103076
103075
103074
103072
103070
103067
103064
103061
103066
103086
103112
103143
103175
103206
103234
103255
103267
103275
103279
103279
103043
103039
103037
103039
103044
103050
103058
103068
103070
103063
103059
103058
103058
103057
103055
103052
103047
103044
103043
103056
103076
103099
103126
103152
103176
103195
103206
103212
103214
103214
102978
102969
102972
102981
102990
103002
103018
103039
103053
103048
103044
103044
103045
103046
103044
103040
103034
103029
103027
103034
103044
103060
103080
103101
103120
103136
103144
103147
103148
103147
102917
102913
102912
102924
102936
102950
102970
102999
103028
103030
103027
103028
103031
103033
103033
103028
103021
103015
103011
103011
103013
103021
103034
103050
103065
103076
103081
103082
103081
103081
102879
102867
102863
102872
102885
102898
102917
102944
102978
102999
102997
102997
103001
103005
103008
103007
103001
102995
102990
102984
102979
102978
102985
102997
103009
103015
103017
103016
103015
103014
102844
102836
102831
102829
102838
102848
102861
102879
102900
102925
102931
102927
102931
102936
102947
102957
102962
102961
102956
102944
102930
102932
102933
102942
102951
102953
102953
102951
102949
102947
102813
102810
102805
102799
102797
102800
102802
102808
102814
102825
102836
102837
102839
102847
102862
102877
102893
102902
102904
102894
102881
102873
102875
102883
102891
102891
102888
102884
102881
102880
102788
102788
102783
102776
102768
102762
102758
102754
102758
102767
102776
102780
102781
102789
102799
102810
102823
102837
102847
102841
102831
102822
102821
102824
102827
102826
102822
102818
102814
102813
102766
102767
102764
102757
102748
102737
102729
102723
102725
102731
102738
102742
102745
102752
102761
102769
102777
102788
102796
102789
102785
102778
102768
102765
102762
102759
102755
102751
102747
102747
102743
102746
102747
102739
102729
102718
102707
102698
102696
102699
102702
102706
102711
102720
102729
102737
102742
102750
102748
102742
102742
102736
102721
102706
102699
102693
102689
102685
102683
102683
102715
102718
102722
102717
102706
102693
102679
102668
102665
102664
102666
102669
102674
102682
102693
102702
102706
102708
102698
102697
102700
102691
102673
102653
102639
102631
102626
102622
102622
102621
102679
102679
102679
102678
102669
102656
102643
102634
102630
102629
102629
102631
102634
102639
102650
102660
102663
102657
102642
102645
102647
102637
102620
102601
102585
102573
102567
102563
102561
102559
102636
102633
102630
102625
102619
102610
102603
102598
102595
102593
102593
102594
102596
102597
102601
102605
102607
102596
102582
102580
102579
102570
102558
102544
102531
102520
102512
102505
102498
102493
102588
102584
102578
102572
102567
102564
102564
102565
102562
102560
102559
102560
102560
102558
102552
102544
102547
102535
102518
102509
102502
102495
102488
102480
102472
102463
102451
102438
102427
102420
102535
102531
102526
102522
102520
102522
102529
102534
102532
102529
102528
102528
102527
102519
102502
102496
102498
102486
102463
102445
102427
102418
102414
102409
102404
102393
102375
102358
102346
102339
102473
102473
102471
102469
102474
102483
102494
102502
102504
102501
102500
102501
102497
102479
102461
102459
102463
102448
102416
102387
102361
102346
102341
102334
102324
102306
102286
102268
102256
102250
102398
102404
102407
102410
102418
102433
102452
102468
102474
102474
102472
102473
102462
102435
102419
102418
102425
102400
102362
102324
102295
102280
102270
102255
102235
102212
102190
102171
102158
102152
102320
102327
102331
102340
102349
102364
102384
102408
102434
102438
102431
102422
102400
102375
102359
102354
102347
102317
102284
102248
102220
102207
102193
102167
102138
102111
102087
102066
102050
102042
102246
102253
102261
102265
102272
102284
102300
102322
102347
102368
102358
102328
102301
102282
102269
102255
102241
102216
102189
102160
102132
102118
102098
102065
102033
102005
101981
101957
101933
101917
102179
102184
102189
102185
102188
102195
102204
102219
102237
102250
102244
102210
102187
102172
102159
102145
102134
102116
102088
102061
102032
102010
101986
101955
101924
101898
101876
101855
101834
101823
102109
102108
102109
102106
102098
102094
102095
102103
102116
102124
102119
102094
102073
102058
102047
102038
102030
102016
101989
101958
101929
101901
101875
101850
101826
101806
101791
101779
101772
101769
102026
102024
102020
102014
101994
101977
101966
101972
101985
101997
101996
101978
101958
101944
101937
101935
101928
101915
101889
101860
101836
101810
101786
101766
101750
101740
101733
101730
101731
101732
101925
101925
101915
101901
101875
101828
101806
101822
101845
101863
101870
101861
101842
101829
101827
101834
101826
101809
101788
101766
101753
101734
101718
101704
101695
101691
101689
101690
101693
101694
101811
101809
101797
101772
101736
101686
101647
101663
101699
101727
101740
101739
101724
101714
101716
101725
101715
101698
101682
101670
101670
101663
101653
101647
101642
101639
101638
101639
101639
101636
101694
101690
101677
101652
101611
101560
101525
101529
101563
101596
101614
101617
101609
101601
101603
101609
101594
101576
101566
101562
101572
101580
101577
101574
101569
101564
101559
101553
101546
101544
101582
101577
101564
101541
101503
101462
101438
101423
101435
101475
101495
101500
101496
101489
101487
101487
101462
101444
101436
101438
101451
101466
101471
101467
101461
101452
101442
101432
101426
101425
101475
101471
101459
101438
101406
101379
101365
101346
101341
101362
101386
101388
101383
101373
101361
101344
101316
101300
101298
101301
101311
101326
101335
101334
101329
101320
101311
101303
101297
101298
101375
101372
101362
101344
101317
101306
101299
101284
101264
101272
101284
101283
101270
101249
101219
101178
101158
101151
101156
101156
101161
101175
101186
101188
101184
101179
101174
101170
101166
101171
101280
101278
101270
101251
101233
101238
101237
101225
101203
101194
101190
101183
101163
101134
101095
101061
101043
101037
101035
101034
101033
101037
101040
101038
101035
101032
101032
101034
101035
101043
101191
101191
101183
101164
101161
101170
101174
101164
101141
101119
101106
101091
101071
101046
101016
100995
100980
100968
100961
100958
100956
100954
100953
100951
100950
100950
100951
100955
100958
100961
101117
101114
101107
101098
101100
101104
101105
101095
101072
101041
101018
100999
100990
100980
100966
100954
100942
100931
100925
100923
100921
100918
100914
100913
100915
100918
100922
100927
100932
100936
101057
101054
101051
101049
101047
101041
101032
101018
100994
100955
100916
100901
100905
100916
100922
100916
100907
100900
100897
100895
100893
100891
100890
100891
100895
100901
100908
100915
100921
100926
101007
101007
101007
101006
100998
100983
100965
100941
100910
100861
100815
100797
100812
100840
100868
100871
100865
100861
100859
100858
100857
100857
100859
100865
100873
100883
100892
100901
100909
100918
100963
100965
100966
100964
100953
100931
100902
100868
100826
100774
100733
100710
100716
100748
100789
100808
100809
100809
100809
100810
100813
100816
100823
100833
100844
100857
100869
100880
100889
100885
100923
100925
100926
100922
100910
100883
100846
100803
100756
100709
100679
100659
100648
100657
100688
100720
100738
100746
100752
100758
100764
100772
100782
100794
100809
100823
100836
100845
100842
100837
100884
100884
100882
100876
100864
100838
100798
100753
100708
100671
100647
100629
100613
100603
100603
100627
100655
100673
100687
100701
100714
100726
100737
100751
100766
100780
100791
100792
100790
100781
100841
100838
100834
100827
100815
100796
100763
100721
100681
100650
100629
100611
100594
100577
100566
100567
100579
100595
100615
100639
100661
100678
100691
100704
100718
100729
100735
100738
100736
100727
100797
100794
100789
100782
100772
100758
100738
100707
100671
100639
100618
100600
100581
100563
100549
100538
100531
100531
100542
100570
100604
100629
100644
100656
100668
100675
100679
100682
100681
100677
100757
100752
100747
100742
100734
100726
100714
100697
100672
100636
100611
100590
100571
100553
100536
100521
100507
100496
100492
100503
100540
100576
100596
100608
100618
100623
100625
100624
100625
100633
100717
100709
100709
100710
100706
100700
100692
100682
100664
100644
100610
100583
100561
100542
100525
100509
100493
100477
100464
100460
100475
100516
100545
100560
100567
100572
100573
100568
100571
100583
100686
100678
100673
100684
100682
100679
100675
100669
100655
100638
100612
100582
100552
100532
100515
100499
100479
100460
100446
100438
100435
100455
100490
100510
100519
100525
100524
100521
100519
100530
100655
100653
100657
100664
100667
100666
100664
100661
100653
100635
100609
100577
100550
100523
100504
100484
100459
100440
100430
100423
100417
100420
100443
100464
100475
100480
100482
100482
100478
100486
100642
100641
100641
100642
100650
100659
100656
100660
100659
100643
100612
100572
100533
100511
100482
100454
100427
100415
100412
100410
100407
100404
100416
100429
100437
100439
100442
100447
100448
100453
100633
100632
100632
100631
100632
100638
100651
100665
100675
100653
100613
100560
100496
100460
100428
100403
100390
100390
100394
100396
100396
100395
100402
100406
100408
100408
100410
100413
100421
100424
100624
100623
100623
100622
100622
100622
100627
100631
100630
100619
100581
100511
100434
100381
100359
100355
100361
100370
100377
100381
100385
100387
100392
100394
100388
100385
100386
100391
100396
100396
100614
100613
100612
100611
100609
100608
100605
100597
100581
100556
100509
100440
100376
100340
100330
100334
100344
100354
100361
100368
100374
100378
100380
100382
100373
100368
100369
100373
100375
100374
100601
100600
100599
100596
100593
100588
100579
100563
100535
100497
100442
100379
100334
100319
100319
100324
100332
100340
100347
100354
100363
100370
100367
100361
100357
100355
100356
100357
100359
100360
100585
100584
100582
100578
100571
100558
100538
100508
100470
100425
100371
100320
100300
100302
100308
100313
100319
100326
100332
100340
100352
100359
100354
100348
100346
100345
100346
100347
100349
100352
100563
100564
100561
100552
100536
100510
100472
100427
100385
100344
100300
100277
100279
100288
100295
100300
100306
100311
100316
100323
100335
100341
100339
100339
100338
100339
100339
100341
100342
100346
100532
100534
100527
100508
100476
100428
100372
100328
100299
100276
100261
100260
100268
100276
100282
100287
100292
100296
100300
100303
100312
100319
100323
100328
100331
100332
100333
100334
100335
100338
100482
100483
100467
100432
100378
100326
100293
100274
100261
100252
100250
100254
100260
100266
100271
100276
100280
100282
100284
100284
100288
100295
100303
100311
100317
100320
100320
100319
100321
100320
100413
100408
100374
100333
100301
100280
100268
100258
100250
100245
100246
100250
100254
100258
100262
100265
100268
100270
100270
100268
100267
100273
100281
100290
100297
100299
100299
100297
100298
100298
100341
100328
100309
100291
100277
100267
100257
100249
100243
100241
100243
100245
100247
100250
100253
100256
100257
100259
100259
100256
100252
100255
100263
100271
100275
100274
100271
100269
100272
100272
100300
100295
100287
100277
100267
100256
100247
100239
100236
100236
100237
100239
100240
100243
100245
100247
100248
100249
100249
100247
100243
100244
100251
100258
100256
100245
100240
100238
100238
100245
100284
100282
100276
100267
100255
100243
100235
100231
100230
100231
100232
100232
100234
100235
100237
100238
100239
100240
100240
100239
100238
100238
100243
100240
100230
100220
100216
100215
100215
100216
100275
100272
100264
100252
100239
100231
100226
100225
100225
100226
100226
100226
100227
100228
100230
100230
100231
100231
100232
100232
100232
100235
100231
100220
100209
100203
100202
100201
100200
100200
100263
100258
100248
100235
100226
100222
100221
100220
100221
100220
100220
100220
100221
100221
100222
100223
100223
100223
100224
100224
100226
100228
100217
100206
100198
100195
100193
100192
100192
100191
100249
100243
100232
100222
100218
100217
100217
100217
100216
100215
100215
100214
100214
100214
100215
100215
100215
100215
100215
100216
100218
100216
100205
100196
100191
100188
100186
100185
100184
100184
100234
100228
100219
100214
100213
100214
100214
100214
100213
100210
100209
100208
100207
100207
100207
100207
100207
100207
100207
100207
100208
100204
100196
100188
100184
100181
100179
100178
100178
100178
100219
100215
100211
100209
100209
100210
100211
100211
100208
100205
100202
100201
100200
100200
100199
100199
100198
100198
100198
100197
100197
100193
100187
100181
100177
100174
100173
100172
100172
100172
100207
100205
100204
100204
100205
100205
100205
100205
100202
100199
100195
100193
100192
100192
100191
100191
100190
100190
100189
100188
100186
100183
100180
100173
100169
100168
100166
100166
100165
100167
100196
100197
100198
100199
100199
100199
100198
100196
100193
100190
100187
100185
100184
100184
100183
100183
100182
100182
100181
100180
100178
100176
100174
100167
100163
100161
100161
100160
100160
100162
100186
100188
100191
100192
100192
100191
100189
100186
100182
100179
100177
100176
100176
100175
100175
100175
100175
100174
100174
100173
100171
100171
100169
100160
100156
100155
100155
100155
100155
100157
100176
100178
100182
100183
100182
100181
100178
100174
100170
100167
100167
100167
100167
100167
100167
100167
100167
100167
100167
100166
100166
100167
100164
100153
100150
100149
100149
100150
100150
100152
100165
100167
100170
100171
100170
100168
100164
100160
100156
100155
100157
100157
100158
100159
100159
100159
100159
100160
100160
100160
100160
100162
100159
100146
100142
100141
100142
100143
100144
100148
100154
100155
100157
100157
100156
100153
100149
100145
100142
100143
100147
100148
100149
100150
100151
100152
100152
100152
100153
100153
100154
100157
100152
100138
100134
100132
100132
100134
100138
100138
100143
100143
100143
100143
100141
100137
100133
100130
100131
100134
100137
100140
100141
100143
100143
100144
100145
100145
100146
100146
100147
100148
100144
100132
100127
100124
100124
100126
100127
100125
100132
100131
100131
100129
100125
100121
100118
100118
100122
100126
100129
100132
100134
100135
100136
100137
100138
100138
100139
100139
100139
100139
100138
100129
100124
100120
100118
100118
100117
100111
100121
100120
100119
100115
100111
100108
100108
100111
100115
100119
100122
100125
100127
100128
100129
100130
100131
100131
100132
100132
100132
100131
100134
100129
100123
100118
100113
100108
100103
100102
100112
100110
100109
100105
100101
100101
100103
100106
100110
100113
100116
100118
100120
100122
100123
100124
100124
100125
100125
100125
100125
100125
100125
100122
100116
100112
100107
100100
100093
100091
100103
100101
100100
100098
100097
100098
100100
100102
100105
100108
100110
100112
100114
100115
100117
100117
100118
100118
100119
100119
100119
100119
100114
100104
100097
100092
100087
100083
100079
100078
100096
100094
100095
100095
100095
100096
100097
100099
100101
100103
100105
100107
100108
100110
100111
100111
100112
100112
100113
100113
100114
100113
100104
100091
100083
100076
100070
100066
100064
100066
100090
100089
100091
100093
100094
100094
100095
100096
100097
100099
100100
100102
100103
100104
100105
100106
100106
100106
100107
100107
100108
100107
100095
100081
100072
100063
100056
100053
100052
100060
100086
100085
100087
100090
100092
100092
100092
100093
100094
100095
100096
100097
100098
100099
100100
100100
100101
100101
100101
100101
100102
100100
100087
100073
100063
100055
100049
100047
100049
100056
100081
100081
100083
100088
100090
100090
100090
100090
100090
100091
100092
100093
100094
100094
100095
100095
100095
100095
100095
100095
100096
100094
100079
100066
100057
100050
100046
100045
100047
100055
100077
100077
100079
100085
100088
100088
100087
100087
100087
100087
100088
100088
100089
100089
100090
100090
100090
100090
100090
100090
100090
100088
100074
100060
100052
100046
100043
100044
100051
100054
100075
100073
100075
100080
100086
100086
100084
100083
100083
100083
100084
100084
100084
100085
100085
100085
100085
100085
100085
100084
100085
100083
100070