/*--------------------------------*- C++ -*----------------------------------*\
| =========                 |                                                 |
| \\      /  F ield         | OpenFOAM: The Open Source CFD Toolbox           |
|  \\    /   O peration     | Version:  2.3.0                                 |
|   \\  /    A nd           | Web:      www.OpenFOAM.org                      |
|    \\/     M anipulation  |                                                 |
\*---------------------------------------------------------------------------*/
FoamFile
{
    version     2.0;
    format      ascii;
    class       volScalarField;
    location    "1.06";
    object      Theta.particles;
}
// * * * * * * * * * * * * * * * * * * * * * * * * * * * * * * * * * * * * * //

dimensions      [0 2 -2 0 0 0 0];

internalField   nonuniform List<scalar> 
6000
(
0.000515085
0.000202652
0.000174924
0.000270725
0.00135415
0.00238303
0.00143084
0.000695724
0.000307724
0.000338425
0.000460643
0.000892295
0.0018355
0.00288614
0.00133321
0.000503076
0.000226993
0.000284355
0.000398078
0.000414095
0.00035929
0.000285933
0.000174952
0.000132745
0.000159348
0.000372242
0.000261455
0.000219522
0.000428649
0.000465591
2.12573e-05
1.2197e-05
5.70201e-06
1.59762e-05
3.73115e-05
5.66222e-05
9.13369e-05
4.24884e-05
1.45519e-05
1.19594e-05
1.62969e-05
3.28352e-05
2.90226e-05
2.64954e-06
8.51807e-06
2.26367e-05
8.72151e-06
3.74016e-06
8.36546e-06
4.87959e-06
1.25102e-06
2.55726e-06
4.67871e-06
4.82784e-06
6.23003e-06
2.91896e-05
3.74418e-05
3.8758e-05
2.81295e-05
6.24473e-06
2.973e-05
2.91614e-05
0.000101887
0.000168331
1.68381e-05
3.62515e-05
0.000196206
0.000192495
0.000119355
6.64001e-05
5.32323e-05
4.06334e-05
1.15034e-05
2.4362e-06
2.0855e-05
8.9962e-05
0.000158941
0.000157632
0.000186593
0.000154353
0.000170218
0.000195572
0.000227788
0.00022215
0.000192783
5.56612e-05
2.64375e-05
5.41054e-05
5.30006e-05
0.000110157
6.34149e-06
7.81124e-06
0.000107737
2.4685e-05
1.49851e-05
1.48256e-05
4.26256e-05
5.25039e-05
1.50473e-05
1.35284e-05
3.50739e-06
9.86272e-07
1.10425e-06
1.57568e-06
9.2113e-07
2.54291e-06
1.02149e-05
1.64416e-06
1.46614e-06
2.80249e-06
1.2927e-06
1.3773e-06
1.41773e-06
6.83837e-06
1.0041e-05
4.23956e-06
7.35538e-06
2.80366e-05
6.99167e-06
1.20488e-05
2.50094e-06
5.42295e-05
0.000126808
2.09186e-06
5.89717e-06
2.53365e-06
2.20182e-06
1.65453e-05
9.64539e-06
8.47947e-06
1.74512e-06
2.51668e-06
1.11046e-06
5.80657e-07
1.0543e-06
1.90749e-06
4.35976e-06
3.28604e-06
2.24853e-06
1.58478e-06
1.5899e-06
2.19092e-06
3.78119e-06
1.08549e-05
9.91791e-06
1.25764e-06
4.94449e-06
3.07223e-05
3.11858e-06
3.8771e-06
2.66212e-06
0.00013477
5.791e-05
1.83602e-06
2.0064e-06
1.04633e-06
1.45301e-07
6.31524e-06
1.40912e-05
6.92076e-06
5.6808e-07
3.87143e-06
2.94207e-06
1.73824e-06
2.65544e-06
4.09854e-06
6.51243e-06
3.7512e-06
1.91581e-06
6.02825e-07
1.25272e-06
3.22976e-06
9.66871e-06
1.03089e-05
3.41259e-06
1.27153e-06
7.2641e-06
1.14366e-05
1.3446e-06
2.05462e-06
2.27922e-06
0.000158203
6.44131e-05
2.06647e-06
1.71387e-06
1.86256e-06
6.5097e-07
1.70494e-06
1.54251e-05
9.72006e-06
2.90371e-08
1.54846e-06
6.30003e-06
4.54223e-06
4.14623e-06
5.46175e-06
6.50603e-06
4.20116e-06
2.09873e-06
3.4024e-06
5.38154e-06
8.35783e-06
9.55623e-06
5.78777e-06
3.69571e-06
1.8079e-06
4.08681e-06
5.52712e-06
2.53646e-06
1.07759e-06
1.25232e-06
0.000192492
8.19447e-05
3.17973e-06
2.26588e-06
3.64169e-06
2.89926e-06
1.85888e-06
7.80784e-06
7.02997e-06
2.76087e-07
8.32617e-07
4.78987e-06
8.02632e-06
4.9083e-06
3.9258e-06
3.70308e-06
5.05472e-06
6.67837e-06
7.33824e-06
8.38113e-06
8.82368e-06
7.97792e-06
5.94737e-06
3.85455e-06
2.69738e-06
2.81714e-06
8.08836e-06
5.16624e-06
1.00116e-06
5.0263e-07
0.000239985
0.000116744
3.79036e-06
1.937e-06
3.32932e-06
4.2477e-06
3.91157e-06
2.84328e-06
1.45955e-06
9.41406e-07
3.59559e-06
2.11972e-06
5.03473e-06
4.69364e-06
2.81891e-06
4.33962e-06
6.88833e-06
5.40628e-06
5.13933e-06
5.80396e-06
6.0796e-06
5.63631e-06
4.20718e-06
2.43435e-06
2.0547e-06
2.50647e-06
7.24098e-06
5.69137e-06
5.41563e-06
4.4319e-07
0.000291857
0.000144319
3.72354e-06
1.38601e-06
1.53997e-06
2.2728e-06
1.71534e-06
1.43951e-06
7.77439e-07
8.50996e-07
3.02039e-06
3.55463e-06
3.37572e-06
3.2572e-06
2.71514e-06
6.1795e-06
6.06476e-06
3.49064e-06
2.98357e-06
3.18753e-06
3.42242e-06
2.23067e-06
1.19903e-06
9.9406e-07
9.43757e-07
1.40141e-06
4.47771e-06
3.38238e-06
1.6122e-05
8.26689e-07
0.000304154
0.00015451
4.27913e-06
1.80089e-06
1.17505e-06
3.25286e-06
4.2088e-06
1.8931e-06
1.36122e-06
1.39247e-06
2.1561e-06
1.93308e-06
3.97136e-06
3.23015e-06
4.20721e-06
6.63894e-06
2.16713e-06
9.91641e-07
8.53825e-07
8.93702e-07
9.79104e-07
1.22756e-06
1.6679e-06
1.67414e-06
1.36489e-06
1.02213e-06
1.07556e-06
2.0299e-05
1.9773e-05
1.0646e-06
0.000250708
0.000188201
5.46561e-06
4.70082e-06
3.4263e-06
3.06753e-06
5.18026e-06
6.93668e-06
2.46606e-06
2.47233e-06
2.58844e-06
2.67198e-06
4.47158e-06
1.61088e-06
6.79991e-06
1.86751e-06
3.13215e-07
2.56125e-07
3.98577e-07
9.66045e-07
2.10215e-06
2.40572e-06
2.25325e-06
2.04118e-06
1.97025e-06
2.44792e-06
5.22861e-06
1.03709e-05
3.34636e-05
5.00041e-05
0.000175663
2.4492e-05
6.78773e-06
7.06237e-06
5.25569e-06
5.48575e-06
6.95579e-06
6.34439e-06
2.92843e-06
2.28079e-06
2.29919e-06
2.08987e-06
1.61061e-06
1.16253e-06
3.12069e-06
2.28452e-07
1.03837e-07
3.65687e-07
1.20422e-06
2.09529e-06
2.24991e-06
2.40997e-06
2.01676e-06
1.76181e-06
1.45699e-06
1.90297e-06
5.4281e-06
1.06571e-05
1.5616e-05
0.000262675
2.79884e-05
2.76734e-06
1.14068e-05
8.4353e-06
6.78224e-06
6.18681e-06
6.31673e-06
4.84113e-06
2.54127e-06
1.85348e-06
1.36468e-06
1.24531e-06
5.18465e-07
2.73747e-06
3.53138e-07
7.86527e-07
1.94265e-06
2.84475e-06
3.89688e-06
3.49789e-06
3.70013e-06
2.58041e-06
2.36919e-06
1.08034e-06
5.8716e-07
8.69228e-07
3.81104e-06
1.25017e-05
8.13604e-06
0.000360467
1.07313e-05
2.0371e-05
1.50416e-05
8.68629e-06
5.45918e-06
3.41612e-06
2.72981e-06
2.2205e-06
1.4169e-06
7.66342e-07
6.56846e-07
7.61355e-07
5.65593e-07
8.87342e-07
3.41813e-06
5.56632e-06
9.17369e-06
1.376e-05
1.0814e-05
1.04937e-05
6.55699e-06
5.37874e-06
8.66845e-07
2.42988e-07
7.15305e-08
6.34763e-06
4.63796e-05
2.36921e-05
1.71941e-05
0.000364903
2.0077e-05
1.84734e-05
5.91547e-06
3.32107e-06
1.30954e-06
4.97006e-07
4.14791e-07
5.56535e-07
1.46194e-06
1.86385e-06
8.6335e-07
3.4399e-07
1.28733e-06
3.8242e-06
2.63668e-06
7.14015e-06
4.86925e-05
3.41379e-05
2.95828e-05
1.82652e-05
2.82256e-05
1.79234e-06
0.000678097
0.000774626
0.000610572
0.00147021
0.00153902
0.00012747
4.01046e-05
0.000343005
8.53883e-06
1.66171e-05
1.1417e-05
4.88626e-06
9.31923e-08
1.24151e-06
8.33929e-06
1.20728e-05
5.85858e-06
1.22663e-05
3.72389e-06
3.09877e-06
1.99245e-06
7.30489e-07
0.000642188
0.00107567
0.00055424
0.000335715
0.00015515
0.000137502
0.000227415
0.00119378
0.00129891
0.00174574
0.0018085
0.00172953
0.00140423
0.00110459
8.91888e-05
0.000611561
0.000236149
0.000710945
0.000159931
3.59655e-05
4.86135e-05
0.000169335
0.000532501
0.00102604
0.00127499
0.00129499
0.00115608
9.20612e-05
5.28446e-06
0.000950267
0.00141885
0.000575589
0.000978763
0.000890202
0.000864283
0.000756658
0.000905724
0.000858323
3.0489e-05
6.03545e-05
0.000189076
1.74697e-05
1.95455e-06
0.000279432
0.000845986
0.0017603
0.00201846
0.00187953
0.00156482
0.00167886
0.00181872
0.0018076
0.00161529
0.00127298
0.00135318
0.00126871
0.00169574
0.00156603
0.00119912
0.00116435
8.18824e-08
2.37523e-06
4.57863e-05
7.8158e-05
0.000126402
0.000155829
6.29072e-05
1.1491e-06
2.97041e-06
2.83153e-06
2.21709e-05
8.09266e-06
3.33863e-06
4.32022e-06
0.000455296
0.00150806
0.00146355
0.000640036
0.000936841
0.00129422
0.00099802
0.000427261
4.95373e-05
1.95538e-07
5.38573e-08
6.52009e-07
2.51464e-05
0.000544692
0.000771511
0.000104798
4.31921e-06
3.72106e-06
1.70811e-05
2.06618e-06
2.31753e-06
2.78236e-06
3.38257e-06
2.30216e-06
4.2634e-06
3.91545e-06
1.18853e-05
8.60734e-06
1.02377e-05
4.33893e-06
0.000132505
0.000401662
2.56721e-05
1.64868e-06
9.83008e-07
1.10422e-06
2.34139e-06
2.61143e-06
9.2621e-07
7.86411e-07
7.93358e-07
2.99034e-06
2.07689e-05
2.88964e-05
1.48327e-05
7.69192e-06
9.48424e-07
1.53482e-05
3.27606e-05
3.05195e-06
4.07521e-06
6.01786e-06
6.42868e-06
4.2547e-06
6.78786e-06
9.66541e-06
1.23086e-05
1.17495e-05
1.51876e-05
5.18589e-06
9.09115e-05
0.000223615
1.09528e-06
1.19247e-06
1.32276e-06
2.02638e-06
3.3292e-06
2.09698e-06
5.3103e-07
2.12527e-06
9.35103e-07
4.96409e-06
1.68191e-05
1.62134e-05
7.06456e-06
1.57448e-06
2.67107e-07
2.80178e-05
3.45258e-05
3.93744e-06
5.78493e-06
9.35856e-06
1.09886e-05
1.00815e-05
7.58649e-06
1.59017e-05
1.62512e-05
1.58085e-05
1.34981e-05
8.29194e-06
5.7856e-05
0.000183666
1.41021e-06
1.51734e-06
1.62651e-06
2.52254e-06
3.01429e-06
1.04168e-06
3.48096e-06
3.68134e-06
1.64843e-06
5.82e-06
8.23139e-06
9.82968e-06
4.4532e-06
3.36111e-07
7.91099e-07
3.00245e-05
3.27918e-05
3.03764e-06
5.14107e-06
7.97952e-06
1.18195e-05
1.75031e-05
9.5117e-06
8.81638e-06
1.18429e-05
1.40802e-05
1.08347e-05
1.03579e-05
3.82411e-05
0.000147666
1.6935e-06
1.72813e-06
1.81078e-06
2.70129e-06
1.83503e-06
1.05155e-06
9.73887e-06
1.41338e-06
1.54563e-06
4.37528e-06
4.84465e-06
7.82927e-06
2.93173e-06
1.41178e-07
2.32371e-06
1.19588e-05
6.49074e-05
7.95318e-06
1.53023e-05
1.71374e-05
1.10115e-05
2.38697e-05
5.94186e-05
5.96924e-05
3.55167e-07
2.29496e-06
7.83069e-06
3.03983e-05
6.28709e-05
0.000119181
1.76827e-06
1.6287e-06
1.72406e-06
2.3326e-06
1.13226e-06
1.17037e-05
1.39582e-05
4.7076e-07
1.53659e-06
3.30999e-06
2.93798e-06
8.50675e-06
5.00299e-06
3.11121e-07
7.05097e-06
3.20128e-06
0.000136308
9.72143e-05
8.6507e-05
9.5056e-05
0.000131171
0.000562541
0.00104235
0.00100093
0.000814594
0.000605801
0.000571696
0.000499744
0.000292198
0.000102385
1.59487e-06
1.37889e-06
1.51213e-06
1.99937e-06
2.83637e-06
3.38872e-05
2.3191e-05
3.73349e-07
2.6762e-06
1.04233e-06
4.49994e-06
1.87194e-05
2.41418e-06
4.49676e-06
1.31391e-05
1.69702e-05
0.000245986
0.0005029
0.000696313
0.000898099
0.00102139
0.00112014
0.00092054
0.000925457
0.00148829
0.00157242
0.00147641
0.000953055
0.000732271
9.42507e-05
1.28548e-06
1.14287e-06
1.46116e-06
3.06465e-06
1.93941e-05
3.03748e-05
1.1838e-06
2.28093e-06
1.91372e-06
6.19578e-06
1.71913e-05
1.15659e-05
1.20402e-06
8.97316e-06
2.2525e-05
0.000276284
0.000540966
0.000379968
0.000367569
0.000431707
0.000436358
5.18309e-05
2.90202e-05
6.42415e-05
0.000216794
0.000390891
0.000303143
0.000217217
0.000879143
9.68037e-05
1.09074e-06
1.179e-06
1.92324e-06
4.05659e-06
4.66322e-05
2.09379e-05
2.67556e-06
3.01542e-06
1.46197e-06
2.61501e-05
9.77387e-06
2.6007e-06
4.8178e-06
1.09258e-05
0.0001033
0.000381471
0.000143963
6.97593e-06
3.08282e-07
2.56913e-07
2.24861e-07
2.0527e-07
2.45018e-07
2.8297e-07
2.08169e-07
1.20947e-07
4.28026e-08
1.7609e-07
0.000486276
0.000104851
1.07173e-06
1.11101e-06
2.01752e-06
3.64133e-06
6.12485e-05
1.7541e-05
3.10195e-06
8.08851e-07
1.7312e-05
1.63693e-05
2.94737e-06
1.42151e-06
6.50483e-06
2.55394e-05
0.000215498
0.000173729
5.13454e-06
1.21061e-06
1.00204e-06
6.32298e-07
4.30485e-07
3.44317e-07
3.4442e-07
4.16069e-07
5.46011e-07
6.4147e-07
5.41675e-07
7.67044e-07
0.000366365
0.000109245
8.07588e-07
7.82564e-07
1.68513e-06
1.11985e-05
5.1273e-05
6.40514e-06
1.23933e-06
1.47412e-06
1.37636e-05
2.66943e-06
9.49024e-07
1.68242e-06
5.90368e-06
7.19525e-05
0.000152708
1.21748e-05
9.62301e-07
5.45501e-07
8.64478e-07
9.977e-07
7.82834e-07
5.67171e-07
4.24162e-07
4.15046e-07
5.3512e-07
5.53324e-07
5.80806e-07
7.15158e-07
0.000329703
0.000102903
6.1085e-07
7.25247e-07
1.70129e-06
2.37967e-05
4.29018e-05
1.67518e-06
4.8865e-07
2.33665e-06
2.87026e-06
7.23756e-07
8.28819e-07
1.51851e-06
6.75691e-06
5.36376e-05
2.91186e-05
1.47011e-06
8.14408e-07
7.39448e-07
7.18266e-07
8.68854e-07
8.85931e-07
6.32409e-07
4.47959e-07
4.35627e-07
5.48394e-07
5.97287e-07
6.62906e-07
6.94664e-07
0.000261722
9.05933e-05
6.23588e-07
1.07528e-06
2.46832e-06
4.17165e-05
4.01373e-05
1.06164e-06
5.75507e-07
8.95549e-07
6.11819e-07
7.17403e-07
1.06007e-06
1.18002e-06
4.19523e-06
2.17214e-05
8.7643e-06
1.244e-06
8.85065e-07
8.60004e-07
9.01423e-07
1.00941e-06
1.10522e-06
9.23677e-07
6.5237e-07
5.39297e-07
5.87184e-07
7.20914e-07
6.8147e-07
7.20152e-07
0.000202511
7.6644e-05
7.69607e-07
1.64344e-06
4.91162e-06
5.71038e-05
4.15622e-05
1.69154e-06
1.03013e-06
6.31781e-07
5.2243e-07
1.43737e-06
1.21246e-06
9.45302e-07
2.66014e-06
1.09579e-05
5.53081e-06
1.56412e-06
1.22931e-06
1.05794e-06
9.58073e-07
1.0112e-06
1.27924e-06
1.19035e-06
8.14903e-07
6.69486e-07
6.17045e-07
8.7372e-07
6.52015e-07
7.93403e-07
0.000136919
6.27276e-05
1.01733e-06
1.92671e-06
7.96295e-06
6.8116e-05
4.77699e-05
1.80533e-06
1.4378e-06
1.06018e-06
1.34977e-06
1.70223e-06
1.11088e-06
1.0486e-06
2.53577e-06
7.80962e-06
5.04305e-06
2.70413e-06
1.98852e-06
1.51714e-06
1.21933e-06
1.15608e-06
1.51095e-06
1.56679e-06
1.06028e-06
7.22655e-07
6.78499e-07
7.63739e-07
7.65157e-07
8.43424e-07
8.0663e-05
4.85712e-05
1.41319e-06
1.9086e-06
2.04345e-05
8.57281e-05
2.8804e-05
1.48533e-06
2.69425e-06
1.62628e-06
1.67903e-06
1.45608e-06
1.33437e-06
1.42486e-06
3.05794e-06
6.79189e-06
5.52944e-06
4.12414e-06
3.37493e-06
2.43288e-06
1.69528e-06
1.41959e-06
1.72263e-06
1.99189e-06
1.40368e-06
8.97481e-07
7.94392e-07
7.83828e-07
8.4642e-07
9.14445e-07
3.83773e-05
3.45567e-05
1.96143e-06
2.4321e-06
3.01238e-05
0.000119366
1.02506e-05
2.79085e-06
3.56644e-06
1.43031e-06
1.34613e-06
1.6784e-06
1.79209e-06
2.13015e-06
3.797e-06
6.00936e-06
5.37674e-06
5.04351e-06
4.99299e-06
4.09717e-06
2.68875e-06
1.8678e-06
1.82644e-06
2.24618e-06
1.83293e-06
1.21437e-06
1.01118e-06
9.37937e-07
8.21265e-07
8.91167e-07
1.48869e-05
2.18261e-05
1.70775e-06
3.12424e-06
2.90246e-05
0.000125788
3.45471e-06
5.00622e-06
2.70129e-06
1.13103e-06
1.56365e-06
2.33999e-06
2.31311e-06
2.64016e-06
4.14126e-06
5.20431e-06
4.79293e-06
4.98352e-06
5.58337e-06
5.68157e-06
4.55536e-06
2.83009e-06
2.17872e-06
2.30819e-06
2.15854e-06
1.56096e-06
1.24295e-06
1.06615e-06
8.92436e-07
8.2159e-07
5.86214e-06
1.21426e-05
1.894e-06
9.03422e-06
9.09781e-05
6.56222e-05
2.94499e-06
5.35578e-06
1.43895e-06
1.48592e-06
2.46499e-06
2.70379e-06
2.42643e-06
2.66225e-06
3.74342e-06
4.11394e-06
3.8806e-06
4.27699e-06
5.17768e-06
6.11736e-06
6.40148e-06
4.53789e-06
2.83556e-06
2.4828e-06
2.5473e-06
2.11107e-06
1.69869e-06
1.34041e-06
1.06487e-06
8.67322e-07
2.71095e-06
4.94268e-06
1.95038e-06
1.16592e-05
0.000120849
3.48149e-05
5.50881e-06
4.03128e-06
1.60753e-06
2.3959e-06
2.84941e-06
2.40783e-06
2.0327e-06
2.34e-06
2.83231e-06
2.87403e-06
2.80384e-06
3.14436e-06
3.95685e-06
5.27202e-06
6.87843e-06
6.80384e-06
4.20486e-06
3.09785e-06
2.89364e-06
2.82847e-06
2.33515e-06
1.87434e-06
1.39162e-06
1.04422e-06
2.01548e-06
1.59488e-06
2.6326e-06
4.23356e-05
0.000124075
2.97266e-06
6.26065e-06
3.23273e-06
2.42556e-06
2.71164e-06
2.22184e-06
1.6575e-06
1.62346e-06
1.75718e-06
1.75664e-06
1.69001e-06
1.70645e-06
1.96601e-06
2.50059e-06
3.48185e-06
5.16217e-06
7.21986e-06
6.3642e-06
4.42062e-06
3.6725e-06
3.77644e-06
3.46874e-06
2.82618e-06
2.0216e-06
1.4409e-06
2.7972e-06
4.69837e-07
4.29234e-06
0.000111987
6.93804e-05
4.5281e-06
6.14811e-06
3.22251e-06
2.46474e-06
1.79094e-06
1.28162e-06
1.16724e-06
1.09817e-06
1.03415e-06
9.6187e-07
8.84728e-07
8.55102e-07
9.36965e-07
1.21342e-06
1.80707e-06
2.81649e-06
4.47971e-06
6.22042e-06
5.52873e-06
5.07274e-06
4.73115e-06
4.89169e-06
4.10854e-06
3.13855e-06
2.16926e-06
5.18349e-06
4.08426e-06
2.29247e-05
9.78693e-05
8.11948e-06
6.24454e-06
5.29666e-06
2.46811e-06
1.21288e-06
8.28218e-07
7.46868e-07
6.57295e-07
6.16017e-07
5.82316e-07
5.34086e-07
4.80982e-07
4.41736e-07
4.33139e-07
4.79873e-07
6.48367e-07
1.12563e-06
2.04073e-06
3.27828e-06
4.4694e-06
5.07574e-06
5.15843e-06
5.39624e-06
5.37351e-06
4.73272e-06
3.4785e-06
1.05596e-05
9.76549e-05
9.86104e-05
9.1949e-06
5.41066e-06
6.30441e-06
3.20695e-06
8.02475e-07
3.90564e-07
3.69195e-07
3.51508e-07
3.60999e-07
3.66278e-07
3.52565e-07
3.26137e-07
2.9298e-07
2.61216e-07
2.36976e-07
2.28725e-07
2.51575e-07
3.44919e-07
6.34207e-07
1.40722e-06
2.27507e-06
2.8826e-06
3.97805e-06
4.60829e-06
5.55999e-06
5.6289e-06
4.99762e-06
2.15263e-05
0.000141914
7.30683e-05
1.68925e-05
7.6693e-06
4.12771e-06
8.1278e-07
1.31961e-07
1.29442e-07
1.63638e-07
2.06447e-07
2.38763e-07
2.5008e-07
2.44765e-07
2.28068e-07
2.04077e-07
1.77541e-07
1.52097e-07
1.32587e-07
1.2605e-07
1.42866e-07
2.03757e-07
3.70146e-07
9.84879e-07
1.89962e-06
1.66087e-06
2.27157e-06
3.41382e-06
4.18871e-06
3.7883e-06
3.84547e-05
2.90732e-05
3.9105e-05
1.65197e-05
5.0196e-06
1.42641e-06
7.91572e-08
4.26615e-08
7.3603e-08
1.22311e-07
1.68601e-07
1.97567e-07
2.08449e-07
2.04495e-07
1.89078e-07
1.66998e-07
1.41737e-07
1.15265e-07
9.02623e-08
7.19735e-08
6.90642e-08
9.35508e-08
1.57089e-07
2.6914e-07
5.78973e-07
1.07186e-06
8.65034e-07
1.26103e-06
2.37676e-06
8.0769e-07
5.49902e-05
2.49095e-05
9.11736e-06
4.387e-06
2.05053e-06
1.63928e-07
3.45401e-08
5.02576e-08
9.11513e-08
1.40942e-07
1.81537e-07
2.05964e-07
2.13309e-07
2.05785e-07
1.87039e-07
1.62863e-07
1.36118e-07
1.07318e-07
7.72279e-08
4.98645e-08
3.39117e-08
4.18404e-08
8.81812e-08
1.64456e-07
2.31184e-07
3.05833e-07
4.36901e-07
5.89872e-07
1.08373e-06
2.73378e-07
7.04989e-05
3.72261e-05
2.4308e-06
6.36683e-07
3.28091e-07
6.04189e-08
6.66996e-08
1.00295e-07
1.48708e-07
1.96477e-07
2.3286e-07
2.53262e-07
2.55286e-07
2.40673e-07
2.15469e-07
1.86235e-07
1.554e-07
1.22298e-07
8.63767e-08
4.99344e-08
2.18769e-08
1.45153e-08
4.39116e-08
1.28322e-07
1.98719e-07
1.99835e-07
3.0356e-07
5.31573e-07
9.98249e-07
1.94195e-06
0.000103935
5.2994e-05
4.3998e-07
4.3721e-08
6.95706e-08
9.59671e-08
1.33233e-07
1.83267e-07
2.37157e-07
2.84829e-07
3.18511e-07
3.37139e-07
3.38532e-07
3.1864e-07
2.85298e-07
2.45251e-07
2.03867e-07
1.61447e-07
1.16793e-07
7.02644e-08
2.88179e-08
7.10319e-09
1.48874e-08
9.56238e-08
1.94506e-07
2.03349e-07
3.91421e-07
7.84703e-07
2.22068e-06
2.1173e-05
0.000220593
6.3648e-05
2.94344e-06
9.24071e-08
1.01532e-07
1.68841e-07
2.29974e-07
2.93013e-07
3.49342e-07
3.98736e-07
4.40098e-07
4.66072e-07
4.77243e-07
4.6431e-07
4.25589e-07
3.67169e-07
3.01676e-07
2.35539e-07
1.72492e-07
1.12443e-07
5.66082e-08
1.73301e-08
7.11293e-09
6.49123e-08
2.04094e-07
2.88511e-07
6.58615e-07
1.7373e-06
9.23589e-06
0.000176003
0.000118554
8.01647e-05
6.95824e-06
1.28392e-07
1.80817e-07
2.76622e-07
3.497e-07
4.15665e-07
4.77399e-07
5.31858e-07
6.54784e-07
7.65448e-07
8.03112e-07
7.63305e-07
7.52821e-07
6.71701e-07
5.05693e-07
3.60785e-07
2.62878e-07
1.80737e-07
1.08807e-07
5.19264e-08
2.19173e-08
4.94839e-08
2.56838e-07
5.10243e-07
1.91735e-06
4.18037e-06
0.000185895
6.21042e-05
9.17034e-06
0.000110957
6.56084e-06
2.42894e-07
2.99434e-07
3.95286e-07
4.68335e-07
5.32452e-07
6.77837e-07
8.71677e-07
1.15603e-06
1.24905e-06
1.11297e-06
1.24879e-06
1.42222e-06
1.27291e-06
8.90891e-07
5.90231e-07
3.96329e-07
2.81097e-07
1.8972e-07
1.15276e-07
6.57142e-08
6.39634e-08
3.3145e-07
1.83852e-06
6.72435e-06
0.000192088
7.24004e-05
7.62996e-07
4.46628e-06
9.28036e-05
2.83808e-06
3.94909e-07
4.05508e-07
5.00665e-07
5.79786e-07
7.51089e-07
1.0077e-06
1.41098e-06
1.26926e-06
1.39426e-06
1.35869e-06
8.86749e-07
1.92616e-06
2.77426e-06
1.73687e-06
9.33042e-07
5.93134e-07
4.12031e-07
3.00645e-07
2.11401e-07
1.42217e-07
1.20565e-07
1.12528e-06
1.88757e-05
0.000182955
0.000102236
1.20352e-06
1.09814e-06
5.72065e-06
6.30752e-05
1.82856e-06
4.6325e-07
5.08822e-07
6.60372e-07
7.59535e-07
9.77976e-07
1.06377e-06
9.91468e-07
2.51694e-06
3.9588e-06
3.15888e-06
1.87938e-06
5.02827e-06
2.99732e-06
1.3177e-06
1.25064e-06
9.2341e-07
5.77395e-07
4.37377e-07
3.4158e-07
2.64345e-07
2.5125e-07
2.237e-06
3.68494e-05
8.56276e-05
2.20436e-06
1.90965e-06
1.04175e-06
8.20763e-06
4.9399e-05
1.96572e-06
6.25767e-07
9.39497e-07
8.0409e-07
9.72144e-07
8.64465e-07
8.62972e-07
2.24666e-06
1.02877e-05
1.53857e-05
1.58241e-05
1.84108e-05
5.68221e-05
9.92403e-05
5.6334e-06
1.2056e-06
8.42637e-07
7.34397e-07
5.83566e-07
4.87971e-07
4.32034e-07
4.09169e-07
1.58516e-06
1.61037e-05
5.6782e-06
5.9186e-06
5.70932e-06
2.36982e-06
1.10242e-05
3.87245e-05
2.18362e-06
1.71285e-06
1.15353e-06
1.03355e-06
9.45643e-07
7.65645e-07
1.40692e-06
5.93318e-06
9.3459e-06
1.67355e-05
2.65114e-05
0.000180805
0.000782494
0.000268603
5.62491e-05
5.0118e-06
1.02659e-06
7.65848e-07
6.79956e-07
6.26754e-07
6.48664e-07
5.51934e-07
9.49284e-07
1.08842e-05
5.5426e-06
6.87123e-06
1.4951e-05
8.20777e-06
1.0622e-05
2.5923e-05
2.23372e-06
2.23356e-06
1.43462e-06
1.1477e-06
5.6925e-07
9.83017e-07
3.22884e-06
6.94005e-06
1.232e-05
9.93444e-06
4.29996e-05
0.000778631
0.00134109
0.000347798
0.000108357
1.52026e-05
2.64451e-06
7.89117e-07
6.73011e-07
6.41594e-07
7.86812e-07
6.65248e-07
7.366e-07
8.56429e-06
6.97705e-06
3.21357e-06
1.28383e-05
1.06597e-05
7.34057e-06
1.47752e-05
2.24006e-06
2.28357e-06
1.2991e-06
1.04552e-06
5.98809e-07
1.57824e-06
5.25528e-06
7.91215e-06
4.17957e-06
5.41382e-06
0.000419181
0.00107549
0.000362306
8.07823e-05
0.000107839
5.19858e-05
6.52044e-06
9.19237e-07
6.21402e-07
6.36246e-07
7.67142e-07
8.35426e-07
7.87969e-07
5.2234e-06
7.957e-06
5.50627e-06
7.07769e-06
7.13071e-06
5.34192e-06
8.52396e-06
2.26052e-06
1.77115e-06
1.54486e-06
4.28946e-07
9.18726e-07
2.74686e-06
5.61388e-06
3.31623e-06
5.75581e-09
0.000226192
0.000875742
0.000308787
3.67857e-05
1.90687e-05
6.86112e-05
0.000101423
9.05575e-06
2.07692e-06
7.00358e-07
6.25062e-07
6.45021e-07
9.14465e-07
8.54887e-07
2.15759e-06
1.02661e-05
7.70917e-06
1.50094e-06
3.37009e-06
4.13271e-06
5.08949e-06
2.13512e-06
1.80107e-06
1.17028e-06
5.16435e-07
1.8148e-06
5.4861e-06
4.0121e-06
2.1924e-07
9.92048e-05
0.000693467
0.000260995
9.44606e-06
6.04116e-06
6.65912e-06
1.52971e-05
0.00012088
5.0226e-05
5.49831e-06
9.44989e-07
5.8337e-07
6.64053e-07
7.86607e-07
9.05649e-07
1.32095e-06
1.12764e-05
7.45771e-06
2.9823e-07
1.58154e-06
2.66763e-06
3.02908e-06
1.84039e-06
1.50478e-06
6.7821e-07
1.1121e-06
2.78152e-06
5.13649e-06
4.01936e-06
5.02871e-05
0.000459962
0.000350948
4.54648e-06
3.45976e-07
1.6441e-06
3.57105e-06
1.51461e-06
1.68254e-05
0.000114758
1.29431e-05
1.89006e-06
6.21399e-07
6.37616e-07
7.85216e-07
9.48205e-07
1.29405e-06
9.81335e-06
6.76699e-06
3.08319e-07
1.10641e-06
2.02508e-06
1.8452e-06
1.45616e-06
1.18139e-06
4.10504e-07
1.09719e-06
8.48194e-07
3.75152e-06
2.43019e-05
0.000163736
0.000296496
2.73953e-05
1.09394e-07
2.28358e-07
4.5822e-07
1.53298e-06
1.49163e-06
2.33254e-06
3.93839e-05
4.31352e-05
3.69784e-06
7.79807e-07
6.43188e-07
8.20133e-07
9.5724e-07
1.43816e-06
8.30332e-06
6.21723e-06
3.64749e-07
1.08689e-06
1.36638e-06
1.23842e-06
1.1196e-06
3.96151e-07
3.99255e-07
2.1771e-08
6.34149e-07
9.76494e-06
0.00011678
0.000156889
1.93469e-05
8.99535e-07
6.41276e-07
4.99282e-07
5.89129e-07
1.78442e-06
1.3796e-06
2.56879e-06
4.92121e-05
4.3743e-05
5.69931e-06
1.28687e-06
7.21931e-07
8.47041e-07
1.00161e-06
1.63877e-06
7.92674e-06
5.23566e-06
4.66692e-07
9.68474e-07
8.46486e-07
1.3003e-06
9.47965e-07
1.40988e-07
4.63906e-08
2.19523e-07
8.84319e-07
1.68513e-06
9.8215e-05
0.000276574
4.62569e-06
2.11701e-06
1.67104e-06
1.71559e-06
2.08591e-06
3.53556e-06
4.44907e-06
2.97015e-06
7.09013e-05
6.66047e-05
4.61156e-06
1.72705e-06
7.75479e-07
8.78136e-07
1.09963e-06
1.95918e-06
8.13977e-06
3.59649e-06
5.20766e-07
6.99842e-07
6.85911e-07
2.90926e-06
1.93715e-06
2.34514e-07
3.32514e-07
8.16765e-07
9.55853e-07
6.31271e-07
2.53682e-05
0.000238911
1.35049e-05
5.81184e-06
7.61718e-06
7.15587e-06
7.67125e-06
8.21902e-06
9.92951e-06
1.52556e-05
2.57271e-05
0.000177859
4.10447e-06
6.39347e-07
5.95527e-07
8.69955e-07
1.30612e-06
2.64457e-06
1.1171e-05
1.45655e-06
5.83406e-07
5.9625e-07
6.91438e-07
4.35035e-06
6.11622e-06
5.84336e-06
1.90334e-06
2.04342e-06
1.86189e-06
8.2835e-07
2.78898e-06
0.000149457
7.16209e-06
1.10595e-05
7.51277e-06
6.09157e-06
9.33094e-06
8.99747e-06
1.2306e-05
1.56509e-05
1.40014e-05
0.000194719
0.00025188
2.38861e-07
4.25418e-07
7.43747e-07
1.76434e-06
4.11728e-06
2.2178e-05
1.2372e-07
6.18643e-07
6.12416e-07
7.3064e-07
7.58343e-07
0.000519235
0.000288354
4.39341e-06
2.45047e-06
1.21011e-06
7.3894e-07
5.69137e-07
9.60822e-05
1.57793e-05
5.54831e-06
2.44068e-06
5.10097e-06
1.63777e-05
1.54799e-05
9.30017e-06
7.9214e-06
5.34231e-06
0.000117286
0.000506342
1.90703e-05
5.86219e-07
5.68352e-07
2.16271e-06
7.24357e-06
1.28401e-05
8.5696e-08
5.64079e-07
6.4099e-07
8.03698e-07
0.000285161
0.000219103
0.00072133
0.000266448
7.23908e-07
4.50601e-07
2.11098e-07
9.11938e-07
2.65377e-05
0.000115736
5.7454e-06
4.84208e-06
1.66993e-05
2.53109e-05
2.9483e-05
3.03293e-05
1.01127e-05
4.78165e-06
5.51902e-07
0.000431338
0.000659697
3.53015e-07
6.22047e-07
1.8231e-06
8.94372e-06
2.12421e-06
2.00508e-07
5.12571e-07
6.88847e-07
9.22719e-07
0.000182209
1.4679e-06
4.47369e-05
0.000812672
0.000187348
4.18158e-06
1.80999e-06
6.29253e-06
3.09913e-05
0.00020198
0.000116657
9.8181e-05
0.000111263
6.42371e-05
5.4192e-05
7.49765e-05
4.71524e-05
1.36667e-05
1.44156e-05
0.0001158
0.000427858
0.000364811
1.47934e-06
2.42794e-06
8.51608e-06
6.9818e-07
2.21657e-07
4.80891e-07
8.14683e-07
1.09129e-06
3.57141e-05
1.55041e-06
1.04003e-06
5.43645e-05
0.000821457
0.00031101
4.04179e-05
2.47149e-05
0.000224471
0.000199322
0.000288525
0.000154257
9.53191e-05
5.35224e-05
4.60974e-05
5.85405e-05
8.80341e-05
3.37475e-05
3.17234e-05
0.000156579
0.000536119
0.000409317
2.61458e-06
3.07172e-06
8.26195e-06
7.47632e-07
2.61986e-07
4.77596e-07
7.97436e-07
1.49545e-06
2.69861e-05
1.77663e-06
1.79012e-06
3.19632e-06
2.83205e-05
0.000609384
0.000490731
0.00021202
0.000172288
0.00023372
0.000123277
2.10994e-05
4.03132e-06
5.53631e-07
3.58441e-06
1.58409e-05
3.61478e-05
7.55736e-06
5.64354e-05
0.000300762
0.000148694
4.2893e-05
0.000142269
8.24919e-06
8.41309e-06
1.02987e-06
2.90156e-07
5.39375e-07
8.80345e-07
1.80195e-06
1.38887e-05
2.10629e-06
1.60765e-06
3.38703e-06
3.38742e-06
2.90606e-06
7.5246e-05
9.91762e-05
1.57477e-05
5.39557e-05
3.65266e-05
4.41658e-06
8.41734e-07
4.92074e-07
1.095e-06
4.74422e-06
1.51025e-05
7.70427e-06
0.000217983
0.000129855
1.82706e-05
9.25613e-06
2.3943e-05
6.0567e-05
5.46188e-06
5.76549e-07
2.71806e-07
6.05061e-07
2.68813e-06
1.55546e-06
3.53865e-06
1.92021e-06
3.94195e-07
2.50624e-06
3.96391e-06
2.63114e-06
1.11889e-06
5.725e-07
8.06547e-07
5.54708e-06
1.02741e-05
5.61213e-06
1.48933e-06
9.00493e-07
2.10412e-06
8.35373e-06
3.57418e-05
9.81767e-05
0.000125176
8.85492e-06
6.67044e-06
7.29719e-06
5.008e-06
1.53436e-05
3.75902e-05
1.58093e-06
5.42663e-07
2.11084e-06
1.73472e-06
1.65437e-06
1.29011e-06
3.07045e-07
2.74671e-07
6.6045e-07
2.94431e-06
2.70568e-06
1.14806e-06
8.94413e-07
6.68508e-07
1.43885e-06
3.53631e-06
4.15552e-06
3.14476e-06
4.22425e-06
4.83317e-06
2.36362e-05
9.75341e-05
0.000127062
3.11439e-05
5.13265e-06
4.36984e-06
5.92101e-06
4.88979e-06
2.64403e-06
5.1973e-06
2.87646e-05
8.59805e-06
3.01716e-06
7.29893e-07
7.95443e-07
1.37969e-06
2.73865e-07
4.71055e-08
2.36249e-07
1.05541e-06
2.61585e-06
1.99627e-06
1.67138e-06
1.45769e-06
1.70838e-06
2.48557e-06
2.38527e-06
2.19132e-06
5.88077e-06
1.27587e-05
5.9796e-05
0.000136323
0.000123841
1.99439e-05
3.48345e-06
2.88241e-06
4.19814e-06
3.55033e-06
2.09743e-06
1.07221e-06
1.7486e-06
6.8343e-06
3.04852e-06
5.42623e-07
2.50359e-07
3.01711e-06
8.64677e-07
7.90004e-08
1.41561e-07
6.71244e-07
2.69328e-06
1.9331e-06
2.20039e-06
2.68163e-06
2.36716e-06
3.03839e-06
1.9834e-06
8.33676e-07
2.75073e-06
1.79086e-05
0.000120217
0.00016504
9.70992e-05
1.18711e-05
1.84261e-06
2.13698e-06
2.53352e-06
1.85098e-06
1.1843e-06
7.95061e-07
2.89387e-06
5.37404e-06
2.03169e-06
2.10821e-07
8.13717e-08
6.01948e-06
1.84346e-06
1.5332e-07
2.32498e-07
9.32468e-07
1.48856e-06
1.7342e-06
3.38362e-06
4.29653e-06
3.76208e-06
2.6049e-06
1.63753e-06
2.07286e-06
2.15978e-06
4.06663e-05
0.00016782
0.000171131
3.83545e-05
1.2176e-05
9.18911e-07
8.37354e-06
2.26701e-06
9.49072e-07
3.54536e-07
1.28406e-06
4.45042e-06
3.38276e-06
5.32181e-07
1.38404e-07
3.78145e-08
1.09236e-05
4.54775e-06
5.26997e-07
3.87764e-07
1.85273e-06
3.78246e-06
3.77809e-06
4.23103e-06
4.16248e-06
6.51352e-06
6.34196e-06
3.72697e-06
1.66424e-06
1.83211e-05
5.30404e-05
5.28209e-05
7.98195e-05
9.37676e-07
9.87502e-06
5.81284e-06
4.71124e-06
4.86556e-06
4.25361e-07
5.41336e-07
2.68873e-06
2.37153e-06
6.75106e-07
2.99832e-07
1.57743e-07
4.4137e-08
1.73334e-05
1.8618e-05
8.20685e-06
7.73019e-07
1.24935e-06
4.09754e-06
6.46923e-06
7.47778e-06
5.83608e-06
4.63174e-06
5.72874e-06
9.30503e-06
2.91652e-05
3.60911e-05
2.91792e-05
7.80878e-06
0.000110089
0.00020719
7.16199e-06
1.18296e-05
1.12613e-05
4.46006e-06
2.29563e-06
3.40575e-06
1.86945e-06
6.1074e-07
4.00222e-07
3.76082e-07
3.80531e-07
5.94415e-07
3.32179e-05
0.000125473
1.59492e-05
2.94112e-06
1.16268e-06
1.99076e-06
3.97659e-06
4.36531e-06
1.33776e-05
1.83832e-05
1.66709e-05
4.72112e-05
9.12105e-05
2.32978e-05
3.13398e-06
1.17469e-05
0.000432212
0.000261296
0.000102064
9.54414e-06
1.09142e-05
9.69365e-06
9.91134e-06
3.1145e-06
6.57227e-07
4.06686e-07
4.67388e-07
6.8822e-07
1.61764e-06
3.14013e-06
0.000193883
0.000230683
3.23362e-07
2.37439e-06
2.28452e-06
2.08815e-06
1.04556e-06
1.04048e-06
2.64121e-05
1.63406e-05
2.71533e-05
8.66854e-05
5.92238e-05
1.72093e-05
1.7964e-06
7.57627e-05
5.97816e-05
2.1764e-05
9.52771e-05
2.70573e-05
8.52839e-06
1.08701e-05
1.11087e-05
6.71375e-07
3.67211e-07
4.08542e-07
6.46411e-07
1.2289e-06
2.85309e-06
8.7837e-06
4.55982e-05
0.000218036
7.43355e-05
9.33204e-07
2.09121e-06
3.60236e-06
5.6869e-06
7.65465e-06
4.29975e-06
3.34797e-05
4.31734e-05
6.07241e-05
1.57032e-05
6.10101e-06
6.03278e-07
1.60706e-05
1.20117e-05
3.55541e-06
9.04762e-06
5.07636e-05
1.688e-05
1.8781e-05
2.74099e-06
2.21643e-07
3.30259e-07
5.19988e-07
6.73413e-07
1.2602e-06
4.04645e-06
3.34228e-05
2.66232e-06
0.000193742
0.000457623
5.17691e-07
2.0916e-06
6.16308e-06
6.17385e-06
9.36021e-06
1.56186e-05
1.05507e-05
3.52451e-05
4.23502e-05
9.50233e-06
3.93104e-06
3.15491e-06
1.35783e-05
2.14056e-05
1.06821e-05
2.18311e-06
2.35139e-05
4.03215e-05
6.54473e-05
3.02952e-05
1.23618e-06
7.84468e-07
1.29047e-06
4.13245e-06