/*--------------------------------*- C++ -*----------------------------------*\
| =========                 |                                                 |
| \\      /  F ield         | OpenFOAM: The Open Source CFD Toolbox           |
|  \\    /   O peration     | Version:  2.3.0                                 |
|   \\  /    A nd           | Web:      www.OpenFOAM.org                      |
|    \\/     M anipulation  |                                                 |
\*---------------------------------------------------------------------------*/
FoamFile
{
    version     2.0;
    format      ascii;
    class       volVectorField;
    location    "1.06";
    object      U.particlesMean;
}
// * * * * * * * * * * * * * * * * * * * * * * * * * * * * * * * * * * * * * //

dimensions      [0 1 -1 0 0 0 0];

internalField   nonuniform List<vector> 
6000
(
(-0.00112479 -0.317049 0)
(0.0106542 -0.334301 0)
(0.0309526 -0.329821 0)
(0.0466842 -0.336828 0)
(0.0590541 -0.358097 0)
(0.0560536 -0.39384 0)
(0.0384161 -0.41801 0)
(0.0154896 -0.425104 0)
(0.00559102 -0.420899 0)
(0.00099827 -0.423081 0)
(-0.00363855 -0.430433 0)
(0.00137791 -0.438258 0)
(-0.016652 -0.428528 0)
(-0.0407291 -0.404996 0)
(-0.0419534 -0.381157 0)
(-0.0247622 -0.384633 0)
(-0.0112497 -0.391319 0)
(0.00327284 -0.402287 0)
(-0.00160295 -0.41162 0)
(-0.00595373 -0.401638 0)
(-0.00235673 -0.385658 0)
(0.00582837 -0.373631 0)
(0.013755 -0.379446 0)
(0.0181014 -0.382211 0)
(0.0147855 -0.37524 0)
(-0.00245336 -0.36528 0)
(-0.015659 -0.373012 0)
(-0.0185302 -0.372708 0)
(-0.0250124 -0.345936 0)
(-0.0064621 -0.284285 0)
(0.0130037 -0.00579574 0)
(0.0211317 0.00883698 0)
(0.0374 0.000677591 0)
(0.045521 -0.00303564 0)
(0.0541641 -0.0068528 0)
(0.0665261 -0.0183016 0)
(0.0627018 -0.0254032 0)
(0.0383246 -0.0130812 0)
(0.0246959 0.00390666 0)
(0.00747139 0.00025782 0)
(-0.00713948 -0.00690036 0)
(-0.0121566 -0.00884953 0)
(-0.0237481 -0.024592 0)
(-0.0307595 -0.0237897 0)
(-0.0245091 -0.0227387 0)
(-0.0239761 -0.0257111 0)
(-0.0246517 -0.0121384 0)
(-0.021743 0.00909916 0)
(-0.0178168 -0.00295978 0)
(-0.0156433 0.0181791 0)
(-0.00592626 0.033924 0)
(0.00118394 0.0228395 0)
(0.0111993 0.018545 0)
(0.00826996 0.0234511 0)
(-0.0021865 0.0279146 0)
(-0.0175009 0.0122784 0)
(-0.0290124 -0.00529296 0)
(-0.0425587 -0.0216044 0)
(-0.0323341 -0.00582876 0)
(-0.012944 -0.0262783 0)
(-0.00556452 -0.0596031 0)
(0.0104049 -0.0892075 0)
(0.0226775 -0.0951784 0)
(0.0288498 -0.0907716 0)
(0.0409271 -0.0839287 0)
(0.051995 -0.0736809 0)
(0.0557027 -0.0636332 0)
(0.0407908 -0.0487734 0)
(0.0303124 -0.0381609 0)
(0.0146145 -0.0492704 0)
(0.00185175 -0.0556451 0)
(-0.00443414 -0.0550115 0)
(-0.00909064 -0.0604879 0)
(-0.0114131 -0.0584104 0)
(-0.00811603 -0.0726003 0)
(-0.0173594 -0.0714002 0)
(-0.0322681 -0.0604737 0)
(-0.040453 -0.0544037 0)
(-0.0352767 -0.0633028 0)
(-0.0270571 -0.0691201 0)
(-0.014911 -0.0773618 0)
(-0.00590556 -0.069942 0)
(-0.00629637 -0.06868 0)
(-0.00960746 -0.0639742 0)
(-0.0130073 -0.0468204 0)
(-0.0165228 -0.0509375 0)
(-0.0204368 -0.0711979 0)
(-0.0289687 -0.0906702 0)
(-0.0178187 -0.0855958 0)
(0.0064247 -0.0932039 0)
(-0.00744388 -0.0671604 0)
(-0.000485741 -0.0967091 0)
(-0.000601143 -0.101687 0)
(0.014875 -0.101021 0)
(0.0289894 -0.0949658 0)
(0.0419345 -0.0807348 0)
(0.045276 -0.0602338 0)
(0.0400627 -0.0403173 0)
(0.034932 -0.0271996 0)
(0.0233595 -0.03469 0)
(0.0103504 -0.0424899 0)
(0.00408704 -0.0420923 0)
(-0.000358098 -0.0490399 0)
(0.00325677 -0.0518848 0)
(0.00275913 -0.0627134 0)
(-0.0101245 -0.0585602 0)
(-0.0280553 -0.0493414 0)
(-0.0423299 -0.044544 0)
(-0.0417463 -0.0539681 0)
(-0.0297881 -0.0650982 0)
(-0.0226001 -0.0731458 0)
(-0.0258566 -0.0714087 0)
(-0.0353813 -0.0743224 0)
(-0.0363767 -0.0733588 0)
(-0.0264163 -0.0638157 0)
(-0.0172397 -0.0677289 0)
(-0.0124237 -0.0842692 0)
(-0.0164254 -0.101691 0)
(-0.0119754 -0.0995777 0)
(0.0072669 -0.107588 0)
(0.00465286 -0.0850462 0)
(-0.00293299 -0.113542 0)
(-0.005171 -0.124548 0)
(0.00777146 -0.124056 0)
(0.0154912 -0.115112 0)
(0.0250734 -0.0953763 0)
(0.0290909 -0.0651468 0)
(0.0291274 -0.03931 0)
(0.0262581 -0.0291687 0)
(0.0169436 -0.0387219 0)
(0.00611911 -0.0488784 0)
(0.00411896 -0.0539101 0)
(7.83866e-05 -0.058812 0)
(0.00759138 -0.0616142 0)
(0.00660157 -0.0622084 0)
(-0.0070981 -0.0557838 0)
(-0.0215029 -0.0496949 0)
(-0.0344352 -0.0458035 0)
(-0.0359178 -0.0684282 0)
(-0.0238624 -0.0936818 0)
(-0.0225216 -0.0984671 0)
(-0.0320251 -0.087357 0)
(-0.045063 -0.0859685 0)
(-0.0488141 -0.0807566 0)
(-0.0348805 -0.0791319 0)
(-0.0239667 -0.0909409 0)
(-0.0169407 -0.107429 0)
(-0.0191454 -0.126492 0)
(-0.0102729 -0.120416 0)
(0.00700243 -0.127552 0)
(0.00823682 -0.0973904 0)
(0.00802503 -0.115564 0)
(-0.00202763 -0.126939 0)
(0.00688627 -0.129044 0)
(0.00364866 -0.118052 0)
(0.00618641 -0.0990412 0)
(0.00988886 -0.070888 0)
(0.0124092 -0.047197 0)
(0.0107226 -0.0342863 0)
(0.002335 -0.0424253 0)
(-0.00498835 -0.0549022 0)
(-0.00635142 -0.0562282 0)
(-0.00839677 -0.0593587 0)
(0.00622146 -0.0626094 0)
(0.00660778 -0.0586908 0)
(-0.00365198 -0.0522734 0)
(-0.0132834 -0.0453563 0)
(-0.0221295 -0.0441399 0)
(-0.0209733 -0.0777859 0)
(-0.0179265 -0.101534 0)
(-0.0224983 -0.102109 0)
(-0.0336319 -0.0882068 0)
(-0.046924 -0.0813271 0)
(-0.0541581 -0.0767082 0)
(-0.0410437 -0.0848023 0)
(-0.0321514 -0.101175 0)
(-0.029668 -0.119199 0)
(-0.0260441 -0.138281 0)
(-0.0105406 -0.129794 0)
(0.00583366 -0.133929 0)
(0.00453181 -0.103323 0)
(0.0104143 -0.118214 0)
(0.011415 -0.128015 0)
(0.00851562 -0.12506 0)
(0.00658086 -0.115 0)
(-0.0010733 -0.092468 0)
(-0.00325039 -0.0640731 0)
(-0.00294195 -0.0404029 0)
(-0.0069864 -0.0334172 0)
(-0.0146159 -0.0439877 0)
(-0.0200295 -0.05578 0)
(-0.0197842 -0.0537961 0)
(-0.018249 -0.0553264 0)
(0.00335497 -0.0578289 0)
(0.00200797 -0.0527358 0)
(-0.0112374 -0.0555149 0)
(-0.0176427 -0.0533293 0)
(-0.0145873 -0.0621647 0)
(-0.0106915 -0.0893327 0)
(-0.0149107 -0.103073 0)
(-0.0227502 -0.0963371 0)
(-0.035455 -0.0797687 0)
(-0.0478618 -0.0753075 0)
(-0.0546879 -0.0766308 0)
(-0.0465263 -0.0857746 0)
(-0.0435766 -0.104681 0)
(-0.0396704 -0.123937 0)
(-0.0321627 -0.140803 0)
(-0.0152029 -0.13418 0)
(0.00462375 -0.135828 0)
(0.00662741 -0.106373 0)
(0.0131642 -0.117267 0)
(0.0162703 -0.125433 0)
(0.0187715 -0.119658 0)
(0.00930281 -0.104411 0)
(0.00187116 -0.0776523 0)
(-0.00922308 -0.0483372 0)
(-0.0166081 -0.0260043 0)
(-0.0211469 -0.0260056 0)
(-0.028314 -0.0398286 0)
(-0.0335626 -0.0511755 0)
(-0.0291725 -0.0514548 0)
(-0.022255 -0.0488002 0)
(-0.00136528 -0.0513252 0)
(-0.00314825 -0.0470076 0)
(-0.012733 -0.054299 0)
(-0.0197962 -0.0619581 0)
(-0.0128164 -0.0716126 0)
(-0.00779158 -0.0860248 0)
(-0.0165469 -0.0936562 0)
(-0.0233662 -0.0857032 0)
(-0.0341647 -0.0698743 0)
(-0.0450544 -0.0657076 0)
(-0.0542685 -0.0703247 0)
(-0.0547008 -0.0836441 0)
(-0.052831 -0.10697 0)
(-0.0463974 -0.124321 0)
(-0.0364202 -0.138845 0)
(-0.0182147 -0.134939 0)
(0.00381797 -0.136647 0)
(0.00670491 -0.106425 0)
(0.0152835 -0.115152 0)
(0.0205403 -0.121377 0)
(0.0230812 -0.114823 0)
(0.0187548 -0.0923092 0)
(0.000615254 -0.0566747 0)
(-0.0106233 -0.0274399 0)
(-0.0302202 -0.00934857 0)
(-0.0321863 -0.0186227 0)
(-0.0372021 -0.0367909 0)
(-0.0417618 -0.0489812 0)
(-0.0322649 -0.0486896 0)
(-0.0225952 -0.0498486 0)
(-0.00311439 -0.0536032 0)
(-0.00502301 -0.0478531 0)
(-0.012943 -0.0552442 0)
(-0.0213476 -0.059631 0)
(-0.0180048 -0.0689546 0)
(-0.0109665 -0.0815459 0)
(-0.0185928 -0.0884092 0)
(-0.0248264 -0.0794407 0)
(-0.0316307 -0.0602991 0)
(-0.0443702 -0.0535342 0)
(-0.0580788 -0.0634773 0)
(-0.0577473 -0.0821421 0)
(-0.0577051 -0.109102 0)
(-0.0490384 -0.125157 0)
(-0.038391 -0.13914 0)
(-0.019666 -0.137386 0)
(0.0033346 -0.139042 0)
(0.00620591 -0.104234 0)
(0.0179071 -0.111522 0)
(0.0232167 -0.113959 0)
(0.0264119 -0.106749 0)
(0.0245144 -0.0819169 0)
(0.0121987 -0.0440048 0)
(-0.00143288 -0.0175969 0)
(-0.030596 -0.00394551 0)
(-0.0339009 -0.0123858 0)
(-0.0360922 -0.0304085 0)
(-0.0395054 -0.0463177 0)
(-0.0310622 -0.0490641 0)
(-0.019935 -0.0539708 0)
(-0.00428341 -0.0552636 0)
(-0.0069389 -0.0477186 0)
(-0.0161777 -0.0509002 0)
(-0.024304 -0.0529803 0)
(-0.0192149 -0.0655291 0)
(-0.0159251 -0.0810062 0)
(-0.024135 -0.0854462 0)
(-0.0306673 -0.0753072 0)
(-0.0400152 -0.0539858 0)
(-0.0500296 -0.0486869 0)
(-0.057911 -0.056119 0)
(-0.0600222 -0.0762282 0)
(-0.0573883 -0.106011 0)
(-0.0489682 -0.125332 0)
(-0.035568 -0.139675 0)
(-0.0181946 -0.140856 0)
(0.00199038 -0.142155 0)
(0.00527833 -0.103043 0)
(0.0189754 -0.111079 0)
(0.0260078 -0.109345 0)
(0.0320038 -0.0984374 0)
(0.0343477 -0.0719694 0)
(0.0226861 -0.0341905 0)
(0.0114404 -0.00529949 0)
(-0.0113873 0.00259427 0)
(-0.0218031 -0.00407528 0)
(-0.0222832 -0.0242164 0)
(-0.0294822 -0.0433885 0)
(-0.0277239 -0.0511464 0)
(-0.0185184 -0.0576988 0)
(-0.00922854 -0.0564347 0)
(-0.0125089 -0.0454687 0)
(-0.0216324 -0.0470101 0)
(-0.0275236 -0.0484258 0)
(-0.0200236 -0.0587343 0)
(-0.024485 -0.075635 0)
(-0.0349456 -0.0780846 0)
(-0.0483737 -0.0679282 0)
(-0.0583683 -0.0539231 0)
(-0.0565161 -0.0487032 0)
(-0.058413 -0.0521017 0)
(-0.0580606 -0.0709449 0)
(-0.0553363 -0.101124 0)
(-0.0469048 -0.125398 0)
(-0.0314521 -0.141723 0)
(-0.0167621 -0.142479 0)
(0.00138559 -0.145393 0)
(0.00519769 -0.104419 0)
(0.021448 -0.114326 0)
(0.0287067 -0.10699 0)
(0.0380763 -0.0918602 0)
(0.0443219 -0.067581 0)
(0.0367657 -0.0320995 0)
(0.0293298 -0.00356645 0)
(0.0173048 0.00469298 0)
(-0.00256522 0.00205432 0)
(-0.00421587 -0.0164453 0)
(-0.0149148 -0.0386025 0)
(-0.0233122 -0.0485723 0)
(-0.0201049 -0.0534859 0)
(-0.0173791 -0.051327 0)
(-0.0215945 -0.0438767 0)
(-0.0279987 -0.0453064 0)
(-0.0296505 -0.047483 0)
(-0.026407 -0.052448 0)
(-0.0307985 -0.0668142 0)
(-0.0475651 -0.0685342 0)
(-0.0635818 -0.0640546 0)
(-0.0641268 -0.0602981 0)
(-0.0624386 -0.0539164 0)
(-0.0631817 -0.0539365 0)
(-0.0587788 -0.0700807 0)
(-0.051891 -0.0967826 0)
(-0.0441018 -0.12187 0)
(-0.0262445 -0.139537 0)
(-0.0155892 -0.14289 0)
(0.00209961 -0.151676 0)
(0.00464656 -0.10679 0)
(0.0218699 -0.119968 0)
(0.0305351 -0.11016 0)
(0.0445933 -0.0911737 0)
(0.0523343 -0.0677674 0)
(0.0514607 -0.0328237 0)
(0.0449537 -0.00519414 0)
(0.0370417 0.00839198 0)
(0.0126415 0.00963063 0)
(0.00790154 -0.00926026 0)
(-0.000193791 -0.0342809 0)
(-0.0195735 -0.0443802 0)
(-0.0243095 -0.0476589 0)
(-0.0253796 -0.0465039 0)
(-0.029807 -0.042972 0)
(-0.0322386 -0.0444038 0)
(-0.0334379 -0.0424437 0)
(-0.0351166 -0.0482395 0)
(-0.0378251 -0.0581003 0)
(-0.0583954 -0.0640832 0)
(-0.0629879 -0.0688573 0)
(-0.0652342 -0.0662677 0)
(-0.066659 -0.0577514 0)
(-0.0661863 -0.0563656 0)
(-0.0588127 -0.0706519 0)
(-0.0492746 -0.0931006 0)
(-0.0402269 -0.117779 0)
(-0.0226366 -0.135847 0)
(-0.0179167 -0.141859 0)
(0.00345718 -0.157496 0)
(0.00473882 -0.109483 0)
(0.0231734 -0.124476 0)
(0.033725 -0.114319 0)
(0.0491368 -0.09442 0)
(0.0597353 -0.0696458 0)
(0.0649009 -0.038398 0)
(0.0569902 -0.00573492 0)
(0.0496306 0.0127126 0)
(0.0352198 0.0145642 0)
(0.018218 0.002077 0)
(0.0106052 -0.0267354 0)
(-0.0164329 -0.0355073 0)
(-0.0274111 -0.0391434 0)
(-0.034319 -0.0400024 0)
(-0.0389738 -0.0398154 0)
(-0.0403146 -0.0423719 0)
(-0.042697 -0.0402208 0)
(-0.0393888 -0.0427079 0)
(-0.0493073 -0.0500986 0)
(-0.0575914 -0.0636875 0)
(-0.0590561 -0.07192 0)
(-0.0633119 -0.0669215 0)
(-0.0662754 -0.0571293 0)
(-0.0675799 -0.0570086 0)
(-0.0580541 -0.0711765 0)
(-0.0474416 -0.0925901 0)
(-0.0364218 -0.115609 0)
(-0.0199693 -0.133688 0)
(-0.018212 -0.147246 0)
(0.0022775 -0.162886 0)
(0.00736305 -0.114179 0)
(0.0229727 -0.128858 0)
(0.0352473 -0.119889 0)
(0.0510874 -0.0999154 0)
(0.0657171 -0.0737972 0)
(0.0746452 -0.0441589 0)
(0.0679665 -0.0116733 0)
(0.0552269 0.0110949 0)
(0.0499624 0.0194353 0)
(0.0286573 0.0102762 0)
(0.0170423 -0.019286 0)
(-0.00725811 -0.0279112 0)
(-0.0266676 -0.0293677 0)
(-0.0384092 -0.0306977 0)
(-0.0462198 -0.0356379 0)
(-0.0496099 -0.0377527 0)
(-0.0462814 -0.0378212 0)
(-0.0428536 -0.0392636 0)
(-0.0540981 -0.0486841 0)
(-0.053856 -0.0635685 0)
(-0.0554479 -0.0701682 0)
(-0.0594664 -0.0655259 0)
(-0.0658317 -0.0555274 0)
(-0.0678677 -0.0576558 0)
(-0.0581849 -0.0734605 0)
(-0.045845 -0.0932868 0)
(-0.0359391 -0.115526 0)
(-0.0196715 -0.13549 0)
(-0.0140814 -0.156953 0)
(0.00412314 -0.167259 0)
(0.00904682 -0.119985 0)
(0.0226809 -0.134757 0)
(0.03486 -0.126019 0)
(0.0498503 -0.106365 0)
(0.0674349 -0.0750927 0)
(0.0786458 -0.0486141 0)
(0.0777223 -0.0151386 0)
(0.0630139 0.00735091 0)
(0.0580212 0.0174646 0)
(0.0456733 0.0201799 0)
(0.0289442 -0.00938842 0)
(0.00967135 -0.022522 0)
(-0.0198007 -0.0207083 0)
(-0.040793 -0.0216419 0)
(-0.0479417 -0.0258205 0)
(-0.0552534 -0.0302575 0)
(-0.0479598 -0.0346483 0)
(-0.0501261 -0.0364533 0)
(-0.0527346 -0.0475898 0)
(-0.0503551 -0.0615889 0)
(-0.051251 -0.0665888 0)
(-0.0560771 -0.0615646 0)
(-0.0646705 -0.0512229 0)
(-0.0669841 -0.0549452 0)
(-0.0569994 -0.0744525 0)
(-0.0462233 -0.0929159 0)
(-0.0358838 -0.117079 0)
(-0.0193649 -0.138146 0)
(-0.0107021 -0.1646 0)
(0.0035259 -0.170067 0)
(0.00676758 -0.129779 0)
(0.0210291 -0.142573 0)
(0.0326205 -0.135527 0)
(0.0453816 -0.113711 0)
(0.0648613 -0.0791988 0)
(0.0773514 -0.0527729 0)
(0.0828751 -0.0164409 0)
(0.0728102 0.00633927 0)
(0.0635834 0.0152439 0)
(0.0575245 0.0169229 0)
(0.0492676 0.000278224 0)
(0.0243103 -0.0173571 0)
(-0.00405562 -0.0128865 0)
(-0.0357114 -0.0105355 0)
(-0.0424929 -0.00996709 0)
(-0.0516715 -0.0180616 0)
(-0.046375 -0.029314 0)
(-0.0494853 -0.0353564 0)
(-0.0482962 -0.0439075 0)
(-0.0457971 -0.0565384 0)
(-0.0471396 -0.0607677 0)
(-0.0552121 -0.0564743 0)
(-0.0671022 -0.0478461 0)
(-0.0631155 -0.0505269 0)
(-0.0523189 -0.07391 0)
(-0.0443587 -0.0903243 0)
(-0.0331924 -0.116902 0)
(-0.0178518 -0.139413 0)
(-0.00767986 -0.166465 0)
(-0.00107061 -0.174257 0)
(0.00287809 -0.137377 0)
(0.0188899 -0.150157 0)
(0.0289325 -0.144805 0)
(0.0401166 -0.121785 0)
(0.0580169 -0.0865063 0)
(0.0746234 -0.0578451 0)
(0.0857633 -0.0197696 0)
(0.0820781 0.00632177 0)
(0.0692762 0.0158771 0)
(0.0654174 0.0155564 0)
(0.0585553 0.00754633 0)
(0.0455151 -0.00826771 0)
(0.0115609 -0.00145663 0)
(-0.0224992 0.00597399 0)
(-0.0318147 0.0108352 0)
(-0.0404451 -0.00262844 0)
(-0.038608 -0.0207834 0)
(-0.0427408 -0.0286331 0)
(-0.0409121 -0.0381505 0)
(-0.0410273 -0.0494591 0)
(-0.0443944 -0.0536714 0)
(-0.0561929 -0.0492015 0)
(-0.06828 -0.0403716 0)
(-0.0586786 -0.0426833 0)
(-0.0449238 -0.0707621 0)
(-0.0380769 -0.0854848 0)
(-0.0264661 -0.113038 0)
(-0.0139058 -0.137886 0)
(-0.00356571 -0.165923 0)
(-0.000530878 -0.180645 0)
(0.00175214 -0.142083 0)
(0.0163853 -0.155856 0)
(0.025353 -0.151718 0)
(0.0351571 -0.13132 0)
(0.0497663 -0.0946807 0)
(0.0708839 -0.0648302 0)
(0.0855893 -0.0256641 0)
(0.0907897 0.00576755 0)
(0.0814608 0.016884 0)
(0.073426 0.0195847 0)
(0.0647166 0.0192548 0)
(0.0551564 0.00857107 0)
(0.0236744 0.00968139 0)
(-0.00858507 0.0219147 0)
(-0.0186695 0.0315354 0)
(-0.0245798 0.0130382 0)
(-0.0243972 -0.00648016 0)
(-0.0313085 -0.0219514 0)
(-0.033195 -0.0291519 0)
(-0.0369046 -0.0415141 0)
(-0.0441058 -0.0454825 0)
(-0.0570259 -0.0381724 0)
(-0.0671084 -0.030596 0)
(-0.0523055 -0.036345 0)
(-0.0368782 -0.0717718 0)
(-0.0285753 -0.0870494 0)
(-0.018569 -0.11106 0)
(-0.00978269 -0.13588 0)
(0.00129041 -0.164693 0)
(0.00386386 -0.18172 0)
(0.00373793 -0.139523 0)
(0.0155077 -0.153971 0)
(0.0243666 -0.153075 0)
(0.0334765 -0.137347 0)
(0.0440949 -0.0994843 0)
(0.0680598 -0.0683502 0)
(0.0816935 -0.0284808 0)
(0.0934246 0.00638398 0)
(0.0871065 0.0222648 0)
(0.0807535 0.0254387 0)
(0.0704837 0.0297146 0)
(0.0627249 0.0268417 0)
(0.037463 0.0223889 0)
(0.0025 0.0416875 0)
(-0.00210288 0.0458454 0)
(-0.00710375 0.0281898 0)
(-0.0103185 0.0058736 0)
(-0.0189059 -0.0150619 0)
(-0.0259072 -0.0212966 0)
(-0.0334132 -0.0338565 0)
(-0.0443695 -0.0383524 0)
(-0.0573103 -0.0287249 0)
(-0.0622629 -0.0243896 0)
(-0.0414566 -0.0339073 0)
(-0.0303503 -0.074751 0)
(-0.0204129 -0.09357 0)
(-0.0118414 -0.116112 0)
(-0.00464349 -0.133751 0)
(0.00440635 -0.162445 0)
(0.0110196 -0.183475 0)
(0.00653609 -0.136847 0)
(0.0190885 -0.150936 0)
(0.0270962 -0.153581 0)
(0.0345106 -0.139685 0)
(0.0401698 -0.101467 0)
(0.0619318 -0.0700201 0)
(0.0787514 -0.0305255 0)
(0.0893267 0.0063654 0)
(0.0893095 0.027077 0)
(0.085921 0.0298878 0)
(0.0771604 0.0371544 0)
(0.0667697 0.0432868 0)
(0.0504615 0.0397607 0)
(0.0166764 0.0555505 0)
(0.00929087 0.0630368 0)
(0.00703028 0.0427833 0)
(0.00105902 0.0176284 0)
(-0.00948064 -0.00859632 0)
(-0.0196867 -0.0142566 0)
(-0.0301111 -0.0266443 0)
(-0.0441897 -0.0320506 0)
(-0.054478 -0.0227288 0)
(-0.055571 -0.0201273 0)
(-0.0317148 -0.0374812 0)
(-0.0264381 -0.0822054 0)
(-0.0145272 -0.101472 0)
(-0.00782114 -0.124283 0)
(-0.000965696 -0.137226 0)
(0.00735404 -0.160168 0)
(0.0172623 -0.178866 0)
(0.00852673 -0.136811 0)
(0.0233205 -0.152832 0)
(0.0288051 -0.153447 0)
(0.0362875 -0.142327 0)
(0.0379794 -0.103929 0)
(0.0548626 -0.0668036 0)
(0.072655 -0.0362308 0)
(0.0871817 0.00745414 0)
(0.085936 0.0300177 0)
(0.0870218 0.0358368 0)
(0.0785567 0.044993 0)
(0.06851 0.055332 0)
(0.0597225 0.0576706 0)
(0.0327316 0.0671184 0)
(0.0194446 0.0746022 0)
(0.0121807 0.0592697 0)
(0.00968445 0.0287904 0)
(-0.00343239 -0.00170608 0)
(-0.0161822 -0.00879762 0)
(-0.0280013 -0.0197523 0)
(-0.0430606 -0.025745 0)
(-0.0492465 -0.016973 0)
(-0.0472437 -0.0175464 0)
(-0.0263286 -0.0417932 0)
(-0.0267732 -0.0920341 0)
(-0.00979671 -0.111542 0)
(-0.00651896 -0.13181 0)
(0.000261727 -0.141634 0)
(0.00860921 -0.156417 0)
(0.0151176 -0.171562 0)
(0.00861745 -0.141697 0)
(0.0234182 -0.157898 0)
(0.0283354 -0.154659 0)
(0.0347035 -0.141115 0)
(0.0354437 -0.104851 0)
(0.0492285 -0.0656201 0)
(0.0655201 -0.0377992 0)
(0.0822775 0.00253799 0)
(0.0864406 0.0321533 0)
(0.0888692 0.0419064 0)
(0.0811781 0.052769 0)
(0.0711859 0.064012 0)
(0.0626264 0.0713088 0)
(0.0479415 0.07428 0)
(0.0233427 0.0799712 0)
(0.0157984 0.0727483 0)
(0.0165734 0.0401409 0)
(0.00222609 0.00534787 0)
(-0.0131643 -0.00358921 0)
(-0.0227491 -0.011254 0)
(-0.0389777 -0.0187814 0)
(-0.0448054 -0.0125666 0)
(-0.0392672 -0.0167645 0)
(-0.0217184 -0.0435417 0)
(-0.0243537 -0.100532 0)
(-0.00802026 -0.12432 0)
(-0.00838669 -0.140745 0)
(-0.00300477 -0.146572 0)
(0.0045693 -0.162779 0)
(0.00991594 -0.164474 0)
(0.00504353 -0.147503 0)
(0.0223009 -0.166709 0)
(0.0257683 -0.15803 0)
(0.0325989 -0.140567 0)
(0.0317876 -0.105498 0)
(0.0417089 -0.0639548 0)
(0.0597791 -0.0443531 0)
(0.0736631 -0.00351001 0)
(0.0833595 0.0311521 0)
(0.0889965 0.0467824 0)
(0.0851831 0.0585366 0)
(0.0757011 0.0700304 0)
(0.0634804 0.082547 0)
(0.0507702 0.0849788 0)
(0.0368471 0.0831762 0)
(0.0220487 0.0814602 0)
(0.0212313 0.0501209 0)
(0.00559236 0.0125418 0)
(-0.00956175 -0.000611872 0)
(-0.0171037 -0.00530517 0)
(-0.0319744 -0.0124254 0)
(-0.0398205 -0.00663573 0)
(-0.035453 -0.0181504 0)
(-0.0187092 -0.0490156 0)
(-0.0195116 -0.111068 0)
(-0.00824035 -0.137557 0)
(-0.00773451 -0.148682 0)
(-0.00192771 -0.155242 0)
(0.00125491 -0.170646 0)
(0.003911 -0.161905 0)
(0.00323393 -0.153894 0)
(0.0215454 -0.173626 0)
(0.0232362 -0.163983 0)
(0.0287918 -0.139124 0)
(0.0258824 -0.106658 0)
(0.0331371 -0.0652423 0)
(0.0533682 -0.0453021 0)
(0.0650454 -0.0084518 0)
(0.0788934 0.0278796 0)
(0.0870721 0.0500816 0)
(0.087931 0.0638133 0)
(0.079507 0.0764757 0)
(0.0635694 0.090307 0)
(0.0533512 0.0940912 0)
(0.0449062 0.0930273 0)
(0.0324439 0.0847085 0)
(0.0258425 0.059086 0)
(0.00940733 0.0166222 0)
(-0.00672073 0.00188967 0)
(-0.015564 -0.00423437 0)
(-0.0258039 -0.00851141 0)
(-0.0303724 -0.0018905 0)
(-0.0318536 -0.0203627 0)
(-0.0170893 -0.0668665 0)
(-0.0167801 -0.12265 0)
(-0.00662703 -0.150607 0)
(-0.00430148 -0.163461 0)
(0.000711457 -0.172659 0)
(0.000353076 -0.183993 0)
(0.00201535 -0.164519 0)
(0.00109945 -0.158226 0)
(0.0226946 -0.178175 0)
(0.0220559 -0.163399 0)
(0.0240311 -0.139602 0)
(0.021722 -0.108773 0)
(0.0254539 -0.0678991 0)
(0.0482299 -0.0435124 0)
(0.0584544 -0.00971683 0)
(0.0711798 0.0249648 0)
(0.0824233 0.0528337 0)
(0.0875434 0.0682786 0)
(0.0790184 0.0829513 0)
(0.0646836 0.0953309 0)
(0.0549172 0.100859 0)
(0.052024 0.102635 0)
(0.0488803 0.0907925 0)
(0.0299073 0.0656139 0)
(0.0103581 0.0229715 0)
(-0.00531385 0.00320234 0)
(-0.0174167 -0.00588755 0)
(-0.0226534 -0.0111912 0)
(-0.0230522 -0.00329054 0)
(-0.0265743 -0.0222585 0)
(-0.0161552 -0.0679987 0)
(-0.0120157 -0.1224 0)
(-0.00335486 -0.157138 0)
(-0.00177595 -0.172922 0)
(0.00257879 -0.187299 0)
(-0.000568803 -0.19078 0)
(0.00217411 -0.16591 0)
(-0.00275577 -0.159639 0)
(0.0200721 -0.17692 0)
(0.0203737 -0.15732 0)
(0.0198325 -0.13766 0)
(0.0170918 -0.109254 0)
(0.0199076 -0.0707579 0)
(0.0393462 -0.0414846 0)
(0.0507782 -0.010443 0)
(0.0598484 0.0268669 0)
(0.075709 0.0557261 0)
(0.0822179 0.0724088 0)
(0.0759716 0.0862577 0)
(0.0651346 0.0993021 0)
(0.0552568 0.106317 0)
(0.057345 0.110092 0)
(0.056657 0.101326 0)
(0.030575 0.0732787 0)
(0.00258899 0.0274802 0)
(-0.00804961 0.00634612 0)
(-0.0182685 -0.0021393 0)
(-0.020739 -0.00691321 0)
(-0.0210277 0.000635925 0)
(-0.0259394 -0.0153426 0)
(-0.0151877 -0.0593035 0)
(-0.00550548 -0.114099 0)
(-0.000444057 -0.152827 0)
(6.38119e-05 -0.170066 0)
(0.00158636 -0.185915 0)
(-0.00205562 -0.193322 0)
(0.00201215 -0.163381 0)
(-0.00666408 -0.161411 0)
(0.0161235 -0.173838 0)
(0.0163987 -0.147768 0)
(0.0157153 -0.132506 0)
(0.011547 -0.107743 0)
(0.0128252 -0.0731284 0)
(0.0258855 -0.0404394 0)
(0.0398801 -0.0116731 0)
(0.0485655 0.0296374 0)
(0.0661596 0.0567379 0)
(0.0730406 0.0757732 0)
(0.0730308 0.0887454 0)
(0.0639056 0.100879 0)
(0.0565825 0.111403 0)
(0.0574797 0.114769 0)
(0.0564814 0.109691 0)
(0.032042 0.0827728 0)
(0.000742583 0.0366153 0)
(-0.00754015 0.0181019 0)
(-0.0170819 0.0105729 0)
(-0.022718 0.00490467 0)
(-0.0262556 0.00755425 0)
(-0.0292424 -0.0145541 0)
(-0.020571 -0.0600046 0)
(-0.00285194 -0.106763 0)
(0.00162627 -0.145566 0)
(0.00205599 -0.161516 0)
(0.00269688 -0.178229 0)
(-0.00318238 -0.189882 0)
(0.00297008 -0.160109 0)
(-0.00838304 -0.161687 0)
(0.0117003 -0.17284 0)
(0.0111874 -0.143229 0)
(0.0116643 -0.127341 0)
(0.00541427 -0.107051 0)
(0.00501245 -0.0762256 0)
(0.0126448 -0.0395334 0)
(0.0264019 -0.0128164 0)
(0.0382143 0.0262093 0)
(0.0537702 0.0544538 0)
(0.0639569 0.0765468 0)
(0.0681826 0.0903204 0)
(0.0614646 0.103483 0)
(0.0560264 0.11378 0)
(0.0531206 0.118693 0)
(0.0484592 0.117495 0)
(0.0283856 0.0999326 0)
(-0.000233662 0.0481916 0)
(-0.0065871 0.0319581 0)
(-0.0181029 0.0226425 0)
(-0.0270576 0.0161654 0)
(-0.0295364 0.00969004 0)
(-0.0321716 -0.0205638 0)
(-0.0285273 -0.0651824 0)
(-0.00371084 -0.103822 0)
(0.00366294 -0.139986 0)
(0.00488603 -0.152789 0)
(0.00495373 -0.16598 0)
(-0.0024427 -0.182659 0)
(0.0047699 -0.156024 0)
(-0.0112411 -0.156906 0)
(0.00811533 -0.168679 0)
(0.00712419 -0.138512 0)
(0.00924319 -0.122103 0)
(0.00268233 -0.108886 0)
(-0.0018983 -0.0808535 0)
(-9.56896e-05 -0.0396226 0)
(0.013686 -0.0139495 0)
(0.0277622 0.0175573 0)
(0.0416718 0.0542295 0)
(0.0538255 0.0768204 0)
(0.0599736 0.0930275 0)
(0.0587447 0.10708 0)
(0.0544681 0.117073 0)
(0.050589 0.122969 0)
(0.041379 0.125316 0)
(0.0251923 0.115981 0)
(0.00255104 0.0643617 0)
(-0.00621212 0.0468119 0)
(-0.0216464 0.0381194 0)
(-0.0301686 0.0254913 0)
(-0.0318408 0.00993818 0)
(-0.0362777 -0.0253653 0)
(-0.026459 -0.0657701 0)
(-0.00520163 -0.102792 0)
(0.00480063 -0.134095 0)
(0.00686544 -0.143069 0)
(0.00687007 -0.155233 0)
(-0.0019141 -0.17358 0)
(0.00487573 -0.149992 0)
(-0.0174312 -0.150187 0)
(0.00343989 -0.160842 0)
(0.00323599 -0.131469 0)
(0.006593 -0.117809 0)
(-0.000546065 -0.11068 0)
(-0.00815244 -0.0867017 0)
(-0.00838207 -0.0441423 0)
(0.00577192 -0.0184423 0)
(0.0196401 0.0150813 0)
(0.0328983 0.0528331 0)
(0.0454862 0.0799835 0)
(0.0507161 0.0972185 0)
(0.0518137 0.112226 0)
(0.0474211 0.117924 0)
(0.044472 0.126006 0)
(0.0308914 0.133121 0)
(0.0188635 0.12968 0)
(0.00190452 0.0766393 0)
(-0.00939405 0.0649076 0)
(-0.020048 0.0539166 0)
(-0.0296518 0.0347455 0)
(-0.032074 0.0105726 0)
(-0.0379008 -0.0265765 0)
(-0.0197225 -0.0631292 0)
(-0.00300715 -0.101134 0)
(0.00413304 -0.129455 0)
(0.00670258 -0.134566 0)
(0.00593606 -0.146085 0)
(-0.00229669 -0.165298 0)
(0.00405679 -0.144594 0)
(-0.0177208 -0.137511 0)
(-0.00044199 -0.147551 0)
(-0.00255873 -0.124153 0)
(0.00341639 -0.112793 0)
(-0.00405343 -0.10914 0)
(-0.0127403 -0.0901338 0)
(-0.0151085 -0.0464518 0)
(0.000575373 -0.0150443 0)
(0.0153567 0.0159341 0)
(0.0276341 0.0539612 0)
(0.0388815 0.0809909 0)
(0.0448059 0.102336 0)
(0.0462607 0.11539 0)
(0.044768 0.122229 0)
(0.0387368 0.130608 0)
(0.021791 0.143029 0)
(0.0138416 0.142171 0)
(0.00166218 0.0895021 0)
(-0.0130352 0.077929 0)
(-0.0229845 0.0690886 0)
(-0.0295907 0.0421654 0)
(-0.0317726 0.0148012 0)
(-0.0354064 -0.0237809 0)
(-0.0154979 -0.0574045 0)
(-0.000430978 -0.0983351 0)
(0.00211647 -0.124525 0)
(0.00472327 -0.126113 0)
(0.00405913 -0.136132 0)
(-0.00291218 -0.156962 0)
(0.00394668 -0.138246 0)
(-0.0142593 -0.127707 0)
(-0.00274564 -0.131044 0)
(-0.0065223 -0.113447 0)
(-0.00290323 -0.103195 0)
(-0.00832567 -0.104236 0)
(-0.0174619 -0.091776 0)
(-0.0241536 -0.0443723 0)
(-0.00557951 -0.00945271 0)
(0.0138223 0.0204484 0)
(0.0249381 0.0560896 0)
(0.0353702 0.0867791 0)
(0.0424478 0.105542 0)
(0.0437688 0.121028 0)
(0.0433991 0.12633 0)
(0.0340914 0.138191 0)
(0.0166771 0.153658 0)
(0.00944604 0.15135 0)
(-0.00304594 0.0956275 0)
(-0.0238008 0.0846049 0)
(-0.0300324 0.073387 0)
(-0.0325182 0.0467007 0)
(-0.031914 0.0201529 0)
(-0.0309537 -0.0160766 0)
(-0.0114245 -0.0510551 0)
(0.000539307 -0.0928171 0)
(0.000262482 -0.118748 0)
(0.00188839 -0.119849 0)
(0.00167903 -0.128071 0)
(-0.00370999 -0.148608 0)
(0.00444034 -0.132306 0)
(-0.0114929 -0.119783 0)
(-0.00383591 -0.116503 0)
(-0.00817072 -0.105298 0)
(-0.00870827 -0.0942497 0)
(-0.0109991 -0.0976987 0)
(-0.0226465 -0.0884859 0)
(-0.0306846 -0.0428616 0)
(-0.00993098 -0.00452331 0)
(0.0138968 0.0221574 0)
(0.0244201 0.0607927 0)
(0.0336663 0.0920905 0)
(0.041542 0.112068 0)
(0.0412385 0.127117 0)
(0.0392014 0.135742 0)
(0.0281896 0.146788 0)
(0.0141347 0.163493 0)
(0.00645228 0.15608 0)
(-0.0100125 0.10385 0)
(-0.0298361 0.0903648 0)
(-0.0320182 0.0799716 0)
(-0.032346 0.0542827 0)
(-0.0299659 0.0306941 0)
(-0.022036 -0.00706778 0)
(-0.00405461 -0.0406259 0)
(0.0029097 -0.08511 0)
(0.000206687 -0.109623 0)
(-0.000150146 -0.112869 0)
(-0.000607955 -0.122003 0)
(-0.0054606 -0.141034 0)
(0.00436909 -0.126065 0)
(-0.00882009 -0.113917 0)
(-0.00400672 -0.105573 0)
(-0.0089816 -0.0977582 0)
(-0.0110527 -0.0891799 0)
(-0.0131965 -0.0911284 0)
(-0.0244162 -0.0835064 0)
(-0.0340028 -0.0437043 0)
(-0.00948738 -0.0034206 0)
(0.0163374 0.0247046 0)
(0.0247704 0.0647485 0)
(0.0322076 0.0987698 0)
(0.040935 0.116379 0)
(0.0389226 0.134641 0)
(0.0348886 0.143086 0)
(0.0255459 0.156611 0)
(0.0139904 0.173767 0)
(0.00465764 0.158365 0)
(-0.0115783 0.112856 0)
(-0.031043 0.0999111 0)
(-0.0333526 0.0889594 0)
(-0.0350038 0.0635594 0)
(-0.0312256 0.0306007 0)
(-0.0134027 -0.000948341 0)
(0.0031105 -0.0320762 0)
(0.00554257 -0.0770448 0)
(0.000578687 -0.0985751 0)
(-0.000742045 -0.106119 0)
(-0.00273898 -0.116434 0)
(-0.00653264 -0.134545 0)
(0.00431348 -0.124145 0)
(-0.00739756 -0.111428 0)
(-0.00218347 -0.102763 0)
(-0.0093695 -0.0950687 0)
(-0.00974003 -0.0889024 0)
(-0.0136098 -0.0874036 0)
(-0.0237875 -0.0808242 0)
(-0.0322185 -0.0462098 0)
(-0.0075645 -0.00275755 0)
(0.0166564 0.0284238 0)
(0.0248617 0.0671817 0)
(0.0300829 0.104632 0)
(0.0382313 0.125461 0)
(0.0361571 0.141507 0)
(0.0320555 0.150321 0)
(0.0245875 0.164229 0)
(0.0141915 0.182795 0)
(0.00533419 0.156324 0)
(-0.00894145 0.12448 0)
(-0.0294046 0.110405 0)
(-0.0349572 0.0982871 0)
(-0.036957 0.0641187 0)
(-0.0290185 0.02774 0)
(-0.0102647 0.00140494 0)
(0.00835201 -0.0244854 0)
(0.00761496 -0.0684934 0)
(0.0021374 -0.0885031 0)
(-0.00107111 -0.100848 0)
(-0.00410462 -0.112064 0)
(-0.00666465 -0.129697 0)
(0.00651702 -0.123189 0)
(-0.00764063 -0.111141 0)
(0.00183456 -0.105927 0)
(-0.00188594 -0.0996739 0)
(-0.00623288 -0.0900571 0)
(-0.0120253 -0.084784 0)
(-0.019634 -0.0810141 0)
(-0.0275778 -0.045615 0)
(-0.00538787 -0.00438992 0)
(0.0132741 0.0313908 0)
(0.0241778 0.0668263 0)
(0.0291897 0.109549 0)
(0.034816 0.131521 0)
(0.0332966 0.150432 0)
(0.0291151 0.157311 0)
(0.0242359 0.173152 0)
(0.0149119 0.187638 0)
(0.00830818 0.158237 0)
(-0.00338342 0.134601 0)
(-0.0265599 0.121985 0)
(-0.0340326 0.109489 0)
(-0.033454 0.0670202 0)
(-0.0210372 0.0290547 0)
(-0.00508264 0.00375372 0)
(0.0121172 -0.0191802 0)
(0.00947056 -0.0597928 0)
(0.00402558 -0.0827618 0)
(-0.00173321 -0.0958998 0)
(-0.00509248 -0.108613 0)
(-0.00642193 -0.131072 0)
(0.00851502 -0.122645 0)
(-0.00917746 -0.108648 0)
(0.00484574 -0.106708 0)
(0.000908945 -0.100187 0)
(-0.00686952 -0.0907168 0)
(-0.0152801 -0.0830971 0)
(-0.0157792 -0.0793808 0)
(-0.022523 -0.0433013 0)
(-0.00876822 -0.00444139 0)
(0.0092139 0.0322331 0)
(0.0223557 0.0690694 0)
(0.0256151 0.112907 0)
(0.0315641 0.139195 0)
(0.0295833 0.15634 0)
(0.0264922 0.165661 0)
(0.0241298 0.181559 0)
(0.0158827 0.191779 0)
(0.0118415 0.160872 0)
(0.00522836 0.145567 0)
(-0.0204111 0.132944 0)
(-0.0305263 0.119857 0)
(-0.0260265 0.0681213 0)
(-0.0123161 0.0322662 0)
(0.000941001 0.00816486 0)
(0.0156889 -0.0144867 0)
(0.01293 -0.0538535 0)
(0.00472086 -0.0760328 0)
(-0.00313702 -0.0895356 0)
(-0.00501266 -0.10864 0)
(-0.00853358 -0.133568 0)
(0.00991136 -0.121705 0)
(-0.0118477 -0.103466 0)
(0.00234582 -0.105122 0)
(-0.00109537 -0.0961125 0)
(-0.00889202 -0.0854468 0)
(-0.0150472 -0.0783766 0)
(-0.0137777 -0.0727089 0)
(-0.0245389 -0.0393024 0)
(-0.0141771 -0.00340729 0)
(0.00621402 0.0334127 0)
(0.0180256 0.0712605 0)
(0.0220232 0.117016 0)
(0.0286333 0.145207 0)
(0.0254311 0.164762 0)
(0.0228127 0.172509 0)
(0.023599 0.189004 0)
(0.0178033 0.192622 0)
(0.0158202 0.165157 0)
(0.0122649 0.153845 0)
(-0.0123378 0.143805 0)
(-0.0264662 0.128528 0)
(-0.0165556 0.0698348 0)
(-0.00619963 0.0326625 0)
(0.00491009 0.0125469 0)