/*--------------------------------*- C++ -*----------------------------------*\
| =========                 |                                                 |
| \\      /  F ield         | OpenFOAM: The Open Source CFD Toolbox           |
|  \\    /   O peration     | Version:  2.3.0                                 |
|   \\  /    A nd           | Web:      www.OpenFOAM.org                      |
|    \\/     M anipulation  |                                                 |
\*---------------------------------------------------------------------------*/
FoamFile
{
    version     2.0;
    format      ascii;
    class       volScalarField;
    location    "3.90034";
    object      alpha.airMean;
}
// * * * * * * * * * * * * * * * * * * * * * * * * * * * * * * * * * * * * * //

dimensions      [0 0 0 0 0 0 0];

internalField   nonuniform List<scalar> 
18816
(
0.420192
0.435615
0.418203
0.411452
0.408186
0.409841
0.413387
0.418682
0.421479
0.428094
0.429548
0.424387
0.417892
0.410185
0.399422
0.389643
0.380639
0.367497
0.354453
0.343369
0.339275
0.338536
0.346868
0.353968
0.369213
0.392438
0.424447
0.417212
0.368743
0.352458
0.320135
0.302
0.299187
0.303791
0.313455
0.32202
0.326192
0.338256
0.353396
0.353564
0.335668
0.317026
0.293231
0.270091
0.249173
0.230545
0.216949
0.208742
0.206687
0.211708
0.225918
0.239433
0.267839
0.308175
0.355105
0.360167
0.359296
0.319206
0.286382
0.27088
0.266784
0.267676
0.27013
0.273902
0.276453
0.292045
0.307386
0.314279
0.309533
0.285827
0.248164
0.220206
0.203253
0.195195
0.188507
0.184535
0.182584
0.182358
0.186317
0.193898
0.22051
0.272511
0.333459
0.347427
0.354392
0.321293
0.272112
0.258514
0.258617
0.259271
0.261149
0.262601
0.263621
0.271608
0.276355
0.273531
0.273387
0.245105
0.20777
0.175253
0.156054
0.145641
0.13876
0.136534
0.137849
0.141059
0.14883
0.153248
0.180299
0.242227
0.31895
0.340126
0.349606
0.342338
0.271014
0.252262
0.254154
0.256108
0.259301
0.260454
0.260181
0.264311
0.261448
0.248334
0.238145
0.195202
0.151441
0.107641
0.0747177
0.0496725
0.0357078
0.0343306
0.0465815
0.0677656
0.097462
0.12182
0.150109
0.219036
0.305824
0.334505
0.344093
0.346042
0.281865
0.256021
0.255909
0.259573
0.262361
0.258577
0.256585
0.255681
0.247223
0.224566
0.199953
0.142799
0.0911864
0.0498885
0.0272057
0.0167533
0.00672844
0.0063676
0.0112113
0.0260496
0.057985
0.104078
0.141055
0.205812
0.295532
0.329887
0.339213
0.346484
0.287199
0.267329
0.263549
0.268801
0.27096
0.263623
0.261281
0.254902
0.235025
0.204051
0.166949
0.109309
0.0730146
0.058633
0.0492117
0.0368459
0.0123071
0.00531233
0.00616961
0.0120605
0.0331203
0.0830781
0.141452
0.20048
0.288003
0.326363
0.335177
0.333659
0.288117
0.273557
0.269722
0.274761
0.275767
0.270868
0.268378
0.257964
0.226518
0.189886
0.146881
0.101665
0.0873879
0.0784321
0.0715955
0.0602925
0.0294612
0.00917327
0.00571442
0.00782421
0.0178339
0.0559212
0.131313
0.197443
0.282844
0.323332
0.331671
0.326771
0.290196
0.27511
0.272366
0.27641
0.277671
0.276194
0.272278
0.257798
0.22391
0.186389
0.145271
0.112588
0.103722
0.0911534
0.0829027
0.0701917
0.046915
0.0164381
0.00587018
0.00672082
0.0112436
0.034227
0.109093
0.1972
0.279121
0.320579
0.327762
0.325407
0.293065
0.275216
0.274427
0.278263
0.279476
0.277263
0.271776
0.252782
0.219723
0.186205
0.157537
0.132677
0.121117
0.103883
0.0887216
0.0784958
0.0593328
0.0263976
0.00618637
0.00606822
0.0088149
0.0209054
0.0805466
0.189354
0.276535
0.317717
0.32317
0.325055
0.294102
0.273924
0.274301
0.277568
0.278858
0.274986
0.267405
0.235595
0.216704
0.187975
0.165406
0.143406
0.129418
0.111074
0.0939076
0.0853726
0.0744849
0.0389172
0.00553922
0.00518475
0.00774898
0.0141611
0.0511396
0.155621
0.27384
0.314554
0.318434
0.324065
0.292179
0.272224
0.273035
0.276544
0.277623
0.273196
0.260782
0.226004
0.214171
0.187984
0.164013
0.143086
0.129618
0.112292
0.0966276
0.0883601
0.0793758
0.0466572
0.00464983
0.00396209
0.00666224
0.0114926
0.0317042
0.12562
0.270619
0.311533
0.313948
0.319964
0.289022
0.270599
0.270345
0.274916
0.27578
0.270736
0.252564
0.21483
0.203102
0.188344
0.157611
0.139667
0.127452
0.113517
0.100452
0.0901152
0.0791179
0.0459088
0.00377871
0.00268292
0.00495469
0.0104533
0.0231163
0.0875828
0.266486
0.309608
0.310468
0.312973
0.284644
0.269001
0.268328
0.273298
0.273442
0.266976
0.23634
0.183256
0.171287
0.184371
0.143717
0.131925
0.121804
0.111483
0.101516
0.0823132
0.0653501
0.0285108
0.00241942
0.0015808
0.00324498
0.0088088
0.0234393
0.0718256
0.262116
0.307846
0.308089
0.308372
0.279941
0.26641
0.267879
0.271677
0.270846
0.259954
0.205027
0.143402
0.142745
0.153683
0.12186
0.122964
0.111859
0.0987701
0.0841711
0.0488013
0.0312017
0.00916747
0.000571078
0.000753203
0.00187727
0.00544952
0.0233381
0.0646328
0.258324
0.306144
0.305799
0.30498
0.274702
0.261149
0.267546
0.269719
0.267554
0.247616
0.163312
0.113721
0.115374
0.120442
0.0954258
0.107464
0.0794115
0.0483748
0.0265365
0.00938584
0.00416148
0.000748266
6.76624e-05
0.000263473
0.000921468
0.00297262
0.0221312
0.0601829
0.255276
0.304826
0.302543
0.301269
0.268749
0.258376
0.265722
0.267666
0.263237
0.227388
0.12593
0.0890072
0.0889818
0.0859941
0.0576
0.073427
0.0335514
0.00853753
0.00188858
0.000369229
0.000111636
1.66578e-05
3.62961e-06
6.14565e-05
0.000393817
0.00154664
0.0183768
0.0552095
0.253005
0.303731
0.299246
0.297036
0.263396
0.259538
0.263784
0.264831
0.25673
0.202156
0.0984991
0.0658535
0.0640913
0.0602714
0.0312567
0.0242919
0.00435105
0.000429893
5.19919e-05
1.62341e-05
6.50625e-06
1.36688e-06
1.53467e-07
6.30234e-06
0.000229721
0.000771943
0.013551
0.0466603
0.250758
0.302782
0.296338
0.292003
0.259673
0.259827
0.261679
0.261527
0.248476
0.175271
0.0669605
0.0366071
0.0388754
0.0412091
0.0166669
0.00263568
0.000123911
4.36337e-05
2.59215e-05
8.53359e-06
2.54711e-06
5.15749e-07
8.9779e-08
1.78791e-06
0.000182517
0.000559186
0.00960662
0.0355545
0.248027
0.301975
0.293847
0.285813
0.257654
0.259246
0.259335
0.257434
0.235936
0.132952
0.0334446
0.0201553
0.0253555
0.0282446
0.00825477
0.000276847
3.93412e-05
4.40065e-05
1.91038e-05
4.2278e-06
8.71833e-07
1.78897e-07
5.70596e-08
2.24987e-06
0.000186129
0.000545328
0.00654239
0.0303806
0.243854
0.301005
0.291333
0.280692
0.256907
0.258429
0.256929
0.252471
0.212603
0.0821368
0.0183856
0.0104609
0.0146505
0.0183747
0.000620842
4.19503e-05
4.0225e-05
3.97128e-05
1.23004e-05
1.93627e-06
3.02278e-07
6.90551e-08
5.96693e-08
6.68318e-06
0.000278662
0.000612418
0.0031335
0.0284561
0.237847
0.299991
0.288738
0.277869
0.256642
0.257382
0.254606
0.247043
0.190598
0.0586875
0.012871
0.00567237
0.0111697
0.0128387
0.000144759
4.07166e-05
2.99193e-05
2.31848e-05
7.24949e-06
1.32497e-06
1.12362e-07
2.86779e-08
1.88028e-07
2.29149e-05
0.000559819
0.000888282
0.0029941
0.0278562
0.230798
0.298844
0.28607
0.275529
0.256497
0.256106
0.252057
0.239726
0.164714
0.0361477
0.00525923
0.00183267
0.0068647
0.00850831
0.000735406
1.35779e-05
1.5332e-05
6.28896e-06
1.39837e-06
1.38109e-07
3.22481e-08
1.73421e-08
7.18663e-07
6.63292e-05
0.00100726
0.00136473
0.00375414
0.0274047
0.222591
0.297668
0.283416
0.274223
0.256236
0.25471
0.249637
0.230965
0.138048
0.0217396
0.00119746
0.000309724
0.00326432
0.00545054
0.00063741
2.89937e-06
6.6528e-06
1.16151e-06
1.22941e-08
1.64863e-09
3.30765e-10
3.25728e-08
1.92311e-06
0.000160086
0.0016527
0.0022342
0.00414988
0.0272486
0.214247
0.296469
0.280672
0.273036
0.255849
0.253305
0.246995
0.219659
0.110191
0.0119347
0.000165978
2.01201e-05
0.000575662
0.00206599
0.000166931
4.59229e-07
1.76282e-06
1.90204e-07
1.2105e-08
1.05939e-09
2.31512e-10
6.93825e-08
3.63188e-06
0.000263131
0.00185374
0.0029846
0.00407141
0.0266099
0.206154
0.295077
0.278221
0.272317
0.254966
0.251599
0.244309
0.206378
0.0848488
0.00716665
6.27031e-05
1.14276e-07
8.56052e-06
0.000129512
5.28799e-06
9.42734e-09
8.81036e-08
3.35625e-08
6.6563e-10
5.13924e-12
1.99336e-10
8.68155e-08
4.69911e-06
0.00027609
0.00148129
0.00294711
0.00398197
0.0255513
0.198592
0.292717
0.275999
0.271525
0.254178
0.250118
0.241243
0.191476
0.0642551
0.00393804
3.70281e-05
2.22946e-08
5.64493e-09
3.86651e-07
3.50279e-09
2.14292e-09
8.85673e-08
2.25002e-08
7.1237e-10
3.10443e-12
2.64142e-10
5.15412e-08
3.41718e-06
0.000153136
0.000980506
0.00243786
0.00417026
0.0241558
0.192677
0.290308
0.271447
0.270386
0.252865
0.248157
0.236303
0.172553
0.0462546
0.000387222
1.11509e-06
1.04704e-09
3.507e-11
4.75102e-13
9.02641e-13
1.46998e-10
1.61587e-09
7.93432e-10
1.59943e-10
3.71592e-13
2.08355e-11
2.31226e-09
1.00656e-07
2.6225e-05
0.000418324
0.00157952
0.00409742
0.0225889
0.186503
0.287024
0.431928
0.407366
0.400461
0.394858
0.393309
0.396208
0.400775
0.404674
0.40346
0.404216
0.402903
0.39265
0.375635
0.353668
0.329758
0.308179
0.290072
0.271931
0.257092
0.246081
0.242193
0.243159
0.252822
0.262231
0.284628
0.325877
0.383579
0.430826
0.390342
0.350927
0.329124
0.314539
0.309734
0.306562
0.300953
0.293906
0.282575
0.272037
0.268018
0.250236
0.222222
0.188006
0.160103
0.13774
0.122302
0.108608
0.0989723
0.0932615
0.0909309
0.0935052
0.102075
0.113093
0.13953
0.186547
0.255415
0.357907
0.375377
0.350822
0.316993
0.300026
0.285616
0.269377
0.245387
0.225374
0.21399
0.224732
0.240187
0.217712
0.195221
0.17589
0.145004
0.125029
0.115142
0.105555
0.095641
0.0895253
0.0845865
0.0831537
0.0863318
0.0917215
0.111851
0.160456
0.238398
0.329762
0.362094
0.336331
0.297155
0.274379
0.263314
0.243925
0.21907
0.202706
0.198299
0.208897
0.220803
0.210115
0.186311
0.169285
0.144137
0.124276
0.112745
0.10109
0.0900795
0.0847524
0.080875
0.0815258
0.0847186
0.0832442
0.0994654
0.148396
0.232474
0.319464
0.351376
0.313237
0.276119
0.265713
0.252154
0.227521
0.204257
0.194706
0.19378
0.205081
0.218822
0.212572
0.180793
0.150705
0.125936
0.0931477
0.0642008
0.0413232
0.0280174
0.026385
0.03581
0.0555524
0.0793822
0.0923397
0.0939248
0.138171
0.225767
0.312643
0.343398
0.30611
0.253158
0.249939
0.234412
0.212778
0.199109
0.196712
0.198432
0.205819
0.214667
0.203856
0.163572
0.120909
0.0846008
0.050799
0.0309864
0.0218777
0.0122558
0.0096613
0.0117572
0.0237876
0.051612
0.0888273
0.105942
0.13498
0.219366
0.307258
0.336952
0.306636
0.244791
0.233301
0.219829
0.204455
0.192411
0.1911
0.198438
0.202683
0.207907
0.190563
0.144441
0.0977825
0.0728457
0.0634505
0.054957
0.0455588
0.020326
0.0103374
0.00936178
0.0137013
0.0307051
0.0707833
0.11092
0.133721
0.216318
0.302466
0.33142
0.292871
0.243189
0.230069
0.218046
0.205737
0.194165
0.193041
0.199621
0.199926
0.200829
0.180567
0.133564
0.0957931
0.088525
0.0825364
0.0755371
0.0686077
0.0374174
0.0147789
0.00939304
0.0108048
0.0186957
0.0479478
0.102932
0.131303
0.214231
0.298415
0.32652
0.284236
0.244509
0.229863
0.219222
0.20907
0.200126
0.200956
0.203236
0.200948
0.195044
0.176016
0.139206
0.110116
0.103863
0.0919539
0.0834983
0.0741677
0.0514536
0.0211996
0.00943793
0.00887404
0.0132262
0.0296338
0.0840019
0.136631
0.213017
0.294407
0.320952
0.281764
0.246063
0.229482
0.219664
0.209887
0.201011
0.203404
0.206487
0.204241
0.187865
0.170996
0.149763
0.127676
0.116017
0.0958778
0.0802204
0.0765128
0.0599447
0.0284357
0.0086622
0.00697857
0.0101868
0.0184949
0.0624656
0.14103
0.213156
0.290447
0.314341
0.281278
0.247289
0.228057
0.218676
0.207203
0.199398
0.204697
0.21484
0.183656
0.176681
0.163145
0.148227
0.133243
0.121114
0.104008
0.0837442
0.0769519
0.0701218
0.0379012
0.00622863
0.00534448
0.00795211
0.0121022
0.0399159
0.117432
0.212503
0.286184
0.307549
0.281458
0.246505
0.226662
0.21795
0.204587
0.198905
0.209532
0.215406
0.173183
0.169587
0.156674
0.139493
0.122476
0.11399
0.0941346
0.0789257
0.0734961
0.0653187
0.0428823
0.0045465
0.00375762
0.00618237
0.00967135
0.0249555
0.0945303
0.210558
0.282369
0.302912
0.279036
0.245036
0.226427
0.216522
0.202491
0.199092
0.213265
0.213693
0.165843
0.15492
0.156513
0.130935
0.119065
0.111418
0.0995346
0.0874202
0.0765054
0.0663579
0.0406701
0.00354753
0.00250807
0.00448496
0.00924883
0.0193629
0.0618477
0.207505
0.279892
0.301554
0.27335
0.24387
0.227086
0.215064
0.201064
0.200197
0.217225
0.203106
0.135351
0.125361
0.147596
0.115333
0.111318
0.104408
0.0952037
0.0889246
0.0662933
0.0530692
0.0240961
0.00208823
0.00157074
0.0028456
0.00811119
0.0206458
0.0505462
0.204119
0.278348
0.301239
0.269934
0.241911
0.227306
0.213949
0.200485
0.202375
0.216566
0.178199
0.107795
0.106633
0.12321
0.0951148
0.103786
0.0909076
0.080042
0.0688396
0.0358043
0.0231028
0.0070863
0.000456965
0.000957544
0.00171054
0.00503787
0.0210173
0.0469261
0.200865
0.277409
0.300114
0.268028
0.238892
0.224077
0.21262
0.200334
0.204021
0.210441
0.141613
0.0854153
0.0843539
0.0976926
0.0697835
0.0932954
0.0600857
0.0349734
0.0193368
0.0058909
0.0027875
0.000511246
5.59932e-05
0.00058755
0.00114253
0.00302222
0.0199098
0.044789
0.197339
0.276807
0.29654
0.266072
0.234871
0.222819
0.210288
0.200346
0.204265
0.196393
0.107664
0.0607029
0.0622092
0.0651775
0.0416496
0.0530821
0.0234428
0.00460752
0.000884441
0.000194
6.34782e-05
9.39363e-06
6.96201e-06
0.000356801
0.000884772
0.00220942
0.0161514
0.0421494
0.192858
0.275867
0.292161
0.263218
0.231004
0.222334
0.206922
0.198754
0.201749
0.176697
0.0826249
0.0464431
0.0457069
0.0475274
0.0221041
0.0139014
0.00231289
0.00022416
4.55418e-05
1.64909e-05
5.72889e-06
9.71169e-07
2.02006e-06
0.000182173
0.000830771
0.00179484
0.0127443
0.0360244
0.187709
0.274735
0.287938
0.258481
0.227765
0.219334
0.203247
0.195688
0.196743
0.154786
0.0563872
0.0263076
0.0276624
0.0341431
0.0105439
0.00156519
8.58855e-05
5.42281e-05
3.15651e-05
7.72013e-06
1.88157e-06
3.43522e-07
3.53359e-07
6.08338e-05
0.000797946
0.00167243
0.0105644
0.0254296
0.182142
0.273739
0.284584
0.252247
0.225073
0.215448
0.198713
0.19083
0.18799
0.116583
0.0266065
0.0090843
0.0123509
0.0199629
0.0032214
0.000107439
5.37254e-05
5.80019e-05
2.4136e-05
3.30645e-06
4.81903e-07
1.02135e-07
7.45541e-08
1.30491e-05
0.000656016
0.00161401
0.00876067
0.0218244
0.176069
0.272526
0.281706
0.2472
0.222616
0.211232
0.193635
0.185435
0.169844
0.070685
0.0120793
0.00123928
0.00296239
0.00672136
0.00013157
5.07959e-05
5.29959e-05
5.1338e-05
1.54225e-05
1.40097e-06
1.5819e-07
4.58178e-08
3.43999e-07
1.50972e-05
0.00054966
0.00159975
0.00576918
0.0206494
0.169938
0.271256
0.278991
0.243825
0.220263
0.206965
0.189101
0.181154
0.152635
0.0519723
0.00993907
0.00326468
0.00609347
0.00768101
0.000140702
4.08639e-05
2.87404e-05
1.92512e-05
4.86728e-06
7.5292e-07
5.61453e-08
1.09858e-07
2.71732e-06
5.04341e-05
0.000781128
0.00192925
0.00537742
0.0201238
0.164467
0.269746
0.276224
0.241109
0.217857
0.202653
0.185194
0.176579
0.131931
0.0334795
0.00457921
0.00150753
0.00517271
0.00591719
0.000747809
9.15421e-06
1.15773e-05
4.05098e-06
4.58886e-07
3.57265e-08
8.38249e-09
6.58692e-07
1.55694e-05
0.000165142
0.00147855
0.00261249
0.00610636
0.0199964
0.159227
0.268145
0.273533
0.239246
0.215565
0.198842
0.182594
0.172211
0.111721
0.0218042
0.00176561
0.000358217
0.00287699
0.00454134
0.000659258
3.29966e-06
5.09251e-06
1.12752e-06
2.44071e-08
2.16224e-09
7.46502e-10
2.45401e-06
5.60129e-05
0.000505593
0.0025805
0.00363355
0.00666232
0.0202808
0.154318
0.266279
0.270659
0.237566
0.213265
0.195649
0.180766
0.166099
0.0899476
0.0139636
0.000694049
3.67266e-05
0.000565971
0.00185716
0.000166078
9.61416e-07
6.82951e-06
1.68872e-06
3.00456e-08
1.32496e-09
9.58354e-10
5.12107e-06
0.000136063
0.00117035
0.00357373
0.00474607
0.00665852
0.0205142
0.149789
0.26396
0.26813
0.236167
0.2107
0.19278
0.179541
0.158372
0.0702778
0.0097055
0.000385072
1.18171e-06
8.76472e-06
0.00010484
4.68702e-06
6.22198e-08
1.30834e-05
3.46063e-06
1.9944e-08
3.03898e-11
1.29548e-09
5.94021e-06
0.000186603
0.0016
0.00361156
0.00518971
0.00675273
0.0202201
0.144735
0.25948
0.266176
0.235309
0.208569
0.190813
0.178717
0.149575
0.0539928
0.00596214
0.000226481
4.60483e-07
1.98381e-08
2.62537e-07
2.46162e-09
2.75744e-08
1.91225e-05
5.10311e-06
3.34545e-08
2.90212e-11
1.47677e-09
2.45893e-06
0.000110711
0.00155883
0.00350904
0.00531746
0.00732671
0.0197718
0.14125
0.255958
0.260651
0.23237
0.2053
0.188695
0.177384
0.136306
0.0382703
0.000963268
4.64861e-06
7.13682e-09
4.83455e-10
4.5986e-12
1.22027e-11
4.04507e-09
1.10645e-06
2.56391e-07
2.49096e-09
6.29891e-12
1.63151e-10
2.53572e-08
4.58228e-06
0.000537868
0.00268463
0.00521802
0.00768734
0.0189314
0.137136
0.251081
0.426974
0.40156
0.375814
0.362829
0.354518
0.351349
0.351067
0.351945
0.350396
0.348336
0.349473
0.337188
0.313993
0.290171
0.266418
0.245873
0.229738
0.214665
0.203038
0.1951
0.192732
0.194173
0.202233
0.211697
0.233526
0.274222
0.332318
0.403084
0.36631
0.283614
0.245384
0.225411
0.212657
0.203667
0.197859
0.194195
0.19082
0.186368
0.18597
0.172775
0.146607
0.121065
0.0994419
0.0821717
0.0720524
0.0628013
0.0563626
0.0533884
0.0523684
0.0523227
0.0553953
0.0617999
0.0776083
0.112419
0.171803
0.290366
0.322855
0.243281
0.196775
0.167946
0.150057
0.137456
0.124201
0.11661
0.112361
0.117893
0.126498
0.126003
0.115085
0.104758
0.0833578
0.0700807
0.0656489
0.0589248
0.052313
0.0512636
0.0525877
0.0549611
0.0579664
0.0635058
0.0727386
0.0937613
0.142116
0.242957
0.288751
0.211489
0.155974
0.131611
0.117006
0.109082
0.103209
0.0988841
0.095768
0.100007
0.108006
0.109268
0.10522
0.105902
0.088935
0.0778336
0.0737277
0.0616822
0.0519686
0.0512192
0.0524612
0.057078
0.0632949
0.0673104
0.0761579
0.0926965
0.137526
0.225603
0.267771
0.220078
0.14391
0.114705
0.106069
0.101352
0.0971259
0.0949571
0.0928336
0.0987876
0.113339
0.121365
0.114983
0.105823
0.0939597
0.0718968
0.0495855
0.0319391
0.0218565
0.0199055
0.0257293
0.0388403
0.0567337
0.072329
0.0846463
0.0942766
0.135574
0.214736
0.254899
0.231623
0.152007
0.123104
0.116183
0.109891
0.101928
0.0976572
0.101876
0.108598
0.123959
0.131381
0.115248
0.0925512
0.0698295
0.0479194
0.0345077
0.0269692
0.0189837
0.0153845
0.0155151
0.0218128
0.0400345
0.0678724
0.0918459
0.0972908
0.136027
0.207467
0.247664
0.237624
0.164834
0.143891
0.134493
0.121809
0.109933
0.106308
0.113756
0.118511
0.126798
0.129518
0.109322
0.0821904
0.0693602
0.0657893
0.0599079
0.0525968
0.0305092
0.0192879
0.0169333
0.0182491
0.028352
0.054947
0.0848405
0.0956534
0.136137
0.201278
0.242752
0.228384
0.176339
0.163462
0.149966
0.13212
0.118484
0.119562
0.126676
0.127712
0.125217
0.127536
0.112431
0.0904627
0.085903
0.0810765
0.0757581
0.0722736
0.0437847
0.0229757
0.017664
0.0166837
0.0219571
0.0402539
0.074738
0.0939325
0.13606
0.196079
0.238354
0.223823
0.183882
0.173332
0.157361
0.139905
0.127062
0.132089
0.133448
0.134894
0.127568
0.132343
0.124366
0.105127
0.0945787
0.0845084
0.0825161
0.0744745
0.0491725
0.0257594
0.016975
0.0142505
0.0190872
0.0294007
0.063397
0.0995857
0.135269
0.191092
0.233786
0.222902
0.187828
0.176259
0.157902
0.141349
0.126652
0.132921
0.138611
0.149005
0.138641
0.134506
0.13048
0.113134
0.0919206
0.0769668
0.0706337
0.0668741
0.04832
0.02755
0.0136814
0.0108445
0.016504
0.0226972
0.0505342
0.099098
0.135124
0.187023
0.228549
0.222403
0.190158
0.176005
0.156521
0.13799
0.12372
0.135613
0.153178
0.126514
0.124727
0.121212
0.108271
0.0995553
0.0785576
0.0609429
0.0493544
0.0425191
0.0472809
0.0305642
0.00827355
0.00770551
0.0128402
0.0170297
0.0357647
0.0842383
0.133851
0.18343
0.223198
0.222833
0.190878
0.175953
0.155951
0.133505
0.122463
0.143717
0.159941
0.116199
0.115776
0.11144
0.0891453
0.0733465
0.0606707
0.0395094
0.0339359
0.0327212
0.0306466
0.0319587
0.00475389
0.00512371
0.00959939
0.0135791
0.0257225
0.0704099
0.131535
0.18051
0.220058
0.221322
0.191651
0.176602
0.155948
0.13092
0.123994
0.152733
0.164295
0.10966
0.0998223
0.1106
0.0767918
0.0729218
0.0572004
0.0457264
0.042846
0.0347145
0.0345684
0.0300805
0.00330199
0.0041492
0.00753996
0.0129644
0.0226931
0.0503881
0.12848
0.178685
0.219136
0.216889
0.19275
0.177895
0.156043
0.129749
0.12763
0.161985
0.161609
0.0807623
0.0711748
0.0927368
0.0566648
0.0649013
0.0467308
0.0396586
0.0433376
0.0293758
0.0269123
0.0161787
0.00180925
0.00364914
0.00594155
0.012591
0.0241196
0.0451637
0.124984
0.177909
0.218634
0.215048
0.192291
0.179331
0.153945
0.129154
0.134062
0.169456
0.145812
0.0636004
0.0580863
0.0757973
0.0417335
0.0618421
0.0373241
0.0379649
0.0373555
0.0175686
0.0120048
0.00412653
0.000501458
0.00340166
0.00519876
0.0103133
0.0250144
0.0432806
0.12164
0.178059
0.217261
0.214877
0.190558
0.177608
0.150743
0.129802
0.140689
0.168644
0.115778
0.0476192
0.0403449
0.0615371
0.0252254
0.0609774
0.0225143
0.0153367
0.0105742
0.00286665
0.00151281
0.000257466
0.000181075
0.00293292
0.00512531
0.00832353
0.0238648
0.0418839
0.117872
0.178093
0.214206
0.214127
0.187922
0.17545
0.147079
0.131746
0.146048
0.161015
0.0856296
0.0255717
0.0270604
0.0342224
0.0142251
0.0170216
0.00880356
0.00152589
0.000406201
0.000103363
4.09223e-05
4.9616e-06
8.21837e-05
0.0022443
0.0051737
0.0073687
0.0203467
0.0393583
0.11352
0.177374
0.210259
0.212318
0.184861
0.170983
0.143195
0.133199
0.147632
0.147676
0.0634066
0.0215994
0.0211937
0.0256812
0.00843614
0.00365398
0.000659323
0.000104886
4.72443e-05
1.70354e-05
5.36128e-06
6.63177e-07
3.32904e-05
0.00137969
0.00530256
0.00690832
0.0175095
0.0334006
0.109191
0.176096
0.206069
0.208264
0.18139
0.165136
0.139612
0.132991
0.145224
0.13103
0.043644
0.0122771
0.0096865
0.0204708
0.00350313
0.000567541
6.49037e-05
6.31192e-05
3.72557e-05
6.98185e-06
1.51065e-06
2.11387e-07
8.47079e-06
0.00069253
0.00508655
0.00671623
0.0158386
0.0258844
0.104543
0.17477
0.202601
0.202618
0.177399
0.159522
0.134705
0.129713
0.13895
0.0984522
0.019481
0.00138664
0.00138206
0.0074018
0.00063561
6.29362e-05
6.15247e-05
6.69109e-05
2.74138e-05
2.71284e-06
3.60525e-07
7.34382e-08
2.79583e-06
0.000278895
0.00386637
0.0063942
0.0143779
0.0238311
0.099989
0.173399
0.199302
0.197193
0.17301
0.153629
0.129389
0.126654
0.126321
0.0571772
0.0078442
0.000279964
0.000455554
0.00061896
5.66079e-05
5.26723e-05
6.00562e-05
5.92506e-05
1.89497e-05
1.28398e-06
1.42859e-07
2.32414e-07
7.69224e-06
0.0002219
0.00307253
0.00620189
0.0117306
0.0227233
0.0961498
0.172091
0.196201
0.192475
0.168654
0.147614
0.125264
0.124509
0.114295
0.0403639
0.00692066
0.00178142
0.00305949
0.00353498
0.000161579
3.66646e-05
2.32748e-05
1.31235e-05
2.61443e-06
1.71686e-07
3.58101e-08
1.68782e-06
4.09908e-05
0.000454923
0.00285503
0.00627729
0.0108651
0.0217762
0.0936044
0.170598
0.193004
0.188035
0.164245
0.141961
0.122592
0.123064
0.100136
0.0263017
0.00349238
0.00109413
0.00322167
0.0033993
0.000661216
8.16312e-06
9.12792e-06
3.23582e-06
1.86105e-07
2.30012e-08
7.71464e-09
9.48627e-06
0.00019201
0.00107573
0.00404904
0.00675768
0.0110892
0.0210311
0.0918891
0.16896
0.190077
0.184561
0.160172
0.137209
0.121424
0.121794
0.0864826
0.0182492
0.00174913
0.000383292
0.0022542
0.00335983
0.000561821
7.62582e-06
2.15788e-05
3.96969e-06
1.76678e-07
7.18331e-09
6.09785e-09
3.06228e-05
0.000583209
0.00207496
0.00559458
0.00748364
0.0113758
0.0208183
0.0907964
0.16696
0.187109
0.181558
0.156492
0.133858
0.121346
0.11951
0.072173
0.0138514
0.000916023
0.00013015
0.000527652
0.00143564
0.000137812
8.60865e-06
0.000132249
2.69831e-05
5.48353e-07
3.19113e-09
1.09479e-08
5.60803e-05
0.00128858
0.00411602
0.00721048
0.008536
0.0110045
0.0210418
0.0900072
0.164783
0.183883
0.17891
0.152945
0.131408
0.121859
0.115673
0.0581015
0.0113865
0.000577349
9.75917e-06
1.1514e-05
6.88814e-05
3.49071e-06
2.1011e-06
0.000324119
8.84133e-05
1.49704e-06
2.71033e-10
1.41729e-08
5.9427e-05
0.00160717
0.00531703
0.00734699
0.00908692
0.0109104
0.0212416
0.088335
0.161488
0.181044
0.177538
0.150778
0.130654
0.123517
0.111929
0.0462056
0.00792492
0.000328312
2.12319e-06
9.00465e-07
1.49692e-07
2.59704e-09
1.1838e-06
0.000444333
0.000154334
2.46948e-06
3.06038e-10
9.46579e-09
2.02518e-05
0.000970255
0.00557974
0.00753153
0.0095857
0.0117236
0.0215935
0.0873978
0.156521
0.175581
0.173936
0.147295
0.129703
0.124346
0.103254
0.0316612
0.00173936
1.11751e-05
2.22354e-08
5.33867e-09
5.58149e-11
1.09646e-10
7.56579e-08
2.74909e-05
7.625e-06
7.87356e-08
1.2572e-10
1.09928e-10
1.7096e-07
8.5137e-05
0.00296624
0.00625654
0.0096853
0.0122798
0.0211068
0.0849834
0.149421
0.426543
0.382854
0.353801
0.338221
0.327056
0.321195
0.31774
0.316211
0.313851
0.310793
0.313307
0.300994
0.274565
0.250659
0.227948
0.20864
0.194529
0.182223
0.173228
0.167413
0.166255
0.167875
0.174549
0.183364
0.202965
0.239903
0.29507
0.389071
0.335672
0.21446
0.184204
0.167075
0.154457
0.14646
0.140616
0.137123
0.134915
0.131671
0.133078
0.122855
0.102536
0.0827605
0.0668179
0.0547681
0.0499568
0.0471931
0.0440571
0.0427619
0.0434348
0.0441679
0.0458747
0.0497397
0.058525
0.0767833
0.117862
0.256089
0.274272
0.160914
0.125963
0.106253
0.0952126
0.0901308
0.0835405
0.0805659
0.0785855
0.0810342
0.0853361
0.0836898
0.079513
0.0767388
0.0610278
0.0523206
0.0514907
0.0493417
0.0461162
0.0472688
0.0499705
0.0525159
0.0555155
0.0601283
0.0638506
0.0708701
0.091283
0.202359
0.234643
0.133878
0.0992613
0.082603
0.0772673
0.0755717
0.0729046
0.0702733
0.0662751
0.0636698
0.0661804
0.0666876
0.0692179
0.0782424
0.0658186
0.0582758
0.0570888
0.0441362
0.0348043
0.0359991
0.0377832
0.0412124
0.0475093
0.0539131
0.0708433
0.0743497
0.090075
0.17875
0.210806
0.137376
0.084672
0.0727309
0.0667383
0.0657687
0.0653685
0.0653752
0.0636192
0.0612235
0.0688188
0.0750487
0.0793029
0.0795467
0.0721764
0.0558858
0.0401765
0.0279953
0.0206061
0.0188645
0.0222926
0.0274058
0.0380447
0.0523669
0.0748194
0.0790244
0.0890746
0.165881
0.196214
0.148022
0.0857062
0.0708908
0.0648536
0.0657596
0.0665861
0.0701889
0.0754619
0.0731507
0.0785839
0.0844338
0.0819361
0.0719332
0.0574978
0.0461752
0.0398093
0.0340278
0.0256629
0.0227849
0.0210166
0.0218205
0.0296759
0.0472165
0.0719498
0.0833097
0.0902807
0.156521
0.186966
0.152948
0.094366
0.0785307
0.0720882
0.0710278
0.0721071
0.0776232
0.0829498
0.0816282
0.0838789
0.0861914
0.0804701
0.0691779
0.0644773
0.0657135
0.0652488
0.0593284
0.0379543
0.0283539
0.0245276
0.0231019
0.0272034
0.0401479
0.0618608
0.0823272
0.0913166
0.149786
0.181249
0.148644
0.10671
0.0958412
0.0869261
0.0790185
0.0772614
0.084588
0.0871657
0.0857999
0.0841649
0.0894107
0.0906673
0.0820202
0.0777179
0.0777979
0.0785103
0.0775272
0.0461383
0.0297637
0.0252418
0.0225247
0.0258773
0.0351555
0.0544146
0.0811977
0.0921224
0.144744
0.176078
0.149636
0.116584
0.109012
0.0966247
0.0869484
0.0829089
0.0905095
0.0883847
0.0898497
0.0865249
0.0979014
0.104704
0.0931456
0.0753067
0.0800002
0.0924421
0.0778983
0.0440917
0.0277886
0.0234531
0.0209332
0.0249654
0.0315822
0.0490462
0.0808837
0.0922074
0.140142
0.170809
0.150989
0.12271
0.114962
0.098005
0.0908934
0.0825268
0.0878964
0.0916163
0.109801
0.102138
0.103401
0.0924188
0.0871129
0.0611697
0.0677709
0.0825635
0.0508244
0.029404
0.0238022
0.0184075
0.018703
0.0243444
0.0281014
0.043557
0.0733267
0.0920445
0.136451
0.164472
0.151157
0.126729
0.116675
0.0980707
0.090293
0.0788656
0.0876664
0.106296
0.0938416
0.0669307
0.0886572
0.0522412
0.056133
0.0212639
0.0274257
0.03442
0.0128293
0.0164376
0.0208698
0.011542
0.0153812
0.0231648
0.0249324
0.0358096
0.0650679
0.0912599
0.133555
0.160008
0.152002
0.12921
0.117854
0.0983005
0.0871972
0.0758035
0.0942016
0.116482
0.0695996
0.0538302
0.0749259
0.0293834
0.0295998
0.0088264
0.00723392
0.009847
0.00670231
0.00762455
0.0202728
0.00616184
0.0113664
0.0198566
0.0223264
0.030048
0.056766
0.0895943
0.131171
0.157623
0.151241
0.131953
0.118558
0.0988364
0.0840659
0.077135
0.103785
0.119185
0.0486192
0.0399874
0.0597482
0.0132511
0.0174302
0.00691232
0.00608548
0.00891399
0.00640908
0.00752547
0.0181707
0.00376333
0.00976634
0.0164421
0.0209458
0.028088
0.0477346
0.0871807
0.129407
0.1556
0.148326
0.133118
0.119525
0.0992938
0.0820776
0.0809324
0.114468
0.118911
0.025329
0.0192171
0.0383858
0.00580223
0.014334
0.00557546
0.00660231
0.0103895
0.00554545
0.00611281
0.00849761
0.00210131
0.00883244
0.0135906
0.0197946
0.028139
0.0447679
0.0844741
0.128612
0.153377
0.148162
0.133366
0.120918
0.0981893
0.080408
0.0876876
0.126194
0.107073
0.0140836
0.0102857
0.0235384
0.00441671
0.018583
0.00455486
0.00713438
0.00957322
0.00388407
0.00314925
0.00168586
0.00107665
0.00823255
0.0124749
0.0182445
0.02803
0.0431393
0.0817096
0.128509
0.150789
0.14827
0.132286
0.120196
0.0952841
0.0795719
0.0949612
0.127859
0.0838916
0.0110692
0.00670912
0.025808
0.00274141
0.0220326
0.0028269
0.00383002
0.00398071
0.000839786
0.000624405
9.54904e-05
0.000617635
0.00709516
0.0120501
0.0160444
0.0264003
0.0415492
0.0787298
0.128164
0.147565
0.147816
0.130409
0.117575
0.0914243
0.0814077
0.101656
0.124443
0.0601353
0.004178
0.00405306
0.0113423
0.00137628
0.00324399
0.00149464
0.000455179
0.000294674
7.24838e-05
3.77822e-05
4.1652e-06
0.000345997
0.00558705
0.0117349
0.0143091
0.0241705
0.038026
0.0756992
0.127094
0.144157
0.146661
0.127661
0.111606
0.087121
0.0846154
0.105929
0.116002
0.0413949
0.00308141
0.00222539
0.00538429
0.000900048
0.000320125
0.00014945
7.89125e-05
5.03481e-05
1.49945e-05
5.43149e-06
6.92969e-07
0.000164348
0.0038664
0.0117032
0.0132815
0.0220349
0.0312407
0.0726342
0.125641
0.140768
0.143677
0.123948
0.10579
0.0842653
0.0879212
0.105375
0.105426
0.0284956
0.00225537
0.000793061
0.00729843
0.000375592
0.000125433
6.2278e-05
6.76269e-05
4.04759e-05
5.4748e-06
1.59266e-06
1.7644e-07
7.12495e-05
0.00247153
0.0112304
0.0128898
0.0207551
0.0263672
0.0693532
0.12431
0.138058
0.139121
0.119479
0.100913
0.0816761
0.0893457
0.101355
0.0801191
0.0125958
0.000315437
0.000254797
0.00150838
0.000104514
5.78605e-05
6.85715e-05
7.25086e-05
2.95181e-05
2.2818e-06
3.41776e-07
1.68011e-07
5.21096e-05
0.00156363
0.00973028
0.0125515
0.0195015
0.0248133
0.0661104
0.123044
0.135533
0.134465
0.114787
0.0962346
0.0802839
0.0900758
0.0926115
0.04422
0.00484452
0.00032123
0.000449005
0.000246563
6.13835e-05
5.28937e-05
6.65593e-05
6.96193e-05
2.36728e-05
1.33735e-06
1.85951e-07
2.2122e-06
0.000108974
0.00150282
0.00860691
0.0124301
0.0170875
0.0239062
0.0629883
0.121708
0.133277
0.130202
0.110564
0.0923124
0.0803986
0.0905936
0.0848979
0.0304205
0.00476425
0.0011536
0.00236095
0.00238509
0.000199576
3.0904e-05
1.78145e-05
1.19917e-05