/*--------------------------------*- C++ -*----------------------------------*\
| =========                 |                                                 |
| \\      /  F ield         | OpenFOAM: The Open Source CFD Toolbox           |
|  \\    /   O peration     | Version:  2.3.0                                 |
|   \\  /    A nd           | Web:      www.OpenFOAM.org                      |
|    \\/     M anipulation  |                                                 |
\*---------------------------------------------------------------------------*/
FoamFile
{
    version     2.0;
    format      ascii;
    class       volScalarField;
    location    "3.90034";
    object      alpha.water;
}
// * * * * * * * * * * * * * * * * * * * * * * * * * * * * * * * * * * * * * //

dimensions      [0 0 0 0 0 0 0];

internalField   nonuniform List<scalar> 
18816
(
0.543424
0.514149
0.522687
0.523311
0.527996
0.529037
0.531237
0.531718
0.531642
0.534586
0.539144
0.543472
0.547563
0.556746
0.567049
0.579931
0.594113
0.609531
0.625252
0.640387
0.653041
0.660974
0.657344
0.657162
0.642225
0.607782
0.561886
0.543266
0.55531
0.540686
0.549139
0.549288
0.55385
0.554557
0.554694
0.554517
0.559579
0.565278
0.567967
0.568966
0.591026
0.609468
0.631781
0.656
0.680318
0.70215
0.71934
0.729774
0.733018
0.726639
0.716222
0.715197
0.699158
0.662121
0.600649
0.562114
0.556818
0.577051
0.575406
0.579803
0.58381
0.584298
0.583463
0.585011
0.594048
0.59965
0.605331
0.604315
0.624719
0.652017
0.676688
0.697823
0.713633
0.724324
0.731145
0.735599
0.739041
0.742967
0.746277
0.751375
0.735684
0.698779
0.628704
0.573263
0.558432
0.566768
0.585008
0.583482
0.586301
0.586327
0.58615
0.592501
0.600185
0.60713
0.621367
0.643931
0.660125
0.682481
0.702935
0.718802
0.73066
0.739435
0.746235
0.752502
0.75766
0.758102
0.746626
0.751766
0.744314
0.718983
0.64801
0.578737
0.561
0.532475
0.573155
0.586007
0.588616
0.588797
0.589706
0.594145
0.601977
0.611115
0.635993
0.671574
0.690741
0.714829
0.749143
0.793889
0.850216
0.908163
0.945518
0.958786
0.945393
0.911115
0.850785
0.79089
0.758329
0.73106
0.661759
0.582358
0.563637
0.516427
0.547388
0.573474
0.579182
0.581042
0.584658
0.596539
0.605235
0.617576
0.648083
0.69225
0.720761
0.764671
0.839919
0.923566
0.971468
0.987167
0.994069
0.996697
0.996852
0.981383
0.933611
0.837812
0.756968
0.734644
0.669448
0.584481
0.565088
0.516427
0.531123
0.550634
0.560655
0.565322
0.571764
0.591757
0.600649
0.615351
0.657264
0.708357
0.750866
0.817041
0.896136
0.929444
0.93581
0.933768
0.969935
0.994961
0.999621
0.997317
0.974729
0.887871
0.768082
0.736496
0.673834
0.585497
0.56579
0.516427
0.528474
0.5357
0.549284
0.555882
0.564844
0.580925
0.590314
0.609667
0.665273
0.720748
0.776137
0.841965
0.89096
0.906063
0.897584
0.884617
0.920039
0.979618
0.999679
0.999839
0.99419
0.944347
0.813893
0.738094
0.676256
0.586638
0.566324
0.516649
0.528118
0.534033
0.546562
0.554133
0.563255
0.573835
0.585296
0.608421
0.668961
0.727823
0.781287
0.838907
0.867137
0.883015
0.874395
0.872989
0.885764
0.956689
0.999148
0.999992
0.99909
0.978041
0.861733
0.733482
0.676362
0.586481
0.566406
0.517247
0.527414
0.534204
0.546564
0.554252
0.563521
0.574009
0.583668
0.61117
0.672387
0.72725
0.775764
0.825193
0.836726
0.856151
0.871422
0.865335
0.874426
0.932063
0.998288
1
0.999929
0.994596
0.916686
0.713002
0.675403
0.586375
0.566413
0.516977
0.526179
0.5341
0.546537
0.554428
0.563077
0.574451
0.584247
0.630068
0.670247
0.722882
0.762917
0.804479
0.811605
0.829863
0.856166
0.849199
0.852345
0.906553
0.997259
1
0.999998
0.999366
0.973009
0.796736
0.674677
0.586753
0.56642
0.516762
0.525452
0.533781
0.546654
0.554594
0.56298
0.574259
0.586701
0.636104
0.664949
0.716767
0.752354
0.789805
0.797102
0.813736
0.83813
0.832749
0.835878
0.895412
0.996543
1
1
0.999952
0.994387
0.903746
0.676732
0.587693
0.566426
0.518236
0.525382
0.533559
0.546718
0.554694
0.562661
0.574006
0.58997
0.641391
0.666625
0.713427
0.743089
0.776171
0.787196
0.804107
0.820734
0.823159
0.835383
0.932266
0.998131
1
1
0.999994
0.997928
0.928688
0.681837
0.588703
0.566385
0.519979
0.526085
0.533574
0.546854
0.554823
0.562455
0.573732
0.593316
0.646947
0.67179
0.711515
0.734448
0.762368
0.781997
0.797129
0.802227
0.843562
0.893194
0.976136
0.999619
1
1
0.999999
0.999156
0.939341
0.690313
0.589674
0.566303
0.518945
0.527194
0.533871
0.546932
0.555005
0.562148
0.573217
0.597517
0.653618
0.678925
0.711789
0.734405
0.76088
0.780079
0.808166
0.850012
0.927103
0.970429
0.996859
0.999976
1
1
1
0.999581
0.9457
0.702151
0.590606
0.566191
0.518397
0.527956
0.534676
0.547112
0.55532
0.562019
0.572847
0.602768
0.660856
0.686292
0.711919
0.735975
0.759689
0.810353
0.90131
0.959967
0.989963
0.997859
0.999899
0.999999
1
1
1
0.999679
0.949123
0.719913
0.591533
0.566191
0.519956
0.528052
0.535079
0.54738
0.555403
0.561394
0.572513
0.60998
0.670979
0.693771
0.71673
0.739324
0.763183
0.890645
0.977919
0.996614
0.999629
0.999963
0.999999
1
1
1
1
0.999759
0.95143
0.724171
0.592356
0.566211
0.52147
0.527731
0.535476
0.547893
0.555483
0.560944
0.573648
0.621791
0.680635
0.701545
0.722288
0.760853
0.831648
0.965398
0.997053
0.999884
0.999996
0.999999
0.999999
1
1
1
1
0.999835
0.954988
0.716578
0.592314
0.566294
0.52087
0.526707
0.535368
0.547969
0.554947
0.560632
0.577096
0.633009
0.687248
0.708329
0.730462
0.846219
0.972946
0.998697
0.999953
0.999999
0.999999
0.999999
1
1
1
1
1
0.999902
0.962655
0.702791
0.592043
0.566365
0.52056
0.526548
0.535455
0.548646
0.555739
0.561901
0.583485
0.654437
0.724642
0.734643
0.743417
0.921154
0.998245
0.999989
0.999997
0.999999
0.999999
1
1
1
1
1
1
0.999975
0.976801
0.697152
0.591715
0.566514
0.521397
0.527519
0.535637
0.549351
0.556859
0.56647
0.61188
0.731443
0.867306
0.852638
0.825925
0.994655
0.999972
0.999996
0.999998
0.999999
0.999999
1
1
1
1
1
1
0.999998
0.989665
0.698648
0.591785
0.566725
0.521566
0.529099
0.535814
0.54986
0.558023
0.567726
0.641666
0.766897
0.862453
0.856679
0.888612
0.998191
0.99997
0.999983
0.999986
0.999991
0.999996
0.999999
1
1
1
1
1
1
0.996847
0.699986
0.591977
0.566961
0.521129
0.530147
0.536646
0.55067
0.558043
0.570697
0.661561
0.809387
0.897525
0.855742
0.914284
0.991611
0.999967
0.999992
0.999994
0.999996
0.999999
1
1
1
1
1
1
1
0.999794
0.700738
0.592198
0.567266
0.521073
0.530146
0.537219
0.550416
0.557331
0.572114
0.686149
0.921247
0.973512
0.858768
0.894509
0.98605
0.999965
0.999999
1
1
1
1
1
1
1
1
1
1
0.999915
0.702971
0.592437
0.567581
0.521251
0.529502
0.537499
0.550448
0.557501
0.575415
0.723492
0.995207
0.996009
0.93634
0.897784
0.989294
0.999976
1
1
1
1
1
1
1
1
1
1
1
0.999973
0.707903
0.592665
0.567931
0.5213
0.528404
0.537511
0.550336
0.557429
0.575917
0.766198
0.997759
0.999979
0.998219
0.982887
0.99922
0.999999
1
1
1
1
1
1
1
1
1
1
1
0.999995
0.71526
0.592974
0.568128
0.5213
0.527335
0.537217
0.550385
0.558846
0.591272
0.843926
0.996652
0.999998
0.999999
0.999903
0.999999
1
1
1
1
1
1
1
1
1
1
1
1
0.999999
0.722949
0.593228
0.56855
0.522299
0.528733
0.537523
0.55047
0.558366
0.636791
0.970407
0.999863
1
1
1
1
1
1
1
1
1
1
1
1
1
1
1
1
0.999999
0.734361
0.593557
0.521287
0.538726
0.524163
0.522987
0.5227
0.522929
0.525227
0.530303
0.541423
0.555801
0.573442
0.59327
0.614326
0.637509
0.661016
0.684915
0.707425
0.727905
0.745668
0.760042
0.770014
0.774416
0.769415
0.770622
0.751533
0.702451
0.627754
0.52969
0.521263
0.53873
0.539563
0.536982
0.543183
0.550836
0.569395
0.598214
0.636586
0.676541
0.710828
0.737025
0.769615
0.799005
0.824497
0.846368
0.864358
0.878796
0.890585
0.898727
0.90257
0.903576
0.897018
0.896202
0.875972
0.825107
0.73819
0.58482
0.534533
0.538171
0.550844
0.557701
0.575672
0.596897
0.635918
0.682044
0.71478
0.723038
0.722246
0.77103
0.80413
0.825936
0.844542
0.861222
0.877088
0.893121
0.907269
0.918266
0.925017
0.926684
0.926953
0.929312
0.921912
0.880905
0.781377
0.622459
0.544938
0.557244
0.566453
0.583622
0.599915
0.62676
0.674044
0.711381
0.722855
0.719672
0.718968
0.758515
0.79358
0.812187
0.818287
0.820047
0.825483
0.833503
0.847837
0.863405
0.872842
0.876359
0.879121
0.883598
0.904395
0.876647
0.786705
0.628343
0.553495
0.595893
0.589179
0.589292
0.611996
0.650361
0.701041
0.723577
0.726063
0.71978
0.71742
0.748166
0.780182
0.796949
0.809398
0.839158
0.886654
0.936163
0.965098
0.973104
0.964298
0.939882
0.893812
0.854926
0.879915
0.870499
0.793499
0.632978
0.556797
0.606459
0.616101
0.607594
0.632063
0.671309
0.707587
0.720251
0.721164
0.715989
0.714134
0.744143
0.780375
0.809497
0.857456
0.931448
0.973576
0.985899
0.993368
0.997652
0.998353
0.990106
0.957088
0.88279
0.815551
0.855285
0.792288
0.634486
0.556735
0.602631
0.624336
0.632243
0.652517
0.685985
0.718297
0.730321
0.7228
0.718704
0.715821
0.747311
0.789103
0.840662
0.900247
0.927701
0.931885
0.92681
0.962394
0.992639
0.999652
0.998845
0.985701
0.926871
0.848555
0.848975
0.789856
0.636476
0.556559
0.59774
0.620139
0.630697
0.650351
0.681339
0.711634
0.724462
0.717808
0.718445
0.722871
0.757824
0.801546
0.856084
0.893091
0.898652
0.897699
0.875935
0.912642
0.975045
0.999653
0.999939
0.997196
0.967384
0.885543
0.852061
0.786056
0.637745
0.556307
0.594272
0.615982
0.626318
0.64661
0.675834
0.701076
0.711664
0.7094
0.709567
0.724007
0.75713
0.798471
0.851702
0.859933
0.878781
0.8774
0.865029
0.888769
0.951615
0.998985
0.999997
0.999626
0.98816
0.916199
0.849207
0.782833
0.63899
0.556045
0.591837
0.613127
0.623759
0.644649
0.673749
0.69765
0.704204
0.698022
0.692911
0.72488
0.758975
0.78848
0.83708
0.852289
0.86914
0.877453
0.868641
0.890085
0.92997
0.998145
1
0.999981
0.997647
0.948123
0.79116
0.781905
0.641035
0.55562
0.589753
0.611429
0.622304
0.644613
0.673856
0.693626
0.694939
0.677256
0.717891
0.733316
0.766897
0.781647
0.817688
0.813958
0.837073
0.877256
0.859787
0.85924
0.910352
0.997214
1
1
0.999859
0.988735
0.871586
0.779162
0.644153
0.55562
0.587636
0.611036
0.62229
0.64492
0.67419
0.692098
0.686106
0.671585
0.726385
0.73608
0.77141
0.777495
0.816733
0.810791
0.833039
0.863789
0.849945
0.851955
0.904494
0.996622
1
1
0.999996
0.998838
0.958392
0.779937
0.646996
0.55562
0.585544
0.610907
0.622409
0.645263
0.674366
0.690601
0.679982
0.667925
0.724857
0.738628
0.770314
0.775371
0.806735
0.8045
0.815945
0.825446
0.838648
0.855715
0.943609
0.998488
1
1
1
0.999597
0.968797
0.782464
0.64776
0.555676
0.583758
0.611053
0.622823
0.645657
0.67455
0.690195
0.675228
0.665669
0.727515
0.744421
0.770937
0.778799
0.794353
0.798228
0.805312
0.814677
0.876013
0.921009
0.982862
0.999726
1
1
1
0.999839
0.972751
0.787313
0.648149
0.555803
0.583003
0.611285
0.623471
0.64599
0.674896
0.689624
0.669805
0.663578
0.731238
0.751412
0.770632
0.783025
0.789785
0.811667
0.842038
0.879876
0.949242
0.981132
0.998096
0.999986
1
1
1
0.999916
0.975274
0.791782
0.648079
0.555977
0.582986
0.611527
0.624084
0.646448
0.67567
0.688644
0.66368
0.66335
0.737039
0.758758
0.767417
0.788455
0.778242
0.861151
0.93336
0.97279
0.99419
0.998676
0.99994
1
1
1
1
0.999931
0.976716
0.793381
0.647611
0.55619
0.583282
0.611758
0.624554
0.647162
0.675745
0.684632
0.656524
0.665586
0.752299
0.770939
0.783221
0.799665
0.810558
0.918937
0.98869
0.998773
0.999853
0.999982
0.999999
1
1
1
1
0.999945
0.977692
0.790736
0.646425
0.556395
0.583595
0.612258
0.625333
0.648246
0.675159
0.677166
0.646104
0.674718
0.76216
0.780572
0.79047
0.835972
0.88494
0.978945
0.99856
0.999964
0.999999
1
1
1
1
1
1
0.999962
0.979323
0.776372
0.644619
0.556686
0.583713
0.613012
0.626135
0.649138
0.671768
0.670023
0.645793
0.685845
0.770309
0.79305
0.789779
0.93406
0.984716
0.999404
0.999978
0.999999
1
1
1
1
1
1
1
0.999977
0.983335
0.775922
0.644754
0.556813
0.584061
0.614286
0.627567
0.652294
0.674107
0.670629
0.650251
0.724858
0.877913
0.884782
0.839396
0.987179
0.999753
0.999995
0.999999
1
1
1
1
1
1
1
1
0.999995
0.990697
0.785633
0.645791
0.557123
0.585147
0.616006
0.630137
0.657271
0.677117
0.671505
0.668571
0.850951
0.984779
0.981217
0.96385
0.999292
0.999993
0.999997
0.999998
0.999999
1
1
1
1
1
1
1
1
0.996464
0.802275
0.64714
0.557284
0.5861
0.617867
0.6335
0.66288
0.681305
0.673128
0.680733
0.845769
0.92659
0.946133
0.942525
0.998341
0.999972
0.999988
0.99999
0.999995
0.999998
1
1
1
1
1
1
1
0.999106
0.813716
0.648756
0.557553
0.587345
0.620182
0.637779
0.66926
0.681321
0.676754
0.700962
0.850759
0.924748
0.924118
0.961682
0.99132
0.999955
0.999998
0.999998
1
1
1
1
1
1
1
1
1
0.999961
0.818065
0.650423
0.557822
0.588641
0.622193
0.641269
0.669539
0.678117
0.678324
0.724453
0.928977
0.973085
0.882819
0.932848
0.987175
0.999952
1
1
1
1
1
1
1
1
1
1
1
0.999989
0.820518
0.652127
0.557826
0.590206
0.624312
0.644129
0.669298
0.676064
0.68412
0.751862
0.991159
0.995066
0.940468
0.912307
0.99016
0.99997
1
1
1
1
1
1
1
1
1
1
1
0.999995
0.823361
0.653629
0.55783
0.591684
0.62623
0.645945
0.669144
0.677462
0.68955
0.774813
0.987728
0.999938
0.998295
0.986304
0.999349
0.999999
1
1
1
1
1
1
1
1
1
1
1
0.999998
0.828588
0.655208
0.55783
0.59262
0.627581
0.647246
0.6697
0.677964
0.679669
0.790328
0.981978
0.999942
0.999999
0.999934
0.999999
1
1
1
1
1
1
1
1
1
1
1
1
0.999999
0.831588
0.656247
0.5584
0.595629
0.630606
0.6499
0.671259
0.678902
0.678013
0.875709
0.999331
0.999998
1
1
1
1
1
1
1
1
1
1
1
1
1
1
1
1
0.832111
0.656932
0.521955
0.530422
0.548394
0.557854
0.570832
0.581615
0.593886
0.606537
0.621903
0.640262
0.660663
0.681818
0.703198
0.72541
0.746706
0.767416
0.786232
0.80271
0.816481
0.8273
0.834831
0.838205
0.834496
0.834218
0.816136
0.768509
0.698852
0.572988
0.56697
0.663556
0.698161
0.707167
0.725884
0.741617
0.758605
0.777492
0.797329
0.817271
0.836464
0.856671
0.880314
0.901415
0.920464
0.937332
0.95147
0.962389
0.970444
0.975458
0.977945
0.978705
0.977453
0.977227
0.96929
0.935207
0.861457
0.693294
0.632732
0.740893
0.78381
0.811831
0.834553
0.852615
0.8717
0.888394
0.898085
0.900474
0.899464
0.908462
0.925109
0.939536
0.950194
0.958388
0.964596
0.969413
0.97237
0.97363
0.973572
0.969874
0.968297
0.965345
0.967562
0.961054
0.914942
0.760305
0.673666
0.797853
0.843157
0.854218
0.875002
0.889599
0.899541
0.903914
0.903247
0.896177
0.891525
0.903311
0.915995
0.921843
0.919149
0.909844
0.906227
0.91022
0.923044
0.932639
0.937003
0.937409
0.928272
0.923118
0.933462
0.95081
0.914878
0.769014
0.696635
0.780403
0.84526
0.879001
0.890381
0.895742
0.902026
0.904038
0.900406
0.890566
0.88329
0.884007
0.888832
0.878754
0.873502
0.894849
0.932041
0.966481
0.982903
0.987263
0.986559
0.975798
0.951108
0.920961
0.895612
0.933415
0.913176
0.778341
0.707908
0.756233
0.818297
0.857422
0.866599
0.875388
0.890103
0.89978
0.894043
0.880344
0.863765
0.855113
0.858135
0.866822
0.894395
0.946672
0.97543
0.982152
0.990818
0.997963
0.999512
0.997722
0.98494
0.944272
0.889162
0.918718
0.908688
0.780753
0.70781
0.738069
0.787376
0.816559
0.828969
0.848109
0.87412
0.889158
0.879161
0.865407
0.850343
0.841898
0.856789
0.881857
0.914626
0.929147
0.925332
0.917445
0.955743
0.989511
0.999746
0.99981
0.995666
0.970262
0.92595
0.915358
0.904039
0.784878
0.706213
0.725125
0.761837
0.778545
0.794801
0.822368
0.853583
0.865118
0.852154
0.845898
0.849208
0.848258
0.854968
0.880395
0.897631
0.896607
0.892741
0.870655
0.921934
0.972737
0.9995
0.99999
0.999245
0.987169
0.943342
0.918399
0.898242
0.787931
0.705105
0.717186
0.746716
0.756615
0.778756
0.809182
0.835606
0.840002
0.831626
0.821192
0.839738
0.836293
0.839557
0.872891
0.874997
0.877224
0.865091
0.862566
0.913966
0.954466
0.998828
1
0.999916
0.995724
0.958726
0.916461
0.898369
0.790603
0.704344
0.712131
0.73844
0.748377
0.77243
0.80574
0.829931
0.829097
0.811603
0.784199
0.818956
0.836879
0.816243
0.849388
0.882272
0.879798
0.876092
0.880819
0.933015
0.940674
0.998058
1
0.999997
0.999353
0.976155
0.868878
0.899821
0.793735
0.704503
0.708555
0.734293
0.744472
0.772518
0.805821
0.825227
0.814795
0.783186
0.814689
0.815183
0.843502
0.834654
0.85308
0.877283
0.90592
0.927133
0.924434
0.913068
0.932546
0.997279
1
1
0.999983
0.997311
0.950307
0.899907
0.797566
0.705038
0.705506
0.732181
0.744562
0.773329
0.806301
0.823343
0.801204
0.771605
0.813557
0.804486
0.838244
0.848526
0.887264
0.888158
0.926785
0.943014
0.937522
0.931161
0.93409
0.996835
1
1
1
0.999827
0.987945
0.901378
0.800207
0.705759
0.703761
0.73219
0.745088
0.774497
0.806717
0.821485
0.79095
0.762686
0.805213
0.798116
0.833378
0.858975
0.875132
0.888193
0.908235
0.914891
0.93079
0.927634
0.964914
0.998972
1
1
1
0.999931
0.989948
0.903894
0.802159
0.706579
0.7039
0.732705
0.746169
0.775809
0.807147
0.821111
0.782758
0.755402
0.801889
0.802526
0.835864
0.901518
0.869304
0.906605
0.914256
0.908225
0.943608
0.962843
0.991316
0.999861
1
1
1
0.999972
0.990752
0.906142
0.802335
0.707388
0.704187
0.733572
0.747626
0.777018
0.807919
0.82055
0.773197
0.74679
0.802684
0.816665
0.849547
0.917287
0.87086
0.926466
0.92081
0.934188
0.974863
0.991259
0.999217
0.999995
1
1
1
0.999984
0.991418
0.903172
0.801797
0.708074
0.704982
0.734653
0.74909
0.77836
0.809602
0.819234
0.761305
0.737596
0.811919
0.841697
0.850861
0.919353
0.825215
0.948665
0.971527
0.985449
0.997081
0.999305
0.999975
1
1
1
1
0.999986
0.99181
0.896436
0.799836
0.708822
0.706448
0.735649
0.750457
0.780038
0.809633
0.813735
0.747189
0.733788
0.852233
0.879805
0.88853
0.934955
0.927331
0.965669
0.996478
0.999556
0.999948
0.999991
1
1
1
1
1
0.999988
0.991988
0.884338
0.796709
0.709532
0.707889
0.736829
0.752373
0.782113
0.808581
0.800888
0.731776
0.740801
0.871936
0.893984
0.899047
0.947881
0.959007
0.993126
0.999645
0.999993
1
1
1
1
1
1
1
0.999991
0.992194
0.873656
0.793121
0.710396
0.708905
0.73808
0.753939
0.78287
0.802954
0.787707
0.723047
0.754041
0.895816
0.935743
0.883089
0.98822
0.994431
0.999789
0.999994
1
1
1
1
1
1
1
1
0.999996
0.994141
0.880665
0.793474
0.71094
0.710326
0.740115
0.75621
0.787079
0.805988
0.779986
0.727064
0.797006
0.983372
0.988356
0.952953
0.998416
0.99993
0.999998
0.999999
1
1
1
1
1
1
1
1
0.999999
0.997039
0.894396
0.794851
0.711916
0.712749
0.742572
0.759894
0.792729
0.808728
0.773104
0.755112
0.910331
0.994903
0.996912
0.997982
0.999336
0.999993
0.999998
0.999999
1
1
1
1
1
1
1
1
1
0.998981
0.905955
0.796534
0.712704
0.714852
0.74554
0.765603
0.799723
0.808303
0.773579
0.788664
0.917396
0.969539
0.988483
0.980675
0.997739
0.999972
0.999993
0.999995
0.999999
1
1
1
1
1
1
1
1
0.999783
0.912354
0.798353
0.713846
0.717224
0.749404
0.772737
0.804912
0.805179
0.775034
0.812737
0.899385
0.953763
0.977999
0.987849
0.990927
0.999957
1
1
1
1
1
1
1
1
1
1
1
0.999995
0.916233
0.800131
0.714893
0.719595
0.752658
0.7778
0.803453
0.797323
0.775558
0.841666
0.949397
0.9776
0.918253
0.963147
0.989833
0.999957
1
1
1
1
1
1
1
1
1
1
1
0.999999
0.919145
0.801911
0.715794
0.722251
0.755812
0.781129
0.801025
0.789304
0.779319
0.861088
0.990396
0.995876
0.953464
0.930641
0.992495
0.999978
1
1
1
1
1
1
1
1
1
1
1
1
0.92231
0.803463
0.717152
0.724539
0.758381
0.782898
0.799049
0.789553
0.776946
0.83731
0.985715
0.999922
0.998754
0.992199
0.999592
1
1
1
1
1
1
1
1
1
1
1
1
1
0.927433
0.805063
0.717417
0.725889
0.759974
0.784027
0.798337
0.789603
0.775519
0.804027
0.984602
0.999925
0.999999
0.999971
1
1
1
1
1
1
1
1
1
1
1
1
1
1
0.929248
0.80629
0.719076
0.730052
0.763794
0.785866
0.797204
0.787299
0.782754
0.85337
0.999478
0.999998
1
1
1
1
1
1
1
1
1
1
1
1
1
1
1
1
0.928336
0.807374
0.523084
0.554669
0.578043
0.591793
0.610646
0.625981
0.643046
0.660005
0.678127
0.697481
0.717806
0.73851
0.759153
0.77985
0.799476
0.818104
0.834408
0.848163
0.859051
0.86714
0.872435
0.874747
0.871836
0.870636
0.855223
0.813771
0.750993
0.597935
0.631299
0.780529
0.807375
0.816332
0.834883
0.849218
0.864342
0.879724
0.894588
0.908871
0.922587
0.936764
0.951837
0.964175
0.973961
0.981398
0.9866
0.990319
0.992932
0.994531
0.995231
0.995045
0.994235
0.993631
0.990988
0.978877
0.937138
0.750292
0.72208
0.870451
0.906547
0.92476
0.940099
0.949107
0.956698
0.962342
0.965154
0.965692
0.965452
0.968092
0.973546
0.97818
0.980971
0.982799
0.983746
0.983725
0.981979
0.981165
0.981141
0.981261
0.977165
0.974058
0.971057
0.974684
0.964471
0.817931
0.77168
0.9197
0.939328
0.950448
0.95517
0.958662
0.962262
0.96438
0.964872
0.963389
0.962191
0.963595
0.964728
0.960977
0.953417
0.9454
0.942465
0.950677
0.963518
0.972402
0.977388
0.978547
0.971913
0.965583
0.944353
0.960423
0.959968
0.839643
0.801741
0.91413
0.95058
0.955502
0.958842
0.961297
0.963511
0.964277
0.962954
0.958687
0.952906
0.945369
0.934877
0.922514
0.917037
0.935947
0.96308
0.983139
0.991448
0.995623
0.996936
0.994851
0.985715
0.966048
0.933113
0.946127
0.955837
0.85263
0.813773
0.895409
0.93963
0.95282
0.956648
0.958727
0.961137
0.961789
0.955997
0.946758
0.933327
0.917815
0.907757
0.905348
0.929855
0.960162
0.974084
0.976859
0.988404
0.997667
0.999786
0.999791
0.996535
0.978902
0.944143
0.940436
0.951864
0.858325
0.819371
0.877492
0.918834
0.939105
0.945201
0.949374
0.954902
0.957084
0.945566
0.931101
0.914371
0.903432
0.900799
0.914358
0.928948
0.932409
0.920551
0.912105
0.95792
0.989112
0.999804
0.999983
0.999197
0.990016
0.960466
0.936144
0.948783
0.863102
0.821226
0.863563
0.895526
0.911399
0.920911
0.931041
0.943342
0.946605
0.930115
0.917488
0.910518
0.905701
0.897836
0.906022
0.907933
0.903872
0.899285
0.867115
0.933581
0.977684
0.999386
0.999999
0.99988
0.996027
0.971243
0.94607
0.945685
0.866434
0.822491
0.854544
0.879117
0.889088
0.904103
0.918407
0.930702
0.931044
0.914457
0.897008
0.901544
0.892755
0.874999
0.89332
0.893393
0.875816
0.85942
0.859214
0.926274
0.969072
0.998853
1
0.999991
0.998966
0.98157
0.94201
0.945993
0.86894
0.823604
0.8494
0.869463
0.879404
0.897648
0.915005
0.926593
0.921981
0.893312
0.8518
0.876173
0.892554
0.872945
0.866777
0.893977
0.866457
0.843386
0.906764
0.965032
0.964082
0.998308
1
1
0.999878
0.992076
0.935976
0.946862
0.871237
0.824659
0.845542
0.864663
0.874604
0.896798
0.913541
0.923199
0.908078
0.8619
0.868404
0.876145
0.877871
0.936761
0.88968
0.965274
0.936841
0.927386
0.978738
0.981295
0.962685
0.997938
1
1
0.999999
0.999585
0.985231
0.947538
0.873565
0.825691
0.844239
0.862262
0.874755
0.897653
0.913717
0.921697
0.894672
0.847974
0.865788
0.854229
0.867403
0.970607
0.955778
0.98257
0.985796
0.984858
0.990115
0.990237
0.969788
0.997844
1
1
1
0.999943
0.994935
0.949893
0.875482
0.826718
0.844595
0.862325
0.875519
0.899104
0.913926
0.92006
0.88383
0.836063
0.855904
0.844965
0.857273
0.984643
0.973467
0.98639
0.987089
0.985473
0.989907
0.988172
0.986275
0.999325
1
1
1
0.999973
0.995428
0.953084
0.876749
0.827696
0.845643
0.862992
0.876916
0.900709
0.914236
0.920024
0.875381
0.826495
0.864812
0.871553
0.858177
0.989013
0.959425
0.989174
0.984889
0.982709
0.990069
0.992923
0.997299
0.999941
1
1
1
0.999987
0.995674
0.957777
0.877826
0.828691
0.846789
0.864011
0.878629
0.902113
0.914884
0.919839
0.864812
0.818516
0.904553
0.927032
0.894337
0.987258
0.934375
0.991418
0.983486
0.983669
0.993993
0.997912
0.999801
0.999999
1
1
1
0.999992
0.9958
0.957242
0.878843
0.829657
0.848365
0.865268
0.880203
0.90354
0.91638
0.918986
0.851054
0.812162
0.935102
0.959193
0.911284
0.988101
0.910411
0.992967
0.993118
0.994416
0.998975
0.999716
0.999992
1
1
1
1
0.999993
0.995822
0.954272
0.878643
0.830816
0.85044
0.866482
0.881729
0.905141
0.916613
0.914487
0.833494
0.807477
0.967184
0.973826
0.948865
0.993198
0.982292
0.99352
0.999324
0.999718
0.999962
0.999989
1
1
1
1
1
0.999993
0.99577
0.947378
0.877974
0.831987
0.85257
0.86786
0.883895
0.907293
0.915756
0.900779
0.814593
0.815467
0.977657
0.982681
0.968304
0.995978
0.996038
0.999134
0.999958
0.999997
1
1
1
1
1
1
1
0.999995
0.995743
0.941994
0.877115
0.833292
0.854169
0.869317
0.885765
0.907141
0.910527
0.884573
0.803299
0.829988
0.979369
0.990324
0.943096
0.998732
0.999046
0.999958
0.999998
1
1
1
1
1
1
1
1
0.999998
0.996746
0.936461
0.877357
0.834282
0.856055
0.871551
0.888277
0.909735
0.91206
0.869276
0.807139
0.863907
0.994838
0.996359
0.98871
0.999086
0.99996
0.999999
0.999999
1
1
1
1
1
1
1
1
1
0.998177
0.932922
0.878043
0.835661
0.858797
0.874246
0.89203
0.911599
0.907566
0.853801
0.832254
0.944575
0.993123
0.995797
0.998555
0.999045
0.999992
0.999999
1
1
1
1
1
1
1
1
1
1
0.999366
0.933982
0.878774
0.836774
0.861253
0.8776
0.897628
0.916195
0.899901
0.854434
0.860415
0.953125
0.978492
0.995333
0.994422
0.996248
0.999974
0.999997
0.999998
1
1
1
1
1
1
1
1
1
0.999892
0.936539
0.879467
0.838127
0.863943
0.882036
0.903343
0.916155
0.891098
0.854415
0.876545
0.930818
0.970361
0.990171
0.993318
0.992884
0.999967
1
1
1
1
1
1
1
1
1
1
1
0.999999
0.940015
0.880123
0.839375
0.866612
0.885873
0.906449
0.913392
0.880234
0.853027
0.899022
0.969606
0.983578
0.93947
0.967122
0.992909
0.999972
1
1
1
1
1
1
1
1
1
1
1
1
0.944812
0.880867
0.840547
0.869509
0.889564
0.907821
0.908727
0.871829
0.857658
0.931599
0.991377
0.997374
0.967693
0.94803
0.995095
0.999989
1
1
1
1
1
1
1
1
1
1
1
1
0.950837
0.881601
0.842037
0.872035
0.892459
0.907666
0.904975
0.870442
0.85506
0.908472
0.987754
0.999944
0.999286
0.995157
0.999776
1
1
1
1
1
1
1
1
1
1
1
1
1
0.957847
0.882426
0.842742
0.873739
0.894274
0.907379
0.90309
0.869378
0.846479
0.834498
0.988513
0.999947
1
0.999985
1
1
1
1
1
1
1
1
1
1
1
1
1
1
0.965172
0.883243
0.844663
0.877862
0.897477
0.906663
0.898897
0.862695
0.847387
0.868833
0.99965
0.999999
1
1
1
1
1
1
1
1
1
1
1
1
1
1
1
1
0.967756
0.884065
0.532361
0.590686
0.61931
0.635986
0.65722
0.674137
0.691901
0.70895
0.726514
0.744657
0.763188
0.781949
0.800451
0.818607
0.835507
0.851229
0.864728
0.875941
0.884488
0.890607
0.894372
0.895939
0.893291
0.891347
0.87755
0.84221
0.786484
0.621845
0.689025
0.874462
0.898784
0.905936
0.920406
0.929792
0.939165
0.948098
0.956624
0.964617
0.971855
0.978573
0.984721
0.989519
0.99292
0.995418
0.997119
0.998114
0.998495
0.99857
0.998603
0.998425
0.997734
0.996927
0.994754
0.990538
0.971062
0.783342
0.786091
0.955303
0.975307
0.981086
0.984565
0.985892
0.987016
0.987778
0.988049
0.987647
0.987272
0.987239
0.989325
0.990647
0.991442
0.991652
0.991292
0.991186
0.993343
0.995212
0.996327
0.996529
0.994283
0.991209
0.980561
0.983269
0.980049
0.848022
0.832511
0.978171
0.983162
0.983603
0.984072
0.98482
0.985599
0.985962
0.985144
0.983531
0.981574
0.979207
0.975618
0.970434
0.965617
0.962739
0.967584
0.977961
0.98729
0.992895
0.995629
0.99636
0.993571
0.988416
0.971266
0.971691
0.976009
0.870649
0.859912
0.975954
0.982985
0.98261
0.983149
0.983372
0.98246
0.980056
0.976266
0.971409
0.96531
0.957843
0.950242
0.945136
0.944296
0.962963
0.980047
0.990433
0.995543
0.998582
0.999539
0.999493
0.997233
0.988173
0.967415
0.96369
0.972174
0.882989
0.873673
0.968022
0.979754
0.981462
0.981969
0.97974
0.975604
0.969759
0.962833
0.955125
0.946648
0.938938
0.935119
0.936668
0.953764
0.967795
0.970586
0.970075
0.986577
0.997188
0.999925
0.999988
0.999522
0.994274
0.973708
0.951896
0.968263
0.888626
0.88094
0.95893
0.97385
0.979173
0.979593
0.974343
0.96705
0.958806
0.950832
0.942731
0.935222
0.931302
0.930599
0.935291
0.936756
0.924372
0.916794
0.907913
0.957505
0.991815
0.999747
0.999999
0.99991
0.997612
0.982875
0.957963
0.965852
0.892691
0.884909
0.950903
0.964862
0.972525
0.973877
0.967639
0.960558
0.952992
0.944765
0.937614
0.934161
0.933558
0.92801
0.928041
0.906988
0.90186
0.905064
0.859999
0.921881
0.987682
0.999431
1
0.999989
0.999224
0.989689
0.970073
0.964238
0.895317
0.887473
0.945241
0.957047
0.9648
0.968322
0.962222
0.955443
0.94814
0.93895
0.926493
0.92415
0.92472
0.894183
0.902678
0.861632
0.863731
0.851246
0.84521
0.89271
0.985769
0.999117
1
0.999999
0.999836
0.994353
0.970503
0.96443
0.897004
0.88941
0.941952
0.952011
0.960785
0.965725
0.95971
0.953188
0.944326
0.925774
0.892809
0.888691
0.893028
0.870862
0.837949
0.803988
0.803983
0.803984
0.884412
0.926931
0.984719
0.998929
1
1
0.999984
0.997991
0.973316
0.9646
0.898268
0.890957
0.939781
0.949469
0.958605
0.964411
0.958093
0.951568
0.937587
0.905821
0.881608
0.945297
0.838259
0.996794
0.838011
0.999808
0.803988
0.803983
0.999958
0.973626
0.986394
0.998881
1
1
1
0.999857
0.993543
0.964778
0.899601
0.892333
0.939797
0.948327
0.958695
0.964445
0.958021
0.950814
0.931499
0.896815
1
0.998434
1
0.999137
1
0.999988
1
1
0.999972
1
0.990079
0.999234
1
1
1
0.999948
0.995727
0.966449
0.901013
0.893644
0.940284
0.94843
0.959003
0.964561
0.958132
0.950588
0.925883
0.886685
0.999861
0.998812
0.998724
0.999982
0.999841
0.999986
0.999971
0.999947
0.999901
0.999958
0.996348
0.999784
1
1
1
0.999976
0.996051
0.969082
0.902263
0.894899
0.941224
0.948907
0.95949
0.964698
0.958372
0.950761
0.921897
0.879403
1
0.996938
1
0.999989
1
0.999988
1
1
0.999915
1
0.999529
0.999977
1
1
1
0.999989
0.996239
0.972762
0.903474
0.896161
0.942224
0.949546
0.960018
0.964805
0.958696
0.950946
0.915517
0.867645
0.999906
0.999978
0.999902
0.999975
0.999923
0.999981
0.999957
0.999942
0.999967
0.999979
0.999981
0.999999
1
1
1
0.999992
0.996299
0.973971
0.904498
0.897379
0.943394
0.950344
0.96047
0.964889
0.959079
0.950704
0.905729
0.858498
1
0.999986
1
0.999982
1
0.999986
1
1
0.999992
1
1
1
1
1
1
0.999993
0.996253
0.973109
0.905344
0.898646
0.944639
0.951172
0.960925
0.96498
0.959072
0.948883
0.891221
0.848026
1
0.999981
1
0.999979
1
0.999977
1
1
1
1
1
1
1
1
1
0.999994
0.996167
0.969881
0.905106
0.899813
0.945894
0.952102
0.96153
0.964951
0.958627
0.94141
0.86951
0.838749
0.999969
0.999979
0.999955
0.999987
0.999995
1
1
1
1
1
1
1
1
1
1
0.999995
0.996153
0.961629
0.904799
0.901044
0.946944
0.953114
0.961999
0.964792
0.956768
0.92733
0.852891
0.839907
1
0.999986
1
0.999994
1
0.999871
1
1
0.999986
1
1
1
1
1
1
0.999998
0.996994
0.944276
0.904872
0.902075
0.948176
0.954507
0.962565
0.964427
0.952121
0.910013
0.853541
0.846747
1
0.999631
1
0.999797
1
0.999758
1
1
0.999985
1
1
1
1
1
1
1
0.998401
0.936877
0.90507
0.903418
0.949799
0.956131
0.962812
0.962939
0.93965
0.891845
0.868522
0.936668
0.992593
0.994844
0.99846
0.999011
0.999993
1
1
1
1
1
1
1
1
1
1
1
0.999537
0.940463
0.905239
0.90455
0.951263
0.957846
0.963257
0.959607
0.927409
0.892537
0.893359
0.962655
0.983482
0.993187
0.996115
0.996373
0.99998
0.999999
1
1
1
1
1
1
1
1
1
1
0.999956
0.948389
0.905383
0.90589
0.95287
0.959642
0.96313
0.954373
0.917536
0.891664
0.906558
0.949737
0.977719
0.986899
0.990663
0.995485
0.99998
1
1
1
1
1
1
1
1
1
1
1
1