/*--------------------------------*- C++ -*----------------------------------*\
| =========                 |                                                 |
| \\      /  F ield         | OpenFOAM: The Open Source CFD Toolbox           |
|  \\    /   O peration     | Version:  2.3.0                                 |
|   \\  /    A nd           | Web:      www.OpenFOAM.org                      |
|    \\/     M anipulation  |                                                 |
\*---------------------------------------------------------------------------*/
FoamFile
{
    version     2.0;
    format      ascii;
    class       volScalarField;
    location    "3.90034";
    object      nut.water;
}
// * * * * * * * * * * * * * * * * * * * * * * * * * * * * * * * * * * * * * //

dimensions      [0 2 -1 0 0 0 0];

internalField   nonuniform List<scalar> 
18816
(
2.53102e-06
2.77166e-06
4.59962e-06
5.15765e-06
5.8737e-06
6.2503e-06
6.72857e-06
7.04528e-06
7.38933e-06
7.5792e-06
7.75608e-06
7.84024e-06
7.82443e-06
7.72172e-06
7.53288e-06
7.23221e-06
6.80813e-06
6.2577e-06
5.57524e-06
4.71514e-06
3.69836e-06
2.71225e-06
2.45743e-06
3.0579e-06
4.3683e-06
5.21585e-06
5.3587e-06
2.7746e-06
7.45093e-33
7.66547e-06
7.42063e-06
7.45024e-06
7.46009e-06
7.55179e-06
7.66571e-06
7.67853e-06
7.621e-06
7.53361e-06
7.50213e-06
7.51596e-06
7.33828e-06
7.12563e-06
6.86053e-06
6.55643e-06
6.19338e-06
5.76851e-06
5.29581e-06
4.79362e-06
4.29391e-06
3.96646e-06
3.88644e-06
3.94848e-06
4.41445e-06
5.05535e-06
5.92194e-06
1.14407e-32
9.12925e-33
2.98509e-33
3.48e-33
3.58661e-33
3.65982e-33
3.54783e-33
3.36196e-33
3.26682e-33
3.23973e-33
3.19598e-33
3.2331e-33
6.98182e-06
6.60758e-06
6.29141e-06
6.03942e-06
5.77582e-06
5.50253e-06
5.19542e-06
4.83484e-06
4.40359e-06
3.95337e-06
3.51904e-06
3.39372e-06
3.31484e-06
3.56323e-06
4.39965e-06
5.62224e-06
1.0249e-32
9.06035e-33
3.33618e-33
3.77833e-33
3.71404e-33
3.69531e-33
3.59842e-33
3.39153e-33
3.28841e-33
3.45621e-33
3.43274e-33
3.83399e-33
5.29987e-33
5.92046e-06
5.74862e-06
5.61029e-06
5.42489e-06
5.21514e-06
4.94546e-06
4.5424e-06
3.97309e-06
3.36316e-06
2.75605e-06
2.59588e-06
2.58566e-06
3.00305e-06
4.01701e-06
5.45907e-06
9.68538e-33
1.27581e-32
6.87167e-06
4.10262e-33
4.07441e-33
4.14033e-33
3.77291e-33
3.70056e-33
3.68371e-33
3.49715e-33
3.59101e-33
4.45334e-33
7.19774e-33
5.38665e-06
5.16435e-06
4.75086e-06
4.11642e-06
3.45572e-06
2.70465e-06
2.16026e-06
1.96522e-06
1.907e-06
1.93321e-06
1.95132e-06
2.81462e-06
2.39066e-06
3.64257e-06
5.27715e-06
9.49512e-33
7.23986e-33
9.50764e-06
6.27851e-06
4.28376e-33
4.19371e-33
3.87379e-33
3.77163e-33
3.49762e-33
3.74778e-33
3.72853e-33
4.80253e-33
8.56039e-33
4.70145e-06
3.96089e-06
2.75488e-06
1.92426e-06
1.61364e-06
1.54755e-06
1.63617e-06
1.64331e-06
1.66469e-06
1.79467e-06
1.93641e-06
2.13069e-06
2.25364e-06
3.54156e-06
5.21581e-06
9.35709e-33
6.78431e-33
9.88777e-06
8.79088e-06
6.29002e-06
5.9218e-06
5.59222e-06
4.94012e-06
3.93303e-33
3.88773e-33
4.21758e-33
5.01405e-33
1.73176e-32
3.84903e-06
2.60876e-06
1.4363e-06
1.1566e-06
1.10802e-06
1.34651e-06
1.55076e-06
1.62931e-06
1.64274e-06
1.70176e-06
1.9211e-06
2.10851e-06
2.26359e-06
3.38795e-06
5.13023e-06
9.46934e-33
5.13762e-33
9.92479e-06
9.14333e-06
8.51602e-06
7.93264e-06
7.3863e-06
6.83249e-06
4.99582e-06
4.82218e-06
4.25511e-06
6.04631e-33
2.31426e-32
3.1105e-06
1.87839e-06
9.34423e-07
7.02069e-07
7.95758e-07
1.07327e-06
1.4445e-06
1.60748e-06
1.61443e-06
1.66096e-06
1.7363e-06
2.02778e-06
2.41651e-06
3.2064e-06
5.05765e-06
9.56089e-33
4.88723e-33
9.91255e-06
9.17628e-06
8.69134e-06
8.05789e-06
7.46271e-06
6.96532e-06
6.53967e-06
6.35857e-06
5.6818e-06
6.06443e-33
2.91808e-32
2.73806e-06
1.53341e-06
9.28777e-07
8.07971e-07
1.0933e-06
1.13794e-06
1.13571e-06
1.59209e-06
1.60684e-06
1.63203e-06
1.67617e-06
1.83471e-06
2.40588e-06
2.95358e-06
4.99381e-06
9.53023e-33
4.13173e-33
9.91291e-06
9.18353e-06
8.66155e-06
7.99489e-06
7.3758e-06
6.88164e-06
6.61353e-06
6.51724e-06
5.6182e-06
6.97016e-33
4.30037e-32
2.26359e-06
1.60988e-06
1.17058e-06
1.11327e-06
1.31757e-06
1.39664e-06
1.68502e-06
1.60668e-06
1.61494e-06
1.61336e-06
1.64317e-06
1.69837e-06
2.07688e-06
2.92627e-06
4.9205e-06
9.87789e-33
3.91618e-33
9.89622e-06
9.17418e-06
8.6354e-06
7.94826e-06
7.33075e-06
6.88728e-06
6.65246e-06
6.57758e-06
4.99613e-06
8.07618e-33
4.50563e-32
2.15912e-06
1.82257e-06
1.50907e-06
1.2588e-06
1.20202e-06
1.30524e-06
1.22096e-06
1.62283e-06
1.61104e-06
1.59518e-06
1.61952e-06
1.66061e-06
1.68461e-06
2.34636e-06
4.89256e-06
9.89853e-33
3.81051e-33
9.85945e-06
9.14678e-06
8.6145e-06
7.91411e-06
7.30805e-06
6.89093e-06
6.75633e-06
6.53986e-06
4.94732e-06
3.31702e-06
2.82536e-06
2.40764e-06
2.06346e-06
1.58212e-06
1.47932e-06
1.37683e-06
1.35362e-06
1.34792e-06
1.65622e-06
1.59913e-06
1.57973e-06
1.59968e-06
1.64532e-06
1.69265e-06
2.03213e-06
4.80848e-06
1.02811e-32
3.52182e-33
9.84223e-06
9.10799e-06
8.59065e-06
7.89333e-06
7.3033e-06
6.90892e-06
6.85817e-06
6.50224e-06
4.75105e-06
4.07524e-06
3.33983e-06
2.43893e-06
2.09433e-06
1.59457e-06
1.47618e-06
1.40502e-06
1.44428e-06
1.59063e-06
1.63113e-06
1.55672e-06
1.55726e-06
1.58018e-06
1.62944e-06
1.67853e-06
2.04963e-06
4.67067e-06
1.02854e-32
3.50143e-33
9.86179e-06
9.07189e-06
8.56491e-06
7.87694e-06
7.30308e-06
6.94082e-06
6.97767e-06
6.51877e-06
4.51257e-06
3.95797e-06
3.31507e-06
2.39104e-06
2.22762e-06
1.55214e-06
1.49686e-06
1.4896e-06
1.50977e-06
1.50289e-06
1.4473e-06
1.48475e-06
1.51705e-06
1.54413e-06
1.60636e-06
1.67073e-06
2.0576e-06
4.50809e-06
1.05428e-32
3.31342e-33
9.84002e-06
9.05238e-06
8.53387e-06
7.86441e-06
7.30132e-06
6.96671e-06
7.07534e-06
6.52592e-06
4.3544e-06
3.67266e-06
3.13998e-06
2.27956e-06
2.13616e-06
1.45374e-06
1.35133e-06
1.36182e-06
1.37992e-06
1.31247e-06
1.31014e-06
1.42375e-06
1.46762e-06
1.50799e-06
1.58166e-06
1.6525e-06
2.05391e-06
4.33737e-06
1.07286e-32
3.30712e-33
9.78203e-06
9.05413e-06
8.51909e-06
7.85149e-06
7.29553e-06
7.01064e-06
7.21168e-06
6.49892e-06
4.11087e-06
3.36269e-06
2.99882e-06
2.15348e-06
2.13199e-06
1.62019e-06
1.16383e-06
1.14862e-06
1.26225e-06
1.28912e-06
1.26463e-06
1.36274e-06
1.40631e-06
1.45495e-06
1.54254e-06
1.62459e-06
2.03475e-06
4.08974e-06
1.06458e-32
3.16188e-33
9.75375e-06
9.06067e-06
8.50949e-06
7.83718e-06
7.2948e-06
7.07109e-06
7.29397e-06
6.39411e-06
3.81938e-06
3.12176e-06
2.82176e-06
2.04818e-06
1.87173e-06
1.32684e-06
1.12287e-06
1.15444e-06
1.31084e-06
1.37382e-06
1.26591e-06
1.29683e-06
1.34748e-06
1.40851e-06
1.50665e-06
1.58271e-06
2.01039e-06
3.97555e-06
1.1057e-32
3.16607e-33
9.77814e-06
9.06875e-06
8.50901e-06
7.82257e-06
7.30077e-06
7.15218e-06
7.39724e-06
6.15936e-06
3.62047e-06
2.9972e-06
2.82176e-06
1.78439e-06
1.28408e-06
1.14977e-06
1.19465e-06
1.24581e-06
1.40181e-06
1.53839e-06
1.33733e-06
1.25326e-06
1.29244e-06
1.35693e-06
1.46004e-06
1.52932e-06
1.95962e-06
3.98354e-06
1.12628e-32
3.02088e-33
9.79367e-06
9.06402e-06
8.51759e-06
7.82156e-06
7.34568e-06
7.27334e-06
7.3794e-06
5.73998e-06
3.17483e-06
2.5951e-06
2.60313e-06
1.48165e-06
1.01073e-06
1.28979e-06
1.1804e-06
1.21429e-06
1.40515e-06
1.55908e-06
1.4226e-06
1.22842e-06
1.2422e-06
1.31724e-06
1.42227e-06
1.46772e-06
1.88386e-06
4.04216e-06
1.11919e-32
3.02777e-33
9.80293e-06
9.05247e-06
8.533e-06
7.82895e-06
7.43513e-06
7.459e-06
7.36339e-06
5.34432e-06
2.75863e-06
2.35515e-06
2.49271e-06
1.55241e-06
1.43147e-06
1.43676e-06
1.24916e-06
1.20221e-06
1.27838e-06
1.37657e-06
1.29329e-06
1.15968e-06
1.15786e-06
1.26505e-06
1.37803e-06
1.39728e-06
1.73336e-06
4.15482e-06
1.17938e-32
2.88059e-33
9.83101e-06
9.06172e-06
8.5756e-06
7.93465e-06
7.71931e-06
7.86679e-06
7.19499e-06
4.50995e-06
2.12845e-06
1.98449e-06
2.15127e-06
2.30072e-06
2.80296e-06
2.37873e-06
2.03836e-06
1.58234e-06
9.40001e-07
7.10669e-07
8.904e-07
9.63253e-07
1.07512e-06
1.2321e-06
1.35172e-06
1.2983e-06
1.58331e-06
4.24021e-06
1.17703e-32
2.88373e-33
9.91809e-06
9.14014e-06
8.67996e-06
8.13463e-06
7.97409e-06
7.66817e-06
3.49254e-33
4.4582e-32
2.21408e-06
2.24982e-06
2.03875e-06
9.50197e-07
8.04274e-07
7.05917e-07
6.8454e-07
6.50213e-07
7.3519e-07
7.79905e-07
8.61489e-07
9.56364e-07
1.07897e-06
1.22572e-06
1.33076e-06
1.09755e-06
1.48333e-06
4.27159e-06
1.22621e-32
2.74029e-33
9.96241e-06
9.22351e-06
8.76937e-06
8.28432e-06
8.1717e-06
7.68693e-06
3.63895e-33
4.2118e-31
1.63635e-06
2.06276e-06
1.60239e-06
7.26101e-07
6.23342e-07
6.09872e-07
6.25248e-07
6.38971e-07
6.92424e-07
7.45183e-07
8.55279e-07
9.39835e-07
1.0565e-06
1.20181e-06
1.3046e-06
6.01125e-07
1.4286e-06
4.26193e-06
1.2494e-32
2.74504e-33
1.00434e-05
9.36898e-06
8.90342e-06
8.43925e-06
8.31588e-06
7.71005e-06
4.42671e-33
2.05872e-29
1.02809e-30
1.95534e-06
1.68377e-06
6.02407e-07
5.03403e-07
5.09012e-07
5.52974e-07
5.91157e-07
6.59505e-07
7.22463e-07
8.31779e-07
9.26386e-07
1.04813e-06
1.18692e-06
1.27879e-06
2.30672e-30
1.38095e-06
4.20902e-06
1.24454e-32
2.61349e-33
1.00888e-05
9.45198e-06
8.98567e-06
8.53414e-06
8.38755e-06
7.72947e-06
4.01197e-33
7.33882e-31
7.44408e-07
1.0003e-06
1.42682e-06
6.43985e-07
5.35047e-07
5.38907e-07
5.72671e-07
6.06802e-07
6.71225e-07
7.29937e-07
8.23953e-07
9.13521e-07
1.01874e-06
1.14399e-06
1.23487e-06
2.02078e-30
1.32069e-06
4.11987e-06
1.29447e-32
2.61912e-33
1.02082e-05
9.56154e-06
9.08023e-06
8.60145e-06
8.39243e-06
7.79078e-06
4.6575e-33
3.63291e-31
5.74898e-07
5.48151e-07
6.23129e-07
4.99587e-07
4.94755e-07
5.09616e-07
5.43701e-07
5.89836e-07
6.47417e-07
7.04741e-07
7.85473e-07
8.70398e-07
9.66046e-07
1.06553e-06
1.1465e-06
1.41622e-30
1.24004e-06
4.01275e-06
1.31858e-32
2.48594e-33
1.02532e-05
9.58526e-06
9.11411e-06
8.62286e-06
8.38684e-06
7.69393e-06
5.81216e-33
8.33666e-32
4.81908e-07
5.37738e-07
4.90733e-07
4.99334e-07
4.89234e-07
5.01647e-07
5.22744e-07
5.6664e-07
6.08867e-07
6.55568e-07
7.14291e-07
7.72568e-07
8.34544e-07
8.97597e-07
9.60389e-07
1.03862e-30
1.08376e-06
3.93278e-06
1.31816e-32
2.42234e-33
1.03417e-05
9.65668e-06
9.18587e-06
8.6755e-06
8.19292e-06
2.85473e-33
1.76281e-31
3.91688e-07
4.05821e-07
3.8841e-07
3.7273e-07
3.68511e-07
3.60858e-07
3.66943e-07
3.74369e-07
3.95803e-07
4.14444e-07
4.32982e-07
4.55752e-07
4.75981e-07
4.9431e-07
4.997e-07
5.17674e-07
6.58217e-07
6.53112e-07
3.78864e-06
1.36695e-32
8.9369e-07
1.1552e-06
2.85864e-06
3.30335e-06
3.84329e-06
4.13647e-06
4.48449e-06
4.71281e-06
4.94626e-06
5.06389e-06
5.16622e-06
5.17442e-06
5.12386e-06
5.00025e-06
4.81096e-06
4.52578e-06
4.14983e-06
3.68729e-06
3.14194e-06
2.48068e-06
1.79241e-06
1.32885e-06
1.25218e-06
1.48482e-06
2.38883e-06
3.24058e-06
3.39631e-06
3.75934e-32
7.03608e-32
4.8402e-06
4.80635e-06
4.87354e-06
4.93744e-06
5.026e-06
5.11622e-06
5.11693e-06
5.08832e-06
5.0496e-06
5.05986e-06
5.10796e-06
5.0153e-06
4.8826e-06
4.71937e-06
4.51536e-06
4.25547e-06
3.93629e-06
3.56789e-06
3.22314e-06
2.85969e-06
2.65056e-06
2.59652e-06
2.67608e-06
3.00312e-06
3.46647e-06
3.99589e-06
4.37159e-32
1.04987e-07
9.02805e-07
8.47492e-07
8.28887e-07
7.90822e-07
7.60837e-07
7.12676e-07
6.60539e-07
6.3116e-07
6.4348e-07
1.11106e-06
4.89328e-06
4.66157e-06
4.46865e-06
4.30406e-06
4.12576e-06
3.93e-06
3.70394e-06
3.4525e-06
3.13138e-06
2.85159e-06
2.64859e-06
2.63192e-06
2.57633e-06
2.63707e-06
3.1577e-06
3.9405e-06
4.60011e-32
8.55621e-08
1.57325e-07
1.40036e-07
1.29396e-07
1.10598e-07
8.3885e-08
7.18967e-08
6.56234e-08
6.2859e-08
4.14332e-08
6.99189e-08
9.27065e-07
4.26244e-06
4.16426e-06
4.08961e-06
3.96748e-06
3.81998e-06
3.61114e-06
3.27917e-06
2.83421e-06
2.4027e-06
2.10041e-06
2.13161e-06
2.113e-06
2.2245e-06
2.86786e-06
3.83299e-06
3.56942e-32
1.20574e-31
3.47129e-06
6.39448e-08
4.18096e-08
3.76557e-08
2.81757e-08
2.23643e-08
1.9109e-08
1.93349e-08
9.82383e-09
7.77967e-09
4.54262e-07
3.93574e-06
3.82227e-06
3.58102e-06
3.17226e-06
2.67972e-06
2.04352e-06
1.67697e-06
1.59666e-06
1.58523e-06
1.6539e-06
1.84271e-06
2.82333e-06
1.9173e-06
2.61632e-06
3.71207e-06
3.45493e-32
7.30261e-32
6.26327e-06
3.06788e-06
4.24749e-08
1.02557e-08
1.41296e-09
6.04343e-10
1.78512e-09
2.038e-09
8.5349e-10
1.07133e-09
2.49251e-07
3.49224e-06
2.99318e-06
2.08638e-06
1.48185e-06
1.33307e-06
1.32344e-06
1.41231e-06
1.46536e-06
1.51727e-06
1.57836e-06
1.67097e-06
1.89028e-06
2.03894e-06
2.56374e-06
3.6764e-06
3.15072e-32
4.9616e-32
6.79672e-06
5.74541e-06
3.25402e-06
3.07878e-06
2.91317e-06
2.36964e-06
1.77035e-08
2.80572e-09
2.84955e-09
1.59565e-09
1.91984e-07
2.90235e-06
1.97522e-06
1.09971e-06
1.02441e-06
1.02569e-06
1.13315e-06
1.29755e-06
1.4199e-06
1.48689e-06
1.53977e-06
1.6401e-06
1.72454e-06
2.19715e-06
2.51318e-06
3.63274e-06
3.06926e-32
3.24832e-32
6.87613e-06
6.32695e-06
5.68875e-06
5.32626e-06
4.95848e-06
4.48083e-06
2.66107e-06
2.55015e-06
2.10679e-06
2.0618e-08
1.03625e-07
2.36442e-06
1.45793e-06
8.36916e-07
6.31035e-07
7.87151e-07
8.92588e-07
1.16153e-06
1.35062e-06
1.44416e-06
1.49943e-06
1.53075e-06
1.66341e-06
2.02692e-06
2.41996e-06
3.58725e-06
3.1044e-32
2.84221e-32
6.88591e-06
6.41305e-06
6.03829e-06
5.59852e-06
5.17121e-06
4.81233e-06
4.41981e-06
4.293e-06
3.78334e-06
1.20292e-08
2.32474e-08
2.09919e-06
1.2466e-06
8.97506e-07
7.18528e-07
8.59778e-07
1.3048e-06
9.53525e-07
1.34514e-06
1.43095e-06
1.46511e-06
1.50051e-06
1.55523e-06
1.91888e-06
2.30065e-06
3.54326e-06
2.9871e-32
2.23384e-32
6.88258e-06
6.42683e-06
6.05145e-06
5.59035e-06
5.14522e-06
4.79207e-06
4.6023e-06
4.54561e-06
3.94262e-06
2.80361e-08
2.74295e-08
1.76128e-06
1.25229e-06
1.06634e-06
8.40157e-07
9.37621e-07
1.309e-06
1.58275e-06
1.38569e-06
1.42627e-06
1.43655e-06
1.47025e-06
1.49423e-06
1.619e-06
2.33682e-06
3.48805e-06
3.15242e-32
2.15648e-32
6.86289e-06
6.40309e-06
6.03563e-06
5.54823e-06
5.10036e-06
4.7872e-06
4.65463e-06
4.64837e-06
3.51061e-06
4.90153e-08
4.95922e-08
1.61148e-06
1.40638e-06
1.3648e-06
1.05026e-06
9.93867e-07
1.26155e-06
1.07485e-06
1.40425e-06
1.40599e-06
1.41148e-06
1.44415e-06
1.4901e-06
1.47617e-06
2.0995e-06
3.47454e-06
3.21696e-32
1.89946e-32
6.83814e-06
6.36821e-06
6.01279e-06
5.52012e-06
5.07956e-06
4.79141e-06
4.72708e-06
4.64002e-06
3.60165e-06
1.94428e-06
1.75154e-06
1.84281e-06
1.56369e-06
1.41876e-06
1.1333e-06
1.08049e-06
1.37003e-06
1.11678e-06
1.40013e-06
1.39101e-06
1.38842e-06
1.41526e-06
1.48305e-06
1.52435e-06
1.78984e-06
3.43712e-06
3.26807e-32
1.81695e-32
6.84796e-06
6.33581e-06
5.98824e-06
5.50255e-06
5.07434e-06
4.79939e-06
4.79813e-06
4.60426e-06
3.49375e-06
2.92363e-06
2.44736e-06
1.89261e-06
1.66092e-06
1.43223e-06
1.34291e-06
1.34006e-06
1.40419e-06
1.32723e-06
1.37874e-06
1.34716e-06
1.352e-06
1.38383e-06
1.46018e-06
1.52452e-06
1.79128e-06
3.34561e-06
3.28256e-32
1.78808e-32
6.86828e-06
6.31724e-06
5.96351e-06
5.48937e-06
5.07332e-06
4.82156e-06
4.88462e-06
4.61141e-06
3.37474e-06
2.91702e-06
2.48834e-06
1.85942e-06
1.67243e-06
1.50467e-06
1.17171e-06
1.17381e-06
1.33865e-06
1.23759e-06
1.28732e-06
1.27878e-06
1.2981e-06
1.33589e-06
1.42451e-06
1.50332e-06
1.77064e-06
3.24345e-06
3.31735e-32
1.68176e-32
6.82851e-06
6.31786e-06
5.94091e-06
5.47944e-06
5.07123e-06
4.83975e-06
4.96321e-06
4.63397e-06
3.19971e-06
2.71566e-06
2.35364e-06
1.77921e-06
1.65802e-06
1.58417e-06
1.39255e-06
1.19235e-06
1.2724e-06
1.32552e-06
1.25934e-06
1.20859e-06
1.23704e-06
1.28945e-06
1.38812e-06
1.47237e-06
1.74533e-06
3.14044e-06
3.31331e-32
1.67537e-32
6.77789e-06
6.32813e-06
5.93439e-06
5.46867e-06
5.06608e-06
4.87006e-06
5.07132e-06
4.63026e-06
3.06339e-06
2.4915e-06
2.24759e-06
1.70323e-06
1.61075e-06
1.77305e-06
9.9229e-07
1.03549e-06
1.38577e-06
1.37897e-06
1.23169e-06
1.13982e-06
1.17012e-06
1.23009e-06
1.34224e-06
1.42925e-06
1.71044e-06
2.99667e-06
3.32479e-32
1.59703e-32
6.77703e-06
6.33114e-06
5.9296e-06
5.45627e-06
5.06696e-06
4.92168e-06
5.15003e-06
4.58643e-06
2.8226e-06
2.30408e-06
2.0739e-06
1.60998e-06
1.4206e-06
1.23611e-06
1.14716e-06
1.25405e-06
1.50988e-06
1.55302e-06
1.23698e-06
1.07636e-06
1.1132e-06
1.1867e-06
1.30503e-06
1.37696e-06
1.67e-06
2.92995e-06
3.30329e-32
1.59253e-32
6.79882e-06
6.32135e-06
5.92511e-06
5.44313e-06
5.07276e-06
4.99067e-06
5.24029e-06
4.42947e-06
2.64974e-06
2.21858e-06
2.06826e-06
1.4156e-06
1.24485e-06
1.15729e-06
1.35175e-06
1.45039e-06
1.61117e-06
1.74665e-06
1.30723e-06
1.044e-06
1.06278e-06
1.14398e-06
1.26434e-06
1.32487e-06
1.61654e-06
2.91074e-06
3.17266e-32
1.53276e-32
6.79938e-06
6.29425e-06
5.92553e-06
5.44072e-06
5.10163e-06
5.06064e-06
5.22343e-06
4.13072e-06
2.36459e-06
1.9802e-06
1.95327e-06
1.65414e-06
1.03951e-06
1.59001e-06
1.31221e-06
1.33544e-06
1.7262e-06
1.73506e-06
1.29881e-06
1.01397e-06
1.01729e-06
1.11474e-06
1.2365e-06
1.26717e-06
1.52146e-06
2.88273e-06
3.25057e-32
1.5259e-32
6.7901e-06
6.26744e-06
5.92468e-06
5.42681e-06
5.13324e-06
5.13439e-06
5.17093e-06
3.79165e-06
1.99513e-06
1.74887e-06
1.79556e-06
1.81969e-06
1.7737e-06
1.85275e-06
1.54597e-06
1.4581e-06
1.64732e-06
1.64771e-06
1.10903e-06
8.95339e-07
9.31765e-07
1.07995e-06
1.20793e-06
1.20021e-06
1.38092e-06
2.91789e-06
3.22331e-32
1.46546e-32
6.80587e-06
6.2674e-06
5.92728e-06
5.46158e-06
5.28409e-06
5.41159e-06
5.04707e-06
3.24722e-06
1.74533e-06
1.65918e-06
1.62281e-06
2.70833e-06
3.24087e-06
2.87672e-06
2.49123e-06
2.06176e-06
1.27686e-06
8.50236e-07
6.96555e-07
7.82953e-07
9.08536e-07
1.07858e-06
1.20027e-06
1.09398e-06
1.27643e-06
2.99226e-06
3.38418e-32
1.46241e-32
6.85793e-06
6.33154e-06
5.98025e-06
5.5891e-06
5.45818e-06
5.19243e-06
9.06207e-07
4.2558e-07
1.6446e-06
1.62342e-06
1.50099e-06
8.31391e-07
7.33993e-07
6.44618e-07
6.1493e-07
5.79394e-07
6.59557e-07
7.02707e-07
7.33297e-07
8.14031e-07
9.36974e-07
1.08517e-06
1.18814e-06
8.73708e-07
1.24111e-06
3.03121e-06
3.45985e-32
1.40492e-32
6.8739e-06
6.39541e-06
6.03563e-06
5.69552e-06
5.61035e-06
5.13437e-06
1.45794e-07
7.1315e-08
1.30229e-06
1.60151e-06
1.2729e-06
5.45073e-07
4.54933e-07
4.55047e-07
4.84041e-07
5.05187e-07
5.58092e-07
6.01254e-07
7.05968e-07
8.02151e-07
9.20493e-07
1.06463e-06
1.16429e-06
5.47209e-07
1.21125e-06
3.03533e-06
3.44012e-32
1.40816e-32
6.92403e-06
6.49589e-06
6.13285e-06
5.81547e-06
5.73815e-06
5.15819e-06
2.31791e-08
2.0006e-09
1.09618e-07
1.46201e-06
1.27664e-06
4.8232e-07
4.14669e-07
4.29906e-07
4.78162e-07
5.25044e-07
5.79499e-07
6.32434e-07
7.12601e-07
8.0184e-07
9.17228e-07
1.04835e-06
1.135e-06
4.17978e-07
1.1588e-06
3.00411e-06
3.59829e-32
1.34691e-32
6.95494e-06
6.53892e-06
6.19416e-06
5.88921e-06
5.80442e-06
5.20383e-06
5.14792e-10
3.60669e-09
5.84072e-07
7.02963e-07
1.11085e-06
4.94785e-07
4.11576e-07
4.21973e-07
4.61463e-07
5.03112e-07
5.60193e-07
6.16038e-07
6.96524e-07
7.81153e-07
8.7662e-07
9.91048e-07
1.07467e-06
3.69286e-07
1.09011e-06
2.94101e-06
3.57694e-32
1.35531e-32
7.03881e-06
6.59468e-06
6.26382e-06
5.94114e-06
5.81002e-06
5.31202e-06
7.91193e-12
2.69884e-09
4.29124e-07
4.53495e-07
4.71323e-07
4.0045e-07
3.91528e-07
4.06151e-07
4.34831e-07
4.84193e-07
5.35963e-07
5.86883e-07
6.52062e-07
7.22567e-07
8.03054e-07
8.88686e-07
9.55505e-07
3.02676e-07
9.87723e-07
2.86677e-06
3.72519e-32
1.27878e-32
7.07806e-06
6.60757e-06
6.28896e-06
5.95973e-06
5.81071e-06
5.29479e-06
4.58959e-10
7.97524e-10
3.37271e-07
4.13146e-07
3.87567e-07
3.79222e-07
3.70585e-07
3.81785e-07
3.97507e-07
4.38828e-07
4.71146e-07
5.07233e-07
5.48234e-07
5.88715e-07
6.30387e-07
6.75251e-07
7.10075e-07
2.73809e-07
7.85735e-07
2.82323e-06
3.77983e-32
1.25925e-32
7.1309e-06
6.65089e-06
6.33408e-06
5.99684e-06
5.60704e-06
9.13532e-07
1.39828e-09
2.53382e-07
2.68646e-07
2.53298e-07
2.58397e-07
2.48455e-07
2.48281e-07
2.52265e-07
2.57511e-07
2.65961e-07
2.70308e-07
2.72593e-07
2.71556e-07
2.66765e-07
2.5733e-07
2.23029e-07
1.96322e-07
4.31472e-07
3.24918e-07
2.73977e-06
3.82024e-32
1.22694e-06
8.64279e-07
1.88352e-06
2.11967e-06
2.4674e-06
2.68045e-06
2.92662e-06
3.09485e-06
3.26361e-06
3.34616e-06
3.39421e-06
3.36582e-06
3.31377e-06
3.17223e-06
2.98127e-06
2.70011e-06
2.36921e-06
2.00951e-06
1.66557e-06
1.36885e-06
1.28276e-06
1.49991e-06
1.59153e-06
1.31495e-06
1.3389e-06
1.91481e-06
2.0676e-06
2.61703e-07
3.99719e-07
2.9264e-06
3.01403e-06
3.12182e-06
3.23969e-06
3.34481e-06
3.45367e-06
3.49251e-06
3.52347e-06
3.55256e-06
3.62618e-06
3.69708e-06
3.65063e-06
3.55985e-06
3.44058e-06
3.26503e-06
3.04647e-06
2.80276e-06
2.53847e-06
2.31615e-06
2.11049e-06
2.03117e-06
2.00833e-06
2.05457e-06
2.21017e-06
2.52313e-06
2.84063e-06
1.68776e-07
2.1951e-07
1.29833e-06
1.27539e-06
1.26662e-06
1.25784e-06
1.24266e-06
1.19663e-06
1.15271e-06
1.14642e-06
1.26947e-06
1.89384e-06
3.67121e-06
3.5423e-06
3.39344e-06
3.26761e-06
3.13433e-06
2.98958e-06
2.82235e-06
2.64563e-06
2.43903e-06
2.31366e-06
2.30062e-06
2.36377e-06
2.30743e-06
2.195e-06
2.41957e-06
2.94369e-06
2.03572e-31
4.04408e-31
6.89546e-07
6.54828e-07
6.60116e-07
6.01211e-07
5.4942e-07
5.08347e-07
5.02334e-07
5.48077e-07
6.52686e-07
8.58927e-07
1.7405e-06
3.28847e-06
3.22614e-06
3.17482e-06
3.08057e-06
2.96947e-06
2.79746e-06
2.50275e-06
2.15911e-06
1.90438e-06
1.91379e-06
2.12438e-06
2.15353e-06
1.95084e-06
2.19725e-06
2.87741e-06
1.43133e-31
5.04897e-31
1.52513e-06
6.55933e-07
7.10177e-07
6.69516e-07
6.39268e-07
6.00032e-07
5.94017e-07
6.37981e-07
6.42868e-07
6.67344e-07
1.26135e-06
3.04287e-06
2.99118e-06
2.83944e-06
2.5561e-06
2.12946e-06
1.61587e-06
1.46273e-06
1.49301e-06
1.52964e-06
1.6644e-06
1.94705e-06
2.8961e-06
1.97182e-06
2.04689e-06
2.78564e-06
1.46024e-31
2.26895e-31
4.08099e-06
1.28001e-06
6.24977e-07
5.84008e-07
5.14372e-07
5.69952e-07
6.61808e-07
6.68774e-07
6.12614e-07
5.58463e-07
9.90805e-07
2.70941e-06
2.35423e-06
1.62184e-06
1.20443e-06
1.17443e-06
1.19881e-06
1.33483e-06
1.44933e-06
1.52095e-06
1.56798e-06
1.6248e-06
1.88381e-06
2.24943e-06
2.04387e-06
2.757e-06
1.18784e-31
1.23483e-31
4.81875e-06
3.67667e-06
1.49947e-06
1.44979e-06
1.40684e-06
1.03183e-06
6.33898e-07
6.44813e-07
6.38255e-07
5.66009e-07
8.02049e-07
2.27339e-06
1.52702e-06
8.98506e-07
1.09354e-06
1.08172e-06
1.02966e-06
1.1928e-06
1.37785e-06
1.46776e-06
1.52795e-06
1.54146e-06
1.66527e-06
2.30741e-06
2.08141e-06
2.73895e-06
1.19783e-31
9.53286e-32
4.96207e-06
4.52638e-06
3.83603e-06
3.62888e-06
3.41649e-06
2.9727e-06
1.38256e-06
1.28801e-06
9.4792e-07
6.66842e-07
6.1899e-07
1.87427e-06
1.18032e-06
8.24022e-07
6.89238e-07
8.80541e-07
9.09695e-07
1.06868e-06
1.32986e-06
1.407e-06
1.46783e-06
1.49479e-06
1.55191e-06
1.91775e-06
2.08007e-06
2.71156e-06
1.1984e-31
7.66264e-32
4.97747e-06
4.68526e-06
4.36769e-06
4.06721e-06
3.78455e-06
3.51775e-06
3.10262e-06
2.98793e-06
2.57103e-06
5.24762e-07
4.85986e-07
1.69265e-06
1.07586e-06
9.24504e-07
7.44808e-07
8.35554e-07
1.65332e-06
1.16025e-06
1.39525e-06
1.38789e-06
1.42214e-06
1.47248e-06
1.49858e-06
1.72127e-06
2.09842e-06
2.68415e-06
1.24137e-31
7.06078e-32
4.96573e-06
4.69623e-06
4.41928e-06
4.09774e-06
3.79653e-06
3.54717e-06
3.39489e-06
3.33692e-06
2.90186e-06
5.62395e-07
4.4858e-07
1.48934e-06
1.05206e-06
1.15147e-06
7.78488e-07
7.89205e-07
1.5263e-06
1.68907e-06
1.50646e-06
1.37132e-06
1.37858e-06
1.42728e-06
1.47763e-06
1.49984e-06
2.17248e-06
2.64948e-06
1.20677e-31
6.28838e-32
4.94443e-06
4.66617e-06
4.41692e-06
4.07129e-06
3.76419e-06
3.54285e-06
3.45627e-06
3.46696e-06
2.71269e-06
7.94793e-07
5.85385e-07
1.4515e-06
1.23161e-06
1.59381e-06
1.09306e-06
1.0419e-06
1.63464e-06
1.20627e-06
1.56095e-06
1.34815e-06
1.34175e-06
1.3929e-06
1.47834e-06
1.5027e-06
2.1345e-06
2.65599e-06
1.27888e-31
6.12885e-32
4.92976e-06
4.63184e-06
4.38974e-06
4.04646e-06
3.74384e-06
3.5455e-06
3.50292e-06
3.4697e-06
3.07657e-06
1.33659e-06
1.28856e-06
1.65239e-06
1.37979e-06
1.64551e-06
1.06673e-06
1.06511e-06
1.75952e-06
1.17804e-06
1.50121e-06
1.33105e-06
1.30137e-06
1.34367e-06
1.4546e-06
1.52767e-06
1.85561e-06
2.64964e-06
1.31571e-31
5.68376e-32
4.93711e-06
4.60996e-06
4.36552e-06
4.03057e-06
3.73769e-06
3.54716e-06
3.54631e-06
3.43468e-06
2.82339e-06
2.29396e-06
1.9798e-06
1.7174e-06
1.58379e-06
1.67251e-06
1.59578e-06
1.64587e-06
1.78141e-06
1.52334e-06
1.46217e-06
1.28653e-06
1.24566e-06
1.29623e-06
1.41374e-06
1.50961e-06
1.80027e-06
2.59192e-06
1.31706e-31
5.52918e-32
4.93702e-06
4.60399e-06
4.3445e-06
4.01982e-06
3.73609e-06
3.56105e-06
3.60424e-06
3.43233e-06
2.93835e-06
2.3542e-06
2.17702e-06
1.71254e-06
1.44698e-06
1.83365e-06
1.13455e-06
1.14277e-06
1.64188e-06
1.36096e-06
1.51155e-06
1.22945e-06
1.17659e-06
1.23325e-06
1.36266e-06
1.46366e-06
1.72775e-06
2.52836e-06
1.29719e-31
5.51487e-32
4.89769e-06
4.61125e-06
4.33022e-06
4.01239e-06
3.73364e-06
3.57469e-06
3.66485e-06
3.44905e-06
2.58738e-06
2.21393e-06
1.96953e-06
1.66958e-06
1.54633e-06
2.02436e-06
1.75697e-06
1.48103e-06
1.70711e-06
1.80042e-06
1.64094e-06
1.1476e-06
1.10654e-06
1.17882e-06
1.3179e-06
1.41607e-06
1.67311e-06
2.46495e-06
1.27096e-31
5.24324e-32
4.87083e-06
4.61762e-06
4.32813e-06
4.00395e-06
3.7296e-06
3.59522e-06
3.74779e-06
3.45302e-06
2.63331e-06
2.05953e-06
1.94381e-06
1.64442e-06
1.38147e-06
2.13478e-06
1.12163e-06
1.19459e-06
1.91258e-06
1.72072e-06
1.54031e-06
1.07992e-06
1.03915e-06
1.11932e-06
1.27015e-06
1.35935e-06
1.60679e-06
2.38187e-06
1.24226e-31
5.30192e-32
4.8777e-06
4.61271e-06
4.32494e-06
3.99388e-06
3.73156e-06
3.63732e-06
3.81712e-06
3.43823e-06
2.42644e-06
1.92596e-06
1.77788e-06
1.57737e-06
1.24992e-06
1.56763e-06
1.46638e-06
1.64364e-06
2.06251e-06
1.95029e-06
1.4929e-06
1.00151e-06
9.87669e-07
1.08566e-06
1.23821e-06
1.30294e-06
1.55184e-06
2.34282e-06
1.17288e-31
5.07874e-32
4.88405e-06
4.59067e-06
4.31656e-06
3.98314e-06
3.73717e-06
3.69291e-06
3.88673e-06
3.33262e-06
2.15531e-06
1.86764e-06
1.73245e-06
1.49582e-06
1.5618e-06
1.46488e-06
1.82882e-06
1.96459e-06
2.06377e-06
2.23731e-06
1.43496e-06
9.58485e-07
9.42065e-07
1.05694e-06
1.2089e-06
1.25647e-06
1.48128e-06
2.29722e-06
1.11966e-31
5.13771e-32
4.87659e-06
4.56031e-06
4.31399e-06
3.98148e-06
3.75514e-06
3.72399e-06
3.86564e-06
3.11187e-06
2.02841e-06
1.76226e-06
1.68393e-06
2.07073e-06
1.27175e-06
2.16885e-06
1.68105e-06
1.70701e-06
2.4221e-06
2.22293e-06
1.35275e-06
9.07335e-07
8.9452e-07
1.04245e-06
1.19435e-06
1.20175e-06
1.36646e-06
2.22404e-06
1.162e-31
4.92819e-32
4.86571e-06
4.5398e-06
4.3058e-06
3.95861e-06
3.75083e-06
3.7307e-06
3.78776e-06
2.85026e-06
1.7251e-06
1.59667e-06
1.51772e-06
2.32249e-06
2.1904e-06
2.4635e-06
2.01562e-06
1.96086e-06
2.4436e-06
2.33888e-06
1.11644e-06
7.74051e-07
8.46582e-07
1.04179e-06
1.18235e-06
1.13409e-06
1.25388e-06
2.22147e-06
1.16956e-31
4.95601e-32
4.87119e-06
4.54039e-06
4.29222e-06
3.95785e-06
3.81688e-06
3.89868e-06
3.67252e-06
2.4732e-06
1.83822e-06
1.83516e-06
1.67898e-06
3.16777e-06
3.64512e-06
3.33983e-06
2.94017e-06
2.61298e-06
1.7781e-06
1.4032e-06
7.4362e-07
7.47282e-07
8.67254e-07
1.0581e-06
1.18569e-06
1.02678e-06
1.20516e-06
2.30169e-06
1.23649e-31
4.77727e-32
4.89549e-06
4.58874e-06
4.30927e-06
4.03363e-06
3.93777e-06
3.73063e-06
1.53189e-06
7.93908e-07
1.30388e-06
1.27611e-06
1.17594e-06
7.38669e-07
6.92215e-07
6.27593e-07
6.04726e-07
5.87479e-07
6.41601e-07
6.89562e-07
6.88703e-07
7.72752e-07
9.06163e-07
1.06496e-06
1.17083e-06
8.5926e-07
1.20112e-06
2.35267e-06
1.20719e-31
4.74246e-32
4.90329e-06
4.6307e-06
4.35109e-06
4.12341e-06
4.06134e-06
3.58552e-06
6.67043e-07
3.1062e-07
1.07699e-06
1.30639e-06
1.06623e-06
4.34017e-07
3.53532e-07
3.59101e-07
4.05885e-07
4.49415e-07
5.1351e-07
5.59801e-07
6.54281e-07
7.61413e-07
8.89639e-07
1.03995e-06
1.14085e-06
7.37776e-07
1.16383e-06
2.36519e-06
1.28054e-31
4.59234e-32
4.93909e-06
4.69545e-06
4.42894e-06
4.22686e-06
4.18116e-06
3.58778e-06
4.00212e-07
6.14133e-08
2.42741e-07
1.16607e-06
1.01936e-06
4.16395e-07
3.66834e-07
3.90904e-07
4.43173e-07
5.05619e-07
5.55967e-07
6.09827e-07
6.76118e-07
7.68704e-07
8.80493e-07
1.00794e-06
1.09317e-06
6.83719e-07
1.08525e-06
2.34551e-06
1.26893e-31
4.53153e-32
4.96353e-06
4.71588e-06
4.48121e-06
4.28988e-06
4.24352e-06
3.63532e-06
2.9492e-07
1.66488e-07
4.84535e-07
5.33755e-07
9.09756e-07
3.9694e-07
3.48169e-07
3.6547e-07
4.05947e-07
4.6079e-07
5.14938e-07
5.72604e-07
6.41034e-07
7.23239e-07
8.15436e-07
9.26862e-07
1.0076e-06
6.40849e-07
9.87492e-07
2.29786e-06
1.33462e-31
4.38626e-32
5.02138e-06
4.74889e-06
4.53856e-06
4.33367e-06
4.25325e-06
3.77367e-06
5.67855e-08
1.417e-07
3.62376e-07
4.03808e-07
4.21986e-07
3.4764e-07
3.37265e-07
3.55075e-07
3.87952e-07
4.43283e-07
4.88515e-07
5.34832e-07
5.86929e-07
6.45318e-07
7.16633e-07
8.00182e-07
8.56228e-07
5.40371e-07
8.32776e-07
2.24265e-06
1.34926e-31
4.37592e-32
5.05463e-06
4.76541e-06
4.56073e-06
4.35062e-06
4.25613e-06
3.76874e-06
4.88286e-08
1.42601e-07
3.00502e-07
3.46528e-07
3.40242e-07
3.19987e-07
3.16535e-07
3.28527e-07
3.44524e-07
3.8244e-07
4.07455e-07
4.35138e-07
4.64384e-07
4.95703e-07
5.33348e-07
5.99905e-07
6.14753e-07
4.54733e-07
5.46007e-07
2.21869e-06
1.35737e-31
4.17128e-32
5.09493e-06
4.8076e-06
4.59714e-06
4.38169e-06
4.08837e-06
1.51306e-06
5.05915e-08
2.93729e-07
3.04472e-07
2.94899e-07
2.99602e-07
2.96076e-07
3.0196e-07
3.07087e-07
3.17527e-07
3.28609e-07
3.36584e-07
3.48581e-07
3.69819e-07
3.93336e-07
4.38978e-07
3.49515e-07
3.05912e-07
3.20761e-07
1.57867e-07
2.1828e-06
1.38522e-31
2.7761e-06
1.97467e-06
2.10139e-06
1.99476e-06
2.05622e-06
2.12586e-06
2.229e-06
2.29897e-06
2.3678e-06
2.39197e-06
2.36548e-06
2.3189e-06
2.24323e-06
2.10524e-06
1.95894e-06
1.77547e-06
1.64182e-06
1.5662e-06
1.61622e-06
1.81921e-06
2.18361e-06
2.54377e-06
2.61638e-06
2.24543e-06
1.63491e-06
1.39785e-06
1.43199e-06
8.91842e-07
1.09321e-06
1.913e-06
2.01387e-06
2.15402e-06
2.29734e-06
2.4059e-06
2.51285e-06
2.55823e-06
2.60582e-06
2.65724e-06
2.7451e-06
2.7902e-06
2.75059e-06
2.68164e-06
2.59441e-06
2.46648e-06
2.31505e-06
2.16166e-06
2.03163e-06
1.97097e-06
1.96473e-06
2.00391e-06
2.01101e-06
1.9845e-06
1.91211e-06
1.98242e-06
2.11918e-06
5.1588e-07
8.04318e-07
1.31462e-06
1.29495e-06
1.2962e-06
1.29313e-06
1.27933e-06
1.24012e-06
1.22415e-06
1.27557e-06
1.48645e-06
2.06039e-06
2.89441e-06
2.82346e-06
2.73012e-06
2.64341e-06
2.54317e-06
2.44108e-06
2.3334e-06
2.24101e-06
2.15364e-06
2.1751e-06
2.31503e-06
2.44635e-06
2.39998e-06
2.12545e-06
2.03024e-06
2.31195e-06
3.1783e-07
3.07219e-07
9.04136e-07
8.45466e-07
8.21672e-07
7.55049e-07
7.08057e-07
7.05903e-07
7.30701e-07
8.50283e-07
1.00456e-06
1.25675e-06
1.96994e-06
2.68744e-06