/*--------------------------------*- C++ -*----------------------------------*\
| =========                 |                                                 |
| \\      /  F ield         | OpenFOAM: The Open Source CFD Toolbox           |
|  \\    /   O peration     | Version:  2.3.0                                 |
|   \\  /    A nd           | Web:      www.OpenFOAM.org                      |
|    \\/     M anipulation  |                                                 |
\*---------------------------------------------------------------------------*/
FoamFile
{
    version     2.0;
    format      ascii;
    class       volScalarField;
    location    "0.262";
    object      p;
}
// * * * * * * * * * * * * * * * * * * * * * * * * * * * * * * * * * * * * * //

dimensions      [1 -1 -2 0 0 0 0];

internalField   nonuniform List<scalar> 
545
(
-7.99215e+07
-1.46992e+07
-1.94273e+06
-2.5575e+06
-8.54514e+06
5.75705e+07
-2.96049e+06
-2.30218e+06
-2.45717e+06
-6.93967e+06
1.00078e+08
3.63246e+06
-329942
-384756
-7.28292e+06
5.80741e+07
-3.14215e+06
-1.8347e+06
-111300
-6.50251e+06
-9.19696e+07
-2.30702e+06
-424180
4.24705e+06
1.17184e+07
-7.04566e+06
-1.82307e+06
-742942
-87213.2
37375.5
58708
40404.2
26623.6
19658.2
16064.7
14888.3
13737
13620.9
12950.8
13182.9
12598.7
12842.7
12302.8
12538.8
11991.4
12228.9
11551.6
11836.7
11048.7
11273.3
10536.8
10772.4
10074.1
10303.5
9607.18
9743.82
9002.61
9220.2
8145.03
8111.6
7097.19
6976.47
5791.7
5679.63
4487.96
4442.48
3255.53
3224.08
1998.49
2068.03
-6.20113e+06
-1.13405e+06
-706983
-209696
-71321.6
306.097
14995.1
17653.8
16911
15686.8
14761.1
13995.7
13579
13190.3
13123.2
12814.7
12735
12534.8
12409.6
12224.7
12091.1
11778.8
11675.9
11287.3
11101
10820.7
10593.2
10356.7
10092.2
9890.07
9516.83
9279.18
8973.5
8446.82
7854.93
7399.37
6740.76
6083.64
5420.38
4780.67
4172.5
3549.77
2863.77
1958.41
402.896
-7.27772e+06
-550190
-425304
-92090.7
-41425.1
7954.73
15289.6
16301.1
16358
15125.6
14912.7
13756.8
13856.1
12960.8
13430.9
12566.3
13009.2
12271.1
12684
11943.5
12375
11474
11991.6
10992.7
11408
10542.6
10908.2
10061.5
10397.7
9607.64
9795.99
8983.36
9326.35
8156.38
8140.67
7121.53
7071.93
5759.32
5750.19
4443.61
4497.23
3193.01
3108.77
1534.53
1456.8
-7.69631e+06
618348
150265
130472
33876.3
34775.9
23382.3
17115
16364.8
14679.5
15052.8
13519.1
14086.7
12747.9
13706.5
12345.1
13217.8
12040.5
12867.1
11731.2
12552.4
11235.3
12222.3
10780.1
11595
10363.5
11101.7
9872.25
10546.9
9490.26
9859.17
8855.85
9555.22
8022.53
8216.37
7026.99
7231.5
5576.5
5920.36
4257.36
4640.13
2979.64
3172.27
890.516
100.031
-1.74168e+06
3.30388e+06
1.15083e+06
366831
91448.1
42415.1
22728.3
14571.7
15948.6
13790.7
15619.7
12908.1
14748.7
12111.1
14455.5
11682.4
13851.3
11394.4
13458.6
11080.1
13202.5
10474.3
13000.1
10032.2
12281.9
9707.27
11799.6
9210.13
11132
8983.02
10287.9
8232.67
10371.9
7388.83
8684.6
6518
7881.07
4873.22
6652.4
3517.69
5340.06
2214.38
3802.13
269.852
1443.27
-1.35087e+07
4.72486e+06
1.94476e+06
532585
113896
42883.2
22937.3
18486.5
17818.3
16762.3
14618.9
14957.8
17111.9
17372.7
15351.4
16974.8
15922.6
13729.1
12282
14180.3
15787.4
15901
13860.5
15554.6
14431.2
12653.1
10528.6
10577.8
10752.2
14602
15281.8
13729.6
11499.5
12785.2
13504.8
12133.6
8732.67
6284.87
5290.64
4881.07
3954.48
4996.05
5622.54
4704.57
2599.45
-9.19776e+07
-2.31334e+06
-428958
4.24328e+06
1.17156e+07
5.80661e+07
-3.14848e+06
-1.83933e+06
-114816
-6.50518e+06
1.0007e+08
3.62602e+06
-334533
-388001
-7.2852e+06
5.75625e+07
-2.96703e+06
-2.30682e+06
-2.46013e+06
-6.94145e+06
-7.99294e+07
-1.47058e+07
-1.94743e+06
-2.56029e+06
-8.54665e+06
-1.74385e+06
3.30552e+06
1.14932e+06
368441
89441.7
44056.4
21084.6
16456
14324.5
15729.3
13750
14952.6
13006.6
14050.8
12613.2
13592.6
11936.8
13372.3
11307.5
13028.4
11239
12415.8
11006.9
12018.1
10296.9
11794.6
9606.95
11426
8977.05
10935.6
8301.01
10206.5
8353.82
9386.99
6671.13
8518.92
5756.92
7168.53
4386.93
5809.73
3040.16
4405.14
1784.1
3108.45
9.67593
-7.69816e+06
619331
149477
131084
32511
35579.9
22583.3
18376.9
15656.9
15926.7
14184.9
14798.8
13271
13925.2
12742.4
13425
12149.1
13088.7
11617.8
12735.7
11418
12275
11090.8
11875.8
10505.7
11527.1
9907.84
11089.6
9354.79
10550.3
8736.15
9941.33
8408.93
9127.88
7083.53
8129.75
6061.36
6859.82
4710.61
5514.78
3382.8
4171.7
2152.95
2593.21
-674.982
-7.27901e+06
-549946
-425589
-92382.4
-42241.3
8068.64
15240.2
17015.2
16442.1
15781.3
14902.7
14401.7
13828.2
13484.7
13224
12929.6
12668
12530.5
12199.6
12154.5
11947.8
11732.6
11604.2
11318.2
11087.6
10917.5
10554.9
10448
10017.8
9905.96
9426.52
9288.61
8946.22
8477.28
7777.73
7444.18
6721.24
6187.72
5412.11
4856.98
4104.16
3574.99
2845.92
2337.63
1500.7
-6.20209e+06
-1.13417e+06
-707336
-210431
-72031.2
180.298
15240.9
18222.1
17317.5
16184.9
15103
14463
13860.3
13509.4
13199.2
12934.4
12641.8
12511.9
12192.1
12147.2
11895.6
11750.4
11542.1
11341.2
11047.9
10924.3
10539.3
10449.6
10003
9923.35
9406.4
9307.34
8857.87
8487.37
7756.7
7452.63
6675.63
6207.05
5393.18
4900.89
4108.92
3636.06
2899.41
2279.59
497.154
-7.04643e+06
-1.82344e+06
-743398
-88161.1
36679.3
58493.7
40761
27161.3
20185.8
16523.6
15360.6
14159.9
14014.9
13225.2
13359.7
12640.1
12831
12187
12407.9
11820.1
12104.3
11429
11780.3
11011.3
11306.5
10553.8
10822.3
10070.2
10302.9
9555.29
9711.58
8943.98
9188.05
8094.71
8093.86
7064.94
7001.94
5810.95
5747.59
4526.01
4483.06
3283.15
3298.19
2230.85
2318.42
)
;

boundaryField
{
    AirInlet
    {
        type            calculated;
        value           uniform -1.35051e+07;
    }
    WaterInlet
    {
        type            calculated;
        value           nonuniform List<scalar> 10(-7.99215e+07 5.75705e+07 1.00078e+08 5.80741e+07 -9.19696e+07 -9.19776e+07 5.80661e+07 1.0007e+08 5.75625e+07 -7.99294e+07);
    }
    ChannelWall
    {
        type            calculated;
        value           nonuniform List<scalar> 
110
(
-9.19696e+07
-2.30702e+06
-424180
4.24705e+06
1.17184e+07
-9.19776e+07
-2.31334e+06
-428958
4.24328e+06
1.17156e+07
-7.99294e+07
-1.47058e+07
-1.94743e+06
-2.56029e+06
-8.54665e+06
-7.04643e+06
-1.82344e+06
-743398
-88161.2
36679.2
58493.7
40760.9
27161.2
20185.7
16523.6
15360.5
14159.9
14014.9
13225.2
13359.6
12640
12830.9
12186.9
12407.8
11820.1
12104.2
11429
11780.2
11011.2
11306.4
10553.7
10822.2
10070.2
10302.9
9555.25
9711.53
8943.94
9188.01
8094.67
8093.81
7064.89
7001.89
5810.91
5747.55
4525.97
4483.01
3283.11
3298.15
2230.8
2318.38
-7.99215e+07
-1.46992e+07
-1.94273e+06
-2.5575e+06
-8.54514e+06
-7.04566e+06
-1.82307e+06
-742942
-87213.2
37375.5
58708
40404.2
26623.7
19658.2
16064.7
14888.4
13737.1
13620.9
12950.9
13183
12598.7
12842.7
12302.9
12538.8
11991.4
12228.9
11551.6
11836.7
11048.8
11273.3
10536.8
10772.5
10074.2
10303.6
9607.22
9743.86
9002.65
9220.24
8145.07
8111.64
7097.23
6976.51
5791.74
5679.68
4488
4442.52
3255.58
3224.12
1998.54
2068.07
)
;
    }
    Outlet
    {
        type            calculated;
        value           nonuniform List<scalar> 
11
(
-0.044145
-0.132435
-0.220725
-0.308996
-0.395462
-0.264311
-0.580965
-0.671943
-0.760274
-0.848565
-0.936855
)
;
    }
    FrontAndBack
    {
        type            empty;
    }
}


// ************************************************************************* //
