/*--------------------------------*- C++ -*----------------------------------*\
| =========                 |                                                 |
| \\      /  F ield         | OpenFOAM: The Open Source CFD Toolbox           |
|  \\    /   O peration     | Version:  2.3.0                                 |
|   \\  /    A nd           | Web:      www.OpenFOAM.org                      |
|    \\/     M anipulation  |                                                 |
\*---------------------------------------------------------------------------*/
FoamFile
{
    version     2.0;
    format      ascii;
    class       volScalarField;
    location    "79";
    object      epsilon.air;
}
// * * * * * * * * * * * * * * * * * * * * * * * * * * * * * * * * * * * * * //

dimensions      [0 2 -3 0 0 0 0];

internalField   nonuniform List<scalar> 
1875
(
0.277615
0.287898
0.295442
0.302785
0.310771
0.319875
0.330036
0.341128
0.352632
0.363906
0.374229
0.383246
0.389913
0.392559
0.390952
0.384883
0.371182
0.348275
0.31736
0.281402
0.244774
0.211426
0.183975
0.165093
0.164505
0.464588
0.412388
0.380513
0.360532
0.347283
0.338131
0.331646
0.327286
0.325232
0.325613
0.327912
0.332981
0.340981
0.351653
0.364059
0.375628
0.383304
0.385322
0.381192
0.369721
0.352425
0.333863
0.322229
0.324772
0.360978
0.424424
0.373361
0.343133
0.3252
0.314272
0.307525
0.303478
0.301363
0.300818
0.301487
0.303484
0.307238
0.313038
0.321464
0.332557
0.345815
0.358567
0.366515
0.367997
0.363069
0.351825
0.340164
0.335149
0.34092
0.365834
0.345601
0.304545
0.288848
0.282166
0.279415
0.27903
0.280132
0.282555
0.285846
0.289909
0.294895
0.300966
0.308177
0.316906
0.327323
0.338945
0.349958
0.35758
0.360281
0.357
0.348512
0.339407
0.336739
0.34644
0.376051
0.373322
0.276894
0.269053
0.268114
0.268839
0.270938
0.274131
0.27821
0.282803
0.287939
0.293865
0.300671
0.30842
0.317159
0.326611
0.336022
0.344492
0.349928
0.350903
0.347134
0.340567
0.335265
0.336239
0.349062
0.380074
0.378947
0.275602
0.270101
0.272093
0.275306
0.279028
0.282726
0.286519
0.290588
0.295075
0.300189
0.306141
0.312972
0.320509
0.328363
0.335985
0.341855
0.344848
0.345134
0.342038
0.337324
0.33478
0.337793
0.351099
0.38028
0.385939
0.280272
0.286769
0.291481
0.296016
0.299051
0.300556
0.30154
0.302905
0.305188
0.308639
0.313184
0.318707
0.325031
0.331726
0.337954
0.342626
0.344459
0.343695
0.340331
0.336344
0.334532
0.3372
0.347577
0.370873
0.38808
0.293492
0.307207
0.315633
0.320033
0.320228
0.317564
0.314407
0.312764
0.312608
0.314735
0.319205
0.325252
0.331925
0.338094
0.342744
0.344759
0.344636
0.342033
0.337854
0.333803
0.331941
0.333927
0.34346
0.366285
0.383715
0.305732
0.324602
0.334195
0.336632
0.332902
0.32631
0.320427
0.317734
0.31769
0.321697
0.327204
0.332907
0.338504
0.342496
0.344163
0.344042
0.341617
0.337254
0.332183
0.327696
0.325467
0.327137
0.336953
0.359694
0.320102
0.312459
0.333544
0.342905
0.343805
0.338208
0.330898
0.32666
0.32582
0.3276
0.329561
0.33234
0.336044
0.338612
0.339978
0.339931
0.337837
0.334088
0.329485
0.324759
0.320755
0.318875
0.321101
0.331693
0.355049
0.284321
0.31276
0.335237
0.344399
0.344766
0.338864
0.331501
0.326364
0.324276
0.324131
0.325726
0.327867
0.329669
0.330528
0.330323
0.3291
0.327073
0.324509
0.321669
0.318913
0.317019
0.31687
0.320861
0.33269
0.357066
0.28035
0.311136
0.333857
0.342986
0.343671
0.338558
0.331841
0.3263
0.322606
0.320479
0.319615
0.319267
0.318753
0.318098
0.317388
0.316699
0.316105
0.31568
0.315514
0.31582
0.317141
0.32054
0.328244
0.344692
0.376526
0.294265
0.317838
0.335326
0.341934
0.342188
0.337797
0.33175
0.325883
0.320847
0.316732
0.313388
0.310699
0.308658
0.307397
0.306897
0.306995
0.30779
0.309268
0.311546
0.314952
0.320144
0.328222
0.341647
0.365986
0.40548
0.315903
0.32906
0.338669
0.341721
0.340973
0.337008
0.331481
0.325288
0.319228
0.313654
0.308842
0.305061
0.302412
0.300996
0.300574
0.301037
0.302478
0.305066
0.309051
0.31473
0.322982
0.33551
0.355008
0.385106
0.422525
0.333297
0.337925
0.341006
0.341278
0.339729
0.336152
0.331036
0.324825
0.318379
0.312228
0.306871
0.302651
0.299671
0.297929
0.29729
0.297623
0.299122
0.301903
0.3063
0.313057
0.323101
0.337988
0.36073
0.393321
0.43539
0.338788
0.340528
0.34144
0.34045
0.338632
0.335374
0.330726
0.324808
0.318425
0.312217
0.306674
0.302074
0.298613
0.296323
0.295244
0.295223
0.296519
0.299257
0.303727
0.31046
0.32004
0.333658
0.353522
0.38309
0.430715
0.342164
0.342586
0.341809
0.339705
0.337389
0.334286
0.33022
0.324921
0.318811
0.312647
0.307013
0.302259
0.298551
0.295884
0.294267
0.293703
0.294311
0.296447
0.300357
0.30581
0.313011
0.32272
0.336615
0.357735
0.40124
0.341484
0.342587
0.342328
0.340234
0.337726
0.334567
0.330503
0.325451
0.319716
0.313796
0.308256
0.303471
0.299614
0.296665
0.29457
0.293408
0.293299
0.294386
0.296646
0.299817
0.304108
0.309997
0.318221
0.328375
0.352203
0.336812
0.340103
0.34261
0.341778
0.33931
0.335905
0.331746
0.327008
0.321782
0.316293
0.310989
0.306237
0.302247
0.299041
0.296559
0.294794
0.293872
0.293953
0.295025
0.296871
0.299558
0.303472
0.309454
0.315289
0.324951
0.331893
0.336752
0.342557
0.344312
0.342934
0.339536
0.335034
0.330111
0.325178
0.320351
0.315513
0.311007
0.307023
0.303622
0.300788
0.298498
0.296815
0.29588
0.295786
0.296594
0.298437
0.301691
0.307537
0.314382
0.324219
0.331342
0.335375
0.342332
0.346825
0.347363
0.345179
0.340843
0.335698
0.330132
0.324938
0.32098
0.317477
0.314031
0.310732
0.307661
0.304887
0.30249
0.300611
0.299425
0.299135
0.300002
0.302586
0.30809
0.315776
0.324491
0.331259
0.333618
0.340225
0.34668
0.349918
0.349588
0.346793
0.342017
0.337126
0.332009
0.326889
0.323875
0.321759
0.319343
0.316583
0.313618
0.310629
0.307826
0.305471
0.303882
0.303564
0.305155
0.309859
0.31755
0.326947
0.344357
0.337365
0.338777
0.344139
0.348968
0.350863
0.349908
0.346698
0.341804
0.3375
0.333782
0.329847
0.327599
0.326601
0.325256
0.323103
0.320159
0.3167
0.313164
0.310075
0.308107
0.308211
0.311291
0.317498
0.325664
0.376054
0.347966
0.338201
0.33881
0.343238
0.347271
0.348631
0.347542
0.34459
0.340808
0.337667
0.335028
0.332579
0.33138
0.331414
0.331008
0.329275
0.325893
0.32146
0.316818
0.312926
0.310977
0.311808
0.315122
0.319864
0.394663
0.351793
0.333417
0.328647
0.331288
0.336743
0.341409
0.34361
0.343194
0.341155
0.338354
0.336333
0.33496
0.334528
0.335109
0.336194
0.336004
0.33373
0.329024
0.323073
0.317278
0.313155
0.31154
0.311723
0.312504
0.397507
0.351995
0.328504
0.319005
0.318418
0.322647
0.329006
0.334553
0.33788
0.338762
0.337806
0.336151
0.335743
0.336262
0.337509
0.339279
0.34018
0.338866
0.334561
0.327825
0.320452
0.314391
0.31056
0.307807
0.304845
0.406518
0.356881
0.327612
0.313838
0.309449
0.31133
0.317047
0.324172
0.330285
0.334263
0.336125
0.336056
0.336009
0.336909
0.338889
0.340961
0.342202
0.34138
0.3375
0.330518
0.322181
0.314752
0.309365
0.304045
0.297762
0.411139
0.360611
0.327957
0.311496
0.304781
0.304835
0.309296
0.316571
0.324118
0.330192
0.33414
0.335455
0.336225
0.33754
0.339524
0.341548
0.342674
0.34184
0.338138
0.331245
0.32257
0.314533
0.30862
0.30104
0.292072
0.408882
0.360647
0.328539
0.310824
0.303135
0.302506
0.306577
0.313707
0.321703
0.328546
0.333132
0.334969
0.336201
0.337746
0.339715
0.341519
0.342303
0.341139
0.337257
0.330433
0.321698
0.313446
0.30747
0.298232
0.287319
0.394639
0.353845
0.327874
0.310443
0.302991
0.302777
0.307387
0.314797
0.322723
0.329182
0.333145
0.334814
0.336006
0.337519
0.339317
0.340801
0.341099
0.339419
0.335158
0.328329
0.319722
0.311423
0.305126
0.295302
0.283167
0.367678
0.340517
0.322192
0.308705
0.30346
0.304882
0.310532
0.318155
0.325503
0.330824
0.333567
0.334784
0.335829
0.337129
0.338493
0.339389
0.339102
0.336931
0.332456
0.325766
0.31765
0.30983
0.303543
0.293505
0.280678
0.340296
0.325293
0.314264
0.306632
0.304979
0.30868
0.315413
0.32284
0.328882
0.332429
0.333912
0.334638
0.33547
0.336451
0.337274
0.337575
0.336757
0.334279
0.329872
0.323742
0.316709
0.310338
0.305381
0.297025
0.286203
0.318369
0.313651
0.30941
0.306469
0.308158
0.313758
0.320847
0.327157
0.331235
0.333039
0.33361
0.333895
0.334366
0.335004
0.335495
0.335409
0.334276
0.331731
0.327664
0.322443
0.317034
0.31277
0.309998
0.304689
0.298122
0.311093
0.309886
0.308579
0.308702
0.312692
0.319092
0.325342
0.329753
0.331837
0.332332
0.332422
0.332794
0.333106
0.333406
0.333528
0.333119
0.331801
0.329323
0.325727
0.321565
0.317919
0.315775
0.314863
0.311921
0.309555
0.309029
0.309332
0.309725
0.311865
0.317152
0.323134
0.327835
0.330523
0.33152
0.331594
0.331541
0.331409
0.331441
0.331512
0.331377
0.330744
0.329319
0.326952
0.323852
0.320761
0.318784
0.318601
0.319405
0.318751
0.32078
0.305508
0.308543
0.310782
0.314369
0.319976
0.324941
0.328317
0.330118
0.330865
0.331154
0.330749
0.330066
0.329777
0.329559
0.329178
0.328347
0.326817
0.32454
0.321892
0.319773
0.319134
0.320534
0.322808
0.324304
0.329637
0.30174
0.307173
0.310984
0.315438
0.320681
0.324743
0.32737
0.328701
0.329155
0.329156
0.328673
0.328314
0.327942
0.327571
0.327009
0.325999
0.324345
0.322111
0.319826
0.318445
0.318739
0.321164
0.324416
0.327073
0.332898
0.298393
0.304975
0.310045
0.314935
0.319696
0.323241
0.325501
0.326635
0.326953
0.326743
0.326632
0.32644
0.326082
0.325641
0.324949
0.323777
0.321993
0.319781
0.31779
0.316936
0.317912
0.321068
0.325152
0.329051
0.334941
0.294923
0.302126
0.308112
0.313212
0.317693
0.321034
0.323247
0.324455
0.324908
0.324918
0.324767
0.324567
0.324291
0.323832
0.323045
0.321732
0.319827
0.317624
0.315855
0.315371
0.31682
0.32043
0.325011
0.329733
0.334814
0.291374
0.299115
0.305633
0.310856
0.315256
0.318587
0.32089
0.32229
0.323003
0.323286
0.323289
0.323097
0.322789
0.322284
0.32141
0.319982
0.317992
0.315812
0.31421
0.313975
0.315711
0.319513
0.324154
0.329064
0.334002
0.287689
0.295917
0.302862
0.308251
0.312705
0.316122
0.318574
0.32018
0.321136
0.321647
0.321824
0.321754
0.321507
0.321017
0.320123
0.318664
0.316677
0.31457
0.313095
0.31299
0.31476
0.318676
0.323492
0.328425
0.333879
0.284326
0.292889
0.300147
0.305701
0.310255
0.313791
0.316399
0.318194
0.319348
0.320035
0.320415
0.320551
0.320431
0.320021
0.319188
0.317802
0.315916
0.313929
0.312562
0.312522
0.314549
0.318499
0.323114
0.328246
0.333743
0.281584
0.290324
0.297741
0.303389
0.308034
0.311683
0.31444
0.316425
0.317801
0.318709
0.319269
0.319544
0.319547
0.319243
0.31852
0.317275
0.315555
0.313735
0.312525
0.312674
0.31478
0.31859
0.32286
0.327435
0.331734
0.279635
0.288328
0.29575
0.301416
0.30611
0.309841
0.312717
0.314856
0.316403
0.317495
0.318235
0.318666
0.318799
0.318619
0.318032
0.316948
0.315408
0.313737
0.31259
0.312717
0.314282
0.317859
0.322303
0.326665
0.331306
0.278376
0.286881
0.294177
0.299791
0.304482
0.308255
0.311212
0.313468
0.315164
0.316418
0.317305
0.317881
0.318152
0.318104
0.317659
0.316747
0.315386
0.313826
0.312624
0.312466
0.313875
0.31716
0.321302
0.325653
0.330425
0.277577
0.285818
0.292929
0.298449
0.303106
0.306893
0.309901
0.312238
0.314018
0.315322
0.316389
0.317085
0.317406
0.31749
0.317285
0.316586
0.315429
0.314022
0.312847
0.312581
0.313872
0.316638
0.319893
0.323369
0.326501
0.277136
0.285109
0.291996
0.29737
0.301927
0.305614
0.308639
0.311095
0.312932
0.314455
0.315667
0.3165
0.316955
0.317155
0.317047
0.31648
0.315476
0.314198
0.313046
0.312634
0.313417
0.315611
0.318353
0.320968
0.323334
0.277185
0.284753
0.291341
0.296501
0.300979
0.304735
0.307796
0.310259
0.31233
0.314042
0.315091
0.316022
0.316865
0.317162
0.316878
0.316305
0.315448
0.314287
0.313149
0.312549
0.312978
0.314656
0.316886
0.318841
0.32035
0.277449
0.284747
0.291087
0.296163
0.300634
0.30451
0.307598
0.30998
0.312063
0.313509
0.314695
0.315625
0.316271
0.316594
0.316563
0.316163
0.315408
0.314368
0.313301
0.312663
0.312821
0.31403
0.315734
0.31697
0.317618
0.278119
0.285
0.291143
0.296136
0.300391
0.303875
0.306901
0.309502
0.3114
0.313013
0.314546
0.315535
0.31596
0.316282
0.316443
0.316256
0.315466
0.314454
0.313426
0.31276
0.312756
0.313628
0.314886
0.315729
0.316008
0.278679
0.28527
0.291169
0.295705
0.299706
0.303136
0.306111
0.308662
0.31076
0.312653
0.31393
0.315002
0.315921
0.316389
0.316413
0.316005
0.31535
0.314431
0.313483
0.312845
0.312766
0.313397
0.314351
0.314897
0.314864
0.279111
0.285463
0.291064
0.295501
0.299487
0.303112
0.306075
0.308389
0.310524
0.312024
0.313261
0.314295
0.315105
0.315594
0.315761
0.31555
0.315077
0.314311
0.313448
0.312822
0.3127
0.313165
0.313895
0.314257
0.314142
0.279478
0.285784
0.291272
0.295788
0.299614
0.302796
0.305655
0.308185
0.310081
0.311728
0.313272
0.31432
0.314857
0.315269
0.315496
0.315533
0.315002
0.314233
0.313385
0.312733
0.312573
0.312927
0.313484
0.313655
0.313373
0.281394
0.28679
0.291905
0.295898
0.299474
0.302604
0.305366
0.307769
0.309797
0.31162
0.312885
0.313967
0.314914
0.315449
0.315593
0.315288
0.314829
0.314101
0.313285
0.312613
0.3124
0.312651
0.313028
0.313029
0.312591
0.281142
0.286878
0.292044
0.29617
0.299803
0.303095
0.305807
0.307964
0.309963
0.311403
0.3126
0.313603
0.314393
0.314888
0.315082
0.314964
0.314611
0.313982
0.313208
0.312515
0.312239
0.312383
0.31258
0.312377
0.311757
0.281947
0.287961
0.293044
0.297213
0.300663
0.303512
0.306072
0.308354
0.310085
0.311597
0.313011
0.313989
0.314516
0.314916
0.315133
0.315178
0.31473
0.314047
0.313246
0.312503
0.312143
0.312159
0.312148
0.311731
0.31091
0.286502
0.290817
0.295124
0.298549
0.301602
0.304286
0.306671
0.308764
0.310539
0.312148
0.313274
0.314246
0.315095
0.315563
0.315672
0.315374
0.314923
0.314253
0.313445
0.312657
0.312206
0.312078
0.311844
0.311173
0.310132
0.287067
0.292083
0.296554
0.3001
0.303165
0.305926
0.308191
0.309994
0.311688
0.312914
0.313946
0.314813
0.315473
0.315868
0.315988
0.315819
0.315413
0.314785
0.31397
0.313132
0.31257
0.312262
0.311763
0.310808
0.309518
0.290271
0.295218
0.299404
0.302844
0.305625
0.307886
0.309942
0.311809
0.313226
0.31449
0.315691
0.316499
0.316883
0.31716
0.317286
0.317268
0.316815
0.316036
0.315117
0.314181
0.313464
0.312925
0.312114
0.310793
0.309191
0.297653
0.300577
0.303768
0.306358
0.308672
0.310716
0.312571
0.314246
0.315702
0.317064
0.318043
0.318791
0.319451
0.319779
0.319782
0.319416
0.31888
0.318135
0.317185
0.316162
0.31526
0.314427
0.313241
0.31148
0.309504
0.301059
0.304531
0.30787
0.310623
0.312995
0.315163
0.316953
0.318391
0.319783
0.320785
0.321638
0.322341
0.322884
0.323193
0.323251
0.323034
0.322566
0.321852
0.320863
0.319723
0.31858
0.317371
0.315734
0.313453
0.311093
0.306683
0.310408
0.313882
0.316931
0.319349
0.321324
0.323081
0.324644
0.325866
0.326861
0.327786
0.328634
0.329069
0.329379
0.329545
0.329567
0.329155
0.328294
0.327168
0.325835
0.324341
0.322585
0.320269
0.317216
0.314143
0.315144
0.318738
0.322599
0.325754
0.328346
0.330461
0.33233
0.333974
0.33535
0.336644
0.337601
0.338404
0.339117
0.339595
0.33981
0.339699
0.339332
0.33862
0.337515
0.33603
0.334099
0.331545
0.328078
0.323495
0.318761
0.323295
0.329669
0.335433
0.339929
0.343282
0.345774
0.347682
0.349227
0.350542
0.351686
0.352659
0.353426
0.354217
0.354893
0.355417
0.355722
0.355806
0.355547
0.354764
0.353359
0.351087
0.347581
0.342358
0.334978
0.326677
0.339268
0.350978
0.359886
0.365958
0.369866
0.372342
0.373944
0.375064
0.375914
0.376627
0.377389
0.378227
0.379125
0.380135
0.381216
0.382329
0.383341
0.384105
0.384402
0.383975
0.382292
0.378578
0.371749
0.360483
0.345634
0.384549
0.402236
0.412075
0.416611
0.41831
0.418575
0.418215
0.417682
0.417312
0.417225
0.417519
0.41823
0.419417
0.421062
0.423151
0.425651
0.428559
0.43178
0.435062
0.438121
0.440274
0.440351
0.436372
0.425029
0.40373
0.537521
0.533475
0.522579
0.511686
0.502089
0.494027
0.487706
0.483035
0.479787
0.477868
0.477157
0.477586
0.479094
0.481758
0.485614
0.49072
0.497107
0.504926
0.514354
0.52566
0.53912
0.554705
0.571903
0.588818
0.596968
0.990241
0.78903
0.690399
0.637163
0.604149
0.581703
0.566001
0.555049
0.547665
0.54304
0.540729
0.540487
0.542189
0.545895
0.551692
0.559776
0.570484
0.584398
0.602409
0.625965
0.657905
0.70326
0.77294
0.896194
1.14138
0.614406
0.620971
0.605482
0.586139
0.567138
0.550628
0.537448
0.527552
0.520556
0.516046
0.513714
0.513356
0.514842
0.518231
0.523608
0.531162
0.541219
0.554274
0.571003
0.592011
0.617872
0.648169
0.679617
0.705117
0.699988
0.238925
0.388411
0.446164
0.463326
0.462374
0.45524
0.447208
0.440371
0.435354
0.432123
0.430466
0.430171
0.431058
0.433218
0.43669
0.441524
0.447946
0.456449
0.467619
0.481589
0.49662
0.506535
0.497814
0.439187
0.259933
0.0651687
0.17004
0.252589
0.276924
0.280795
0.275791
0.268513
0.262757
0.259055
0.257032
0.256315
0.256486
0.257258
0.258799
0.260906
0.263866
0.268119
0.274053
0.28249
0.293995
0.307162
0.31477
0.304939
0.240987
0.113742
0.0471997
0.103937
0.158563
0.168931
0.152391
0.135073
0.118838
0.106615
0.099632
0.0977108
0.0980943
0.0997441
0.103454
0.109209
0.117165
0.127632
0.140053
0.153722
0.168001
0.183022
0.200073
0.21112
0.204801
0.151337
0.0730804
0.0837328
0.0931914
0.0964704
0.0561269
0.0329155
0.021016
0.0104179
0.00512333
0.00400541
0.00388812
0.00397315
0.004436
0.00612071
0.00980135
0.0164751
0.027833
0.0435764
0.0628659
0.0843248
0.106222
0.131066
0.155701
0.156403
0.132743
0.105831
0.113881
0.0722555
0.0316438
0.00657346
0.000384728
0.000164302
9.12322e-05
6.27584e-05
5.28106e-05
4.86681e-05
4.46938e-05
4.49714e-05
5.08343e-05
0.000124818
0.000874543
0.00371508
0.01088
0.0229408
0.0389907
0.0584257
0.0805094
0.114486
0.134689
0.128838
0.137865
0.16283
0.0539677
0.0105116
0.000365823
9.49601e-05
8.13902e-05
7.64795e-05
7.49981e-05
7.31037e-05
7.01563e-05
6.5676e-05
5.89235e-05
4.69342e-05
5.10602e-05
0.000169182
0.000865305
0.00293052
0.00740359
0.0140831
0.0225575
0.0325026
0.0513958
0.0815191
0.113571
0.203512
)
;

boundaryField
{
    inlet
    {
        type            fixedValue;
        value           uniform 0.00015;
    }
    outlet
    {
        type            inletOutlet;
        phi             phi.air;
        inletValue      uniform 0.00015;
        value           nonuniform List<scalar> 
25
(
0.16283
0.0539677
0.0105116
0.00015
0.00015
0.00015
0.00015
0.00015
0.00015
0.00015
0.00015
0.00015
0.00015
0.00015
0.00015
0.00015
0.00293052
0.00740359
0.0140831
0.0225575
0.0325026
0.0513958
0.0815191
0.113571
0.203512
)
;
    }
    walls
    {
        type            epsilonWallFunction;
        value           nonuniform List<scalar> 
150
(
1.8061
2.7336
3.07017
3.19228
4.9709
5.77616
6.13556
6.46174
6.42755
4.87062
4.12763
4.06645
4.0104
3.95097
3.88341
3.81427
3.76451
3.73354
3.71413
3.70009
3.66337
3.56257
3.38531
3.1707
2.9699
2.8794
2.93017
3.08144
3.27952
3.50066
3.73556
3.96858
4.18396
4.37555
4.54825
4.70705
4.84764
4.96683
5.07375
5.17956
5.28842
5.40354
5.52653
5.65738
5.7956
5.93983
6.0891
6.24214
6.3987
6.55722
6.71448
6.86921
7.02267
7.17243
7.31862
7.46562
7.60962
7.75289
7.90431
8.0643
8.24056
8.44831
8.69485
8.99988
9.39894
9.95276
10.7963
12.0756
12.189
11.5533
9.5406
7.97434
6.86388
5.55867
4.23706
1.09131
1.86866
2.20912
2.3695
2.4407
2.47037
2.46143
2.43117
2.36973
2.31101
2.29372
2.34367
2.48192
2.68829
2.89891
3.07462
3.25344
3.43216
3.58666
3.69881
3.76645
3.82731
3.89005
3.95218
4.01401
4.07516
4.13672
4.19811
4.25033
4.28473
4.30199
4.31233
4.31792
4.31968
4.33384
4.37358
4.44059
4.53424
4.64293
4.7546
4.87725
5.01868
5.17201
5.33002
5.49735
5.67264
5.84886
6.02628
6.20381
6.38023
6.55479
6.72721
6.89848
7.06902
7.23999
7.41244
7.58806
7.76913
7.95909
8.16314
8.38728
8.63625
8.92789
9.28369
9.74147
10.3936
11.402
12.9759
13.2214
12.6636
10.8934
9.11643
8.14093
7.70647
6.66165
)
;
        Cmu             0.09;
        kappa           0.41;
        E               9.8;
        value           nonuniform List<scalar> 
150
(
1.8061
2.7336
3.07017
3.19228
4.9709
5.77616
6.13556
6.46174
6.42755
4.87062
4.12763
4.06645
4.0104
3.95097
3.88341
3.81427
3.76451
3.73354
3.71413
3.70009
3.66337
3.56257
3.38531
3.1707
2.9699
2.8794
2.93017
3.08144
3.27952
3.50066
3.73556
3.96858
4.18396
4.37555
4.54825
4.70705
4.84764
4.96683
5.07375
5.17956
5.28842
5.40354
5.52653
5.65738
5.7956
5.93983
6.0891
6.24214
6.3987
6.55722
6.71448
6.86921
7.02267
7.17243
7.31862
7.46562
7.60962
7.75289
7.90431
8.0643
8.24056
8.44831
8.69485
8.99988
9.39894
9.95276
10.7963
12.0756
12.189
11.5533
9.5406
7.97434
6.86388
5.55867
4.23706
1.09131
1.86866
2.20912
2.3695
2.4407
2.47037
2.46143
2.43117
2.36973
2.31101
2.29372
2.34367
2.48192
2.68829
2.89891
3.07462
3.25344
3.43216
3.58666
3.69881
3.76645
3.82731
3.89005
3.95218
4.01401
4.07516
4.13672
4.19811
4.25033
4.28473
4.30199
4.31233
4.31792
4.31968
4.33384
4.37358
4.44059
4.53424
4.64293
4.7546
4.87725
5.01868
5.17201
5.33002
5.49735
5.67264
5.84886
6.02628
6.20381
6.38023
6.55479
6.72721
6.89848
7.06902
7.23999
7.41244
7.58806
7.76913
7.95909
8.16314
8.38728
8.63625
8.92789
9.28369
9.74147
10.3936
11.402
12.9759
13.2214
12.6636
10.8934
9.11643
8.14093
7.70647
6.66165
)
;
    }
    defaultFaces
    {
        type            empty;
    }
}


// ************************************************************************* //
