/*--------------------------------*- C++ -*----------------------------------*\
| =========                 |                                                 |
| \\      /  F ield         | OpenFOAM: The Open Source CFD Toolbox           |
|  \\    /   O peration     | Version:  2.3.0                                 |
|   \\  /    A nd           | Web:      www.OpenFOAM.org                      |
|    \\/     M anipulation  |                                                 |
\*---------------------------------------------------------------------------*/
FoamFile
{
    version     2.0;
    format      ascii;
    class       surfaceScalarField;
    location    "79";
    object      phi.water;
}
// * * * * * * * * * * * * * * * * * * * * * * * * * * * * * * * * * * * * * //

dimensions      [0 3 -1 0 0 0 0];

internalField   nonuniform List<scalar> 
3650
(
3.93072e-05
-4.11497e-05
8.01363e-05
-4.63494e-05
0.000125507
-4.80827e-05
0.000171061
-4.69301e-05
0.000214135
-4.37612e-05
0.000253067
-3.9304e-05
0.000287037
-3.41032e-05
0.000315444
-2.84909e-05
0.000337848
-2.26653e-05
0.000353904
-1.66947e-05
0.000363286
-1.06703e-05
0.000365826
-4.92832e-06
0.000360602
2.20811e-06
0.000347041
1.0632e-05
0.000325956
1.82726e-05
0.000298045
2.48483e-05
0.00026501
2.98862e-05
0.000228771
3.30304e-05
0.000191684
3.41166e-05
0.000156116
3.32965e-05
0.000123537
3.11871e-05
9.38621e-05
2.88706e-05
6.56391e-05
2.79285e-05
3.49057e-05
2.82696e-05
2.79463e-05
5.4565e-05
-8.65706e-05
9.6042e-05
-8.47702e-05
0.000132825
-8.25526e-05
0.000167497
-7.75883e-05
0.000199097
-7.0726e-05
0.000227419
-6.24427e-05
0.000252208
-5.31391e-05
0.000273126
-4.3084e-05
0.000289762
-3.24298e-05
0.000301685
-2.12089e-05
0.00030821
-9.1154e-06
0.000308394
3.64257e-06
0.000303904
1.4636e-05
0.000294495
2.64699e-05
0.000279349
3.80375e-05
0.000257961
4.85753e-05
0.000231076
5.6771e-05
0.000200577
6.19902e-05
0.000168714
6.39792e-05
0.000136775
6.31325e-05
0.000105742
6.05607e-05
7.6748e-05
5.77539e-05
4.95357e-05
5.6731e-05
2.38612e-05
5.65444e-05
5.25845e-05
4.57252e-05
-0.000120891
8.44578e-05
-0.000116853
0.000115139
-0.000109297
0.000141051
-0.000100252
0.000163044
-8.99237e-05
0.00018159
-7.84088e-05
0.000196719
-6.58883e-05
0.000208478
-5.25672e-05
0.000216974
-3.8625e-05
0.000222342
-2.42077e-05
0.000225067
-9.5062e-06
0.00022546
5.65427e-06
0.000221509
2.17415e-05
0.000213636
3.76545e-05
0.000201559
5.31305e-05
0.000185395
6.72449e-05
0.000165229
7.84332e-05
0.000142161
8.54268e-05
0.000117542
8.78417e-05
9.33012e-05
8.62615e-05
7.08458e-05
8.22016e-05
5.02713e-05
7.76487e-05
3.23624e-05
7.45309e-05
1.67259e-05
7.1937e-05
6.81098e-05
2.84185e-05
-0.000140391
5.34604e-05
-0.00013488
7.31599e-05
-0.000125329
8.97616e-05
-0.000114163
0.00010367
-0.000101534
0.00011478
-8.75205e-05
0.00012294
-7.23413e-05
0.000128006
-5.62767e-05
0.000130251
-3.96558e-05
0.00012991
-2.2648e-05
0.000126986
-5.27584e-06
0.000121685
1.23409e-05
0.000114754
3.02131e-05
0.000106141
4.80494e-05
9.58409e-05
6.52282e-05
8.41333e-05
8.06488e-05
7.12835e-05
9.25601e-05
5.84079e-05
9.92832e-05
4.56032e-05
0.000100776
3.39553e-05
9.76709e-05
2.40692e-05
9.18974e-05
1.57982e-05
8.57792e-05
9.58414e-06
8.10813e-05
4.5176e-06
7.7078e-05
7.19837e-05
1.10103e-05
-0.000147546
2.03718e-05
-0.000141947
2.71542e-05
-0.000131615
3.30694e-05
-0.000119343
3.70625e-05
-0.000105104
3.88177e-05
-8.91474e-05
3.8313e-05
-7.19172e-05
3.56572e-05
-5.38258e-05
3.11496e-05
-3.53367e-05
2.51177e-05
-1.6716e-05
1.78969e-05
1.94508e-06
9.72038e-06
2.06487e-05
1.00899e-06
3.91399e-05
-7.69317e-06
5.70576e-05
-1.56663e-05
7.36019e-05
-2.19396e-05
8.74979e-05
-2.57197e-05
9.70484e-05
-2.71783e-05
0.00010117
-2.64205e-05
0.000100255
-2.37909e-05
9.5192e-05
-1.99003e-05
8.80913e-05
-1.54444e-05
8.11727e-05
-1.03616e-05
7.58385e-05
-4.99029e-06
7.16101e-05
6.69984e-05
-3.17382e-06
-0.00014498
-7.98073e-06
-0.000138457
-1.36136e-05
-0.000127294
-1.94894e-05
-0.000114295
-2.72166e-05
-9.88805e-05
-3.66332e-05
-8.15865e-05
-4.72767e-05
-6.31684e-05
-5.86213e-05
-4.42076e-05
-7.03135e-05
-2.52172e-05
-8.19237e-05
-6.50438e-06
-9.3032e-05
1.18182e-05
-0.000103045
2.96183e-05
-0.000111292
4.65707e-05
-0.000116829
6.20978e-05
-0.000118582
7.52777e-05
-0.000115739
8.50044e-05
-0.00010842
9.02639e-05
-9.76213e-05
9.08029e-05
-8.41106e-05
8.72544e-05
-6.92921e-05
8.08242e-05
-5.43274e-05
7.34134e-05
-3.98596e-05
6.67111e-05
-2.59082e-05
6.16313e-05
-1.2426e-05
5.80768e-05
5.48701e-05
-1.55416e-05
-0.000131896
-3.28576e-05
-0.000124595
-4.91682e-05
-0.000112967
-6.67787e-05
-9.94524e-05
-8.63665e-05
-8.3245e-05
-0.000106581
-6.5382e-05
-0.00012663
-4.69455e-05
-0.000145646
-2.86511e-05
-0.000162856
-1.09936e-05
-0.000177633
5.73963e-06
-0.000189281
2.14124e-05
-0.000197051
3.58797e-05
-0.000200143
4.8765e-05
-0.000197895
5.95224e-05
-0.000190029
6.74972e-05
-0.00017675
7.21082e-05
-0.000159076
7.30743e-05
-0.000138189
7.05572e-05
-0.000115632
6.54457e-05
-9.31211e-05
5.89198e-05
-7.17041e-05
5.23495e-05
-5.16157e-05
4.67974e-05
-3.30617e-05
4.28744e-05
-1.58695e-05
4.07855e-05
3.9564e-05
-2.55596e-05
-0.000110428
-5.22691e-05
-0.000102471
-7.74066e-05
-9.03047e-05
-0.000105378
-7.63957e-05
-0.00013438
-5.99083e-05
-0.000162376
-4.25522e-05
-0.000188314
-2.56155e-05
-0.000210904
-9.84649e-06
-0.000229097
4.33856e-06
-0.000242041
1.6758e-05
-0.000249326
2.75272e-05
-0.000250568
3.65923e-05
-0.000245624
4.37514e-05
-0.000234611
4.87922e-05
-0.00021806
5.14642e-05
-0.000196953
5.16193e-05
-0.000172405
4.93926e-05
-0.000146171
4.52593e-05
-0.000119893
4.00341e-05
-9.49165e-05
3.45527e-05
-7.18113e-05
2.96286e-05
-5.06034e-05
2.58908e-05
-3.16756e-05
2.38553e-05
-1.50726e-05
2.39827e-05
2.51186e-05
-3.32256e-05
-8.34739e-05
-6.53926e-05
-7.43461e-05
-9.64525e-05
-6.17093e-05
-0.000130572
-4.77436e-05
-0.000163664
-3.19258e-05
-0.000194035
-1.65092e-05
-0.000220244
-2.74769e-06
-0.000240975
8.65216e-06
-0.000255509
1.76512e-05
-0.000263565
2.42294e-05
-0.00026485
2.87718e-05
-0.000259539
3.17146e-05
-0.000248021
3.3014e-05
-0.000230943
3.26609e-05
-0.000209433
3.08874e-05
-0.000184608
2.78988e-05
-0.000158047
2.39907e-05
-0.000131404
1.96189e-05
-0.000105905
1.53015e-05
-8.23497e-05
1.15066e-05
-6.10093e-05
8.66255e-06
-4.19456e-05
7.16189e-06
-2.55778e-05
7.48806e-06
-1.19915e-05
1.01959e-05
1.37839e-05
-3.80002e-05
-5.30947e-05
-7.14495e-05
-4.30394e-05
-0.000104412
-3.02826e-05
-0.000139405
-1.69425e-05
-0.000171635
-2.95281e-06
-0.000199971
9.29663e-06
-0.000222896
1.8674e-05
-0.00023951
2.47344e-05
-0.00024942
2.76919e-05
-0.000252702
2.79505e-05
-0.000249092
2.6274e-05
-0.000239206
2.32079e-05
-0.000224129
1.90986e-05
-0.000204665
1.44564e-05
-0.000181984
9.62219e-06
-0.000157554
4.80064e-06
-0.000132737
2.83785e-07
-0.000108659
-3.65356e-06
-8.60703e-05
-6.75115e-06
-6.54469e-05
-8.77082e-06
-4.70544e-05
-9.46631e-06
-3.11538e-05
-8.5321e-06
-1.8337e-05
-5.52539e-06
-8.31589e-06
-4.89782e-08
6.01196e-06
-3.81759e-05
-2.23808e-05
-6.96305e-05
-1.17415e-05
-0.000101006
6.99956e-07
-0.000133221
1.26889e-05
-0.000162058
2.40908e-05
-0.000186721
3.26634e-05
-0.000205907
3.73915e-05
-0.000218845
3.80214e-05
-0.000225236
3.50417e-05
-0.000225175
2.92346e-05
-0.000219214
2.17504e-05
-0.000208061
1.36543e-05
-0.000192685
5.54892e-06
-0.000174405
-2.09177e-06
-0.000154213
-8.98978e-06
-0.000133184
-1.4957e-05
-0.000112126
-1.98343e-05
-9.16407e-05
-2.34962e-05
-7.21688e-05
-2.58036e-05
-5.40911e-05
-2.65782e-05
-3.78089e-05
-2.55766e-05
-2.38278e-05
-2.24564e-05
-1.29132e-05
-1.67695e-05
-4.95715e-06
-8.2503e-06
9.65769e-07
-3.48187e-05
5.84883e-06
-6.25813e-05
1.70539e-05
-9.05127e-05
2.89416e-05
-0.000118581
3.91807e-05
-0.000143405
4.78267e-05
-0.000164319
5.28293e-05
-0.000180306
5.32749e-05
-0.000190793
4.90203e-05
-0.000195323
4.07583e-05
-0.000194215
2.98591e-05
-0.000188355
1.7897e-05
-0.00017871
6.09268e-06
-0.000166284
-4.87899e-06
-0.000151967
-1.46368e-05
-0.000136478
-2.30227e-05
-0.000120333
-2.99914e-05
-0.000103836
-3.55242e-05
-8.71932e-05
-3.95672e-05
-7.05935e-05
-4.20021e-05
-5.42954e-05
-4.26089e-05
-3.87208e-05
-4.10266e-05
-2.44789e-05
-3.6769e-05
-1.23599e-05
-2.92093e-05
-3.64012e-06
-1.77037e-05
-4.53469e-06
-3.01685e-05
3.03011e-05
-5.3911e-05
4.20867e-05
-7.77649e-05
5.33218e-05
-0.00010125
6.16975e-05
-0.000121892
6.77769e-05
-0.000139124
6.96773e-05
-0.000152237
6.65211e-05
-0.000160543
5.82033e-05
-0.000163999
4.58131e-05
-0.000163348
3.12307e-05
-0.000159531
1.6224e-05
-0.000153379
1.99319e-06
-0.000145617
-1.08492e-05
-0.00013672
-2.20838e-05
-0.000126954
-3.16992e-05
-0.000116419
-3.97647e-05
-0.00010511
-4.63384e-05
-9.29817e-05
-5.14108e-05
-7.99952e-05
-5.48717e-05
-6.6158e-05
-5.64405e-05
-5.16397e-05
-5.56467e-05
-3.68349e-05
-5.1877e-05
-2.24954e-05
-4.41887e-05
-1.12442e-05
-3.14723e-05
-1.69497e-05
-2.48183e-05
5.02394e-05
-4.38537e-05
6.2449e-05
-6.25143e-05
7.30283e-05
-8.11207e-05
7.97557e-05
-9.74079e-05
8.37264e-05
-0.000111041
8.32015e-05
-0.000121459
7.73077e-05
-0.000128091
6.60035e-05
-0.000131429
5.08648e-05
-0.000132279
3.40272e-05
-0.000131426
1.72475e-05
-0.00012946
1.59366e-06
-0.000126685
-1.24566e-05
-0.000123166
-2.48131e-05
-0.000118835
-3.55389e-05
-0.000113589
-4.47413e-05
-0.00010732
-5.25049e-05
-9.9907e-05
-5.8863e-05
-9.11695e-05
-6.37427e-05
-8.09046e-05
-6.69215e-05
-6.88541e-05
-6.8019e-05
-5.48462e-05
-6.63718e-05
-4.01164e-05
-6.08951e-05
-2.46813e-05
-5.07573e-05
-3.97549e-05
-1.78837e-05
6.4563e-05
-3.10568e-05
7.69714e-05
-4.37371e-05
8.70801e-05
-5.70791e-05
9.28479e-05
-6.88843e-05
9.54583e-05
-7.9019e-05
9.33769e-05
-8.6941e-05
8.57655e-05
-9.25088e-05
7.27461e-05
-9.64139e-05
5.62315e-05
-9.93021e-05
3.83491e-05
-0.00010161
2.0713e-05
-0.000103425
4.24814e-06
-0.000104698
-1.06539e-05
-0.000105293
-2.39306e-05
-0.000105052
-3.56551e-05
-0.000103858
-4.59168e-05
-0.000101604
-5.47846e-05
-9.81784e-05
-6.23155e-05
-9.34754e-05
-6.85279e-05
-8.72925e-05
-7.33807e-05
-7.91113e-05
-7.67631e-05
-6.81147e-05
-7.83001e-05
-5.42357e-05
-7.73238e-05
-3.34885e-05
-7.35505e-05
-6.90909e-05
-9.49688e-06
7.19955e-05
-1.61312e-05
8.45449e-05
-2.27557e-05
9.46115e-05
-3.01275e-05
0.00010018
-3.69887e-05
0.000102369
-4.33576e-05
9.98466e-05
-4.8969e-05
9.18078e-05
-5.39512e-05
7.84747e-05
-5.86502e-05
6.18024e-05
-6.33091e-05
4.37987e-05
-6.79449e-05
2.59283e-05
-7.23219e-05
9.02901e-06
-7.62234e-05
-6.49589e-06
-7.94477e-05
-2.05511e-05
-8.1842e-05
-3.31685e-05
-8.33069e-05
-4.43937e-05
-8.38404e-05
-5.42634e-05
-8.34697e-05
-6.2817e-05
-8.22423e-05
-7.01213e-05
-7.98429e-05
-7.63777e-05
-7.56245e-05
-8.17914e-05
-6.84366e-05
-8.64873e-05
-5.63024e-05
-9.05016e-05
-3.39511e-05
-9.40445e-05
-9.61785e-05
-8.54252e-07
7.20678e-05
-5.80892e-07
8.47177e-05
-7.24168e-07
9.51514e-05
-1.80059e-06
0.000101212
-3.27188e-06
0.000103929
-5.47073e-06
0.000102167
-8.5932e-06
9.5157e-05
-1.2771e-05
8.29192e-05
-1.78008e-05
6.71857e-05
-2.34387e-05
4.98162e-05
-2.93707e-05
3.22127e-05
-3.5301e-05
1.52197e-05
-4.09333e-05
-7.1253e-07
-4.59911e-05
-1.54267e-05
-5.02612e-05
-2.88846e-05
-5.36219e-05
-4.1059e-05
-5.60581e-05
-5.1917e-05
-5.76206e-05
-6.14665e-05
-5.83867e-05
-6.98352e-05
-5.79433e-05
-7.74311e-05
-5.5718e-05
-8.46086e-05
-5.08397e-05
-9.16866e-05
-4.22637e-05
-9.90896e-05
-2.50757e-05
-0.000107441
-0.000113264
6.54817e-06
6.54736e-05
1.43864e-05
7.7459e-05
2.0946e-05
8.85193e-05
2.6209e-05
9.58293e-05
3.03018e-05
9.99053e-05
3.26208e-05
9.99255e-05
3.27219e-05
9.51858e-05
3.02031e-05
8.54108e-05
2.56049e-05
7.17556e-05
1.95806e-05
5.58705e-05
1.27356e-05
3.91353e-05
5.55616e-06
2.24762e-05
-1.55019e-06
6.4335e-06
-8.25335e-06
-8.74471e-06
-1.42777e-05
-2.29348e-05
-1.94206e-05
-3.60278e-05
-2.35702e-05
-4.79188e-05
-2.6692e-05
-5.85799e-05
-2.86506e-05
-6.81771e-05
-2.90986e-05
-7.71631e-05
-2.79086e-05
-8.58414e-05
-2.4727e-05
-9.44635e-05
-2.01936e-05
-0.000103401
-1.25898e-05
-0.000113631
-0.00012072
1.28296e-05
5.30379e-05
2.74543e-05
6.3717e-05
4.02215e-05
7.53801e-05
5.15819e-05
8.43964e-05
6.10993e-05
9.04311e-05
6.81173e-05
9.29251e-05
7.21302e-05
9.12424e-05
7.23649e-05
8.50021e-05
6.91157e-05
7.46271e-05
6.32597e-05
6.12981e-05
5.57893e-05
4.62873e-05
4.74622e-05
3.0601e-05
3.88658e-05
1.49097e-05
3.04196e-05
-4.01683e-07
2.24586e-05
-1.51055e-05
1.52781e-05
-2.90004e-05
9.12633e-06
-4.19079e-05
4.17869e-06
-5.37393e-05
6.49699e-07
-6.46202e-05
-1.52626e-06
-7.48873e-05
-2.49875e-06
-8.47438e-05
-2.28587e-06
-9.42874e-05
-1.81635e-06
-0.000103574
-2.20937e-06
-0.000114239
-0.000122382
1.68893e-05
3.67407e-05
3.60229e-05
4.55475e-05
5.41038e-05
5.71096e-05
7.08756e-05
6.77289e-05
8.53502e-05
7.59868e-05
9.70048e-05
8.12734e-05
0.00010526
8.30259e-05
0.000109284
8.08588e-05
0.000108751
7.46952e-05
0.000104298
6.50656e-05
9.68931e-05
5.29107e-05
8.76517e-05
3.91602e-05
7.75449e-05
2.45238e-05
6.72514e-05
9.5615e-06
5.72322e-05
-5.32437e-06
4.78546e-05
-1.98149e-05
3.94459e-05
-3.36322e-05
3.22577e-05
-4.65879e-05
2.64419e-05
-5.86722e-05
2.17033e-05
-7.00137e-05
1.7755e-05
-8.07037e-05
1.42783e-05
-9.07172e-05
1.1179e-05
-9.98836e-05
5.0519e-06
-0.000109992
-0.000119046
1.84177e-05
1.88555e-05
3.93166e-05
2.5355e-05
6.10787e-05
3.57565e-05
8.20704e-05
4.72428e-05
0.000100743
5.75225e-05
0.00011654
6.55578e-05
0.000128794
7.07565e-05
0.000136939
7.27221e-05
0.000140232
7.11883e-05
0.000138579
6.60816e-05
0.000132661
5.78877e-05
0.000123272
4.72436e-05
0.000111924
3.46641e-05
9.97938e-05
2.07551e-05
8.76753e-05
6.14893e-06
7.60736e-05
-8.63301e-06
6.53521e-05
-2.31589e-05
5.57626e-05
-3.70885e-05
4.735e-05
-5.02191e-05
3.99119e-05
-6.2457e-05
3.30306e-05
-7.37335e-05
2.60671e-05
-8.3927e-05
1.97357e-05
-9.28e-05
1.0504e-05
-0.000102048
-0.000111249
1.74864e-05
1.77039e-06
3.75681e-05
5.50701e-06
6.0629e-05
1.36525e-05
8.43166e-05
2.47694e-05
0.000106188
3.63578e-05
0.000125312
4.67923e-05
0.000141035
5.52078e-05
0.000152741
6.10546e-05
0.000160009
6.39835e-05
0.00016208
6.37218e-05
0.000158875
6.02231e-05
0.000151111
5.37613e-05
0.000139706
4.43142e-05
0.000126315
3.2425e-05
0.000112278
1.87729e-05
9.84872e-05
4.13971e-06
8.54802e-05
-1.08037e-05
7.35428e-05
-2.54978e-05
6.26934e-05
-3.95075e-05
5.27617e-05
-5.2515e-05
4.33798e-05
-6.42599e-05
3.37972e-05
-7.45158e-05
2.48529e-05
-8.31009e-05
1.41449e-05
-9.15466e-05
-0.000100521
1.38305e-05
-1.24363e-05
3.12951e-05
-1.23855e-05
5.33644e-05
-7.42747e-06
7.79988e-05
2.0065e-06
0.00010193
1.38449e-05
0.00012352
2.61023e-05
0.000141834
3.74472e-05
0.000156173
4.70058e-05
0.000166202
5.41533e-05
0.000171423
5.85753e-05
0.000171513
5.98607e-05
0.00016685
5.78883e-05
0.000157763
5.24683e-05
0.000145042
4.35508e-05
0.000130188
3.17865e-05
0.000114689
1.7958e-05
9.95955e-05
2.99827e-06
8.54859e-05
-1.22316e-05
7.25177e-05
-2.69959e-05
6.05044e-05
-4.07143e-05
4.91994e-05
-5.2927e-05
3.78464e-05
-6.32755e-05
2.72284e-05
-7.16731e-05
1.58478e-05
-7.95829e-05
-8.80701e-05
8.74223e-06
-2.32679e-05
2.30813e-05
-2.77454e-05
4.22118e-05
-2.63746e-05
6.56772e-05
-1.94927e-05
9.00552e-05
-8.49266e-06
0.000112991
4.76507e-06
0.000132957
1.86123e-05
0.000148999
3.17347e-05
0.000160548
4.30737e-05
0.000167503
5.19457e-05
0.000170139
5.7655e-05
0.000168436
5.97478e-05
0.000162576
5.82655e-05
0.000152469
5.30735e-05
0.000138925
4.40354e-05
0.000123325
3.18484e-05
0.000107143
1.74635e-05
9.15061e-05
2.02285e-06
7.69828e-05
-1.33695e-05
6.35594e-05
-2.7787e-05
5.10398e-05
-4.05335e-05
3.87654e-05
-5.10918e-05
2.74464e-05
-5.94576e-05
1.59189e-05
-6.7113e-05
-7.52016e-05
8.05986e-06
-3.19374e-05
1.90178e-05
-4.00754e-05
3.39374e-05
-4.18507e-05
5.33293e-05
-3.7613e-05
7.52236e-05
-2.82314e-05
9.71996e-05
-1.50605e-05
0.000117262
3.43747e-07
0.000133959
1.63912e-05
0.000146448
3.15614e-05
0.000154396
4.46131e-05
0.000158096
5.4406e-05
0.000157886
6.03613e-05
0.000154
6.23572e-05
0.000146612
6.04748e-05
0.000135727
5.44143e-05
0.000122047
4.44016e-05
0.000106717
3.1244e-05
9.10532e-05
1.60868e-05
7.60861e-05
3.25452e-07
6.22341e-05
-1.47232e-05
4.94518e-05
-2.80459e-05
3.71894e-05
-3.89276e-05
2.60365e-05
-4.73971e-05
1.4973e-05
-5.5009e-05
-6.29024e-05
1.01612e-05
-4.05677e-05
1.8332e-05
-4.98599e-05
2.95451e-05
-5.3679e-05
4.35415e-05
-5.13489e-05
6.0367e-05
-4.35967e-05
7.86349e-05
-3.12104e-05
9.64681e-05
-1.53282e-05
0.000112136
2.58876e-06
0.000124351
2.07828e-05
0.00013249
3.75259e-05
0.000136304
5.11268e-05
0.000136699
6.04106e-05
0.000134083
6.53039e-05
0.00012878
6.58712e-05
0.000120669
6.23271e-05
0.000110067
5.44157e-05
9.74746e-05
4.27879e-05
8.37516e-05
2.8432e-05
6.99762e-05
1.27441e-05
5.69407e-05
-2.68681e-06
4.49548e-05
-1.64999e-05
3.3633e-05
-2.77047e-05
2.33416e-05
-3.62979e-05
1.33375e-05
-4.39971e-05
-5.18393e-05
1.05645e-05
-5.0008e-05
1.68848e-05
-5.83281e-05
2.5659e-05
-6.28893e-05
3.53787e-05
-6.13015e-05
4.67585e-05
-5.44479e-05
5.96826e-05
-4.27393e-05
7.3193e-05
-2.69219e-05
8.58635e-05
-8.10565e-06
9.62791e-05
1.20468e-05
0.000103608
3.15409e-05
0.000107072
4.82824e-05
0.00010785
6.01933e-05
0.000106202
6.72478e-05
0.000102584
6.96342e-05
9.7131e-05
6.76827e-05
8.98405e-05
6.13742e-05
8.09177e-05
5.11109e-05
7.06077e-05
3.77978e-05
5.9585e-05
2.26326e-05
4.86739e-05
7.21731e-06
3.84596e-05
-6.83386e-06
2.88619e-05
-1.81994e-05
1.96829e-05
-2.67365e-05
1.11609e-05
-3.46566e-05
-4.25309e-05
1.11863e-05
-5.99952e-05
1.60058e-05
-6.56144e-05
2.20073e-05
-6.93693e-05
2.81613e-05
-6.76711e-05
3.4818e-05
-6.09761e-05
4.22005e-05
-4.95134e-05
5.0271e-05
-3.37984e-05
5.83723e-05
-1.46512e-05
6.54186e-05
6.48846e-06
7.06348e-05
2.75786e-05
7.32395e-05
4.62892e-05
7.42062e-05
5.98013e-05
7.36183e-05
6.81577e-05
7.17623e-05
7.16157e-05
6.88705e-05
7.0512e-05
6.48649e-05
6.51569e-05
5.97567e-05
5.58589e-05
5.35425e-05
4.35024e-05
4.62994e-05
2.91175e-05
3.85642e-05
1.41202e-05
3.09178e-05
1.85892e-07
2.37036e-05
-1.10394e-05
1.5327e-05
-1.91987e-05
8.58294e-06
-2.74825e-05
-3.55278e-05
1.19534e-05
-6.99568e-05
1.63532e-05
-7.14612e-05
1.79533e-05
-7.27469e-05
2.0614e-05
-7.05139e-05
2.31977e-05
-6.3588e-05
2.58904e-05
-5.20257e-05
2.87613e-05
-3.62539e-05
3.17359e-05
-1.69827e-05
3.44407e-05
4.46787e-06
3.66084e-05
2.6048e-05
3.81385e-05
4.52977e-05
3.91995e-05
5.92248e-05
3.97012e-05
6.79184e-05
3.97316e-05
7.16901e-05
3.9313e-05
7.08817e-05
3.83895e-05
6.59105e-05
3.67876e-05
5.72123e-05
3.44041e-05
4.56124e-05
3.1075e-05
3.20696e-05
2.68413e-05
1.78e-05
2.20978e-05
4.35181e-06
1.74081e-05
-6.44198e-06
1.08832e-05
-1.39596e-05
5.92313e-06
-2.25793e-05
-3.08821e-05
1.0774e-05
-7.77602e-05
1.45658e-05
-7.51725e-05
1.25714e-05
-7.32322e-05
1.18662e-05
-7.01611e-05
1.09983e-05
-6.28135e-05
9.8538e-06
-5.09199e-05
8.43917e-06
-3.4928e-05
6.92347e-06
-1.5615e-05
5.61751e-06
5.64363e-06
4.87561e-06
2.67337e-05
5.42707e-06
4.51548e-05
6.52629e-06
5.83972e-05
8.05833e-06
6.65709e-05
9.81168e-06
6.99844e-05
1.16456e-05
6.90056e-05
1.33738e-05
6.4065e-05
1.46996e-05
5.57333e-05
1.53781e-05
4.4757e-05
1.52655e-05
3.20339e-05
1.41931e-05
1.86583e-05
1.22081e-05
5.98361e-06
9.80088e-06
-4.19858e-06
6.5245e-06
-1.11051e-05
3.42987e-06
-1.97643e-05
-2.82087e-05
6.68831e-06
-8.13297e-05
8.1133e-06
-7.59316e-05
5.82659e-06
-7.13984e-05
2.61838e-06
-6.7158e-05
-1.06009e-06
-5.91652e-05
-5.4702e-06
-4.67616e-05
-1.04085e-05
-3.04936e-05
-1.54119e-05
-1.13221e-05
-1.9641e-05
9.2035e-06
-2.22364e-05
2.89023e-05
-2.23015e-05
4.5449e-05
-2.09708e-05
5.71781e-05
-1.85198e-05
6.41913e-05
-1.5302e-05
6.67652e-05
-1.16087e-05
6.52827e-05
-7.7837e-06
6.01819e-05
-4.18266e-06
5.20696e-05
-1.11238e-06
4.16318e-05
1.20937e-06
2.96818e-05
2.67187e-06
1.72228e-05
3.14167e-06
5.46575e-06
2.7434e-06
-3.9911e-06
2.22081e-06
-1.0427e-05
1.30484e-06
-1.88615e-05
-2.72557e-05
1.0521e-06
-8.07346e-05
5.62463e-07
-7.41004e-05
-2.07641e-06
-6.77897e-05
-6.84145e-06
-6.22652e-05
-1.27467e-05
-5.33704e-05
-1.98223e-05
-4.03374e-05
-2.75595e-05
-2.38756e-05
-3.49935e-05
-5.18898e-06
-4.0781e-05
1.39742e-05
-4.38635e-05
3.14979e-05
-4.39198e-05
4.55699e-05
-4.20616e-05
5.53331e-05
-3.86857e-05
6.08243e-05
-3.42579e-05
6.23355e-05
-2.91409e-05
6.018e-05
-2.377e-05
5.4819e-05
-1.85153e-05
4.68326e-05
-1.3683e-05
3.68463e-05
-9.5072e-06
2.55944e-05
-6.15036e-06
1.40052e-05
-3.77324e-06
3.20771e-06
-2.60668e-06
-5.45226e-06
-1.50057e-06
-1.15344e-05
-3.65819e-07
-1.97266e-05
-2.7926e-05
-3.68865e-06
-7.734e-05
-6.80671e-06
-6.99876e-05
-1.04472e-05
-6.28279e-05
-1.64827e-05
-5.61013e-05
-2.42457e-05
-4.61745e-05
-3.33639e-05
-3.25216e-05
-4.28086e-05
-1.61146e-05
-5.10911e-05
1.58054e-06
-5.67829e-05
1.87353e-05
-5.92066e-05
3.35944e-05
-5.87279e-05
4.50729e-05
-5.62293e-05
5.27986e-05
-5.20993e-05
5.66967e-05
-4.68021e-05
5.70793e-05
-4.07769e-05
5.42086e-05
-3.44449e-05
4.85458e-05
-2.81527e-05
4.06213e-05
-2.21775e-05
3.09985e-05
-1.67639e-05
2.036e-05
-1.21187e-05
9.60199e-06
-8.61487e-06
-2.08093e-07
-6.47803e-06
-8.05265e-06
-4.21757e-06
-1.39523e-05
-1.36793e-06
-2.20749e-05
-2.98002e-05
-7.23422e-06
-7.17601e-05
-1.24205e-05
-6.40494e-05
-1.73665e-05
-5.64984e-05
-2.48492e-05
-4.88101e-05
-3.43036e-05
-3.79616e-05
-4.46937e-05
-2.39699e-05
-5.44252e-05
-8.13574e-06
-6.20055e-05
7.93956e-06
-6.65305e-05
2.26616e-05
-6.79647e-05
3.48513e-05
-6.68934e-05
4.39439e-05
-6.38451e-05
4.97027e-05
-5.92441e-05
5.21119e-05
-5.34928e-05
5.1395e-05
-4.7033e-05
4.7836e-05
-4.0257e-05
4.18648e-05
-3.34531e-05
3.39469e-05
-2.68601e-05
2.46006e-05
-2.0741e-05
1.45015e-05
-1.54116e-05
4.55544e-06
-1.13513e-05
-4.24861e-06
-8.7154e-06
-1.12796e-05
-5.82987e-06
-1.71254e-05
-1.91308e-06
-2.5275e-05
-3.23036e-05
-9.49101e-06
-6.4445e-05
-1.63337e-05
-5.66738e-05
-2.27429e-05
-4.90288e-05
-3.15367e-05
-4.06652e-05
-4.21101e-05
-2.92127e-05
-5.24169e-05
-1.54281e-05
-6.10383e-05
-8.27822e-07
-6.7013e-05
1.31762e-05
-7.0121e-05
2.54649e-05
-7.07755e-05
3.53393e-05
-6.92564e-05
4.23552e-05
-6.58474e-05
4.63008e-05
-6.10481e-05
4.73552e-05
-5.52071e-05
4.56503e-05
-4.87366e-05
4.14686e-05
-4.19421e-05
3.5189e-05
-3.50467e-05
2.72201e-05
-2.82614e-05
1.80692e-05
-2.18872e-05
8.45222e-06
-1.63958e-05
-6.99324e-07
-1.21444e-05
-8.52538e-06
-9.29664e-06
-1.47522e-05
-6.19564e-06
-2.0538e-05
-2.17584e-06
-2.86277e-05
-3.49791e-05
-1.06523e-05
-5.62652e-05
-1.89699e-05
-4.84481e-05
-2.6603e-05
-4.08374e-05
-3.63187e-05
-3.21324e-05
-4.67031e-05
-2.05852e-05
-5.57014e-05
-7.65583e-06
-6.25765e-05
5.25282e-06
-6.69249e-05
1.71184e-05
-6.88957e-05
2.72106e-05
-6.8763e-05
3.50795e-05
-6.67334e-05
4.03246e-05
-6.3244e-05
4.28182e-05
-5.85418e-05
4.27331e-05
-5.29788e-05
4.01856e-05
-4.68583e-05
3.54527e-05
-4.03972e-05
2.88599e-05
-3.37601e-05
2.07842e-05
-2.71539e-05
1.17627e-05
-2.09347e-05
2.58332e-06
-1.56591e-05
-5.81678e-06
-1.14828e-05
-1.27511e-05
-8.56259e-06
-1.82086e-05
-5.56692e-06
-2.37917e-05
-2.4105e-06
-3.16477e-05
-3.75244e-05
-1.11496e-05
-4.79217e-05
-2.0014e-05
-3.99619e-05
-2.82519e-05
-3.24257e-05
-3.80645e-05
-2.37192e-05
-4.70925e-05
-1.26906e-05
-5.43758e-05
-1.08553e-06
-5.96115e-05
1.00457e-05
-6.27244e-05
1.99838e-05
-6.38301e-05
2.81965e-05
-6.3069e-05
3.43037e-05
-6.08885e-05
3.8078e-05
-5.7543e-05
3.94618e-05
-5.31853e-05
3.8457e-05
-4.81342e-05
3.52209e-05
-4.25938e-05
3.00106e-05
-3.67028e-05
2.3109e-05
-3.05841e-05
1.48929e-05
-2.44556e-05
5.96233e-06
-1.87131e-05
-2.82019e-06
-1.3848e-05
-1.05486e-05
-9.89567e-06
-1.67108e-05
-6.96057e-06
-2.14584e-05
-4.22824e-06
-2.66248e-05
-2.42063e-06
-3.3984e-05
-3.96934e-05
-1.11006e-05
-3.97051e-05
-1.89935e-05
-3.17364e-05
-2.71777e-05
-2.42711e-05
-3.61249e-05
-1.58729e-05
-4.35124e-05
-5.84618e-06
-4.92872e-05
4.27545e-06
-5.32764e-05
1.37662e-05
-5.55179e-05
2.20591e-05
-5.61356e-05
2.8714e-05
-5.52733e-05
3.34218e-05
-5.32204e-05
3.6005e-05
-5.01508e-05
3.64316e-05
-4.62951e-05
3.46667e-05
-4.18726e-05
3.08687e-05
-3.70249e-05
2.52492e-05
-3.18315e-05
1.80589e-05
-2.63905e-05
9.69545e-06
-2.09277e-05
8.3483e-07
-1.58295e-05
-7.60684e-06
-1.14344e-05
-1.47844e-05
-7.80167e-06
-2.03185e-05
-5.00745e-06
-2.44549e-05
-2.56339e-06
-2.90593e-05
-2.183e-06
-3.57025e-05
-4.15765e-05
-1.02853e-05
-3.19962e-05
-1.67691e-05
-2.42561e-05
-2.41678e-05
-1.68684e-05
-3.16728e-05
-8.98597e-06
-3.76258e-05
-1.2293e-07
-4.22148e-05
8.60567e-06
-4.52974e-05
1.66733e-05
-4.69481e-05
2.35891e-05
-4.72722e-05
2.89759e-05
-4.64644e-05
3.25652e-05
-4.46554e-05
3.41822e-05
-4.20026e-05
3.3812e-05
-3.87372e-05
3.14416e-05
-3.50204e-05
2.71984e-05
-3.0944e-05
2.12457e-05
-2.65543e-05
1.38118e-05
-2.19373e-05
5.32709e-06
-1.73138e-05
-3.46318e-06
-1.30215e-05
-1.16199e-05
-9.26286e-06
-1.83702e-05
-6.16695e-06
-2.342e-05
-3.81579e-06
-2.708e-05
-1.64886e-06
-3.11617e-05
-1.90451e-06
-3.71025e-05
-4.32882e-05
-8.86298e-06
-2.52809e-05
-1.42915e-05
-1.7839e-05
-2.04053e-05
-1.06029e-05
-2.63523e-05
-3.31848e-06
-3.10584e-05
4.48003e-06
-3.46482e-05
1.20293e-05
-3.70023e-05
1.89129e-05
-3.81927e-05
2.46958e-05
-3.83156e-05
2.90514e-05
-3.75272e-05
3.17394e-05
-3.5988e-05
3.26227e-05
-3.38017e-05
3.16396e-05
-3.11496e-05
2.88094e-05
-2.81588e-05
2.42368e-05
-2.48939e-05
1.80452e-05
-2.13911e-05
1.04493e-05
-1.77402e-05
1.9135e-06
-1.41395e-05
-6.77038e-06
-1.08487e-05
-1.46696e-05
-7.98591e-06
-2.10831e-05
-5.6362e-06
-2.57657e-05
-3.85405e-06
-2.90762e-05
-2.10366e-06
-3.28225e-05
-1.56839e-06
-3.82775e-05
-4.46012e-05
-7.29633e-06
-1.96763e-05
-1.16641e-05
-1.2541e-05
-1.64525e-05
-5.54954e-06
-2.10098e-05
1.14652e-06
-2.46406e-05
8.06458e-06
-2.73753e-05
1.46601e-05
-2.91191e-05
2.05828e-05
-2.99282e-05
2.54502e-05
-2.98936e-05
2.89797e-05
-2.91375e-05
3.09573e-05
-2.78121e-05
3.12814e-05
-2.60305e-05
2.98578e-05
-2.39226e-05
2.67088e-05
-2.15842e-05
2.19206e-05
-1.90766e-05
1.55927e-05
-1.64435e-05
7.93555e-06
-1.37826e-05
-5.66232e-07
-1.12363e-05
-9.10936e-06
-8.95064e-06
-1.67887e-05
-6.95701e-06
-2.29551e-05
-5.30697e-06
-2.73748e-05
-4.01462e-06
-3.04775e-05
-2.59666e-06
-3.41094e-05
-1.38855e-06
-3.93618e-05
-4.56555e-05
-5.78125e-06
-1.51653e-05
-9.16434e-06
-8.32895e-06
-1.27726e-05
-1.62879e-06
-1.61576e-05
4.53825e-06
-1.88583e-05
1.07543e-05
-2.085e-05
1.65925e-05
-2.20615e-05
2.17491e-05
-2.2539e-05
2.58918e-05
-2.2367e-05
2.87774e-05
-2.16519e-05
3.02183e-05
-2.05089e-05
3.01222e-05
-1.90523e-05
2.83889e-05
-1.73768e-05
2.50328e-05
-1.55724e-05
2.0129e-05
-1.3708e-05
1.37648e-05
-1.1862e-05
6.14682e-06
-1.01055e-05
-2.24793e-06
-8.49377e-06
-1.06379e-05
-7.05564e-06
-1.81508e-05
-5.76753e-06
-2.41598e-05
-4.66188e-06
-2.84479e-05
-3.71181e-06
-3.14905e-05
-2.48376e-06
-3.51558e-05
-1.34066e-06
-4.03818e-05
-4.66722e-05
-4.45727e-06
-1.16402e-05
-7.00074e-06
-5.08148e-06
-9.62862e-06
1.31153e-06
-1.2036e-05
7.01954e-06
-1.39495e-05
1.26823e-05
-1.53062e-05
1.79254e-05
-1.60613e-05
2.24804e-05
-1.62535e-05
2.60599e-05
-1.5954e-05
2.84533e-05
-1.5262e-05
2.95024e-05
-1.42639e-05
2.91041e-05
-1.30624e-05
2.71672e-05
-1.17392e-05
2.37017e-05
-1.03855e-05
1.87764e-05
-9.0808e-06
1.2473e-05
-7.91969e-06
4.9888e-06
-6.94194e-06
-3.23335e-06
-6.12118e-06
-1.14609e-05
-5.38271e-06
-1.88565e-05
-4.71034e-06
-2.48093e-05
-3.93943e-06
-2.91454e-05
-3.15436e-06
-3.2247e-05
-2.19663e-06
-3.59519e-05
-1.15018e-06
-4.1229e-05
-4.75046e-05
-3.36656e-06
-8.93746e-06
-5.20061e-06
-2.64517e-06
-7.04351e-06
3.44441e-06
-8.67993e-06
8.76172e-06
-9.95144e-06
1.39869e-05
-1.07893e-05
1.87635e-05
-1.11659e-05
2.28496e-05
-1.11153e-05
2.59953e-05
-1.06963e-05
2.80185e-05
-9.99831e-06
2.87818e-05
-9.09133e-06
2.81822e-05
-8.08258e-06
2.61363e-05
-7.04044e-06
2.26446e-05
-6.05375e-06
1.7779e-05
-5.20705e-06
1.16188e-05
-4.58263e-06
4.34274e-06
-4.2116e-06
-3.65452e-06
-4.00972e-06
-1.17122e-05
-3.82273e-06
-1.90407e-05
-3.56331e-06
-2.50311e-05
-3.08054e-06
-2.94916e-05
-2.49278e-06
-3.27255e-05
-1.73788e-06
-3.6501e-05
-8.49757e-07
-4.18174e-05
-4.80647e-05
-2.47643e-06
-6.91364e-06
-3.76542e-06
-8.67787e-07
-4.98262e-06
4.93053e-06
-6.03223e-06
9.91803e-06
-6.7942e-06
1.47933e-05
-7.22051e-06
1.92006e-05
-7.29204e-06
2.29219e-05
-7.03855e-06
2.57385e-05
-6.52085e-06
2.74849e-05
-5.78937e-06
2.80435e-05
-4.93808e-06
2.7321e-05
-4.05614e-06
2.52333e-05
-3.19327e-06
2.17708e-05
-2.44499e-06
1.70195e-05
-1.9121e-06
1.10603e-05
-1.65122e-06
4.03694e-06
-1.68689e-06
-3.70519e-06
-1.91667e-06
-1.15835e-05
-2.13215e-06
-1.8861e-05
-2.20161e-06
-2.49143e-05
-2.10832e-06
-2.94808e-05
-1.81679e-06
-3.2881e-05
-1.20298e-06
-3.67989e-05
-5.41745e-07
-4.21404e-05
-4.83873e-05
-1.76374e-06
-5.41381e-06
-2.61949e-06
3.98798e-07
-3.37338e-06
5.92503e-06
-3.97645e-06
1.06319e-05
-4.35662e-06
1.52195e-05
-4.452e-06
1.9324e-05
-4.27162e-06
2.27582e-05
-3.86658e-06
2.53293e-05
-3.25257e-06
2.68708e-05
-2.49149e-06
2.72881e-05
-1.68815e-06
2.65017e-05
-8.99174e-07
2.44232e-05
-1.70213e-07
2.10363e-05
3.96761e-07
1.64367e-05
7.1833e-07
1.06967e-05
7.47697e-07
3.94232e-06
4.54889e-07
-3.52374e-06
-7.41832e-08
-1.11988e-05
-6.2371e-07
-1.84049e-05
-1.03856e-06
-2.45093e-05
-1.20903e-06
-2.92271e-05
-1.11881e-06
-3.28148e-05
-7.25848e-07
-3.68456e-05
-1.76211e-07
-4.2242e-05
-4.84555e-05
-1.20312e-06
-4.32533e-06
-1.73916e-06
1.26794e-06
-2.14918e-06
6.54523e-06
-2.40263e-06
1.10063e-05
-2.4808e-06
1.53582e-05
-2.34559e-06
1.92331e-05
-2.00286e-06
2.24428e-05
-1.47782e-06
2.48131e-05
-8.06817e-07
2.62149e-05
-8.91443e-08
2.65472e-05
7.23294e-07
2.57035e-05
1.47421e-06
2.36634e-05
2.05572e-06
2.04225e-05
2.4682e-06
1.60024e-05
2.68501e-06
1.04581e-05
2.59863e-06
3.96307e-06
2.16817e-06
-3.20996e-06
1.46376e-06
-1.0652e-05
6.88622e-07
-1.77556e-05
2.94301e-08
-2.39065e-05
-3.41756e-07
-2.87999e-05
-3.8123e-07
-3.25775e-05
-2.50438e-07
-3.66719e-05
1.72174e-07
-4.2128e-05
-4.82843e-05
-7.64089e-07
-3.56587e-06
-1.06049e-06
1.84048e-06
-1.23255e-06
6.88873e-06
-1.25467e-06
1.11456e-05
-1.13289e-06
1.53114e-05
-8.86376e-07
1.90209e-05
-4.80258e-07
2.2056e-05
1.21774e-07
2.4248e-05
7.88428e-07
2.55368e-05
1.54773e-06
2.57872e-05
2.35135e-06
2.49195e-05
3.08481e-06
2.29275e-05
3.66848e-06
1.98016e-05
4.08581e-06
1.5555e-05
4.26787e-06
1.02449e-05
4.12992e-06
4.04072e-06
3.65378e-06
-2.83611e-06
2.89275e-06
-1.00292e-05
1.99175e-06
-1.69954e-05
1.13971e-06
-2.31467e-05
5.27963e-07
-2.81726e-05