/*--------------------------------*- C++ -*----------------------------------*\
| =========                 |                                                 |
| \\      /  F ield         | OpenFOAM: The Open Source CFD Toolbox           |
|  \\    /   O peration     | Version:  2.3.0                                 |
|   \\  /    A nd           | Web:      www.OpenFOAM.org                      |
|    \\/     M anipulation  |                                                 |
\*---------------------------------------------------------------------------*/
FoamFile
{
    version     2.0;
    format      ascii;
    class       volVectorField;
    location    "0.302";
    object      U;
}
// * * * * * * * * * * * * * * * * * * * * * * * * * * * * * * * * * * * * * //

dimensions      [0 1 -1 0 0 0 0];

internalField   nonuniform List<vector> 
545
(
(0.454716 0.0865676 4.22638e-29)
(0.403876 0.00693183 3.80555e-30)
(0.362404 0.00344498 -1.91478e-31)
(0.332805 0.0032212 0)
(0.301838 0.00862295 -8.56928e-31)
(0.460264 0.0265376 8.52689e-29)
(0.416398 0.022037 1.06394e-29)
(0.362388 0.0212575 1.06084e-30)
(0.330041 0.0187843 0)
(0.298061 0.0211054 -1.2511e-30)
(0.466216 0.0432919 1.32105e-30)
(0.41478 0.0382392 5.74093e-31)
(0.358186 0.0341456 4.42534e-31)
(0.324424 0.0287813 0)
(0.292133 0.0317314 -4.34777e-31)
(0.46397 0.060786 -1.65548e-28)
(0.399281 0.0527752 -3.40371e-30)
(0.349713 0.0464458 -2.8796e-31)
(0.315901 0.0387721 0)
(0.282428 0.0400777 -2.4312e-29)
(0.469191 0.00379366 -3.2521e-28)
(0.371561 0.0752357 1.27099e-30)
(0.339769 0.0632726 2.14022e-30)
(0.301801 0.0560933 7.87745e-30)
(0.263673 0.0766547 -4.03858e-29)
(0.271251 0.00718536 0)
(0.257284 0.0016648 0)
(0.257582 -0.00011311 0)
(0.258547 -0.000436648 0)
(0.259373 -0.00034093 0)
(0.259848 -8.52283e-05 0)
(0.259909 -9.48379e-05 0)
(0.260033 3.54167e-05 0)
(0.259958 -5.28064e-05 0)
(0.260042 4.95256e-05 0)
(0.25996 -5.04208e-05 0)
(0.26004 5.11439e-05 0)
(0.259961 -5.13087e-05 0)
(0.260038 5.18317e-05 0)
(0.259963 -5.21098e-05 0)
(0.260036 5.27789e-05 0)
(0.259964 -5.28439e-05 0)
(0.260035 5.34005e-05 0)
(0.259966 -5.35116e-05 0)
(0.260033 5.41013e-05 0)
(0.259967 -5.42901e-05 0)
(0.260031 5.46849e-05 0)
(0.259969 -5.48296e-05 0)
(0.260029 5.52412e-05 0)
(0.259971 -5.54518e-05 0)
(0.260027 5.57224e-05 0)
(0.259973 -5.60107e-05 0)
(0.260025 5.62876e-05 0)
(0.259975 -5.63496e-05 0)
(0.260023 5.67372e-05 0)
(0.259977 -5.67777e-05 0)
(0.260021 5.7025e-05 0)
(0.25998 -5.71756e-05 0)
(0.260019 5.7345e-05 0)
(0.259982 -5.7408e-05 0)
(0.260016 5.7569e-05 0)
(0.259985 -5.77095e-05 0)
(0.260014 5.78177e-05 0)
(0.259987 -5.78569e-05 0)
(0.260012 5.79641e-05 0)
(0.259989 -5.78879e-05 0)
(0.260009 5.79484e-05 0)
(0.259992 -5.76121e-05 0)
(0.260005 5.76191e-05 0)
(0.259993 -5.58087e-05 0)
(0.269426 0.0151686 0)
(0.257141 0.00329281 0)
(0.25827 3.01658e-06 0)
(0.258827 -0.000638781 0)
(0.259604 -0.000323154 0)
(0.259797 -0.000212381 0)
(0.26 -7.51907e-06 0)
(0.259947 -6.50029e-05 0)
(0.26004 4.60694e-05 0)
(0.259959 -5.07864e-05 0)
(0.260041 5.07568e-05 0)
(0.259961 -5.09981e-05 0)
(0.260039 5.16433e-05 0)
(0.259962 -5.20211e-05 0)
(0.260037 5.23878e-05 0)
(0.259963 -5.26692e-05 0)
(0.260036 5.31197e-05 0)
(0.259965 -5.35111e-05 0)
(0.260034 5.38715e-05 0)
(0.259967 -5.41406e-05 0)
(0.260032 5.44529e-05 0)
(0.259969 -5.48043e-05 0)
(0.260031 5.51079e-05 0)
(0.259971 -5.54069e-05 0)
(0.260029 5.56087e-05 0)
(0.259972 -5.59261e-05 0)
(0.260027 5.60611e-05 0)
(0.259975 -5.63693e-05 0)
(0.260025 5.66607e-05 0)
(0.259977 -5.67973e-05 0)
(0.260022 5.70511e-05 0)
(0.259979 -5.72319e-05 0)
(0.26002 5.7359e-05 0)
(0.259981 -5.75866e-05 0)
(0.260018 5.77337e-05 0)
(0.259984 -5.79116e-05 0)
(0.260016 5.79303e-05 0)
(0.259986 -5.80836e-05 0)
(0.260013 5.81793e-05 0)
(0.259988 -5.81602e-05 0)
(0.260011 5.82671e-05 0)
(0.259991 -5.80929e-05 0)
(0.260008 5.81783e-05 0)
(0.259994 -5.7312e-05 0)
(0.260004 5.7997e-05 0)
(0.266116 0.0240688 0)
(0.256761 0.00474204 0)
(0.259113 -0.000369947 0)
(0.259579 -0.000838351 0)
(0.259826 -0.000581454 0)
(0.259998 -0.000182661 0)
(0.259946 -0.000128513 0)
(0.260039 2.70245e-05 0)
(0.259957 -5.53746e-05 0)
(0.260041 4.94475e-05 0)
(0.25996 -5.08847e-05 0)
(0.26004 5.14992e-05 0)
(0.259961 -5.16246e-05 0)
(0.260038 5.21808e-05 0)
(0.259963 -5.26034e-05 0)
(0.260037 5.31007e-05 0)
(0.259964 -5.3378e-05 0)
(0.260035 5.36968e-05 0)
(0.259966 -5.41032e-05 0)
(0.260033 5.45109e-05 0)
(0.259968 -5.48404e-05 0)
(0.260031 5.51169e-05 0)
(0.259969 -5.54066e-05 0)
(0.260029 5.56761e-05 0)
(0.259971 -5.60321e-05 0)
(0.260027 5.62896e-05 0)
(0.259973 -5.66757e-05 0)
(0.260025 5.68119e-05 0)
(0.259975 -5.69625e-05 0)
(0.260023 5.72378e-05 0)
(0.259978 -5.73436e-05 0)
(0.260021 5.75742e-05 0)
(0.25998 -5.77318e-05 0)
(0.260019 5.77785e-05 0)
(0.259982 -5.79498e-05 0)
(0.260016 5.80698e-05 0)
(0.259984 -5.83357e-05 0)
(0.260014 5.83497e-05 0)
(0.259987 -5.84237e-05 0)
(0.260012 5.86009e-05 0)
(0.259989 -5.85016e-05 0)
(0.260009 5.8664e-05 0)
(0.259992 -5.82411e-05 0)
(0.260005 5.89112e-05 0)
(0.259995 -5.67427e-05 0)
(0.2621 0.0309319 0)
(0.256894 0.00460112 0)
(0.260631 -0.000691019 0)
(0.260383 -0.00102678 0)
(0.260299 -0.000488272 0)
(0.260046 -0.000270859 0)
(0.260073 -2.54913e-05 0)
(0.259964 -6.98037e-05 0)
(0.260043 4.47114e-05 0)
(0.259959 -5.12326e-05 0)
(0.26004 5.07081e-05 0)
(0.25996 -5.114e-05 0)
(0.260039 5.18641e-05 0)
(0.259962 -5.20954e-05 0)
(0.260037 5.2477e-05 0)
(0.259963 -5.27146e-05 0)
(0.260036 5.32742e-05 0)
(0.259965 -5.36474e-05 0)
(0.260034 5.39375e-05 0)
(0.259967 -5.41835e-05 0)
(0.260032 5.45451e-05 0)
(0.259969 -5.48942e-05 0)
(0.260031 5.52212e-05 0)
(0.25997 -5.55002e-05 0)
(0.260029 5.57105e-05 0)
(0.259972 -5.59307e-05 0)
(0.260026 5.60507e-05 0)
(0.259975 -5.64182e-05 0)
(0.260024 5.6761e-05 0)
(0.259977 -5.69364e-05 0)
(0.260022 5.72228e-05 0)
(0.259979 -5.73255e-05 0)
(0.26002 5.75912e-05 0)
(0.259981 -5.79017e-05 0)
(0.260018 5.8044e-05 0)
(0.259983 -5.81431e-05 0)
(0.260015 5.80943e-05 0)
(0.259986 -5.83471e-05 0)
(0.260013 5.84046e-05 0)
(0.259988 -5.83606e-05 0)
(0.260011 5.8534e-05 0)
(0.259991 -5.83694e-05 0)
(0.260008 5.87223e-05 0)
(0.259994 -5.78773e-05 0)
(0.260006 5.92256e-05 0)
(0.259337 0.051614 0)
(0.260189 0.00446114 0)
(0.262592 -0.000835308 0)
(0.261397 -0.000768782 0)
(0.260532 -0.000461823 0)
(0.260228 -0.000112202 0)
(0.26001 -9.97993e-05 0)
(0.260054 3.80783e-05 0)
(0.25996 -5.32741e-05 0)
(0.260041 5.02998e-05 0)
(0.259959 -5.14118e-05 0)
(0.260039 5.17761e-05 0)
(0.259961 -5.20124e-05 0)
(0.260038 5.26156e-05 0)
(0.259963 -5.30761e-05 0)
(0.260037 5.36362e-05 0)
(0.259964 -5.38262e-05 0)
(0.260035 5.42043e-05 0)
(0.259966 -5.46643e-05 0)
(0.260033 5.51392e-05 0)
(0.259968 -5.54299e-05 0)
(0.260032 5.57242e-05 0)
(0.25997 -5.60046e-05 0)
(0.26003 5.62907e-05 0)
(0.259972 -5.66885e-05 0)
(0.260028 5.70478e-05 0)
(0.259974 -5.7464e-05 0)
(0.260026 5.75551e-05 0)
(0.259976 -5.76223e-05 0)
(0.260024 5.79018e-05 0)
(0.259978 -5.79887e-05 0)
(0.260021 5.8227e-05 0)
(0.25998 -5.83018e-05 0)
(0.260019 5.82564e-05 0)
(0.259983 -5.84341e-05 0)
(0.260017 5.869e-05 0)
(0.259985 -5.89873e-05 0)
(0.260014 5.89712e-05 0)
(0.259987 -5.90804e-05 0)
(0.260012 5.92875e-05 0)
(0.25999 -5.92782e-05 0)
(0.26001 5.93999e-05 0)
(0.259993 -5.93076e-05 0)
(0.260008 5.91682e-05 0)
(0.260001 -5.832e-05 0)
(0.269099 4.81147e-05 0)
(0.262403 -4.75077e-05 0)
(0.264255 4.82543e-05 0)
(0.262032 -4.86294e-05 0)
(0.260767 4.94452e-05 0)
(0.260157 -4.99632e-05 0)
(0.26009 5.05672e-05 0)
(0.259967 -5.10165e-05 0)
(0.260043 5.14705e-05 0)
(0.259959 -5.19438e-05 0)
(0.26004 5.25134e-05 0)
(0.25996 -5.29315e-05 0)
(0.260039 5.34086e-05 0)
(0.259962 -5.38416e-05 0)
(0.260037 5.42466e-05 0)
(0.259963 -5.46764e-05 0)
(0.260036 5.50331e-05 0)
(0.259965 -5.55037e-05 0)
(0.260034 5.58173e-05 0)
(0.259967 -5.6221e-05 0)
(0.260032 5.65485e-05 0)
(0.259969 -5.68833e-05 0)
(0.260031 5.71842e-05 0)
(0.259971 -5.74663e-05 0)
(0.260029 5.78273e-05 0)
(0.259973 -5.80902e-05 0)
(0.260026 5.83647e-05 0)
(0.259974 -5.8623e-05 0)
(0.260024 5.88609e-05 0)
(0.259977 -5.90804e-05 0)
(0.260022 5.92589e-05 0)
(0.259979 -5.94469e-05 0)
(0.260021 5.96428e-05 0)
(0.259981 -5.98495e-05 0)
(0.260018 6.00101e-05 0)
(0.259984 -6.01481e-05 0)
(0.260015 6.02806e-05 0)
(0.259986 -6.04101e-05 0)
(0.260013 6.05054e-05 0)
(0.259988 -6.06008e-05 0)
(0.260011 6.06348e-05 0)
(0.259991 -6.08023e-05 0)
(0.260009 6.06798e-05 0)
(0.259994 -6.24223e-05 0)
(0.260009 5.8979e-05 0)
(0.469191 -0.00370557 0)
(0.37156 -0.0753243 2.50092e-31)
(0.33977 -0.0631837 -1.99507e-30)
(0.3018 -0.0561833 -7.87775e-30)
(0.263674 -0.0765641 0)
(0.463969 -0.0608742 0)
(0.399282 -0.0526868 0)
(0.349712 -0.0465349 0)
(0.315902 -0.0386823 -2.46289e-30)
(0.282428 -0.0401686 0)
(0.466217 -0.0432038 0)
(0.414779 -0.0383277 0)
(0.358187 -0.0340566 0)
(0.324423 -0.0288712 -1.39359e-30)
(0.292134 -0.0316407 0)
(0.460263 -0.0266257 0)
(0.416399 -0.0219486 0)
(0.362387 -0.0213467 0)
(0.330042 -0.0186945 5.9288e-31)
(0.29806 -0.0211963 0)
(0.454717 -0.0864795 0)
(0.403875 -0.00702041 0)
(0.362405 -0.00335608 0)
(0.332804 -0.00331117 8.9614e-32)
(0.301839 -0.0085323 0)
(0.259336 -0.0517059 0)
(0.260189 -0.00436753 0)
(0.262592 0.000740605 0)
(0.261397 0.0008647 0)
(0.260532 0.000364937 0)
(0.260228 0.000210092 0)
(0.26001 7.84855e-07 0)
(0.260054 6.19461e-05 0)
(0.25996 -4.78118e-05 0)
(0.260041 5.15761e-05 0)
(0.259959 -5.14655e-05 0)
(0.260039 5.19319e-05 0)
(0.259961 -5.26955e-05 0)
(0.260038 5.29822e-05 0)
(0.259963 -5.32861e-05 0)
(0.260037 5.36707e-05 0)
(0.259964 -5.4091e-05 0)
(0.260035 5.45494e-05 0)
(0.259966 -5.47928e-05 0)
(0.260033 5.50615e-05 0)
(0.259968 -5.54383e-05 0)
(0.260032 5.58474e-05 0)
(0.25997 -5.62026e-05 0)
(0.26003 5.64285e-05 0)
(0.259972 -5.66471e-05 0)
(0.260028 5.67632e-05 0)
(0.259974 -5.69215e-05 0)
(0.260026 5.73658e-05 0)
(0.259976 -5.7705e-05 0)
(0.260024 5.79746e-05 0)
(0.259978 -5.83335e-05 0)
(0.260021 5.84348e-05 0)
(0.25998 -5.86684e-05 0)
(0.260019 5.89884e-05 0)
(0.259983 -5.91299e-05 0)
(0.260017 5.92007e-05 0)
(0.259985 -5.91675e-05 0)
(0.260014 5.93784e-05 0)
(0.259987 -5.95535e-05 0)
(0.260012 5.9562e-05 0)
(0.25999 -5.98234e-05 0)
(0.26001 5.9765e-05 0)
(0.259992 -6.02046e-05 0)
(0.260008 5.92627e-05 0)
(0.25999 -6.11883e-05 0)
(0.262101 -0.0308399 0)
(0.256893 -0.00469369 0)
(0.260631 0.000784786 0)
(0.260382 0.000932047 0)
(0.260299 0.000584218 0)
(0.260046 0.000173715 0)
(0.260073 0.000123609 0)
(0.259964 -2.93079e-05 0)
(0.260043 5.52741e-05 0)
(0.259959 -4.97575e-05 0)
(0.26004 5.12114e-05 0)
(0.25996 -5.17488e-05 0)
(0.260039 5.18313e-05 0)
(0.259962 -5.24764e-05 0)
(0.260037 5.29299e-05 0)
(0.259963 -5.34198e-05 0)
(0.260036 5.37406e-05 0)
(0.259965 -5.40864e-05 0)
(0.260034 5.45322e-05 0)
(0.259967 -5.49901e-05 0)
(0.260032 5.52942e-05 0)
(0.259969 -5.55772e-05 0)
(0.260031 5.58532e-05 0)
(0.25997 -5.6203e-05 0)
(0.260029 5.65447e-05 0)
(0.259972 -5.69417e-05 0)
(0.260026 5.73137e-05 0)
(0.259975 -5.74179e-05 0)
(0.260024 5.7585e-05 0)
(0.259977 -5.77957e-05 0)
(0.260022 5.78747e-05 0)
(0.259979 -5.81702e-05 0)
(0.26002 5.82794e-05 0)
(0.259981 -5.8345e-05 0)
(0.260018 5.85233e-05 0)
(0.259983 -5.86874e-05 0)
(0.260015 5.89776e-05 0)
(0.259986 -5.89955e-05 0)
(0.260013 5.91058e-05 0)
(0.259988 -5.93169e-05 0)
(0.260011 5.9239e-05 0)
(0.259991 -5.96345e-05 0)
(0.260008 5.94417e-05 0)
(0.259993 -6.02791e-05 0)
(0.260006 5.89332e-05 0)
(0.266115 -0.0241606 0)
(0.256761 -0.00464874 0)
(0.259113 0.000275617 0)
(0.259579 0.000933962 0)
(0.259825 0.000484892 0)
(0.259998 0.000280229 0)
(0.259946 2.99383e-05 0)
(0.260039 7.25212e-05 0)
(0.259957 -4.51755e-05 0)
(0.260041 5.20507e-05 0)
(0.25996 -5.15757e-05 0)
(0.26004 5.18546e-05 0)
(0.259961 -5.26498e-05 0)
(0.260038 5.29147e-05 0)
(0.259963 -5.33349e-05 0)
(0.260037 5.37007e-05 0)
(0.259964 -5.41262e-05 0)
(0.260035 5.45836e-05 0)
(0.259966 -5.49043e-05 0)
(0.260033 5.52156e-05 0)
(0.259968 -5.55744e-05 0)
(0.260031 5.5944e-05 0)
(0.259969 -5.62716e-05 0)
(0.260029 5.6595e-05 0)
(0.259971 -5.68353e-05 0)
(0.260027 5.70928e-05 0)
(0.259973 -5.72521e-05 0)
(0.260025 5.76315e-05 0)
(0.259975 -5.79078e-05 0)
(0.260023 5.81106e-05 0)
(0.259978 -5.84178e-05 0)
(0.260021 5.85464e-05 0)
(0.25998 -5.87555e-05 0)
(0.260019 5.90316e-05 0)
(0.259982 -5.91647e-05 0)
(0.260016 5.9344e-05 0)
(0.259984 -5.93496e-05 0)
(0.260014 5.9536e-05 0)
(0.259987 -5.96958e-05 0)
(0.260012 5.96815e-05 0)
(0.259989 -5.99713e-05 0)
(0.260009 5.98915e-05 0)
(0.259991 -6.03971e-05 0)
(0.260007 6.02689e-05 0)
(0.259992 -6.14863e-05 0)
(0.269426 -0.0150767 0)
(0.25714 -0.00338572 0)
(0.258271 9.10851e-05 0)
(0.258827 0.000543785 0)
(0.259604 0.000419399 0)
(0.259797 0.000115132 0)
(0.26 0.000105852 0)
(0.259947 -3.43804e-05 0)
(0.26004 5.42221e-05 0)
(0.259959 -5.04652e-05 0)
(0.260041 5.13821e-05 0)
(0.259961 -5.20904e-05 0)
(0.260039 5.22803e-05 0)
(0.259962 -5.28405e-05 0)
(0.260037 5.32733e-05 0)
(0.259963 -5.37218e-05 0)
(0.260036 5.41279e-05 0)
(0.259965 -5.44751e-05 0)
(0.260034 5.48772e-05 0)
(0.259967 -5.52809e-05 0)
(0.260032 5.56247e-05 0)
(0.259969 -5.59515e-05 0)
(0.260031 5.62703e-05 0)
(0.259971 -5.6561e-05 0)
(0.260029 5.69001e-05 0)
(0.259973 -5.72082e-05 0)
(0.260027 5.75442e-05 0)
(0.259975 -5.77241e-05 0)
(0.260025 5.79501e-05 0)
(0.259977 -5.82041e-05 0)
(0.260022 5.83595e-05 0)
(0.259979 -5.85887e-05 0)
(0.26002 5.87822e-05 0)
(0.259981 -5.89051e-05 0)
(0.260018 5.90934e-05 0)
(0.259984 -5.91789e-05 0)
(0.260016 5.94041e-05 0)
(0.259986 -5.95127e-05 0)
(0.260013 5.95819e-05 0)
(0.259988 -5.98037e-05 0)
(0.260011 5.98075e-05 0)
(0.259991 -6.0108e-05 0)
(0.260009 6.01075e-05 0)
(0.259993 -6.0862e-05 0)
(0.260007 6.0819e-05 0)
(0.27125 -0.00727731 0)
(0.257284 -0.00157179 0)
(0.257582 1.90927e-05 0)
(0.258548 0.000532017 0)
(0.259373 0.000244611 0)
(0.259848 0.000182568 0)
(0.259909 -3.50036e-06 0)
(0.260033 6.37889e-05 0)
(0.259958 -4.75173e-05 0)
(0.260042 5.16975e-05 0)
(0.25996 -5.1825e-05 0)
(0.26004 5.19152e-05 0)
(0.259961 -5.27447e-05 0)
(0.260038 5.29381e-05 0)
(0.259962 -5.35407e-05 0)
(0.260036 5.37825e-05 0)
(0.259964 -5.43532e-05 0)
(0.260035 5.46407e-05 0)
(0.259966 -5.51573e-05 0)
(0.260033 5.53676e-05 0)
(0.259967 -5.58559e-05 0)
(0.260031 5.60722e-05 0)
(0.259969 -5.65381e-05 0)
(0.260029 5.67403e-05 0)
(0.259971 -5.71639e-05 0)
(0.260027 5.73261e-05 0)
(0.259973 -5.76513e-05 0)
(0.260025 5.78695e-05 0)
(0.259975 -5.82039e-05 0)
(0.260023 5.83308e-05 0)
(0.259978 -5.8669e-05 0)
(0.260021 5.87583e-05 0)
(0.25998 -5.90291e-05 0)
(0.260019 5.91841e-05 0)
(0.259982 -5.93929e-05 0)
(0.260016 5.95456e-05 0)
(0.259985 -5.96812e-05 0)
(0.260014 5.97503e-05 0)
(0.259987 -5.99703e-05 0)
(0.260012 5.99662e-05 0)
(0.259989 -6.01979e-05 0)
(0.260009 6.0227e-05 0)
(0.259991 -6.06123e-05 0)
(0.260006 6.07917e-05 0)
(0.259992 -6.2933e-05 0)
)
;

boundaryField
{
    AirInlet
    {
        type            fixedValue;
        value           uniform (0.1 0 0);
    }
    WaterInlet
    {
        type            fixedValue;
        value           uniform (0.5 0 0);
    }
    ChannelWall
    {
        type            fixedValue;
        value           uniform (0 0 0);
    }
    Outlet
    {
        type            pressureInletOutletVelocity;
        value           nonuniform List<vector> 
11
(
(0.259993 -5.58087e-05 0)
(0.260004 5.7997e-05 0)
(0.259995 -5.67427e-05 0)
(0.260006 5.92256e-05 0)
(0.260001 -5.832e-05 0)
(0.260009 5.8979e-05 0)
(0.25999 -6.11883e-05 0)
(0.260006 5.89332e-05 0)
(0.259992 -6.14863e-05 0)
(0.260007 6.0819e-05 0)
(0.259992 -6.2933e-05 0)
)
;
    }
    FrontAndBack
    {
        type            empty;
    }
}


// ************************************************************************* //
