/*--------------------------------*- C++ -*----------------------------------*\
| =========                 |                                                 |
| \\      /  F ield         | OpenFOAM: The Open Source CFD Toolbox           |
|  \\    /   O peration     | Version:  2.3.0                                 |
|   \\  /    A nd           | Web:      www.OpenFOAM.org                      |
|    \\/     M anipulation  |                                                 |
\*---------------------------------------------------------------------------*/
FoamFile
{
    version     2.0;
    format      ascii;
    class       surfaceScalarField;
    location    "3.19937";
    object      phi;
}
// * * * * * * * * * * * * * * * * * * * * * * * * * * * * * * * * * * * * * //

dimensions      [0 3 -1 0 0 0 0];

internalField   nonuniform List<scalar> 
49938
(
-1.34443e-09
4.46524e-09
-2.6207e-09
-2.54157e-09
5.40522e-09
-3.70793e-09
-3.41644e-09
4.71502e-09
-3.34003e-09
-4.2677e-09
4.50218e-09
-3.15081e-09
-4.94944e-09
4.36598e-09
-3.18413e-09
-5.61108e-09
4.28478e-09
-3.12303e-09
-6.22406e-09
4.28017e-09
-3.16708e-09
-6.80507e-09
4.22469e-09
-3.14357e-09
-7.34347e-09
4.17807e-09
-3.13956e-09
-7.85233e-09
4.14457e-09
-3.1356e-09
-8.31153e-09
4.16685e-09
-3.20753e-09
-8.70058e-09
4.21545e-09
-3.32627e-09
-9.00294e-09
4.18008e-09
-3.37759e-09
-9.15031e-09
4.23226e-09
-3.58474e-09
-9.13447e-09
4.30615e-09
-3.82184e-09
-8.86973e-09
4.4077e-09
-4.17227e-09
-8.3427e-09
4.5027e-09
-4.52956e-09
-7.46031e-09
4.57341e-09
-4.95562e-09
-6.23736e-09
4.6062e-09
-5.32899e-09
-4.55952e-09
4.65334e-09
-5.83104e-09
-2.49586e-09
4.68085e-09
-6.24439e-09
-2.75357e-10
4.64976e-09
-6.37015e-09
1.67063e-09
4.55641e-09
-6.00228e-09
3.7933e-09
4.19685e-09
-5.81941e-09
4.84596e-09
3.94609e-09
-4.49863e-09
4.47685e-09
4.12422e-09
-3.255e-09
2.95814e-09
4.81773e-09
-2.79889e-09
5.85437e-09
-2.39607e-09
-1.83062e-09
8.44905e-09
-2.15291e-09
-2.69268e-09
8.4724e-09
-2.2048e-09
-3.30867e-09
7.72143e-09
-2.39013e-09
-3.95758e-09
7.39198e-09
-2.24063e-09
-4.55119e-09
7.09197e-09
-2.13213e-09
-5.17083e-09
6.93636e-09
-2.0317e-09
-5.7568e-09
6.74751e-09
-1.88113e-09
-6.30712e-09
6.50525e-09
-1.73e-09
-6.80904e-09
6.25651e-09
-1.57629e-09
-7.25599e-09
6.01568e-09
-1.42393e-09
-7.59024e-09
5.65626e-09
-1.15494e-09
-7.8765e-09
5.17826e-09
-6.76342e-10
-8.11027e-09
5.09808e-09
-6.84004e-10
-8.203e-09
4.99183e-09
-6.66629e-10
-8.15512e-09
4.91928e-09
-6.60792e-10
-7.9134e-09
4.83979e-09
-6.73604e-10
-7.4528e-09
4.76257e-09
-7.20257e-10
-6.67939e-09
4.64623e-09
-8.46018e-10
-5.60471e-09
4.53185e-09
-1.00013e-09
-4.27465e-09
4.43683e-09
-1.11336e-09
-2.64367e-09
4.17809e-09
-1.12804e-09
-8.89466e-10
4.03119e-09
-1.13547e-09
7.90038e-10
4.00076e-09
-1.1237e-09
2.45327e-09
3.61578e-09
-1.08201e-09
3.30476e-09
3.6632e-09
-5.68451e-10
3.18225e-09
4.45409e-09
-2.07187e-10
2.12012e-09
5.91314e-09
-3.30388e-11
9.57448e-09
-1.59963e-09
-1.96835e-10
1.19592e-08
-3.31286e-09
-1.30787e-09
1.0859e-08
-1.27512e-09
-1.96106e-09
9.37298e-09
-9.97996e-10
-2.58163e-09
9.16653e-09
-1.15363e-09
-3.12571e-09
8.79827e-09
-1.16188e-09
-3.66638e-09
8.55506e-09
-1.0777e-09
-4.05415e-09
8.21797e-09
-1.08237e-09
-4.37999e-09
7.85031e-09
-1.01892e-09
-4.68498e-09
7.50844e-09
-9.46654e-10
-5.31173e-09
7.15815e-09
-5.15458e-10
-6.35642e-09
6.52449e-09
1.76706e-10
-6.8555e-09
5.36984e-09
3.07715e-10
-7.11966e-09
4.97157e-09
3.90869e-10
-7.26521e-09
4.79166e-09
3.45913e-10
-7.34245e-09
4.61227e-09
3.84434e-10
-7.25199e-09
4.32379e-09
4.25712e-10
-6.96324e-09
4.0002e-09
4.73777e-10
-6.39112e-09
3.60561e-09
4.68643e-10
-5.51887e-09
3.26478e-09
3.94953e-10
-4.34918e-09
2.95435e-09
3.12921e-10
-2.84336e-09
2.60198e-09
7.04165e-11
-1.22111e-09
2.49768e-09
-8.86332e-11
3.15184e-10
2.67109e-09
-2.06521e-10
1.66726e-09
2.58686e-09
-3.23062e-10
2.50376e-09
2.98033e-09
-1.53531e-10
2.39024e-09
4.26008e-09
3.07676e-10
1.33919e-09
6.16246e-09
8.01984e-10
1.13688e-08
-4.54665e-10
1.64484e-10
1.29882e-08
-1.19285e-09
-7.18405e-10
1.30353e-08
-1.29285e-09
-1.13851e-09
1.03367e-08
-5.43228e-10
-1.50612e-09
9.63833e-09
-1.03782e-10
-1.86397e-09
9.16571e-09
-9.2321e-12
-2.23266e-09
8.82999e-09
9.41254e-11
-2.48121e-09
8.40453e-09
6.23387e-11
-2.68823e-09
8.00331e-09
5.43271e-11
-2.81843e-09
7.59751e-09
4.14304e-11
-3.09462e-09
7.20056e-09
2.34065e-10
-4.10097e-09
6.56526e-09
9.65829e-10
-5.40848e-09
5.58248e-09
1.09506e-09
-6.07881e-09
4.75712e-09
8.84962e-10
-6.44778e-09
4.41996e-09
7.40824e-10
-6.66848e-09
3.95987e-09
8.73242e-10
-6.7045e-09
3.23962e-09
1.12032e-09
-6.5366e-09
2.52017e-09
1.31225e-09
-6.03191e-09
1.70553e-09
1.3955e-09
-5.1412e-09
1.18068e-09
1.19347e-09
-4.03361e-09
7.76516e-10
1.07032e-09
-2.74559e-09
7.08597e-10
6.05422e-10
-1.26641e-09
7.48501e-10
2.70054e-10
2.53059e-11
1.42004e-09
-4.06124e-11
9.76129e-10
1.82053e-09
-1.84424e-10
1.52015e-09
2.56176e-09
-1.25357e-10
1.56587e-09
3.95823e-09
2.56262e-10
8.07573e-10
6.25256e-09
6.68438e-10
1.16183e-08
5.5862e-10
-1.36311e-10
1.35274e-08
-4.02357e-10
-4.81672e-10
1.27422e-08
6.39034e-10
-7.20444e-10
1.13092e-08
-7.33203e-10
-1.06915e-09
1.029e-08
-3.02555e-10
-1.36538e-09
9.66602e-09
-2.03685e-10
-1.68421e-09
9.20025e-09
-5.10582e-11
-1.84885e-09
8.63123e-09
-6.17095e-11
-1.92527e-09
8.07449e-09
5.55534e-12
-1.97625e-09
7.66638e-09
-1.75939e-11
-2.08944e-09
7.23018e-09
8.38402e-11
-2.85708e-09
6.51541e-09
8.17721e-10
-4.41791e-09
5.46471e-09
1.67878e-09
-5.15648e-09
4.60638e-09
8.89462e-10
-5.37264e-09
3.81059e-09
8.25654e-10
-5.34226e-09
2.61065e-09
1.31894e-09
-5.16688e-09
1.20327e-09
1.86103e-09
-5.01751e-09
4.02847e-10
1.96801e-09
-4.76859e-09
-4.92537e-10
1.94917e-09
-4.25309e-09
-9.1052e-10
1.57573e-09
-3.55749e-09
-1.51256e-09
1.5935e-09
-2.67991e-09
-1.62979e-09
1.46082e-09
-1.44835e-09
-1.71446e-09
1.23141e-09
-1.87828e-10
-8.01899e-10
9.61439e-10
6.45818e-10
4.74582e-10
5.12334e-10
8.3494e-10
2.20075e-09
1.7195e-10
9.21039e-10
3.80707e-09
6.51739e-11
5.7811e-10
6.32166e-09
2.74061e-10
1.19626e-08
2.34289e-10
-3.12452e-10
1.35215e-08
3.18954e-10
-7.98568e-10
1.20798e-08
1.14915e-09
-9.66681e-10
1.11097e-08
3.68135e-10
-8.14545e-10
1.05693e-08
-4.30972e-10
-1.00654e-09
9.69153e-09
1.66882e-10
-1.2195e-09
8.91377e-09
4.99821e-10
-1.33472e-09
8.22162e-09
5.25165e-10
-1.38521e-09
7.93832e-09
1.86981e-10
-1.44816e-09
7.55267e-09
1.76956e-10
-1.45671e-09
7.03855e-09
2.00438e-10
-1.91135e-09
6.18172e-09
7.88549e-10
-3.04655e-09
5.04666e-09
1.55341e-09
-3.38257e-09
4.07839e-09
8.64138e-10
-2.90076e-09
2.66393e-09
6.64935e-10
-2.32756e-09
1.05601e-09
9.81481e-10
-2.30566e-09
5.18089e-11
1.12958e-09
-2.82035e-09
-5.94532e-10
1.51207e-09
-3.39933e-09
-1.49265e-09
1.57909e-09
-3.62683e-09
-1.66737e-09
9.84351e-10
-3.39074e-09
-2.5156e-09
7.66955e-10
-2.89937e-09
-2.73206e-09
6.10899e-10
-2.1019e-09
-3.02279e-09
5.10851e-10
-9.98639e-10
-2.84208e-09
9.36909e-10
1.68876e-10
-1.53526e-09
8.42324e-10
5.29071e-10
1.38577e-09
4.54838e-10
5.21503e-10
3.63291e-09
1.81834e-10
3.09152e-10
6.29667e-09
2.37571e-10
1.20278e-08
2.44503e-10
-3.60354e-10
1.34858e-08
3.96644e-10
-8.73334e-10
1.18575e-08
7.35887e-10
-1.19642e-09
1.06933e-08
7.39986e-10
-1.52899e-09
1.02603e-08
6.42037e-10
-1.81536e-09
9.2865e-09
6.91808e-10
-1.91786e-09
8.32988e-09
6.86739e-10
-1.63994e-09
7.66928e-09
2.74747e-10
-1.05526e-09
7.70691e-09
-3.52957e-10
-1.09111e-09
7.46751e-09
1.21295e-10
-1.07662e-09
7.02768e-09
-3.35659e-12
-1.16061e-09
6.04968e-09
2.16235e-10
-1.57686e-09
4.70465e-09
7.58396e-10
-1.39846e-09
3.41753e-09
4.82555e-10
-7.70282e-10
1.65143e-09
3.84367e-10
-3.9043e-10
2.78464e-10
3.97702e-10
-3.76106e-10
-4.42214e-10
4.79699e-10
-9.06738e-10
-1.2403e-09
1.17639e-09
-1.72698e-09
-2.207e-09
1.53458e-09
-2.58996e-09
-1.90456e-09
1.10017e-09
-2.79402e-09
-3.09058e-09
7.79032e-10
-2.7414e-09
-3.36591e-09
5.81229e-10
-2.28927e-09
-3.61306e-09
1.38138e-10
-1.69837e-09
-3.70919e-09
2.7621e-10
-7.45699e-10
-3.15344e-09
6.655e-10
3.00366e-10
-4.77699e-10
8.17418e-10
4.33616e-10
3.32911e-09
1.70653e-10
2.21157e-10
6.27025e-09
2.39098e-10
1.22127e-08
3.67906e-11
-3.4179e-10
1.34113e-08
4.16933e-10
-7.63428e-10
1.17821e-08
4.9763e-10
-1.116e-09
1.0408e-08
6.38371e-10
-1.39521e-09
9.76103e-09
7.78904e-10
-1.53761e-09
8.73005e-09
6.99244e-10
-1.50901e-09
7.71597e-09
5.85665e-10
-1.43876e-09
7.13396e-09
4.65371e-10
-1.40169e-09
7.1395e-09
5.30636e-10
-1.45715e-09
7.05861e-09
4.64647e-10
-1.19515e-09
6.60361e-09
1.62318e-10
-6.8921e-10
5.74809e-09
-2.04163e-10
-5.89885e-10
4.28516e-09
3.20296e-10
-3.12142e-10
2.81481e-09
3.2505e-10
3.9815e-11
9.4561e-10
3.53887e-10
2.46658e-10
-1.55457e-10
2.27081e-10
1.53901e-10
-7.65704e-10
4.16244e-10
-2.19033e-10
-1.75903e-09
8.91655e-10
-4.83845e-10
-2.76267e-09
8.20475e-10
-1.4625e-09
-1.92546e-09
9.9955e-10
-1.99201e-09
-3.33518e-09
7.74115e-10
-2.24773e-09
-3.83854e-09
7.28353e-10
-2.07741e-09
-4.02553e-09
2.42151e-10
-1.72495e-09
-4.19989e-09
1.38232e-10
-1.18221e-09
-4.00187e-09
3.05675e-10
-5.1346e-11
-2.54907e-09
9.40494e-10
4.18917e-10
2.65339e-09
2.05547e-10
1.14354e-10
6.20077e-09
3.74265e-10
1.22257e-08
1.01845e-10
-3.08606e-10
1.33928e-08
3.27642e-10
-6.14935e-10
1.17762e-08
3.12806e-10
-8.56535e-10
1.03299e-08
3.20128e-10
-9.98435e-10
9.4996e-09
4.03779e-10
-9.7317e-10
8.41432e-09
2.90838e-10
-8.53245e-10
7.38928e-09
2.07094e-10
-8.55709e-10
6.86303e-09
2.7369e-10
-9.34562e-10
6.78597e-09
4.32664e-10
-1.10553e-09
6.87515e-09
3.54694e-10
-8.03668e-10
5.8044e-09
4.97567e-10
-3.21241e-10
5.22249e-09
4.33392e-11
-9.70281e-11
3.66805e-09
3.92996e-10
1.53528e-10
2.0108e-09
5.53502e-10
2.92785e-10
5.95303e-10
2.11062e-10
4.91106e-10
-3.30909e-10
-2.28692e-11
5.24748e-10
-5.04775e-10
-2.94575e-10
2.50331e-10
-1.61064e-09
1.26023e-10
4.0561e-10
-2.00915e-09
-9.08794e-10
-6.27337e-10
-1.59799e-09
7.05463e-10
-1.29574e-09
-3.07721e-09
4.10425e-10
-1.79196e-09
-3.99661e-09
6.54285e-10
-1.81025e-09
-4.22887e-09
2.21631e-10
-1.62093e-09
-4.4298e-09
4.0586e-11
-1.33304e-09
-4.41369e-09
1.23936e-10
-6.86909e-10
-3.70213e-09
5.06908e-10
2.95379e-10
8.9227e-10
7.78879e-10
5.62002e-11
6.08996e-09
3.50198e-10
1.22442e-08
3.8181e-11
-2.68664e-10
1.34262e-08
2.35833e-10
-4.89034e-10
1.17748e-08
2.22335e-10
-6.33267e-10
1.03262e-08
1.48417e-10
-6.89788e-10
9.4008e-09
1.55751e-10
-6.09043e-10
8.26334e-09
7.0614e-11
-5.06496e-10
7.25724e-09
2.98089e-11
-5.68948e-10
6.86121e-09
6.4566e-11
-8.43086e-10
6.88084e-09
1.79549e-10
-1.43262e-09
6.88858e-09
5.76384e-10
-9.52754e-10
4.83579e-09
4.88934e-10
-2.77453e-10
4.66192e-09
-1.1458e-10
1.93364e-10
3.44325e-09
-2.45925e-10
4.78307e-10
1.51491e-09
2.10994e-10
5.93638e-10
7.67851e-10
-2.87865e-10
6.82277e-10
-4.00278e-11
-3.79519e-10
1.05894e-09
-3.61081e-10
-5.20362e-10
1.16768e-09
-1.23113e-09
-4.88254e-10
3.75353e-10
-2.27127e-09
1.05444e-09
-2.25096e-10
-1.51824e-09
5.20692e-10
-8.90942e-10
-3.14579e-09
7.34421e-10
-1.44298e-09
-4.17803e-09
7.33458e-10
-1.56964e-09
-4.41848e-09
3.16274e-10
-1.48495e-09
-4.58048e-09
6.59862e-11
-1.33936e-09
-4.61314e-09
5.3856e-11
-1.08264e-09
-4.30246e-09
3.43601e-10
5.66843e-11
-1.46737e-09
1.22033e-09
6.00769e-11
5.86982e-09
2.16952e-10
1.23373e-08
-3.25302e-11
-2.32538e-10
1.34797e-08
1.79533e-10
-3.85504e-10
1.17983e-08
1.30093e-10
-4.55517e-10
1.03214e-08
7.53679e-11
-4.52734e-10
9.34879e-09
4.96569e-11
-3.71014e-10
8.15534e-09
2.66387e-11
-2.84025e-10
7.18995e-09
-1.93852e-11
-3.33695e-10
6.90271e-09
8.4647e-12
-9.2337e-10
7.11878e-09
3.52017e-10
-2.1212e-09
6.60446e-09
1.48223e-09
-9.2467e-10
4.42702e-09
-7.87595e-10
1.07695e-10
4.17769e-09
-5.48004e-10
6.03829e-10
3.5647e-09
-6.17488e-10
7.21495e-10
1.54455e-09
-1.47278e-10
6.75416e-10
9.94587e-10
-1.80639e-10
6.43383e-10
2.55065e-11
-3.34974e-11
8.1355e-10
-6.85977e-10
1.54725e-10
8.44435e-10
-1.50928e-09
2.47262e-10
4.81998e-10
-2.35571e-09
4.46879e-10
1.29117e-10
-1.8128e-09
6.47442e-10
-4.36827e-10
-3.07736e-09
4.97515e-10
-1.03392e-09
-4.31333e-09
7.32391e-10
-1.23916e-09
-4.49371e-09
2.80471e-10
-1.2084e-09
-4.65118e-09
3.99371e-11
-1.12689e-09
-4.70219e-09
7.54443e-12
-8.71361e-10
-4.51841e-09
-3.95828e-11
4.10415e-11
-2.31986e-09
-5.99198e-11
1.82568e-10
5.58623e-09
1.42255e-10
1.26254e-08
-1.04927e-10
-2.0226e-10
1.35515e-08
1.31025e-10
-3.15668e-10
1.18438e-08
6.84807e-11
-3.2914e-10
1.02962e-08
3.91206e-11
-2.97255e-10
9.31037e-09
6.96592e-12
-2.24509e-10
8.07394e-09
9.01108e-12
-1.61932e-10
7.12967e-09
-1.99006e-12
-2.4842e-10
6.96927e-09
2.02169e-11
-9.11459e-10
7.36691e-09
4.15202e-10
-1.66387e-09
6.47245e-09
8.84661e-10
-8.86104e-10
3.6865e-09
-3.70966e-11
-3.84068e-11
3.29013e-09
3.99781e-11
4.09492e-10
3.16757e-09
-5.06724e-11
4.90097e-10
1.53182e-09
-6.78347e-11
5.3154e-10
1.21047e-09
-2.57305e-10
6.05815e-10
-1.19685e-11
-3.67959e-11
8.725e-10
-8.50473e-10
-1.02195e-10
9.07163e-10
-1.56154e-09
1.75899e-11
6.77149e-10
-2.14402e-09
1.83167e-11
6.24493e-10
-1.72384e-09
-3.63067e-11
-5.6747e-11
-2.97014e-09
5.74016e-10
-7.08167e-10
-4.40722e-09
7.4531e-10
-9.53787e-10
-4.57321e-09
3.25118e-10
-9.42097e-10
-4.72351e-09
6.06422e-11
-8.5027e-10
-4.82655e-09
3.2533e-11
-6.05068e-10
-4.72549e-09
-3.81199e-11
3.11127e-11
-2.83371e-09
-1.22335e-10
2.08353e-10
5.28887e-09
1.20311e-10
1.27972e-08
3.70598e-11
-1.77762e-10
1.36319e-08
9.79869e-11
-2.58713e-10
1.18334e-08
9.1979e-11
-2.3388e-10
1.02476e-08
2.42744e-11
-1.80418e-10
9.26889e-09
-1.1557e-11
-9.57302e-11
8.00196e-09
-1.23461e-11
-9.95886e-11
7.10181e-09
3.20294e-11
-3.30561e-10
7.04877e-09
1.51775e-10
-9.62288e-10
7.5817e-09
4.17239e-10
-1.6442e-09
6.24093e-09
9.13675e-10
-1.03955e-09
2.90364e-09
1.78321e-10
-9.1565e-11
2.37485e-09
-3.26075e-11
3.60807e-10
2.7037e-09
1.15873e-11
5.26776e-10
1.42163e-09
-5.57338e-11
5.84874e-10
1.19314e-09
-4.07326e-11
8.55161e-10
-2.76997e-10
-5.25712e-12
1.03686e-09
-1.15739e-09
1.2522e-10
1.02588e-09
-1.59927e-09
4.8702e-11
9.06867e-10
-2.04307e-09
1.80718e-11
8.40872e-10
-1.6928e-09
3.49642e-11
1.34527e-10
-3.07854e-09
8.14748e-10
-4.53291e-10
-4.57905e-09
7.5965e-10
-6.94201e-10
-4.63584e-09
3.0354e-10
-7.17286e-10
-4.75178e-09
5.13561e-11
-6.77541e-10
-4.88139e-09
1.51024e-11
-4.49496e-10
-4.86748e-09
-8.60578e-11
-6.40121e-12
-3.26429e-09
-1.25318e-11
1.86243e-10
5.00364e-09
9.27605e-11
1.28145e-08
1.69459e-10
-1.69672e-10
1.37341e-08
6.79623e-11
-2.24707e-10
1.17657e-08
1.23315e-10
-1.81401e-10
1.0213e-08
-8.19665e-12
-1.11382e-10
9.22265e-09
-2.33541e-11
-2.31685e-11
7.95527e-09
-4.11787e-11
-1.35343e-10
7.14302e-09
7.12765e-11
-5.34497e-10
7.20052e-09
2.47704e-10
-1.17346e-09
7.73262e-09
4.88348e-10
-1.54367e-09
5.73548e-09
8.75888e-10
-8.12242e-10
2.20978e-09
-3.74848e-11
-6.01735e-11
1.81328e-09
-1.90433e-10
2.48536e-10
2.46221e-09
-6.71502e-11
4.5575e-10
1.28462e-09
-7.01737e-11
6.61331e-10
9.98359e-10
-1.07711e-11
1.05888e-09
-7.37135e-10
6.25819e-11
1.19641e-09
-1.38826e-09
9.33363e-11
1.11351e-09
-1.63863e-09
1.22264e-10
1.04184e-09
-1.97806e-09
6.65986e-12
9.65584e-10
-1.68055e-09
6.40052e-11
2.68441e-10
-3.25608e-09
8.74686e-10
-1.92864e-10
-4.63987e-09
5.22132e-10
-4.30724e-10
-4.6422e-09
2.44221e-10
-4.79562e-10
-4.72759e-09
2.46523e-11
-4.93075e-10
-4.89913e-09
3.12516e-11
-3.45808e-10
-4.92624e-09
-8.8502e-11
-6.64397e-11
-3.51789e-09
-2.57797e-11
1.58195e-10
4.73146e-09
4.77014e-11
1.27662e-08
2.07012e-10
-1.61943e-10
1.38455e-08
5.11571e-11
-2.09602e-10
1.17464e-08
6.74664e-11
-1.63083e-10
1.01935e-08
-2.65274e-11
-7.1735e-11
9.18778e-09
-5.60536e-11
-2.42774e-11
7.91705e-09
-8.88473e-12
-3.09942e-10
7.21563e-09
2.13363e-10
-9.15702e-10
7.49064e-09
3.15944e-10
-1.63699e-09
7.82533e-09
6.28887e-10
-1.73695e-09
4.60083e-09
1.23478e-09
-6.90676e-10
7.62068e-10
4.01497e-10
7.09366e-12
1.15645e-09
-4.08848e-11
1.23094e-10
2.29402e-09
5.22626e-11
4.92994e-10
9.40671e-10
-2.59157e-11
1.05617e-09
2.17575e-10
2.17631e-10
1.30889e-09
-1.2178e-09
2.27928e-10
1.29538e-09
-1.4468e-09
7.20581e-11
1.20331e-09
-1.5324e-09
-1.41706e-11
1.13419e-09
-1.89532e-09
-1.36246e-11
1.0037e-09
-1.59426e-09
4.41987e-11
3.45287e-10
-3.3116e-09
7.1393e-10
2.64009e-11
-4.53796e-09
2.16971e-10
-1.95053e-10
-4.53444e-09
1.13687e-10
-2.78033e-10
-4.61725e-09
-2.73674e-11
-3.53171e-10
-4.82817e-09
4.17793e-12
-2.72839e-10
-4.90973e-09
-9.6851e-11
-1.29868e-10
-3.67269e-09
1.18235e-11
1.17234e-10
4.50044e-09
-1.59308e-11
1.26775e-08
2.06412e-10
-1.66487e-10
1.39928e-08
1.97728e-11
-2.28267e-10
1.18059e-08
2.86127e-12
-1.83239e-10
1.02275e-08
-7.85654e-11
-1.2831e-10
9.19846e-09
-6.51887e-11
-2.07073e-10
7.99872e-09
-2.54957e-12
-8.27806e-10
7.60167e-09
2.35012e-10
-1.7823e-09
8.07759e-09
3.67877e-10
-2.26534e-09
7.39254e-09
9.16123e-10
-1.13329e-09
1.45264e-09
2.01623e-09
-6.03965e-10
-4.29185e-10
6.61948e-10
2.96325e-11
3.07274e-10
2.156e-10
2.00179e-10
1.81417e-09
3.09361e-10
8.75789e-10
1.41689e-10
1.23391e-10
1.2228e-09
-6.95957e-10
5.66526e-10
1.35629e-09
-1.466e-09
1.14715e-10
1.26744e-09
-1.64674e-09
2.88793e-10
1.07995e-09
-1.77073e-09
4.25822e-10
1.13128e-09
-1.95658e-09
9.9337e-12
8.33645e-10
-1.74354e-09
4.46903e-10
3.84398e-10
-3.17026e-09
3.07905e-10
2.28832e-10
-4.26262e-09
-1.19774e-10
3.56382e-11
-4.30185e-09
-3.93933e-11
-8.51715e-11
-4.42145e-09
-7.49876e-11
-2.09909e-10
-4.6855e-09
-1.79322e-11
-2.14643e-10
-4.81114e-09
-9.38525e-11
-1.64293e-10
-3.70941e-09
-1.36321e-11
9.29758e-11
4.33232e-09
-8.90016e-11
1.26516e-08
1.19459e-10
-1.70287e-10
1.41554e-08
8.30109e-12
-2.47661e-10
1.18394e-08
4.4509e-11
-2.29207e-10
1.02883e-08
-7.88022e-11
-2.34039e-10
9.23897e-09
-3.52509e-11
-5.2966e-10
8.24607e-09
4.86301e-11
-1.30669e-09
8.1913e-09
1.87755e-10
-2.17442e-09
8.59217e-09
3.53508e-10
-1.78281e-09
5.91379e-09
1.08739e-09
-1.2552e-09
-6.87432e-10
1.61248e-09
-1.02038e-09
-7.48572e-10
8.45661e-11
-5.8234e-10
-5.27328e-10
3.96572e-10
5.27406e-10
5.94759e-10
1.097e-10
9.88528e-10
-6.66185e-10
3.46755e-10
1.23683e-09
-8.23048e-10
-1.21209e-10
8.90309e-10
-1.48432e-09
3.64837e-10
1.09701e-09
-1.4406e-09
-4.12837e-10
1.29634e-09
-1.6988e-09
-2.71261e-10
1.02612e-09
-2.04902e-09
3.62656e-10
1.09085e-09
-1.71535e-09
-9.29174e-11
6.00918e-10
-2.9335e-09
2.5317e-10
4.19295e-10
-3.90265e-09
-1.78348e-10
2.03421e-10
-3.99969e-09
-8.62894e-11
7.19899e-11
-4.17375e-09
-1.16269e-10
-7.7528e-11
-4.49303e-09
-4.29591e-11
-1.34619e-10
-4.67233e-09
-8.17216e-11
-1.35024e-10
-3.67381e-09
-3.52081e-11
8.40317e-11
4.23698e-09
-1.23579e-10
1.2688e-08
4.8154e-11
-1.85529e-10
1.43364e-08
5.04745e-12
-2.63999e-10
1.18871e-08
3.13241e-11
-2.91788e-10
1.03809e-08
-6.43184e-11
-4.04711e-10
9.37309e-09
-2.07622e-11
-8.72358e-10
8.66552e-09
4.85811e-11
-1.48131e-09
8.77812e-09
2.24984e-11
-1.8701e-09
8.77986e-09
2.01473e-10
-9.89614e-10
4.02905e-09
1.00438e-09
-1.09834e-09
-1.66765e-09
1.08894e-09
-9.19123e-10
-1.06662e-09
1.38835e-10
-4.82243e-10
-1.11332e-09
1.49115e-10
3.07455e-10
-3.73005e-10
1.78074e-10
6.11545e-10
-1.10619e-09
1.3592e-10
7.38224e-10
-9.67679e-10
1.79512e-11
8.29558e-10
-1.6038e-09
2.81413e-11
8.52265e-10
-1.53856e-09
7.52529e-11
9.63598e-10
-1.74784e-09
-6.22924e-11
1.24519e-09
-2.3122e-09
-1.84153e-11
1.17985e-09
-2.04883e-09
3.98814e-10
6.49756e-10
-2.70046e-09
2.97066e-10
5.46009e-10
-3.51968e-09
-2.79219e-10
3.33638e-10
-3.6727e-09
-1.14611e-10
2.06102e-10
-3.90446e-09
-1.4175e-10
4.00035e-11
-4.28399e-09
-4.29395e-11
-5.25337e-11
-4.51329e-09
-6.65028e-11
-8.30119e-11
-3.58151e-09
-6.18175e-11
7.61634e-11
4.18383e-09
-1.05896e-10
1.2771e-08
-6.38749e-12
-1.98263e-10
1.45726e-08
-3.7264e-11
-3.18204e-10
1.20402e-08
-3.25634e-11
-4.20152e-10
1.05223e-08
-3.89512e-11
-6.99406e-10
9.63807e-09
1.47172e-11
-1.21611e-09
9.21091e-09
-2.82835e-11
-1.61505e-09
9.33973e-09
-1.62266e-10
-1.2115e-09
8.48709e-09
-1.10432e-10
-2.27881e-10
1.54969e-09
1.4958e-09
-7.46511e-10
-1.82468e-09
6.75655e-10
-6.52651e-10
-1.48897e-09
3.28492e-10
-2.2115e-10
-1.5328e-09
-1.20236e-11
6.94281e-11
-9.91785e-10
3.28202e-10
3.22163e-10
-1.39586e-09
3.69314e-11
2.87373e-10
-1.28495e-09
3.52059e-10
7.00956e-10
-1.73465e-09
-2.82733e-10
6.57022e-10
-1.82372e-09
3.29088e-10
6.59402e-10
-2.15629e-09
4.06077e-10
1.50854e-09
-2.65718e-09
-5.04157e-10
1.66835e-09
-2.8601e-09
6.51462e-10
8.10713e-10
-2.94959e-09
1.10676e-09
6.30613e-10
-3.22306e-09
-1.16518e-10
4.0678e-10
-3.42954e-09
-1.93292e-11
2.86309e-10
-3.66908e-09
-1.14911e-10
1.23794e-10
-4.08781e-09
-3.36645e-11
3.54807e-11
-4.35e-09
-7.4975e-11
-7.75895e-12
-3.44326e-09
-9.50081e-11
7.72497e-11
4.14763e-09
-4.86694e-11
1.28992e-08
-5.04565e-11
-1.97027e-10
1.48078e-08
-3.75325e-11
-3.57578e-10
1.22411e-08
-3.97544e-11
-5.18176e-10
1.07479e-08
-6.44536e-11
-9.21814e-10
1.00854e-08
-4.32263e-11
-1.49963e-09
9.83504e-09
-4.58784e-11
-1.81301e-09
9.86683e-09
-2.13277e-10
-9.73686e-10
7.70199e-09
-5.39187e-11
-6.06629e-10
3.41222e-10
8.41424e-10
-1.16125e-09
-1.2872e-09
1.71448e-11
-5.07315e-10
-1.37307e-09
-7.69841e-10
-2.29823e-10
-1.37133e-09
-4.38965e-10
7.47597e-11
-7.91093e-10
-5.05274e-10
6.87005e-11
-1.14066e-09
-2.49138e-10
1.70007e-10
-9.02867e-10
-4.83387e-10
6.37375e-11
-1.37133e-09
-2.57047e-10
3.16349e-10
-1.37638e-09
-6.9995e-10
7.78725e-10
-1.83388e-09
-7.8479e-10
1.40613e-09
-2.52183e-09
-7.62758e-10
2.44394e-09
-2.896e-09
-1.00191e-09
1.12935e-09
-3.26723e-09
1.63222e-09
8.48959e-10
-2.90821e-09
-3.44615e-11
5.36092e-10
-3.10128e-09
-1.5395e-11
3.84787e-10
-3.42804e-09
-8.9736e-11
2.0888e-10
-3.88058e-09
-3.13207e-11
1.20437e-10
-4.16501e-09
-9.65485e-11
6.79466e-11
-3.26251e-09
-1.2826e-10
7.72902e-11
4.12336e-09
1.50592e-11
1.30536e-08
-7.65618e-11
-2.14426e-10
1.50991e-08
-7.62883e-11
-4.25727e-10
1.24601e-08
-7.06558e-12
-6.98575e-10
1.10775e-08
-5.61833e-11
-1.18804e-09
1.06075e-08
-3.21258e-11
-1.66419e-09
1.03831e-08
-7.13906e-11
-1.86837e-09
1.01601e-08
-8.85945e-11
-9.19247e-10
6.74014e-09
1.29723e-11
-8.15473e-10
7.66198e-11
1.60829e-10
-1.3942e-09
-4.24733e-10
-2.83746e-10
-5.80132e-10
-1.2738e-10
-2.05975e-09
-2.11306e-10
-1.0325e-10
-1.6369e-09
-7.84771e-11
2.37659e-10
-1.16158e-09
-6.27312e-11
9.31308e-11
-1.24954e-09
-7.01995e-11
2.27513e-10
-1.12291e-09
-1.50705e-10
1.13343e-10
-1.40417e-09
4.57165e-11
1.2427e-10
-1.69707e-09
4.97873e-10
4.25869e-11
-2.32862e-09
1.21464e-09
-3.79256e-10
-2.85933e-09
2.65293e-09
-5.34236e-10
-3.80006e-09
1.47749e-09
-1.77809e-09
-3.13691e-10
9.89143e-10
-2.07196e-09
-3.47905e-10
6.1123e-10
-2.57818e-09
-1.45186e-10
4.23762e-10
-3.1412e-09
-9.93761e-11
2.63096e-10
-3.67082e-09
-4.90953e-11
1.94277e-10
-3.93628e-09
-1.59905e-10
1.54303e-10
-3.08136e-09
-1.41185e-10
7.81936e-11
4.11046e-09
8.91381e-11
1.32166e-08
-8.42252e-11
-2.09922e-10
1.53561e-08
-4.6359e-11
-4.35333e-10
1.2703e-08
-1.686e-11
-7.52974e-10
1.14514e-08
-5.57736e-11
-1.19578e-09
1.10993e-08
-4.8433e-11
-1.44458e-09
1.07657e-08
-1.33308e-10
-1.39805e-09
1.00778e-08
3.61943e-11
-3.06822e-10
5.35969e-09
2.89396e-10
2.93529e-10
-5.59745e-10
3.60141e-11
5.11902e-10
-1.01953e-09
3.76428e-10
2.12665e-10
-7.99101e-10
9.70958e-10
5.94325e-11
-7.06516e-10
7.56498e-10
3.494e-11
-5.73306e-10
8.35457e-10
1.65525e-11
-5.90124e-10
7.01642e-10
4.71876e-12
-5.21614e-10
7.60961e-10
-2.05858e-11
-5.02151e-10
6.40798e-10
4.11608e-11
-4.92422e-10
5.54945e-10
2.48508e-10
-4.3808e-10
2.7332e-10
3.77242e-10
-7.68859e-10
2.60869e-10
4.43556e-10
-9.0948e-10
3.0893e-10
3.25719e-10
-1.78136e-09
1.211e-10
4.01927e-10
-2.01179e-09
-1.3637e-10
3.58952e-10
-2.4625e-09
-7.27039e-11
3.04363e-10
-3.02867e-09
-5.79387e-11
2.33149e-10
-3.56859e-09
-3.10154e-11
2.1348e-10
-3.58362e-09
-3.32992e-10
1.96629e-10
-2.9e-09
-1.64504e-10
6.91141e-11
4.10385e-09
1.34251e-10
1.33731e-08
-8.68554e-11
-2.21842e-10
1.56411e-08
-6.24847e-11
-4.91794e-10
1.30613e-08
-8.77598e-11
-8.38131e-10
1.18873e-08
-8.89702e-11
-1.22965e-09
1.15724e-08
-8.11034e-11
-1.36122e-09
1.11431e-08
-2.45353e-10
-1.12796e-09
9.71109e-09
1.3387e-10
-8.58819e-11
3.20807e-09
1.10965e-09
7.1579e-12
-8.30483e-10
1.77698e-10
-6.60225e-11
-1.10115e-09
1.54797e-10
-2.41581e-11
-8.66294e-10
2.53286e-11
-2.23829e-12
-6.84794e-10
-4.36417e-11
2.73707e-11
-5.46168e-10
-5.67464e-11
1.11944e-11
-4.95599e-10
-7.83489e-11
8.83681e-12
-4.48876e-10
-7.03808e-11
2.48423e-11
-4.49096e-10
-6.90604e-11
9.61273e-11
-5.33525e-10
-3.0182e-11
3.06019e-10
-5.96308e-10
-5.16637e-11
4.27628e-10
-8.55584e-10
-3.48845e-11
6.78444e-10
-1.05146e-09
-1.08834e-10
5.02685e-10
-1.53389e-09
-7.17119e-11
4.26671e-10
-1.83933e-09
-9.64532e-11
3.41182e-10
-2.32156e-09
-5.54546e-11
2.95612e-10
-2.9174e-09
-6.57008e-11
2.50954e-10
-3.47415e-09
-4.97852e-11
2.36761e-10
-3.06126e-09
-5.08169e-10
2.36365e-10
-2.73294e-09
-1.66664e-10
6.93897e-11
4.1059e-09
1.65042e-10
1.35113e-08
-6.82667e-11
-2.19481e-10
1.58944e-08
-3.31841e-11
-4.99581e-10
1.34414e-08
-9.93245e-11
-8.22178e-10
1.23352e-08
-1.24725e-10
-1.18319e-09
1.19991e-08
-6.50601e-11
-1.40486e-09
1.13714e-08
-6.09886e-12
-8.82223e-10
8.74685e-09
4.41975e-10
1.75776e-10
8.25544e-10
1.32456e-09
1.27873e-10
-1.25179e-09
4.69215e-10
1.90381e-10
-1.12744e-09
-3.62175e-11
1.51414e-10
-8.72622e-10
4.52943e-11
1.27956e-10
-6.93933e-10
3.25966e-11
9.89911e-11
-5.73434e-10
5.62308e-11
5.73851e-11
-5.1928e-10
6.52869e-11
2.71527e-11
-4.80902e-10
6.22587e-11
5.20277e-12
-4.75699e-10
4.85534e-11
4.10069e-11
-5.75272e-10
5.94282e-12
1.22776e-10
-6.71281e-10
-6.79592e-12
1.76672e-10
-9.10272e-10
7.92006e-13
2.58284e-10
-1.09734e-09
-3.5738e-11
2.29563e-10
-1.47178e-09
-3.3382e-11
2.28966e-10
-1.78362e-09
-5.51078e-11
2.10213e-10
-2.24734e-09
-5.54639e-11
2.18116e-10
-2.85175e-09
-7.35496e-11
2.18312e-10
-3.4227e-09
-5.16415e-11
2.15933e-10
-2.70617e-09
-3.52712e-10
2.30422e-10
-2.61136e-09
-1.36068e-10
5.22492e-11
4.12082e-09
1.63368e-10
1.36244e-08
-6.03041e-11
-2.34544e-10
1.61656e-08
-3.59632e-11
-5.18904e-10
1.38254e-08
-9.89231e-11
-8.44368e-10
1.277e-08
-1.08649e-10
-1.19214e-09
1.23621e-08
-1.47032e-11
-1.46797e-09
1.13508e-08
2.96973e-10
-6.19468e-10
7.41361e-09
4.8504e-10
-6.99323e-11
-3.77762e-10
6.53775e-10
-4.09545e-12
-1.44731e-09
1.29676e-10
9.32522e-11
-9.82352e-10
-2.42435e-10
7.60714e-11
-7.35423e-10
-1.20018e-10
7.66468e-11
-5.54808e-10
-1.39701e-10
6.42992e-11
-4.59877e-10
-1.0121e-10
4.29121e-11
-4.10901e-10
-8.6992e-11
3.99187e-11
-3.84268e-10
-9.36406e-11
4.30168e-11
-3.97194e-10
-8.16038e-11
1.00977e-10
-4.86371e-10
-1.46861e-10
1.52223e-10
-6.46747e-10
-7.57799e-11
1.70579e-10
-8.74758e-10
-5.387e-11
2.13717e-10
-1.07078e-09
-6.96906e-11
1.83497e-10
-1.39251e-09
-4.90482e-11
1.71062e-10
-1.73066e-09
-4.05323e-11
1.56296e-10
-2.18217e-09
-5.04067e-11
1.72721e-10
-2.77087e-09
-9.73095e-11
1.95535e-10
-3.34638e-09
-9.9139e-11
1.98968e-10
-2.52768e-09
-1.81919e-10
2.10631e-10
-2.51041e-09
-1.12612e-10
4.12166e-11
4.13717e-09
1.53169e-10
1.37155e-08
-4.92798e-11
-2.2386e-10
1.63866e-08
3.67198e-12
-4.77443e-10
1.41312e-08
-5.14471e-11
-7.55471e-10
1.31276e-08
-7.89623e-11
-1.08845e-09
1.26876e-08
8.17934e-12
-1.37672e-09
1.11801e-08
4.5945e-10
-5.82853e-10
5.82335e-09
7.96609e-10
-2.1845e-10
-8.71108e-10
1.28942e-10
-2.5906e-12
-1.42108e-09
-2.42088e-10
1.18102e-10
-9.53083e-10
-1.49961e-10
1.07139e-10
-6.72714e-10
-5.17466e-11
1.05622e-10
-5.05904e-10
-4.73866e-11
8.27164e-11
-4.28589e-10
-8.38255e-12
4.77508e-11
-3.95908e-10
1.99731e-11
2.40436e-11
-3.77345e-10
1.67833e-11
5.47292e-12
-3.99239e-10
2.06164e-11
3.19084e-11
-4.8187e-10
-3.09364e-11
5.61855e-11
-6.63101e-10
-7.92302e-12
7.44353e-11
-8.69083e-10
-2.3925e-11
9.64241e-11
-1.06403e-09
-2.87413e-11
8.52512e-11
-1.34748e-09
-3.38576e-11
8.325e-11
-1.66463e-09
-6.40233e-11
8.71812e-11
-2.07741e-09
-1.08685e-10
1.14883e-10
-2.60826e-09
-1.90306e-10
1.53258e-10
-3.15864e-09
-2.26116e-10
1.5375e-10
-2.41205e-09
-1.1612e-10
1.69221e-10
-2.38235e-09
-1.43537e-10
3.12015e-11
4.13703e-09
1.38265e-10
1.38081e-08
-6.07979e-11
-2.37057e-10
1.65663e-08
5.80108e-11
-4.8766e-10
1.43723e-08
1.01869e-11
-7.93675e-10
1.34349e-08
-5.7187e-13
-1.13756e-09
1.29234e-08
1.08714e-10
-1.41133e-09
1.08539e-08
6.0046e-10
-5.1235e-10
3.87941e-09
1.04508e-09
-1.88289e-10
-9.25709e-10
-2.6946e-10
1.07997e-11
-1.12395e-09
-4.96217e-10
6.29298e-11
-8.09698e-10
-1.95516e-10
5.2152e-11
-5.58155e-10
-1.03781e-10
4.82881e-11
-4.16881e-10
-8.51592e-11
3.74683e-11
-3.64136e-10
-5.36334e-11
2.27839e-11
-3.39277e-10
-4.19466e-11
1.8164e-11
-3.28515e-10
-4.42098e-11
1.5111e-11
-3.53741e-10
-4.24451e-11
2.90336e-11
-4.38721e-10
-5.70713e-11
3.36667e-11
-6.17005e-10
-5.07292e-11
3.36645e-11
-8.0786e-10
-6.12205e-11
4.0936e-11
-9.93866e-10
-7.74366e-11
4.28696e-11
-1.2485e-09
-1.00913e-10
5.02548e-11
-1.53851e-09
-1.33512e-10
5.39004e-11
-1.89955e-09
-1.81507e-10
6.39477e-11
-2.32018e-09
-2.98126e-10
7.81965e-11
-2.80868e-09
-3.64203e-10
1.09664e-10
-2.61302e-09
1.69504e-10
1.03466e-10
-2.20136e-09
-1.74792e-10
2.38521e-11
4.04333e-09
1.73418e-10
1.38221e-08
1.03743e-11
-2.0573e-10
-1.44957e-10
-3.87926e-10
-1.22358e-10
-6.02252e-10
-4.67281e-11
-8.06254e-10
9.36092e-11
-1.00135e-09
5.43828e-10
-4.10599e-10
4.41698e-10
-1.51394e-10
-1.21127e-10
-3.24834e-11
-1.52524e-10
6.00994e-12
-6.86649e-11
1.73536e-11
-3.34056e-11
1.93259e-11
-1.90954e-11
1.19529e-11
1.87848e-13
4.68773e-12
1.83016e-12
-1.98797e-12
2.54908e-12
-7.29674e-12
-7.98041e-13
-3.87635e-12
-1.18893e-11
-8.82413e-13
-2.30409e-11
2.51318e-12
-4.10057e-11
4.95196e-12
-5.55017e-11
5.70949e-12
-7.57291e-11
9.6102e-12
-1.03907e-10
1.58899e-11
-1.38273e-10
1.80997e-11
-2.07223e-10
2.64821e-11
-2.60426e-10
6.55229e-11
1.6919e-10
6.49201e-11
-1.20997e-10
2.87361e-11
1.27e-10
4.14001e-11
-1.80266e-09
7.02296e-09
-7.34081e-09
-3.43904e-09
6.12129e-09
-7.6927e-09
-4.1675e-09
5.13053e-09
-7.24197e-09
-5.08059e-09
4.89137e-09
-6.62896e-09
-5.83125e-09
4.61757e-09
-6.55092e-09
-6.5478e-09
4.38194e-09
-6.28831e-09
-7.22262e-09
4.16061e-09
-6.15276e-09
-7.84621e-09
3.91886e-09
-5.93874e-09
-8.4433e-09
3.79478e-09
-5.83716e-09
-8.99121e-09
3.73664e-09
-5.82423e-09
-9.49128e-09
3.7766e-09
-5.98397e-09
-9.90291e-09
3.84634e-09
-6.26089e-09
-1.02135e-08
3.94005e-09
-6.50694e-09
-1.03543e-08
4.05136e-09
-6.99525e-09
-1.03031e-08
4.17117e-09
-7.54405e-09
-9.98322e-09
4.30164e-09
-8.29371e-09
-9.34344e-09
4.40737e-09
-9.07661e-09
-8.32442e-09
4.4598e-09
-9.93433e-09