/*--------------------------------*- C++ -*----------------------------------*\
| =========                 |                                                 |
| \\      /  F ield         | OpenFOAM: The Open Source CFD Toolbox           |
|  \\    /   O peration     | Version:  2.3.0                                 |
|   \\  /    A nd           | Web:      www.OpenFOAM.org                      |
|    \\/     M anipulation  |                                                 |
\*---------------------------------------------------------------------------*/
FoamFile
{
    version     2.0;
    format      ascii;
    class       volScalarField;
    location    "3.19937";
    object      rhom;
}
// * * * * * * * * * * * * * * * * * * * * * * * * * * * * * * * * * * * * * //

dimensions      [1 -3 0 0 0 0 0];

internalField   nonuniform List<scalar> 
18816
(
793.489
778.369
783.491
783.686
785.802
786.292
787.27
787.317
787.562
789.013
791.213
793.28
795.219
799.12
803.357
808.518
814.211
820.871
827.926
834.955
840.014
842.9
837.865
837.924
831.537
817.262
799.385
792.883
800.395
792.207
796.862
796.787
798.697
798.826
798.552
798.944
801.386
804.173
805.996
807.451
817.293
825.2
834.63
845.113
856.409
867.428
876.027
881.064
882.784
879.524
873.268
872.785
863.661
844.637
815.715
801.656
800.732
811.17
810.395
812.298
814.093
813.549
813.221
814.618
818.733
821.852
825.233
824.814
831.464
843.788
855.118
865.815
874.331
880.043
883.171
884.715
885.53
885.841
883.915
886.536
878.83
860.67
828.113
806.985
801.353
807.934
814.959
814.038
815.102
814.571
814.71
818.386
822.15
826.251
833.493
842.441
846.859
857.9
868.224
876.29
881.765
885.045
886.8
887.837
888.622
889.413
890.07
899.392
892.427
872.563
836.108
809.469
802.735
778.953
808.725
815.289
816.17
815.87
816.626
819.101
823.196
828.699
840.248
854.262
861.103
873.422
889.265
907.17
926.767
945.967
956.399
960.61
948.564
932.495
908.031
902.595
896.731
880.088
842.701
811.121
804.026
778.764
795.067
808.948
811.601
812.242
814.313
820.353
825.174
832.392
845.705
863.812
876.871
901.573
941.095
982.369
1006.12
1016.8
1021.31
1022.86
1018.95
1007.27
974.829
922.49
899.474
883.983
846.354
811.966
804.723
778.775
787.649
797.54
802.586
804.642
808.123
818.301
823.153
831.566
849.812
871.469
893.126
930.971
972.435
984.77
998.306
1011.19
1018.13
1026.03
1026.94
1025.26
1015.05
972.264
898.708
885.238
849.376
812.579
805.168
778.786
786.239
790.648
796.953
800.14
805.041
813.277
818.674
828.848
853.471
877.035
904.854
947.919
964.353
971.36
997.158
1012.8
1005.1
1024.15
1027.11
1027.04
1025.62
1010.26
947.275
888.007
850.961
812.939
805.382
778.793
785.249
789.132
795.913
799.783
804.435
810.097
816.169
829.156
854.944
879.432
911.346
951.79
951.42
958.572
990.166
1019.34
1001.15
1022.97
1027.11
1027.11
1027.01
1023.74
987.172
884.691
851.584
813.115
805.61
778.974
784.505
789.188
796.04
799.922
804.658
810.232
816.319
831.469
856.684
880.835
910.558
945.885
943.77
952.849
984.761
1019.39
1002.54
1022.93
1027.11
1027.11
1027.11
1026.69
1013.28
921.808
851.818
813.33
805.655
779.404
784.208
789.356
796.116
800.144
804.609
810.536
817.4
841.846
857.353
879.12
904.331
932.397
932.525
951.471
997.647
1024.42
1017.43
1025.03
1027.11
1027.11
1027.11
1027.1
1025.71
998.63
853.2
813.831
805.658
779.167
784.294
789.403
796.22
800.354
804.597
810.401
820.459
846.644
856.348
876.318
899.64
920.625
926.314
958.652
1006.26
1025.76
1025.37
1026.53
1027.11
1027.11
1027.11
1027.11
1026.49
1006.74
855.276
814.46
805.66
779.051
784.714
789.366
796.27
800.35
804.404
810.444
824.777
850.229
857.637
874.593
896.325
909.233
921.923
968.485
1014.32
1026.54
1026.86
1027.03
1027.11
1027.11
1027.11
1027.11
1026.73
1006.94
856.79
814.912
805.67
779.618
785.357
789.366
796.527
800.313
804.201
810.859
829.806
853.934
861.307
875.03
892.904
899.819
933.431
992.668
1022.73
1026.99
1027.07
1027.09
1027.11
1027.11
1027.11
1027.11
1026.91
1007.31
858.05
815.234
805.668
780.896
785.513
789.456
796.536
800.017
803.545
812.103
836.684
860.184
864.217
875.484
888.439
902.616
967.129
1015.36
1026.4
1027.08
1027.09
1027.1
1027.11
1027.11
1027.11
1027.11
1027.03
1011.34
858.75
815.394
805.663
780.684
785.499
789.667
796.604
799.772
803.568
817.056
874.854
944.991
890.501
876.255
898.015
955.437
1011.95
1025.98
1027.05
1027.07
1027.08
1027.09
1027.11
1027.11
1027.11
1027.11
1027.09
1016.06
859.348
815.453
805.663
780.487
785.157
789.81
796.568
799.316
804.583
846.528
992.409
1017.88
966.375
897.828
971.347
1016.59
1026.47
1027.05
1027.04
1027.05
1027.07
1027.1
1027.11
1027.11
1027.11
1027.11
1027.11
1021.16
860.214
815.454
805.664
781.39
784.908
790.156
796.419
798.943
809.134
890.655
1026.73
1026.97
1022.73
999.701
1023.72
1026.98
1027.06
1027.01
1027.01
1027.05
1027.08
1027.1
1027.11
1027.11
1027.11
1027.11
1027.11
1024.75
861.332
815.454
805.679
782.003
784.976
790.2
796.24
799.639
816.715
926.695
1026.93
1027.11
1027.1
1026.89
1027.1
1027.1
1027.01
1026.93
1027
1027.08
1027.1
1027.11
1027.11
1027.11
1027.11
1027.11
1027.11
1026.54
862.433
815.465
805.699
781.535
785.591
790.324
796.028
801.183
833.282
993.401
1027.09
1027.11
1027.11
1027.11
1027.11
1027.09
1026.97
1026.89
1027.04
1027.1
1027.11
1027.11
1027.11
1027.11
1027.11
1027.11
1027.11
1026.74
864.926
815.509
805.768
781.522
786.185
790.273
796.133
804.115
863.318
1025.95
1027.08
1027.11
1027.11
1027.11
1027.11
1027.08
1026.96
1026.9
1027.08
1027.11
1027.11
1027.11
1027.11
1027.11
1027.11
1027.11
1027.11
1026.81
869.906
815.6
805.944
782.552
786.378
790.103
796.562
807.966
886.31
1025.91
1026.99
1027.1
1027.11
1027.11
1027.11
1027.09
1027.05
1027.02
1027.09
1027.11
1027.11
1027.11
1027.11
1027.11
1027.11
1027.11
1027.11
1026.9
876.21
815.727
806.242
783.024
786.418
790.11
797.906
813.195
909.578
1026.51
1027.09
1027.11
1027.11
1027.11
1027.11
1027.11
1027.1
1027.11
1027.11
1027.11
1027.11
1027.11
1027.11
1027.11
1027.11
1027.11
1027.11
1026.96
883.516
815.896
806.586
782.049
786.265
790.139
798.869
822.384
954.036
1026.43
1027.11
1027.11
1027.11
1027.11
1027.11
1027.11
1027.11
1027.11
1027.11
1027.11
1027.11
1027.11
1027.11
1027.11
1027.11
1027.11
1027.11
1027.03
890.213
816.081
807.056
781.613
785.704
790.076
799.716
839.909
1015.01
1026.94
1027.11
1027.11
1027.11
1027.11
1027.11
1027.11
1027.11
1027.11
1027.11
1027.11
1027.11
1027.11
1027.11
1027.11
1027.11
1027.11
1027.11
1027.07
895.94
816.24
807.119
781.612
785.543
790.019
801.297
866.587
1024.12
1027.05
1027.11
1027.11
1027.11
1027.11
1027.11
1027.11
1027.11
1027.11
1027.11
1027.11
1027.11
1027.11
1027.11
1027.11
1027.11
1027.11
1027.11
1027.09
900.862
816.417
807.119
782.18
785.618
789.64
805.615
904.47
1022.6
1027.1
1027.11
1027.11
1027.11
1027.11
1027.11
1027.11
1027.11
1027.11
1027.11
1027.11
1027.11
1027.11
1027.11
1027.11
1027.11
1027.11
1027.11
1027.11
904.13
816.555
807.119
783.993
786.464
789.619
817.793
951.676
1022.56
1027.11
1027.11
1027.11
1027.11
1027.11
1027.11
1027.11
1027.11
1027.11
1027.11
1027.11
1027.11
1027.11
1027.11
1027.11
1027.11
1027.11
1027.11
1027.11
909.461
816.739
782.304
789.769
782.725
782.468
782.778
783.397
785.304
789.214
795.44
802.844
811.393
820.53
830.03
840.44
850.968
861.591
871.625
881.079
889.689
897.239
901.884
903.124
899.205
899.525
890.329
867.504
832.104
785.172
781.367
789.771
790.56
790.053
794.523
800.03
810.76
825.511
842.959
861.54
878.972
894.51
911.753
927.86
941.037
951.503
959.892
966.796
971.157
972.583
972.547
971.336
968.093
967.913
957.1
932.374
892.879
812.475
787.46
788.059
795.619
801.907
813.601
827.649
848.046
868.797
883.942
890.161
892.801
914.1
929.212
937.321
944.26
951.258
958.106
964.111
969.932
976.564
982.632
984.79
985.624
988.922
982.215
956.204
906.656
830.995
791.929
797.959
803.356
815.839
826.591
842.724
864.483
881.267
888.651
889.847
891.563
906.755
920.624
927.018
928.57
928.911
933.549
939.401
949.003
959.453
972.092
980.337
985.584
988.834
989.25
967.292
911.605
833.151
796.429
823.199
814.632
818.673
833.356
855.04
878.036
889.178
892.017
890.179
888.208
894.917
906.514
913.107
918.569
931.376
948.527
967.269
977.692
981.079
972.966
962.081
949.057
962.543
983.462
974.065
918.882
835.16
797.371
822.129
828.451
827.87
843.257
862.948
879.818
887.796
889.377
886.248
882.075
888.009
906.355
921.398
948.84
986.067
1008.41
1017.73
1022.25
1023.93
1021.49
1013.49
987.167
948.466
967.722
970.674
923.664
836.214
797.336
819.901
832.813
839.83
852.07
868.651
885.736
893.608
890.287
887.254
882.458
888.911
910.764
938.632
972.772
984.379
1000.06
1012.68
1017.8
1026.22
1027.03
1026.23
1019.57
987.337
933.528
962.779
923.741
837.954
797.234
817.497
830.909
838.998
850.768
866.902
883.431
890.643
888.428
887.872
885.321
893.263
918.015
949.757
962.361
972.398
998.902
1016.97
1007.69
1025.01
1027.11
1027.08
1026.32
1015.99
973.816
957.351
921.086
838.822
797.072
815.692
828.902
837.012
848.84
865.074
879.189
884.424
885.127
884.029
885.979
892.447
917.52
951.335
954.139
969.653
995.49
1020.2
1005.51
1024.5
1027.11
1027.11
1027.08
1025.48
1002.1
929.459
915.875
839.745
796.877
814.471
827.684
835.734
849.077
865.436
877.37
881.151
878.243
875.866
886.275
893.636
915.254
942.986
950.793
970.458
994.133
1020.39
1010.08
1024.76
1027.11
1027.11
1027.11
1026.94
1019.06
952.683
910.514
840.534
796.728
813.65
827.414
835.793
849.46
866.306
877.679
874.732
864.301
887.861
891.901
899.387
911.347
926.483
934.241
959.754
1003.44
1025.25
1021.86
1026.27
1027.11
1027.11
1027.11
1027.11
1026.85
1016.52
911.037
841.39
796.482
812.904
827.538
835.975
849.801
867.246
877.58
867.754
860.816
893.299
895.212
903.137
910.569
925.21
937.703
974.675
1013.26
1026.35
1026.68
1026.92
1027.11
1027.11
1027.11
1027.11
1027.02
1020.41
912.563
841.821
796.214
812.078
827.733
836.135
850.039
867.071
875.663
861.652
858.545
892.841
897.924
902.993
909.788
918.949
937.058
982.086
1018.49
1026.74
1027.04
1027.07
1027.11
1027.11
1027.11
1027.11
1027.05
1020.16
913.92
841.719
796.216
811.126
827.971
836.26
850.555
866.43
871.518
856.81
859.341
900.076
907.39
904.1
909.873
914.94
951.7
1002.79
1024.39
1027.01
1027.08
1027.09
1027.11
1027.11
1027.11
1027.11
1027.08
1020.15
915.134
841.474
796.216
809.987
828.056
836.574
850.571
863.939
865.617
850.566
861.073
898.69
907.253
903.317
908.398
920.742
980.531
1018.93
1026.63
1027.05
1027.07
1027.09
1027.11
1027.11
1027.11
1027.11
1027.1
1021.65
916.392
841.151
796.22
809.41
828.355
837.208
850.972
860.908
858.205
847.2
888.767
969.753
930.822
896.823
926.197
971.712
1016.12
1026.24
1027.02
1027.03
1027.06
1027.09
1027.11
1027.11
1027.11
1027.11
1027.11
1023.5
918.388
840.851
796.223
809.405
828.865
837.926
851.023
856.767
852.045
867.014
996.11
1021.29
982.092
915.001
985.553
1020.51
1026.7
1026.99
1026.98
1027.02
1027.06
1027.1
1027.11
1027.11
1027.11
1027.11
1027.11
1025.32
921.297
840.9
796.227
809.799
829.556
838.752
851.306
855.975
853.09
902.059
1026.78
1027.02
1024.26
1008.47
1025.01
1027.04
1027.03
1026.93
1026.96
1027.04
1027.09
1027.11
1027.11
1027.11
1027.11
1027.11
1027.11
1026.47
924.423
841.136
796.288
810.774
830.329
839.689
852.613
857.071
856.513
930.614
1026.92
1027.11
1027.1
1027
1027.11
1027.1
1026.97
1026.86
1026.98
1027.09
1027.11
1027.11
1027.11
1027.11
1027.11
1027.11
1027.11
1026.98
927.077
841.548
796.343
812.243
831.458
841.356
854.238
859.335
867.461
995.698
1027.09
1027.11
1027.11
1027.11
1027.11
1027.08
1026.95
1026.85
1027.04
1027.11
1027.11
1027.11
1027.11
1027.11
1027.11
1027.11
1027.11
1027
930.008
842.114
796.501
814.452
832.871
843.478
856.147
862.51
894.251
1026.54
1027.1
1027.11
1027.11
1027.11
1027.11
1027.08
1026.95
1026.91
1027.08
1027.11
1027.11
1027.11
1027.11
1027.11
1027.11
1027.11
1027.11
1027.02
933.337
842.762
796.596
816.848
834.359
845.687
858.252
865.692
909.24
1026.95
1027.06
1027.1
1027.11
1027.11
1027.11
1027.1
1027.06
1027.04
1027.1
1027.11
1027.11
1027.11
1027.11
1027.11
1027.11
1027.11
1027.11
1027.04
936.273
843.466
796.743
818.859
836.15
848.506
862.129
867.367
920.511
1026.98
1027.11
1027.11
1027.11
1027.11
1027.11
1027.11
1027.11
1027.11
1027.11
1027.11
1027.11
1027.11
1027.11
1027.11
1027.11
1027.11
1027.11
1027.06
939.007
844.121
796.869
820.226
838.265
851.356
863.541
868.967
956.636
1026.74
1027.11
1027.11
1027.11
1027.11
1027.11
1027.11
1027.11
1027.11
1027.11
1027.11
1027.11
1027.11
1027.11
1027.11
1027.11
1027.11
1027.11
1027.08
940.651
844.747
797.039
821.572
840.459
853.059
862.262
878.067
1019.5
1027.1
1027.11
1027.11
1027.11
1027.11
1027.11
1027.11
1027.11
1027.11
1027.11
1027.11
1027.11
1027.11
1027.11
1027.11
1027.11
1027.11
1027.11
1027.09
940.704
845.289
797.242
822.797
842.662
854.275
859.144
895.593
1026.24
1027.11
1027.11
1027.11
1027.11
1027.11
1027.11
1027.11
1027.11
1027.11
1027.11
1027.11
1027.11
1027.11
1027.11
1027.11
1027.11
1027.11
1027.11
1027.1
940.459
845.85
797.256
823.572
844.202
854.006
858.741
922.763
1026.17
1027.11
1027.11
1027.11
1027.11
1027.11
1027.11
1027.11
1027.11
1027.11
1027.11
1027.11
1027.11
1027.11
1027.11
1027.11
1027.11
1027.11
1027.11
1027.11
938.986
846.325
797.771
825.283
845.998
853.307
863.017
964.641
1026.64
1027.11
1027.11
1027.11
1027.11
1027.11
1027.11
1027.11
1027.11
1027.11
1027.11
1027.11
1027.11
1027.11
1027.11
1027.11
1027.11
1027.11
1027.11
1027.11
939.207
846.399
782.391
787.064
797.506
802.942
810.04
815.905
822.31
829.071
837.134
846.434
856.524
866.712
876.696
886.943
896.634
905.858
914.211
921.682
928.032
933.381
936.611
937.338
934.629
934.342
925.435
903.444
870.758
807.448
802.448
853.88
873.943
880.46
890.268
898.29
906.609
916.118
925.816
935.845
945.656
956.202
967.934
977.986
986.693
994.072
1000.35
1005.41
1009.08
1011.36
1012.37
1012.55
1011.91
1012.24
1007.52
989.21
954.824
868.633
833.526
891.037
916.776
934.182
946.138
955.56
964.628
972.17
977.273
979.635
980.44
983.807
989.768
994.922
998.871
1002.39
1005.48
1008.11
1010.01
1011.06
1011.53
1010.78
1010.04
1009.63
1009.07
1005.19
978.157
902.735
853.107
922.431
947.325
955.065
964.076
970.379
975.693
979.618
981.021
979.909
978.686
981.032
983.688
985.172
984.204
982.487
982.119
985.369
988.463
990.154
990.939
989.959
989.525
992.999
1000.25
1003.93
982.074
905.923
864.961
912.683
946.881
965.525
971.019
975.098
980.446
982.475
982.804
978.356
971.522
965.946
962.528
955.811
952.533
960.106
975.497
990.769
998.52
1000.54
996.041
988.583
974.766
967.866
983.613
1001.24
986.237
910.597
869.006
897.69
931.511
952.733
958.142
964.323
974.345
980.377
980.327
970.144
955.759
946.896
945.886
949.765
966.679
994.623
1011.51
1018.87
1023.39
1025.37
1025.09
1021.22
1006.09
977.915
970.516
996.158
987.252
913.46
868.617
886.98
914.445
930.655
938.54
950.993
967.613
976.297
972.264
960.261
947.192
941.37
939.684
955.54
976.33
986.088
1003.42
1014.22
1017.87
1026.52
1027.1
1026.9
1024.26
1005.96
966.25
991.016
986.322
916.847
867.449
879.853
901.057
911.181
922.554
940.208
959.641
966.035
959.619
950.533
947.24
943.617
938.558
956.288
963.85
979.568
1002.95
1014.77
1011
1025.98
1027.11
1027.11
1026.87
1022.36
999.899
989.521
983.125
918.923
866.276
875.461
893.273
901.465
914.361
936.344
952.815
954.779
950.799
939.831
944.307
938.169
932.158
950.98
965.566
985.139
1001.35
1012.65
1010.12
1025.9
1027.11
1027.11
1027.1
1026.43
1013.69
968.193
978.282
920.682
865.588
872.895
889.43
896.92
914.8
937.039
949.606
950.247
938.615
922.078
933.213
938.832
927.304
944.526
974.852
992.055
1000.64
1021.6
1017.48
1026.41
1027.11
1027.11
1027.11
1027.04
1023.09
987.114
974.087
921.984
865.122
871.499
887.797
896.718
915.666
938.48
950.405
940.623
918.659
934.976
935.07
943.814
941.444
950.591
981.322
1004.43
1020.97
1026.72
1024.78
1026.91
1027.11
1027.11
1027.11
1027.11
1027.08
1024.89
975.134
923.142
865.129
870.461
887.129
896.981
916.395
939.891
950.313
929.565
909.239
935.048
930.905
941.231
949.72
974.28
993.001
1015.33
1025.45
1027.05
1026.94
1027.06
1027.11
1027.11
1027.11
1027.11
1027.11
1026.12
977.41
923.68
865.187
869.081
887.235
897.47
917.1
939.623
948.033
918.649
901.261
930.215
931.453
936.855
951.474
968.371
992.956
1015.46
1025.86
1027.06
1027.07
1027.09
1027.11
1027.11
1027.11
1027.11
1027.11
1026
979.531
923.412
865.341
867.204
887.738
898.108
918.448
938.599
942.378
908
896.864
950.193
964.311
942.277
959.808
972.273
1000.39
1021.68
1026.76
1027.07
1027.08
1027.09
1027.11
1027.11
1027.11
1027.11
1027.11
1025.96
981.761
922.894
865.554
866.102
888.436
899.281
918.657
934.879
933.683
897.306
892.666
960.044
973.475
940.448
959.008
972.823
1009.3
1025.07
1027.01
1027.05
1027.07
1027.09
1027.11
1027.11
1027.11
1027.11
1027.11
1026.13
983.796
922.161
865.807
866.139
889.698
900.981
919.162
929.6
917.351
882.627
907.021
1004
990.57
926.678
978.906
1001.06
1023.15
1026.8
1027.02
1027.02
1027.05
1027.1
1027.11
1027.11
1027.11
1027.11
1027.11
1026.53
985.947
922.032
866.096
866.59
891.151
902.519
918.667
923.01
903.093
893.377
1001.63
1025.63
1009.54
963.128
1011.12
1025.37
1026.96
1026.98
1026.97
1027.01
1027.06
1027.1
1027.11
1027.11
1027.11
1027.11
1027.11
1026.84
988.236
922.251
866.273
868.257
892.722
904.035
917.21
917.392
898.692
915.531
1026.84
1027.09
1026.38
1022.82
1026.62
1027.09
1027.03
1026.89
1026.93
1027.05
1027.09
1027.11
1027.11
1027.11
1027.11
1027.11
1027.11
1027.02
990.293
922.688
866.656
871.19
894.17
905.066
917.804
914.268
901.386
934.611
1026.9
1027.11
1027.11
1027.1
1027.11
1027.1
1026.98
1026.85
1026.97
1027.09
1027.11
1027.11
1027.11
1027.11
1027.11
1027.11
1027.11
1027.09
991.975
923.256
866.996
874.614
896.287
907.022
918.816
914.8
909.555
1000.49
1027.1
1027.11
1027.11
1027.11
1027.11
1027.09
1026.96
1026.85
1027.05
1027.11
1027.11
1027.11
1027.11
1027.11
1027.11
1027.11
1027.11
1027.09
993.829
923.956
867.542
878.423
898.463
909.375
919.877
915.965
930.302
1026.84
1027.11
1027.11
1027.11
1027.11
1027.11
1027.09
1026.99
1026.95
1027.09
1027.11
1027.11
1027.11
1027.11
1027.11
1027.11
1027.11
1027.11
1027.09
994.512
924.698
867.948
882.114
900.454
912.114
921.527
917.801
942.792
1027.08
1027.1
1027.1
1027.11
1027.11
1027.11
1027.1
1027.07
1027.07
1027.1
1027.11
1027.11
1027.11
1027.11
1027.11
1027.11
1027.11
1027.11
1027.1
994.367
925.488
868.506
885.264
902.814
915.545
924.729
917.815
940.8
1027.1
1027.11
1027.11
1027.11
1027.11
1027.11
1027.11
1027.11
1027.11
1027.11
1027.11
1027.11
1027.11
1027.11
1027.11
1027.11
1027.11
1027.11
1027.1
993.879
926.212
869.018
887.509
905.845
919.156
923.787
916.396
965.41
1026.99
1027.11
1027.11
1027.11
1027.11
1027.11
1027.11
1027.11
1027.11
1027.11
1027.11
1027.11
1027.11
1027.11
1027.11
1027.11
1027.11
1027.11
1027.1
992.719
926.867
869.596
889.884
908.936
920.362
921.035
920.188
1024.51
1027.11
1027.11
1027.11
1027.11
1027.11
1027.11
1027.11
1027.11
1027.11
1027.11
1027.11
1027.11
1027.11
1027.11
1027.11
1027.11
1027.11
1027.11
1027.11
990.276
927.414
870.307
892.503
911.869
919.87
916.918
929.071
1026.8
1027.11
1027.11
1027.11
1027.11
1027.11
1027.11
1027.11
1027.11
1027.11
1027.11
1027.11
1027.11
1027.11
1027.11
1027.11
1027.11
1027.11
1027.11
1027.11
987.368
927.916
870.748
894.747
913.41
918.151
910.602
945.971
1026.95
1027.11
1027.11
1027.11
1027.11
1027.11
1027.11
1027.11
1027.11
1027.11
1027.11
1027.11
1027.11
1027.11
1027.11
1027.11
1027.11
1027.11
1027.11
1027.11
982.709
928.466
872.51
898.962
915.102
915.17
911.015
980.301
1027.09
1027.11
1027.11
1027.11
1027.11
1027.11
1027.11
1027.11
1027.11
1027.11
1027.11
1027.11
1027.11
1027.11
1027.11
1027.11
1027.11
1027.11
1027.11
1027.11
980.608
928.336
782.517
799.576
813.491
821.588
831.575
839.748
848.479
857.124
866.231
875.885
885.903
895.887
905.494
914.986
923.849
932.071
939.267
945.514
950.576
954.694
956.963
957.394
955.302
954.615
946.952
927.726
898.084
820.255
832.862
912.246
929.508
936.672
946.309
953.521
960.706
968.304
975.582
982.876
989.792
996.764
1003.65
1009.03
1013.21
1016.26
1018.47
1020.13
1021.17
1021.71
1021.92
1021.68
1021.23
1021.24
1019.51
1013.32
993.858
898.304
876.727
955.819
978.424
989.619
996.739
1001.26
1005.27
1008.29
1010.13
1010.91
1011.15
1011.71
1013.08
1014.38
1015.13
1015.54
1015.36
1013.13
1010.71
1008.19
1006.23
1005.49
1004.89
1004.44
1007.54
1011.4
1006.39
932.77
901.436
982.089
994.19
1001.36
1004.51
1007.01
1009.15
1010.52
1011
1010.8
1010.37
1009.99
1009.24
1007.29
1003.37
998.896
996.277
995.985
999.002
1000.72
1001.99
1001.31
996.255
987.536
989.359
1003.9
1004.35
943.203
916.654
978.633
1001.1
1005.14
1007.55
1009.24
1010.4
1010.72
1010.27
1008.19
1004.38
998.006
989.223
979.825
975.1
980.738
995.187
1006.59
1012.84
1014.64
1014.07
1010.17
997.04
982.1
976.202
993.881
1003.23
949.899
922.051
967.741
995.071
1003.54
1006.24
1007.72
1009.19
1009.45
1005.93
999.923
991
979.949
971.627
969.162
983.982
1002.32
1013.94
1020.22
1024.31
1026.52
1026.71
1025.71
1020.13
1002.18
976.132
986.87
1002.05
953.395
924.374
957.609
983.4
995.653
999.904
1003.29
1006.19
1006.16
998.181
988.918
978.387
969.812
965.407
969.184
981.133
988.946
1004.2
1012.75
1019.16
1026.78
1027.11
1027.09
1026.5
1019.2
993.672
987.625
1000.45
956.345
924.731
950.114
970.506
980.548
988.546
996.512
1002.03
1000.72
990.599
981.811
975.82
970.912
963.954
966.135
969.589
978.117
996.21
1003.91
1015.44
1026.6
1027.11
1027.11
1027.08
1025.92
1013.3
988.014
998.419
958.19
925.061
945.335
961.626
970.148
979.926
992.281
998.602
994.765
984.419
973.278
971.972
966.231
949.738
956.219
974.666
966.939
972.726
991.984
1015.13
1026.7
1027.11
1027.11
1027.11
1026.94
1020.76
984.486
995.949
959.621
925.466
942.748
957.103
964.612
980.096
992.425
997.003
990.823
973.11
952.494
958.65
964.55
956.823
965.962
990.29
978.975
968.973
1016.27
1022.39
1026.92
1027.11
1027.11
1027.11
1027.1
1025.97
1009.15
995.425
960.556
925.9
941.585
954.661
964.638
980.74
993.007
996.43
982.679
954.443
958.17
970.968
958.076
988.158
1003.18
1022.56
1022.14
1021.69
1026.35
1025.62
1027.02
1027.11
1027.11
1027.11
1027.11
1027.11
1026.61
996.639
961.325
926.313
940.784
954.157
965.052
981.315
993.035
995.857
972.789
943.179
973.363
989.379
954.608
1003.16
1020.61
1025.49
1026.85
1026.83
1027
1026.72
1027.06
1027.11
1027.11
1027.11
1027.11
1027.11
1026.86
998.938
961.797
926.633
939.444
954.414
965.775
981.906
992.614
994.047
962.117
937.832
995.623
1008.05
962.519
1010.97
1021.8
1025.45
1026.86
1027.01
1027.07
1027.01
1027.09
1027.11
1027.11
1027.11
1027.11
1027.11
1026.81
1001.21
962.089
926.904
938.328
955.218
966.679
982.97
991.629
989.658
950.945
937.102
1017.96
1020.05
1000.84
1016.6
1021.18
1025.51
1027
1027.07
1027.08
1027.08
1027.1
1027.11
1027.11
1027.11
1027.11
1027.11
1026.8
1003.35
962.266
927.161
938.406
956.258
968.127
982.926
988.657
981.883
940.089
934.226
1015.68
1020.46
1004.9
1016.21
1019.48
1025.57
1027.03
1027.08
1027.08
1027.09
1027.1
1027.11
1027.11
1027.11
1027.11
1027.11
1026.82
1005.07
962.395
927.353
938.766
957.981
970.085
982.763
983.906
963.455
920.393
935.612
1022.78
1023.45
980.13
1020.19
1022.69
1026.69
1027.08
1027.07
1027.06
1027.08
1027.1
1027.11
1027.11
1027.11
1027.11
1027.11
1026.96
1006.62
962.608
927.544
939.692
959.905
971.642
981.617
976.661
944.707
924.245
1008.06
1026.97
1025.64
1017.25
1025.7
1026.91
1027.05
1027.02
1027.02
1027.05
1027.08
1027.11
1027.11
1027.11
1027.11
1027.11
1027.11
1027.05
1008.23
962.9
927.653
942.016
961.883
973.302
979.819
967.179
935.573
933.401
1026.87
1027.11
1027.07
1026.88
1027.09
1027.1
1027.02
1026.91
1026.97
1027.07
1027.09
1027.11
1027.11
1027.11
1027.11
1027.11
1027.11
1027.09
1009.78
963.266
927.969
945.583
963.592
973.435
978.779
959.43
936.667
937.895
1026.87
1027.11
1027.11
1027.11
1027.11
1027.1
1026.98
1026.85
1026.97
1027.1
1027.11
1027.11
1027.11
1027.11
1027.11
1027.11
1027.11
1027.11
1011.15
963.674
928.317
949.188
965.988
974.041
976.376
952.642
942.414
1005.58
1027.1
1027.11
1027.11
1027.11
1027.11
1027.09
1026.97
1026.85
1027.05
1027.11
1027.11
1027.11
1027.11
1027.11
1027.11
1027.11
1027.11
1027.11
1012.23
964.144
928.958
952.939
968.304
974.332
972.421
952.838
957.196
1026.97
1027.11
1027.11
1027.11
1027.11
1027.11
1027.09
1027.01
1026.96
1027.09
1027.11
1027.11
1027.11
1027.11
1027.11
1027.11
1027.11
1027.11
1027.11
1013.14
964.649
929.643
956.646
970.047
974.77
968.99
953.535
968.647
1027.11
1027.11
1027.11
1027.11
1027.11
1027.11
1027.1
1027.09
1027.07
1027.1
1027.11
1027.11
1027.11
1027.11
1027.11
1027.11
1027.11
1027.11
1027.11
1013.85
965.196
930.651
960.009
971.913
975.648
966.478
953.274
960.529
1027.11
1027.11
1027.11
1027.11
1027.11
1027.11
1027.11
1027.11
1027.09
1027.11
1027.11
1027.11
1027.11
1027.11
1027.11
1027.11
1027.11
1027.11
1027.11
1013.93
965.707
931.713
962.554
973.893
975.552
963.1
951.019
982.153
1027.11
1027.11
1027.11
1027.11
1027.11
1027.11
1027.11
1027.11
1027.11
1027.11
1027.11
1027.11
1027.11
1027.11
1027.11
1027.11
1027.11
1027.11
1027.11
1013.74
966.158
932.902
965.112
975.328
974.46
958.936
953.456
1025.99
1027.11
1027.11
1027.11
1027.11
1027.11
1027.11
1027.11
1027.11
1027.11
1027.11
1027.11
1027.11
1027.11
1027.11
1027.11
1027.11
1027.11
1027.11
1027.11
1012.9
966.544
934.279
967.661
976.794
972.147
955.534
957.336
1027.04
1027.11
1027.11
1027.11
1027.11
1027.11
1027.11
1027.11
1027.11
1027.11
1027.11
1027.11
1027.11
1027.11
1027.11
1027.11
1027.11
1027.11
1027.11
1027.11
1011.79
966.919
935.421
969.758
977.471
968.621
949.944
966.997
1027.1
1027.11
1027.11
1027.11
1027.11
1027.11
1027.11
1027.11
1027.11
1027.11
1027.11
1027.11
1027.11
1027.11
1027.11
1027.11
1027.11
1027.11
1027.11
1027.11
1009.59
967.281
938.133
973.072
977.427
963.163
948.541
994.578
1027.11
1027.11
1027.11
1027.11
1027.11
1027.11
1027.11
1027.11
1027.11
1027.11
1027.11
1027.11
1027.11
1027.11
1027.11
1027.11
1027.11
1027.11
1027.11
1027.11
1008.43
967.427
787.297
817.67
834.932
844.701
855.763
864.541
873.488
882.156
890.93
899.911
908.988
918
926.563
934.877
942.489
949.348
955.199
960.234
964.174
967.353
969.001
969.233
967.353
966.177
959.431
943.187
916.947
832.835
861.925
959.178
975.626
981.649
989.018
993.7
998.122
1002.62
1006.78
1010.78
1014.23
1017.17
1019.53
1021.24
1022.57
1023.56
1024.3
1024.76
1024.88
1024.58
1024.25
1023.88
1023.24
1022.83
1021.62
1019.88
1012.41
915.515
909.079
998.396
1011.82
1015.86
1017.75
1018.53
1019.1
1019.44
1019.57
1019.47
1019.23
1019.12
1019.24
1019.26
1017.87
1016.38
1014.9
1013.99
1013.96
1016.19
1017.89
1018.27
1015.94
1013.55
1009.54
1013.42
1012.34
948.059
932.728
1012.39
1016.75
1017.63
1017.92
1018.43
1018.77
1018.86
1018.46
1017.72
1016.53
1014.65
1011.67
1007.82
1004.31
1002.32
1002.11
1006.67
1010.97
1014.22
1017.35
1017.87
1013.89
1006.1
998.034
1003.41
1010.19
958.818
946.953
1011.25
1017.18
1017.44
1017.72
1017.75
1016.82
1015.32
1013.01
1009.97
1005.88
1000.12
993.478
988.499
986.995
996.239
1008.22
1016.55
1021.26
1022.92
1023.4
1021.69
1013.81
1001.94
986.888
996.334
1008.77
964.899
953.892
1006.77
1015.84
1016.94
1016.95
1015.14
1012.22
1008.3
1003.29
997.787
992.459
986.947
983.479
982.884
995.126
1007.1
1015.73
1021.26
1025.12
1026.94
1027.05
1026.9
1025.52
1016.96
990.777
990.585
1007.04
967.933
957.519
1001.76
1012.94
1015.7
1015.02
1010.93
1005.54
999.367
993.889
988.965
985.005
981.708
978.815
978.416
985.232
990.245
1002.41
1008.69
1020.75
1026.96
1027.11
1027.11
1027.04
1025.04
1009.98
988.43
1005.12
970.257
959.292
997.571
1008.4
1012.33
1011.78
1006.97
1000.94
994.894
990.804
987.292
985.103
983.446
978.18
974.332
969.436
970.819
981.121
984.716
1016.38
1026.92
1027.11
1027.11
1027.11
1026.84
1019.95
989.704
1003.02
971.668
960.555
994.752
1004.55
1009.04
1009.22
1004.6
998.83
993.411
988.752
983.408
981.608
980.466
961.656
964.606
955.544
935.662
935.904
962.72
1013.55
1027
1027.11
1027.11
1027.11
1027.08
1024.51
1000.01
1001.58
972.745
961.54
993.362
1002.54
1007.34
1007.98
1003.19
997.625
991.94
983.11
969.762
966.774
973.004
956.07
954.457
930.58
933.454
931.996
986.683
1016.7
1027.05
1027.11
1027.11
1027.11
1027.11
1026.93
1020.3
1001.91
973.344
962.391
992.846
1001.45
1006.66
1007.24
1002.19
996.793
988.657
972.764
961.921
1003.16
944.236
1026.86
954.499
1027.07
970.682
950.846
1027.09
1011.13
1027.07
1027.11
1027.11
1027.11
1027.11
1027.11
1026.96
1003.5
973.923
963.111
992.365
1001.51
1006.42
1006.68
1001.5
996.225
984.574
964.838
1027.11
1026.77
1027.11
1027.07
1027.11
1027.11
1027.11
1027.11
1027.1
1027.11
1027.09
1027.11
1027.11
1027.11
1027.11
1027.11
1027.01
1006.09
974.449
963.691
991.868
1001.75
1006.2
1006.19
1000.97
995.546
978.585
956.159
1027.04
1027.06
1026.93
1027.1
1027.05
1027.1
1027.1
1027.09
1027.06
1027.09
1027.1
1027.11
1027.11
1027.11
1027.11
1027.11
1026.99
1008.63
974.897
964.17
991.917
1002.15
1006
1005.7
1000.61
993.985
970.827
951.001
1027.11
1027.09
1027.11
1027.11
1027.11
1027.11
1027.11
1027.11
1027.07
1027.11
1027.11
1027.11
1027.11
1027.11
1027.11
1027.11
1026.98
1010.94
975.273
964.58
992.21
1002.57
1005.83
1005.3
1000.05
990.427
960.027
941.633
1027.09
1027.1
1027.08
1027.1
1027.09
1027.1
1027.09
1027.08
1027.09
1027.1
1027.11
1027.11
1027.11
1027.11
1027.11
1027.11
1027
1012.55
975.528
964.932
992.786
1003.17
1005.7
1004.9
997.972
977.113
942.714
939.077
1027.11
1027.1
1027.11
1027.1
1027.11
1027.1
1027.11
1027.11
1027.11
1027.11
1027.11
1027.11
1027.11
1027.11
1027.11
1027.11
1027.06
1013.96
975.767
965.329
993.82
1003.78
1005.58
1004.04
991.764
962.833
947.919
1009.05
1027.11
1027.1
1027.11
1027.11
1027.11
1027.1
1027.11
1027.11
1027.11
1027.11
1027.11
1027.11
1027.11
1027.11
1027.11
1027.11
1027.09
1015.52
976.008
965.726
995.531
1004.32
1005.45
1002.13
982.908
957.64
953.098
1026.81
1027.1
1027.1
1027.1
1027.11
1027.11
1027.11
1027.11
1027.11
1027.11
1027.11
1027.11
1027.11
1027.11
1027.11
1027.11
1027.11
1027.11
1017.07
976.276
966.371
997.654
1004.66
1005.11
998.58
974.765
952.64
943.482
1026.79
1027.11
1027.11
1027.11
1027.11
1027.11
1027.05
1027.11
1027.11
1027.11
1027.11
1027.11
1027.11
1027.11
1027.11
1027.11
1027.11
1027.11
1018.36
976.575
967.091
999.491
1005.06
1004.43
992.331
967.071
958.302
1012.57
1027.07
1027.11
1027.08
1027.11
1027.05
1027.11
1026.99
1027.11
1027.11
1027.1
1027.11
1027.11
1027.11
1027.11
1027.11
1027.11