/*--------------------------------*- C++ -*----------------------------------*\
| =========                 |                                                 |
| \\      /  F ield         | OpenFOAM: The Open Source CFD Toolbox           |
|  \\    /   O peration     | Version:  2.3.0                                 |
|   \\  /    A nd           | Web:      www.OpenFOAM.org                      |
|    \\/     M anipulation  |                                                 |
\*---------------------------------------------------------------------------*/
FoamFile
{
    version     2.0;
    format      ascii;
    class       volVectorField;
    location    "3.19937";
    object      Ur;
}
// * * * * * * * * * * * * * * * * * * * * * * * * * * * * * * * * * * * * * //

dimensions      [0 1 -1 0 0 0 0];

internalField   nonuniform List<vector> 
18816
(
(0.000742876 0.00591149 0.000429879)
(0.00120847 0.0117185 -0.000531727)
(0.00107227 0.00825311 0.000105994)
(0.00105995 0.00810941 0.000131643)
(0.00085934 0.00731638 0.00021567)
(0.000806362 0.0071834 0.000217584)
(0.000685815 0.00697008 0.000228088)
(0.000601523 0.00694938 0.000208316)
(0.000490137 0.00677355 0.000201)
(0.000359423 0.0063657 0.000190081)
(0.000205155 0.00594695 0.000183008)
(5.08601e-05 0.00565112 0.000167174)
(-0.000118434 0.00515527 0.000157459)
(-0.00027462 0.00464505 0.000144583)
(-0.000399933 0.00420766 0.000126609)
(-0.000502409 0.00381275 0.000107112)
(-0.000563066 0.00347568 8.45287e-05)
(-0.000568229 0.00320196 7.00094e-05)
(-0.000505069 0.00301688 5.96543e-05)
(-0.000402536 0.00284589 4.93392e-05)
(-0.000257603 0.00275686 4.66728e-05)
(-7.10122e-05 0.00270475 6.44241e-05)
(0.000111139 0.00278302 6.40606e-05)
(0.000295467 0.00274897 4.32487e-05)
(0.000441104 0.00283226 3.83439e-05)
(0.000276097 0.00330129 6.44152e-05)
(-0.000256184 0.00488836 0.000125586)
(-0.000312795 0.00642864 0.000358429)
(0.000256487 0.00725103 0.000369635)
(0.000557295 0.012208 0.000922979)
(0.000556215 0.00917875 0.000672874)
(0.000527988 0.00905848 0.000634972)
(0.00048901 0.00831859 0.000551692)
(0.000470256 0.00823276 0.000496877)
(0.000428034 0.00812879 0.000428705)
(0.000380013 0.0080723 0.00037046)
(0.000313339 0.00772561 0.00031716)
(0.00025988 0.0072355 0.00027135)
(0.000221753 0.00679 0.000223099)
(0.000150176 0.00656577 4.04828e-05)
(2.54886e-05 0.00582516 3.69636e-05)
(-4.40279e-05 0.00513906 3.04466e-05)
(-0.000112319 0.00458326 2.54218e-05)
(-0.00017283 0.00410329 2.00489e-05)
(-0.000215618 0.00372748 1.65572e-05)
(-0.000248105 0.00342852 1.04969e-05)
(-0.000257647 0.00321011 3.60123e-06)
(-0.000228807 0.00315812 2.78869e-06)
(-0.000181059 0.0030749 6.39633e-06)
(-8.54309e-05 0.0030089 1.07554e-05)
(1.11488e-05 0.00303599 1.22904e-05)
(0.000112835 0.00295343 1.48347e-05)
(0.000119541 0.0030877 1.15161e-05)
(2.20028e-05 0.00364507 4.29428e-06)
(-0.000257707 0.00563736 7.11408e-05)
(-0.000232462 0.00766766 0.000252224)
(0.000422594 0.00693953 0.000114694)
(0.000532016 0.00645318 0.00076083)
(0.000288953 0.00582426 0.000554797)
(0.000328314 0.00574088 0.000494348)
(0.000292423 0.00548552 0.000417333)
(0.000264908 0.00550135 0.000386186)
(0.000234505 0.00551939 0.000348039)
(0.000209598 0.00532604 0.000309501)
(0.000184341 0.00493723 0.000272032)
(0.000137946 0.00463381 0.000266978)
(0.000107708 0.00436379 0.000517418)
(0.000142552 0.00422362 0.000364546)
(8.40037e-05 0.00374173 8.89317e-08)
(-3.04757e-06 0.00324733 3.39459e-06)
(-5.28028e-05 0.00287151 2.0099e-07)
(-9.98453e-05 0.00260529 -2.09596e-06)
(-0.000152466 0.00244201 -4.5658e-06)
(-0.00021185 0.00237803 -5.69479e-06)
(-0.000241817 0.00234621 -4.13235e-06)
(-0.000238437 0.0023536 -3.2774e-06)
(-0.000205304 0.00236582 2.45104e-06)
(-0.000117455 0.00236284 9.35645e-06)
(-2.14926e-05 0.00236376 1.56845e-05)
(6.20052e-05 0.00235661 1.95195e-05)
(8.12773e-05 0.00237436 1.16685e-05)
(2.96477e-05 0.0026484 4.24493e-06)
(-0.000178487 0.00411711 3.28348e-05)
(-0.000195789 0.00625362 0.000120729)
(0.000320146 0.00719148 7.94024e-05)
(0.00033233 0.00992213 -0.000653374)
(0.000168573 0.00523496 9.78786e-05)
(0.000244983 0.0049748 5.09793e-05)
(0.00021711 0.00480815 4.44139e-05)
(0.000200661 0.0048315 4.19543e-05)
(0.000176888 0.00479672 3.32819e-05)
(0.000165654 0.0045275 2.97579e-05)
(0.000151131 0.00420023 2.67657e-05)
(0.000131027 0.00390603 2.65632e-05)
(7.68485e-05 0.00352562 5.42811e-05)
(7.69843e-05 0.00322017 0.000369777)
(9.41077e-05 0.00298971 0.000138094)
(3.61154e-05 0.00262821 -9.31103e-06)
(-3.45302e-05 0.002409 -1.17638e-05)
(-9.53502e-05 0.00228026 -1.91924e-05)
(-0.000159774 0.00225348 -2.77271e-05)
(-0.000222117 0.00226716 -3.39266e-05)
(-0.000243664 0.00227972 -3.37426e-05)
(-0.000219772 0.00229193 -3.02911e-05)
(-0.000176012 0.0023167 -1.44801e-05)
(-9.16521e-05 0.00233527 -1.86817e-06)
(-5.22632e-06 0.00235657 1.23622e-05)
(5.68396e-05 0.0023671 1.27086e-05)
(5.68394e-05 0.00235091 5.22395e-06)
(1.70246e-05 0.00239707 2.03676e-07)
(-0.000113185 0.00356557 1.55058e-05)
(-0.000118343 0.00588287 6.9454e-05)
(0.000433063 0.00674592 9.12638e-05)
(0.000665918 0.0181098 -0.00166252)
(0.000263392 0.00617415 -0.000652024)
(0.000164857 0.00502931 4.44617e-06)
(0.000167977 0.00483821 1.36449e-05)
(0.000160433 0.00481887 1.88413e-05)
(0.000146446 0.00469493 2.15486e-05)
(0.000143313 0.00433859 -1.1951e-08)
(0.000130375 0.0040068 1.25039e-06)
(0.000114542 0.00363506 3.57188e-06)
(7.36993e-05 0.00310315 1.63042e-05)
(5.525e-05 0.00264336 0.00018221)
(6.51791e-05 0.0024538 0.000116087)
(2.68796e-05 0.00222608 -6.12384e-06)
(-3.77652e-05 0.00217384 -1.88587e-05)
(-8.25471e-05 0.00217411 -4.0491e-05)
(-0.000132793 0.00223135 -4.67282e-05)
(-0.000201728 0.0022875 -4.56018e-05)
(-0.000237555 0.00233553 -3.34062e-05)
(-0.000221676 0.00235872 -3.1875e-05)
(-0.000170541 0.00235732 -2.71335e-05)
(-7.6388e-05 0.00234813 -2.11983e-05)
(7.75875e-06 0.00230681 -1.56898e-05)
(6.30248e-05 0.00230169 -2.67868e-06)
(3.97035e-05 0.0022904 -2.19035e-06)
(-4.64517e-06 0.00227087 -7.61505e-08)
(-5.72223e-05 0.00320195 2.1671e-05)
(-5.88144e-05 0.0054939 3.97365e-05)
(0.000266268 0.00645123 9.68591e-05)
(0.000589553 0.0225399 -0.000584756)
(0.000424408 0.00841283 -0.000933221)
(0.000177873 0.00588336 -0.000602648)
(0.000136191 0.00537326 -0.000411864)
(0.000126834 0.00521122 -0.000326858)
(9.77923e-05 0.00492432 -0.000244515)
(0.000105863 0.00429139 7.39648e-06)
(0.000103859 0.00392821 1.74269e-05)
(9.17651e-05 0.00347174 1.33044e-05)
(6.34746e-05 0.00284424 7.29415e-06)
(4.2888e-05 0.00233157 0.000109803)
(5.00684e-05 0.0021743 7.83233e-05)
(3.07288e-05 0.00210666 -5.8208e-06)
(-1.56182e-05 0.00215499 -5.7656e-06)
(-5.1969e-05 0.00222126 -3.47809e-06)
(-9.52716e-05 0.00230115 -7.81923e-06)
(-0.000161562 0.0023536 -1.02526e-05)
(-0.000212152 0.00241825 -9.8323e-06)
(-0.000231623 0.00244074 -8.59231e-06)
(-0.000203073 0.00244066 -5.62497e-06)
(-0.000131585 0.00242493 -3.63315e-06)
(-2.9296e-05 0.00236861 -5.45002e-06)
(7.04174e-05 0.00231228 -2.07322e-05)
(4.81818e-05 0.00224863 -9.78585e-06)
(2.48297e-06 0.00224653 -3.71493e-06)
(-4.86224e-05 0.00300932 1.59696e-05)
(-5.66116e-05 0.00529718 2.01736e-05)
(0.000160541 0.00620454 6.98594e-05)
(0.000355224 0.022292 -0.000113764)
(0.000390735 0.0108373 -0.000432371)
(0.000298932 0.00750981 -0.000715294)
(0.000174215 0.00632369 -0.000524187)
(0.000164093 0.00590083 -0.000425463)
(0.000136976 0.00536238 -0.000411469)
(9.24233e-05 0.00441953 -0.00029551)
(7.53838e-05 0.00401061 -0.000203837)
(5.3665e-05 0.00343263 -0.000162632)
(4.59828e-05 0.00264747 3.60135e-06)
(3.8429e-05 0.00212755 5.20825e-05)
(3.92052e-05 0.00205789 5.1449e-05)
(3.05735e-05 0.00206749 4.96276e-06)
(-1.31187e-06 0.002114 1.49223e-06)
(-1.39085e-05 0.00214738 -3.66354e-06)
(-4.78003e-05 0.00222364 -8.17533e-06)
(-0.000116262 0.00226474 -1.15848e-05)
(-0.000172962 0.00232507 -1.02348e-05)
(-0.000217974 0.00237104 -3.21833e-06)
(-0.000204952 0.00240815 1.8197e-05)
(-0.000161937 0.00241631 3.29377e-06)
(-9.23569e-05 0.00239656 2.39334e-07)
(-4.58127e-06 0.00234013 -1.05779e-05)
(4.1107e-05 0.00224284 -1.78355e-05)
(2.10782e-05 0.00222669 -3.38971e-06)
(-3.30252e-05 0.00287069 1.14008e-05)
(-4.38222e-05 0.0051638 1.18432e-05)
(0.000113467 0.00603723 5.8252e-05)
(0.000238576 0.0220839 -2.02268e-05)
(0.000264605 0.0123251 -0.000116821)
(0.000253768 0.00934049 -0.000288953)
(0.000166402 0.00731805 -0.000202769)
(0.000147682 0.00658865 -0.000144595)
(0.000153732 0.00578639 -0.00014258)
(0.000150024 0.00474318 -0.000289644)
(8.49275e-05 0.00423391 -0.000251229)
(4.12941e-05 0.00346021 -0.000234745)
(2.75651e-05 0.00253004 -3.41253e-05)
(2.57294e-05 0.00204891 2.01735e-05)
(2.43842e-05 0.00202565 2.91452e-05)
(2.01297e-05 0.00204272 2.83021e-06)
(7.54034e-06 0.0020475 -1.54504e-06)
(1.03899e-05 0.00204879 -2.88243e-06)
(-1.34704e-05 0.00210086 -3.25609e-06)
(-7.25588e-05 0.0020833 -3.28892e-06)
(-0.000119636 0.00221327 -9.81416e-06)
(-0.000170271 0.00227557 -5.81597e-06)
(-0.000164874 0.00232872 0.000260934)
(-0.000162697 0.0023656 8.98555e-06)
(-0.00012259 0.0023668 2.47421e-07)
(-6.06801e-05 0.00234985 -2.36464e-06)
(2.69958e-05 0.00230671 -7.13129e-06)
(2.95899e-05 0.00221021 2.76954e-06)
(-3.71987e-05 0.0028013 2.92554e-06)
(-5.06562e-05 0.00507555 6.73638e-06)
(7.16545e-05 0.00593493 4.72864e-05)
(0.000171618 0.0217714 5.83634e-06)
(0.000194405 0.0130296 -4.20902e-05)
(0.000177774 0.0102787 -5.96136e-05)
(0.000122942 0.00775701 -3.29557e-05)
(0.000114965 0.0068339 -2.0078e-05)
(9.20454e-05 0.00592699 -2.36094e-05)
(9.85137e-05 0.0050041 -8.82251e-05)
(3.34138e-05 0.00442029 -8.62398e-05)
(-3.19366e-06 0.00334808 -9.48082e-05)
(2.83614e-05 0.00239948 -3.03295e-05)
(8.33895e-06 0.00197936 2.79889e-06)
(1.45315e-05 0.00197219 1.08745e-05)
(1.30061e-05 0.00199882 6.03124e-07)
(-4.35073e-06 0.00199762 -6.06779e-07)
(2.92705e-05 0.0020041 5.92208e-07)
(-5.17889e-05 0.00199028 -5.15492e-08)
(-4.01821e-05 0.0021437 7.3099e-06)
(1.08693e-05 0.00216225 -5.45087e-06)
(-0.000102733 0.00225527 -4.87057e-06)
(-8.92331e-05 0.00229299 0.000335353)
(-0.000143875 0.00185994 2.54968e-05)
(-0.000118863 0.0023304 1.80262e-06)
(-7.63031e-05 0.00232631 -5.17453e-07)
(-3.2163e-05 0.00229393 -1.08343e-05)
(2.71613e-05 0.00213337 -7.2375e-06)
(-2.72906e-05 0.00274486 2.85101e-06)
(-6.44671e-05 0.00498751 1.35798e-06)
(5.20668e-05 0.00586979 3.98593e-05)
(0.000124794 0.0212181 1.65059e-05)
(0.000142583 0.0135229 -1.75946e-05)
(0.000122997 0.010403 -1.61103e-05)
(7.55985e-05 0.0078146 -3.14129e-06)
(6.95812e-05 0.00682987 1.25694e-07)
(4.587e-05 0.00594929 -3.54055e-06)
(9.97908e-05 0.00511368 -1.76271e-05)
(-8.40348e-05 0.00454513 -3.15143e-05)
(-0.000143323 0.00306425 -3.88781e-05)
(2.16231e-05 0.00230995 -4.20788e-05)
(2.96492e-06 0.00194228 -8.61556e-06)
(1.93925e-05 0.00197912 1.00923e-05)
(1.78292e-05 0.00200851 2.26973e-06)
(2.19112e-05 0.0020414 2.00097e-06)
(1.82363e-05 0.00206616 3.60746e-06)
(8.77414e-05 0.00205107 2.6868e-07)
(5.11867e-05 0.00223489 -1.16881e-05)
(-2.61732e-05 0.00220182 -1.90649e-06)
(-4.39505e-05 0.0022531 -7.96754e-06)
(-4.85708e-05 0.00228077 0.000114562)
(-8.47745e-05 0.000867847 4.34937e-07)
(-9.56444e-05 0.00181258 -1.35586e-05)
(-9.58648e-05 0.00230219 -4.46918e-06)
(-0.000108939 0.00227586 -6.30653e-06)
(3.28915e-05 0.00222648 -2.94322e-05)
(2.10695e-06 0.00271032 6.31649e-06)
(-7.87428e-05 0.00495294 5.01574e-06)
(3.6807e-05 0.00583294 3.30405e-05)
(8.72502e-05 0.0207214 2.47012e-05)
(9.96556e-05 0.0137136 -8.79044e-06)
(9.39816e-05 0.0103188 -5.46941e-06)
(5.39639e-05 0.00777329 9.77325e-07)
(5.25501e-05 0.00678701 1.68505e-06)
(2.9747e-05 0.00594356 -1.73357e-06)
(0.000153194 0.00511399 -2.07552e-05)
(-0.000237427 0.00431764 -4.65978e-05)
(-0.000347392 0.00297615 5.5871e-06)
(5.46818e-05 0.00235437 -9.76108e-05)
(3.38599e-05 0.00200127 -5.47137e-05)
(6.56068e-05 0.00201708 -4.9026e-06)
(5.32327e-05 0.00203362 -7.51284e-07)
(5.6881e-05 0.00205146 6.09093e-07)
(5.35611e-05 0.00204762 -5.76886e-08)
(8.73761e-05 0.00210011 -9.65028e-07)
(7.31523e-05 0.00210169 -1.83167e-06)
(5.16852e-06 0.00215686 8.34916e-07)
(-3.90845e-05 0.00220881 -5.79206e-06)
(-5.70502e-05 0.00224609 -4.86483e-06)
(-4.63491e-05 0.000379612 8.45773e-07)
(-4.19113e-05 0.000745289 -6.7673e-07)
(-8.00661e-05 0.00229765 6.51299e-06)
(-0.000121798 0.00228948 1.23628e-05)
(1.21538e-05 0.00230276 -1.73282e-06)
(-8.24274e-06 0.00268923 1.46553e-05)
(-7.05242e-05 0.00497403 2.06058e-05)
(3.0062e-05 0.00581242 2.88364e-05)
(5.62865e-05 0.0207795 3.2288e-05)
(5.58624e-05 0.0135895 -4.86964e-06)
(6.49215e-05 0.0102755 -1.37525e-06)
(3.6715e-05 0.00772979 1.59934e-06)
(3.46508e-05 0.00674721 1.25535e-06)
(1.274e-05 0.00594506 -2.85562e-06)
(2.77472e-05 0.00508106 -2.54931e-05)
(-0.000137123 0.00395927 -3.19614e-05)
(-0.000235235 0.00288937 -6.84878e-06)
(-5.22648e-05 0.00241266 -7.39741e-05)
(1.72629e-05 0.00205686 -5.20016e-05)
(3.59446e-05 0.0020371 -1.23448e-06)
(4.29781e-05 0.00205049 1.32992e-06)
(4.84326e-05 0.00203491 1.61207e-06)
(6.47647e-05 0.00203968 1.10531e-06)
(0.000112194 0.00208977 -1.9819e-07)
(8.50194e-05 0.00210229 -1.86051e-06)
(6.76279e-05 0.00213325 4.47325e-06)
(2.16778e-05 0.0022062 -4.33317e-06)
(-4.90656e-05 0.0022332 -2.51325e-05)
(-3.70248e-05 0.000415813 1.06594e-07)
(-3.34739e-05 0.000185842 -1.31513e-06)
(-6.78061e-05 0.00229085 -3.45435e-05)
(-9.03675e-05 0.00229556 1.7559e-06)
(-6.60669e-06 0.00232677 4.01946e-07)
(-1.56574e-05 0.00265668 1.49979e-05)
(-4.36865e-05 0.00497241 2.8269e-05)
(2.23221e-05 0.0057995 2.3636e-05)
(3.0448e-05 0.0206467 3.14408e-05)
(2.18e-05 0.0132224 -3.98194e-06)
(4.00717e-05 0.0102634 9.24629e-07)
(2.66904e-05 0.00768322 2.59154e-06)
(3.11598e-05 0.00672329 -8.85786e-07)
(-2.12763e-05 0.00595314 -7.74932e-06)
(-5.32302e-05 0.00502905 -2.80472e-05)
(-0.0001343 0.00369284 -2.85521e-05)
(-0.000207676 0.00261572 -4.66379e-06)
(-6.36942e-05 0.00236911 -1.20382e-05)
(2.0881e-05 0.00205437 -7.15414e-06)
(3.90677e-05 0.00204122 1.47971e-06)
(4.63972e-05 0.00206174 1.33564e-06)
(5.57234e-05 0.00203615 1.46654e-06)
(9.08295e-05 0.00207645 3.75712e-07)
(0.00011805 0.00213277 -1.10792e-06)
(0.000102308 0.0021386 -4.57437e-06)
(0.000100609 0.00217596 2.34453e-06)
(3.70012e-05 0.00220669 -5.46278e-06)
(-4.71845e-05 0.00222128 -1.18604e-05)
(-3.49501e-05 0.000485159 -5.53061e-07)
(-2.97057e-05 0.000148708 -3.37402e-07)
(-5.94678e-05 0.00186874 -6.81886e-05)
(-6.19426e-05 0.00227818 -6.57588e-07)
(-8.93323e-06 0.00229459 -1.69691e-06)
(-8.29919e-06 0.00259801 1.2306e-05)
(-1.36353e-05 0.00490427 2.05441e-05)
(1.55671e-05 0.00579664 2.10079e-05)
(5.7025e-06 0.019457 2.81234e-05)
(-2.7841e-06 0.012843 -2.66488e-06)
(1.34154e-05 0.01024 2.96967e-06)
(1.21503e-05 0.00764005 3.68029e-06)
(1.39355e-05 0.0067448 -4.80729e-06)
(-6.92835e-05 0.0059722 -1.33822e-05)
(-0.000128628 0.00493246 -3.07017e-05)
(-0.000177419 0.00334818 -1.95613e-05)
(-0.000186757 0.00244731 -5.30555e-06)
(-4.12745e-05 0.00230049 2.77536e-06)
(2.02933e-05 0.00204841 3.63389e-06)
(2.65755e-05 0.00203185 2.05186e-06)
(4.30562e-05 0.00201087 9.15884e-07)
(6.51114e-05 0.00203511 9.03955e-07)
(0.000129539 0.00209268 4.22937e-07)
(0.000145714 0.00212905 -1.83593e-06)
(0.000118028 0.00214228 -8.50385e-06)
(0.000128854 0.00216271 1.59545e-06)
(4.76142e-05 0.00218648 -7.28265e-06)
(-4.46757e-05 0.00219676 -7.71006e-06)
(-2.87375e-05 0.000534834 -8.27179e-07)
(-1.27821e-05 0.000132861 -1.55704e-07)
(-2.90042e-05 0.000903494 -3.95331e-05)
(-3.40261e-05 0.00226416 -3.91122e-06)
(-1.41845e-05 0.00225935 -1.35528e-06)
(1.32032e-06 0.0025443 1.19963e-05)
(5.4334e-06 0.00481273 1.46241e-05)
(9.45754e-06 0.00580339 1.92542e-05)
(-7.5733e-06 0.0182861 3.0733e-05)
(-2.51677e-05 0.0127075 9.19735e-07)
(-9.0202e-06 0.0102155 5.43531e-06)
(6.94747e-06 0.00762475 1.6128e-06)
(-1.54993e-05 0.00676223 -1.15952e-05)
(-0.000131267 0.00598452 -2.15228e-05)
(-0.000226258 0.00471984 -3.76613e-05)
(-0.000212223 0.0027771 -1.77167e-05)
(-0.000136322 0.00226757 -1.82902e-05)
(-2.07907e-05 0.00218774 -8.02277e-07)
(1.05776e-05 0.00206641 3.61754e-06)
(4.67227e-06 0.00201916 1.12791e-06)
(6.15024e-05 0.00202842 1.65332e-07)
(0.00011071 0.00209681 -1.15266e-06)
(0.000152422 0.00216517 -1.47493e-06)
(0.000146362 0.00217916 -6.22435e-06)
(0.000131167 0.00216181 -6.46715e-06)
(0.000137288 0.00218993 -1.83752e-06)
(5.05223e-05 0.00216456 -6.78844e-06)
(-3.73527e-05 0.00217405 -5.106e-06)
(-2.08792e-05 0.000550352 -9.13509e-07)
(-8.20073e-06 0.000112387 -8.99666e-08)
(-1.98474e-05 0.000237178 -1.23758e-05)
(-2.23864e-05 0.00224729 -8.74956e-06)
(-1.87478e-05 0.0022348 -2.45425e-06)
(6.56779e-06 0.00250184 1.05004e-05)
(1.86799e-05 0.00472869 6.68404e-06)
(6.86087e-06 0.00582253 1.93302e-05)
(-3.63008e-05 0.0180911 3.29383e-05)
(-6.52243e-05 0.0128233 4.38288e-06)
(-4.12943e-05 0.0101887 4.11269e-06)
(-5.0989e-05 0.00764368 -2.36821e-06)
(-9.26721e-05 0.00684019 -2.14369e-05)
(-0.00016664 0.00600531 -3.53385e-05)
(-0.000285452 0.00405389 -5.07794e-05)
(-0.000189236 0.00223505 -3.20378e-05)
(-7.48434e-05 0.00212255 -1.6987e-05)
(-3.46736e-06 0.00208162 1.20038e-06)
(1.25063e-05 0.001978 1.92019e-06)
(1.27417e-05 0.00203203 1.38132e-06)
(0.000109735 0.00206545 -1.74974e-06)
(0.000150883 0.00217056 -1.9462e-06)
(0.000185838 0.00212643 2.06126e-07)
(0.000132577 0.00213021 -2.78561e-06)
(0.000126893 0.00216818 -3.93148e-06)
(0.000121623 0.0021426 8.28632e-07)
(1.10405e-05 0.0021503 -3.56124e-06)
(-3.20111e-05 0.00215703 -1.88266e-06)
(-1.25839e-05 0.000529508 -7.62172e-07)
(-6.20547e-06 0.000101714 -6.86602e-08)
(-1.61848e-05 7.02313e-05 -2.51431e-06)
(-2.23354e-05 0.00224083 -2.17835e-05)
(-2.39632e-05 0.00221886 -3.35011e-06)
(1.19996e-05 0.00247594 9.17531e-06)
(2.54747e-05 0.00469326 1.47321e-06)
(1.0986e-05 0.00585089 2.07514e-05)
(-3.90579e-05 0.0179801 2.91146e-05)
(-8.04735e-05 0.0130715 5.15509e-06)
(-6.71199e-05 0.0101317 -1.31414e-08)
(-7.47303e-05 0.00770496 -1.14377e-05)
(-8.3118e-05 0.00698045 -2.90809e-05)
(-0.000121922 0.00587488 -3.66508e-05)
(-0.000147902 0.00302285 -2.80004e-05)
(-0.000143944 0.00222322 -1.79143e-05)
(-0.000140838 0.00220184 -2.48917e-06)
(-9.87743e-05 0.00216742 1.5372e-06)
(-3.4202e-06 0.00203676 7.5069e-06)
(8.32041e-05 0.0021596 2.96848e-06)
(0.000155129 0.00217116 2.61038e-06)
(0.00013782 0.00217861 3.16897e-06)
(0.000104594 0.00213837 2.67102e-06)
(0.000185094 0.00209837 8.1257e-07)
(0.000145026 0.00212253 1.01147e-06)
(0.000112106 0.00212846 3.34917e-06)
(4.13275e-05 0.00214723 2.45421e-06)
(-2.78824e-05 0.00199136 -1.79346e-06)
(-2.04868e-06 0.000481061 -5.05287e-07)
(-4.49948e-06 9.5147e-05 -2.17637e-08)
(-1.26911e-05 3.00178e-05 -2.25701e-07)
(-2.2217e-05 0.00192533 -5.28089e-05)
(-2.78007e-05 0.00222003 -2.66129e-06)
(1.42217e-05 0.00246162 7.59616e-06)
(2.82671e-05 0.00469586 -1.09358e-06)
(2.84761e-06 0.00588042 2.07548e-05)
(-4.20918e-05 0.0172551 2.36628e-05)
(-7.90202e-05 0.0132876 1.58164e-06)
(-8.0752e-05 0.010093 -5.45014e-06)
(-0.000107159 0.00780102 -2.02279e-05)
(-5.12855e-05 0.00701718 -2.80574e-05)
(-5.07377e-05 0.00535397 -3.01657e-05)
(-6.35973e-06 0.00223736 2.85701e-06)
(-8.63564e-05 0.00231129 0.000114211)
(-0.000141593 0.0022822 2.53678e-06)
(-9.94526e-05 0.00229216 2.54969e-06)
(-1.18881e-05 0.00230648 -3.64997e-07)
(7.26535e-05 0.0022841 2.89699e-06)
(9.32228e-05 0.00228559 9.54943e-06)
(0.000107948 0.00216139 7.07195e-06)
(0.000105055 0.00221155 -5.18006e-07)
(0.000117027 0.00218402 -2.49784e-06)
(0.000158031 0.00208343 8.75105e-07)
(0.000136574 0.00218676 9.99132e-07)
(1.64796e-05 0.00220159 6.97344e-07)
(-1.90734e-05 0.00147629 -5.7511e-07)
(5.12114e-06 0.000394498 -2.23444e-07)
(-2.90599e-06 7.64219e-05 1.97769e-08)
(-3.35428e-06 1.48455e-05 -7.72283e-09)
(-1.75956e-05 0.00108271 -6.9285e-05)
(-2.3028e-05 0.00223465 -3.24738e-07)
(1.32678e-05 0.00244877 5.95548e-06)
(2.55129e-05 0.00471051 -2.72356e-06)
(1.4178e-05 0.00591924 2.38692e-05)
(-3.4266e-05 0.0168562 2.09887e-05)
(-8.00957e-05 0.0132585 -6.13158e-06)
(-7.08433e-05 0.0101079 -1.66363e-05)
(-0.000144165 0.00793852 -2.27961e-05)
(-3.71998e-05 0.00696867 -1.56835e-05)
(-9.52899e-05 0.00446974 4.75777e-06)
(-5.96545e-05 0.00206036 -3.19018e-05)
(1.06639e-05 0.00223821 1.28282e-05)
(-0.000111776 0.00214577 7.18633e-05)
(-5.83446e-05 0.0020716 5.15425e-05)
(-1.45419e-05 0.00223457 5.6579e-07)
(4.12954e-05 0.00224156 6.0382e-05)
(3.35296e-05 0.00217434 4.23092e-06)
(6.43475e-05 0.00216381 4.5606e-06)
(0.000128007 0.00210103 2.60297e-06)
(5.25361e-05 0.00208102 2.08357e-06)
(0.000147014 0.00209083 -8.33427e-07)
(0.000221689 0.00205324 3.39469e-06)
(2.67617e-05 0.00189974 -1.05889e-05)
(-4.22669e-05 0.000833605 -5.08359e-07)
(4.95033e-06 0.000253872 -1.85123e-07)
(-1.36942e-06 4.89259e-05 1.95332e-08)
(5.38292e-07 7.55617e-06 -1.14361e-08)
(-6.29555e-06 0.000230251 6.32456e-06)
(-1.87395e-05 0.0022797 8.1531e-07)
(1.11806e-05 0.00242689 4.24856e-06)
(2.13023e-05 0.00472428 -2.84988e-06)
(2.22868e-05 0.00596321 2.43855e-05)
(-3.60934e-05 0.0171014 1.75211e-05)
(-9.78165e-05 0.0129992 -1.2229e-05)
(-4.78283e-05 0.0102056 -2.43874e-05)
(-0.000109499 0.00807232 -2.49327e-05)
(-8.48206e-05 0.00679462 -1.07966e-05)
(-7.89245e-05 0.00343585 1.53163e-05)
(-6.44581e-05 0.00223187 -1.58454e-05)
(-5.51916e-05 0.00228346 0.000126035)
(-0.000107695 0.00207599 2.38311e-05)
(-3.68243e-05 0.00165737 1.78342e-05)
(-1.02424e-07 0.00217076 5.19786e-05)
(1.76331e-05 0.00218929 1.92506e-05)
(1.96963e-05 0.0021315 2.30972e-05)
(3.23497e-05 0.00215052 1.75973e-05)
(2.37309e-05 0.00207061 1.91623e-05)
(9.7801e-05 0.0020063 1.42945e-05)
(0.000125796 0.00204998 4.40707e-06)
(0.000214794 0.00182345 8.51446e-06)
(0.000141825 0.0010057 -1.63184e-06)
(-2.39719e-05 0.000394638 -3.92861e-07)
(2.96608e-06 0.000125201 -1.12989e-07)
(-3.30583e-07 2.46529e-05 -7.98444e-09)
(1.14445e-06 4.1758e-06 5.69417e-11)
(-4.04662e-06 2.1595e-05 2.00311e-05)
(-1.50023e-05 0.00231151 -1.56634e-06)
(7.42729e-06 0.00238077 2.63709e-06)
(1.45538e-05 0.00474718 -2.23884e-06)
(3.46371e-05 0.00600088 2.90892e-05)
(-1.67775e-06 0.0170122 3.91979e-06)
(-4.05892e-05 0.0127573 -2.32025e-05)
(8.02795e-06 0.0103607 -3.08486e-05)
(-2.79402e-05 0.00812771 -2.29844e-05)
(-2.94561e-05 0.00644378 -2.00508e-05)
(-1.33911e-05 0.00265615 1.08299e-05)
(-5.64287e-05 0.0024013 2.06938e-05)
(-0.00015211 0.00236109 1.04356e-05)
(-0.000122262 0.00249046 6.05815e-05)
(-1.6003e-05 0.00190274 4.90932e-05)
(-9.08438e-06 0.00256538 7.63107e-05)
(1.88412e-06 0.00252948 8.36013e-05)
(-6.6173e-06 0.00254643 7.99133e-05)
(3.46705e-07 0.00251038 8.28251e-05)
(-2.0127e-05 0.00251633 7.67912e-05)
(2.21397e-05 0.00248241 8.33823e-05)
(3.56989e-05 0.0024234 7.76719e-05)
(0.000110523 0.00165055 3.23622e-05)
(0.000124762 0.000349206 2.18221e-06)
(3.11815e-06 0.000158478 -4.83632e-08)
(2.00168e-06 4.78625e-05 3.22438e-08)
(4.79538e-07 8.7585e-06 -3.18998e-08)
(1.28467e-06 1.73593e-06 3.1041e-08)
(-1.07504e-06 1.66575e-05 2.85029e-05)
(-8.20169e-06 0.0023377 1.55952e-06)
(9.67658e-07 0.00230949 4.65307e-07)
(3.50666e-06 0.00476912 -1.04555e-06)
(3.75823e-05 0.00602379 3.02893e-05)
(1.79966e-05 0.0163449 -6.23886e-06)
(2.26423e-05 0.0126709 -2.71353e-05)
(5.92967e-05 0.010471 -2.86443e-05)
(7.51131e-05 0.0079777 -1.37736e-05)
(7.34959e-05 0.00584479 -1.14301e-05)
(4.37535e-05 0.00223933 2.19519e-05)
(2.78587e-06 0.00235912 1.19803e-06)
(6.20489e-05 0.00235757 -3.36185e-06)
(4.31056e-05 0.00247803 -1.42263e-05)
(4.58708e-06 0.00176948 -2.08922e-05)
(2.60122e-06 0.0022722 -2.13932e-05)
(-1.28196e-06 0.00247368 -2.11172e-05)
(-2.2978e-06 0.00247833 -2.20853e-05)
(-3.07914e-06 0.00247159 -1.8393e-05)
(-7.90637e-06 0.00247817 -1.50033e-05)
(6.31486e-07 0.00249264 -1.24468e-05)
(8.0869e-06 0.00212787 -6.931e-06)
(3.0145e-06 0.000965114 -2.84591e-07)
(3.19258e-07 0.000148425 -3.19061e-09)
(-3.25947e-07 4.29415e-05 2.79188e-08)
(-1.56058e-07 1.07753e-05 1.75544e-08)
(5.7232e-08 1.80472e-06 -4.73469e-08)
(-2.7008e-07 1.21032e-06 3.23074e-08)
(2.31506e-07 1.0751e-05 2.45188e-05)
(-3.57132e-06 0.00237264 6.98018e-06)
(-4.45083e-06 0.0022581 -6.39409e-07)
(-5.6546e-06 0.00478423 4.27447e-07)
(5.09171e-05 0.00602711 3.45714e-05)
(2.6897e-05 0.0162308 -6.69483e-06)
(5.85041e-05 0.0127597 -2.68093e-05)
(6.78487e-05 0.0105443 -2.38366e-05)
(9.30581e-05 0.00777296 -7.09449e-06)
(1.98458e-05 0.00507339 2.2664e-06)
(-3.33366e-05 0.00207418 1.3086e-06)
(6.81195e-06 0.00231024 1.46313e-05)
(-2.31079e-05 0.00227619 4.19948e-06)
(-1.76942e-05 0.00170257 2.98924e-07)
(-4.83682e-06 0.000701122 -1.32926e-07)
(-2.87602e-06 0.00117659 2.07649e-07)
(-3.71542e-06 0.00171381 7.46842e-07)
(-4.96275e-06 0.00224283 1.42374e-06)
(-4.06903e-07 0.00223998 8.76006e-07)
(-1.49978e-06 0.00193797 -1.37069e-06)
(8.4418e-06 0.00168728 9.76398e-08)
(1.38876e-05 0.000904625 -6.2232e-07)
(3.19547e-06 0.000200583 4.40905e-08)
(1.50586e-06 3.86262e-05 2.79788e-08)
(1.12016e-07 5.47844e-06 3.10635e-09)
(-4.3881e-07 1.12806e-06 1.67608e-08)
(-3.55587e-07 5.21582e-07 -1.42772e-08)
(-1.97536e-06 1.315e-06 5.60727e-08)
(1.41847e-06 4.8124e-06 1.88928e-05)
(5.17234e-07 0.00241846 1.85368e-05)
(-9.85087e-06 0.00225637 -1.40317e-06)
(-1.37524e-05 0.00479039 2.46969e-06)
(5.67483e-05 0.00602094 3.68213e-05)
(3.90961e-05 0.0169345 3.15421e-07)
(8.61363e-05 0.0130321 -2.0688e-05)
(0.000113487 0.0105966 -2.29337e-05)
(7.77026e-05 0.00760364 -1.65474e-05)
(-2.57176e-05 0.00413266 7.39887e-06)
(-7.55565e-05 0.00215536 -2.18266e-05)
(4.7039e-05 0.00230337 1.12332e-05)
(6.71669e-07 0.00230954 -7.69548e-06)
(5.05249e-06 0.000789271 7.20402e-07)
(8.52495e-07 0.000116233 -1.95016e-07)
(8.16193e-07 0.000366856 4.74297e-08)
(5.25877e-07 0.000747927 4.43635e-07)
(-8.19724e-07 0.00185366 3.76622e-07)
(-1.97919e-06 0.00233843 -8.81608e-07)
(-1.66715e-06 0.00131962 1.13029e-06)
(1.80421e-08 0.000698409 1.1878e-06)
(5.29657e-07 0.000213541 9.11647e-08)
(3.34695e-07 3.11932e-05 1.73702e-08)
(8.82492e-08 5.83011e-06 8.30351e-09)
(-1.17857e-07 1.45619e-06 4.37119e-09)
(-5.73543e-07 8.60237e-07 7.8208e-09)
(-5.42119e-07 1.28885e-06 -1.52743e-08)
(-2.15064e-06 1.32438e-06 5.89119e-08)
(2.53501e-06 1.95959e-06 1.01213e-05)
(2.06301e-06 0.00250634 3.9662e-05)
(-1.49619e-05 0.00226214 -1.48068e-06)
(-2.22172e-05 0.00478587 3.38933e-06)
(5.17343e-05 0.00601034 3.93921e-05)
(7.35699e-05 0.0175788 -1.74824e-06)
(0.0001229 0.0133566 -1.97881e-05)
(0.000169756 0.0106387 -2.70879e-05)
(3.09615e-05 0.00738898 -2.79936e-05)
(-3.23138e-05 0.00315669 1.00376e-05)
(-2.29245e-05 0.00232781 -1.38717e-05)
(2.57212e-06 0.00230266 1.53915e-05)
(-9.7599e-06 0.00230468 3.44748e-06)
(-9.02013e-07 0.00031114 -2.42952e-08)
(-3.58626e-07 2.36247e-05 1.19968e-07)
(-9.0414e-07 9.86442e-06 1.31877e-08)
(1.91181e-07 7.80397e-05 3.18019e-08)
(4.86761e-07 0.000716548 9.37354e-08)
(4.24235e-07 0.00173032 3.08361e-07)
(7.30779e-07 0.000570908 2.60762e-07)
(8.97874e-07 7.50287e-05 3.53207e-08)
(4.32772e-07 1.20267e-05 1.54993e-08)
(1.76133e-07 2.37595e-06 4.42458e-09)
(7.45095e-09 1.04919e-06 3.99577e-09)
(-1.67544e-07 9.93422e-07 4.80919e-09)
(-4.40176e-07 1.04562e-06 3.50453e-10)
(-6.98938e-07 2.12696e-06 -3.26666e-08)
(-1.19063e-06 1.00005e-06 1.47168e-07)
(3.9574e-06 1.99145e-06 4.6822e-06)
(-1.98491e-06 0.00268545 8.16258e-05)
(-1.6684e-05 0.0022562 -8.70613e-07)
(-2.45512e-05 0.00477375 3.20781e-06)
(4.20267e-05 0.00601086 4.13237e-05)
(8.61467e-05 0.0174887 -8.03047e-06)
(0.000126887 0.0134991 -1.83215e-05)
(0.000183044 0.0107398 -2.87609e-05)
(5.62371e-05 0.00693116 -3.23623e-05)
(-4.79509e-05 0.00248768 3.37172e-06)
(-2.40378e-05 0.00232774 -9.44831e-06)
(-1.08577e-05 0.00229868 5.61215e-06)
(-1.1465e-06 0.00205469 2.56318e-06)
(2.30665e-07 0.000250525 -1.66164e-07)
(1.57166e-07 1.3555e-05 1.01677e-07)
(-8.41654e-07 3.36362e-06 3.54182e-08)
(-7.7031e-08 8.61217e-06 2.02068e-08)
(1.46743e-07 7.9703e-05 3.97041e-08)
(4.59971e-07 0.000617231 1.87275e-07)
(2.38527e-07 0.000161199 1.07068e-07)
(-4.80516e-08 2.28683e-05 1.19839e-08)
(1.84051e-07 3.69308e-06 7.21173e-09)
(4.3153e-08 1.20005e-06 2.16936e-09)
(-3.56205e-08 9.98659e-07 4.60201e-11)
(-1.6995e-07 1.16676e-06 -8.80363e-10)
(-1.89971e-07 1.41339e-06 -1.9724e-09)
(-9.14476e-07 2.99726e-06 -2.07601e-08)
(-3.59162e-07 -2.51529e-06 3.4254e-07)
(4.22653e-06 1.89022e-06 1.45048e-06)
(-1.05485e-05 0.00320389 0.000203671)
(-1.85223e-05 0.00225049 -2.19999e-07)
(-2.59164e-05 0.00475588 4.4285e-06)
(3.25241e-05 0.00599032 3.86359e-05)
(0.00010356 0.0164735 -2.64187e-05)
(0.000160226 0.0132544 -3.12543e-05)
(0.000170416 0.0108175 -3.39171e-05)
(3.84186e-06 0.00604867 -3.36896e-05)
(-8.54733e-05 0.00221951 -6.43444e-06)
(-1.39036e-05 0.0023369 -1.04218e-05)
(-1.43884e-05 0.00231375 2.70462e-05)
(2.32903e-06 0.00125655 6.78469e-07)
(-2.34424e-06 8.64921e-05 1.78182e-07)
(-1.53524e-06 3.47273e-06 9.48183e-08)
(-9.41729e-07 7.93295e-07 5.80093e-08)
(-2.89152e-07 9.046e-07 2.62863e-08)
(-3.97844e-08 2.27821e-06 3.00361e-08)
(1.1877e-07 2.00164e-05 1.34212e-08)
(6.95596e-08 1.04022e-05 2.27785e-08)
(-2.61953e-08 1.57562e-06 -3.29721e-09)
(7.40411e-08 9.15223e-07 -3.25311e-09)
(-1.94534e-08 1.01608e-06 -4.32003e-09)
(-7.24496e-08 1.20579e-06 -5.00807e-09)
(-2.32465e-07 1.4912e-06 -7.56079e-09)
(-2.13901e-07 2.03777e-06 -2.6011e-08)
(-2.09421e-07 3.8802e-06 -2.90383e-08)
(1.1241e-07 -8.92926e-06 1.76598e-07)
(5.04937e-06 5.21622e-06 1.80222e-07)
(-2.30615e-05 0.005517 0.000703843)
(-1.63381e-05 0.00223252 6.07387e-07)
(-1.96579e-05 0.00474399 5.91063e-06)
(1.48561e-05 0.00612759 2.50238e-05)
(0.000117628 0.0156034 -1.18904e-05)
(0.000194576 0.0130139 -2.13301e-05)
(0.000235053 0.0108275 -2.83961e-05)
(0.000141043 0.00496116 -2.87052e-05)
(-4.20439e-05 0.0022598 -4.44387e-06)
(-2.85123e-05 0.00118141 -6.56831e-06)
(2.57718e-05 0.00113837 0.000451443)
(-2.02709e-06 0.000358663 5.85205e-07)
(-1.55383e-06 2.73838e-06 1.04181e-08)
(-6.27758e-07 -2.34089e-06 3.17245e-08)
(-4.22344e-07 -9.22892e-07 7.66335e-09)
(-1.75126e-07 3.14283e-09 2.50071e-09)
(-8.18587e-08 5.81441e-07 1.71626e-09)
(-3.62735e-08 4.47489e-06 2.95599e-10)
(-5.35e-08 3.07969e-06 -4.34787e-09)
(-2.92264e-08 1.03574e-06 -1.06325e-08)