/*--------------------------------*- C++ -*----------------------------------*\
| =========                 |                                                 |
| \\      /  F ield         | OpenFOAM: The Open Source CFD Toolbox           |
|  \\    /   O peration     | Version:  2.3.0                                 |
|   \\  /    A nd           | Web:      www.OpenFOAM.org                      |
|    \\/     M anipulation  |                                                 |
\*---------------------------------------------------------------------------*/
FoamFile
{
    version     2.0;
    format      ascii;
    class       volScalarField;
    location    "0.218";
    object      p_rgh;
}
// * * * * * * * * * * * * * * * * * * * * * * * * * * * * * * * * * * * * * //

dimensions      [1 -1 -2 0 0 0 0];

internalField   nonuniform List<scalar> 
545
(
-8.43249e+07
-1.56295e+07
-2.1965e+06
-2.85034e+06
-9.15805e+06
6.04887e+07
-3.26553e+06
-2.57468e+06
-2.74759e+06
-7.46085e+06
1.05259e+08
3.67967e+06
-493788
-554629
-7.82028e+06
6.10197e+07
-3.45456e+06
-2.07395e+06
-249466
-6.96247e+06
-9.70139e+07
-2.57431e+06
-589106
4.35077e+06
1.23498e+07
-7.74707e+06
-1.95277e+06
-769971
-43301.1
76321.5
81918.1
56130.1
40438.9
31137.7
24353.3
20328.8
16918
14658.6
11674.6
10242.9
8118.41
7332.47
5889.79
5892.87
4584.47
4360.56
3368.55
4349.77
4770.75
6904.67
7726.5
9714.82
9899.96
10780.2
10078.6
10554.6
9673.91
10153.6
8942.96
8841.08
6769.3
5846
3675.21
3053.09
1704.74
2265.71
1544.94
2538.01
1965.46
2915.67
-6.89467e+06
-1.22423e+06
-728794
-171350
-33490.9
25444.3
32819
32520.8
28537.4
24032.9
20129.1
17274.9
14580.3
11946.7
9909.42
8315.88
7045
6178.87
5545.22
4837.94
4011.99
3692.67
4067.87
5160.08
6634.01
8158.76
9444.51
10322.1
10420.5
10461.6
10197.9
10104.8
9827.14
9387.54
8453.17
7189.98
5370.43
4016.14
2595.9
2102.53
1846.75
1938.41
1991.57
1807.83
429.466
-8.19183e+06
-591151
-398679
-25188.7
9289.35
34355.4
32338
30992.7
28069.2
23877.6
20509.4
17105.8
14859.3
11694.6
10010.7
7929.66
7232.18
5823.79
5657.08
4466.24
4248.31
3469.87
4444.8
4955.32
7006.81
7903.93
9781.66
10053
10671.4
10119.9
10490.7
9794.92
10175.5
9056.23
8767.21
6855.19
5621.37
3694.38
2893.29
1779.08
2170.34
1543.81
2162.19
1396.47
1848.64
-8.69869e+06
652996
241753
226844
94502.1
59179
37651.7
31553.4
28292.7
24161.5
20840.3
17079.3
14860.4
11675.4
9932.03
7746.43
7079.89
5629.93
5446.58
4389.5
4235.57
3582.3
4534.83
5069.55
7040.66
7952.18
9735.72
10142.6
10498.1
10143.8
10381.9
9836.9
10089.3
9074.55
8630.74
6954.48
5412.83
3886.76
2719.05
1901.58
2066.93
1507.98
1956.25
817.74
-241.748
-1.57426e+06
3.45015e+06
1.25669e+06
426618
118551
54452.2
35136.7
30539.8
28567.8
24039.1
21585
16620.6
15331.3
11300.2
10378.8
7043.15
7417.57
4847.03
5765.09
3838.89
4799.71
3175.58
5234.58
4567.56
7708.41
7334.63
10248.6
9725.43
10823.1
9635.45
10899.1
9246.89
10659.3
8314.59
9078.73
6455.62
5671.39
3664.25
3043.44
1525.57
2702.15
877.754
2455.93
321.205
1778.78
-1.29986e+07
5.25093e+06
2.01232e+06
538528
122519
47700.5
30638.5
29692.7
28224.6
27922.7
24335.7
21944.7
17905.2
14886.4
9722.03
8297.98
10005.8
10211.2
7622.9
7541.42
6988.28
6242.59
4543.12
6538.93
10367.6
12851.7
12665.6
12407.1
14639.1
13751.5
10595.2
10236.4
9674.48
9710.26
12066.6
12678
11669.2
7381.46
8832.59
7385.29
5823.63
2456.33
1522.75
1276.78
56.4504
-9.70131e+07
-2.57251e+06
-586114
4.35386e+06
1.23509e+07
6.10206e+07
-3.45304e+06
-2.07159e+06
-246881
-6.96102e+06
1.0526e+08
3.68075e+06
-492216
-552642
-7.81845e+06
6.04897e+07
-3.26501e+06
-2.57383e+06
-2.74631e+06
-7.459e+06
-8.4324e+07
-1.56294e+07
-2.19613e+06
-2.84966e+06
-9.15615e+06
-1.57464e+06
3.4517e+06
1.25576e+06
427778
117881
55973.1
34222.4
31900.9
27760.6
25679.4
20929.3
18031.5
14326.2
12607.8
9043.74
7990.37
5855.23
5721.02
4332.37
5015.51
3665.75
4616.75
4075.08
6041.73
6567.13
8623.93
8940.2
10881
9426.3
10819.8
9492.79
10647.3
9226.13
9618.27
7685.77
7554.66
4379.34
4952.56
1874.66
2873.91
1526.95
2367.75
1079.62
1965.49
595.442
-8.69809e+06
654415
241351
227771
94599.2
60590.9
37446.7
32595
28490.4
25931
21306.2
18301.4
14535.9
12570.7
9081.41
7821.13
5676.23
5631.63
4324.45
4945.18
3757.83
4656.61
4189.27
6114.89
6571.19
8707.65
8920.61
10592.8
9520.33
10659.3
9557.07
10584.2
9252.04
9643.94
7643.81
7359.51
4595.88
4650.26
2199.69
2812.85
1574.99
2439.84
1280.43
1762.72
-882.634
-8.19034e+06
-589854
-398484
-24578.7
9895.99
35435.2
32753.2
31879.2
29178.1
25839.5
22014.1
18235.7
15150.3
12182
9522.4
7299.83
6040.62
5122.27
4797.7
4453.76
4312.94
4237.08
4815.45
5663.57
7114.32
8187.94
9379.76
9881
10054.3
10063.3
10163.8
9987.13
9810.08
8982.71
8119.47
6653.39
5219.96
3984.71
2947.25
2317.79
2266.34
1995.4
2034.85
1780.44
1748.56
-6.89289e+06
-1.22298e+06
-728148
-170634
-32671.2
26360.7
33578.8
33540.4
30112.4
26312.9
22257.1
18578.6
15214.8
12274.5
9434.7
7373.3
5925.69
5212.34
4701.32
4547.33
4243.77
4411.88
4791.29
5843.4
6996.76
8287.87
9153.48
9875.3
9870.74
10173.8
10033.1
10090
9591.31
9027.42
7861.73
6722
5065.17
4121.44
2876.01
2568.37
2198.55
2227.62
2053.44
1931.82
431.971
-7.74509e+06
-1.95163e+06
-768894
-42391.9
77242.3
82782.4
57078.9
41590.4
32915.3
26795.6
22693.8
18392.2
15497.1
11940.7
9709.98
7087.79
6267.89
4878.28
5032.36
4170.57
4595.87
4077.16
5212.2
5502.43
7369.22
7827.06
9442.8
9361.32
10224.4
9709.79
10418.9
9584.56
9927.03
8481.38
8237.04
6208.71
5527.48
3709.81
3388.33
2183.9
2698.5
1806.3
2629.55
2010.21
2986.1
)
;

boundaryField
{
    AirInlet
    {
        type            fixedFluxPressure;
        gradient        uniform 2.31274e+08;
        value           uniform -1.29963e+07;
    }
    WaterInlet
    {
        type            fixedFluxPressure;
        gradient        nonuniform List<scalar> 10(-0.0206493 -0.12136 0 0 -0.0237831 -0.0237831 -0.266894 -0.0420373 0 -0.0619478);
        value           nonuniform List<scalar> 10(-8.43249e+07 6.04887e+07 1.05259e+08 6.10197e+07 -9.70139e+07 -9.70131e+07 6.10206e+07 1.0526e+08 6.04897e+07 -8.4324e+07);
    }
    ChannelWall
    {
        type            fixedFluxPressure;
        gradient        uniform 0;
        value           nonuniform List<scalar> 
110
(
-9.70139e+07
-2.57431e+06
-589106
4.35077e+06
1.23498e+07
-9.70131e+07
-2.57251e+06
-586114
4.35386e+06
1.23509e+07
-8.4324e+07
-1.56294e+07
-2.19613e+06
-2.84966e+06
-9.15615e+06
-7.74509e+06
-1.95163e+06
-768894
-42391.9
77242.3
82782.4
57078.9
41590.4
32915.3
26795.6
22693.8
18392.2
15497.1
11940.7
9709.98
7087.79
6267.89
4878.28
5032.36
4170.57
4595.87
4077.16
5212.2
5502.43
7369.22
7827.06
9442.8
9361.32
10224.4
9709.79
10418.9
9584.56
9927.03
8481.38
8237.04
6208.71
5527.48
3709.81
3388.33
2183.9
2698.5
1806.3
2629.55
2010.21
2986.1
-8.43249e+07
-1.56295e+07
-2.1965e+06
-2.85034e+06
-9.15805e+06
-7.74707e+06
-1.95277e+06
-769971
-43301.1
76321.5
81918.1
56130.1
40438.9
31137.7
24353.3
20328.8
16918
14658.6
11674.6
10242.9
8118.41
7332.47
5889.79
5892.87
4584.47
4360.56
3368.55
4349.77
4770.75
6904.67
7726.5
9714.82
9899.96
10780.2
10078.6
10554.6
9673.91
10153.6
8942.96
8841.08
6769.3
5846
3675.21
3053.09
1704.74
2265.71
1544.94
2538.01
1965.46
2915.67
)
;
    }
    Outlet
    {
        type            totalPressure;
        rho             rho;
        psi             none;
        gamma           1;
        p0              uniform 0;
        value           uniform 0;
    }
    FrontAndBack
    {
        type            empty;
    }
}


// ************************************************************************* //
