/*--------------------------------*- C++ -*----------------------------------*\
| =========                 |                                                 |
| \\      /  F ield         | OpenFOAM: The Open Source CFD Toolbox           |
|  \\    /   O peration     | Version:  2.3.0                                 |
|   \\  /    A nd           | Web:      www.OpenFOAM.org                      |
|    \\/     M anipulation  |                                                 |
\*---------------------------------------------------------------------------*/
FoamFile
{
    version     2.0;
    format      ascii;
    class       volVectorField;
    location    "2.20152";
    object      U.waterMean;
}
// * * * * * * * * * * * * * * * * * * * * * * * * * * * * * * * * * * * * * //

dimensions      [0 1 -1 0 0 0 0];

internalField   nonuniform List<vector> 
1000
(
(0.01148 -0.0295615 0.000768905)
(0.0231035 -0.0197181 0.000859344)
(0.0245731 -0.0148235 0.00161077)
(0.0266533 -0.012628 0.000984788)
(0.0288711 -0.0156693 0.000680898)
(0.0245856 -0.018295 0.00154044)
(0.0170348 -0.0188054 0.0022872)
(0.00851637 -0.0138106 0.00291343)
(-0.00696753 -0.0174734 0.00245673)
(-0.00471039 -0.0332204 0.00214434)
(-0.00476933 -0.0242336 0.00275846)
(-0.0125236 -0.00938691 0.00208247)
(-0.0222216 -0.0131712 0.00209185)
(-0.0283836 -0.016677 0.0013266)
(-0.0330167 -0.0176709 0.00119313)
(-0.0323359 -0.0147451 0.000211558)
(-0.0261309 -0.0109132 0.000674252)
(-0.0226022 -0.0135404 0.00147713)
(-0.0206783 -0.0190935 0.00076264)
(-0.0102624 -0.0281163 0.00060459)
(0.00635038 -0.0273706 0.000105285)
(0.0206032 -0.00983006 0.000444731)
(0.0224912 -0.00840664 0.000461696)
(0.0296323 -0.00824863 0.00064334)
(0.0319727 -0.0101842 -0.000538168)
(0.0289453 -0.00935737 -0.000825519)
(0.0214397 -0.0111348 -0.000558775)
(0.015269 -0.0109299 -0.000419636)
(0.00280301 -0.0136954 -0.000160466)
(-0.00858725 -0.0226566 -0.000436988)
(-0.0159927 -0.0163698 -0.000615538)
(-0.0232966 -0.00635316 -0.000116451)
(-0.0273054 -0.00790774 -8.0343e-05)
(-0.0356161 -0.0094807 -0.000315464)
(-0.039861 -0.012119 -0.00113018)
(-0.0378562 -0.0134923 -0.000370606)
(-0.031505 -0.0108527 0.000432554)
(-0.0215508 -0.00912525 0.000312506)
(-0.0184563 -0.00972816 0.000323296)
(-0.00505198 -0.0224983 3.1421e-05)
(0.00234435 -0.0410375 -0.000559738)
(0.0128001 -0.0197146 -0.000716932)
(0.0190924 -0.0204027 -0.000780886)
(0.0290562 -0.0189485 -0.00024657)
(0.0307585 -0.0112566 -0.000453357)
(0.0259078 -0.00101295 -0.000609499)
(0.0166417 0.00263404 -0.00116927)
(0.0109414 0.00632825 -0.00140504)
(0.00121283 0.000352078 -0.000823405)
(-0.00475597 -0.0152974 -0.00106023)
(-0.00708177 -0.00379482 -0.00131644)
(-0.0153147 -0.00394277 -0.000783444)
(-0.0257594 -0.00102589 -0.000800332)
(-0.0355199 -0.00271499 -0.00119338)
(-0.0418662 -0.00838632 -0.000848492)
(-0.0426431 -0.0181923 -0.000277573)
(-0.035526 -0.0242522 -0.000846153)
(-0.0203625 -0.0207434 -0.00135428)
(-0.0123728 -0.0190411 -0.000843097)
(-0.00171474 -0.032566 -0.000437694)
(-0.00136566 -0.0392339 -0.000192045)
(0.00525748 -0.022651 -0.000600914)
(0.019239 -0.024689 -0.00059683)
(0.026127 -0.0174984 -0.000205381)
(0.0261589 -0.00566083 -5.54855e-05)
(0.0194998 0.00996229 -0.000575317)
(0.0110917 0.0136372 -0.000843136)
(0.00685312 0.0196283 -0.00108968)
(0.00340367 0.00921723 -0.000468377)
(-0.00087748 -0.00685244 -0.00050839)
(-0.00176865 0.00533945 -0.00112624)
(-0.0133711 0.0110536 -0.00144723)
(-0.0231394 0.0124528 -0.00124389)
(-0.0301596 0.00988416 -0.00128991)
(-0.0394324 -0.00173083 -0.00055965)
(-0.0420274 -0.0162 -0.000250822)
(-0.0365306 -0.0264641 -0.000263079)
(-0.0245878 -0.027224 -0.000820432)
(-0.00770357 -0.0213608 -0.000771495)
(0.000258148 -0.0313786 -0.000266044)
(0.000522001 -0.0404862 1.34572e-05)
(0.0084884 -0.0308117 -0.000679903)
(0.0195569 -0.0301698 0.000410666)
(0.0196566 -0.0163972 0.000252721)
(0.0160749 0.000697221 -0.000115601)
(0.00948884 0.0189844 -0.000535641)
(0.00566708 0.0221323 -0.00054258)
(0.00325022 0.027479 -0.000345613)
(0.00600744 0.0160413 -0.000168118)
(0.00242648 0.000512607 -1.97558e-05)
(-0.00189262 0.0152891 -0.000467248)
(-0.0100429 0.0279651 -0.00110433)
(-0.0153968 0.0225193 -0.000958028)
(-0.0189967 0.022006 -0.00101268)
(-0.0270424 0.00440422 4.92735e-05)
(-0.0326868 -0.0155357 0.000286356)
(-0.0327515 -0.0316455 0.000634305)
(-0.0250135 -0.0391891 0.000118107)
(-0.0118993 -0.0336511 -0.000607048)
(-0.0020029 -0.0353239 9.20574e-05)
(0.000511419 -0.0408516 7.05476e-05)
(0.0066986 -0.0380967 1.04879e-05)
(0.0105981 -0.0336041 0.000643436)
(0.00947571 -0.0104869 0.000283105)
(0.00170104 0.0117225 -0.000157557)
(-0.000228665 0.0250863 -0.000406012)
(-0.000105489 0.0273307 -0.000327892)
(-0.000460239 0.0305602 -5.6474e-05)
(0.00598277 0.0186138 -0.000254556)
(0.00536359 0.0079824 0.000101161)
(0.000130936 0.0249852 -0.000158394)
(-0.00465162 0.0411106 -0.00052092)
(-0.00548939 0.0317541 -0.000559483)
(-0.00591209 0.0333386 -0.000681891)
(-0.0108717 0.0156657 0.000188059)
(-0.0167383 -0.00651562 0.000435849)
(-0.0241465 -0.0331708 0.00100286)
(-0.0172765 -0.0464979 0.000523337)
(-0.0102497 -0.0424247 0.000158886)
(-0.00248571 -0.0393342 8.32637e-05)
(0.00066688 -0.0418371 0.000150828)
(0.00182514 -0.0406873 0.000215747)
(0.000303625 -0.0317754 0.000194232)
(-0.00381847 -0.00479733 -3.67285e-05)
(-0.00662483 0.013193 -5.96284e-05)
(-0.00544773 0.0248873 -0.000135334)
(-0.00364177 0.0275691 -0.000124381)
(-0.00135405 0.0288196 -8.96242e-05)
(0.00528374 0.0154654 -0.000103132)
(0.00600323 0.0120136 7.89093e-05)
(0.00238568 0.0307812 -5.18652e-05)
(0.000145584 0.0470245 -0.000180477)
(0.00182898 0.0337113 -0.000158993)
(0.00364755 0.0363529 -0.000318764)
(0.00346063 0.0203536 0.0001623)
(0.00121884 -0.00127899 4.49589e-05)
(-0.00836382 -0.032196 0.000363611)
(-0.0069049 -0.0500825 0.000373454)
(-0.00592381 -0.0475014 0.000230763)
(-0.00186555 -0.0429975 0.000156328)
(-4.65494e-05 -0.0415871 0.000154335)
(-0.00106498 -0.040028 0.000181241)
(-0.00385939 -0.0287869 -0.000131184)
(-0.00713423 -0.00103099 -0.00016943)
(-0.00729591 0.0126237 -0.000126852)
(-0.00619032 0.0231539 -0.000114317)
(-0.00468541 0.0255592 -1.90688e-05)
(0.000668078 0.0256843 -0.000242741)
(0.00550648 0.0119451 -5.74898e-05)
(0.00592791 0.0146906 2.83404e-05)
(0.00359866 0.0342027 1.71634e-05)
(0.00335461 0.0483581 -5.97329e-05)
(0.00473811 0.0323869 1.84984e-05)
(0.00646844 0.0350885 -0.000153042)
(0.00742558 0.0190376 3.89782e-05)
(0.00542099 0.00223024 -0.000109254)
(0.00143616 -0.0290119 1.20614e-06)
(-0.000672878 -0.049389 0.000160881)
(-0.00194108 -0.0488045 0.000252389)
(-0.000918915 -0.0445993 0.000173875)
(-0.000184556 -0.0410217 0.000147161)
(-0.00144678 -0.0385732 0.000125475)
(-0.00375327 -0.023926 -5.84944e-05)
(-0.00606057 0.00346849 -0.000204415)
(-0.00571759 0.0132856 -0.00011486)
(-0.00531454 0.0228654 -0.000121448)
(-0.00410116 0.023683 -3.90656e-05)
(0.000966306 0.0233836 -0.000252953)
(0.00436878 0.0116948 -0.000253357)
(0.00565879 0.0185617 -9.69807e-05)
(0.00359849 0.0365654 -6.49689e-06)
(0.00454084 0.0488367 4.40606e-05)
(0.005523 0.0324274 7.88573e-05)
(0.00633462 0.0348616 -2.88634e-06)
(0.00812309 0.0204301 -4.91906e-05)
(0.00339856 0.00555193 -5.38087e-05)
(0.00484406 -0.0232464 -0.000112239)
(0.00167841 -0.0470866 5.49473e-05)
(-0.000131279 -0.0489586 0.000163504)
(-0.000267103 -0.0451456 0.000159742)
(-9.76264e-05 -0.0406362 0.000133178)
(-0.000280822 -0.0377428 1.1647e-05)
(-0.000666749 -0.0221999 1.309e-05)
(-0.00189799 0.00511227 -6.94302e-05)
(-0.00218899 0.0136132 -5.4914e-05)
(-0.00306816 0.0216352 -2.39119e-05)
(-0.00262425 0.0203756 -2.32119e-05)
(8.95516e-05 0.0201113 -0.000130948)
(0.00136078 0.00721238 -8.60041e-05)
(0.00433447 0.0194052 -6.5663e-05)
(0.00248993 0.037105 5.91693e-05)
(0.00348912 0.0465486 0.000115156)
(0.00421152 0.030309 0.000146235)
(0.00499673 0.0327519 2.36231e-05)
(0.00530755 0.0207278 -1.49257e-05)
(0.00152484 0.00919823 4.74337e-06)
(0.000781496 -0.023422 7.42251e-05)
(0.000349121 -0.0452888 -4.47392e-05)
(0.000113707 -0.048513 3.93433e-05)
(-5.00128e-05 -0.0453076 0.000168629)
(0.013093 -0.0298905 0.00125166)
(0.0236219 -0.0204558 0.00128026)
(0.0243038 -0.0154574 0.00141491)
(0.0268931 -0.0133269 0.00133305)
(0.0283254 -0.00729956 0.00241164)
(0.0235259 -0.00475789 0.00421053)
(0.0154303 -0.00272312 0.00335869)
(0.00690867 0.000952474 0.00389089)
(-0.008548 -0.00135376 0.00394008)
(-0.00487375 -0.0175558 0.00443915)
(-5.21611e-05 -0.0102613 0.00325082)
(-0.00844695 0.00333308 0.00354831)
(-0.0215958 -0.00217899 0.00236294)
(-0.027012 -0.00650321 0.00465888)
(-0.0309816 -0.00807354 0.00352721)
(-0.0299301 -0.0081857 0.00274543)
(-0.0258973 -0.0128446 0.00114541)
(-0.0218366 -0.0147095 0.00130219)
(-0.0207811 -0.0198187 0.00119669)
(-0.0114517 -0.0286081 0.000982242)
(0.00865134 -0.0134546 -0.000175629)
(0.0212148 0.00354931 0.000317714)
(0.0229271 0.00513052 0.000496666)
(0.0297698 0.00592872 0.00129363)
(0.0301935 0.00939979 0.0021254)
(0.0252055 0.0171572 0.00176054)
(0.0158109 0.0238065 0.00240039)
(0.00752263 0.0322445 0.00312912)
(-0.00339594 0.0219122 0.00380614)
(-0.00658183 0.00984379 0.00315919)
(-0.0104257 0.0252619 0.00256809)
(-0.0183236 0.0222747 0.00306263)
(-0.0239775 0.0232714 0.00304147)
(-0.0298712 0.0105309 0.00202394)
(-0.0341718 0.0123217 0.00154286)
(-0.034891 0.0037263 0.0016514)
(-0.0312149 0.00155537 0.00114176)
(-0.0220676 0.00387002 0.000317069)
(-0.0190575 0.00352894 0.000257123)
(-0.00680923 -0.0112695 -0.000545876)
(0.00309181 -0.040588 -0.0009694)
(0.0141547 -0.0104814 -0.000868464)
(0.0192958 -0.00810296 -0.0008645)
(0.0291048 -0.00287467 -0.000683855)
(0.0308219 0.00739106 -0.000709886)
(0.026048 0.0185546 -0.000446322)
(0.0170459 0.02445 -0.000749877)
(0.00897692 0.0348117 -0.00108191)
(0.000273015 0.0254512 -0.00047919)
(-0.00245233 0.00779221 -0.000464323)
(-0.00544701 0.0213621 -0.000423864)
(-0.0157778 0.0240745 0.00140557)
(-0.0230573 0.0232213 0.000683685)
(-0.0336718 0.0171034 0.000673104)
(-0.0419 0.00719697 -4.53644e-05)
(-0.0421456 -0.00255962 -0.000185985)
(-0.035336 -0.0134204 -0.00113344)
(-0.0207825 -0.0122064 -0.00141878)
(-0.0141331 -0.0111519 -0.000983703)
(-0.00245147 -0.0342788 -0.00082682)
(-0.000613799 -0.0439003 -0.00049802)
(0.00601991 -0.0188296 -0.000968473)
(0.0190111 -0.0206801 -0.00144458)
(0.0263404 -0.00770363 -0.00107246)
(0.0265205 0.00931882 -0.000751408)
(0.0206201 0.0273395 -0.00107539)
(0.0122824 0.0322052 -0.0012133)
(0.00677646 0.0435783 -0.00173855)
(0.00310343 0.0309912 -0.00125431)
(0.000894507 0.0102274 -0.00121369)
(0.000739828 0.0277436 -0.00140001)
(-0.0120937 0.0449855 -0.000730483)
(-0.021292 0.0365921 -0.00134918)
(-0.0322816 0.0363573 -0.000767479)
(-0.0411352 0.0108635 -0.000779256)
(-0.0432085 -0.00579 -0.00102241)
(-0.0375183 -0.0262924 -0.00108855)
(-0.0243457 -0.0299911 -0.00148705)
(-0.00865245 -0.0207587 -0.00111974)
(-0.000429705 -0.0389975 -0.000520092)
(-9.35119e-05 -0.0481196 -0.000615123)
(0.0073345 -0.0316629 -0.00109336)
(0.019874 -0.0324302 -0.000210763)
(0.0217211 -0.012245 -0.000351133)
(0.0177176 0.0126614 -0.000595293)
(0.0112792 0.0330779 -0.000988011)
(0.00600169 0.0375407 -0.000960414)
(0.00321917 0.0475277 -0.00123988)
(0.00689804 0.0334981 -0.00107482)
(0.00383227 0.0103408 -0.000749631)
(0.000419595 0.0319051 -0.00103018)
(-0.0085873 0.0563318 -0.00158583)
(-0.0151351 0.0430546 -0.00167917)
(-0.022642 0.0426197 -0.00145593)
(-0.0300105 0.0134915 -0.000498398)
(-0.0358583 -0.00945089 -0.000519605)
(-0.0340937 -0.0356792 9.08063e-05)
(-0.0241085 -0.0483211 -0.000443077)
(-0.0111615 -0.0403646 -0.000995935)
(-0.00176188 -0.0462336 -0.000334507)
(0.00014808 -0.0506017 -0.000178775)
(0.00550459 -0.0457003 -0.000413947)
(0.0112773 -0.0363127 0.000347335)
(0.0106737 -0.00458563 2.10755e-05)
(0.00324347 0.0211458 -0.000301377)
(0.000803921 0.0365907 -0.000587149)
(-5.79365e-05 0.040127 -0.000581225)
(-0.000708453 0.047087 -0.000796639)
(0.0076914 0.0315929 -0.00100142)
(0.00632119 0.0173879 -0.000279648)
(0.000562612 0.0389212 -0.000610784)
(-0.00409877 0.0630151 -0.00140998)
(-0.00562031 0.0477001 -0.00116488)
(-0.00865385 0.0482825 -0.00118216)
(-0.0132161 0.0236914 -0.000171387)
(-0.0181481 0.000179776 -3.37824e-05)
(-0.0249647 -0.033766 0.000693244)
(-0.0158127 -0.0560148 -3.6266e-05)
(-0.0092038 -0.0538674 -0.000232952)
(-0.00216792 -0.0509963 -0.000156499)
(0.000357985 -0.051338 -0.000101409)
(0.00122051 -0.0492199 -9.04373e-05)
(0.000324517 -0.0319321 0.000118509)
(-0.00471431 0.00185477 -0.000105346)
(-0.00693663 0.0222068 -0.000109322)
(-0.00535038 0.0350987 -0.00025935)
(-0.00351462 0.0387395 -0.000374114)
(-0.00172932 0.0419004 -0.000550709)
(0.00650549 0.0233132 -0.000697839)
(0.00703408 0.0211554 -0.000301108)
(0.00198055 0.043683 -0.000401963)
(-9.6351e-06 0.0648878 -0.000949143)
(0.00146217 0.0473691 -0.00058379)
(0.00234356 0.0486762 -0.000649177)
(0.00295246 0.0286498 -1.71646e-05)
(0.00152178 0.0055567 7.12769e-06)
(-0.00829695 -0.0285427 0.000325363)
(-0.00544472 -0.0585682 -3.51524e-05)
(-0.0048372 -0.0594307 -0.000154351)
(-0.00150243 -0.0547432 -0.000122902)
(-0.000232819 -0.0511648 -9.82994e-05)
(-0.00133231 -0.0487643 -9.8724e-05)
(-0.00418789 -0.0301823 -0.000287906)
(-0.00837195 0.00456859 -0.000238244)
(-0.00808601 0.0202956 -0.000177012)
(-0.00656094 0.0319413 -0.000196972)
(-0.00456292 0.0349146 -0.00025526)
(0.00125826 0.0352547 -0.000512095)
(0.00618619 0.017177 -0.00028609)
(0.00601231 0.0241416 -0.000266183)
(0.00277015 0.0465506 -0.000243124)
(0.00287417 0.0633669 -0.000494716)
(0.00432051 0.0446348 -0.000307031)
(0.00601974 0.0452392 -0.000331497)
(0.00784095 0.026691 -3.9889e-05)
(0.00671997 0.0084302 -5.53944e-05)
(0.00261511 -0.0250336 -0.000175036)
(2.69806e-05 -0.0582804 -0.000194619)
(-0.00129129 -0.060587 -0.000102769)
(-0.000635535 -0.0561674 -0.000114429)
(-0.00025471 -0.0505849 -6.95969e-05)
(-0.00140447 -0.0475787 -7.15515e-05)
(-0.00402156 -0.0269698 -0.000215751)
(-0.00717157 0.00751844 -0.000240501)
(-0.00661725 0.0193117 -0.000125147)
(-0.0057178 0.0300134 -0.000141604)
(-0.00393361 0.0310858 -0.00013795)
(0.00213347 0.0299521 -0.000347606)
(0.00487513 0.0157474 -0.000330788)
(0.00545827 0.0272603 -0.0002098)
(0.00255534 0.0481396 -0.000208057)
(0.00427717 0.0621777 -0.00031399)
(0.00525341 0.0436002 -0.000225647)
(0.00625643 0.043831 -0.000132269)
(0.00886472 0.0272298 -4.62102e-05)
(0.00481137 0.0109023 -7.92931e-07)
(0.0066983 -0.0200132 -0.000369642)
(0.00188121 -0.057002 -0.000204442)
(-4.70487e-06 -0.0608665 -7.55227e-05)
(-0.000185706 -0.0567392 -8.88664e-05)
(-0.000100522 -0.0502419 -5.25704e-05)
(-0.000255233 -0.0469348 -1.13597e-05)
(-0.000707634 -0.0262763 1.68688e-05)
(-0.00244186 0.00795589 -3.24549e-05)
(-0.00280733 0.018554 3.06005e-05)
(-0.00325766 0.0276104 6.2757e-05)
(-0.00239508 0.0262127 3.97249e-05)
(0.000849891 0.0247785 -6.95955e-05)
(0.00152758 0.00900422 -4.33895e-05)
(0.00374858 0.0282628 -7.83769e-05)
(0.00153533 0.0479756 7.37311e-06)
(0.00323351 0.05808 -3.13063e-05)
(0.00408556 0.0404601 1.15291e-06)
(0.00503796 0.0406714 1.47401e-05)
(0.00590019 0.026942 7.79963e-05)
(0.00272096 0.014526 4.51295e-05)
(0.00135285 -0.0223959 -6.1601e-05)
(0.000352978 -0.0561453 -1.10518e-05)
(0.000123049 -0.0604099 -4.11383e-06)
(-1.70245e-05 -0.0567988 -6.85203e-05)
(0.0150295 -0.0249662 -3.47613e-06)
(0.0250357 -0.0170438 -2.75542e-06)
(0.0272377 -0.0153328 -4.80817e-06)
(0.0295586 -0.0426932 0.000165555)
(0.0316994 -0.0669295 -4.51931e-05)
(0.0274285 -0.0331795 0.000193316)
(0.0199202 -0.0461245 -1.54171e-05)
(0.0130013 -0.0404832 0.000220762)
(-0.00552968 -0.0487285 -0.000222278)
(0.00822925 -0.0622458 0.000120067)
(0.00947852 -0.0448163 -2.99138e-05)
(-0.00639955 -0.0315348 7.26813e-05)
(-0.0260839 -0.0339788 -0.000160485)
(-0.0337501 -0.0255226 -0.000146189)
(-0.0368166 -0.0363082 -0.000179258)
(-0.0387739 -0.0506974 -0.000277205)
(-0.0279269 -0.0423878 6.14425e-05)
(-0.0244646 -0.0149268 -8.681e-06)
(-0.0221355 -0.0165712 -3.84652e-06)
(-0.0130377 -0.0242842 -1.57494e-06)
(0.0116245 -0.000618784 2.59044e-06)
(0.022066 0.0178789 2.01303e-06)
(0.02373 0.0141415 -3.31692e-06)
(0.0312914 0.0228096 -4.82299e-05)
(0.0345375 0.0332541 2.25034e-05)
(0.0305974 0.0438542 -8.37778e-05)
(0.0218736 0.0514499 3.26069e-05)
(0.0125015 0.0620238 -0.000214794)
(-0.000628447 0.0571586 0.000120754)
(0.000854998 0.0429222 -2.6267e-05)
(-0.00529993 0.0471669 4.4231e-05)
(-0.0179332 0.0579281 -5.96636e-05)
(-0.0218523 0.0386302 5.139e-05)
(-0.0279735 0.0513943 7.22907e-05)
(-0.0393698 0.034283 8.33992e-05)
(-0.0411 0.0231557 0.000123301)
(-0.032688 0.016564 -3.07145e-05)
(-0.0230851 0.0125771 2.53474e-06)
(-0.020045 0.0174487 -8.1528e-07)
(-0.0089124 -0.00324886 -5.39399e-07)
(0.00357554 -0.0399746 8.22508e-07)
(0.0149608 -0.00144958 1.99921e-07)
(0.0195186 0.00138727 3.96281e-06)
(0.0298912 0.0102653 -6.54256e-05)
(0.0330626 0.0238755 1.14285e-05)
(0.0284509 0.0482828 -6.96845e-05)
(0.018759 0.0549487 1.82297e-05)
(0.0104145 0.0757742 -0.000142572)
(0.000855218 0.0641977 9.15685e-05)
(0.000715383 0.0366052 -4.55523e-05)
(0.00119261 0.0594197 1.29002e-05)
(-0.0124758 0.0742055 1.60611e-05)
(-0.0237004 0.0610218 6.05533e-05)
(-0.0389343 0.0566855 3.38219e-05)
(-0.0474424 0.0337042 3.40638e-05)
(-0.0432584 0.0180356 8.13442e-05)
(-0.0360396 -0.00298063 -2.49187e-05)
(-0.0210486 -0.0057904 3.15231e-07)
(-0.01533 -0.00399229 1.35584e-06)
(-0.00303444 -0.0369854 1.29651e-06)
(-0.000176112 -0.0445956 3.64353e-07)
(0.00617348 -0.0145874 1.99458e-06)
(0.0186047 -0.0145699 -3.2434e-06)
(0.025997 0.00285173 1.10041e-05)
(0.0272483 0.020743 1.71834e-05)
(0.0224955 0.0466938 -2.19861e-07)
(0.0132052 0.0510131 1.71009e-05)
(0.00722651 0.0687646 -4.54227e-05)
(0.00233714 0.0559534 1.09172e-05)
(0.00229604 0.031395 -3.6306e-07)
(0.00581248 0.0516268 6.68047e-06)
(-0.00862331 0.0870873 -1.61524e-05)
(-0.0214878 0.0639337 1.43383e-05)
(-0.0371609 0.0697105 -6.91871e-06)
(-0.0445439 0.027263 -2.93551e-06)
(-0.0428845 0.00952396 6.21416e-06)
(-0.036449 -0.0201209 -4.93452e-06)
(-0.0232065 -0.0296219 -1.95766e-06)
(-0.00903962 -0.0190047 1.11453e-06)
(-0.000612253 -0.0423437 2.1034e-06)
(-0.000210459 -0.0508123 1.27006e-06)
(0.00668566 -0.0303147 -8.32066e-08)
(0.0198784 -0.03226 -3.7973e-07)
(0.0223737 -0.00699954 -6.13976e-06)
(0.0184437 0.0199741 -3.58469e-06)
(0.0128305 0.0435426 7.27517e-06)
(0.00647306 0.0479258 8.6555e-06)
(0.00359229 0.0621887 -9.94456e-06)
(0.00617052 0.0491361 -3.43594e-06)
(0.00469397 0.0198058 2.62118e-07)
(0.00434698 0.044838 4.02546e-06)
(-0.00605465 0.0859838 -1.08043e-06)
(-0.0153521 0.0599259 -5.36731e-06)
(-0.0269505 0.0670379 -1.60067e-05)
(-0.0324562 0.0223018 -7.61324e-06)
(-0.0370517 -0.000975397 -4.24962e-06)
(-0.0345825 -0.0350823 8.67558e-08)
(-0.0229698 -0.0517549 8.73182e-07)
(-0.0104682 -0.0417793 1.10218e-06)
(-0.00150777 -0.0512032 -1.11516e-06)
(-7.35052e-05 -0.0542022 1.08761e-07)
(0.00496566 -0.0483856 -1.07666e-07)
(0.0123315 -0.0363953 -7.03497e-07)
(0.0122132 -0.00227722 1.71753e-06)
(0.0046938 0.025322 -2.38692e-06)
(0.00176334 0.0426484 2.30142e-07)
(0.000163233 0.046723 1.52058e-06)
(-0.0007786 0.0569779 -5.85567e-06)
(0.00829138 0.0418305 -3.20604e-06)
(0.00704608 0.0220914 5.29053e-07)
(0.00251581 0.0466355 1.30069e-06)
(-0.00272039 0.0832832 9.39211e-06)
(-0.00587964 0.0572361 -4.21844e-06)
(-0.0116142 0.0641859 -4.68983e-07)
(-0.0151585 0.0286463 -1.33348e-06)
(-0.0209844 0.00408284 1.14789e-06)
(-0.0260573 -0.0327964 -1.38667e-06)
(-0.0150299 -0.0594244 -2.25425e-07)
(-0.00853504 -0.0585323 1.46591e-06)
(-0.00187619 -0.0558176 -1.99654e-07)
(0.000330786 -0.0547167 1.0505e-07)
(0.00101876 -0.0521054 1.57706e-07)
(0.000658556 -0.031278 -7.35056e-07)
(-0.00459401 0.00455854 -9.28643e-07)
(-0.00655241 0.025937 -1.86085e-06)
(-0.00499669 0.0400158 -3.67896e-07)
(-0.00331015 0.0442701 -7.16742e-07)
(-0.0018916 0.0500318 -2.47067e-06)
(0.00703814 0.0291417 -1.60348e-06)
(0.00794598 0.0258388 4.58489e-07)
(0.00230037 0.0505681 3.58774e-07)
(0.000280543 0.0784613 7.62581e-06)
(0.00109754 0.0541299 -3.65955e-07)
(0.000769326 0.0583758 1.10588e-06)
(0.00208804 0.0332025 -1.07556e-06)
(0.000734884 0.00874266 3.68347e-08)
(-0.00914219 -0.0254695 1.24723e-06)
(-0.00506011 -0.0609328 -7.04411e-07)
(-0.00443085 -0.0636719 1.89134e-07)
(-0.00141462 -0.0591422 3.10057e-07)
(-0.000281016 -0.0543223 -3.49601e-08)
(-0.00140597 -0.0513821 -2.39511e-08)
(-0.00421356 -0.0301125 -8.00272e-07)
(-0.00848215 0.00679719 -2.18508e-06)
(-0.00810557 0.0234421 -9.82511e-07)
(-0.00648023 0.0362641 -6.98623e-07)
(-0.00435992 0.039808 -4.83706e-07)
(0.00135584 0.0415745 -6.9327e-07)
(0.00672731 0.0201673 -1.53856e-06)
(0.00655667 0.0285724 -4.12244e-07)
(0.00245393 0.053227 -2.52476e-07)
(0.00256185 0.0729678 3.02582e-06)
(0.00390864 0.0505527 5.2635e-07)
(0.00539369 0.0514591 -4.22854e-07)
(0.00757486 0.0305873 -9.08712e-07)
(0.00682113 0.0110622 -6.06658e-07)
(0.00261163 -0.0222043 -7.72544e-07)
(0.000175379 -0.0605066 -4.42771e-07)
(-0.00108039 -0.0642994 1.01879e-07)
(-0.00054987 -0.0601918 2.2192e-07)
(-0.000245779 -0.05363 -7.50524e-08)
(-0.00137781 -0.0500565 2.86369e-07)
(-0.00402964 -0.0274952 -2.7596e-07)
(-0.00739172 0.00916072 -1.55391e-06)
(-0.00678103 0.0218514 -8.50825e-07)
(-0.00571369 0.0336703 -8.1912e-07)
(-0.00372659 0.0350979 -1.32179e-06)
(0.0027498 0.0340929 1.65011e-06)
(0.00507299 0.0176042 -1.3054e-06)
(0.00539691 0.0316364 8.49038e-07)
(0.00183708 0.0547692 -7.46977e-07)
(0.00383095 0.0703478 6.96245e-07)
(0.00487082 0.0491949 1.30103e-06)
(0.00599127 0.0488541 -3.30713e-07)
(0.00888768 0.0307198 -6.51316e-07)
(0.00510382 0.0130977 -7.92588e-07)
(0.00730225 -0.0169334 -4.10303e-07)
(0.00190574 -0.0592609 -2.49228e-07)
(5.48911e-05 -0.0643143 2.65363e-07)
(-0.000171117 -0.0606553 1.73403e-07)
(-0.000108838 -0.0532271 8.16441e-08)
(-0.000250205 -0.0493608 -9.06773e-08)
(-0.000735225 -0.0269939 -1.39575e-08)
(-0.00265648 0.00921032 8.61637e-08)
(-0.00298546 0.0206655 -5.44692e-07)
(-0.00321973 0.0306866 -6.83559e-07)
(-0.00216459 0.0293908 -1.10926e-06)
(0.00137853 0.0272839 9.40381e-07)
(0.00169998 0.00994675 -1.26264e-06)
(0.00336274 0.0328771 2.56845e-07)
(0.000830263 0.0541363 -1.06354e-06)
(0.00282572 0.0647718 -4.16647e-07)
(0.00383074 0.0458517 -2.23818e-07)
(0.00488581 0.0448551 -5.34865e-07)
(0.00600768 0.0301442 -5.88758e-07)
(0.00308738 0.0166144 -6.6803e-07)
(0.00162241 -0.0201562 -2.60195e-08)
(0.000356505 -0.0584596 -4.29147e-08)
(0.000131168 -0.0637335 1.31311e-08)
(-6.19033e-06 -0.0606386 -1.16538e-07)
(0.0130962 -0.0298964 -0.00125615)
(0.0236246 -0.0204665 -0.00128238)
(0.0243174 -0.0154835 -0.00142537)
(0.0268816 -0.0131962 -0.00134585)
(0.0285564 -0.00731424 -0.00237513)
(0.0236416 -0.00440077 -0.00428763)
(0.0154118 -0.00245584 -0.00341404)
(0.00685803 -1.67025e-05 -0.00393793)
(-0.00855253 -0.00197318 -0.00398821)
(-0.00481721 -0.0172891 -0.0044277)
(6.61204e-05 -0.00975309 -0.00314376)
(-0.0082667 0.00404317 -0.00335216)
(-0.0217276 -0.00202235 -0.00210636)
(-0.0269732 -0.00709939 -0.00440927)
(-0.0310094 -0.00882607 -0.00346465)
(-0.0299383 -0.00933266 -0.00265612)
(-0.0257616 -0.0126326 -0.00112305)
(-0.0218348 -0.0147459 -0.00131816)
(-0.0207773 -0.0198027 -0.00120187)
(-0.0114553 -0.028602 -0.000983122)
(0.00865459 -0.0134627 0.000179898)
(0.0212182 0.00353263 -0.000314513)
(0.0229123 0.00512367 -0.00050407)
(0.0296874 0.00719813 -0.00135771)
(0.0301761 0.00907599 -0.00209422)
(0.0252167 0.0184374 -0.00189496)
(0.0158729 0.0235547 -0.00243821)
(0.00795504 0.0347236 -0.00285881)
(-0.00334398 0.0202563 -0.00377467)
(-0.00645592 0.01041 -0.00323159)
(-0.0102096 0.0247165 -0.00262618)
(-0.0181951 0.022985 -0.0031861)
(-0.0239032 0.0223332 -0.00303339)
(-0.029819 0.010123 -0.00201485)
(-0.0343231 0.0116131 -0.0014426)
(-0.0350418 0.00248947 -0.00149132)
(-0.0312161 0.00196414 -0.00117679)
(-0.0220544 0.00394109 -0.000312263)
(-0.0190602 0.00350299 -0.000258337)
(-0.00680583 -0.0112815 0.000548792)
(0.00309308 -0.0405821 0.000971509)
(0.0141535 -0.0104865 0.000867801)
(0.0193 -0.00808871 0.00086872)
(0.0291315 -0.00286625 0.000553289)
(0.030881 0.00724338 0.000722864)
(0.0260166 0.0184599 0.00038399)
(0.0170943 0.0242659 0.000754013)
(0.0090091 0.0354588 0.00103475)
(0.000470688 0.0253163 0.00056169)
(-0.00246477 0.00765068 0.000414293)
(-0.00544077 0.0212162 0.000424628)
(-0.0157789 0.0245525 -0.00156715)
(-0.0230591 0.0230956 -0.00064758)
(-0.0337452 0.0172141 -0.000651648)
(-0.0419435 0.00727694 6.75997e-05)
(-0.0421909 -0.0024623 0.00025416)
(-0.0353339 -0.0134258 0.00108855)
(-0.0207861 -0.012184 0.00141934)
(-0.0141311 -0.0111643 0.000985845)
(-0.00245299 -0.0342911 0.000828484)
(-0.000611731 -0.0438945 0.000498801)
(0.00601987 -0.01883 0.000970469)
(0.0190099 -0.0207003 0.00143982)
(0.0263441 -0.00770685 0.00110421)
(0.0265404 0.00934907 0.000778132)
(0.0206388 0.027246 0.00108546)
(0.0122939 0.0321101 0.00123391)
(0.00680167 0.0437039 0.00171737)
(0.00318494 0.0309931 0.00125189)
(0.000893977 0.0102243 0.0012119)
(0.000717318 0.0277109 0.00139827)
(-0.0121601 0.0450411 0.00065893)
(-0.021262 0.0366165 0.00134104)
(-0.0322709 0.0365283 0.00074163)
(-0.041125 0.0109182 0.000770278)
(-0.0431965 -0.00575164 0.00100416)
(-0.0375122 -0.0262867 0.00109543)
(-0.0243414 -0.0299929 0.00148525)
(-0.00865033 -0.0207549 0.00112344)
(-0.000429706 -0.0390122 0.000521876)
(-9.13891e-05 -0.0481214 0.000613435)
(0.00733515 -0.03166 0.0010948)
(0.0198708 -0.032429 0.00021113)
(0.021708 -0.0122443 0.000348318)
(0.0177016 0.0127059 0.000592853)
(0.0112764 0.033072 0.000999913)
(0.00599543 0.0375081 0.000971282)
(0.00323849 0.0475639 0.00123164)
(0.0069315 0.033512 0.00106156)
(0.0038211 0.0103475 0.000744377)
(0.000403862 0.0319263 0.00102908)
(-0.00862185 0.0562965 0.00156093)
(-0.0151103 0.0430635 0.00167124)
(-0.0226329 0.0426179 0.00143485)
(-0.0299986 0.0135139 0.000490154)
(-0.035856 -0.00946224 0.000512522)
(-0.0340983 -0.0356735 -9.05149e-05)
(-0.0241062 -0.0483204 0.000444829)
(-0.0111564 -0.0403672 0.000998715)
(-0.00176221 -0.0462372 0.000334533)
(0.000148524 -0.0506008 0.000179609)
(0.00550472 -0.0457017 0.000413959)
(0.0112761 -0.0363125 -0.000348897)
(0.0106742 -0.00457393 -2.33375e-05)
(0.00324148 0.0211753 0.000299908)
(0.000800336 0.0365901 0.000587718)
(-6.56394e-05 0.040105 0.000582031)
(-0.000697099 0.0470844 0.00078442)
(0.00770468 0.0315947 0.000996252)
(0.00630756 0.0174019 0.00027587)
(0.000550173 0.0389543 0.000608213)
(-0.00411566 0.0630088 0.00141269)
(-0.00561319 0.0476892 0.00115792)
(-0.00866122 0.0482676 0.00118073)
(-0.0132151 0.0237056 0.000170838)
(-0.0181493 0.000184001 3.54767e-05)
(-0.0249628 -0.0337658 -0.000696041)
(-0.0158128 -0.0560115 3.5419e-05)
(-0.00920386 -0.0538692 0.000234725)
(-0.00216854 -0.0509994 0.00015609)
(0.000358174 -0.0513368 0.000101043)
(0.00121979 -0.0492209 9.05306e-05)
(0.000324223 -0.0319321 -0.000118682)
(-0.0047163 0.00187236 0.000105327)
(-0.00693748 0.0222238 0.000106955)
(-0.0053525 0.0351018 0.000258519)
(-0.00351985 0.0387177 0.000372547)
(-0.00172603 0.0418832 0.000544268)
(0.00650597 0.0233028 0.000699669)
(0.00702211 0.0211729 0.000301769)
(0.00197024 0.0437151 0.000403185)
(-1.79404e-05 0.0648984 0.000956858)
(0.00146523 0.047358 0.000581053)
(0.00234007 0.048668 0.000649626)
(0.00295211 0.0286539 1.61488e-05)
(0.00152103 0.00555834 -6.75783e-06)
(-0.0082985 -0.0285283 -0.000324028)
(-0.00544441 -0.0585676 3.42047e-05)
(-0.00483606 -0.0594342 0.000155341)
(-0.00150261 -0.0547435 0.000123415)
(-0.000232541 -0.0511637 9.82495e-05)
(-0.00133243 -0.0487662 9.87633e-05)
(-0.00418804 -0.0301844 0.000287208)
(-0.00837292 0.00457558 0.0002352)
(-0.0080866 0.020304 0.000175843)
(-0.00656367 0.031943 0.000195572)
(-0.00456731 0.0348928 0.000254655)
(0.0012557 0.0352341 0.00051035)
(0.00618419 0.0171663 0.000289584)
(0.00599958 0.0241569 0.000269749)
(0.00276193 0.0465798 0.000245173)
(0.00286558 0.0633721 0.0004986)
(0.00432291 0.0446243 0.000306463)
(0.00601767 0.0452267 0.000330169)
(0.00784106 0.0266886 3.8784e-05)
(0.00672074 0.00843148 5.47806e-05)
(0.00261441 -0.0250263 0.000173925)
(2.74838e-05 -0.0582808 0.000193811)
(-0.00129082 -0.0605938 0.000103728)
(-0.000635687 -0.0561665 0.000114775)
(-0.000254605 -0.0505834 6.93926e-05)
(-0.00140484 -0.0475821 7.19319e-05)
(-0.00402121 -0.0269746 0.000215516)
(-0.00717313 0.00752081 0.000238585)
(-0.006617 0.0193162 0.00012428)
(-0.00571999 0.0300117 0.000140268)
(-0.0039386 0.0310609 0.000136446)
(0.00212656 0.0299302 0.000349368)
(0.00486531 0.0157434 0.000332342)
(0.00544781 0.0272763 0.000214376)
(0.00254964 0.0481673 0.000209726)
(0.00427132 0.0621788 0.000316104)
(0.00525437 0.0435943 0.000226555)
(0.00625426 0.0438196 0.000131163)
(0.0088645 0.0272231 4.5444e-05)
(0.00481348 0.0109027 -2.6369e-07)
(0.00670143 -0.0199992 0.000370222)
(0.0018812 -0.0570036 0.000204219)
(-4.20002e-06 -0.0608794 7.63831e-05)
(-0.000185809 -0.056738 8.92347e-05)
(-0.000100548 -0.05024 5.26824e-05)
(-0.000255278 -0.0469402 1.16627e-05)
(-0.000707389 -0.0262809 -1.65996e-05)
(-0.0024416 0.00795472 3.26338e-05)
(-0.00280649 0.0185557 -3.06954e-05)
(-0.00325861 0.0276068 -6.35618e-05)
(-0.00239815 0.0261872 -4.02758e-05)
(0.000844873 0.0247605 7.0464e-05)
(0.00152368 0.00899611 4.19906e-05)
(0.00374653 0.0282765 8.05177e-05)
(0.00153277 0.0479915 -7.51362e-06)
(0.00323203 0.0580742 3.19627e-05)
(0.00408634 0.0404525 -1.21995e-06)
(0.00503727 0.0406591 -1.56316e-05)
(0.00589864 0.0269306 -7.88043e-05)
(0.00272269 0.0145233 -4.63431e-05)
(0.00135261 -0.0223869 6.1336e-05)
(0.000352937 -0.0561482 1.11536e-05)
(0.00012313 -0.0604273 5.00737e-06)
(-1.68951e-05 -0.0567971 6.84181e-05)
(0.0114825 -0.0295772 -0.000770708)
(0.0231044 -0.019734 -0.000858428)
(0.0245874 -0.0148375 -0.00161606)
(0.0266122 -0.0125401 -0.000961695)
(0.0288641 -0.0157378 -0.000685101)
(0.0245986 -0.0184919 -0.00153511)
(0.0170551 -0.0189803 -0.00227591)
(0.00858978 -0.0140537 -0.00293488)
(-0.00694439 -0.0174683 -0.00242706)
(-0.00465567 -0.0332149 -0.00213389)
(-0.00461403 -0.024168 -0.00273999)