/*--------------------------------*- C++ -*----------------------------------*\
| =========                 |                                                 |
| \\      /  F ield         | OpenFOAM: The Open Source CFD Toolbox           |
|  \\    /   O peration     | Version:  2.3.0                                 |
|   \\  /    A nd           | Web:      www.OpenFOAM.org                      |
|    \\/     M anipulation  |                                                 |
\*---------------------------------------------------------------------------*/
FoamFile
{
    version     2.0;
    format      ascii;
    class       volScalarField;
    location    "0.03";
    object      p_rgh;
}
// * * * * * * * * * * * * * * * * * * * * * * * * * * * * * * * * * * * * * //

dimensions      [1 -1 -2 0 0 0 0];

internalField   nonuniform List<scalar> 
545
(
-9.20297e+07
-1.68763e+07
-2.18512e+06
-2.9023e+06
-9.80871e+06
6.63827e+07
-3.35348e+06
-2.59842e+06
-2.79385e+06
-7.95036e+06
1.15356e+08
4.24544e+06
-322623
-393260
-8.34263e+06
6.69628e+07
-3.56047e+06
-2.05061e+06
-58046.1
-7.40385e+06
-1.0591e+08
-2.59965e+06
-431902
4.97401e+06
1.37401e+07
-8.30744e+06
-1.94221e+06
-601654
195939
335151
343692
321233
304760
298361
290744
288427
282207
280245
273465
270561
262901
259598
251845
248742
241464
238896
232098
230086
223626
221837
215508
213260
206345
203193
195035
190395
180555
173872
161857
152803
138257
126769
110117
97202.8
79950.9
67284.9
50740.7
38989.6
23687.9
13742.8
-7.35851e+06
-1.15378e+06
-564645
50331.6
211039
280848
293752
296526
294120
290893
286848
283186
278824
274501
269095
263938
258066
252882
247233
242525
237403
233171
228606
224727
220430
216655
211917
207548
201919
196246
189108
181753
172654
163061
151624
139481
125587
111295
95884.7
81009.1
65864.6
51690.8
37344.8
23570.7
7212.67
-8.78343e+06
-480573
-206842
210448
259555
290132
293739
293926
293586
289656
287344
282362
279473
273737
269763
263146
258721
252081
247899
241763
238082
232389
229296
223946
221128
215960
212614
206883
202627
195541
189742
181004
173315
162367
152337
138847
126334
110647
96463.2
80168.4
66322.6
50795.1
37511.8
22922.2
10961.4
-9.32599e+06
887768
496195
488230
355747
318783
298699
294940
292187
290229
286298
283190
278510
274699
268806
264097
257702
253074
246881
242796
237114
233362
228304
224915
220164
217023
211628
207928
201689
196474
188643
181899
172237
163285
151355
139831
125467
111606
95386.1
80833.8
65097.8
51424.4
36171.7
22227.6
4780.53
-1.39569e+06
4.07331e+06
1.66218e+06
712311
385102
313661
294580
292176
292337
288986
287076
282179
279355
273864
269689
263153
258545
252237
247686
242049
238055
232401
229237
223954
221042
216347
212345
207236
202540
195556
189256
181022
172796
162432
152046
139063
126371
110860
96070.7
79626.1
65473
50561.4
36341.5
21983.8
9278.91
-1.36421e+07
6.09433e+06
2.60559e+06
830203
390547
306102
290129
290899
290649
291211
289833
287441
281669
277883
271614
264417
259764
255848
250475
245673
237498
234345
231578
229190
223305
218900
216056
211332
202390
196410
188931
185599
177262
166345
154524
143181
128590
112117
95116.3
80419.3
67446
54936.5
40996.7
25498.3
6572.15
-1.05906e+08
-2.59848e+06
-433589
4.97127e+06
1.37371e+07
6.69663e+07
-3.55993e+06
-2.05295e+06
-61609.1
-7.40776e+06
1.1536e+08
4.24523e+06
-325662
-397848
-8.34786e+06
6.63857e+07
-3.35432e+06
-2.60217e+06
-2.79971e+06
-7.95684e+06
-9.20271e+07
-1.68776e+07
-2.18927e+06
-2.90913e+06
-9.81599e+06
-1.39761e+06
4.07232e+06
1.66081e+06
711674
384462
314080
294448
292354
291873
289159
286793
282369
279044
273992
269387
263318
258322
252440
247537
242272
237936
232613
229132
224115
220923
216456
212197
207271
202324
195513
189004
180924
172527
162286
151768
138912
126119
110723
95841
79534.3
65363.1
50610.8
36325.5
21994.6
9207.87
-9.32959e+06
885387
493899
486738
355030
319217
298762
294849
291674
290190
286076
283209
278204
274615
268506
264102
257546
253203
246852
242995
237131
233559
228308
225046
220110
217064
211483
207834
201400
196235
188245
181548
171749
162842
150833
139393
125004
111245
95008
80583.5
64919.6
51438.9
36162.4
22170.8
4698.31
-8.78823e+06
-484134
-209710
208773
259066
290503
293850
293549
293012
289424
287166
282220
279159
273458
269454
263007
258620
252147
247977
241948
238222
232576
229400
224053
221134
215939
212468
206672
202268
195119
189194
180397
172600
161627
151563
138122
125657
110075
95956.8
79786.1
66073.6
50719.6
37452.7
22794
10869.7
-7.36413e+06
-1.15804e+06
-567760
49016.2
210990
281304
293812
295915
293413
290542
286661
282961
278460
274101
268733
263712
257966
252925
247361
242727
237613
233381
228768
224842
220463
216609
211756
207269
201494
195698
188425
180953
171742
162087
150625
138522
124710
110542
95256.9
80529.4
65538.5
51504.9
37184.5
23446.5
7183.79
-8.31332e+06
-1.94674e+06
-604774
195172
335459
344143
321218
304035
297572
290312
288211
281941
279849
273008
270160
262629
259485
251876
248887
241677
239137
232325
230276
223752
221885
215456
213091
206037
202736
194425
189639
179652
172850
160751
151671
137155
125760
109245
96495
79411.3
66904.4
50449.3
38748.8
23506.3
13696.7
)
;

boundaryField
{
    AirInlet
    {
        type            fixedFluxPressure;
        gradient        uniform 2.26351e+08;
        value           uniform -1.36398e+07;
    }
    WaterInlet
    {
        type            fixedFluxPressure;
        gradient        nonuniform List<scalar> 10(0 -0.0885036 0 -0.145975 0 -0.0260159 -0.291951 0 0 -0.180706);
        value           nonuniform List<scalar> 10(-9.20297e+07 6.63827e+07 1.15356e+08 6.69628e+07 -1.0591e+08 -1.05906e+08 6.69663e+07 1.1536e+08 6.63857e+07 -9.20271e+07);
    }
    ChannelWall
    {
        type            fixedFluxPressure;
        gradient        uniform 0;
        value           nonuniform List<scalar> 
110
(
-1.0591e+08
-2.59965e+06
-431902
4.97401e+06
1.37401e+07
-1.05906e+08
-2.59848e+06
-433589
4.97127e+06
1.37371e+07
-9.20271e+07
-1.68776e+07
-2.18927e+06
-2.90913e+06
-9.81599e+06
-8.31332e+06
-1.94674e+06
-604774
195172
335459
344143
321218
304035
297572
290312
288211
281941
279849
273008
270160
262629
259485
251876
248887
241677
239137
232325
230276
223752
221885
215456
213091
206037
202736
194425
189639
179652
172850
160751
151671
137155
125760
109245
96495
79411.3
66904.4
50449.3
38748.8
23506.3
13696.7
-9.20297e+07
-1.68763e+07
-2.18512e+06
-2.9023e+06
-9.80871e+06
-8.30744e+06
-1.94221e+06
-601654
195939
335151
343692
321233
304760
298361
290744
288427
282207
280245
273465
270561
262901
259598
251845
248742
241464
238896
232098
230086
223626
221837
215508
213260
206345
203193
195035
190395
180555
173872
161857
152803
138257
126769
110117
97202.8
79950.9
67284.9
50740.7
38989.6
23687.9
13742.8
)
;
    }
    Outlet
    {
        type            totalPressure;
        rho             rho;
        psi             none;
        gamma           1;
        p0              uniform 0;
        value           uniform 0;
    }
    FrontAndBack
    {
        type            empty;
    }
}


// ************************************************************************* //
