/*--------------------------------*- C++ -*----------------------------------*\
| =========                 |                                                 |
| \\      /  F ield         | OpenFOAM: The Open Source CFD Toolbox           |
|  \\    /   O peration     | Version:  2.3.0                                 |
|   \\  /    A nd           | Web:      www.OpenFOAM.org                      |
|    \\/     M anipulation  |                                                 |
\*---------------------------------------------------------------------------*/
FoamFile
{
    version     2.0;
    format      ascii;
    class       volScalarField;
    location    "67";
    object      alpha.air;
}
// * * * * * * * * * * * * * * * * * * * * * * * * * * * * * * * * * * * * * //

dimensions      [0 0 0 0 0 0 0];

internalField   nonuniform List<scalar> 
1875
(
0.284646
0.240222
0.220952
0.223136
0.227804
0.233417
0.239631
0.24624
0.252898
0.259245
0.265004
0.268828
0.270702
0.271164
0.270508
0.267353
0.260564
0.252539
0.243844
0.234341
0.225727
0.23195
0.260294
0.298553
0.279026
0.25741
0.226309
0.197408
0.18729
0.182762
0.183437
0.185661
0.189563
0.195171
0.202296
0.211356
0.222646
0.233805
0.243938
0.252102
0.259549
0.260558
0.256487
0.247949
0.237119
0.22573
0.211355
0.211355
0.231819
0.207091
0.198802
0.184232
0.168645
0.163799
0.161978
0.162533
0.163956
0.1661
0.169258
0.17334
0.178764
0.186594
0.198749
0.214615
0.23098
0.246864
0.258036
0.262235
0.25598
0.243777
0.22931
0.212361
0.211355
0.217927
0.202563
0.113235
0.121541
0.134897
0.142264
0.145756
0.149603
0.15451
0.159951
0.165893
0.172922
0.17987
0.18755
0.19741
0.209387
0.224101
0.241526
0.258461
0.265424
0.262314
0.249936
0.233092
0.214595
0.211393
0.216169
0.197964
0.054171
0.0830322
0.120781
0.129854
0.13552
0.142571
0.151236
0.160793
0.168669
0.176365
0.184411
0.192633
0.202195
0.214443
0.229399
0.246728
0.262235
0.265424
0.261088
0.247551
0.230382
0.213481
0.210515
0.214133
0.198648
0.0355871
0.0796013
0.127548
0.127544
0.134973
0.146595
0.157522
0.168498
0.178234
0.18698
0.195927
0.205169
0.21598
0.229466
0.244355
0.257587
0.264122
0.264123
0.255592
0.240387
0.223937
0.211078
0.208296
0.211017
0.201732
0.0355871
0.0947716
0.140245
0.131239
0.1455
0.162161
0.175016
0.186757
0.197469
0.20742
0.217653
0.228305
0.239795
0.251147
0.259407
0.26223
0.262482
0.256955
0.244187
0.229267
0.216028
0.207626
0.204858
0.207277
0.207166
0.0355871
0.12482
0.157979
0.148373
0.171881
0.189501
0.203052
0.215463
0.226536
0.236692
0.245947
0.253667
0.257973
0.259356
0.25942
0.25951
0.253547
0.242761
0.22956
0.217745
0.208827
0.203356
0.200286
0.203751
0.21367
0.0467007
0.158578
0.180485
0.176556
0.20441
0.220069
0.233286
0.244037
0.251977
0.256791
0.258279
0.258293
0.258272
0.257653
0.254091
0.24803
0.237503
0.226289
0.216207
0.208462
0.202911
0.198822
0.195508
0.200799
0.220005
0.0663277
0.189396
0.20399
0.204205
0.230127
0.242134
0.251624
0.256948
0.25891
0.259065
0.259085
0.257188
0.253567
0.248063
0.240158
0.2305
0.220626
0.212501
0.206315
0.201845
0.198385
0.195052
0.191945
0.199533
0.224046
0.0857678
0.213759
0.222909
0.223356
0.244352
0.253187
0.259091
0.261246
0.261245
0.258579
0.255267
0.248944
0.241162
0.231934
0.222471
0.213851
0.207165
0.202431
0.199173
0.196845
0.19475
0.192175
0.189683
0.199847
0.22781
0.100901
0.230657
0.235422
0.233999
0.2507
0.256976
0.260447
0.261245
0.259454
0.2536
0.245363
0.235091
0.224721
0.21497
0.206887
0.200877
0.196806
0.194143
0.192447
0.191271
0.19011
0.188568
0.187129
0.202028
0.241789
0.111047
0.241454
0.243707
0.240098
0.253449
0.258054
0.26024
0.260405
0.254251
0.244273
0.232269
0.22018
0.209588
0.20122
0.195284
0.191368
0.188898
0.187408
0.186465
0.185718
0.185179
0.185178
0.187081
0.213378
0.278838
0.116812
0.248737
0.250556
0.244059
0.254813
0.258409
0.259888
0.257404
0.246594
0.233671
0.22022
0.208318
0.19903
0.192614
0.188687
0.186532
0.185473
0.185161
0.185178
0.185111
0.185178
0.185099
0.193317
0.233702
0.279573
0.120859
0.254326
0.257931
0.246594
0.255605
0.258394
0.259293
0.253117
0.238944
0.22472
0.212119
0.202474
0.195896
0.191585
0.188651
0.18666
0.185591
0.185178
0.185133
0.185227
0.186762
0.190461
0.204613
0.239873
0.279573
0.120749
0.257002
0.258318
0.247514
0.25582
0.258335
0.259288
0.251455
0.238019
0.224787
0.212435
0.20314
0.196801
0.192524
0.189647
0.187959
0.187254
0.187145
0.188282
0.191484
0.197017
0.203393
0.210206
0.219452
0.240994
0.121084
0.254117
0.258309
0.248557
0.25527
0.257993
0.259283
0.252786
0.240151
0.22704
0.214862
0.205675
0.199331
0.194898
0.192027
0.190763
0.19067
0.192663
0.196192
0.20058
0.205564
0.210238
0.211084
0.180163
0.164953
0.125437
0.243211
0.256489
0.25039
0.254011
0.25705
0.259045
0.255407
0.245357
0.232742
0.220316
0.210492
0.203527
0.198611
0.195466
0.194288
0.194777
0.198427
0.202291
0.203998
0.204046
0.206811
0.210907
0.159617
0.105147
0.134935
0.223879
0.250894
0.250817
0.252692
0.255458
0.25833
0.257548
0.251931
0.241641
0.229395
0.218193
0.209629
0.203514
0.199512
0.197747
0.1981
0.200785
0.203221
0.203701
0.201394
0.198346
0.211082
0.170039
0.0852668
0.147956
0.200985
0.23724
0.248851
0.251868
0.254028
0.256973
0.257547
0.256322
0.250795
0.241205
0.229421
0.218571
0.210189
0.204331
0.201018
0.20018
0.20099
0.202414
0.202496
0.199859
0.193539
0.210907
0.189083
0.0852668
0.164082
0.180288
0.2135
0.239426
0.249207
0.252639
0.255455
0.257215
0.257557
0.256102
0.251124
0.242378
0.231303
0.220302
0.211316
0.205188
0.202006
0.201026
0.200982
0.200632
0.198918
0.193526
0.210946
0.20351
0.0852668
0.182792
0.164616
0.184475
0.217563
0.239262
0.24871
0.253291
0.256316
0.257562
0.257818
0.255831
0.256042
0.249138
0.236313
0.222967
0.212335
0.205326
0.201651
0.199784
0.198548
0.197738
0.193576
0.209951
0.211196
0.0853649
0.201535
0.162151
0.162275
0.188709
0.217969
0.237242
0.247665
0.253751
0.256959
0.258731
0.260077
0.261339
0.261922
0.253868
0.239772
0.224651
0.212311
0.204189
0.200039
0.196921
0.196368
0.193283
0.207295
0.216315
0.0919157
0.218154
0.162262
0.162015
0.169885
0.191995
0.216287
0.234762
0.24697
0.254483
0.258299
0.261339
0.262489
0.261339
0.261529
0.254289
0.240189
0.223946
0.210325
0.201831
0.19686
0.195123
0.19264
0.204823
0.220488
0.100955
0.233342
0.161986
0.162262
0.162243
0.172655
0.192779
0.215116
0.234132
0.248055
0.256312
0.261694
0.261339
0.262057
0.261339
0.259506
0.25161
0.236918
0.219878
0.206263
0.197686
0.194143
0.192559
0.203883
0.223684
0.108368
0.247522
0.164766
0.161481
0.162262
0.164649
0.175787
0.195225
0.217464
0.237435
0.251752
0.261339
0.262296
0.261339
0.261545
0.260692
0.256787
0.246446
0.2299
0.2128
0.199984
0.194198
0.192574
0.203895
0.224064
0.113117
0.254401
0.178884
0.162262
0.162063
0.162652
0.167941
0.181438
0.202181
0.224795
0.244394
0.261606
0.261339
0.261761
0.261339
0.260671
0.258171
0.251361
0.237674
0.219605
0.20342
0.194678
0.192508
0.203772
0.224051
0.115941
0.243753
0.201086
0.16422
0.162653
0.162253
0.164807
0.174082
0.191748
0.213902
0.236898
0.261339
0.261769
0.261339
0.261416
0.260618
0.258033
0.252753
0.242429
0.225216
0.20702
0.195644
0.192574
0.203274
0.223852
0.118424
0.210667
0.209438
0.195957
0.17389
0.162262
0.163393
0.171484
0.188255
0.213156
0.237423
0.261605
0.261339
0.261484
0.261339
0.260474
0.257623
0.252429
0.243109
0.22862
0.209822
0.196856
0.192515
0.202299
0.220837
0.123425
0.162913
0.207494
0.227546
0.189315
0.163461
0.163799
0.172475
0.19039
0.216225
0.241446
0.261339
0.261425
0.261339
0.261344
0.260125
0.256892
0.251587
0.24249
0.228346
0.211083
0.19805
0.192709
0.20032
0.212585
0.132714
0.119893
0.21146
0.227548
0.191571
0.165729
0.165329
0.175819
0.196846
0.224271
0.248444
0.261371
0.261339
0.261353
0.2612
0.259513
0.255824
0.250213
0.241042
0.227183
0.210781
0.198927
0.193401
0.196362
0.201318
0.145849
0.0992192
0.220016
0.227546
0.187418
0.167214
0.16843
0.183358
0.20892
0.236107
0.254886
0.261304
0.261342
0.261301
0.260861
0.258616
0.254435
0.248373
0.238899
0.225245
0.210048
0.198917
0.192906
0.189821
0.190127
0.163126
0.0988642
0.225145
0.224178
0.180409
0.168625
0.174957
0.196934
0.224967
0.247253
0.258476
0.261072
0.261168
0.261173
0.260302
0.257382
0.252734
0.246191
0.236377
0.223019
0.208915
0.198244
0.191531
0.184017
0.181266
0.180346
0.0988642
0.225145
0.215903
0.175907
0.172142
0.18747
0.215273
0.239719
0.253966
0.259346
0.260515
0.26075
0.260948
0.259382
0.255839
0.250788
0.243851
0.233848
0.220838
0.207114
0.196043
0.192121
0.19318
0.176921
0.186068
0.0989416
0.224368
0.206718
0.176451
0.180757
0.205941
0.232548
0.248941
0.256485
0.259034
0.259923
0.260435
0.260501
0.258107
0.254097
0.248785
0.241617
0.231595
0.218754
0.204846
0.194684
0.194946
0.239592
0.17691
0.184992
0.0991388
0.221646
0.20191
0.179606
0.1962
0.224846
0.243716
0.252895
0.256991
0.258938
0.259796
0.259988
0.259709
0.256626
0.252339
0.246956
0.239743
0.229811
0.217015
0.203064
0.194682
0.199075
0.250971
0.178759
0.182176
0.0989199
0.218973
0.203111
0.187255
0.214918
0.238027
0.248987
0.254435
0.257296
0.258782
0.259429
0.25959
0.258705
0.25509
0.250752
0.245459
0.238312
0.228481
0.215861
0.202285
0.194678
0.201389
0.254202
0.19188
0.17583
0.0988642
0.220759
0.207203
0.198738
0.230083
0.244617
0.251012
0.25499
0.257225
0.25847
0.258955
0.259129
0.257485
0.253643
0.24946
0.244322
0.23721
0.227343
0.214946
0.202459
0.194666
0.203521
0.250971
0.226886
0.167279
0.0988642
0.233975
0.214155
0.210643
0.23842
0.246981
0.251699
0.255006
0.257023
0.258022
0.258477
0.258553
0.256213
0.252434
0.248513
0.243489
0.236295
0.226239
0.213997
0.2031
0.197359
0.206841
0.254304
0.250971
0.159908
0.100494
0.254961
0.22409
0.220541
0.241362
0.247401
0.251941
0.254927
0.2567
0.257582
0.258035
0.257928
0.255079
0.251538
0.247879
0.242884
0.235493
0.225225
0.213363
0.20434
0.20225
0.212909
0.250971
0.252421
0.152779
0.103529
0.256446
0.240435
0.228189
0.242356
0.247517
0.251913
0.254716
0.25631
0.257185
0.257643
0.257292
0.254186
0.25093
0.247479
0.242459
0.234809
0.224402
0.213533
0.206104
0.207152
0.220391
0.254303
0.250971
0.144395
0.106869
0.254961
0.255522
0.233686
0.243377
0.247733
0.251843
0.254418
0.255904
0.256819
0.257265
0.256672
0.25352
0.250544
0.247298
0.242213
0.234309
0.223962
0.214148
0.208547
0.21194
0.226961
0.250971
0.252742
0.134876
0.11001
0.256366
0.254961
0.237284
0.244634
0.248112
0.251821
0.254142
0.25555
0.256496
0.256906
0.256087
0.253019
0.250357
0.24735
0.24212
0.233992
0.224114
0.215358
0.211792
0.216925
0.230118
0.254192
0.250971
0.126048
0.112606
0.254961
0.25564
0.23979
0.245822
0.248457
0.251826
0.253947
0.255269
0.256199
0.256551
0.25554
0.252638
0.250394
0.24745
0.24208
0.233848
0.224617
0.217115
0.215638
0.221261
0.230108
0.250971
0.252818
0.121165
0.114579
0.256041
0.254961
0.242703
0.246761
0.248385
0.251806
0.253776
0.25501
0.25588
0.256157
0.25502
0.252421
0.250557
0.247519
0.242016
0.233963
0.225481
0.219235
0.219353
0.223469
0.230329
0.254058
0.250971
0.120714
0.116065
0.254961
0.25551
0.248161
0.247349
0.248293
0.251748
0.253537
0.25478
0.255555
0.255689
0.254591
0.252438
0.250776
0.247556
0.241903
0.234333
0.226576
0.221582
0.22151
0.22368
0.231069
0.250971
0.25269
0.120652
0.11733
0.255835
0.254961
0.255123
0.248171
0.248397
0.251587
0.253353
0.254521
0.255233
0.255337
0.254563
0.252525
0.250718
0.247603
0.241883
0.234851
0.228126
0.22381
0.221461
0.223675
0.232809
0.253919
0.250971
0.120613
0.118506
0.254961
0.255394
0.254961
0.25033
0.248401
0.251267
0.253251
0.254116
0.254904
0.255318
0.254517
0.252744
0.250619
0.247458
0.24194
0.235354
0.230095
0.22565
0.221233
0.223772
0.236398
0.250971
0.252545
0.12039
0.119572
0.255674
0.254961
0.255249
0.25465
0.248465
0.251019
0.252953
0.253845
0.254627
0.255134
0.254422
0.252907
0.250651
0.247078
0.242051
0.236272
0.23177
0.227201
0.221228
0.22424
0.242703
0.25375
0.250971
0.120076
0.120645
0.254961
0.255324
0.254961
0.255153
0.248779
0.251176
0.252803
0.253899
0.25471
0.254988
0.254374
0.252707
0.250467
0.246801
0.242265
0.237699
0.233217
0.228176
0.221648
0.225361
0.249971
0.250971
0.252423
0.119819
0.121798
0.25552
0.254961
0.255227
0.254961
0.249207
0.25172
0.253078
0.253853
0.254739
0.255013
0.25446
0.252481
0.249965
0.24663
0.242888
0.239038
0.234391
0.228256
0.223037
0.227514
0.250971
0.253535
0.250971
0.119629
0.122874
0.254961
0.255258
0.254961
0.255153
0.25038
0.253313
0.253082
0.253739
0.254766
0.25501
0.254278
0.252243
0.249622
0.246673
0.243706
0.240044
0.234398
0.228174
0.225436
0.231217
0.251157
0.250971
0.252244
0.119309
0.123894
0.255407
0.254961
0.255216
0.254961
0.253334
0.254961
0.253179
0.253823
0.254859
0.254881
0.253909
0.251699
0.249282
0.246867
0.243939
0.240145
0.234242
0.228169
0.228603
0.236569
0.250971
0.253336
0.250971
0.118834
0.125022
0.254961
0.255203
0.254961
0.255153
0.254961
0.255066
0.254427
0.253951
0.254782
0.254713
0.253443
0.25094
0.249097
0.246992
0.243956
0.239726
0.234118
0.228677
0.232173
0.242606
0.251211
0.250971
0.252057
0.118191
0.12631
0.255282
0.254961
0.255204
0.254961
0.255098
0.254961
0.255036
0.254118
0.254565
0.254308
0.25255
0.25068
0.249243
0.24704
0.243748
0.239005
0.23398
0.230411
0.235964
0.247228
0.250971
0.253145
0.250971
0.117408
0.12782
0.254961
0.25513
0.254961
0.255135
0.254961
0.255056
0.254961
0.254322
0.254068
0.253541
0.251669
0.250687
0.249362
0.246976
0.243014
0.238044
0.234257
0.233539
0.239441
0.249103
0.251216
0.250971
0.251859
0.116366
0.129427
0.255129
0.254961
0.255158
0.254961
0.255078
0.254961
0.25504
0.254167
0.253497
0.25266
0.251488
0.250711
0.249484
0.246603
0.24186
0.236721
0.235265
0.23721
0.241629
0.249245
0.250971
0.252886
0.250971
0.114872
0.130903
0.254961
0.255048
0.254961
0.255094
0.254961
0.255046
0.254961
0.254268
0.253295
0.251795
0.251356
0.250908
0.249525
0.245966
0.240232
0.235603
0.236381
0.240063
0.242116
0.249204
0.251167
0.250971
0.251633
0.112651
0.132594
0.255006
0.254961
0.255125
0.254961
0.25506
0.254961
0.255031
0.254871
0.253015
0.251747
0.251312
0.251176
0.249486
0.245051
0.23833
0.234731
0.236538
0.241111
0.242083
0.248778
0.250971
0.252533
0.250971
0.109458
0.134684
0.254961
0.255001
0.254961
0.255079
0.254961
0.255033
0.254961
0.255003
0.253223
0.252013
0.251484
0.251265
0.249327
0.243794
0.237239
0.234045
0.236441
0.241029
0.241872
0.247385
0.251061
0.250971
0.251397
0.105006
0.136883
0.254696
0.254961
0.2551
0.254961
0.255053
0.254961
0.255013
0.254961
0.253777
0.252287
0.251771
0.251199
0.249033
0.243542
0.237307
0.234024
0.236077
0.240585
0.241282
0.244759
0.250971
0.252036
0.250971
0.0991343
0.139631
0.25391
0.254879
0.254961
0.255057
0.254961
0.255032
0.254961
0.255002
0.253982
0.252813
0.252074
0.251149
0.248811
0.243904
0.237688
0.234168
0.235601
0.239513
0.240222
0.241457
0.250312
0.250971
0.251216
0.0921977
0.143605
0.252024
0.254759
0.255034
0.254961
0.255015
0.254961
0.255017
0.254961
0.254425
0.253573
0.252605
0.251388
0.249066
0.245001
0.239315
0.235257
0.235911
0.238147
0.238926
0.238585
0.247564
0.251412
0.250971
0.0867062
0.149384
0.24925
0.254827
0.254961
0.254995
0.254961
0.254982
0.254961
0.254976
0.254961
0.254381
0.253415
0.251986
0.249841
0.246789
0.242309
0.237776
0.236954
0.237201
0.237344
0.236427
0.242816
0.250971
0.251034
0.0865905
0.156397
0.24644
0.254121
0.254631
0.254611
0.254553
0.254418
0.254312
0.254292
0.254342
0.253846
0.252823
0.251377
0.24929
0.246449
0.242965
0.239128
0.236408
0.234634
0.232812
0.231879
0.234774
0.248354
0.247813
0.0871698
0.156495
0.242152
0.248681
0.249583
0.250163
0.249924
0.249398
0.248936
0.248641
0.248454
0.247977
0.246962
0.245513
0.243528
0.240953
0.237793
0.23406
0.230302
0.225993
0.221494
0.221365
0.221365
0.23405
0.233573
0.087098
0.160905
0.2388
0.238734
0.240302
0.243356
0.243364
0.242377
0.241134
0.240253
0.239917
0.239799
0.239526
0.23884
0.237663
0.235927
0.233593
0.230523
0.22696
0.222907
0.221365
0.221365
0.221365
0.221365
0.224681
0.0984313
0.273862
0.308033
0.297166
0.306225
0.315978
0.318769
0.317959
0.316037
0.314587
0.314837
0.315874
0.317656
0.319919
0.322013
0.323672
0.324959
0.325943
0.326921
0.328044
0.329167
0.331417
0.331811
0.330274
0.333787
0.270129
0.748173
0.693412
0.67165
0.680817
0.690167
0.691194
0.689092
0.686232
0.684475
0.685342
0.687777
0.692012
0.697975
0.704641
0.711792
0.719583
0.728123
0.737301
0.747127
0.756123
0.764405
0.770617
0.772369
0.779673
0.820177
0.984837
0.973955
0.967443
0.966457
0.966429
0.966038
0.965489
0.965005
0.964783
0.964946
0.965418
0.966224
0.967338
0.968618
0.97003
0.971575
0.97325
0.974965
0.976636
0.978145
0.979409
0.980372
0.981172
0.984884
0.992179
0.999974
0.999782
0.999319
0.999101
0.999095
0.999111
0.999122
0.999125
0.999129
0.999137
0.999154
0.999178
0.999209
0.999243
0.999279
0.999317
0.999357
0.999396
0.999431
0.999459
0.999477
0.999483
0.99954
0.999807
0.999962
1
1
0.999997
0.999994
0.999994
0.999995
0.999995
0.999995
0.999995
0.999996
0.999996
0.999996
0.999997
0.999997
0.999997
0.999997
0.999997
0.999997
0.999997
0.999996
0.999996
0.999996
0.999996
1
1
1
1
1
1
1
1
1
1
1
1
1
1
1
1
1
1
1
1
1
1
1
1
1
1
1
1
1
1
1
1
1
1
1
1
1
1
1
1
1
1
1
1
1
1
1
1
1
1
1
1
1
1
1
1
1
1
1
1
1
1
1
1
1
1
1
1
1
1
1
1
1
1
1
1
1
)
;

boundaryField
{
    inlet
    {
        type            fixedValue;
        value           uniform 0.5;
    }
    outlet
    {
        type            inletOutlet;
        phi             phi.air;
        inletValue      uniform 1;
        value           nonuniform List<scalar> 
25
(
1
1
1
1
1
1
1
1
1
1
1
1
1
1
1
1
1
1
1
1
1
1
1
1
1
)
;
    }
    walls
    {
        type            zeroGradient;
    }
    defaultFaces
    {
        type            empty;
    }
}


// ************************************************************************* //
