/*--------------------------------*- C++ -*----------------------------------*\
| =========                 |                                                 |
| \\      /  F ield         | OpenFOAM: The Open Source CFD Toolbox           |
|  \\    /   O peration     | Version:  2.3.0                                 |
|   \\  /    A nd           | Web:      www.OpenFOAM.org                      |
|    \\/     M anipulation  |                                                 |
\*---------------------------------------------------------------------------*/
FoamFile
{
    version     2.0;
    format      ascii;
    class       surfaceScalarField;
    location    "67";
    object      phi.water;
}
// * * * * * * * * * * * * * * * * * * * * * * * * * * * * * * * * * * * * * //

dimensions      [0 3 -1 0 0 0 0];

internalField   nonuniform List<scalar> 
3650
(
3.69448e-05
-3.83868e-05
7.61806e-05
-4.36616e-05
0.000119726
-4.54859e-05
0.000163461
-4.44873e-05
0.000204754
-4.15161e-05
0.000241972
-3.72696e-05
0.000274352
-3.23015e-05
0.00030134
-2.69435e-05
0.00032253
-2.13805e-05
0.000337646
-1.57296e-05
0.000346392
-1.00569e-05
0.000348597
-4.5886e-06
0.000343427
2.16811e-06
0.00033039
1.01315e-05
0.000310156
1.74677e-05
0.000283396
2.37842e-05
0.000251751
2.85885e-05
0.000217261
3.14601e-05
0.000182286
3.22541e-05
0.000149104
3.11112e-05
0.000119391
2.86614e-05
9.26544e-05
2.62203e-05
6.63646e-05
2.58401e-05
3.52957e-05
2.75503e-05
2.79549e-05
5.24675e-05
-8.34114e-05
9.18372e-05
-8.1724e-05
0.000127107
-7.95714e-05
0.000160222
-7.46139e-05
0.000190333
-6.78138e-05
0.000217182
-5.96447e-05
0.000240588
-5.05569e-05
0.000260302
-4.0826e-05
0.000275976
-3.05903e-05
0.00028719
-1.98602e-05
0.00029326
-8.28803e-06
0.000293377
3.74683e-06
0.000289074
1.4103e-05
0.000280081
2.5262e-05
0.000265791
3.62081e-05
0.000245844
4.6255e-05
0.000220648
5.4252e-05
0.000191591
5.92066e-05
0.000161026
6.08438e-05
0.000130455
5.96992e-05
0.000100513
5.67957e-05
7.27129e-05
5.37386e-05
4.75209e-05
5.30784e-05
2.36291e-05
5.47288e-05
5.22376e-05
4.568e-05
-0.000118214
8.36509e-05
-0.000113947
0.000113387
-0.000106161
0.000138227
-9.69014e-05
0.000159022
-8.64793e-05
0.000176323
-7.50058e-05
0.000190229
-6.26922e-05
0.00020084
-4.97603e-05
0.000208358
-3.63814e-05
0.000212932
-2.26495e-05
0.000215217
-8.77068e-06
0.000215451
5.51784e-06
0.000211592
2.07235e-05
0.000204063
3.57808e-05
0.000192511
5.0483e-05
0.000176937
6.39922e-05
0.000157452
7.49126e-05
0.00013514
8.17933e-05
0.000111245
8.4069e-05
8.75561e-05
8.23487e-05
6.54803e-05
7.81243e-05
4.5498e-05
7.33355e-05
2.81277e-05
7.04085e-05
1.45493e-05
6.88513e-05
6.64227e-05
2.91286e-05
-0.00013802
5.44959e-05
-0.000132081
7.39013e-05
-0.000122036
9.00182e-05
-0.000110516
0.000103281
-9.77174e-05
0.000113703
-8.37311e-05
0.00012119
-6.88053e-05
0.000125723
-5.323e-05
0.00012753
-3.72788e-05
0.000126815
-2.10679e-05
0.000123573
-4.61796e-06
0.000118165
1.19331e-05
0.000111349
2.87524e-05
0.000103056
4.55951e-05
9.32467e-05
6.19085e-05
8.20527e-05
7.67067e-05
6.96607e-05
8.84241e-05
5.6972e-05
9.52827e-05
4.43362e-05
9.68658e-05
3.26829e-05
9.38341e-05
2.26882e-05
8.80499e-05
1.43773e-05
8.16953e-05
8.14344e-06
7.70464e-05
3.4998e-06
7.36302e-05
6.95984e-05
1.18794e-05
-0.000145359
2.18375e-05
-0.000139401
2.89501e-05
-0.000128551
3.51746e-05
-0.000115896
3.94016e-05
-0.000101468
4.1346e-05
-8.55333e-05
4.10767e-05
-6.85704e-05
3.87263e-05
-5.10063e-05
3.45853e-05
-3.32412e-05
2.89887e-05
-1.54721e-05
2.22217e-05
2.20874e-06
1.45181e-05
1.98156e-05
6.33697e-06
3.72241e-05
-1.90838e-06
5.41791e-05
-9.60135e-06
6.99859e-05
-1.59366e-05
8.3505e-05
-2.00878e-05
9.31612e-05
-2.21057e-05
9.7677e-05
-2.20378e-05
9.70182e-05
-2.0272e-05
9.21744e-05
-1.72822e-05
8.51519e-05
-1.37737e-05
7.80721e-05
-9.62888e-06
7.27183e-05
-4.85481e-06
6.88065e-05
6.48848e-05
-2.1055e-06
-0.000143593
-5.94958e-06
-0.000136792
-1.04994e-05
-0.000125119
-1.51983e-05
-0.000111801
-2.16505e-05
-9.62309e-05
-2.9718e-05
-7.89548e-05
-3.89637e-05
-6.07722e-05
-4.89969e-05
-4.22678e-05
-5.94845e-05
-2.39088e-05
-7.00138e-05
-5.9421e-06
-8.01952e-05
1.15288e-05
-8.95415e-05
2.84089e-05
-9.74567e-05
4.45053e-05
-0.0001031
5.93843e-05
-0.000105501
7.22238e-05
-0.000103778
8.19681e-05
-9.77383e-05
8.75533e-05
-8.82102e-05
8.85456e-05
-7.59964e-05
8.52899e-05
-6.25327e-05
7.91169e-05
-4.89121e-05
7.1832e-05
-3.5987e-05
6.51057e-05
-2.36849e-05
6.00606e-05
-1.16818e-05
5.66312e-05
5.37353e-05
-1.40111e-05
-0.000131915
-2.99395e-05
-0.000124253
-4.43144e-05
-0.000112252
-5.97899e-05
-9.85279e-05
-7.70097e-05
-8.22028e-05
-9.47752e-05
-6.43176e-05
-0.000112508
-4.5972e-05
-0.000129537
-2.78761e-05
-0.000145238
-1.05206e-05
-0.000159022
5.82289e-06
-0.000170183
2.10163e-05
-0.000178109
3.49795e-05
-0.000181946
4.74358e-05
-0.000180933
5.79567e-05
-0.000174588
6.58892e-05
-0.000163063
7.06754e-05
-0.000146972
7.18969e-05
-0.000127496
6.96957e-05
-0.000106304
6.48071e-05
-8.51394e-05
5.85272e-05
-6.5133e-05
5.21629e-05
-4.676e-05
4.67758e-05
-3.0053e-05
4.29978e-05
-1.46474e-05
4.09373e-05
3.97008e-05
-2.38706e-05
-0.000112039
-4.84315e-05
-0.000103793
-7.09375e-05
-9.14867e-05
-9.5897e-05
-7.75003e-05
-0.000121738
-6.08839e-05
-0.000146811
-4.33202e-05
-0.000170389
-2.60811e-05
-0.000191412
-9.96599e-06
-0.000208943
4.52284e-06
-0.000222056
1.71181e-05
-0.000230149
2.79041e-05
-0.000232645
3.68743e-05
-0.000229264
4.38945e-05
-0.00022
4.88283e-05
-0.000205089
5.14265e-05
-0.000185472
5.1612e-05
-0.000162197
4.94093e-05
-0.000136967
4.53854e-05
-0.000111677
4.03231e-05
-8.77145e-05
3.51218e-05
-6.5802e-05
3.05427e-05
-4.60745e-05
2.71679e-05
-2.87402e-05
2.54004e-05
-1.36836e-05
2.55364e-05
2.64871e-05
-3.12023e-05
-8.6828e-05
-6.0644e-05
-7.76787e-05
-8.87441e-05
-6.51864e-05
-0.000119512
-5.12029e-05
-0.000149678
-3.50433e-05
-0.000177847
-1.89258e-05
-0.000202863
-4.16205e-06
-0.000223437
8.37631e-06
-0.00023866
1.83688e-05
-0.000247929
2.57003e-05
-0.000250832
3.05808e-05
-0.000247279
3.35409e-05
-0.000237493
3.4699e-05
-0.000221918
3.4094e-05
-0.000201656
3.19995e-05
-0.000177703
2.87256e-05
-0.000151767
2.4588e-05
-0.000125548
2.01546e-05
-0.000100483
1.59615e-05
-7.74321e-05
1.24959e-05
-5.6789e-05
1.01329e-05
-3.86408e-05
9.17097e-06
-2.33266e-05
9.9169e-06
-1.0852e-05
1.27396e-05
1.60874e-05
-3.52779e-05
-5.85043e-05
-6.58976e-05
-4.87861e-05
-9.60129e-05
-3.63102e-05
-0.000128169
-2.27948e-05
-0.000158475
-7.9439e-06
-0.000185888
5.76047e-06
-0.000208948
1.69718e-05
-0.000226527
2.4912e-05
-0.000237843
2.93696e-05
-0.000242713
3.07385e-05
-0.000241007
2.96605e-05
-0.000232929
2.67386e-05
-0.00021943
2.23417e-05
-0.000201293
1.71427e-05
-0.00017957
1.16639e-05
-0.000155705
6.24023e-06
-0.000131218
1.24707e-06
-0.000107279
-2.95075e-06
-8.47278e-05
-6.06358e-06
-6.40802e-05
-7.84397e-06
-4.56719e-05
-8.08387e-06
-2.9785e-05
-6.57332e-06
-1.69574e-05
-3.02481e-06
-7.44014e-06
2.9057e-06
8.95592e-06
-3.4992e-05
-3.01866e-05
-6.38404e-05
-2.0127e-05
-9.27073e-05
-7.87474e-06
-0.000122847
4.71513e-06
-0.000150523
1.76694e-05
-0.000174949
2.8492e-05
-0.000194765
3.58305e-05
-0.000208911
3.89917e-05
-0.000216995
3.80181e-05
-0.000218828
3.36387e-05
-0.00021474
2.68959e-05
-0.000205442
1.88225e-05
-0.000191668
1.02657e-05
-0.00017466
1.8851e-06
-0.000155497
-5.8728e-06
-0.000135241
-1.26648e-05
-0.000114747
-1.82405e-05
-9.45722e-05
-2.2417e-05
-7.5121e-05
-2.50278e-05
-5.67334e-05
-2.58785e-05
-3.97997e-05
-2.47345e-05
-2.48814e-05
-2.12801e-05
-1.28221e-05
-1.50979e-05
-4.54282e-06
-5.74782e-06
3.90847e-06
-3.12897e-05
-4.65607e-06
-5.64472e-05
5.80814e-06
-8.18666e-05
1.77286e-05
-0.00010799
2.91379e-05
-0.000131599
4.00123e-05
-0.000152076
4.79966e-05
-0.000168387
5.17993e-05
-0.000179991
5.08128e-05
-0.000186303
4.52067e-05
-0.000187357
3.60543e-05
-0.000183541
2.48665e-05
-0.000175788
1.30065e-05
-0.000165032
1.44815e-06
-0.000152175
-9.1892e-06
-0.000138021
-1.85449e-05
-0.000123096
-2.64456e-05
-0.00010767
-3.28104e-05
-9.18778e-05
-3.75712e-05
-7.5803e-05
-4.06074e-05
-5.958e-05
-4.1677e-05
-4.35042e-05
-4.04485e-05
-2.82137e-05
-3.63727e-05
-1.48871e-05
-2.87012e-05
-5.17374e-06
-1.66476e-05
-3.43931e-06
-2.60315e-05
1.66525e-05
-4.66136e-05
2.75459e-05
-6.74395e-05
3.9088e-05
-8.86025e-05
4.92572e-05
-0.000107557
5.82129e-05
-0.000123932
6.38137e-05
-0.000137045
6.48296e-05
-0.000146422
6.06491e-05
-0.000151555
5.15371e-05
-0.000152854
3.90107e-05
-0.000150904
2.48293e-05
-0.000146469
1.04898e-05
-0.000140264
-3.01399e-06
-0.000132857
-1.5153e-05
-0.000124568
-2.57233e-05
-0.000115522
-3.46884e-05
-0.000105706
-4.20705e-05
-9.50429e-05
-4.78704e-05
-8.34149e-05
-5.20075e-05
-7.06997e-05
-5.42667e-05
-5.69216e-05
-5.42348e-05
-4.22861e-05
-5.12061e-05
-2.80174e-05
-4.41666e-05
-1.53584e-05
-3.22302e-05
-1.90613e-05
-1.98605e-05
3.27841e-05
-3.52514e-05
4.40174e-05
-5.07698e-05
5.52002e-05
-6.63347e-05
6.42586e-05
-8.02616e-05
7.17144e-05
-9.23396e-05
7.56042e-05
-0.000102226
7.47802e-05
-0.000109432
6.85291e-05
-0.00011388
5.72829e-05
-0.000116071
4.28381e-05
-0.000116585
2.70265e-05
-0.000115943
1.13308e-05
-0.000114474
-3.3271e-06
-0.000112306
-1.65043e-05
-0.000109419
-2.80706e-05
-0.000105737
-3.8035e-05
-0.000101176
-4.64569e-05
-9.56107e-05
-5.33937e-05
-8.88596e-05
-5.88456e-05
-8.0634e-05
-6.27122e-05
-7.06641e-05
-6.46518e-05
-5.85179e-05
-6.41505e-05
-4.46812e-05
-6.03094e-05
-2.75643e-05
-5.25293e-05
-4.39077e-05
-1.23098e-05
4.27798e-05
-2.17599e-05
5.42457e-05
-3.11913e-05
6.52449e-05
-4.07926e-05
7.36062e-05
-4.94188e-05
8.01547e-05
-5.70628e-05
8.3146e-05
-6.37036e-05
8.15249e-05
-6.9052e-05
7.44719e-05
-7.3383e-05
6.25324e-05
-7.69831e-05
4.74912e-05
-8.0056e-05
3.11137e-05
-8.27349e-05
1.48311e-05
-8.50075e-05
-4.81676e-07
-8.67605e-05
-1.44012e-05
-8.78614e-05
-2.67853e-05
-8.82159e-05
-3.76193e-05
-8.77728e-05
-4.69642e-05
-8.64306e-05
-5.49086e-05
-8.40128e-05
-6.15477e-05
-8.02971e-05
-6.69485e-05
-7.47994e-05
-7.1061e-05
-6.64834e-05
-7.38197e-05
-5.41267e-05
-7.49334e-05
-3.3265e-05
-7.42439e-05
-7.24268e-05
-4.26813e-06
4.61231e-05
-7.11682e-06
5.76428e-05
-1.00623e-05
6.86677e-05
-1.3522e-05
7.694e-05
-1.66809e-05
8.32846e-05
-1.98534e-05
8.62995e-05
-2.31904e-05
8.49636e-05
-2.68462e-05
7.84505e-05
-3.10572e-05
6.7163e-05
-3.57521e-05
5.26588e-05
-4.07363e-05
3.65542e-05
-4.57705e-05
2.02448e-05
-5.05915e-05
4.6242e-06
-5.49633e-05
-9.83354e-06
-5.87442e-05
-2.29033e-05
-6.18822e-05
-3.45065e-05
-6.43114e-05
-4.46772e-05
-6.60359e-05
-5.35189e-05
-6.69675e-05
-6.12275e-05
-6.67749e-05
-6.8022e-05
-6.47156e-05
-7.41149e-05
-5.96558e-05
-7.97828e-05
-4.99853e-05
-8.53871e-05
-3.02956e-05
-9.127e-05
-9.51941e-05
2.86105e-06
4.29803e-05
6.81966e-06
5.42182e-05
1.01622e-05
6.54566e-05
1.27314e-05
7.42165e-05
1.50168e-05
8.10384e-05
1.64133e-05
8.49021e-05
1.65964e-05
8.48547e-05
1.50127e-05
8.01208e-05
1.15991e-05
7.06809e-05
6.66654e-06
5.77391e-05
6.62012e-07
4.27198e-05
-5.90492e-06
2.69575e-05
-1.25744e-05
1.14e-05
-1.89779e-05
-3.37534e-06
-2.48681e-05
-1.70245e-05
-3.01184e-05
-2.93694e-05
-3.46263e-05
-4.03872e-05
-3.83983e-05
-5.01658e-05
-4.1176e-05
-5.89914e-05
-4.24552e-05
-6.71974e-05
-4.16513e-05
-7.50747e-05
-3.83011e-05
-8.29018e-05
-3.21708e-05
-9.11798e-05
-1.93378e-05
-0.000100614
-0.000107049
8.66051e-06
3.43742e-05
1.92343e-05
4.4565e-05
2.84077e-05
5.6108e-05
3.66397e-05
6.58968e-05
4.39291e-05
7.3803e-05
4.9717e-05
7.91312e-05
5.35071e-05
8.11057e-05
5.46121e-05
7.89675e-05
5.26822e-05
7.24356e-05
4.81719e-05
6.20311e-05
4.16827e-05
4.89686e-05
3.40215e-05
3.44366e-05
2.58528e-05
1.9437e-05
1.7697e-05
4.67217e-06
9.94588e-06
-9.37949e-06
2.87228e-06
-2.24182e-05
-3.34348e-06
-3.43299e-05
-8.52839e-06
-4.51673e-05
-1.24239e-05
-5.5234e-05
-1.47417e-05
-6.48663e-05
-1.52761e-05
-7.42735e-05
-1.38502e-05
-8.35415e-05
-1.13102e-05
-9.29467e-05
-7.60982e-06
-0.000103592
-0.000111073
1.29694e-05
2.16809e-05
2.84466e-05
3.0264e-05
4.27271e-05
4.17751e-05
5.59601e-05
5.27913e-05
6.75993e-05
6.22307e-05
7.73081e-05
6.94634e-05
8.46016e-05
7.38744e-05
8.87938e-05
7.47517e-05
8.92254e-05
7.17453e-05
8.59607e-05
6.48523e-05
7.96846e-05
5.46518e-05
7.13725e-05
4.21744e-05
6.19752e-05
2.83778e-05
5.22335e-05
1.40755e-05
4.27239e-05
-1.00024e-07
3.38919e-05
-1.37206e-05
2.60092e-05
-2.65231e-05
1.93732e-05
-3.84797e-05
1.40554e-05
-4.97776e-05
1.00198e-05
-6.06472e-05
7.09948e-06
-7.12016e-05
5.35714e-06
-8.13656e-05
4.06093e-06
-9.10451e-05
1.29087e-06
-0.000101878
-0.000110344
1.49761e-05
6.90337e-06
3.29387e-05
1.33901e-05
5.13171e-05
2.39891e-05
6.87743e-05
3.58901e-05
8.42052e-05
4.70471e-05
9.73092e-05
5.64646e-05
0.000107721
6.35541e-05
0.000114847
6.76873e-05
0.000118054
6.8404e-05
0.000117012
6.54773e-05
0.000111994
5.9055e-05
0.000103758
4.95588e-05
9.34828e-05
3.77923e-05
8.2316e-05
2.45353e-05
7.11208e-05
1.05927e-05
6.051e-05
-3.39205e-06
5.08706e-05
-1.69863e-05
4.24434e-05
-2.99868e-05
3.52046e-05
-4.23847e-05
2.89679e-05
-5.42454e-05
2.33848e-05
-6.55708e-05
1.8213e-05
-7.62103e-05
1.3665e-05
-8.58491e-05
6.76158e-06
-9.62307e-05
-0.000105393
1.49721e-05
-8.05059e-06
3.31925e-05
-4.14072e-06
5.38827e-05
4.59628e-06
7.45789e-05
1.65386e-05
9.32254e-05
2.91709e-05
0.000109217
4.08474e-05
0.000122286
5.07213e-05
0.00013189
5.81711e-05
0.00013769
6.26783e-05
0.000139143
6.38444e-05
0.000136129
6.1557e-05
0.000128751
5.59363e-05
0.000118238
4.70115e-05
0.000106011
3.55157e-05
9.33086e-05
2.23096e-05
8.0997e-05
8.26782e-06
6.96055e-05
-5.92237e-06
5.93368e-05
-1.98074e-05
5.01623e-05
-3.31421e-05
4.18409e-05
-4.57968e-05
3.39576e-05
-5.76399e-05
2.60727e-05
-6.85035e-05
1.90694e-05
-7.80373e-05
1.0306e-05
-8.79277e-05
-9.70625e-05
1.34207e-05
-2.15768e-05
2.95939e-05
-2.06079e-05
5.00803e-05
-1.44674e-05
7.24416e-05
-3.67446e-06
9.35677e-05
9.59988e-06
0.000112087
2.32619e-05
0.000127437
3.59309e-05
0.000139201
4.67366e-05
0.000147061
5.5012e-05
0.000150563
6.03264e-05
0.00014954
6.21971e-05
0.000144061
6.06779e-05
0.000134456
5.5364e-05
0.000122064
4.63454e-05
0.000108392
3.44734e-05
9.46961e-05
2.07748e-05
8.17795e-05
6.23143e-06
6.99831e-05
-8.38373e-06
5.92491e-05
-2.25397e-05
4.93947e-05
-3.58944e-05
3.99888e-05
-4.81655e-05
3.05559e-05
-5.91794e-05
2.20535e-05
-6.86309e-05
1.22455e-05
-7.80619e-05
-8.71331e-05
1.08855e-05
-3.26341e-05
2.40531e-05
-3.48687e-05
4.12047e-05
-3.15165e-05
6.25347e-05
-2.28741e-05
8.45494e-05
-1.02125e-05
0.000104867
4.6026e-06
0.000122125
1.97919e-05
0.000135624
3.3983e-05
0.000144907
4.61277e-05
0.000150076
5.54792e-05
0.000150714
6.1506e-05
0.000147467
6.37133e-05
0.000140352
6.20576e-05
0.000129386
5.61995e-05
0.00011596
4.63348e-05
0.00010164
3.35229e-05
8.76898e-05
1.89311e-05
7.48171e-05
3.71035e-06
6.3118e-05
-1.12374e-05
5.24018e-05
-2.53093e-05
4.23346e-05
-3.80572e-05
3.23522e-05
-4.92671e-05
2.32944e-05
-5.8692e-05
1.32097e-05
-6.76972e-05
-7.6653e-05
7.91769e-06
-4.08963e-05
1.84526e-05
-4.6336e-05
3.16328e-05
-4.55875e-05
4.93154e-05
-3.93526e-05
6.9493e-05
-2.81997e-05
8.96652e-05
-1.33933e-05
0.000107766
3.43326e-06
0.000122446
2.0567e-05
0.000132975
3.64418e-05
0.000139243
4.97641e-05
0.000141351
5.97417e-05
0.000139836
6.55761e-05
0.000134857
6.71388e-05
0.000126267
6.44142e-05
0.000114543
5.70593e-05
0.000100977
4.56493e-05
8.70201e-05
3.14089e-05
7.38178e-05
1.57641e-05
6.18663e-05
4.26321e-08
5.10314e-05
-1.47997e-05
4.10596e-05
-2.81134e-05
3.13079e-05
-3.95965e-05
2.24344e-05
-4.90593e-05
1.28966e-05
-5.7725e-05
-6.64264e-05
6.01095e-06
-4.74815e-05
1.41475e-05
-5.53019e-05
2.45707e-05
-5.65455e-05
3.7631e-05
-5.21851e-05
5.34637e-05
-4.26264e-05
7.07456e-05
-2.85933e-05
8.74845e-05
-1.12241e-05
0.000101893
7.88306e-06
0.00011276
2.68598e-05
0.00011948
4.387e-05
0.000122257
5.74886e-05
0.000121686
6.65775e-05
0.000118118
7.09571e-05
0.000111879
7.06681e-05
0.000102791
6.57212e-05
9.14998e-05
5.5983e-05
7.90812e-05
4.25186e-05
6.67962e-05
2.67806e-05
5.55175e-05
1.04271e-05
4.54221e-05
-5.16902e-06
3.62662e-05
-1.90828e-05
2.74691e-05
-3.08901e-05
1.94575e-05
-4.04531e-05
1.12516e-05
-4.89295e-05
-5.73827e-05
6.58042e-06
-5.44087e-05
1.22482e-05
-6.25111e-05
2.00571e-05
-6.47527e-05
2.9034e-05
-6.13307e-05
3.97892e-05
-5.28408e-05
5.22443e-05
-3.96661e-05
6.53313e-05
-2.24468e-05
7.74547e-05
-2.39206e-06
8.71948e-05
1.86691e-05
9.3624e-05
3.85824e-05
9.63401e-05
5.53624e-05
9.62728e-05
6.71245e-05
9.37539e-05
7.37337e-05
8.92124e-05
7.52829e-05
8.27267e-05
7.20393e-05
7.43614e-05
6.38012e-05
6.46786e-05
5.12813e-05
5.45624e-05
3.57884e-05
4.49853e-05
1.90674e-05
3.64202e-05
2.84239e-06
2.87831e-05
-1.16361e-05
2.16155e-05
-2.37884e-05
1.51277e-05
-3.35077e-05
8.74532e-06
-4.19395e-05
-5.02285e-05
9.45213e-06
-6.29177e-05
1.27824e-05
-6.83623e-05
1.75621e-05
-6.99531e-05
2.26699e-05
-6.66714e-05
2.87601e-05
-5.87749e-05
3.60553e-05
-4.62429e-05
4.42953e-05
-2.93869e-05
5.2528e-05
-9.05925e-06
5.9593e-05
1.31096e-05
6.45109e-05
3.48753e-05
6.65714e-05
5.38885e-05
6.67403e-05
6.75067e-05
6.50868e-05
7.56497e-05
6.20168e-05
7.84492e-05
5.77775e-05
7.61667e-05
5.23613e-05
6.89121e-05
4.59157e-05
5.71803e-05
3.87992e-05
4.21032e-05
3.17718e-05
2.52968e-05
2.54197e-05
8.65282e-06
1.98721e-05
-6.2861e-06
1.47937e-05
-1.87635e-05
1.02848e-05
-2.86696e-05
5.90452e-06
-3.71398e-05
-4.53519e-05
1.21468e-05
-7.24536e-05
1.52343e-05
-7.31497e-05
1.55294e-05
-7.22099e-05
1.66148e-05
-6.85143e-05
1.87866e-05
-6.09648e-05
2.17209e-05
-4.8843e-05
2.53098e-05
-3.22725e-05
2.9119e-05
-1.1924e-05
3.23646e-05
1.0725e-05
3.46282e-05
3.33609e-05
3.56282e-05
5.34131e-05
3.57064e-05
6.78829e-05
3.49229e-05
7.66991e-05
3.34186e-05
8.00493e-05
3.13381e-05
7.81802e-05
2.8691e-05
7.13696e-05
2.5453e-05
6.01324e-05
2.16788e-05
4.5456e-05
1.76497e-05
2.87791e-05
1.39243e-05
1.1963e-05
1.07266e-05
-3.26652e-06
7.93853e-06
-1.6e-05
5.53153e-06
-2.60905e-05
3.37176e-06
-3.46265e-05
-4.27071e-05
1.13235e-05
-8.00986e-05
1.45715e-05
-7.63751e-05
1.16878e-05
-7.21717e-05
9.65998e-06
-6.77302e-05
8.83378e-06
-6.02811e-05
8.30931e-06
-4.8272e-05
7.97773e-06
-3.17492e-05
7.66511e-06
-1.13779e-05
7.17257e-06
1.13644e-05
6.64246e-06
3.40426e-05
6.53663e-06
5.39325e-05
6.49258e-06
6.8249e-05
6.46025e-06
7.69233e-05
6.41311e-06
8.01635e-05
6.33103e-06
7.82206e-05
6.16862e-06
7.14223e-05
5.80253e-06
6.0366e-05
5.16886e-06
4.59553e-05
4.23568e-06
2.95058e-05
3.22917e-06
1.27499e-05
2.40385e-06
-2.56334e-06
1.8667e-06
-1.54358e-05
1.50812e-06
-2.56484e-05
1.57916e-06
-3.41657e-05
-4.18556e-05
6.82303e-06
-8.33583e-05
7.8888e-06
-7.70128e-05
5.75373e-06
-7.0488e-05
2.57068e-06
-6.50663e-05
-5.50589e-07
-5.72833e-05
-3.87449e-06
-4.50282e-05
-7.47426e-06
-2.83151e-05
-1.12679e-05
-7.91107e-06
-1.47523e-05
1.45456e-05
-1.74326e-05
3.65009e-05
-1.8432e-05
5.52206e-05
-1.85559e-05
6.8539e-05
-1.78786e-05
7.63686e-05
-1.66402e-05
7.89496e-05
-1.49603e-05
7.65228e-05
-1.29993e-05
6.94286e-05
-1.09588e-05
5.83064e-05
-9.0134e-06
4.40184e-05
-7.2667e-06
2.77996e-05
-5.81148e-06
1.12655e-05
-4.48957e-06
-3.93665e-06
-3.05862e-06
-1.68139e-05
-1.55735e-06
-2.70745e-05
2.45589e-07
-3.53563e-05
-4.23571e-05
1.0742e-06
-8.28821e-05
1.81689e-07
-7.54756e-05
-1.72954e-06
-6.76581e-05
-5.21379e-06
-6.13045e-05
-9.82086e-06
-5.2688e-05
-1.5191e-05
-3.983e-05
-2.13221e-05
-2.27344e-05
-2.7726e-05
-2.35887e-06
-3.33211e-05
1.93994e-05
-3.71543e-05
3.99252e-05
-3.85563e-05
5.67494e-05
-3.84366e-05
6.84739e-05
-3.7008e-05
7.49786e-05
-3.45992e-05
7.6547e-05
-3.13953e-05
7.33414e-05
-2.76781e-05
6.57501e-05
-2.3706e-05
5.44146e-05
-1.97292e-05
4.01683e-05
-1.59676e-05
2.41826e-05
-1.2587e-05
7.97203e-06
-9.51626e-06
-6.96367e-06
-6.51821e-06
-1.97112e-05
-3.47867e-06
-2.99468e-05
-3.0098e-07
-3.78472e-05
-4.36704e-05
-3.21228e-06
-8.03111e-05
-6.36648e-06
-7.20878e-05
-9.15164e-06
-6.38783e-05
-1.31188e-05
-5.67407e-05
-1.88475e-05
-4.70546e-05
-2.58217e-05
-3.33464e-05
-3.38762e-05
-1.57802e-05
-4.18879e-05
4.36847e-06
-4.83231e-05
2.49291e-05
-5.21852e-05
4.34133e-05
-5.3336e-05
5.79232e-05
-5.25807e-05
6.7735e-05
-5.0285e-05
7.26856e-05
-4.67821e-05
7.30677e-05
-4.23066e-05
6.89393e-05
-3.71926e-05
6.07438e-05
-3.1742e-05
4.91217e-05
-2.62538e-05
3.48892e-05
-2.10252e-05
1.91718e-05
-1.62993e-05
3.3844e-06
-1.20239e-05
-1.11183e-05
-8.07968e-06
-2.35023e-05
-4.34625e-06
-3.35001e-05
-6.26188e-07
-4.09791e-05
-4.54491e-05
-6.10093e-06
-7.574e-05
-1.03946e-05
-6.72466e-05
-1.41512e-05
-5.89339e-05
-1.92519e-05
-5.11115e-05
-2.62254e-05
-4.038e-05
-3.47743e-05
-2.58209e-05
-4.41526e-05
-7.97726e-06
-5.2605e-05
1.14672e-05
-5.86799e-05
3.02438e-05
-6.18276e-05
4.63059e-05
-6.23835e-05
5.84536e-05
-6.09432e-05
6.62733e-05
-5.78411e-05
6.95763e-05
-5.333e-05
6.86269e-05
-4.77883e-05
6.35081e-05
-4.15613e-05
5.4671e-05
-3.4984e-05
4.27507e-05
-2.83974e-05
2.85505e-05
-2.215e-05
1.31633e-05
-1.6528e-05
-2.0728e-06
-1.16089e-05
-1.58865e-05
-7.60453e-06
-2.74759e-05
-5.08449e-06
-3.67043e-05
-1.58271e-06
-4.41725e-05
-4.7662e-05
-7.73809e-06
-6.9585e-05
-1.28187e-05
-6.12706e-05
-1.73658e-05
-5.29654e-05
-2.39298e-05
-4.44542e-05
-3.21891e-05
-3.2807e-05
-4.19652e-05
-1.76262e-05
-5.15856e-05
8.84791e-09
-5.92887e-05
1.80952e-05
-6.42098e-05
3.46444e-05
-6.63026e-05
4.82537e-05
-6.61678e-05
5.82289e-05
-6.40366e-05
6.4048e-05
-6.01481e-05
6.57096e-05
-5.48051e-05
6.3373e-05
-4.84114e-05
5.72511e-05
-4.13654e-05
4.77957e-05
-3.40145e-05
3.56122e-05
-2.67196e-05
2.14893e-05
-1.98441e-05
6.49619e-06
-1.37034e-05
-8.06582e-06
-8.73488e-06
-2.09156e-05
-5.09964e-06
-3.12355e-05
-5.87158e-06
-3.91529e-05
-2.90128e-06
-4.72122e-05
-5.06304e-05
-8.68199e-06
-6.26189e-05
-1.44235e-05
-5.45044e-05
-1.99913e-05
-4.61722e-05
-2.77283e-05
-3.70226e-05
-3.71029e-05
-2.46611e-05
-4.71853e-05
-9.29151e-06
-5.59217e-05
7.46589e-06
-6.22109e-05
2.36703e-05
-6.57306e-05
3.78508e-05
-6.67739e-05
4.91197e-05
-6.56422e-05
5.6969e-05
-6.25247e-05
6.09133e-05
-5.79124e-05
6.1132e-05
-5.20383e-05
5.76035e-05
-4.52684e-05
5.06235e-05
-3.7973e-05
4.06655e-05
-3.05014e-05
2.8326e-05
-2.32171e-05
1.43889e-05
-1.64832e-05
-8.61653e-08
-1.06142e-05
-1.383e-05
-6.22918e-06
-2.55218e-05
-3.42516e-06
-3.43738e-05
-4.58262e-06
-4.07764e-05
-2.68655e-06
-4.9385e-05
-5.32263e-05
-9.32492e-06
-5.51271e-05
-1.55582e-05
-4.71995e-05
-2.222e-05
-3.8774e-05
-3.06775e-05
-2.91583e-05
-4.05225e-05
-1.64123e-05
-4.9743e-05
-1.46739e-06
-5.69382e-05
1.38206e-05
-6.16488e-05
2.79232e-05
-6.38965e-05
3.98435e-05
-6.3854e-05
4.89638e-05
-6.16967e-05
5.48026e-05
-5.79981e-05
5.71707e-05
-5.29927e-05
5.61541e-05
-4.69212e-05
5.16498e-05
-4.0181e-05
4.40165e-05
-3.31121e-05
3.37417e-05
-2.60541e-05
2.14178e-05
-1.93514e-05
7.82543e-06
-1.33332e-05
-5.99758e-06
-8.3067e-06
-1.87929e-05
-4.62688e-06
-2.93028e-05
-2.53479e-06
-3.68237e-05
-1.76724e-06
-4.20281e-05
-1.74404e-06
-5.02146e-05
-5.46432e-05
-9.70228e-06
-4.73743e-05
-1.65488e-05
-3.95625e-05
-2.38706e-05
-3.10823e-05
-3.26402e-05
-2.12863e-05
-4.185e-05
-8.65297e-06
-4.94458e-05
5.24301e-06
-5.49064e-05
1.87497e-05
-5.8107e-05
3.08109e-05
-5.91351e-05
4.07125e-05
-5.82096e-05
4.79509e-05
-5.56274e-05
5.2153e-05
-5.17076e-05
5.32422e-05
-4.65824e-05
5.11035e-05
-4.06118e-05
4.57907e-05
-3.41751e-05
3.76925e-05
-2.7592e-05
2.72734e-05
-2.11658e-05
1.51069e-05
-1.51908e-05
1.96218e-06
-9.95049e-06
-1.11444e-05
-5.73661e-06
-2.30093e-05
-2.5596e-06
-3.24885e-05
-9.1124e-07
-3.89527e-05
3.45195e-07
-4.32275e-05
-1.42435e-06
-5.04635e-05
-5.57629e-05
-9.78736e-06
-3.96808e-05
-1.74471e-05
-3.18647e-05
-2.48648e-05
-2.34857e-05
-3.33443e-05
-1.38607e-05
-4.10559e-05
-1.89743e-06
-4.68992e-05
1.05649e-05
-5.07907e-05
2.22873e-05
-5.27186e-05
3.25198e-05
-5.28313e-05
4.06867e-05
-5.13268e-05
4.63649e-05
-4.84631e-05
4.92276e-05
-4.44351e-05
4.92142e-05
-3.944e-05
4.61816e-05
-3.38474e-05
4.02852e-05
-2.79856e-05
3.19161e-05
-2.21329e-05
2.15066e-05
-1.6544e-05
9.60857e-06
-1.14662e-05
-3.02092e-06
-7.14121e-06
-1.53893e-05
-3.85699e-06
-2.63685e-05
-1.50347e-06
-3.49733e-05
-3.47157e-07
-4.06737e-05
6.86863e-07
-4.43203e-05
-1.25844e-06
-5.06454e-05
-5.6916e-05
-9.51824e-06
-3.24495e-05
-1.75709e-05
-2.44916e-05
-2.47375e-05
-1.63412e-05
-3.23562e-05
-7.24716e-06
-3.83727e-05
3.61835e-06
-4.26961e-05
1.45508e-05
-4.53137e-05
2.46538e-05
-4.62666e-05
3.33109e-05
-4.57136e-05
4.00222e-05
-4.38434e-05
4.4405e-05
-4.08496e-05
4.61889e-05
-3.69238e-05
4.52872e-05
-3.2272e-05
4.15953e-05
-2.72613e-05
3.53379e-05
-2.21632e-05
2.68802e-05
-1.72112e-05
1.66216e-05
-1.26195e-05
5.09681e-06
-8.60855e-06
-6.94461e-06
-5.41212e-06
-1.85317e-05
-3.26684e-06
-2.86225e-05
-2.1683e-06
-3.64166e-05
-1.87366e-06
-4.16277e-05
-8.7242e-07
-4.51434e-05
-1.1602e-06
-5.09493e-05
-5.78149e-05
-8.97728e-06
-2.5766e-05
-1.57862e-05
-1.774e-05
-2.27254e-05
-9.81219e-06
-2.92012e-05
-1.50107e-06
-3.39189e-05
8.06043e-06
-3.71535e-05
1.75246e-05
-3.88771e-05
2.61902e-05
-3.91845e-05
3.34883e-05
-3.82196e-05
3.89665e-05
-3.61592e-05
4.22705e-05
-3.32046e-05
4.31998e-05
-2.95319e-05
4.16227e-05
-2.53703e-05
3.74851e-05
-2.10358e-05
3.10474e-05
-1.67522e-05
2.2642e-05
-1.27123e-05
1.26366e-05
-9.09467e-06
1.5524e-06
-6.09201e-06
-9.86516e-06
-3.94315e-06
-2.06718e-05
-2.77424e-06
-2.99238e-05
-2.6016e-06
-3.69957e-05
-2.93241e-06
-4.19014e-05
-2.18143e-06
-4.56561e-05
-1.44134e-06
-5.14974e-05
-5.87252e-05
-7.95302e-06
-1.97988e-05
-1.29693e-05
-1.1936e-05
-1.92429e-05
-4.13665e-06
-2.45165e-05
3.35575e-06
-2.83192e-05
1.16498e-05
-3.07968e-05
1.9791e-05
-3.19399e-05
2.71884e-05
-3.18648e-05
3.33091e-05
-3.07137e-05
3.77406e-05
-2.866e-05
4.01591e-05
-2.5891e-05
4.04044e-05
-2.25834e-05
3.83255e-05
-1.89721e-05
3.39079e-05
-1.53209e-05
2.74245e-05
-1.18192e-05
1.91703e-05
-8.62293e-06
9.48223e-06
-5.87947e-06
-1.13041e-06
-3.75491e-06
-1.19296e-05
-2.4477e-06
-2.20158e-05
-1.99544e-06
-3.05628e-05
-2.26205e-06
-3.71038e-05
-2.8973e-06
-4.18604e-05
-2.34528e-06
-4.59902e-05
-1.55533e-06
-5.21565e-05
-5.96885e-05
-6.62276e-06
-1.4771e-05
-1.06571e-05
-7.15338e-06
-1.52345e-05
4.57389e-07
-1.93977e-05
7.26409e-06
-2.23964e-05
1.45142e-05
-2.42918e-05
2.15342e-05
-2.50539e-05
2.78386e-05
-2.47748e-05
3.29481e-05
-2.35922e-05
3.64941e-05
-2.16719e-05
3.81915e-05
-1.91749e-05
3.78835e-05
-1.6275e-05
3.54342e-05
-1.32086e-05
3.0861e-05
-1.01967e-05
2.44274e-05
-7.40217e-06
1.63893e-05
-4.94709e-06
7.05518e-06
-2.95662e-06
-3.07488e-06
-1.59173e-06
-1.32758e-05
-9.67713e-07
-2.27117e-05
-1.08835e-06
-3.06762e-05
-1.69333e-06
-3.68668e-05
-2.27092e-06
-4.1663e-05
-1.83036e-06
-4.61682e-05
-1.10434e-06
-5.26211e-05
-6.02622e-05
-5.31379e-06
-1.06621e-05
-8.44958e-06
-3.32464e-06
-1.15214e-05
3.96173e-06
-1.46876e-05
1.02739e-05
-1.696e-05
1.6726e-05
-1.83523e-05
2.28307e-05
-1.88118e-05
2.82205e-05
-1.84033e-05
3.24789e-05
-1.72418e-05
3.52821e-05
-1.54742e-05
3.63898e-05
-1.32516e-05
3.56437e-05
-1.07407e-05
3.29319e-05
-8.1618e-06
2.82937e-05
-5.70516e-06
2.19721e-05
-3.49508e-06
1.41831e-05
-1.6369e-06
5.21486e-06
-2.39737e-07
-4.44071e-06
5.45437e-07
-1.40809e-05
6.72814e-07
-2.29435e-05
1.8224e-07
-3.04428e-05
-5.85979e-07
-3.64317e-05
-9.76844e-07
-4.13486e-05
-7.60652e-07
-4.61234e-05
-3.14871e-07
-5.27202e-05
-6.03725e-05
-4.05432e-06
-7.50904e-06
-6.37431e-06
-4.29199e-07
-8.61195e-06
6.53005e-06
-1.09764e-05
1.24877e-05
-1.25918e-05
1.83045e-05
-1.34866e-05
2.3672e-05
-1.36383e-05
2.83196e-05
-1.30847e-05
3.18838e-05
-1.19213e-05
3.40851e-05
-1.02743e-05
3.47225e-05
-8.28467e-06
3.36452e-05
-6.10506e-06
3.07625e-05
-3.93371e-06
2.61275e-05
-1.92931e-06
1.99548e-05
-1.74739e-07
1.24309e-05
1.22681e-06
3.8274e-06
2.1698e-06
-5.37357e-06
2.56028e-06
-1.45056e-05
2.36447e-06
-2.28731e-05
1.68905e-06
-3.00188e-05
9.71545e-07
-3.59124e-05
5.38874e-07
-4.092e-05
4.36008e-07
-4.58155e-05
4.89361e-07
-5.24454e-05
-6.01013e-05
-2.98273e-06
-5.18381e-06
-4.66813e-06
1.66966e-06
-6.24943e-06
8.3632e-06
-8.12341e-06
1.40769e-05
-9.18145e-06
1.93518e-05
-9.66755e-06
2.41046e-05
-9.53748e-06
2.81498e-05
-8.83452e-06
3.11575e-05
-7.65507e-06
3.28816e-05
-6.09942e-06
3.31541e-05
-4.294e-06
3.18402e-05
-2.3855e-06
2.88638e-05
-5.47712e-07
2.42789e-05
1.13003e-06
1.82689e-05
2.53122e-06
1.10257e-05
3.58513e-06
2.78829e-06
4.17072e-06
-5.97216e-06
4.24991e-06
-1.46328e-05
3.82698e-06
-2.25872e-05
3.08898e-06
-2.94685e-05
2.39941e-06
-3.52777e-05
1.7569e-06
-4.03046e-05
1.39113e-06
-4.52498e-05
1.11526e-06
-5.18651e-05
-5.94491e-05
-2.11358e-06
-3.54716e-06
-3.28067e-06
3.12241e-06
-4.34513e-06
9.60818e-06
-5.85593e-06
1.51713e-05
-6.55807e-06
2.00141e-05
-6.73037e-06
2.42199e-05
-6.36113e-06
2.77551e-05
-5.54648e-06
3.03178e-05
-4.33537e-06
3.16655e-05
-2.83921e-06
3.16597e-05
-1.18993e-06
3.01879e-05
4.85583e-07
2.71799e-05
2.05865e-06
2.26873e-05
3.46525e-06
1.68659e-05
4.59261e-06
9.89105e-06
5.37531e-06
2.01127e-06
5.7112e-06
-6.3173e-06
5.5011e-06
-1.45154e-05
4.92329e-06
-2.21332e-05
4.23206e-06
-2.88226e-05
3.4973e-06
-3.45189e-05
2.58769e-06
-3.9477e-05
2.0451e-06
-4.44542e-05
1.53991e-06
-5.10166e-05
-5.8447e-05
-1.51725e-06
-2.37063e-06
-2.29053e-06
4.12779e-06
-2.98159e-06
1.04284e-05
-3.85621e-06
1.58426e-05
-4.33184e-06
2.03745e-05
-4.28498e-06
2.4161e-05
-3.8172e-06
2.72752e-05
-2.96423e-06
2.94565e-05
-1.79663e-06
3.05039e-05
-4.12458e-07
3.02773e-05
1.0903e-06
2.86758e-05
2.60285e-06
2.5663e-05
3.96569e-06
2.12975e-05
5.11146e-06
1.57017e-05
6.05241e-06
8.96779e-06
6.63549e-06
1.42217e-06
6.80473e-06
-6.50241e-06
6.49238e-06
-1.43045e-05
5.85088e-06
-2.16126e-05
5.16888e-06
-2.81212e-05
4.332e-06
-3.36509e-05
3.1277e-06
-3.84603e-05
2.41914e-06
-4.34787e-05
1.74715e-06
-4.9989e-05
-5.72714e-05
-1.06925e-06
-1.53601e-06
-1.52542e-06
4.79845e-06
-1.93473e-06
1.09149e-05
-2.20992e-06
1.61617e-05
-2.51082e-06
2.04785e-05
-2.37286e-06
2.39756e-05
-1.90179e-06
2.67771e-05
-1.07511e-06
2.86416e-05
-5.61151e-08
2.94582e-05
1.15004e-06
2.90633e-05
2.49462e-06
2.7343e-05
3.84341e-06
2.43015e-05
5.12506e-06
1.99994e-05
6.22314e-06
1.45733e-05
7.07929e-06
8.12231e-06
7.55494e-06
9.41144e-07
7.55861e-06
-6.57823e-06
7.23884e-06
-1.40513e-05
6.57481e-06
-2.1074e-05
5.82286e-06
-2.73807e-05
4.87882e-06
-3.26986e-05
3.36698e-06
-3.73164e-05
2.58212e-06
-4.24203e-05