/*--------------------------------*- C++ -*----------------------------------*\
| =========                 |                                                 |
| \\      /  F ield         | OpenFOAM: The Open Source CFD Toolbox           |
|  \\    /   O peration     | Version:  2.3.0                                 |
|   \\  /    A nd           | Web:      www.OpenFOAM.org                      |
|    \\/     M anipulation  |                                                 |
\*---------------------------------------------------------------------------*/
FoamFile
{
    version     2.0;
    format      ascii;
    class       volScalarField;
    location    "0.699652";
    object      nut.water;
}
// * * * * * * * * * * * * * * * * * * * * * * * * * * * * * * * * * * * * * //

dimensions      [0 2 -1 0 0 0 0];

internalField   nonuniform List<scalar> 
18816
(
1.73356e-06
1.99086e-06
3.4364e-06
4.81777e-06
5.15546e-06
4.47104e-06
3.10625e-06
2.64952e-06
2.22694e-06
4.29599e-06
6.09285e-06
6.26709e-06
5.45508e-06
4.24194e-06
2.80104e-06
2.24446e-06
2.64627e-06
3.74289e-06
4.74631e-06
5.46878e-06
6.11536e-06
6.549e-06
6.5346e-06
5.95874e-06
5.02392e-06
2.73844e-06
2.32468e-06
1.21408e-06
3.40258e-32
6.88407e-06
6.64481e-06
6.22951e-06
4.85312e-06
2.19349e-06
1.89667e-06
2.22181e-06
3.55814e-06
6.5101e-06
6.23958e-06
4.67356e-06
2.59932e-06
1.98721e-06
1.7313e-06
1.59231e-06
1.55123e-06
1.58775e-06
1.69698e-06
2.11816e-06
3.24822e-06
5.00095e-06
5.95205e-06
6.47184e-06
7.08554e-06
6.17694e-06
2.33558e-06
7.17796e-07
2.7243e-32
7.28782e-06
6.84877e-06
5.42748e-06
2.44284e-06
1.56422e-06
1.52637e-06
1.7979e-06
2.26386e-06
3.97674e-06
5.31182e-06
2.58138e-06
1.89513e-06
1.6627e-06
1.6102e-06
1.53951e-06
1.52392e-06
1.53089e-06
1.48052e-06
1.45208e-06
1.67492e-06
2.62825e-06
4.05191e-06
5.90546e-06
6.76829e-06
4.92964e-06
2.50468e-06
6.80853e-07
2.58634e-32
7.79509e-06
6.86833e-06
3.95988e-06
1.78001e-06
1.46204e-06
1.48494e-06
1.70479e-06
1.83475e-06
1.83307e-06
2.05305e-06
2.06287e-06
1.76553e-06
1.50012e-06
1.39449e-06
1.40497e-06
1.49267e-06
1.62673e-06
1.56555e-06
1.4439e-06
1.32042e-06
1.37591e-06
1.52545e-06
1.9564e-06
2.8676e-06
2.06701e-06
1.82245e-06
6.1665e-31
2.68239e-32
7.77407e-06
7.30462e-06
4.11857e-06
1.73452e-06
1.38881e-06
1.40512e-06
1.55667e-06
1.53726e-06
1.40615e-06
1.51131e-06
1.65517e-06
1.52936e-06
1.29145e-06
1.26758e-06
1.30091e-06
1.4246e-06
1.58998e-06
1.56945e-06
1.54186e-06
1.37554e-06
1.35344e-06
1.36059e-06
1.24501e-06
1.39556e-06
1.55962e-06
1.69619e-06
4.00755e-07
4.80111e-32
7.4349e-06
7.7406e-06
4.88371e-06
1.59975e-06
1.37687e-06
1.49868e-06
1.61942e-06
1.56934e-06
1.41485e-06
1.15173e-06
1.08681e-06
1.07521e-06
1.06629e-06
1.06893e-06
1.1069e-06
1.29577e-06
1.48231e-06
1.56254e-06
1.6195e-06
1.64086e-06
1.51132e-06
1.43306e-06
1.22927e-06
1.40282e-06
1.50613e-06
1.68397e-06
1.8235e-07
1.02157e-21
6.17515e-06
7.72499e-06
5.2104e-06
1.35124e-06
1.38052e-06
1.5227e-06
1.74942e-06
1.7884e-06
1.64292e-06
1.39813e-06
1.14646e-06
1.10001e-06
1.03705e-06
1.005e-06
1.01633e-06
1.16554e-06
1.42319e-06
1.61404e-06
1.77671e-06
1.76094e-06
1.57204e-06
1.44831e-06
1.25685e-06
1.91965e-06
1.58454e-06
1.87036e-06
3.16174e-07
6.87925e-09
3.71976e-06
6.46519e-06
4.39357e-06
1.24371e-06
1.39359e-06
1.56428e-06
1.67304e-06
1.8411e-06
1.76948e-06
1.47295e-06
1.27351e-06
1.14708e-06
1.0353e-06
1.04036e-06
1.01273e-06
1.18311e-06
1.40366e-06
1.7266e-06
1.80713e-06
1.6896e-06
1.58892e-06
1.4393e-06
1.20607e-06
2.63e-06
1.80464e-06
1.97017e-06
3.37788e-07
2.12988e-07
2.08159e-06
3.17941e-06
2.05215e-06
1.33414e-06
1.39274e-06
1.57307e-06
1.60296e-06
1.84575e-06
1.87857e-06
1.5306e-06
1.42055e-06
1.32298e-06
1.19755e-06
1.32111e-06
1.1881e-06
1.32821e-06
1.72101e-06
1.90115e-06
1.84043e-06
1.57776e-06
1.56021e-06
1.41808e-06
1.21018e-06
2.24276e-06
1.87292e-06
1.90608e-06
2.68617e-07
4.16222e-07
1.62732e-06
1.86216e-06
1.49093e-06
1.52228e-06
1.36835e-06
1.57387e-06
1.71554e-06
1.85416e-06
1.96745e-06
1.72354e-06
1.66528e-06
1.71268e-06
1.66139e-06
1.77532e-06
1.70484e-06
1.63033e-06
2.06015e-06
2.03746e-06
1.89238e-06
1.71788e-06
1.58066e-06
1.37011e-06
1.2525e-06
1.9595e-06
1.78509e-06
1.70515e-06
2.96141e-07
6.06315e-07
1.51687e-06
1.66159e-06
1.51384e-06
2.04825e-06
1.47346e-06
1.642e-06
1.88595e-06
1.85623e-06
2.00276e-06
1.9782e-06
1.87572e-06
2.01578e-06
1.87393e-06
2.03532e-06
1.8673e-06
1.87627e-06
2.00062e-06
2.10393e-06
1.87758e-06
1.91094e-06
1.69504e-06
1.4303e-06
1.40251e-06
1.8888e-06
1.65909e-06
1.58304e-06
5.06502e-07
7.60046e-07
1.57599e-06
1.62821e-06
1.60024e-06
4.76391e-06
1.72093e-06
1.74203e-06
1.89341e-06
1.85115e-06
2.11284e-06
1.99006e-06
1.98145e-06
2.02383e-06
1.99092e-06
2.02697e-06
1.99049e-06
1.97033e-06
1.99709e-06
2.15231e-06
1.86501e-06
1.92305e-06
1.76774e-06
1.52e-06
1.78647e-06
1.95496e-06
1.69735e-06
1.63228e-06
6.75423e-07
8.76451e-07
1.82004e-06
1.67759e-06
1.83059e-06
1.09691e-05
1.92854e-06
1.72956e-06
1.88718e-06
1.81433e-06
1.99506e-06
2.00724e-06
1.9219e-06
2.05541e-06
1.92164e-06
2.04059e-06
1.91278e-06
1.87785e-06
1.98254e-06
1.98992e-06
1.8275e-06
1.9134e-06
1.76999e-06
1.62395e-06
2.35225e-06
2.21073e-06
1.83079e-06
1.83294e-06
7.89091e-07
9.22093e-07
2.16794e-06
1.79314e-06
2.00243e-06
7.97986e-06
2.12344e-06
1.69439e-06
1.87163e-06
1.78817e-06
2.13514e-06
2.06664e-06
2.08984e-06
2.13354e-06
2.07917e-06
2.0919e-06
2.06091e-06
2.00009e-06
1.99908e-06
2.08376e-06
1.78677e-06
1.89176e-06
1.72881e-06
1.73139e-06
3.73682e-06
2.36177e-06
2.00409e-06
2.20608e-06
8.51753e-07
8.96858e-07
1.90254e-06
1.9128e-06
2.11634e-06
6.15186e-06
2.23151e-06
1.65521e-06
1.84101e-06
1.79131e-06
2.14804e-06
2.1842e-06
2.14544e-06
2.26596e-06
2.13222e-06
2.20048e-06
2.12309e-06
2.06984e-06
2.09838e-06
2.0677e-06
1.78279e-06
1.85865e-06
1.66763e-06
1.83334e-06
8.04744e-06
2.49405e-06
2.15134e-06
2.77138e-06
8.87783e-07
7.89114e-07
1.47019e-06
2.00357e-06
2.15662e-06
5.32839e-06
2.34613e-06
1.61527e-06
1.80297e-06
1.82996e-06
2.42202e-06
2.3017e-06
2.42798e-06
2.37917e-06
2.40041e-06
2.33072e-06
2.38318e-06
2.38582e-06
2.25062e-06
2.32843e-06
1.83025e-06
1.79731e-06
1.61249e-06
1.92037e-06
1.48636e-05
2.54603e-06
2.21435e-06
3.23277e-06
9.35794e-07
7.5516e-07
1.34551e-06
2.02993e-06
2.12542e-06
4.78407e-06
2.46082e-06
1.57789e-06
1.75662e-06
1.91349e-06
2.5049e-06
2.37022e-06
2.41687e-06
2.38714e-06
2.36161e-06
2.42767e-06
2.38497e-06
2.3455e-06
2.38784e-06
2.53509e-06
1.95227e-06
1.74359e-06
1.56357e-06
1.91315e-06
9.80556e-06
2.45717e-06
2.19944e-06
3.87517e-06
1.02131e-06
8.39331e-07
1.44981e-06
2.04419e-06
2.09961e-06
4.58277e-06
2.47261e-06
1.53245e-06
1.69349e-06
1.97627e-06
2.42171e-06
2.30391e-06
2.28875e-06
2.29803e-06
2.21577e-06
2.46949e-06
2.2409e-06
2.21952e-06
2.44287e-06
2.49972e-06
2.08807e-06
1.69704e-06
1.53953e-06
1.9427e-06
7.53747e-06
2.42896e-06
2.17829e-06
3.08691e-06
1.11958e-06
1.05926e-06
1.698e-06
2.06381e-06
2.11509e-06
4.23592e-06
2.50331e-06
1.46724e-06
1.62628e-06
1.93129e-06
2.21687e-06
2.01299e-06
2.12445e-06
1.93528e-06
2.07097e-06
1.90082e-06
2.07702e-06
2.09616e-06
1.99e-06
2.26365e-06
2.0078e-06
1.65028e-06
1.49107e-06
2.04952e-06
5.85203e-06
2.46067e-06
2.21778e-06
1.5221e-06
9.97599e-07
1.21106e-06
1.97027e-06
2.08418e-06
2.21046e-06
4.09978e-06
2.82604e-06
1.38088e-06
1.50926e-06
1.54747e-06
1.27512e-06
1.12558e-06
1.15374e-06
1.07524e-06
1.13736e-06
1.06287e-06
1.11016e-06
1.18155e-06
1.14077e-06
1.26453e-06
1.56946e-06
1.54558e-06
1.40755e-06
2.46617e-06
4.99622e-06
2.41552e-06
2.2127e-06
1.39362e-06
8.82867e-07
1.29038e-06
2.3429e-06
2.10318e-06
2.383e-06
3.98949e-06
4.41538e-06
1.36063e-06
1.30836e-06
1.15441e-06
6.90616e-07
6.37347e-07
5.48798e-07
4.89877e-07
4.69492e-07
4.71188e-07
5.07459e-07
5.67305e-07
6.59941e-07
7.1224e-07
1.1846e-06
1.33633e-06
1.37992e-06
3.95848e-06
4.21884e-06
2.35443e-06
2.12209e-06
1.72813e-06
9.22268e-07
1.33923e-06
2.89217e-06
2.23037e-06
2.68572e-06
4.26924e-06
5.48365e-06
1.35667e-06
1.22008e-06
1.09054e-06
8.38695e-07
7.54063e-07
6.28478e-07
6.04493e-07
6.77069e-07
6.33668e-07
5.95719e-07
6.47993e-07
7.77979e-07
8.69483e-07
1.11527e-06
1.24978e-06
1.36814e-06
4.45881e-06
4.10907e-06
2.49649e-06
2.15298e-06
2.37779e-06
1.14761e-06
1.31567e-06
3.55493e-06
2.65954e-06
3.23429e-06
4.97263e-06
4.19405e-06
1.22293e-06
1.09966e-06
1.0389e-06
9.11483e-07
8.54918e-07
7.78184e-07
7.45878e-07
7.22425e-07
7.28216e-07
7.49869e-07
7.91862e-07
8.7344e-07
9.37145e-07
1.06174e-06
1.14205e-06
1.24923e-06
3.91188e-06
4.58811e-06
2.90873e-06
2.43386e-06
3.1086e-06
1.18888e-06
1.16181e-06
4.26767e-06
3.52465e-06
3.95329e-06
5.59265e-06
3.20815e-06
1.05921e-06
9.22604e-07
8.74578e-07
8.05692e-07
7.68471e-07
7.00578e-07
6.70951e-07
6.43895e-07
6.5208e-07
6.74768e-07
7.16522e-07
7.87625e-07
8.32309e-07
9.0564e-07
9.58289e-07
1.11308e-06
3.3335e-06
4.94763e-06
3.54695e-06
3.07495e-06
3.82371e-06
1.13835e-06
9.79236e-07
4.63914e-06
4.15109e-06
4.47146e-06
6.22721e-06
2.11962e-06
8.55967e-07
7.87686e-07
7.90278e-07
7.67346e-07
7.45674e-07
7.09117e-07
6.94614e-07
6.81783e-07
6.86354e-07
7.00593e-07
7.22764e-07
7.63877e-07
7.93679e-07
8.23943e-07
8.2719e-07
9.15203e-07
2.46476e-06
5.37498e-06
4.03156e-06
3.73547e-06
4.18306e-06
9.97473e-07
7.3077e-07
5.07265e-06
4.75555e-06
5.02122e-06
6.1385e-06
1.08063e-06
6.25104e-07
6.26289e-07
6.50677e-07
6.38529e-07
6.42268e-07
6.45467e-07
6.54639e-07
6.56351e-07
6.60702e-07
6.63132e-07
6.60734e-07
6.61978e-07
6.62686e-07
6.79463e-07
6.54203e-07
6.68633e-07
1.40465e-06
5.5563e-06
4.51529e-06
4.26582e-06
4.52796e-06
7.61703e-07
5.00305e-07
4.4454e-06
4.41899e-06
4.31557e-06
3.44881e-06
5.75443e-07
4.38876e-07
4.80109e-07
5.27354e-07
5.63422e-07
5.89778e-07
6.09699e-07
6.27852e-07
6.38191e-07
6.4154e-07
6.36098e-07
6.24388e-07
6.08752e-07
5.86996e-07
5.54529e-07
5.0752e-07
4.65892e-07
7.48769e-07
4.12134e-06
4.11828e-06
4.11205e-06
4.14029e-06
5.33161e-07
2.70385e-07
2.33054e-06
2.55139e-06
2.10089e-06
7.92525e-07
3.12282e-07
2.15238e-07
2.72743e-07
3.40845e-07
3.82189e-07
4.1205e-07
4.3183e-07
4.43967e-07
4.48941e-07
4.50183e-07
4.47315e-07
4.38402e-07
4.22125e-07
3.95901e-07
3.55939e-07
2.84743e-07
2.13021e-07
2.85846e-07
1.27799e-06
2.31825e-06
2.59161e-06
2.32212e-06
2.72918e-07
8.94821e-28
7.36021e-07
2.08722e-06
3.29901e-06
3.54861e-06
3.28186e-06
2.42193e-06
2.07511e-06
1.57925e-06
2.66454e-06
4.1561e-06
4.2555e-06
3.83532e-06
2.83464e-06
1.77691e-06
1.57892e-06
1.71275e-06
2.36558e-06
3.09653e-06
3.63587e-06
4.07491e-06
4.31488e-06
4.30209e-06
3.98153e-06
3.1573e-06
1.55736e-06
1.43817e-06
4.76593e-31
2.80796e-30
4.39705e-06
4.59911e-06
4.35216e-06
3.53557e-06
1.769e-06
1.50935e-06
1.75211e-06
2.73272e-06
4.70168e-06
4.64005e-06
3.85297e-06
2.26198e-06
1.69975e-06
1.47882e-06
1.40858e-06
1.37793e-06
1.34527e-06
1.36822e-06
1.64934e-06
2.44982e-06
3.73165e-06
4.19113e-06
4.56862e-06
4.91195e-06
3.88803e-06
1.63086e-06
7.39757e-31
1.81845e-30
4.96283e-06
4.84785e-06
3.97302e-06
1.92641e-06
1.3095e-06
1.229e-06
1.34199e-06
1.70083e-06
3.12246e-06
4.20391e-06
2.22712e-06
1.53482e-06
1.33422e-06
1.29512e-06
1.28183e-06
1.27862e-06
1.30739e-06
1.27329e-06
1.26118e-06
1.44508e-06
2.1861e-06
3.30484e-06
4.48504e-06
4.8582e-06
3.50385e-06
1.97973e-06
5.11751e-31
5.12127e-31
5.31311e-06
4.73487e-06
2.91302e-06
1.48403e-06
1.32616e-06
1.25821e-06
1.25865e-06
1.23196e-06
1.24731e-06
1.48036e-06
1.46659e-06
1.28786e-06
1.10185e-06
1.04591e-06
1.106e-06
1.22938e-06
1.33082e-06
1.32398e-06
1.25202e-06
1.17293e-06
1.24065e-06
1.30814e-06
1.41683e-06
1.93575e-06
1.50538e-06
1.65647e-06
1.27304e-30
3.01406e-31
5.29517e-06
4.99349e-06
3.03405e-06
1.43219e-06
1.24422e-06
1.25799e-06
1.21958e-06
1.06886e-06
9.59273e-07
9.43681e-07
1.01375e-06
9.78619e-07
8.69743e-07
9.33261e-07
1.00702e-06
1.15236e-06
1.28533e-06
1.27711e-06
1.2932e-06
1.22844e-06
1.30106e-06
1.27727e-06
1.08073e-06
1.21939e-06
1.44572e-06
1.74411e-06
1.18773e-30
1.35238e-31
5.17378e-06
5.32877e-06
3.63196e-06
1.34037e-06
1.28982e-06
1.39299e-06
1.46206e-06
1.37841e-06
1.26065e-06
1.02259e-06
8.91864e-07
8.87308e-07
9.01424e-07
8.65001e-07
8.95964e-07
1.08502e-06
1.2303e-06
1.30033e-06
1.36562e-06
1.48698e-06
1.42336e-06
1.35635e-06
1.08808e-06
1.50017e-06
1.44315e-06
1.69266e-06
1.09097e-30
1.68026e-31
4.42492e-06
5.37541e-06
3.88235e-06
1.07711e-06
1.32133e-06
1.42694e-06
1.48155e-06
1.57634e-06
1.52531e-06
1.32835e-06
1.0808e-06
1.05419e-06
9.70506e-07
8.72259e-07
8.72553e-07
1.09181e-06
1.28348e-06
1.41643e-06
1.51319e-06
1.48943e-06
1.46512e-06
1.33284e-06
1.10647e-06
1.97173e-06
1.47425e-06
1.73053e-06
1.47109e-30
5.13466e-31
2.66985e-06
4.49635e-06
3.27885e-06
1.18009e-06
1.33041e-06
1.45595e-06
1.33313e-06
1.58499e-06
1.64466e-06
1.44835e-06
1.28176e-06
1.14074e-06
1.01698e-06
9.6801e-07
9.43504e-07
1.19128e-06
1.42178e-06
1.59033e-06
1.54453e-06
1.36658e-06
1.43854e-06
1.31062e-06
1.10028e-06
2.29362e-06
1.55894e-06
1.72063e-06
1.93817e-30
1.25402e-30
1.63929e-06
2.15575e-06
1.51935e-06
1.46768e-06
1.32494e-06
1.42106e-06
1.20669e-06
1.58957e-06
1.76343e-06
1.54263e-06
1.42952e-06
1.34369e-06
1.22979e-06
1.33431e-06
1.19808e-06
1.34213e-06
1.88128e-06
1.78508e-06
1.59425e-06
1.20731e-06
1.38562e-06
1.28742e-06
1.14964e-06
2.06688e-06
1.56823e-06
1.66568e-06
1.963e-30
1.28927e-30
1.51498e-06
1.45267e-06
1.33119e-06
1.72824e-06
1.37243e-06
1.40718e-06
1.41545e-06
1.67912e-06
1.94172e-06
1.80162e-06
1.69171e-06
1.79851e-06
1.69642e-06
1.85415e-06
1.72958e-06
1.67395e-06
2.19617e-06
2.03358e-06
1.72316e-06
1.39899e-06
1.38753e-06
1.29424e-06
1.27869e-06
1.84287e-06
1.54503e-06
1.56481e-06
1.42133e-30
9.95232e-31
1.569e-06
1.52684e-06
1.53869e-06
2.30798e-06
1.52819e-06
1.46719e-06
1.59396e-06
1.71462e-06
2.25974e-06
2.34922e-06
2.15035e-06
2.38268e-06
2.14385e-06
2.40479e-06
2.13728e-06
2.14519e-06
2.39252e-06
2.37072e-06
1.77458e-06
1.62033e-06
1.49936e-06
1.38915e-06
1.53311e-06
1.88265e-06
1.57814e-06
1.61646e-06
1.13141e-30
8.47508e-31
1.7241e-06
1.59404e-06
1.67651e-06
4.51023e-06
1.87184e-06
1.53964e-06
1.58494e-06
1.72582e-06
2.52039e-06
2.3987e-06
2.32915e-06
2.43786e-06
2.33158e-06
2.44072e-06
2.32702e-06
2.30186e-06
2.41594e-06
2.56492e-06
1.81028e-06
1.61849e-06
1.55346e-06
1.57281e-06
2.0457e-06
2.03094e-06
1.76209e-06
1.81864e-06
8.85841e-31
8.09038e-31
2.01524e-06
1.71666e-06
1.99081e-06
9.26312e-06
2.18811e-06
1.49194e-06
1.56199e-06
1.69729e-06
2.39965e-06
2.41771e-06
2.29693e-06
2.47359e-06
2.2958e-06
2.45653e-06
2.27878e-06
2.24043e-06
2.39353e-06
2.38846e-06
1.77295e-06
1.59702e-06
1.50184e-06
1.75466e-06
2.71709e-06
2.36415e-06
2.01895e-06
2.15416e-06
7.95539e-31
8.47675e-31
2.27532e-06
1.90247e-06
2.21937e-06
7.82469e-06
2.4592e-06
1.45333e-06
1.54473e-06
1.6753e-06
2.48633e-06
2.47854e-06
2.43972e-06
2.55983e-06
2.43149e-06
2.51241e-06
2.40283e-06
2.32677e-06
2.39987e-06
2.42713e-06
1.72882e-06
1.56069e-06
1.4464e-06
1.93546e-06
4.10558e-06
2.60115e-06
2.3122e-06
2.62897e-06
7.48937e-31
1.20455e-30
2.01393e-06
2.0838e-06
2.34748e-06
6.24991e-06
2.58396e-06
1.40061e-06
1.50023e-06
1.6962e-06
2.52906e-06
2.61648e-06
2.5274e-06
2.71772e-06
2.51656e-06
2.63809e-06
2.49664e-06
2.42687e-06
2.5104e-06
2.43267e-06
1.71279e-06
1.50147e-06
1.34406e-06
2.08116e-06
7.71458e-06
2.8168e-06
2.52425e-06
3.36563e-06
7.62004e-31
1.46558e-30
1.55534e-06
2.16708e-06
2.38279e-06
5.50102e-06
2.71297e-06
1.34581e-06
1.45775e-06
1.73679e-06
2.79007e-06
2.76067e-06
2.8351e-06
2.87438e-06
2.80192e-06
2.78549e-06
2.79479e-06
2.75511e-06
2.66761e-06
2.66496e-06
1.75271e-06
1.43264e-06
1.26657e-06
2.19101e-06
1.24987e-05
2.94773e-06
2.64046e-06
3.94953e-06
8.40181e-31
2.24638e-09
1.35474e-06
2.15854e-06
2.32619e-06
5.04275e-06
2.82611e-06
1.29055e-06
1.41192e-06
1.83377e-06
2.94037e-06
2.86866e-06
2.87779e-06
2.90062e-06
2.83603e-06
2.88161e-06
2.84706e-06
2.81951e-06
2.81509e-06
2.93983e-06
1.88441e-06
1.39223e-06
1.20206e-06
2.19406e-06
9.25135e-06
2.87786e-06
2.63458e-06
4.40488e-06
1.7468e-15
5.28695e-08
1.45375e-06
2.10425e-06
2.28753e-06
4.94049e-06
2.83507e-06
1.22554e-06
1.33114e-06
1.84519e-06
2.79078e-06
2.78935e-06
2.69842e-06
2.8364e-06
2.63608e-06
3.02199e-06
2.65303e-06
2.63311e-06
2.97646e-06
2.86089e-06
1.96243e-06
1.33894e-06
1.17618e-06
2.24176e-06
7.53636e-06
2.84616e-06
2.57806e-06
3.21262e-06
8.63173e-08
2.56038e-07
1.73218e-06
2.0498e-06
2.32603e-06
4.73764e-06
2.85053e-06
1.14309e-06
1.24572e-06
1.74061e-06
2.64825e-06
2.53992e-06
2.60431e-06
2.45876e-06
2.53699e-06
2.47151e-06
2.56652e-06
2.54153e-06
2.53587e-06
2.74812e-06
1.82843e-06
1.27921e-06
1.14009e-06
2.39353e-06
6.17603e-06
2.84501e-06
2.53154e-06
1.63092e-06
7.41136e-08
5.10495e-07
2.07234e-06
2.06338e-06
2.4886e-06
4.70729e-06
3.13428e-06
1.0896e-06
1.06643e-06
1.09122e-06
1.38448e-06
1.23743e-06
1.39477e-06
1.28059e-06
1.426e-06
1.27139e-06
1.38852e-06
1.40531e-06
1.23381e-06
1.37336e-06
1.09126e-06
1.10821e-06
1.09852e-06
2.82701e-06
5.46436e-06
2.75349e-06
2.40076e-06
1.44161e-06
1.54926e-07
7.1713e-07
2.57877e-06
2.12325e-06
2.72953e-06
4.68216e-06
4.18979e-06
1.12506e-06
9.10319e-07
6.76364e-07
4.49491e-07
5.15783e-07
5.44161e-07
5.88759e-07
6.28248e-07
6.10339e-07
5.92984e-07
5.34548e-07
5.11863e-07
4.46071e-07
6.88883e-07
9.32543e-07
1.13165e-06
3.90889e-06
4.83752e-06
2.69143e-06
2.22337e-06
1.82207e-06
2.65035e-07
8.47975e-07
3.31033e-06
2.39504e-06
3.10979e-06
4.94511e-06
5.05262e-06
1.23899e-06
8.64715e-07
7.13869e-07
5.45506e-07
5.30504e-07
4.52868e-07
4.57686e-07
4.80512e-07
4.64504e-07
4.52409e-07
4.60802e-07
5.44357e-07
5.65301e-07
7.29899e-07
8.91271e-07
1.23254e-06
4.49505e-06
4.72943e-06
2.87798e-06
2.30909e-06
2.63478e-06
5.3044e-07
9.23928e-07
4.16598e-06
3.05237e-06
3.78664e-06
5.6425e-06
4.35738e-06
1.16637e-06
6.82262e-07
6.9071e-07
5.91982e-07
5.7266e-07
5.27657e-07
5.13854e-07
5.0225e-07
5.05273e-07
5.1686e-07
5.36442e-07
5.85284e-07
6.09767e-07
7.09814e-07
7.30304e-07
1.19474e-06
4.20069e-06
5.21795e-06
3.41543e-06
2.75335e-06
3.60763e-06
6.58465e-07
7.96657e-07
4.96247e-06
4.17115e-06
4.66462e-06
6.23971e-06
3.67656e-06
1.03866e-06
5.58551e-07
5.31884e-07
5.06708e-07
4.94003e-07
4.62287e-07
4.5335e-07
4.38274e-07
4.44379e-07
4.5574e-07
4.73337e-07
5.08272e-07
5.25458e-07
5.57959e-07
5.90756e-07
1.1209e-06
3.77936e-06
5.62496e-06
4.19929e-06
3.70234e-06
4.48044e-06
7.11023e-07
6.59247e-07
5.41141e-06
4.95578e-06
5.27243e-06
6.66226e-06
2.84986e-06
7.57341e-07
3.97052e-07
4.4306e-07
4.59859e-07
4.62409e-07
4.55556e-07
4.57315e-07
4.5257e-07
4.56397e-07
4.62319e-07
4.66696e-07
4.76734e-07
4.79521e-07
4.70067e-07
4.29877e-07
8.80548e-07
3.10799e-06
5.98001e-06
4.81546e-06
4.51401e-06
4.95546e-06
6.35342e-07
2.29781e-07
5.84179e-06
5.62103e-06
5.82446e-06
5.82044e-06
1.87969e-06
4.27138e-07
2.95058e-07
3.24731e-07
3.39471e-07
3.66256e-07
3.88283e-07
4.07658e-07
4.16142e-07
4.19692e-07
4.14557e-07
4.00309e-07
3.81471e-07
3.57167e-07
3.43514e-07
3.12451e-07
5.16933e-07
2.23116e-06
5.86279e-06
5.33752e-06
5.12629e-06
5.32096e-06
2.88207e-07
4.35032e-08
5.12975e-06
5.2867e-06
5.07741e-06
3.69815e-06
1.14445e-06
2.64756e-07
1.99962e-07
2.33227e-07
2.81945e-07
3.19553e-07
3.49158e-07
3.71627e-07
3.83886e-07
3.86165e-07
3.77232e-07
3.5891e-07
3.32111e-07
2.97077e-07
2.48874e-07
2.13899e-07
3.18729e-07
1.5161e-06
4.4077e-06
5.00209e-06
5.06097e-06
4.99114e-06
9.03988e-08
4.18675e-25
2.5996e-06
2.90209e-06
2.48789e-06
1.26438e-06
3.85015e-07
2.14111e-07
1.55012e-07
1.48237e-07
1.60595e-07
1.76365e-07
1.90113e-07
1.98609e-07
2.02165e-07
2.02041e-07
1.98429e-07
1.90451e-07
1.77527e-07
1.62608e-07
1.49719e-07
1.55162e-07
2.1746e-07
4.41156e-07
1.77283e-06
3.01126e-06
3.35663e-06
3.02691e-06
2.28238e-24
7.71973e-07
3.78299e-07
1.18266e-06
2.30218e-06
2.54721e-06
2.544e-06
1.98717e-06
1.69789e-06
1.28033e-06
1.58986e-06
2.92686e-06
3.03469e-06
2.78933e-06
1.91636e-06
1.28227e-06
1.30042e-06
1.25239e-06
1.52568e-06
2.06584e-06
2.51391e-06
2.83272e-06
2.92818e-06
2.89019e-06
2.68731e-06
1.88081e-06
1.18092e-06
8.82814e-07
7.04136e-31
5.5047e-07
2.78815e-06
3.26741e-06
3.17196e-06
2.69665e-06
1.56251e-06
1.36719e-06
1.49022e-06
2.29363e-06
3.57925e-06
3.65753e-06
3.28262e-06
2.01823e-06
1.48675e-06
1.29361e-06
1.27308e-06
1.25692e-06
1.21493e-06
1.18761e-06
1.33706e-06
1.88005e-06
2.90269e-06
3.1331e-06
3.41496e-06
3.50455e-06
2.55271e-06
1.40443e-06
6.52057e-31
1.03296e-30
3.54877e-06
3.59212e-06
3.02158e-06
1.67171e-06
1.4867e-06
1.41193e-06
1.29469e-06
1.44073e-06
2.59569e-06
3.6056e-06
1.9843e-06
1.35728e-06
1.12908e-06
1.03525e-06
1.06713e-06
1.11605e-06
1.16234e-06
1.17755e-06
1.20173e-06
1.34185e-06
1.91785e-06
2.81936e-06
3.59574e-06
3.64344e-06
2.59741e-06
1.77778e-06
6.52126e-31
9.00363e-31
3.76059e-06
3.48536e-06
2.24547e-06
1.60491e-06
1.63065e-06
1.50534e-06
1.39169e-06
1.3443e-06
1.35708e-06
1.34072e-06
1.26897e-06
1.14085e-06
9.67647e-07
8.80357e-07
9.36947e-07
1.06565e-06
1.1486e-06
1.21315e-06
1.24598e-06
1.21636e-06
1.30463e-06
1.28992e-06
1.13671e-06
1.4041e-06
1.27166e-06
1.69314e-06
1.80018e-30
1.06293e-30
3.72593e-06
3.63266e-06
2.31053e-06
1.4652e-06
1.43971e-06
1.33049e-06
1.19708e-06
1.14292e-06
1.42087e-06
1.59928e-06
1.47786e-06
1.24219e-06
9.99129e-07
8.5927e-07
9.2013e-07
1.04293e-06
1.10865e-06
1.16632e-06
1.27143e-06
1.32672e-06
1.55897e-06
1.5281e-06
1.33195e-06
1.33047e-06
1.55543e-06
2.05822e-06
1.51762e-30
1.02643e-30
3.68207e-06
3.88014e-06
2.79466e-06
1.33801e-06
1.52676e-06
1.46091e-06
1.41828e-06
1.32937e-06
1.31865e-06
1.34153e-06
1.16852e-06
1.05425e-06
1.01807e-06
9.26085e-07
9.90313e-07
1.09679e-06
1.17116e-06
1.19872e-06
1.32745e-06
1.47236e-06
1.56686e-06
1.57706e-06
1.38376e-06
1.81549e-06
1.78488e-06
2.18402e-06
1.42885e-30
4.81761e-31
3.31069e-06
3.92446e-06
2.99769e-06
1.18804e-06
1.63281e-06
1.58835e-06
1.44572e-06
1.49038e-06
1.51536e-06
1.35558e-06
1.1782e-06
1.18771e-06
1.14651e-06
1.01476e-06
1.06982e-06
1.26567e-06
1.34235e-06
1.38046e-06
1.4549e-06
1.54509e-06
1.66432e-06
1.57149e-06
1.31619e-06
2.1817e-06
1.86808e-06
2.12073e-06
1.16074e-30
5.28332e-31
2.12093e-06
3.3354e-06
2.56183e-06
1.49597e-06
1.6264e-06
1.68554e-06
1.34457e-06
1.52413e-06
1.63507e-06
1.53156e-06
1.38426e-06
1.3113e-06
1.23443e-06
1.12376e-06
1.13218e-06
1.38004e-06
1.63861e-06
1.6007e-06
1.53073e-06
1.58325e-06
1.7193e-06
1.53465e-06
1.33994e-06
2.23497e-06
1.74994e-06
2.02019e-06
1.41667e-30
1.09817e-30
1.49136e-06
1.65895e-06
1.24589e-06
1.84585e-06
1.57785e-06
1.63657e-06
1.23662e-06
1.62315e-06
1.80216e-06
1.67362e-06
1.50738e-06
1.49006e-06
1.40714e-06
1.44665e-06
1.34172e-06
1.49729e-06
2.24204e-06
1.85847e-06
1.66329e-06
1.52246e-06
1.63652e-06
1.49844e-06
1.39764e-06
2.03482e-06
1.61102e-06
1.93079e-06
1.36392e-30
2.99639e-30
1.57146e-06
1.28112e-06
1.30596e-06
2.10349e-06
1.67459e-06
1.55774e-06
1.26773e-06
1.8947e-06
2.14479e-06
2.01499e-06
1.83383e-06
1.99211e-06
1.82011e-06
2.01913e-06
1.84704e-06
1.82684e-06
2.50541e-06
2.24966e-06
1.94399e-06
1.29443e-06
1.49935e-06
1.51213e-06
1.54723e-06
1.88643e-06
1.60551e-06
1.87408e-06
2.28816e-30
4.15703e-30
1.75874e-06
1.544e-06
1.64882e-06
2.62406e-06
1.77444e-06
1.49931e-06
1.37206e-06
2.06596e-06
2.90146e-06
3.03216e-06
2.6788e-06
3.05834e-06
2.64832e-06
3.08038e-06
2.6508e-06
2.65846e-06
3.12154e-06
3.0002e-06
2.23029e-06
1.41317e-06
1.48194e-06
1.56551e-06
1.84357e-06
1.97564e-06
1.76694e-06
2.05802e-06
6.90737e-30
4.47037e-30
1.96379e-06
1.70109e-06
1.8203e-06
4.36578e-06
2.12904e-06
1.51419e-06
1.36087e-06
2.09463e-06
3.12002e-06
3.12341e-06
2.8885e-06
3.1794e-06
2.8775e-06
3.18161e-06
2.86336e-06
2.84138e-06
3.16232e-06
3.16312e-06
2.31434e-06
1.40559e-06
1.49607e-06
1.81411e-06
2.4094e-06
2.18339e-06
2.04433e-06
2.33366e-06
3.95286e-30
5.48663e-30
2.2421e-06
1.86529e-06
2.1796e-06
8.09763e-06
2.52822e-06
1.49542e-06
1.31716e-06
2.05856e-06
3.10384e-06
3.15664e-06
2.99597e-06
3.22978e-06
2.9986e-06
3.21504e-06
2.97519e-06
2.93002e-06
3.14091e-06
3.0858e-06
2.26485e-06
1.38548e-06
1.45642e-06
2.08578e-06
3.10995e-06
2.56258e-06
2.46139e-06
2.71766e-06
3.62094e-30
7.06226e-30
2.44234e-06
2.11588e-06
2.46402e-06
7.70782e-06
2.87847e-06
1.48409e-06
1.29512e-06
1.93123e-06
3.01854e-06
3.21963e-06
2.97514e-06
3.32809e-06
2.97302e-06
3.28229e-06
2.93594e-06
2.84663e-06
3.1406e-06
2.96782e-06
2.16269e-06
1.31486e-06
1.42266e-06
2.34415e-06
4.41062e-06
2.88609e-06
2.83577e-06
3.18825e-06
3.63496e-30
4.74706e-30
2.23548e-06
2.31393e-06
2.61861e-06
6.37744e-06
3.03282e-06
1.46956e-06
1.25094e-06
1.91097e-06
3.22005e-06
3.3896e-06
3.21772e-06
3.52076e-06
3.21164e-06
3.43356e-06
3.1841e-06
3.10771e-06
3.27337e-06
3.12485e-06
1.997e-06
1.24165e-06
1.33491e-06
2.53719e-06
7.43533e-06
3.22087e-06
3.12438e-06
4.00214e-06
4.54888e-30
1.28868e-29
1.83345e-06
2.4044e-06
2.66952e-06
5.69692e-06
3.18053e-06
1.43971e-06
1.20789e-06
1.90354e-06
3.34073e-06
3.57221e-06
3.42363e-06
3.73336e-06
3.40916e-06
3.60695e-06
3.40306e-06
3.30708e-06
3.42969e-06
3.19967e-06
1.95483e-06
1.17312e-06
1.28622e-06
2.67548e-06
1.10537e-05
3.46098e-06
3.31705e-06
4.65054e-06
4.17216e-30
3.69123e-30
1.50224e-06
2.39374e-06
2.62951e-06
5.31315e-06
3.30404e-06
1.40381e-06
1.15791e-06
1.95136e-06
3.59168e-06
3.7369e-06
3.57615e-06
3.83387e-06
3.55335e-06
3.70264e-06
3.54607e-06
3.54198e-06
3.58789e-06
3.55415e-06
2.00536e-06
1.14447e-06
1.20327e-06
2.70323e-06
8.9145e-06
3.4352e-06
3.35659e-06
4.84612e-06
4.17011e-30
1.10152e-16
1.59e-06
2.33763e-06
2.61742e-06
5.29151e-06
3.329e-06
1.32225e-06
1.04866e-06
1.89101e-06
3.58727e-06
3.74698e-06
3.51077e-06
3.83609e-06
3.45482e-06
3.83385e-06
3.47376e-06
3.45343e-06
3.79437e-06
3.63397e-06
2e-06
1.07101e-06
1.09133e-06
2.77123e-06
7.57568e-06
3.40206e-06
3.24374e-06
3.8059e-06
3.64151e-30
3.73323e-08
1.85597e-06
2.27296e-06
2.70255e-06
5.21662e-06
3.33318e-06
1.16068e-06
9.30182e-07
1.75894e-06
3.45316e-06
3.65453e-06
3.4438e-06
3.59611e-06
3.356e-06
3.65632e-06
3.41268e-06
3.33913e-06
3.67316e-06
3.61979e-06
1.86035e-06
9.70604e-07
1.01441e-06
2.90988e-06
6.48305e-06
3.36212e-06
3.10867e-06
2.19771e-06
1.01508e-17
2.82016e-07
2.27228e-06
2.28978e-06
2.91858e-06
5.2854e-06
3.53995e-06
1.08546e-06
6.9139e-07
9.79431e-07
2.32646e-06
2.36187e-06
2.3387e-06
2.42126e-06
2.36215e-06
2.40048e-06
2.33612e-06
2.32821e-06
2.35022e-06
2.32979e-06
9.76579e-07
7.15891e-07
9.92475e-07
3.25751e-06
5.91819e-06
3.25991e-06
2.84893e-06
1.67569e-06
9.16701e-09
6.03372e-07
2.89952e-06
2.3974e-06
3.20342e-06
5.35139e-06
4.2253e-06
1.20059e-06
5.8868e-07
4.79424e-07
7.41461e-07
8.73408e-07
9.85409e-07
1.06313e-06
1.13549e-06
1.1214e-06
1.06372e-06
9.67408e-07
8.53665e-07
7.30126e-07
4.82568e-07
6.05513e-07
1.16512e-06
4.02278e-06
5.45525e-06
3.23997e-06
2.69067e-06
1.98502e-06
1.27041e-07
8.12454e-07
3.77771e-06
2.73742e-06
3.61056e-06
5.61051e-06
5.01385e-06
1.6162e-06
5.9221e-07
4.32231e-07
3.36486e-07
3.46282e-07
3.20592e-07
3.38978e-07
3.60047e-07
3.46533e-07
3.38647e-07
3.25336e-07
3.5271e-07
3.45005e-07
4.43325e-07
6.10478e-07
1.57145e-06
4.69777e-06
5.376e-06
3.44578e-06
2.79407e-06
2.87523e-06
3.63948e-07
9.71368e-07
4.76539e-06
3.55935e-06
4.41366e-06
6.29587e-06
4.73041e-06
1.78375e-06
5.02313e-07
4.17621e-07
3.53628e-07
3.4963e-07
3.30077e-07
3.24441e-07
3.20952e-07
3.21785e-07
3.27066e-07
3.366e-07
3.58066e-07
3.65382e-07
4.3354e-07
5.22074e-07
1.77467e-06
4.62687e-06
5.85991e-06
4.0543e-06
3.31156e-06
4.10009e-06
5.90985e-07
9.52086e-07
5.71885e-06
4.92857e-06
5.45672e-06
6.84552e-06
4.32352e-06
1.76823e-06
5.03599e-07
2.78817e-07
2.69659e-07
2.67791e-07
2.66166e-07
2.75061e-07
2.72199e-07
2.76632e-07
2.78277e-07
2.73573e-07
2.77308e-07
2.80143e-07
2.9446e-07
5.33883e-07
1.84364e-06
4.37395e-06
6.3053e-06
4.99321e-06
4.4878e-06
5.19285e-06
7.64743e-07
9.22674e-07
6.22196e-06
5.8719e-06
6.14525e-06
7.06896e-06
3.75761e-06
1.5444e-06
3.66105e-07
2.11717e-07
2.18113e-07
2.30351e-07
2.44844e-07
2.63414e-07
2.69635e-07
2.73027e-07
2.68705e-07
2.53504e-07
2.39938e-07
2.30119e-07
2.28559e-07
4.17739e-07
1.709e-06
3.90731e-06
6.563e-06
5.73353e-06
5.48342e-06
5.82524e-06
8.30233e-07
6.59689e-07
6.5982e-06
6.48712e-06
6.6037e-06
5.97445e-06
3.00979e-06
9.37738e-07
2.57859e-07
1.65116e-07
1.654e-07
1.84219e-07
2.11175e-07
2.35737e-07
2.48203e-07
2.50495e-07
2.39801e-07
2.18247e-07
1.92012e-07
1.72551e-07
1.7355e-07
2.90874e-07
1.17636e-06
3.27689e-06
6.2589e-06
6.20568e-06
6.067e-06
6.14615e-06
6.4949e-07
5.78152e-07
5.85754e-06
6.15834e-06
5.87873e-06
4.36629e-06
2.18172e-06
5.05754e-07
2.15777e-07
1.67054e-07
1.6022e-07
1.79365e-07
2.05088e-07
2.26386e-07
2.36787e-07
2.38046e-07
2.28546e-07
2.08694e-07
1.83361e-07
1.63598e-07
1.69824e-07
2.35905e-07
6.83415e-07
2.59909e-06
4.9708e-06
5.92795e-06
6.05595e-06
5.86767e-06
6.27855e-07
1.73662e-07
3.1203e-06
3.49701e-06
3.08378e-06
1.85646e-06
5.77682e-07
3.57465e-07
3.54867e-07
2.67351e-07
2.45696e-07
2.43074e-07
2.42147e-07
2.43591e-07
2.45686e-07
2.45969e-07
2.43838e-07
2.4194e-07
2.41809e-07
2.43533e-07
2.66432e-07
3.73608e-07
3.79443e-07
7.95697e-07
2.43538e-06
3.77295e-06
4.17108e-06
3.79533e-06
1.85562e-07
1.55606e-06
6.41049e-07
9.32777e-07
1.73651e-06
1.97953e-06
2.0605e-06
1.72178e-06
1.4556e-06
1.1027e-06
8.8934e-07
2.08739e-06
2.22896e-06
2.09042e-06
1.35732e-06
1.13146e-06
1.2433e-06
1.13468e-06
1.10757e-06
1.38333e-06
1.75993e-06
1.98937e-06
1.98946e-06
1.92854e-06
1.75989e-06
1.15538e-06
1.50624e-06
6.4144e-07
1.14048e-30
8.81323e-07
1.92088e-06
2.49478e-06
2.4937e-06
2.17889e-06
1.57748e-06
1.45735e-06
1.41454e-06
2.03947e-06
2.91639e-06
3.02836e-06
2.89187e-06
1.82268e-06
1.32637e-06
1.18239e-06
1.16294e-06
1.1686e-06
1.145e-06
1.11673e-06
1.17098e-06
1.496e-06
2.30677e-06
2.4969e-06
2.68704e-06
2.60456e-06
1.91555e-06
1.38265e-06
9.83107e-31
2.17541e-30
2.74487e-06
2.84928e-06
2.41243e-06
1.72942e-06
1.95692e-06
1.93944e-06
1.70811e-06
1.52873e-06
2.30927e-06
3.23299e-06
1.87291e-06
1.39515e-06
1.16031e-06
9.66883e-07
9.95466e-07
1.05649e-06
1.09771e-06
1.17932e-06
1.24149e-06
1.34932e-06
1.76532e-06
2.51502e-06
3.03454e-06
2.89685e-06
2.04137e-06
1.80732e-06
1.01667e-30
1.53076e-30
2.83533e-06
2.73424e-06
1.90888e-06
2.04338e-06
2.1258e-06
2.02444e-06
2.00964e-06
2.23068e-06
2.14917e-06
1.73907e-06
1.68371e-06
1.58448e-06