/*--------------------------------*- C++ -*----------------------------------*\
| =========                 |                                                 |
| \\      /  F ield         | OpenFOAM: The Open Source CFD Toolbox           |
|  \\    /   O peration     | Version:  2.3.0                                 |
|   \\  /    A nd           | Web:      www.OpenFOAM.org                      |
|    \\/     M anipulation  |                                                 |
\*---------------------------------------------------------------------------*/
FoamFile
{
    version     2.0;
    format      ascii;
    class       volVectorField;
    location    "88";
    object      Ur;
}
// * * * * * * * * * * * * * * * * * * * * * * * * * * * * * * * * * * * * * //

dimensions      [0 1 -1 0 0 0 0];

internalField   nonuniform List<vector> 
1875
(
(-0.0161424 0.218148 0)
(-0.0218394 0.219301 0)
(-0.0117502 0.219289 0)
(-0.00247717 0.218497 0)
(0.00460504 0.218679 0)
(0.00959733 0.219473 0)
(0.0120418 0.220188 0)
(0.0121349 0.220319 0)
(0.0102466 0.219592 0)
(0.00679807 0.217997 0)
(0.00203383 0.215658 0)
(-0.00335048 0.213525 0)
(-0.00868176 0.210932 0)
(-0.0146624 0.206533 0)
(-0.0216656 0.200621 0)
(-0.028945 0.197163 0)
(-0.034985 0.194878 0)
(-0.0385784 0.195343 0)
(-0.0390253 0.19573 0)
(-0.0362174 0.195839 0)
(-0.0303702 0.196119 0)
(-0.0218619 0.194606 0)
(-0.0121177 0.19414 0)
(-0.0169063 0.19285 0)
(-0.01424 0.194973 0)
(-0.00520087 0.283579 0)
(-0.00488166 0.284937 0)
(0.00816807 0.287953 0)
(0.0139759 0.289903 0)
(0.0186355 0.289627 0)
(0.0222921 0.287639 0)
(0.0248506 0.284846 0)
(0.0261687 0.281854 0)
(0.0261729 0.27914 0)
(0.0248374 0.27688 0)
(0.0219518 0.275 0)
(0.0170479 0.273006 0)
(0.0110954 0.271488 0)
(0.00486403 0.271215 0)
(-0.00173921 0.272064 0)
(-0.00747597 0.271796 0)
(-0.0127599 0.271549 0)
(-0.0135482 0.270097 0)
(-0.0137306 0.269262 0)
(-0.013838 0.269155 0)
(-0.0138842 0.269249 0)
(-0.0153384 0.270592 0)
(-0.0140866 0.270717 0)
(-0.0142943 0.270278 0)
(-0.00726258 0.271793 0)
(0.000461898 0.27721 0)
(0.00826171 0.279503 0)
(0.0198809 0.280218 0)
(0.0254653 0.280149 0)
(0.0294388 0.279645 0)
(0.0324663 0.278858 0)
(0.0346426 0.277841 0)
(0.0358564 0.276655 0)
(0.0359298 0.27523 0)
(0.0345875 0.27364 0)
(0.0325562 0.271957 0)
(0.0295385 0.270295 0)
(0.0248238 0.268602 0)
(0.0190204 0.266776 0)
(0.0134924 0.265053 0)
(0.00830815 0.263039 0)
(0.00316869 0.26131 0)
(-0.00262802 0.258324 0)
(-0.00641249 0.256933 0)
(-0.00803481 0.256938 0)
(-0.00805904 0.258012 0)
(-0.00741094 0.260803 0)
(-0.00718666 0.262778 0)
(-0.00685122 0.263227 0)
(-0.00333549 0.264984 0)
(0.0120236 0.282735 0)
(0.0243083 0.285072 0)
(0.0269105 0.283645 0)
(0.029717 0.281584 0)
(0.033009 0.279838 0)
(0.0354048 0.278315 0)
(0.0364535 0.276865 0)
(0.0359972 0.275523 0)
(0.0342155 0.274183 0)
(0.0316223 0.272874 0)
(0.0279932 0.271653 0)
(0.024054 0.270383 0)
(0.0196552 0.268859 0)
(0.0150347 0.267394 0)
(0.0106805 0.265762 0)
(0.00656678 0.264008 0)
(0.00285159 0.261803 0)
(-0.000775025 0.260878 0)
(-0.00268651 0.260642 0)
(-0.00332736 0.260563 0)
(-0.00282999 0.260508 0)
(-0.00215831 0.260281 0)
(-0.00225589 0.261579 0)
(-0.00361249 0.263277 0)
(-0.000867531 0.26483 0)
(0.0168187 0.277171 0)
(0.0275952 0.278647 0)
(0.022701 0.277005 0)
(0.0252829 0.274973 0)
(0.0304175 0.273245 0)
(0.03352 0.271662 0)
(0.03445 0.270051 0)
(0.0336201 0.268464 0)
(0.0314191 0.267177 0)
(0.0281974 0.266063 0)
(0.0241705 0.265037 0)
(0.0194618 0.264 0)
(0.014113 0.263151 0)
(0.00840809 0.262403 0)
(0.00271743 0.261598 0)
(-0.00217846 0.260518 0)
(-0.00530375 0.260122 0)
(-0.00649227 0.260827 0)
(-0.00622934 0.26039 0)
(-0.00496533 0.260131 0)
(-0.00329311 0.26056 0)
(-0.0019549 0.26089 0)
(-0.00100439 0.261229 0)
(0.00119373 0.263804 0)
(0.00185008 0.265203 0)
(0.020689 0.268247 0)
(0.0278533 0.269869 0)
(0.016336 0.268316 0)
(0.0212401 0.266838 0)
(0.0276786 0.265609 0)
(0.0301562 0.264201 0)
(0.0302545 0.262878 0)
(0.0289736 0.261735 0)
(0.0264881 0.26079 0)
(0.0227979 0.260062 0)
(0.0179796 0.259445 0)
(0.0122406 0.258916 0)
(0.00589535 0.258483 0)
(-0.00058833 0.258145 0)
(-0.00626662 0.257924 0)
(-0.0100455 0.258394 0)
(-0.0112333 0.258949 0)
(-0.0106561 0.25917 0)
(-0.00895426 0.260272 0)
(-0.00634927 0.261415 0)
(-0.00383639 0.262204 0)
(-0.00203998 0.262757 0)
(-0.00077513 0.263159 0)
(0.00380843 0.264067 0)
(0.0041451 0.265081 0)
(0.0263938 0.258771 0)
(0.0293874 0.260032 0)
(0.0118876 0.259473 0)
(0.0182694 0.259056 0)
(0.0234558 0.257787 0)
(0.0243803 0.256271 0)
(0.0238053 0.255175 0)
(0.0217756 0.254443 0)
(0.0182981 0.25392 0)
(0.0134067 0.253636 0)
(0.00746041 0.253666 0)
(0.00106927 0.253618 0)
(-0.00511067 0.253675 0)
(-0.0103001 0.254048 0)
(-0.0138096 0.255201 0)
(-0.0153274 0.256788 0)
(-0.0149929 0.258299 0)
(-0.0131549 0.259923 0)
(-0.0101763 0.261489 0)
(-0.00689364 0.262705 0)
(-0.0041456 0.263488 0)
(-0.00223449 0.26391 0)
(-0.000540386 0.264156 0)
(0.00508993 0.26332 0)
(0.00517207 0.26329 0)
(0.0301093 0.252702 0)
(0.0298232 0.253409 0)
(0.00763153 0.253573 0)
(0.0135407 0.252997 0)
(0.0155401 0.251544 0)
(0.0152532 0.250409 0)
(0.0140634 0.249808 0)
(0.0110157 0.24961 0)
(0.00662939 0.249844 0)
(0.00152135 0.250011 0)
(-0.00402029 0.249081 0)
(-0.00930858 0.250013 0)
(-0.0135483 0.251796 0)
(-0.0163674 0.254596 0)
(-0.0178168 0.256452 0)
(-0.0176846 0.258245 0)
(-0.0160741 0.260176 0)
(-0.0130969 0.262084 0)
(-0.00959444 0.263574 0)
(-0.00638283 0.264509 0)
(-0.0038629 0.264981 0)
(-0.0019958 0.265151 0)
(1.11005e-05 0.265195 0)
(0.00545835 0.264974 0)
(0.00493216 0.264247 0)
(0.0284253 0.250354 0)
(0.0252673 0.24955 0)
(0.00248677 0.249922 0)
(0.00639456 0.24918 0)
(0.00616673 0.24805 0)
(0.00588115 0.247644 0)
(0.00450254 0.247647 0)
(0.00162856 0.247972 0)
(-0.00213612 0.247541 0)
(-0.00661688 0.246896 0)
(-0.0105378 0.251387 0)
(-0.0138245 0.254521 0)
(-0.0162952 0.255668 0)
(-0.0185429 0.257508 0)
(-0.018555 0.259446 0)
(-0.0171926 0.261393 0)
(-0.0144703 0.263293 0)
(-0.0111356 0.264784 0)
(-0.00790179 0.265709 0)
(-0.00517228 0.266149 0)
(-0.00302704 0.266251 0)
(-0.00130439 0.266157 0)
(0.000638039 0.265988 0)
(0.0049589 0.265586 0)
(0.00405812 0.264435 0)
(0.0250345 0.249324 0)
(0.0194745 0.248787 0)
(-0.00289935 0.249105 0)
(-0.000680966 0.248569 0)
(-0.00125638 0.24836 0)
(-0.00084365 0.248766 0)
(-0.00158108 0.249594 0)
(-0.0032039 0.251178 0)
(-0.00607155 0.255407 0)
(-0.00901046 0.260768 0)
(-0.0120458 0.260539 0)
(-0.0160165 0.259198 0)
(-0.0181539 0.261453 0)
(-0.0174807 0.261301 0)
(-0.0164816 0.26311 0)
(-0.0141157 0.264826 0)
(-0.0111764 0.266147 0)
(-0.00818117 0.266964 0)
(-0.00549257 0.26734 0)
(-0.0032495 0.267396 0)
(-0.00145116 0.267241 0)
(2.81421e-05 0.266953 0)
(0.00154287 0.26652 0)
(0.00439135 0.265864 0)
(0.00298105 0.264908 0)
(0.0215119 0.250411 0)
(0.0150377 0.250333 0)
(-0.0060685 0.250953 0)
(-0.00441882 0.251084 0)
(-0.00450748 0.251824 0)
(-0.00354165 0.252821 0)
(-0.00375025 0.254097 0)
(-0.0052343 0.255533 0)
(-0.00858002 0.255995 0)
(-0.0117923 0.256866 0)
(-0.0142126 0.258832 0)
(-0.014828 0.260815 0)
(-0.0149526 0.262159 0)
(-0.0140738 0.264783 0)
(-0.0124144 0.266226 0)
(-0.0100428 0.267348 0)
(-0.0074847 0.268064 0)
(-0.0050011 0.268433 0)
(-0.00275401 0.268545 0)
(-0.000828983 0.268472 0)
(0.000748985 0.268257 0)
(0.00201623 0.267926 0)
(0.0030896 0.267459 0)
(0.00475753 0.266778 0)
(0.00277967 0.26614 0)
(0.0185065 0.253143 0)
(0.0127782 0.253315 0)
(-0.00610097 0.254294 0)
(-0.00484082 0.254878 0)
(-0.00466381 0.255842 0)
(-0.00367085 0.256867 0)
(-0.00385684 0.258004 0)
(-0.00533193 0.259137 0)
(-0.00763532 0.260216 0)
(-0.00978965 0.260615 0)
(-0.0112974 0.262082 0)
(-0.0118451 0.264323 0)
(-0.0115836 0.265889 0)
(-0.0104817 0.267125 0)
(-0.00879443 0.268095 0)
(-0.00677976 0.268776 0)
(-0.00463345 0.269197 0)
(-0.00245686 0.269403 0)
(-0.000362118 0.269436 0)
(0.00152895 0.269329 0)
(0.00313389 0.269092 0)
(0.00441296 0.268696 0)
(0.00566204 0.268051 0)
(0.00772475 0.267442 0)
(0.00459085 0.267532 0)
(0.0163459 0.256174 0)
(0.0121374 0.256371 0)
(-0.00461813 0.257442 0)
(-0.00421143 0.258021 0)
(-0.00414521 0.258918 0)
(-0.00340731 0.259788 0)
(-0.00369847 0.260706 0)
(-0.00492027 0.261568 0)
(-0.00641915 0.26266 0)
(-0.00774802 0.263825 0)
(-0.00872902 0.265057 0)
(-0.0090402 0.266279 0)
(-0.00869275 0.267334 0)
(-0.00782069 0.268186 0)
(-0.00660077 0.26882 0)
(-0.00516921 0.269254 0)
(-0.00359434 0.269529 0)
(-0.00192096 0.26965 0)
(-0.000210865 0.269541 0)
(0.00148511 0.269272 0)
(0.00303236 0.268903 0)
(0.00448252 0.268384 0)
(0.00666012 0.267865 0)
(0.00959023 0.267398 0)
(0.00614959 0.266145 0)
(0.0140497 0.258775 0)
(0.0112905 0.258435 0)
(-0.00316267 0.259313 0)
(-0.00341489 0.260006 0)
(-0.00346783 0.260882 0)
(-0.00298851 0.261664 0)
(-0.0033167 0.262458 0)
(-0.00414644 0.263287 0)
(-0.00498633 0.264298 0)
(-0.00583229 0.265272 0)
(-0.00650766 0.266201 0)
(-0.00690561 0.267047 0)
(-0.0070727 0.267723 0)
(-0.00698825 0.2682 0)
(-0.00663443 0.26848 0)
(-0.0060113 0.268604 0)
(-0.00518806 0.26849 0)
(-0.00422203 0.268297 0)
(-0.00308815 0.268314 0)
(-0.00179965 0.268449 0)
(-0.000336192 0.268236 0)
(0.00170739 0.268024 0)
(0.00399001 0.26809 0)
(0.00851551 0.266905 0)
(0.00636533 0.267455 0)
(0.0103642 0.261033 0)
(0.00880339 0.259935 0)
(-0.00174371 0.260068 0)
(-0.0019149 0.260824 0)
(-0.00226531 0.261663 0)
(-0.00206648 0.262561 0)
(-0.00234271 0.263275 0)
(-0.00276579 0.264111 0)
(-0.00324059 0.264941 0)
(-0.0040871 0.265683 0)
(-0.00516045 0.266271 0)
(-0.00623692 0.266585 0)
(-0.00716816 0.266796 0)
(-0.00790203 0.266973 0)
(-0.00835271 0.267153 0)
(-0.00848321 0.267314 0)
(-0.00817643 0.267524 0)
(-0.00768199 0.267662 0)
(-0.00714271 0.267618 0)
(-0.00634842 0.267407 0)
(-0.00519833 0.267516 0)
(-0.00393931 0.267811 0)
(-0.00322526 0.267212 0)
(0.00434917 0.266306 0)
(0.0049027 0.266095 0)
(0.00608555 0.260524 0)
(0.00552812 0.2588 0)
(-0.000361422 0.26108 0)
(-0.0002034 0.261677 0)
(-0.000544343 0.262213 0)
(-0.000397172 0.262648 0)
(-0.000506635 0.263376 0)
(-0.000911828 0.264045 0)
(-0.00166471 0.264484 0)
(-0.00297339 0.264716 0)
(-0.00469444 0.264835 0)
(-0.00645817 0.265015 0)
(-0.00795249 0.265214 0)
(-0.00914049 0.265438 0)
(-0.0100293 0.265683 0)
(-0.0106355 0.265947 0)
(-0.0110866 0.266386 0)
(-0.0111531 0.266876 0)
(-0.010824 0.267146 0)
(-0.0105115 0.267265 0)
(-0.0107241 0.267434 0)
(-0.0119117 0.267373 0)
(-0.0132276 0.267374 0)
(-0.00607934 0.267057 0)
(-0.000650439 0.265177 0)
(0.00118352 0.263293 0)
(0.00246163 0.261177 0)
(0.000750326 0.261357 0)
(0.00119066 0.261545 0)
(0.00125585 0.261838 0)
(0.00169009 0.261885 0)
(0.00172582 0.262116 0)
(0.00103687 0.262859 0)
(-0.000355096 0.263065 0)
(-0.00220941 0.263106 0)
(-0.00424494 0.263128 0)
(-0.00623224 0.263225 0)
(-0.00800107 0.263401 0)
(-0.00945175 0.263652 0)
(-0.0105573 0.263954 0)
(-0.0113101 0.264296 0)
(-0.0117491 0.264551 0)
(-0.0120063 0.264842 0)
(-0.0124768 0.265329 0)
(-0.0133721 0.265877 0)
(-0.0142574 0.266272 0)
(-0.0150422 0.266864 0)
(-0.0175486 0.26846 0)
(-0.017445 0.27034 0)
(-0.00840522 0.268786 0)
(-0.00294601 0.265149 0)
(-0.000937153 0.262903 0)
(0.00256028 0.261291 0)
(0.00274411 0.261471 0)
(0.00294864 0.261482 0)
(0.00368534 0.262155 0)
(0.0040177 0.261992 0)
(0.00336127 0.261404 0)
(0.00149952 0.26156 0)
(-0.000853628 0.26146 0)
(-0.00324453 0.261382 0)
(-0.00545367 0.26135 0)
(-0.00736466 0.261422 0)
(-0.00890987 0.261607 0)
(-0.0100872 0.26189 0)
(-0.0108908 0.262234 0)
(-0.0113645 0.262599 0)
(-0.0117403 0.262944 0)
(-0.0122988 0.263221 0)
(-0.0127711 0.263566 0)
(-0.012651 0.26428 0)
(-0.0112579 0.265222 0)
(-0.0117663 0.266828 0)
(-0.0188649 0.270434 0)
(-0.0125334 0.270114 0)
(-0.00715176 0.264076 0)
(-0.00406469 0.261745 0)
(0.00452249 0.261512 0)
(0.004705 0.261518 0)
(0.00492303 0.261503 0)
(0.00560675 0.26096 0)
(0.00622813 0.261022 0)
(0.00601488 0.260698 0)
(0.00416572 0.260051 0)
(0.00139597 0.260046 0)
(-0.00153919 0.259806 0)
(-0.00413628 0.259666 0)
(-0.00621894 0.259594 0)
(-0.00780875 0.259641 0)
(-0.00900185 0.259817 0)
(-0.00987147 0.260095 0)
(-0.0104488 0.260424 0)
(-0.0107931 0.260762 0)
(-0.0108298 0.261175 0)
(-0.0104562 0.261897 0)
(-0.00974341 0.262622 0)
(-0.00762726 0.263365 0)
(-0.00344382 0.26383 0)
(-0.0120197 0.265613 0)
(-0.0119383 0.266331 0)
(-0.00995614 0.263236 0)
(-0.00682339 0.262209 0)
(0.00551756 0.262085 0)
(0.0066436 0.262025 0)
(0.00683338 0.261882 0)
(0.00740474 0.261447 0)
(0.0078955 0.260665 0)
(0.00803172 0.260106 0)
(0.00699089 0.259221 0)
(0.00439653 0.25855 0)
(0.00115646 0.258733 0)
(-0.00202428 0.258419 0)
(-0.00459163 0.258273 0)
(-0.00639488 0.25817 0)
(-0.00761243 0.258172 0)
(-0.00845335 0.258312 0)
(-0.00900263 0.258576 0)
(-0.0091795 0.258943 0)
(-0.0087554 0.259447 0)
(-0.00793474 0.259971 0)
(-0.00697081 0.260539 0)
(-0.00512096 0.261173 0)
(-0.00114797 0.261121 0)
(-0.00847785 0.260797 0)
(-0.0102163 0.26193 0)
(-0.0110536 0.264357 0)
(-0.00913235 0.264474 0)
(0.00501631 0.263204 0)
(0.0081876 0.262635 0)
(0.00860788 0.26245 0)
(0.00891413 0.26202 0)
(0.0092432 0.261327 0)
(0.00930218 0.260337 0)
(0.00889238 0.259843 0)
(0.00739111 0.258139 0)
(0.00457152 0.256894 0)
(0.0012713 0.257853 0)
(-0.00209623 0.257601 0)
(-0.00463154 0.257425 0)
(-0.00616877 0.257272 0)
(-0.00699712 0.257225 0)
(-0.00738769 0.257336 0)
(-0.0073485 0.257606 0)
(-0.00679318 0.257986 0)
(-0.00583306 0.258338 0)
(-0.00469977 0.258714 0)
(-0.00365943 0.259069 0)
(-0.000704311 0.25899 0)
(-0.00758327 0.258306 0)
(-0.00976117 0.258956 0)
(-0.0108499 0.264881 0)
(-0.0107005 0.265817 0)
(0.00325972 0.264911 0)
(0.00863207 0.263717 0)
(0.0101246 0.263164 0)
(0.0103817 0.262745 0)
(0.0104776 0.262113 0)
(0.0103421 0.261322 0)
(0.00988697 0.259909 0)
(0.00916525 0.260567 0)
(0.00797633 0.25781 0)
(0.00511282 0.25603 0)
(0.00161686 0.257197 0)
(-0.00198804 0.257018 0)
(-0.00446655 0.256876 0)
(-0.00572283 0.256772 0)
(-0.00610757 0.256757 0)
(-0.00588556 0.256869 0)
(-0.00522032 0.257089 0)
(-0.00420734 0.257333 0)
(-0.00301277 0.257542 0)
(-0.00237981 0.257718 0)
(-0.000484787 0.257814 0)
(-0.00694845 0.257145 0)
(-0.00867109 0.256786 0)
(-0.00977549 0.265999 0)
(-0.0114598 0.267439 0)
(0.000486094 0.26723 0)
(0.00711645 0.265828 0)
(0.0103945 0.264555 0)
(0.0115217 0.263758 0)
(0.0117348 0.263068 0)
(0.0115206 0.26225 0)
(0.0108862 0.261383 0)
(0.0101988 0.259301 0)
(0.00891946 0.259426 0)
(0.00747045 0.257082 0)
(0.0047222 0.254928 0)
(0.00200349 0.256041 0)
(-0.0011577 0.256255 0)
(-0.00355669 0.256422 0)
(-0.00469414 0.256517 0)
(-0.00472755 0.256616 0)
(-0.00403155 0.256737 0)
(-0.00299491 0.256922 0)
(-0.00179268 0.257033 0)
(-0.00122387 0.257121 0)
(-0.000189996 0.257215 0)
(-0.00749013 0.256738 0)
(-0.00893605 0.25596 0)
(-0.00882994 0.266503 0)
(-0.0119709 0.267859 0)
(-0.00282959 0.269171 0)
(0.00284458 0.268271 0)
(0.00783313 0.26671 0)
(0.0108226 0.265358 0)
(0.0120246 0.264334 0)
(0.0121371 0.26339 0)
(0.0114927 0.262452 0)
(0.0101574 0.261092 0)
(0.00851372 0.263127 0)
(0.00716147 0.262436 0)
(0.0063698 0.25896 0)
(0.00472225 0.255284 0)
(0.00273076 0.255841 0)
(0.000187501 0.256009 0)
(-0.0019476 0.256342 0)
(-0.00297848 0.256621 0)
(-0.00284087 0.256814 0)
(-0.00201681 0.256941 0)
(-0.000902397 0.257053 0)
(-0.000408553 0.257091 0)
(0.000100118 0.25713 0)
(-0.00806618 0.256884 0)
(-0.00928121 0.256218 0)
(-0.00673985 0.264305 0)
(-0.00999187 0.26762 0)
(-0.00443205 0.268459 0)
(-0.000974444 0.269231 0)
(0.00385104 0.2686 0)
(0.00826049 0.267286 0)
(0.0109245 0.265961 0)
(0.0119043 0.264797 0)
(0.0116907 0.263729 0)
(0.0101843 0.262802 0)
(0.00920464 0.260884 0)
(0.00756342 0.260151 0)
(0.00647652 0.260166 0)
(0.00562838 0.259315 0)
(0.00462214 0.256649 0)
(0.0033529 0.256568 0)
(0.00146762 0.256577 0)
(-0.000262149 0.256886 0)
(-0.00110141 0.257203 0)
(-0.000955234 0.257403 0)
(-0.000171627 0.257502 0)
(0.000169925 0.257519 0)
(0.000474085 0.257568 0)
(-0.00776689 0.2575 0)
(-0.00889373 0.257255 0)
(-0.00377959 0.265254 0)
(-0.0065141 0.267293 0)
(-0.00379026 0.2679 0)
(-0.00167416 0.268991 0)
(0.00108799 0.269339 0)
(0.00503488 0.268658 0)
(0.00848815 0.267442 0)
(0.0104676 0.266141 0)
(0.0109453 0.264921 0)
(0.0101291 0.263893 0)
(0.00852339 0.262014 0)
(0.00680083 0.260867 0)
(0.00573388 0.261107 0)
(0.00494685 0.260612 0)
(0.00455996 0.259172 0)
(0.00425319 0.257829 0)
(0.00355226 0.257517 0)
(0.0022424 0.257522 0)
(0.000956888 0.257797 0)
(0.000305899 0.258071 0)
(0.000452976 0.258214 0)
(0.000607813 0.258199 0)
(0.000896103 0.258277 0)
(-0.0067221 0.258231 0)
(-0.00784764 0.258369 0)
(-0.00170956 0.266152 0)
(-0.00422535 0.267223 0)
(-0.00312791 0.267367 0)
(-0.00112399 0.267835 0)
(0.000178844 0.268478 0)
(0.00250103 0.268527 0)
(0.00547704 0.267838 0)
(0.00787754 0.266724 0)
(0.00904364 0.265521 0)
(0.00900535 0.264404 0)
(0.0075898 0.263434 0)
(0.00573116 0.262679 0)
(0.00460245 0.261186 0)
(0.00391971 0.260853 0)
(0.00366781 0.260849 0)
(0.00381537 0.259753 0)
(0.0039837 0.258877 0)
(0.00361725 0.258541 0)
(0.00263618 0.25859 0)
(0.00159197 0.258814 0)
(0.0010292 0.258999 0)
(0.000870549 0.258998 0)
(0.00103208 0.25907 0)
(-0.00538133 0.258901 0)
(-0.00630244 0.259336 0)
(-4.27145e-05 0.26494 0)
(-0.001507 0.265412 0)
(-0.00202491 0.267117 0)
(-0.000801758 0.267112 0)
(0.000119757 0.266983 0)
(0.00130203 0.267171 0)
(0.00309777 0.267049 0)
(0.00508199 0.266454 0)
(0.0064979 0.265565 0)
(0.00696815 0.264581 0)
(0.00599131 0.26364 0)
(0.00437058 0.262902 0)
(0.00335078 0.262284 0)
(0.00273837 0.261684 0)
(0.00258184 0.261279 0)
(0.00285421 0.26074 0)
(0.00343556 0.260189 0)
(0.00380286 0.259739 0)
(0.00346439 0.259563 0)
(0.00251832 0.259633 0)
(0.00147929 0.259771 0)
(0.00103503 0.259808 0)
(0.000988129 0.259944 0)
(-0.00407779 0.259802 0)
(-0.0046661 0.260205 0)
(0.00252348 0.26312 0)
(0.0048318 0.26386 0)
(0.0024408 0.265037 0)
(-0.00125956 0.264848 0)
(-0.000589681 0.265168 0)
(0.000935502 0.265332 0)
(0.00211118 0.265527 0)
(0.00324593 0.265544 0)
(0.00398596 0.26514 0)
(0.00413833 0.264431 0)
(0.0033845 0.263514 0)
(0.00235647 0.262909 0)
(0.00172367 0.262462 0)
(0.00138849 0.2621 0)
(0.00140534 0.261948 0)
(0.00178165 0.261672 0)
(0.00247587 0.261193 0)
(0.0031819 0.260831 0)
(0.00341953 0.260532 0)
(0.00284481 0.26044 0)
(0.00183424 0.260496 0)
(0.00141698 0.260745 0)
(0.000790147 0.261142 0)
(-0.00313346 0.26071 0)
(-0.00315206 0.261103 0)
(0.00655713 0.260743 0)
(0.0116155 0.262189 0)
(0.00657014 0.261949 0)
(0.000348806 0.262594 0)
(-0.0002769 0.262722 0)
(0.00115103 0.263141 0)
(0.00192298 0.26338 0)
(0.0021918 0.263422 0)
(0.00195091 0.263336 0)
(0.00129001 0.263114 0)
(0.000551615 0.262656 0)
(0.000163969 0.262405 0)
(-2.99585e-06 0.262162 0)
(-1.36009e-05 0.261921 0)
(0.000219772 0.261872 0)
(0.000774022 0.261891 0)
(0.00154191 0.261809 0)
(0.0023106 0.261614 0)
(0.00283774 0.261328 0)
(0.0028424 0.261061 0)
(0.00267331 0.261038 0)
(0.00326099 0.261325 0)
(0.000477656 0.262254 0)
(-0.0033653 0.260526 0)
(-0.00183201 0.261769 0)
(0.0112972 0.261104 0)
(0.0141182 0.262616 0)
(0.00652433 0.260714 0)
(0.00343186 0.260798 0)
(0.00253518 0.261099 0)
(0.00236223 0.261413 0)
(0.00213374 0.261663 0)
(0.00154082 0.261831 0)
(0.000523244 0.26191 0)
(-0.0008728 0.261868 0)
(-0.00157031 0.261738 0)
(-0.00141921 0.261846 0)
(-0.00131808 0.261903 0)
(-0.00111961 0.261916 0)
(-0.000705065 0.261946 0)
(-6.2962e-05 0.262086 0)
(0.000730059 0.262152 0)
(0.00148107 0.262048 0)
(0.00207763 0.261854 0)
(0.00254293 0.261629 0)
(0.00313664 0.261492 0)
(0.0041107 0.261405 0)
(0.000121063 0.260543 0)
(-0.00252665 0.260597 0)
(-0.000243044 0.261139 0)
(0.0141098 0.263452 0)
(0.0140759 0.262067 0)
(0.00290024 0.260046 0)
(0.00484029 0.259577 0)
(0.00511081 0.260337 0)
(0.00384717 0.260521 0)
(0.00263099 0.260732 0)
(0.000963977 0.260864 0)
(-0.00105654 0.260876 0)
(-0.00284875 0.260839 0)
(-0.00315801 0.261072 0)
(-0.00259416 0.261365 0)
(-0.00232434 0.261722 0)
(-0.00196308 0.261981 0)
(-0.00141306 0.262104 0)
(-0.000734413 0.262248 0)
(2.16035e-05 0.262304 0)
(0.000698271 0.262248 0)
(0.0012781 0.262091 0)
(0.00193157 0.261889 0)
(0.00261351 0.261771 0)
(0.00230384 0.261532 0)
(-0.000550664 0.260456 0)
(9.33101e-05 0.26239 0)
(0.00188983 0.262533 0)
(0.0121875 0.262485 0)
(0.010846 0.260182 0)
(0.00132973 0.26031 0)
(0.00422325 0.260048 0)
(0.0056429 0.259947 0)
(0.00433962 0.260041 0)
(0.00222588 0.260071 0)
(-0.000580872 0.259959 0)
(-0.00312708 0.259867 0)
(-0.00446923 0.260055 0)
(-0.00416779 0.260746 0)
(-0.0034117 0.261154 0)
(-0.00300652 0.26184 0)
(-0.00246115 0.262119 0)
(-0.00187162 0.262053 0)
(-0.00122346 0.262255 0)
(-0.000572862 0.262347 0)
(-2.60225e-05 0.262325 0)
(0.000535443 0.262217 0)
(0.00139937 0.262098 0)
(0.00207782 0.262029 0)
(0.000644018 0.261896 0)
(-0.00160073 0.261363 0)
(0.00174186 0.262285 0)
(0.00337734 0.263496 0)
(0.00874305 0.260039 0)
(0.00727906 0.259643 0)
(0.00111528 0.259608 0)
(0.00464771 0.260094 0)
(0.00562062 0.259739 0)
(0.00376335 0.259612 0)
(0.000441464 0.259307 0)
(-0.00293365 0.259028 0)
(-0.00494913 0.259144 0)
(-0.0052857 0.259798 0)
(-0.00452502 0.260089 0)
(-0.0038294 0.260808 0)
(-0.00333496 0.261054 0)
(-0.0027809 0.261479 0)
(-0.00217063 0.262016 0)
(-0.00155436 0.262222 0)
(-0.00102701 0.262326 0)
(-0.000559772 0.262333 0)
(0.000108828 0.262295 0)
(0.00120746 0.262289 0)
(0.00193899 0.262209 0)
(0.000113492 0.262116 0)
(-0.00222057 0.262155 0)
(0.00244117 0.261094 0)
(0.00423164 0.261958 0)
(0.00823669 0.259033 0)
(0.00673943 0.259355 0)
(0.00192135 0.259658 0)
(0.00541146 0.259744 0)
(0.00480193 0.259514 0)
(0.00159431 0.259019 0)
(-0.0023808 0.258455 0)
(-0.00497634 0.258406 0)
(-0.00576653 0.258906 0)
(-0.00528515 0.25897 0)
(-0.0046688 0.259155 0)
(-0.00405942 0.261151 0)
(-0.00351194 0.2615 0)
(-0.00293682 0.261621 0)
(-0.00234428 0.261943 0)
(-0.00179124 0.262149 0)
(-0.00135618 0.262256 0)
(-0.000860418 0.262296 0)
(2.96666e-05 0.262336 0)
(0.00124399 0.262389 0)
(0.00188613 0.262251 0)
(-4.30619e-05 0.262084 0)
(-0.00222067 0.261976 0)
(0.00270897 0.262431 0)
(0.00425244 0.261698 0)
(0.00888869 0.258608 0)
(0.00784007 0.259357 0)
(0.00242278 0.259802 0)
(0.00492214 0.259338 0)
(0.00254402 0.258999 0)
(-0.00181741 0.258176 0)
(-0.00488487 0.257903 0)
(-0.00593535 0.258303 0)
(-0.0056758 0.259016 0)
(-0.00504667 0.259651 0)
(-0.0044776 0.261769 0)
(-0.00404393 0.260643 0)
(-0.00338515 0.261105 0)
(-0.002865 0.261571 0)
(-0.00231861 0.261861 0)
(-0.00187095 0.262052 0)
(-0.00147 0.262164 0)
(-0.000840072 0.262244 0)
(0.000282456 0.262337 0)
(0.00138986 0.262363 0)
(0.00173723 0.26213 0)
(8.37029e-05 0.261804 0)
(-0.00155777 0.262209 0)
(0.00231009 0.262589 0)
(0.0032252 0.26155 0)
(0.00987169 0.25867 0)
(0.00886484 0.259672 0)
(0.0018304 0.259525 0)
(0.00274926 0.259041 0)
(-0.000916717 0.258193 0)
(-0.0047736 0.257663 0)
(-0.00608076 0.257961 0)
(-0.0060364 0.258611 0)
(-0.00545874 0.259306 0)
(-0.00472889 0.261081 0)
(-0.00456875 0.261373 0)
(-0.00358953 0.260343 0)
(-0.00323471 0.261182 0)
(-0.00266579 0.26153 0)
(-0.00219584 0.261779 0)
(-0.00181898 0.261946 0)
(-0.00138017 0.262062 0)
(-0.000589067 0.262172 0)
(0.000569048 0.262258 0)
(0.0013317 0.262146 0)
(0.00122618 0.26188 0)
(0.000338837 0.261433 0)
(-0.000156737 0.261677 0)
(0.00125264 0.262586 0)
(0.00117893 0.261196 0)
(0.011071 0.258512 0)
(0.00886354 0.25941 0)
(-0.00065014 0.259162 0)
(-0.00105678 0.258542 0)
(-0.00452552 0.257627 0)
(-0.00628619 0.257771 0)
(-0.00624993 0.258357 0)
(-0.00580727 0.258984 0)
(-0.00520143 0.259564 0)
(-0.00484123 0.2605 0)
(-0.00385606 0.259862 0)
(-0.00339407 0.261603 0)
(-0.00287567 0.261177 0)
(-0.00237999 0.26148 0)
(-0.00198039 0.261687 0)
(-0.00162785 0.261838 0)
(-0.00110657 0.261965 0)
(-0.000223619 0.262088 0)
(0.000747915 0.262129 0)
(0.00116376 0.261976 0)
(0.000956005 0.261768 0)
(0.00101299 0.261708 0)
(0.00207267 0.262135 0)
(0.000331304 0.263291 0)
(-0.00131907 0.260424 0)
(0.00985863 0.257797 0)
(0.00865981 0.256455 0)
(-0.00129278 0.258367 0)
(-0.00449184 0.257705 0)
(-0.00660774 0.257562 0)
(-0.00652864 0.258113 0)
(-0.00592601 0.258703 0)
(-0.00535238 0.259246 0)
(-0.00477208 0.259729 0)
(-0.00418465 0.25937 0)
(-0.00354203 0.260218 0)
(-0.00303665 0.260546 0)
(-0.00248248 0.261173 0)
(-0.00201962 0.261394 0)
(-0.00165409 0.261562 0)
(-0.00126124 0.261693 0)
(-0.000626665 0.261812 0)
(0.000298271 0.261901 0)
(0.00112084 0.261876 0)
(0.00148763 0.261731 0)
(0.0016821 0.261605 0)
(0.00221781 0.26157 0)
(0.00560247 0.261 0)
(0.000323335 0.261534 0)
(-0.00450803 0.261755 0)
(0.0074059 0.257419 0)
(0.00754422 0.256947 0)
(-0.000643877 0.256668 0)
(-0.0050794 0.257214 0)
(-0.00651077 0.25777 0)
(-0.00594512 0.258396 0)
(-0.00531676 0.258923 0)
(-0.00475121 0.259392 0)
(-0.00417309 0.259753 0)
(-0.00362444 0.260066 0)
(-0.00310545 0.260496 0)
(-0.00262101 0.260803 0)
(-0.00210543 0.26106 0)
(-0.00166767 0.261242 0)
(-0.00131522 0.261376 0)
(-0.000880645 0.261482 0)
(-0.000200983 0.261566 0)
(0.000651866 0.261586 0)
(0.00129407 0.261492 0)
(0.00160103 0.2613 0)
(0.00195209 0.261199 0)
(0.00233014 0.260917 0)
(0.0048416 0.260726 0)
(3.32935e-06 0.258024 0)
(-0.00421577 0.260422 0)
(0.00577605 0.257628 0)
(0.00509012 0.257315 0)
(-0.00097135 0.256752 0)
(-0.00363964 0.257419 0)
(-0.00527156 0.258088 0)
(-0.00496275 0.258645 0)
(-0.00454808 0.259104 0)
(-0.0040907 0.259515 0)
(-0.00358099 0.259921 0)
(-0.003055 0.260473 0)
(-0.00255475 0.260715 0)
(-0.00210271 0.260713 0)
(-0.00164806 0.260919 0)
(-0.0012765 0.261066 0)
(-0.000951384 0.261176 0)
(-0.000518372 0.261264 0)
(0.000109012 0.26132 0)
(0.000783958 0.261303 0)
(0.00114634 0.261165 0)
(0.00123109 0.260969 0)
(0.00138323 0.259809 0)
(0.00116489 0.260572 0)
(0.00155515 0.260235 0)
(-0.000142921 0.260782 0)
(-0.00131521 0.259114 0)
(0.00451958 0.258075 0)
(0.00331514 0.258064 0)
(-0.0011429 0.257842 0)
(-0.00235358 0.258038 0)
(-0.00396374 0.258512 0)
(-0.00391471 0.258937 0)
(-0.00369894 0.259309 0)
(-0.00334728 0.259636 0)
(-0.00291861 0.259834 0)
(-0.00246278 0.259977 0)
(-0.00203154 0.26029 0)
(-0.00160687 0.260638 0)
(-0.00119937 0.260788 0)
(-0.000874011 0.2609 0)
(-0.000559125 0.260989 0)
(-0.000137967 0.261064 0)
(0.000400362 0.26111 0)
(0.000812778 0.261076 0)
(0.000966226 0.260989 0)
(0.00108143 0.260879 0)
(0.0010459 0.260567 0)
(0.000449274 0.260529 0)
(0.000305619 0.259536 0)
(-0.000394077 0.259482 0)
(-0.000847311 0.261699 0)
(0.00354568 0.25858 0)
(0.00242817 0.258399 0)
(-0.00116653 0.258668 0)
(-0.00186352 0.258609 0)
(-0.0030633 0.258915 0)
(-0.00308729 0.259217 0)
(-0.00294898 0.2595 0)
(-0.00265632 0.259756 0)
(-0.00228134 0.260161 0)
(-0.00191288 0.260368 0)
(-0.00154621 0.260387 0)
(-0.00115794 0.260543 0)
(-0.000778771 0.260657 0)
(-0.000473413 0.260742 0)
(-0.000152687 0.260812 0)
(0.000250364 0.260872 0)
(0.000609189 0.260886 0)
(0.000756874 0.260803 0)
(0.000811361 0.260205 0)
(0.000940205 0.259594 0)
(0.000854699 0.262326 0)
(0.000363823 0.259631 0)
(0.00015741 0.260089 0)
(-0.000893333 0.259445 0)
(-0.00112126 0.25961 0)
(0.00268757 0.258979 0)
(0.00178452 0.258946 0)
(-0.00107279 0.258951 0)
(-0.00155302 0.259009 0)
(-0.00239564 0.259228 0)
(-0.00243243 0.259453 0)
(-0.00232109 0.259671 0)
(-0.00207196 0.25989 0)
(-0.00174493 0.260069 0)
(-0.00141877 0.260195 0)
(-0.00108504 0.260343 0)
(-0.00072269 0.260458 0)
(-0.000376107 0.260539 0)
(-7.62052e-05 0.260598 0)
(0.000245144 0.260653 0)
(0.000558193 0.260681 0)
(0.000769673 0.260703 0)
(0.000852602 0.260553 0)
(0.000846273 0.259867 0)
(0.000716266 0.260355 0)
(0.000555424 0.259705 0)
(8.42872e-05 0.260163 0)
(-8.06243e-05 0.262025 0)
(-0.000929219 0.261614 0)
(-0.00110909 0.259149 0)
(0.00198771 0.259297 0)
(0.00121503 0.259137 0)
(-0.00100309 0.259332 0)
(-0.00130225 0.259326 0)
(-0.00188669 0.259485 0)
(-0.00191136 0.259641 0)
(-0.00182205 0.259807 0)
(-0.00159215 0.259959 0)
(-0.00131662 0.260153 0)
(-0.00102752 0.26034 0)
(-0.000695193 0.260319 0)
(-0.000353815 0.260398 0)
(-3.45388e-05 0.260442 0)
(0.000271446 0.260474 0)
(0.000543148 0.26049 0)
(0.000696947 0.260468 0)
(0.000795395 0.25955 0)
(0.000809245 0.260378 0)
(0.00074938 0.261495 0)
(0.000661477 0.261806 0)
(0.000430061 0.259227 0)
(-0.000263334 0.261716 0)
(-0.000370373 0.259414 0)
(-0.00117076 0.259676 0)
(-0.00139671 0.261283 0)
(0.00138385 0.259531 0)
(0.000773176 0.259487 0)
(-0.000878949 0.259497 0)
(-0.00111356 0.259548 0)
(-0.0015426 0.259664 0)
(-0.00155188 0.259856 0)
(-0.00143014 0.259947 0)
(-0.00122649 0.260074 0)
(-0.000994316 0.260222 0)
(-0.000659042 0.259658 0)
(-0.00032839 0.260304 0)
(-7.8317e-05 0.260336 0)
(0.000219066 0.260378 0)
(0.00051753 0.260391 0)
(0.000776955 0.260482 0)
(0.000940425 0.260458 0)
(0.000980594 0.260072 0)
(0.000660224 0.260277 0)
(0.000595266 0.260252 0)
(0.000659559 0.259811 0)
(0.000485208 0.261231 0)
(-0.000122549 0.259633 0)
(-0.00014395 0.259473 0)
(-0.00163337 0.25926 0)
(-0.00187597 0.260088 0)
(0.000914589 0.259713 0)
(0.00037785 0.259598 0)
(-0.000850735 0.259725 0)
(-0.000995398 0.259817 0)
(-0.00128227 0.259942 0)
(-0.00124694 0.259453 0)
(-0.00107916 0.259519 0)
(-0.000861854 0.260297 0)
(-0.00059472 0.259495 0)
(-0.000316158 0.259401 0)
(-0.000222187 0.260426 0)
(0.000136878 0.260458 0)
(0.000447035 0.260339 0)
(0.000682411 0.260345 0)
(0.000904057 0.259483 0)
(0.00106217 0.259441 0)
(0.00101569 0.261981 0)
(0.000790055 0.260191 0)
(0.000663835 0.260005 0)
(0.000506146 0.259994 0)
(0.000443617 0.260275 0)
(-4.2243e-05 0.259793 0)
(-0.000197527 0.261226 0)
(-0.00184844 0.261252 0)
(-0.00209359 0.259194 0)
(0.000519139 0.259866 0)
(0.0001029 0.259884 0)
(-0.000725163 0.25995 0)
(-0.000755455 0.259321 0)
(-0.000797251 0.259336 0)
(-0.000751409 0.259294 0)
(-0.000801902 0.259418 0)
(-0.000685138 0.259416 0)
(-0.000378401 0.259573 0)
(-0.000286643 0.261986 0)
(-0.00013368 0.259538 0)
(0.000274797 0.259459 0)
(0.00060022 0.260441 0)
(0.000931222 0.260387 0)
(0.00115347 0.259822 0)
(0.00100074 0.259839 0)
(0.000845981 0.259881 0)
(0.000812513 0.260107 0)
(0.00056141 0.260702 0)
(0.000309634 0.260551 0)
(0.000253666 0.259539 0)
(-0.000211528 0.260695 0)
(-0.00028877 0.259729 0)
(-0.00194604 0.26019 0)