/*--------------------------------*- C++ -*----------------------------------*\
| =========                 |                                                 |
| \\      /  F ield         | OpenFOAM: The Open Source CFD Toolbox           |
|  \\    /   O peration     | Version:  2.3.0                                 |
|   \\  /    A nd           | Web:      www.OpenFOAM.org                      |
|    \\/     M anipulation  |                                                 |
\*---------------------------------------------------------------------------*/
FoamFile
{
    version     2.0;
    format      ascii;
    class       volScalarField;
    location    "1.66";
    object      epsilon.air;
}
// * * * * * * * * * * * * * * * * * * * * * * * * * * * * * * * * * * * * * //

dimensions      [0 2 -3 0 0 0 0];

internalField   nonuniform List<scalar> 
6000
(
118.524
17.2331
10.7596
9.81584
9.53909
9.3487
9.27199
9.40917
9.62694
9.91596
10.1495
10.7332
11.9018
13.2917
13.0634
12.1289
11.2299
10.5498
10.0778
9.72908
9.56607
9.66469
10.05
10.2721
10.1244
9.87649
9.89233
10.7142
17.4155
121.02
83.6556
23.6546
14.1202
11.742
11.331
11.3132
11.1957
11.144
11.296
12.0609
13.6333
16.3646
21.1626
24.9419
21.7471
17.4235
14.5376
12.841
11.8361
11.3694
11.309
11.6454
12.3111
13.059
13.372
13.1205
12.839
14.2259
22.1554
73.3665
60.5504
22.8418
14.7569
12.2583
11.508
11.2332
11.2521
11.6135
12.5047
13.941
16.1829
20.323
26.0476
26.5019
23.0843
18.5684
15.6344
13.9617
13.1954
12.9581
12.9929
13.1791
13.4062
13.5442
13.4901
13.3911
13.4359
14.6713
20.3725
49.4747
42.4144
21.3035
15.1785
13.122
12.333
12.0364
12.1396
12.6582
13.8741
15.9521
19.1796
24.7585
29.5235
27.1322
23.9172
19.7148
16.8778
15.2026
14.4073
14.1847
14.331
14.5485
14.5199
14.303
14.0792
13.9924
13.9424
14.582
18.8001
36.8634
29.6935
18.087
14.5515
13.2149
13.0437
13.2036
13.4905
14.083
15.3718
18.0278
22.2444
28.4959
31.4504
28.6975
25.5575
22.0799
19.5532
17.7763
16.5868
15.9718
15.7815
15.8082
15.7096
15.3367
15.0927
14.8558
14.8184
15.027
18.0909
31.2871
22.6716
14.9474
13.2771
12.7494
12.9048
13.3965
14.0183
15.0828
16.504
19.4748
24.621
31.6385
34.6244
31.9257
28.6763
26.8213
25.1664
23.0548
20.839
19.2088
18.2161
17.6465
17.1969
16.7223
16.3878
16.3203
16.6309
16.2185
17.9985
31.2377
18.6776
12.5135
11.9067
11.9564
12.3591
13.0402
13.8375
15.1841
17.4336
20.3234
25.6559
33.3083
37.7493
35.5131
32.0145
32.376
33.4553
31.3251
27.2111
23.9195
22.0112
20.7858
19.6689
18.7647
18.2109
18.3083
19.3704
18.1068
18.5356
32.871
15.6849
10.6161
10.6101
11.1685
11.8576
12.5494
13.4304
14.9762
17.8663
20.5709
25.1659
32.2277
38.1828
37.3384
34.2308
34.7769
36.8639
36.1659
34.1747
29.5438
26.6987
25.084
23.3824
21.7903
20.8373
20.5595
22.2504
20.3465
20.1121
34.0994
14.5734
9.59902
9.70498
10.5831
11.6525
12.4065
13.2077
14.6737
17.2708
20.2254
23.7909
29.2779
35.1997
36.3227
34.2406
34.5455
35.7689
36.6031
38.5477
35.2647
31.5374
29.7846
27.7624
25.6441
24.0614
22.6986
24.211
22.3003
22.2054
36.0143
15.105
9.49285
9.45164
10.3255
11.6207
12.6834
13.3927
14.6337
16.6549
19.4256
22.3538
26.1829
30.6824
33.3549
33.1702
33.6691
35.2463
37.5268
41.1072
40.0789
35.835
34.053
31.5817
29.413
27.2494
24.6303
25.1793
23.5088
24.1004
41.1339
17.6542
10.0169
9.67255
10.3687
11.5669
13.0428
14.0075
15.0009
16.6378
18.6417
21.1421
24.0085
27.5772
30.7932
31.9235
32.6917
35.0139
38.8113
44.5964
44.6445
39.2825
36.6953
33.6855
31.6211
29.3611
25.91
25.1922
23.8336
25.144
46.7252
21.892
11.1377
10.2546
10.6829
11.6546
13.0839
14.6201
15.7956
17.2611
18.7489
20.5329
23.2116
26.7324
30.2886
31.469
32.3177
34.8519
39.6844
47.4027
47.9542
41.2322
37.271
34.42
32.4755
30.1137
26.3528
24.983
23.8775
25.7656
50.6798
25.5523
12.4769
11.0877
11.2185
11.9727
13.1865
14.8211
16.5981
18.4521
19.8315
21.0195
23.5406
27.3455
30.6578
31.7102
32.7357
35.1807
40.241
48.5146
49.4426
42.4739
37.8471
34.9323
32.8174
30.0614
26.4496
25.1063
24.2885
26.9105
54.7834
32.6405
14.5722
12.2451
11.9716
12.4937
13.5355
15.0016
16.9143
19.1774
20.959
22.2373
24.2484
27.5156
30.4914
32.4466
34.076
36.4063
41.0323
48.952
50.7119
44.0434
39.1888
35.9433
33.4969
30.1814
27.0173
25.8466
24.9948
27.5307
57.3401
38.9518
17.0404
13.7612
13.0257
13.276
14.1665
15.4901
17.0868
19.3482
21.4955
23.2776
25.2759
27.9399
31.0031
34.1281
36.6332
38.7455
42.4429
49.1755
53.1944
46.5137
41.1526
37.3799
34.7411
30.9281
28.3092
26.9582
26.01
28.4066
58.0298
51.4903
21.4105
15.8188
14.3946
14.2598
14.9978
16.2631
17.7042
19.8415
22.0406
24.0939
26.8542
29.9109
33.446
37.2134
40.1129
41.7672
44.1626
49.793
57.0805
50.4583
43.7698
38.9392
35.8346
31.3046
28.5395
26.8359
25.7438
27.6504
52.3209
56.4757
25.4891
18.2106
15.6012
15.2158
15.7648
16.8888
18.5595
20.7786
22.916
24.7831
28.4774
32.8875
37.2681
40.9212
43.6636
44.1903
45.3286
50.0475
60.331
55.955
47.4843
40.6484
35.7664
30.9163
27.826
25.7352
24.4285
25.3241
40.3156
51.9157
23.8569
18.3176
16.2483
15.8748
16.3341
17.4876
18.9607
20.6914
22.8367
24.8753
28.7847
34.257
39.1291
42.8641
45.9127
45.516
45.7449
49.5974
58.7257
60.9433
52.8271
43.4896
36.2905
30.6676
27.1464
24.6583
22.9846
23.1723
34.5497
46.4085
21.4612
16.8293
15.4118
15.2946
16.0871
17.648
19.1891
20.2416
21.6458
23.8451
27.4317
32.7161
37.7454
42.4147
46.6321
45.8005
45.9684
48.7734
54.4222
60.5582
58.6459
48.6049
38.4821
31.1232
26.6283
23.712
22.1489
22.4108
37.2707
41.5887
19.375
15.2639
14.0892
14.1588
15.1658
16.8724
18.4509
19.2421
20.1499
21.9762
25.0544
29.6875
35.1238
41.2404
46.6711
45.9957
46.163
47.9143
50.9708
54.7716
56.9304
52.9555
43.3742
33.5337
27.1083
23.8241
22.5128
22.9056
44.2178
35.5449
17.3879
13.7771
12.6851
12.7539
13.6206
15.1437
16.7292
17.6855
18.5427
20.1394
22.9015
27.125
33.0319
40.6534
46.5874
46.0396
45.8936
46.2927
47.4841
48.95
50.1876
49.88
45.617
37.795
29.4641
25.3969
24.0868
25.2392
52.2407
29.1533
15.6659
12.4129
11.367
11.364
12.0295
13.3362
14.8088
15.9117
16.9483
18.5881
21.2929
25.3999
31.6151
39.8854
45.0877
45.2777
44.8402
44.1971
44.0756
44.2883
44.428
43.9539
42.2625
38.0038
32.2083
28.6489
27.5366
30.2515
67.7821
22.61
13.6027
10.9928
10.1402
10.1089
10.6312
11.7421
13.0473
14.2383
15.5057
17.2847
20.0212
24.0668
30.1256
37.571
41.9255
43.2501
43.0607
42.1033
41.2832
40.7684
40.3024
39.4964
38.0584
35.7886
32.8674
32.3686
33.1479
36.902
77.4677
16.7766
11.1339
9.506
8.97343
8.99709
9.51701
10.5198
11.6725
12.8827
14.3052
16.2024
18.8976
22.7303
28.0019
33.8772
38.0804
40.4664
40.9313
40.2043
39.123
38.2207
37.4152
36.4498
35.2283
33.8574
32.9937
34.7659
39.0968
43.1239
85.9471
12.349
8.84105
8.11437
7.8633
8.04726
8.68187
9.61607
10.6586
11.84
13.2965
15.2043
17.7718
21.1937
25.4798
29.97
33.9342
37.1414
38.748
38.4652
37.4701
36.4285
35.481
34.501
33.5661
32.9101
33.2794
36.2539
42.2774
46.2174
92.7566
9.05596
6.93358
6.79224
6.88891
7.32681
8.06593
8.93918
9.90554
11.0355
12.4407
14.2448
16.5719
19.4989
22.9375
26.4752
29.9386
33.2565
36.0313
37.1188
36.3142
35.2711
34.3056
33.4322
32.8132
32.7682
33.8473
37.5606
43.984
47.649
94.3042
7.09107
5.58561
5.79147
6.24241
6.88791
7.63398
8.44414
9.34741
10.4108
11.7145
13.3417
15.3658
17.8154
20.5996
23.5149
26.4843
29.5539
32.748
35.5996
35.8907
34.8019
33.831
33.1492
32.8339
33.1474
34.7859
38.8398
45.6068
48.6264
91.9462
6.65106
5.0584
5.40431
6.01737
6.67413
7.36126
8.10521
8.94512
9.92914
11.1113
12.5459
14.2763
16.3139
18.6081
21.0722
23.6733
26.495
29.6912
33.3223
35.8929
35.1437
34.0567
33.5104
33.4302
34.0496
36.0151
40.403
47.3699
49.3661
85.9911
7.24084
5.24882
5.51569
6.04237
6.60845
7.21986
7.89927
8.6722
9.57084
10.6313
11.8892
13.3726
15.091
17.0271
19.1545
21.482
24.0999
27.1727
30.8917
35.0091
36.2843
34.9999
34.5029
34.6938
35.5471
37.743
42.3726
49.3343
50.4306
83.4973
9.5035
5.97651
5.86687
6.18421
6.64728
7.18817
7.80355
8.50885
9.32413
10.2737
11.3824
12.6716
14.1544
15.8352
17.7193
19.8373
22.2716
25.1586
28.6608
32.8841
36.631
36.6472
35.8708
36.2995
37.4982
39.9873
44.7369
51.2193
51.5506
85.7379
12.0738
6.82293
6.28461
6.42277
6.77451
7.24252
7.79934
8.44028
9.17936
10.0335
11.0218
12.1632
13.4754
14.9753
16.6849
18.6428
20.9171
23.6065
26.8189
30.6231
34.8907
37.7402
37.0839
37.5405
39.4053
42.2845
47.1194
52.7562
52.9668
93.0026
14.0104
7.54461
6.71074
6.71163
6.97221
7.37322
7.86899
8.45335
9.12664
9.90138
10.7947
11.8257
13.0154
14.3887
15.9764
17.8198
19.9754
22.5122
25.49
28.8897
32.5644
36.2916
37.8253
37.6313
39.965
43.4708
48.367
52.9988
54.169
102.949
15.5794
8.19402
7.1438
7.03388
7.22249
7.56549
8.00906
8.53796
9.15461
9.86587
10.6852
11.6342
12.7372
14.0245
15.5335
17.3099
19.4087
21.8899
24.7891
28.0487
31.388
34.4679
36.9491
37.0744
38.9296
42.6406
48.2603
52.0261
55.4833
111.517
16.9461
8.80294
7.58298
7.38504
7.51531
7.80897
8.20735
8.69043
9.25597
9.91317
10.6771
11.5653
12.6075
13.8396
15.3056
17.0605
19.1723
21.7168
24.7437
28.2011
31.8047
34.9774
37.0216
36.978
37.8114
41.384
47.7624
50.7326
56.1985
113.507
18.2072
9.38946
8.03064
7.76345
7.84712
8.10011
8.45973
8.90282
9.42595
10.0368
10.7515
11.5951
12.5967
13.7953
15.2446
17.0121
19.1874
21.8795
25.181
29.0889
33.5184
37.6932
40.1195
39.3231
39.5672
42.9227
48.3213
50.8219
57.8706
117.275
19.4373
9.97269
8.4949
8.17312
8.21996
8.43974
8.7655
9.17241
9.65695
10.2277
10.9022
11.7056
12.6733
13.8516
15.2978
17.0901
19.3435
22.2343
25.9786
30.2767
35.503
41.4611
45.9911
45.5304
45.9215
48.9042
51.6112
53.6861
63.5113
139.049
20.7019
10.5773
8.99043
8.62384
8.64077
8.83226
9.12669
9.49852
9.94495
10.4764
11.1127
11.8824
12.8235
13.9848
15.4281
17.2313
19.5279
22.5595
26.144
31.1546
37.1062
43.5767
47.3831
47.7213
49.3115
51.7726
52.9991
55.3037
66.3945
146.96
22.0656
11.2323
9.53706
9.1301
9.12019
9.28473
9.54726
9.88176
10.2868
10.7754
11.371
12.1053
13.019
14.1613
15.592
17.3648
19.5905
22.1325
25.8817
30.2726
35.2462
40.5107
43.8158
45.6764
47.5882
49.5197
50.5826
52.5324
62.3298
134.25
23.5843
11.9689
10.1582
9.70979
9.67135
9.80611
10.0328
10.3243
10.6804
11.1175
11.6633
12.3545
13.2355
14.3579
15.7577
17.4321
19.2856
21.3862
24.675
28.2633
32.3427
36.2557
38.8576
41.0391
43.09
44.5105
45.2091
46.5993
54.0144
108.369
25.2951
12.8216
10.8807
10.3836
10.3102
10.4088
10.5933
10.833
11.1278
11.4991
11.9791
12.609
13.4393
14.5252
15.8817
17.3806
18.7811
20.9564
23.8217
26.7442
30.096
32.9021
34.9716
37.0045
38.6621
39.6477
40.0715
41.1522
47.0508
88.504
27.2049
13.8173
11.7289
11.1692
11.0485
11.1007
11.2391
11.4184
11.6364
11.9235
12.3169
12.8586
13.5984
14.5922
15.8642
17.2663
18.8032
20.7345
23.1174
25.6227
28.4504
30.4109
32.0042
33.8139
35.203
35.8998
36.082
36.7471
41.3439
72.1912
29.4363
15.0042
12.7286
12.0775
11.8873
11.884
11.972
12.085
12.2129
12.3984
12.6852
13.1107
13.7174
14.5549
15.6589
16.9976
18.587
20.3995
22.3645
24.6913
27.2816
28.6308
29.6771
31.2483
32.5043
33.0109
32.9462
32.982
35.802
58.0359
32.1888
16.4421
13.8913
13.0889
12.7787
12.696
12.7502
12.8241
12.859
12.9349
13.102
13.3912
13.838
14.4787
15.3524
16.4924
17.9683
19.9177
21.732
23.8017
26.3199
27.2999
27.8131
29.0448
30.122
30.522
30.4172
29.8878
30.3666
46.8218
35.844
18.1744
15.1673
14.0968
13.6274
13.4268
13.4448
13.5175
13.5456
13.5415
13.5978
13.7464
14.0133
14.4448
15.0943
16.0167
17.2954
19.0248
20.9889
22.7679
25.2508
26.2138
26.2815
27.008
27.7772
28.3251
28.3532
27.2051
26.2877
41.9225
40.7112
20.2114
16.4756
15.0568
14.2589
13.9158
13.9703
14.1569
14.2078
14.1864
14.1714
14.1939
14.2833
14.4907
14.8999
15.5915
16.6152
17.9947
19.6543
21.4525
23.7079
25.0709
24.7785
24.9212
25.4717
26.0115
24.9533
23.0512
22.5713
38.397
46.1367
22.299
17.7432
15.7736
14.8293
14.3619
14.2204
14.4812
14.7376
14.8049
14.7705
14.6947
14.6243
14.622
14.7803
15.2094
15.9528
16.9936
18.2542
19.7315
21.7938
23.517
23.1649
22.9453
23.6234
23.1746
20.6885
18.6419
18.4681
31.2897
52.4192
24.1731
18.7855
16.6356
15.7312
15.2712
14.9673
14.8907
15.1464
15.3182
15.317
15.1864
14.9993
14.7905
14.7159
14.8894
15.3615
16.1092
17.0623
18.1698
19.7261
21.6115
21.7674
21.6002
22.4508
20.265
17.5097
15.5319
15.4848
24.7305
55.4638
25.2646
19.4792
17.6444
16.8762
16.4351
16.089
15.8345
15.7662
15.8378
15.7862
15.6013
15.2844
14.9558
14.6871
14.645
14.8819
15.396
16.1375
17.0523
18.2082
19.8756
20.7406
21.2731
21.6875
18.335
15.4456
13.4919
13.3769
20.3874
55.14
25.1075
20.1976
18.826
18.2333
17.8126
17.4373
17.1132
16.8626
16.6444
16.4073
16.0495
15.5758
15.0843
14.6721
14.4734
14.5232
14.858
15.4683
16.3362
17.5059
19.0586
20.5821
21.8218
21.4701
17.3634
14.1696
12.1421
11.9888
19.1285
50.4889
24.7597
21.2104
20.2216
19.8299
19.4792
19.1302
18.7501
18.3011
17.7987
17.2833
16.5876
15.8862
15.2512
14.7274
14.3794
14.2803
14.4653
14.975
15.827
17.1046
18.8646
20.8436
22.7374
21.2721
16.7298
13.3607
11.319
11.1755
19.2707
42.6709
25.599
22.4691
21.8854
21.7869
21.5527
21.2812
20.8478
20.1022
19.1483
18.188
17.2457
16.3203
15.5245
14.8945
14.4214
14.1681
14.1943
14.5803
15.3619
16.6189
18.4347
20.6574
22.5304
20.2739
15.969
12.7914
10.9286
10.9505
19.602
43.742
26.802
24.1668
24.0871
24.4977
24.3433
24.0311
23.4729
22.1795
20.5452
19.2375
18.1026
16.9171
15.9613
15.2448
14.6046
14.1992
14.0673
14.2404
14.8529
15.9544
17.5708
19.7653
21.2831
18.8509
15.1454
12.3995
10.857
11.1157
20.2888
48.1619
28.9733
26.7443
27.2461
28.2263
27.9663
26.838
25.2681
23.4402
21.6494
20.2521
18.937
17.6068
16.543
15.7904
15.1497
14.6003
14.366
14.4649
14.9603
15.8808
17.2954
19.2221
20.1778
17.56
14.4352
12.1879
10.9963
11.6253
21.3986
57.2791
32.6348
30.0409
30.1283
30.7184
30.011
27.8069
25.7458
23.9836
22.5011
21.1932
19.8787
18.5255
17.3408
16.5169
15.9654
15.5146
15.2621
15.2826
15.6137
16.3337
17.5742
19.1271
19.0986
16.4913
13.9599
12.1891
11.3357
12.2715
22.6746
67.3607
36.937
33.2826
33.0029
30.9266
29.3812
27.6051
26.1196
24.7929
23.6953
22.591
21.3568
19.9741
18.5787
17.5342
16.9295
16.5889
16.4036
16.3997
16.6501
17.2321
18.2763
19.3619
18.287
15.882
13.8416
12.424
11.8539
12.9285
23.122
77.6622
41.1199
36.4631
35.1674
31.766
29.7375
28.1162
27.0295
26.2905
25.6245
24.7429
23.5723
22.1263
20.5156
19.1006
18.2159
17.8259
17.6929
17.7028
17.932
18.4539
19.3238
19.7403
17.9489
15.7583
14.0635
12.9705
12.6919
13.8724
23.1888
89.2847
46.1474
39.4513
36.3507
33.519
31.5842
30.1683
29.3244
28.8879
28.4813
27.7558
26.5876
25.0148
23.193
21.459
20.1302
19.4281
19.2016
19.203
19.4089
19.9014
20.5437
20.0856
17.9679
15.9867
14.5781
13.7563
13.8468
15.0652
23.7589
109.668
51.7018
42.2989
38.7694
36.5498
35.0162
33.8614
33.1802
32.8881
32.6268
31.9766
30.6942
28.8147
26.628
24.581
22.8788
21.7116
21.1375
20.9744
21.086
21.4637
21.6972
20.4105
18.2127
16.4332
15.1878
14.62
14.9579
16.1721
27.6144
138.648
63.7268
47.8055
43.1365
40.6315
38.9955
37.9893
37.6242
37.587
37.4498
36.8582
35.5338
33.4331
30.972
28.5609
26.4466
24.8917
23.8742
23.3316
23.1733
23.2305
22.7212
20.8577
18.6459
16.9183
15.7607
15.2573
15.7493
17.2942
34.5303
142.699
65.8598
51.0734
45.6855
43.444
42.1012
41.7536
41.9447
41.9737
41.7381
41.1785
39.9902
38.0661
35.6858
33.2569
30.916
29.0548
27.6398
26.6942
26.0712
25.4975
24.0552
21.6935
19.2761
17.4205
16.2204
15.5889
16.0214
17.822
34.4827
128.778
61.9238
49.9014
45.7728
44.2427
43.7049
43.7522
43.9603
43.7037
43.0085
42.206
41.2809
40.1825
38.9068
37.3322
35.5465
34.0983
32.682
31.4006
30.1588
28.607
26.0847
23.0157
20.1636
17.9461
16.4975
15.9408
16.0524
17.9351
32.2405
115.067
56.4866
46.8942
44.1974
43.1872
42.8537
42.9391
43.0188
42.6547
42.0066
41.3313
40.615
39.7757
38.9074
38.381
38.3443
38.5121
38.135
37.643
36.2313
33.0704
29.0511
24.9618
21.4786
18.8325
17.0325
16.3303
16.1734
17.793
31.2136
110.309
53.4474
44.737
42.3447
41.455
41.0653
40.9235
40.7755
40.4175
39.8951
39.3414
38.8152
38.2914
37.8733
37.7967
38.256
39.4579
41.5767
43.7506
43.2856
39.2289
33.0561
27.5271
23.2399
20.0626
17.9728
16.9438
16.5687
17.7549
31.3422
107.735
51.4661
42.9468
40.6448
39.8069
39.3832
39.0937
38.8049
38.4258
37.9518
37.4588
37.0228
36.7048
36.6241
36.9409
37.748
39.0565
40.9208
43.4331
45.7999
44.2723
37.1938
30.1291
25.0462
21.4171
19.0954
17.8802
17.4672
18.6171
32.3316
104.822
49.7298
41.224
38.8641
38.0239
37.6086
37.2982
36.9777
36.6005
36.1652
35.7322
35.3791
35.2051
35.3339
35.8836
36.8586
38.1607
39.5564
40.9632
42.0649
41.6732
37.583
31.3036
26.0737
22.3638
20.1528
19.0166
18.8526
20.495
33.0408
101.226
47.9522
39.5427
37.1187
36.2486
35.8429
35.5534
35.2509
34.9015
34.5148
34.1495
33.8864
33.8177
34.0571
34.6533
35.5719
36.7279
38.0058
39.0135
38.7689
37.2549
34.289
30.397
26.38
23.1946
21.1315
20.1235
20.2649
22.8139
38.6776
97.3599
46.1242
37.9173
35.47
34.57
34.1638
33.894
33.6212
33.311
32.9838
32.6948
32.5206
32.5426
32.8508
33.4598
34.362
35.6046
37.2759
38.3639
36.8993
34.7817
32.5572
29.1289
25.8413
23.2745
21.5269
20.76
21.1832
24.3396
42.5935
93.5864
44.3308
36.3657
33.927
33.0059
32.5936
32.3359
32.0921
31.8273
31.5675
31.3575
31.2633
31.374
31.7541
32.427
33.459
35.0583
37.3995
38.356
35.5922
33.0597
30.6195
27.7759
25.0476
22.8451
21.3549
20.7122
21.1378
24.3784
43.1416
89.7956
42.593
34.883
32.4767
31.5487
31.1327
30.8851
30.6712
30.4596
30.2696
30.1297
30.1054
30.3017
30.7717
31.5637
32.8052
34.7973
37.6546
38.0092
34.4839
31.5028
28.7909
26.2301
23.9339
22.0695
20.7465
20.1022
20.5033
23.9917
47.974
86.1465
40.8888
33.4583
31.1095
30.1894
29.7772
29.5454
29.3677
29.2171
29.0931
29.0042
29.0395
29.3135
29.8784
30.7958
32.1954
34.342
37.2672
37.0853
33.3023
30.0215
27.2739
24.9102
22.8858
21.2047
19.9313
19.2113
19.4018
22.5192
47.3369
82.8912
39.2605
32.1045
29.8241
28.9224
28.5241
28.3184
28.1881
28.1045
28.0377
27.9793
28.062
28.4019
29.048
30.05
31.4755
33.4668
36.0325
35.7254
31.9857
28.6772
25.9974
23.7409
21.8357
20.259
19.0485
18.3417
18.5732
21.6791
44.7472
79.6671
37.7109
30.821
28.6135
27.7391
27.3662
27.1993
27.1315
27.1211
27.0959
27.0558
27.1749
27.5684
28.2704
29.29
30.5983
32.2168
34.184
34.1674
30.691
27.4847
24.9313
22.8019
21.0084
19.511
18.3508
17.6856
17.9327
21.0132
43.3604
76.6929
36.2202
29.5915
27.4659
26.6291
26.293
26.1793
26.1855
26.2488
26.2539
26.2254
26.3764
26.8143
27.5411
28.4966
29.5584
30.702
31.9855
32.2737
29.3166
26.4357
24.1609
22.2487
20.5907
19.1614
18.0239
17.3773
17.7355
20.8265
39.859
73.9119
34.8064
28.4204
26.3784
25.5874
25.2973
25.2421
25.327
25.4596
25.4883
25.4687
25.6474
26.1199
26.836
27.6458
28.388
29.0733
29.6453
29.5869
27.6831
25.5996
23.8353
22.193
20.6422
19.2549
18.1271
17.4687
17.7649
20.8162
40.2955
71.2113
33.4654
27.3046
25.3456
24.6054
24.3635
24.3669
24.5244
24.7124
24.7608
24.7491
24.9454
25.4332
26.0973
26.7076
27.1853
27.6169
27.7713
27.2651
26.2771
25.2193
24.0316
22.621
21.1294
19.6896
18.463
17.7626
18.0924
21.311
44.7639
68.7317
32.1856
26.2344
24.3625
23.6756
23.4781
23.5314
23.7417
23.9665
24.0288
24.0194
24.2151
24.683
25.2301
25.6235
25.9785
26.421
26.6312
26.0293
24.9501
24.4943
23.9036
22.7759
21.3833
19.8999
18.5617
17.7636
18.1351
21.8513
48.2041
66.3817
30.9754
25.2139
23.4256
22.7907
22.6321
22.7222
22.9583
23.1914
23.2554
23.2415
23.4082
23.7922
24.1381
24.3446
24.6748
25.2053
25.5133
24.8622
23.6196
22.8138
22.4135
21.7444
20.6028
19.3083
18.1252
17.3799
17.7172
21.329
47.8453
64.2618
29.8322
24.2441
22.5332
21.9505
21.8274
21.9397
22.1742
22.3845
22.4304
22.3983
22.4972
22.7116
22.8063
22.8935
23.2077
23.715
23.8326
23.003
21.9695
21.2806
20.8289
20.2599
19.2953
18.162
17.1386
16.4596
16.7395
20.1052
44.5483
62.368
28.765
23.3305
21.6916
21.1627
21.0782
21.2097
21.4235
21.5805
21.5811
21.5037
21.4897
21.4658
21.343
21.3604
21.6287
21.9934
21.7852
21.0012
20.4309
19.7402
19.1033
18.447
17.6052
16.6389
15.7532
15.2158
15.5536
18.6472
40.5544
60.7514
27.7781
22.4787
20.909
20.438
20.4096
20.5747
20.7547
20.8298
20.7536
20.598
20.4324
20.1603
19.8852
19.8364
20.0225
20.1714
19.7279
19.2552
18.8626
18.1771
17.4582
16.7446
15.9618
15.1264
14.3844
13.9696
14.3489
17.1904
36.8858
59.3858
26.8845
21.6993
20.1976
19.7974
19.8527
20.0588
20.1922
20.1693
19.9911
19.7291
19.3879
18.9079
18.5182
18.3888
18.4628
18.3571
17.9165
17.7291
17.2661
16.6044
15.894
15.1822
14.4554
13.7381
13.1331
12.8308
13.2429
15.8722
33.726
58.2186
26.0764
20.9855
19.5572
19.2486
19.4059
19.6337
19.7118
19.5961
19.31
18.9235
18.4034
17.7674
17.2724
17.0422
16.9659
16.6537
16.4746
16.2812
15.7558
15.1366
14.4835
13.8256
13.1741
12.561
12.0681
11.8564
12.2928
14.7505
31.1296
57.1957
25.3425
20.3259
18.9804
18.7762
19.0277
19.245
19.2594
19.0582
18.6795
18.1671
17.4816
16.7279
16.141
15.8051
15.5454
15.2424
15.2275
14.8917
14.3894
13.8354
13.2597
12.6832
12.1202
11.6033
11.2036
11.0642
11.5198
13.8438
29.0691
56.1771
24.6725
19.716
18.4575
18.3543
18.6656
18.8368
18.7667
18.4845
18.0331
17.4039
16.5906
15.7557
15.0981
14.6584
14.2671
14.184
14.0435
13.6351
13.1859
12.7142
12.2355
11.7574
11.2894
10.8605
10.537
10.4547
10.9272
13.1504
27.4789
54.8092
24.0177
19.1475
17.97
17.954
18.2895
18.3827
18.1987
17.832
17.3081
16.5867
15.6986
14.8272
14.1284
13.5865
13.2603
13.2294
12.9106
12.5261
12.1522
11.7827
11.4176
11.0516
10.6775
10.3226
10.0541
10.0136
10.5012
12.6591
26.3304
53.1166
23.3734
18.6155
17.5002
17.5526
17.8845
17.8751
17.5558
17.1012
16.5097
15.7281
14.8157
13.9383
13.1969
12.623
12.4831
12.2417
11.8734
11.5661
11.2912
11.0407
10.8025
10.5663
10.2834
9.96498
9.72374
9.70462
10.2055
12.3448
25.6823
51.0007
22.7042
18.0995
17.0302
17.1159
17.4247
17.3097
16.8667
16.3306
15.6912
14.8803
13.9569
13.0591
12.2791
11.8238
11.629
11.2596
10.9745
10.7655
10.6025
10.479
10.3793
10.2438
9.98928
9.70719
9.50974
9.50782
10.013
12.1803
25.6431
48.6553
22.1837
17.6185
16.5526
16.6185
16.8933
16.7031
16.1683
15.5762
14.9046
14.0617
13.1017
12.1663
11.4343
11.0968
10.7033
10.4
10.2255
10.1212
10.0807
10.0744
10.0603
10.0583
9.9258
9.65715
9.38817
9.3966
9.91184
12.1676
25.953
46.0374
21.6543
17.1578
16.0626
16.054
16.2837
16.0798
15.5041
14.8719
14.1505
13.239
12.2196
11.2954
10.7065
10.2521
9.86962
9.68475
9.62616
9.65346
9.71815
9.81419
9.82846
9.72839
9.61524
9.4361
9.23459
9.24418
9.78678
12.0104
25.8243
43.0743
21.1004
16.7149
15.5714
15.4332
15.6204
15.4607
14.9091
14.2208
13.3859
12.3727
11.3362
10.5141
9.93688
9.41378
9.16736
9.09372
9.1554
9.3065
9.50739
9.63257
9.63001
9.47979
9.24184
9.03289
8.89744
9.02455
9.66688
11.953
25.9879
39.7313
20.5874
16.3192
15.0954
14.7857
14.9403
14.9073
14.4115
13.5994
12.5777
11.4824
10.4951
9.78321
9.10713
8.72367
8.5659
8.57841
8.71153
8.93272
9.16729
9.30467
9.34054
9.272
9.08748
8.87966
8.7461
8.81135
9.33506
11.5214
24.7696
35.9565
20.1583
16.0506
14.6842
14.1702
14.3047
14.4443
14.0202
13.0156
11.7813
10.6261
9.77766
8.99996
8.42241
8.1182
8.02305
8.07803
8.2501
8.50362
8.78624
9.00354
9.14957
9.18023
9.08639
8.92423
8.78743
8.76688
9.05506
10.5603
21.0107
31.5071
19.7412
15.9215
14.3655
13.6529
13.776
14.1408
13.7803
12.5147
11.0198
9.90931
9.07159
8.30601
7.80833
7.56558
7.52563
7.63324
7.87412
8.19972
8.54808
8.85098
9.09038
9.21922
9.21616
9.12449
8.99948
8.9211
9.08293
10.2651
19.1682
25.7741
18.8078
15.7129
14.0722
13.243
13.352
13.9682
13.6632
12.0961
10.333
9.28422
8.37569
7.66216
7.23127
7.05735
7.08881
7.28331
7.61432
8.01462
8.43704
8.83528
9.17633
9.42377
9.54945
9.55886
9.47792
9.36075
9.40968
10.4976
19.8569
19.0456
16.671
15.1932
13.7073
12.8338
12.9424
13.8356
13.6067
11.6782
9.78656
8.66178
7.7205
7.05214
6.68994
6.59971
6.719
7.03192
7.47766
7.9868
8.49754
8.99213
9.47163
9.89378
10.2071
10.3861
10.4098
10.2891
10.2251
11.2049
21.5566
12.6311
12.7576
13.8761
13.3017
12.3366
12.4254
13.5594
13.4021
11.2265
9.27908
8.05489
7.09747
6.47813
6.19122
6.19973
6.43372
6.89377
7.48771
8.13427
8.78776
9.44854
10.1294
10.7841
11.3955
11.903
12.1662
12.0886
11.8684
12.6767
24.3012
7.91771
8.65587
11.6831
12.4615
11.763
11.7626
13.0004
12.9225
10.7479
8.74148
7.43972
6.49961
5.93631
5.75035
5.86844
6.26436
6.89155
7.66438
8.52492
9.39996
10.2833
11.2724
12.2904
13.4563
14.6464
15.4336
15.5169
15.0137
15.3847
28.1113
4.97322
5.67203
8.97366
11.6605
11.1955
10.9572
12.2011
12.116
10.0873
8.10921
6.81411
5.92372
5.44446
5.39247
5.65156
6.25363
7.07931
8.08466
9.09717
10.2146
11.398
12.7106
14.401
16.7204
19.4154
21.5626
22.2872
21.2773
20.6127
34.0664
3.39033
3.90512
6.76478
10.6875
10.9688
10.327
11.2472
11.1164
9.20578
7.43316
6.23139
5.41538
5.06709
5.16041
5.63336
6.46462
7.53252
8.6488
9.84788
10.9815
12.2081
14.0497
16.95
21.2426
26.822
32.2294
34.5084
33.4048
31.2126
45.6372
2.67808
3.04692
5.48376
9.20891
10.9987
9.90446
10.0413
9.67931
8.17274
6.83942
5.75683
5.05521
4.89328
5.15495
5.87803
6.98695
8.20096
9.34037
10.4327
11.5907
13.4443
16.138
20.332
26.863
35.5219
44.8266
53.5717
56.1103
49.8309
67.6474
2.47841
2.49691
4.69997
8.02774
10.8089
9.93831
8.78869
8.32143
7.53536
6.41753
5.43627
4.93537
4.96833
5.43344
6.48902
7.79251
9.06509
10.2314
11.3804
13.165
15.7927
19.6507
25.3848
33.3736
43.1406
57.3979
81.1531
95.722
79.0103
94.4855
2.04557
1.89856
3.79187
6.96265
10.5067
10.2801
8.78176
7.83421
6.89694
5.98467
5.23424
5.04487
5.30719
6.09326
7.42846
8.89191
10.2876
11.5855
13.3339
16.0896
20.0229
25.593
32.9689
42.0252
54.6512
78.2655
120.959
155.85
117.276
114.171
1.86317
1.632
3.07668
5.80293
9.84503
10.9962
9.29628
7.89414
6.57435
5.58506
5.25398
5.40382
5.98783
7.08314
8.66936
10.4167
12.094
13.9733
16.9375
21.1451
27.0773
34.9366
44.342
55.557
72.3679
101.705
140.884
171.483
141.602
134.242
1.97995
1.75347
2.94576
5.03812
8.46416
11.0051
9.9502
8.20933
6.88884
6.03437
5.90057
6.20304
7.05299
8.4332
10.3981
12.6431
15.0229
18.1845
22.7134
29.0881
37.76
48.5154
60.3402
73.2605
90.8383
113.603
137.315
171.555
153.738
165.029
2.62863
2.32511
3.22305
4.84386
7.35802
10.3905
10.57
9.06552
7.87899
7.42793
7.57057
7.99656
8.75614
10.3699
12.8355
15.8335
19.4204
24.2573
30.9723
40.2252
52.2384
65.9141
78.6692
89.9824
99.6851
109.851
129.967
170.996
157.283
181.884
4.37811
3.2652
3.83531
5.03512
6.95311
9.5356
11.3869
10.5511
9.56049
9.38351
9.68299
10.2963
11.1062
13.0246
16.1166
20.0955
25.2425
32.1936
41.698
54.2227
68.9278
83.155
94.036
97.4368
97.0792
102.21
125.282
166.83
152.695
186.179
6.49053
4.24584
4.52669
5.47042
6.99744
9.11591
11.4617
12.0828
11.5103
11.5557
12.1196
12.9022
14.0526
16.5684
20.4448
25.6193
32.5712
42.0482
54.6821
69.4002
83.8819
95.5485
99.2097
95.2151
90.3355
95.5632
118.948
156.261
142.009
180.971
8.64111
5.21028
5.26089
6.04888
7.33738
9.14116
11.3566
13.169
13.5566
13.9658
14.8644
16.002
17.8998
21.1935
26.0269
32.6297
41.6353
53.7392
68.3312
82.0916
94.2424
98.9791
96.2623
88.5161
83.2271
88.9481
109.914
141.077
128.908
171.956
10.6573
6.19442
6.08386
6.76444
7.9349
9.54639
11.6293
13.9373
15.6351
16.7416
18.0627
19.8982
22.7795
27.0858
33.1336
41.4582
52.6162
66.5615
80.253
91.4563
97.5582
95.5409
88.5557
80.5417
77.0306
82.7963
99.9996
124.957
115.971
162.128
12.7248
7.33557
7.05564
7.63665
8.72533
10.2794
12.3537
14.9051
17.5466
19.8209
21.896
24.6799
28.7995
34.5163
42.1942
52.5954
65.9156
79.999
91.4831
97.1041
94.7926
87.6067
79.6804
73.7173
72.3299
77.7084
90.9489
110.552
104.63
153.251
15.2689
8.68468
8.233
8.61336
9.65315
11.2333
13.4165
16.216
19.4911
22.8896
26.1654
30.2577
36.0203
43.7472
53.7113
66.5026
80.7988
93.0799
99.3471
96.262
88.0745
79.2642
72.2649
68.6123
68.961
73.6418
83.4037
98.7545
95.306
146.198
19.5692
10.2802
9.35902
9.59225
10.6096
12.3157
14.6935
17.7988
21.6078
25.9367
30.6647
36.5402
44.4847
54.9432
67.6453
80.8564
92.8479
100.675
99.8063
92.1323
81.7477
72.7297
66.9018
64.8886
66.4399
70.2593
77.2303
89.3599
87.7725
140.592
22.0243
11.2926
10.1969
10.429
11.5253
13.4272
16.0788
19.5424
23.8669
29.0614
35.2823
43.2198
53.9788
67.4467
80.5
91.0226
99.1815
101.93
98.007
88.2007
76.9475
67.9772
63.0818
62.153
64.3625
67.2978
72.1107
81.8438
81.7184
136.069
22.2359
11.6096
10.6413
10.9423
12.308
14.48
17.4616
21.3205
26.1623
32.1164
39.6002
49.5927
62.9228
76.7245
86.6757
95.0756
100.74
101.272
95.2188
84.3227
72.9397
64.3901
60.3022
60.135
62.6196
64.6739
67.8305
75.7645
77.0259
133.268
21.8091
11.8051
10.9559
11.3472
12.9716
15.4228
18.7283
22.9906
28.3485
34.922
43.3899
54.2543
67.5686
79.2012
88.1727
95.5165
99.212
97.8133
90.5616
79.8446
69.2098
61.5483
58.2391
58.7252
61.1934
62.3976
64.3086
70.8737
73.428
131.685
20.6189
11.9433
11.2122
11.7449
13.483
16.1461
19.7344
24.3934
30.2813
37.3857
46.088
56.7615
69.0475
80.6181
89.1727
93.7479
94.7613
91.8186
84.6742
75.0221
65.709
59.2399
56.7679
57.8365
60.0346
60.4306
61.3838
66.8723
70.6183
130.766
19.9046
12.1222
11.5449
12.2522
13.9307
16.6399
20.4175
25.3913
31.6318
39.3461
48.1515
59.3423
71.959
83.273
89.7004
91.3146
90.0034
85.9135
78.9861
70.4851
62.5932
57.41
55.8082
57.3254
59.0974
58.6977
58.8995
63.5876
68.3623
130.16
20.8214
12.55
12.0345
12.9046
14.6565
17.274
20.9833
26.033
32.6388
40.752
50.6397
62.8181
75.3481
85.4415
90.3137
90.2551
86.9851
81.5543
74.4444
66.7316
60.0519
56.0798
55.3039
57.0668
58.2742
57.1006
56.7324
60.8171
66.529
129.876
23.4671
13.2528
12.6116
13.5413
15.4092
18.1255
21.8759
27.0723
33.9702
42.5693
53.3333
65.9266
77.6798
86.8094
91.7895
90.9403
86.0841
79.1196
71.3778
63.9948
58.2179
55.2884
55.2278
56.941
57.449
55.6027
54.8529
58.5525
65.1037
129.909
26.5138
14.0002
13.0901
14.0172
15.9622
18.8298
22.8428
28.3512
35.5153
44.5345
55.8749
68.0918
78.9545
88.3585
94.1044
93.0526
86.8709
78.4284
69.7357
62.3052
57.1714
55.0348
55.4358
56.8283
56.5522
54.2207
53.2782
56.7799
64.0874
130.54
28.9623
14.5574
13.3972
14.2993
16.3036
19.3842
23.7415
29.5544
36.9387
46.2327
57.6943
69.2053
79.5858
89.7961
96.6641
96.0873
88.9159
78.9468
69.2727
61.585
56.8719
55.2539
55.875
56.6296
55.5769
52.9997
52.0403
55.4826
63.3794
131.333
30.6725
14.933
13.5946
14.5061
16.6391
19.9631
24.5822
30.551
38.0964
47.5509
58.6861
69.4508
79.6491
90.6708
99.0472
99.279
91.4848
80.2022
69.5481
61.6255
57.1496
55.8701
56.2803
56.1938
54.563
51.9871
51.139
54.5574
62.8393
131.852
31.3286
15.1616
13.7774
14.7318
17.0054
20.4986
25.2224
31.3045
38.9895
48.5312
59.0335
69.1726
79.542
91.375
101.237
102.309
93.8348
81.5365
70.2112
62.1285
57.9228
56.6569
56.3733
55.4437
53.6144
51.2358
50.5337
53.8586
62.3667
132.232
31.416
15.328