/*--------------------------------*- C++ -*----------------------------------*\
| =========                 |                                                 |
| \\      /  F ield         | OpenFOAM: The Open Source CFD Toolbox           |
|  \\    /   O peration     | Version:  2.3.0                                 |
|   \\  /    A nd           | Web:      www.OpenFOAM.org                      |
|    \\/     M anipulation  |                                                 |
\*---------------------------------------------------------------------------*/
FoamFile
{
    version     2.0;
    format      ascii;
    class       volScalarField;
    location    "0.372";
    object      p;
}
// * * * * * * * * * * * * * * * * * * * * * * * * * * * * * * * * * * * * * //

dimensions      [1 -1 -2 0 0 0 0];

internalField   nonuniform List<scalar> 
545
(
-7.00192e+07
-1.34811e+07
-2.42361e+06
-2.95902e+06
-8.14671e+06
4.91763e+07
-3.30262e+06
-2.73472e+06
-2.87219e+06
-6.75256e+06
8.60276e+07
2.41354e+06
-1.02254e+06
-1.071e+06
-7.05034e+06
4.96138e+07
-3.45786e+06
-2.32429e+06
-825232
-6.3541e+06
-8.04626e+07
-2.73323e+06
-1.09901e+06
2.9581e+06
9.5015e+06
-6.91957e+06
-2.23654e+06
-1.28963e+06
-685507
-583315
-572075
-583628
-584834
-580572
-574106
-567989
-561980
-556382
-550184
-543557
-535704
-527199
-517422
-507127
-495459
-483227
-469730
-455713
-440429
-424747
-407997
-390849
-372643
-354139
-334762
-315431
-295511
-275618
-254923
-234406
-212750
-191011
-168232
-145688
-122566
-100093
-77166.8
-54855.2
-31706.5
-10758.8
-6.21791e+06
-1.63287e+06
-1.25204e+06
-787604
-672478
-617946
-602898
-591483
-582708
-574555
-568066
-561896
-556363
-550159
-543589
-535665
-527185
-517379
-507133
-495469
-483247
-469769
-455745
-440440
-424727
-408010
-390867
-372686
-354126
-334691
-315310
-295487
-275586
-254959
-234447
-212869
-191080
-168247
-145557
-122505
-99958.5
-77179.3
-54771.6
-31826.7
-10326.6
-7.24449e+06
-1.11121e+06
-989495
-668458
-638179
-610652
-604317
-592282
-583703
-574410
-568676
-561561
-556858
-549770
-544105
-535162
-527591
-516836
-507580
-494994
-483724
-469335
-456292
-439951
-425204
-407530
-391405
-372238
-354644
-334024
-315636
-294916
-276062
-254430
-235053
-212517
-191785
-167700
-145961
-121777
-100339
-76593.3
-55367.3
-31276.7
-11067.3
-7.65846e+06
-93156.6
-476456
-461988
-570223
-589574
-601559
-590621
-584783
-573486
-569900
-560622
-557938
-548754
-545261
-533967
-528540
-515608
-508603
-493867
-484774
-468266
-457478
-438792
-426268
-406410
-392566
-371161
-355814
-332620
-316474
-293725
-277119
-253234
-236300
-211599
-193232
-166482
-146938
-120337
-101256
-75425.2
-56535.4
-29986
-11707.3
-2.06035e+06
2.17975e+06
351873
-296446
-551954
-591081
-603948
-589464
-586282
-572281
-571475
-559366
-559269
-547404
-546778
-532360
-529768
-513896
-509976
-492376
-486114
-466830
-459070
-437219
-427636
-404937
-394072
-369753
-357384
-330684
-317527
-292230
-278542
-251526
-238017
-210327
-195258
-164766
-148261
-118304
-102533
-73834.3
-58258.8
-28348.4
-13541.9
-1.17843e+07
3.57567e+06
967387
-201833
-545892
-599443
-604419
-593301
-582219
-571512
-564203
-559001
-553150
-547204
-542893
-535395
-524892
-512731
-501751
-492236
-479659
-466605
-453741
-439891
-421880
-404807
-388356
-371505
-353708
-333390
-310450
-290491
-271753
-252777
-229767
-210404
-191409
-168336
-144117
-118363
-95485.4
-73403.5
-49993.1
-28945.3
-8817.04
-8.04598e+07
-2.72742e+06
-1.08971e+06
2.96935e+06
9.51041e+06
4.96163e+07
-3.45214e+06
-2.3151e+06
-814647
-6.34549e+06
8.60298e+07
2.41912e+06
-1.01383e+06
-1.06165e+06
-7.04261e+06
4.91785e+07
-3.29724e+06
-2.72692e+06
-2.8645e+06
-6.74591e+06
-7.00171e+07
-1.34758e+07
-2.41666e+06
-2.95268e+06
-8.14055e+06
-2.05381e+06
2.17472e+06
356277
-301833
-546728
-596217
-597895
-595197
-580393
-577874
-565999
-565151
-553569
-553079
-540433
-538556
-523412
-519536
-503875
-498252
-479907
-472740
-452631
-443621
-421179
-411199
-387546
-376136
-350367
-337401
-311189
-298497
-272132
-257850
-231586
-216618
-188249
-171737
-141119
-124747
-96108
-80353.9
-52118.5
-36829.7
-8907.19
-7.65263e+06
-95996
-474728
-465223
-567091
-592086
-597784
-593381
-581431
-576697
-567103
-564005
-554798
-551754
-541528
-537093
-524743
-518388
-504904
-496846
-481057
-471274
-453674
-442118
-422528
-409665
-388778
-374466
-351774
-336176
-312890
-297086
-273435
-256627
-232600
-214911
-189212
-170155
-142887
-123760
-97702
-79137
-53418.3
-35077.8
-9209.79
-7.24035e+06
-1.11178e+06
-989649
-669610
-636810
-610693
-602367
-592452
-582487
-575616
-568235
-562862
-555948
-550448
-542604
-535670
-525929
-517127
-505946
-495408
-482145
-469795
-454742
-440609
-423748
-408181
-389946
-372906
-353114
-334877
-314369
-295727
-274741
-255246
-233724
-213252
-190320
-168603
-144505
-122658
-99219.9
-77877.2
-54689
-33608.6
-11110.2
-6.21427e+06
-1.6325e+06
-1.25212e+06
-787696
-671451
-616916
-601289
-590515
-582163
-575131
-568547
-562551
-556243
-550020
-542804
-535159
-526165
-516700
-506098
-494879
-482301
-469254
-454885
-440072
-423975
-407680
-390141
-372383
-353419
-334526
-314772
-295355
-275033
-254829
-233886
-212682
-190473
-168136
-145002
-122465
-99687.7
-77552.5
-55042.1
-32894.2
-10705.1
-6.91593e+06
-2.2355e+06
-1.28914e+06
-685061
-582307
-570605
-581951
-583403
-580138
-574527
-568759
-562503
-556490
-549819
-542950
-534875
-526290
-516430
-506185
-494536
-482385
-468898
-454991
-439730
-424129
-407358
-390275
-372036
-353630
-334282
-315036
-295098
-275238
-254511
-234017
-212296
-190615
-167828
-145337
-122309
-99983.9
-77345.5
-55282.9
-32617.6
-11590.3
)
;

boundaryField
{
    AirInlet
    {
        type            calculated;
        value           uniform -1.17816e+07;
    }
    WaterInlet
    {
        type            calculated;
        value           nonuniform List<scalar> 10(-7.00192e+07 4.91763e+07 8.60276e+07 4.96138e+07 -8.04626e+07 -8.04598e+07 4.96163e+07 8.60298e+07 4.91785e+07 -7.00171e+07);
    }
    ChannelWall
    {
        type            calculated;
        value           nonuniform List<scalar> 
110
(
-8.04626e+07
-2.73323e+06
-1.09901e+06
2.9581e+06
9.5015e+06
-8.04598e+07
-2.72742e+06
-1.08971e+06
2.96935e+06
9.51041e+06
-7.00171e+07
-1.34758e+07
-2.41666e+06
-2.95268e+06
-8.14055e+06
-6.91593e+06
-2.2355e+06
-1.28914e+06
-685061
-582307
-570605
-581951
-583403
-580138
-574527
-568759
-562503
-556490
-549819
-542950
-534875
-526290
-516430
-506185
-494536
-482385
-468898
-454991
-439730
-424129
-407358
-390275
-372036
-353630
-334282
-315036
-295098
-275238
-254511
-234017
-212296
-190615
-167828
-145337
-122310
-99984
-77345.5
-55283
-32617.7
-11590.4
-7.00192e+07
-1.34811e+07
-2.42361e+06
-2.95902e+06
-8.14671e+06
-6.91957e+06
-2.23654e+06
-1.28963e+06
-685507
-583315
-572075
-583628
-584834
-580572
-574106
-567989
-561980
-556382
-550183
-543557
-535704
-527199
-517422
-507127
-495459
-483227
-469730
-455713
-440429
-424747
-407997
-390849
-372643
-354139
-334762
-315431
-295511
-275618
-254923
-234406
-212750
-191011
-168231
-145688
-122566
-100093
-77166.8
-54855.2
-31706.5
-10758.7
)
;
    }
    Outlet
    {
        type            calculated;
        value           nonuniform List<scalar> 
11
(
-0.044145
-0.132435
-0.220725
-0.308996
-0.395386
-0.274792
-0.580867
-0.671943
-0.760274
-0.848565
-0.936855
)
;
    }
    FrontAndBack
    {
        type            empty;
    }
}


// ************************************************************************* //
