/*--------------------------------*- C++ -*----------------------------------*\
| =========                 |                                                 |
| \\      /  F ield         | OpenFOAM: The Open Source CFD Toolbox           |
|  \\    /   O peration     | Version:  2.3.0                                 |
|   \\  /    A nd           | Web:      www.OpenFOAM.org                      |
|    \\/     M anipulation  |                                                 |
\*---------------------------------------------------------------------------*/
FoamFile
{
    version     2.0;
    format      ascii;
    class       volScalarField;
    location    "4.70008";
    object      epsilon.air;
}
// * * * * * * * * * * * * * * * * * * * * * * * * * * * * * * * * * * * * * //

dimensions      [0 2 -3 0 0 0 0];

internalField   nonuniform List<scalar> 
18816
(
1.18731
5.56056
9.77245
12.7398
17.6949
20.7368
25.4415
28.9834
33.6158
36.9707
40.6755
43.4909
45.741
46.345
45.7817
43.546
39.3508
33.1588
25.7045
17.2709
10.0257
4.64034
3.64453
6.37088
12.6504
16.4927
15.4999
3.34373
12.083
44.8915
37.3213
37.0656
36.1857
37.4081
39.6477
41.1093
42.0885
42.3582
42.9199
42.747
40.7575
38.2167
34.9726
31.1076
26.6998
21.8406
17.0463
12.912
9.66586
7.52204
7.59361
7.6813
10.3207
14.5136
23.4791
8.13107
9.58225
30.0759
25.7331
24.9987
24.486
25.3748
26.8387
27.5761
27.9505
28.425
27.5962
30.6357
28.8504
25.6581
23.1099
20.4354
17.8914
15.407
12.7716
9.70858
6.71871
4.19423
3.25466
2.81541
4.63988
9.192
18.324
9.10457
9.69138
26.1369
23.6712
24.2085
24.273
25.0086
26.5643
27.3197
26.2245
26.2751
22.9811
16.8384
20.2918
18.6019
16.8545
14.9867
13.4624
11.6956
9.39192
6.44102
4.01181
2.12278
1.37636
1.62524
3.32946
7.46007
17.9039
9.62161
6.43644
81.4778
21.9384
22.0385
21.7194
23.9894
24.4647
24.6502
25.8521
25.0086
19.6727
12.5527
14.3153
11.6707
8.2291
5.01352
2.839
1.50973
1.27014
0.940563
0.84245
0.666419
0.437343
0.180726
1.64349
5.69685
16.2215
9.88269
11.2386
90.6957
59.3715
21.0325
21.48
23.4193
24.024
25.7901
24.1039
24.0493
18.2279
10.3521
8.0947
4.00599
1.14325
0.35042
0.267678
0.454566
1.0634
1.84083
1.9876
0.83544
0.76394
0.576051
0.778017
5.23706
15.8899
10.0322
11.8951
88.4954
68.9423
53.3056
44.5082
38.089
31.7722
23.1696
23.2039
20.9968
17.3943
4.94465
3.74484
0.870638
0.0750638
0.00832526
0.0134211
0.108929
0.467484
1.02073
2.65733
2.28739
0.828811
0.872343
0.302849
4.24391
15.0377
9.98874
15.9759
87.4528
68.6486
58.3637
46.8219
37.985
31.7359
27.1284
24.4767
19.745
14.3898
3.84972
2.00786
0.317391
0.0159988
0.0261322
0.0135145
0.117104
0.223827
0.658089
2.75093
3.03396
1.67139
1.04336
0.783788
3.41708
14.5821
9.92667
16.7327
86.5948
67.0405
56.1955
44.239
35.2394
28.9129
25.6899
23.6036
17.8361
14.4888
3.113
1.38167
0.142613
0.0327869
0.0431867
0.109664
0.0618952
0.18195
0.565789
2.37758
3.14701
2.8052
0.931111
1.15128
2.5407
14.1022
9.96225
20.1416
86.0158
66.025
55.0862
42.9379
33.8802
27.8681
24.6285
23.8172
14.0292
12.393
2.43331
0.504377
0.205483
0.158043
0.116244
0.261078
0.181374
0.0315187
0.38988
1.99505
3.16736
3.26857
1.2303
1.13972
2.32118
13.9631
9.66831
21.3752
85.0692
65.7276
54.5396
42.1897
33.2791
28.0077
25.4079
23.8687
10.3173
10.2827
1.51068
0.487721
0.279873
0.173459
0.128735
0.140478
0.186277
0.128327
0.390589
1.71276
3.16663
3.37923
2.07819
1.12687
0.317566
13.735
9.62068
22.0486
84.3905
66.0639
54.2603
41.7019
32.9648
27.9162
26.923
22.8291
8.9061
5.9602
3.0965
0.347923
0.364958
0.188628
0.214618
0.205693
0.177004
0.218905
0.439282
1.5412
3.10146
3.35615
2.72983
1.10616
0.29684
13.0045
9.43823
24.1506
83.9963
66.4326
53.894
41.4073
32.7957
28.2322
28.296
22.4706
7.10224
4.17219
2.22655
0.147828
0.319445
0.195475
0.239705
0.231518
0.252428
0.407479
0.48603
2.01817
3.0724
3.34699
3.15337
1.09497
0.560978
12.0931
9.44462
24.314
83.0659
66.4577
53.5648
41.1515
32.6934
28.5958
30.1031
22.406
5.81293
3.17933
1.98039
0.151628
0.480464
0.186204
0.323395
0.338047
0.365383
0.477941
0.521476
2.57128
2.95939
3.22106
3.30753
1.08172
0.987116
11.1472
9.28739
25.8804
81.5349
65.7822
53.0518
40.8672
32.6088
29.0192
31.3135
21.219
4.93441
2.16679
1.03984
0.220729
0.156161
0.108487
0.242213
0.363355
0.36905
0.361077
0.74824
2.63709
2.80254
3.05609
3.3262
1.07191
1.36893
10.3119
9.11103
25.873
80.6877
64.9227
52.7964
40.692
32.631
29.986
32.9564
19.2728
3.21928
1.06785
0.501193
0.208787
0.0499709
0.127206
0.194905
0.195716
0.241877
0.358281
1.51778
2.40338
2.52308
2.77106
3.15031
1.18914
1.4242
9.80169
9.29251
27.2896
80.4696
64.1586
52.5672
40.4109
32.6234
30.8044
33.1112
16.0645
1.80657
0.512482
0.163192
0.218154
0.0613851
0.173719
0.131699
0.29809
0.738434
0.761218
1.47112
2.0771
2.22561
2.48259
2.89126
1.69487
1.11684
9.85461
8.76195
27.0955
79.8686
64.0242
52.711
40.3791
33.0844
32.8914
33.5051
10.9145
0.603516
0.147412
0.0373348
0.230932
0.123788
0.333746
0.514764
0.676423
0.919321
0.95681
1.33533
1.769
1.91097
2.16821
2.58746
2.31833
0.786888
10.1509
8.51475
28.9749
79.2235
64.5391
52.9825
40.4113
34.1175
34.6546
30.6132
4.34183
0.185691
0.166072
0.0863611
0.569139
0.475101
0.803502
0.721554
0.771042
1.2029
1.41456
1.46854
1.53436
1.70607
1.94278
2.35928
2.49216
0.630839
10.1714
8.57059
28.6696
80.1655
66.0728
53.4927
40.9804
36.4867
39.4493
27.425
1.49905
0.268135
0.385364
0.262279
0.669016
0.508546
0.728035
0.65162
0.859652
1.21262
1.79262
1.91122
1.40326
1.49174
1.72727
2.13869
2.34572
0.636013
9.8396
8.09183
30.857
82.4075
68.2616
54.7158
43.778
43.0612
44.33
16.6227
0.423044
0.600237
0.45297
0.376771
0.349405
0.287805
0.323218
0.322788
0.433764
0.553103
1.01381
1.27876
0.9571
1.1445
1.51066
1.95005
2.14136
1.25156
9.37974
8.14423
30.7298
84.8551
70.6115
57.0965
48.2523
49.2589
43.9414
10.4142
0.154562
0.116517
0.147155
0.205464
0.163251
0.183189
0.153265
0.171745
0.208753
0.123544
0.130793
0.459104
0.648983
0.980618
1.38562
1.83271
1.84348
1.38617
8.75677
7.72868
33.2934
85.8438
71.3893
59.7032
52.847
53.4305
40.1923
9.71204
0.0653864
0.0654808
0.0932787
0.20122
0.245234
0.245615
0.233653
0.238548
0.262996
0.334596
0.426402
0.560962
0.641676
0.893939
1.30084
1.75991
1.21346
1.37582
7.85161
7.55731
33.2747
88.832
73.2395
63.5547
57.1895
56.1001
35.7321
9.94041
0.0406415
0.00205729
0.0133617
0.0278097
0.0474329
0.0458646
0.0354352
0.0420227
0.0576129
0.124078
0.19384
0.384345
0.548737
0.834636
1.2417
1.70097
0.409921
1.313
6.83713
7.56461
35.9248
92.234
74.8108
66.4876
60.597
57.2752
30.0165
9.88881
0.0623453
0.0106398
0.0119843
0.043477
0.108299
0.140189
0.129435
0.137299
0.153782
0.205525
0.263219
0.389193
0.536266
0.788353
1.19018
1.64341
0.45702
1.27885
6.07115
7.201
35.8995
97.5397
79.3542
70.3836
63.5297
56.6481
23.2424
9.59846
0.276805
0.0270847
0.00920534
0.0108762
0.0747134
0.100715
0.0920996
0.101278
0.121451
0.171879
0.22814
0.344342
0.497984
0.741124
1.1082
1.51751
0.610439
1.24929
5.97926
7.04161
38.6641
98.6768
82.1749
72.1269
65.2583
54.6847
17.3576
9.88764
0.155376
0.0516822
0.0139301
0.00448026
0.0982823
0.120649
0.111759
0.116865
0.135906
0.175774
0.226328
0.323024
0.452465
0.647127
0.948922
1.26112
0.821377
1.16532
5.6728
7.05987
39.9453
102.253
87.3813
75.4428
66.3563
49.5534
13.0184
5.92619
0.0272457
0.00473813
0.0478072
0.0217941
0.0888587
0.09364
0.0857922
0.0884435
0.102697
0.130487
0.165368
0.230497
0.316367
0.437506
0.595349
0.764654
1.00465
0.759484
2.93285
6.71295
0.486908
0.737698
2.22637
3.10669
4.48657
5.33528
6.59167
7.52812
8.70198
9.51779
10.3955
10.978
11.327
11.3089
10.9542
10.1597
8.89666
7.2139
5.3268
3.33977
1.7428
0.755702
0.588231
1.07306
2.58297
3.85139
3.70402
2.37432
1.26304
10.541
9.2446
9.28867
9.21537
9.57225
10.122
10.4178
10.601
10.6435
10.771
10.813
10.395
9.78897
9.00893
8.06481
6.94474
5.671
4.39653
3.2785
2.39066
1.88712
1.87043
1.9402
2.63222
3.72737
5.8229
2.0841
0.288755
1.93097
1.62187
1.54267
1.4419
1.41892
1.39423
1.34076
1.30597
1.33575
2.25093
8.31779
7.70686
6.92732
6.31909
5.63409
4.94465
4.23741
3.48179
2.6492
1.85844
1.26054
1.05945
0.975767
1.36996
2.52405
4.93277
1.9739
0.268479
0.349117
0.280384
0.249718
0.207464
0.18192
0.154946
0.135244
0.123293
0.136494
0.32445
1.55027
5.6894
5.30358
4.90466
4.42514
3.99953
3.46155
2.71621
1.81057
1.12248
0.635372
0.462036
0.511367
0.921533
2.03652
4.76406
2.56392
0.735502
13.7295
0.129856
0.0788929
0.0632498
0.0459225
0.0342196
0.030487
0.0296349
0.0330467
0.103466
0.801959
4.19313
3.49734
2.56233
1.64685
0.984338
0.641163
0.440288
0.355587
0.317472
0.278294
0.181917
0.114027
0.478384
1.56473
4.33404
2.65785
1.20375
22.5023
9.90256
0.0789364
0.051541
0.0412158
0.0318398
0.021088
0.020502
0.0210274
0.046618
0.432776
2.47652
1.26326
0.411516
0.164283
0.121006
0.172366
0.367803
0.777481
0.979638
0.556743
0.293168
0.226686
0.280141
1.44301
4.24763
2.88613
1.70522
23.013
17.0689
9.49384
7.99942
6.841
5.07507
0.028577
0.0281089
0.0230907
0.0255664
0.16839
1.18324
0.294652
0.0356265
0.00623998
0.00869182
0.047272
0.161656
0.310024
1.08696
1.13407
0.446554
0.336167
0.156553
1.20788
4.04715
2.98924
2.59258
22.8548
18.0042
14.867
11.9767
9.68163
7.86296
4.92708
4.40955
3.27053
0.0223232
0.0609476
0.637817
0.111988
0.00851563
0.00971374
0.00714471
0.0371093
0.0794168
0.211548
1.05594
1.23159
0.943427
0.373114
0.302906
0.998665
3.92686
2.98392
2.95481
22.6058
17.753
14.8983
11.7376
9.30315
7.59483
6.57755
6.02955
4.52307
0.0326832
0.021091
0.440473
0.0571922
0.0159417
0.0157012
0.0370558
0.0271511
0.0526014
0.171549
0.878145
1.23504
1.25089
0.425148
0.391161
0.761706
3.78999
3.06692
3.75897
22.4564
17.5464
14.6205
11.3737
8.90828
7.28194
6.4827
6.30476
3.85931
0.0285218
0.00854057
0.167559
0.0674676
0.0531037
0.0360785
0.068976
0.0718074
0.019094
0.132859
0.739314
1.22397
1.31094
0.774309
0.422501
0.717032
3.75494
2.92723
3.87974
22.2847
17.4809
14.4205
11.141
8.71082
7.29418
6.67861
6.51275
2.71145
0.0354542
0.0121733
0.140625
0.0890406
0.0632567
0.0431403
0.043822
0.0639414
0.0461179
0.134418
0.635278
1.20406
1.3006
1.21274
0.409256
0.171661
3.70737
2.87892
4.41913
22.1349
17.5009
14.3096
10.9952
8.61501
7.27671
7.09471
6.2501
2.47059
1.18735
0.695454
0.121263
0.108098
0.0679182
0.0657947
0.0624136
0.0631829
0.0699477
0.152441
0.575768
1.16794
1.26304
1.32828
0.42721
0.156889
3.54809
2.87334
4.63047
21.9863
17.4873
14.1943
10.9121
8.56898
7.34741
7.46367
6.13302
2.0316
1.16755
0.646414
0.0669401
0.100364
0.070235
0.0788728
0.0772123
0.086196
0.126149
0.183437
0.795879
1.1336
1.23038
1.35667
0.491039
0.239916
3.33479
2.85835
4.70195
21.75
17.4069
14.1011
10.8416
8.54278
7.45057
7.97702
6.13669
1.65945
0.915335
0.572997
0.0628067
0.138602
0.0691329
0.0947342
0.101061
0.114261
0.142459
0.186938
0.947858
1.06068
1.15252
1.30675
0.563275
0.368843
3.13135
2.89689
5.03512
21.4649
17.2249
13.9818
10.7656
8.5228
7.57275
8.35789
5.93229
1.3937
0.619011
0.325031
0.104854
0.0618495
0.0469101
0.0785306
0.111338
0.116363
0.123441
0.34877
0.903818
0.97003
1.06897
1.24378
0.677382
0.468265
2.90364
2.9498
5.05502
21.2249
17.0618
13.927
10.716
8.52904
7.82962
8.86514
5.46004
0.918079
0.314526
0.160848
0.136135
0.0238499
0.0469702
0.0657805
0.0714956
0.106023
0.197757
0.560658
0.791243
0.847573
0.952798
1.13513
0.850239
0.488273
2.68809
2.91408
5.32607
21.0429
16.9505
13.8661
10.6372
8.53788
8.08169
9.01684
4.61784
0.507469
0.148583
0.0532701
0.111945
0.0293844
0.0669737
0.0854184
0.194621
0.370822
0.360408
0.537553
0.674538
0.739968
0.849925
1.03
1.02198
0.481254
2.63622
2.87129
5.34242
20.876
16.9734
13.8759
10.6112
8.64729
8.66191
9.18146
3.23088
0.197939
0.0600934
0.0221396
0.104571
0.128781
0.229583
0.268308
0.312162
0.420904
0.461867
0.52748
0.579916
0.635818
0.745738
0.925469
1.01607
0.384016
2.68203
2.87323
5.57949
20.8202
17.1205
13.9199
10.6243
8.92966
9.10633
8.49742
1.37984
0.0897999
0.11827
0.0354737
0.281238
0.221069
0.371638
0.313134
0.336036
0.516864
0.653498
0.620092
0.517769
0.566552
0.674682
0.852279
0.94778
0.378739
2.7032
2.74823
5.59085
21.0132
17.3867
14.0077
10.7135
9.46325
10.162
7.44594
0.500764
0.251876
0.288988
0.187144
0.332067
0.257323
0.350945
0.299226
0.361379
0.495017
0.714802
0.697271
0.453638
0.475828
0.59962
0.779964
0.863799
0.609384
2.64913
2.78282
5.8525
21.3696
17.6984
14.2275
11.2961
10.9683
11.3809
4.96429
0.203065
0.299344
0.284947
0.263404
0.244045
0.222477
0.226545
0.227596
0.254069
0.24453
0.273127
0.322653
0.291086
0.378053
0.541322
0.727729
0.767108
0.807333
2.54579
2.62588
5.85044
21.902
18.1107
14.7686
12.3921
12.5056
11.0707
0.711421
0.0602549
0.0448805
0.0649544
0.0878143
0.0712226
0.0781216
0.0631416
0.0681097
0.0752677
0.0574013
0.0656468
0.165033
0.227947
0.348333
0.512741
0.695885
0.603311
0.738277
2.38783
2.5708
6.16464
22.3232
18.3684
15.3858
13.5321
13.6099
10.2222
0.126533
0.00622909
0.0289671
0.0450174
0.0648204
0.076912
0.0718349
0.0680172
0.0705208
0.0778968
0.0998116
0.127031
0.178517
0.221695
0.321063
0.485136
0.670254
0.327626
0.655582
2.16131
2.56648
6.15947
23.2652
19.0154
16.3393
14.6325
14.3771
9.2954
0.0537294
0.00345476
0.00209544
0.00869648
0.0144246
0.0267994
0.0231417
0.0195237
0.022173
0.0281966
0.0507888
0.0750614
0.137109
0.198395
0.306694
0.46698
0.647658
0.20282
0.59445
1.89597
2.47184
6.50382
23.9998
19.5547
17.0798
15.509
14.7626
8.01891
0.0409984
0.00393622
0.00626201
0.00616572
0.0159819
0.0475486
0.0467694
0.0431631
0.0459643
0.0522121
0.0704216
0.0912356
0.136667
0.192977
0.287433
0.44029
0.613715
0.192589
0.565155
1.69679
2.48116
6.45949
25.1262
20.7517
18.0685
16.3109
14.7636
6.40258
0.0334009
0.00300294
0.0115812
0.00476727
0.00508469
0.0373449
0.0372175
0.0342979
0.0370187
0.0441323
0.0608186
0.0803869
0.120312
0.175076
0.261959
0.393218
0.53978
0.180202
0.530263
1.68155
2.39063
6.94461
25.3859
21.3373
18.5159
16.8399
14.446
5.00679
0.0310787
0.00520874
0.0185133
0.00634005
0.00285182
0.0397184
0.0401375
0.0373341
0.0387675
0.0451322
0.0576312
0.0738305
0.10414
0.144946
0.205141
0.297299
0.392021
0.190506
0.435669
1.63237
2.35049
7.0681
26.1662
22.4218
19.3733
17.1874
13.0109
0.76881
0.00552474
0.00781828
0.00264412
0.0165623
0.00819013
0.0234221
0.0232469
0.0216395
0.0221115
0.0251341
0.0306328
0.037307
0.0487481
0.0623785
0.0783887
0.0919403
0.101266
0.253541
0.144951
0.863322
2.32295
0.164417
0.119656
0.467816
0.704767
1.0675
1.30343
1.63978
1.90102
2.22073
2.43824
2.65441
2.76973
2.81854
2.75052
2.58027
2.27552
1.86509
1.39353
0.939065
0.533041
0.27003
0.142215
0.120032
0.182964
0.447114
0.844297
0.836687
0.231312
0.464073
2.31765
2.18028
2.25444
2.31519
2.458
2.65317
2.77545
2.87613
2.94829
3.05963
3.14818
3.0548
2.88934
2.74556
2.83436
2.68433
2.22747
1.74194
1.3242
0.991122
0.828716
0.799822
0.834063
1.05494
1.185
1.63016
0.343327
0.294012
0.569896
0.505781
0.4878
0.470899
0.46987
0.462311
0.446297
0.441002
0.485136
0.898971
2.63904
2.60602
2.61313
2.58498
2.41282
2.15903
1.86779
1.55121
1.20173
0.870732
0.633886
0.553006
0.48911
0.640767
1.09616
1.52809
0.447174
0.213074
0.144758
0.118853
0.118865
0.102754
0.092495
0.0797109
0.0722206
0.0702049
0.0868216
0.17841
0.662072
1.84574
1.74994
1.63423
1.48837
1.3518
1.16577
0.894666
0.612152
0.403783
0.266522
0.204441
0.21044
0.333311
0.84403
1.47381
0.631516
0.170624
1.97482
0.079031
0.0632508
0.0563535
0.0471003
0.0371517
0.0330689
0.0321188
0.0402277
0.0838821
0.357755
1.38405
1.1893
0.902579
0.610684
0.424696
0.265206
0.223802
0.252192
0.268925
0.180396
0.133139
0.0904379
0.186258
0.554507
1.33724
0.628228
0.371289
5.87002
1.36625
0.061504
0.0483153
0.0378444
0.0284771
0.0235148
0.0228793
0.0265314
0.0481149
0.193936
0.838525
0.440645
0.158884
0.0793166
0.0569942
0.0698079
0.128476
0.355004
0.571095
0.563911
0.228437
0.147321
0.137965
0.466227
1.3018
0.754779
0.688586
6.61347
4.4088
1.50719
1.31547
1.16359
0.727411
0.0278223
0.0257031
0.0256403
0.0295434
0.0840695
0.411509
0.107354
0.0167777
0.00471682
0.00604715
0.02276
0.0639722
0.116664
0.55998
0.631127
0.4554
0.17452
0.104932
0.405622
1.24641
0.752621
0.881256
6.64636
5.25445
4.08598
3.33539
2.73768
2.14118
0.89748
0.772323
0.486944
0.0238892
0.0348117
0.224571
0.044063
0.00534994
0.00494223
0.00455617
0.0154273
0.0328408
0.0844608
0.483666
0.609192
0.620716
0.228992
0.172769
0.348414
1.20773
0.759672
1.10598
6.57061
5.27647
4.41315
3.48811
2.7874
2.28547
1.89584
1.71135
1.25554
0.0244704
0.0169144
0.158605
0.0261374
0.00948758
0.00758648
0.0153691
0.0176613
0.0204712
0.0707451
0.40109
0.59438
0.64518
0.37081
0.21319
0.27924
1.16245
0.72713
1.19255
6.50808
5.23068
4.35161
3.3999
2.68392
2.20154
1.95958
1.89669
1.18136
0.029138
0.00961515
0.068381
0.0266415
0.0241365
0.0144011
0.0210168
0.0407648
0.0132484
0.0615178
0.340864
0.574664
0.627533
0.610755
0.203857
0.273337
1.15267
0.76069
1.34153
6.45713
5.19826
4.27587
3.31689
2.60892
2.19123
2.02095
2.01458
0.814826
0.0367081
0.0133595
0.0565021
0.0353591
0.0339273
0.0200879
0.0195485
0.0345414
0.022489
0.0615744
0.295966
0.55315
0.604965
0.696028
0.221223
0.106301
1.14296
0.71127
1.37192
6.40288
5.17326
4.22663
3.26684
2.57439
2.18801
2.13803
1.93493
0.824971
0.280659
0.181764
0.0565091
0.0411671
0.0359652
0.0273369
0.0272768
0.0365549
0.0322405
0.0713009
0.271365
0.526193
0.571696
0.666596
0.376345
0.115628
1.10403
0.716857
1.4823
6.33765
5.13621
4.18557
3.24008
2.56063
2.20559
2.24016
1.88157
0.676547
0.376308
0.217634
0.0493021
0.0465781
0.0374094
0.0382744
0.0378908
0.0448318
0.055421
0.0922114
0.391275
0.494977
0.540382
0.636168
0.460199
0.152946
1.04513
0.719375
1.53839
6.26492
5.09269
4.1572
3.21821
2.55393
2.23811
2.39632
1.88146
0.573295
0.305493
0.19761
0.0645849
0.0503343
0.037167
0.0363854
0.0385294
0.0547144
0.0712823
0.105028
0.419309
0.444667
0.489589
0.588627
0.513999
0.203231
0.997833
0.786062
1.51808
6.19792
5.04596
4.12746
3.19636
2.54999
2.27667
2.52206
1.84509
0.454481
0.207822
0.121268
0.174097
0.0335614
0.0332742
0.0386653
0.0487206
0.0672534
0.0760047
0.242594
0.363812
0.39009
0.443113
0.546216
0.561508
0.248937
0.923078
0.811296
1.62577
6.116
5.01781
4.11354
3.18108
2.55261
2.35116
2.68746
1.72321
0.312622
0.113421
0.0607596
0.172362
0.0137956
0.036433
0.0347449
0.0364801
0.098662
0.176167
0.280238
0.304841
0.330225
0.389386
0.491894
0.561473
0.261606
0.824424
0.837006
1.58613
6.04137
5.00852
4.09577
3.15726
2.55852
2.43027
2.75887
1.48444
0.223025
0.0757536
0.025994
0.125319
0.0255866
0.0726758
0.105466
0.163552
0.274472
0.25997
0.267348
0.258682
0.286521
0.348654
0.450082
0.531233
0.240164
0.779768
0.784118
1.68467
6.00965
5.02322
4.08755
3.14544
2.58812
2.60746
2.81632
1.07304
0.109107
0.0487727
0.0204115
0.117018
0.148376
0.187266
0.20278
0.226345
0.304528
0.325728
0.274969
0.225224
0.246797
0.309823
0.410205
0.476413
0.274021
0.791041
0.797759
1.6487
6.019
5.0541
4.09455
3.15342
2.67022
2.71292
2.62638
0.484975
0.1036
0.157381
0.0242548
0.226878
0.150505
0.272184
0.213413
0.229428
0.374059
0.481466
0.322196
0.205898
0.219871
0.285077
0.384432
0.439153
0.378352
0.819555
0.739556
1.73436
6.06155
5.08013
4.10874
3.16294
2.79551
2.95883
2.22954
0.186294
0.187607
0.216712
0.143549
0.250655
0.18922
0.262339
0.215612
0.259801
0.363906
0.559257
0.321347
0.165041
0.179955
0.258476
0.359121
0.396409
0.441806
0.824719
0.726105
1.71509
6.11614
5.10968
4.14325
3.29165
3.16588
3.26687
1.58152
0.119949
0.188522
0.215916
0.219413
0.201841
0.19599
0.185978
0.188071
0.184963
0.151089
0.135345
0.11184
0.11034
0.156406
0.245096
0.345735
0.342699
0.42256
0.805448
0.690178
1.80295
6.25242
5.18973
4.27209
3.58382
3.58112
3.10588
0.275913
0.0303584
0.0221455
0.0338486
0.0433552
0.0367643
0.0389391
0.0312554
0.0328427
0.0340137
0.0312776
0.0376654
0.0714655
0.0978912
0.154619
0.239328
0.33568
0.252776
0.385234
0.758601
0.703805
1.81569
6.42111
5.2943
4.44079
3.91214
3.92143
2.84419
0.060033
0.00534544
0.0118442
0.0165142
0.0225509
0.0271625
0.024198
0.0227121
0.0243485
0.0273906
0.0361082
0.0462683
0.0693809
0.0947882
0.144741
0.228114
0.323368
0.161617
0.339117
0.690234
0.665566
1.91315
6.70593
5.53227
4.71459
4.24122
4.1895
2.65723
0.0289466
0.00316235
0.00196969
0.00399637
0.00749457
0.0152575
0.0133581
0.0119708
0.0133256
0.0163332
0.0256472
0.0360398
0.0604476
0.0893671
0.140966
0.220133
0.309586
0.133051
0.308312
0.609594
0.670507
1.93687
6.86144
5.71649
4.94049
4.51077
4.33608
2.37099
0.0251803
0.0030554
0.00324765
0.00278313
0.00563061
0.0203265
0.0191567
0.017843
0.0191451
0.0221909
0.0299377
0.0390724
0.0587827
0.0853506
0.129118
0.201542
0.281778
0.129155
0.286672
0.558327
0.643048
2.03731
7.11309
6.05655
5.23802
4.77382
4.39186
1.96486
0.0212832
0.00355177
0.00531352
0.0025841
0.00257074
0.0167611
0.0164958
0.0154508
0.0164264
0.0196457
0.0263666
0.0346761
0.05093
0.0740538
0.111182
0.168044
0.225241
0.116652
0.24945
0.54251
0.635664
2.03839
7.19495
6.19654
5.38271
4.96303
4.33722
1.59433
0.0190174
0.00539378
0.0084126
0.00319857
0.00204156
0.0157194
0.015658
0.0147531
0.0152294
0.0177617
0.0221619
0.0280343
0.0385531
0.052665
0.0729445
0.102797
0.123157
0.1081
0.163102
0.530733
0.632806
2.18127
7.42883
6.44934
5.65135
5.09037
3.88011
0.301219
0.00637775
0.0151351
0.00316273
0.00640968
0.00374081
0.00760919
0.00730706
0.00703734
0.00720062
0.00797448
0.00914772
0.0104824
0.0123766
0.0144238
0.0166665
0.0182788
0.0192075
0.0729878
0.0271716
0.292959
0.614485
0.0797484
0.0424552
0.124459
0.183272
0.276767
0.342328
0.43409
0.508236
0.595
0.651765
0.695489
0.710256
0.704627
0.657448
0.585344
0.481136
0.37017
0.265956
0.183491
0.118844
0.0804088
0.0607654
0.0559938
0.0648433
0.10122
0.182245
0.184159
0.0882914
0.199218
0.543544
0.564053
0.614298
0.66361
0.725508
0.800707
0.847589
0.889787
0.927226
1.00256
1.18303
1.30394
1.27397
1.22302
1.1795
1.13535
1.07774
0.990098
0.872465
0.748517
0.669657
0.618859
0.592305
0.588267
0.528013
0.574885
0.154991
0.152918
0.216364
0.198869
0.196396
0.213257
0.237121
0.247491
0.247976
0.258103
0.315979
0.606144
1.31013
1.25207
1.16828
1.10644
1.01863
0.909879
0.750564
0.603326
0.470835
0.363026
0.298898
0.270959
0.236102
0.266502
0.416023
0.726222
0.150256
0.0991517
0.0740015
0.0666486
0.0742639
0.067012
0.061682
0.0551768
0.0528518
0.0569319
0.0792451
0.160743
0.466771
0.92626
0.867504
0.751639
0.637633
0.575944
0.556514
0.448192
0.303902
0.217627
0.175304
0.152883
0.148711
0.155214
0.309646
0.692876
0.236939
0.0642341
0.307841
0.0540295
0.0494436
0.0432792
0.0369637
0.0302209
0.0280071
0.0295711
0.0406522
0.0802751
0.226113
0.529428
0.465267
0.366545
0.297659
0.207135
0.142837
0.165748
0.250094
0.347103
0.332772
0.160171
0.0936023
0.10374
0.213343
0.615785
0.254535
0.14085
1.58552
0.237311
0.0457786
0.0384197
0.030977
0.0240457
0.0215954
0.0213219
0.0247754
0.0390268
0.113483
0.319742
0.171921
0.0722054
0.0388373
0.0291345
0.0331497
0.055622
0.18141
0.364604
0.410918
0.337572
0.113518
0.100182
0.191845
0.582589
0.266168
0.262036
2.1332
1.17847
0.304203
0.293137
0.272579
0.147312
0.0234503
0.0209317
0.0209844
0.025483
0.0525373
0.159759
0.0424553
0.00860318
0.00392826
0.00476642
0.0129999
0.0319608
0.0607867
0.325179
0.379507
0.410486
0.169054
0.0969998
0.172792
0.547052
0.269846
0.287456
2.20462
1.73202
1.20955
1.02457
0.956904
0.78046
0.214787
0.146237
0.0849742
0.0198004
0.0234325
0.0895276
0.0196612
0.00391317
0.00334857
0.00344018
0.00905749
0.0172284
0.0442784
0.267545
0.348849
0.387699
0.269014
0.116135
0.159889
0.513683
0.267645
0.407927
2.17724
1.80004
1.48366
1.17928
0.977736
0.885175
0.659243
0.528769
0.380473
0.0191826
0.0135179
0.0669153
0.0138843
0.00689062
0.00496539
0.00850493
0.0150885
0.0121112
0.0409668
0.225948
0.332079
0.367461
0.368978
0.12551
0.134423
0.491115
0.270944
0.420343
2.1444
1.7828
1.47664
1.16163
0.940992
0.837003
0.695923
0.646413
0.417317
0.0320291
0.00798555
0.0357881
0.0132873
0.0152376
0.00844539
0.00978898
0.0338481
0.0126623
0.0422985
0.19975
0.311129
0.342671
0.40553
0.139412
0.137427
0.484241
0.247938
0.48109
2.11738
1.75884
1.44683
1.13233
0.912604
0.819554
0.704101
0.72008
0.307704
0.0320278
0.0119704
0.0475741
0.0225966
0.0351994
0.0169973
0.0137451
0.0405171
0.0209795
0.0455861
0.184541
0.291646
0.321984
0.38978
0.256969
0.0940965
0.476962
0.237502
0.487612
2.08974
1.73375
1.42194
1.11197
0.900443
0.819044
0.739378
0.689263
0.424306
0.102729
0.0790617
0.0669051
0.0292747
0.0377827
0.0237259
0.0231013
0.0481355
0.0366246
0.0522002
0.176218
0.269342
0.293976
0.357794
0.340532
0.0928487
0.460702
0.241134
0.519964
2.06062
1.71128
1.40547
1.10221
0.898194
0.821749
0.769074
0.664008
0.279623
0.152942
0.0953855
0.122134
0.0410946
0.0400328
0.0413912
0.0422846
0.0584472
0.0643356
0.0646317
0.222275
0.242863
0.269258
0.333577
0.350386
0.107528
0.42716
0.241112
0.533529
2.03753
1.69424
1.39643
1.09505
0.899064
0.828151
0.821384
0.662639
0.298834
0.13067
0.100836
0.218929
0.0339857
0.0422281
0.032134
0.0327496
0.067316
0.0818791
0.134775
0.213074
0.20796
0.236392
0.302136
0.342242
0.125838
0.388992
0.257565
0.532472
2.01673
1.68452
1.38897
1.08886
0.898633
0.827728
0.868308
0.656185
0.212905
0.121057
0.0632915
0.261051
0.0325322
0.046243
0.0456281
0.0498638
0.0947884
0.164615
0.215769
0.170263
0.175182
0.211043
0.278781
0.335041
0.14033
0.346107
0.266267
0.552899
1.98665
1.68189
1.38507
1.0843
0.899086
0.832685
0.928014
0.623181
0.211434
0.0923064
0.0351132
0.237247
0.0129789
0.0765676
0.0446465
0.0459158
0.191138
0.21954
0.19129
0.139706
0.14539
0.185044
0.252112
0.309365
0.150558
0.298164
0.273205
0.551609
1.96379
1.684
1.37954
1.07699
0.899384
0.844106
0.963986
0.552174
0.198091
0.096499
0.0189203
0.204012
0.031415
0.15331
0.127133
0.170813
0.29589
0.256395
0.178658
0.119612
0.127348
0.168486
0.235558
0.285387
0.166028
0.272891
0.251149
0.570329
1.96198
1.6871
1.37256
1.0728
0.903484
0.903299
0.985025
0.415149
0.175976
0.122546
0.0251316
0.203484
0.174993
0.185501
0.222011
0.246422
0.303253
0.324006
0.181808
0.105217
0.110529
0.153257
0.219036
0.258983
0.214817
0.281053
0.251326
0.563647
1.96824
1.68722
1.37382
1.07704
0.923711
0.925517
0.918022
0.197805
0.157911
0.201721
0.0243285
0.258261
0.140731
0.291854
0.206548
0.221558
0.403708
0.488118
0.209988
0.0977332
0.0991903
0.144479
0.209706
0.240517
0.27073
0.314738
0.224156
0.596039
1.97601
1.67892
1.37625
1.07292
0.947128
0.972231
0.747887
0.0905853
0.175119
0.225335
0.131992
0.26554
0.179911
0.279547
0.210829
0.267162
0.419364
0.658792
0.196949
0.0735438
0.0850632
0.137288
0.201528
0.214109
0.275504
0.351253
0.228148
0.589329
1.9843
1.67606
1.37839
1.09999
1.03455
1.04401
0.542481
0.0922356
0.150121
0.180403
0.195639
0.177347
0.179615
0.161869
0.164898
0.151059
0.11665
0.102224
0.0566397
0.0537926
0.0805147
0.135581
0.198705
0.180884
0.25281
0.374724
0.193096
0.626144
2.02899
1.69686
1.40817
1.17628
1.14765
0.976764
0.130839
0.0188296
0.0122076
0.0192683
0.0241548
0.0213918
0.0222467
0.0180163
0.0189164
0.0191077
0.0189643
0.0234704
0.0367652
0.0507482
0.0831534
0.134304
0.193214
0.132986
0.229327
0.374712
0.177442
0.627313
2.09296
1.74152
1.45823
1.27857
1.25877
0.869787
0.0381178
0.00424321
0.00420708
0.00608966
0.0091419
0.0116454
0.0106008
0.00983473
0.0109015
0.012587
0.0168314
0.0218622
0.0336212
0.0492955
0.078741
0.127826
0.183786
0.101486
0.202775
0.353123
0.17016
0.663155
2.1756
1.83077
1.54525
1.38967
1.36512
0.832991
0.0258361
0.00386374
0.0019355
0.00245721
0.00441864
0.00922603
0.00847891
0.00791635
0.00875631
0.0106296
0.0152159
0.020582
0.0322936
0.0483886
0.0768215
0.121333
0.170418
0.0905128
0.183779
0.324696
0.145547
0.663425
2.20934
1.89343
1.62317
1.4827
1.42964
0.777339
0.0211047
0.004276
0.00270448
0.00199066
0.00331523
0.00997434
0.0095737
0.00908292
0.00978947
0.011599
0.0154669
0.0201525
0.0298747
0.0439919
0.066945
0.10493
0.142427
0.0851554
0.164207
0.300956
0.140545
0.703531
2.27207
1.99335
1.72525
1.58142
1.47875
0.678972
0.0171797
0.00916012
0.00477457
0.00229625
0.00249691
0.00870931
0.00863419
0.00826599
0.00873688
0.0105434
0.0136751
0.0177336
0.0250746
0.0356528
0.0526468
0.0782678
0.0959646
0.0712582
0.128246
0.281888
0.126931
0.710635
2.31015
2.03145
1.77929
1.65924
1.47712
0.572805
0.0209789
0.014964
0.00652153
0.00251901
0.00230741
0.00739
0.00718272
0.00691766
0.00715191
0.00832149
0.0100291
0.012319
0.0160926
0.0209187
0.0274386
0.0364962
0.0373354
0.0561747
0.0667332
0.208514
0.116386
0.744925
2.40837
2.10137
1.87599
1.71229
1.32352
0.151886
0.019491
0.00964075
0.00385652
0.0033394
0.00282952
0.00356017
0.00335808
0.00333946
0.0034457
0.00373514
0.00407273
0.00442397
0.00478524
0.00520605
0.00594898
0.00641862
0.00703403
0.0208732
0.0114832
0.129027
0.0944329
0.056821
0.0291572
0.0601563
0.078418
0.107592
0.127872
0.15563
0.177245
0.200638
0.214158
0.220805
0.219928
0.212131
0.192532
0.169271
0.140041
0.113848
0.090672
0.0731085
0.0586761
0.0498663
0.0446001
0.0422711
0.0428434
0.0470803
0.0594024
0.0570816
0.0454985
0.0880018
0.152134
0.167832
0.193683
0.220044
0.255861
0.312803
0.364491
0.407072
0.441764
0.490497
0.547029
0.60951
0.698452
0.804043
0.910929
0.974702
0.948321
0.830819
0.690925
0.625525
0.599148
0.541786
0.462235
0.384315
0.311175
0.244276
0.0763063
0.076126
0.112881
0.117417
0.12691
0.139793
0.149225
0.155773
0.16208
0.180879
0.238526
0.432989
0.704799
0.685687
0.645661
0.608127
0.511905
0.435958
0.37672
0.352863
0.344013
0.344367
0.345606
0.306023
0.219304
0.150554
0.203032
0.318412
0.0797315
0.0599119
0.0554229
0.0532302
0.0517183
0.0450725
0.0427821
0.040978
0.0415236
0.0480379
0.0681367
0.123402
0.271762
0.399388
0.379432
0.351778
0.327781
0.314693
0.280457
0.241142
0.235029
0.263782
0.273872
0.185643
0.13797
0.107486
0.140309
0.290572
0.0901937
0.0398035
0.100873
0.0404004
0.0379248
0.0319957
0.0271966
0.0222314
0.0202505
0.0225277
0.0320885
0.0605773
0.148177
0.255021
0.222839
0.201323
0.158232
0.106236
0.0939436
0.127432
0.230996
0.300439
0.334596
0.300666
0.129038
0.0892499
0.112241
0.251837
0.090051
0.0657585
0.590901
0.0773846
0.0318829
0.0265658
0.0206077
0.0165676
0.0154457
0.0162776
0.0202954
0.0316774
0.0710645
0.139528
0.0825524
0.0376115
0.0198979
0.0164186
0.0190112
0.0311885
0.0981749
0.244136
0.271435
0.3057
0.164844
0.0876018
0.102941
0.238725
0.0905954
0.0948047
0.995001
0.444128
0.0933893
0.0815305
0.0663846
0.0350257
0.0155684
0.0156708
0.0174609
0.0206443