/*--------------------------------*- C++ -*----------------------------------*\
| =========                 |                                                 |
| \\      /  F ield         | OpenFOAM: The Open Source CFD Toolbox           |
|  \\    /   O peration     | Version:  2.3.0                                 |
|   \\  /    A nd           | Web:      www.OpenFOAM.org                      |
|    \\/     M anipulation  |                                                 |
\*---------------------------------------------------------------------------*/
FoamFile
{
    version     2.0;
    format      ascii;
    class       volVectorField;
    location    "4.70008";
    object      Ur;
}
// * * * * * * * * * * * * * * * * * * * * * * * * * * * * * * * * * * * * * //

dimensions      [0 1 -1 0 0 0 0];

internalField   nonuniform List<vector> 
18816
(
(0.000737549 0.00589872 0.000418685)
(0.00126064 0.0118361 -0.000621624)
(0.00122189 0.00830951 9.97362e-05)
(0.00120729 0.00821308 0.00011843)
(0.000999128 0.00731442 0.00022253)
(0.000939327 0.00717568 0.000231292)
(0.000811542 0.00693219 0.000243558)
(0.000717975 0.00689138 0.000223536)
(0.000604986 0.00680349 0.000211276)
(0.000473902 0.0064696 0.000199215)
(0.000314011 0.00610347 0.000190151)
(0.000138898 0.00579109 0.000172466)
(-4.31667e-05 0.00522759 0.00016359)
(-0.000208153 0.00465052 0.000150792)
(-0.000361833 0.00415 0.000131262)
(-0.000493372 0.00370638 0.000111774)
(-0.000589105 0.00334568 8.99876e-05)
(-0.000637883 0.00307831 7.22927e-05)
(-0.00060733 0.00294537 5.95765e-05)
(-0.000493104 0.002821 5.29774e-05)
(-0.000328726 0.00271855 5.92012e-05)
(-0.000112441 0.00266737 7.73561e-05)
(0.000114232 0.00268208 8.11882e-05)
(0.000318153 0.00263601 5.00119e-05)
(0.000449328 0.0026401 3.64994e-05)
(0.000235585 0.00306289 5.9678e-05)
(-0.000358457 0.00466488 0.000118428)
(-0.00037231 0.00644666 0.000364136)
(0.000268308 0.00728501 0.000359683)
(0.000600446 0.0122833 0.000915468)
(0.000629065 0.00919234 0.000705201)
(0.000601156 0.00914033 0.000669899)
(0.000553252 0.00830434 0.000585058)
(0.000532182 0.00819081 0.000530519)
(0.000488139 0.00804948 0.000452616)
(0.00043875 0.00803194 0.00038791)
(0.000369877 0.00779047 0.000331788)
(0.000313215 0.00737437 0.000282215)
(0.000270195 0.0069451 0.000228877)
(0.000185592 0.00665161 4.17856e-05)
(6.2864e-05 0.00582244 3.6925e-05)
(-5.63329e-06 0.0050702 2.94853e-05)
(-8.17519e-05 0.00445573 2.41555e-05)
(-0.000148643 0.00394138 1.77752e-05)
(-0.000205313 0.0036025 1.39651e-05)
(-0.000255534 0.00337339 1.22835e-05)
(-0.000302435 0.00326412 8.4495e-06)
(-0.000295061 0.00318457 5.8293e-06)
(-0.00023611 0.00311295 8.00223e-06)
(-0.000119981 0.00305157 1.56345e-05)
(6.82076e-06 0.00302626 1.5477e-05)
(0.000132189 0.00290367 1.44931e-05)
(0.000122481 0.00292856 8.14035e-06)
(-1.38341e-06 0.00338338 3.6844e-07)
(-0.000310943 0.00534079 6.47109e-05)
(-0.000257044 0.00769529 0.000255782)
(0.000441899 0.00705434 0.000117219)
(0.000567436 0.00657399 0.000755928)
(0.000325591 0.00582262 0.00056884)
(0.000366726 0.00576673 0.000526436)
(0.000332828 0.00548923 0.000438059)
(0.000303066 0.00544718 0.000401606)
(0.000266641 0.00546894 0.000361972)
(0.000241885 0.00537856 0.000325204)
(0.000215145 0.0050184 0.000282518)
(0.000163895 0.00471463 0.000276082)
(0.000133026 0.00438259 0.000529985)
(0.000168295 0.00415431 0.000369342)
(0.000112947 0.00360607 5.96803e-07)
(2.66496e-05 0.00308385 4.93853e-06)
(-1.8785e-05 0.00271833 1.67096e-07)
(-6.73116e-05 0.00248533 -2.79272e-06)
(-0.000128878 0.00241458 -6.28438e-06)
(-0.000214996 0.00237585 -8.36078e-06)
(-0.000289384 0.00239069 -8.14748e-06)
(-0.000305044 0.00239168 -5.66214e-06)
(-0.00026193 0.00238853 -4.52156e-08)
(-0.000152914 0.0023871 9.37478e-06)
(-3.38082e-05 0.00238939 1.60418e-05)
(7.08625e-05 0.00238842 1.64698e-05)
(8.62306e-05 0.00237717 1.02088e-05)
(5.64178e-06 0.00253149 2.33957e-06)
(-0.000192384 0.00387263 2.79938e-05)
(-0.000199299 0.00626005 0.000118382)
(0.000329306 0.00730727 8.4359e-05)
(0.000351892 0.0102816 -0.000669802)
(0.000197284 0.00529731 0.000106753)
(0.000278184 0.00500602 5.40025e-05)
(0.000251792 0.00482468 4.61268e-05)
(0.000233351 0.00479826 4.40105e-05)
(0.00020546 0.0047977 3.50215e-05)
(0.000191415 0.00461762 3.17085e-05)
(0.000174987 0.00428431 2.63173e-05)
(0.000152233 0.00395294 2.63367e-05)
(9.37813e-05 0.00348807 5.5462e-05)
(8.90794e-05 0.0031069 0.000368314)
(0.000103467 0.00279966 0.000138686)
(4.78556e-05 0.00247434 -9.53361e-06)
(-1.82562e-05 0.00228837 -1.37048e-05)
(-7.93919e-05 0.00222859 -2.4532e-05)
(-0.000150195 0.00225957 -3.78517e-05)
(-0.000228174 0.0023081 -5.32053e-05)
(-0.000298668 0.00234726 -6.12646e-05)
(-0.000311899 0.00236972 -6.1163e-05)
(-0.000252508 0.002377 -4.50428e-05)
(-0.000122822 0.00238174 -2.7485e-05)
(8.25209e-06 0.00237537 -1.42135e-05)
(0.000108963 0.00239075 -2.2233e-06)
(0.000103872 0.00238533 -6.12102e-06)
(6.46643e-06 0.00237403 -7.79286e-06)
(-0.000136065 0.00333581 9.90278e-06)
(-0.000120517 0.00586962 6.99079e-05)
(0.000451267 0.00683452 8.26414e-05)
(0.000725935 0.0189894 -0.0017296)
(0.000333754 0.00628955 -0.000682823)
(0.000196309 0.00507018 5.83409e-06)
(0.000202232 0.00485482 1.52617e-05)
(0.000193905 0.004805 2.08243e-05)
(0.000173922 0.00472679 2.21169e-05)
(0.000164873 0.0044336 -2.66999e-07)
(0.000148571 0.00408221 8.42027e-07)
(0.000127831 0.00366311 3.10783e-06)
(8.2347e-05 0.00304275 1.7316e-05)
(5.72461e-05 0.00251736 0.000178268)
(5.81393e-05 0.00231763 0.000112477)
(2.5302e-05 0.00219352 -9.6584e-06)
(-2.54089e-05 0.00216741 -2.10959e-05)
(-5.57957e-05 0.00221456 -3.38314e-05)
(-8.78469e-05 0.00230424 -3.53247e-05)
(-0.000168204 0.00241557 -2.69402e-05)
(-0.000267207 0.00249485 -1.82235e-05)
(-0.00030124 0.00252877 -1.05512e-05)
(-0.000258974 0.002527 -7.2621e-06)
(-0.000149283 0.00250546 -4.54029e-06)
(-1.04265e-05 0.00244613 -5.8394e-06)
(0.000104598 0.00240178 -7.09495e-06)
(8.7166e-05 0.00233396 -6.05879e-06)
(-1.25265e-07 0.00229544 -6.53843e-06)
(-7.31068e-05 0.00296942 1.17945e-05)
(-6.22504e-05 0.00544112 4.05932e-05)
(0.000280388 0.00653201 8.65803e-05)
(0.000638913 0.0235427 -0.000606517)
(0.000477859 0.0088923 -0.000987044)
(0.000217303 0.00600439 -0.000643097)
(0.000172645 0.00542613 -0.000445687)
(0.000162581 0.00522883 -0.000354049)
(0.000124679 0.00498878 -0.000261376)
(0.000124158 0.00439035 7.19844e-06)
(0.000118849 0.00399081 1.84866e-05)
(0.000102346 0.00348371 1.5168e-05)
(6.82973e-05 0.00276676 7.69248e-06)
(4.12851e-05 0.0022259 9.9493e-05)
(4.12463e-05 0.00214628 7.58343e-05)
(1.95691e-05 0.00213586 -5.8949e-06)
(-1.01462e-05 0.00217569 -4.75901e-06)
(-1.36045e-05 0.00222423 -7.54468e-07)
(-2.55625e-05 0.00228951 -5.20844e-06)
(-0.000101446 0.00235312 -1.08279e-05)
(-0.000226385 0.00245832 -1.04644e-05)
(-0.000301208 0.00250339 -5.06687e-06)
(-0.000280285 0.00252229 5.24711e-07)
(-0.00019263 0.00251361 1.90951e-06)
(-6.62865e-05 0.00246808 1.70594e-06)
(4.71625e-05 0.00238577 -5.99272e-06)
(5.80879e-05 0.00229733 -1.10765e-05)
(8.72366e-06 0.00225895 -5.07592e-06)
(-5.44178e-05 0.00277515 9.37809e-06)
(-5.27438e-05 0.00519839 2.16132e-05)
(0.000172099 0.00626885 6.17611e-05)
(0.000410489 0.0231244 -0.000126243)
(0.000496245 0.012137 -0.000474729)
(0.000376398 0.00782107 -0.000774814)
(0.000231063 0.00642849 -0.000565636)
(0.000218279 0.00595057 -0.000455709)
(0.000166697 0.00545539 -0.000436144)
(0.000106159 0.00451369 -0.000309448)
(8.57952e-05 0.00405061 -0.000206673)
(5.79378e-05 0.00341484 -0.000160155)
(4.59106e-05 0.00255046 4.12781e-06)
(3.4159e-05 0.00208987 4.60843e-05)
(2.61119e-05 0.00209021 5.00396e-05)
(1.52059e-05 0.00210189 4.9916e-06)
(3.07192e-06 0.00212418 1.4868e-06)
(1.3902e-05 0.00213454 -2.23926e-07)
(1.3707e-05 0.00214678 -1.80962e-06)
(-3.11221e-05 0.00216502 -4.66216e-06)
(-0.000152257 0.00226877 -7.10181e-06)
(-0.000267051 0.00236204 -5.83946e-06)
(-0.000266161 0.00241408 5.61649e-06)
(-0.000206222 0.00243261 -7.08355e-07)
(-0.000121068 0.00242095 -1.84577e-06)
(-2.38949e-05 0.0023568 -1.1645e-06)
(2.28573e-05 0.00228089 -4.35974e-06)
(1.13285e-05 0.00222746 2.15496e-06)
(-3.06604e-05 0.00264968 9.65641e-06)
(-3.78207e-05 0.00503575 1.1327e-05)
(0.000117606 0.00606993 4.83409e-05)
(0.000290267 0.0228409 -2.87636e-05)
(0.000374609 0.0140858 -0.00013185)
(0.000335917 0.00978285 -0.000329707)
(0.000236285 0.00747759 -0.000228273)
(0.000206684 0.00666318 -0.000166736)
(0.000177536 0.00588094 -0.000158028)
(0.000162911 0.0048206 -0.00030465)
(9.95322e-05 0.00423255 -0.000256664)
(4.998e-05 0.0034044 -0.000234195)
(3.18795e-05 0.00241202 -3.33051e-05)
(2.62407e-05 0.00205496 1.6274e-05)
(1.95427e-05 0.00205512 2.36192e-05)
(1.04896e-05 0.00207048 5.43812e-07)
(3.32112e-06 0.00207154 -4.75767e-07)
(8.90768e-06 0.00206447 -5.75907e-07)
(1.00793e-05 0.00207669 -1.26727e-06)
(6.67483e-06 0.00199875 -1.53304e-06)
(-7.19583e-05 0.00209299 -6.27885e-06)
(-0.000192083 0.00221833 -4.93007e-06)
(-0.000230387 0.00230936 1.95066e-05)
(-0.000197196 0.00235083 -6.28917e-06)
(-0.000136677 0.0023608 -2.07933e-06)
(-5.87989e-05 0.00234218 2.47328e-08)
(-7.95792e-06 0.00228011 2.75612e-07)
(8.40272e-06 0.00223256 5.41252e-06)
(-2.5352e-05 0.00258806 9.12154e-06)
(-3.94092e-05 0.00494775 8.50707e-06)
(7.28622e-05 0.00594873 3.75625e-05)
(0.00020485 0.022556 -1.91968e-06)
(0.000258163 0.0142517 -5.39014e-05)
(0.000232375 0.0107561 -7.00756e-05)
(0.000174402 0.0079868 -4.03494e-05)
(0.000149703 0.00695325 -2.76197e-05)
(0.00010994 0.00603542 -2.7745e-05)
(0.000111825 0.00507475 -9.27841e-05)
(5.84398e-05 0.0043946 -8.57271e-05)
(1.75448e-05 0.00327501 -9.28319e-05)
(3.4338e-05 0.00226531 -2.52076e-05)
(7.50687e-06 0.00198461 1.24906e-06)
(1.06018e-05 0.00198074 6.34432e-06)
(9.50677e-06 0.00199723 -1.57658e-07)
(-1.16848e-05 0.00200625 -1.11557e-06)
(1.88982e-05 0.00202901 -1.78688e-07)
(-5.38491e-05 0.0020138 -1.29552e-06)
(-1.39697e-05 0.00209979 2.03248e-05)
(4.65726e-05 0.00203097 -7.63172e-07)
(-8.98647e-05 0.00216303 -6.04506e-06)
(-0.000158908 0.00224969 7.55127e-07)
(-0.000162387 0.00213824 1.24443e-05)
(-0.000128119 0.00231598 -2.62371e-06)
(-7.79688e-05 0.00231537 -1.34411e-06)
(-2.271e-05 0.00226575 -7.36489e-07)
(2.63061e-06 0.00221041 8.35184e-06)
(-3.04507e-05 0.00254475 1.07283e-05)
(-3.58988e-05 0.00487555 -1.21608e-06)
(5.30995e-05 0.00587967 2.94566e-05)
(0.000147015 0.0220307 8.53841e-06)
(0.000182783 0.0139468 -2.87128e-05)
(0.000166509 0.0110005 -1.9843e-05)
(0.00011349 0.00807255 -7.58515e-06)
(9.5126e-05 0.0069824 -3.75024e-06)
(5.28927e-05 0.00608095 -3.42616e-06)
(9.88766e-05 0.00518411 -1.5778e-05)
(-5.12694e-05 0.00450762 -2.81884e-05)
(-0.000113605 0.00299472 -3.52619e-05)
(2.61854e-05 0.00216768 -3.39539e-05)
(-2.51909e-06 0.00193442 -7.18942e-06)
(1.42063e-05 0.00196519 1.71488e-06)
(1.65242e-05 0.00199039 1.16818e-06)
(2.64535e-05 0.00202344 1.10687e-06)
(1.18065e-05 0.00205939 3.12428e-07)
(7.11482e-05 0.00204985 2.47248e-07)
(2.25964e-05 0.0021755 -1.56933e-05)
(-1.06675e-05 0.00212205 3.42343e-06)
(-5.74322e-06 0.00217663 -6.45041e-06)
(-0.000114402 0.00223294 -5.56315e-06)
(-7.51886e-05 0.00148851 0.000474004)
(-0.000113284 0.00228349 -8.45684e-06)
(-8.79895e-05 0.00228862 -1.40104e-06)
(-4.91436e-05 0.00225331 -1.0703e-05)
(4.25876e-06 0.00215034 -5.53025e-06)
(-2.49093e-05 0.00253803 8.47223e-06)
(-4.98508e-05 0.00484411 -3.40987e-06)
(3.20016e-05 0.00584479 2.24046e-05)
(9.77162e-05 0.0210821 1.61724e-05)
(0.000124229 0.0139283 -1.42315e-05)
(0.000118378 0.0110964 -5.54356e-06)
(7.74681e-05 0.00803418 -6.65871e-07)
(7.74232e-05 0.00694162 8.5547e-08)
(3.38809e-05 0.00607101 -2.40382e-06)
(0.000124466 0.00517877 -1.56848e-05)
(-0.000207298 0.00433448 -3.82888e-05)
(-0.000298481 0.00291164 9.39752e-06)
(5.0306e-05 0.0021955 -8.85232e-05)
(6.49778e-06 0.0019804 -4.2166e-05)
(5.09665e-05 0.00198866 -2.52304e-06)
(5.5541e-05 0.00200772 -1.3065e-06)
(5.61633e-05 0.00203679 1.03399e-07)
(4.21672e-05 0.00204217 1.79336e-07)
(5.66262e-05 0.00208149 -1.76778e-06)
(5.9369e-05 0.00205103 -1.92874e-06)
(4.56552e-05 0.00211545 -2.97119e-06)
(-7.41014e-06 0.00214459 -8.25984e-06)
(-7.51186e-05 0.00220632 -9.81589e-06)
(3.5047e-06 0.000663824 0.000454913)
(-8.71405e-05 0.00225889 -1.86517e-05)
(-9.26936e-05 0.00227405 -3.42973e-06)
(-8.75133e-05 0.00225641 -6.86498e-06)
(1.88313e-05 0.0021511 -1.77351e-05)
(8.9455e-06 0.00252888 5.85374e-06)
(-6.23627e-05 0.00483999 3.59168e-06)
(2.15227e-05 0.00582027 1.78514e-05)
(6.2163e-05 0.0204548 2.43043e-05)
(7.39264e-05 0.0143639 -2.50383e-06)
(7.30565e-05 0.0111357 -1.98164e-07)
(4.70074e-05 0.00801173 1.82853e-06)
(4.1147e-05 0.00690293 1.2068e-06)
(2.33891e-05 0.00607305 -1.42357e-06)
(4.43886e-05 0.0051643 -1.91133e-05)
(-0.000104145 0.00407898 -2.90196e-05)
(-0.000215424 0.00281379 -8.2149e-06)
(-6.80304e-05 0.00222114 -6.96822e-05)
(-2.16598e-05 0.00204471 -3.84718e-05)
(2.71002e-05 0.00201118 -1.5516e-06)
(6.10446e-05 0.00203361 -5.13252e-07)
(6.00673e-05 0.00203042 4.15155e-07)
(5.82264e-05 0.00203739 1.68843e-06)
(7.95577e-05 0.00205731 2.07075e-06)
(5.95796e-05 0.00206006 3.58512e-07)
(7.96063e-05 0.00206956 -1.41548e-07)
(4.57999e-05 0.00212509 -1.09069e-05)
(-4.86699e-05 0.00218695 -1.38343e-05)
(4.95609e-05 0.000296092 0.000242677)
(-7.15385e-05 0.00224163 -3.08554e-05)
(-8.08248e-05 0.00226376 -3.73966e-06)
(-7.71653e-05 0.00227538 1.3568e-06)
(2.55361e-05 0.00226945 -2.82308e-06)
(-7.79214e-07 0.00250446 4.15834e-06)
(-6.92563e-05 0.00482935 1.93317e-05)
(1.36326e-05 0.00580399 1.33508e-05)
(4.02477e-05 0.0204157 2.98681e-05)
(3.41774e-05 0.014983 4.78845e-06)
(4.26031e-05 0.0111068 2.07836e-06)
(2.63753e-05 0.00799999 2.44594e-06)
(2.71949e-05 0.00686749 1.05079e-06)
(8.43214e-06 0.0061071 -2.75925e-06)
(1.38921e-05 0.00516144 -2.07129e-05)
(-0.000110517 0.00389511 -3.12481e-05)
(-0.000232202 0.00251923 -5.19605e-06)
(-7.81259e-05 0.00213904 -1.43057e-05)
(-2.87518e-05 0.0020365 -5.05254e-06)
(2.65328e-05 0.00202226 -4.49127e-06)
(7.44705e-05 0.00205404 1.4605e-08)
(5.71714e-05 0.00202769 -2.51055e-07)
(7.37504e-05 0.00204283 -2.67178e-07)
(7.52724e-05 0.00205051 -6.80575e-07)
(7.02588e-05 0.00204215 -4.45919e-07)
(0.000108463 0.0020719 -2.54684e-06)
(6.83524e-05 0.0021376 -1.54759e-05)
(-3.0826e-05 0.00216936 -1.67483e-05)
(5.5609e-06 0.000243338 5.61345e-06)
(-5.57834e-05 0.00189356 -5.54562e-05)
(-5.48494e-05 0.00224416 -5.46434e-06)
(-3.80186e-05 0.00226263 -5.36819e-07)
(3.83088e-05 0.00226514 1.13824e-06)
(-2.13588e-05 0.00244505 1.05667e-06)
(-7.35661e-05 0.00476277 2.02591e-05)
(5.5776e-06 0.00580292 1.14587e-05)
(2.17443e-05 0.0199081 2.9157e-05)
(1.02403e-05 0.0153471 5.95085e-06)
(1.66859e-05 0.0110042 2.57935e-06)
(9.9654e-06 0.00798686 3.24285e-06)
(1.48053e-05 0.00683471 9.08719e-07)
(-6.18734e-07 0.00613556 -3.7996e-06)
(-1.10822e-05 0.00516093 -2.4586e-05)
(-0.000159006 0.00361455 -3.40294e-05)
(-0.000268553 0.00235761 -6.18609e-06)
(-8.23345e-05 0.00208384 6.09536e-07)
(-3.9927e-05 0.00204132 2.382e-06)
(3.04725e-05 0.00209457 5.33155e-07)
(7.95065e-05 0.00204178 4.94443e-08)
(4.90884e-05 0.00201167 -6.29492e-07)
(8.26712e-05 0.00200407 -9.86403e-07)
(7.93487e-05 0.00200233 -2.03904e-06)
(8.26994e-05 0.00203098 -1.14686e-06)
(0.000164561 0.00207338 -2.71207e-06)
(0.000104111 0.00213377 -1.69299e-05)
(-2.91616e-05 0.00214097 -2.15159e-05)
(-1.56993e-05 0.000231631 -1.89871e-05)
(-2.71055e-05 0.00105115 -4.16413e-05)
(-2.87573e-05 0.0022145 -8.63737e-06)
(-7.70985e-06 0.00222318 -3.45078e-06)
(5.48605e-05 0.00220127 4.76623e-07)
(-4.00221e-05 0.00234777 -2.17879e-06)
(-8.5279e-05 0.00461234 1.62526e-05)
(1.26141e-06 0.00581212 1.00351e-05)
(7.82719e-06 0.0187496 2.68317e-05)
(-2.22807e-06 0.0151537 1.4582e-06)
(-2.33152e-06 0.0108448 1.66682e-06)
(-4.1367e-06 0.00797181 2.92166e-06)
(7.01267e-06 0.00682262 1.30847e-07)
(-7.37592e-06 0.00617054 -7.06262e-06)
(-4.36149e-05 0.00512299 -3.18992e-05)
(-0.000162204 0.00330996 -4.22935e-05)
(-0.00024275 0.00221537 -1.11318e-05)
(-8.85103e-05 0.00207148 -2.77734e-06)
(-3.4846e-05 0.00208214 2.6457e-06)
(4.4273e-06 0.00215724 1.89176e-06)
(3.60203e-05 0.00207083 2.68947e-07)
(3.15878e-05 0.0020509 -1.70516e-06)
(7.2218e-05 0.0020567 -1.06732e-06)
(9.89436e-05 0.00207386 -1.88586e-06)
(0.000138608 0.00209565 -8.84113e-07)
(0.000195402 0.00215666 8.87262e-08)
(0.00010234 0.00212405 -1.18061e-05)
(-2.12934e-05 0.00213348 -2.47434e-05)
(-1.13766e-05 0.000217714 -3.58138e-06)
(-1.46109e-05 0.000374678 -1.71088e-05)
(-2.29697e-05 0.00218333 -1.43517e-05)
(-5.64984e-06 0.00217731 -4.40659e-06)
(4.63391e-05 0.00213163 1.72973e-06)
(-3.72128e-05 0.00225974 2.61517e-07)
(-6.98051e-05 0.00444504 5.2971e-06)
(3.04249e-07 0.00583173 9.59338e-06)
(-1.54582e-05 0.0181715 2.88675e-05)
(-3.10502e-05 0.0145614 -2.0536e-06)
(-1.96248e-05 0.0107239 1.77308e-06)
(-1.85946e-05 0.00795625 2.99811e-06)
(-7.1145e-06 0.00681202 -4.39831e-07)
(-3.40265e-05 0.00623063 -8.71428e-06)
(-7.04306e-05 0.00502586 -3.72293e-05)
(-0.000172175 0.00294872 -3.5272e-05)
(-0.000244299 0.00205763 -1.78521e-05)
(-7.64199e-05 0.00207111 -4.71267e-06)
(-6.86968e-06 0.00202503 -2.03701e-06)
(-6.13591e-06 0.00213923 1.14509e-06)
(5.1778e-06 0.00203705 -3.86229e-06)
(4.27748e-05 0.00213215 3.32473e-07)
(0.000112977 0.00209207 6.53768e-07)
(0.000118803 0.00212199 -2.1913e-06)
(0.000162802 0.00216978 -1.69639e-06)
(0.000182369 0.0021415 2.37175e-06)
(5.15164e-05 0.00212009 3.04575e-06)
(-1.65737e-05 0.00166672 -1.72361e-05)
(-4.00811e-06 0.00017439 -3.48376e-07)
(-8.72482e-06 0.000125427 -5.3026e-06)
(-2.73983e-05 0.00216611 -2.89959e-05)
(-1.86405e-05 0.00215094 -3.62298e-06)
(2.89217e-06 0.00209479 1.15248e-06)
(-1.31094e-05 0.00224322 5.20959e-06)
(-9.02233e-06 0.00436957 -8.29787e-06)
(1.77691e-06 0.00585864 1.00875e-05)
(-2.03059e-05 0.0182404 2.6424e-05)
(-5.28395e-05 0.0139713 -4.33828e-06)
(-4.18495e-05 0.0106788 1.85301e-06)
(-3.72966e-05 0.00792859 2.52893e-06)
(-6.87996e-06 0.00679589 -2.69188e-06)
(-7.03236e-05 0.00625797 -1.55755e-05)
(-0.000151599 0.00480867 -4.60733e-05)
(-0.000228763 0.00251088 -2.98381e-05)
(-0.000223606 0.00207367 -2.18407e-05)
(-8.71789e-05 0.00210508 -7.16877e-06)
(7.85137e-06 0.00206404 1.976e-06)
(-7.81968e-06 0.00213397 3.00308e-07)
(1.98177e-05 0.00212838 5.75505e-06)
(7.97086e-05 0.00216845 3.43647e-06)
(6.75666e-05 0.00215107 3.58711e-06)
(0.00018103 0.00213381 4.17806e-06)
(0.000163022 0.00214557 5.68483e-06)
(0.000141498 0.00213772 8.1691e-06)
(7.54667e-05 0.00165845 2.7653e-05)
(-1.12109e-05 0.000660245 -9.99565e-07)
(-4.47178e-07 0.000101621 -1.55888e-08)
(-4.70681e-06 5.96281e-05 -7.9108e-07)
(-3.84414e-05 0.00204152 -6.27753e-05)
(-4.47112e-05 0.0021589 -3.65027e-06)
(-5.27227e-05 0.00210244 -2.6554e-06)
(2.28629e-05 0.00233237 1.3081e-05)
(6.41196e-05 0.00440594 -1.00622e-05)
(-3.73001e-07 0.00588428 1.09049e-05)
(-4.60707e-05 0.0176471 1.75316e-05)
(-8.83402e-05 0.0136233 -4.46278e-06)
(-6.80142e-05 0.0107044 1.72274e-06)
(-6.55972e-05 0.00791803 1.291e-06)
(-7.08531e-05 0.00683971 -6.19112e-06)
(-0.000134041 0.006288 -2.38392e-05)
(-0.000197883 0.00444333 -5.81865e-05)
(-0.000175535 0.00218098 -2.25596e-05)
(-0.000157489 0.00221052 -2.85104e-05)
(-8.1181e-05 0.00218998 5.46222e-07)
(1.83122e-05 0.00221258 -2.55998e-09)
(2.88379e-05 0.00216843 1.16366e-06)
(2.46253e-05 0.00225782 2.36676e-06)
(7.36287e-05 0.00215306 8.6394e-06)
(8.45559e-05 0.00222567 4.09157e-06)
(0.000116229 0.00213329 7.12288e-06)
(0.000167578 0.0016735 2.74976e-05)
(0.000125972 0.00169444 3.17914e-05)
(2.97795e-05 0.000687 5.96516e-06)
(-4.8121e-07 0.000130637 1.02644e-07)
(1.10067e-06 5.79968e-05 -2.18547e-08)
(-1.4507e-06 3.79469e-05 2.51692e-08)
(-4.17395e-05 0.00143075 -0.00012769)
(-5.52238e-05 0.00218879 -6.07271e-06)
(-7.55217e-05 0.0021497 -5.87298e-06)
(4.44908e-05 0.00244004 1.68071e-05)
(9.85815e-05 0.00450607 -7.74105e-06)
(8.46107e-06 0.00590566 1.43834e-05)
(-4.52188e-05 0.0166285 9.4723e-06)
(-8.63674e-05 0.0136765 -1.98607e-06)
(-8.25976e-05 0.010745 -1.23348e-06)
(-8.51122e-05 0.00789576 -4.60165e-06)
(-0.000129335 0.006888 -1.5988e-05)
(-0.000210466 0.00627968 -2.65067e-05)
(-0.000237115 0.00386034 -4.18948e-05)
(-0.000130319 0.00203161 -5.68325e-06)
(-7.6164e-05 0.0021198 -1.23156e-05)
(-6.45095e-05 0.00218061 5.11543e-06)
(5.54653e-06 0.00215568 2.51942e-06)
(2.97762e-05 0.00215853 6.3555e-06)
(9.17145e-07 0.00210421 1.27973e-05)
(4.86375e-05 0.00167014 3.55097e-05)
(0.000114084 0.00163506 3.88714e-05)
(4.77041e-05 0.00148066 6.69788e-05)
(2.14705e-05 0.000727283 8.40536e-06)
(2.41592e-05 0.00064005 9.36925e-07)
(3.24307e-06 0.000150772 -4.52659e-07)
(-1.27497e-06 8.8641e-05 -6.87267e-10)
(2.15805e-06 4.47169e-05 1.00359e-08)
(1.21027e-06 1.84218e-05 8.47801e-08)
(-1.57225e-05 0.000557837 -1.19795e-05)
(-4.54629e-05 0.00222702 -1.32877e-05)
(-6.5748e-05 0.00220145 -6.00202e-06)
(3.82569e-05 0.00248522 1.45127e-05)
(7.33791e-05 0.00459383 -6.07902e-06)
(9.74068e-06 0.005922 1.4805e-05)
(-7.80719e-05 0.0165886 1.16397e-05)
(-0.000144456 0.0143434 3.45642e-06)
(-0.000139864 0.0107715 -5.0271e-06)
(-0.00013701 0.00792599 -7.3681e-06)
(-0.00019739 0.00705457 -2.35016e-05)
(-0.00026388 0.0061918 -3.5375e-05)
(-0.000285045 0.0031241 -2.71127e-05)
(-0.000179869 0.00222771 -2.19159e-05)
(-8.34606e-07 0.00214125 1.72635e-05)
(-3.43423e-05 0.00219104 1.52715e-05)
(7.16511e-06 0.00214914 1.80066e-05)
(1.63e-05 0.0021481 3.61825e-05)
(-9.57076e-06 0.00155588 9.35234e-05)
(1.87713e-05 0.000665763 1.76409e-05)
(4.36358e-06 0.000574312 4.60723e-06)
(3.97936e-06 0.00046147 6.94334e-07)
(4.88039e-06 0.000165006 2.58069e-07)
(1.24014e-05 9.20647e-05 2.25028e-07)
(6.54435e-06 9.78051e-05 -2.5349e-07)
(-1.23055e-06 6.85058e-05 -8.5487e-08)
(2.32479e-06 3.17208e-05 2.28722e-08)
(2.51642e-06 7.9564e-06 2.22911e-08)
(-7.16974e-06 0.000145946 -2.21449e-07)
(-3.63527e-05 0.00179391 -3.74279e-05)
(-4.64216e-05 0.002241 -1.08395e-06)
(2.35771e-05 0.00248105 1.04536e-05)
(4.03302e-05 0.00465261 -5.4736e-06)
(2.3108e-05 0.00594547 2.17184e-05)
(-6.75485e-05 0.017464 1.44039e-05)
(-0.000138079 0.0153554 3.2013e-06)
(-0.000107484 0.0107949 -9.4298e-06)
(-7.7184e-05 0.00804334 -1.97521e-05)
(-6.17717e-05 0.00724672 -2.86352e-05)
(-0.000146873 0.00582941 -6.00008e-06)
(-0.000147412 0.00259899 0.000140085)
(-0.000126688 0.00253002 -1.91123e-05)
(-9.82343e-05 0.00255702 8.36681e-05)
(-4.94989e-05 0.00254376 7.73889e-05)
(-3.661e-05 0.00257416 7.39989e-05)
(-8.42235e-06 0.0025206 8.79354e-05)
(-1.20603e-05 0.00124206 9.1671e-06)
(-3.53827e-06 0.000559891 4.8765e-06)
(-3.66654e-06 0.000500638 3.76037e-06)
(-6.37616e-07 0.000499908 1.87036e-06)
(2.98148e-07 0.000338122 2.98979e-06)
(9.51105e-06 0.000191392 1.34864e-06)
(1.0413e-05 9.5767e-05 3.30154e-07)
(2.26046e-06 4.81435e-05 9.45455e-09)
(2.32039e-06 1.73711e-05 9.106e-08)
(2.95313e-06 2.28916e-06 -3.84721e-08)
(5.56757e-06 4.73696e-05 1.85689e-07)
(-7.11147e-06 0.000750953 9.7207e-06)
(-1.80059e-05 0.00229207 1.57582e-06)
(1.07392e-05 0.00246334 6.35459e-06)
(1.83493e-05 0.00469444 -2.91996e-06)
(3.8286e-05 0.00597137 2.40131e-05)
(-5.14482e-05 0.0176482 -1.92612e-06)
(-0.000101442 0.0156498 -6.55464e-06)
(-3.2699e-05 0.0107094 -1.4407e-05)
(-2.03806e-05 0.00807348 -2.23604e-05)
(5.31923e-05 0.00720806 -2.5189e-05)
(1.94496e-05 0.00495942 -7.96198e-05)
(7.0504e-06 0.00229425 0.000173363)
(5.18701e-05 0.00236125 5.59545e-06)
(2.184e-05 0.0024329 -1.12376e-05)
(-1.60415e-05 0.00244562 -1.19519e-05)
(-1.65353e-05 0.00247387 -1.05589e-05)
(-1.33165e-05 0.00247035 -1.54966e-05)
(-9.46879e-06 0.00160677 -7.78015e-06)
(-3.88827e-06 0.000854296 -7.2645e-06)
(-3.26828e-07 0.00080044 -6.41701e-06)
(4.65394e-06 0.000833639 -5.2216e-06)
(7.05312e-06 0.000489646 -1.87278e-06)
(1.85842e-06 0.00025427 -2.1505e-07)
(4.88144e-08 8.23026e-05 -2.12102e-08)
(8.16143e-07 2.3156e-05 2.31408e-08)
(2.1774e-06 5.20359e-06 5.68064e-08)
(3.70006e-06 -1.34678e-06 -1.26575e-08)
(5.22447e-06 -2.68202e-06 1.53792e-07)
(-1.88341e-06 0.000128455 2.39041e-05)
(-7.48999e-06 0.00234026 -5.20231e-07)
(1.5944e-06 0.00240242 3.13474e-06)
(1.82253e-07 0.00472537 -8.23591e-07)
(3.71233e-05 0.00599165 2.94293e-05)
(-2.76688e-05 0.0167858 -1.78776e-05)
(-5.25663e-05 0.0147953 -2.50803e-05)
(2.74808e-05 0.0106243 -2.04894e-05)
(4.66559e-05 0.00807529 -2.12626e-05)
(3.7828e-05 0.007105 -2.15724e-05)
(-2.69397e-05 0.0041837 -8.63515e-05)
(-5.08845e-05 0.00227452 -4.78283e-05)
(-2.8571e-05 0.00227324 1.12988e-05)
(-1.62386e-05 0.0022394 7.29297e-06)
(-1.20814e-05 0.00224167 2.63589e-06)
(-1.32855e-05 0.00224487 2.77207e-06)
(-1.10874e-05 0.00224735 2.41114e-06)
(-8.8627e-06 0.00215829 1.16385e-05)
(-1.53955e-06 0.000458607 3.8392e-07)
(1.46746e-07 0.000425624 1.22803e-07)
(8.87267e-07 0.000401088 3.06648e-08)
(1.16527e-06 0.000220762 4.334e-08)
(7.58875e-07 0.00010752 3.18967e-08)
(7.70265e-07 3.12521e-05 3.67205e-08)
(9.46119e-07 5.01824e-06 -9.18179e-10)
(1.28653e-06 -1.24574e-06 7.27514e-09)
(2.983e-06 -3.6962e-06 -4.15658e-08)
(2.8067e-06 -5.24614e-06 2.00557e-07)
(-7.13869e-08 5.46772e-05 1.93007e-05)
(-8.06712e-07 0.00241091 1.18091e-05)
(-4.42724e-06 0.00231008 9.44717e-08)
(-1.29862e-05 0.00474402 1.96065e-06)
(4.38674e-05 0.0060132 2.99843e-05)
(4.45604e-06 0.0163249 -1.48132e-05)
(9.79146e-06 0.0135601 -3.05511e-05)
(8.64061e-05 0.0105749 -2.19235e-05)
(9.86125e-05 0.00806001 -2.00876e-05)
(8.62103e-05 0.00691323 -2.38951e-05)
(6.40622e-06 0.00354531 -5.75838e-05)
(-2.47899e-05 0.00229989 -5.90284e-05)
(4.82916e-06 0.00232019 3.35328e-06)
(-1.36644e-06 0.00232803 -1.08857e-06)
(-7.61872e-06 0.00233275 -4.7068e-07)
(-1.04942e-05 0.0023404 -1.37091e-06)
(-9.25551e-06 0.00234256 -1.31592e-06)
(-5.27289e-06 0.00234662 6.08489e-06)
(-1.87697e-06 8.4264e-05 4.61635e-07)
(-1.99811e-07 7.03329e-05 4.32771e-08)
(-7.88239e-08 4.01049e-05 2.87736e-08)
(1.29306e-07 1.97333e-05 2.31806e-08)
(1.86485e-07 8.02726e-06 2.35624e-08)
(3.4525e-07 2.39964e-06 2.33316e-08)
(5.60537e-07 -5.36037e-07 1.90085e-08)
(5.68358e-07 -2.33154e-06 -2.6298e-08)
(1.48333e-06 -3.36098e-06 -1.36266e-07)
(1.42721e-06 -8.01957e-06 2.46664e-07)
(1.73757e-06 2.74073e-05 1.05176e-05)
(-2.01997e-08 0.00254096 4.7733e-05)
(-1.09196e-05 0.00226816 -1.44601e-06)
(-1.5686e-05 0.00474465 3.36151e-06)
(4.40225e-05 0.00602576 3.25107e-05)
(2.09791e-05 0.0171809 -1.48256e-06)
(4.45175e-05 0.0128761 -2.90471e-05)
(0.000121929 0.0105429 -2.49565e-05)
(0.000107509 0.00802957 -1.91502e-05)
(5.05447e-05 0.00666521 -1.98779e-05)
(-3.111e-05 0.00302742 -2.99537e-05)
(-2.43651e-05 0.00229288 -5.64804e-05)
(-9.718e-06 0.00229307 2.45281e-06)
(-7.17514e-06 0.00229269 2.10968e-06)
(-3.77768e-06 0.00229082 1.38318e-06)
(-5.0241e-06 0.00229397 1.02088e-06)
(-5.792e-06 0.0022961 5.342e-07)
(-3.85477e-06 0.00229762 5.33666e-06)
(-1.20012e-06 5.96466e-06 3.51505e-07)
(-8.78746e-08 4.8883e-08 1.69745e-08)
(-1.65354e-08 -2.4027e-07 1.56815e-08)
(1.01859e-07 -4.44097e-07 9.88961e-09)
(1.82145e-07 -6.31379e-07 1.63734e-08)
(2.70063e-07 -9.89514e-07 1.24133e-08)
(3.8313e-07 -1.50549e-06 -5.18658e-09)
(3.66324e-07 -2.34108e-06 -9.12886e-09)
(1.52929e-07 -2.60221e-06 -6.84988e-09)
(-1.14457e-06 -1.00867e-05 7.0676e-08)
(3.70574e-06 1.05155e-05 5.73981e-06)
(-7.28743e-07 0.00276008 0.000110846)
(-2.24369e-05 0.0022933 -7.00161e-07)
(-3.89915e-05 0.00472751 3.9965e-06)
(4.501e-05 0.00603375 3.45749e-05)
(4.65436e-05 0.0183893 5.40821e-06)
(7.31537e-05 0.0131114 -1.71663e-05)
(0.000147933 0.0105521 -2.04918e-05)
(0.000142689 0.00800628 -2.02463e-05)
(7.2101e-05 0.00633225 -3.13996e-05)
(-2.89841e-05 0.00261819 -2.61668e-05)
(-2.76406e-05 0.00229307 -4.89099e-05)
(-6.58703e-06 0.00230505 2.27195e-06)
(-4.43399e-06 0.00230813 2.66177e-06)
(-4.51389e-06 0.00231073 1.64312e-06)
(-6.49166e-06 0.00231343 1.43346e-06)
(-6.70494e-06 0.00231521 4.43287e-08)
(-2.86462e-06 0.00232042 4.66344e-06)
(-8.84931e-07 2.88375e-06 1.80405e-07)
(4.32119e-08 -4.17466e-07 3.86879e-09)
(1.09308e-07 -5.66826e-07 7.86358e-09)
(1.41875e-07 -6.87281e-07 4.11499e-09)
(2.48307e-07 -8.60956e-07 -4.82682e-10)
(2.80015e-07 -1.10623e-06 -2.26483e-10)
(1.88662e-07 -1.36281e-06 3.47025e-11)
(-4.07029e-08 -1.72633e-06 -3.66446e-08)
(-7.3449e-07 -1.29378e-06 -1.47054e-08)
(-1.50524e-06 -9.58047e-06 -1.68829e-07)
(4.16247e-06 2.03946e-06 2.7893e-06)
(-1.14854e-05 0.00306895 0.000194497)
(-4.27657e-05 0.00228326 1.52585e-06)
(-6.56791e-05 0.00470076 7.05792e-06)
(4.08729e-05 0.00601489 3.30003e-05)
(5.51248e-05 0.0183843 -4.77712e-06)
(9.16276e-05 0.0138526 -9.58682e-06)
(0.000152343 0.0105416 -2.0735e-05)
(0.000126864 0.00792391 -2.11355e-05)
(1.39276e-05 0.00584836 -1.7488e-05)
(-5.71713e-05 0.00233486 0.000125384)
(-5.30661e-06 0.0022898 -4.37517e-05)
(-5.6323e-06 0.00229673 1.4863e-06)
(-2.06384e-06 0.00230322 -6.60631e-07)
(7.73136e-07 0.00230259 8.51814e-07)
(-2.83183e-06 0.00230466 1.59443e-06)
(-3.0808e-06 0.00231793 -4.07578e-07)
(-1.38096e-06 0.00188445 3.93173e-06)
(-3.1856e-07 6.0836e-07 2.53324e-08)
(8.73868e-08 -5.77104e-07 2.22996e-09)
(1.29482e-07 -7.02618e-07 2.09521e-09)
(1.88013e-07 -8.17866e-07 1.21043e-09)
(2.09311e-07 -9.11545e-07 -1.23692e-09)
(2.36994e-07 -1.06545e-06 -3.10221e-10)
(1.24487e-07 -1.20978e-06 -6.64021e-09)
(1.43717e-08 -1.24703e-06 -3.01063e-08)
(1.99721e-07 -1.85304e-06 4.33188e-08)
(-1.13966e-06 -3.18264e-06 -7.29416e-08)
(6.26096e-06 5.39541e-06 9.19223e-07)
(-2.01345e-05 0.00335626 0.000158928)
(-3.98416e-05 0.00215406 3.60896e-06)
(-4.72365e-05 0.00464822 4.92267e-06)
(1.65516e-05 0.00613873 2.37506e-05)
(6.76962e-05 0.0180519 8.49832e-07)
(0.000152134 0.0147105 -5.21155e-06)
(0.000154034 0.0105684 -1.58423e-05)
(0.000151131 0.00784861 -1.99583e-05)
(8.25708e-05 0.005257 -5.92985e-05)
(-4.06347e-05 0.00224995 0.000160752)
(-1.59475e-05 0.0022886 -3.1496e-06)
(-1.06131e-05 0.00229963 5.34661e-06)
(-6.33756e-07 0.00116888 2.63821e-06)
(4.01006e-06 0.00230006 5.2775e-08)
(-2.95076e-06 0.00230136 1.76025e-07)
(-3.18734e-06 0.00117836 8.6369e-06)
(-1.74939e-07 0.000729903 2.30342e-06)
(-5.64054e-08 -4.94222e-07 1.0615e-09)
(4.1332e-08 -6.59311e-07 -1.6625e-09)
(6.23905e-08 -7.80197e-07 -6.45392e-10)