/*--------------------------------*- C++ -*----------------------------------*\
| =========                 |                                                 |
| \\      /  F ield         | OpenFOAM: The Open Source CFD Toolbox           |
|  \\    /   O peration     | Version:  2.3.0                                 |
|   \\  /    A nd           | Web:      www.OpenFOAM.org                      |
|    \\/     M anipulation  |                                                 |
\*---------------------------------------------------------------------------*/
FoamFile
{
    version     2.0;
    format      ascii;
    class       surfaceScalarField;
    location    "0.08";
    object      phi;
}
// * * * * * * * * * * * * * * * * * * * * * * * * * * * * * * * * * * * * * //

dimensions      [0 3 -1 0 0 0 0];

internalField   nonuniform List<scalar> 
1024
(
2.44359e-12
5.6415e-14
2.54311e-12
-9.95269e-14
2.57785e-12
-3.4739e-14
2.61707e-12
-3.92236e-14
4.03012e-14
2.57677e-12
2.57501e-12
-1.85945e-14
2.55787e-12
-8.23878e-14
2.56189e-12
-3.87624e-14
2.58289e-12
-6.02213e-14
6.80526e-14
2.55514e-12
2.59531e-12
-1.13908e-13
2.53629e-12
-2.33618e-14
2.52366e-12
-2.61301e-14
2.53804e-12
-7.4601e-14
9.18754e-14
2.51421e-12
2.52429e-12
-1.382e-13
2.46621e-12
3.47198e-14
2.46018e-12
-2.01047e-14
2.46249e-12
-7.69107e-14
9.9343e-14
2.45503e-12
2.3618e-12
2.39652e-12
2.37642e-12
2.2995e-12
2.39885e-12
2.36657e-12
2.102e-13
2.32154e-12
4.50294e-14
2.32203e-12
-4.9067e-16
2.33102e-12
-8.98983e-15
2.33652e-12
-5.49119e-15
2.33892e-12
-2.40203e-15
2.33975e-12
-8.28928e-16
2.33996e-12
-2.0992e-16
2.34001e-12
-5.54832e-17
2.34e-12
9.24377e-18
2.34001e-12
-9.0994e-18
2.34e-12
1.62947e-17
2.34001e-12
-1.10398e-17
2.33999e-12
1.43036e-17
2.34001e-12
-1.33281e-17
2.33999e-12
1.51366e-17
2.34e-12
-1.44895e-17
2.33999e-12
1.52517e-17
2.34001e-12
-1.57637e-17
2.33999e-12
1.68139e-17
2.34001e-12
-1.64892e-17
2.33999e-12
1.69789e-17
2.34001e-12
-1.73465e-17
2.33999e-12
1.77632e-17
2.34001e-12
-1.86913e-17
2.33999e-12
1.87725e-17
2.34001e-12
-1.91497e-17
2.33999e-12
1.85996e-17
2.34001e-12
-1.92476e-17
2.33999e-12
1.94926e-17
2.34001e-12
-1.91465e-17
2.33999e-12
2.03783e-17
2.34001e-12
-1.99314e-17
2.33999e-12
1.98329e-17
2.34001e-12
-1.9568e-17
2.33999e-12
2.08095e-17
2.34001e-12
-2.15904e-17
2.33998e-12
2.2224e-17
2.34001e-12
-2.04394e-17
2.33998e-12
2.27506e-17
2.34e-12
-2.09759e-17
2.33998e-12
2.24897e-17
2.34001e-12
-2.44366e-17
2.33999e-12
1.16831e-17
-1.09191e-16
2.36167e-12
4.03674e-13
2.32279e-12
8.39038e-14
2.32626e-12
-3.95807e-15
2.33299e-12
-1.57184e-14
2.33723e-12
-9.73114e-15
2.3391e-12
-4.27402e-15
2.33975e-12
-1.47607e-15
2.33996e-12
-4.21179e-16
2.33998e-12
-7.97735e-17
2.34001e-12
-2.00362e-17
2.33999e-12
1.23524e-17
2.34001e-12
-4.90122e-18
2.33999e-12
1.24583e-17
2.34001e-12
-9.8125e-18
2.33999e-12
1.09417e-17
2.34001e-12
-1.00449e-17
2.33999e-12
1.18052e-17
2.34001e-12
-1.21902e-17
2.33999e-12
1.19318e-17
2.34001e-12
-1.11652e-17
2.33999e-12
1.25686e-17
2.34002e-12
-1.27111e-17
2.33999e-12
1.30136e-17
2.34002e-12
-1.34277e-17
2.33998e-12
1.28273e-17
2.34002e-12
-1.34306e-17
2.33998e-12
1.35614e-17
2.34002e-12
-1.49572e-17
2.33998e-12
1.44613e-17
2.34002e-12
-1.44839e-17
2.33998e-12
1.59354e-17
2.34002e-12
-1.46339e-17
2.33998e-12
1.58404e-17
2.34002e-12
-1.73225e-17
2.33998e-12
1.73037e-17
2.34002e-12
-1.64449e-17
2.33998e-12
1.38512e-17
2.34002e-12
-1.49467e-17
2.33998e-12
1.66527e-17
2.34002e-12
-1.49981e-17
2.33998e-12
1.75043e-17
2.34002e-12
-1.65407e-17
2.33998e-12
1.87784e-17
2.34001e-12
-1.57676e-17
9.11776e-17
2.34149e-12
5.76393e-13
2.32685e-12
9.85429e-14
2.33358e-12
-1.06852e-14
2.33745e-12
-1.95864e-14
2.33916e-12
-1.14402e-14
2.33974e-12
-4.85569e-15
2.33994e-12
-1.68119e-15
2.33997e-12
-4.50841e-16
2.34001e-12
-1.10346e-16
2.33999e-12
-4.35399e-18
2.34001e-12
-8.42194e-18
2.33999e-12
1.545e-17
2.34001e-12
-8.31589e-18
2.33999e-12
1.10665e-17
2.34001e-12
-1.12114e-17
2.33999e-12
1.27772e-17
2.34001e-12
-1.14685e-17
2.33999e-12
1.17594e-17
2.34001e-12
-1.30233e-17
2.33999e-12
1.4757e-17
2.34001e-12
-1.34152e-17
2.33999e-12
1.37328e-17
2.34001e-12
-1.41667e-17
2.33999e-12
1.4594e-17
2.34002e-12
-1.62371e-17
2.33999e-12
1.59307e-17
2.34002e-12
-1.57233e-17
2.33999e-12
1.43669e-17
2.34002e-12
-1.57386e-17
2.33999e-12
1.59515e-17
2.34002e-12
-1.46311e-17
2.33998e-12
1.71462e-17
2.34002e-12
-1.61642e-17
2.33998e-12
1.43279e-17
2.34002e-12
-1.46916e-17
2.33998e-12
1.62043e-17
2.34002e-12
-2.06771e-17
2.33998e-12
1.90602e-17
2.34002e-12
-1.71107e-17
2.33998e-12
1.92478e-17
2.34002e-12
-1.71172e-17
2.33998e-12
1.88684e-17
2.34002e-12
-1.88035e-17
2.33999e-12
1.09495e-17
-8.34289e-17
2.31906e-12
7.12361e-13
2.3366e-12
8.09994e-14
2.34433e-12
-1.84101e-14
2.34325e-12
-1.85049e-14
2.34151e-12
-9.70785e-15
2.34055e-12
-3.89386e-15
2.34015e-12
-1.27852e-15
2.34004e-12
-3.43628e-16
2.33999e-12
-6.03195e-17
2.34001e-12
-2.03184e-17
2.33999e-12
1.127e-17
2.34001e-12
-6.57406e-18
2.33999e-12
1.30256e-17
2.34001e-12
-1.24639e-17
2.33999e-12
1.17511e-17
2.34001e-12
-1.10919e-17
2.33999e-12
1.36642e-17
2.34001e-12
-1.4475e-17
2.33999e-12
1.32283e-17
2.34001e-12
-1.17851e-17
2.33999e-12
1.40089e-17
2.34001e-12
-1.42721e-17
2.33999e-12
1.44627e-17
2.34002e-12
-1.48206e-17
2.33999e-12
1.34466e-17
2.34002e-12
-1.43216e-17
2.33998e-12
1.55396e-17
2.34002e-12
-1.74453e-17
2.33998e-12
1.61684e-17
2.34002e-12
-1.62272e-17
2.33998e-12
1.81036e-17
2.34002e-12
-1.59204e-17
2.33998e-12
1.78127e-17
2.34002e-12
-2.14724e-17
2.33998e-12
2.10224e-17
2.34002e-12
-1.82661e-17
2.33998e-12
1.2474e-17
2.34002e-12
-1.49898e-17
2.33998e-12
1.77783e-17
2.34002e-12
-1.5541e-17
2.33998e-12
1.86605e-17
2.34002e-12
-1.84834e-17
2.33998e-12
2.03541e-17
2.34001e-12
-1.32718e-17
1.07173e-16
2.3133e-12
7.97911e-13
2.3601e-12
3.41926e-14
2.35783e-12
-1.61311e-14
2.34869e-12
-9.36727e-15
2.34336e-12
-4.38136e-15
2.34107e-12
-1.5988e-15
2.34029e-12
-4.99589e-16
2.34004e-12
-1.01508e-16
2.34001e-12
-2.8065e-17
2.33999e-12
6.43471e-18
2.34001e-12
-1.01515e-17
2.33999e-12
1.26431e-17
2.34001e-12
-9.17247e-18
2.33999e-12
8.08163e-18
2.34001e-12
-1.03165e-17
2.33999e-12
1.08714e-17
2.34001e-12
-9.11074e-18
2.33999e-12
9.50112e-18
2.34001e-12
-1.22125e-17
2.33999e-12
1.43447e-17
2.34001e-12
-1.28383e-17
2.33999e-12
1.23039e-17
2.34001e-12
-1.2247e-17
2.33999e-12
1.37089e-17
2.34002e-12
-1.72919e-17
2.33999e-12
1.66539e-17
2.34002e-12
-1.39797e-17
2.33999e-12
1.26331e-17
2.34002e-12
-1.44677e-17
2.33999e-12
1.40784e-17
2.34002e-12
-1.22752e-17
2.33999e-12
1.4098e-17
2.34002e-12
-1.30694e-17
2.33999e-12
9.91098e-18
2.34002e-12
-1.08224e-17
2.33998e-12
1.54736e-17
2.34002e-12
-2.35019e-17
2.33998e-12
2.22989e-17
2.34002e-12
-1.8499e-17
2.33998e-12
1.88413e-17
2.34002e-12
-1.60768e-17
2.33998e-12
1.61213e-17
2.34002e-12
-1.74069e-17
2.34e-12
7.65715e-18
-7.50148e-17
2.59582e-12
-7.97911e-13
2.66421e-12
-3.41977e-14
2.63194e-12
1.61393e-14
2.61321e-12
9.36181e-15
2.60444e-12
4.38726e-15
2.60125e-12
1.59409e-15
2.60025e-12
5.05077e-16
2.60005e-12
9.48368e-17
2.59999e-12
3.3963e-17
2.60001e-12
-1.27314e-17
2.59998e-12
1.6268e-17
2.60001e-12
-1.88861e-17
2.59999e-12
1.50722e-17
2.60001e-12
-1.42003e-17
2.59998e-12
1.65408e-17
2.60001e-12
-1.68944e-17
2.59999e-12
1.52904e-17
2.60001e-12
-1.55767e-17
2.59998e-12
1.80869e-17
2.60002e-12
-2.03387e-17
2.59999e-12
1.88363e-17
2.60002e-12
-1.80933e-17
2.59999e-12
1.8203e-17
2.60002e-12
-1.9554e-17
2.59998e-12
2.2888e-17
2.60002e-12
-2.2336e-17
2.59998e-12
1.95392e-17
2.60001e-12
-1.81782e-17
2.59998e-12
1.99778e-17
2.60001e-12
-1.95518e-17
2.59998e-12
1.77697e-17
2.60002e-12
-1.95953e-17
2.59999e-12
1.84256e-17
2.60001e-12
-1.51517e-17
2.59998e-12
1.60002e-17
2.60002e-12
-2.06263e-17
2.59997e-12
2.8692e-17
2.60002e-12
-2.73387e-17
2.59998e-12
2.35726e-17
2.60002e-12
-2.39605e-17
2.59998e-12
2.12857e-17
2.60002e-12
-2.1164e-17
2.59998e-12
2.26251e-17
2.6e-12
-9.90577e-18
8.25254e-17
2.3618e-12
1.38201e-13
2.39652e-12
-3.47193e-14
2.37641e-12
2.01045e-14
2.2995e-12
7.69097e-14
-9.93441e-14
2.39885e-12
2.52429e-12
1.13909e-13
2.46621e-12
2.33614e-14
2.46019e-12
2.61295e-14
2.4625e-12
7.46002e-14
-9.18763e-14
2.45503e-12
2.59531e-12
1.85949e-14
2.53629e-12
8.23875e-14
2.52366e-12
3.87619e-14
2.53804e-12
6.02205e-14
-6.80542e-14
2.51421e-12
2.57501e-12
-5.64149e-14
2.55787e-12
9.95255e-14
2.5619e-12
3.47378e-14
2.58289e-12
3.92238e-14
-4.03011e-14
2.55514e-12
2.44359e-12
2.54311e-12
2.57785e-12
2.61707e-12
2.57677e-12
2.3133e-12
-7.12362e-13
2.3601e-12
-8.10005e-14
2.35783e-12
1.84141e-14
2.34869e-12
1.85036e-14
2.34336e-12
9.71002e-15
2.34106e-12
3.89264e-15
2.34029e-12
1.28023e-15
2.34004e-12
3.40686e-16
2.34001e-12
6.25752e-17
2.33998e-12
1.77358e-17
2.34001e-12
-8.8543e-18
2.33999e-12
4.03986e-18
2.34001e-12
-1.08294e-17
2.33999e-12
1.00389e-17
2.34001e-12
-9.20219e-18
2.33999e-12
8.75873e-18
2.34001e-12
-1.11425e-17
2.33999e-12
1.20141e-17
2.34002e-12
-1.09521e-17
2.33999e-12
9.37849e-18
2.34002e-12
-1.15738e-17
2.33999e-12
1.2027e-17
2.34002e-12
-1.20233e-17
2.33998e-12
1.24163e-17
2.34002e-12
-1.12777e-17
2.33998e-12
1.20642e-17
2.34002e-12
-1.33694e-17
2.33998e-12
1.5268e-17
2.34002e-12
-1.39916e-17
2.33998e-12
1.4068e-17
2.34002e-12
-1.58878e-17
2.33998e-12
1.36554e-17
2.34002e-12
-1.56476e-17
2.33998e-12
1.94001e-17
2.34002e-12
-1.90164e-17
2.33998e-12
1.6265e-17
2.34002e-12
-1.04098e-17
2.33998e-12
1.30687e-17
2.34002e-12
-1.5783e-17
2.33998e-12
1.34852e-17
2.34002e-12
-1.65167e-17
2.33998e-12
1.643e-17
2.34002e-12
-1.83331e-17
2.34e-12
1.13598e-17
-1.0549e-16
2.31906e-12
-5.76393e-13
2.3366e-12
-9.85419e-14
2.34433e-12
1.06862e-14
2.34324e-12
1.95877e-14
2.34151e-12
1.14405e-14
2.34055e-12
4.85569e-15
2.34015e-12
1.6812e-15
2.34004e-12
4.49792e-16
2.33999e-12
1.10739e-16
2.34001e-12
3.71972e-18
2.33999e-12
8.98634e-18
2.34001e-12
-1.61519e-17
2.33999e-12
8.69094e-18
2.34001e-12
-1.16346e-17
2.33999e-12
1.19464e-17
2.34001e-12
-1.33137e-17
2.33999e-12
1.21343e-17
2.34001e-12
-1.23705e-17
2.33999e-12
1.3501e-17
2.34001e-12
-1.5378e-17
2.33999e-12
1.40731e-17
2.34001e-12
-1.42098e-17
2.33999e-12
1.47837e-17
2.34001e-12
-1.52287e-17
2.33999e-12
1.67075e-17
2.34002e-12
-1.64951e-17
2.33999e-12
1.62461e-17
2.34002e-12
-1.48924e-17
2.33999e-12
1.6282e-17
2.34002e-12
-1.64692e-17
2.33999e-12
1.51661e-17
2.34002e-12
-1.77312e-17
2.33998e-12
1.66816e-17
2.34002e-12
-1.48337e-17
2.33998e-12
1.51646e-17
2.34002e-12
-1.66772e-17
2.33999e-12
2.12297e-17
2.34002e-12
-1.94779e-17
2.33998e-12
1.76105e-17
2.34002e-12
-1.97579e-17
2.33998e-12
1.76439e-17
2.34002e-12
-1.93413e-17
2.33998e-12
1.90903e-17
2.34001e-12
-1.15877e-17
8.35072e-17
2.34149e-12
-4.03674e-13
2.32685e-12
-8.3902e-14
2.33358e-12
3.95811e-15
2.33745e-12
1.57211e-14
2.33916e-12
9.7311e-15
2.33974e-12
4.27403e-15
2.33995e-12
1.47513e-15
2.33997e-12
4.20726e-16
2.34001e-12
7.97433e-17
2.33999e-12
1.99903e-17
2.34001e-12
-1.22799e-17
2.33999e-12
4.76126e-18
2.34001e-12
-1.25588e-17
2.33999e-12
9.76885e-18
2.34001e-12
-1.07662e-17
2.33999e-12
1.00827e-17
2.34001e-12
-1.17272e-17
2.33999e-12
1.20912e-17
2.34001e-12
-1.19554e-17
2.33999e-12
1.10789e-17
2.34001e-12
-1.24602e-17
2.33999e-12
1.27441e-17
2.34001e-12
-1.29416e-17
2.33999e-12
1.33274e-17
2.34002e-12
-1.28367e-17
2.33999e-12
1.33616e-17
2.34002e-12
-1.35239e-17
2.33999e-12
1.49266e-17
2.34002e-12
-1.44035e-17
2.33999e-12
1.44508e-17
2.34002e-12
-1.59161e-17
2.33998e-12
1.45561e-17
2.34002e-12
-1.58044e-17
2.33998e-12
1.72671e-17
2.34002e-12
-1.72831e-17
2.33998e-12
1.64257e-17
2.34002e-12
-1.3767e-17
2.33998e-12
1.49644e-17
2.34002e-12
-1.66268e-17
2.33998e-12
1.49567e-17
2.34002e-12
-1.74755e-17
2.33998e-12
1.65087e-17
2.34002e-12
-1.87001e-17
2.33999e-12
1.54962e-17
-9.1785e-17
2.36166e-12
-2.10198e-13
2.32279e-12
-4.50278e-14
2.32626e-12
4.89406e-16
2.33299e-12
8.99078e-15
2.33723e-12
5.49082e-15
2.3391e-12
2.40274e-15
2.33975e-12
8.28716e-16
2.33996e-12
2.09413e-16
2.33998e-12
5.51065e-17
2.34001e-12
-9.23548e-18
2.33999e-12
9.084e-18
2.34001e-12
-1.62313e-17
2.33999e-12
1.09579e-17
2.34001e-12
-1.41801e-17
2.33999e-12
1.34035e-17
2.34001e-12
-1.51005e-17
2.33999e-12
1.44547e-17
2.34001e-12
-1.52282e-17
2.33999e-12
1.56465e-17
2.34001e-12
-1.68267e-17
2.33999e-12
1.64857e-17
2.34002e-12
-1.69012e-17
2.33999e-12
1.73138e-17
2.34002e-12
-1.77389e-17
2.33998e-12
1.8636e-17
2.34002e-12
-1.87306e-17
2.33998e-12
1.91198e-17
2.34002e-12
-1.85654e-17
2.33998e-12
1.92152e-17
2.34002e-12
-1.94767e-17
2.33998e-12
1.90737e-17
2.34002e-12
-2.03875e-17
2.33998e-12
1.98644e-17
2.34002e-12
-1.98156e-17
2.33998e-12
1.95241e-17
2.34002e-12
-2.07742e-17
2.33998e-12
2.16056e-17
2.34002e-12
-2.21538e-17
2.33998e-12
2.04505e-17
2.34002e-12
-2.26593e-17
2.33998e-12
2.10377e-17
2.34002e-12
-2.23824e-17
2.33998e-12
2.44843e-17
2.34001e-12
-1.20254e-17
1.08405e-16
2.36657e-12
2.32154e-12
2.32203e-12
2.33103e-12
2.33652e-12
2.33892e-12
2.33975e-12
2.33996e-12
2.34001e-12
2.34e-12
2.34001e-12
2.34e-12
2.34001e-12
2.33999e-12
2.34001e-12
2.33999e-12
2.34e-12
2.33999e-12
2.34001e-12
2.33999e-12
2.34001e-12
2.33999e-12
2.34001e-12
2.33999e-12
2.34001e-12
2.33999e-12
2.34001e-12
2.33999e-12
2.34001e-12
2.33999e-12
2.34001e-12
2.33999e-12
2.34001e-12
2.33999e-12
2.34001e-12
2.33999e-12
2.34001e-12
2.33998e-12
2.34001e-12
2.33998e-12
2.34e-12
2.33998e-12
2.34001e-12
2.33999e-12
)
;

boundaryField
{
    AirInlet
    {
        type            calculated;
        value           uniform -1e-12;
    }
    WaterInlet
    {
        type            calculated;
        value           nonuniform List<scalar> 10(-2.5e-12 -2.5e-12 -2.5e-12 -2.5e-12 -2.5e-12 -2.5e-12 -2.5e-12 -2.5e-12 -2.5e-12 -2.5e-12);
    }
    ChannelWall
    {
        type            calculated;
        value           uniform 0;
    }
    Outlet
    {
        type            calculated;
        value           nonuniform List<scalar> 
11
(
2.3401e-12
2.33981e-12
2.34017e-12
2.33981e-12
2.34018e-12
2.59984e-12
2.34019e-12
2.33982e-12
2.34017e-12
2.33981e-12
2.3401e-12
)
;
    }
    FrontAndBack
    {
        type            empty;
        value           nonuniform 0();
    }
}


// ************************************************************************* //
