/*--------------------------------*- C++ -*----------------------------------*\
| =========                 |                                                 |
| \\      /  F ield         | OpenFOAM: The Open Source CFD Toolbox           |
|  \\    /   O peration     | Version:  2.3.0                                 |
|   \\  /    A nd           | Web:      www.OpenFOAM.org                      |
|    \\/     M anipulation  |                                                 |
\*---------------------------------------------------------------------------*/
FoamFile
{
    version     2.0;
    format      ascii;
    class       volScalarField;
    location    "3.60002";
    object      km;
}
// * * * * * * * * * * * * * * * * * * * * * * * * * * * * * * * * * * * * * //

dimensions      [0 2 -2 0 0 0 0];

internalField   nonuniform List<scalar> 
10000
(
0.221293
0.117867
0.0853823
0.0681287
0.0298578
0.00908783
0.00138973
0.00447507
0.00262963
0.00521196
0.00261092
0.00367892
0.00597495
0.00324086
0.00530213
0.0130977
0.029805
0.0373541
0.0282857
0.0347395
0.207728
0.0687755
0.034761
0.118586
0.00470197
0.000172932
1.17401e-05
0.000269486
0.000282978
0.000823694
0.00164926
0.00277926
0.00254712
0.00124497
0.00109648
0.00317326
0.0175566
0.0236986
0.0203267
0.0458785
0.334342
0.305224
0.0394067
0.0859895
0.00336466
0.00172489
0.00024877
7.49231e-05
0.000147145
0.00169657
0.00295347
0.00312217
0.00273627
0.0016982
0.00154057
0.00333199
0.107072
0.10629
0.099465
0.238369
0.249039
1.24073
0.038229
0.0267134
0.00313986
7.2668e-05
4.18073e-05
4.65995e-05
0.000147526
0.00166026
0.00246759
0.00304632
0.00273736
0.0018873
0.00173705
0.00454002
0.100631
0.136738
0.186367
0.188192
0.0299741
0.234279
0.05554
0.0268715
0.00321845
7.36673e-05
5.06318e-05
6.15019e-05
0.000320584
0.00257862
0.00289144
0.00316645
0.00293936
0.00235543
0.00224441
0.0056227
0.0524914
0.168572
0.253308
0.30454
0.0667008
0.069441
0.349818
0.0352778
0.00342324
6.43856e-05
4.72406e-05
7.68247e-05
0.000554598
0.0033396
0.00394998
0.0044983
0.00440172
0.00367412
0.00337716
0.0110353
0.130979
0.422364
0.529778
0.593459
0.454675
0.0533432
0.371341
0.0535865
0.00455834
0.000112937
5.86796e-05
0.000118467
0.00158318
0.00527125
0.00632153
0.00695347
0.00675376
0.00576576
0.00549203
0.0380737
0.635972
0.989021
0.953235
0.937952
2.30996
0.0695798
0.392867
0.0560798
0.0053145
0.000332127
0.000247343
0.000615898
0.00460827
0.00806261
0.0100642
0.0105437
0.0104015
0.00937913
0.0110222
0.118374
0.551982
2.13342
1.60427
1.27484
1.03241
0.225944
0.0507325
0.0695864
0.0052831
0.00166039
0.00196991
0.0033166
0.0082419
0.00881166
0.0142971
0.0147359
0.0150505
0.0153307
0.0296039
0.276807
0.994517
2.20409
2.9256
1.69155
3.77248
0.843084
0.0924613
0.0797657
0.00400173
0.00701354
0.00791445
0.00650362
0.00968054
0.0104966
0.00925393
0.0113518
0.0116054
0.0129763
0.0733591
0.475583
1.90319
1.65246
1.59542
2.23931
2.23183
0.492723
0.498203
0.0495607
0.00890143
0.00949495
0.0105992
0.00955437
0.010659
0.0106658
0.0101029
0.0106709
0.0114448
0.0294294
0.191728
0.628
2.01427
2.1111
2.3031
3.46732
0.0213329
0.57932
0.48199
0.0442103
0.00746603
0.00992056
0.0105786
0.00946981
0.0112924
0.0114821
0.0105692
0.0121875
0.0166768
0.0676395
0.287324
0.734133
1.90625
3.05824
3.59744
3.14063
0.00839323
0.790159
0.428295
0.0803058
0.0084948
0.00907493
0.0107094
0.00972691
0.0114698
0.0116166
0.0103267
0.0128672
0.0283176
0.126234
0.325466
0.720227
1.34406
2.19763
2.79719
1.32986
0.00416289
0.208258
0.36334
0.123634
0.00875055
0.007911
0.0107399
0.0103175
0.0116924
0.0117311
0.0104965
0.0172178
0.0624995
0.175332
0.317134
0.728255
1.48228
1.7474
1.71651
1.42093
0.00204106
0.0938927
0.266548
0.12528
0.00893049
0.00884753
0.0107739
0.0104501
0.0130098
0.0130337
0.0119738
0.0337509
0.118776
0.233113
0.339884
0.739091
2.05437
2.51829
3.35668
3.25105
0.00208938
0.214121
0.0266385
0.107859
0.00967174
0.00902425
0.010839
0.0106409
0.0131011
0.0134126
0.0177766
0.0688523
0.177019
0.302499
0.474459
0.856035
2.02571
3.00265
2.85794
2.26219
0.00279335
0.506592
0.0567717
0.0977462
0.0103852
0.00977268
0.0107582
0.0110098
0.0121498
0.0137912
0.0319789
0.110338
0.224377
0.353026
0.537964
0.93915
2.06597
2.96036
2.96777
2.4728
0.00263985
0.375653
0.108355
0.0985767
0.0110603
0.0106683
0.0118839
0.0106036
0.0125304
0.0160093
0.0521413
0.146054
0.260763
0.386499
0.555171
0.888786
1.79857
2.19137
1.52966
0.85652
0.0034287
0.130796
0.013262
0.0749541
0.011795
0.0105403
0.0101478
0.00965923
0.00991644
0.0169893
0.0681828
0.168362
0.278758
0.394805
0.531631
0.753119
1.37983
1.33307
0.306523
0.12698
0.00571148
0.0080728
0.00132852
0.0218526
0.0111759
0.0094323
0.00728407
0.00778039
0.00884261
0.0169387
0.0738951
0.177659
0.285876
0.393946
0.502695
0.620861
0.838773
0.523132
0.0174021
0.00187771
0.223186
0.120727
0.0871543
0.0667331
0.0304926
0.00864661
0.00128461
0.00523318
0.00267995
0.00449934
0.00261579
0.00342733
0.00587015
0.0030216
0.00530494
0.0132522
0.0302524
0.0380114
0.0295376
0.0356746
0.201938
0.0654024
0.0345036
0.0588147
0.0050366
0.000142249
9.25024e-06
0.000267307
0.000284339
0.000841415
0.00150031
0.00271282
0.00244915
0.00106478
0.000984435
0.00320699
0.0114409
0.0184882
0.0213077
0.0374113
0.316333
0.245146
0.0391183
0.0617124
0.00339987
0.00150615
0.000221817
7.29939e-05
0.000139252
0.00164732
0.00293312
0.00310511
0.00268318
0.00161331
0.00146876
0.00328449
0.0477535
0.0715812
0.0857638
0.172084
0.231515
0.7457
0.0355242
0.0275606
0.00308199
6.68906e-05
4.13444e-05
4.60017e-05
0.000137005
0.00157205
0.00240104
0.00299925
0.00268433
0.0018111
0.00165624
0.00463474
0.0635903
0.100026
0.176632
0.186279
0.0331859
0.221323
0.0388372
0.0264041
0.00313451
6.722e-05
4.98404e-05
5.98074e-05
0.000283852
0.00245741
0.00276711
0.00306403
0.00283575
0.00223516
0.00211896
0.00579214
0.0518665
0.168552
0.253715
0.304655
0.0517855
0.0688471
0.172373
0.0295102
0.00333757
6.19402e-05
4.65009e-05
7.33568e-05
0.000447038
0.0031971
0.00380042
0.00437417
0.00427529
0.00352997
0.0032194
0.0111577
0.126741
0.418643
0.52862
0.592778
0.268067
0.0534714
0.239508
0.038245
0.00445545
9.86317e-05
5.51624e-05
0.000103434
0.00135681
0.00512316
0.00619131
0.00683406
0.00662928
0.00560784
0.00533387
0.0376786
0.509124
0.971366
0.948811
0.936807
1.16442
0.0637554
0.23037
0.0405786
0.00545098
0.000295148
0.000213057
0.000515582
0.0044331
0.00803745
0.00994175
0.0104273
0.0102703
0.0091831
0.0109612
0.119028
0.533544
1.86775
1.58255
1.27214
0.902618
0.17873
0.0460659
0.0515105
0.0056321
0.00153832
0.00184311
0.00319636
0.0082129
0.00936883
0.013043
0.0135948
0.0137198
0.0136504
0.0282804
0.273659
0.989577
1.94151
2.57688
1.68484
2.457
0.534621
0.061497
0.0614543
0.00502292
0.00726683
0.00810117
0.00684134
0.00970579
0.0104042
0.00930824
0.0111946
0.0114548
0.0130141
0.0748146
0.478253
1.78065
1.6472
1.5035
2.21933
1.13503
0.393676
0.283572
0.0435634
0.00806727
0.00959444
0.0104571
0.00959175
0.0106172
0.0106309
0.0100585
0.0106633
0.0114568
0.0300827
0.193323
0.629555
1.90001
2.09374
2.27868
3.29494
0.0164941
0.431211
0.313344
0.0387632
0.0071981
0.00951378
0.0106226
0.00940471
0.0113173
0.0115063
0.0105696
0.012208
0.0166754
0.0682724
0.287128
0.733665
1.80232
2.7822
3.19943
2.69757
0.00711359
0.534717
0.288549
0.0590167
0.00807842
0.00920946
0.0107521
0.00965766
0.0114929
0.011639
0.0103207
0.01278
0.0285741
0.127184
0.326853
0.720431
1.34368
1.9597
2.42318
1.32568
0.00392648
0.196776
0.241923
0.0873831
0.00848949
0.00807981
0.0107878
0.0102827
0.0117178
0.0117561
0.0105004
0.0172239
0.0631021
0.176382
0.318549
0.730483
1.48023
1.74349
1.70307
1.40722
0.00175041
0.0886132
0.178827
0.0895206
0.00887227
0.00845712
0.0108249
0.0104248
0.0128577
0.0128937
0.012041
0.0340596
0.119567
0.234233
0.341313
0.740754
1.9627
2.47535
2.96295
2.78511
0.00173646
0.126051
0.0219168
0.0786708
0.00967132
0.00864376
0.0108962
0.0106324
0.0129678
0.0132998
0.0180047
0.0694141
0.177903
0.303651
0.475992
0.85787
1.93948
2.74524
2.47182
1.85535
0.00259332
0.322612
0.0147
0.0700291
0.0104258
0.00954166
0.0108275
0.0110374
0.0121734
0.0138067
0.0324038
0.111023
0.225312
0.354212
0.539584
0.941384
1.98416
2.72252
2.61283
2.1385
0.00310348
0.243614
0.0290925
0.066996
0.0111365
0.010519
0.0113707
0.010637
0.0123526
0.0159689
0.0526908
0.146827
0.26175
0.387725
0.556814
0.89114
1.72749
2.01325
1.32723
0.716968
0.00405449
0.0667497
0.00945943
0.047848
0.0118439
0.0106084
0.00988426
0.00970449
0.00987744
0.0171811
0.0687993
0.169191
0.27975
0.396006
0.533212
0.755211
1.32233
1.20644
0.293627
0.116662
0.00535409
0.00515692
0.00669612
0.0115151
0.011073
0.009292
0.00744031
0.0078563
0.0087782
0.0171386
0.0745348
0.178492
0.286862
0.395113
0.504161
0.622724
0.801275
0.438779
0.0160774
0.00160273
0.221298
0.1218
0.0877604
0.0660057
0.0307506
0.00832937
0.00124744
0.00571018
0.00260265
0.00391052
0.0026152
0.00305306
0.00548736
0.00280718
0.00511556
0.0130109
0.0303136
0.0381968
0.0301373
0.0360272
0.191574
0.0613633
0.0342618
0.0344034
0.00532028
0.000130083
8.39852e-06
0.000266244
0.000278124
0.000830493
0.00137335
0.00257165
0.00225243
0.000815482
0.000811057
0.00314429
0.010353
0.017209
0.0223676
0.0322925
0.284565
0.184585
0.038754
0.0459481
0.00338905
0.00136528
0.00020979
7.16013e-05
0.000135389
0.00153879
0.00285391
0.0030573
0.00256687
0.00145689
0.00133393
0.00328289
0.0233957
0.0481674
0.0766186
0.135441
0.201415
0.457842
0.0336872
0.0279296
0.00293161
6.44673e-05
4.11191e-05
4.56533e-05
0.00013226
0.00142795
0.00227907
0.0029039
0.00257709
0.00167372
0.00151485
0.00469542
0.0456697
0.0849281
0.162014
0.182907
0.0374941
0.200792
0.0337022
0.0270203
0.00300203
6.46346e-05
4.92606e-05
5.89784e-05
0.000266001
0.00225542
0.00256013
0.00289276
0.00266002
0.00203881
0.00191753
0.00594808
0.0510314
0.167986
0.254332
0.304839
0.0446216
0.068079
0.0913351
0.0280846
0.00321901
6.11545e-05
4.60413e-05
7.17994e-05
0.000389988
0.00295413
0.00354881
0.00415746
0.00405607
0.00328892
0.00296357
0.0113193
0.122281
0.411851
0.526391
0.59144
0.131678
0.0540155
0.156617
0.0321731
0.00431469
9.28373e-05
5.37735e-05
9.76137e-05
0.00110412
0.00486518
0.00594876
0.00660825
0.0063969
0.00532771
0.00505486
0.037544
0.425486
0.941637
0.940407
0.934529
0.599543
0.0601122
0.143276
0.0334897
0.0055864
0.000280007
0.000199261
0.00046881
0.00412705
0.0079343
0.00970897
0.0102017
0.0100257
0.00884084
0.0108144
0.119944
0.551463
1.6523
1.54551
1.2669
0.758687
0.133075
0.04066
0.0416131
0.00614849
0.0014178
0.00169262
0.00300041
0.00812265
0.00971476
0.0122561
0.0128521
0.0128585
0.0125833
0.0271632
0.270178
0.981824
1.73724
2.29558
1.67266
1.60948
0.34171
0.0433713
0.0496097
0.00602042
0.00761504
0.0083468
0.00715979
0.00980774
0.0104188
0.00943032
0.0111578
0.0114195
0.013065
0.0753226
0.479738
1.67524
1.63802
1.5268
2.1829
0.551297
0.316106
0.1652
0.0397077
0.00823877
0.00977872
0.0104213
0.00965835
0.0106254
0.010645
0.0100708
0.010694
0.0115051
0.0305711
0.194488
0.630198
1.80046
2.06265
2.23595
3.05654
0.0121083
0.333564
0.209185
0.0362747
0.00760175
0.00948512
0.0107042
0.00940659
0.0113632
0.0115511
0.0105999
0.0122458
0.0166616
0.0685001
0.286726
0.733094
1.7133
2.54795
2.86523
2.33934
0.0058671
0.381267
0.200284
0.0476945
0.0083296
0.00944268
0.0108303
0.00965131
0.0115353
0.0116801
0.0103441
0.0127317
0.0286553
0.127795
0.327784
0.720828
1.34384
1.79268
2.1404
1.31973
0.00349965
0.178049
0.167021
0.0658367
0.00879495
0.0083821
0.0108754
0.010297
0.0117648
0.0118025
0.010533
0.0172031
0.063457
0.177155
0.319437
0.732467
1.47675
1.73612
1.68243
1.38652
0.00170326
0.0817259
0.113627
0.0676279
0.00927731
0.00840877
0.0109187
0.0104454
0.0127773
0.01282
0.0121162
0.0342019
0.120124
0.235101
0.3422
0.741714
1.88142
2.40135
2.63965
2.40666
0.00173096
0.0971768
0.0183123
0.0608855
0.0100571
0.00858388
0.0110011
0.0106596
0.0128986
0.0132399
0.0181876
0.0697654
0.178563
0.304527
0.477095
0.859123
1.86301
2.52623
2.16617
1.57266
0.00232309
0.205159
0.00727408
0.0543683
0.0107775
0.00952149
0.0109579
0.0110859
0.0122173
0.0138323
0.0327249
0.111504
0.226026
0.355117
0.540758
0.943098
1.91205
2.51924
2.32187
1.87117
0.00319924
0.165902
0.00668342
0.0506362
0.0114549
0.0105261
0.0111205
0.0106966
0.0122597
0.0159362
0.0531018
0.147402
0.262519
0.388681
0.558046
0.892953
1.66505
1.86196
1.16731
0.611686
0.00407303
0.0384455
0.00482112
0.036195
0.0121008
0.0107322
0.00982287
0.00978401
0.00989761
0.0173497
0.0692608
0.16981
0.280492
0.396905
0.534395
0.756593
1.27204
1.10094
0.272792
0.101234
0.00467927
0.00152276
0.00390026
0.0117708
0.0112135
0.00932391
0.00771424
0.00798921
0.00878352
0.0173244
0.0750209
0.179119
0.287603
0.39599
0.505263
0.624033
0.768784
0.374636
0.0148468
0.00142246
0.219133
0.123054
0.088422
0.0659204
0.0308899
0.00791845
0.00119304
0.00674771
0.00266772
0.0036968
0.00260213
0.00276684
0.00521465
0.0027158
0.00504224
0.012776
0.0303512
0.0383733
0.0307583
0.0365847
0.178454
0.0578533
0.0341349
0.0265556
0.00554798
0.000105889
6.98873e-06
0.0002637
0.000268942
0.000778711
0.00125031
0.00236298
0.00194681
0.000604741
0.00066675
0.00302731
0.0102448
0.0169438
0.0231749
0.0313828
0.245955
0.137291
0.0382206
0.0363617
0.00339064
0.00121798
0.000191648
7.02982e-05
0.000129736
0.00144269
0.00272052
0.00296928
0.00237951
0.00124033
0.0011657
0.00326471
0.0159961
0.037043
0.07048
0.112526
0.166502
0.287656
0.0327803
0.0280428
0.00276377
6.02183e-05
4.08376e-05
4.52642e-05
0.000125422
0.00126375
0.00210707
0.00275856
0.0024138
0.0014929
0.0013449
0.00471654
0.0362017
0.0787315
0.148209
0.178568
0.0424255
0.174372
0.0320263
0.0277105
0.00287116
6.06428e-05
4.87897e-05
5.77908e-05
0.00024492
0.00199679
0.00229515
0.00267198
0.00242994
0.00179239
0.00167382
0.00603995
0.0502023
0.166954
0.254936
0.305021
0.0432554
0.0671992
0.0604486
0.0280456
0.00309317
6.03332e-05
4.56116e-05
6.95438e-05
0.000332085
0.00264096
0.00322755
0.00387103
0.00376883
0.0029806
0.00264224
0.0114491
0.120631
0.402999
0.523256
0.589484
0.0897489
0.0546647
0.105711
0.0301109
0.00417042
8.2487e-05
5.17217e-05
8.93754e-05
0.000874016
0.00451534
0.00562076
0.00629983
0.00608183
0.00496197
0.00469084
0.0376207
0.374069
0.90456
0.92879
0.931136
0.343409
0.0584214
0.0959037
0.0308146
0.00564363
0.000255013
0.000179282
0.00040711
0.00374069
0.00775733
0.00940415
0.00990321
0.00970729
0.00841755
0.0106138
0.120938
0.570473
1.4808
1.49859
1.25937
0.61835
0.101367
0.0360136
0.0369432
0.00673844
0.00129051
0.00154166
0.00277268
0.00796962
0.00993452
0.0118075
0.012417
0.0123431
0.0119204
0.0261159
0.266249
0.972825
1.58425
2.07183
1.65613
1.05105
0.235015
0.0361426
0.0429461
0.00713769
0.00798814
0.00862171
0.00743047
0.00995672
0.0105076
0.00958283
0.0112074
0.0114662
0.0130955
0.0748827
0.48051
1.58504
1.62586
1.56958
2.13407
0.262663
0.258783
0.102839
0.03779
0.00887858
0.00999827
0.0104536
0.00973551
0.0106638
0.0106881
0.0101165
0.0107452
0.01157
0.0309002
0.195243
0.630326
1.71451
2.02138
2.18075
2.80744
0.0084743
0.26912
0.144785
0.0354151
0.00828727
0.00963777
0.0108082
0.00944731
0.0114218
0.011608
0.0106451
0.0122937
0.0166222
0.0683344
0.286107
0.732712
1.63836
2.35219
2.58928
2.06112
0.00486705
0.286768
0.143779
0.0419875
0.00888068
0.00970714
0.0109292
0.0096835
0.0115892
0.0117323
0.0103829
0.0127091
0.0285596
0.128074
0.328268
0.721403
1.34516
1.68423
1.93776
1.31355
0.00302267
0.15544
0.120374
0.0534913
0.00934382
0.00873248
0.0109862
0.0103395
0.0118251
0.0118619
0.0105793
0.0171462
0.0635693
0.177655
0.319794
0.734226
1.47242
1.72643
1.65894
1.3634
0.00171311
0.0737461
0.0757523
0.0547994
0.00985835
0.00855736
0.011038
0.0104917
0.012753
0.0127979
0.0121872
0.0341789
0.120451
0.235721
0.342519
0.742269
1.80953
2.3096
2.37624
2.10479
0.00176125
0.0779144
0.0148724
0.0507821
0.0105882
0.0087098
0.0111341
0.0107054
0.0128795
0.0132197
0.0183203
0.0699096
0.179002
0.30513
0.47777
0.860056
1.79595
2.34146
1.93115
1.38906
0.00211535
0.133847
0.00479399
0.0464583
0.0112488
0.00962462
0.0111264
0.0111414
0.0122735
0.0138584
0.0329421
0.111785
0.226522
0.355743
0.541487
0.944528
1.8493
2.34717
2.08515
1.66008
0.00288098
0.116617
0.00386372
0.0433755
0.0118657
0.0106206
0.011059
0.0107655
0.0122316
0.015898
0.0533762
0.147782
0.263075
0.389369
0.558869
0.894421
1.61087
1.73517
1.04285
0.533516
0.00358807
0.0212742
0.00388797
0.032701
0.0124402
0.0108802
0.00988467
0.00987503
0.00995154
0.0174838
0.0695691
0.170221
0.280986
0.397504
0.535183
0.757411
1.22867
1.01436
0.249281
0.0860316
0.00384266
0.00026712
0.0031382
0.0136087
0.0114747
0.00945316
0.00802974
0.00814156
0.00883067
0.017479
0.0753516
0.17954
0.288099
0.396578
0.506001
0.624864
0.74108
0.32678
0.0140358
0.00131156
0.217232
0.124279
0.0891995
0.0662525
0.0309399
0.00747836
0.00115545
0.00763341
0.00274943
0.00362289
0.00256954
0.00246763
0.00500444
0.00264381
0.00496738
0.0125626
0.0303729
0.0385173
0.0312708
0.0371037
0.164868
0.055254
0.034123
0.0238715
0.00563641
9.31251e-05
6.34075e-06
0.000258879
0.000256415
0.000732985
0.00113576
0.00210205
0.00151431
0.000482889
0.00056026
0.002876
0.0104472
0.0171325
0.0237622
0.0311344
0.208651
0.104947
0.0376631
0.0308952
0.00343049
0.00108555
0.000180319
6.87979e-05
0.000125355
0.00135641
0.00254135
0.00283449
0.00212169
0.000978909
0.000987951
0.00321049
0.0142295
0.0330011
0.0663351
0.0980088
0.133406
0.189327
0.0325211
0.028064
0.00256759
5.80686e-05
4.06094e-05
4.48799e-05
0.000120659
0.0010995
0.00189274
0.00257463
0.00219737
0.00128777
0.00116829
0.0046932
0.0301664
0.0755923
0.137907
0.173996
0.0475863
0.145859
0.0315919
0.0282327
0.00274464
5.87093e-05
4.8157e-05
5.68587e-05
0.000227698
0.00170339
0.00198977
0.00241051
0.0021579
0.00151892
0.00141668
0.00607002
0.0493635
0.165676
0.255356
0.305119
0.0439859
0.0661978
0.0473177
0.0283532
0.0029661
5.98792e-05
4.5132e-05
6.79379e-05
0.000291746
0.00227761
0.00285677
0.00352953
0.00342838
0.00262371
0.00227486
0.0115011
0.12018
0.393188
0.519427
0.586965
0.0704533
0.0551098
0.0746776
0.0296337
0.0040137
7.7342e-05
5.06444e-05
8.51201e-05
0.000679615
0.00408618
0.00522442
0.00592437
0.00570067
0.00453289
0.0042577
0.0377497
0.34438
0.864197
0.914952
0.926726
0.233523
0.0577458
0.0686691
0.0301438
0.0056494
0.000241155
0.000169115
0.000367188
0.00331287
0.00750452
0.00904205
0.00954651
0.00933073
0.0079539
0.0103824
0.121998
0.584088
1.34698
1.44641
1.24986
0.483928
0.0850911
0.0325594
0.0351479
0.0072937
0.00116387
0.00139157
0.0025377
0.00774421
0.0101086
0.0115738
0.0121821
0.0120436
0.0114818
0.0249896
0.261762
0.963693
1.47345
1.89594
1.63631
0.678634
0.176217
0.0325497
0.0397031
0.00803594
0.00826637
0.00887761
0.00760332
0.0101119
0.0106261
0.00970539
0.0112985
0.0115505
0.0130547
0.0734611
0.480946
1.50829
1.61143
1.60498
2.0768
0.124119
0.215555
0.0711451
0.0371519
0.00949543
0.0101707
0.0105037
0.00979416
0.0107036
0.0107308
0.0101623
0.0107901
0.0116231
0.0310691
0.195611
0.630261
1.64106
1.97332
2.11817
2.57458
0.0059391
0.223909
0.104472
0.0354372
0.00888274
0.00979543
0.0109116
0.0094901
0.0114803
0.0116648
0.010683
0.01234
0.0165419
0.0677805
0.28526
0.732753
1.57649
2.1908
2.36596
1.85287
0.00427334
0.226074
0.106208
0.0392948
0.00938666
0.00990425
0.0110271
0.00972102
0.0116429
0.0117843
0.0104164
0.0126958
0.028282
0.128027
0.328305
0.722134
1.34806
1.61992
1.79925
1.30803
0.00247474
0.132513
0.0898589
0.0467553
0.00983144
0.00900187
0.0110961
0.0103807
0.0118852
0.011921
0.0106174
0.0170415
0.0634432
0.177886
0.319611
0.735773
1.46776
1.71565
1.63557
1.34072
0.00142365
0.0649812
0.0529035
0.0477065
0.0103475
0.00873683
0.0111565
0.0105346
0.0127653
0.0128087
0.0122355
0.0339894
0.120552
0.236094
0.342237
0.742669
1.74617
2.21057
2.1635
1.86862
0.00154055
0.0635895
0.0113936
0.045561
0.011028
0.00886944
0.011266
0.0107451
0.0128926
0.0132227
0.0183935
0.0698491
0.179223
0.305462
0.478014
0.860889
1.7378
2.18747
1.75527
1.27459
0.00172379
0.0906109
0.00408371
0.0430504
0.0116348
0.00974549
0.0112954
0.0111831
0.0123288
0.0138717
0.033053
0.111868
0.226802
0.356091
0.54177
0.94587
1.79545
2.20294
1.89392
1.49479
0.00241777
0.0792404
0.00377364
0.0409512
0.0121969
0.010721
0.0111085
0.0108178
0.0122434
0.0158367
0.0535141
0.147969
0.263418
0.389791
0.55928
0.895708
1.56447
1.6298
0.946407
0.475611
0.00294159
0.00810697
0.00405481
0.0325834
0.012714
0.0109976
0.00997544
0.00994333
0.0100032
0.0175645
0.0697241
0.170426
0.281232
0.397803
0.535576
0.757778
1.19178
0.94385
0.227329
0.0741913
0.00303454
0.000203125
0.0031241
0.0154726
0.0117098
0.0095831
0.00827008
0.00825654
0.00888058
0.0175755
0.0755215
0.179753
0.288349
0.396873
0.506372
0.625266
0.717784
0.291568
0.0135376
0.00126655
0.215768
0.12545
0.0900029
0.0667472
0.0308844
0.00698968
0.00108987
0.00852133
0.00278781
0.00360064
0.00253052
0.00220262
0.00493316
0.00261682
0.00491525
0.0123608
0.0303508
0.038582
0.0316663
0.0375434
0.153165
0.0534964
0.0342072
0.0228194
0.00559126
6.92235e-05
5.36453e-06
0.000249338
0.00024102
0.000657593
0.00103195
0.00180626
0.000989756
0.000411584
0.000480342
0.00270778
0.0106914
0.0174875
0.0242545
0.0311053
0.179558
0.0846914
0.0372444
0.028112
0.00353332
0.000955378
0.000165774
6.7568e-05
0.000120374
0.0012832
0.00233103
0.00265836
0.00179505
0.000701982
0.000816196
0.00311522
0.0137086
0.0317744
0.063706
0.0893578
0.114863
0.134229
0.0326417
0.0280703
0.00234353
5.47665e-05
4.03731e-05
4.45305e-05
0.00011507
0.000948396
0.00164547
0.00235868
0.00193825
0.00107423
0.00100048
0.00461899
0.0263961
0.0736404
0.131154
0.169739
0.0539019
0.12068
0.0316555
0.02862
0.00262915
5.62709e-05
4.77467e-05
5.57994e-05
0.000211868
0.00139909
0.00166256
0.00211626
0.00185289
0.00124317
0.00117019
0.00603744
0.0485791
0.164342
0.255501
0.305061
0.0455191
0.0650239
0.0407113
0.028734
0.00284522
5.92763e-05
4.47691e-05
6.59945e-05
0.00025744
0.0018831
0.00245174
0.00314388
0.0030453
0.00223254
0.00187967
0.0114603
0.120245
0.383376
0.51515
0.583952
0.0583653
0.055197
0.0562875
0.0297963
0.00383728
6.94195e-05
4.896e-05
7.88585e-05
0.000521838
0.00358845
0.00476963
0.00549182
0.00526405
0.00405304
0.00376166
0.037802
0.327865
0.823937
0.90001
0.92142
0.17563
0.0572213
0.0525424
0.0303716
0.0055791
0.000220105
0.000154562
0.000324874
0.00287711
0.00716823
0.00862006
0.0091299
0.0088948
0.00746235
0.0101387
0.123147
0.592781
1.24421
1.39273
1.23869
0.358106
0.0770026
0.0302616
0.0348528
0.00771597
0.00106566
0.00125009
0.00231281
0.00743532
0.010236
0.0114516
0.0120535
0.0118581
0.0111412
0.0236729
0.256592
0.955221
1.396
1.75917
1.61414
0.428261
0.140715
0.0303814
0.0385174
0.00883848
2.09387e-06
0.00901376
2.09387e-06
0.0102104
0.0107154
2.09387e-06
0.0113754
0.0116172
0.0128795
0.0710028
0.481351
1.44348
1.59523
1.62703
2.01482
0.0580586
0.182788
0.053961
0.0372675
0.0071932
2.09387e-06
2.09387e-06
2.09387e-06
2.09387e-06
2.09387e-06
2.09387e-06
2.09387e-06
2.09387e-06
2.09387e-06
2.09387e-06
0.765374
1.5791
1.9217
2.05298
2.36938
0.00465207
0.1902
0.0781456
0.0359347
0.00698618
2.09387e-06
0.0109847
2.09387e-06
0.0115222
0.0117052
2.09387e-06
0.01237
0.0164033
0.0668372
0.284173
0.733404
1.52663
2.05951
2.1887
1.70139
0.00397281
0.184577
0.0803673
0.038239
0.00850699
2.09387e-06
0.0110959
2.09387e-06
0.011681
0.0118211
2.09387e-06
0.0126734
0.0278143
0.127656
0.32789
0.722992
1.35282
1.58676
1.70919
1.30363
0.00184794
0.111935
0.068589
0.0433399
0.0113055
2.09387e-06
0.0111732
2.09387e-06
0.0119272
0.0119622
2.09387e-06
0.0168741
0.0630819
0.177851
0.318874
0.737109
1.46329
1.70507
1.61432
1.3201
0.000986103
0.0555149
0.0373963
0.0441257
0.0157254
2.09387e-06
0.0112398
2.09387e-06
0.01279
0.0128294
2.09387e-06
0.0336302
0.120431
0.236224
0.341319
0.743125
1.69057
2.11229
1.99319
1.68736
0.00107653
0.0506602
0.00844953
0.0432402
0.0222626
2.09387e-06
0.0113584
2.09387e-06
0.0129158
0.0132284
2.09387e-06
0.0695851
0.179229
0.305525
0.477825
0.861809
1.688
2.06064
1.6268
1.20474
0.00115004
0.060941
0.00410024
0.0420322
0.0307023
2.09387e-06
0.0114145
2.09387e-06
0.0123657
0.0138553
2.09387e-06
0.111754
0.226869
0.356165
0.5416
0.947286
1.75004
2.08348
1.74089
1.36668
0.00199304
0.0474039
0.00406718
0.0407828
0.0411971
2.09387e-06
0.0111855
2.09387e-06
0.012266
0.0157308
2.09387e-06
0.147963
0.26355
0.389949
0.559276
0.896944
1.52538
1.54319
0.872486
0.433321
0.00233368
0.00256737
0.00439055
0.0336813
0.0459398
2.09387e-06
2.09387e-06
2.09387e-06
2.09387e-06
2.09387e-06
2.09387e-06
2.09387e-06
2.09387e-06
2.09387e-06
2.09387e-06
1.07794
1.16094
0.88697
0.209349
0.0663166
0.00232168
0.000328325
0.00328999
0.0171903
0.0410427
1.01743e-05
1.01743e-05
1.01743e-05
1.01743e-05
1.01743e-05
1.01743e-05
1.01743e-05
1.01743e-05
1.01743e-05
1.01743e-05
0.777791
0.698536
0.26604
0.0132837
0.00126005
0.214737
0.126538
0.0907833
0.0672873
0.0306873
0.00645488
0.000968391
0.00904672
0.00280761
0.00358877
0.00249448
0.00197093
0.00517618
0.00261281
0.00486972
0.0121695
0.0302684
0.038567
0.0319382
0.0378857
0.144298
0.052353
0.0343801
0.0223896
0.00525857
5.69234e-05
4.92296e-06
0.00022825
0.000224456
0.000589281
0.000942534
0.00149663
0.000796131
0.000380572
0.00041701
0.00253963
0.0109194
0.0178568
0.0246985
0.0312584
0.160998
0.072552
0.0370259
0.0268992
0.00370222
0.000810847
0.000155471
6.59566e-05
0.000115743
0.00122187
0.00210673
0.00244917
0.00139768
0.000484843
0.000663607
0.0029827
0.0135758
0.0315196
0.0621388
0.0844321
0.11371
0.103653
0.0329707
0.0281337
0.00209361
5.3223e-05
4.0149e-05
4.41241e-05
0.000110364
0.000817924
0.00137568
0.00211995
0.00164737
0.000866952
0.000850985
0.00448826
0.0241795
0.0723332
0.126986
0.16607
0.0618066
0.101098
0.0319146
0.0289227
0.00252736
5.5396e-05
4.70952e-05
5.48147e-05
0.000197176
0.00111014
0.00133512
0.00179749
0.0015287
0.000990036
0.00095484
0.00593397
0.0478918
0.163063
0.255347
0.304789
0.0476124
0.0636139
0.037099
0.0291191
0.0027375
5.83753e-05
4.42888e-05
6.43897e-05
0.000231518
0.00147927
0.00202633
0.00272353
0.00262879
0.0018213
0.00148032
0.0113032
0.12049
0.374232
0.510685
0.580521
0.0510089
0.0548499
0.0457548
0.0302156
0.00364688
6.57573e-05
4.80711e-05
7.54501e-05
0.000396426
0.0030338
0.00426339
0.00500937
0.00477948
0.00353023
0.00320576
0.0377039
0.31888
0.786384
0.885126
0.91521
0.134277
0.0564024
0.0430958
0.0310083
0.0053565
0.000190308
0.000131159
0.000255538
0.00236633
0.00673037
0.00813138
0.00864768
0.00839394
0.00688904
0.00961388
0.123722
0.59838
1.16633
1.34046
1.22619
0.245141
0.0712657
0.0288951
0.0353041
0.00788841
0.00102688
0.00117701
0.00210089
0.00704535
0.0102519
0.0113055
0.0119059
0.0116582
0.0108147
0.0227305
0.252194
0.948007
1.3439
1.65397
1.5905
0.258653
0.117855
0.0289962
0.0384726
0.0190093
2.09387e-06
2.09387e-06
2.09387e-06
2.09387e-06
2.09387e-06
2.09387e-06
2.09387e-06
2.09387e-06
2.09387e-06
2.09387e-06
0.48813
1.38929
1.57792
1.63703
1.95129
0.0264394
0.15707
0.0436313
0.0378088
0.0155721
2.09387e-06
2.09387e-06
2.09387e-06
2.09387e-06
2.09387e-06
2.09387e-06
2.09387e-06
2.09387e-06
2.09387e-06
2.09387e-06
0.763913
1.52769
1.86935
1.98873
2.19508
0.00398719
0.163833
0.06022
0.0367395
0.0128352
2.09387e-06
2.09387e-06
2.09387e-06
2.09387e-06
2.09387e-06
2.09387e-06
2.09387e-06
2.09387e-06
2.09387e-06
2.09387e-06
0.9793
1.48772
1.95414
2.05056
1.59307
0.0033927
0.154189
0.0621217
0.0380935
0.0128716
2.09387e-06
2.09387e-06
2.09387e-06
2.09387e-06
2.09387e-06
2.09387e-06
2.09387e-06
2.09387e-06
2.09387e-06
2.09387e-06
1.13171
1.35964
1.57482
1.65451
1.3005
0.00134383
0.0943891
0.0529693
0.041833
0.0150721
2.09387e-06
2.09387e-06
2.09387e-06
2.09387e-06
2.09387e-06
2.09387e-06
2.09387e-06
2.09387e-06
2.09387e-06
2.09387e-06
1.23649
1.45951
1.69587
1.59655
1.30237
0.000633004
0.0452438
0.0264579
0.0425937
0.0193811
2.09387e-06
2.09387e-06
2.09387e-06
2.09387e-06
2.09387e-06
2.09387e-06
2.09387e-06
2.09387e-06
2.09387e-06
2.09387e-06
1.26988
1.64202
2.01993
1.85795
1.55061
0.000555656
0.0362795
0.0068455
0.0425122
0.0261645
2.09387e-06
2.09387e-06
2.09387e-06
2.09387e-06
2.09387e-06
2.09387e-06
2.09387e-06
2.09387e-06
2.09387e-06
2.09387e-06
1.27515
1.64598
1.95751
1.53495
1.16299
0.000854428
0.0361168
0.00436118
0.0421653
0.03469
2.09387e-06
2.09387e-06
2.09387e-06
2.09387e-06
2.09387e-06
2.09387e-06
2.09387e-06
2.09387e-06
2.09387e-06
2.09387e-06
1.36754
1.71261
1.98608
1.61992
1.26859
0.00152206
0.0221189
0.00435853
0.0415103
0.044523
2.09387e-06
2.09387e-06
2.09387e-06
2.09387e-06
2.09387e-06
2.09387e-06
2.09387e-06
2.09387e-06
2.09387e-06
2.09387e-06
1.24654
1.49316
1.47303
0.81682
0.403143
0.00182446
0.00239999
0.00457464
0.0350654
0.0483588
2.09387e-06
2.09387e-06
2.09387e-06
2.09387e-06
2.09387e-06
2.09387e-06
2.09387e-06
2.09387e-06
2.09387e-06
2.09387e-06
1.06904
1.13481
0.84164
0.196034
0.0616823
0.00173183
0.000739335
0.00338143
0.0186385
0.0421034
1.01743e-05
1.01743e-05
1.01743e-05
1.01743e-05
1.01743e-05
1.01743e-05
1.01743e-05
1.01743e-05
1.01743e-05
1.01743e-05
0.771127
0.682376
0.247896
0.0132345
0.00128844
0.213926
0.127529
0.0915265
0.0678326
0.0303565
0.00587612
0.000891405
0.00894033
0.00278263
0.00355021
0.00245945
0.00178547
0.00613697
0.00267542
0.00483169
0.0119915
0.0301292
0.0384575
0.0320784
0.0381141
0.137734
0.0516029
0.0346262
0.0223588
0.00453931
3.64934e-05
4.41589e-06
0.000204439
0.000205013
0.00050872
0.000866952
0.00119508
0.0012024
0.0003769
0.000357579
0.00238536
0.0111125
0.0181894
0.0250885
0.0314864
0.15047
0.0653176
0.0369887
0.026464
0.00386222
0.000648312
0.000144212
6.47342e-05
0.000111141
0.00117019
0.00188092
0.00221524
0.000921966
0.000360499
0.000545786
0.00281859
0.0136057
0.0315889
0.0612378
0.081632
0.122252
0.0861337
0.0333951
0.0282087
0.00183703
5.12005e-05
3.99481e-05
4.37999e-05
0.000105136
0.000711672
0.00110876
0.00187054
0.00133797
0.000691386
0.000724287
0.00429788
0.0229523
0.0714254
0.124447
0.16304
0.0720335
0.0868233
0.0321941
0.0291735
0.00243786
5.50661e-05
4.67183e-05
5.38354e-05
0.00018482
0.000863209
0.00102827
0.00146635
0.00120729
0.00077875
0.000784336
0.00575792
0.0473035
0.161886
0.254916
0.304267
0.0500223
0.0619349
0.0350343
0.0294899
0.00265061
5.70528e-05
4.3966e-05
6.26517e-05
0.000210577
0.00109563