/*--------------------------------*- C++ -*----------------------------------*\
| =========                 |                                                 |
| \\      /  F ield         | OpenFOAM: The Open Source CFD Toolbox           |
|  \\    /   O peration     | Version:  2.3.0                                 |
|   \\  /    A nd           | Web:      www.OpenFOAM.org                      |
|    \\/     M anipulation  |                                                 |
\*---------------------------------------------------------------------------*/
FoamFile
{
    version     2.0;
    format      ascii;
    class       volScalarField;
    location    "3.60002";
    object      nut.air;
}
// * * * * * * * * * * * * * * * * * * * * * * * * * * * * * * * * * * * * * //

dimensions      [0 2 -1 0 0 0 0];

internalField   nonuniform List<scalar> 
10000
(
5.15984e-06
3.649e-06
3.17566e-06
1.72394e-06
6.81883e-07
1.61418e-07
1.84657e-08
3.26652e-08
2.06673e-08
1.66817e-08
8.96152e-08
1.51986e-07
2.18461e-07
9.93246e-08
1.8025e-07
4.77119e-07
1.27004e-06
1.41515e-06
9.17553e-07
9.88753e-07
4.84078e-06
1.57259e-06
2.92677e-06
2.61693e-06
1.15981e-07
1.97648e-09
1.21501e-10
1.71438e-08
2.14861e-08
3.22753e-08
1.17786e-07
2.4025e-07
2.14605e-07
9.61637e-08
8.25075e-08
2.56288e-07
5.71744e-07
7.17282e-07
9.22084e-07
1.4546e-06
7.26797e-06
4.23059e-06
2.1813e-06
2.45279e-06
8.75384e-08
8.12515e-08
5.06852e-08
2.74886e-08
3.59982e-08
1.68881e-07
2.90141e-07
3.27539e-07
2.7123e-07
1.94413e-07
1.45713e-07
2.45725e-07
2.30486e-06
2.39487e-06
3.11217e-06
5.84653e-06
5.15144e-06
1.13119e-05
1.10836e-06
1.37419e-06
1.25274e-07
1.00523e-08
2.01533e-08
2.14155e-08
3.85165e-08
1.78873e-07
2.65798e-07
3.12194e-07
2.82445e-07
1.96216e-07
1.30273e-07
3.67427e-07
2.89691e-06
4.4878e-06
8.82559e-06
1.18684e-05
7.69007e-07
6.01294e-06
1.00577e-06
1.6134e-06
2.06032e-07
7.856e-09
2.25424e-08
2.49788e-08
5.74501e-08
2.70969e-07
2.72856e-07
2.95129e-07
2.69345e-07
2.05576e-07
1.95057e-07
2.3481e-07
4.52631e-06
1.21837e-05
2.528e-05
3.43656e-05
7.63269e-07
3.69251e-06
4.59899e-06
1.95239e-06
4.06623e-07
5.57324e-09
2.11957e-08
2.71572e-08
6.75748e-08
3.19945e-07
3.204e-07
4.07727e-07
4.17188e-07
3.68187e-07
3.98249e-07
3.22953e-07
1.1324e-05
2.36436e-05
3.97684e-05
5.39122e-05
3.50198e-06
2.5381e-06
5.68734e-06
2.34797e-06
8.91543e-07
7.02437e-09
1.5792e-08
2.30544e-08
1.51015e-07
4.53358e-07
5.41621e-07
8.57249e-07
7.4682e-07
9.34161e-07
6.95635e-07
7.96887e-07
2.95122e-05
4.17521e-05
5.17226e-05
7.09343e-05
1.26195e-05
1.40058e-06
5.80246e-06
2.32577e-06
1.34328e-06
1.90102e-08
2.71436e-08
6.84852e-08
4.11798e-07
9.84049e-07
1.91986e-06
1.32392e-06
7.06695e-07
6.00449e-07
4.32509e-07
2.33838e-06
3.43475e-05
6.15825e-05
6.36491e-05
7.97358e-05
9.65364e-06
3.22259e-06
1.90964e-06
2.79622e-06
1.1704e-06
6.47117e-07
1.15975e-06
2.08622e-06
4.50318e-06
4.78536e-06
2.98645e-06
7.06615e-07
4.93952e-07
3.76321e-07
5.0876e-07
5.94744e-06
6.91784e-05
7.69286e-05
7.92858e-05
8.56513e-05
2.15464e-05
8.22243e-06
1.59667e-06
3.08431e-06
4.64646e-07
2.73074e-06
4.29598e-06
4.96697e-06
5.25075e-06
4.96573e-06
4.60854e-06
5.40563e-06
5.53133e-06
4.564e-06
1.2699e-05
4.58331e-05
9.09484e-05
8.95975e-05
5.95535e-05
8.86583e-05
1.14183e-05
7.1122e-06
6.3531e-06
2.24697e-06
1.17469e-06
4.33297e-06
5.96816e-06
9.11042e-06
8.05868e-06
7.82459e-06
6.78311e-06
7.90834e-06
7.39361e-06
8.26462e-06
3.36936e-05
6.69093e-05
0.000105308
9.58047e-05
8.74174e-05
9.73058e-05
3.69694e-07
8.85111e-06
7.32276e-06
2.04344e-06
1.10721e-06
3.83011e-06
9.5251e-06
7.37843e-06
1.32388e-05
1.34597e-05
9.06638e-06
1.37275e-05
1.06487e-05
1.7905e-05
5.11684e-05
8.60556e-05
0.000116213
0.000107512
9.52309e-05
0.000107924
2.35006e-07
1.06431e-05
7.16901e-06
3.15139e-06
1.26048e-06
4.83401e-06
1.00667e-05
7.44143e-06
1.36511e-05
1.39466e-05
9.2909e-06
1.15785e-05
1.13072e-05
3.24403e-05
5.79846e-05
8.73707e-05
0.000118731
0.000100236
8.90109e-05
0.000100881
1.6777e-07
6.13875e-06
6.31645e-06
4.14166e-06
1.12168e-06
3.4084e-06
9.44562e-06
7.55103e-06
1.21677e-05
1.23095e-05
8.57995e-06
1.03432e-05
2.17325e-05
4.40559e-05
5.55154e-05
8.22519e-05
0.000115806
9.71682e-05
7.19391e-05
6.61975e-05
8.88638e-08
3.47332e-06
4.85786e-06
4.15356e-06
1.08621e-06
2.41225e-06
8.93795e-06
7.53312e-06
9.46538e-06
9.66429e-06
8.54188e-06
1.50281e-05
3.80285e-05
5.70304e-05
5.91979e-05
8.0289e-05
0.000118348
9.12503e-05
7.09227e-05
6.53001e-05
6.32361e-08
3.20014e-06
1.14697e-06
3.87006e-06
1.25161e-06
2.58706e-06
8.47723e-06
8.30124e-06
1.02895e-05
1.0622e-05
1.06086e-05
2.71681e-05
5.31515e-05
7.12304e-05
8.14338e-05
9.47554e-05
0.000117991
9.15037e-05
6.11118e-05
4.51453e-05
7.39355e-08
6.35701e-06
8.42455e-07
3.57635e-06
1.56658e-06
3.27404e-06
6.78365e-06
1.1107e-05
1.27798e-05
1.3171e-05
1.6048e-05
4.02813e-05
6.48712e-05
8.08788e-05
8.84333e-05
9.6482e-05
0.000113857
8.53909e-05
5.79437e-05
4.4377e-05
1.12892e-07
6.12171e-06
1.51808e-06
3.46975e-06
1.92126e-06
3.96505e-06
4.18363e-06
9.29888e-06
8.36359e-06
1.00971e-05
2.30856e-05
5.00197e-05
7.29511e-05
8.74093e-05
9.27507e-05
9.51912e-05
0.000104413
6.69832e-05
3.31095e-05
1.80636e-05
7.62049e-07
2.45701e-06
4.69132e-07
2.63074e-06
2.55755e-06
4.7429e-06
4.00599e-06
8.18973e-06
6.69833e-06
9.66079e-06
2.78182e-05
5.46781e-05
7.59275e-05
8.9e-05
9.25233e-05
8.88762e-05
8.84143e-05
4.42317e-05
1.03075e-05
4.24534e-06
1.45029e-05
3.07086e-07
1.19658e-07
7.96456e-07
3.59401e-06
3.90103e-06
4.32359e-06
6.70657e-06
7.09368e-06
9.56381e-06
2.95746e-05
5.69855e-05
7.79166e-05
9.09711e-05
9.44814e-05
8.68879e-05
6.63979e-05
1.8223e-05
7.30854e-07
9.72449e-08
5.27263e-06
3.8894e-06
3.22998e-06
2.10099e-06
7.14042e-07
1.51823e-07
1.51169e-08
3.21003e-08
2.23482e-08
1.64779e-08
8.48629e-08
1.3838e-07
2.10145e-07
8.96638e-08
1.80186e-07
4.79477e-07
1.35926e-06
1.53699e-06
1.01023e-06
1.1136e-06
4.93563e-06
1.90573e-06
3.03438e-06
1.98427e-06
1.5471e-07
1.39395e-09
7.85928e-11
1.63601e-08
2.15955e-08
3.1284e-08
1.03838e-07
2.25481e-07
1.94734e-07
7.21862e-08
7.19184e-08
2.41443e-07
7.59332e-07
8.77465e-07
1.18625e-06
1.39429e-06
7.08117e-06
4.18174e-06
2.42928e-06
2.34041e-06
1.16933e-07
7.66641e-08
4.84302e-08
2.72004e-08
3.53738e-08
1.65319e-07
2.85857e-07
3.24339e-07
2.61508e-07
1.83323e-07
1.43789e-07
4.8226e-07
1.62572e-06
2.25642e-06
3.27989e-06
5.5965e-06
4.9863e-06
9.26189e-06
1.43644e-06
1.76044e-06
1.29396e-07
1.0126e-08
2.0035e-08
2.12807e-08
3.75787e-08
1.71513e-07
2.59449e-07
3.06838e-07
2.77314e-07
1.93513e-07
1.29606e-07
7.26382e-07
2.59137e-06
4.3852e-06
9.09349e-06
1.21462e-05
1.34014e-06
6.02257e-06
1.22103e-06
1.98883e-06
1.98717e-07
7.33604e-09
2.23521e-08
2.46238e-08
5.5062e-08
2.60683e-07
2.64118e-07
2.88484e-07
2.62562e-07
1.98007e-07
1.79274e-07
7.02541e-07
4.6732e-06
1.24321e-05
2.54978e-05
3.44554e-05
9.4616e-07
3.91581e-06
3.3386e-06
2.20361e-06
3.60421e-07
6.07904e-09
2.12128e-08
2.69398e-08
6.00544e-08
3.08606e-07
3.12537e-07
3.55619e-07
3.78655e-07
3.35502e-07
3.30741e-07
5.5969e-07
1.19417e-05
2.38793e-05
3.99585e-05
5.39687e-05
2.7426e-06
2.97023e-06
4.8788e-06
2.34704e-06
8.35014e-07
6.68949e-09
1.65384e-08
2.26626e-08
1.33342e-07
4.35923e-07
5.12398e-07
7.50497e-07
7.6916e-07
9.78365e-07
8.32044e-07
1.00507e-06
2.8108e-05
4.2006e-05
5.19881e-05
7.10149e-05
9.14238e-06
1.79615e-06
4.71256e-06
2.32554e-06
1.41866e-06
1.7027e-08
2.45294e-08
5.91451e-08
3.86073e-07
8.25113e-07
1.51417e-06
1.88783e-06
1.14132e-06
1.5727e-06
8.33757e-07
2.54739e-06
3.75598e-05
6.0316e-05
6.39963e-05
7.98729e-05
9.9735e-06
3.15662e-06
1.99241e-06
2.75924e-06
1.37723e-06
6.10603e-07
1.10262e-06
1.98645e-06
4.36176e-06
5.05041e-06
3.25846e-06
7.5967e-07
5.33745e-07
5.02382e-07
6.6614e-07
5.79685e-06
6.93068e-05
7.5519e-05
7.77442e-05
8.59024e-05
1.82805e-05
7.01034e-06
1.41081e-06
3.08122e-06
8.13913e-07
3.00738e-06
4.59208e-06
5.28644e-06
5.56644e-06
5.2802e-06
4.9093e-06
5.70374e-06
5.82858e-06
4.86279e-06
1.30401e-05
4.6481e-05
9.03821e-05
8.98768e-05
6.40244e-05
8.89391e-05
8.17761e-06
7.09788e-06
5.10298e-06
2.52645e-06
1.39799e-06
4.38065e-06
6.1898e-06
9.12505e-06
8.29271e-06
8.06124e-06
7.01847e-06
8.1486e-06
7.62929e-06
8.53856e-06
3.39838e-05
6.73221e-05
0.000104809
9.60151e-05
8.77056e-05
9.71807e-05
4.25057e-07
8.31556e-06
6.29291e-06
2.31234e-06
1.35455e-06
4.0122e-06
9.54199e-06
7.60157e-06
1.32507e-05
1.3471e-05
9.30165e-06
1.37459e-05
1.06783e-05
1.8159e-05
5.11767e-05
8.62069e-05
0.000115754
0.000106023
9.33211e-05
0.000104118
2.44453e-07
9.40424e-06
6.31813e-06
3.0561e-06
1.50638e-06
4.85953e-06
1.00777e-05
7.66549e-06
1.36611e-05
1.39556e-05
9.52404e-06
1.18156e-05
1.15624e-05
3.27241e-05
5.82714e-05
8.73983e-05
0.000119054
9.86711e-05
8.675e-05
0.000101485
1.75016e-07
6.10498e-06
5.5559e-06
3.84349e-06
1.39697e-06
3.45507e-06
9.45672e-06
7.78114e-06
1.21861e-05
1.23269e-05
8.81454e-06
1.0588e-05
2.20047e-05
4.43452e-05
5.58023e-05
8.25576e-05
0.000116045
9.75193e-05
7.28278e-05
6.7577e-05
9.12899e-08
3.66292e-06
4.19524e-06
3.88421e-06
1.37578e-06
2.64284e-06
8.95692e-06
7.76474e-06
9.69428e-06
9.89429e-06
8.78385e-06
1.52871e-05
3.83113e-05
5.73222e-05
5.94689e-05
8.06898e-05
0.000117931
9.15316e-05
6.95271e-05
6.32582e-05
7.20146e-08
2.82553e-06
1.1544e-06
3.69253e-06
1.55553e-06
2.8112e-06
8.4973e-06
8.53066e-06
1.05176e-05
1.08522e-05
1.0865e-05
2.74411e-05
5.34374e-05
7.15229e-05
8.17372e-05
9.51546e-05
0.000117733
9.0477e-05
5.96829e-05
4.35485e-05
1.14029e-07
5.4144e-06
4.46425e-07
3.40616e-06
1.8805e-06
3.50027e-06
6.82525e-06
1.11138e-05
1.28021e-05
1.31925e-05
1.63164e-05
4.05605e-05
6.51588e-05
8.1173e-05
8.87386e-05
9.68679e-05
0.000113777
8.47408e-05
5.69105e-05
4.35312e-05
2.28315e-07
5.30355e-06
6.3604e-07
3.22764e-06
2.2622e-06
4.18741e-06
4.41371e-06
9.31275e-06
8.59471e-06
1.03371e-05
2.33558e-05
5.03039e-05
7.32409e-05
8.7705e-05
9.30575e-05
9.55747e-05
0.000104432
6.67901e-05
3.28177e-05
1.77866e-05
1.82292e-06
1.79424e-06
4.21677e-07
2.45236e-06
2.91468e-06
4.78631e-06
4.22544e-06
8.20109e-06
6.9338e-06
9.91447e-06
2.80868e-05
5.49498e-05
7.61984e-05
8.92709e-05
9.27979e-05
8.92192e-05
8.85744e-05
4.41488e-05
1.03139e-05
4.17805e-06
1.53931e-05
1.85087e-07
9.19523e-07
8.90733e-07
3.90041e-06
4.12932e-06
4.34125e-06
6.72287e-06
7.32227e-06
9.81453e-06
2.98442e-05
5.72556e-05
7.81866e-05
9.12412e-05
9.47556e-05
8.72124e-05
6.66311e-05
1.79311e-05
7.57162e-07
1.00623e-07
5.46976e-06
4.12455e-06
3.27472e-06
2.3314e-06
7.28612e-07
1.44505e-07
1.34359e-08
3.18622e-08
2.36249e-08
1.50718e-08
8.24362e-08
1.20325e-07
1.91481e-07
8.14214e-08
1.76801e-07
4.78907e-07
1.4358e-06
1.6534e-06
1.08712e-06
1.21171e-06
5.07365e-06
2.34053e-06
3.18347e-06
1.88739e-06
1.79613e-07
1.18115e-09
6.53527e-11
1.59047e-08
2.17754e-08
3.02441e-08
9.39989e-08
2.01893e-07
1.6277e-07
4.75558e-08
5.87838e-08
2.22767e-07
1.3258e-06
1.56565e-06
1.60625e-06
1.50309e-06
6.757e-06
3.97382e-06
2.78223e-06
2.3398e-06
1.3531e-07
7.3327e-08
4.73092e-08
2.688e-08
3.50355e-08
1.58399e-07
2.7782e-07
3.18801e-07
2.45684e-07
1.6507e-07
1.35463e-07
5.9496e-07
1.26414e-06
2.15493e-06
3.61727e-06
5.72469e-06
4.65568e-06
7.63123e-06
1.84647e-06
2.22193e-06
1.30479e-07
1.01312e-08
1.99741e-08
2.11738e-08
3.70803e-08
1.59934e-07
2.48073e-07
2.9722e-07
2.68103e-07
1.87303e-07
1.24868e-07
9.72807e-07
2.6201e-06
4.77863e-06
9.60665e-06
1.26764e-05
2.14071e-06
6.04988e-06
1.62059e-06
2.48314e-06
1.96116e-07
7.08601e-09
2.21847e-08
2.44371e-08
5.36125e-08
2.42869e-07
2.48669e-07
2.76478e-07
2.50336e-07
1.85094e-07
1.59255e-07
1.15694e-06
4.96407e-06
1.28085e-05
2.58707e-05
3.46087e-05
1.41441e-06
4.20191e-06
2.68499e-06
2.66677e-06
3.28282e-07
6.38694e-09
2.1115e-08
2.67687e-08
5.54178e-08
2.88338e-07
2.97848e-07
3.3805e-07
3.37199e-07
3.09827e-07
2.78246e-07
1.15634e-06
1.2835e-05
2.43493e-05
4.03325e-05
5.40795e-05
1.97481e-06
3.47759e-06
4.22394e-06
2.69736e-06
7.71523e-07
6.53771e-09
1.6856e-08
2.25887e-08
1.10658e-07
4.16351e-07
4.84819e-07
6.63003e-07
6.86234e-07
8.15227e-07
8.15342e-07
1.64152e-06
2.85087e-05
4.24196e-05
5.2512e-05
7.11718e-05
6.93247e-06
2.37563e-06
4.01308e-06
2.63825e-06
1.47563e-06
1.62041e-08
2.34578e-08
5.46125e-08
3.61822e-07
7.66793e-07
1.27702e-06
2.49805e-06
2.04555e-06
2.69839e-06
1.64727e-06
3.33225e-06
4.23132e-05
5.98237e-05
6.46148e-05
8.01375e-05
1.01252e-05
3.08414e-06
2.06065e-06
2.98029e-06
1.6184e-06
5.65412e-07
1.03229e-06
1.87608e-06
4.25076e-06
4.69968e-06
3.81746e-06
1.321e-06
8.52096e-07
3.4584e-06
2.15638e-06
6.28341e-06
6.94002e-05
7.51581e-05
7.71809e-05
8.63452e-05
1.54165e-05
6.11193e-06
1.56081e-06
3.2502e-06
1.17128e-06
3.21528e-06
4.83018e-06
5.52187e-06
5.83139e-06
5.55437e-06
5.15269e-06
5.96549e-06
6.08964e-06
5.11877e-06
1.32688e-05
4.73854e-05
9.01981e-05
9.03288e-05
7.01304e-05
8.95171e-05
5.61856e-06
7.11451e-06
4.18079e-06
2.94385e-06
1.66633e-06
4.45115e-06
6.36519e-06
9.14681e-06
8.47033e-06
8.23989e-06
7.19975e-06
8.32949e-06
7.80755e-06
8.73663e-06
3.42018e-05
6.77157e-05
0.000104652
9.64791e-05
8.82321e-05
9.69612e-05
4.20051e-07
8.00948e-06
5.49651e-06
2.76315e-06
1.61332e-06
4.15627e-06
9.56913e-06
7.77451e-06
1.32714e-05
1.3491e-05
9.48153e-06
1.37789e-05
1.07355e-05
1.83274e-05
5.1191e-05
8.64412e-05
0.000115699
0.000105301
9.22738e-05
0.000101814
2.40983e-07
8.57262e-06
5.65175e-06
3.20675e-06
1.76238e-06
4.89732e-06
1.00984e-05
7.83979e-06
1.3679e-05
1.39721e-05
9.70436e-06
1.20239e-05
1.17454e-05
3.29435e-05
5.85105e-05
8.74519e-05
0.000119531
9.87566e-05
8.60412e-05
0.000102241
1.69967e-07
6.03327e-06
4.99395e-06
3.76696e-06
1.69329e-06
3.52028e-06
9.47735e-06
7.96052e-06
1.22172e-05
1.23565e-05
8.99651e-06
1.07868e-05
2.22012e-05
4.45818e-05
5.60332e-05
8.28341e-05
0.000116562
9.81781e-05
7.42248e-05
6.97228e-05
1.13184e-07
3.7582e-06
3.59015e-06
3.81668e-06
1.68445e-06
2.85387e-06
8.98749e-06
7.94438e-06
9.88705e-06
1.00867e-05
8.96858e-06
1.54697e-05
3.85319e-05
5.75661e-05
5.96697e-05
8.10953e-05
0.000117863
9.20424e-05
6.87933e-05
6.19813e-05
1.02728e-07
2.86392e-06
1.15622e-06
3.72381e-06
1.86989e-06
3.01261e-06
8.53066e-06
8.70443e-06
1.07071e-05
1.10418e-05
1.10562e-05
2.76415e-05
5.36683e-05
7.17692e-05
8.20048e-05
9.55662e-05
0.000117779
9.00575e-05
5.91445e-05
4.34642e-05
1.59058e-07
4.58684e-06
4.14425e-07
3.53032e-06
2.19122e-06
3.68828e-06
6.88948e-06
1.11249e-05
1.28399e-05
1.32291e-05
1.65156e-05
4.0777e-05
6.5395e-05
8.14233e-05
8.90089e-05
9.72546e-05
0.000114004
8.45179e-05
5.63071e-05
4.31098e-05
3.91936e-07
4.62915e-06
2.91359e-07
3.38016e-06
2.58862e-06
4.36768e-06
4.63328e-06
9.33275e-06
8.79158e-06
1.05279e-05
2.35567e-05
5.05305e-05
7.34809e-05
8.79571e-05
9.33289e-05
9.5949e-05
0.000104724
6.69535e-05
3.28894e-05
1.77294e-05
2.99903e-06
1.25775e-06
4.93255e-07
2.85561e-06
3.24813e-06
4.85146e-06
4.41019e-06
8.21845e-06
7.11844e-06
1.01045e-05
2.82866e-05
5.51528e-05
7.64012e-05
8.94737e-05
9.30046e-05
8.95151e-05
8.8995e-05
4.44001e-05
1.03602e-05
4.08113e-06
1.6279e-05
5.02829e-08
1.35271e-06
2.35334e-06
4.17445e-06
4.32124e-06
4.37607e-06
6.75157e-06
7.5069e-06
1.00067e-05
3.00467e-05
5.7458e-05
7.83888e-05
9.14435e-05
9.49615e-05
8.7481e-05
6.70718e-05
1.8001e-05
8.2462e-07
1.04857e-07
5.68058e-06
4.37319e-06
3.37276e-06
2.49197e-06
7.35489e-07
1.34874e-07
1.12517e-08
3.34642e-08
2.4963e-08
1.44013e-08
7.98439e-08
1.03493e-07
1.74127e-07
7.71704e-08
1.7504e-07
4.74522e-07
1.49024e-06
1.73792e-06
1.15894e-06
1.31104e-06
5.26316e-06
2.83967e-06
3.41754e-06
2.1866e-06
1.91346e-07
7.9279e-10
4.56474e-11
1.54289e-08
2.14951e-08
2.98175e-08
8.35864e-08
1.72327e-07
1.19361e-07
2.84632e-08
4.64143e-08
1.99384e-07
1.86212e-06
2.17737e-06
2.11412e-06
2.06704e-06
6.40277e-06
3.7826e-06
3.16697e-06
2.4853e-06
1.49234e-07
6.79201e-08
4.56276e-08
2.67153e-08
3.4567e-08
1.50881e-07
2.66645e-07
3.10889e-07
2.2456e-07
1.40824e-07
1.236e-07
6.18231e-07
1.28742e-06
2.40928e-06
4.22098e-06
5.89502e-06
4.28158e-06
6.36864e-06
2.33453e-06
2.71072e-06
1.30544e-07
1.00058e-08
1.9897e-08
2.10908e-08
3.63827e-08
1.46463e-07
2.32494e-07
2.8434e-07
2.55166e-07
1.7793e-07
1.17195e-07
1.17901e-06
2.78405e-06
5.35099e-06
1.0357e-05
1.34368e-05
3.02455e-06
5.91108e-06
2.13659e-06
3.00862e-06
1.94811e-07
6.55588e-09
2.20731e-08
2.41686e-08
5.18405e-08
2.19804e-07
2.28277e-07
2.60191e-07
2.33827e-07
1.68689e-07
1.33923e-07
1.40022e-06
5.36152e-06
1.33354e-05
2.63089e-05
3.4781e-05
2.00065e-06
4.5082e-06
2.57017e-06
3.17832e-06
2.95424e-07
7.19933e-09
2.11205e-08
2.64979e-08
5.19012e-08
2.61213e-07
2.77323e-07
3.20792e-07
3.08365e-07
2.7414e-07
2.33522e-07
1.92947e-06
1.3744e-05
2.50546e-05
4.08778e-05
5.42403e-05
2.11051e-06
3.95662e-06
3.73926e-06
3.25105e-06
6.96576e-07
6.20225e-09
1.74544e-08
2.26579e-08
8.98168e-08
3.89602e-07
4.36324e-07
5.89003e-07
5.99488e-07
6.58545e-07
6.37426e-07
3.1664e-06
2.94649e-05
4.29678e-05
5.32862e-05
7.13995e-05
5.78929e-06
3.05202e-06
3.57276e-06
3.19064e-06
1.46301e-06
1.4886e-08
2.18365e-08
4.87765e-08
3.30756e-07
7.22537e-07
1.04488e-06
2.75476e-06
2.42276e-06
2.46493e-06
1.72842e-06
4.44197e-06
4.64714e-05
6.00813e-05
6.54526e-05
8.05154e-05
9.83806e-06
3.15637e-06
2.15924e-06
3.46389e-06
1.83007e-06
5.20039e-07
9.61453e-07
1.75259e-06
4.08099e-06
3.95089e-06
3.72657e-06
4.26985e-06
3.95256e-06
3.57417e-06
2.91405e-06
6.74713e-06
7.02021e-05
7.56984e-05
7.74961e-05
8.69445e-05
1.28188e-05
5.77594e-06
1.89068e-06
3.63684e-06
1.45746e-06
3.35283e-06
5.00728e-06
5.67634e-06
6.03039e-06
5.76537e-06
5.32164e-06
6.16686e-06
6.29238e-06
5.3292e-06
1.33909e-05
4.80122e-05
9.03157e-05
9.09545e-05
7.57449e-05
9.02823e-05
3.70617e-06
7.102e-06
3.61465e-06
3.47133e-06
1.87961e-06
4.51759e-06
6.48493e-06
9.16857e-06
8.58819e-06
8.35766e-06
7.32154e-06
8.44878e-06
7.92785e-06
8.8646e-06
3.43473e-05
6.80278e-05
0.000104802
9.71347e-05
8.89451e-05
9.6916e-05
3.70925e-07
7.83918e-06
4.9126e-06
3.32422e-06
1.81262e-06
4.2539e-06
9.60277e-06
7.89217e-06
1.32985e-05
1.35169e-05
9.60325e-06
1.38231e-05
1.0818e-05
1.84156e-05
5.12097e-05
8.67089e-05
0.000115994
0.00010526
9.20282e-05
0.000101071
2.35043e-07
8.01844e-06
5.11886e-06
3.55829e-06
1.95948e-06
4.93669e-06
1.01266e-05
7.95881e-06
1.37026e-05
1.3994e-05
9.82801e-06
1.22033e-05
1.18616e-05
3.31006e-05
5.8704e-05
8.75261e-05
0.000120141
9.99818e-05
8.67414e-05
0.000103022
1.68146e-07
5.89482e-06
4.56681e-06
3.9262e-06
1.93012e-06
3.58136e-06
9.5054e-06
8.08397e-06
1.22549e-05
1.23924e-05
9.1219e-06
1.09429e-05
2.23246e-05
4.47672e-05
5.62094e-05
8.30746e-05
0.000117297
9.91357e-05
7.5943e-05
7.22447e-05
1.42287e-07
3.73941e-06
3.16429e-06
3.9792e-06
1.93403e-06
3.00772e-06
9.02432e-06
8.06731e-06
1.00365e-05
1.02349e-05
9.09459e-06
1.55791e-05
3.86919e-05
5.77637e-05
5.98046e-05
8.14606e-05
0.000118081
9.2758e-05
6.8696e-05
6.15275e-05
1.49999e-07
2.93977e-06
1.03901e-06
4.00665e-06
2.11902e-06
3.15794e-06
8.57147e-06
8.82082e-06
1.08527e-05
1.11871e-05
1.11838e-05
2.77712e-05
5.38452e-05
7.19698e-05
8.22369e-05
9.59492e-05
0.000118087
9.01366e-05
5.95159e-05
4.4666e-05
2.23079e-07
3.92401e-06
4.26879e-07
3.98805e-06
2.43166e-06
3.81941e-06
6.96054e-06
1.11372e-05
1.28861e-05
1.32764e-05
1.66476e-05
4.09321e-05
6.55805e-05
8.16302e-05
8.92441e-05
9.76061e-05
0.000114502
8.47049e-05
5.615e-05
4.31285e-05
5.56897e-07
3.87781e-06
4.63345e-07
4.00169e-06
2.835e-06
4.49277e-06
4.81322e-06
9.3523e-06
8.94451e-06
1.06681e-05
2.36899e-05
5.07005e-05
7.36719e-05
8.81663e-05
9.35649e-05
9.62822e-05
0.000105254
6.74476e-05
3.3311e-05
1.78829e-05
3.93881e-06
7.4055e-07
1.12238e-06
3.91286e-06
3.49509e-06
4.91462e-06
4.54136e-06
8.23646e-06
7.24573e-06
1.02318e-05
2.84191e-05
5.52877e-05
7.65362e-05
8.96089e-05
9.31429e-05
8.97356e-05
8.96449e-05
4.49698e-05
1.05116e-05
4.02755e-06
1.65227e-05
1.23838e-08
2.20835e-06
4.957e-06
4.37771e-06
4.4613e-06
4.41992e-06
6.78493e-06
7.63847e-06
1.01392e-05
3.01826e-05
5.75933e-05
7.85238e-05
9.15784e-05
9.50991e-05
8.76754e-05
6.77029e-05
1.84496e-05
9.65988e-07
1.12059e-07
5.88599e-06
4.54793e-06
3.4541e-06
2.59313e-06
7.3608e-07
1.24435e-07
9.62885e-09
3.42388e-08
2.54614e-08
1.39687e-08
7.64174e-08
8.65014e-08
1.56254e-07
7.35023e-08
1.73601e-07
4.68328e-07
1.52255e-06
1.78489e-06
1.21525e-06
1.38825e-06
5.54992e-06
3.39e-06
3.76264e-06
2.63192e-06
1.9087e-07
6.17054e-10
3.72533e-11
1.48616e-08
2.15081e-08
2.84318e-08
7.4631e-08
1.38915e-07
6.60536e-08
1.85979e-08
3.77293e-08
1.80619e-07
2.37805e-06
2.66753e-06
2.6194e-06
2.7827e-06
6.17664e-06
3.74615e-06
3.55534e-06
2.82229e-06
1.62354e-07
6.07037e-08
4.41566e-08
2.63679e-08
3.40787e-08
1.44082e-07
2.52934e-07
2.99197e-07
1.97093e-07
1.11586e-07
1.09288e-07
5.7958e-07
1.72257e-06
2.87832e-06
4.98621e-06
6.27485e-06
4.14184e-06
5.58367e-06
2.8904e-06
3.21984e-06
1.28838e-07
9.93e-09
1.98316e-08
2.09718e-08
3.5707e-08
1.32897e-07
2.13311e-07
2.71001e-07
2.38589e-07
1.65521e-07
1.0784e-07
1.26629e-06
2.91846e-06
5.98287e-06
1.13332e-05
1.43656e-05
3.89953e-06
5.68698e-06
2.74023e-06
3.52657e-06
1.90295e-07
6.29608e-09
2.18919e-08
2.39375e-08
4.9738e-08
1.93447e-07
2.04436e-07
2.39928e-07
2.14007e-07
1.50452e-07
1.12297e-07
1.5341e-06
5.78251e-06
1.39934e-05
2.67821e-05
3.49652e-05
2.63984e-06
4.82262e-06
2.7375e-06
3.69578e-06
2.65863e-07
7.70433e-09
2.09791e-08
2.61785e-08
4.8862e-08
2.28957e-07
2.51777e-07
2.98882e-07
2.86217e-07
2.29779e-07
1.95434e-07
2.23014e-06
1.44494e-05
2.59858e-05
4.15761e-05
5.44449e-05
2.13413e-06
4.38765e-06
3.44856e-06
3.8743e-06
6.23938e-07
6.05019e-09
1.77662e-08
2.27347e-08
7.23054e-08
3.56142e-07
3.88119e-07
5.38336e-07
5.36841e-07
5.38519e-07
5.02843e-07
5.07101e-06
3.06335e-05
4.3678e-05
5.43032e-05
7.16871e-05
5.29578e-06
3.71138e-06
3.30672e-06
3.86732e-06
1.4221e-06
1.41644e-08
2.09866e-08
4.46003e-08
2.95697e-07
6.79342e-07
8.96504e-07
2.24618e-06
1.99568e-06
2.30796e-06
1.7229e-06
6.48163e-06
4.95866e-05
6.10083e-05
6.6506e-05
8.09868e-05
9.10127e-06
3.62504e-06
2.34716e-06
4.14829e-06
1.98947e-06
4.76607e-07
8.94957e-07
1.63409e-06
3.89516e-06
3.17902e-06
3.24506e-06
4.26684e-06
3.72189e-06
3.61455e-06
3.44128e-06
6.54642e-06
7.09457e-05
7.68726e-05
7.85371e-05
8.76749e-05
1.04109e-05
5.69712e-06
2.21838e-06
4.23117e-06
1.60919e-06
3.42236e-06
5.12487e-06
5.75201e-06
6.1606e-06
5.90592e-06
5.40869e-06
6.29849e-06
6.4269e-06
5.49282e-06
1.34163e-05
4.8985e-05
9.06763e-05
9.17195e-05
8.04755e-05
9.11956e-05
2.38617e-06
7.11046e-06
3.33822e-06
4.09432e-06
1.9977e-06
4.55921e-06
6.54546e-06
9.1832e-06
8.64651e-06
8.41546e-06
7.38241e-06
8.50741e-06
7.98932e-06
8.92692e-06
3.442e-05
6.82066e-05
0.00010522
9.79585e-05
8.98331e-05
9.72709e-05
3.19933e-07
7.73116e-06
4.50739e-06
3.95815e-06
1.9227e-06
4.30496e-06
9.64012e-06
7.95249e-06
1.33292e-05
1.35463e-05
9.66509e-06
1.38749e-05
1.0924e-05
1.84286e-05
5.12326e-05
8.69695e-05
0.000116554
0.000105792
9.25261e-05
0.000101613
2.38964e-07
7.67285e-06
4.67626e-06
4.05408e-06
2.06811e-06
4.96404e-06
1.01596e-05
8.01988e-06
1.37293e-05
1.40186e-05
9.89175e-06
1.23528e-05
1.19148e-05
3.31975e-05
5.88541e-05
8.76154e-05
0.000120855
0.00010175
8.83717e-05
0.000103728
1.54675e-07
5.70775e-06
4.21095e-06
4.30433e-06
2.0626e-06
3.62169e-06
9.5378e-06
8.14774e-06
1.22931e-05
1.24286e-05
9.18693e-06
1.10581e-05
2.23773e-05
4.49026e-05
5.63326e-05
8.32713e-05
0.000118216
0.000100355
7.78606e-05
7.48886e-05
1.4277e-07
3.57712e-06
2.79736e-06
4.37534e-06
2.0756e-06
3.08859e-06
9.06274e-06
8.13039e-06
1.01379e-05
1.03347e-05
9.15953e-06
1.56172e-05
3.87928e-05
5.79164e-05
5.98792e-05
8.17471e-05
0.000118543
9.3646e-05
6.92e-05
6.18858e-05
1.87476e-07
2.92748e-06
9.07123e-07
4.53912e-06
2.2574e-06
3.23378e-06
8.61379e-06
8.87931e-06
1.09513e-05
1.1286e-05
1.12482e-05
2.78319e-05
5.39691e-05
7.21254e-05
8.24341e-05
9.62696e-05
0.00011861
9.0641e-05
6.06869e-05
4.66611e-05
3.10315e-07
3.34406e-06
5.49725e-07
4.73921e-06
2.56364e-06
3.8869e-06
7.02461e-06
1.11461e-05
1.2934e-05
1.33304e-05
1.67135e-05
4.1027e-05
6.57161e-05
8.17943e-05
8.94448e-05
9.78913e-05
0.000115236
8.52724e-05
5.64394e-05
4.35845e-05
7.53894e-07
2.97116e-06
8.1007e-07
5.01622e-06
2.96807e-06
4.55718e-06
4.93632e-06
9.36521e-06
9.04706e-06
1.07562e-05
2.37564e-05
5.08148e-05
7.38144e-05
8.83333e-05
9.37661e-05
9.65483e-05
0.000105988
6.82432e-05
3.40812e-05
1.82638e-05
4.89772e-06
3.20098e-07
2.05716e-06
5.40037e-06
3.62712e-06
4.95387e-06
4.61013e-06
8.249e-06
7.31157e-06
1.02962e-05
2.84851e-05
5.5355e-05
7.66036e-05
8.96765e-05
9.32124e-05
8.98566e-05
9.04957e-05
4.58404e-05
1.08181e-05
4.06918e-06
1.56088e-05
1.84609e-08
3.17499e-06
7.79285e-06
4.49026e-06
4.53827e-06
4.45467e-06
6.8103e-06
7.70901e-06
1.02086e-05
3.02514e-05
5.76613e-05
7.85915e-05
9.1646e-05
9.51681e-05
8.77796e-05
6.85003e-05
1.92714e-05
1.11386e-06
1.22462e-07
6.12445e-06
4.69778e-06
3.53603e-06
2.67506e-06
7.32033e-07
1.12529e-07
7.92976e-09
3.52394e-08
2.48714e-08
1.31714e-08
7.34321e-08
7.06726e-08
1.36691e-07
7.0415e-08
1.72371e-07
4.61661e-07
1.54335e-06
1.81485e-06
1.26277e-06
1.45008e-06
5.97723e-06
3.94947e-06
4.16202e-06
3.12492e-06
1.81273e-07
3.42136e-10
2.61429e-11
1.41928e-08
2.13427e-08
2.89349e-08
6.61667e-08
1.03378e-07
2.02021e-08
1.21633e-08
3.13623e-08
1.65561e-07
2.80459e-06
3.04985e-06
3.0725e-06
3.37281e-06
6.24142e-06
3.91016e-06
3.98024e-06
3.32752e-06
1.75957e-07
5.14987e-08
4.31718e-08
2.62129e-08
3.36437e-08
1.37523e-07
2.37617e-07
2.83978e-07
1.61755e-07
8.11694e-08
9.33976e-08
5.12992e-07
2.16573e-06
3.36932e-06
5.79224e-06
6.99161e-06
4.76878e-06
5.24893e-06
3.48055e-06
3.73284e-06
1.24075e-07
9.7514e-09
1.97669e-08
2.0893e-08
3.51327e-08
1.20298e-07
1.91092e-07
2.57527e-07
2.19291e-07
1.49809e-07
9.77007e-08
1.27954e-06
3.16971e-06
6.63484e-06
1.23972e-05
1.54065e-05
4.85549e-06
5.58108e-06
3.37319e-06
4.02309e-06
1.83719e-07
5.93241e-09
2.17894e-08
2.36945e-08
4.81105e-08
1.65899e-07
1.78778e-07
2.16598e-07
1.91409e-07
1.32128e-07
9.66615e-08
1.61159e-06
6.21088e-06
1.47432e-05
2.72918e-05
3.51543e-05
3.34223e-06
5.13588e-06
3.07558e-06
4.20125e-06
2.38767e-07
8.55125e-09
2.0968e-08
2.59171e-08
4.73827e-08
1.93389e-07
2.22088e-07
2.72617e-07
2.60527e-07
1.9237e-07
1.60382e-07
2.28803e-06
1.5044e-05
2.71105e-05
4.24037e-05
5.46852e-05
2.20065e-06
4.77279e-06
3.37216e-06
4.48461e-06
5.51771e-07
5.89573e-09
1.83777e-08
2.30627e-08
5.8322e-08
3.16614e-07
3.57896e-07
4.96269e-07
4.87286e-07
4.42276e-07
3.83093e-07
5.86215e-06
3.17774e-05
4.45987e-05
5.55549e-05
7.20205e-05
4.93404e-06
4.27854e-06
3.21933e-06
4.56491e-06
1.35124e-06
1.31067e-08
1.97092e-08
4.05163e-08
2.59543e-07
6.19787e-07
7.96432e-07
1.95605e-06
1.76306e-06
2.12841e-06
1.57867e-06
1.02211e-05
5.20102e-05
6.24159e-05
6.77719e-05
8.15277e-05
7.88901e-06
4.15586e-06
2.63816e-06
4.92946e-06
2.08838e-06
4.42876e-07
8.29464e-07
1.52125e-06
3.72701e-06
2.76331e-06
3.00966e-06
4.24592e-06
3.63121e-06
3.64984e-06
3.47537e-06
5.94889e-06
7.17628e-05
7.84172e-05
8.01074e-05
8.8512e-05
8.17314e-06
5.73412e-06
2.57523e-06
4.95283e-06
3.26223e-06
1.34405e-07
5.18175e-06
1.34405e-07
6.22153e-06
5.97316e-06
1.34405e-07
6.36021e-06
6.49103e-06
5.61252e-06
1.33621e-05
4.94575e-05
9.12243e-05
9.26128e-05
8.43493e-05
9.22494e-05
1.49021e-06
7.1422e-06
3.24651e-06
4.77311e-06
2.50499e-06
1.34405e-07
1.34405e-07
1.34405e-07
1.34405e-07
1.34405e-07
1.34405e-07
1.34405e-07
1.34405e-07
1.34405e-07
1.34405e-07
9.46348e-05
0.000105853
9.89076e-05
9.08937e-05
9.81081e-05
2.9902e-07
7.6251e-06
4.20046e-06
4.61922e-06
2.37755e-06
1.34405e-07
9.67817e-06
1.34405e-07
1.3361e-05
1.35767e-05
1.34405e-07
1.39309e-05
1.10527e-05
1.83713e-05
5.12617e-05
8.71897e-05
0.000117278
0.000106753
9.36249e-05
0.000102953
2.51207e-07
7.41821e-06
4.32134e-06
4.63352e-06
2.90641e-06
1.34405e-07
1.01935e-05
1.34405e-07
1.37559e-05
1.40429e-05
1.34405e-07
1.247e-05
1.19079e-05
3.32363e-05
5.89625e-05
8.77153e-05
0.000121645
0.000103622
9.04162e-05
0.000104284
1.26674e-07
5.51057e-06
3.88883e-06
4.84787e-06
3.81681e-06
1.34405e-07
9.57023e-06
1.34405e-07
1.23255e-05
1.24585e-05
1.34405e-07
1.11321e-05
2.23613e-05
4.49893e-05
5.64046e-05
8.34153e-05
0.0001193
0.000101735
7.98655e-05
7.74684e-05
1.26668e-07
3.28925e-06
2.44345e-06
4.95655e-06
5.34857e-06
1.34405e-07
9.09791e-06
1.34405e-07
1.01884e-05
1.03834e-05
1.34405e-07
1.55853e-05
3.88359e-05
5.80255e-05
5.98996e-05
8.192e-05
0.00011921
9.46937e-05
7.02322e-05
6.29406e-05
2.18561e-07
2.67398e-06
8.47688e-07
5.2524e-06
7.88767e-06
1.34405e-07
8.65091e-06
1.34405e-07
1.10014e-05
1.13372e-05
1.34405e-07
2.78249e-05
5.40408e-05
7.22364e-05
8.25979e-05
9.64972e-05
0.0001193
9.14863e-05
6.2438e-05
4.89776e-05
3.53747e-07
2.69185e-06
8.17233e-07
5.66553e-06
1.15679e-05
1.34405e-07
7.0683e-06
1.34405e-07
1.29764e-05
1.33879e-05
1.34405e-07
4.10624e-05
6.58022e-05
8.1916e-05
8.96121e-05
9.8083e-05
0.000116162
8.61649e-05
5.71459e-05
4.4437e-05
1.0326e-06
2.00432e-06
1.21224e-06
6.23769e-06
1.68707e-05
1.34405e-07
4.99437e-06
1.34405e-07
9.09482e-06
1.07896e-05
1.34405e-07
5.08744e-05
7.39094e-05
8.84587e-05
9.39339e-05
9.67248e-05
0.000106888
6.92895e-05
3.51719e-05
1.88705e-05
5.74733e-06
1.7531e-07
2.64514e-06
7.01331e-06
2.17189e-05
1.34405e-07
1.34405e-07
1.34405e-07
1.34405e-07
1.34405e-07
1.34405e-07
1.34405e-07
1.34405e-07
1.34405e-07
1.34405e-07
0.000134794
9.15147e-05
4.6973e-05
1.12947e-05
4.2114e-06
1.38624e-05
7.4116e-08
3.92423e-06
1.03117e-05
2.41913e-05
9.21467e-08
9.21467e-08
9.21467e-08
9.21467e-08
9.21467e-08
9.21467e-08
9.21467e-08
9.21467e-08
9.21467e-08
9.21467e-08
0.000118967
6.94331e-05
2.03973e-05
1.24655e-06
1.33872e-07
6.39074e-06
4.82161e-06
3.61026e-06
2.74259e-06
7.22229e-07
9.94859e-08
5.85272e-09
3.55929e-08
2.46596e-08
1.1675e-08
7.0754e-08
5.70469e-08
1.17981e-07
6.70339e-08
1.71164e-07
4.55014e-07
1.55478e-06
1.83372e-06
1.29864e-06
1.49924e-06
6.49319e-06
4.48099e-06
4.58805e-06
3.60498e-06
1.56815e-07
2.28318e-10
2.07308e-11
1.392e-08
2.1556e-08
2.67076e-08
5.84769e-08
6.9112e-08
5.44808e-09
7.52216e-09
2.52662e-08
1.53026e-07
3.14264e-06
3.35352e-06
3.45946e-06
3.90615e-06
6.67028e-06
4.23999e-06
4.44398e-06
3.89956e-06
1.85946e-07
4.22142e-08
4.16136e-08
2.58361e-08
3.30564e-08
1.32626e-07
2.2185e-07