/*--------------------------------*- C++ -*----------------------------------*\
| =========                 |                                                 |
| \\      /  F ield         | OpenFOAM: The Open Source CFD Toolbox           |
|  \\    /   O peration     | Version:  2.3.0                                 |
|   \\  /    A nd           | Web:      www.OpenFOAM.org                      |
|    \\/     M anipulation  |                                                 |
\*---------------------------------------------------------------------------*/
FoamFile
{
    version     2.0;
    format      ascii;
    class       volScalarField;
    location    "3.69947";
    object      epsilonm;
}
// * * * * * * * * * * * * * * * * * * * * * * * * * * * * * * * * * * * * * //

dimensions      [0 2 -3 0 0 0 0];

internalField   nonuniform List<scalar> 
18816
(
1.26911
6.15558
9.83002
12.1957
16.696
19.3823
23.7379
27.0512
31.4941
34.6654
38.2764
41.2252
43.6335
44.2596
43.761
41.6018
37.5683
31.6529
24.6004
16.7059
9.83028
4.75937
3.46691
5.68934
11.7223
15.8895
15.29
3.41525
11.8601
43.8737
37.5452
37.187
36.2034
37.0932
38.9857
40.3884
41.2361
41.2596
41.8874
42.2687
40.0766
37.604
34.3704
30.5596
26.326
21.7295
17.2368
13.3667
10.3079
8.33657
8.07474
7.67302
9.95203
13.8874
22.4031
7.91668
9.90366
30.2824
25.7429
25.0747
24.4978
25.1545
26.4191
27.1144
27.4068
27.8374
27.8142
31.2671
29.1265
25.7363
23.0982
20.4547
18.0183
15.5525
12.9305
9.95428
6.98208
4.41738
3.20638
2.72048
4.52147
8.83858
17.2822
8.81035
10.011
27.9114
23.9266
24.2705
24.2363
24.7927
26.1909
26.9279
25.7311
25.9614
23.6619
17.5222
20.5
18.8743
17.5098
15.8393
14.3427
12.5816
10.1486
7.16342
4.39195
2.31881
1.6134
1.67106
3.30236
7.214
16.8338
9.29084
7.17913
66.2906
21.964
22.229
21.7213
23.628
24.0306
24.1211
25.3222
24.7897
20.6593
13.2774
15.2236
13.4017
10.2331
6.48478
3.54797
1.74129
1.0036
0.666637
0.557423
0.546566
0.378105
0.151107
1.63865
5.4101
15.1931
9.54052
12.0709
79.117
55.9255
21.0941
21.4522
23.0261
23.5869
25.23
23.7039
23.9488
19.2328
11.4037
10.1387
6.13453
2.06123
0.4419
0.206052
0.22734
0.276103
0.291815
0.30926
0.374666
0.544445
0.535162
0.907904
5.01058
14.9294
9.64652
12.7952
80.4248
64.0168
51.4131
43.9027
38.3672
32.476
22.6123
22.8884
21.379
18.4549
6.10981
5.67922
1.90803
0.247431
0.0133463
0.0126848
0.144176
0.269116
0.276583
0.289226
0.328516
0.468117
0.827524
0.331769
4.01932
14.0733
9.59399
16.9963
79.4005
63.1693
55.7954
46.2098
38.4874
32.6641
28.1193
26.1919
22.0695
15.4484
4.81014
3.26302
0.849363
0.0546617
0.0406451
0.0202806
0.200014
0.295242
0.308474
0.298878
0.320597
0.385587
0.706506
0.834706
3.10008
13.5669
9.5249
17.7781
78.3767
61.7399
54.0549
43.8355
35.9608
30.1335
27.0864
25.5269
20.6616
15.4006
4.00694
2.52635
0.548463
0.0257147
0.0530494
0.094086
0.0890266
0.225761
0.294267
0.292203
0.323028
0.348681
0.512533
1.16248
2.4633
13.1899
9.55563
21.0119
77.7783
61.1382
52.9878
42.5831
34.6315
28.9195
25.6984
25.4917
16.2592
13.6472
3.23039
1.62803
0.725907
0.19428
0.204335
0.303674
0.228367
0.0782769
0.311663
0.293675
0.326554
0.343219
0.410295
0.893768
1.73391
13.145
9.22007
22.2426
77.2596
61.046
52.1795
41.879
34.0472
28.9773
26.3829
25.643
12.2973
11.6231
2.79993
1.5727
0.852505
0.338597
0.217528
0.195122
0.205579
0.140371
0.346254
0.301052
0.3244
0.341619
0.362006
0.529022
0.311926
12.6479
9.16961
22.7217
77.033
61.1142
51.5824
41.3159
33.7242
28.8891
27.6229
24.8727
10.9889
8.65332
4.83095
1.70508
1.11873
0.336777
0.338053
0.314341
0.183626
0.241682
0.35408
0.304825
0.320922
0.338997
0.351615
0.455519
0.478899
11.6083
9.00209
24.7854
76.376
60.8903
51.1455
41.0336
33.585
29.3052
29.1267
25.0934
9.20394
6.77935
4.21548
1.61075
0.95705
0.342732
0.264334
0.245331
0.275146
0.368971
0.28497
0.304702
0.319085
0.338032
0.354818
0.451073
0.652187
10.4851
9.01228
24.8937
75.445
60.3551
50.8036
40.677
33.3648
29.6105
30.8428
25.7198
7.81682
5.53267
3.8965
1.41968
1.1809
0.274326
0.411082
0.364326
0.382492
0.262819
0.224998
0.299808
0.311962
0.32879
0.350307
0.435386
0.792696
9.2791
8.85089
26.6225
75.2003
59.4991
50.4595
40.2562
33.03
30.0004
32.2033
25.5105
7.09636
4.56193
3.31281
1.19926
0.891786
0.202581
0.213791
0.320803
0.285007
0.155887
0.188147
0.285022
0.298923
0.316478
0.345166
0.416899
0.890713
8.55343
8.71603
26.6682
75.4237
58.8445
50.2009
39.8399
32.8124
30.6539
33.7679
24.7307
5.81402
3.45639
2.88319
0.943189
0.876199
0.091373
0.223216
0.163684
0.138099
0.09652
0.172607
0.265613
0.277097
0.293912
0.326393
0.384313
0.897829
7.83746
8.84166
28.2561
75.2146
58.484
49.8021
39.2105
32.5023
30.9756
34.3054
22.9797
4.85738
2.90685
2.63179
0.909819
0.589743
0.189157
0.104266
0.101606
0.113478
0.0927516
0.164853
0.234547
0.249122
0.269101
0.304762
0.341028
0.776964
7.80063
8.48566
28.1648
74.9798
58.7457
49.678
38.9518
32.9401
32.517
34.6835
21.2842
4.22813
2.57883
2.67517
0.539001
0.0700737
0.0943968
0.0791957
0.0829403
0.107783
0.113131
0.153857
0.205205
0.219684
0.239776
0.276528
0.300103
0.552057
8.03295
8.26852
29.9948
75.5478
59.3528
49.656
39.1988
34.673
35.1252
36.28
18.9732
3.13025
1.76457
2.25612
0.0387831
0.0536489
0.0818038
0.077778
0.084635
0.136876
0.165429
0.17251
0.178949
0.196884
0.217085
0.254879
0.273831
0.358985
8.24445
8.29944
29.8724
77.4351
60.7394
50.7726
41.0904
37.6677
40.1171
38.291
14.2383
1.41839
1.62132
2.51791
0.0622558
0.0414471
0.0664783
0.0653963
0.0937338
0.137832
0.20918
0.224477
0.167171
0.174844
0.195011
0.232122
0.251713
0.25515
8.22906
7.88116
31.8989
79.1633
62.6305
53.4342
45.1215
43.5899
45.4478
32.3406
5.17292
0.71034
1.51835
2.26545
0.0342052
0.0189925
0.028154
0.0326462
0.0452834
0.0603628
0.115895
0.15243
0.116912
0.13395
0.170677
0.211825
0.228554
0.195518
8.05719
7.91914
31.7746
82.0834
65.0867
55.975
47.942
46.9808
46.6498
22.948
0.16529
0.0652489
1.65596
3.7269
0.0342414
0.0111445
0.0136087
0.0163767
0.0206887
0.0125472
0.0150108
0.0572446
0.0794021
0.114389
0.156856
0.19855
0.197167
0.17962
7.73919
7.55866
34.2695
84.5652
67.2096
58.7932
51.5552
50.3202
44.4505
19.3267
0.450453
0.0383677
0.051224
0.494317
0.0375298
0.0266196
0.026934
0.0290506
0.0316852
0.0406292
0.0516469
0.069178
0.0781291
0.104441
0.147012
0.189535
0.13003
0.162442
7.21745
7.40402
34.1812
89.2426
71.1425
62.6039
55.5805
53.6065
34.2454
5.77497
0.200371
0.0115589
0.00523756
0.00999514
0.0045427
0.00314036
0.0035327
0.00615906
0.00847479
0.0173578
0.026237
0.0487282
0.067209
0.0975085
0.140516
0.182503
0.0414934
0.147603
6.59082
7.42115
36.9385
91.8021
73.8749
65.6965
58.5623
53.5086
18.9952
0.137031
0.0280775
0.0215242
0.0170988
0.0116642
0.0137581
0.0129781
0.0136638
0.0169304
0.019635
0.026632
0.0339556
0.0489758
0.06556
0.0919399
0.13407
0.176558
0.0459755
0.137626
5.87865
7.10472
36.9257
96.5712
78.5842
69.8673
61.9168
49.257
5.39885
0.0641768
0.0233049
0.0169842
0.01217
0.00855468
0.00797779
0.00728729
0.00822991
0.0116116
0.0155568
0.0223907
0.0297493
0.0435199
0.0608747
0.0865823
0.124347
0.164924
0.0627938
0.126378
5.20112
6.95264
39.9877
98.4215
80.7922
72.7957
64.6274
37.8693
0.430012
0.0346813
0.023184
0.0181243
0.0136727
0.0109684
0.00982571
0.00915634
0.0100683
0.012288
0.0166231
0.0221694
0.0292306
0.0406817
0.0551311
0.0753571
0.104872
0.141128
0.0856939
0.112804
4.5709
6.95682
41.2916
103.846
85.6099
76.3526
62.7542
20.1287
2.15573
0.0267614
0.0179598
0.0136997
0.00999777
0.00823027
0.00718114
0.00678813
0.00756906
0.00898175
0.0123906
0.016275
0.0211399
0.0287844
0.038259
0.0509107
0.0648701
0.086746
0.105187
0.08105
3.77613
6.65901
0.52188
0.906853
2.19544
2.91426
4.16867
4.92389
6.09295
6.97329
8.103
8.88092
9.74933
10.3919
10.7808
10.7841
10.4621
9.70513
8.50374
6.90546
5.12331
3.24864
1.7168
0.761457
0.547006
0.95265
2.35948
3.69174
3.64126
2.429
1.25281
10.3332
9.23676
9.23685
9.1434
9.42037
9.90088
10.1897
10.3456
10.3399
10.5026
10.6285
10.1826
9.61202
8.8394
7.9054
6.83064
5.62868
4.43101
3.38734
2.55264
2.06787
1.97815
1.93796
2.53069
3.5769
5.57481
2.08468
0.262977
1.8743
1.57543
1.51115
1.42731
1.40621
1.38681
1.33865
1.30628
1.33894
2.24694
8.45332
7.79767
6.93806
6.27925
5.5961
4.93901
4.2391
3.50513
2.70352
1.93306
1.30163
1.02183
0.889832
1.31036
2.43603
4.67709
1.97325
0.22237
0.324372
0.257253
0.235518
0.203155
0.18159
0.15688
0.139095
0.128685
0.142899
0.332088
1.58869
5.71764
5.29922
4.98637
4.57711
4.17438
3.65705
2.89785
1.99415
1.20169
0.682917
0.516702
0.519815
0.907624
1.9722
4.5071
2.52951
0.653076
11.1388
0.112814
0.0722927
0.0614999
0.0471162
0.0355624
0.0321517
0.0328894
0.0348242
0.101836
0.807953
4.37464
3.91844
3.11699
2.07481
1.19884
0.592894
0.326061
0.223543
0.195673
0.193308
0.160588
0.101616
0.475364
1.49107
4.07813
2.65658
1.11042
19.4625
9.32511
0.0745528
0.051241
0.0425942
0.0339215
0.0227305
0.0223336
0.0227435
0.0507079
0.497704
3.01661
1.87621
0.683215
0.188028
0.0926161
0.0915862
0.110143
0.117331
0.124517
0.144948
0.19634
0.211912
0.31433
1.38929
4.00925
2.8308
1.64831
20.9077
15.8742
9.17712
7.88968
6.88914
5.21849
0.030835
0.0302934
0.0251965
0.0290093
0.238714
1.74184
0.609506
0.0960924
0.00951113
0.009006
0.0597745
0.100906
0.11152
0.119971
0.131657
0.177406
0.269779
0.165027
1.1515
3.81652
2.94592
2.60605
20.805
16.6181
14.2256
11.806
9.80283
8.09992
5.11385
4.73391
3.6567
0.0247866
0.100559
1.01151
0.278257
0.0252683
0.0147834
0.00957953
0.061388
0.0962529
0.112413
0.119968
0.127702
0.14693
0.238915
0.312986
0.909562
3.67659
2.93146
2.98
20.5442
16.3847
14.2867
11.6138
9.4851
7.92249
6.94661
6.54871
5.21648
0.0379351
0.039218
0.782178
0.186718
0.0152603
0.0184751
0.0296968
0.0346728
0.0656079
0.104042
0.11661
0.126969
0.135617
0.182674
0.383861
0.756997
3.56386
3.05203
3.84859
20.3966
16.2312
14.0099
11.2722
9.11307
7.58315
6.79448
6.75591
4.48518
0.0324995
0.01296
0.494727
0.229378
0.0695926
0.0593883
0.0828449
0.0875489
0.0354025
0.109498
0.116713
0.126656
0.132246
0.152643
0.278924
0.574057
3.54526
2.86534
3.97452
20.2522
16.1614
13.7572
11.0534
8.9242
7.58119
6.96537
6.95733
3.26682
0.0423363
0.0162902
0.435049
0.258721
0.114808
0.0709157
0.0630183
0.0731927
0.0552979
0.115363
0.117975
0.123961
0.130153
0.139615
0.182222
0.160656
3.45254
2.80767
4.53705
20.1316
16.1064
13.5826
10.8854
8.82186
7.5541
7.29364
6.7339
3.04967
1.72688
1.04589
0.500582
0.325551
0.115102
0.100524
0.093979
0.0697294
0.0802295
0.117665
0.118196
0.121742
0.127683
0.135701
0.167393
0.200084
3.20154
2.81217
4.77105
19.9764
15.9962
13.4682
10.8022
8.7776
7.63707
7.67709
6.76041
2.62782
1.86505
1.18878
0.485055
0.294522
0.116426
0.0904517
0.0840772
0.0958169
0.114805
0.101689
0.115868
0.118785
0.124972
0.134687
0.164984
0.250378
2.91523
2.80761
4.83154
19.8317
15.841
13.3787
10.7068
8.72025
7.72604
8.15438
6.91694
2.24027
1.58293
1.12421
0.428443
0.341403
0.0992184
0.12131
0.110278
0.119333
0.0870328
0.0836234
0.109197
0.113126
0.118867
0.130496
0.157745
0.287156
2.61006
2.82143
5.17909
19.7516
15.6556
13.286
10.5944
8.63681
7.83491
8.55393
6.91357
2.02294
1.29961
0.959262
0.360551
0.272975
0.0760807
0.0766509
0.10058
0.0914141
0.0596807
0.0707737
0.0995633
0.105101
0.112026
0.125888
0.149589
0.307932
2.42258
2.8583
5.19032
19.7204
15.5368
13.2091
10.4842
8.59158
8.03794
9.01458
6.75685
1.67222
0.990192
0.833236
0.286588
0.261996
0.0466098
0.068181
0.0544245
0.0536257
0.0432236
0.0638205
0.0891256
0.0945532
0.102134
0.116933
0.1367
0.312439
2.19564
2.8648
5.50203
19.6772
15.4646
13.0904
10.3223
8.5383
8.18332
9.24186
6.28769
1.37321
0.827175
0.739198
0.269921
0.17557
0.0675693
0.0379632
0.0390097
0.0487496
0.043112
0.0616119
0.0774277
0.0837759
0.0926387
0.108391
0.122032
0.273922
2.12513
2.83268
5.51981
19.6901
15.499
13.0367
10.2404
8.64589
8.53485
9.22445
5.7426
1.20442
0.740894
0.750425
0.162643
0.0326077
0.0362966
0.0344015
0.0365951
0.0488166
0.0542972
0.0617493
0.0679497
0.0735726
0.0824927
0.0985692
0.108849
0.203985
2.15281
2.8346
5.79984
19.8118
15.5891
13.0144
10.2743
8.97776
9.03491
9.50873
5.2416
0.908544
0.524555
0.659102
0.0298614
0.0226274
0.0375402
0.0337786
0.0368703
0.0584995
0.0761552
0.0730354
0.0608093
0.0655447
0.0750475
0.0914761
0.0998901
0.142222
2.20983
2.72492
5.81276
20.1767
15.8223
13.2016
10.5956
9.61306
10.2167
10.1397
3.96246
0.390675
0.45299
0.686032
0.0401112
0.0231694
0.0343873
0.0309739
0.0395092
0.0559307
0.0824311
0.0816639
0.0544106
0.0558204
0.0672025
0.0837881
0.0911621
0.105459
2.21964
2.75172
6.13632
20.5646
16.2203
13.7797
11.5247
11.0531
11.7292
8.8814
1.48713
0.218877
0.454243
0.637347
0.0312803
0.0182735
0.0225159
0.0243257
0.0273966
0.0263573
0.0302716
0.0383347
0.0354105
0.0439506
0.0605616
0.0780052
0.0807345
0.0853171
2.18572
2.61884
6.15441
21.3402
16.8472
14.3825
12.2453
11.9626
11.688
1.52304
0.0547917
0.027303
0.498876
1.05533
0.0193492
0.00658843
0.00654775
0.00715372
0.00787481
0.00632656
0.00778184
0.0204557
0.0277292
0.0402842
0.0574058
0.0743
0.0632334
0.0787527
2.10664
2.56589
6.50264
21.9241
17.389
15.0415
13.1355
12.8539
11.2041
0.174554
0.0026718
0.0115454
0.0295031
0.194355
0.0128198
0.0073535
0.00756632
0.00849393
0.00939557
0.012254
0.0155977
0.022149
0.0269031
0.0371933
0.0542089
0.0711801
0.0336367
0.070318
1.97804
2.57323
6.50151
23.0196
18.3829
15.9854
14.2013
13.8003
9.22298
0.0439699
0.00751945
0.00506348
0.00312056
0.00620138
0.00221917
0.00172778
0.00188355
0.00293438
0.00386594
0.00691475
0.0100079
0.0173124
0.0241534
0.0355111
0.0522808
0.0685894
0.0200161
0.0636152
1.82345
2.47535
6.9245
23.6189
19.0319
16.7341
14.9626
13.8748
5.61441
0.0384757
0.0102805
0.00774099
0.0059982
0.00440073
0.00444497
0.00412852
0.00434471
0.00547613
0.00659088
0.00910563
0.0117937
0.0171696
0.0234797
0.0332682
0.049119
0.0652229
0.0188333
0.0590762
1.64172
2.48747
6.89475
24.8654
20.1666
17.7523
15.8837
13.017
1.76129
0.0325245
0.00916867
0.00657797
0.00471746
0.00346022
0.00303169
0.00273875
0.00303353
0.00406761
0.00552734
0.00780828
0.0104239
0.0151363
0.0212724
0.0303994
0.0438056
0.0582625
0.0179481
0.0530154
1.46332
2.39599
7.47556
25.3398
20.6748
18.5853
16.7377
10.3863
0.197028
0.0126562
0.00851083
0.00645646
0.00477585
0.00381766
0.00331342
0.00305709
0.00332816
0.00399485
0.00545904
0.00720129
0.00946792
0.013026
0.0175278
0.0237204
0.0326824
0.0434588
0.0193022
0.0436952
1.30226
2.36756
7.5912
26.577
21.8041
19.577
16.4472
5.66052
0.0264452
0.00550611
0.00447268
0.00346007
0.00260642
0.00218813
0.0019099
0.0018095
0.0019689
0.00227532
0.00298334
0.00374194
0.00463599
0.00592117
0.00734951
0.00896382
0.0099528
0.0114669
0.0264013
0.0200385
1.08829
2.34902
0.160297
0.132734
0.437186
0.632775
0.959759
1.17097
1.48377
1.72814
2.03455
2.24051
2.46111
2.59757
2.65891
2.60494
2.45231
2.16674
1.7816
1.33534
0.905674
0.517546
0.261675
0.136599
0.109983
0.163416
0.39985
0.797964
0.819844
0.22846
0.452103
2.28846
2.16996
2.21987
2.27299
2.3922
2.56917
2.68715
2.78209
2.84363
2.96732
3.0674
2.97722
2.82918
2.60924
2.32415
1.98794
1.61657
1.25349
0.952938
0.714301
0.5938
0.568467
0.570337
0.732347
1.04435
1.56654
0.330138
0.312083
0.555747
0.490768
0.475564
0.462448
0.462013
0.458295
0.444927
0.440481
0.484301
0.892654
2.64666
2.46583
2.20378
2.00066
1.7846
1.57375
1.34441
1.1117
0.864361
0.642769
0.471863
0.396765
0.350235
0.45596
0.783067
1.45428
0.430908
0.232197
0.136737
0.113744
0.114125
0.101037
0.0924197
0.0810736
0.0743837
0.0735962
0.0909433
0.182651
0.67527
1.8476
1.72652
1.63386
1.50921
1.38287
1.20937
0.936452
0.630675
0.384255
0.252584
0.21289
0.209113
0.309992
0.62528
1.39151
0.618546
0.198399
1.56246
0.0746899
0.0609416
0.0557023
0.0481205
0.0389817
0.0354358
0.0352888
0.0430097
0.084114
0.357855
1.42381
1.3036
1.07159
0.748472
0.444405
0.21255
0.121354
0.0940887
0.0878079
0.0911155
0.0911108
0.0797912
0.184182
0.478375
1.25498
0.633022
0.369176
5.01854
1.29792
0.0600984
0.0490346
0.0397094
0.030857
0.0263125
0.025969
0.0295372
0.0517786
0.220831
0.998833
0.639634
0.246729
0.0808398
0.0433001
0.0427713
0.0525131
0.0589733
0.0635942
0.0715645
0.0928129
0.109343
0.148316
0.450331
1.22999
0.731861
0.698405
6.00143
4.124
1.47511
1.30023
1.17029
0.751104
0.0305679
0.0288241
0.028462
0.0336043
0.114468
0.590266
0.212801
0.0385648
0.00651106
0.0064293
0.0277551
0.0445639
0.0545495
0.0613701
0.0658329
0.0830319
0.11591
0.105421
0.390651
1.18169
0.73544
0.893676
6.07327
4.8697
3.92317
3.28618
2.76664
2.19978
0.925873
0.827791
0.54236
0.0275043
0.0527081
0.347595
0.101659
0.0127004
0.00684368
0.00554723
0.0230445
0.0363554
0.0502409
0.0588888
0.0627892
0.0699889
0.102131
0.146573
0.320578
1.13601
0.750482
1.12974
6.00267
4.8796
4.22769
3.45042
2.84025
2.37969
1.99888
1.86101
1.44054
0.028997
0.026584
0.271787
0.0727307
0.0101786
0.00817303
0.0118191
0.0199885
0.0250838
0.046325
0.0567007
0.0613026
0.0650949
0.0818795
0.156582
0.28711
1.09835
0.713176
1.21727
5.9424
4.83461
4.16107
3.36849
2.7439
2.29306
2.05614
2.03148
1.38083
0.035473
0.0131163
0.175081
0.0831662
0.0325617
0.0206061
0.025479
0.0471386
0.0195207
0.0490277
0.0562823
0.0599099
0.0627169
0.0711867
0.109274
0.235207
1.09342
0.748975
1.37961
5.88453
4.78772
4.07343
3.29059
2.67274
2.27894
2.11092
2.13866
0.996492
0.0449473
0.0175506
0.143458
0.0907209
0.0522051
0.0294589
0.0258505
0.0382725
0.0283367
0.0503889
0.0559452
0.0575426
0.0607854
0.0664825
0.0815124
0.095108
1.07831
0.692404
1.40829
5.8313
4.74599
4.01286
3.23258
2.63367
2.26829
2.19675
2.06248
1.02822
0.398176
0.26189
0.173489
0.111664
0.0529655
0.0370823
0.0350955
0.0382426
0.0370746
0.0514351
0.0553237
0.0556404
0.0583607
0.0642403
0.07661
0.101054
1.01365
0.714349
1.53298
5.79079
4.69972
3.97682
3.20402
2.61675
2.28535
2.29878
2.05155
0.87552
0.589195
0.388008
0.173319
0.110364
0.0535922
0.0432646
0.0410176
0.0478203
0.0515854
0.0475038
0.0527359
0.0527033
0.0555889
0.0622687
0.0742336
0.115941
0.930191
0.722624
1.59409
5.76042
4.65364
3.94915
3.17525
2.60057
2.31416
2.44257
2.0854
0.779928
0.521776
0.391055
0.155245
0.117022
0.048384
0.0441417
0.0417011
0.0533238
0.0428857
0.0413804
0.0473986
0.0483972
0.0513192
0.0588778
0.0698536
0.124193
0.841811
0.777142
1.57539
5.72354
4.61267
3.92144
3.1419
2.57954
2.34887
2.5687
2.09119
0.666944
0.428951
0.325884
0.132023
0.102037
0.0403753
0.0387042
0.0445367
0.0458331
0.0370468
0.0359617
0.0410844
0.0432549
0.0471045
0.0554921
0.065373
0.127432
0.787878
0.808382
1.69226
5.69497
4.59033
3.89524
3.10986
2.57033
2.4166
2.71477
2.0545
0.575232
0.331408
0.287566
0.108101
0.0914007
0.0309525
0.0288319
0.0266204
0.0343207
0.0296743
0.0319944
0.0353396
0.0376215
0.042104
0.0507791
0.0592859
0.127337
0.706527
0.842521
1.65798
5.68601
4.57162
3.85599
3.06634
2.56265
2.47156
2.797
1.91385
0.467113
0.277577
0.247967
0.0996019
0.0604479
0.0346548
0.022137
0.0253801
0.033819
0.0309715
0.0311505
0.0303966
0.0328456
0.0380197
0.0470904
0.0536222
0.111097
0.660388
0.810703
1.76882
5.69581
4.56637
3.83611
3.03867
2.58861
2.55261
2.74415
1.71614
0.400346
0.251392
0.248205
0.0635429
0.0212896
0.0219042
0.0239257
0.0261662
0.0354528
0.0381377
0.0327082
0.0267501
0.0287095
0.0340477
0.0432572
0.0488055
0.0854451
0.661358
0.822012
1.7375
5.71663
4.57262
3.82658
3.03992
2.64455
2.62395
2.77349
1.60428
0.311438
0.186015
0.228461
0.024409
0.0137448
0.0273507
0.022949
0.0252097
0.0423612
0.0564582
0.0381675
0.024345
0.0254326
0.0313428
0.0407023
0.0451361
0.0634774
0.686667
0.769656
1.84618
5.78429
4.60684
3.85131
3.07965
2.77293
2.91403
2.9742
1.2339
0.125413
0.157289
0.223698
0.0289689
0.0173206
0.0261719
0.0224321
0.0283896
0.0412076
0.0649862
0.0375366
0.0198406
0.0209408
0.0285626
0.037924
0.0409271
0.0498548
0.702259
0.762933
1.82869
5.88444
4.6976
3.97694
3.312
3.17334
3.4082
2.64848
0.473152
0.095165
0.178794
0.2318
0.028792
0.0184227
0.0201349
0.0209427
0.0204187
0.0163038
0.0148539
0.0132277
0.0133149
0.0179723
0.027059
0.0363781
0.0351993
0.0426721
0.697364
0.724173
1.93472
6.10523
4.87777
4.1382
3.54174
3.46743
3.3153
0.574064
0.0257379
0.0107015
0.168648
0.334095
0.0100274
0.00417432
0.00361284
0.00369416
0.00374155
0.00363956
0.00456176
0.00884441
0.0118179
0.0176902
0.0264547
0.035224
0.0255606
0.0392826
0.674002
0.73813
1.95953
6.25247
5.03216
4.33071
3.81819
3.74106
3.13376
0.0929481
0.00235192
0.00444317
0.0121916
0.0778344
0.00475693
0.00226855
0.00236345
0.00287591
0.0033062
0.00451336
0.00579441
0.00866625
0.0114393
0.0165937
0.0251833
0.0338864
0.0160256
0.0349702
0.633981
0.69883
2.0494
6.54334
5.32271
4.62362
4.1554
4.06199
2.7053
0.0231444
0.0034004
0.0028142
0.00197528
0.00301978
0.00124575
0.00102713
0.0011054
0.0016123
0.0021116
0.00339107
0.00472748
0.00759145
0.0108084
0.0161731
0.0243893
0.0324451
0.0130591
0.0318237
0.586929
0.704024
2.10715
6.71103
5.50584
4.85122
4.38345
4.10268
1.82368
0.0180499
0.00471508
0.00346784
0.00260115
0.00198462
0.00174895
0.00159137
0.00168462
0.00216436
0.00275012
0.0038365
0.00505457
0.00737444
0.0103296
0.0148223
0.0222627
0.0298664
0.0127037
0.0292744
0.531343
0.671243
2.2067
7.0754
5.82633
5.15589
4.67283
3.88025
0.625553
0.015541
0.00439653
0.00307766
0.00217377
0.00164265
0.00136821
0.00122688
0.00134222
0.00171666
0.00240305
0.00333117
0.00446062
0.00636435
0.00892206
0.0127837
0.0185224
0.0245269
0.011649
0.0251205
0.476158
0.666759
2.23067
7.22217
5.98277
5.43191
4.9738
3.18527
0.0758726
0.00507793
0.00359639
0.00266757
0.0019319
0.00155645
0.0013192
0.00121201
0.00131033
0.00153687
0.00211893
0.00274027
0.00355453
0.00476453
0.00628651
0.00832557
0.010988
0.0138381
0.0108834
0.0177867
0.42992
0.653637
2.37294
7.5508
6.31205
5.75598
4.90911
1.75978
0.0089084
0.00136788
0.00127187
0.00104753
0.000840405
0.000736202
0.000656748
0.000630612
0.000671373
0.000758685
0.000926811
0.00108365
0.00124651
0.00144284
0.00164331
0.00185983
0.00182782
0.00196609
0.00756352
0.00404635
0.368214
0.646979
0.069744
0.0388694
0.107668
0.155274
0.237391
0.295642
0.379866
0.44819
0.530646
0.583914
0.632366
0.652562
0.6531
0.612975
0.549351
0.452711
0.350153
0.251628
0.174628
0.113274
0.0762163
0.0572245
0.0522229
0.0599266
0.0920641
0.169599
0.179252
0.0866426
0.186927
0.540835
0.555973
0.594478
0.640572
0.694333
0.764301
0.810032
0.850596
0.884476
0.944651
0.985518
0.961019
0.9117
0.837329
0.737701
0.623204
0.50396
0.3945
0.311665
0.248926
0.220607
0.213373
0.212146
0.251701
0.342341
0.491144
0.149625
0.139615
0.21039
0.190393
0.187033
0.185773
0.187207
0.186487
0.183344
0.18834
0.227739
0.433198
0.938975
0.886089
0.793855
0.721969
0.644059
0.569802
0.489943
0.412896
0.33251
0.265127
0.21628
0.193334
0.170595
0.193104
0.287553
0.513928
0.144064
0.0882305
0.0708803
0.0598588
0.058534
0.0515882
0.0475756
0.0429159
0.0410198
0.0446143
0.0614595
0.121434
0.350677
0.691071
0.647619
0.61405
0.572539
0.530622
0.463323
0.348933
0.23341
0.154665
0.122124
0.114724
0.111769
0.137403
0.230322
0.494033
0.232647
0.0595397
0.251179
0.0429989
0.0380856
0.0339843
0.0298292
0.0249333
0.0233657
0.025023
0.0331063
0.0633991
0.201245
0.533173
0.497142
0.421552
0.308351
0.17936
0.0856131
0.0575118
0.0509538
0.0500532
0.0542803
0.0614325
0.0652954
0.100305
0.181839
0.441738
0.250856
0.122293
1.34573
0.203241
0.0362384
0.0310751
0.0256518
0.0206318
0.0189165
0.0192619
0.02329
0.0407613
0.127059
0.373998
0.245299
0.0979383
0.0365973
0.0225843
0.0233112
0.0296395
0.0356913
0.0389818
0.0425344
0.05346
0.0689203
0.0934723
0.176617
0.430967
0.259433
0.260173
1.93645
1.11361
0.257105
0.229035
0.20868
0.116008
0.0206595
0.0206398
0.0223167
0.0281814
0.06905
0.224674
0.0809541
0.0167141
0.00499666
0.0050087
0.0151432
0.0233187
0.0317621
0.036925
0.0388023
0.0460665
0.0635308
0.0761283
0.164095
0.42005
0.262571
0.285667
2.02407
1.61474
1.16848
0.99253
0.85154
0.627437
0.176384
0.153534
0.0944114
0.0225609
0.034071
0.135527
0.0419634
0.00717626
0.00414052
0.0039248
0.0119522
0.0176869
0.0279927
0.0339892
0.0361755
0.0394025
0.0539449
0.0837519
0.142687
0.404215
0.263223
0.414599
2.00136
1.66839
1.42218
1.16734
0.972234
0.812391
0.633096
0.576034
0.434979
0.0231244
0.0196293
0.109876
0.0330086
0.00751046
0.00488984
0.00646052
0.0159972
0.0141535
0.0266418
0.0323893
0.0345626
0.0366624
0.0446955
0.0787363
0.139702
0.390436
0.267479
0.427491
1.97127
1.64887
1.41196
1.15132
0.949213
0.796213
0.710158
0.692985
0.493268
0.0382635
0.0100914
0.0770591
0.0354854
0.01974
0.0101497
0.0112261
0.0371386
0.0136115
0.0292472
0.0318507
0.0329149
0.0345694
0.0395757
0.0551391
0.124001
0.391315
0.23985
0.496005
1.94216
1.61911
1.37999
1.12366
0.921967
0.788722
0.735583
0.758495
0.38191
0.0388956
0.0149716
0.0665609
0.0408714
0.0357135
0.0176187
0.0158727
0.0326583
0.0209262
0.0310622
0.0311211
0.0309043
0.0328049
0.0371829
0.0445225
0.0633997
0.394986
0.228238
0.501926
1.92007
1.59347
1.35426
1.0999
0.90409
0.783282
0.758644
0.725795
0.53291
0.137173
0.111485
0.0805671
0.0565568
0.0365214
0.0212879
0.020825
0.0328337
0.027749
0.0320494
0.0303767
0.0291098
0.0305085
0.0351532
0.0417502
0.0608491
0.37801
0.241523
0.543036
1.90858
1.57437
1.34035
1.08854
0.896361
0.786583
0.786168
0.713542
0.361738
0.231451
0.159619
0.0824481
0.0576099
0.0370453
0.0320777
0.0316245
0.0389634
0.0406631
0.0308386
0.0279994
0.0264502
0.0281445
0.0331469
0.0391291
0.0641548
0.351138
0.241218
0.559914
1.89877
1.56062
1.33039
1.07905
0.891558
0.796481
0.833818
0.71864
0.407472
0.214471
0.203665
0.0763635
0.0583481
0.0351452
0.0250617
0.0249679
0.0419948
0.0354581
0.0285097
0.0241059
0.0232322
0.0251656
0.0306405
0.036326
0.0645451
0.322495
0.260637
0.559152
1.88337
1.55201
1.32148
1.06842
0.886836
0.810153
0.878878
0.72148
0.274853
0.177044
0.139897
0.0671087
0.0536053
0.0319399
0.0309073
0.034284
0.0407896
0.0367585
0.0251699
0.0198392
0.0199187
0.0225924
0.0283999
0.0335961
0.0639214
0.305241
0.273756
0.587461
1.87337
1.54732
1.31188
1.05893
0.886135
0.836656
0.929891
0.710353
0.293262
0.141562
0.146062
0.0582374
0.0450671
0.0285806
0.0210324
0.0217203
0.0352769
0.028904
0.0219266
0.0166699
0.0168524
0.0199658
0.0259096
0.0304785
0.0617264
0.273074
0.282324
0.585216
1.873
1.54015
1.29814
1.04739
0.887304
0.860402
0.96151
0.663503
0.237312
0.121335
0.124303
0.0539618
0.0310148
0.0303391
0.0201342
0.0250026
0.0357059
0.0305293
0.0210707
0.0143783
0.0146815
0.0181704
0.024311
0.028055
0.0534745
0.247429
0.26642
0.61159
1.87598
1.53161
1.29168
1.03729
0.893773
0.872481
0.921516
0.57845
0.168598
0.110854
0.10754
0.0390027
0.0202535
0.0199527
0.0257702
0.0284509
0.0355515
0.0377685
0.0218898
0.0126621
0.012826
0.0165665
0.0227302
0.0260012
0.0426453
0.246121
0.266658
0.606265
1.87688
1.52769
1.28842
1.03372
0.892366
0.861662
0.90482
0.557353
0.154536
0.0878845
0.115671
0.0239064
0.0118623
0.0291761
0.0221237
0.0243599
0.0457982
0.0576709
0.0251082
0.0116078
0.0113759
0.0156158
0.0217886
0.0240686
0.0337628
0.258599
0.240626
0.644121
1.88959
1.53069
1.2858
1.02296
0.908787
0.929556
0.97882
0.447107
0.0605647
0.0765789
0.111507
0.0263539
0.0159748
0.0271393
0.0216681
0.0291064
0.0476886
0.0777687
0.0231055
0.00877126
0.00971384
0.0149071
0.0208757
0.0215719
0.0279775
0.268448
0.244264
0.638206
1.91861
1.55294
1.31004
1.08129
1.02544
1.10545
0.885426
0.182191
0.0574229
0.0902546
0.113058
0.0265852
0.0185219
0.0185987
0.0189191
0.0169262
0.0127271
0.0112522
0.00665144
0.0064049
0.0091177
0.0147477
0.0205378
0.0180302
0.0249769
0.26806
0.218671
0.677158
1.98555
1.60833
1.35396
1.16217
1.13373
1.06738
0.265586
0.0109884
0.00496796
0.0643043
0.121089
0.00538261
0.00276437
0.00220054
0.00218845
0.0021543
0.00225689
0.0028662
0.00453883
0.00606278
0.00939515
0.0146686
0.0199591
0.0130848
0.0227411
0.259661
0.202063
0.677562
2.02674
1.65641
1.41951
1.26024
1.22498
0.97537
0.0594276
0.00214119
0.00225137
0.00491309
0.0326142
0.00203173
0.000921599
0.000942291
0.00123515
0.00150245
0.00212285
0.00276983
0.00418983
0.00590959
0.00893241
0.0139659
0.019071
0.00992426
0.0203177
0.244885
0.198145
0.715836
2.11494
1.75203
1.52596
1.38648
1.34834
0.873026
0.0152369
0.00230039
0.00179139
0.00132031
0.00145801
0.000767172
0.000647962
0.000696171
0.000977869
0.00130844
0.00195081
0.00264906
0.00401591
0.00579568
0.00872525
0.0133184
0.0177833
0.00885181
0.0184734
0.22817
0.167065
0.716765
2.16985
1.81153
1.60728
1.46542
1.37123
0.663159
0.00995078
0.00259152
0.00184547
0.00133614
0.00104787
0.000835388
0.000750569
0.000802923
0.00103568
0.00140039
0.00194603
0.00258923
0.00372342
0.00527453
0.0076043
0.0114748
0.0152642
0.00840737
0.0164284
0.208863
0.161879
0.758595
2.28794
1.91516
1.70874
1.56779
1.31016
0.257921
0.00784661
0.00238096
0.00165715
0.00115253
0.000885901
0.000712205
0.000635949
0.000696808
0.000868584
0.00125625
0.00168905
0.00224441
0.00308763
0.00422846
0.00596454
0.00850459
0.010836
0.00715059
0.0129543
0.189934
0.143171
0.770103
2.33986
1.97359
1.81537
1.69347
1.10477
0.0299251
0.00211305
0.00162053
0.00121732
0.000881065
0.000729012
0.000616749
0.000571188
0.000617408
0.000714796
0.000976224
0.00122078
0.0015259
0.00194094
0.00243536
0.00306476
0.00379952
0.0043421
0.00565113
0.00744586
0.175657
0.13403
0.796099
2.44748
2.09145
1.93735
1.67523
0.62329
0.00380436
0.000521623
0.000499227
0.000444075
0.000380861
0.000348719
0.000321847
0.000314159
0.000331031
0.000369495
0.000426674
0.000468928
0.000506372
0.000539828
0.000586881
0.000658882
0.000641523
0.000634333
0.00214537
0.00163967
0.157578
0.121353
0.0496199
0.0250528
0.0502573
0.0650987
0.0904413
0.108451
0.1337
0.153404
0.175829
0.189002
0.197196
0.198122
0.192958
0.175827
0.155902
0.128926
0.10563
0.0841064
0.0686451
0.0555833
0.0471873
0.0421059
0.0401224
0.0405843
0.044231
0.0556741
0.0549166
0.0443455
0.0781156
0.149136
0.161392
0.182639
0.20631
0.229124
0.256945
0.274656
0.292096
0.30854
0.334431
0.347231
0.338745
0.319971
0.29303
0.258294
0.221732
0.187144
0.157735
0.137114
0.121643
0.114543
0.111368
0.105809
0.111114
0.130771
0.171523
0.073451
0.0739495
0.0893707
0.0811283
0.0806783
0.0810196
0.0818441
0.0819255
0.0821845
0.0900256
0.119459
0.222207
0.371395
0.354729
0.319197
0.293228
0.264399
0.238568
0.210935
0.185063
0.157415
0.136167
0.122374
0.114911
0.101309
0.10159
0.124136
0.201758
0.0769671
0.0542624
0.0386729
0.0326051
0.0311036
0.0275986
0.0258752
0.0243445
0.0245087
0.0293489
0.0432626
0.0818692