/*--------------------------------*- C++ -*----------------------------------*\
| =========                 |                                                 |
| \\      /  F ield         | OpenFOAM: The Open Source CFD Toolbox           |
|  \\    /   O peration     | Version:  2.3.0                                 |
|   \\  /    A nd           | Web:      www.OpenFOAM.org                      |
|    \\/     M anipulation  |                                                 |
\*---------------------------------------------------------------------------*/
FoamFile
{
    version     2.0;
    format      ascii;
    class       surfaceScalarField;
    location    "3.69947";
    object      phi;
}
// * * * * * * * * * * * * * * * * * * * * * * * * * * * * * * * * * * * * * //

dimensions      [0 3 -1 0 0 0 0];

internalField   nonuniform List<scalar> 
49938
(
-1.28164e-09
4.48245e-09
-2.70069e-09
-2.40249e-09
5.38245e-09
-3.76146e-09
-3.18889e-09
4.75433e-09
-3.4678e-09
-4.00158e-09
4.59191e-09
-3.27911e-09
-4.6759e-09
4.4355e-09
-3.26106e-09
-5.35445e-09
4.34137e-09
-3.16271e-09
-5.98937e-09
4.32724e-09
-3.19221e-09
-6.60893e-09
4.29053e-09
-3.17086e-09
-7.18207e-09
4.23027e-09
-3.15702e-09
-7.73207e-09
4.195e-09
-3.14489e-09
-8.25734e-09
4.21663e-09
-3.19125e-09
-8.74078e-09
4.24958e-09
-3.26601e-09
-9.13624e-09
4.14457e-09
-3.24896e-09
-9.38636e-09
4.1518e-09
-3.40154e-09
-9.50145e-09
4.19158e-09
-3.57634e-09
-9.37411e-09
4.27693e-09
-3.9041e-09
-8.94479e-09
4.38219e-09
-4.31134e-09
-8.13187e-09
4.49273e-09
-4.80549e-09
-6.90178e-09
4.58246e-09
-5.31237e-09
-5.18837e-09
4.66755e-09
-5.88081e-09
-3.04674e-09
4.7301e-09
-6.3716e-09
-6.66959e-10
4.73104e-09
-6.6107e-09
1.52182e-09
4.62931e-09
-6.31798e-09
3.94005e-09
4.18902e-09
-6.10714e-09
5.09449e-09
3.92477e-09
-4.57909e-09
4.58281e-09
4.11056e-09
-3.09877e-09
2.92527e-09
4.83864e-09
-2.68097e-09
5.96022e-09
-2.53478e-09
-1.74488e-09
8.61947e-09
-2.39186e-09
-2.55898e-09
8.52094e-09
-2.32406e-09
-3.14071e-09
7.83564e-09
-2.49929e-09
-3.76131e-09
7.5793e-09
-2.36652e-09
-4.35118e-09
7.26113e-09
-2.2355e-09
-4.98472e-09
7.1019e-09
-2.12672e-09
-5.59807e-09
6.93727e-09
-1.99643e-09
-6.18663e-09
6.71975e-09
-1.8404e-09
-6.72753e-09
6.45829e-09
-1.68688e-09
-7.21258e-09
6.20654e-09
-1.52625e-09
-7.6014e-09
5.82025e-09
-1.21458e-09
-7.94362e-09
5.26788e-09
-6.75855e-10
-8.23156e-09
5.09157e-09
-6.58857e-10
-8.38787e-09
4.91692e-09
-6.08604e-10
-8.43437e-09
4.80967e-09
-5.71379e-10
-8.31474e-09
4.72577e-09
-5.6826e-10
-7.94403e-09
4.62922e-09
-6.17524e-10
-7.23167e-09
4.47278e-09
-6.92199e-10
-6.1651e-09
4.30965e-09
-7.93572e-10
-4.7495e-09
4.20129e-09
-9.49151e-10
-3.01556e-09
4.01427e-09
-1.01794e-09
-1.1251e-09
3.86499e-09
-1.02425e-09
7.40649e-10
3.74613e-09
-9.82407e-10
2.58238e-09
3.24238e-09
-8.94955e-10
3.48972e-09
3.4725e-09
-4.54939e-10
3.27464e-09
4.43144e-09
-1.05626e-10
2.10968e-09
5.96259e-09
4.1251e-11
9.83643e-09
-1.76616e-09
-2.61171e-10
1.20472e-08
-3.16607e-09
-1.33239e-09
1.07302e-08
-1.13764e-09
-1.87713e-09
9.51957e-09
-1.13881e-09
-2.45973e-09
9.35538e-09
-1.19312e-09
-2.9792e-09
8.99374e-09
-1.21279e-09
-3.53361e-09
8.77108e-09
-1.11444e-09
-3.96936e-09
8.45897e-09
-1.08562e-09
-4.31592e-09
8.10322e-09
-1.0366e-09
-4.61744e-09
7.75132e-09
-9.91231e-10
-5.24391e-09
7.42184e-09
-5.88553e-10
-6.34522e-09
6.76425e-09
1.57581e-10
-6.89653e-09
5.44928e-09
3.7013e-10
-7.21169e-09
4.91568e-09
4.91251e-10
-7.41358e-09
4.69169e-09
4.27308e-10
-7.56336e-09
4.53289e-09
4.26736e-10
-7.56292e-09
4.2915e-09
4.33986e-10
-7.38818e-09
3.97924e-09
4.7539e-10
-6.92864e-09
3.57464e-09
4.38747e-10
-6.07702e-09
3.09935e-09
3.58815e-10
-4.79927e-09
2.66375e-09
2.59917e-10
-3.16893e-09
2.25286e-09
1.31171e-10
-1.38334e-09
2.08431e-09
-4.81051e-12
2.9561e-10
2.21977e-09
-1.5251e-10
1.79667e-09
1.98401e-09
-2.42604e-10
2.62441e-09
2.72082e-09
-7.59718e-11
2.39217e-09
4.28631e-09
3.77526e-10
1.28834e-09
6.26576e-09
8.00898e-10
1.16416e-08
-5.16359e-10
1.86435e-10
1.3063e-08
-1.20163e-09
-6.14625e-10
1.19415e-08
-4.09736e-10
-1.03982e-09
1.04811e-08
-5.35926e-10
-1.40705e-09
9.84122e-09
-1.18207e-10
-1.75481e-09
9.38541e-09
-4.35201e-11
-2.15402e-09
9.07232e-09
9.83456e-11
-2.42998e-09
8.67201e-09
6.32755e-11
-2.63264e-09
8.27013e-09
3.60868e-11
-2.76084e-09
7.87795e-09
1.88787e-12
-3.06415e-09
7.51747e-09
2.07971e-10
-4.11686e-09
6.81855e-09
9.9867e-10
-5.46196e-09
5.60439e-09
1.1902e-09
-6.15573e-09
4.70062e-09
9.09003e-10
-6.55022e-09
4.41541e-09
6.70928e-10
-6.80055e-09
4.05622e-09
7.27126e-10
-6.90714e-09
3.35245e-09
1.04577e-09
-6.87044e-09
2.49996e-09
1.4427e-09
-6.54009e-09
1.46352e-09
1.78086e-09
-5.74901e-09
6.37444e-10
1.67091e-09
-4.52999e-09
3.0657e-11
1.41413e-09
-3.03738e-09
-3.72524e-10
1.13283e-09
-1.35033e-09
-5.16106e-10
9.13401e-10
2.35223e-10
5.50646e-11
5.79198e-10
1.48411e-09
4.55394e-10
2.79765e-10
2.00239e-09
2.07467e-09
1.27951e-10
1.71391e-09
4.04917e-09
5.25744e-10
7.88624e-10
6.41733e-09
7.73964e-10
1.18986e-08
5.32225e-10
-1.179e-10
1.35765e-08
-3.95005e-10
-5.21498e-10
1.21582e-08
1.87508e-10
-6.92268e-10
1.13844e-08
-7.31981e-10
-9.87235e-10
1.04957e-08
-3.59098e-10
-1.26801e-09
9.91102e-09
-2.44439e-10
-1.59034e-09
9.49206e-09
-9.70203e-11
-1.792e-09
8.95592e-09
-8.18861e-11
-1.88828e-09
8.39718e-09
-3.04429e-11
-1.96119e-09
8.02517e-09
-7.39982e-11
-2.09726e-09
7.64995e-09
3.88774e-12
-2.8785e-09
6.83221e-09
7.67823e-10
-4.45349e-09
5.51463e-09
1.66493e-09
-5.21562e-09
4.64119e-09
8.21715e-10
-5.41566e-09
3.96881e-09
6.46761e-10
-5.3343e-09
2.82061e-09
1.15436e-09
-5.07062e-09
1.35213e-09
1.73671e-09
-4.88903e-09
4.81534e-10
1.83687e-09
-4.77338e-09
-3.4663e-10
1.69453e-09
-4.48087e-09
-1.19048e-09
1.53543e-09
-3.90733e-09
-1.80238e-09
1.25951e-09
-3.11732e-09
-2.1568e-09
9.9426e-10
-1.90463e-09
-2.51632e-09
7.87516e-10
-5.26552e-10
-2.19305e-09
8.70034e-10
6.89558e-10
-1.06252e-09
3.01802e-10
1.20715e-09
1.45717e-09
9.99688e-11
1.09946e-09
3.89413e-09
2.62843e-10
5.72533e-10
6.49267e-09
4.51812e-10
1.21333e-08
3.38343e-10
-2.72676e-10
1.36098e-08
2.39945e-10
-7.40097e-10
1.19295e-08
6.96747e-10
-9.15619e-10
1.12099e-08
3.50493e-10
-7.25403e-10
1.08126e-08
-5.06693e-10
-8.94556e-10
1.00239e-08
5.66928e-11
-1.11296e-09
9.35113e-09
3.5972e-10
-1.28484e-09
8.67484e-09
4.5332e-10
-1.35979e-09
8.33548e-09
1.36996e-10
-1.44797e-09
7.98177e-09
1.31883e-10
-1.48331e-09
7.51542e-09
1.70157e-10
-1.98809e-09
6.51872e-09
8.18511e-10
-3.19346e-09
5.11934e-09
1.60083e-09
-3.54973e-09
4.16041e-09
8.3717e-10
-2.98164e-09
2.85838e-09
5.42427e-10
-2.14346e-09
1.22364e-09
7.58823e-10
-1.89877e-09
1.23648e-10
9.83808e-10
-2.43553e-09
-3.04388e-10
1.32268e-09
-3.3002e-09
-9.84323e-10
1.50237e-09
-3.74909e-09
-1.99935e-09
1.25775e-09
-3.63479e-09
-2.86718e-09
9.50506e-10
-3.18273e-09
-3.1553e-09
5.46441e-10
-2.37229e-09
-3.49191e-09
1.65155e-10
-1.39514e-09
-3.46183e-09
2.91614e-10
-2.58478e-10
-2.45566e-09
2.56466e-10
5.33767e-10
2.32574e-10
4.32374e-10
6.44416e-10
3.57893e-09
2.0466e-10
3.00791e-10
6.44687e-09
3.89649e-10
1.20899e-08
3.44687e-10
-3.28063e-10
1.35655e-08
3.73014e-10
-8.0155e-10
1.16926e-08
7.10921e-10
-1.09553e-09
1.08144e-08
6.90022e-10
-1.39516e-09
1.04995e-08
6.1326e-10
-1.67129e-09
9.64237e-09
6.58084e-10
-1.82467e-09
8.80033e-09
7.04568e-10
-1.60756e-09
8.11422e-09
3.43861e-10
-1.03239e-09
8.07884e-09
-3.18204e-10
-1.07747e-09
7.8617e-09
1.65458e-10
-1.10087e-09
7.4372e-09
1.01909e-10
-1.27374e-09
6.36308e-09
3.28723e-10
-1.88655e-09
4.74587e-09
9.86417e-10
-1.79094e-09
3.49833e-09
5.66573e-10
-1.02871e-09
1.96973e-09
1.26468e-10
-3.75307e-10
4.54833e-10
1.15423e-10
-5.27965e-11
-2.06154e-10
7.29313e-12
-4.28596e-10
-2.50137e-10
3.21549e-10
-1.52374e-09
-1.04952e-09
1.16033e-09
-2.47432e-09
-2.28417e-09
1.2354e-09
-2.79663e-09
-3.57867e-09
1.0338e-09
-2.78487e-09
-3.95029e-09
7.83233e-10
-2.35988e-09
-4.16903e-09
2.52128e-10
-1.80066e-09
-4.26313e-09
2.4208e-10
-1.0077e-09
-3.67717e-09
4.28525e-10
1.87217e-11
-1.26698e-09
4.7313e-10
4.94615e-10
3.11526e-09
-1.21362e-11
2.33414e-10
6.36221e-09
3.46082e-10
1.21644e-08
1.59421e-10
-3.03852e-10
1.34701e-08
3.99787e-10
-6.68847e-10
1.15917e-08
4.66507e-10
-9.86183e-10
1.04931e-08
6.39067e-10
-1.2464e-09
9.97172e-09
7.88456e-10
-1.40787e-09
9.08099e-09
7.23263e-10
-1.49437e-09
8.18156e-09
7.05631e-10
-1.51455e-09
7.52401e-09
6.10719e-10
-1.47714e-09
7.46092e-09
5.80823e-10
-1.54014e-09
7.34781e-09
5.77188e-10
-1.28835e-09
6.93839e-09
2.47285e-10
-7.95096e-10
5.98562e-09
-1.156e-10
-7.99521e-10
4.31753e-09
4.32885e-10
-5.76523e-10
2.95186e-09
3.23548e-10
-1.44755e-10
1.41513e-09
1.22865e-10
1.35251e-10
1.03313e-10
7.15198e-11
2.59666e-10
-2.56316e-10
-7.42534e-11
1.35648e-10
-2.08856e-10
8.27372e-11
-1.86567e-10
-9.76919e-10
2.49612e-10
-1.23149e-09
-1.90821e-09
6.68955e-10
-1.89815e-09
-3.69649e-09
7.84472e-10
-2.24303e-09
-4.40936e-09
8.03944e-10
-2.09136e-09
-4.59737e-09
2.76667e-10
-1.7379e-09
-4.72991e-09
1.13317e-10
-1.22254e-09
-4.44259e-09
2.5004e-10
-3.88728e-10
-2.53717e-09
4.36356e-10
2.90236e-10
2.64678e-09
-2.10401e-10
1.45123e-10
6.25107e-09
2.56453e-10
1.21538e-08
1.56292e-10
-2.59827e-10
1.34333e-08
2.97238e-10
-5.02622e-10
1.15393e-08
2.95778e-10
-7.10514e-10
1.03418e-08
3.59774e-10
-8.35482e-10
9.67394e-09
4.23203e-10
-8.77156e-10
8.76931e-09
3.53754e-10
-8.81402e-10
7.87135e-09
3.14809e-10
-9.30292e-10
7.20834e-09
3.64881e-10
-9.22678e-10
6.95849e-09
4.95106e-10
-1.0141e-09
6.99268e-09
4.46834e-10
-7.47374e-10
6.04853e-09
6.23374e-10
-3.54494e-10
5.42361e-09
1.69306e-10
-1.73887e-10
3.67529e-09
4.61744e-10
3.34573e-11
2.30638e-09
4.38198e-10
9.62913e-11
1.16822e-09
1.84103e-10
1.73358e-10
5.23709e-11
-2.61209e-11
-4.04298e-11
2.03773e-10
-2.46299e-10
-1.22163e-10
-6.07466e-11
-6.63757e-11
5.23604e-10
-8.93813e-11
-1.53331e-09
-2.79342e-10
-1.07874e-09
-2.65308e-11
-1.0941e-09
-3.19905e-09
3.17324e-10
-1.68788e-09
-4.50858e-09
6.93002e-10
-1.78646e-09
-4.79613e-09
2.97342e-10
-1.62197e-09
-4.9645e-09
7.01009e-11
-1.33741e-09
-4.87662e-09
1.49454e-10
-7.11638e-10
-3.59425e-09
4.31278e-10
-4.04262e-12
1.99358e-09
-5.43363e-11
-8.59529e-12
6.1757e-09
8.01261e-11
1.21592e-08
-1.35005e-11
-2.13449e-10
1.34369e-08
2.10349e-10
-3.68304e-10
1.14956e-08
1.99098e-10
-4.78431e-10
1.02802e-08
1.72127e-10
-5.29151e-10
9.5477e-09
1.77405e-10
-5.33997e-10
8.64999e-09
1.24557e-10
-5.19267e-10
7.75606e-09
1.00903e-10
-5.77909e-10
7.15444e-09
1.12841e-10
-7.15102e-10
6.90702e-09
1.88947e-10
-1.10994e-09
6.94576e-09
4.42043e-10
-6.37352e-10
5.05567e-09
5.20471e-10
-1.52542e-10
4.94623e-09
-7.2675e-12
2.90455e-10
3.40939e-09
-1.77011e-10
5.18729e-10
1.81054e-09
2.67612e-10
5.56472e-10
1.22336e-09
-9.28543e-11
5.99858e-10
3.41071e-10
-3.32079e-10
8.33842e-10
4.57142e-10
-4.87344e-10
1.1844e-09
2.38179e-10
-6.4948e-10
3.69524e-10
-2.95542e-10
1.02104e-09
-1.56726e-11
-4.56224e-10
-2.37328e-10
-7.32067e-10
-2.96272e-09
4.80054e-10
-1.32794e-09
-4.63252e-09
7.19811e-10
-1.51057e-09
-4.94888e-09
3.35386e-10
-1.43537e-09
-5.11284e-09
7.31363e-11
-1.31209e-09
-5.10366e-09
1.03761e-10
-1.03131e-09
-4.38377e-09
5.08725e-10
-4.47617e-11
1.58031e-10
8.4904e-10
-2.35768e-11
6.07601e-09
7.87083e-11
1.23263e-08
-1.9019e-10
-1.7216e-10
1.34624e-08
1.47231e-10
-2.66095e-10
1.14804e-08
1.09782e-10
-3.04649e-10
1.02494e-08
6.98494e-11
-2.92857e-10
9.4745e-09
6.18482e-11
-2.5677e-10
8.56862e-09
4.56663e-11
-2.23737e-10
7.70158e-09
2.17782e-11
-2.98996e-10
7.13799e-09
9.2017e-11
-7.18039e-10
7.09213e-09
2.34224e-10
-1.60877e-09
6.83079e-09
1.00598e-09
-4.6876e-10
4.81918e-09
-9.03341e-10
1.69164e-10
4.77284e-09
-4.64382e-10
4.49731e-10
3.65048e-09
-5.21555e-10
6.16835e-10
1.82483e-09
-1.81354e-10
6.83384e-10
1.40268e-09
-2.45839e-10
5.81008e-10
4.95447e-10
-5.19886e-11
6.20109e-10
4.99474e-10
-8.14216e-11
7.09621e-10
3.41999e-10
-1.93325e-10
6.51403e-10
-4.03196e-10
1.6587e-10
3.72758e-10
-5.51716e-10
3.74134e-10
-2.85549e-10
-2.78085e-09
4.76423e-10
-9.08251e-10
-4.74284e-09
7.33025e-10
-1.15699e-09
-5.00489e-09
3.04749e-10
-1.14803e-09
-5.17303e-09
5.12264e-11
-1.08318e-09
-5.21109e-09
4.25759e-11
-8.81901e-10
-4.75975e-09
1.74688e-10
9.0584e-11
-1.45552e-09
6.41059e-10
9.15725e-11
5.85779e-09
2.17422e-10
1.25857e-08
-1.6731e-10
-1.43426e-10
1.35097e-08
9.67313e-11
-2.03857e-10
1.14729e-08
6.8406e-11
-1.98869e-10
1.02271e-08
1.78191e-11
-1.57859e-10
9.42694e-09
6.97939e-12
-1.04624e-10
8.52266e-09
-6.89587e-12
-6.18255e-11
7.68288e-09
-2.37612e-11
-1.17541e-10
7.18244e-09
1.15673e-11
-5.66236e-10
7.32448e-09
2.16639e-10
-1.13002e-09
6.92019e-09
4.74655e-10
-5.73859e-10
4.27448e-09
-1.12859e-11
-4.8432e-11
4.10739e-09
1.40167e-10
2.45979e-10
3.36053e-09
-4.36703e-12
3.74213e-10
1.78918e-09
-9.253e-11
5.20748e-10
1.5018e-09
-2.45623e-10
4.96604e-10
5.7315e-10
-5.35451e-11
6.10329e-10
5.78603e-10
-1.92841e-10
6.87009e-10
4.17122e-10
-1.51793e-10
7.33541e-10
-4.04422e-10
-4.53082e-11
9.02052e-10
-7.21039e-10
8.07477e-13
1.33784e-10
-2.79315e-09
7.80565e-10
-5.62904e-10
-4.79775e-09
7.51595e-10
-8.41432e-10
-5.0423e-09
3.15935e-10
-8.44705e-10
-5.22133e-09
5.15807e-11
-7.64472e-10
-5.3174e-09
2.60788e-11
-5.5076e-10
-5.05197e-09
7.851e-11
1.48154e-10
-2.20439e-09
4.9942e-11
1.77898e-10
5.58016e-09
2.48078e-10
1.27305e-08
3.35986e-11
-1.24599e-10
1.35728e-08
6.2015e-11
-1.60744e-10
1.14201e-08
8.95229e-11
-1.32859e-10
1.01891e-08
1.06369e-11
-7.92194e-11
9.38717e-09
-1.34368e-11
-1.82423e-11
8.48073e-09
-1.86676e-11
4.28501e-11
7.66587e-09
-4.37453e-11
-1.5539e-11
7.23422e-09
6.91936e-12
-4.40835e-10
7.59187e-09
1.58216e-10
-1.10657e-09
7.08586e-09
5.00348e-10
-8.14457e-10
3.85973e-09
1.22785e-10
-1.6769e-10
3.43576e-09
2.49889e-11
1.8204e-10
2.99954e-09
1.13572e-11
4.14008e-10
1.64069e-09
-8.34341e-11
4.62425e-10
1.45983e-09
-6.416e-12
5.48716e-10
5.16094e-10
-2.92217e-11
6.32378e-10
5.10475e-10
-1.55198e-11
7.31606e-10
3.29951e-10
-1.20464e-11
1.05334e-09
-7.60043e-10
3.38802e-11
1.18907e-09
-1.10396e-09
2.47189e-10
3.59413e-10
-2.99818e-09
1.03469e-09
-2.93361e-10
-4.89057e-09
7.45595e-10
-5.66383e-10
-5.04493e-09
2.75655e-10
-5.99026e-10
-5.2202e-09
3.15053e-11
-5.44945e-10
-5.37442e-09
2.93756e-12
-3.30076e-10
-5.2696e-09
2.75816e-12
1.85195e-10
-2.76725e-09
4.75721e-11
1.76445e-10
5.2965e-09
2.92582e-10
1.27321e-08
1.75381e-10
-1.12359e-10
1.36488e-08
3.69978e-11
-1.38078e-10
1.13784e-08
6.79552e-11
-9.4872e-11
1.01382e-08
8.11132e-12
-3.32662e-11
9.35305e-09
-2.70568e-11
4.05332e-11
8.43657e-09
-2.92712e-11
1.14762e-10
7.63411e-09
-4.21313e-11
4.32743e-11
7.2843e-09
2.1719e-11
-4.13962e-10
7.82743e-09
2.21997e-10
-1.02344e-09
7.20653e-09
4.89088e-10
-7.68721e-10
3.6083e-09
-3.15317e-12
-2.24177e-10
3.0527e-09
-1.61374e-10
5.92406e-11
2.76884e-09
-5.26315e-11
3.14187e-10
1.49469e-09
-1.08899e-10
3.2344e-10
1.4385e-09
1.21151e-11
4.67343e-10
4.20551e-10
-4.83463e-11
6.54965e-10
3.65723e-10
-4.28589e-11
9.26412e-10
7.10425e-12
5.14074e-11
1.32552e-09
-1.26011e-09
1.00958e-10
1.40447e-09
-1.45502e-09
2.72104e-10
5.14308e-10
-3.22308e-09
1.11505e-09
-4.33004e-11
-4.8547e-09
5.21739e-10
-3.12987e-10
-4.98282e-09
2.07575e-10
-3.76373e-10
-5.15483e-09
-1.98306e-12
-3.75334e-10
-5.37932e-09
3.86056e-12
-2.27767e-10
-5.37724e-09
-3.99273e-11
1.5175e-10
-3.20291e-09
5.61119e-11
1.29099e-10
4.99427e-09
3.2505e-10
1.26177e-08
2.43983e-10
-9.82754e-11
1.37284e-08
1.92197e-11
-1.27659e-10
1.13945e-08
1.38345e-11
-7.64017e-11
1.00797e-08
7.75257e-12
-1.45651e-11
9.31788e-09
-2.6235e-11
7.10952e-11
8.38442e-09
-3.31359e-11
1.23992e-10
7.59026e-09
-8.72293e-12
-1.88801e-11
7.36201e-09
6.54752e-11
-5.39282e-10
8.04018e-09
3.07975e-10
-1.09065e-09
7.20091e-09
5.57266e-10
-9.00101e-10
3.30648e-09
1.1139e-10
-3.75294e-10
2.62694e-09
-9.89568e-11
-1.60033e-10
2.53183e-09
2.18279e-11
8.80171e-11
1.30436e-09
-5.76847e-11
1.23602e-10
1.3745e-09
2.8452e-11
3.82267e-10
1.5384e-10
8.05619e-12
8.61058e-10
-3.24839e-10
2.11776e-10
1.32747e-09
-8.27285e-10
3.67981e-10
1.50377e-09
-1.6243e-09
1.87889e-10
1.40585e-09
-1.51589e-09
1.58783e-10
5.54938e-10
-3.29621e-09
9.2404e-10
1.45091e-10
-4.68957e-09
2.44716e-10
-1.19186e-10
-4.82085e-09
1.0231e-10
-2.25194e-10
-5.00117e-09
-4.76498e-11
-2.9841e-10
-5.29271e-09
-1.33992e-11
-2.22988e-10
-5.38699e-09
-6.56784e-11
2.53833e-11
-3.5075e-09
5.61946e-11
4.41848e-11
4.67225e-09
3.03368e-10
1.23356e-08
3.26813e-10
-9.64112e-11
1.38216e-08
3.7223e-12
-1.3485e-10
1.1419e-08
1.456e-11
-8.19467e-11
1.00419e-08
-1.46225e-11
-1.10115e-11
9.28525e-09
-3.7878e-11
8.24056e-11
8.32439e-09
-3.3008e-11
8.80181e-11
7.55178e-09
3.32015e-11
-1.32629e-10
7.4207e-09
1.62276e-10
-6.50377e-10
8.18277e-09
3.75497e-10
-1.04752e-09
7.06768e-09
5.3065e-10
-8.18085e-10
2.95459e-09
1.22563e-10
-3.36318e-10
2.27892e-09
-1.33661e-10
-2.10267e-10
2.28482e-09
1.21028e-10
-3.3889e-12
1.12649e-09
-2.89745e-11
1.13755e-10
1.0133e-09
2.44089e-10
7.18139e-10
-5.46338e-10
9.5796e-11
1.09458e-09
-1.17776e-09
4.76487e-10
1.27979e-09
-1.48389e-09
4.71385e-10
1.44282e-09
-1.85438e-09
6.70482e-11
1.17488e-09
-1.7312e-09
4.83247e-10
5.39157e-10
-3.20741e-09
5.46931e-10
2.83841e-10
-4.42648e-09
-7.77344e-12
4.94167e-11
-4.55945e-09
-2.69761e-11
-1.0242e-10
-4.76519e-09
-8.41467e-11
-2.56074e-10
-5.10882e-09
-3.02292e-11
-2.67058e-10
-5.26207e-09
-1.13934e-10
-1.96036e-10
-3.6073e-09
2.87544e-11
-3.78162e-11
4.44179e-09
7.23758e-11
1.20808e-08
2.1749e-10
-1.02755e-10
1.39327e-08
-7.74156e-12
-1.5398e-10
1.14185e-08
5.23048e-11
-1.10975e-10
1.0034e-08
-3.46314e-11
-4.27457e-11
9.256e-09
-3.85486e-11
2.14584e-11
8.26215e-09
-1.60191e-12
-7.93762e-11
7.53931e-09
1.13629e-10
-4.38803e-10
7.52299e-09
2.5745e-10
-9.30405e-10
8.21861e-09
4.5609e-10
-1.10523e-09
6.86046e-09
3.82297e-10
-7.90211e-10
2.77006e-09
-1.30397e-10
-5.20061e-10
2.10079e-09
-9.19483e-11
-3.92796e-10
2.37698e-09
-2.19359e-10
-2.05283e-10
9.29277e-10
9.73389e-12
5.90488e-10
3.81793e-10
-1.64249e-10
6.61955e-10
-1.14831e-09
5.30502e-10
1.11747e-09
-1.3471e-09
-2.86182e-10
1.45815e-09
-1.62229e-09
-2.02277e-10
1.2504e-09
-2.01925e-09
3.72625e-10
1.32144e-09
-1.72629e-09
-7.59553e-11
7.09721e-10
-3.02148e-09
4.25794e-10
4.45244e-10
-4.07306e-09
-8.89391e-11
1.76788e-10
-4.22286e-09
-6.81334e-11
-1.59788e-11
-4.46318e-09
-1.09239e-10
-2.29904e-10
-4.846e-09
-4.88925e-11
-3.20301e-10
-5.01682e-09
-1.54859e-10
-3.67143e-10
-3.5406e-09
-1.98698e-11
-3.23465e-11
4.45471e-09
-3.47583e-10
1.2072e-08
-2.30801e-11
-1.17177e-10
1.40583e-08
-7.76698e-12
-1.81212e-10
1.14543e-08
2.87525e-11
-1.62997e-10
1.00814e-08
-6.51211e-11
-1.5028e-10
9.25574e-09
-1.20287e-11
-1.78489e-10
8.27443e-09
1.63051e-11
-4.88894e-10
7.71406e-09
1.35992e-10
-9.21065e-10
7.89176e-09
6.37287e-11
-1.17096e-09
8.47902e-09
-1.01765e-11
-1.05878e-09
6.71688e-09
3.16584e-11
-8.03496e-10
2.419e-09
9.58612e-11
-4.89272e-10
1.86827e-09
-8.16457e-11
-4.7849e-10
2.33691e-09
2.93549e-11
-1.17018e-11
2.04374e-10
2.58132e-10
6.27934e-10
-5.94493e-10
3.36658e-10
8.73146e-10
-1.57112e-09
1.77599e-10
9.30883e-10
-1.53908e-09
1.34239e-10
1.09365e-09
-1.72883e-09
-5.62339e-11
1.40795e-09
-2.31001e-09
-2.35305e-11
1.34858e-09
-2.08723e-09
4.20307e-10
7.28702e-10
-2.78541e-09
3.83799e-10
5.46031e-10
-3.67022e-09
-2.20175e-10
2.84439e-10
-3.85817e-09
-1.031e-10
9.25441e-11
-4.13895e-09
-1.32335e-10
-1.5817e-10
-4.55437e-09
-4.09242e-11
-3.06868e-10
-4.74242e-09
-1.25703e-10
-4.03544e-10
-3.41552e-09
-2.84217e-11
1.53969e-11
4.58629e-09
-5.50374e-10
1.22202e-08
-1.32405e-10
-1.41022e-10
1.42462e-08
-4.6284e-11
-2.47118e-10
1.15936e-08
-3.26096e-11
-2.93353e-10
1.01901e-08
-6.20019e-11
-3.80739e-10
9.33855e-09
5.0159e-12
-5.79839e-10
8.44594e-09
2.79617e-11
-8.81461e-10
8.10148e-09
-8.54474e-11
-1.08889e-09
8.55517e-09
-4.55615e-10
-1.25099e-09
8.8548e-09
-2.13324e-10
-1.22629e-09
6.03753e-09
6.54874e-10
-6.59377e-10
1.66569e-09
1.86468e-10
-2.07984e-10
1.57805e-09
-1.61125e-10
-1.63072e-10
2.11927e-09
1.72786e-10
2.42706e-10
-3.82589e-10
1.8119e-10
3.49172e-10
-1.10654e-09
4.05584e-10
7.71991e-10
-1.73905e-09
-2.54893e-10
7.36581e-10
-1.84402e-09
3.40354e-10
7.55437e-10
-2.16427e-09
4.16588e-10
1.62319e-09
-2.6689e-09
-5.08864e-10
1.78825e-09
-2.90757e-09
6.5528e-10
8.51964e-10
-3.03841e-09
1.18929e-09
6.18818e-10
-3.35292e-09
-8.41563e-11
3.51273e-10
-3.58188e-09
-8.74457e-12
1.74943e-10
-3.85734e-09
-1.0528e-10
-5.57876e-11
-4.29252e-09
-3.11107e-11
-1.96279e-10
-4.51046e-09
-9.14624e-11
-2.54813e-10
-3.29981e-09
-5.71776e-11
7.66438e-11
4.63979e-09
-3.84817e-10
1.24254e-08
-1.28003e-10
-1.63243e-10
1.44499e-08
-3.9911e-11
-3.11283e-10
1.17903e-08
-4.81063e-11
-4.34982e-10
1.04026e-08
-8.82496e-11
-6.39802e-10
9.62093e-09
-7.71104e-11
-9.05213e-10
8.92027e-09
-2.08522e-10
-1.24385e-09
8.83127e-09
-3.9077e-10
-1.6841e-09
9.34982e-09
-3.54011e-10
-2.14886e-09
8.84378e-09
4.76163e-10
-1.62037e-09
4.61706e-09
8.92171e-10
-5.32232e-10
1.35002e-09
-7.72418e-10
-1.78939e-10
1.81368e-09
-5.88872e-10
1.90004e-10
2.55746e-09
-8.07067e-10
1.87266e-10
-2.10763e-10
-1.69088e-10
2.41833e-10
-7.25887e-10
-4.35224e-10
1.01914e-10
-1.33613e-09
-2.62998e-10
3.89931e-10
-1.4025e-09
-7.29539e-10
8.74633e-10
-1.85778e-09
-7.91191e-10
1.50625e-09
-2.54197e-09
-7.58556e-10
2.54603e-09
-2.94647e-09
-1.00087e-09
1.15778e-09
-3.36465e-09
1.71449e-09
8.40065e-10
-3.0158e-09
-1.94046e-11
4.8631e-10
-3.22424e-09
-3.88478e-12
2.91319e-10
-3.57749e-09
-8.48662e-11
6.397e-11
-4.03819e-09
-2.69855e-11
-6.11032e-11
-4.28101e-09
-1.04383e-10
-1.04449e-10
-3.17325e-09
-8.32125e-11
9.03206e-11
4.61764e-09
-1.7247e-10
1.26477e-08
-1.31555e-10
-1.98368e-10
1.47288e-08
-7.98611e-11
-4.14335e-10
1.20402e-08
-3.33366e-11
-6.37e-10
1.06893e-08
-6.35441e-11
-8.94916e-10
9.98439e-09
-1.05081e-10
-1.23222e-09
9.45367e-09
-1.95674e-10
-1.69479e-09
9.56211e-09
-2.67845e-10
-2.30197e-09
9.99149e-09
-3.4048e-11
-2.63941e-09
8.39203e-09
7.8954e-10
-1.68659e-09
2.12752e-09
1.53683e-09
-7.53698e-10
1.33173e-09
-9.14579e-10
-4.04028e-10
2.83781e-09
-1.37373e-09
-3.95578e-10
3.8244e-09
-1.27529e-09
-3.5004e-10
6.34158e-10
-8.90459e-10
-2.63414e-10
2.71849e-10
-1.08436e-09
-2.37741e-10
1.29039e-10
-1.49084e-09
7.48563e-11
1.2228e-10
-1.83738e-09
5.97578e-10
4.79352e-11
-2.42844e-09
1.29769e-09
-3.81383e-10
-2.8607e-09
2.73215e-09
-5.51476e-10
-3.82945e-09
1.51131e-09
-1.83104e-09
-3.12771e-10
9.88824e-10
-2.13794e-09
-3.55381e-10
5.73576e-10
-2.65664e-09
-1.52346e-10
3.48774e-10
-3.25317e-09
-9.95098e-11
1.4628e-10
-3.78844e-09
-4.72557e-11
5.21875e-11
-4.0178e-09
-1.6911e-10
1.32639e-11
-3.02728e-09
-1.07053e-10
8.43242e-11
4.56725e-09
-2.05245e-11
1.28652e-08
-1.32639e-10
-2.00903e-10
1.49745e-08
-4.41973e-11
-4.31846e-10
1.23154e-08
-4.36286e-11
-6.39552e-10
1.09929e-08
-9.53599e-11
-8.39807e-10
1.03539e-08
-1.6872e-10
-1.13396e-09
9.91627e-09
-1.67997e-10
-1.4636e-09
1.00316e-08
-1.39394e-10
-1.59778e-09
1.00502e-08
7.58581e-11
-6.33375e-10
4.93144e-09
2.49642e-09
5.96523e-11
1.19345e-11
1.42258e-09
9.53369e-11
-6.45581e-10
1.94164e-09
-6.31803e-11
6.54898e-10
2.34148e-09
-3.13789e-10
2.12709e-09
1.948e-09
-1.86849e-10
-3.80932e-10
8.88151e-10
-1.21683e-10
-5.7704e-10
7.83723e-10
-6.20368e-11
-4.93757e-10
5.63151e-10
5.54474e-11
-4.61119e-10
4.65915e-10
2.99196e-10
-4.09991e-10
2.14177e-10
4.27916e-10
-7.49721e-10
2.39618e-10
4.91835e-10
-9.07424e-10
2.9203e-10
3.49871e-10
-1.80331e-09
1.14241e-10
3.95775e-10
-2.0512e-09
-1.32644e-10
3.22059e-10
-2.51803e-09
-6.49016e-11
2.40565e-10
-3.12017e-09
-5.15123e-11
1.40058e-10
-3.66341e-09
-2.45184e-11
1.01593e-10
-3.64198e-09
-3.37355e-10
9.09396e-11
-2.85882e-09
-1.57806e-10
6.74423e-11
4.51087e-09
8.00222e-11
1.30671e-08
-1.33851e-10
-2.29626e-10
1.52721e-08
-6.72751e-11
-4.92165e-10
1.2678e-08
-9.94434e-11
-7.34249e-10
1.13765e-08
-1.41022e-10
-1.03989e-09
1.07995e-08
-1.39543e-10
-1.45428e-09
1.04565e-08
-1.25383e-10
-1.8285e-09
1.05171e-08
-1.10869e-10
-1.62754e-09
9.58125e-09
2.68458e-10
1.53634e-11
1.85621e-09
1.43243e-09
-8.79607e-11
-4.73322e-10
5.88581e-10
-2.41685e-10
-6.934e-10
2.01543e-10
-1.36342e-10
-1.94446e-10
7.44008e-10
2.39168e-10
6.11185e-10
1.14042e-09
9.42368e-11
-4.0856e-10
1.72559e-10
7.53681e-12
-4.53994e-10
-3.63459e-11
2.8348e-11
-4.65615e-10
-4.89539e-11
1.08498e-10
-5.4374e-10
2.47066e-12
3.28734e-10
-6.03517e-10
-2.67099e-11
4.47881e-10
-8.44925e-10
-2.39424e-11
6.97607e-10
-1.04648e-09
-1.10674e-10
5.10512e-10
-1.54486e-09
-7.13581e-11
4.17576e-10
-1.86375e-09
-9.45121e-11
3.13477e-10
-2.35661e-09
-5.73176e-11
2.46892e-10
-2.98701e-09
-6.65681e-11
1.82704e-10
-3.54984e-09
-4.93876e-11
1.52693e-10
-3.10368e-09
-5.08295e-10
1.57311e-10
-2.70841e-09
-1.5502e-10
6.46536e-11
4.4438e-09
1.59872e-10
1.32234e-08
-9.1109e-11
-2.24868e-10
1.55323e-08
-3.46881e-11
-4.87309e-10
1.30399e-08
-9.88427e-11
-7.40598e-10
1.176e-08
-1.29629e-10
-1.11626e-09
1.12398e-08
-6.40632e-11
-1.59194e-09
1.08867e-08
4.59677e-11
-2.03221e-09
1.081e-08
1.47857e-10
-1.02513e-09
8.20202e-09
3.72504e-10
3.18059e-10
3.49953e-10
1.63088e-10
2.10487e-10
-8.0655e-10
4.408e-10
2.54734e-11
-7.45199e-10
2.36812e-10
-1.23355e-11
-5.84948e-10
4.28311e-10
1.61343e-10
-3.05218e-10
7.42728e-10
7.30583e-11
-5.2055e-10
2.00275e-10
1.32919e-11
-5.03773e-10
1.09545e-10
7.4119e-12
-5.23894e-10
6.41589e-11
3.19942e-11
-6.27827e-10
5.95055e-11
1.2916e-10
-6.92686e-10
-7.99674e-12
1.80913e-10
-9.08071e-10
1.1393e-11
2.63861e-10
-1.09095e-09
-3.84751e-11
2.2738e-10
-1.47619e-09
-3.21863e-11
2.17696e-10
-1.79652e-09
-5.75404e-11
1.85925e-10
-2.27214e-09
-5.27018e-11
1.79151e-10
-2.91312e-09
-6.71217e-11
1.62696e-10
-3.48722e-09
-4.61639e-11
1.5051e-10
-2.72955e-09
-3.6194e-10
1.68908e-10
-2.59504e-09
-1.31774e-10
4.91442e-11
4.35306e-09
2.10632e-10
1.33492e-08
-7.61484e-11
-2.4377e-10
1.58139e-08
-3.71548e-11
-5.03074e-10
1.3401e-08
-1.0109e-10
-7.75688e-10
1.21716e-08
-1.38344e-10
-1.16877e-09
1.16757e-08
-4.23079e-11
-1.59249e-09
1.13111e-08
-1.97963e-13
-1.84283e-09
1.06924e-08
3.68494e-10
-4.98714e-10
5.60207e-09
1.25607e-09
1.44571e-10
-5.73336e-10
2.80005e-10
1.00213e-10
-8.98323e-10
1.36131e-10
3.254e-11
-7.24232e-10
4.67062e-11
1.3251e-11
-5.89822e-10
2.41633e-11
6.96805e-11
-4.37079e-10
7.54311e-11
4.42802e-11
-4.73519e-10
-2.16304e-11
3.76473e-11
-4.54054e-10
-4.30857e-11
5.18665e-11
-4.85449e-10
-5.26643e-11
7.82583e-11
-5.99344e-10
-5.48752e-11
1.40752e-10
-6.97498e-10
-5.76814e-11
1.6052e-10
-8.92921e-10
-3.49187e-11
2.08937e-10
-1.072e-09
-6.73625e-11
1.76816e-10
-1.3985e-09
-4.55671e-11
1.58964e-10
-1.74021e-09
-3.84556e-11
1.34248e-10
-2.20029e-09
-4.71299e-11
1.42223e-10
-2.82496e-09
-9.61368e-11
1.58554e-10
-3.40579e-09
-9.77628e-11
1.50136e-10
-2.53993e-09
-1.81207e-10
1.61296e-10
-2.49531e-09
-1.10888e-10
3.98892e-11
4.24318e-09
2.31415e-10
1.34503e-08
-6.06197e-11
-2.33138e-10
1.60482e-08
-4.71808e-13
-4.72751e-10
1.37459e-08
-1.04592e-10
-7.3385e-10
1.25482e-08
-1.14914e-10
-1.13446e-09
1.21002e-08
-2.32479e-11
-1.67317e-09
1.17037e-08
1.46683e-10
-1.61932e-09
9.999e-09
6.39957e-10
1.73069e-10
2.31357e-09
1.49622e-09
2.54886e-10
-9.95316e-10
3.40163e-10
1.50878e-10
-8.70722e-10
7.64071e-11
8.71725e-11
-7.41698e-10
8.1171e-11
5.0248e-11
-6.18089e-10
6.51917e-11
4.97662e-11
-5.17612e-10
8.10153e-11
2.54103e-11
-4.97643e-10
4.84795e-11
1.17497e-11
-4.75634e-10
3.52403e-11
5.10851e-12
-5.09075e-10
3.02673e-11
2.67102e-11
-6.04604e-10
-1.63416e-11
5.66068e-11
-7.22871e-10
-4.52399e-12
7.11796e-11
-8.90673e-10
-1.68209e-11
9.40023e-11
-1.06836e-09
-2.647e-11
8.05792e-11
-1.35186e-09
-3.32235e-11
7.57205e-11
-1.67043e-09
-6.49235e-11
7.40461e-11
-2.08958e-09
-1.09035e-10
9.59975e-11
-2.65187e-09
-1.95042e-10
1.31361e-10
-3.22649e-09
-2.14659e-10
1.19809e-10
-2.41785e-09
-1.1052e-10
1.30721e-10
-2.36575e-09
-1.40468e-10
3.50368e-11
4.10944e-09
2.29528e-10
1.35532e-08
-6.73695e-11
-2.38539e-10
1.62324e-08
5.50872e-11
-4.78759e-10
1.4058e-08
-7.11796e-11
-7.84208e-10
1.29022e-08
-4.78985e-11
-1.26084e-09
1.24189e-08
1.58551e-10
-1.86043e-09
1.18184e-08
4.85419e-10
-9.87675e-10
8.70127e-09
4.25351e-10
5.44845e-11
7.86134e-10
4.853e-10
7.85645e-11
-1.04118e-09
2.17852e-11
4.73214e-11
-8.18767e-10
-2.0712e-11
3.02944e-11
-6.94205e-10
-3.04661e-11
2.45985e-11
-5.67098e-10
-4.52952e-11
2.3814e-11
-4.8914e-10
-2.76877e-11
1.55378e-11
-4.52732e-10
-3.6635e-11
1.20646e-11
-4.33682e-10
-3.84782e-11
7.70939e-12
-4.70311e-10
-3.4409e-11
2.61436e-11
-5.39138e-10
-8.38998e-11
3.24534e-11
-6.75634e-10
-5.35461e-11
3.27631e-11
-8.26355e-10
-6.46279e-11
4.04969e-11
-9.98829e-10
-7.72624e-11
4.13719e-11
-1.25168e-09
-1.01055e-10
4.79218e-11
-1.54265e-09
-1.34328e-10
4.87169e-11
-1.90824e-09
-1.82141e-10
5.27729e-11
-2.35019e-09
-3.05737e-10
6.74509e-11
-2.88338e-09
-3.57791e-10
9.37577e-11
-2.6194e-09
1.75234e-10
8.19374e-11
-2.1837e-09
-1.70238e-10
3.61709e-11
3.89612e-09
2.59191e-10
1.35707e-08
1.92933e-11
-2.12583e-10
-1.55832e-10
-3.99203e-10
-1.62948e-10
-6.51586e-10
-5.0185e-11
-1.00542e-09
1.32623e-10
-1.3991e-09
5.26875e-10
-6.00721e-10
2.56314e-10
-1.05477e-10
1.08236e-10
-4.01846e-11
-3.22922e-11
-7.59112e-12
-3.45354e-11
1.94786e-12
-2.01236e-11
8.19033e-12
-2.2686e-11
6.15634e-12
-3.26434e-12
3.84713e-12
-7.06455e-12
-1.0913e-12
-1.13362e-12
-5.25743e-12
-4.27302e-12
-2.03698e-12
-2.21236e-11
5.50864e-13
-2.82805e-11
2.95899e-12
-4.28141e-11
5.06418e-12
-5.64404e-11
5.51376e-12
-7.65789e-11
9.57763e-12
-1.05255e-10
1.53249e-11
-1.39228e-10
1.68281e-11
-2.16452e-10
2.22334e-11
-2.56498e-10
5.99057e-11
1.74225e-10
5.96954e-11
-1.21039e-10
3.79985e-11
1.58053e-10
5.27092e-11
-1.74742e-09
6.96265e-09
-7.41573e-09
-3.27702e-09
6.04604e-09
-7.77774e-09
-3.93133e-09
5.10539e-09
-7.41875e-09
-4.80089e-09
4.94267e-09
-6.8521e-09
-5.5384e-09
4.70866e-09
-6.7321e-09
-6.27586e-09
4.49958e-09
-6.42472e-09
-6.97498e-09
4.28742e-09
-6.28039e-09
-7.63856e-09
4.04163e-09
-6.04881e-09
-8.27783e-09
3.8694e-09
-5.88705e-09
-8.8725e-09
3.79767e-09
-5.8478e-09
-9.44323e-09
3.81024e-09
-5.93068e-09
-9.95775e-09
3.84968e-09
-6.10108e-09
-1.03789e-08
3.8943e-09
-6.222e-09
-1.063e-08
3.97057e-09
-6.62093e-09
-1.0721e-08
4.07316e-09
-7.05839e-09
-1.05517e-08
4.20152e-09
-7.77477e-09
-1.00225e-08
4.32283e-09
-8.66327e-09
-9.07897e-09
4.38998e-09
-9.63893e-09
-7.67316e-09
4.3762e-09
-1.05943e-08