/*--------------------------------*- C++ -*----------------------------------*\
| =========                 |                                                 |
| \\      /  F ield         | OpenFOAM: The Open Source CFD Toolbox           |
|  \\    /   O peration     | Version:  2.3.0                                 |
|   \\  /    A nd           | Web:      www.OpenFOAM.org                      |
|    \\/     M anipulation  |                                                 |
\*---------------------------------------------------------------------------*/
FoamFile
{
    version     2.0;
    format      ascii;
    class       surfaceScalarField;
    location    "2.60012";
    object      phi;
}
// * * * * * * * * * * * * * * * * * * * * * * * * * * * * * * * * * * * * * //

dimensions      [0 3 -1 0 0 0 0];

internalField   nonuniform List<scalar> 
2650
(
-3.51387e-09
5.02385e-08
-4.33629e-08
1.64608e-08
4.60364e-09
-2.12178e-08
5.33085e-08
-1.58127e-08
-1.76748e-08
8.61689e-08
-1.86424e-08
-1.08577e-08
1.08254e-07
-8.76152e-09
-9.96274e-09
1.10989e-07
1.01644e-08
-9.53886e-09
9.86192e-08
2.46811e-08
-8.95109e-09
4.23336e-08
8.55708e-08
-2.59225e-08
-8.03429e-09
1.16423e-07
-6.26899e-08
-6.91198e-08
1.14154e-07
-4.97039e-08
-1.10064e-07
4.90777e-08
-4.773e-09
-1.12496e-07
1.04426e-08
-4.65017e-09
-9.93395e-08
-3.77743e-09
-6.01854e-09
-6.81356e-08
-1.94512e-08
-8.39226e-09
-2.51752e-08
-2.90058e-08
-1.05943e-08
2.0183e-08
-3.50792e-08
-6.9188e-09
6.05299e-08
-3.1005e-08
-5.98155e-09
6.95245e-08
-5.60615e-09
-2.78483e-11
3.75723e-08
5.43632e-08
-1.90492e-08
8.67287e-08
-4.57929e-08
5.85568e-09
2.54107e-08
1.89738e-08
3.90186e-08
-3.15487e-08
2.98952e-09
6.79707e-08
-5.28308e-08
8.06597e-09
8.67158e-08
-4.10915e-08
3.70397e-09
9.49894e-08
-1.91796e-08
2.14449e-09
9.23505e-08
1.03278e-08
2.47559e-09
8.16197e-08
2.79294e-08
7.48268e-09
5.50982e-08
8.2723e-08
2.93726e-08
-1.70315e-08
2.13942e-07
-2.53753e-08
-5.33698e-08
1.72287e-07
-2.17851e-08
-5.99894e-08
4.33546e-08
1.23435e-08
-6.37467e-08
1.23088e-08
1.89109e-09
-6.18255e-08
-7.81575e-09
2.11715e-09
-4.94251e-08
-3.44626e-08
2.61103e-09
-2.61274e-08
-5.45995e-08
2.29612e-09
4.37559e-09
-6.62216e-08
6.39384e-10
3.75699e-08
-6.77491e-08
3.54986e-09
5.02809e-08
-1.99672e-08
1.64999e-09
3.61605e-08
5.85153e-08
9.97063e-09
1.27125e-07
-4.22785e-09
2.52685e-08
4.33501e-09
-4.19239e-09
5.71176e-08
-5.94496e-08
-3.94816e-09
8.5862e-08
-7.12726e-08
-1.03026e-08
1.02294e-07
-5.27854e-08
-4.73793e-09
1.02765e-07
-1.99594e-08
3.08251e-10
8.80475e-08
2.3253e-08
1.79269e-09
7.53612e-08
4.32509e-08
-2.6351e-09
4.28506e-08
9.6633e-08
1.8602e-08
-1.52125e-08
2.71105e-07
9.18975e-10
-3.12839e-08
1.95759e-07
-7.39095e-09
-5.07053e-08
5.76901e-08
5.08602e-09
-6.40206e-08
2.76438e-08
-2.01978e-09
-6.68003e-08
-5.38262e-09
3.4664e-10
-5.96443e-08
-4.07121e-08
-9.06598e-10
-4.39026e-08
-6.76898e-08
-2.65139e-09
-2.31133e-08
-8.41945e-08
-2.81646e-09
-1.30646e-09
-8.91738e-08
-3.82111e-10
8.11714e-09
-3.05709e-08
1.18003e-09
4.67364e-09
5.82777e-08
3.683e-09
1.16933e-07
1.4875e-08
3.28226e-08
-2.17948e-08
-6.69277e-09
7.02945e-08
-9.29851e-08
-3.93638e-09
9.62875e-08
-9.39181e-08
-3.34751e-09
1.05412e-07
-6.49057e-08
2.9953e-09
1.01823e-07
-1.98166e-08
3.44615e-09
8.57404e-08
3.7703e-08
1.63302e-09
6.69094e-08
6.80562e-08
-5.97423e-09
2.95804e-08
1.16238e-07
1.77243e-08
-1.63249e-08
3.0001e-07
1.7021e-08
-2.11119e-08
2.09e-07
-8.44408e-09
-3.9464e-08
7.29705e-08
3.07175e-09
-5.57136e-08
4.42571e-08
-3.63746e-10
-6.02486e-08
-3.26232e-09
2.4148e-09
-5.93321e-08
-4.42068e-08
2.57822e-09
-4.92877e-08
-7.58535e-08
-1.88075e-09
-3.79479e-08
-9.2336e-08
-3.19832e-09
-2.81008e-08
-9.69568e-08
-2.06406e-09
-1.81474e-08
-3.96181e-08
-9.06235e-10
-1.25323e-08
4.79105e-08
4.75384e-09
9.24494e-08
1.19596e-08
3.87901e-08
-5.8041e-08
-2.54394e-09
7.29198e-08
-1.23806e-07
-3.30925e-09
9.29988e-08
-1.1541e-07
1.41326e-09
9.31744e-08
-7.46286e-08
9.54736e-09
8.59779e-08
-1.81995e-08
5.57933e-09
6.97591e-08
5.09187e-08
3.00311e-09
5.04681e-08
9.15183e-08
-4.17114e-09
1.94518e-08
1.32522e-07
1.47336e-08
-1.40392e-08
3.14026e-07
1.94952e-08
-1.75134e-08
2.14688e-07
-2.20676e-09
-2.88404e-08
8.41488e-08
1.48871e-10
-3.97848e-08
5.25868e-08
2.61476e-09
-4.49459e-08
-1.57006e-09
3.4688e-09
-4.8007e-08
-4.62996e-08
5.1539e-09
-4.7215e-08
-7.82086e-08
1.56309e-09
-4.17369e-08
-9.47927e-08
-3.02143e-09
-3.43809e-08
-9.9978e-08
-4.33475e-09
-2.60673e-08
-4.51381e-08
-2.79362e-09
-1.57496e-08
3.26961e-08
4.89784e-09
6.46774e-08
1.20278e-08
3.4263e-08
-9.09673e-08
-1.33669e-09
5.98396e-08
-1.48805e-07
-5.77328e-10
6.95566e-08
-1.32312e-07
7.18439e-09
6.19274e-08
-7.80792e-08
1.10796e-08
5.54844e-08
-1.68394e-08
5.08288e-09
4.54114e-08
5.69939e-08
3.99787e-09
3.62999e-08
1.01717e-07
-1.08713e-09
9.77318e-09
1.52773e-07
6.27565e-09
-1.2215e-08
3.24962e-07
1.10739e-08
-1.03403e-08
2.11662e-07
1.15845e-09
-1.62347e-08
8.91621e-08
8.81154e-10
-2.23757e-08
5.50519e-08
3.67584e-09
-2.4467e-08
-1.60016e-09
2.12139e-09
-2.85072e-08
-4.52917e-08
3.03232e-09
-3.34935e-08
-7.45836e-08
1.36131e-09
-3.41494e-08
-9.40356e-08
-1.01051e-10
-2.87252e-08
-1.01131e-07
-4.2715e-09
-1.56021e-08
-5.12519e-08
-7.00928e-09
-9.87814e-09
2.75509e-08
-5.78463e-10
5.04127e-08
4.38846e-09
2.12368e-08
-1.10836e-07
-1.36831e-09
3.80979e-08
-1.66191e-07
5.2546e-10
3.66623e-08
-1.36405e-07
5.52872e-09
2.2368e-08
-6.85341e-08
4.74899e-09
2.18773e-08
-1.78905e-08
1.54176e-09
2.06787e-08
5.42949e-08
3.89757e-09
1.98147e-08
1.01692e-07
8.89441e-10
-9.07811e-09
1.82459e-07
-7.91256e-10
-1.75494e-08
3.27151e-07
6.30257e-09
-8.86744e-09
2.01657e-07
1.32818e-09
-1.14421e-08
9.07153e-08
1.02151e-09
-1.30357e-08
5.47186e-08
1.9271e-09
-1.32042e-08
-1.73318e-09
3.0153e-10
-1.59556e-08
-4.29772e-08
4.3678e-10
-2.08476e-08
-6.90361e-08
-6.55574e-10
-2.44717e-08
-9.00958e-08
-3.15867e-10
-2.03518e-08
-1.01612e-07
-3.63898e-09
-8.72428e-09
-5.59438e-08
-6.93557e-09
-2.50658e-09
2.24482e-08
-1.11501e-09
4.78396e-08
6.68083e-11
1.13545e-08
-1.20782e-07
-1.40837e-09
1.91933e-08
-1.74209e-07
1.78536e-10
1.21228e-08
-1.31051e-07
1.71637e-09
8.91172e-10
-5.75577e-08
2.54943e-10
3.27553e-09
-2.01421e-08
-1.32751e-10
1.11101e-08
4.47723e-08
1.68818e-09
1.24331e-08
1.01519e-07
-1.15027e-09
-1.84769e-08
2.14249e-07
-8.78439e-10
-2.11527e-08
3.26503e-07
3.34364e-09
-9.51255e-09
1.86311e-07
3.7098e-09
-9.06152e-09
8.92675e-08
9.96897e-10
-6.62241e-09
5.05726e-08
1.70696e-09
-6.43949e-09
-2.1294e-09
2.1331e-10
-7.93452e-09
-4.15808e-08
9.86348e-11
-1.06643e-08
-6.58877e-08
-4.18656e-10
-1.36695e-08
-8.66503e-08
-4.40196e-10
-1.15941e-08
-1.01082e-07
-2.6053e-09
-4.97709e-09
-5.62917e-08
-6.26922e-09
-3.27873e-10
1.87993e-08
-1.00031e-09
4.75568e-08
-4.50775e-11
4.42606e-09
-1.24469e-07
-7.38919e-10
7.06414e-09
-1.76865e-07
1.83494e-11
1.49632e-09
-1.24516e-07
-9.6641e-10
-5.80538e-09
-4.97588e-08
-4.97252e-10
-2.23434e-10
-2.50726e-08
-6.51551e-10
6.77095e-09
3.75269e-08
2.51052e-10
-1.19775e-09
1.08819e-07
6.68556e-10
-3.49423e-08
2.46256e-07
1.74232e-09
-2.4522e-08
3.18161e-07
-2.05842e-09
-1.0564e-08
1.6356e-07
8.79543e-09
-8.68571e-09
8.64556e-08
9.33696e-10
-2.72523e-09
4.46868e-08
-7.45012e-11
-4.31905e-10
-4.06263e-09
-3.60099e-10
-2.30241e-09
-3.88952e-08
-8.15084e-10
-3.81517e-09
-6.41273e-08
-2.47686e-10
-5.58998e-09
-8.45198e-08
-3.55645e-10
-4.5649e-09
-1.00696e-07
-1.411e-09
-2.027e-09
-5.46564e-08
-4.17314e-09
7.79654e-10
1.73932e-08
-1.40052e-09
4.88669e-08
-5.30486e-10
9.70142e-10
-1.8787e-10
1.24e-09
7.81946e-12
-1.49782e-09
-6.01032e-10
-4.87491e-09
-1.19459e-10
-2.51145e-09
7.01905e-10
-8.45563e-10
-2.37117e-10
-1.4259e-08
-5.31845e-09
-3.86933e-08
2.96223e-09
-2.62889e-08
-2.55034e-09
-1.50605e-08
2.11699e-09
-9.08117e-09
1.96046e-09
-8.71793e-10
8.52948e-10
1.59433e-09
3.84224e-10
-2.6169e-10
-8.67511e-10
-5.41178e-10
-3.31049e-10
-1.05136e-09
-2.0618e-10
-8.55047e-10
-3.82534e-10
-6.10748e-10
-1.52211e-09
4.69305e-10
-7.40908e-10
-3.8675e-10
-9.80612e-09
-6.43336e-09
-2.37631e-08
1.05373e-08
-2.46834e-08
-1.35175e-08
4.94132e-08
-4.34168e-08
-9.77367e-09
8.83661e-08
-3.93617e-08
-7.08867e-09
1.11294e-07
-2.39454e-08
-5.58479e-09
1.17105e-07
-6.90917e-09
-5.08004e-09
1.16261e-07
-2.19802e-10
-4.52742e-09
9.62063e-08
1.09906e-08
-1.34982e-08
-6.9062e-09
6.95471e-08
-2.57627e-08
-1.0198e-07
7.03544e-08
-2.16224e-08
-1.16839e-07
1.81363e-08
-4.6909e-09
-1.12143e-07
-3.47165e-09
-2.51343e-09
-9.8384e-08
-1.32598e-08
-3.15798e-09
-6.92922e-08
-3.05314e-08
-3.59235e-09
-2.55116e-08
-4.5442e-08
-5.57271e-09
2.30733e-08
-4.90228e-08
-3.12058e-09
6.8867e-08
-4.50338e-08
-3.3812e-09
8.37211e-08
-1.02496e-08
-1.27186e-09
5.47403e-08
2.49119e-08
-1.16198e-08
4.2076e-08
-2.97678e-08
4.86282e-09
3.17313e-09
4.50444e-09
3.79841e-08
-5.71555e-08
2.34025e-09
7.29352e-08
-7.25216e-08
2.21977e-09
9.57155e-08
-5.90802e-08
6.42031e-10
1.04941e-07
-3.11144e-08
8.76222e-11
9.79076e-08
1.80531e-09
7.94876e-10
8.84798e-08
1.90465e-08
-2.35584e-09
6.84888e-08
4.7535e-08
1.28194e-08
-2.29262e-09
1.198e-07
-4.84351e-09
-5.26731e-08
1.06968e-07
-8.0157e-09
-5.83577e-08
3.15987e-08
4.56582e-09
-6.84449e-08
8.80129e-09
-2.94624e-10
-6.75605e-08
-1.27821e-08
7.55065e-10
-5.28801e-08
-4.28968e-08
2.96028e-10
-2.94323e-08
-6.6664e-08
7.02654e-11
7.32103e-10
-7.85316e-08
-1.61529e-11
3.69233e-08
-7.93675e-08
1.69235e-09
4.95017e-08
-2.3915e-08
2.73696e-09
4.51254e-08
3.7183e-08
2.07631e-09
8.86873e-08
-5.71178e-09
2.26839e-08
-2.22098e-08
-1.49333e-09
6.49998e-08
-9.93091e-08
-4.11049e-09
9.35256e-08
-1.05128e-07
-6.22172e-09
1.09332e-07
-7.74377e-08
-2.18703e-09
1.11761e-07
-3.33969e-08
1.61594e-10
9.85694e-08
1.6087e-08
7.02975e-10
7.48176e-08
4.50081e-08
-4.84482e-09
5.31743e-08
7.575e-08
1.20306e-08
6.23163e-09
1.63617e-07
4.04791e-09
-3.40687e-08
1.43168e-07
-3.28826e-09
-5.16325e-08
5.18244e-08
2.4242e-09
-7.07089e-08
2.73247e-08
-1.46688e-09
-7.23561e-08
-1.08094e-08
2.11428e-11
-6.40023e-08
-5.16415e-08
-5.15585e-10
-4.81312e-08
-8.34971e-08
-1.68935e-09
-2.71296e-08
-1.0051e-07
-1.83984e-09
-2.4516e-09
-1.03786e-07
-6.41709e-10
8.25893e-09
-3.33369e-08
-1.08685e-10
5.28598e-09
4.48516e-08
-1.01213e-09
1.02922e-07
5.92955e-09
3.69191e-08
-6.20765e-08
-3.74514e-09
7.44315e-08
-1.39383e-07
-1.37505e-09
9.88621e-08
-1.32188e-07
-7.18506e-10
1.10409e-07
-8.86446e-08
2.65531e-09
1.09792e-07
-3.16115e-08
2.27779e-09
9.48259e-08
3.18172e-08
8.6884e-10
6.70399e-08
7.15858e-08
-4.76601e-09
4.55069e-08
1.05551e-07
9.4564e-09
3.39259e-09
2.20695e-07
2.06243e-09
-2.44281e-08
1.66455e-07
-3.90805e-09
-4.47876e-08
7.4258e-08
9.97638e-10
-6.17648e-08
4.43305e-08
-3.92323e-10
-6.48649e-08
-6.73675e-09
1.4422e-09
-6.19262e-08
-5.39007e-08
1.8986e-09
-5.26046e-08
-9.36182e-08
-1.08126e-09
-4.12107e-08
-1.12964e-07
-2.13856e-09
-2.87306e-08
-1.17183e-07
-1.14681e-09
-1.9127e-08
-4.32744e-08
-5.72302e-10
-1.46055e-08
4.49703e-08
1.14464e-10
9.0131e-08
1.01495e-08
4.08136e-08
-1.06412e-07
9.77783e-10
7.05496e-08
-1.72254e-07
-1.74554e-10
9.07401e-08
-1.53393e-07
2.42821e-09
9.69247e-08
-9.11847e-08
5.90272e-09
9.26566e-08
-2.5291e-08
3.5269e-09
7.78404e-08
4.79992e-08
1.63745e-09
5.26154e-08
9.52898e-08
-2.65004e-09
3.03215e-08
1.33953e-07
8.62542e-09
-9.12406e-09
2.71909e-07
7.73319e-09
-2.19847e-08
1.81979e-07
-4.86841e-09
-3.59304e-08
8.82573e-08
9.53536e-11
-4.48853e-08
5.50063e-08
8.93983e-10
-4.80117e-08
-2.2272e-09
2.08567e-09
-4.88516e-08
-5.16931e-08
3.78614e-09
-4.71338e-08
-9.47678e-08
9.94844e-10
-4.24417e-08
-1.19084e-07
-1.5932e-09
-3.5411e-08
-1.25559e-07
-2.99001e-09
-2.68e-08
-5.38268e-08
-8.52209e-10
-1.81532e-08
3.54239e-08
5.79813e-09
7.03428e-08
1.36663e-08
3.05038e-08
-1.38982e-07
7.29417e-10
5.44177e-08
-1.9727e-07
5.25028e-10
6.75279e-08
-1.63909e-07
4.59016e-09
6.51072e-08
-8.38183e-08
6.13383e-09
6.04554e-08
-1.83552e-08
2.79887e-09
5.18388e-08
5.86609e-08
1.95288e-09
3.92021e-08
1.07761e-07
-9.21575e-10
1.69387e-08
1.57233e-07
5.25983e-09
-9.66682e-09
3.06268e-07
3.32839e-09
-1.38374e-08
1.88324e-07
-1.01362e-09
-2.22446e-08
9.698e-08
5.65724e-10
-2.5452e-08
6.02528e-08
1.63689e-09
-2.62147e-08
-4.31644e-10
1.08848e-09
-2.87902e-08
-4.83836e-08
2.29829e-09
-3.24996e-08
-9.06006e-08
9.03523e-10
-3.24729e-08
-1.19499e-07
2.87476e-10
-2.74143e-08
-1.32385e-07
-2.50333e-09
-1.63186e-08
-6.79433e-08
-3.98851e-09
-1.08845e-08
2.93053e-08
1.06319e-10
5.80416e-08
5.80677e-09
1.81286e-08
-1.58484e-07
5.36507e-12
3.48686e-08
-2.14086e-07
6.01605e-10
3.49056e-08
-1.61654e-07
3.2365e-09
2.3806e-08
-7.02165e-08
2.24648e-09
2.34341e-08
-1.72707e-08
8.29181e-10
2.45474e-08
5.952e-08
1.92525e-09
2.27639e-08
1.10318e-07
1.16304e-10
-4.33694e-09
1.83277e-07
2.66022e-10
-1.82041e-08
3.21579e-07
4.86681e-09
-1.24978e-08
1.85345e-07
-1.39874e-09
-1.53341e-08
9.99428e-08
8.95016e-10
-1.47045e-08
6.04328e-08
1.11781e-09
-1.40476e-08
-9.51637e-10
1.6465e-10
-1.56631e-08
-4.67761e-08
4.44685e-10
-1.93713e-08
-8.74935e-08
-5.44588e-11
-2.23302e-08
-1.17252e-07
3.96351e-10
-1.82815e-08
-1.38562e-07
-1.51154e-09
-8.4644e-09
-8.07272e-08
-3.96878e-09
-3.03653e-09
2.31077e-08
-3.45255e-10
5.51111e-08
-3.89331e-11
9.26084e-09
-1.6874e-07
-4.1318e-10
1.69422e-08
-2.2186e-07
2.70852e-10
1.14335e-08
-1.55636e-07
1.20664e-09
9.09087e-10
-5.97376e-08
3.00147e-10
3.56559e-09
-2.01267e-08
6.67424e-11
1.3634e-08
5.01253e-08
1.01453e-09
1.36373e-08
1.09668e-07
-5.03584e-10
-1.73109e-08
2.13993e-07
-6.4559e-10
-2.29721e-08
3.26968e-07
3.62351e-09
-1.32668e-08
1.78861e-07
4.89798e-10
-1.22247e-08
9.90414e-08
8.56453e-10
-7.41738e-09
5.62494e-08
1.08319e-09
-6.74818e-09
-1.44026e-09
3.27438e-11
-7.3585e-09
-4.59556e-08
-1.11621e-10
-9.37553e-09
-8.61129e-08
2.17788e-10
-1.1569e-08
-1.15757e-07
2.57851e-10
-9.31096e-09
-1.42722e-07
-7.03271e-10
-4.34649e-09
-8.90468e-08
-2.91412e-09
-3.06708e-10
1.85813e-08
-5.13734e-10
5.43351e-08
4.24198e-10
3.56331e-09
-1.72859e-07
-1.83185e-10
6.17501e-09
-2.24573e-07
1.20011e-10
8.2225e-10
-1.51132e-07
-1.17719e-10
-5.87331e-09
-5.34499e-08
-8.94835e-11
-1.95214e-10
-2.6195e-08
-2.61473e-10
8.26523e-09
4.17194e-08
1.96668e-10
-2.11479e-09
1.20196e-07
5.20878e-10
-3.40984e-08
2.4606e-07
1.66061e-09
-2.90508e-08
3.21568e-07
-1.69878e-09
-1.37332e-08
1.67187e-07
5.15283e-09
-1.03246e-08
9.55548e-08
1.01197e-09
-2.92704e-09
4.85082e-08
2.69322e-10
-5.67994e-10
-4.04267e-09
-1.1673e-10
-1.91541e-09
-4.49862e-08
-4.36998e-10
-3.28406e-09
-8.51193e-08
1.27358e-10
-4.55908e-09
-1.14979e-07
1.41666e-10
-3.50556e-09
-1.44879e-07
-3.06954e-10
-1.65014e-09
-9.34822e-08
-1.59321e-09
1.02467e-09
1.53122e-08
-8.06267e-10
5.51808e-08
-3.51592e-10
7.91706e-10
-9.1865e-11
1.02742e-09
1.16965e-10
-2.20379e-09
-1.83878e-10
-5.61647e-09
-8.73881e-11
-2.45626e-09
3.04374e-10
-7.04309e-10
-6.49706e-11
-1.7105e-08
-2.99544e-09
-4.10292e-08
3.1394e-09
-3.30819e-08
-2.46131e-09
-1.83815e-08
1.94376e-09
-1.03394e-08
1.28081e-09
-9.24372e-10
4.20186e-10
1.88902e-09
1.52343e-10
-6.28618e-11
-2.67487e-10
-4.4858e-10
-6.16821e-11
-8.92545e-10
3.65512e-11
-7.71996e-10
1.4869e-11
-5.71548e-10
-5.0036e-10
8.06054e-10
-4.6456e-10
-2.84619e-10
-1.09557e-08
-3.28848e-08
2.34375e-08
9.00578e-09
-4.30478e-08
1.29291e-08
4.96384e-08
-5.62651e-08
9.219e-09
8.96412e-08
-5.02818e-08
6.55057e-09
1.1185e-07
-2.98327e-08
5.39968e-09
1.17331e-07
-1.2183e-08
4.98184e-09
1.1577e-07
-3.89035e-09
4.28412e-09
9.86245e-08
-6.16413e-09
1.31718e-08
-2.02261e-09
5.13709e-08
2.68747e-08
-1.04651e-07
6.0696e-08
2.36714e-08
-1.16071e-07
5.44717e-09
4.64187e-09
-1.11282e-07
-6.27801e-09
2.33549e-09
-9.80873e-08
-1.62893e-08
3.29721e-09
-6.89776e-08
-3.30669e-08
3.72521e-09
-2.60813e-08
-5.04196e-08
5.31091e-09
2.35224e-08
-5.44296e-08
5.06553e-09
7.14276e-08
-5.05978e-08
2.6718e-09
8.85786e-08
-1.61015e-08
1.03904e-09
5.88116e-08
1.06961e-08
1.08115e-08
2.48209e-09
2.99219e-08
1.45423e-09
-2.51363e-08
-4.69828e-09
3.99246e-08
-7.69106e-08
-2.26729e-09
7.72612e-08
-8.96158e-08
-1.76603e-09
9.97956e-08
-7.19223e-08
-2.51918e-10
1.0829e-07
-3.82364e-08
-2.69909e-12
1.0023e-07
-2.53202e-09
-7.96097e-10
7.26177e-08
1.87794e-08
2.58625e-09
6.32458e-08
2.92256e-08
-1.31985e-08
5.7387e-09
9.65235e-08
7.5126e-09
-4.59964e-08
9.54927e-08
8.92449e-09
-5.38657e-08
2.4664e-08
-6.78162e-09
-7.00693e-08
8.54048e-09
1.09048e-09
-6.95203e-08
-1.52653e-08
-8.18001e-10
-5.44531e-08
-4.72849e-08
-5.53134e-10
-3.10388e-08
-7.33142e-08
-4.49472e-10
-6.0776e-10
-8.468e-08
-1.96836e-10
3.62207e-08
-8.433e-08
-1.4039e-09
5.0738e-08
-2.51443e-08
-2.73754e-09
4.12171e-08
2.42583e-08
-1.96494e-09
3.24816e-08
5.50582e-09
2.57163e-08
-5.40329e-08
1.68703e-09
7.01821e-08
-1.30153e-07
4.66599e-09
9.60021e-08
-1.28147e-07
6.4899e-09
1.11424e-07
-9.20982e-08
2.56725e-09
1.14693e-07
-4.12309e-08
-1.13008e-10
1.01806e-07
1.15912e-08
-5.32972e-10
6.50606e-08
4.5928e-08
4.75156e-09
5.19964e-08
6.62228e-08
-1.19024e-08
1.07475e-08
1.42963e-07
-1.14084e-09
-3.23316e-08
1.31865e-07
3.42008e-09
-5.13537e-08
4.93741e-08
-3.26381e-09
-7.28981e-08
2.67004e-08
1.91758e-09
-7.43594e-08
-1.373e-08
-5.28325e-11
-6.54687e-08
-5.71324e-08
4.41114e-10
-4.96664e-08
-9.23929e-08
1.58706e-09
-2.83853e-08
-1.09677e-07
1.8764e-09
-2.82972e-09
-1.11175e-07
6.47787e-10
7.6108e-09
-3.56827e-08
-1.08313e-11
4.70507e-09
2.51252e-08
1.02676e-09
4.96022e-08
-6.48544e-09
3.84685e-08
-9.95308e-08
3.28427e-09
7.29257e-08
-1.67921e-07
1.93553e-09
9.7532e-08
-1.54571e-07
1.0991e-09
1.10972e-07
-1.00506e-07
-2.37695e-09
1.11953e-07
-3.76952e-08
-2.23932e-09
9.72346e-08
2.81802e-08
-1.00161e-09
6.18549e-08
7.26946e-08
3.84711e-09
4.70626e-08
9.93505e-08
-8.879e-09
1.0793e-08
1.84472e-07
-3.17523e-09
-2.32217e-08
1.59034e-07
2.93974e-09
-4.51462e-08
7.37594e-08
-1.46315e-09
-6.37948e-08
4.42933e-08
6.63442e-10
-6.6338e-08
-8.30846e-09
-1.4361e-09
-6.15392e-08
-5.80792e-08
-1.95349e-09
-5.28758e-08
-1.03209e-07
1.07167e-09
-4.18635e-08
-1.24969e-07
2.14042e-09
-2.74641e-08
-1.27925e-07
1.20332e-09
-1.90022e-08
-4.52546e-08
5.37698e-10
-1.80242e-08
2.43564e-08
-9.45443e-11
5.20832e-08
-1.03549e-08
3.87361e-08
-1.36366e-07
-9.23153e-10
6.68745e-08
-1.96264e-07
3.02389e-11
8.78667e-08
-1.70505e-07
-2.63044e-09
9.67325e-08
-9.73656e-08
-6.10334e-09
9.42246e-08
-2.8117e-08
-3.54351e-09
7.97107e-08
4.63452e-08
-2.0135e-09
5.01884e-08
9.67783e-08
2.78865e-09
3.38374e-08
1.3182e-07
-7.49282e-09
4.33255e-10
2.24528e-07
1.08405e-09
-2.16454e-08
1.76052e-07
1.93541e-10
-3.68282e-08
8.87962e-08
2.41395e-10
-4.6781e-08
5.60723e-08
-9.32128e-10
-4.91987e-08
-1.6924e-09
-2.11263e-09
-4.6589e-08
-5.30325e-08
-3.87032e-09
-4.48225e-08
-1.02919e-07
-1.06199e-09
-4.04354e-08
-1.32545e-07
1.59574e-09
-3.45941e-08
-1.39801e-07
3.04522e-09
-2.43509e-08
-5.73374e-08
9.8744e-10
-2.00011e-08
3.14041e-08
-5.59921e-09
5.91742e-08
-1.34249e-08
2.76355e-08
-1.63237e-07
-3.48947e-11
5.11364e-08
-2.17478e-07
-1.76182e-09
6.52954e-08
-1.74624e-07
-5.44962e-09
6.57004e-08
-8.51096e-08
-6.52736e-09
6.19338e-08
-1.86205e-08
-2.93101e-09
5.34612e-08
5.88869e-08
-2.1161e-09
3.83674e-08
1.10077e-07
8.73438e-10
2.35069e-08
1.55681e-07
-3.74037e-09
-7.37846e-09
2.61276e-07
-2.53177e-09
-1.43689e-08
1.81897e-07
1.32452e-10
-2.37624e-08
9.9091e-08
-3.35477e-10
-2.68808e-08
6.26351e-08
-1.80726e-09
-2.70975e-08
7.38709e-10
-1.12592e-09
-2.7529e-08
-4.79737e-08
-2.32916e-09
-3.08555e-08
-9.77187e-08
-9.70247e-10
-3.05001e-08
-1.32257e-07
-3.55881e-10
-2.61365e-08
-1.49165e-07
2.49679e-09
-1.55382e-08
-7.59992e-08
4.07496e-09
-1.28201e-08
2.8766e-08
2.63732e-11
5.73895e-08
-5.22836e-09
1.67989e-08
-1.80053e-07
2.25912e-11
3.3667e-08
-2.32044e-07
-1.70072e-09
3.4107e-08
-1.68641e-07
-3.18673e-09
2.40968e-08
-7.07093e-08
-2.14387e-09
2.41278e-08
-1.70153e-08
-8.07083e-10
2.57188e-08
6.11619e-08
-1.94064e-09
2.36605e-08
1.13068e-07
-8.15938e-10
1.52251e-09
1.76928e-07
1.15706e-09
-1.78768e-08
2.9045e-07
-4.90438e-09
-1.46802e-08
1.76761e-07
5.41825e-10
-1.69839e-08
1.03057e-07
-7.67077e-10
-1.54809e-08
6.33871e-08
-1.13689e-09
-1.43867e-08
-5.10027e-12
-1.85699e-10
-1.46786e-08
-4.67968e-08
-4.40444e-10
-1.79397e-08
-9.45587e-08
4.66422e-11
-2.06383e-08
-1.28732e-07
-4.29498e-10
-1.69815e-08
-1.55829e-07
1.49545e-09
-8.06635e-09
-9.28478e-08
3.9647e-09
-3.1045e-09
2.30241e-08
4.34806e-10
5.42323e-08
1.38201e-11
8.59373e-09
-1.89244e-07
1.83526e-10
1.59707e-08
-2.39099e-07
-5.09955e-11
1.09476e-08
-1.61748e-07
-6.62994e-10
8.74761e-10
-6.02926e-08
-4.39709e-11
3.77126e-09
-1.98023e-08
-4.28732e-11
1.44925e-08
5.24251e-08
-9.6974e-10
1.47093e-08
1.12334e-07
1.31877e-11
-1.42269e-08
2.03136e-07
2.08247e-09
-2.47698e-08
3.10996e-07
-6.37696e-09
-1.57702e-08
1.69084e-07
-8.3161e-10
-1.39201e-08
1.0289e-07
-8.26401e-10
-7.68298e-09
5.9153e-08
-9.19405e-10
-6.8191e-09
-7.75066e-10
-6.11562e-11
-6.95788e-09
-4.68957e-08
1.25996e-10
-8.67779e-09
-9.23895e-08
-2.31454e-10
-1.06538e-08
-1.26211e-07
-2.87043e-10
-8.46904e-09
-1.59423e-07
7.06323e-10
-4.03936e-09
-1.0311e-07
2.91817e-09
-1.52476e-10
1.80875e-08
5.35909e-10
5.48456e-08
-3.41517e-10
3.15978e-09
-1.92806e-07
2.19089e-10
5.76486e-09
-2.41794e-07
2.10119e-10
5.6297e-10
-1.56912e-07
2.4804e-10
-5.99711e-09
-5.39256e-08
1.0342e-10
-1.5481e-10
-2.61738e-08
2.67663e-10
8.89734e-09
4.37557e-08
-1.85938e-10
-8.02523e-10
1.23343e-07
-7.87593e-10
-3.15507e-08
2.35338e-07
2.07891e-10
-3.39367e-08
3.14025e-07
-2.3387e-09
-1.62873e-08
1.62416e-07
-5.82882e-09
-1.15586e-08
1.00117e-07
-9.43836e-10
-3.02768e-09
5.10346e-08
-1.42764e-10
-5.77478e-10
-3.45617e-09
1.14181e-10
-1.84771e-09
-4.65134e-08
4.50927e-10
-3.07307e-09
-9.08984e-08
-1.38372e-10
-4.29813e-09
-1.24688e-07
-1.57068e-10
-3.27433e-09
-1.61097e-07
3.4323e-10
-1.54622e-09
-1.08031e-07
1.59939e-09
1.22587e-09
1.36921e-08
8.17052e-10
5.53298e-08
3.90049e-10
7.10885e-10
1.08297e-10
1.00406e-09
1.8673e-10
-2.26442e-09
1.8763e-10
-5.886e-09
6.43067e-11
-2.57427e-09
-2.80307e-10
-5.45381e-10
8.02347e-11
-1.81932e-08
2.73675e-09
-4.06544e-08
-2.42677e-09
-3.7635e-08
7.01741e-10
-2.09771e-08
-1.39727e-09
-1.10207e-08
-1.43597e-09
-9.70081e-10
-3.99999e-10
1.76294e-09
-1.49654e-10
2.2728e-11
2.8309e-10
-4.09699e-10
6.10411e-11
-8.20498e-10
-3.33339e-11
-6.50996e-10
1.97888e-11
-5.14788e-10
5.20194e-10
9.42038e-10
4.73415e-10
3.04388e-10
-9.79657e-09
-6.58556e-09
4.31799e-08
1.05487e-08
-2.49223e-08
2.08663e-08
4.94154e-08
-4.36615e-08
1.7374e-08
8.83693e-08
-3.95791e-08
1.0536e-08
1.11271e-07
-2.40107e-08
9.86889e-09
1.17081e-07
-6.94078e-09
9.47269e-09
1.16258e-07
-2.94484e-10
8.76242e-09
9.62171e-08
1.10398e-08
2.55329e-08
-6.18784e-09
6.91804e-08
6.34609e-08
-1.01543e-07
7.09998e-08
5.13879e-08
-1.16804e-07
1.88477e-08
4.41593e-09
-1.12189e-07
-3.51784e-09
4.59812e-09
-9.83963e-08
-1.32022e-08
6.06734e-09
-6.93275e-08
-3.04926e-08
8.5093e-09
-2.59666e-08
-4.53364e-08
1.06467e-08
2.34152e-08
-4.99316e-08
8.97558e-09
6.89733e-08
-4.52413e-08
5.71537e-09
8.37566e-08
-1.02778e-08
-1.06049e-10
5.46959e-08
2.46131e-08
1.86198e-08
4.2162e-08
4.58166e-08
4.85917e-09
2.95273e-09
-1.90957e-08
3.80077e-08
-5.73762e-08
-2.96198e-09
7.29703e-08
-7.2656e-08
-7.73409e-09
9.57624e-08
-5.92334e-08
-3.38961e-09
1.04953e-07
-3.11493e-08
-2.05469e-09
9.79154e-08
1.76854e-09
-2.46783e-09
8.8576e-08
1.89895e-08
-7.35834e-09
6.83897e-08
4.75785e-08
-2.95507e-08
-1.03082e-09
1.20036e-07
2.60803e-08
-5.28871e-08
1.081e-07
2.36832e-08
-5.88065e-08
3.21643e-08
-1.41787e-08
-6.84197e-08
8.72593e-09
-1.54009e-09
-6.75391e-08
-1.27393e-08
-2.16145e-09
-5.28676e-08
-4.28774e-08
-2.83989e-09
-2.94071e-08
-6.65922e-08
-2.65423e-09
7.11522e-10
-7.85007e-08
-1.74635e-09
3.69073e-08
-7.93722e-08
-3.4688e-09
4.95026e-08
-2.39274e-08
-1.68326e-09
4.5253e-08
3.68008e-08
-9.90256e-09
8.8883e-08
4.03974e-09
2.27179e-08
-2.23582e-08
4.28008e-09
6.50779e-08
-9.93017e-08
4.23152e-09
9.35668e-08
-1.05049e-07
1.03939e-08
1.09363e-07
-7.74094e-08
4.9469e-09
1.1176e-07
-3.33785e-08
-2.80725e-10
9.86212e-08
1.60463e-08
-1.67182e-09
7.45701e-08
4.50691e-08
2.72319e-09
5.30769e-08
7.59401e-08
-1.87707e-08
5.895e-09
1.67472e-07
-1.39083e-09
-3.433e-08
1.44409e-07
7.33823e-09
-5.19185e-08
5.20698e-08
-5.58082e-09
-7.0703e-08
2.72778e-08
2.15022e-09
-7.23474e-08
-1.07791e-08
-3.68713e-10
-6.40052e-08
-5.16412e-08
8.62745e-10
-4.81282e-08
-8.34742e-08
2.59214e-09
-2.71281e-08
-1.005e-07
2.876e-09
-2.46058e-09
-1.03779e-07
3.87049e-10
8.23202e-09
-3.33936e-08
-1.23727e-09
5.24653e-09
4.44885e-08
-3.67497e-09
1.02721e-07
-1.50731e-08
3.69411e-08
-6.25294e-08
6.51433e-09
7.44972e-08
-1.38618e-07
3.69578e-09
9.89327e-08
-1.31601e-07
3.21585e-09
1.10473e-07
-8.84464e-08
-2.8799e-09
1.09815e-07
-3.15482e-08
-3.41177e-09
9.48192e-08
3.1777e-08
-1.73682e-09
6.61657e-08
7.17513e-08
5.81834e-09
4.46732e-08
1.05141e-07
-1.65867e-08
4.80314e-09
2.11552e-07
-7.38054e-09
-2.44852e-08
1.6874e-07
7.90003e-09
-4.48371e-08
7.4353e-08
-3.39435e-09
-6.17676e-08
4.42853e-08
5.86461e-10
-6.48465e-08
-6.72823e-09
-2.40809e-09
-6.19325e-08
-5.39036e-08
-2.60512e-09
-5.26036e-08
-9.36051e-08
1.8737e-09
-4.12097e-08
-1.12949e-07
3.19542e-09
-2.87076e-08
-1.17174e-07
2.09631e-09
-1.91441e-08
-4.3311e-08
8.91575e-10
-1.46873e-08
4.46583e-08
-4.72026e-09
8.9686e-08
-1.20034e-08
4.09101e-08
-1.0697e-07
2.60739e-09
7.07021e-08
-1.70937e-07
2.55705e-09
9.08439e-08
-1.52563e-07
-1.81019e-09
9.69527e-08
-9.10555e-08
-9.60305e-09
9.27056e-08
-2.52322e-08
-5.61239e-09
7.77903e-08
4.79439e-08
-3.26512e-09
5.23139e-08
9.55337e-08
4.48276e-09
3.17743e-08
1.33229e-07
-1.50417e-08
-6.55083e-09
2.59233e-07
-8.26685e-09
-2.25535e-08
1.84945e-07
-6.8339e-12
-3.60227e-08
8.82568e-08
-1.93146e-10
-4.48615e-08
5.49739e-08
-2.7818e-09
-4.79725e-08
-2.24691e-09
-3.48296e-09
-4.88431e-08
-5.17092e-08
-5.19426e-09
-4.71382e-08
-9.47686e-08
-1.60342e-09
-4.24465e-08
-1.19071e-07
3.02564e-09
-3.54047e-08
-1.25541e-07
4.3699e-09
-2.67836e-08
-5.38092e-08
2.86462e-09
-1.82082e-08
3.52823e-08
-4.79797e-09
6.99634e-08
-1.1907e-08
3.06356e-08
-1.39197e-07
1.5568e-09
5.46213e-08
-1.96142e-07
-5.41953e-10
6.76444e-08
-1.6352e-07
-7.51566e-09
6.51358e-08
-8.38861e-08
-1.11884e-08
6.048e-08
-1.83461e-08
-5.16134e-09
5.18289e-08
5.86015e-08
-4.12249e-09
3.89126e-08
1.08023e-07
1.30101e-09
1.79806e-08
1.56894e-07
-6.47316e-09
-1.02906e-08
3.02051e-07
-1.70714e-08
-1.51442e-08
1.90538e-07
-6.0499e-10
-2.26028e-08
9.67801e-08
-1.40011e-09
-2.54213e-08
6.02012e-08
-4.21602e-09
-2.61948e-08
-4.61742e-10
-2.13757e-09
-2.87697e-08
-4.84199e-08
-3.04363e-09
-3.24876e-08
-9.06203e-08
-1.40057e-09
-3.2473e-08
-1.19506e-07
6.50808e-11
-2.74162e-08
-1.32377e-07
4.27634e-09
-1.62927e-08
-6.79157e-08
7.05792e-09
-1.08989e-08
2.9265e-08
6.50126e-10
5.79711e-08
-4.13346e-09
1.81771e-08
-1.58543e-07
1.19163e-09
3.48581e-08
-2.13332e-07
-1.19199e-09
3.48682e-08
-1.61671e-07
-5.04626e-09
2.37867e-08
-7.029e-08
-4.65883e-09
2.34358e-08
-1.72808e-08
-1.52163e-09
2.45248e-08
5.94793e-08
-3.90735e-09
2.24377e-08
1.1049e-07
-1.19627e-09
-3.90156e-09
1.82435e-07
1.9566e-09
-1.77956e-08
3.23396e-07
-1.23482e-08
-1.29594e-08
1.87118e-07
-8.73026e-10
-1.55713e-08
9.99305e-08
-1.30544e-09
-1.46783e-08
6.03676e-08
-2.19605e-09
-1.40387e-08
-9.65331e-10
-3.2171e-10
-1.56641e-08
-4.68043e-08
-4.30694e-10
-1.9371e-08
-8.75164e-08
6.49591e-10
-2.23287e-08
-1.17273e-07
2.95182e-10
-1.82832e-08
-1.38575e-07
3.64762e-09
-8.46674e-09
-8.07023e-08
6.93483e-09
-3.02605e-09
2.30963e-08
1.16282e-09
5.50333e-08
-7.41377e-11
9.28248e-09
-1.68814e-07
1.17165e-09
1.69356e-08
-2.21423e-07
3.86405e-10
1.13839e-08
-1.5569e-07
-1.0924e-09
9.03419e-10
-5.97244e-08
-1.29305e-10
3.56243e-09
-2.01301e-08
1.47425e-10
1.36487e-08
5.00936e-08
-1.67015e-09
1.35515e-08
1.09659e-07
9.40949e-10
-1.70955e-08
2.13028e-07
2.13668e-09
-2.30505e-08
3.29871e-07
-6.88883e-09
-1.35855e-08
1.80329e-07
-3.50679e-09
-1.23838e-08
9.89774e-08
-1.0748e-09
-7.39314e-09
5.62028e-08
-1.74498e-09
-6.73878e-09
-1.44873e-09
-2.32115e-10
-7.35469e-09
-4.59731e-08
-8.9308e-11
-9.37315e-09
-8.61399e-08
4.10453e-10
-1.15686e-08
-1.15786e-07
4.20591e-10
-9.31263e-09
-1.4277e-07
2.64568e-09
-4.34555e-09
-8.90305e-08
6.27929e-09
-3.03793e-10
1.85799e-08
1.01055e-09
5.43041e-08
8.39246e-11
3.55968e-09
-1.72924e-07
7.69435e-10
6.13912e-09
-2.24598e-07
8.05911e-10
8.08498e-10
-1.51173e-07
1.06118e-09
-5.87283e-09
-5.34464e-08
5.06598e-10
-1.92656e-10
-2.61999e-08
6.57221e-10
8.28462e-09
4.16726e-08
-2.42069e-10
-2.14148e-09
1.20119e-07
-8.20525e-10
-3.39856e-08
2.45727e-07
-6.45238e-10
-2.93737e-08
3.23761e-07
-8.3354e-10
-1.37669e-08
1.68081e-07
-9.18667e-09
-1.03781e-08
9.54697e-08
-8.24646e-10
-2.91918e-09
4.84825e-08
1.18804e-10
-5.65123e-10
-4.04765e-09
3.59057e-10
-1.91303e-09
-4.49975e-08
8.23166e-10
-3.28276e-09
-8.51507e-08
2.42216e-10
-4.5566e-09
-1.15013e-07
3.44505e-10
-3.50173e-09
-1.44951e-07
1.46906e-09
-1.64985e-09
-9.34875e-08
4.20449e-09
1.02472e-09
1.53174e-08
1.40493e-09
5.5171e-08
5.47828e-10
7.96785e-10
1.79493e-10
1.04136e-09
5.03589e-10
-2.20754e-09
6.20539e-10
-5.61978e-09
9.61053e-11
-2.4477e-09
-6.87389e-10
-6.70014e-10
2.44124e-10
-1.70958e-08
5.30953e-09
-4.09591e-08
-2.74453e-09
-3.32762e-08
1.56974e-09
-1.83463e-08
-1.84789e-09
-1.03595e-08
-2.0327e-09
-9.25815e-10
-8.5379e-10
1.88681e-09
-3.81481e-10
-6.28349e-11
8.76309e-10
-4.48527e-10
3.31053e-10
-8.92368e-10
2.05828e-10
-7.73039e-10
4.16656e-10
-5.74292e-10
1.55729e-09
8.02029e-10
7.45695e-10
3.96166e-10
-3.51242e-09
5.00541e-08
1.64667e-08
4.24772e-09
5.3309e-08
-1.6108e-08
8.6145e-08
-1.89396e-08
1.08216e-07
-8.8422e-09
1.10991e-07
1.00588e-08
9.85531e-08
2.45607e-08
4.22235e-08
8.52252e-08
-7.39539e-09
1.16445e-07
-6.74162e-08
1.14773e-07
-1.09925e-07
5.02852e-08
-1.12508e-07
1.05413e-08
-9.94731e-08
-3.60677e-09
-6.83542e-08
-1.92493e-08
-2.57988e-08
-2.85483e-08
2.05202e-08
-3.39832e-08
6.07165e-08
-3.11205e-08
6.96118e-08
-5.64081e-09
3.76078e-08
5.39857e-08
8.67879e-08
5.89367e-09
2.50663e-08
3.89856e-08
-3.1806e-08
6.79231e-08
-5.27797e-08
8.67417e-08
-4.11478e-08
9.50082e-08
-1.91633e-08
9.23258e-08
1.02734e-08
8.16169e-08
2.79116e-08
5.52825e-08
8.20122e-08
-1.5487e-08
2.13309e-07
-5.27441e-08
1.75724e-07
-6.0457e-08
4.38202e-08
-6.37778e-08
1.23221e-08
-6.17832e-08
-7.76281e-09