/*--------------------------------*- C++ -*----------------------------------*\
| =========                 |                                                 |
| \\      /  F ield         | OpenFOAM: The Open Source CFD Toolbox           |
|  \\    /   O peration     | Version:  2.3.0                                 |
|   \\  /    A nd           | Web:      www.OpenFOAM.org                      |
|    \\/     M anipulation  |                                                 |
\*---------------------------------------------------------------------------*/
FoamFile
{
    version     2.0;
    format      ascii;
    class       surfaceScalarField;
    location    "0.53";
    object      phi.air;
}
// * * * * * * * * * * * * * * * * * * * * * * * * * * * * * * * * * * * * * //

dimensions      [0 3 -1 0 0 0 0];

internalField   nonuniform List<scalar> 
11770
(
-5.44007e-06
8.65455e-05
-1.07079e-05
8.93122e-05
-8.87514e-06
8.72426e-05
-7.16692e-06
8.82422e-05
-4.17904e-06
8.73251e-05
-4.72932e-09
8.76823e-05
1.09217e-05
8.44965e-05
1.76726e-05
8.90408e-05
1.47309e-05
9.48781e-05
8.74191e-06
9.45498e-05
-6.49566e-06
0.000101375
-1.72602e-05
9.92105e-05
-1.47447e-05
9.05889e-05
-5.88127e-06
8.49124e-05
1.37567e-06
8.50157e-05
9.14357e-06
8.6834e-05
7.71339e-06
9.40776e-05
-5.99623e-06
0.000100082
-1.73976e-05
9.64096e-05
-2.05255e-05
9.08046e-05
-1.94618e-05
9.0435e-05
-1.07273e-05
8.58362e-05
-3.24247e-06
8.61051e-05
-2.60617e-06
9.07952e-05
-3.24901e-06
9.08129e-05
-1.61359e-06
8.79426e-05
2.07447e-06
8.64578e-05
5.96886e-06
8.51509e-05
4.51746e-06
8.57659e-05
8.42337e-05
6.23001e-06
7.47459e-05
1.43821e-05
7.44035e-05
1.48055e-05
7.52807e-05
9.87089e-06
7.86561e-05
9.54491e-06
7.46287e-05
1.17335e-05
7.34403e-05
1.16256e-05
7.21632e-05
5.63622e-06
8.01856e-05
-1.33626e-06
8.737e-05
-6.13524e-06
8.88368e-05
-2.02411e-06
9.16393e-05
-2.88682e-06
9.19487e-05
-1.09828e-05
8.61071e-05
-7.55019e-06
7.11287e-05
1.9626e-06
6.70835e-05
-3.03929e-06
7.85207e-05
-1.04714e-05
8.88375e-05
-6.54382e-06
9.02675e-05
-4.20633e-06
8.79291e-05
-8.92853e-06
8.44767e-05
-1.36209e-05
8.07446e-05
-1.71794e-05
7.49879e-05
-1.63228e-05
7.22493e-05
-1.65069e-05
7.68121e-05
-1.73964e-05
7.73135e-05
-1.93733e-05
7.56919e-05
-2.06574e-05
7.34529e-05
-1.71151e-05
6.95935e-05
-7.59442e-06
6.82172e-05
7.14726e-05
6.48262e-06
6.64244e-05
1.57057e-05
6.20296e-05
1.71303e-05
7.00618e-05
1.6372e-05
7.80841e-05
1.66401e-05
7.56889e-05
2.00072e-05
7.3158e-05
1.2594e-05
7.8854e-05
2.39892e-06
8.77711e-05
3.337e-08
8.95608e-05
-1.5463e-06
9.03058e-05
-1.99426e-06
9.13602e-05
-1.38431e-06
9.11366e-05
-5.72542e-06
8.92137e-05
-9.26727e-06
7.39384e-05
-1.95628e-06
6.15502e-05
-9.3516e-06
8.43013e-05
-1.03576e-05
8.9827e-05
-9.22139e-06
8.90729e-05
-9.45617e-06
8.76321e-05
-1.04209e-05
8.54804e-05
-1.36735e-05
8.35976e-05
-2.27646e-05
8.16914e-05
-2.49117e-05
7.42977e-05
-2.20147e-05
7.5224e-05
-2.14709e-05
7.71394e-05
-2.22001e-05
7.59243e-05
-2.22196e-05
7.15405e-05
-1.62256e-05
6.11008e-05
-3.16521e-06
5.33499e-05
6.62901e-05
1.58852e-06
6.32845e-05
1.31072e-05
5.10692e-05
1.97112e-05
6.16199e-05
2.37434e-05
7.23155e-05
2.498e-05
7.33186e-05
2.41539e-05
7.28518e-05
1.53609e-05
8.49468e-05
9.14941e-06
9.22786e-05
4.745e-06
9.21589e-05
3.43829e-07
9.27632e-05
-3.28438e-06
9.29945e-05
-5.73361e-06
9.14108e-05
-6.23781e-06
8.74354e-05
-1.03213e-05
7.3883e-05
-6.06852e-06
5.53655e-05
-6.69527e-06
8.24911e-05
-7.96308e-06
8.88496e-05
-9.85148e-06
8.88796e-05
-1.27444e-05
8.84647e-05
-1.63464e-05
8.7137e-05
-2.10912e-05
8.66284e-05
-2.74691e-05
8.59912e-05
-2.95535e-05
7.46263e-05
-2.65369e-05
7.09096e-05
-2.41871e-05
7.3325e-05
-2.26427e-05
7.30415e-05
-1.93832e-05
6.68811e-05
-9.70222e-06
5.25537e-05
1.82799e-06
4.55728e-05
6.61084e-05
4.67038e-07
6.39861e-05
7.09495e-06
4.93293e-05
1.5413e-05
5.71266e-05
2.29752e-05
6.57906e-05
2.6864e-05
6.94043e-05
2.42978e-05
7.43312e-05
1.9254e-05
8.9236e-05
1.2514e-05
9.84682e-05
5.6252e-06
9.7898e-05
-2.13189e-06
9.80814e-05
-9.8331e-06
9.7972e-05
-1.66955e-05
9.52735e-05
-1.87281e-05
8.65412e-05
-1.07706e-05
6.54105e-05
-4.32713e-06
4.80504e-05
2.78893e-06
7.44239e-05
-6.24182e-07
8.89979e-05
-6.28075e-06
9.13761e-05
-1.1515e-05
9.08877e-05
-1.72178e-05
9.04436e-05
-2.29082e-05
9.11601e-05
-2.43986e-05
8.75577e-05
-2.2131e-05
7.31193e-05
-1.92983e-05
6.88878e-05
-1.68397e-05
7.15964e-05
-1.42814e-05
7.1003e-05
-9.5638e-06
6.51392e-05
-4.95761e-06
5.50222e-05
-2.79367e-06
4.89249e-05
6.60128e-05
3.36176e-06
6.22963e-05
2.2018e-06
5.45706e-05
5.27716e-06
6.27847e-05
9.44123e-06
7.03018e-05
1.26642e-05
7.13741e-05
1.51332e-05
7.3644e-05
1.82241e-05
8.67983e-05
1.27279e-05
0.000102536
2.86957e-06
0.000105035
-8.74813e-06
0.000106397
-2.0602e-05
0.000106419
-3.18879e-05
0.000103293
-2.75808e-05
8.17041e-05
-1.07287e-05
5.13322e-05
-1.11003e-06
3.97419e-05
1.4032e-05
6.15023e-05
1.05357e-05
8.98262e-05
1.56369e-06
9.6741e-05
-6.64283e-06
9.54912e-05
-1.35925e-05
9.37759e-05
-1.77001e-05
9.27279e-05
-1.04483e-05
8.14735e-05
-5.27671e-06
6.97012e-05
-3.39729e-06
6.95698e-05
-2.28602e-06
7.42212e-05
-4.41978e-07
7.59471e-05
2.73068e-06
7.20715e-05
-7.83362e-07
6.39418e-05
-7.65126e-06
5.84937e-05
6.48718e-05
5.08561e-06
5.99559e-05
-1.76452e-07
6.1073e-05
-3.34236e-06
6.88221e-05
-2.91692e-06
7.69834e-05
-3.0018e-06
8.05277e-05
-1.50465e-06
8.14706e-05
5.26554e-06
8.53862e-05
8.21304e-06
9.98498e-05
-3.7244e-07
0.000110486
-1.35933e-05
0.000115542
-2.75941e-05
0.000116778
-3.7373e-05
0.000110558
-2.20538e-05
6.9266e-05
-8.78279e-06
4.09878e-05
-3.29752e-06
3.56285e-05
1.23361e-05
4.9371e-05
1.57681e-05
8.6508e-05
5.08378e-06
0.00010415
-4.01152e-06
0.000101126
-7.41049e-06
9.50716e-05
-7.77581e-07
8.6494e-05
9.07331e-06
7.47991e-05
1.04358e-05
7.3091e-05
8.28053e-06
7.72733e-05
8.33609e-06
8.18481e-05
1.02426e-05
8.23533e-05
8.98994e-06
7.77087e-05
2.63433e-06
7.13315e-05
-4.1415e-06
6.60963e-05
6.37311e-05
1.74883e-06
5.91551e-05
-2.11275e-06
6.59481e-05
-6.236e-06
7.40712e-05
-9.30321e-06
8.16718e-05
-1.34409e-05
8.69735e-05
-1.72854e-05
9.03391e-05
-1.41972e-05
9.34794e-05
-6.01937e-06
0.000100319
-5.27827e-06
0.000111628
-1.38015e-05
0.00012239
-2.43285e-05
0.000124718
-2.75511e-05
0.000112708
-1.08235e-05
5.60651e-05
-7.06442e-06
3.87505e-05
-7.66808e-06
3.6969e-05
-7.54828e-07
4.46384e-05
8.85728e-06
7.95382e-05
2.19951e-06
0.000108777
8.07637e-07
0.000101634
9.42708e-06
8.87716e-05
2.15893e-05
8.16284e-05
2.5175e-05
8.06284e-05
2.00773e-05
8.26065e-05
1.53611e-05
8.46691e-05
1.39487e-05
8.58518e-05
1.37364e-05
8.50854e-05
1.10142e-05
8.22499e-05
5.36876e-06
7.8358e-05
3.13108e-07
7.30581e-05
6.57426e-05
-1.35477e-07
6.12108e-05
-3.21054e-06
7.09502e-05
-7.44342e-06
7.96194e-05
-1.1936e-05
8.73977e-05
-1.77753e-05
9.39323e-05
-2.49728e-05
9.87544e-05
-3.07197e-05
0.000103248
-2.5896e-05
0.000109628
-1.9385e-05
0.000118417
-1.88695e-05
0.000129045
-1.79674e-05
0.000127648
-1.18891e-05
0.00011022
-4.47985e-06
5.24358e-05
-6.5425e-06
4.14457e-05
-1.03032e-05
4.08173e-05
-1.15708e-05
4.73414e-05
-3.79137e-06
7.61251e-05
2.90813e-06
0.000105517
1.65309e-05
9.29929e-05
3.07593e-05
8.4997e-05
3.7032e-05
8.76348e-05
3.10118e-05
9.03133e-05
2.36553e-05
9.20663e-05
1.8321e-05
9.16063e-05
1.59933e-05
8.96922e-05
1.50809e-05
8.74282e-05
1.31656e-05
8.55548e-05
7.8086e-06
8.51401e-05
1.31485e-06
8.24656e-05
7.04424e-05
3.1957e-07
6.51982e-05
-3.78494e-06
7.80925e-05
-7.90801e-06
8.55195e-05
-1.21972e-05
9.19567e-05
-1.81191e-05
9.92922e-05
-2.52468e-05
0.00010551
-3.2866e-05
0.000111306
-3.73595e-05
0.000117642
-3.45291e-05
0.000129708
-3.18942e-05
0.000143364
-2.07709e-05
0.000128426
-4.34931e-06
0.00010154
-5.08081e-06
5.51292e-05
-7.41382e-06
4.41056e-05
-1.06317e-05
4.39558e-05
-1.50704e-05
5.21357e-05
-9.55397e-06
7.33629e-05
1.44154e-05
8.89996e-05
3.51484e-05
8.36578e-05
4.36173e-05
8.73283e-05
4.02458e-05
9.51496e-05
3.10092e-05
0.000101453
2.21435e-05
0.000102217
1.65376e-05
9.83727e-05
1.53064e-05
9.1709e-05
1.65283e-05
8.72891e-05
1.80923e-05
8.51187e-05
1.39355e-05
8.63815e-05
-1.88251e-06
9.54321e-05
7.29363e-05
2.51719e-06
6.87207e-05
-6.97235e-06
8.54433e-05
-1.12136e-05
8.61446e-05
-1.19891e-05
8.99656e-05
-1.59137e-05
9.94544e-05
-2.16638e-05
0.000107116
-2.73834e-05
0.000113451
-3.21172e-05
0.000120325
-4.15216e-05
0.000143063
-5.16879e-05
0.000163832
-3.65911e-05
0.000122222
-1.28873e-05
8.38599e-05
-1.10499e-05
5.34665e-05
-9.69458e-06
4.29981e-05
-9.56234e-06
4.38754e-05
-1.09007e-05
5.26934e-05
-4.13735e-07
6.24864e-05
2.71765e-05
6.90114e-05
4.27364e-05
7.51906e-05
4.59032e-05
8.84864e-05
3.95918e-05
0.000100657
2.86253e-05
0.000108442
1.62136e-05
0.000109925
9.29925e-06
0.000100002
1.23479e-05
8.55645e-05
1.70573e-05
8.01054e-05
1.62569e-05
8.30492e-05
1.69865e-05
9.39569e-05
-1.22927e-06
0.000110561
8.27645e-05
-9.24544e-07
8.47224e-05
-1.12244e-05
0.000101112
-1.3868e-05
9.66782e-05
-1.10236e-05
9.40657e-05
-1.21316e-05
0.000104137
-1.59506e-05
0.000111934
-1.88049e-05
0.000116014
-1.94722e-05
0.00012037
-3.26708e-05
0.000146785
-6.32373e-05
0.000170811
-5.47698e-05
0.000108394
-2.93101e-05
5.98966e-05
-1.92228e-05
4.33591e-05
-1.25295e-05
3.66482e-05
-7.62715e-06
3.90607e-05
-2.36465e-06
4.54844e-05
1.30737e-05
4.77476e-05
3.21155e-05
5.27499e-05
4.52581e-05
6.62432e-05
4.23186e-05
8.86963e-05
3.14824e-05
0.000110615
1.94505e-05
0.000117289
5.36932e-06
0.000119056
-6.06579e-07
0.000107029
3.83155e-06
9.01105e-05
8.39582e-06
8.7368e-05
3.85706e-06
9.45384e-05
-6.32156e-06
9.71824e-05
-1.17471e-05
0.000100975
6.17847e-05
1.64973e-05
5.99193e-05
1.44942e-05
9.09099e-05
9.08085e-06
9.33796e-05
4.78018e-06
9.34406e-05
1.50329e-07
0.00010371
-3.8147e-06
0.000110162
-8.97332e-06
0.0001143
-1.3566e-05
0.000117879
-2.31358e-05
0.000142677
-3.47725e-05
0.000159522
-5.8551e-05
0.000108979
-3.86884e-05
3.8074e-05
-2.47733e-05
2.9375e-05
-1.39588e-05
2.69931e-05
-5.50959e-06
3.11035e-05
4.45924e-06
3.50887e-05
1.96655e-05
3.37383e-05
3.51489e-05
3.97768e-05
4.53054e-05
5.45602e-05
2.83731e-05
0.000100679
5.95256e-06
0.00012192
-8.64297e-06
0.000122364
-2.34607e-05
0.000123816
-3.23994e-05
0.000107434
-3.82699e-05
8.89395e-05
-4.04503e-05
8.31295e-05
-4.14324e-05
8.65053e-05
-4.0392e-05
8.57488e-05
-2.08192e-05
7.52376e-05
3.71375e-05
2.06121e-05
3.59301e-05
2.7702e-05
7.71052e-05
2.14765e-05
9.15083e-05
1.03208e-05
9.65014e-05
4.78738e-06
0.000103842
1.59231e-06
0.000109579
-1.59262e-06
0.000114336
-8.16805e-06
0.000120749
-4.22207e-06
0.000136739
1.35695e-06
0.000149994
-3.14657e-05
0.000124258
-3.72818e-05
3.93288e-05
-2.50095e-05
1.70453e-05
-1.34597e-05
1.63169e-05
-3.62126e-06
2.21769e-05
7.61069e-06
2.46763e-05
2.1778e-05
2.18013e-05
3.45931e-05
2.79363e-05
2.59788e-05
6.3169e-05
-6.34272e-06
0.000118109
-2.66564e-05
0.000131816
-3.76193e-05
0.000128096
-4.0584e-05
0.000124872
-5.14394e-05
0.000114195
-6.79304e-05
9.86802e-05
-7.53454e-05
8.35362e-05
-6.50529e-05
7.31809e-05
-4.41651e-05
6.47252e-05
-1.91782e-05
5.07249e-05
2.02638e-05
1.65429e-05
2.11978e-05
2.81936e-05
6.57801e-05
2.41036e-05
9.41408e-05
1.76489e-05
0.000101613
1.20355e-05
0.000108189
8.45268e-06
0.000112764
5.48989e-06
0.000117286
4.28891e-06
0.000122853
1.12724e-05
0.000131518
2.233e-05
0.000140005
1.25113e-05
0.000132945
-2.98466e-05
7.20869e-05
-2.23647e-05
8.26918e-06
-1.12115e-05
6.02594e-06
-2.34131e-06
1.34171e-05
7.99293e-06
1.48794e-05
2.10929e-05
1.06317e-05
2.10836e-05
2.89957e-05
-1.79589e-05
9.08803e-05
-3.4825e-05
0.000128651
-3.77534e-05
0.000134293
-4.34654e-05
0.000133415
-5.14907e-05
0.000131776
-6.55431e-05
0.000126914
-8.21866e-05
0.000113575
-7.98612e-05
8.16625e-05
-5.84463e-05
5.38713e-05
-2.88598e-05
3.81435e-05
-6.73756e-06
3.08753e-05
1.47397e-05
9.82911e-06
1.22547e-05
2.50958e-05
5.12608e-05
2.81015e-05
9.04312e-05
2.37276e-05
0.000104679
1.87907e-05
0.000111668
1.49187e-05
0.000115514
1.26673e-05
0.000118848
1.27764e-05
0.000122746
1.78095e-05
0.000127255
2.73004e-05
0.000131469
3.41337e-05
0.000126772
-6.37793e-06
0.000102356
-1.44528e-05
1.73147e-05
-7.26146e-06
1.65385e-07
-8.90911e-07
7.10904e-06
7.16532e-06
6.28871e-06
1.74676e-05
9.53756e-07
-2.19703e-06
4.58747e-05
-3.36531e-05
0.000113916
-3.55655e-05
0.000129881
-3.77797e-05
0.000135832
-4.35398e-05
0.000138253
-5.39491e-05
0.000140592
-7.01522e-05
0.00014101
-8.50879e-05
0.000126164
-6.33281e-05
6.31469e-05
-3.41507e-05
2.8958e-05
-1.09888e-05
1.93095e-05
1.76921e-06
2.12818e-05
1.6989e-05
4.00366e-06
8.25064e-06
1.81653e-05
3.78071e-05
3.24946e-05
7.75667e-05
2.79487e-05
0.000107724
2.39e-05
0.000114106
2.02852e-05
0.000117723
1.81242e-05
0.000119946
1.82269e-05
0.000122245
2.09919e-05
0.000124541
2.65487e-05
0.000126161
2.91321e-05
0.000124094
1.45192e-05
0.000116076
-8.47368e-06
3.85826e-05
-4.03843e-06
-2.79297e-06
-1.24739e-06
4.04285e-06
1.83168e-06
3.49557e-06
5.68579e-06
-1.09613e-06
-1.51217e-05
6.1556e-05
-2.63135e-05
0.00012348
-2.90659e-05
0.000131616
-3.15916e-05
0.000137514
-3.72712e-05
0.000142537
-4.71805e-05
0.000148365
-6.2599e-05
0.000153318
-6.49197e-05
0.000126316
-3.51796e-05
3.67122e-05
-1.33821e-05
1.06883e-05
-1.91391e-06
1.14641e-05
2.95086e-06
1.9624e-05
2.07937e-05
1.04499e-06
6.86029e-06
1.15994e-05
2.78502e-05
3.25006e-05
5.92123e-05
2.96904e-05
0.00010853
2.6581e-05
0.000115652
2.37974e-05
0.000118996
2.16398e-05
0.000120725
2.13492e-05
0.000121654
2.26149e-05
0.000122797
2.49273e-05
0.000123411
2.4762e-05
0.00012353
1.93694e-05
0.000121545
-5.49946e-07
5.69812e-05
-8.55491e-07
-1.94509e-06
-1.38596e-06
3.575e-06
-2.58497e-06
5.72945e-06
-3.82512e-06
2.48142e-06
-6.88637e-06
6.44963e-05
-1.51523e-05
0.000130113
-1.9161e-05
0.000134708
-2.17769e-05
0.000139098
-2.57207e-05
0.000144948
-3.24819e-05
0.000152423
-4.12169e-05
0.000158289
-3.34236e-05
0.000117079
-1.41594e-05
1.94175e-05
-3.08973e-06
2.83148e-06
1.61112e-06
9.30214e-06
-8.50841e-08
2.31925e-05
2.19243e-05
-1.16101e-07
6.59841e-06
7.26575e-06
2.07413e-05
2.6504e-05
4.15972e-05
2.93465e-05
0.000104289
2.752e-05
0.000115973
2.52825e-05
0.000119359
2.37935e-05
0.000120584
2.32309e-05
0.000121075
2.36727e-05
0.000121663
2.36402e-05
0.000122665
2.19227e-05
0.000124152
1.75333e-05
0.000124946
5.84436e-06
6.82084e-05
2.5269e-06
3.27021e-06
-3.54983e-07
6.16987e-06
-3.06164e-06
7.02067e-06
-5.17484e-06
6.42545e-06
4.08397e-06
5.96008e-05
-3.07736e-06
0.000135755
-8.80098e-06
0.000139265
-1.11224e-05
0.000140238
-1.19949e-05
0.000144251
-1.29338e-05
0.000150585
-1.32337e-05
0.000154512
5.87611e-07
0.000103265
-2.20827e-06
2.18092e-05
-3.23681e-07
3.21053e-06
3.86585e-06
7.93991e-06
-6.39252e-06
3.20252e-05
1.74457e-05
-6.33715e-07
6.83649e-06
3.66336e-06
1.64313e-05
1.72466e-05
2.84227e-05
2.89901e-05
9.26843e-05
2.73375e-05
0.000115698
2.59966e-05
0.000118898
2.47204e-05
0.00012027
2.43043e-05
0.000120197
2.3972e-05
0.00012104
2.26797e-05
0.000122989
1.96484e-05
0.000125839
1.46123e-05
0.000128895
7.24934e-06
7.63796e-05
3.79129e-06
8.40647e-06
7.34125e-07
8.0946e-06
-2.31467e-06
8.0969e-06
-4.4278e-06
9.14067e-06
9.48299e-06
5.04166e-05
5.91381e-06
0.00013861
7.04066e-07
0.000142893
-1.56106e-06
0.000140919
-1.72404e-07
0.00014102
3.73861e-06
0.000143455
1.3257e-05
0.00014249
2.72522e-05
8.9551e-05
1.03673e-05
3.36047e-05
1.80918e-07
1.02577e-05
-8.75813e-07
7.68261e-06
-8.32488e-06
3.21232e-05
9.18716e-06
-1.34091e-06
7.69455e-06
2.90194e-07
1.43084e-05
8.56415e-06
1.99762e-05
2.57912e-05
7.63749e-05
2.63165e-05
0.000113137
2.56588e-05
0.000117282
2.53305e-05
0.000118884
2.48426e-05
0.000119502
2.42878e-05
0.000120361
2.2876e-05
0.000122944
1.99712e-05
0.000127224
1.51407e-05
0.00013276
6.97657e-06
8.50912e-05
4.36348e-06
1.28725e-05
1.89359e-06
9.21e-06
-5.02748e-07
9.10939e-06
-3.12515e-06
1.16177e-05
9.01156e-06
4.2123e-05
1.10095e-05
0.000136174
7.44249e-06
0.000144898
6.0576e-06
0.000140418
7.88993e-06
0.000137122
1.34865e-05
0.000134336
2.84173e-05
0.000126125
3.64873e-05
7.98589e-05
2.09952e-05
4.29126e-05
2.70064e-06
2.13262e-05
-6.17054e-06
1.15089e-05
-5.09935e-06
2.51677e-05
2.10028e-06
-2.25059e-06
9.1935e-06
-2.78433e-06
1.38896e-05
2.13588e-06
1.45366e-05
2.13079e-05
5.81075e-05
2.47183e-05
0.000107569
2.57977e-05
0.000113903
2.58581e-05
0.000116699
2.57649e-05
0.000118336
2.50523e-05
0.000119818
2.36909e-05
0.000122777
2.06497e-05
0.000127982
1.70169e-05
0.000134398
7.72205e-06
9.38732e-05
4.52759e-06
1.77554e-05
3.25932e-06
9.80641e-06
1.15264e-06
1.00022e-05
-1.24177e-06
1.36982e-05
6.74424e-06
3.78309e-05
1.44988e-05
0.000128519
1.23727e-05
0.000145341
9.77424e-06
0.000140843
1.10643e-05
0.00013347
1.52628e-05
0.000126779
2.63605e-05
0.000113713
2.81619e-05
7.62205e-05
1.58896e-05
5.12567e-05
3.6438e-06
2.96437e-05
-4.9277e-06
1.64588e-05
-3.6616e-09
1.84985e-05
5.15456e-07
-3.18889e-06
1.12358e-05
-5.53103e-06
1.47559e-05
-3.7104e-06
1.20327e-05
1.55625e-05
3.95864e-05
2.66058e-05
9.48887e-05
2.77505e-05
0.000110713
2.74835e-05
0.000115011
2.72764e-05
0.000116527
2.6659e-05
0.000118187
2.38994e-05
0.00012318
1.96264e-05
0.000129946
1.71291e-05
0.000134562
1.05428e-05
9.79899e-05
6.64787e-06
2.34927e-05
5.21285e-06
1.19684e-05
1.71809e-06
1.4497e-05
-2.96534e-06
1.8393e-05
2.51601e-07
3.85135e-05
1.73104e-05
0.000113888
1.74701e-05
0.000143217
1.31043e-05
0.000143194
9.47066e-06
0.000134019
1.08868e-05
0.000122376
1.47241e-05
0.000108376
1.29314e-05
7.69474e-05
4.3286e-06
5.7814e-05
3.15678e-06
3.06965e-05
1.10824e-06
1.75643e-05
4.23929e-06
1.49882e-05
3.75678e-06
-4.50832e-06
1.48729e-05
-7.74154e-06
1.60318e-05
-8.684e-06
1.21203e-05
6.51195e-06
2.50282e-05
3.00491e-05
7.302e-05
3.07111e-05
0.000107999
2.9294e-05
0.000114041
2.79798e-05
0.000114786
2.53695e-05
0.00011741
2.19156e-05
0.000124136
1.78177e-05
0.000131686
1.68432e-05
0.000133616
1.56158e-05
9.73941e-05
1.13912e-05
2.96536e-05
9.55831e-06
1.6706e-05
1.0341e-06
2.67851e-05
-1.14648e-05
3.43635e-05
-1.4462e-05
4.69711e-05
1.11565e-05
9.36755e-05
2.16069e-05
0.000132782
1.7426e-05
0.000145943
8.73765e-06
0.000139942
3.9623e-06
0.000123728
4.20082e-06
0.00010674
2.47166e-06
7.78527e-05
-1.47258e-09
5.9608e-05
4.48218e-06
2.76391e-05
5.9483e-06
1.63759e-05
5.86559e-06
1.43142e-05
8.48836e-06
-4.6156e-06
1.88315e-05
-8.10593e-06
1.83288e-05
-1.15823e-05
1.4886e-05
-3.73703e-06
1.78766e-05
2.70689e-05
4.65522e-05
3.29824e-05
9.99058e-05
3.05418e-05
0.000113209
2.64727e-05
0.000115072
2.32117e-05
0.000117623
2.07314e-05
0.000124665
1.90331e-05
0.000131537
1.90447e-05
0.000131422
2.59978e-05
9.04585e-05
2.54826e-05
3.2902e-05
2.01589e-05
2.41108e-05
3.47895e-06
4.64276e-05
-2.12133e-05
5.90749e-05
-2.87219e-05
5.88338e-05
-6.48304e-06
7.93664e-05
1.57522e-05
0.000114995
1.84047e-05
0.000143464
8.46691e-06
0.000147827
-7.91963e-07
0.00012981
-8.45575e-07
0.000105892
4.19657e-07
7.62106e-05
3.36753e-06
5.68666e-05
6.96155e-06
2.4573e-05
7.85494e-06
1.53297e-05
6.09028e-06
1.48225e-05
1.33061e-05
-3.87555e-06
2.19588e-05
-7.25642e-06
2.08491e-05
-1.15713e-05
1.85384e-05
-1.06425e-05
1.73744e-05
1.19343e-05
2.73804e-05
3.32039e-05
7.97261e-05
2.98198e-05
0.000112959
2.52575e-05
0.000116302
2.22593e-05
0.000117876
2.19735e-05
0.000123383
2.22711e-05
0.000129428
2.47443e-05
0.000126986
3.63912e-05
8.03913e-05
3.82903e-05
3.41503e-05
3.0639e-05
3.36823e-05
8.35997e-06
6.23848e-05
-1.43232e-05
7.50249e-05
-3.11831e-05
7.27462e-05
-2.45712e-05
7.90685e-05
-3.16342e-06
0.000101006
7.27001e-06
0.000135999
2.70583e-06
0.000151913
-5.88867e-06
0.000135962
-1.229e-07
0.000100642
4.10845e-06
7.26468e-05
9.22113e-06
5.28375e-05
1.05614e-05
2.38876e-05
9.11052e-06
1.65176e-05
5.5018e-06
1.69516e-05
1.75811e-05
-3.60639e-06
2.50048e-05
-7.20821e-06
2.37191e-05
-1.13934e-05
2.20132e-05
-1.42534e-05
2.00506e-05
-6.61606e-06
2.18018e-05
2.33885e-05
5.49177e-05
2.73071e-05
0.000106881
2.35384e-05
0.000117119
2.21203e-05
0.00011664
2.38916e-05
0.000119736
2.60688e-05
0.00012507
3.29459e-05
0.000119089
4.41073e-05
7.13226e-05
4.39879e-05
3.78776e-05
3.2887e-05
4.52076e-05
1.23403e-05
7.85532e-05
-1.97931e-06
8.63515e-05
-2.21815e-05
8.69385e-05
-3.22026e-05
8.68199e-05
-2.54728e-05
9.90263e-05
-1.61477e-05
0.000131624
-1.19163e-05
0.000150267
-8.4877e-06
0.000132817
9.90794e-06
8.67009e-05
1.12852e-05
7.32098e-05
1.39527e-05
5.19917e-05
1.35585e-05
2.57461e-05
9.6663e-06
1.99744e-05
5.00463e-06
2.05618e-05
2.16858e-05
-3.80697e-06
2.83978e-05
-7.7937e-06
2.71505e-05
-1.21672e-05
2.58456e-05
-1.65851e-05
2.42331e-05
-1.68945e-05
2.35733e-05
3.20645e-06
3.97671e-05
1.89717e-05
9.32346e-05
1.88898e-05
0.000115248
2.10851e-05
0.000112491
2.58227e-05
0.000112998
3.10944e-05
0.000117374
4.26642e-05
0.000108157
5.00837e-05
6.68377e-05
4.65162e-05
4.63171e-05
3.05755e-05
6.08581e-05
1.48075e-05
9.13617e-05
3.47135e-06
9.54645e-05
-1.1004e-05
9.84366e-05
-2.96277e-05
0.00010065
-4.18646e-05
0.000109629
-4.17295e-05
0.000135476
-3.05617e-05
0.000145043
-4.77878e-06
0.000114486
1.92808e-05
7.10199e-05
1.54368e-05
7.85534e-05
1.66116e-05
5.31904e-05
1.47327e-05
2.91707e-05
1.00129e-05
2.45283e-05
4.93624e-06
2.49598e-05
2.60751e-05
-4.18013e-06
3.23012e-05
-8.65553e-06
3.12338e-05
-1.34024e-05
3.02028e-05
-1.85767e-05
2.91571e-05
-2.2107e-05
2.86576e-05
-1.649e-05
3.87253e-05
7.98378e-07
8.18092e-05
7.65185e-06
0.000109562
1.63164e-05
0.000104692
2.62132e-05
0.000103146
3.88163e-05
0.000105357
5.18906e-05
9.81531e-05
5.25595e-05
7.09594e-05
4.38919e-05
5.84179e-05
2.5957e-05
7.56368e-05
1.53611e-05
9.9296e-05
5.84623e-06
0.000102568
-6.07621e-06
0.000107793
-2.34414e-05
0.00011511
-4.25966e-05
0.000126517
-5.17044e-05
0.000145036
-3.60459e-05
0.000135323
1.44732e-06
9.17788e-05
1.54394e-05
6.33647e-05
1.43681e-05
7.90319e-05
1.73167e-05
5.32071e-05
1.5336e-05
3.27669e-05
1.04158e-05
2.94392e-05
5.1386e-06
2.98341e-05
3.09294e-05
-4.52324e-06
3.67222e-05
-9.56543e-06
3.60575e-05
-1.46918e-05
3.50783e-05
-2.02301e-05
3.45464e-05
-2.5669e-05
3.53515e-05
-2.7076e-05
4.55684e-05
-1.67818e-05
7.85703e-05
-4.55336e-06
0.000103171
8.43428e-06
9.65178e-05
2.39177e-05
9.23515e-05
4.15151e-05
9.28312e-05
5.47666e-05
9.02238e-05
5.09251e-05
7.748e-05
3.7526e-05
7.32516e-05
2.05685e-05
8.99937e-05
1.50373e-05
0.00010334
9.33422e-06
0.000106375
-6.66784e-08
0.000114601
-1.37388e-05
0.000125875
-2.87591e-05
0.000140251
-4.13115e-05
0.000156893
-2.78618e-05
0.000127866
2.05779e-06
7.34467e-05
5.44524e-06
5.93519e-05
1.31466e-05
7.21671e-05
1.81028e-05
5.09186e-05
1.60854e-05
3.65982e-05
1.09255e-05
3.46356e-05
5.40578e-06
3.51603e-05
3.62246e-05
-4.5189e-06
4.15193e-05
-1.05358e-05
4.21127e-05
-1.59042e-05
4.04095e-05
-2.12347e-05
3.99092e-05
-2.69794e-05
4.22245e-05
-3.05075e-05
5.40879e-05
-2.3813e-05
7.86533e-05
-6.98491e-06
9.40582e-05
7.04858e-06
8.91915e-05
2.00392e-05
8.79634e-05
3.09338e-05
9.20336e-05
3.7774e-05
9.14006e-05
3.34211e-05
8.4589e-05
1.96915e-05
8.53067e-05
1.02754e-05
9.77381e-05
1.0787e-05
0.000103342
1.16347e-05
0.000105547
8.55799e-06
0.00011639
-5.73029e-07
0.000132324
-1.12682e-05
0.000148392
-1.87717e-05
0.000163516
-1.7089e-05
0.000130022
-2.70651e-07
6.20062e-05
2.10407e-06
5.36609e-05
1.39753e-05
6.23897e-05
1.96827e-05
4.87279e-05
1.68119e-05
4.09132e-05
1.1374e-05
3.99991e-05
5.59738e-06
4.08315e-05
4.17828e-05
-3.26593e-06
4.56788e-05
-1.21909e-05
5.1267e-05
-1.73598e-05
4.61749e-05
-2.1569e-05
4.44943e-05
-2.58041e-05
4.76078e-05
-2.72072e-05
5.85194e-05
-1.86365e-05
7.37282e-05
-1.07582e-06
8.20087e-05
1.05002e-05
8.48222e-05
1.65642e-05
9.06797e-05
1.86057e-05
9.78911e-05
1.76039e-05
9.72039e-05
1.28976e-05
9.15624e-05
3.6054e-06
9.59485e-05
5.37946e-07
0.000103946
2.5516e-06
0.000103362
6.94284e-06
0.000103044
1.19323e-05
0.000112439
1.14904e-05
0.000131656
5.99667e-06
0.000151105
3.37257e-06
0.000163597
-6.26626e-06
0.00013685
4.28957e-06
5.49246e-05
7.90072e-06
4.68076e-05
1.71179e-05
5.48804e-05
2.10141e-05
4.83518e-05
1.73377e-05
4.50281e-05
1.18263e-05
4.53297e-05
5.53502e-06
4.70933e-05
4.74663e-05
1.59827e-06
4.60532e-05
-1.63316e-05
6.60763e-05
-2.00831e-05
5.1048e-05
-2.16952e-05
4.71003e-05
-2.25138e-05
4.94342e-05
-1.96682e-05
5.64472e-05
-9.82387e-06
6.46891e-05
3.15263e-06
7.21793e-05
9.12095e-06
8.14316e-05
8.80469e-06
9.254e-05
4.79295e-06
0.000103933
-5.13182e-07
0.000104299
-8.80313e-06
0.000101838
-8.84484e-06
0.000106041
-7.67338e-06
0.000108898
-6.7891e-06
0.000105658
-4.52439e-06
0.000103622
2.46287e-06
0.00010844
1.19152e-05
0.000124244
1.43196e-05
0.000147762
1.24763e-05
0.000160907
1.03928e-05
0.000136988
1.67608e-05
5.70975e-05
1.685e-05
4.56594e-05
2.16666e-05
5.05455e-05
2.23701e-05
4.92225e-05
1.84696e-05
4.89584e-05
1.29847e-05
5.10452e-05
4.75229e-06
5.5176e-05
5.24414e-05
3.46251e-06
4.32317e-05
-1.6829e-05
8.67325e-05
-2.45783e-05
5.64056e-05
-2.26963e-05
4.63602e-05
-1.86389e-05
4.65445e-05
-1.30216e-05
5.06191e-05
-4.65653e-06
5.62518e-05
2.37336e-06
6.58265e-05
5.65011e-06
8.07165e-05
-6.10694e-07
9.98299e-05
-6.88374e-06
0.000110828
-1.3023e-05
0.00011038
-1.82736e-05
0.000109044
-1.75828e-05
0.000109911
-1.3927e-05
0.000111759
-1.36788e-05
0.000109929
-1.51306e-05
0.000108967
-1.33855e-05
0.000111847
-4.35979e-06
0.000121725
3.06459e-06
0.000146112
6.44084e-06
0.000161625
2.85741e-05
0.000129003
3.04535e-05
6.85899e-05
2.50087e-05
5.18611e-05
2.62419e-05
5.07182e-05
2.4884e-05
5.15213e-05
2.1224e-05
5.28454e-05
1.54495e-05
5.69218e-05
2.26984e-06
6.65161e-05
5.41314e-05
8.03484e-06
4.03609e-05
-8.11278e-06
9.48399e-05
-2.16368e-05
7.07844e-05
-2.42338e-05
4.61484e-05
-1.52681e-05
3.96039e-05
-8.77551e-06
4.43303e-05
-7.59133e-07
4.97856e-05
4.83119e-06
6.52274e-05
6.50995e-06
8.59649e-05
-1.42396e-05
0.000115681
-1.70373e-05
0.000113193
-2.06228e-05
0.00011254
-2.14881e-05
0.000110547
-2.01975e-05
0.000111235
-1.74218e-05
0.000111726
-1.74337e-05
0.000111893
-2.01565e-05
0.000113741
-2.31843e-05
0.000118843
-2.09465e-05
0.00012933
-1.50317e-05
0.000155033
-4.77186e-06
0.000171918
3.13559e-05
0.000123055
3.05905e-05
7.55972e-05
2.81707e-05
5.47176e-05
2.90128e-05
5.0749e-05
2.76215e-05
5.38919e-05
2.59615e-05
5.5123e-05
1.61746e-05
6.36686e-05
-1.84957e-06
8.95111e-05
4.93524e-05
3.94375e-06
3.55843e-05
8.20175e-06
8.55099e-05
-5.50942e-06
7.80457e-05
-1.50753e-05
5.78115e-05
-1.21219e-05
3.81042e-05
-4.42006e-06
3.68201e-05
1.07116e-05
4.08543e-05
1.65194e-05
6.54167e-05
1.06852e-06
0.00010708
-2.67817e-05
0.000141143
-2.45029e-05
0.000109341
-2.4203e-05
0.000109322
-2.16821e-05
0.00010919
-1.94315e-05
0.000111639
-1.78526e-05
0.000113173
-1.78308e-05
0.000114318
-1.92722e-05
0.000117357
-2.1894e-05
0.000123458
-2.32869e-05
0.000134482
-1.31918e-05
0.000155897
5.67441e-06
0.000169962
2.27938e-05
0.00011955
2.36441e-05
7.64499e-05
2.71882e-05
5.27476e-05
3.12391e-05
4.95977e-05
2.80643e-05
5.47806e-05
2.44262e-05
6.38859e-05
1.54958e-05
7.468e-05
-4.62822e-06
0.00010039
5.14136e-05
4.99935e-06
2.96772e-05
1.28973e-05
7.59649e-05
1.83662e-05
7.00039e-05
6.60937e-06
6.49484e-05
-2.71875e-06
5.05851e-05
1.07874e-05
3.90358e-05
2.9884e-05
3.84673e-05
4.43375e-05
5.61477e-05
1.57978e-05
0.00011426
-7.87927e-06
0.000150495
-2.01569e-05
0.000123992
-1.72758e-05
0.000112484
-1.80674e-05
0.000109112
-1.70394e-05
0.000111613
-1.67814e-05
0.000113699
-1.62059e-05
0.000115438
-1.61321e-05
0.000118297
-1.5421e-05
0.000123516
-1.54426e-05
0.000133666
-7.25018e-06
0.000147892
7.9526e-06
0.000158009
1.03054e-05
0.000116858
1.56262e-05
7.842e-05
2.56327e-05
5.3066e-05
2.50971e-05
4.83512e-05
2.77733e-05
5.66354e-05
1.66292e-05
6.62492e-05
6.48723e-06
7.69051e-05
1.08898e-05
8.83775e-05
5.97055e-05
4.40926e-06
2.51295e-05
1.08779e-05
6.7878e-05
2.48822e-05
5.57626e-05
3.89552e-05
5.0458e-05
4.32739e-05
4.42036e-05
5.73189e-05
2.8409e-05
7.44139e-05
2.26271e-05
6.56199e-05
5.34065e-05
3.97901e-05
0.000123617
3.61493e-05
0.00014524
1.17505e-05
0.000136652
-2.24698e-06
0.000122316
-8.57057e-06
0.000117912
-1.08508e-05
0.00011802
-1.2583e-05
0.000121183
-1.40556e-05
0.000123335
-1.42701e-05
0.000125423
-1.28567e-05
0.000128492
-1.00439e-05
0.000134883
-6.38347e-06
0.000142985
-5.43852e-06
0.00014598
-9.08668e-06
0.000111674
3.62015e-06
7.22742e-05
2.50064e-05
4.38688e-05
2.59643e-05
5.01221e-05
1.22169e-05
6.20182e-05
1.65822e-06
6.84733e-05
1.9473e-06
7.27295e-05
1.43507e-05
7.44373e-05
6.81093e-05
-8.71989e-07
2.5868e-05
7.62736e-06
6.03605e-05
2.38704e-05
4.23574e-05
4.07867e-05
3.71287e-05
6.00016e-05
2.89531e-05
6.95718e-05
1.78449e-05
7.60063e-05
1.19172e-05
6.01734e-05
6.0733e-05
4.84093e-05
0.000131867
5.08942e-05
0.000142596
4.62082e-05
0.000137346
3.09523e-05
0.000128485
1.43507e-05
0.000124178
2.94304e-06
0.000119038
-5.1372e-06
0.000118216
-1.02014e-05
0.000117671
-1.40722e-05
0.000118784
-1.61901e-05
0.000120326
-1.79959e-05
0.000125241
-1.92334e-05
0.000130384
-2.48664e-05
0.000134143
-3.80802e-05
0.000108282
-1.87067e-05
4.57464e-05
4.01396e-06
1.78218e-05
1.34319e-07
4.79302e-05
-5.32242e-06
6.21546e-05
-3.96679e-06
6.52642e-05
-6.35358e-07
6.81931e-05
3.87174e-06
6.75291e-05
7.04978e-05
-4.02109e-06
3.00735e-05
6.89636e-06
5.33104e-05
2.1316e-05
3.24708e-05
3.15423e-05
3.07401e-05
4.37987e-05
2.03198e-05
4.95866e-05
1.30132e-05
5.92318e-05
1.81887e-06
5.36372e-05
6.20207e-05
4.42569e-05
0.000137956
4.26593e-05
0.000143639
3.93814e-05
0.000140455
3.23564e-05
0.000135281
2.48464e-05
0.000130288
1.45737e-05
0.000125705
5.07547e-06
0.000122772
-4.89066e-06
0.000121095
-1.39331e-05
0.000120526
-2.31866e-05
0.000121604
-2.92831e-05
0.000124243
-3.22016e-05
0.000127536
-3.01262e-05
0.000128594
-3.74082e-05
0.000108974
-2.2559e-05
2.88139e-05
-1.07789e-05
4.9896e-06
-1.14085e-05
4.56393e-05
-1.01529e-05
5.90373e-05
-8.01177e-06
6.13293e-05
-4.58611e-06
6.35265e-05
-3.12923e-06
6.29821e-05
6.6622e-05
6.43594e-07
3.03212e-05
8.62984e-06
4.85842e-05
1.97725e-05
2.42579e-05
2.23732e-05
2.79177e-05
2.71175e-05
1.59599e-05
3.28214e-05
7.55597e-06
4.39857e-05
-9.64356e-06
4.00638e-05
6.11356e-05
3.43637e-05
0.000140457
3.22163e-05
0.000145116
2.93956e-05
0.000143123
2.48972e-05
0.000139688
1.90942e-05
0.000136078
1.18167e-05
0.000132985
3.84372e-06
0.000130685
-4.25645e-06
0.000129164
-1.24844e-05
0.000128588
-1.99219e-05
0.000128922
-2.58918e-05
0.000129974
-2.92373e-05
0.000130755
-3.01929e-05