/*--------------------------------*- C++ -*----------------------------------*\
| =========                 |                                                 |
| \\      /  F ield         | OpenFOAM: The Open Source CFD Toolbox           |
|  \\    /   O peration     | Version:  2.3.0                                 |
|   \\  /    A nd           | Web:      www.OpenFOAM.org                      |
|    \\/     M anipulation  |                                                 |
\*---------------------------------------------------------------------------*/
FoamFile
{
    version     2.0;
    format      ascii;
    class       volScalarField;
    location    "0.53";
    object      rho;
}
// * * * * * * * * * * * * * * * * * * * * * * * * * * * * * * * * * * * * * //

dimensions      [1 -3 0 0 0 0 0];

internalField   nonuniform List<scalar> 
6000
(
808.967
809.444
942.836
1065.14
1078.86
1079.28
1079.28
1079.27
1079.26
963.375
800.029
851.62
927.318
927.472
927.667
927.471
927.309
794.001
835.147
991.794
1084.04
1084.05
1084.05
1078.67
1055.57
1055.24
1034.82
937.042
817.057
809.237
803.813
803.407
804.188
804.803
860.285
906.981
977.157
942.305
823.748
798.567
802.916
797.719
861.563
927.647
927.791
915.562
800.31
797.561
790.853
797.699
844.232
937.378
920.976
851.09
830.163
828.172
810.518
810.177
810.241
809.462
803.745
804.075
803.578
804.378
862.755
906.601
902.575
809.664
799.509
803.487
797.715
803.487
801.762
919.67
927.985
826.612
797.692
790.886
797.692
791.581
798.017
816.326
876.905
857.525
829.35
810.78
810.398
810.561
810.243
810.255
805.106
833.029
804.378
803.938
839.176
888.086
830.972
801.885
804.06
798.281
803.487
799.416
804.06
834.776
928.128
798.017
793.879
797.692
791.183
798.017
793.725
798.526
832.428
842.43
819.054
810.853
810.78
870.535
933.684
810.279
908.421
1032.15
933.522
861.484
864.672
874.122
823.128
804.615
800.05
804.06
798.418
804.06
803.259
813.281
898.491
797.966
798.017
792.204
798.017
792.8
798.526
803.115
870.791
894.486
877.148
874.965
936.722
1111.82
1182.45
943.319
1100.07
1256.62
1212.47
1108.07
1044.83
965.736
858.39
803.513
804.615
800.74
804.06
802.36
806.369
894.557
961.73
846.42
797.421
798.017
794.687
798.526
796.8
860.8
993.887
1054.96
1055.26
1093.96
1205.45
1312.19
1329.06
1198.13
1292.54
1354.78
1351.05
1321.9
1285.06
1201.8
1022.43
843.352
803.23
804.615
801.59
804.615
897.739
1065.09
1106.56
990.737
821.911
796.097
798.526
797.436
841.204
1023.03
1194.47
1258.18
1275.67
1309.62
1350.76
1369.33
1370.66
1349.87
1371.57
1378.94
1378.79
1378.27
1372.51
1346.68
1258.15
1035.35
863.843
804.495
804.615
828.974
1062.72
1217
1232.3
1150
912.445
798.526
803.139
871.358
1044.83
1255.34
1335.9
1356.91
1365.97
1371.28
1371.62
1371.44
1371.43
1371.4
1379.2
1378.95
1379.23
1378.87
1378.91
1378.31
1362.04
1277.39
1087.33
928.588
867.913
915.896
1224.05
1290.01
1290.95
1247.57
1049.23
863.002
920.948
1104.8
1292.14
1363.92
1371.19
1371.39
1371.39
1371.68
1371.45
1371.68
1371.49
1371.45
1379.23
1379.4
1378.95
1379.19
1378.43
1377.84
1377.59
1370.2
1307.09
1167.38
1063.6
1069.81
1288.67
1318.11
1314.29
1281.71
1154.55
1039.56
1165.13
1318.64
1370.76
1371.14
1371.39
1371.29
1371.68
1371.41
1371.73
1371.19
1371.16
1371.38
1379.24
1378.75
1378.28
1367.35
1359.92
1360.44
1360.92
1362.36
1348.12
1285.32
1229.05
1226.72
1306.75
1330.6
1321.68
1279.07
1215.14
1245.55
1335.33
1367.71
1367.87
1359.64
1361.18
1364.45
1368.62
1371.4
1370.9
1321.77
1171.36
1309.07
1307.68
1227.41
1283.22
1312.15
1279.53
1256.24
1254.55
1258.15
1168.13
1087.58
1226.32
1306.63
1322.14
1335.08
1320
1279.47
1279.4
1339.26
1361.56
1361.56
1319.36
1242.44
1167.74
1204.1
1289.51
1273.25
1102.98
866.183
705.39
848.163
847.666
756.766
801.209
853.523
803.7
758.036
767.432
790.355
716.96
664.672
1033.24
1311.99
1333.64
1335.17
1315.78
1286.69
1322
1360.66
1360.81
1230.09
938.511
745.419
637.216
667.856
766.613
743.835
627.64
564.276
563.395
674.517
709.717
587.279
567.991
569.128
560.633
568.992
557.096
568.993
558.795
569.118
669.663
1258.07
1335.15
1335.06
1286.88
1281.81
1337.27
1360.13
1272.21
759.798
549.013
554.037
539.007
554.033
547.709
554.21
553.091
554.385
613.966
793.486
807.85
623.729
569.117
563.519
568.985
555.943
568.837
554.963
568.985
557.562
569.179
988.61
1323.11
1317.1
1259.23
1257.33
1329.81
1330.92
856.833
547.62
554.031
539.859
553.857
539.064
554.031
552.184
591.696
649.453
740.383
943.975
913.338
691.194
568.377
568.985
558.375
568.837
554.708
568.837
555.819
568.994
556.968
612.032
1254.23
1316.19
1253.11
1251.66
1320.36
1037.44
577.419
554.205
543.098
554.031
537.138
554.031
550.342
643.429
775.784
866.873
926.813
1057.71
978.234
764.73
599.986
565.481
568.985
555.695
568.837
554.864
568.986
556.648
569.121
561.32
989.989
1315.89
1244.5
1251.72
1293.04
782.097
554.381
546.483
554.205
540.193
554.03
540.703
578.392
845.524
1040.17
1118.1
1145.16
1177.13
1020.85
841.616
679.97
569.117
559.628
568.985
554.845
568.985
555.835
569.117
556.673
569.251
827.762
1300.78
1241.1
1245.72
1251.71
730.326
552.685
554.38
544.4
554.205
538.223
554.205
639.285
1048.63
1236.86
1265.82
1261.71
1268.17
1059.12
914.409
776.586
568.304
569.117
556.68
568.985
555.281
569.117
557.375
569.251
560.468
766.367
1259.06
1241.01
1238.78
1257.48
785.251
554.558
547.13
554.38
541.842
554.205
547.066
680.926
1123.74
1282.91
1283.46
1243.65
1275.73
1095.56
975.947
861.733
595.491
562.392
569.117
555.876
569.117
556.499
569.251
557.122
569.374
758.939
1238.02
1238.27
1238.53
1257.46
879.31
555.391
554.557
545.281
554.38
541.527
554.38
692.112
949.605
1185.19
1252.7
1030.5
1269.82
1123.27
1017.47
932.39
645.432
569.25
559.147
569.117
556.312
569.25
558.546
569.374
561.223
755.724
1240.16
1245.48
1252.88
1261.84
965.291
563.113
549.499
554.557
543.803
554.38
550.816
649.53
734.656
832.846
941.81
836.03
1113.29
1137.6
1043.01
987.047
705.915
566.268
569.25
557.778
569.25
557.536
569.374
558.902
569.49
737.558
1241.48
1295.81
1304.01
1294.52
1044.74
574.007
554.735
548.705
554.557
545.144
554.557
600.526
626.802
678.969
788.875
804.443
1062.58
1146.95
1059.77
1029.31
780.043
569.374
563.034
569.25
557.58
569.374
560.707
569.489
563.972
694.173
1203.2
1330.56
1330.82
1328.66
1099.21
607.059
553.422
554.735
548.107
554.557
552.516
584.125
603.023
690.602
794.809
879.883
1105.57
1205.94
1095.24
1078.08
886.766
598.306
569.374
560.406
569.374
560.265
569.489
562.27
569.615
666.492
1130.44
1330.81
1330.58
1330.75
1122.04
709.83
560.82
553.486
554.735
549.2
554.735
583.302
617.684
783.345
894.964
995.631
1172.43
1281.83
1201.01
1168.33
1028.05
738.552
567.537
569.374
561.266
569.489
564.253
569.615
567.235
680.106
1082.87
1330.44
1216.83
1173.86
1126.78
891.24
642.023
562.465
553.255
554.735
554.505
594.956
658.041
875.32
1014.82
1115.61
1237.74
1331.7
1289.02
1255.55
1177.79
959.302
605.028
565.794
569.489
564.544
569.615
565.174
569.738
733.184
1109.04
1165.31
911.33
836.016
1019.46
1012.6
809.268
622.898
554.915
553.863
558.354
637.575
729.611
958.299
1122.48
1213.88
1291.01
1358.37
1333.77
1306.64
1263.32
1130.58
758.018
569.489
566.392
569.615
567.058
569.738
573.333
797.474
1130.03
1067.76
803.254
768.415
812.27
957.359
920.203
718.446
580.335
555.616
628.458
715.519
825.17
1057.08
1207.44
1282.93
1329.89
1371.34
1356.51
1336.62
1307.85
1230.34
972.186
621.899
569.615
568.699
569.738
568.688
604.826
867.8
1132.8
1015.11
774.835
766.327
767.758
809.141
870.661
765.024
651.576
641.319
821.157
805.599
924.737
1149.99
1273.51
1324.37
1353.45
1378.82
1370.19
1355.94
1334.96
1291.61
1107.84
763.565
599.238
592.293
582.652
590.437
681.46
961.961
1133.01
938.084
767.944
767.757
765.748
767.023
766.638
765.732
768.558
886.268
1026.43
883.485
1026.25
1228.99
1316.76
1349.52
1367.5
1383.66
1379.42
1370.27
1354.51
1325.98
1199
921.753
729.422
719.582
718.92
743.917
852.604
1052.81
1102.5
898.225
771.226
766.905
767.023
764.797
766.295
764.203
925.965
1160.05
1116.93
967.579
1116.95
1289.21
1346.2
1366.68
1377.06
1385.28
1384.76
1380.1
1369.12
1346.3
1257.41
1069.27
940.267
957.191
1008.07
1060.35
1128.61
1185.64
1084.45
884.385
817.873
798.68
772.356
767.023
764.757
766.296
1005.45
1284.36
1162.03
1080.48
1218.22
1335.46
1367.32
1378.42
1383.3
1385.29
1385.22
1384.72
1377.86
1357.36
1288.93
1192.22
1160.73
1218.47
1280.45
1306.73
1315.2
1298.13
1121.36
961.676
933.911
906.987
838.629
776.291
767.023
764.797
944.345
1291.18
1216.22
1199.65
1307.41
1364.41
1380.15
1384.45
1384.77
1385.23
1369.74
1384.49
1381.57
1361.83
1319.56
1290.54
1316.98
1349.59
1368.35
1360.08
1359.94
1355.94
1256.68
1134.87
1101.98
1072.02
986.055
858.864
775.01
767.024
859.954
1294.66
1270.95
1276.83
1348.49
1377.66
1384.69
1384.71
1384.77
1384.28
1181.44
1365.49
1381.24
1364.24
1349.62
1353.91
1372.36
1373.73
1373.56
1344.03
1358.73
1358.61
1352.88
1297.93
1262.96
1235.85
1173.84
1044.27
881.129
812.081
945.927
1297.91
1318.19
1332.89
1366.82
1381.56
1384.56
1369.57
1384.59
1124.01
794.133
1099.18
1356.05
1368.13
1369.17
1373.61
1373.79
1373.62
1364.98
1338.93
1352.31
1359.38
1358.46
1358.34
1347.68
1333.34
1309.41
1250.15
1107.78
1025.69
1198.43
1310.23
1338.14
1362.17
1372.85
1375.3
1365.46
1273.09
1367.95
871.513
684.654
729.054
1051.02
1359.97
1372.31
1373.75
1373.36
1364.13
1236.43
1338.82
1347.01
1358.46
1359.52
1358.35
1358.8
1358.21
1358.09
1350.01
1287.39
1248.1
1354.8
1349.04
1371.07
1371.84
1366.52
1338.63
1156.94
821.546
1243.91
852.466
683.466
684.651
719.009
981.084
1256.47
1355.5
1222.87
854.102
728.332
1140.22
1313.15
1359.26
1358.14
1359.37
1358.14
1359.08
1358.05
1357.99
1343.89
1307.74
1355.42
1370.64
1371.6
1370.42
1234.9
876.666
707.142
628.445
856.982
881.917
684.651
684.347
684.65
725.103
882.557
924.325
768.31
486.432
482.015
578.039
839.379
1068.18
1182.3
1235.71
1270.98
1287.37
1286.5
1252.89
1186.3
1085.27
1105.03
1108.86
1113.05
1033.49
741.413
624.801
628.433
621.344
663.048
920.194
701.439
739.487
760.045
795.344
821.581
794.257
634.65
482
468.502
482.002
476.447
527.167
598.105
662.341
713.641
754.621
762.802
727.498
648.252
575.958
642.953
746.388
814.086
689.897
624.88
628.432
624.677
627.79
632.404
956.619
808.909
888.536
911.521
937.122
903.23
868.574
663.591
474.429
482
469.763
482
472.006
482.003
474.396
482.008
475.814
482.011
475.058
482.004
471.551
507.871
716.883
808.571
644.057
628.432
624.749
627.79
621.817
627.164
1037.79
956.367
1039.92
1013.88
1005.25
922.287
933.777
690.16
482
468.465
482
471
482
472.474
482
473.296
482
473.013
482
471.609
482
511.937
744.503
809.389
646.314
625.584
628.112
625.187
627.488
626.865
1131.31
1034.15
1092.35
963.02
930.128
920.626
990.631
694.87
476.252
482
470.88
482
471.889
482
472.853
482
473.042
482
472.603
482
470.587
521.574
758.312
808.547
655.485
628.738
625.904
628.112
624.526
641.277
1179.91
947.509
1090.71
922.623
916.301
922.451
1038.73
690.051
482
470.124
482
471.604
482
472.533
482
472.959
482
472.878
482
471.753
482
525.892
765.015
811.366
666.797
627.789
628.737
627.014
628.112
706.235
1180.81
917.249
925.346
915.309
922.622
919.556
1063.74
692.506
479.057
482
471.642
482
472.156
482
472.844
482
472.881
482
472.759
482
469.891
527.986
777.134
833.932
687.828
629.364
628.371
628.737
627.904
844.778
1143.51
922.924
916.724
922.785
916.078
922.626
1074.63
719.125
482
471.149
482
471.932
482
472.681
482
472.908
482
472.931
482
471.867
482
523.367
798.959
877.73
731.682
642.075
638.763
674.921
693.774
1110.95
1087.33
917.029
922.921
915.882
922.785
920.098
1078.98
764.294
480.686
482
472.076
482
472.398
482
472.935
482
472.944
482
472.991
482
469.376
507.695
822.511
927.543
806.097
722.06
732.125
845.388
991.085
1326.55
1067.23
923.078
918.917
922.921
917.578
922.787
1085.59
803.332
482
471.716
481.999
472.226
481.999
472.883
481.999
473.048
481.999
473.177
481.999
472.073
482
481.15
840.874
970.645
889.237
841.319
902.635
1103.19
1318.86
1399.51
1141.97
921.541
923.078
918.914
922.921
921.532
1109.71
833.418
481.331
481.999
472.461
481.999
472.672
481.999
473.153
481.999
473.243
481.999
473.374
481.999
469.382
482
856.8
1008.93
952.252
970.648
1118.94
1320.69
1396.06
1405.45
1282.12
1003.85
922.126
923.078
919.812
922.925
1131.3
861.711
482
472.116
481.999
472.568
481.999
473.18
481.999
473.377
481.999
473.672
481.999
472.553
481.999
475.986
886.665
1066.34
996.409
1107.1
1297.45
1389.53
1405.38
1405.55
1361.1
1249.82
1044.45
922.236
923.078
934.061
1149.03
889.941
481.019
481.999
472.923
481.999
473.068
481.999
473.496
481.999
473.717
481.999
474.058
481.999
469.9
481.999
932.042
1141.32
1064.72
1239.24
1364.31
1404.89
1405.93
1393.31
1382.07
1356.61
1247.92
1024.24
922.576
973.787
1169.77
927.691
482
472.467
481.999
473.067
481.999
473.632
481.999
473.777
481.999
474.229
481.999
473.296
481.999
473.75
962.285
1214.09
1168.37
1313.01
1388.19
1405.58
1405.09
1380.18
1382.2
1382.02
1344.57
1208.49
990.092
1025.47
1195.67
974.821
479.792
481.999
473.543
481.999
473.649
481.999
474.026
481.999
474.186
481.999
474.606
481.999
470.572
481.999
832.639
1258.44
1256.39
1346.19
1399.59
1405.08
1405.79
1317.42
1377.69
1382.14
1374.2
1309.71
1127.01
1085.42
1229.54
1000.65
482
473.235
481.999
473.811
481.999
474.311
481.999
474.401
481.999
474.875
481.999
473.936
481.999
470.803
626.697
1277.57
1297.13
1355.34
1401.29
1406.31
1404.37
1251.58
1291.94
1381.83
1381.92
1344.59
1230.96
1147.65
1265.44
945.019
478.769
481.999
474.317
481.999
474.449
481.999
474.802
481.999
474.94
481.999
475.549
481.999
471.574
481.999
479.53
1157.26
1310.84
1352.48
1399.94
1404.82
1392.79
1251.49
1292.14
1381.75
1381.77
1358.44
1270.13
1207.62
1284.54
810.15
482
474.159
481.999
474.524
481.999
475.199
481.999
475.269
481.999
475.837
481.999
475.337
481.999
470.167
482.025
854.904
1319.62
1350.48
1398.72
1405.83
1359.74
1251.62
1292.6
1317.5
1381.63
1366.75
1287.19
1252.39
1284.58
667.318
476.603
481.999
475.12
481.999
475.327
481.999
475.738
481.999
475.882
481.999
476.686
481.999
473.351
481.999
473.704
609.869
1321.69
1353.18
1394.85
1402.34
1304.13
1251.53
1292.78
1293.33
1357.69
1366.55
1307.19
1280.83
1235.92
561.236
481.999
475.187
481.998
475.274
481.998
475.941
481.998
476.085
481.998
476.68
481.998
476.379
481.998
470.478
481.999
499.86
958.55
1336.91
1386.06
1383.57
1254.2
1281.28
1293.71
1292.51
1300.15
1361.53
1322.81
1291.94
974.426
508.236
476.086
481.998
475.808
481.998
476.007
481.998
476.325
481.998
476.47
481.998
477.232
481.998
474.419
481.998
472.245
482.057
619.873
1325.46
1377.97
1371.16
1169.11
1320.98
1358.72
1292.02
1290.96
1325.54
1301.72
1301.48
812.474
479.603
481.998
475.733
481.998
475.66
481.998
476.309
481.998
476.44
481.999
476.942
481.999
476.685
481.998
470.688
481.998
475.314
486.077
1061.68
1356.08
1345.22
1035.17
1320.91
1384.88
1362.18
1290.3
1289.36
1266.42
1301.07
688.524
482.025
475.517
481.998
475.993
481.998
476.272
481.998
476.48
481.998
476.578
481.998
477.304
481.998
474.893
481.998
471.474
481.998
480.164
766.926
1286.46
1204.19
1019.62
1159.16
1385.17
1384.94
1355.87
1301.31
1259.2
1210.7
575.819
476.643
481.998
476.125
481.998
475.875
481.998
476.504
481.998
476.607
481.998
477.083
481.998
477.047
481.998
470.909
481.998
474.562
481.998
708.111
1108.4
1087.37
1023.59
1067.36
1385.18
1385.3
1382.58
1342.24
1296.09
987.164
497.962
481.998
475.818
481.998
476.564
481.998
476.771
481.998
476.913
481.998
477.014
481.998
477.848
481.998
475.812
481.998
471.605
481.998
480.427
765.651
1059.93
1063.86
1019.1
1077.86
1384.84
1385.14
1385.13
1375.32
1319.33
829.651
481.999
477.089
481.998
477.355
481.998
476.724
481.998
477.301
481.998
477.387
481.998
477.88
481.998
478.055
481.998
471.371
481.998
474.895
481.998
833.483
1083.54
1059.88
1023.35
1088.99
1344.78
1384.95
1385.01
1384.75
1289.93
694.896
479.791
481.998
477.396
481.998
477.887
481.998
477.892
481.998
478.046
481.998
478.137
481.998
479.037
481.998
477.044
481.998
471.995
481.998
481.504
896.076
1097.41
1057.27
1019.11
1099.89
1254.76
1354.38
1384.75
1381.11
1107.34
631.404
481.998
478.615
481.998
478.727
481.998
478.117
481.998
478.699
481.998
478.772
481.998
479.266
481.998
479.429
481.998
472.147
481.998
476.23
488.673
952.876
1108.49
1057.39
1023.59
1117.76
1206.86
1249.92
1324.19
1280.02
1008.76
679.124
481.468
481.998
478.891
481.998
479.42
481.998
479.306
481.998
479.626
481.998
479.733
481.998
480.6
481.998
478.607
481.998
472.665
481.998
539.402
1010.34
1115.74
1062.76
1021.04
1153.76
1198.92
1217.02
1265.08
1219.11
1067.23
800.901
532.544
480.62
481.998
480.413
481.998
479.903
481.998
480.491
481.998
480.573
481.998
481.04
481.998
481.054
481.998
473.09
481.998
478.392
633.588
1084.73
1125.39
1078.46
1023.91
1223.83
1191.43
1204.64
1242.82
1234.01
1159.7
958.078
648.721
481.998
480.847
481.998
481.417
481.998
481.197
481.998
481.5
481.998
481.584
481.998
484.399
481.998
480.262
481.998
473.731
481.998
739.865
1152.38
1135.43
1106.13
1149.99
1300.53
1183.99
1196.37
1237.09
1246.29
1226.38
1110.6
812.604
509.518
481.998
484.775
482.994
481.758
481.998
484.203
488.568
491.906
500.765
519.851
535.474
514.962
481.998
473.701
481.998
480.963
850.943
1199.87
1156.93
1181.53
1281.71
1351.79
1176.64
1196.45
1247.63
1258.55
1255.14
1198.02
960.586
590.379
503.556
522.972
526.357
519.076
523.885
533.221
546.294
557.327
582.063
623.847
644.775
594.713
494.621
481.998
475
481.998
979.197
1242.15
1201.34
1274.89
1344.01
1371.6
1166.93
1210.35
1261.15
1262.54
1261.8
1212.61
1016.81
694.625
558.453
584.552
615.166
610.368
617.387
632.949
652.335
670.632
705.732
742.513
753.964
666.796
516.114
474.287
481.997
497.536
1098.39
1272.86
1263.03
1329.74
1365.27
1371.69
1147.64
1219.01
1262.55
1262.55
1257.02
1171.94
993.128
751.918
600.186
610.028
678.656
686.204
689.7
707.817
728.358
749.616
784.199
798.624
798.525
682.129
499.895
481.997
475.802
541.694
1146.17
1302.01
1312.21
1353.65
1370.56
1371.7
1117.12
1202.55
1262.56
1262.55
1237.14
1119.67
933.98
743.82
598.937
537.515
654.564
689.502
688.809
706.977
720.37
735.176
754.998
767.769
733.619
611.754
482.071
474.237
481.997
592.499
1143.59
1326.34
1342.21
1364.45
1371.68
1371.68
1111.79
1152.11
1226.47
1254.75
1220.83
1100.59
898.314
704.034
564.297
481.997
528.423
607.462
586.915
606.739
605.927
608.389
603.042
602.364
551.406
487.491
475.303
481.997
477.334
627.399
1082.85
1338.51
1357.45
1370.22
1371.66
1362.88
1111.64
1111.99
1173.8
1217.69
1219.53
1122.3
904.746
669.876
513.228
474.933
481.997
477.457
481.997
477.843
481.997
478.332
481.997
477.386
481.997
474.937
481.997
474.214
481.997
657.12
1022.23
1282.65
1359.46
1367.56
1371.57
1356.79
1111.96
1112.19
1148.81
1209.94
1230.83
1175.46
955.767
670.234
487.357
481.997
474.986
481.997
476.111
481.997
476.719
481.997
477.1
481.997
475.486
481.997
474.307
481.997
479.789
705.748
1039.58
1214.16
1291.52
1327.87
1342.26
1303.7
1112.26
1112.5
1158.98
1222.84
1247.54
1228.69
1044.7
709.239
485.421
475.717
481.997
476.151
481.997
476.976
481.997
477.554
481.997
476.748
481.997
475.838
481.997
476.122
481.997
777.832
1092.54
1221.34
1227.13
1229.54
1236.06
1235.93
1112.6
1128.09
1199.96
1249.02
1265.54
1262.53
1137.41
793.296
495.534
481.997
475.368
481.997
477.242
481.997
477.626
481.997
478.209
481.997
476.736
481.997
475.674
481.997
522.936
879.119
1146.91
1233.22
1227.85
1228.05
1228.26
1228.46
1126.67
1193.62
1253.23
1278.97
1286.58
1285.06
1220.27
905.225
528.949
477.745
481.997
477.438
481.997
478.308
481.997
479.041
481.997
478.221
481.997
477.613
481.997
478.974
625.397
1003.38
1200.89
1243.83
1237.23
1228.26
1228.45
1228.67
1213.37
1273.01
1303.6
1313.71
1313.25
1306.64
1278.25
1030.51
596.529
481.997
476.789
481.997
478.987
481.997
479.266
481.997
480.101
481.997
478.675
481.997
477.909
481.997
757.106
1131.25
1247.01
1263.03
1263.34
1253.81
1235.19
1233.93
1310.63
1336.95
1346.96
1347.14
1340.86
1329.43
1311.07
1152.69
703.313
480.881
481.997
479.179
481.997
480.201
481.997
481.246
481.997
480.38
481.997
480.061
481.997
494.48
894.981
1227.17
1283.59
1294.81
1301.08
1300.11
1289.31
1286.74
1372.31
1378.6
1378.83
1375.13
1366.46
1352
1331.07
1246.81
847.262
492.558
479.422
481.997
481.226
481.997
481.423
482.271
482.274
481.997
481.312
481.997
481.167
575.193
1024.94
1284.34
1316.23
1329.21
1337.75
1341.63
1341.16
1341.96
1401.98
1400.79
1397.92
1393.8
1386.63
1373.54
1352.94
1300.32
1010.85
570.021
481.997
481.396
487.601
500.425
513.74
522.925
523.891
516.336
507.542
516.534
529.165
717.222
1138.06
1322.6
1345.95
1357.05
1364.02
1368.84
1373.67
1376.73
1406.51
1406.47
1403.15
1398.27
1394.62
1386.91
1372.93
1338.84
1159.5
716.739
509.243
509.249
538.808
571.192
597.011
612.233
616.891
612.159
601.333
622.332
676.936
890.991
1227.38
1347.07
1365.02
1373.17
1378.19
1383.36
1388.44
1389.64
1406.51
1406.44
1395.97
1385.15
1382.73
1382.8
1378.95
1363.28
1265.5
897.827
613.076
587.029
640.051
687.717
719.865
739.861
751.04
756.497
753.773
785.063
895.056
1081.82
1276.62
1346.71
1363.74
1374.44
1381.57
1388.7
1389.7
1389.72
1401.66
1404.37
1380.3
1352.6
1334.76
1350.33
1366.14
1365.99
1317.04
1069.1
764.937
706.235
777.025
837.226
874.549
901.024
920.617
936.16
940.428
974.795
1110.05
1239.79
1299.66
1320.5
1339.98
1364.04
1379.12
1388.91
1389.66
1389.65
1167.13
1348.63
1362.61
1327.99
1299.15
1299.57
1341.95
1365.15
1335.29
1165.13
917.975
854.57
936.347
1005.85
1046.28
1077.78
1103.04
1122.07
1126.29
1145.28
1229.05
1307.5
1321.69
1312.91
1300.92
1341.58
1373.1
1380.28
1379.32
1373.05
634.04
1147.89
1326.47
1300.8
1299.51
1312.89
1353.6
1366.03
1330.06
1182.68
1051.44
1017.14
1095.17
1160.96
1197.1
1222.15
1242.28
1257.05
1258.77
1253.11
1248.28
1303.63
1336.04
1328.61
1295.48
1295.25
1356.01
1354.68
1290.69
988.033
309.468
675.633
1220.79
1305.17
1316.42
1347.15
1366.09
1365.95
1297.93
1180.45
1153.12
1169.95
1225.74
1264.79
1283.9
1296.85
1307.75
1316.55
1318.13
1303.64
1257.46
1273.16
1336
1346.09
1311.61
1294.91
1332.69
1311.06
922.633
522.923
298.949
358.752
787.421
1293.79
1328.1
1359.48
1366.02
1336.14
1218.06
1181.35
1235.09
1281.47
1301.54
1310.54
1317.32
1324.45
1330.72
1336.49
1340.97
1333.06
1286.96
1273.36
1317.75
1346.14
1338.91
1296.87
1293.71
981.5
543.314
470.314
298.949
317.226
420.437
902.275
1331.13
1350.6
1353.07
1284.03
1218.1
1228.73
1304.23
1329.13
1328.22
1326.6
1330.86
1336.72
1341.76
1346.62
1352.06
1352.66
1330.39
1282.96
1286.81
1331.88
1338.97
1322.6
1208.71
738.559
470.984
470.669
298.949
339.552
392.325
507.592
903.664
1210.15
1289.59
1284.35
1274.76
1312
1337.93
1337.92
1330.11
1332.73
1338.83
1344.74
1349.42
1353.5
1358.43
1362.9
1357.87
1327.22
1295.71
1312.62
1332.1
1324.04
1196.38
740.093
494.793
471.015
300.796
392.137
449.022
511.087
606.965
801.918
987.506
1257.11
1337.91
1337.95
1338
1330.21
1330.22
1337.06
1345.21
1351.24
1355.54
1358.89
1362.56
1367.31
1369.65
1360.48
1333.91
1321.91
1327.8
1323
1221.57
859.928
583.223
471.358
339.186
465.469
548.449
607.496
657.032
717.842
773.531
1013.21
1326.56
1334.1
1320.96
1320.57
1330.99
1343.13
1351.81
1357.28
1360.9
1363.6
1366.11
1369.49
1373.29
1373.4
1363.33
1347.21
1339.92
1333.54
1279.44
1048.4
740.216
519.041
424.281
562.721
668.968
749.201
791.414
792.216
798.321
851.947
1152.77
1331.06
1311.61
1322.05
1338.82
1351.69
1358.9
1362.96
1365.63
1367.68
1369.44
1371.5
1374.42
1376.86
1375.15
1367.14
1358.33
1351.35
1327.98
1218.65
944.49
685.47
548.748
695.529
820.85
911.239
953.105
938.233
895.657
852.005
977.283
1295.2
1311.31
1332.88
1350.87
1360.67
1365.07
1367.24
1368.82
1370.31
1371.76
1373.21
1375.25
1377.56
1378.61
1376.3
1371.28
1365.97
1355.32
1314.36
1163.49
942.696
710.932
872.416
1008.45
1090.95
1120.74
1104.4
1035.66
906.334
973.529
1222.27
1323.17
1348.29
1361.52
1367.03
1368.54
1368.92
1369.48
1370.53
1371.95
1373.25
1375.28
1377.52
1379.21
1379.65
1378.22
1375.86
1371.5
1356.72
1303.97
1178.78
907.808
1078.08
1196.92
1246.73
1259.04
1246.6
1187.3
1035.68
1016.22
1204.57
1337.05
1359.88
1366.47
1368.35
1368.4
1368.3
1368.37
1368.66
1370.28
1371.01
1373.5
1376.56
1378.82
1380.69
1381.88
1382.37
1382.03
1377
1354.09
1295.69
1108.69
1250.09
1312.2
1329.56
1332.34
1325.45
1297.28
1198.85
1096.77
1205.97
1340.68
1360.73
1362.42
1362.55
1363.24
1365.21
1364.7
1361.48
1364.49
1363.9
1367.78
1373.74
1377.93
1381.3
1384.1
1386.49
1388.76
1388.78
1375.47
1331.62
1250.35
1333.71
1359.2
1363.19
1362.11
1358.71
1348.52
1310.43
1205.17
1207.42
1313.34
1345.01
1333.61
1328.11
1343.57
1355.54
1356.04
1343.43
1352.11
1348.21
1356.63
1370.33
1378.4
1382.51
1385.42
1388.04
1391.83
1395.18
1389.78
1359.15
1316.22
1366.91
1377.57
1374.77
1371.09
1369.82
1367.78
1357.09
1306.57
1234.8
1225.35
1236.95
1180.18
1162.94
1212.14
1303.35
1330.9
1240.72
1265.98
1302.43
1344.37
1371.87
1381.06
1383.69
1384.59
1386.6
1390.98
1396.66
1397.73
1383.55
1354.03
1382.07
1382.19
1374.97
1369.67
1369.52
1370.45
1370.41
1356.26
1294.58
1178.75
1103.72
1070.91
1068.94
1071.8
1132.05
1185.78
1080.27
1114.58
1252.55
1348.61
1377.95
1381.95
1382.02
1378.85
1380.5
1386.65
1394.69
1398.12
1396.98
1378.18
1386.72
1381.57
1370.42
1362.44
1363.29
1370.41
1370.63
1370.4
1340.75
1212.84
1070.91
1069.09
1070.91
1068.21
1070.91
1069.83
1070.91
1070.83
1256.78
1360.92
1381.72
1381.82
1373.99
1365.65
1370.94
1380.2
1391.15
1398.08
1398.19
1386.81
1386.8
1377.07
1363.78
1352.69
1349.35
1364.21
1370.48
1370.64
1362.64
1289.1
1106.58
1070.91
1069.03
1070.91
1068.69
1070.91
1069.76
1087.34
1290.87
1373.51
1381.62
1376.49
1355.95
1352.58
1365.05
1375.53
1387.23
1398.27
1398.19
1386.85
1386.76
1371.3
1360.56
1349.01
1335.5
1352.76
1370.58
1370.5
1370
1335.67
1207.49
1099.83
1070.91
1069.18
1070.91
1069.49
1070.91
1149.28
1326.5
1379.94
1381.35
1361.36
1336.13
1349.85
1364.98
1370.08
1379.11
1397.86
1398.23
1386.69
1382.36
1361.6
1357.8
1349.84
1332.5
1339.84
1366.3
1370.84
1370.45
1351.66
1292.14
1193.24
1105.28
1070.91
1069.54
1070.91
1087.12
1224.21
1347.63
1379.02
1372.96
1343.95
1327.64
1349
1358.64
1352.04
1354.26
1364.45
1369.48
1341.8
1339.78
1338.02
1344.14
1345.27
1331.04
1333.73
1361.91
1370.47
1369.25
1354.31
1324.48
1282.55
1205.7
1095.96
1070.9
1088.33
1156.26
1276.27
1353.29
1375.13
1367.16
1340.44
1326.63
1343.76
1343.86
1324.92
1314.21
1201.45
952.172
867.459
1129.29
1314.59
1330.89
1338.54
1331.01
1337.1
1362.87
1370.82
1366.78
1355.01
1338.07
1321.92
1289.6
1189.33
1130.5
1174.51
1250.28
1305.9
1351.35
1370.18
1365.98
1345.18
1326.63
1334.93
1335.24
1328.81
1157.88
680.767
370.022
335.943
571.122
1050.75
1317.26
1328.39
1334.23
1348.5
1365.7
1370.44
1363.85
1356.47
1347.24
1336.53
1321.14
1284.26
1245.58
1276.53
1309.6
1327.68
1351.85
1366.13
1365.2
1355.43
1337.32
1327.39
1319.64
1039.18
537.753
257.585
172.503
208.824
255.102
447.201
896.827
1292.16
1331.7
1357.25
1367.54
1370.17
1359.34
1353.95
1348.9
1340.55
1330.57
1323.5
1316.22
1322.82
1331.35
1341.47
1352.92
1358.79
1358.51
1357.49
1349.68
1261.03
840.933
426.987
251.075
191.689
172.235
208.955
224.46
279.355
416.571
812.846
1266.33
1356.58
1363.33
1361.49
1336.62
1311.03
1303.13
1308.88
1324.04
1329.75
1330.1
1330.36
1331.22
1322.75
1313.82
1318.3
1333.21
1308.92
1133.47
727.473
416.378
314.427
254.654
201.952
172.235
209.081
241.295
305.85
389.463
496.442
797.78
1131.14
1223.54
1166.59
1104.13
1061.72
1051.24
1077.77
1147.37
1229.84
1274.24
1247.69
1171.66
1092.09
1046.14
1036.1
1022.81
898.19
662.936
492.106
420.744
353.903
293.894
229.914
172.235
209.207
281.859
367.756
456.145
548.059
645.784
789.014
912.133
903.029
878.822
869.898
869.503
874.251
908.216
985.152
1044.31
996.695
903.556
847.707
824.214
805.655
761.215
677.278
603.037
543.524
489.056
418.955
347.443
271.193
177.207
223.151
339.639
444.857
555.864
664.413
740.489
805.445
862.407
883.873
886.963
885.076
880.707
874.594
879.931
905.323
923.97
888.968
839.264
822.936
818.185
807.67
775.02
722.076
677.372
636.353
573.708
491.659
407.433
321.709
203.725
271.531
411.864
538.674
674.221
800.241
891.59
944.7
971.354
989.327
1001.67
1002.31
992.715
974.142
958.807
960.722
960.731
929.462
895.143
890.347
894.835
895.235
879.202
846.8
804.108
745.918
673.539
582.342
483.075
384.853
255.68
354.366
507.918
666.614
829.39
961.285
1057.67
1120.74
1152.31
1172.05
1186.13
1190.64
1184.4
1168.16
1146.76
1127.53
1108.89
1084.49
1070.06
1074.48
1082.18
1085.17
1073.53
1041.11
982.377
901.332
811.44
708.527
588.32
469.471
329.151
467.026
643.055
841.163
1019.53
1138.42
1216.91
1263.1
1288.48
1303.95
1313.92
1318.96
1318.93
1314.71
1306.91
1296.73
1285.86
1277.05
1274.93
1278.32
1281.51
1281.42
1273.26
1251.58
1205.67
1124.57
1009.99
885.781
739.428
588.281
427.035
617.09
825.967
1048.04
1198.62
1271.81
1312.01
1334.99
1349
1357.84
1363.37
1366.6
1368.11
1368.46
1368.01
1366.99
1365.78
1365.23
1365.8
1366.85
1367.42
1366.65
1363.3
1355.52
1339.28
1305.17
1232.95
1109.86
945.949
755.072
563.447
810.49
1037.88
1223.47
1300.29
1333.55
1352.97
1364.68
1371.75
1375.86
1378
1378.96
1379.35
1379.52
1379.71
1379.76
1379.75
1379.76
1379.75
1379.76
1379.75
1379.75
1379.73
1379.7
1377.82
1369.28
1346.86
1290.32
1172.43
969.826
750.861
1023.2
1215.3
1311.06
1342.96
1360.66
1371.48
1377.58
1380.56
1381.43
1381.07
1380.13
1379.38
1378.95
1378.73
1378.81
1379
1379.03
1378.83
1378.36
1377.76
1377.12
1376.65
1376.11
1376.94
1376.89
1376.24
1361.34
1314.77
1183.75
974.184
1188.49
1304.75
1347.48
1365.14
1375.64
1381.53
1384.07
1384.17
1382.8
1380.84
1379.12
1377.71
1376.61
1375.79
1375.21
1374.58
1373.53
1371.73
1368.99
1365.43
1361.49
1358.27
1355.61
1358.13
1367.93
1376.08
1378.79
1367.43
1312.2
1170.38
1259.49
1339.11
1368.57
1379.85
1385.35
1387.65
1387.38
1385.2
1382.11
1379.05
1376.63
1374.94
1373.79
1372.87
1371.86
1370.43
1368.06
1364.09
1358.1
1350.36
1342.07
1335.08
1332.86
1332.85
1338.62
1363.14
1378.84
1383.8
1361.14
1277.47
1285
1358.35
1383.27
1389.93
1391.56
1390.86
1387.92
1383.58
1378.49
1374.51
1372.38
1371.53
1371.24
1370.98
1370.39
1369.1
1366.29
1361.11
1353.25
1343.69
1335.67
1332.84
1332.81
1332.77
1332.75
1339.44
1371.83
1386.24
1379.73
1325.36
1310.14
1373.62
1393.33
1396.12
1394.69
1390.94
1385.09
1376.72
1369.21
1366.12
1366.13
1367.48
1368.93
1369.92
1370.3
1369.58
1367.09
1361.94
1353.87
1344.43
1338.05
1336.61
1336.05
1334.5
1332.7