/*--------------------------------*- C++ -*----------------------------------*\
| =========                 |                                                 |
| \\      /  F ield         | OpenFOAM: The Open Source CFD Toolbox           |
|  \\    /   O peration     | Version:  2.3.0                                 |
|   \\  /    A nd           | Web:      www.OpenFOAM.org                      |
|    \\/     M anipulation  |                                                 |
\*---------------------------------------------------------------------------*/
FoamFile
{
    version     2.0;
    format      ascii;
    class       volVectorField;
    location    "0.53";
    object      U.air;
}
// * * * * * * * * * * * * * * * * * * * * * * * * * * * * * * * * * * * * * //

dimensions      [0 1 -1 0 0 0 0];

internalField   nonuniform List<vector> 
6000
(
(-0.0302506 0.233345 0)
(-0.0741832 0.243353 0)
(-0.101204 0.175123 0)
(-0.0876195 0.143726 0)
(-0.0554084 0.134137 0)
(-0.0213792 0.131613 0)
(0.0544868 0.13492 0)
(0.145691 0.154345 0)
(0.159963 0.138904 0)
(0.119892 0.169648 0)
(0.0149929 0.285727 0)
(-0.121393 0.210352 0)
(-0.161985 0.10769 0)
(-0.10889 0.104439 0)
(-0.0230865 0.13572 0)
(0.0623856 0.0847615 0)
(0.0864643 0.0924536 0)
(0.00879067 0.256015 0)
(-0.122015 0.248022 0)
(-0.18906 0.155407 0)
(-0.197707 0.123931 0)
(-0.15269 0.139147 0)
(-0.0683969 0.127512 0)
(-0.026967 0.11935 0)
(-0.0314189 0.122578 0)
(-0.0251977 0.132897 0)
(0.00716475 0.135087 0)
(0.0422745 0.159629 0)
(0.0450325 0.225637 0)
(0.023239 0.240403 0)
(0.0306469 0.905963 0)
(0.108699 0.903329 0)
(0.147146 0.908742 0)
(0.129652 0.95084 0)
(0.101706 0.942542 0)
(0.108284 0.946348 0)
(0.112588 0.900036 0)
(0.0802624 0.954378 0)
(0.0202782 1.06564 0)
(-0.0401142 1.0585 0)
(-0.0406236 1.0642 0)
(-0.0198216 1.08414 0)
(-0.0691985 1.01978 0)
(-0.0963015 0.921885 0)
(-0.0226128 0.895404 0)
(0.0014851 0.967076 0)
(-0.0675319 1.07009 0)
(-0.0908274 1.06699 0)
(-0.05115 1.03396 0)
(-0.0663202 1.01856 0)
(-0.108957 1.0129 0)
(-0.148871 0.920861 0)
(-0.163261 0.922879 0)
(-0.16957 0.990352 0)
(-0.167841 0.988365 0)
(-0.18801 0.946389 0)
(-0.203431 0.914722 0)
(-0.191505 0.871726 0)
(-0.128689 0.844518 0)
(-0.03727 0.868348 0)
(0.0326323 0.681328 0)
(0.108423 0.67799 0)
(0.174815 0.728855 0)
(0.175452 0.786044 0)
(0.16955 0.738432 0)
(0.184398 0.717524 0)
(0.159899 0.737738 0)
(0.0650426 0.844329 0)
(0.0107875 0.8642 0)
(-0.011507 0.874663 0)
(-0.0156933 0.909516 0)
(-0.015711 0.902646 0)
(-0.030524 0.873135 0)
(-0.0766873 0.688887 0)
(-0.0525239 0.617375 0)
(-0.0519989 0.804379 0)
(-0.10129 0.884788 0)
(-0.101264 0.887241 0)
(-0.0924209 0.860214 0)
(-0.09766 0.828339 0)
(-0.117209 0.791984 0)
(-0.176535 0.774189 0)
(-0.23733 0.712291 0)
(-0.241004 0.741956 0)
(-0.215458 0.760646 0)
(-0.222233 0.759319 0)
(-0.226206 0.733981 0)
(-0.193784 0.669391 0)
(-0.0960322 0.627774 0)
(-0.0111609 0.662339 0)
(0.0239521 0.675378 0)
(0.0599957 0.5882 0)
(0.162576 0.678178 0)
(0.227617 0.760758 0)
(0.249826 0.74498 0)
(0.244507 0.720214 0)
(0.198355 0.825349 0)
(0.11508 0.905725 0)
(0.0660894 0.918367 0)
(0.0237616 0.922157 0)
(-0.0147936 0.92023 0)
(-0.0444179 0.912916 0)
(-0.0574032 0.881927 0)
(-0.0853758 0.753309 0)
(-0.0802061 0.586777 0)
(-0.0652384 0.840762 0)
(-0.076165 0.892039 0)
(-0.0888618 0.886627 0)
(-0.113628 0.887124 0)
(-0.141231 0.868731 0)
(-0.182011 0.867874 0)
(-0.240521 0.85119 0)
(-0.288343 0.760394 0)
(-0.285313 0.739035 0)
(-0.254652 0.761776 0)
(-0.23695 0.752296 0)
(-0.2141 0.703614 0)
(-0.127571 0.579241 0)
(-0.0348622 0.494735 0)
(-0.0142884 0.697543 0)
(0.0285678 0.643755 0)
(0.0439158 0.491908 0)
(0.0978144 0.598846 0)
(0.194435 0.703497 0)
(0.255617 0.725453 0)
(0.256153 0.74821 0)
(0.219608 0.881864 0)
(0.153604 0.955562 0)
(0.0856854 0.942636 0)
(0.0144469 0.941931 0)
(-0.0567359 0.948239 0)
(-0.134991 0.922284 0)
(-0.180547 0.871111 0)
(-0.150011 0.723402 0)
(-0.0733017 0.536128 0)
(-0.00478319 0.800856 0)
(0.0176497 0.88416 0)
(-0.0349496 0.892715 0)
(-0.0900112 0.885342 0)
(-0.14025 0.878987 0)
(-0.19411 0.878475 0)
(-0.237804 0.878533 0)
(-0.232848 0.748899 0)
(-0.210348 0.706475 0)
(-0.183957 0.731457 0)
(-0.157706 0.72687 0)
(-0.102587 0.662395 0)
(-0.0732257 0.532482 0)
(-0.0462985 0.469774 0)
(-0.0469242 0.667352 0)
(0.0473739 0.622585 0)
(0.0331883 0.518669 0)
(0.0424338 0.593111 0)
(0.0740637 0.677224 0)
(0.108502 0.706373 0)
(0.134622 0.744423 0)
(0.165174 0.887277 0)
(0.153848 1.00269 0)
(0.076369 1.00814 0)
(-0.0312405 1.02411 0)
(-0.147723 1.02213 0)
(-0.268402 1.00638 0)
(-0.306651 0.87646 0)
(-0.184807 0.595645 0)
(-0.0623423 0.445252 0)
(0.0621983 0.70355 0)
(0.132435 0.916278 0)
(0.062665 0.948734 0)
(-0.0245066 0.936149 0)
(-0.100685 0.919517 0)
(-0.153162 0.923404 0)
(-0.141642 0.847278 0)
(-0.0754973 0.708172 0)
(-0.0434978 0.68762 0)
(-0.0277128 0.726319 0)
(-0.00449626 0.735522 0)
(0.00631351 0.685933 0)
(0.00655182 0.596874 0)
(-0.0424419 0.539401 0)
(-0.0660687 0.642581 0)
(0.0486141 0.608262 0)
(0.0253324 0.580436 0)
(-0.0157689 0.657767 0)
(-0.0273268 0.735548 0)
(-0.0256556 0.76191 0)
(-0.0177446 0.780097 0)
(0.00842183 0.85953 0)
(0.0634881 1.02534 0)
(0.0408765 1.0854 0)
(-0.0686329 1.10683 0)
(-0.210533 1.12043 0)
(-0.338731 1.0823 0)
(-0.291358 0.756079 0)
(-0.14675 0.440818 0)
(-0.0619739 0.364797 0)
(0.0349476 0.534278 0)
(0.144577 0.89615 0)
(0.111255 1.01209 0)
(0.00659652 0.98602 0)
(-0.0569352 0.962298 0)
(-0.0425232 0.915998 0)
(0.0468166 0.77848 0)
(0.0999023 0.715817 0)
(0.0942027 0.738173 0)
(0.0854043 0.782921 0)
(0.091169 0.792491 0)
(0.0935926 0.747247 0)
(0.0568331 0.675265 0)
(-0.00843605 0.62245 0)
(-0.0309659 0.63821 0)
(0.0166191 0.592841 0)
(-0.000595814 0.633819 0)
(-0.040868 0.713498 0)
(-0.0768625 0.791959 0)
(-0.113224 0.836183 0)
(-0.151287 0.85964 0)
(-0.145923 0.898397 0)
(-0.106957 1.00499 0)
(-0.065513 1.1338 0)
(-0.098969 1.22196 0)
(-0.19938 1.23109 0)
(-0.260091 1.13177 0)
(-0.178959 0.615209 0)
(-0.0858239 0.393493 0)
(-0.0738324 0.360638 0)
(-0.0489946 0.462356 0)
(0.0315493 0.831595 0)
(0.060234 1.0839 0)
(0.0120172 1.04782 0)
(0.056469 0.942143 0)
(0.166732 0.840855 0)
(0.234135 0.779356 0)
(0.224168 0.780959 0)
(0.176691 0.810217 0)
(0.146954 0.837716 0)
(0.138209 0.835839 0)
(0.123319 0.799031 0)
(0.0819008 0.747844 0)
(0.0283106 0.695109 0)
(-0.00279695 0.645596 0)
(0.00201675 0.601242 0)
(-0.0166521 0.684025 0)
(-0.0534414 0.767919 0)
(-0.0971733 0.84457 0)
(-0.148812 0.903444 0)
(-0.213018 0.944693 0)
(-0.275981 0.98406 0)
(-0.272215 1.05343 0)
(-0.233094 1.1599 0)
(-0.210661 1.28002 0)
(-0.203579 1.3018 0)
(-0.125545 1.13217 0)
(-0.0757776 0.535172 0)
(-0.0528509 0.400648 0)
(-0.0840862 0.389236 0)
(-0.111813 0.457032 0)
(-0.0910432 0.773764 0)
(-0.0160861 1.09933 0)
(0.111098 0.989229 0)
(0.259029 0.860358 0)
(0.339401 0.845044 0)
(0.33857 0.853819 0)
(0.272733 0.872759 0)
(0.209123 0.880694 0)
(0.170932 0.876902 0)
(0.155155 0.862271 0)
(0.141482 0.839742 0)
(0.106818 0.818112 0)
(0.0464285 0.779618 0)
(0.00634574 0.68159 0)
(0.0010258 0.633445 0)
(-0.0185719 0.746745 0)
(-0.0597929 0.826773 0)
(-0.10149 0.896193 0)
(-0.152048 0.964438 0)
(-0.216692 1.01944 0)
(-0.289497 1.07002 0)
(-0.348134 1.13341 0)
(-0.351792 1.23944 0)
(-0.344816 1.36814 0)
(-0.298896 1.27717 0)
(-0.0987204 1.05637 0)
(-0.0401371 0.5372 0)
(-0.0600032 0.429317 0)
(-0.0907324 0.425414 0)
(-0.131315 0.497836 0)
(-0.146435 0.746251 0)
(0.023509 0.963705 0)
(0.278123 0.859546 0)
(0.400619 0.855952 0)
(0.418616 0.910462 0)
(0.355757 0.956115 0)
(0.265437 0.970792 0)
(0.191924 0.950564 0)
(0.157812 0.907995 0)
(0.159096 0.875222 0)
(0.172066 0.856542 0)
(0.165135 0.849284 0)
(0.0615972 0.88901 0)
(-0.00407742 0.718119 0)
(0.00483532 0.670939 0)
(-0.0252171 0.811845 0)
(-0.0944294 0.850712 0)
(-0.117088 0.904917 0)
(-0.139647 0.989635 0)
(-0.187552 1.06023 0)
(-0.244419 1.12045 0)
(-0.291907 1.18303 0)
(-0.355293 1.35224 0)
(-0.492933 1.51793 0)
(-0.454897 1.2333 0)
(-0.239455 0.909277 0)
(-0.108706 0.542463 0)
(-0.100767 0.437115 0)
(-0.0985015 0.441433 0)
(-0.110433 0.527149 0)
(-0.0780238 0.675813 0)
(0.156552 0.765407 0)
(0.361067 0.786068 0)
(0.445762 0.876586 0)
(0.426099 0.971116 0)
(0.342785 1.0406 0)
(0.22349 1.05446 0)
(0.1243 0.984912 0)
(0.106176 0.883872 0)
(0.151134 0.835221 0)
(0.162184 0.858965 0)
(0.170327 0.986241 0)
(0.070432 1.04909 0)
(0.0375543 0.830284 0)
(-0.0470725 0.820799 0)
(-0.0573228 0.988298 0)
(-0.131673 0.988773 0)
(-0.125757 0.996423 0)
(-0.116284 1.07365 0)
(-0.139207 1.13216 0)
(-0.172906 1.17676 0)
(-0.182648 1.22235 0)
(-0.252009 1.39903 0)
(-0.508167 1.55459 0)
(-0.586689 1.11826 0)
(-0.424882 0.708757 0)
(-0.235572 0.482458 0)
(-0.156867 0.400114 0)
(-0.105987 0.418116 0)
(-0.0625631 0.493926 0)
(0.0615598 0.543876 0)
(0.237874 0.603105 0)
(0.392682 0.707596 0)
(0.437205 0.879957 0)
(0.372891 1.07358 0)
(0.25548 1.14295 0)
(0.120233 1.13983 0)
(0.0190474 1.06718 0)
(0.017943 0.947867 0)
(0.0695171 0.908175 0)
(0.0729871 0.882957 0)
(-0.0261719 0.827045 0)
(-0.108159 1.03123 0)
(-0.0317827 0.664471 0)
(0.0708749 0.676129 0)
(0.164111 0.894058 0)
(0.122323 0.854418 0)
(0.0723016 0.839823 0)
(0.024878 0.985075 0)
(-0.0186603 1.09617 0)
(-0.0634593 1.13743 0)
(-0.101266 1.18106 0)
(-0.18262 1.49607 0)
(-0.321013 1.74499 0)
(-0.46458 1.01474 0)
(-0.496174 0.483652 0)
(-0.313177 0.361808 0)
(-0.195611 0.319021 0)
(-0.105456 0.355445 0)
(-0.00524532 0.404088 0)
(0.131095 0.406334 0)
(0.281405 0.46243 0)
(0.401175 0.599425 0)
(0.392063 0.921741 0)
(0.176964 1.08037 0)
(-0.0125986 1.18271 0)
(-0.163739 1.2587 0)
(-0.289943 1.07909 0)
(-0.349424 0.820003 0)
(-0.393994 0.780508 0)
(-0.410084 0.927097 0)
(-0.422115 1.02203 0)
(-0.31604 0.972582 0)
(-0.0618576 0.570763 0)
(0.0829532 0.53715 0)
(0.249747 0.928273 0)
(0.251855 1.00778 0)
(0.161363 1.02812 0)
(0.0768583 1.1035 0)
(0.0333475 1.13678 0)
(0.000653752 1.202 0)
(-0.0427701 1.24939 0)
(-0.0754264 1.47578 0)
(0.00774405 1.614 0)
(-0.144207 1.22953 0)
(-0.370303 0.356081 0)
(-0.311994 0.230788 0)
(-0.196463 0.21477 0)
(-0.0902671 0.258843 0)
(0.0238001 0.293586 0)
(0.157071 0.276419 0)
(0.282933 0.337484 0)
(0.337691 0.561493 0)
(0.104015 1.07707 0)
(-0.156329 1.37617 0)
(-0.331744 1.3072 0)
(-0.39548 1.27903 0)
(-0.45912 1.13572 0)
(-0.604513 1.01171 0)
(-0.721065 0.902366 0)
(-0.704974 0.851085 0)
(-0.55684 0.798683 0)
(-0.307732 0.645839 0)
(-0.05516 0.273573 0)
(0.0557701 0.276857 0)
(0.227799 0.725004 0)
(0.271473 0.931336 0)
(0.206381 1.00016 0)
(0.153141 1.05508 0)
(0.103479 1.12088 0)
(0.0707301 1.1464 0)
(0.0501465 1.2253 0)
(0.0629339 1.32173 0)
(0.175943 1.46682 0)
(0.209208 1.32583 0)
(-0.129732 0.495406 0)
(-0.276811 0.1192 0)
(-0.171625 0.105415 0)
(-0.0645785 0.17287 0)
(0.0236322 0.191602 0)
(0.157189 0.157716 0)
(0.247022 0.259604 0)
(0.0231376 0.716543 0)
(-0.264998 1.30082 0)
(-0.361589 1.33204 0)
(-0.416967 1.32062 0)
(-0.472641 1.26714 0)
(-0.585508 1.21609 0)
(-0.74756 1.05863 0)
(-0.823507 0.870937 0)
(-0.69616 0.67463 0)
(-0.428147 0.51815 0)
(-0.158292 0.394514 0)
(-0.007522 0.162654 0)
(0.0250127 0.158152 0)
(0.167874 0.575321 0)
(0.277936 0.937683 0)
(0.255358 1.027 0)
(0.217991 1.10581 0)
(0.169228 1.12759 0)
(0.138644 1.18827 0)
(0.129097 1.21359 0)
(0.145648 1.29614 0)
(0.222908 1.33918 0)
(0.336718 1.3167 0)
(0.123207 0.929613 0)
(-0.135133 0.100742 0)
(-0.122187 0.0265147 0)
(-0.0334279 0.098042 0)
(0.0213616 0.0970115 0)
(0.143496 0.0514005 0)
(0.110927 0.343417 0)
(-0.175637 1.08771 0)
(-0.358593 1.29912 0)
(-0.366389 1.3638 0)
(-0.410487 1.34723 0)
(-0.488825 1.37524 0)
(-0.622739 1.32638 0)
(-0.803788 1.22006 0)
(-0.746503 0.743972 0)
(-0.471496 0.395867 0)
(-0.207377 0.263281 0)
(-0.0344812 0.250424 0)
(0.0250812 0.162291 0)
(0.000457192 0.0997759 0)
(0.0982569 0.44028 0)
(0.260697 0.854904 0)
(0.301871 1.06214 0)
(0.264464 1.11847 0)
(0.222057 1.17687 0)
(0.193156 1.18222 0)
(0.183767 1.23312 0)
(0.192445 1.24355 0)
(0.232661 1.28816 0)
(0.293014 1.24262 0)
(0.224791 1.11456 0)
(0.0142192 0.271297 0)
(-0.089921 -0.0147797 0)
(-0.0154891 0.0539812 0)
(-0.0010357 0.0484147 0)
(0.0589908 -0.00969442 0)
(-0.0322189 0.559133 0)
(-0.210765 1.20021 0)
(-0.286355 1.31437 0)
(-0.299956 1.35755 0)
(-0.349419 1.41226 0)
(-0.423853 1.42757 0)
(-0.562295 1.48493 0)
(-0.668805 1.27874 0)
(-0.477104 0.470264 0)
(-0.224752 0.170576 0)
(-0.0633427 0.139886 0)
(0.00692449 0.20199 0)
(0.019511 0.195239 0)
(-0.011731 0.0750038 0)
(0.0531743 0.321352 0)
(0.213341 0.675275 0)
(0.31997 1.07836 0)
(0.284825 1.15774 0)
(0.252855 1.17227 0)
(0.229016 1.20938 0)
(0.216873 1.20544 0)
(0.218905 1.24362 0)
(0.23418 1.2331 0)
(0.256311 1.23864 0)
(0.234567 1.18106 0)
(0.0828143 0.48408 0)
(-0.0353541 -0.0286567 0)
(-0.00266084 0.0353982 0)
(-0.0150404 0.0461346 0)
(-0.0248564 0.0073705 0)
(-0.0575483 0.659395 0)
(-0.105913 1.27037 0)
(-0.179326 1.32098 0)
(-0.204761 1.38786 0)
(-0.240676 1.42797 0)
(-0.301112 1.5187 0)
(-0.381105 1.54987 0)
(-0.382952 1.20406 0)
(-0.210365 0.258541 0)
(-0.0781712 0.0601198 0)
(0.000659178 0.0995753 0)
(0.00503103 0.213748 0)
(0.000809229 0.216923 0)
(-0.0142688 0.0668447 0)
(0.030176 0.238041 0)
(0.150258 0.489115 0)
(0.293589 1.07937 0)
(0.281132 1.15352 0)
(0.267718 1.2059 0)
(0.246583 1.19997 0)
(0.238078 1.22873 0)
(0.234968 1.21363 0)
(0.236108 1.23895 0)
(0.23051 1.22558 0)
(0.204584 1.23947 0)
(0.122986 0.637064 0)
(0.0206557 0.00315565 0)
(0.0107633 0.050711 0)
(-0.0259095 0.0650357 0)
(-0.0172018 0.0504207 0)
(-0.0197138 0.629965 0)
(0.024713 1.33252 0)
(-0.067054 1.36835 0)
(-0.104062 1.38565 0)
(-0.121507 1.45776 0)
(-0.136025 1.50722 0)
(-0.138919 1.56734 0)
(-0.0448546 1.08672 0)
(0.00736851 0.173047 0)
(-0.0168484 0.0254808 0)
(0.026293 0.0881809 0)
(-0.0201484 0.267136 0)
(-0.0340924 0.202242 0)
(-0.0142582 0.0663085 0)
(0.0143521 0.181693 0)
(0.0823636 0.341359 0)
(0.238388 0.989883 0)
(0.281035 1.16415 0)
(0.271016 1.18467 0)
(0.254898 1.21765 0)
(0.247787 1.19416 0)
(0.242921 1.22133 0)
(0.23476 1.21877 0)
(0.211068 1.26136 0)
(0.179756 1.26485 0)
(0.119719 0.723249 0)
(0.0298051 0.0623247 0)
(0.0214805 0.070563 0)
(-0.0137227 0.0740199 0)
(-0.0193435 0.0731281 0)
(0.0120094 0.542352 0)
(0.0907507 1.37561 0)
(0.0260794 1.40821 0)
(-0.00653083 1.40818 0)
(-0.0206854 1.41273 0)
(0.00566121 1.48064 0)
(0.0979838 1.49157 0)
(0.226676 0.940325 0)
(0.188634 0.245167 0)
(0.0470422 0.0237325 0)
(-0.00537057 0.0510895 0)
(-0.0607335 0.302282 0)
(-0.0227956 0.119996 0)
(-0.0159516 0.0712749 0)
(-0.00426961 0.151506 0)
(0.0257594 0.236551 0)
(0.168514 0.840672 0)
(0.264619 1.14027 0)
(0.259773 1.17906 0)
(0.261021 1.18584 0)
(0.253957 1.21128 0)
(0.24355 1.19873 0)
(0.238594 1.23629 0)
(0.214147 1.25696 0)
(0.186701 1.30906 0)
(0.117508 0.802383 0)
(0.0293191 0.107372 0)
(0.0307514 0.088097 0)
(0.00515016 0.0884307 0)
(-0.00865712 0.105234 0)
(0.0176597 0.458736 0)
(0.108367 1.37664 0)
(0.0903786 1.44274 0)
(0.0607943 1.40229 0)
(0.0631576 1.39936 0)
(0.0813124 1.37916 0)
(0.241717 1.34804 0)
(0.335992 0.84575 0)
(0.292563 0.387668 0)
(0.110646 0.151049 0)
(-0.0250168 0.0890602 0)
(-0.076782 0.299368 0)
(0.00631241 0.0534767 0)
(-0.0211152 0.0817763 0)
(-0.0218285 0.139258 0)
(-0.019894 0.16986 0)
(0.102 0.668881 0)
(0.237395 1.10286 0)
(0.249618 1.15536 0)
(0.264666 1.18279 0)
(0.261849 1.17796 0)
(0.253034 1.20846 0)
(0.24809 1.21792 0)
(0.219259 1.27286 0)
(0.199895 1.32032 0)
(0.128818 0.890839 0)
(0.0374775 0.153249 0)
(0.0375136 0.0985978 0)
(0.020807 0.0982748 0)
(0.00667146 0.129231 0)
(0.0234258 0.396185 0)
(0.104548 1.33449 0)
(0.142413 1.4459 0)
(0.101359 1.4024 0)
(0.0947831 1.34161 0)
(0.115216 1.31568 0)
(0.236918 1.19154 0)
(0.276002 0.789814 0)
(0.22866 0.489332 0)
(0.089491 0.282754 0)
(-0.0144496 0.156915 0)
(-0.0380789 0.239215 0)
(0.029558 0.0106825 0)
(-0.03014 0.0971916 0)
(-0.0380889 0.141133 0)
(-0.0581162 0.130772 0)
(0.034413 0.485851 0)
(0.217517 1.02342 0)
(0.277315 1.12798 0)
(0.275153 1.15377 0)
(0.273681 1.17727 0)
(0.272744 1.17578 0)
(0.264127 1.22702 0)
(0.216758 1.27686 0)
(0.181992 1.35615 0)
(0.142138 0.963452 0)
(0.0789183 0.207422 0)
(0.0561581 0.110679 0)
(0.0342297 0.123498 0)
(-0.00353446 0.161326 0)
(-0.0161328 0.382203 0)
(0.0648002 1.23632 0)
(0.197221 1.45766 0)
(0.152316 1.41336 0)
(0.0966223 1.33086 0)
(0.0921311 1.23448 0)
(0.154868 1.10792 0)
(0.131028 0.772952 0)
(0.0934329 0.566005 0)
(0.0266855 0.333937 0)
(0.0183035 0.191797 0)
(0.0225282 0.159829 0)
(0.0435057 0.0192983 0)
(-0.0456135 0.130264 0)
(-0.052318 0.151795 0)
(-0.0891002 0.118898 0)
(-0.0369716 0.317106 0)
(0.185781 0.867829 0)
(0.310313 1.09176 0)
(0.299752 1.14285 0)
(0.283446 1.14451 0)
(0.277563 1.17948 0)
(0.245433 1.23181 0)
(0.194246 1.3192 0)
(0.168649 1.34621 0)
(0.169769 0.990293 0)
(0.137651 0.266426 0)
(0.104763 0.144769 0)
(0.0564477 0.206363 0)
(-0.0488581 0.261809 0)
(-0.146717 0.431599 0)
(-0.0516519 1.05225 0)
(0.187434 1.42058 0)
(0.216706 1.46383 0)
(0.116083 1.3656 0)
(0.0504205 1.22092 0)
(0.0591174 1.07426 0)
(0.0194379 0.778082 0)
(0.0169099 0.600125 0)
(0.0124183 0.290122 0)
(0.0587808 0.161282 0)
(0.0527518 0.145674 0)
(0.0496855 0.060475 0)
(-0.03764 0.174163 0)
(-0.0549786 0.174083 0)
(-0.10229 0.13418 0)
(-0.0968776 0.206181 0)
(0.0929732 0.588878 0)
(0.311615 1.05456 0)
(0.323305 1.12922 0)
(0.285148 1.1526 0)
(0.25777 1.17714 0)
(0.224216 1.25653 0)
(0.191171 1.3199 0)
(0.186626 1.33262 0)
(0.239435 0.954153 0)
(0.272575 0.314055 0)
(0.226079 0.194291 0)
(0.130057 0.338845 0)
(-0.0983903 0.437987 0)
(-0.257769 0.521508 0)
(-0.210493 0.844093 0)
(0.0404362 1.25825 0)
(0.201199 1.48126 0)
(0.138406 1.45081 0)
(0.0201089 1.26273 0)
(-0.00531906 1.06525 0)
(-0.0166436 0.781317 0)
(0.0299513 0.589468 0)
(0.0505676 0.251892 0)
(0.0775783 0.157444 0)
(0.0633271 0.142256 0)
(0.0481714 0.109807 0)
(-0.0249964 0.2084 0)
(-0.0509414 0.199768 0)
(-0.0924504 0.169803 0)
(-0.117606 0.170793 0)
(-0.0213249 0.343403 0)
(0.220365 0.930064 0)
(0.33277 1.147 0)
(0.275981 1.15749 0)
(0.242675 1.1787 0)
(0.223049 1.24265 0)
(0.213157 1.31536 0)
(0.236397 1.29404 0)
(0.327535 0.85096 0)
(0.390713 0.332608 0)
(0.336709 0.281259 0)
(0.198719 0.542147 0)
(-0.0368619 0.679947 0)
(-0.225801 0.624797 0)
(-0.293351 0.760742 0)
(-0.160601 1.05094 0)
(0.0388019 1.40854 0)
(0.0658625 1.51951 0)
(-0.0295251 1.33762 0)
(-0.0300121 1.04785 0)
(0.00909648 0.757871 0)
(0.0843458 0.554164 0)
(0.0980339 0.24547 0)
(0.0991746 0.155847 0)
(0.0673954 0.159482 0)
(0.038719 0.158738 0)
(-0.0194259 0.236525 0)
(-0.0523085 0.225368 0)
(-0.0906341 0.205803 0)
(-0.127278 0.188386 0)
(-0.116947 0.233913 0)
(0.0525385 0.663212 0)
(0.27089 1.12165 0)
(0.260323 1.17675 0)
(0.229738 1.17352 0)
(0.229915 1.21843 0)
(0.243694 1.26915 0)
(0.305104 1.2382 0)
(0.409235 0.755056 0)
(0.454663 0.358305 0)
(0.371654 0.39467 0)
(0.231984 0.714273 0)
(0.0522256 0.817185 0)
(-0.12536 0.811848 0)
(-0.26841 0.801338 0)
(-0.299797 0.961486 0)
(-0.217908 1.31705 0)
(-0.137009 1.5364 0)
(-0.116589 1.38679 0)
(0.0172682 0.980833 0)
(0.101176 0.733858 0)
(0.144223 0.518038 0)
(0.133831 0.245461 0)
(0.114199 0.183323 0)
(0.0694819 0.190473 0)
(0.029641 0.199892 0)
(-0.018865 0.267593 0)
(-0.0572134 0.255426 0)
(-0.098375 0.240909 0)
(-0.141296 0.223678 0)
(-0.167877 0.225936 0)
(-0.0916933 0.444268 0)
(0.104185 1.02319 0)
(0.198958 1.1812 0)
(0.202976 1.16256 0)
(0.230685 1.16834 0)
(0.283369 1.22292 0)
(0.389098 1.14374 0)
(0.486397 0.686407 0)
(0.491918 0.421968 0)
(0.369063 0.525143 0)
(0.231935 0.853206 0)
(0.0913258 0.911656 0)
(-0.0385658 0.933376 0)
(-0.205 0.945984 0)
(-0.348953 1.02139 0)
(-0.432519 1.31696 0)
(-0.373409 1.48746 0)
(-0.177743 1.28393 0)
(0.0793999 0.786182 0)
(0.182415 0.757097 0)
(0.172688 0.5276 0)
(0.151396 0.275405 0)
(0.120683 0.224878 0)
(0.0728833 0.229981 0)
(0.0260638 0.24043 0)
(-0.0203832 0.303811 0)
(-0.0637938 0.292554 0)
(-0.109599 0.281302 0)
(-0.158424 0.268535 0)
(-0.197789 0.263178 0)
(-0.199295 0.386543 0)
(-0.104169 0.864911 0)
(0.0502486 1.15435 0)
(0.124016 1.12029 0)
(0.208403 1.1159 0)
(0.331589 1.14635 0)
(0.483573 1.04012 0)
(0.543526 0.683124 0)
(0.470495 0.512027 0)
(0.339738 0.680463 0)
(0.210754 0.955866 0)
(0.105791 0.990643 0)
(0.000157418 1.03317 0)
(-0.144386 1.08412 0)
(-0.326427 1.1995 0)
(-0.491885 1.40164 0)
(-0.446766 1.40021 0)
(-0.141472 1.00407 0)
(0.0481768 0.642058 0)
(0.176849 0.789923 0)
(0.166681 0.531311 0)
(0.158955 0.310707 0)
(0.126952 0.271843 0)
(0.0772031 0.275285 0)
(0.0258601 0.285739 0)
(-0.0221084 0.345341 0)
(-0.0702706 0.336972 0)
(-0.121138 0.327363 0)
(-0.173937 0.319915 0)
(-0.224047 0.322086 0)
(-0.259846 0.422242 0)
(-0.250518 0.794169 0)
(-0.118185 1.07509 0)
(0.0257678 1.02042 0)
(0.161551 0.993573 0)
(0.338734 0.995948 0)
(0.499405 0.940735 0)
(0.547141 0.739193 0)
(0.437749 0.66903 0)
(0.281372 0.835388 0)
(0.178283 1.02611 0)
(0.121527 1.05431 0)
(0.0489857 1.11468 0)
(-0.0659634 1.2077 0)
(-0.205064 1.33054 0)
(-0.372711 1.51076 0)
(-0.334687 1.29903 0)
(-0.132784 0.7973 0)
(0.0167682 0.604865 0)
(0.114002 0.757879 0)
(0.165734 0.520083 0)
(0.168357 0.34812 0)
(0.134693 0.32164 0)
(0.0816176 0.325724 0)
(0.0268072 0.336135 0)
(-0.0222294 0.391557 0)
(-0.0750162 0.391508 0)
(-0.132448 0.378375 0)
(-0.185515 0.373723 0)
(-0.237658 0.389945 0)
(-0.28496 0.500973 0)
(-0.297778 0.784603 0)
(-0.160873 0.97169 0)
(0.0100825 0.907286 0)
(0.148073 0.877237 0)
(0.260492 0.907778 0)
(0.34712 0.901128 0)
(0.369951 0.818581 0)
(0.255053 0.782237 0)
(0.146501 0.952026 0)
(0.103125 1.04752 0)
(0.11121 1.07725 0)
(0.103256 1.17251 0)
(0.0422269 1.29576 0)
(-0.0562851 1.44566 0)
(-0.154044 1.5932 0)
(-0.164746 1.25968 0)
(-0.124306 0.660557 0)
(0.00614622 0.562266 0)
(0.0942689 0.664292 0)
(0.174723 0.496631 0)
(0.181527 0.388232 0)
(0.141192 0.373963 0)
(0.0848875 0.38033 0)
(0.0275234 0.39012 0)
(-0.0160348 0.437214 0)
(-0.0763716 0.467816 0)
(-0.148633 0.434384 0)
(-0.194879 0.423601 0)
(-0.235815 0.451007 0)
(-0.271557 0.565281 0)
(-0.246514 0.756141 0)
(-0.0924468 0.856324 0)
(0.0588783 0.848815 0)
(0.145897 0.881441 0)
(0.17547 0.942539 0)
(0.181257 0.940692 0)
(0.154435 0.889651 0)
(0.0967181 0.924883 0)
(-0.000794596 1.01647 0)
(0.0143607 1.03563 0)
(0.0454901 1.04686 0)
(0.0937788 1.15834 0)
(0.119628 1.33987 0)
(0.0915164 1.50037 0)
(0.0484926 1.62522 0)
(0.00677731 1.30766 0)
(-0.0621407 0.580703 0)
(0.0645606 0.503337 0)
(0.139448 0.578561 0)
(0.191706 0.482965 0)
(0.191878 0.4303 0)
(0.146273 0.427001 0)
(0.0866809 0.43981 0)
(0.0270744 0.446188 0)
(0.0102417 0.462612 0)
(-0.0701679 0.583648 0)
(-0.18424 0.489637 0)
(-0.210187 0.460363 0)
(-0.222754 0.487204 0)
(-0.220476 0.573147 0)
(-0.148622 0.682135 0)
(-0.0250652 0.762835 0)
(0.0662567 0.829143 0)
(0.0941952 0.91368 0)
(0.0690306 1.00249 0)
(0.0209236 1.00459 0)
(-0.0427499 0.968475 0)
(-0.0795489 1.02355 0)
(-0.0997418 1.06571 0)
(-0.0727943 1.04192 0)
(-0.0580688 1.0279 0)
(-0.0141578 1.10162 0)
(0.0687251 1.29438 0)
(0.135388 1.52257 0)
(0.129344 1.64135 0)
(0.156362 1.40587 0)
(0.092738 0.565318 0)
(0.156083 0.456286 0)
(0.205922 0.525542 0)
(0.221598 0.48827 0)
(0.204674 0.470448 0)
(0.158205 0.482529 0)
(0.0879737 0.51121 0)
(0.0227668 0.499462 0)
(0.024317 0.467283 0)
(-0.0598346 0.788987 0)
(-0.211093 0.545043 0)
(-0.239316 0.47238 0)
(-0.210055 0.482993 0)
(-0.16036 0.535325 0)
(-0.0853003 0.605576 0)
(-0.00699572 0.690716 0)
(0.0427571 0.812087 0)
(0.0269854 0.96123 0)
(-0.0370662 1.07269 0)
(-0.10153 1.07268 0)
(-0.154494 1.05403 0)
(-0.178155 1.07675 0)
(-0.162046 1.10783 0)
(-0.139577 1.07897 0)
(-0.144087 1.06303 0)
(-0.143658 1.09804 0)
(-0.0937537 1.22674 0)
(-0.00641817 1.49654 0)
(0.0376166 1.68271 0)
(0.203043 1.41652 0)
(0.279032 0.662019 0)
(0.270292 0.493305 0)
(0.262364 0.50781 0)
(0.257316 0.505221 0)
(0.231314 0.510066 0)
(0.185485 0.540705 0)
(0.0854746 0.604959 0)
(0.00768183 0.532475 0)
(0.0507879 0.428978 0)
(0.0147054 0.874228 0)
(-0.165116 0.625017 0)
(-0.233678 0.473335 0)
(-0.197368 0.436981 0)
(-0.119039 0.476233 0)
(-0.0437092 0.532584 0)
(0.0256425 0.659805 0)
(0.0597211 0.843222 0)
(-0.0424752 1.06465 0)
(-0.159009 1.12142 0)
(-0.18819 1.11638 0)
(-0.20883 1.10014 0)
(-0.20721 1.10567 0)
(-0.189019 1.11586 0)
(-0.175079 1.10959 0)
(-0.188076 1.1145 0)
(-0.21652 1.15367 0)
(-0.216207 1.25146 0)
(-0.184256 1.50361 0)
(-0.0993298 1.67192 0)
(0.116017 1.22864 0)
(0.313351 0.68999 0)
(0.300568 0.532448 0)
(0.290852 0.509988 0)
(0.284503 0.529175 0)
(0.269488 0.544055 0)
(0.216716 0.604939 0)
(0.0637821 0.837243 0)
(-0.0170024 0.519675 0)
(-0.00435278 0.358752 0)
(0.0713762 0.93757 0)
(0.0220308 0.753293 0)
(-0.122375 0.502263 0)
(-0.134501 0.412693 0)
(-0.0834864 0.414972 0)
(0.0373882 0.470037 0)
(0.144898 0.661764 0)
(0.0953696 0.978526 0)
(-0.145568 1.30637 0)
(-0.254745 1.15107 0)
(-0.245241 1.11343 0)
(-0.225035 1.10398 0)
(-0.204068 1.11785 0)
(-0.185772 1.12758 0)
(-0.178278 1.13317 0)
(-0.185976 1.15742 0)
(-0.206281 1.21247 0)
(-0.225845 1.31815 0)
(-0.196601 1.54564 0)
(-0.0294962 1.68195 0)
(0.138486 1.18144 0)
(0.233125 0.766381 0)
(0.259844 0.545195 0)
(0.293182 0.507763 0)
(0.296784 0.544883 0)
(0.258729 0.648441 0)
(0.217627 0.723199 0)
(0.0466922 0.863415 0)
(-0.0490242 0.57385 0)
(-0.00161385 0.329584 0)
(0.0945081 0.808224 0)
(0.157451 0.753656 0)
(0.136791 0.62668 0)
(0.00329124 0.400112 0)
(0.0337657 0.446954 0)
(0.209529 0.464382 0)
(0.336734 0.658743 0)
(0.353803 1.00406 0)
(0.0439721 1.40518 0)
(-0.181523 1.10696 0)
(-0.185774 1.16189 0)
(-0.170294 1.10953 0)
(-0.176205 1.12445 0)
(-0.167817 1.13854 0)
(-0.164835 1.15327 0)
(-0.162433 1.18146 0)
(-0.158836 1.23931 0)
(-0.155833 1.34437 0)
(-0.132448 1.53113 0)
(-0.00789181 1.66543 0)
(0.118468 1.19967 0)
(0.133582 0.802235 0)
(0.206917 0.567936 0)
(0.246891 0.500759 0)
(0.257341 0.601913 0)
(0.237259 0.560278 0)
(0.119557 0.739763 0)
(0.073449 1.00818 0)
(0.0891804 0.461525 0)
(-0.000710425 0.274468 0)
(0.075369 0.720546 0)
(0.176082 0.646122 0)
(0.322167 0.609552 0)
(0.422942 0.523792 0)
(0.500261 0.285749 0)
(0.642834 0.238606 0)
(0.698261 0.497913 0)
(0.578105 1.31402 0)
(0.378841 1.57686 0)
(0.233436 1.35624 0)
(0.0305722 1.07595 0)
(-0.0652321 1.09077 0)
(-0.0958914 1.13797 0)
(-0.11614 1.18225 0)
(-0.132889 1.21043 0)
(-0.1432 1.24526 0)
(-0.138011 1.28983 0)
(-0.121363 1.36928 0)
(-0.0860113 1.43769 0)
(-0.0763271 1.42842 0)
(-0.0555484 1.09037 0)
(-0.0178967 0.730918 0)
(0.131664 0.468266 0)
(0.256471 0.49275 0)
(0.198876 0.550462 0)
(0.0698658 0.73898 0)
(0.00610674 0.778112 0)
(0.0679628 0.825017 0)
(0.118958 0.675164 0)
(-0.030726 0.254108 0)
(0.0305 0.667083 0)
(0.15579 0.504419 0)
(0.322903 0.448455 0)
(0.510331 0.376043 0)
(0.641448 0.257291 0)
(0.716031 0.207428 0)
(0.693139 0.623056 0)
(0.569383 1.29209 0)
(0.496956 1.46488 0)
(0.487955 1.4113 0)
(0.389488 1.36066 0)
(0.223857 1.29274 0)
(0.0812734 1.22115 0)
(-0.0146369 1.18962 0)
(-0.0790109 1.17739 0)
(-0.123371 1.17232 0)
(-0.152619 1.19306 0)
(-0.172264 1.26313 0)
(-0.183769 1.38501 0)
(-0.226013 1.48949 0)
(-0.32681 1.12457 0)
(-0.281563 0.615456 0)
(-0.0657878 0.314809 0)
(0.0389077 0.49862 0)
(-0.0285447 0.664038 0)
(-0.0462271 0.671507 0)
(-0.0202139 0.708481 0)
(-0.00168562 0.697988 0)
(0.0671928 0.699117 0)
(-0.0406753 0.285446 0)
(0.0105399 0.568248 0)
(0.14177 0.368753 0)
(0.261932 0.326506 0)
(0.379295 0.233224 0)
(0.461129 0.146506 0)
(0.533402 0.0660776 0)
(0.566949 0.612119 0)
(0.518737 1.35265 0)
(0.434043 1.41688 0)
(0.415317 1.40152 0)
(0.361486 1.32338 0)
(0.287805 1.29829 0)
(0.195763 1.26147 0)
(0.0978994 1.27227 0)
(-9.83714e-05 1.26643 0)
(-0.0959126 1.28866 0)
(-0.187184 1.29652 0)
(-0.265436 1.33657 0)
(-0.307523 1.35181 0)
(-0.312877 1.3706 0)
(-0.360032 1.16055 0)
(-0.285188 0.392095 0)
(-0.164796 0.113271 0)
(-0.110191 0.482274 0)
(-0.109671 0.604412 0)
(-0.0877494 0.633752 0)
(-0.0577987 0.653981 0)
(-0.0646194 0.655415 0)
(0.0352952 0.687467 0)
(-0.00854175 0.308594 0)
(0.0460004 0.498715 0)
(0.13994 0.269532 0)
(0.210831 0.275235 0)
(0.24921 0.166996 0)
(0.293476 0.0998152 0)
(0.377129 -0.044198 0)
(0.418247 0.605143 0)
(0.39635 1.38209 0)
(0.339278 1.45398 0)
(0.307457 1.40484 0)
(0.274826 1.38066 0)
(0.220772 1.32482 0)
(0.155882 1.30337 0)
(0.0782025 1.2669 0)
(-0.00225461 1.26315 0)
(-0.0843032 1.2459 0)
(-0.164152 1.26572 0)
(-0.23119 1.27086 0)
(-0.278854 1.30221 0)
(-0.298185 1.2762 0)
(-0.320144 1.08961 0)
(-0.251319 0.241188 0)
(-0.212169 0.0228048 0)
(-0.182979 0.439285 0)
(-0.151564 0.573233 0)
(-0.13165 0.590774 0)
(-0.103612 0.615175 0)
(-0.117806 0.607101 0)
(0.0127026 0.626313 0)
(0.0303304 0.270933 0)
(0.0749089 0.462291 0)
(0.104601 0.205028 0)
(0.147912 0.275427 0)
(0.16024 0.151808 0)
(0.188374 0.0472473 0)
(0.270462 -0.156415 0)
(0.294895 0.600773 0)
(0.279037 1.40843 0)
(0.242975 1.43954 0)
(0.223066 1.4496 0)
(0.194924 1.40317 0)
(0.157527 1.38829 0)
(0.106453 1.34665 0)
(0.0496036 1.34206 0)
(-0.0139066 1.31518 0)
(-0.0794142 1.32208 0)
(-0.142476 1.30955 0)
(-0.201231 1.32897 0)
(-0.244457 1.31426 0)
(-0.281733 1.31174 0)
(-0.303471 1.07451 0)
(-0.266385 0.190942 0)
(-0.263906 -0.00735937 0)
(-0.240075 0.386769 0)
(-0.19674 0.535757 0)
(-0.181871 0.557511 0)
(-0.150009 0.563916 0)
(-0.173737 0.574581 0)
(-0.0145764 0.520278 0)
(0.0345443 0.199868 0)
(0.0886936 0.475878 0)
(0.0488669 0.172316 0)
(0.0485827 0.242138 0)
(0.0957016 0.116874 0)
(0.131379 0.002882 0)
(0.182655 -0.242756 0)
(0.190859 0.60366 0)
(0.193851 1.39884 0)
(0.176923 1.46903 0)
(0.157954 1.44821 0)
(0.139572 1.45107 0)
(0.109237 1.41382 0)
(0.0715219 1.4129 0)
(0.0260028 1.38173 0)
(-0.0240937 1.38635 0)
(-0.0765924 1.36602 0)
(-0.130036 1.37892 0)
(-0.179696 1.36339 0)
(-0.226276 1.37227 0)
(-0.267665 1.32151 0)
(-0.315901 1.08703 0)
(-0.311126 0.179416 0)
(-0.320424 -0.0249356 0)
(-0.295653 0.329914 0)
(-0.248818 0.506164 0)
(-0.231672 0.514515 0)
(-0.196226 0.516509 0)
(-0.217167 0.530889 0)
(-0.0227215 0.35877 0)
(0.00451679 0.138327 0)
(0.0684808 0.439812 0)
(0.0303536 0.245372 0)
(0.0110429 0.203274 0)
(0.0592313 0.0796267 0)
(0.0832532 -0.0242809 0)
(0.110026 -0.286792 0)
(0.120923 0.575621 0)
(0.153823 1.39642 0)
(0.135482 1.45016 0)