/*--------------------------------*- C++ -*----------------------------------*\
| =========                 |                                                 |
| \\      /  F ield         | OpenFOAM: The Open Source CFD Toolbox           |
|  \\    /   O peration     | Version:  2.3.0                                 |
|   \\  /    A nd           | Web:      www.OpenFOAM.org                      |
|    \\/     M anipulation  |                                                 |
\*---------------------------------------------------------------------------*/
FoamFile
{
    version     2.0;
    format      ascii;
    class       volVectorField;
    location    "0.53";
    object      U.particlesMean;
}
// * * * * * * * * * * * * * * * * * * * * * * * * * * * * * * * * * * * * * //

dimensions      [0 1 -1 0 0 0 0];

internalField   nonuniform List<vector> 
6000
(
(0.00740622 -0.295512 0)
(0.0289915 -0.304282 0)
(0.0484385 -0.310197 0)
(0.0561967 -0.33497 0)
(0.0512922 -0.363638 0)
(0.0368789 -0.386858 0)
(0.0233115 -0.394862 0)
(0.0108206 -0.375999 0)
(0.00619498 -0.366616 0)
(0.00655869 -0.367695 0)
(0.0136815 -0.374088 0)
(0.019326 -0.398833 0)
(0.0189285 -0.435048 0)
(0.0108789 -0.456222 0)
(0.00169493 -0.451269 0)
(-0.0109109 -0.464134 0)
(-0.0225591 -0.451409 0)
(-0.0277899 -0.417733 0)
(-0.0250993 -0.384074 0)
(-0.0177846 -0.368878 0)
(-0.0143873 -0.36587 0)
(-0.0164728 -0.369025 0)
(-0.023114 -0.385813 0)
(-0.0340443 -0.402595 0)
(-0.049481 -0.386291 0)
(-0.0614408 -0.353728 0)
(-0.0607625 -0.328116 0)
(-0.0494505 -0.307225 0)
(-0.0302544 -0.304092 0)
(-0.00904405 -0.291305 0)
(0.019734 -0.026733 0)
(0.041186 -0.00882012 0)
(0.0631084 -0.0054765 0)
(0.0768211 -0.00138764 0)
(0.0804318 -0.00188266 0)
(0.0707021 0.0047873 0)
(0.0534478 0.00974385 0)
(0.0309277 0.020289 0)
(0.0150749 0.034847 0)
(0.00652903 0.0261631 0)
(0.0130978 0.00703111 0)
(0.0213402 0.00873973 0)
(0.0209498 0.0106595 0)
(0.0158556 -0.000367916 0)
(0.0019835 -0.0117446 0)
(-0.0194339 -0.00698847 0)
(-0.0256933 0.00143105 0)
(-0.0291927 0.0125898 0)
(-0.0241136 0.00316855 0)
(-0.0178367 0.014212 0)
(-0.0171126 0.0319948 0)
(-0.0297404 0.0333547 0)
(-0.047169 0.0138838 0)
(-0.0671781 0.00506907 0)
(-0.0799539 5.16075e-05 0)
(-0.0852909 0.00034614 0)
(-0.0771023 0.000342306 0)
(-0.0630918 -0.00531166 0)
(-0.0415216 -0.00835371 0)
(-0.0204153 -0.0271283 0)
(0.00522917 -0.0849628 0)
(0.0381836 -0.101302 0)
(0.0603672 -0.0934624 0)
(0.0775439 -0.0693421 0)
(0.0886203 -0.0491072 0)
(0.0828406 -0.026564 0)
(0.0667106 -0.00989174 0)
(0.0432472 -0.00226933 0)
(0.0270913 -0.0102803 0)
(0.0180317 -0.0313518 0)
(0.0188864 -0.0415873 0)
(0.022443 -0.0440967 0)
(0.0275671 -0.0337599 0)
(0.0197124 -0.0160553 0)
(0.000741617 -0.0227408 0)
(-0.0224246 -0.0191499 0)
(-0.0318633 -0.0254026 0)
(-0.032124 -0.0427808 0)
(-0.0260241 -0.0441912 0)
(-0.0228838 -0.0372671 0)
(-0.0274761 -0.0190022 0)
(-0.0403013 0.000571734 0)
(-0.0635926 -0.00455535 0)
(-0.0825455 -0.0145771 0)
(-0.0910963 -0.0321717 0)
(-0.0902898 -0.0539819 0)
(-0.0740496 -0.0773797 0)
(-0.0552418 -0.094755 0)
(-0.0376126 -0.0951897 0)
(-0.00540598 -0.0873252 0)
(0.00457468 -0.117051 0)
(0.0357999 -0.126588 0)
(0.0514149 -0.1219 0)
(0.0782054 -0.099695 0)
(0.0906199 -0.0692802 0)
(0.0927256 -0.0377028 0)
(0.0810196 -0.0113833 0)
(0.0620659 0.00276316 0)
(0.0442911 0.00303675 0)
(0.0317601 -0.013018 0)
(0.0241204 -0.024326 0)
(0.0213219 -0.0263998 0)
(0.0185827 -0.0158428 0)
(0.0148734 0.000784454 0)
(-0.000659007 -0.00354221 0)
(-0.0200067 -0.00105258 0)
(-0.0255357 -0.00857214 0)
(-0.0253363 -0.0251922 0)
(-0.0279325 -0.0265428 0)
(-0.0314873 -0.0168386 0)
(-0.0427719 -0.00215362 0)
(-0.0584902 0.00976225 0)
(-0.0787152 -0.00324505 0)
(-0.0941144 -0.0215078 0)
(-0.0991049 -0.0491878 0)
(-0.0912671 -0.0824499 0)
(-0.0732791 -0.111818 0)
(-0.0475058 -0.126189 0)
(-0.0346707 -0.124823 0)
(-0.00531588 -0.120592 0)
(0.00409505 -0.160757 0)
(0.0347323 -0.165422 0)
(0.0520232 -0.16073 0)
(0.0787111 -0.133247 0)
(0.0887617 -0.0922215 0)
(0.0932725 -0.0459872 0)
(0.0856789 -0.0120628 0)
(0.0665982 0.00437892 0)
(0.0437361 0.00253158 0)
(0.0271638 -0.018329 0)
(0.0194362 -0.0292721 0)
(0.0137516 -0.0294386 0)
(0.00906042 -0.0138567 0)
(0.00798958 0.00732966 0)
(-0.0025051 0.00553188 0)
(-0.0154864 0.00717428 0)
(-0.0161512 -0.0059938 0)
(-0.0178627 -0.0281977 0)
(-0.0213706 -0.0317072 0)
(-0.0274215 -0.024556 0)
(-0.0397952 -0.00451688 0)
(-0.0596447 0.00776881 0)
(-0.0811329 -0.00464341 0)
(-0.0967178 -0.0273816 0)
(-0.0996427 -0.0639919 0)
(-0.0915071 -0.111315 0)
(-0.0772552 -0.145895 0)
(-0.0550687 -0.167158 0)
(-0.0341879 -0.166901 0)
(-0.00368942 -0.16424 0)
(0.00620946 -0.186199 0)
(0.035903 -0.187942 0)
(0.0554119 -0.183879 0)
(0.0793292 -0.153456 0)
(0.0827397 -0.106816 0)
(0.086015 -0.0524674 0)
(0.0801682 -0.00892464 0)
(0.059492 0.0103542 0)
(0.0355649 0.00731158 0)
(0.0180496 -0.0167834 0)
(0.00943289 -0.0274917 0)
(0.00307831 -0.0239157 0)
(-0.00121667 -0.00760435 0)
(-0.000470209 0.0107134 0)
(-0.00371828 0.00737744 0)
(-0.0084544 0.0118423 0)
(-0.00498586 -0.00200955 0)
(-0.00652208 -0.0226096 0)
(-0.0108334 -0.0296092 0)
(-0.0194845 -0.023201 0)
(-0.0321146 -0.00280417 0)
(-0.0533683 0.0102271 0)
(-0.0759277 -0.00121448 0)
(-0.0925292 -0.0268037 0)
(-0.0947505 -0.0735925 0)
(-0.0905893 -0.127634 0)
(-0.080067 -0.166649 0)
(-0.0593956 -0.191417 0)
(-0.0362772 -0.191463 0)
(-0.00545273 -0.189668 0)
(0.00559599 -0.1974 0)
(0.0360131 -0.199499 0)
(0.0559531 -0.192207 0)
(0.073697 -0.160824 0)
(0.0755805 -0.114361 0)
(0.0763633 -0.0526006 0)
(0.0702279 -0.000285994 0)
(0.0484739 0.023526 0)
(0.0238237 0.0159603 0)
(0.00505594 -0.0111196 0)
(-0.00363798 -0.0221364 0)
(-0.00992009 -0.0200094 0)
(-0.00915764 -0.00653258 0)
(-0.0059999 0.00360857 0)
(-0.00477799 0.00527394 0)
(-0.00413694 0.00452619 0)
(0.00242554 -0.00233843 0)
(0.00534022 -0.0187953 0)
(0.00203978 -0.0246777 0)
(-0.00806569 -0.0173962 0)
(-0.0224121 0.00417674 0)
(-0.0455965 0.0168428 0)
(-0.0673964 0.00909872 0)
(-0.0844923 -0.019792 0)
(-0.0869718 -0.0727689 0)
(-0.0864087 -0.13105 0)
(-0.0769578 -0.17207 0)
(-0.058732 -0.200095 0)
(-0.0371238 -0.204658 0)
(-0.00305751 -0.200402 0)
(0.00714144 -0.203478 0)
(0.034081 -0.203915 0)
(0.0530771 -0.191475 0)
(0.065273 -0.157292 0)
(0.0704162 -0.113326 0)
(0.0646091 -0.0427949 0)
(0.0602296 0.0142394 0)
(0.0369047 0.0419794 0)
(0.0139898 0.0285626 0)
(-0.00508005 -0.00242581 0)
(-0.0181963 -0.0161897 0)
(-0.0196903 -0.0167884 0)
(-0.014363 -0.00954045 0)
(-0.00996135 -0.000609245 0)
(-0.00554032 0.0013861 0)
(-0.00126114 -0.00034153 0)
(0.00488994 -0.00724463 0)
(0.0146525 -0.0160189 0)
(0.0150415 -0.0199532 0)
(0.00224756 -0.00938313 0)
(-0.0126258 0.0135702 0)
(-0.0355935 0.0283229 0)
(-0.0589644 0.0213027 0)
(-0.0763281 -0.0106866 0)
(-0.0786124 -0.0653976 0)
(-0.0806634 -0.128922 0)
(-0.0720968 -0.16919 0)
(-0.055525 -0.200483 0)
(-0.0352109 -0.211632 0)
(-0.0027669 -0.206092 0)
(0.00550127 -0.206493 0)
(0.0325481 -0.207094 0)
(0.0499913 -0.189045 0)
(0.0591382 -0.155762 0)
(0.0666911 -0.103446 0)
(0.0502964 -0.0258198 0)
(0.0445641 0.035175 0)
(0.0214679 0.0575591 0)
(0.00775467 0.035845 0)
(-0.00778493 0.00142234 0)
(-0.0244134 -0.0157072 0)
(-0.021138 -0.0190088 0)
(-0.0170148 -0.0151298 0)
(-0.0113291 -0.00872586 0)
(-0.00540038 -0.00627222 0)
(0.000474611 -0.0084874 0)
(0.00671068 -0.0139909 0)
(0.0155765 -0.0195007 0)
(0.0183306 -0.019959 0)
(0.00465127 -0.00666962 0)
(-0.00907395 0.0199255 0)
(-0.0244903 0.0400717 0)
(-0.0458406 0.0370528 0)
(-0.0664802 0.00456153 0)
(-0.0704517 -0.0519895 0)
(-0.0788627 -0.124811 0)
(-0.0674687 -0.168254 0)
(-0.053434 -0.202022 0)
(-0.0346491 -0.218455 0)
(0.00175906 -0.209269 0)
(0.00323952 -0.208295 0)
(0.0285675 -0.209173 0)
(0.0423359 -0.184305 0)
(0.0511167 -0.148815 0)
(0.058154 -0.095849 0)
(0.058301 -0.0193433 0)
(0.0466769 0.0365863 0)
(0.023356 0.0617784 0)
(0.0148676 0.0423452 0)
(0.00209484 0.00844873 0)
(-0.0151588 -0.0146132 0)
(-0.01725 -0.0192506 0)
(-0.0142384 -0.0198336 0)
(-0.00985034 -0.0158379 0)
(-0.00499792 -0.0137936 0)
(-0.000270741 -0.0153918 0)
(0.00466886 -0.0197001 0)
(0.0112897 -0.0208444 0)
(0.00868289 -0.0176267 0)
(-0.00789712 0.000542112 0)
(-0.0182363 0.0262277 0)
(-0.029602 0.0476672 0)
(-0.0431215 0.0440392 0)
(-0.065077 0.0160655 0)
(-0.0730347 -0.0400426 0)
(-0.0733588 -0.117408 0)
(-0.062077 -0.168486 0)
(-0.0472996 -0.20158 0)
(-0.0324203 -0.222878 0)
(0.0053984 -0.210709 0)
(-0.000455331 -0.210068 0)
(0.0226489 -0.213087 0)
(0.0337902 -0.182974 0)
(0.0448182 -0.144098 0)
(0.0547798 -0.0877568 0)
(0.057182 -0.016009 0)
(0.0540679 0.0412171 0)
(0.0436552 0.0628293 0)
(0.0390178 0.048105 0)
(0.0301956 0.0200948 0)
(0.00650356 -0.00398587 0)
(-0.00674363 -0.0148897 0)
(-0.00689379 -0.018757 0)
(-0.00628146 -0.0180332 0)
(-0.00452023 -0.0168783 0)
(-0.00249036 -0.0177996 0)
(-0.000736776 -0.0193659 0)
(0.000210207 -0.0167093 0)
(-0.0119058 -0.00674871 0)
(-0.0356523 0.013514 0)
(-0.0493397 0.0350522 0)
(-0.0577085 0.0462324 0)
(-0.0622756 0.041816 0)
(-0.070062 0.0180761 0)
(-0.0726421 -0.036251 0)
(-0.0691201 -0.112324 0)
(-0.0565545 -0.170206 0)
(-0.0404557 -0.202605 0)
(-0.027313 -0.225031 0)
(0.00976275 -0.210172 0)
(-0.00328616 -0.211412 0)
(0.0161487 -0.217798 0)
(0.0247522 -0.182752 0)
(0.0389946 -0.140773 0)
(0.0508387 -0.0901627 0)
(0.061298 -0.0271584 0)
(0.0674168 0.0236157 0)
(0.0659742 0.0513806 0)
(0.0640258 0.0502768 0)
(0.059039 0.0313327 0)
(0.032942 0.00675159 0)
(0.0085483 -0.0058686 0)
(0.00177711 -0.0116543 0)
(-0.00170437 -0.0145806 0)
(-0.00362577 -0.0149636 0)
(-0.00472635 -0.0147622 0)
(-0.00695546 -0.0128455 0)
(-0.012797 -0.00778118 0)
(-0.031353 0.00398053 0)
(-0.0629521 0.023448 0)
(-0.0756798 0.0382647 0)
(-0.0834682 0.0333586 0)
(-0.086189 0.0242188 0)
(-0.0869056 0.00375266 0)
(-0.0785539 -0.0465136 0)
(-0.0650537 -0.114057 0)
(-0.0518398 -0.169011 0)
(-0.0322032 -0.200002 0)
(-0.0200288 -0.223223 0)
(0.0141496 -0.205018 0)
(-0.00645047 -0.208387 0)
(0.0101232 -0.219012 0)
(0.016937 -0.183207 0)
(0.0334671 -0.141639 0)
(0.0441379 -0.0947979 0)
(0.0629563 -0.0381383 0)
(0.075526 0.00997151 0)
(0.0789425 0.0338087 0)
(0.078277 0.0477348 0)
(0.0760002 0.0389296 0)
(0.0611381 0.0172962 0)
(0.0248027 0.00462218 0)
(0.00905755 -0.00148873 0)
(0.00290116 -0.00586346 0)
(-0.0020942 -0.00838193 0)
(-0.00610303 -0.00664609 0)
(-0.0111232 -0.00302502 0)
(-0.0222483 0.00304411 0)
(-0.0492645 0.0146582 0)
(-0.0805015 0.0278577 0)
(-0.089708 0.0313675 0)
(-0.0975425 0.0230259 0)
(-0.100523 0.0150952 0)
(-0.0948161 -0.00590819 0)
(-0.0789698 -0.0534538 0)
(-0.0601597 -0.113035 0)
(-0.0447928 -0.162016 0)
(-0.0225031 -0.192526 0)
(-0.0127616 -0.218899 0)
(0.0155597 -0.192447 0)
(-0.0080287 -0.199747 0)
(0.00551916 -0.213883 0)
(0.00813849 -0.179561 0)
(0.0238437 -0.137471 0)
(0.0386941 -0.0926889 0)
(0.0604002 -0.0415142 0)
(0.0765638 0.00595766 0)
(0.0815047 0.0284825 0)
(0.0815409 0.0408387 0)
(0.0816462 0.0417382 0)
(0.0742451 0.0275936 0)
(0.0364051 0.0169739 0)
(0.0152623 0.00952674 0)
(0.00692336 0.00429532 0)
(-9.59583e-06 0.000572659 0)
(-0.00704585 0.00300435 0)
(-0.0133608 0.00776636 0)
(-0.0302899 0.0151006 0)
(-0.0663028 0.02533 0)
(-0.0873264 0.0318421 0)
(-0.0910827 0.0322087 0)
(-0.0992361 0.0260265 0)
(-0.0993729 0.0194447 0)
(-0.0926383 -0.00454024 0)
(-0.0702128 -0.0511534 0)
(-0.0507118 -0.108592 0)
(-0.0346089 -0.154365 0)
(-0.0129981 -0.18766 0)
(-0.00618737 -0.212093 0)
(0.00943949 -0.183495 0)
(-0.00654826 -0.192072 0)
(0.000805627 -0.209137 0)
(0.0010135 -0.177553 0)
(0.0161129 -0.135999 0)
(0.0384388 -0.0911411 0)
(0.0572809 -0.0437396 0)
(0.0752882 0.0061218 0)
(0.0799859 0.0301445 0)
(0.0803867 0.0369591 0)
(0.0797827 0.0418586 0)
(0.0763287 0.0351495 0)
(0.05282 0.027018 0)
(0.0235901 0.0201002 0)
(0.0101938 0.0150599 0)
(0.00178273 0.0116482 0)
(-0.0077554 0.0134328 0)
(-0.015227 0.0185488 0)
(-0.0345723 0.0279527 0)
(-0.0734083 0.0356584 0)
(-0.0841678 0.038091 0)
(-0.0876868 0.0397311 0)
(-0.0932863 0.0334333 0)
(-0.0943581 0.0278788 0)
(-0.0858055 -0.000542898 0)
(-0.0629042 -0.0520856 0)
(-0.0402544 -0.106369 0)
(-0.0251239 -0.149914 0)
(-0.00387817 -0.186381 0)
(-0.00161772 -0.206541 0)
(0.00520124 -0.179086 0)
(-0.00485949 -0.185355 0)
(-0.00331911 -0.205213 0)
(-0.00432635 -0.174497 0)
(0.00942771 -0.135587 0)
(0.0339291 -0.0844928 0)
(0.0541816 -0.0437303 0)
(0.0704548 0.00881365 0)
(0.0767357 0.0349027 0)
(0.077376 0.0384378 0)
(0.0761582 0.0432123 0)
(0.0740975 0.0408761 0)
(0.0627198 0.0363451 0)
(0.0298747 0.0306674 0)
(0.0123436 0.0259329 0)
(0.003033 0.0235543 0)
(-0.0081828 0.0246461 0)
(-0.0189254 0.0289523 0)
(-0.0451655 0.0392231 0)
(-0.0694188 0.0465687 0)
(-0.0783817 0.0470475 0)
(-0.0818893 0.048334 0)
(-0.0857294 0.0432567 0)
(-0.0854286 0.0389459 0)
(-0.0768358 0.00738455 0)
(-0.0556885 -0.0549763 0)
(-0.0331948 -0.104532 0)
(-0.0158305 -0.148749 0)
(-0.00010567 -0.183495 0)
(-0.00313099 -0.203773 0)
(0.000154419 -0.174567 0)
(-0.00919592 -0.183707 0)
(-0.00638465 -0.200251 0)
(-0.00770148 -0.172484 0)
(0.00180108 -0.135931 0)
(0.0252274 -0.0804913 0)
(0.0464914 -0.0432115 0)
(0.064161 0.013102 0)
(0.0712687 0.0409787 0)
(0.0724411 0.0439184 0)
(0.0712146 0.0465142 0)
(0.068618 0.046507 0)
(0.0600961 0.0463233 0)
(0.0353249 0.0417967 0)
(0.0137481 0.0365989 0)
(0.00401583 0.0352903 0)
(-0.00672265 0.0369049 0)
(-0.0206123 0.0399117 0)
(-0.0470813 0.0502376 0)
(-0.062001 0.0572691 0)
(-0.0704211 0.0568969 0)
(-0.0738452 0.0566686 0)
(-0.0767327 0.0548952 0)
(-0.0759349 0.0518914 0)
(-0.0656812 0.0159423 0)
(-0.04653 -0.0572246 0)
(-0.0265903 -0.100675 0)
(-0.00762198 -0.147822 0)
(0.00201469 -0.183032 0)
(-0.00574862 -0.205538 0)
(-0.00923626 -0.177211 0)
(-0.0161942 -0.175806 0)
(-0.007471 -0.191748 0)
(-0.00864123 -0.170797 0)
(-0.00308478 -0.136668 0)
(0.0136016 -0.0796337 0)
(0.0370356 -0.0424147 0)
(0.0552068 0.0162966 0)
(0.0654455 0.0484451 0)
(0.0662278 0.0517854 0)
(0.0657243 0.0512048 0)
(0.0624746 0.0535152 0)
(0.0553733 0.055125 0)
(0.03777 0.0512263 0)
(0.0155996 0.0468437 0)
(0.00510408 0.0463833 0)
(-0.00464796 0.0480628 0)
(-0.0192705 0.0513568 0)
(-0.0422522 0.0601677 0)
(-0.0527647 0.0676496 0)
(-0.0611588 0.066942 0)
(-0.0656221 0.0649917 0)
(-0.0676104 0.0681751 0)
(-0.0663899 0.0646835 0)
(-0.0523752 0.0238103 0)
(-0.0347848 -0.0584536 0)
(-0.0175917 -0.097547 0)
(-0.00022397 -0.146822 0)
(0.00316069 -0.184561 0)
(-0.00675818 -0.210677 0)
(-0.00908755 -0.188983 0)
(-0.0173892 -0.167017 0)
(-0.00639119 -0.184016 0)
(-0.00846359 -0.168666 0)
(-0.00713245 -0.138585 0)
(0.0018079 -0.0798681 0)
(0.0283026 -0.0408221 0)
(0.0445913 0.0184241 0)
(0.0583776 0.0555875 0)
(0.0597939 0.0610921 0)
(0.0603764 0.0564238 0)
(0.0566318 0.0602288 0)
(0.0508207 0.0630498 0)
(0.0370633 0.059874 0)
(0.0160169 0.0568109 0)
(0.00572753 0.056409 0)
(-0.00266173 0.0577051 0)
(-0.0130165 0.0610232 0)
(-0.033627 0.0679946 0)
(-0.0444769 0.0762609 0)
(-0.0524212 0.0758666 0)
(-0.0570124 0.0740849 0)
(-0.0577984 0.0818888 0)
(-0.0554296 0.0772262 0)
(-0.0371025 0.0274502 0)
(-0.0215013 -0.0589738 0)
(-0.00625236 -0.0988024 0)
(0.00474475 -0.149389 0)
(0.00207023 -0.1883 0)
(-0.00446893 -0.217116 0)
(-0.0012584 -0.198865 0)
(-0.0131211 -0.157894 0)
(-0.00522899 -0.173475 0)
(-0.00732873 -0.165763 0)
(-0.00912603 -0.140577 0)
(-0.00778364 -0.0799102 0)
(0.0207541 -0.0373401 0)
(0.0333297 0.0192216 0)
(0.0494575 0.0615184 0)
(0.0529008 0.0698813 0)
(0.055183 0.0624688 0)
(0.0513572 0.0657118 0)
(0.046738 0.069823 0)
(0.0321481 0.0680239 0)
(0.0140089 0.06538 0)
(0.00624674 0.0640765 0)
(0.000273046 0.0647298 0)
(-0.00773818 0.0682491 0)
(-0.0231318 0.074725 0)
(-0.0365815 0.0831677 0)
(-0.0428086 0.084291 0)
(-0.047051 0.0842051 0)
(-0.0460187 0.0960024 0)
(-0.0427064 0.0864371 0)
(-0.0204672 0.0308316 0)
(-0.00932573 -0.0586081 0)
(0.00303659 -0.101605 0)
(0.00739114 -0.155467 0)
(0.00163445 -0.190384 0)
(-0.00375824 -0.216133 0)
(0.010315 -0.204347 0)
(-0.00731942 -0.154233 0)
(0.00181449 -0.167903 0)
(-0.00157934 -0.164183 0)
(-0.00728441 -0.139509 0)
(-0.0148676 -0.0769284 0)
(0.0100993 -0.0316415 0)
(0.0260129 0.0232821 0)
(0.0392132 0.0682187 0)
(0.0445366 0.0797888 0)
(0.0496909 0.0697613 0)
(0.0460509 0.0722322 0)
(0.0424367 0.0769323 0)
(0.0275908 0.0757479 0)
(0.0126238 0.0716702 0)
(0.00707199 0.0697573 0)
(0.00259331 0.0700822 0)
(-0.0037341 0.0738781 0)
(-0.0152026 0.0813377 0)
(-0.0278281 0.0891487 0)
(-0.0317338 0.0913392 0)
(-0.0362789 0.0944634 0)
(-0.0329041 0.108271 0)
(-0.028887 0.096631 0)
(-0.00381682 0.0356222 0)
(0.00019145 -0.0596921 0)
(0.0109049 -0.10606 0)
(0.00912919 -0.161316 0)
(0.00270565 -0.189736 0)
(0.00032459 -0.2091 0)
(0.0211882 -0.200399 0)
(-0.00176459 -0.151713 0)
(0.00895846 -0.168993 0)
(0.0016624 -0.160781 0)
(-0.00419489 -0.138827 0)
(-0.0195224 -0.0737002 0)
(-0.0021398 -0.0178536 0)
(0.0173428 0.0220429 0)
(0.0366491 0.0794856 0)
(0.0337441 0.0903883 0)
(0.0395364 0.080767 0)
(0.0369419 0.0810797 0)
(0.0350183 0.0849314 0)
(0.0257835 0.0821711 0)
(0.0133021 0.0766325 0)
(0.00824648 0.0743142 0)
(0.00352381 0.0746034 0)
(-0.00140849 0.077728 0)
(-0.0100922 0.0858936 0)
(-0.019185 0.094138 0)
(-0.0205476 0.0988234 0)
(-0.0238074 0.104323 0)
(-0.0210854 0.119212 0)
(-0.0155664 0.104951 0)
(0.0071017 0.0429837 0)
(0.00477755 -0.0569797 0)
(0.015862 -0.110887 0)
(0.0093577 -0.165402 0)
(0.00268166 -0.189542 0)
(0.00312555 -0.19403 0)
(0.0172164 -0.18977 0)
(0.00148666 -0.155768 0)
(0.00831384 -0.1731 0)
(0.000159451 -0.156977 0)
(-0.007147 -0.130866 0)
(-0.0259975 -0.0666342 0)
(-0.0141966 -0.00503829 0)
(0.00511094 0.02972 0)
(0.0302934 0.081774 0)
(0.0358918 0.102575 0)
(0.0340603 0.0943302 0)
(0.0289419 0.0943465 0)
(0.0260005 0.0921768 0)
(0.0229492 0.0867373 0)
(0.0153409 0.0805998 0)
(0.00932253 0.0780955 0)
(0.00492039 0.0777268 0)
(-0.000376201 0.0809176 0)
(-0.00662245 0.0878656 0)
(-0.0113469 0.0974716 0)
(-0.0103273 0.103399 0)
(-0.0106592 0.112523 0)
(-0.00875866 0.129326 0)
(-0.00500186 0.114569 0)
(0.0157561 0.0572737 0)
(0.0110062 -0.0433586 0)
(0.0171168 -0.113482 0)
(0.00449722 -0.165208 0)
(-0.00243512 -0.183058 0)
(-0.0017698 -0.195994 0)
(0.00863646 -0.182163 0)
(-0.0018281 -0.159912 0)
(0.00480648 -0.182839 0)
(-0.00547865 -0.156785 0)
(-0.0101086 -0.123172 0)
(-0.0314885 -0.0602618 0)
(-0.029433 0.00570013 0)
(-0.00463509 0.0292195 0)
(0.0196058 0.0813 0)
(0.0316111 0.108864 0)
(0.0311675 0.105407 0)
(0.028322 0.103251 0)
(0.0240856 0.0992206 0)
(0.020683 0.0910916 0)
(0.0150343 0.0849221 0)
(0.00971241 0.0811064 0)
(0.00653695 0.0807429 0)
(0.00174987 0.0828486 0)
(-0.00319922 0.089332 0)
(-0.00541784 0.0973114 0)
(-0.00415278 0.104584 0)
(-0.000253988 0.114775 0)
(0.00309914 0.13842 0)
(0.00434599 0.124673 0)
(0.0215985 0.0752172 0)
(0.0178549 -0.0264148 0)
(0.018858 -0.111306 0)
(0.00586101 -0.157967 0)
(1.86591e-05 -0.179545 0)
(-0.00617778 -0.200365 0)
(-0.000113532 -0.17757 0)
(-0.00397797 -0.163099 0)
(0.0031071 -0.190757 0)
(-0.00878109 -0.164012 0)
(-0.0140459 -0.115676 0)
(-0.0392559 -0.0560356 0)
(-0.0432264 0.0110814 0)
(-0.0138383 0.0345866 0)
(0.00872197 0.0794363 0)
(0.0253657 0.108458 0)
(0.0297526 0.110592 0)
(0.0302506 0.110997 0)
(0.0266751 0.105218 0)
(0.0218475 0.0975514 0)
(0.0154592 0.0898055 0)
(0.00976559 0.085635 0)
(0.00691435 0.0837911 0)
(0.00456801 0.0856144 0)
(0.00156459 0.0895233 0)
(-0.00096993 0.0974335 0)
(-0.000828019 0.102657 0)
(0.00367463 0.113674 0)
(0.011381 0.140372 0)
(0.0117283 0.13551 0)
(0.0260136 0.0862245 0)
(0.0255976 -0.0150499 0)
(0.0240666 -0.10604 0)
(0.0110428 -0.155914 0)
(0.00654985 -0.185693 0)
(-0.00470719 -0.210514 0)
(-0.000599697 -0.180985 0)
(-0.00710418 -0.166449 0)
(0.00591344 -0.197527 0)
(-0.00944335 -0.162445 0)
(-0.0202473 -0.112637 0)
(-0.0430421 -0.0537938 0)
(-0.0512692 0.0130085 0)
(-0.0209853 0.0388721 0)
(-0.000243715 0.0764707 0)
(0.0177429 0.102041 0)
(0.0272955 0.112521 0)
(0.0297708 0.114783 0)
(0.0282449 0.111268 0)
(0.022724 0.102961 0)
(0.0160186 0.0965401 0)
(0.00981105 0.0907012 0)
(0.00674254 0.0892319 0)
(0.00549103 0.0889424 0)
(0.0040432 0.0922091 0)
(0.00240968 0.0967478 0)
(0.0014784 0.102269 0)
(0.00443071 0.110204 0)
(0.0140859 0.138903 0)
(0.0161099 0.139646 0)
(0.0285597 0.0946715 0)
(0.0288349 -0.00581155 0)
(0.0281768 -0.0989685 0)
(0.0157612 -0.150881 0)
(0.0121936 -0.193992 0)
(-0.00146461 -0.217648 0)
(0.00249529 -0.182808 0)
(-0.0131368 -0.169583 0)
(0.00358411 -0.195975 0)
(-0.00939983 -0.151986 0)
(-0.0242089 -0.107147 0)
(-0.0447134 -0.0520175 0)
(-0.0526937 0.00995769 0)
(-0.0268902 0.0412328 0)
(-0.00704621 0.0689743 0)
(0.00913066 0.0962682 0)
(0.0218183 0.110791 0)
(0.0270904 0.118562 0)
(0.0273097 0.115807 0)
(0.0224978 0.109992 0)
(0.0157191 0.102455 0)
(0.00967496 0.0980241 0)
(0.00630264 0.0948985 0)
(0.00442347 0.095037 0)
(0.00359785 0.095382 0)
(0.00343617 0.0987737 0)
(0.00335701 0.10141 0)
(0.00386063 0.108746 0)
(0.0141929 0.134973 0)
(0.0178097 0.141234 0)
(0.0315304 0.104825 0)
(0.0327155 0.00252364 0)
(0.0317749 -0.0939836 0)
(0.0193261 -0.145836 0)
(0.0126756 -0.193892 0)
(-0.00100388 -0.227622 0)
(0.00413216 -0.185046 0)
(-0.017591 -0.173999 0)
(0.00276783 -0.191002 0)
(-0.0123084 -0.1348 0)
(-0.0260078 -0.0975968 0)
(-0.0443108 -0.0495194 0)
(-0.0516778 0.00472213 0)
(-0.030139 0.0401496 0)
(-0.0107893 0.0608833 0)
(0.00349157 0.0892832 0)
(0.0151803 0.107613 0)
(0.0224059 0.119617 0)
(0.0242352 0.120223 0)
(0.0198925 0.114513 0)
(0.0135877 0.108762 0)
(0.00841487 0.103467 0)
(0.00532765 0.101596 0)
(0.00327647 0.100205 0)
(0.0022584 0.100676 0)
(0.00276339 0.100666 0)
(0.00364676 0.103205 0)
(0.00357468 0.107308 0)
(0.0130413 0.131675 0)
(0.0182266 0.138261 0)
(0.0288615 0.101031 0)
(0.0388261 0.00699208 0)
(0.0352023 -0.0877333 0)
(0.0237377 -0.137374 0)
(0.0149152 -0.18696 0)
(-0.00189129 -0.229972 0)
(0.00734329 -0.188172 0)
(-0.0155527 -0.175769 0)
(0.00499339 -0.185318 0)
(-0.011962 -0.123694 0)
(-0.0231209 -0.0881281 0)
(-0.0409292 -0.0482545 0)
(-0.0485034 -0.000537184 0)
(-0.0307028 0.036574 0)
(-0.0121744 0.0555861 0)
(-0.000602367 0.0814341 0)
(0.00825126 0.103526 0)
(0.0158536 0.11901 0)
(0.0187946 0.124001 0)
(0.0154413 0.119817 0)
(0.0100982 0.113262 0)
(0.00657767 0.109817 0)
(0.00408313 0.107022 0)
(0.00197236 0.106516 0)
(0.000908595 0.104964 0)
(0.00137027 0.105326 0)
(0.00302773 0.104816 0)
(0.00351439 0.108518 0)
(0.0122039 0.128294 0)
(0.0157387 0.133521 0)
(0.0222115 0.0893174 0)
(0.0433838 0.00691829 0)
(0.0378997 -0.0822233 0)
(0.0281193 -0.126474 0)
(0.018519 -0.171738 0)
(-1.69824e-05 -0.224749 0)
(0.0104388 -0.189788 0)
(-0.0169462 -0.174145 0)
(0.00444922 -0.175204 0)
(-0.0117393 -0.110753 0)
(-0.017638 -0.0773686 0)
(-0.0333696 -0.0479086 0)
(-0.0420108 -0.00716628 0)
(-0.0289627 0.0330993 0)
(-0.0136551 0.055544 0)
(-0.00409473 0.0747277 0)
(0.00173027 0.101876 0)
(0.00854635 0.116718 0)
(0.0115638 0.125282 0)
(0.0121994 0.12415 0)
(0.00776046 0.119387 0)
(0.00474941 0.114727 0)
(0.0025353 0.113395 0)
(0.000678779 0.111271 0)
(-0.000323954 0.110833 0)
(7.31291e-05 0.10934 0)
(0.00160648 0.10972 0)
(0.00343958 0.110362 0)
(0.0106701 0.126448 0)
(0.0117675 0.123182 0)
(0.0250047 0.0829638 0)
(0.0450611 0.00408194 0)
(0.0395468 -0.078308 0)
(0.0313948 -0.115003 0)
(0.0213642 -0.158145 0)
(0.000571939 -0.215182 0)
(0.00974012 -0.188607 0)
(-0.0215726 -0.165274 0)
(0.000511988 -0.162622 0)
(-0.0114148 -0.0978806 0)
(-0.0130963 -0.0655917 0)
(-0.0253502 -0.0454638 0)
(-0.0333938 -0.0156099 0)
(-0.0251043 0.0293943 0)
(-0.0129245 0.0527667 0)
(-0.00548302 0.0710762 0)
(-0.00238079 0.0975006 0)
(0.00292792 0.116048 0)
(0.00609129 0.123554 0)
(0.0067941 0.12773 0)
(0.00378045 0.122166 0)
(0.00249891 0.120472 0)
(0.000979943 0.118193 0)
(-0.000573555 0.117644 0)
(-0.00131428 0.115458 0)
(-0.000987283 0.115534 0)
(0.000412046 0.114083 0)
(0.00270511 0.115235 0)
(0.0100198 0.125391 0)
(0.0114974 0.11512 0)
(0.02949 0.0778343 0)
(0.0466236 -0.000859404 0)
(0.0391069 -0.0750774 0)
(0.0306354 -0.106944 0)
(0.0191914 -0.148169 0)
(0.000125706 -0.208001 0)
(0.0087091 -0.189442 0)
(-0.0225032 -0.151575 0)
(-0.0044271 -0.146875 0)
(-0.0127765 -0.0846542 0)
(-0.0101015 -0.0528531 0)
(-0.0177006 -0.0408034 0)
(-0.025581 -0.0207943 0)
(-0.0217169 0.0264438 0)
(-0.0119285 0.0523972 0)
(-0.00567101 0.0671615 0)
(-0.00420619 0.0930586 0)
(-9.73639e-05 0.111111 0)
(0.00310114 0.121149 0)
(0.00437069 0.124962 0)
(0.00359012 0.126707 0)
(0.0010153 0.123151 0)
(-0.000185243 0.122742 0)
(-0.00141958 0.120815 0)
(-0.00207061 0.120348 0)
(-0.00158301 0.118534 0)
(-0.000123972 0.118657 0)
(0.00212265 0.118506 0)
(0.00962074 0.12584 0)
(0.014678 0.108735 0)
(0.0324433 0.0735623 0)
(0.0468894 -0.00538873 0)
(0.0360512 -0.0723136 0)
(0.027753 -0.0994985 0)
(0.0158623 -0.138255 0)
(-0.000272362 -0.201634 0)
(0.0100707 -0.187695 0)
(-0.0172927 -0.1412 0)
(-0.00843883 -0.12326 0)
(-0.0142189 -0.0686993 0)
(-0.00872449 -0.0398176 0)
(-0.0118332 -0.0340554 0)
(-0.0187352 -0.0227296 0)
(-0.0215103 0.0267189 0)
(-0.0126335 0.0536302 0)
(-0.00439069 0.0646806 0)
(-0.00383547 0.088376 0)
(-0.000848598 0.10919 0)
(0.00190853 0.117375 0)
(0.00320865 0.123725 0)
(0.00257444 0.125363 0)
(0.000701669 0.125866 0)
(-0.000645207 0.124224 0)
(-0.00193568 0.124128 0)
(-0.00252615 0.122112 0)
(-0.00210755 0.122097 0)
(-0.000456751 0.120012 0)
(0.00192668 0.121207 0)
(0.00928844 0.124467 0)
(0.0187192 0.108057 0)
(0.0350362 0.0687401 0)
(0.0448948 -0.0076798 0)
(0.0315642 -0.0691053 0)
(0.0232599 -0.0920174 0)
(0.0116034 -0.131418 0)
(-0.000277845 -0.196194 0)
(0.0124748 -0.185027 0)
(-0.0134804 -0.136215 0)
(-0.00856865 -0.104711 0)
(-0.0107434 -0.0589715 0)
(-0.0088514 -0.0279869 0)
(-0.00587057 -0.0273946 0)
(-0.0135663 -0.0211566 0)
(-0.0214012 0.0289545 0)
(-0.0129335 0.0567154 0)
(-0.0039363 0.0627303 0)
(-0.00292753 0.0862104 0)
(-0.000731422 0.10609 0)
(0.00166343 0.117365 0)
(0.00268082 0.121528 0)
(0.00223057 0.125791 0)
(0.000836958 0.125954 0)
(-0.000727351 0.126765 0)
(-0.00197362 0.125188 0)
(-0.00260467 0.125006 0)
(-0.00218598 0.122909 0)
(-0.000904764 0.122118 0)
(0.00172081 0.119457 0)
(0.00809174 0.119901 0)
(0.0219974 0.103048 0)
(0.0391239 0.0693848 0)
(0.0419247 -0.00864829 0)
(0.0271319 -0.0649067 0)
(0.0179823 -0.0883862 0)
(0.0083384 -0.126619 0)
(-0.000591923 -0.191313 0)
(0.014282 -0.18162 0)
(-0.00974679 -0.132852 0)
(-0.0069376 -0.0879274 0)
(-0.00647353 -0.0504419 0)
(-0.00418375 -0.0262163 0)
(0.000190233 -0.0253911 0)
(-0.00277609 -0.0209989 0)
(-0.0199948 0.0292147 0)
(-0.0104434 0.0588525 0)
(-0.00295277 0.0673086 0)
(-0.00118817 0.0849292 0)
(-9.25028e-05 0.10592 0)
(0.00163531 0.116341 0)
(0.00254471 0.12223 0)
(0.00208594 0.124657 0)
(0.000800509 0.127292 0)
(-0.000574079 0.127098 0)
(-0.00174074 0.127498 0)
(-0.0021469 0.125608 0)
(-0.0015431 0.124898 0)
(8.08326e-06 0.121264 0)
(0.00279703 0.116258 0)
(0.00822295 0.107852 0)
(0.0220869 0.0918425 0)
(0.0425659 0.0684682 0)
(0.0390514 -0.00980231 0)
(0.0232219 -0.0587917 0)
(0.0136623 -0.0862969 0)
(0.00525507 -0.125186 0)
(-0.00118725 -0.186239 0)
(0.0147128 -0.179884 0)
(-0.00709844 -0.12965 0)
(-0.00231675 -0.0821315 0)
(-0.00292189 -0.0465906 0)
(0.00517963 -0.0324555 0)
(0.0106047 -0.0293685 0)
(0.00929497 -0.0264842 0)
(-0.0132119 0.0263307 0)
(-0.00844857 0.0641673 0)
(-0.00158586 0.0729036 0)
(0.000846069 0.0869079 0)
(0.00077201 0.104764 0)
(0.0017238 0.117353 0)
(0.00224307 0.122068 0)
(0.00180495 0.126038 0)
(0.000773588 0.127065 0)
(-0.000387489 0.128625 0)
(-0.00117127 0.127611 0)
(-0.00117947 0.127259 0)
(-7.44091e-05 0.124353 0)
(0.00227635 0.121341 0)
(0.00650069 0.111815 0)
(0.012257 0.100238 0)
(0.022997 0.0865709 0)
(0.0439625 0.0675136 0)
(0.0353707 -0.010372 0)
(0.0194754 -0.0548737 0)
(0.00869154 -0.0880075 0)
(0.00233414 -0.126154 0)
(-0.00189324 -0.178271 0)
(0.0142578 -0.179142 0)
(-0.00685395 -0.127062 0)
(0.00572587 -0.0855737 0)
(0.0124172 -0.0549221 0)
(0.0174536 -0.0344616 0)
(0.0220293 -0.0329912 0)
(0.0202859 -0.029991 0)
(-0.00968947 0.0296938 0)
(-0.00454169 0.0691099 0)
(-0.00039446 0.0811525 0)
(0.00166675 0.0930177 0)
(0.00154445 0.107056 0)
(0.00147641 0.117012 0)
(0.00169191 0.124179 0)
(0.00132299 0.126623 0)
(0.000610665 0.128858 0)
(-9.20989e-05 0.128885 0)
(-0.000377263 0.129264 0)
(0.000166987 0.127095 0)
(0.00177835 0.125302 0)
(0.00492346 0.119667 0)
(0.00946449 0.110646 0)
(0.0165769 0.0980071 0)
(0.0238801 0.0860641 0)
(0.0432729 0.0660967 0)
(0.031955 -0.0102717 0)
(0.0147827 -0.0566384 0)
(0.00261306 -0.0865648 0)
(-0.0014971 -0.119865 0)
(-0.00279394 -0.167544 0)
(0.014113 -0.176192 0)
(-0.00761729 -0.117791 0)
(0.0129703 -0.0839783 0)
(0.0173229 -0.0565789 0)
(0.0216383 -0.0345506 0)
(0.0245456 -0.028204 0)
(0.0247327 -0.0235975 0)
(-0.010592 0.0382165 0)
(-0.00580091 0.081506 0)
(-0.00254085 0.0950681 0)
(-0.000675963 0.107533 0)
(3.43799e-05 0.115509 0)
(0.000618148 0.121827 0)
(0.000646735 0.125767 0)
(0.00047889 0.12957 0)
(0.000263103 0.1302 0)
(0.00017711 0.131195 0)
(0.000508553 0.130012 0)
(0.00168552 0.128792 0)
(0.00382839 0.124767 0)
(0.00748079 0.119725 0)
(0.0116951 0.109494 0)
(0.0178232 0.100687 0)
(0.0233454 0.0881583 0)
(0.0413796 0.0648834 0)
(0.0269385 -0.00877513 0)
(0.00796061 -0.0474994 0)
(-0.0027632 -0.0734374 0)
(-0.00550207 -0.110624 0)
(-0.00579845 -0.1591 0)
(0.0133385 -0.169488 0)
(-0.0102931 -0.104081 0)
(0.00770308 -0.0815191 0)
(0.0142284 -0.054099 0)
(0.0189036 -0.0297225 0)
(0.0218884 -0.0191368 0)
(0.0206149 -0.00709902 0)
(-0.0167628 0.0554919 0)
(-0.0133021 0.0979711 0)
(-0.00635365 0.111087 0)
(-0.00476686 0.121925 0)
(-0.00373912 0.130244 0)
(-0.00232144 0.132998 0)
(-0.0014232 0.135504 0)
(-0.00098203 0.136402 0)
(-0.000500979 0.13721 0)
(0.000124498 0.13615 0)
(0.00116992 0.135478 0)
(0.00287239 0.132657 0)
(0.00535124 0.130059 0)
(0.0092106 0.124362 0)
(0.0130809 0.116994 0)
(0.019221 0.108895 0)
(0.023717 0.0980428 0)
(0.040106 0.0702753 0)
(0.022829 0.0034266 0)
(0.00328493 -0.0285456 0)
(-0.00637272 -0.059584 0)
(-0.00867679 -0.101552 0)
(-0.00956755 -0.150371 0)
(0.0125058 -0.161353 0)
(-0.0125374 -0.0852995 0)