/*--------------------------------*- C++ -*----------------------------------*\
| =========                 |                                                 |
| \\      /  F ield         | OpenFOAM: The Open Source CFD Toolbox           |
|  \\    /   O peration     | Version:  2.3.0                                 |
|   \\  /    A nd           | Web:      www.OpenFOAM.org                      |
|    \\/     M anipulation  |                                                 |
\*---------------------------------------------------------------------------*/
FoamFile
{
    version     2.0;
    format      ascii;
    class       volVectorField;
    location    "0.53";
    object      Ur;
}
// * * * * * * * * * * * * * * * * * * * * * * * * * * * * * * * * * * * * * //

dimensions      [0 1 -1 0 0 0 0];

internalField   nonuniform List<vector> 
6000
(
(0.0405195 -0.619028 0)
(0.0860721 -0.667172 0)
(0.0734513 -0.60414 0)
(0.0456731 -0.549261 0)
(0.035212 -0.544637 0)
(0.0131534 -0.555533 0)
(-0.0555194 -0.55906 0)
(-0.144292 -0.579416 0)
(-0.165106 -0.588853 0)
(-0.128599 -0.642897 0)
(-0.0344216 -0.784319 0)
(0.0878108 -0.756947 0)
(0.120088 -0.700896 0)
(0.0697664 -0.678702 0)
(0.00373689 -0.665211 0)
(-0.0586824 -0.696504 0)
(-0.093715 -0.714283 0)
(-0.0349748 -0.792036 0)
(0.0907185 -0.723038 0)
(0.161367 -0.602495 0)
(0.175372 -0.565317 0)
(0.134512 -0.557026 0)
(0.060464 -0.555417 0)
(0.0253173 -0.566959 0)
(0.0288711 -0.571681 0)
(0.0310096 -0.553229 0)
(0.0111516 -0.558396 0)
(-0.0365546 -0.600462 0)
(-0.0722172 -0.649493 0)
(-0.0430028 -0.599204 0)
(-0.0123862 -0.957801 0)
(-0.0508511 -0.992048 0)
(-0.0746517 -1.00467 0)
(-0.0500177 -1.00429 0)
(-0.0442075 -0.937021 0)
(-0.0921151 -0.908344 0)
(-0.140782 -0.880354 0)
(-0.144328 -0.964221 0)
(-0.099799 -1.09485 0)
(-0.0330532 -1.13987 0)
(-0.0122592 -1.19157 0)
(-0.011541 -1.19287 0)
(0.0400642 -1.09699 0)
(0.0624998 -0.972349 0)
(-0.00151838 -0.955602 0)
(-0.0220692 -1.01258 0)
(0.0458333 -1.17024 0)
(0.0707743 -1.18017 0)
(0.0593063 -1.15281 0)
(0.089518 -1.0931 0)
(0.147438 -1.01921 0)
(0.174398 -0.920161 0)
(0.169398 -0.906876 0)
(0.143795 -0.967712 0)
(0.12726 -0.977734 0)
(0.120645 -0.956437 0)
(0.126413 -0.964558 0)
(0.116388 -0.951304 0)
(0.0701982 -0.937139 0)
(0.0192255 -0.917681 0)
(-0.016539 -0.786585 0)
(-0.0625435 -0.756366 0)
(-0.0889159 -0.772987 0)
(-0.0940923 -0.800905 0)
(-0.118092 -0.752641 0)
(-0.179847 -0.726657 0)
(-0.211161 -0.768771 0)
(-0.168934 -0.928094 0)
(-0.103237 -1.00892 0)
(-0.0674448 -1.04536 0)
(-0.0356179 -1.08271 0)
(-0.0191382 -1.07463 0)
(0.0156843 -1.03135 0)
(0.052629 -0.827472 0)
(0.0206515 -0.777837 0)
(0.0154381 -0.948623 0)
(0.0688223 -1.04385 0)
(0.0827601 -1.07297 0)
(0.099121 -1.04715 0)
(0.130221 -1.01069 0)
(0.168643 -0.95023 0)
(0.227938 -0.863198 0)
(0.243864 -0.756269 0)
(0.213816 -0.764849 0)
(0.182942 -0.780625 0)
(0.170968 -0.7709 0)
(0.167822 -0.738532 0)
(0.143749 -0.686703 0)
(0.0609062 -0.666296 0)
(0.000818215 -0.756114 0)
(0.0112012 -0.710108 0)
(-0.0438313 -0.590672 0)
(-0.136062 -0.647215 0)
(-0.180475 -0.715174 0)
(-0.215716 -0.715025 0)
(-0.243996 -0.698629 0)
(-0.24895 -0.812065 0)
(-0.204523 -0.93344 0)
(-0.154464 -0.995806 0)
(-0.101306 -1.04646 0)
(-0.0457927 -1.06026 0)
(-0.000795707 -1.05013 0)
(0.025249 -0.996164 0)
(0.0523635 -0.855206 0)
(0.046248 -0.708657 0)
(0.031738 -0.947039 0)
(0.050266 -1.01836 0)
(0.0832037 -1.04039 0)
(0.127928 -1.03714 0)
(0.177746 -0.996835 0)
(0.226741 -0.943481 0)
(0.271005 -0.8637 0)
(0.283086 -0.748223 0)
(0.259702 -0.717474 0)
(0.23738 -0.735836 0)
(0.227245 -0.724151 0)
(0.220038 -0.669216 0)
(0.154403 -0.532392 0)
(0.0151822 -0.473155 0)
(-0.037497 -0.705998 0)
(0.0299931 -0.64841 0)
(0.00589961 -0.45177 0)
(-0.0998163 -0.504931 0)
(-0.200712 -0.594364 0)
(-0.265702 -0.622641 0)
(-0.295915 -0.656254 0)
(-0.304367 -0.810033 0)
(-0.273909 -0.941891 0)
(-0.216324 -1.01813 0)
(-0.132857 -1.05237 0)
(-0.039342 -1.06353 0)
(0.0447012 -1.02376 0)
(0.101912 -0.940608 0)
(0.091688 -0.803572 0)
(0.0406718 -0.651161 0)
(-0.00498887 -0.873587 0)
(-0.00233114 -0.969075 0)
(0.0664729 -1.02221 0)
(0.144172 -1.02072 0)
(0.224303 -1.0034 0)
(0.293117 -0.953408 0)
(0.322068 -0.854979 0)
(0.286259 -0.683993 0)
(0.244196 -0.630431 0)
(0.21876 -0.653187 0)
(0.201768 -0.645314 0)
(0.154832 -0.562383 0)
(0.0624045 -0.430193 0)
(-0.00677684 -0.399592 0)
(-0.0178306 -0.64627 0)
(0.0145537 -0.604522 0)
(0.0299708 -0.434904 0)
(0.00145962 -0.455977 0)
(-0.0771028 -0.499373 0)
(-0.167018 -0.511853 0)
(-0.248795 -0.568685 0)
(-0.328235 -0.763946 0)
(-0.342476 -0.966493 0)
(-0.264303 -1.03927 0)
(-0.149315 -1.07549 0)
(-0.0162462 -1.07233 0)
(0.118386 -1.02748 0)
(0.184739 -0.895117 0)
(0.11453 -0.679117 0)
(0.0288993 -0.565809 0)
(-0.0493396 -0.762507 0)
(-0.0671881 -0.937652 0)
(0.032845 -1.00267 0)
(0.148156 -1.01268 0)
(0.248006 -0.988713 0)
(0.323563 -0.950162 0)
(0.291775 -0.784849 0)
(0.199158 -0.586935 0)
(0.147563 -0.540914 0)
(0.119535 -0.570617 0)
(0.0787228 -0.567693 0)
(0.0074682 -0.518131 0)
(-0.0267502 -0.459456 0)
(0.00939693 -0.446963 0)
(0.0207472 -0.608582 0)
(-0.00940637 -0.571137 0)
(0.00560097 -0.479126 0)
(0.0379778 -0.501491 0)
(0.0283721 -0.525163 0)
(-0.0123332 -0.510395 0)
(-0.0762561 -0.516032 0)
(-0.192485 -0.639758 0)
(-0.316086 -0.906423 0)
(-0.296967 -1.04763 0)
(-0.165111 -1.09975 0)
(0.00163251 -1.11716 0)
(0.164331 -1.0809 0)
(0.182464 -0.803262 0)
(0.0778018 -0.551545 0)
(0.0269373 -0.48712 0)
(-0.0340436 -0.635886 0)
(-0.0829398 -0.926762 0)
(0.0127407 -1.03611 0)
(0.159137 -1.01678 0)
(0.254787 -0.970969 0)
(0.242594 -0.85912 0)
(0.129912 -0.63391 0)
(0.0512895 -0.52086 0)
(0.0318427 -0.526155 0)
(0.0134967 -0.566941 0)
(-0.0317796 -0.580616 0)
(-0.0659512 -0.561243 0)
(-0.0471063 -0.526341 0)
(0.00708265 -0.520892 0)
(0.0183291 -0.599782 0)
(-0.00754267 -0.554852 0)
(-0.00185732 -0.525309 0)
(0.023263 -0.543546 0)
(0.0405413 -0.568075 0)
(0.0562023 -0.571198 0)
(0.0709991 -0.567842 0)
(0.0284055 -0.597037 0)
(-0.103079 -0.759235 0)
(-0.218086 -0.987935 0)
(-0.174325 -1.1409 0)
(-0.0195767 -1.18141 0)
(0.127483 -1.12682 0)
(0.0974995 -0.670845 0)
(0.0290819 -0.488012 0)
(0.032947 -0.462118 0)
(0.0258225 -0.548705 0)
(-0.0155418 -0.874504 0)
(0.0433262 -1.09491 0)
(0.163212 -1.03979 0)
(0.164684 -0.886447 0)
(0.0481059 -0.695362 0)
(-0.0573006 -0.569984 0)
(-0.0792494 -0.553273 0)
(-0.0530559 -0.577566 0)
(-0.0429258 -0.606497 0)
(-0.0554457 -0.614061 0)
(-0.0613329 -0.600698 0)
(-0.0393643 -0.587317 0)
(-0.0052358 -0.587036 0)
(0.00512759 -0.603847 0)
(-0.00819936 -0.558336 0)
(-0.0119732 -0.567637 0)
(0.00316625 -0.586109 0)
(0.0261569 -0.607781 0)
(0.058426 -0.624782 0)
(0.10583 -0.637802 0)
(0.150911 -0.661979 0)
(0.11553 -0.731188 0)
(-0.00415698 -0.889384 0)
(-0.0784546 -1.11009 0)
(-0.0373799 -1.22405 0)
(0.0249348 -1.11559 0)
(0.00457272 -0.596104 0)
(0.000108606 -0.492286 0)
(0.0426505 -0.482498 0)
(0.082008 -0.536743 0)
(0.0888718 -0.81318 0)
(0.0965413 -1.09962 0)
(0.0820099 -0.964197 0)
(-0.0231889 -0.755499 0)
(-0.140056 -0.653825 0)
(-0.167948 -0.630726 0)
(-0.121412 -0.633108 0)
(-0.0777697 -0.636587 0)
(-0.0574265 -0.636206 0)
(-0.0571953 -0.633217 0)
(-0.0582334 -0.633381 0)
(-0.0393877 -0.647421 0)
(-0.00263704 -0.665139 0)
(0.00845045 -0.635915 0)
(-0.0196661 -0.587103 0)
(-0.0333478 -0.622288 0)
(-0.0184917 -0.633105 0)
(0.00238615 -0.646029 0)
(0.0363148 -0.671952 0)
(0.0866184 -0.699755 0)
(0.145213 -0.736526 0)
(0.188079 -0.800699 0)
(0.161181 -0.920623 0)
(0.0876949 -1.11721 0)
(0.0306965 -1.20404 0)
(-0.019641 -1.06809 0)
(-0.0352014 -0.616183 0)
(0.00502876 -0.527904 0)
(0.0484986 -0.519411 0)
(0.102706 -0.578786 0)
(0.14463 -0.801825 0)
(0.0928304 -0.991116 0)
(-0.0600564 -0.839394 0)
(-0.191085 -0.731105 0)
(-0.232218 -0.71969 0)
(-0.189475 -0.726179 0)
(-0.119407 -0.722465 0)
(-0.0649479 -0.697584 0)
(-0.0445635 -0.660603 0)
(-0.0544754 -0.64255 0)
(-0.0754474 -0.647742 0)
(-0.0722234 -0.668266 0)
(0.00709478 -0.76368 0)
(0.0362989 -0.668777 0)
(-0.0449719 -0.622768 0)
(-0.0592098 -0.675411 0)
(-0.0161476 -0.643427 0)
(-0.00591021 -0.640539 0)
(0.00684288 -0.68012 0)
(0.0466164 -0.724129 0)
(0.0947516 -0.773167 0)
(0.132317 -0.842582 0)
(0.163236 -1.03965 0)
(0.209734 -1.30287 0)
(0.201594 -1.21272 0)
(0.083466 -0.977954 0)
(0.0201843 -0.653975 0)
(0.0384663 -0.554219 0)
(0.0540928 -0.548116 0)
(0.0894225 -0.625114 0)
(0.110821 -0.776404 0)
(0.000342945 -0.833623 0)
(-0.17718 -0.766911 0)
(-0.268397 -0.762349 0)
(-0.264838 -0.779614 0)
(-0.194706 -0.799855 0)
(-0.0966433 -0.793448 0)
(-0.0154114 -0.720268 0)
(-0.00224589 -0.629338 0)
(-0.0442717 -0.598522 0)
(-0.0646833 -0.64229 0)
(-0.0699761 -0.774435 0)
(0.00661296 -0.98566 0)
(0.0465193 -0.79923 0)
(-0.0493396 -0.795475 0)
(-0.0635715 -0.870126 0)
(-0.0178903 -0.770747 0)
(-0.0186765 -0.714779 0)
(-0.0189861 -0.757421 0)
(0.0105942 -0.806861 0)
(0.0468802 -0.845011 0)
(0.0609399 -0.899644 0)
(0.103608 -1.16926 0)
(0.294152 -1.52051 0)
(0.392336 -1.19303 0)
(0.258205 -0.826739 0)
(0.13191 -0.631057 0)
(0.0853059 -0.545755 0)
(0.060162 -0.550764 0)
(0.0589087 -0.625496 0)
(0.0192588 -0.688885 0)
(-0.10799 -0.696056 0)
(-0.251723 -0.709519 0)
(-0.304568 -0.776463 0)
(-0.252176 -0.874923 0)
(-0.164142 -0.906919 0)
(-0.0506057 -0.927252 0)
(0.045122 -0.826909 0)
(0.0538474 -0.701091 0)
(0.00548693 -0.689333 0)
(-0.0336832 -0.821306 0)
(-0.0191642 -1.14075 0)
(0.0680128 -1.42227 0)
(0.054707 -1.04837 0)
(-0.0743855 -1.08144 0)
(-0.132444 -1.28803 0)
(-0.070379 -1.17793 0)
(-0.020732 -1.06778 0)
(0.0152393 -1.15118 0)
(0.049137 -1.23886 0)
(0.0840435 -1.24647 0)
(0.111516 -1.26113 0)
(0.151964 -1.52917 0)
(0.263153 -1.8189 0)
(0.371734 -1.17693 0)
(0.350552 -0.650328 0)
(0.213451 -0.545089 0)
(0.122187 -0.50277 0)
(0.0637904 -0.529744 0)
(0.0238734 -0.582926 0)
(-0.0563227 -0.580913 0)
(-0.186381 -0.579034 0)
(-0.301878 -0.632211 0)
(-0.3036 -0.858532 0)
(-0.211779 -1.1658 0)
(-0.10194 -1.37752 0)
(0.0136005 -1.52107 0)
(0.12669 -1.39522 0)
(0.195293 -1.16138 0)
(0.243057 -1.16927 0)
(0.293832 -1.35638 0)
(0.33699 -1.43468 0)
(0.281267 -1.38221 0)
(0.0940147 -0.964679 0)
(-0.0899508 -0.961833 0)
(-0.21921 -1.33853 0)
(-0.184377 -1.41389 0)
(-0.065948 -1.42307 0)
(0.0333374 -1.49592 0)
(0.0782891 -1.52376 0)
(0.106091 -1.57177 0)
(0.139247 -1.58194 0)
(0.121542 -1.6739 0)
(0.0690164 -1.73346 0)
(0.225447 -1.41754 0)
(0.279028 -0.566388 0)
(0.229972 -0.444054 0)
(0.136811 -0.439623 0)
(0.0639404 -0.502118 0)
(-0.00386924 -0.530794 0)
(-0.103684 -0.483349 0)
(-0.224017 -0.483091 0)
(-0.28347 -0.641225 0)
(-0.251804 -1.28473 0)
(-0.0303226 -1.70878 0)
(0.108694 -1.6927 0)
(0.179213 -1.69232 0)
(0.258937 -1.57907 0)
(0.420695 -1.4662 0)
(0.568782 -1.35574 0)
(0.592986 -1.28073 0)
(0.488321 -1.20654 0)
(0.294264 -1.0344 0)
(0.0822118 -0.633316 0)
(-0.0681428 -0.679056 0)
(-0.203744 -1.1262 0)
(-0.215891 -1.33028 0)
(-0.128526 -1.38196 0)
(-0.0355042 -1.437 0)
(0.0251503 -1.51387 0)
(0.0628802 -1.53304 0)
(0.0819431 -1.58985 0)
(0.0392866 -1.61804 0)
(-0.0395964 -1.65524 0)
(-0.0354207 -1.54171 0)
(0.13679 -0.724294 0)
(0.222732 -0.361073 0)
(0.13881 -0.369806 0)
(0.0568926 -0.451418 0)
(-0.027038 -0.469356 0)
(-0.131135 -0.398261 0)
(-0.226815 -0.440735 0)
(-0.199748 -0.952063 0)
(0.0168369 -1.61055 0)
(0.134061 -1.67501 0)
(0.17249 -1.70477 0)
(0.250337 -1.67689 0)
(0.386847 -1.63881 0)
(0.564246 -1.49233 0)
(0.693637 -1.30228 0)
(0.601694 -1.08059 0)
(0.387551 -0.910835 0)
(0.164463 -0.749625 0)
(0.0323231 -0.472893 0)
(-0.0396319 -0.536398 0)
(-0.151497 -0.96289 0)
(-0.23558 -1.32356 0)
(-0.187915 -1.39383 0)
(-0.106712 -1.46877 0)
(-0.0364852 -1.50438 0)
(0.0110611 -1.56746 0)
(0.0301064 -1.57822 0)
(0.00290057 -1.63191 0)
(-0.0624507 -1.61132 0)
(-0.118566 -1.58307 0)
(0.0972203 -1.21282 0)
(0.178156 -0.36362 0)
(0.119437 -0.301828 0)
(0.0425209 -0.38077 0)
(-0.0381435 -0.383823 0)
(-0.136029 -0.310018 0)
(-0.186503 -0.561353 0)
(-0.0898366 -1.35078 0)
(0.0955052 -1.60917 0)
(0.123829 -1.69127 0)
(0.160038 -1.70917 0)
(0.265933 -1.75712 0)
(0.427548 -1.70964 0)
(0.652207 -1.62246 0)
(0.638596 -1.1676 0)
(0.406146 -0.784406 0)
(0.196823 -0.622256 0)
(0.0471914 -0.554233 0)
(-0.00438754 -0.410682 0)
(-0.0174464 -0.453309 0)
(-0.0919549 -0.809283 0)
(-0.230353 -1.23249 0)
(-0.251475 -1.42037 0)
(-0.161702 -1.46193 0)
(-0.0915194 -1.52922 0)
(-0.0354172 -1.54477 0)
(-0.00856184 -1.59428 0)
(-0.0160709 -1.59212 0)
(-0.0463755 -1.61142 0)
(-0.0619958 -1.56465 0)
(0.0268133 -1.40222 0)
(0.118893 -0.525185 0)
(0.104668 -0.251178 0)
(0.0405791 -0.31821 0)
(-0.0205651 -0.303642 0)
(-0.102538 -0.246633 0)
(-0.15465 -0.765022 0)
(-0.0597272 -1.43851 0)
(0.0231115 -1.60799 0)
(0.0557349 -1.66238 0)
(0.103504 -1.74581 0)
(0.210417 -1.77562 0)
(0.399003 -1.83006 0)
(0.578696 -1.67088 0)
(0.404832 -0.891532 0)
(0.19851 -0.546779 0)
(0.0742559 -0.469344 0)
(0.00330014 -0.458999 0)
(-0.0104746 -0.394282 0)
(-0.00530103 -0.402336 0)
(-0.0514724 -0.67365 0)
(-0.197535 -1.0421 0)
(-0.284441 -1.42759 0)
(-0.205057 -1.48747 0)
(-0.132176 -1.50533 0)
(-0.0752279 -1.55729 0)
(-0.0382723 -1.55938 0)
(-0.0288056 -1.59262 0)
(-0.0310891 -1.57324 0)
(-0.0190681 -1.57119 0)
(0.0199316 -1.45622 0)
(0.0818398 -0.718389 0)
(0.0736766 -0.221693 0)
(0.0397245 -0.269274 0)
(0.00765772 -0.263415 0)
(-0.0447208 -0.226205 0)
(-0.135165 -0.817057 0)
(-0.132214 -1.45308 0)
(-0.0757271 -1.58538 0)
(-0.0365196 -1.66899 0)
(0.0109485 -1.7202 0)
(0.103025 -1.82724 0)
(0.261007 -1.85031 0)
(0.343171 -1.58874 0)
(0.190745 -0.685176 0)
(0.0826132 -0.438508 0)
(0.0185636 -0.419368 0)
(0.000446816 -0.454084 0)
(0.00271032 -0.395725 0)
(-0.00214649 -0.367014 0)
(-0.0335437 -0.567889 0)
(-0.148399 -0.844232 0)
(-0.27834 -1.41675 0)
(-0.233672 -1.47374 0)
(-0.166064 -1.52425 0)
(-0.101593 -1.52184 0)
(-0.0600136 -1.56282 0)
(-0.0383521 -1.55239 0)
(-0.0252846 -1.57595 0)
(0.00249859 -1.54968 0)
(0.0473459 -1.48495 0)
(0.0872164 -0.834393 0)
(0.0523697 -0.219812 0)
(0.0261979 -0.23931 0)
(0.0226843 -0.243204 0)
(0.0124508 -0.2193 0)
(-0.11116 -0.750508 0)
(-0.217438 -1.4413 0)
(-0.166574 -1.59363 0)
(-0.125023 -1.6421 0)
(-0.0909386 -1.72138 0)
(-0.0300758 -1.77025 0)
(0.0703291 -1.83357 0)
(0.0660139 -1.47495 0)
(0.0259762 -0.634355 0)
(0.0332998 -0.428926 0)
(-0.00741352 -0.414118 0)
(0.0100422 -0.517531 0)
(0.0286359 -0.391611 0)
(-0.00166983 -0.33938 0)
(-0.0225335 -0.489458 0)
(-0.0966145 -0.677878 0)
(-0.238375 -1.31814 0)
(-0.255469 -1.47289 0)
(-0.180415 -1.48298 0)
(-0.126834 -1.52647 0)
(-0.0794524 -1.52014 0)
(-0.0518983 -1.55454 0)
(-0.0257495 -1.5403 0)
(0.0122201 -1.55756 0)
(0.0707708 -1.47409 0)
(0.0844649 -0.881465 0)
(0.0354028 -0.226449 0)
(0.0188035 -0.222762 0)
(0.0295118 -0.220481 0)
(0.0347774 -0.21455 0)
(-0.0746664 -0.633077 0)
(-0.259535 -1.42598 0)
(-0.231299 -1.5536 0)
(-0.194795 -1.62398 0)
(-0.176625 -1.65476 0)
(-0.138612 -1.72213 0)
(-0.108051 -1.70596 0)
(-0.177425 -1.34694 0)
(-0.13795 -0.736682 0)
(-0.0245462 -0.472571 0)
(0.00031132 -0.411061 0)
(0.0380851 -0.598254 0)
(0.0389186 -0.354429 0)
(-0.00104804 -0.317328 0)
(-0.0106217 -0.434692 0)
(-0.0521093 -0.550996 0)
(-0.186116 -1.15387 0)
(-0.259016 -1.42809 0)
(-0.201542 -1.47314 0)
(-0.13817 -1.47462 0)
(-0.102313 -1.51482 0)
(-0.0724118 -1.51125 0)
(-0.0349887 -1.53567 0)
(0.0138779 -1.5296 0)
(0.0756344 -1.49182 0)
(0.0814658 -0.915662 0)
(0.0341187 -0.229651 0)
(0.0191342 -0.20256 0)
(0.0292469 -0.198065 0)
(0.0358644 -0.201826 0)
(-0.0517227 -0.511429 0)
(-0.256028 -1.38721 0)
(-0.267108 -1.52053 0)
(-0.240094 -1.55098 0)
(-0.222235 -1.59391 0)
(-0.201965 -1.59127 0)
(-0.199431 -1.57257 0)
(-0.28515 -1.26351 0)
(-0.244328 -0.88654 0)
(-0.0902607 -0.613749 0)
(0.0129571 -0.465242 0)
(0.0488987 -0.605921 0)
(0.0225253 -0.308861 0)
(0.000896503 -0.299045 0)
(0.000846764 -0.394856 0)
(-0.0177737 -0.457261 0)
(-0.134516 -0.963036 0)
(-0.253051 -1.37565 0)
(-0.219838 -1.41077 0)
(-0.166564 -1.46261 0)
(-0.121138 -1.46949 0)
(-0.093072 -1.50323 0)
(-0.0516952 -1.49402 0)
(-0.00598394 -1.51828 0)
(0.0563694 -1.46564 0)
(0.0742433 -0.952725 0)
(0.0383866 -0.235776 0)
(0.0201982 -0.178668 0)
(0.0240308 -0.177005 0)
(0.0336517 -0.186841 0)
(-0.0267644 -0.412756 0)
(-0.229939 -1.29927 0)
(-0.27638 -1.45023 0)
(-0.268 -1.49261 0)
(-0.231532 -1.4924 0)
(-0.199067 -1.48663 0)
(-0.1888 -1.43222 0)
(-0.246261 -1.20759 0)
(-0.202316 -0.962023 0)
(-0.0928025 -0.702811 0)
(0.00328902 -0.506498 0)
(0.0220009 -0.513039 0)
(0.00126176 -0.256251 0)
(0.00257177 -0.278038 0)
(0.0121873 -0.363195 0)
(0.0104546 -0.387154 0)
(-0.0813726 -0.756039 0)
(-0.240894 -1.27878 0)
(-0.250895 -1.36789 0)
(-0.207451 -1.40158 0)
(-0.159504 -1.45334 0)
(-0.102641 -1.45629 0)
(-0.0484113 -1.4672 0)
(-0.0125792 -1.44656 0)
(0.0195196 -1.40988 0)
(0.0598104 -0.997784 0)
(0.0407545 -0.256413 0)
(0.0199404 -0.168231 0)
(0.0173722 -0.179536 0)
(0.0337327 -0.189675 0)
(0.0135312 -0.363335 0)
(-0.167814 -1.14961 0)
(-0.268398 -1.37317 0)
(-0.263275 -1.4025 0)
(-0.230748 -1.4281 0)
(-0.154568 -1.38636 0)
(-0.117283 -1.32676 0)
(-0.140494 -1.1531 0)
(-0.0859932 -0.963147 0)
(-0.0422677 -0.666635 0)
(-0.0200474 -0.483646 0)
(-0.0142078 -0.418642 0)
(-0.0104682 -0.225549 0)
(0.00534549 -0.252332 0)
(0.023943 -0.328125 0)
(0.0357144 -0.333634 0)
(-0.0182486 -0.555208 0)
(-0.213194 -1.102 0)
(-0.310646 -1.29776 0)
(-0.260087 -1.37104 0)
(-0.185789 -1.39389 0)
(-0.10288 -1.41028 0)
(-0.0466681 -1.37743 0)
(-0.0165674 -1.38038 0)
(0.0135091 -1.33997 0)
(0.0381211 -0.996618 0)
(0.0202659 -0.296249 0)
(0.000197718 -0.187245 0)
(0.00259292 -0.240887 0)
(0.0474008 -0.264116 0)
(0.074273 -0.38847 0)
(-0.0450012 -0.93973 0)
(-0.213361 -1.28276 0)
(-0.233256 -1.33633 0)
(-0.204616 -1.34325 0)
(-0.112464 -1.3382 0)
(-0.0457579 -1.25441 0)
(-0.0526561 -1.11941 0)
(-0.0106856 -0.942191 0)
(-0.0173526 -0.589946 0)
(-0.0407322 -0.428491 0)
(-0.0403162 -0.349884 0)
(-0.0168187 -0.216967 0)
(0.0115282 -0.240076 0)
(0.0347838 -0.289458 0)
(0.0538128 -0.294341 0)
(0.0398715 -0.402075 0)
(-0.134163 -0.794081 0)
(-0.34142 -1.23015 0)
(-0.289297 -1.30964 0)
(-0.194452 -1.34082 0)
(-0.0984125 -1.32235 0)
(-0.047521 -1.31894 0)
(-0.0208769 -1.30856 0)
(0.0162251 -1.28159 0)
(0.00521972 -0.926806 0)
(-0.0441171 -0.324578 0)
(-0.0640184 -0.227286 0)
(-0.0328093 -0.378719 0)
(0.0807405 -0.443107 0)
(0.181475 -0.480648 0)
(0.12073 -0.735376 0)
(-0.0734296 -1.11037 0)
(-0.165704 -1.28911 0)
(-0.143415 -1.29282 0)
(-0.0576432 -1.27113 0)
(6.37544e-05 -1.20809 0)
(-0.0197257 -1.07641 0)
(-0.0170093 -0.889191 0)
(-0.0393317 -0.517864 0)
(-0.0575657 -0.366817 0)
(-0.0503956 -0.301149 0)
(-0.0191503 -0.215918 0)
(0.0151712 -0.244099 0)
(0.0430402 -0.271963 0)
(0.0686308 -0.278161 0)
(0.0762154 -0.31892 0)
(-0.0196525 -0.515894 0)
(-0.261094 -1.07405 0)
(-0.297817 -1.25927 0)
(-0.191221 -1.26913 0)
(-0.0971382 -1.27584 0)
(-0.0474853 -1.26522 0)
(-0.0225728 -1.26588 0)
(0.00888804 -1.21676 0)
(-0.0424994 -0.803944 0)
(-0.116376 -0.30991 0)
(-0.161668 -0.296475 0)
(-0.107097 -0.588289 0)
(0.0984273 -0.718341 0)
(0.24033 -0.61907 0)
(0.246505 -0.671461 0)
(0.116003 -0.902247 0)
(-0.0138204 -1.19344 0)
(-0.0293678 -1.27905 0)
(0.0169867 -1.21597 0)
(0.010591 -1.15857 0)
(-0.0501966 -0.994933 0)
(-0.0624422 -0.797675 0)
(-0.0789673 -0.454362 0)
(-0.0790758 -0.322485 0)
(-0.0578231 -0.271678 0)
(-0.0202764 -0.221232 0)
(0.0167663 -0.258704 0)
(0.0493268 -0.274066 0)
(0.0809785 -0.279749 0)
(0.104746 -0.291774 0)
(0.0817772 -0.370474 0)
(-0.0884903 -0.786216 0)
(-0.256219 -1.19723 0)
(-0.17671 -1.23459 0)
(-0.091311 -1.22006 0)
(-0.045621 -1.21214 0)
(-0.0214543 -1.19976 0)
(-0.0190033 -1.13783 0)
(-0.0943351 -0.671462 0)
(-0.164135 -0.292304 0)
(-0.205261 -0.367656 0)
(-0.143474 -0.72012 0)
(0.023684 -0.832174 0)
(0.188174 -0.806211 0)
(0.284871 -0.734205 0)
(0.268725 -0.818961 0)
(0.208568 -1.09064 0)
(0.163986 -1.2487 0)
(0.112257 -1.1611 0)
(-0.0223166 -0.986816 0)
(-0.122199 -0.911973 0)
(-0.112229 -0.718792 0)
(-0.113097 -0.412656 0)
(-0.0994228 -0.303564 0)
(-0.0642493 -0.265552 0)
(-0.0217563 -0.236206 0)
(0.0187785 -0.282613 0)
(0.056406 -0.290705 0)
(0.0941223 -0.293998 0)
(0.129539 -0.295181 0)
(0.142635 -0.320497 0)
(0.0591033 -0.550743 0)
(-0.110013 -1.07604 0)
(-0.11945 -1.20998 0)
(-0.0567474 -1.16849 0)
(-0.0350526 -1.14528 0)
(-0.0251358 -1.11492 0)
(-0.0664171 -1.0116 0)
(-0.148489 -0.558012 0)
(-0.205304 -0.306358 0)
(-0.226566 -0.45276 0)
(-0.153406 -0.8091 0)
(-0.0208686 -0.873788 0)
(0.106774 -0.894421 0)
(0.255919 -0.87495 0)
(0.358101 -0.885431 0)
(0.404781 -1.08324 0)
(0.366167 -1.17258 0)
(0.156176 -0.985151 0)
(-0.105121 -0.759265 0)
(-0.18753 -0.882739 0)
(-0.145681 -0.67148 0)
(-0.136358 -0.395448 0)
(-0.113417 -0.308149 0)
(-0.0706292 -0.281824 0)
(-0.023473 -0.263536 0)
(0.0207591 -0.314283 0)
(0.0631003 -0.318612 0)
(0.106657 -0.320167 0)
(0.151173 -0.318903 0)
(0.183112 -0.32487 0)
(0.166641 -0.456403 0)
(0.0772128 -0.902234 0)
(0.0211056 -1.17126 0)
(0.0315792 -1.10362 0)
(0.00225747 -1.05291 0)
(-0.0499952 -0.999174 0)
(-0.143676 -0.843798 0)
(-0.212886 -0.486657 0)
(-0.2497 -0.352752 0)
(-0.239262 -0.561559 0)
(-0.147382 -0.857126 0)
(-0.0479594 -0.896846 0)
(0.0557347 -0.935873 0)
(0.198228 -0.979651 0)
(0.360035 -1.04772 0)
(0.462472 -1.15244 0)
(0.418723 -1.04817 0)
(0.0950971 -0.724077 0)
(-0.168251 -0.644238 0)
(-0.188248 -0.882724 0)
(-0.15352 -0.637287 0)
(-0.151819 -0.394697 0)
(-0.123905 -0.331461 0)
(-0.0759698 -0.313465 0)
(-0.025158 -0.301616 0)
(0.0219521 -0.352578 0)
(0.0681001 -0.356148 0)
(0.116795 -0.356015 0)
(0.167146 -0.355542 0)
(0.214226 -0.362026 0)
(0.233898 -0.460494 0)
(0.214297 -0.802486 0)
(0.179356 -1.05493 0)
(0.130909 -0.958064 0)
(0.0479928 -0.855329 0)
(-0.0740785 -0.780205 0)
(-0.203954 -0.652661 0)
(-0.251764 -0.458792 0)
(-0.246396 -0.420227 0)
(-0.207355 -0.649408 0)
(-0.133559 -0.864303 0)
(-0.0815136 -0.898959 0)
(-0.0093281 -0.955679 0)
(0.107108 -1.03723 0)
(0.245131 -1.13628 0)
(0.357464 -1.23501 0)
(0.27835 -0.911486 0)
(0.00259062 -0.542278 0)
(-0.143553 -0.617626 0)
(-0.14554 -0.838518 0)
(-0.161607 -0.598646 0)
(-0.165337 -0.408805 0)
(-0.132161 -0.367226 0)
(-0.0799709 -0.355135 0)
(-0.0264863 -0.347537 0)
(0.0209066 -0.396678 0)
(0.0702389 -0.405535 0)
(0.124413 -0.400035 0)
(0.175764 -0.399761 0)
(0.226656 -0.416361 0)
(0.263108 -0.520108 0)
(0.271049 -0.777974 0)
(0.229661 -0.929001 0)
(0.148527 -0.807521 0)
(0.0586377 -0.682348 0)
(-0.0536928 -0.611424 0)
(-0.155054 -0.539595 0)
(-0.199321 -0.438076 0)
(-0.182794 -0.489384 0)
(-0.12356 -0.708279 0)
(-0.0891549 -0.82116 0)
(-0.0967693 -0.858081 0)
(-0.0834399 -0.950919 0)
(-0.0152361 -1.05979 0)
(0.0876505 -1.18452 0)
(0.17005 -1.29284 0)
(0.115946 -0.86201 0)
(-0.0330983 -0.441555 0)
(-0.0996736 -0.583353 0)
(-0.115081 -0.743097 0)
(-0.171141 -0.555183 0)
(-0.177855 -0.436151 0)
(-0.136924 -0.410381 0)
(-0.0819054 -0.403358 0)
(-0.0270019 -0.398242 0)
(0.0136083 -0.442063 0)
(0.0689393 -0.478399 0)
(0.134776 -0.452652 0)
(0.179379 -0.445344 0)
(0.220122 -0.471952 0)
(0.251412 -0.583324 0)
(0.250796 -0.761262 0)
(0.185367 -0.817609 0)
(0.0902533 -0.725322 0)
(0.0173128 -0.652508 0)
(-0.0379392 -0.615338 0)
(-0.0656733 -0.549377 0)
(-0.0590728 -0.45958 0)
(-0.0324744 -0.519187 0)
(-0.0286335 -0.702977 0)
(-0.0348337 -0.74049 0)
(-0.0613878 -0.760914 0)
(-0.0993395 -0.87305 0)
(-0.110313 -1.04263 0)
(-0.0657194 -1.17504 0)
(-0.0221975 -1.27701 0)
(-0.00143695 -0.88944 0)
(-0.0661698 -0.377335 0)
(-0.118049 -0.526754 0)
(-0.135212 -0.646012 0)
(-0.1837 -0.531699 0)
(-0.184058 -0.469632 0)
(-0.138494 -0.456621 0)
(-0.0816504 -0.457566 0)
(-0.025962 -0.451748 0)
(-0.0120719 -0.472074 0)
(0.0607295 -0.592046 0)
(0.16192 -0.509796 0)
(0.187032 -0.484287 0)
(0.202166 -0.5108 0)
(0.206338 -0.602491 0)
(0.177992 -0.701413 0)
(0.0991713 -0.716502 0)
(0.0217911 -0.69006 0)
(-0.00448555 -0.67549 0)
(0.00395834 -0.667945 0)
(0.0292749 -0.601728 0)
(0.0792914 -0.525159 0)
(0.0875026 -0.563273 0)
(0.0398155 -0.67328 0)
(0.0197993 -0.678243 0)
(0.0109348 -0.674053 0)
(-0.0237131 -0.748867 0)
(-0.0899784 -0.93221 0)
(-0.127062 -1.13152 0)
(-0.103962 -1.19396 0)
(-0.0822728 -0.872887 0)
(-0.151112 -0.365755 0)
(-0.20133 -0.493298 0)
(-0.195353 -0.582835 0)
(-0.207141 -0.530725 0)
(-0.190167 -0.503642 0)
(-0.145007 -0.506949 0)
(-0.0814594 -0.523904 0)
(-0.0217817 -0.50281 0)
(-0.0171778 -0.485994 0)
(0.0533442 -0.836241 0)
(0.174053 -0.577197 0)
(0.206562 -0.507225 0)
(0.186988 -0.517836 0)
(0.154736 -0.571162 0)
(0.103841 -0.617559 0)
(0.0392056 -0.642097 0)
(-0.0120416 -0.674997 0)
(-0.00452143 -0.718239 0)
(0.0438902 -0.724158 0)
(0.0889816 -0.65765 0)
(0.133374 -0.608054 0)
(0.140837 -0.622618 0)
(0.102139 -0.668843 0)
(0.0708619 -0.667879 0)
(0.0760345 -0.657132 0)
(0.0779404 -0.685438 0)
(0.0349297 -0.797642 0)
(-0.035351 -1.02827 0)
(-0.0697847 -1.11324 0)
(-0.182883 -0.783041 0)
(-0.287546 -0.473172 0)
(-0.276779 -0.521647 0)
(-0.241903 -0.562072 0)
(-0.232691 -0.54552 0)
(-0.207407 -0.539767 0)
(-0.163845 -0.562236 0)
(-0.0784094 -0.612797 0)
(-0.0093921 -0.533122 0)
(-0.0259564 -0.607551 0)
(0.0225462 -1.27382 0)
(0.133841 -0.787479 0)
(0.190388 -0.536366 0)
(0.179031 -0.494577 0)
(0.116795 -0.518876 0)
(0.0514916 -0.549829 0)
(-0.0237103 -0.622987 0)
(-0.0824549 -0.718983 0)
(-0.00772648 -0.816489 0)
(0.0996704 -0.758111 0)
(0.128411 -0.69079 0)
(0.152459 -0.654445 0)
(0.146698 -0.657449 0)
(0.119083 -0.678629 0)
(0.0996886 -0.682518 0)
(0.110144 -0.685674 0)
(0.136326 -0.710774 0)
(0.13428 -0.782665 0)
(0.0812919 -0.982425 0)
(-0.0181634 -1.11111 0)
(-0.244376 -0.81652 0)
(-0.362915 -0.646211 0)
(-0.297871 -0.583053 0)
(-0.261983 -0.571949 0)
(-0.248864 -0.574633 0)
(-0.232015 -0.575872 0)
(-0.180588 -0.625807 0)
(-0.062089 -0.848958 0)
(0.00789249 -0.51706 0)
(-0.0156068 -0.794827 0)
(-0.0431415 -1.37531 0)
(0.0321794 -1.21946 0)
(0.112252 -0.737282 0)
(0.123044 -0.505836 0)
(0.0854035 -0.465961 0)
(-0.0247443 -0.50445 0)
(-0.145269 -0.653418 0)
(-0.141749 -0.90113 0)
(0.0261699 -1.06114 0)
(0.1513 -0.764771 0)
(0.159327 -0.68147 0)
(0.157768 -0.668266 0)
(0.137986 -0.682134 0)
(0.113858 -0.697592 0)
(0.0973315 -0.706246 0)
(0.0960196 -0.72362 0)
(0.109488 -0.761036 0)
(0.12651 -0.840972 0)
(0.0903257 -1.03105 0)
(-0.0377662 -1.17949 0)
(-0.190424 -0.918842 0)
(-0.247549 -0.736973 0)
(-0.238714 -0.612003 0)
(-0.258789 -0.589363 0)
(-0.253689 -0.601579 0)
(-0.209817 -0.703689 0)
(-0.160655 -0.818094 0)
(-0.0579775 -1.36305 0)
(0.0169111 -0.600243 0)
(-0.0227089 -0.760278 0)
(-0.0768877 -1.25289 0)
(-0.112898 -1.2392 0)
(-0.0527659 -1.13924 0)
(0.0369311 -0.76459 0)
(-0.00125005 -0.574904 0)
(-0.148058 -0.585183 0)
(-0.290638 -0.765627 0)
(-0.241193 -1.37965 0)
(-0.00232835 -1.69627 0)
(0.0911444 -0.944053 0)
(0.115879 -0.744327 0)
(0.117545 -0.685559 0)
(0.115273 -0.70225 0)
(0.0980804 -0.719892 0)
(0.0806038 -0.733513 0)
(0.0633083 -0.750815 0)
(0.0481501 -0.78847 0)
(0.0388854 -0.867391 0)
(0.0141737 -1.03513 0)
(-0.0442733 -1.21571 0)
(-0.0613317 -0.995377 0)
(-0.0764414 -0.807625 0)
(-0.165238 -0.667697 0)
(-0.217059 -0.610924 0)
(-0.225436 -0.714315 0)
(-0.212932 -1.08419 0)
(-0.114242 -1.31394 0)
(-0.0818669 -1.58522 0)
(-0.0409444 -0.911859 0)
(-0.0229581 -0.674667 0)
(-0.0738574 -1.14794 0)
(-0.147129 -1.12567 0)
(-0.254933 -1.13571 0)
(-0.31077 -1.06827 0)
(-0.354227 -0.900636 0)
(-0.477885 -0.873625 0)
(-0.533593 -1.16508 0)
(-0.424513 -1.91813 0)
(-0.251578 -2.08157 0)
(-0.143279 -1.74141 0)
(-0.0103958 -1.18857 0)
(0.0424859 -0.88407 0)
(0.0633148 -0.838215 0)
(0.0636753 -0.845906 0)
(0.0552688 -0.854855 0)
(0.040672 -0.864073 0)
(0.0190152 -0.892309 0)
(-0.00423078 -0.962913 0)
(-0.0204293 -1.11351 0)
(-0.00392223 -1.32149 0)
(0.0776748 -1.1474 0)
(0.0621592 -1.02006 0)
(-0.124868 -0.871279 0)
(-0.246262 -0.81036 0)
(-0.223531 -1.18251 0)
(-0.0916736 -1.36705 0)
(-0.0150277 -1.35563 0)
(-0.076985 -1.399 0)
(-0.0642481 -1.13718 0)
(0.000174585 -0.617206 0)
(-0.0338135 -1.0589 0)
(-0.135256 -0.958128 0)
(-0.273978 -0.952363 0)
(-0.41555 -0.913442 0)
(-0.522154 -0.890439 0)
(-0.578603 -0.916181 0)
(-0.572211 -1.29349 0)
(-0.435776 -1.86107 0)
(-0.370606 -1.96648 0)
(-0.375878 -1.87347 0)
(-0.296298 -1.79611 0)
(-0.161549 -1.67955 0)
(-0.052294 -1.53043 0)
(0.0127088 -1.44042 0)
(0.0475261 -1.38263 0)
(0.0654651 -1.34327 0)
(0.0762388 -1.35681 0)
(0.0860893 -1.45673 0)
(0.098248 -1.66454 0)
(0.140786 -1.85213 0)
(0.238672 -1.60304 0)
(0.198618 -1.29825 0)
(-0.0124773 -1.0635 0)
(-0.103019 -1.20625 0)
(-0.0325505 -1.29481 0)
(0.0142832 -1.2686 0)
(0.00101543 -1.25681 0)
(-0.022669 -1.24609 0)
(-0.0110744 -1.13624 0)
(0.0150797 -0.599407 0)
(-0.0163071 -0.918463 0)
(-0.122894 -0.77948 0)
(-0.219705 -0.797749 0)
(-0.300968 -0.759312 0)
(-0.376147 -0.772872 0)
(-0.42518 -0.770241 0)
(-0.477054 -1.25212 0)
(-0.405454 -1.87631 0)
(-0.318665 -1.89509 0)
(-0.314324 -1.84315 0)
(-0.280092 -1.74635 0)
(-0.229178 -1.71238 0)
(-0.163125 -1.66868 0)
(-0.0895696 -1.67588 0)
(-0.0147383 -1.67087 0)
(0.0597919 -1.6943 0)
(0.133251 -1.70668 0)
(0.197378 -1.75232 0)
(0.230881 -1.78074 0)
(0.230393 -1.81307 0)
(0.272932 -1.66843 0)
(0.200274 -1.08883 0)
(0.0659798 -0.861442 0)
(0.0205807 -1.16932 0)
(0.0395328 -1.20669 0)
(0.0459784 -1.19651 0)
(0.0262379 -1.16905 0)
(0.0260503 -1.1583 0)
(0.0257194 -1.09381 0)
(-0.00345167 -0.570345 0)
(-0.0432188 -0.803695 0)
(-0.122643 -0.663757 0)
(-0.176505 -0.733924 0)
(-0.197606 -0.704582 0)
(-0.249463 -0.73894 0)
(-0.298025 -0.666391 0)
(-0.360647 -1.20685 0)
(-0.310368 -1.86142 0)
(-0.238344 -1.90211 0)
(-0.223011 -1.81834 0)
(-0.208488 -1.77741 0)
(-0.175387 -1.71564 0)
(-0.131759 -1.68827 0)
(-0.0745829 -1.65158 0)
(-0.0133285 -1.64887 0)
(0.0508908 -1.6357 0)
(0.115008 -1.65965 0)
(0.169628 -1.67275 0)
(0.208016 -1.71978 0)
(0.219677 -1.71402 0)
(0.233828 -1.59802 0)
(0.158034 -0.930625 0)
(0.0957556 -0.753441 0)
(0.0752087 -1.08578 0)
(0.0735052 -1.13964 0)
(0.0786175 -1.11705 0)
(0.0634923 -1.09239 0)
(0.0728962 -1.05814 0)
(0.0526105 -1.00654 0)
(-0.0324179 -0.509932 0)
(-0.0625866 -0.749546 0)
(-0.0902816 -0.59622 0)
(-0.132967 -0.741433 0)
(-0.143493 -0.7294 0)