/*--------------------------------*- C++ -*----------------------------------*\
| =========                 |                                                 |
| \\      /  F ield         | OpenFOAM: The Open Source CFD Toolbox           |
|  \\    /   O peration     | Version:  2.3.0                                 |
|   \\  /    A nd           | Web:      www.OpenFOAM.org                      |
|    \\/     M anipulation  |                                                 |
\*---------------------------------------------------------------------------*/
FoamFile
{
    version     2.0;
    format      ascii;
    class       volScalarField;
    location    "0.49";
    object      nut.air;
}
// * * * * * * * * * * * * * * * * * * * * * * * * * * * * * * * * * * * * * //

dimensions      [0 2 -1 0 0 0 0];

internalField   nonuniform List<scalar> 
6000
(
0.000511243
0.00421341
0.00731022
0.00828321
0.00869388
0.00891268
0.00904155
0.00912337
0.00917207
0.00919716
0.00921375
0.00923206
0.00924724
0.00925198
0.00924233
0.00925504
0.00925381
0.00923785
0.00921518
0.00919484
0.00917412
0.00913871
0.00908015
0.00900535
0.00889061
0.00868829
0.00828287
0.00727678
0.00411735
0.000511519
0.000420623
0.00286948
0.00563208
0.00745702
0.00842362
0.00896984
0.00930684
0.00952519
0.00964935
0.00971755
0.00977682
0.00984196
0.00988466
0.00988785
0.00986695
0.00989608
0.00989727
0.0098606
0.00978769
0.00972425
0.00966547
0.00956941
0.00941472
0.00921297
0.00891394
0.00840135
0.00746015
0.00564917
0.00291115
0.000420312
0.000356787
0.00246806
0.00506972
0.006946
0.00811702
0.00884612
0.00931011
0.00962199
0.00985646
0.01002
0.0101328
0.0102056
0.0102607
0.0102881
0.0103007
0.0102938
0.0102711
0.0102273
0.0101643
0.0100677
0.00992056
0.0097237
0.00949356
0.00919235
0.00875412
0.00807071
0.00694839
0.00511484
0.00256009
0.00035898
0.000330352
0.00248447
0.00484755
0.00668132
0.00796617
0.00883906
0.00943053
0.00984065
0.0101438
0.0103749
0.0105357
0.0106429
0.0107148
0.0107711
0.0108079
0.0107778
0.0107292
0.0106691
0.0105833
0.0104457
0.0102327
0.00998331
0.00966923
0.00925575
0.00868608
0.00787256
0.00666134
0.00488301
0.00253326
0.0003364
0.000312789
0.00257333
0.00486086
0.00664466
0.00797714
0.00892931
0.00960143
0.0100914
0.0105207
0.0108506
0.01107
0.0112163
0.0113364
0.0114303
0.0114611
0.0114442
0.0113597
0.0112564
0.0111341
0.010944
0.0106472
0.0102725
0.00988309
0.00939173
0.00873018
0.00782391
0.00656948
0.00483616
0.00256883
0.000314609
0.000309406
0.00261455
0.00490653
0.00669189
0.00806387
0.00910183
0.00988481
0.01049
0.0110142
0.011397
0.0116666
0.0118451
0.0119855
0.0120758
0.0121
0.0120956
0.0120225
0.0118941
0.011731
0.0114969
0.0111634
0.010711
0.0102126
0.00960387
0.00883487
0.00783737
0.00653122
0.00479963
0.00253964
0.00031076
0.000323794
0.00261055
0.00492094
0.00676832
0.0081932
0.00930218
0.0101731
0.0109029
0.0115083
0.0119373
0.0122483
0.0124614
0.0126237
0.0127019
0.0127321
0.0127249
0.0126629
0.0125203
0.0123324
0.0120622
0.0116772
0.0111602
0.0105605
0.00985273
0.00898125
0.00787522
0.00644753
0.00465591
0.00249305
0.000328761
0.000341348
0.0025988
0.00489058
0.00677847
0.00829839
0.00951011
0.0104709
0.0112648
0.0119651
0.012454
0.0128124
0.0130774
0.013254
0.0133372
0.0133725
0.0133687
0.0133137
0.0131664
0.0129408
0.0126384
0.0122072
0.0115944
0.0109233
0.0101267
0.00911942
0.00785605
0.00632546
0.00449737
0.00244616
0.000339613
0.000332549
0.00252312
0.0048009
0.00674298
0.00834217
0.00961397
0.0106477
0.0115522
0.0123178
0.012883
0.0132929
0.0136132
0.0138139
0.0139165
0.0139625
0.0139648
0.0139103
0.0137622
0.0135061
0.013173
0.0127023
0.0120052
0.0112017
0.010307
0.00921647
0.00783796
0.00621379
0.00436657
0.00235544
0.000327816
0.000311394
0.00234248
0.00464085
0.00662331
0.00826772
0.00960439
0.010719
0.0116846
0.012479
0.0131299
0.0135949
0.0139703
0.014227
0.0143729
0.0144435
0.0144455
0.0143769
0.0142077
0.0139212
0.0135548
0.0129978
0.0122824
0.0113924
0.0103753
0.00918561
0.00775348
0.00606349
0.00417204
0.0021177
0.000302549
0.000293196
0.00214519
0.00447784
0.00648296
0.00816183
0.00953151
0.0106693
0.0116427
0.0124709
0.0131658
0.013753
0.0141615
0.0144882
0.0146933
0.0147945
0.014797
0.014703
0.0144929
0.0141805
0.0137359
0.0130941
0.0123405
0.0114394
0.0103996
0.00916635
0.00770338
0.00596642
0.00401104
0.00186647
0.000279703
0.000276688
0.00197675
0.00429853
0.00632471
0.0080324
0.00943044
0.0105944
0.011583
0.0124377
0.0131822
0.0138774
0.014284
0.0146493
0.0149095
0.0150442
0.0150499
0.0149371
0.0147077
0.014406
0.0138453
0.0131902
0.0124158
0.0115088
0.0104425
0.00917483
0.00767504
0.00589938
0.00387059
0.00167725
0.000256995
0.000261422
0.00184858
0.00411249
0.0061458
0.00788217
0.00930728
0.0104974
0.0115086
0.0123901
0.0131776
0.0139275
0.0144119
0.0147682
0.0150739
0.0152413
0.0152575
0.015143
0.0149489
0.0146481
0.0139906
0.013306
0.0125196
0.0116021
0.0105084
0.00920614
0.00767102
0.00587397
0.00379262
0.00162734
0.000240587
0.000249821
0.00178029
0.00393615
0.0059603
0.00771867
0.00917509
0.0103944
0.0114305
0.0123355
0.0131485
0.013904
0.0145423
0.0148969
0.015228
0.0154272
0.0154641
0.0153754
0.0152537
0.0148732
0.014174
0.0134639
0.0126691
0.0117252
0.0106117
0.00929171
0.00773188
0.00592506
0.0038562
0.00174155
0.000241933
0.000248673
0.00181022
0.00382492
0.00577995
0.00756401
0.0090504
0.010303
0.0113675
0.0122955
0.0131318
0.0139139
0.0146411
0.0150411
0.0153823
0.0156156
0.0156839
0.0156402
0.0155535
0.0150802
0.0143912
0.0136656
0.0128608
0.0119248
0.0108053
0.00948093
0.00793521
0.00617888
0.00420109
0.00213128
0.000262892
0.000256286
0.00196259
0.00386429
0.0057121
0.00743901
0.00895926
0.0102426
0.0113349
0.0122837
0.0131354
0.0139316
0.014689
0.0151988
0.0155371
0.0158037
0.0159051
0.0159068
0.0158244
0.01532
0.0146742
0.0139828
0.0131881
0.0122487
0.0111269
0.00984039
0.00838769
0.00673965
0.00482234
0.00259601
0.000295374
0.000271635
0.00222619
0.00405611
0.00574113
0.00739708
0.0089261
0.0102319
0.0113463
0.0123098
0.0131698
0.0139685
0.0147365
0.0153095
0.0156757
0.0159754
0.0161169
0.0161656
0.0160928
0.0156301
0.0150192
0.0143635
0.0135905
0.0126452
0.0115368
0.0103648
0.00903667
0.00745755
0.005495
0.00297964
0.000316288
0.000285561
0.00245736
0.00440464
0.00595146
0.00745599
0.00895304
0.0102841
0.0114091
0.0123779
0.0132367
0.0140279
0.0147863
0.0153918
0.0157863
0.016118
0.0162994
0.0163764
0.0163165
0.0159209
0.0153785
0.0147647
0.0140173
0.0130764
0.0120419
0.0110231
0.00974468
0.00814052
0.0060632
0.0032544
0.000332233
0.000296479
0.00265756
0.00480814
0.00638937
0.00768789
0.00907497
0.0103853
0.0115097
0.0124838
0.0133335
0.0141073
0.0148407
0.015444
0.0158694
0.0162368
0.0164539
0.0165449
0.016519
0.0162103
0.015736
0.0151676
0.0144487
0.0135639
0.0126124
0.0116879
0.0103919
0.0086971
0.00645329
0.00342675
0.000345961
0.000306698
0.00284234
0.00521386
0.00687502
0.00808116
0.00932665
0.0105621
0.0116683
0.0126121
0.013454
0.0142044
0.0148994
0.0154714
0.0159381
0.0163448
0.0165935
0.0166833
0.0166763
0.0164701
0.0160681
0.0155474
0.0148757
0.0140654
0.0132018
0.0122876
0.0109362
0.00913878
0.00672754
0.00351724
0.000365816
0.000315915
0.00301209
0.00558369
0.00735609
0.00855995
0.00965424
0.0107843
0.0118651
0.0127762
0.0135769
0.0143144
0.014972
0.0155046
0.0160175
0.0164672
0.016734
0.0167952
0.0167755
0.0166712
0.016348
0.0158818
0.0152678
0.0145227
0.0137493
0.0128155
0.0114139
0.00953395
0.00700894
0.00366417
0.000388187
0.00032278
0.00314323
0.00588351
0.00779177
0.00905105
0.0100186
0.0110548
0.0120727
0.0129551
0.0137262
0.014425
0.0150531
0.0155608
0.0161236
0.0165732
0.0168135
0.0168573
0.0168132
0.0167574
0.0165414
0.0161325
0.0155785
0.0149049
0.0141923
0.0132517
0.0118265
0.00992344
0.00736567
0.00388605
0.000413098
0.000327341
0.00322564
0.00609195
0.00812384
0.009477
0.0104095
0.0113539
0.0122855
0.0131119
0.0138361
0.0145164
0.0151045
0.0156334
0.0161815
0.0165339
0.0167342
0.0168333
0.0167902
0.0167039
0.0165823
0.0162717
0.0157752
0.0151786
0.0145194
0.0135806
0.0121513
0.0102732
0.00773708
0.00417285
0.000430772
0.000330744
0.00327218
0.00621189
0.0083433
0.00979321
0.0107824
0.0116372
0.012482
0.0132389
0.0139138
0.0145382
0.0151181
0.015692
0.0161627
0.0164266
0.0166044
0.0167126
0.0167081
0.0165982
0.0164646
0.0162533
0.0158393
0.0153146
0.0147268
0.0138057
0.012366
0.010537
0.00801898
0.00433967
0.000441295
0.000333846
0.00329955
0.00627274
0.00848219
0.0100253
0.0110825
0.0118866
0.0126436
0.013334
0.0139638
0.0145531
0.0151512
0.0157155
0.0160928
0.0163133
0.0164627
0.0165401
0.0165435
0.0164467
0.0162744
0.0160816
0.0157604
0.0153058
0.0148065
0.0138968
0.0124941
0.0106914
0.00812766
0.00439517
0.000447061
0.000336761
0.00331593
0.00629302
0.00852153
0.0101221
0.0112595
0.0120656
0.012751
0.0133799
0.0139676
0.0145716
0.0151816
0.0156938
0.0159814
0.0161744
0.0162939
0.0163376
0.0163086
0.016213
0.0160446
0.0158534
0.015592
0.0151935
0.014769
0.0138585
0.0125062
0.0107219
0.00812219
0.00439777
0.000449589
0.000339159
0.0033208
0.00627891
0.00849939
0.0101152
0.0112878
0.0121308
0.0127788
0.0133558
0.0139593
0.0145885
0.0151572
0.0155743
0.0158205
0.0159938
0.0160835
0.0160934
0.0160306
0.0159114
0.0157671
0.0156151
0.0154221
0.0150423
0.0146495
0.0137245
0.0123963
0.0106265
0.0080456
0.00436681
0.000449504
0.000341066
0.00331399
0.00622034
0.00839204
0.00998745
0.0111721
0.012048
0.0126921
0.0132837
0.0139359
0.0145352
0.0150377
0.0153684
0.0156089
0.0157642
0.0158265
0.0157985
0.0157015
0.0155632
0.0154236
0.015337
0.0152202
0.0148752
0.0144654
0.0135011
0.0121941
0.0104412
0.00791414
0.00431087
0.000447725
0.000341733
0.00328403
0.00610705
0.00820373
0.00974247
0.0109175
0.0118194
0.0125071
0.0131651
0.013829
0.0143952
0.0148246
0.0151329
0.0153672
0.0155018
0.0155312
0.0154618
0.0153257
0.0151705
0.0150475
0.0150271
0.014976
0.0146855
0.0141929
0.0132243
0.01192
0.0101786
0.00772792
0.00423242
0.000443461
0.000340981
0.00308978
0.00588451
0.00793246
0.00941867
0.0105718
0.0114961
0.0122473
0.0129525
0.0136107
0.0141544
0.0145553
0.014877
0.0150963
0.0152024
0.015194
0.0150872
0.014921
0.0147503
0.0146348
0.0146196
0.0145879
0.0143822
0.0139085
0.0129649
0.0116269
0.00988619
0.00750705
0.00412746
0.000436385
0.000342739
0.00298144
0.00557939
0.0075458
0.00904439
0.01021
0.0111675
0.0119743
0.0126812
0.0132788
0.0138223
0.0142493
0.0145543
0.0147689
0.0148554
0.0148188
0.0146826
0.0144919
0.014308
0.0141916
0.0141639
0.0141678
0.0140701
0.013631
0.0126591
0.011271
0.00953864
0.00721007
0.00392846
0.000431258
0.000338123
0.00291593
0.0053794
0.00718485
0.00866388
0.00991226
0.0109363
0.0118007
0.0124072
0.0128512
0.0133452
0.013828
0.0141873
0.0143829
0.0144594
0.0144053
0.0142444
0.0140273
0.0138192
0.013682
0.0136135
0.013583
0.0134926
0.0130948
0.0122395
0.0108924
0.00913353
0.00678051
0.00367782
0.000428663
0.000320673
0.00271356
0.0051021
0.00692606
0.00834265
0.00966948
0.0108354
0.0116734
0.0121033
0.0124777
0.0129315
0.0134087
0.0137943
0.0140513
0.014143
0.0140806
0.013901
0.0136589
0.0134177
0.0132381
0.0131219
0.0130181
0.0128465
0.0125037
0.0117716
0.0104933
0.0086967
0.00643581
0.00355859
0.000422897
0.000311817
0.00257734
0.00487491
0.00673129
0.00817815
0.00950627
0.0106959
0.0114798
0.0118295
0.0122235
0.0126627
0.0131167
0.013498
0.0137544
0.0138481
0.0137769
0.0135771
0.013312
0.0130502
0.0128271
0.0126537
0.0124921
0.0122853
0.0119828
0.0113632
0.0100789
0.00838198
0.00622477
0.00338523
0.000403646
0.000310006
0.00251686
0.00476388
0.00665161
0.00810753
0.00937496
0.010487
0.0112043
0.0115474
0.0119201
0.0123563
0.0128121
0.0132084
0.0134773
0.0135754
0.013499
0.0132812
0.0129802
0.0126571
0.0123643
0.0121231
0.0119064
0.0116734
0.0113956
0.0108489
0.00968553
0.00813361
0.00606599
0.00326072
0.000387818
0.0003103
0.00249619
0.00470111
0.00659216
0.00804449
0.00926242
0.0103116
0.0110026
0.01131
0.0116861
0.012115
0.0125552
0.0129385
0.0131988
0.0132918
0.013211
0.0129866
0.012675
0.0123385
0.0120262
0.0117605
0.0115315
0.0113107
0.0110921
0.0104966
0.00938728
0.0079239
0.00595729
0.00322256
0.000379705
0.000310832
0.00249075
0.00468129
0.00654613
0.00796747
0.00913766
0.0101507
0.0108448
0.0111059
0.0114663
0.0118881
0.0123168
0.0126878
0.012938
0.0130255
0.0129435
0.0127199
0.0124077
0.0120667
0.011746
0.0114719
0.0112477
0.0110574
0.010881
0.0102342
0.00915653
0.00774825
0.00586999
0.00324462
0.000375361
0.000312325
0.00252045
0.00467911
0.00648993
0.00787346
0.00900602
0.00998303
0.0106667
0.0109272
0.0112579
0.0116629
0.0120814
0.0124439
0.0126874
0.0127722
0.012692
0.012473
0.0121649
0.0118251
0.0115024
0.0112281
0.0110132
0.0108554
0.0106832
0.00997492
0.00894416
0.00759982
0.00578483
0.00324867
0.000372932
0.000316571
0.00261117
0.00472999
0.00647285
0.00780555
0.00889189
0.00983138
0.0105047
0.0107401
0.0110461
0.0114333
0.0118435
0.012202
0.0124445
0.0125313
0.0124558
0.012243
0.0119404
0.0116031
0.011281
0.0110088
0.0108059
0.0106811
0.010456
0.00971365
0.00872336
0.00743576
0.00567409
0.00320102
0.000368224
0.000322516
0.00270864
0.00484322
0.00652514
0.00778828
0.0088179
0.0097116
0.0103652
0.0105753
0.0108391
0.0112045
0.011605
0.0119622
0.0122078
0.0123004
0.0122317
0.0120253
0.011727
0.0113919
0.0110716
0.0108078
0.01063
0.0105331
0.0102322
0.0094698
0.0085075
0.00725423
0.00552712
0.00309918
0.000358577
0.000324701
0.00279329
0.00498297
0.00661631
0.00781696
0.00878724
0.00962937
0.0102499
0.010428
0.0106464
0.0109836
0.0113712
0.0117265
0.0119772
0.0120772
0.012016
0.0118148
0.0115188
0.0111839
0.0108663
0.0106155
0.0104811
0.0104318
0.0100471
0.00925349
0.00829906
0.00706181
0.00533651
0.00290204
0.000344613
0.000324101
0.00285505
0.00510122
0.00670677
0.0078629
0.00878011
0.00957348
0.0101563
0.0102904
0.0104676
0.0107751
0.0111465
0.0114981
0.011753
0.0118606
0.0118058
0.0116078
0.0113111
0.0109748
0.0106601
0.0104246
0.0103179
0.0103213
0.00987189
0.00905541
0.00810171
0.0068728
0.00513779
0.00270576
0.000331288
0.000321486
0.00288868
0.00517372
0.00676187
0.00789117
0.00876909
0.00952573
0.0100773
0.0101644
0.0103023
0.0105803
0.0109338
0.0112791
0.0115366
0.0116499
0.0115997
0.0114022
0.0111028
0.0107639
0.0104546
0.0102416
0.0101694
0.0101908
0.00969298
0.00886723
0.00792274
0.00670748
0.00497882
0.00263107
0.000328947
0.000317969
0.00289634
0.00519568
0.00677478
0.00788682
0.00873464
0.00947076
0.0100038
0.010044
0.0101455
0.0103973
0.0107325
0.0110701
0.0113279
0.0114448
0.011397
0.0111983
0.0108946
0.0105535
0.0102499
0.0100556
0.0100259
0.0100443
0.00950988
0.00869206
0.00777263
0.00659337
0.0049154
0.00270725
0.000334582
0.000317694
0.0028629
0.00517744
0.00675184
0.00784604
0.00867177
0.00940321
0.00992113
0.00991902
0.00999676
0.0102223
0.0105405
0.0108697
0.0111265
0.0112452
0.0111983
0.0109972
0.0106899
0.0103481
0.0100528
0.00987793
0.00987683
0.0098914
0.00933709
0.0085422
0.00766508
0.00656265
0.00500455
0.00284674
0.000329567
0.000318804
0.00287457
0.00515723
0.00669979
0.0077723
0.00858381
0.00932241
0.00982599
0.00979248
0.0098432
0.0100472
0.0103526
0.0106755
0.0109311
0.0110511
0.0110042
0.0108011
0.0104913
0.0101517
0.009867
0.00971369
0.00973646
0.00974916
0.00918716
0.00842486
0.007601
0.00657439
0.00510027
0.00291542
0.00031713
0.000316554
0.00291996
0.0051602
0.00664444
0.007682
0.00847939
0.0092176
0.00971043
0.00965766
0.00968229
0.00987206
0.0101659
0.0104842
0.01074
0.0108616
0.0108154
0.010611
0.0103008
0.00996474
0.00969087
0.00955465
0.00960303
0.00960746
0.00905302
0.00832317
0.0075427
0.00654759
0.00508149
0.00287702
0.000303724
0.000310523
0.0029417
0.00516063
0.00659573
0.00759042
0.00836887
0.00911072
0.00958487
0.00951708
0.00951836
0.0096929
0.00997803
0.0102939
0.0105511
0.0106759
0.0106313
0.0104274
0.0101181
0.00978597
0.00951949
0.00939212
0.00945342
0.00946142
0.00892412
0.00821822
0.00745645
0.00645057
0.00497411
0.00277778
0.000293011
0.000302586
0.00291272
0.00513619
0.00654147
0.00749659
0.00825371
0.00898785
0.00945908
0.00938179
0.0093584
0.00951417
0.00979041
0.010104
0.0103638
0.0104926
0.0104515
0.0102499
0.00994287
0.00961425
0.00935291
0.00923
0.00928623
0.00931952
0.00880048
0.00810578
0.00734158
0.00631924
0.00484786
0.00267131
0.000281105
0.000294052
0.00285366
0.00506283
0.00646721
0.00740349
0.00813777
0.00886149
0.00933784
0.0092551
0.00920651
0.00934378
0.00960623
0.00991586
0.0101778
0.0103116
0.0102754
0.0100784
0.00977483
0.00944987
0.00919103
0.00906873
0.00912366
0.00916568
0.00868818
0.00799907
0.00722906
0.00620478
0.00474377
0.00258032
0.000269227
0.000286231
0.00278208
0.00496143
0.00637406
0.00730904
0.00802584
0.00873115
0.00919503
0.00913955
0.00906812
0.00917788
0.00942592
0.00973032
0.00999383
0.0101327
0.010103
0.009913
0.00961544
0.00929481
0.00903762
0.00891147
0.00895575
0.0090268
0.0086057
0.00792496
0.00715505
0.00613938
0.00469274
0.00255528
0.000264361
0.000277929
0.00271322
0.00486055
0.00627309
0.0072157
0.00792756
0.00861405
0.00906647
0.00899702
0.00890929
0.00900798
0.00924926
0.00954935
0.00981311
0.00995693
0.00993465
0.00975484
0.00946657
0.00915365
0.00889982
0.00876934
0.00879539
0.00889743
0.00856981
0.0079097
0.00714018
0.00612919
0.00469249
0.00257857
0.000264323
0.000270928
0.002655
0.00477343
0.00617982
0.00713333
0.007852
0.00851974
0.00894119
0.00884778
0.00875555
0.00885133
0.00908454
0.00937718
0.00963836
0.00978525
0.00977123
0.00960462
0.00933066
0.0090312
0.00878742
0.00865925
0.00867064
0.00879908
0.00859781
0.00796786
0.00718958
0.00616682
0.00472007
0.00259983
0.00026493
0.0002651
0.00260844
0.00470411
0.0061063
0.00707192
0.00780631
0.00846326
0.00884047
0.0087273
0.00864015
0.0087237
0.00893994
0.00921865
0.00947192
0.00961913
0.00961347
0.00946261
0.00920776
0.00892829
0.00870257
0.00858791
0.0086031
0.00874069
0.00869287
0.00810633
0.00729666
0.00624181
0.00476444
0.00260956
0.000265963
0.000259731
0.0025662
0.00464974
0.00605475
0.00703395
0.00778977
0.00844906
0.00877002
0.0086306
0.00855161
0.00862144
0.00881681
0.00907571
0.0093159
0.00946
0.00946206
0.00932789
0.00909552
0.00883969
0.00863559
0.00853762
0.00856322
0.00868869
0.00877986
0.00829511
0.00744708
0.00634686
0.00481625
0.00257749
0.000265904
0.000254712
0.00252192
0.00460529
0.00602258
0.00702019
0.00780525
0.00847817
0.00872029
0.00856007
0.00848495
0.00853972
0.00871217
0.00894824
0.00917157
0.00930966
0.00931776
0.0092003
0.00899116
0.00875928
0.00857435
0.00848513
0.00850404
0.00860028
0.00870913
0.0084595
0.00764353
0.00648689
0.00487677
0.00254303
0.000274199
0.000249988
0.00246826
0.00456538
0.00600697
0.00703187
0.00786461
0.00852404
0.0086478
0.00849212
0.00842252
0.00846748
0.00862022
0.00883369
0.00903916
0.00916934
0.00918253
0.00908079
0.00889451
0.00868498
0.00851513
0.0084272
0.0084309
0.00850178
0.00858784
0.00852068
0.00782014
0.00665872
0.0050067
0.00269918
0.000288752
0.000244897
0.0023796
0.00452318
0.00600496
0.00705838
0.00792014
0.00851552
0.008545
0.00841094
0.00835406
0.00839841
0.00853736
0.00873136
0.00891951
0.0090416
0.00905899
0.00897232
0.00880777
0.00861906
0.00846173
0.0083731
0.00836197
0.0084087
0.00847163
0.00845164
0.00792955
0.00681992
0.00514444
0.00282529
0.00030075
0.000239664
0.00227649
0.0044918
0.00601899
0.00710276
0.00794617
0.00844031
0.00843174
0.00832387
0.00828457
0.00833312
0.00846344
0.00864133
0.00881417
0.00892858
0.00895004
0.00887773
0.00873422
0.00856542
0.00842059
0.00833285
0.00831096
0.008339
0.00838343
0.00838525
0.00798668
0.00691717
0.00526198
0.00292556
0.000307478
0.000249305
0.00234089
0.00450853
0.00604198
0.00713525
0.00793784
0.00834277
0.00833092
0.0082484
0.00822386
0.00827641
0.00839987
0.00856445
0.00872395
0.00883186
0.00885737
0.00879897
0.00867573
0.00852663
0.00839492
0.00831048
0.00828157
0.00829759
0.00833447
0.00836041
0.0080204
0.00697761
0.00535764
0.00298343
0.000312991
0.00025933
0.0024752
0.00456352
0.0060605
0.00712467
0.00790052
0.00826687
0.00826112
0.00819371
0.00817797
0.00823161
0.00834852
0.00850127
0.00864936
0.00875174
0.00878157
0.00873641
0.00863279
0.00850299
0.00838482
0.00830458
0.00827143
0.00827879
0.00831302
0.00836198
0.00804118
0.00701616
0.00541005
0.00300925
0.000316836
0.000260835
0.00253244
0.00463357
0.00609516
0.00712255
0.00785985
0.00822336
0.00822556
0.00816013
0.00814625
0.00819813
0.00830794
0.00845034
0.00858854
0.00868667
0.00872101
0.00868893
0.00860433
0.00849363
0.00838868
0.00831302
0.0082762
0.00827718
0.00831092
0.0083752
0.00805518
0.00703254
0.0054377
0.00301949
0.000319131
0.000260492
0.00254682
0.00466737
0.0061151
0.0071108
0.007818
0.00820416
0.00821712
0.00814304
0.0081255
0.00817232
0.00827467
0.00840743
0.00853736
0.00863232
0.00867195
0.00865323
0.00858798
0.00849658
0.00840509
0.00833355
0.00829335
0.00828916
0.00832589
0.00839899
0.00805808
0.00703479
0.00545533
0.00303382
0.000318922
0.000259367
0.00254857
0.00467531
0.00611447
0.00708889
0.0077765
0.00818989
0.00822585
0.00813694
0.00810996
0.00814905
0.00824275
0.00836643
0.00848909
0.00858216
0.00862787
0.00862358
0.00857881
0.0085084
0.00843157
0.00836488
0.0083213
0.00831503
0.00835477
0.00842705
0.00804696
0.00702215
0.00546264
0.00304766
0.000315301
0.000258076
0.00254145
0.00466731
0.00609921
0.00705969
0.00773369
0.00817514
0.00824181
0.00813485
0.00809501
0.00812274
0.00820605
0.0083203
0.00843662
0.00852865
0.00858126
0.00859239
0.00856962
0.00852238
0.00846285
0.00840381
0.00836053
0.00834813
0.00840105
0.00845757
0.00801577
0.00699091
0.00545367
0.0030494
0.000307357
0.000256686
0.0025257
0.00464407
0.00606947
0.00702098
0.00768573
0.0081498
0.0082565
0.0081382
0.00808036
0.00809169
0.00816118
0.00826519
0.00837597
0.0084682
0.00852809
0.00855494
0.00855347
0.008529
0.00848796
0.00844026
0.00840237
0.00841016
0.00847943
0.00849006
0.00796989
0.00694151
0.00541924
0.00302367
0.000296938
0.000254932
0.00250224
0.00460513
0.00602172
0.0069671
0.00763099
0.00810694
0.00826974
0.0081519
0.00806809
0.0080602
0.00811393
0.00820628
0.00831184
0.00840675
0.00847556
0.00851726
0.00853252
0.00852238
0.00849442
0.00846172
0.00844813
0.00847551
0.00857607
0.008517
0.00791237
0.00687542
0.00535498
0.00296929
0.000286266
0.000252592
0.00246957
0.00454825
0.00595151
0.00689035
0.00755659
0.00805095
0.00827559
0.00817676
0.00806481
0.00803821
0.00807633
0.00816018
0.00826333
0.00836237
0.00843988
0.00849165
0.00851312
0.00850187
0.0084757
0.00845023
0.00845191
0.00851973
0.00865582
0.00851862
0.00783502
0.00678815
0.00526889
0.00290151
0.000276267
0.000249446
0.00242585
0.00447162
0.0058589
0.00679135
0.00745788
0.00797658
0.00826967
0.00820031
0.00807056
0.00803577
0.00806821
0.0081483
0.00825191
0.00835502
0.0084378
0.00849095
0.00850558
0.00847844
0.00843578
0.00841105
0.00842318
0.00852485
0.00868841
0.00847323
0.00772423
0.00667906
0.00517118
0.00283111
0.000266891
0.000245265
0.00237162
0.00438096
0.00575451
0.00668232
0.00734898
0.00788153
0.00823943
0.00822372
0.00807769
0.00804638
0.00808615
0.00817319
0.00828272
0.0083891
0.00847185
0.00851654
0.00851234
0.00846215
0.00841236
0.00838449
0.0083985
0.00851919
0.00866893
0.0083521
0.00758041
0.00655174
0.00506842
0.00276261
0.000257811
0.000240269
0.00231359
0.00429073
0.00565377
0.00657679
0.00724093
0.00777554
0.00817601
0.00821497
0.00807597
0.00805302
0.00810771
0.00821035
0.00833091
0.00844001
0.00851721
0.00854526
0.00851611
0.00844687
0.00837664
0.00834433
0.00836797
0.00851089
0.00858386
0.00817983
0.00740095
0.0064051
0.00496525
0.00269743
0.000248528
0.000235083
0.0022602
0.00421072
0.00556395
0.00648079
0.00713805
0.00766378
0.00808376
0.00817593
0.00805869
0.00804553
0.00811091
0.00822947
0.00836424
0.00847504
0.00854166
0.00855146
0.00850061
0.00840979
0.00833155
0.00830488
0.00834675
0.0084771
0.0084626
0.00798212
0.0072108
0.00624359
0.00483537
0.00261834
0.00024006
0.000230304
0.002213
0.00413934
0.00548295
0.00639225
0.00703772
0.00754395
0.00796762
0.0080998
0.00801275
0.00800614
0.00808896
0.00822474
0.00836998
0.00848139
0.00853811
0.00852498
0.00845211
0.00834998
0.00826552
0.00823769
0.00828236
0.00838744
0.00829492
0.00776225
0.00701239
0.00606937
0.00469099
0.00252439
0.000234212
0.000226094
0.00216809
0.00406929
0.00540285
0.00630368
0.00693466
0.00741827
0.00782165
0.00799346
0.00793631
0.0079406
0.00803953
0.00818998
0.00833994
0.00844724
0.00849171
0.00845578
0.00835867
0.00824279
0.00815399
0.00812302
0.00816176
0.00825218
0.00808195
0.00752125
0.00681078
0.00589293
0.00453127
0.00241957
0.000226894
0.00022203
0.00211968
0.0039939
0.00531927
0.00621357
0.00683056
0.00728631
0.00765584
0.0078625
0.00784876
0.00787508
0.00798625
0.00813951
0.00828796
0.00838796
0.00842072
0.0083766
0.00827424
0.00815334
0.00805418
0.00800347
0.00801851
0.00806865
0.00782469
0.00727928
0.00661289
0.00571999
0.00437415
0.00231513
0.000217415
0.000217963
0.00207253
0.00392265
0.00524404
0.00613541
0.00674052
0.00716761
0.00749331
0.00772025
0.00776103
0.00780735
0.00792927
0.00808252
0.00822509
0.0083167
0.00834244
0.00829625
0.00819487
0.00807142
0.00795929
0.00788248
0.00786519
0.00784229
0.00754089
0.00704531
0.00642329
0.00555188
0.00422171
0.00221503
0.000208761
0.000215356
0.00204145
0.00387598
0.00519601
0.00608476
0.00667872
0.00708158
0.00736816
0.0075934
0.00768046
0.00774295
0.00787053
0.00801817
0.00815105
0.00823348
0.00825537
0.00821202
0.0081171
0.00799682
0.00787786
0.00777762
0.00771162
0.00759352
0.00728341
0.0068453
0.00625518
0.00539514
0.00407731
0.00212282
0.0002015
0.000215435
0.0020381
0.00386399
0.00518095
0.00606564
0.00664857
0.00703227
0.00728816
0.00750018
0.00761088
0.00768944
0.00781386
0.00794816
0.0080673
0.00814013
0.0081597
0.00812195
0.00803796
0.00792824
0.00781308
0.00769853
0.00757019
0.00739309
0.00709814
0.00669661
0.00611879
0.00525922
0.00394875
0.00204328
0.000195675
0.000217441
0.00205541
0.0038887
0.00519276
0.00607264
0.00664517
0.007016
0.00725782
0.00743626
0.00756315
0.00765942
0.0077682
0.00788077
0.00798184
0.00804337
0.00805914
0.00802618
0.0079544
0.00785995
0.00775688
0.00763537
0.00746167
0.00726925
0.0069934
0.00659559
0.00601359
0.00514813
0.00384159
0.00198078
0.000191442
0.000223126
0.0020904
0.00393118
0.00522203
0.00609284
0.00665642
0.00701939
0.00725596
0.00741967
0.00754932
0.00765982
0.0077436
0.00782774
0.00790627
0.0079528
0.00796086
0.00792856
0.00786463
0.00778148
0.00768509
0.00755765
0.0073917
0.00718007
0.00691992
0.00651804
0.00592798
0.00505664
0.00375427
0.00193515
0.00018909
0.000239935
0.00213897
0.00398145
0.00526483
0.00610507
0.00666447
0.00702569
0.00726804
0.00743945
0.00756806
0.00767562
0.00773723
0.00779535
0.00785004
0.00787725
0.00787237
0.00783476
0.00777111
0.00768961
0.00759195
0.00746678
0.00731615
0.00709626
0.00683434
0.0064378
0.00584579
0.00497274
0.00368487
0.00190434
0.000189246
0.000265169
0.00219062
0.00399793
0.00526756
0.0060909
0.00664242
0.00701537
0.0072727
0.0074625
0.00759743
0.00769141
0.00773957
0.00778104
0.00781279
0.00781661
0.00779359
0.0077453
0.00767636
0.00759155
0.00749082
0.00736773
0.00722446
0.0070001
0.00672158
0.00633505
0.00575326
0.0048817
0.00363494
0.00189514
0.00019322
0.000292287
0.002106
0.00386109
0.0051325
0.00599024
0.00655989
0.0069653
0.00724658
0.00745685
0.00759591
0.00768609
0.00773479
0.00776792
0.00777738
0.00775776
0.00771409
0.00765287
0.00757628
0.00748567
0.00738179
0.00725656
0.00710715
0.00688196
0.00659533
0.00620834
0.00563404
0.00476693
0.00358126
0.00189572
0.000209477
0.000292185
0.00190774
0.00349503
0.00485794
0.00575469
0.00637992
0.0068392
0.00715462
0.00738947
0.00753483
0.00763853
0.00769739
0.00772439
0.00771462
0.00767611
0.00761707
0.0075438
0.00745809
0.00736022
0.00724996
0.00711849
0.00695591
0.0067273
0.00643771
0.00604747
0.00546558
0.00460318
0.00346948
0.00184434
0.000225049
0.000277604
0.00179081
0.00316584
0.00437937
0.00540934
0.00608979
0.00660477
0.00696924
0.00722919
0.00740338
0.00753054
0.00760039
0.00762013
0.00759884
0.00755239
0.0074872
0.00740624
0.00731148
0.00720652
0.00708572
0.00694383
0.00676457
0.0065218
0.00621382
0.005809
0.00521927
0.00432014
0.00314438
0.00167367
0.00022889
0.000254466
0.00161505
0.0030162
0.00406322
0.00497061
0.00571308
0.00624758
0.00666903
0.00697568
0.00719205
0.00734597
0.00742498
0.00744393
0.00742621
0.00738483
0.00732255
0.0072397
0.00713919
0.00702409
0.00689051
0.00673062
0.00652756
0.00625793
0.00591187
0.00546625
0.00485718
0.00389679
0.00283948
0.00152055
0.000223391
0.000238716
0.00152337
0.00277427
0.00383301
0.00462481
0.00526036
0.0058348
0.00625861
0.00662673
0.00689319
0.00707339
0.00716629
0.00720227
0.00720432
0.00717983
0.00712886
0.00705036
0.00694681
0.00682036
0.00666878
0.00648233
0.00624553
0.00593669
0.00554108
0.00504052
0.00436948
0.00342861
0.00257384
0.00139402
0.000209943
0.0002278
0.00141944
0.00254746
0.00347153
0.00427512
0.004895
0.00537681
0.00582239
0.00619338
0.00650892
0.00671916
0.00684187
0.00691112
0.00694429
0.00694527
0.00691307
0.00684523
0.00674197
0.00660409
0.00642987
0.00621026
0.0059321
0.00557672
0.00512767
0.00456512
0.00382675
0.00290547
0.00213708
0.00121735
0.000200447
0.000217783
0.00128691
0.00225019
0.00303275
0.00377682
0.00452841
0.0050705
0.00541107
0.0057503
0.00606772
0.0063174
0.0064815
0.00659253
0.00666143
0.00669206
0.00668342
0.00663181
0.00653329
0.00638618
0.00618843
0.00593384
0.00561219
0.00520785
0.00470275
0.0040713
0.00325916
0.00237509
0.00170616
0.00103626
0.000194008
0.000206479
0.00107173
0.00184213
0.00249615
0.00320869
0.00398152
0.00460756
0.00508462
0.00537453
0.00562544
0.00590795
0.00611781
0.00626981
0.00637456
0.00643539
0.00645197
0.00641996
0.00633119
0.00617915
0.00596142
0.00567511
0.00531338
0.00486308
0.0043041
0.00360689
0.0027264
0.00183367
0.00121793
0.000767878
0.00018246
0.000193336
0.000762646
0.00133942
0.00190728
0.00260686
0.00343049
0.00410671
0.00459036
0.0049275
0.00521338
0.00552015
0.00577475
0.00596566
0.00610384
0.00619382
0.00623565
0.00622344
0.00614607
0.0059942
0.00576352
0.00545287
0.00505924
0.0045721
0.0039717
0.00322767
0.00230589
0.00134905
0.000760566
0.000430957
0.000165574
0.000177259
0.000476135
0.000871732
0.00136537
0.00207357
0.00292507