/*--------------------------------*- C++ -*----------------------------------*\
| =========                 |                                                 |
| \\      /  F ield         | OpenFOAM: The Open Source CFD Toolbox           |
|  \\    /   O peration     | Version:  2.3.0                                 |
|   \\  /    A nd           | Web:      www.OpenFOAM.org                      |
|    \\/     M anipulation  |                                                 |
\*---------------------------------------------------------------------------*/
FoamFile
{
    version     2.0;
    format      ascii;
    class       volScalarField;
    location    "71";
    object      alpha.water;
}
// * * * * * * * * * * * * * * * * * * * * * * * * * * * * * * * * * * * * * //

dimensions      [0 0 0 0 0 0 0];

internalField   nonuniform List<scalar> 
1875
(
0.698366
0.741975
0.768169
0.767754
0.765205
0.761067
0.755889
0.749994
0.743813
0.737734
0.732134
0.72806
0.726258
0.725171
0.725684
0.728402
0.733904
0.742257
0.751706
0.762866
0.771653
0.770025
0.750646
0.709507
0.711676
0.747966
0.777193
0.805496
0.816398
0.820411
0.819533
0.81692
0.812624
0.806696
0.799085
0.789602
0.777761
0.765674
0.754558
0.745511
0.738036
0.738583
0.739538
0.746665
0.758777
0.771638
0.783835
0.780621
0.767698
0.797094
0.817882
0.830979
0.843182
0.848105
0.848132
0.847106
0.844878
0.841749
0.837226
0.831263
0.824016
0.814791
0.801192
0.784493
0.767285
0.751069
0.736387
0.733534
0.739246
0.751333
0.767734
0.783816
0.787542
0.781273
0.810722
0.900526
0.892813
0.879004
0.87249
0.868537
0.864209
0.858729
0.852513
0.84574
0.838306
0.829674
0.819698
0.808282
0.793868
0.776113
0.755447
0.733535
0.734069
0.734703
0.745539
0.764589
0.783444
0.787528
0.784568
0.810722
0.950917
0.924852
0.891626
0.883607
0.878758
0.872154
0.863366
0.852251
0.843004
0.834438
0.8252
0.814531
0.802393
0.787317
0.769004
0.748659
0.734069
0.733886
0.73562
0.748219
0.76761
0.784849
0.7889
0.788532
0.810722
0.964413
0.925922
0.884381
0.88438
0.877905
0.867189
0.855758
0.843276
0.831607
0.821221
0.810384
0.798081
0.78401
0.767661
0.750679
0.737755
0.733939
0.735238
0.740796
0.756373
0.774519
0.78783
0.792365
0.794216
0.807916
0.964413
0.911183
0.868792
0.877437
0.86353
0.846708
0.832474
0.818727
0.805564
0.793304
0.780747
0.767655
0.754597
0.743614
0.737581
0.736221
0.736234
0.741994
0.752777
0.768776
0.782899
0.792229
0.797697
0.800433
0.802406
0.964413
0.879024
0.844165
0.852494
0.827341
0.808023
0.792651
0.778891
0.767126
0.756763
0.748042
0.742058
0.739071
0.738505
0.738503
0.740498
0.74602
0.756291
0.768806
0.781364
0.790688
0.797386
0.80321
0.805072
0.796215
0.954187
0.838543
0.812433
0.813699
0.783184
0.766102
0.752632
0.743487
0.739229
0.738668
0.738619
0.738668
0.740183
0.742195
0.746577
0.753516
0.763046
0.773776
0.783728
0.791648
0.797359
0.802393
0.80709
0.805142
0.789653
0.931751
0.801055
0.782794
0.779285
0.755916
0.746312
0.740519
0.738395
0.738668
0.738526
0.738902
0.742821
0.748256
0.754494
0.762696
0.771949
0.781077
0.789012
0.795159
0.799602
0.803162
0.807005
0.810415
0.804152
0.78245
0.908371
0.773412
0.76408
0.763761
0.74775
0.742235
0.739239
0.738668
0.73848
0.740187
0.746334
0.754525
0.763026
0.772179
0.78116
0.789202
0.795636
0.800422
0.803811
0.806329
0.808727
0.811581
0.81387
0.802453
0.774961
0.891216
0.757974
0.754335
0.757459
0.745078
0.740811
0.73874
0.738606
0.741216
0.74872
0.7596
0.770216
0.780281
0.789483
0.797037
0.802794
0.806818
0.809404
0.811047
0.812377
0.813739
0.814829
0.814822
0.801096
0.762449
0.881344
0.748381
0.745424
0.7536
0.743238
0.739737
0.738734
0.740652
0.74896
0.761451
0.774271
0.785694
0.795514
0.803174
0.808567
0.812048
0.814031
0.814822
0.814853
0.814822
0.814881
0.814822
0.815051
0.796484
0.729597
0.875976
0.738587
0.73494
0.750378
0.741309
0.738558
0.739428
0.745869
0.759238
0.773974
0.787177
0.797959
0.805944
0.811102
0.813771
0.814733
0.814822
0.814871
0.814822
0.814981
0.814822
0.815126
0.814822
0.781004
0.720427
0.872127
0.73494
0.734726
0.747391
0.7393
0.738668
0.741447
0.752789
0.76875
0.783823
0.796116
0.80452
0.809249
0.811978
0.813654
0.814582
0.814884
0.814822
0.81504
0.814822
0.815127
0.814822
0.812429
0.763017
0.720427
0.870981
0.734861
0.73494
0.745198
0.738668
0.738518
0.744102
0.759132
0.775458
0.788673
0.797978
0.804237
0.808558
0.811129
0.812809
0.814029
0.814822
0.814958
0.814822
0.815114
0.814822
0.813846
0.802074
0.767806
0.733268
0.871368
0.735604
0.734826
0.744612
0.738635
0.738668
0.743575
0.758516
0.774744
0.787741
0.796758
0.802622
0.806541
0.809106
0.811103
0.81277
0.813959
0.814413
0.813458
0.810741
0.805794
0.799892
0.79591
0.798363
0.791034
0.871265
0.74038
0.735629
0.74377
0.739052
0.738632
0.7418
0.754962
0.771129
0.78443
0.793623
0.799468
0.803234
0.805942
0.808454
0.810648
0.81179
0.811119
0.806221
0.801573
0.796681
0.791657
0.790052
0.83081
0.863417
0.86671
0.753192
0.73858
0.742842
0.740074
0.738787
0.739818
0.748468
0.763226
0.777565
0.788131
0.794946
0.799101
0.801962
0.804718
0.807366
0.808665
0.807266
0.801188
0.797506
0.797234
0.795402
0.787411
0.835533
0.904738
0.857332
0.773518
0.745711
0.743639
0.741467
0.739419
0.739421
0.742511
0.75225
0.765997
0.778938
0.788288
0.794135
0.79776
0.800612
0.80338
0.805189
0.804799
0.801727
0.798505
0.799303
0.802869
0.787414
0.818285
0.912895
0.845065
0.796362
0.760565
0.747191
0.743376
0.740836
0.739749
0.739986
0.743416
0.752431
0.764682
0.77659
0.785906
0.792195
0.796387
0.79962
0.802074
0.803296
0.802886
0.801386
0.802273
0.807008
0.790346
0.79383
0.909007
0.830688
0.815232
0.783373
0.757718
0.747518
0.743172
0.740808
0.740121
0.740467
0.743554
0.746624
0.755552
0.768826
0.780526
0.789058
0.794891
0.798992
0.801855
0.803678
0.804627
0.805412
0.807426
0.792944
0.778849
0.896703
0.815487
0.827709
0.808626
0.777804
0.757716
0.74812
0.743218
0.740942
0.740035
0.738661
0.737626
0.738661
0.744584
0.759148
0.773838
0.785273
0.793391
0.79915
0.803185
0.806454
0.807426
0.807504
0.79281
0.773767
0.886441
0.797122
0.835022
0.829267
0.803138
0.776637
0.759125
0.749009
0.743373
0.740626
0.738479
0.738661
0.737497
0.738661
0.742915
0.754282
0.768769
0.782135
0.792707
0.800528
0.806245
0.807476
0.807426
0.792196
0.772579
0.882469
0.763324
0.835066
0.837738
0.824658
0.800913
0.777998
0.760891
0.749596
0.74299
0.738661
0.737476
0.738661
0.738104
0.738661
0.742384
0.752211
0.766395
0.781145
0.793711
0.803981
0.807426
0.807582
0.791646
0.772178
0.881741
0.748174
0.83147
0.838329
0.836403
0.822362
0.8007
0.77886
0.761039
0.748683
0.739328
0.738661
0.737705
0.738661
0.738557
0.739542
0.743562
0.753063
0.767417
0.782959
0.797962
0.807556
0.807426
0.790902
0.771669
0.881702
0.748174
0.824415
0.837738
0.837817
0.833464
0.819359
0.798144
0.775964
0.757749
0.742014
0.737916
0.738661
0.738291
0.738661
0.739457
0.741536
0.74651
0.756709
0.771548
0.78893
0.806653
0.807633
0.786128
0.769908
0.881696
0.748174
0.813408
0.838565
0.837738
0.836533
0.829137
0.812689
0.790275
0.768091
0.746449
0.738661
0.738153
0.738661
0.738619
0.739533
0.74168
0.745365
0.751551
0.763142
0.77973
0.802902
0.807426
0.765047
0.76418
0.88169
0.749534
0.797431
0.837738
0.838038
0.836427
0.831284
0.819599
0.799525
0.775588
0.74974
0.738316
0.738661
0.738532
0.738661
0.739738
0.742113
0.745741
0.751574
0.759497
0.773146
0.797084
0.8076
0.747368
0.753654
0.881683
0.762162
0.782796
0.83747
0.837738
0.836477
0.830618
0.818508
0.798114
0.773804
0.748121
0.738661
0.738537
0.738661
0.738727
0.740198
0.742924
0.746589
0.752015
0.75966
0.771074
0.792391
0.806633
0.749029
0.748952
0.881261
0.790992
0.777751
0.818326
0.837968
0.836572
0.828538
0.814466
0.792493
0.767289
0.744547
0.738611
0.738661
0.73865
0.739022
0.741006
0.744083
0.747809
0.752917
0.760386
0.771938
0.792676
0.804205
0.746561
0.749029
0.880079
0.828383
0.776187
0.792719
0.837033
0.835865
0.824093
0.806061
0.781555
0.757155
0.741275
0.738661
0.738657
0.738809
0.739643
0.742162
0.745474
0.749205
0.754176
0.761956
0.774532
0.794009
0.800595
0.749029
0.751375
0.87677
0.86213
0.773411
0.778896
0.833917
0.832857
0.815528
0.792561
0.767388
0.748174
0.739847
0.738869
0.738905
0.739248
0.740617
0.743557
0.746927
0.750616
0.755807
0.764708
0.779124
0.795695
0.79555
0.746494
0.757315
0.871104
0.882778
0.770566
0.779208
0.830161
0.825763
0.801611
0.77627
0.755142
0.743505
0.739998
0.73935
0.739346
0.739951
0.741853
0.744987
0.748271
0.752029
0.758009
0.768799
0.784647
0.797257
0.789335
0.749029
0.76581
0.864591
0.890427
0.76801
0.782116
0.825737
0.813346
0.784687
0.762455
0.748363
0.74239
0.74053
0.739919
0.739774
0.740894
0.743174
0.746281
0.749446
0.753589
0.760983
0.773878
0.78979
0.798411
0.783813
0.74636
0.772515
0.860496
0.89106
0.765777
0.785297
0.819286
0.796984
0.770023
0.754323
0.746038
0.742605
0.741023
0.74042
0.740461
0.741897
0.744411
0.747334
0.750514
0.755469
0.764697
0.779201
0.79388
0.799413
0.780591
0.749029
0.771002
0.860283
0.891069
0.763945
0.784629
0.810179
0.781328
0.760713
0.750668
0.745308
0.742663
0.741419
0.74123
0.741273
0.742877
0.745413
0.748134
0.751573
0.757722
0.768826
0.784112
0.796908
0.800272
0.779259
0.746212
0.761608
0.860242
0.891081
0.762235
0.782034
0.799721
0.770125
0.756057
0.749278
0.74518
0.742904
0.741969
0.741925
0.741896
0.743755
0.74612
0.748737
0.752664
0.760184
0.772849
0.788201
0.799009
0.800379
0.777987
0.749029
0.748606
0.859112
0.89109
0.758678
0.777823
0.790174
0.763648
0.754015
0.748753
0.745275
0.743341
0.742658
0.742476
0.742469
0.744486
0.746615
0.749216
0.753732
0.762507
0.776208
0.791137
0.800202
0.800351
0.776454
0.746165
0.749029
0.857309
0.89052
0.747116
0.773087
0.782828
0.760283
0.753148
0.748583
0.745509
0.743891
0.743274
0.742988
0.743049
0.745062
0.746986
0.749621
0.754669
0.764335
0.77854
0.792804
0.800226
0.800039
0.774873
0.749029
0.748205
0.857216
0.889418
0.744064
0.768788
0.777504
0.758487
0.752784
0.748625
0.745834
0.744432
0.743789
0.743447
0.743575
0.745509
0.747283
0.749985
0.755408
0.765509
0.779743
0.79341
0.800216
0.799295
0.773159
0.746165
0.749029
0.85772
0.888482
0.745039
0.765376
0.773708
0.757445
0.752648
0.748728
0.746185
0.744911
0.744227
0.743865
0.744029
0.745867
0.747549
0.750323
0.755952
0.766095
0.779947
0.793247
0.799919
0.798128
0.771123
0.749029
0.74808
0.858971
0.887981
0.744066
0.762788
0.770986
0.756818
0.752674
0.748893
0.746529
0.745316
0.744604
0.744241
0.744412
0.746177
0.747809
0.750644
0.756344
0.766289
0.779726
0.792793
0.799304
0.796593
0.768609
0.746217
0.749029
0.86069
0.887743
0.745039
0.760733
0.768922
0.756428
0.752759
0.749113
0.746867
0.745676
0.744933
0.744576
0.744761
0.746474
0.748077
0.75094
0.756635
0.766318
0.779295
0.79198
0.798396
0.79466
0.766001
0.749029
0.748013
0.862845
0.887675
0.744278
0.758956
0.767235
0.756185
0.752904
0.749379
0.747212
0.746009
0.745234
0.744895
0.745105
0.746776
0.748356
0.751196
0.756855
0.766331
0.778774
0.790761
0.796989
0.792639
0.764571
0.746338
0.749029
0.865685
0.887657
0.745039
0.757313
0.765762
0.756044
0.753052
0.749625
0.747572
0.746325
0.745528
0.745206
0.745458
0.747097
0.748627
0.75143
0.756965
0.766399
0.778192
0.789152
0.794922
0.79112
0.764797
0.749029
0.748047
0.869042
0.887672
0.74451
0.755744
0.764408
0.755921
0.753195
0.749845
0.747861
0.74666
0.745845
0.745482
0.745766
0.747479
0.748859
0.751635
0.757174
0.766479
0.777534
0.787287
0.792343
0.790374
0.765524
0.746528
0.749029
0.872851
0.887643
0.745039
0.754227
0.763255
0.755839
0.753441
0.750083
0.748039
0.747012
0.746187
0.745803
0.746091
0.747801
0.749013
0.751719
0.757588
0.76638
0.776824
0.785337
0.789616
0.789917
0.766828
0.749029
0.748196
0.877283
0.887551
0.744725
0.752827
0.76247
0.755919
0.753618
0.750326
0.748471
0.747222
0.746525
0.746399
0.74648
0.747808
0.749147
0.751839
0.757669
0.766216
0.775976
0.783484
0.787109
0.789434
0.768533
0.746785
0.749029
0.882303
0.887655
0.745039
0.75178
0.761703
0.755958
0.753544
0.750492
0.749087
0.74753
0.746918
0.747076
0.746925
0.748018
0.749318
0.752073
0.757474
0.765957
0.77486
0.781869
0.785322
0.788821
0.770229
0.749029
0.748363
0.887858
0.887658
0.744908
0.750817
0.760849
0.75593
0.753704
0.750626
0.749045
0.748102
0.747381
0.747121
0.74716
0.748252
0.749497
0.75228
0.757527
0.765374
0.773495
0.78043
0.784678
0.788037
0.771452
0.747107
0.749029
0.893595
0.887379
0.745039
0.74981
0.760465
0.75597
0.753808
0.750857
0.749269
0.748537
0.747787
0.747338
0.747267
0.748041
0.749469
0.752223
0.757493
0.764689
0.771979
0.779029
0.784687
0.787103
0.772115
0.749029
0.748508
0.898731
0.886957
0.745023
0.749181
0.760154
0.756039
0.753761
0.750942
0.749661
0.748559
0.747931
0.747718
0.747402
0.748097
0.74945
0.752248
0.757169
0.763985
0.770423
0.777585
0.784658
0.786067
0.77238
0.747428
0.749029
0.902555
0.886093
0.745152
0.748717
0.759845
0.755962
0.753917
0.751069
0.749533
0.748705
0.748101
0.747656
0.747398
0.748176
0.749517
0.752294
0.757003
0.763124
0.769013
0.776127
0.784507
0.784953
0.772349
0.749029
0.748629
0.905077
0.884674
0.745757
0.74817
0.759445
0.75613
0.754065
0.751288
0.749702
0.748841
0.748372
0.74774
0.747444
0.747993
0.749472
0.7522
0.756741
0.762285
0.767829
0.774771
0.784098
0.783766
0.772063
0.747706
0.749029
0.906715
0.883133
0.746876
0.747821
0.758771
0.756357
0.754049
0.751299
0.749985
0.748856
0.748331
0.747967
0.747549
0.748053
0.74937
0.752156
0.756195
0.761472
0.766878
0.773681
0.783333
0.782425
0.771264
0.749029
0.748738
0.907925
0.88134
0.748596
0.747376
0.758158
0.756137
0.754196
0.751393
0.749794
0.749018
0.748182
0.747962
0.747455
0.748169
0.749414
0.752131
0.755908
0.760616
0.766201
0.772927
0.782177
0.780807
0.769987
0.747961
0.749029
0.908986
0.878951
0.750963
0.747371
0.757389
0.756167
0.754406
0.751626
0.749955
0.749073
0.748284
0.748005
0.747397
0.747963
0.749448
0.752042
0.755602
0.759948
0.765717
0.772372
0.780617
0.778829
0.768522
0.749029
0.748829
0.910056
0.875896
0.753806
0.747551
0.756217
0.75616
0.754556
0.751819
0.750314
0.748973
0.748608
0.748077
0.747172
0.747742
0.74937
0.751852
0.75519
0.759574
0.765326
0.771855
0.778724
0.776587
0.767154
0.748227
0.749029
0.911244
0.872297
0.757373
0.747792
0.755206
0.755862
0.75487
0.752206
0.750228
0.749125
0.748542
0.747919
0.747052
0.747799
0.74914
0.75152
0.755065
0.759265
0.765027
0.77132
0.776742
0.774423
0.766118
0.749029
0.748903
0.912586
0.868797
0.761286
0.748132
0.754204
0.755711
0.755223
0.752818
0.750485
0.749394
0.748341
0.747614
0.747076
0.747729
0.748951
0.751235
0.754809
0.75907
0.764785
0.770746
0.774957
0.772729
0.765526
0.748516
0.749029
0.913589
0.865551
0.765
0.7487
0.75297
0.755541
0.755158
0.753137
0.751035
0.749313
0.748395
0.747104
0.747046
0.747397
0.748767
0.750931
0.754267
0.758836
0.764373
0.769908
0.773225
0.771298
0.765114
0.749029
0.748972
0.913597
0.86306
0.767893
0.748348
0.751799
0.754705
0.754737
0.753029
0.750895
0.749055
0.748188
0.747051
0.747076
0.747046
0.748148
0.750116
0.753248
0.757856
0.763199
0.768146
0.770764
0.769297
0.764382
0.748814
0.74903
0.913597
0.863707
0.767558
0.748345
0.75061
0.75331
0.753977
0.752722
0.750574
0.748805
0.747575
0.747076
0.747061
0.747076
0.747327
0.748796
0.751669
0.756083
0.761285
0.765701
0.767848
0.766913
0.763534
0.749029
0.749027
0.913598
0.866654
0.766712
0.74881
0.751318
0.753824
0.754755
0.753767
0.751794
0.750055
0.748722
0.748176
0.74827
0.748302
0.74858
0.749949
0.752703
0.757039
0.762421
0.766885
0.768602
0.767947
0.765664
0.7517
0.752665
0.912886
0.871884
0.769558
0.755184
0.757773
0.759653
0.760808
0.760327
0.758958
0.757517
0.756216
0.755616
0.755811
0.756079
0.756606
0.757988
0.760627
0.764962
0.770736
0.773896
0.773896
0.773896
0.773896
0.76451
0.766271
0.912884
0.865122
0.768138
0.764641
0.764639
0.764638
0.764636
0.764634
0.764632
0.764124
0.762997
0.762231
0.762314
0.762624
0.763204
0.764374
0.766379
0.769378
0.773823
0.773896
0.773896
0.773896
0.773896
0.773896
0.772735
0.896728
0.717136
0.673722
0.677423
0.672121
0.667492
0.668578
0.670185
0.670625
0.670237
0.669365
0.668317
0.667618
0.666735
0.665562
0.664306
0.663182
0.662195
0.661771
0.661674
0.660552
0.65667
0.655755
0.658471
0.653493
0.699607
0.201973
0.253721
0.267098
0.263844
0.262404
0.266225
0.270772
0.273924
0.275806
0.276726
0.276374
0.275023
0.272446
0.268585
0.263485
0.257254
0.249997
0.241903
0.235021
0.228069
0.220152
0.214687
0.21388
0.204265
0.158327
0.00926246
0.0179404
0.0233849
0.0245423
0.0250614
0.0257569
0.0264961
0.0271264
0.0275969
0.0278869
0.0279205
0.0277123
0.0272345
0.0264981
0.0255231
0.0243445
0.0230186
0.0216011
0.0203023
0.0191552
0.0181438
0.0173537
0.0165367
0.0126331
0.00605928
2.21866e-05
0.000145726
0.000471204
0.000614868
0.000620916
0.000614913
0.000613219
0.000617469
0.000624246
0.000629905
0.000631437
0.000628334
0.000619256
0.000603256
0.000580286
0.000551668
0.000519898
0.000487773
0.000458624
0.000436887
0.000425923
0.000421147
0.000354975
0.000123382
2.24862e-05
1.43063e-08
1.54362e-07
2.21886e-06
3.72715e-06
3.31131e-06
2.80199e-06
2.3865e-06
2.11073e-06
1.98325e-06
1.96567e-06
2.05364e-06
2.30223e-06
2.65644e-06
2.97738e-06
3.13902e-06
3.14813e-06
3.07049e-06
2.92673e-06
2.78682e-06
2.70557e-06
2.75073e-06
2.95448e-06
2.30422e-06
1.86519e-07
1.92791e-08
4.33968e-10
6.66951e-10
3.44649e-09
4.0754e-09
1.60941e-09
3.08236e-10
6.63747e-12
4.85911e-12
5.32641e-12
9.3221e-12
2.82416e-11
1.98506e-10
1.20645e-09
3.64763e-09
6.19096e-09
7.53798e-09
7.71903e-09
7.48817e-09
6.98865e-09
6.47144e-09
6.16431e-09
6.39421e-09
6.04908e-09
6.65261e-10
7.00362e-11
4.29968e-10
3.94706e-12
1.8705e-12
9.25926e-13
1.72751e-13
5.58442e-14
2.84217e-14
1.60982e-14
1.38778e-14
1.04916e-13
3.062e-13
6.22724e-13
9.85656e-13
2.63956e-12
7.34757e-12
1.3086e-11
1.56199e-11
1.54396e-11
1.40429e-11
1.23055e-11
1.13218e-11
1.10938e-11
1.01771e-11
6.82066e-12
5.76573e-11
3.65149e-10
3.29914e-12
1.1332e-12
1.72418e-13
3.4639e-14
9.10383e-15
2.66454e-15
1.33227e-15
9.99201e-16
-6.66134e-16
7.03881e-14
3.9091e-13
1.36491e-12
3.13249e-12
6.09413e-12
9.04077e-12
1.01023e-11
9.63696e-12
8.26106e-12
7.18725e-12
6.9359e-12
7.51155e-12
8.00193e-12
6.92912e-12
4.96604e-11
)
;

boundaryField
{
    inlet
    {
        type            calculated;
        value           uniform 0.5;
    }
    outlet
    {
        type            calculated;
        value           nonuniform List<scalar> 
25
(
3.65149e-10
3.29914e-12
1.1332e-12
0
0
0
0
0
0
0
0
0
0
3.13249e-12
6.09413e-12
9.04077e-12
1.01023e-11
9.63696e-12
8.26106e-12
7.18725e-12
6.9359e-12
7.51155e-12
8.00193e-12
6.92912e-12
4.96604e-11
)
;
    }
    walls
    {
        type            calculated;
        value           nonuniform List<scalar> 
150
(
0.698366
0.747966
0.817882
0.900526
0.950917
0.964413
0.964413
0.964413
0.954187
0.931751
0.908371
0.891216
0.881344
0.875976
0.872127
0.870981
0.871368
0.871265
0.86671
0.857332
0.845065
0.830688
0.815487
0.797122
0.763324
0.748174
0.748174
0.748174
0.749534
0.762162
0.790992
0.828383
0.86213
0.882778
0.890427
0.89106
0.891069
0.891081
0.89109
0.89052
0.889418
0.888482
0.887981
0.887743
0.887675
0.887657
0.887672
0.887643
0.887551
0.887655
0.887658
0.887379
0.886957
0.886093
0.884674
0.883133
0.88134
0.878951
0.875896
0.872297
0.868797
0.865551
0.86306
0.863707
0.866654
0.871884
0.865122
0.717136
0.201973
0.00926246
2.21866e-05
1.43063e-08
4.33968e-10
4.29968e-10
3.65149e-10
0.711676
0.797094
0.810722
0.810722
0.810722
0.807916
0.802406
0.796215
0.789653
0.78245
0.774961
0.762449
0.729597
0.720427
0.720427
0.733268
0.791034
0.863417
0.904738
0.912895
0.909007
0.896703
0.886441
0.882469
0.881741
0.881702
0.881696
0.88169
0.881683
0.881261
0.880079
0.87677
0.871104
0.864591
0.860496
0.860283
0.860242
0.859112
0.857309
0.857216
0.85772
0.858971
0.86069
0.862845
0.865685
0.869042
0.872851
0.877283
0.882303
0.887858
0.893595
0.898731
0.902555
0.905077
0.906715
0.907925
0.908986
0.910056
0.911244
0.912586
0.913589
0.913597
0.913597
0.913598
0.912886
0.912884
0.896728
0.699607
0.158327
0.00605928
2.24862e-05
1.92791e-08
7.00362e-11
5.76573e-11
4.96604e-11
)
;
    }
    defaultFaces
    {
        type            empty;
    }
}


// ************************************************************************* //
