/*--------------------------------*- C++ -*----------------------------------*\
| =========                 |                                                 |
| \\      /  F ield         | OpenFOAM: The Open Source CFD Toolbox           |
|  \\    /   O peration     | Version:  2.3.0                                 |
|   \\  /    A nd           | Web:      www.OpenFOAM.org                      |
|    \\/     M anipulation  |                                                 |
\*---------------------------------------------------------------------------*/
FoamFile
{
    version     2.0;
    format      ascii;
    class       volScalarField;
    location    "71";
    object      alpha.air;
}
// * * * * * * * * * * * * * * * * * * * * * * * * * * * * * * * * * * * * * //

dimensions      [0 0 0 0 0 0 0];

internalField   nonuniform List<scalar> 
1875
(
0.301634
0.258025
0.231831
0.232246
0.234795
0.238933
0.244111
0.250006
0.256187
0.262266
0.267866
0.27194
0.273742
0.274829
0.274316
0.271598
0.266096
0.257743
0.248294
0.237134
0.228347
0.229975
0.249354
0.290493
0.288324
0.252034
0.222807
0.194504
0.183602
0.179589
0.180467
0.18308
0.187376
0.193304
0.200915
0.210398
0.222239
0.234326
0.245442
0.254489
0.261964
0.261417
0.260462
0.253335
0.241223
0.228362
0.216165
0.219379
0.232302
0.202906
0.182118
0.169021
0.156818
0.151895
0.151868
0.152894
0.155122
0.158251
0.162774
0.168737
0.175984
0.185209
0.198808
0.215507
0.232715
0.248931
0.263613
0.266466
0.260754
0.248667
0.232266
0.216184
0.212458
0.218727
0.189278
0.0994738
0.107187
0.120996
0.12751
0.131463
0.135791
0.141271
0.147487
0.15426
0.161694
0.170326
0.180302
0.191718
0.206132
0.223887
0.244553
0.266465
0.265931
0.265297
0.254461
0.235411
0.216556
0.212472
0.215432
0.189278
0.0490834
0.0751476
0.108374
0.116393
0.121242
0.127846
0.136634
0.147749
0.156996
0.165562
0.1748
0.185469
0.197607
0.212683
0.230996
0.251341
0.265931
0.266114
0.26438
0.251781
0.23239
0.215151
0.2111
0.211468
0.189278
0.0355871
0.0740776
0.115619
0.11562
0.122095
0.132811
0.144242
0.156724
0.168393
0.178779
0.189616
0.201919
0.21599
0.232339
0.249321
0.262245
0.266061
0.264762
0.259204
0.243627
0.225481
0.21217
0.207635
0.205784
0.192084
0.0355871
0.0888169
0.131208
0.122563
0.13647
0.153292
0.167526
0.181273
0.194436
0.206696
0.219253
0.232345
0.245403
0.256386
0.262419
0.263779
0.263766
0.258006
0.247223
0.231224
0.217101
0.207771
0.202303
0.199567
0.197594
0.0355871
0.120976
0.155835
0.147506
0.172659
0.191977
0.207349
0.221109
0.232874
0.243237
0.251958
0.257942
0.260929
0.261495
0.261497
0.259502
0.25398
0.243709
0.231194
0.218636
0.209312
0.202614
0.19679
0.194928
0.203785
0.0458128
0.161457
0.187567
0.186301
0.216816
0.233898
0.247368
0.256513
0.260771
0.261332
0.261381
0.261332
0.259817
0.257805
0.253423
0.246484
0.236954
0.226224
0.216272
0.208352
0.202641
0.197607
0.19291
0.194858
0.210347
0.068249
0.198945
0.217206
0.220715
0.244084
0.253688
0.259481
0.261605
0.261332
0.261474
0.261098
0.257179
0.251744
0.245506
0.237304
0.228051
0.218923
0.210988
0.204841
0.200398
0.196838
0.192995
0.189585
0.195848
0.21755
0.0916291
0.226588
0.23592
0.236239
0.25225
0.257765
0.260761
0.261332
0.26152
0.259813
0.253666
0.245475
0.236974
0.227821
0.21884
0.210798
0.204364
0.199578
0.196189
0.193671
0.191273
0.188419
0.18613
0.197547
0.225039
0.108784
0.242026
0.245665
0.242541
0.254922
0.259189
0.26126
0.261394
0.258784
0.25128
0.2404
0.229784
0.219719
0.210517
0.202963
0.197206
0.193182
0.190596
0.188953
0.187623
0.186261
0.185171
0.185178
0.198904
0.237551
0.118656
0.251619
0.254576
0.2464
0.256762
0.260263
0.261266
0.259348
0.25104
0.238549
0.225729
0.214306
0.204486
0.196826
0.191433
0.187952
0.185969
0.185178
0.185147
0.185178
0.185119
0.185178
0.184949
0.203516
0.270403
0.124024
0.261413
0.26506
0.249622
0.258691
0.261442
0.260572
0.254131
0.240762
0.226026
0.212823
0.202041
0.194056
0.188898
0.186229
0.185267
0.185178
0.185129
0.185178
0.185019
0.185178
0.184874
0.185178
0.218996
0.279573
0.127873
0.26506
0.265274
0.252609
0.2607
0.261332
0.258553
0.247211
0.23125
0.216177
0.203884
0.19548
0.190751
0.188022
0.186346
0.185418
0.185116
0.185178
0.18496
0.185178
0.184873
0.185178
0.187571
0.236983
0.279573
0.129019
0.265139
0.26506
0.254802
0.261332
0.261482
0.255898
0.240868
0.224542
0.211327
0.202022
0.195763
0.191442
0.188871
0.187191
0.185971
0.185178
0.185042
0.185178
0.184886
0.185178
0.186154
0.197926
0.232194
0.266732
0.128632
0.264396
0.265174
0.255388
0.261365
0.261332
0.256425
0.241484
0.225256
0.212259
0.203242
0.197378
0.193459
0.190894
0.188897
0.18723
0.186041
0.185587
0.186542
0.189259
0.194206
0.200108
0.20409
0.201637
0.208966
0.128735
0.25962
0.264371
0.25623
0.260948
0.261368
0.2582
0.245038
0.228871
0.21557
0.206377
0.200532
0.196766
0.194058
0.191546
0.189352
0.18821
0.188881
0.193779
0.198427
0.203319
0.208343
0.209948
0.16919
0.136583
0.13329
0.246808
0.26142
0.257158
0.259926
0.261213
0.260182
0.251532
0.236774
0.222435
0.211869
0.205054
0.200899
0.198038
0.195282
0.192634
0.191335
0.192734
0.198812
0.202494
0.202766
0.204598
0.212589
0.164467
0.0952624
0.142668
0.226482
0.254289
0.256361
0.258533
0.260581
0.260579
0.257489
0.24775
0.234003
0.221062
0.211712
0.205865
0.20224
0.199388
0.19662
0.194811
0.195201
0.198273
0.201495
0.200697
0.197131
0.212586
0.181715
0.0871051
0.154935
0.203638
0.239435
0.252809
0.256624
0.259164
0.260251
0.260014
0.256584
0.247569
0.235318
0.22341
0.214094
0.207805
0.203613
0.20038
0.197926
0.196704
0.197114
0.198614
0.197727
0.192992
0.209654
0.20617
0.0909931
0.169312
0.184768
0.216627
0.242282
0.252482
0.256828
0.259192
0.259879
0.259533
0.256446
0.253376
0.244448
0.231174
0.219474
0.210942
0.205109
0.201008
0.198145
0.196322
0.195373
0.194588
0.192574
0.207056
0.221151
0.103297
0.184513
0.172291
0.191374
0.222196
0.242284
0.25188
0.256782
0.259058
0.259965
0.261339
0.262374
0.261339
0.255416
0.240852
0.226162
0.214727
0.206609
0.20085
0.196815
0.193546
0.192574
0.192496
0.20719
0.226233
0.113559
0.202878
0.164978
0.170733
0.196862
0.223363
0.240875
0.250991
0.256627
0.259374
0.261521
0.261339
0.262503
0.261339
0.257085
0.245718
0.231231
0.217865
0.207293
0.199472
0.193755
0.192524
0.192574
0.207804
0.227421
0.117531
0.236676
0.164934
0.162262
0.175342
0.199087
0.222002
0.239109
0.250404
0.25701
0.261339
0.262524
0.261339
0.261896
0.261339
0.257616
0.247789
0.233605
0.218855
0.206289
0.196019
0.192574
0.192418
0.208354
0.227822
0.118259
0.251826
0.16853
0.161671
0.163597
0.177638
0.1993
0.22114
0.238961
0.251317
0.260672
0.261339
0.262295
0.261339
0.261443
0.260458
0.256438
0.246937
0.232583
0.217041
0.202038
0.192444
0.192574
0.209098
0.228331
0.118298
0.251826
0.175585
0.162262
0.162183
0.166536
0.180641
0.201856
0.224036
0.242251
0.257986
0.262084
0.261339
0.261709
0.261339
0.260543
0.258464
0.25349
0.243291
0.228452
0.21107
0.193347
0.192367
0.213872
0.230092
0.118304
0.251826
0.186592
0.161435
0.162262
0.163467
0.170863
0.187311
0.209725
0.231909
0.253551
0.261339
0.261847
0.261339
0.261381
0.260467
0.25832
0.254635
0.248449
0.236858
0.22027
0.197098
0.192574
0.234953
0.23582
0.11831
0.250466
0.202569
0.162262
0.161962
0.163573
0.168716
0.180401
0.200475
0.224412
0.25026
0.261684
0.261339
0.261468
0.261339
0.260262
0.257887
0.254259
0.248426
0.240503
0.226854
0.202916
0.1924
0.252632
0.246346
0.118317
0.237838
0.217204
0.16253
0.162262
0.163523
0.169382
0.181492
0.201886
0.226196
0.251879
0.261339
0.261463
0.261339
0.261273
0.259802
0.257076
0.253411
0.247985
0.24034
0.228926
0.207609
0.193367
0.250971
0.251048
0.118739
0.209008
0.222249
0.181674
0.162032
0.163428
0.171462
0.185534
0.207507
0.232711
0.255453
0.261389
0.261339
0.26135
0.260978
0.258994
0.255917
0.252191
0.247083
0.239614
0.228062
0.207324
0.195795
0.253439
0.250971
0.119921
0.171617
0.223813
0.207281
0.162967
0.164135
0.175907
0.193939
0.218445
0.242845
0.258725
0.261339
0.261343
0.261191
0.260357
0.257838
0.254526
0.250795
0.245824
0.238044
0.225468
0.205991
0.199405
0.250971
0.248625
0.12323
0.13787
0.226589
0.221104
0.166083
0.167143
0.184472
0.207439
0.232612
0.251826
0.260153
0.261131
0.261095
0.260752
0.259383
0.256443
0.253073
0.249384
0.244193
0.235292
0.220876
0.204305
0.20445
0.253506
0.242685
0.128896
0.117222
0.229434
0.220792
0.169839
0.174237
0.198389
0.22373
0.244858
0.256495
0.260002
0.26065
0.260654
0.260049
0.258147
0.255013
0.251729
0.247971
0.241991
0.231201
0.215353
0.202743
0.210665
0.250971
0.23419
0.135409
0.109573
0.23199
0.217884
0.174263
0.186654
0.215313
0.237545
0.251637
0.25761
0.25947
0.260081
0.260226
0.259106
0.256826
0.253719
0.250554
0.246411
0.239017
0.226122
0.21021
0.201589
0.216187
0.25364
0.227485
0.139504
0.10894
0.234223
0.214703
0.180714
0.203016
0.229977
0.245677
0.253962
0.257395
0.258977
0.25958
0.259539
0.258103
0.255589
0.252666
0.249486
0.244531
0.235303
0.220799
0.20612
0.200587
0.219409
0.250971
0.228998
0.139717
0.108931
0.236055
0.215371
0.189821
0.218672
0.239287
0.249332
0.254692
0.257337
0.258581
0.25877
0.258727
0.257123
0.254587
0.251866
0.248427
0.242278
0.231174
0.215888
0.203092
0.199728
0.220741
0.253788
0.238392
0.139758
0.108919
0.237765
0.217966
0.200279
0.229875
0.243943
0.250722
0.25482
0.257096
0.258031
0.258075
0.258104
0.256245
0.25388
0.251263
0.247336
0.239816
0.227151
0.211799
0.200991
0.199621
0.222013
0.250971
0.251394
0.140888
0.10891
0.241322
0.222177
0.209826
0.236352
0.245985
0.251247
0.254725
0.256659
0.257342
0.257524
0.257531
0.255514
0.253385
0.250784
0.246268
0.237493
0.223792
0.208863
0.199798
0.199649
0.223546
0.253835
0.250971
0.142691
0.10948
0.252884
0.226913
0.217172
0.239717
0.246852
0.251417
0.254491
0.256109
0.256726
0.257012
0.256951
0.254938
0.253014
0.250379
0.245331
0.235665
0.22146
0.207196
0.199774
0.199961
0.225127
0.250971
0.251795
0.142784
0.110582
0.255936
0.231212
0.222496
0.241513
0.247216
0.251375
0.254166
0.255568
0.256211
0.256553
0.256425
0.254491
0.252717
0.250015
0.244592
0.234491
0.220257
0.20659
0.199784
0.200705
0.226841
0.253835
0.250971
0.14228
0.111518
0.254961
0.234624
0.226292
0.242555
0.247352
0.251272
0.253815
0.255089
0.255773
0.256135
0.255971
0.254133
0.252451
0.249677
0.244048
0.233905
0.220053
0.206753
0.200081
0.201872
0.228877
0.250971
0.25192
0.141029
0.112019
0.255934
0.237212
0.229014
0.243182
0.247326
0.251107
0.253471
0.254684
0.255396
0.255759
0.255588
0.253823
0.252191
0.249356
0.243656
0.233711
0.220274
0.207207
0.200696
0.203407
0.231391
0.253783
0.250971
0.13931
0.112257
0.254961
0.239267
0.231078
0.243572
0.247241
0.250887
0.253133
0.254324
0.255067
0.255424
0.255239
0.253526
0.251923
0.24906
0.243365
0.233682
0.220705
0.20802
0.201604
0.20534
0.233999
0.250971
0.251987
0.137155
0.112325
0.255722
0.241044
0.232765
0.243815
0.247096
0.250621
0.252788
0.253991
0.254766
0.255105
0.254895
0.253224
0.251644
0.248804
0.243145
0.233669
0.221226
0.209239
0.203011
0.207361
0.235429
0.253662
0.250971
0.134315
0.112343
0.254961
0.242687
0.234238
0.243956
0.246948
0.250375
0.252428
0.253675
0.254472
0.254794
0.254542
0.252903
0.251373
0.24857
0.243035
0.233601
0.221808
0.210848
0.205078
0.20888
0.235203
0.250971
0.251953
0.130958
0.112328
0.25549
0.244256
0.235592
0.244079
0.246805
0.250155
0.252139
0.25334
0.254155
0.254518
0.254234
0.252521
0.251141
0.248365
0.242826
0.233521
0.222466
0.212713
0.207657
0.209626
0.234476
0.253472
0.250971
0.127149
0.112357
0.254961
0.245773
0.236745
0.244161
0.246559
0.249917
0.251961
0.252988
0.253813
0.254197
0.253909
0.252199
0.250987
0.248281
0.242412
0.23362
0.223176
0.214663
0.210384
0.210083
0.233172
0.250971
0.251804
0.122717
0.112449
0.255275
0.247173
0.23753
0.244081
0.246382
0.249674
0.251529
0.252778
0.253475
0.253601
0.25352
0.252192
0.250853
0.248161
0.242331
0.233784
0.224024
0.216516
0.212891
0.210566
0.231467
0.253215
0.250971
0.117697
0.112345
0.254961
0.24822
0.238297
0.244042
0.246456
0.249508
0.250913
0.25247
0.253082
0.252924
0.253075
0.251982
0.250682
0.247927
0.242526
0.234043
0.22514
0.218131
0.214678
0.211179
0.229771
0.250971
0.251637
0.112142
0.112342
0.255092
0.249183
0.239151
0.24407
0.246296
0.249374
0.250955
0.251898
0.252619
0.252879
0.25284
0.251748
0.250503
0.24772
0.242473
0.234626
0.226505
0.21957
0.215322
0.211963
0.228548
0.252893
0.250971
0.106405
0.112621
0.254961
0.25019
0.239535
0.24403
0.246192
0.249143
0.250731
0.251463
0.252213
0.252662
0.252733
0.251959
0.250531
0.247777
0.242507
0.235311
0.228021
0.220971
0.215313
0.212897
0.227885
0.250971
0.251492
0.101269
0.113043
0.254977
0.250819
0.239846
0.243961
0.246239
0.249058
0.250339
0.251441
0.252069
0.252282
0.252598
0.251903
0.25055
0.247752
0.242831
0.236015
0.229577
0.222415
0.215342
0.213933
0.22762
0.252572
0.250971
0.0974448
0.113907
0.254848
0.251283
0.240155
0.244038
0.246083
0.248931
0.250467
0.251295
0.251899
0.252344
0.252602
0.251824
0.250483
0.247706
0.242997
0.236876
0.230987
0.223873
0.215493
0.215047
0.227651
0.250971
0.251371
0.0949227
0.115326
0.254243
0.25183
0.240555
0.24387
0.245935
0.248712
0.250298
0.251159
0.251628
0.25226
0.252556
0.252007
0.250528
0.2478
0.243259
0.237715
0.232171
0.225229
0.215902
0.216234
0.227937
0.252294
0.250971
0.0932849
0.116867
0.253124
0.252179
0.241229
0.243643
0.245951
0.248701
0.250015
0.251144
0.251669
0.252033
0.252451
0.251947
0.25063
0.247844
0.243805
0.238528
0.233122
0.226319
0.216667
0.217575
0.228736
0.250971
0.251262
0.0920754
0.11866
0.251404
0.252624
0.241842
0.243863
0.245804
0.248607
0.250206
0.250982
0.251818
0.252038
0.252545
0.251831
0.250586
0.247869
0.244092
0.239384
0.233799
0.227073
0.217823
0.219193
0.230013
0.252039
0.250971
0.0910139
0.121049
0.249037
0.252629
0.242611
0.243833
0.245594
0.248374
0.250045
0.250927
0.251716
0.251995
0.252603
0.252037
0.250552
0.247958
0.244398
0.240052
0.234283
0.227628
0.219383
0.221171
0.231478
0.250971
0.251171
0.0899439
0.124104
0.246194
0.252449
0.243783
0.24384
0.245444
0.248181
0.249686
0.251027
0.251392
0.251923
0.252828
0.252258
0.25063
0.248148
0.24481
0.240426
0.234674
0.228145
0.221276
0.223413
0.232846
0.251773
0.250971
0.0887558
0.127703
0.242627
0.252208
0.244794
0.244138
0.24513
0.247794
0.249772
0.250875
0.251458
0.252081
0.252948
0.252201
0.25086
0.24848
0.244935
0.240735
0.234973
0.22868
0.223258
0.225577
0.233882
0.250971
0.251097
0.0874135
0.131203
0.238714
0.251868
0.245796
0.244289
0.244777
0.247182
0.249515
0.250606
0.251659
0.252386
0.252924
0.252271
0.251049
0.248765
0.245191
0.24093
0.235215
0.229254
0.225043
0.227271
0.234474
0.251484
0.250971
0.0864108
0.134449
0.235
0.2513
0.24703
0.244459
0.244842
0.246863
0.248965
0.250687
0.251605
0.252896
0.252954
0.252603
0.251233
0.249069
0.245733
0.241164
0.235627
0.230092
0.226775
0.228702
0.234886
0.250971
0.251028
0.0864032
0.13694
0.232107
0.251652
0.248201
0.245295
0.245263
0.246971
0.249105
0.250945
0.251812
0.252949
0.252924
0.252954
0.251852
0.249884
0.246752
0.242144
0.236801
0.231854
0.229236
0.230703
0.235618
0.251186
0.25097
0.0864032
0.136293
0.232442
0.251655
0.24939
0.24669
0.246023
0.247278
0.249426
0.251195
0.252425
0.252924
0.252939
0.252924
0.252673
0.251204
0.248331
0.243917
0.238715
0.234299
0.232152
0.233087
0.236466
0.250971
0.250973
0.0864015
0.133346
0.233288
0.25119
0.248682
0.246176
0.245245
0.246233
0.248206
0.249945
0.251278
0.251824
0.25173
0.251698
0.25142
0.250051
0.247297
0.242961
0.237579
0.233115
0.231398
0.232053
0.234336
0.2483
0.247335
0.0871139
0.128116
0.230442
0.244816
0.242227
0.240347
0.239192
0.239673
0.241042
0.242483
0.243784
0.244384
0.244189
0.243921
0.243394
0.242012
0.239373
0.235038
0.229264
0.226104
0.226104
0.226104
0.226104
0.23549
0.233729
0.0871159
0.134878
0.231862
0.235359
0.235361
0.235362
0.235364
0.235366
0.235368
0.235876
0.237003
0.237769
0.237686
0.237376
0.236796
0.235626
0.233621
0.230622
0.226177
0.226104
0.226104
0.226104
0.226104
0.226104
0.227265
0.103272
0.282864
0.326278
0.322577
0.327879
0.332508
0.331422
0.329815
0.329375
0.329763
0.330635
0.331683
0.332382
0.333265
0.334438
0.335694
0.336818
0.337805
0.338229
0.338326
0.339448
0.34333
0.344245
0.341529
0.346507
0.300393
0.798027
0.746279
0.732902
0.736156
0.737596
0.733775
0.729228
0.726076
0.724194
0.723274
0.723626
0.724977
0.727554
0.731415
0.736515
0.742746
0.750003
0.758097
0.764979
0.771931
0.779848
0.785313
0.78612
0.795735
0.841673
0.990738
0.98206
0.976615
0.975458
0.974939
0.974243
0.973504
0.972874
0.972403
0.972113
0.972079
0.972288
0.972766
0.973502
0.974477
0.975656
0.976981
0.978399
0.979698
0.980845
0.981856
0.982646
0.983463
0.987367
0.993941
0.999978
0.999854
0.999529
0.999385
0.999379
0.999385
0.999387
0.999383
0.999376
0.99937
0.999369
0.999372
0.999381
0.999397
0.99942
0.999448
0.99948
0.999512
0.999541
0.999563
0.999574
0.999579
0.999645
0.999877
0.999978
1
1
0.999998
0.999996
0.999997
0.999997
0.999998
0.999998
0.999998
0.999998
0.999998
0.999998
0.999997
0.999997
0.999997
0.999997
0.999997
0.999997
0.999997
0.999997
0.999997
0.999997
0.999998
1
1
1
1
1
1
1
1
1
1
1
1
1
1
1
1
1
1
1
1
1
1
1
1
1
1
1
1
1
1
1
1
1
1
1
1
1
1
1
1
1
1
1
1
1
1
1
1
1
1
1
1
1
1
1
1
1
1
1
1
1
1
1
1
1
1
1
1
1
1
1
1
1
1
1
1
1
)
;

boundaryField
{
    inlet
    {
        type            fixedValue;
        value           uniform 0.5;
    }
    outlet
    {
        type            inletOutlet;
        phi             phi.air;
        inletValue      uniform 1;
        value           nonuniform List<scalar> 
25
(
1
1
1
1
1
1
1
1
1
1
1
1
1
1
1
1
1
1
1
1
1
1
1
1
1
)
;
    }
    walls
    {
        type            zeroGradient;
    }
    defaultFaces
    {
        type            empty;
    }
}


// ************************************************************************* //
