/*--------------------------------*- C++ -*----------------------------------*\
| =========                 |                                                 |
| \\      /  F ield         | OpenFOAM: The Open Source CFD Toolbox           |
|  \\    /   O peration     | Version:  2.3.0                                 |
|   \\  /    A nd           | Web:      www.OpenFOAM.org                      |
|    \\/     M anipulation  |                                                 |
\*---------------------------------------------------------------------------*/
FoamFile
{
    version     2.0;
    format      ascii;
    class       volScalarField;
    location    "71";
    object      k.water;
}
// * * * * * * * * * * * * * * * * * * * * * * * * * * * * * * * * * * * * * //

dimensions      [0 2 -2 0 0 0 0];

internalField   nonuniform List<scalar> 
1875
(
0.0566399
0.0592017
0.0624721
0.0655061
0.0683911
0.0711474
0.0737941
0.0763421
0.0787641
0.0810462
0.0831178
0.0849295
0.0863596
0.0872378
0.0873255
0.0867511
0.0850181
0.0815905
0.0766459
0.0705058
0.0637519
0.0569935
0.0506471
0.0448395
0.040878
0.0745337
0.075644
0.076726
0.0773571
0.077729
0.0779009
0.0779463
0.0779654
0.0780551
0.0782997
0.0788088
0.0796128
0.0807748
0.0822835
0.0839932
0.0855969
0.0865554
0.0864896
0.0853471
0.0826134
0.078428
0.0732654
0.0677334
0.0623505
0.0581166
0.0804874
0.0808826
0.0811504
0.081106
0.0809009
0.080557
0.080157
0.0797508
0.0793838
0.0791121
0.0790081
0.0791102
0.0794826
0.0802535
0.0813787
0.0827331
0.0840035
0.084484
0.0840077
0.0821896
0.0789096
0.0748141
0.0705284
0.0668302
0.0649478
0.0826028
0.0819311
0.0817797
0.0815312
0.0811544
0.0807357
0.0803475
0.0800308
0.0797944
0.0796623
0.0796674
0.0798065
0.0801311
0.0806918
0.0814813
0.0824048
0.0831897
0.0834028
0.0828497
0.0811789
0.0783405
0.0748412
0.0715516
0.069034
0.0683572
0.0844549
0.0838558
0.0833931
0.0826888
0.0819509
0.081277
0.0807198
0.0803064
0.0800155
0.0798584
0.0798491
0.0799865
0.0802755
0.0807055
0.0812379
0.081721
0.0819782
0.0818184
0.0809527
0.0792415
0.0768267
0.0740689
0.0715116
0.0698613
0.069777
0.088124
0.0873064
0.0865363
0.0853199
0.0841446
0.0830394
0.0820305
0.0811977
0.0805636
0.0801593
0.0799812
0.0799711
0.0801096
0.0803368
0.0805511
0.0806578
0.080594
0.080168
0.0792006
0.077607
0.0755327
0.0733153
0.0713646
0.0701389
0.0702326
0.0917935
0.0914541
0.0905123
0.0889745
0.0873492
0.0855605
0.0837286
0.0821053
0.0808677
0.0800268
0.0795735
0.0793949
0.0793712
0.0794672
0.079611
0.0796745
0.0795347
0.0789842
0.0779229
0.0763831
0.0745432
0.0726597
0.071012
0.0699515
0.0700154
0.0950339
0.0953851
0.0945031
0.0926582
0.0902666
0.0874024
0.0845707
0.0821215
0.0802707
0.0790773
0.0785042
0.0783493
0.0784651
0.0787315
0.078917
0.0789474
0.0786294
0.0778597
0.0766474
0.0750972
0.0733765
0.0716715
0.0702097
0.0693084
0.0693459
0.0967965
0.0978044
0.0969314
0.0946674
0.091435
0.0876115
0.0839244
0.0809273
0.0788582
0.0778447
0.0775403
0.0775395
0.0777267
0.077941
0.0780033
0.0777826
0.0771746
0.0761827
0.0748717
0.0733453
0.0717239
0.0701451
0.0688142
0.0680361
0.0680793
0.0979257
0.0986753
0.0977253
0.0950473
0.0911582
0.0867862
0.0828387
0.0799168
0.0782074
0.0773685
0.0769355
0.0767709
0.0767587
0.0766713
0.0764549
0.0759753
0.0752061
0.074169
0.0729143
0.0715078
0.0700294
0.0685914
0.0673863
0.0667254
0.0668046
0.0977469
0.0983428
0.0972884
0.0943942
0.0903347
0.0859054
0.0819792
0.0790537
0.0771795
0.0761924
0.0757569
0.0755745
0.0754529
0.075266
0.0749062
0.0743576
0.0736149
0.0726915
0.0716081
0.0703934
0.0690984
0.0678239
0.0667478
0.0661796
0.0662811
0.0967567
0.0973689
0.0962943
0.0934571
0.08961
0.0854875
0.081859
0.0791253
0.0773128
0.076236
0.0756483
0.0753042
0.0750142
0.0746983
0.0743082
0.0738152
0.0732014
0.072455
0.0715727
0.0705632
0.0694621
0.0683527
0.0673901
0.0668738
0.0670478
0.0958326
0.0962543
0.095137
0.092487
0.0890555
0.0854218
0.0821809
0.0797057
0.078024
0.0769672
0.0763233
0.0758989
0.0755686
0.0752658
0.0749421
0.0745621
0.0740937
0.0735133
0.0728104
0.0719876
0.071079
0.0701603
0.0693999
0.0691098
0.0693314
0.0948547
0.0949871
0.0938376
0.0915283
0.0886604
0.0856367
0.0829613
0.0808781
0.0794046
0.07842
0.0777665
0.0773281
0.0770209
0.076773
0.0765301
0.0762499
0.0758966
0.0754499
0.0748973
0.0742559
0.0735708
0.0729336
0.0725496
0.0726317
0.0728055
0.0937641
0.0936398
0.0925433
0.0906747
0.0884226
0.0860656
0.0839482
0.0822478
0.0810054
0.0801401
0.0795515
0.0791611
0.0789021
0.0787105
0.0785329
0.0783351
0.0780933
0.0777893
0.0774204
0.0770035
0.0765764
0.0762284
0.0761158
0.0763221
0.0765616
0.0926353
0.0923862
0.0914898
0.0900335
0.0883327
0.0865608
0.0849509
0.0836122
0.0825877
0.081845
0.0813324
0.0809933
0.0807752
0.0806386
0.0805451
0.080469
0.0803945
0.0803064
0.0801975
0.0800468
0.0798606
0.0796677
0.0795551
0.0794848
0.0797696
0.0917909
0.0915647
0.0908056
0.0896512
0.0883558
0.0870195
0.0858255
0.0848019
0.0839681
0.083329
0.0828758
0.0825873
0.0824317
0.0823713
0.0823697
0.0824138
0.0825018
0.0826367
0.0828034
0.0829478
0.0830188
0.0829928
0.0828049
0.0824488
0.0827401
0.0912223
0.0911139
0.090593
0.0896925
0.0886384
0.0875791
0.0866062
0.085784
0.0851016
0.0845663
0.0841881
0.0839629
0.0838685
0.0838702
0.083937
0.0840576
0.084241
0.0844963
0.084817
0.0851216
0.0853666
0.0855354
0.0855957
0.0853581
0.0857384
0.0908451
0.0908832
0.0907472
0.0901152
0.0892596
0.0883489
0.0874863
0.0867567
0.0861764
0.0857244
0.0854077
0.0852306
0.085181
0.0852268
0.0853359
0.0854866
0.0856836
0.085942
0.0862619
0.0865963
0.0869074
0.0872267
0.0876155
0.0877957
0.0883041
0.0906169
0.0908608
0.0912127
0.0909898
0.0903556
0.0895037
0.0886336
0.0878767
0.0873016
0.0869094
0.0866567
0.0865352
0.0865269
0.0866016
0.0867369
0.086898
0.0870756
0.0872801
0.0875251
0.0878177
0.0881399
0.0885191
0.089092
0.0896361
0.0902032
0.090181
0.0906084
0.0913559
0.0916463
0.0914118
0.0907802
0.0899535
0.0891499
0.0884851
0.0880631
0.0879235
0.08792
0.0879885
0.0881173
0.0882775
0.0884453
0.0886034
0.0887525
0.0889111
0.0891053
0.089357
0.0897053
0.0902682
0.0909446
0.0914873
0.0888562
0.0893649
0.0904146
0.091244
0.0915386
0.0913615
0.0908443
0.0901557
0.0895469
0.0890733
0.0888872
0.0890329
0.0893259
0.0896239
0.0898944
0.090123
0.0902979
0.0904169
0.0904974
0.0905762
0.0907118
0.090961
0.0914086
0.0920116
0.0925316
0.0861427
0.0865292
0.0877147
0.0891412
0.0902203
0.0906919
0.0906415
0.0903081
0.0898511
0.0895851
0.0894692
0.0895757
0.090021
0.0906498
0.0912421
0.0917109
0.0920252
0.0921878
0.0922297
0.0922107
0.0922209
0.0923342
0.0926442
0.0930941
0.0935137
0.0825357
0.0824248
0.0834787
0.0852073
0.0870045
0.0883916
0.0891965
0.0894801
0.0894509
0.0893899
0.0894393
0.0896653
0.090156
0.0910164
0.0920172
0.0929067
0.0935408
0.0938772
0.0939534
0.0938712
0.0937671
0.0937612
0.0939493
0.0942596
0.0945214
0.0788106
0.0782389
0.0791026
0.0808437
0.0829779
0.084989
0.086554
0.0875947
0.088201
0.0885442
0.0888873
0.0893701
0.0900888
0.0910711
0.0923243
0.0936077
0.094649
0.0952843
0.0954999
0.0954108
0.0952184
0.0951327
0.0952506
0.0954567
0.0955599
0.0764754
0.0757986
0.0764248
0.0779111
0.0799203
0.0821036
0.0840901
0.0856533
0.0867602
0.0875313
0.0881103
0.0887948
0.0897545
0.0909974
0.092441
0.0939718
0.0953407
0.0963004
0.0967394
0.0967292
0.0965131
0.0964084
0.0965274
0.096656
0.0966123
0.0763128
0.0755902
0.0759465
0.0771697
0.0788879
0.0808653
0.0828619
0.0846315
0.0860309
0.0870987
0.0879398
0.0887865
0.089844
0.0911509
0.0926681
0.0943015
0.0958342
0.0970174
0.0976738
0.0978077
0.0976362
0.0975737
0.0977979
0.0978381
0.097641
0.0781655
0.0773832
0.0773936
0.0782859
0.0796968
0.0813902
0.0831888
0.0848898
0.0863149
0.0874268
0.0882954
0.0891523
0.0902076
0.0915626
0.0931606
0.094825
0.0963791
0.0976266
0.0983999
0.0986503
0.0985428
0.0985153
0.0988616
0.0988371
0.0984958
0.081085
0.08033
0.080077
0.0807146
0.0818664
0.0833138
0.0848754
0.0863686
0.0876237
0.0885894
0.089332
0.0901031
0.0911166
0.0924255
0.0939536
0.095552
0.0970394
0.098228
0.0989835
0.0992569
0.0991728
0.0991206
0.0994557
0.0994465
0.0990346
0.0845253
0.0838943
0.0836427
0.084013
0.0849088
0.086144
0.0875098
0.0887927
0.0898014
0.0904856
0.0909682
0.0915498
0.0924123
0.0935858
0.0949807
0.0964393
0.09778
0.0988332
0.0994773
0.0996903
0.0995961
0.099541
0.0998294
0.0998072
0.0993682
0.0883195
0.0879026
0.0877667
0.0877897
0.0884269
0.0894547
0.0906024
0.0916152
0.0922992
0.0926408
0.0928538
0.0932408
0.0939462
0.0949483
0.096147
0.0974039
0.0985443
0.0994141
0.0999092
0.100023
0.0999012
0.0998749
0.100141
0.100065
0.0996346
0.0922361
0.0919791
0.0918057
0.0916296
0.0920822
0.0929386
0.0938542
0.0945328
0.0948152
0.0947991
0.0947667
0.0949666
0.0954917
0.0963119
0.097317
0.0983579
0.0992807
0.0999484
0.100274
0.100281
0.100139
0.100139
0.100374
0.100273
0.0998514
0.0958893
0.0957103
0.0954803
0.0952658
0.0956225
0.0963242
0.0969577
0.0972366
0.0971253
0.0968119
0.0965932
0.0966347
0.0970036
0.0976412
0.098439
0.0992605
0.0999637
0.100423
0.100577
0.100478
0.100326
0.100357
0.100556
0.100427
0.100063
0.0991054
0.0990173
0.098764
0.0985804
0.0988903
0.0994073
0.0996934
0.099581
0.0991364
0.0985996
0.0982591
0.0982303
0.0984558
0.0989048
0.0995007
0.100112
0.100605
0.100865
0.100864
0.100681
0.100531
0.100594
0.100751
0.100571
0.100303
0.101888
0.101883
0.101663
0.101527
0.10179
0.102064
0.102017
0.101597
0.100961
0.100329
0.0999012
0.0997108
0.0997875
0.100093
0.100517
0.100943
0.101244
0.101334
0.101203
0.100966
0.100829
0.100934
0.101098
0.100929
0.100684
0.104307
0.104379
0.104222
0.104127
0.104298
0.104319
0.103997
0.103391
0.102673
0.102026
0.101483
0.101161
0.101121
0.10128
0.101546
0.101806
0.101943
0.101888
0.101656
0.101388
0.10127
0.101418
0.101626
0.101553
0.101308
0.106474
0.106627
0.106529
0.106434
0.106466
0.106256
0.105738
0.105008
0.104213
0.10349
0.102907
0.102578
0.102453
0.102499
0.102636
0.102753
0.102753
0.102576
0.102267
0.101977
0.101873
0.102049
0.1023
0.10232
0.10208
0.108489
0.108715
0.108646
0.108514
0.108394
0.108012
0.107373
0.106572
0.10573
0.104958
0.104394
0.104026
0.103837
0.103798
0.10383
0.103835
0.103719
0.103444
0.103074
0.102763
0.102658
0.102834
0.103078
0.103125
0.102928
0.110424
0.110723
0.110644
0.11045
0.1102
0.109707
0.109003
0.108175
0.107327
0.10656
0.105955
0.105546
0.105317
0.105216
0.10517
0.105086
0.104881
0.104535
0.104123
0.103796
0.103683
0.103849
0.104073
0.104103
0.103958
0.112266
0.112614
0.112534
0.112297
0.111965
0.111413
0.110682
0.109853
0.109021
0.108272
0.107666
0.107229
0.106952
0.106796
0.106686
0.106535
0.106268
0.105875
0.105439
0.105104
0.104985
0.105137
0.105329
0.105379
0.105258
0.114027
0.114392
0.114353
0.114108
0.113741
0.113167
0.112436
0.111623
0.110813
0.110082
0.109483
0.109038
0.108736
0.108542
0.108386
0.108187
0.107881
0.107463
0.107016
0.10668
0.106567
0.106719
0.106907
0.106933
0.106822
0.11581
0.116203
0.116193
0.11595
0.115569
0.114995
0.114282
0.113498
0.11272
0.112018
0.111433
0.110987
0.11067
0.11045
0.110262
0.110032
0.109702
0.109273
0.108824
0.10849
0.108379
0.108526
0.108738
0.108762
0.108652
0.117646
0.118066
0.118083
0.117849
0.117469
0.116908
0.116223
0.115475
0.114733
0.114058
0.113495
0.11306
0.11274
0.112505
0.112296
0.112047
0.111706
0.111278
0.110838
0.110512
0.110411
0.110549
0.110689
0.11072
0.110645
0.11954
0.119982
0.120028
0.119811
0.119443
0.118906
0.118255
0.117549
0.116848
0.11621
0.115672
0.115249
0.11493
0.114687
0.114466
0.114207
0.113866
0.113451
0.113033
0.112729
0.11264
0.112772
0.112863
0.112876
0.112786
0.121487
0.121949
0.122024
0.12183
0.121481
0.120974
0.120363
0.119702
0.119047
0.118447
0.117937
0.117529
0.117215
0.116969
0.116741
0.116479
0.116143
0.115746
0.115355
0.115072
0.114971
0.115075
0.115211
0.115215
0.115093
0.123474
0.123952
0.124057
0.123889
0.123565
0.123093
0.122526
0.121911
0.121301
0.120742
0.120262
0.119873
0.119568
0.119324
0.119096
0.118835
0.11851
0.118134
0.117768
0.117498
0.117381
0.117451
0.117547
0.117552
0.117455
0.125488
0.125979
0.126111
0.125969
0.12567
0.125227
0.124703
0.124147
0.123588
0.12307
0.122623
0.122257
0.121963
0.121724
0.121496
0.121232
0.120934
0.120589
0.120253
0.119997
0.11988
0.119942
0.120028
0.120012
0.119899
0.12751
0.12801
0.128167
0.128047
0.12778
0.127384
0.126908
0.126391
0.125884
0.125402
0.124973
0.12463
0.124372
0.124153
0.123942
0.123698
0.123415
0.123094
0.122785
0.122544
0.122423
0.122475
0.122568
0.122548
0.12241
0.129522
0.130031
0.130215
0.130139
0.129929
0.129614
0.129186
0.128683
0.128205
0.127758
0.127361
0.127039
0.126775
0.126564
0.126379
0.126193
0.125916
0.125616
0.12533
0.125108
0.124986
0.125023
0.125109
0.125084
0.124929
0.131513
0.132031
0.132255
0.13224
0.132058
0.131733
0.131349
0.130937
0.130479
0.130085
0.129781
0.129501
0.129234
0.129022
0.128828
0.128617
0.128377
0.128111
0.127851
0.127643
0.127533
0.127563
0.127637
0.127604
0.127427
0.133482
0.134004
0.134246
0.134209
0.134044
0.133767
0.133432
0.133072
0.1327
0.132355
0.132056
0.131816
0.131644
0.131474
0.131287
0.131052
0.130825
0.13058
0.13034
0.130146
0.130047
0.130079
0.130148
0.130097
0.129901
0.135352
0.135874
0.13612
0.136124
0.13602
0.135845
0.135569
0.135222
0.134921
0.134608
0.134288
0.134046
0.133868
0.133716
0.133574
0.133431
0.13322
0.132998
0.132779
0.132598
0.132511
0.132537
0.132602
0.132542
0.132328
0.137173
0.137705
0.137965
0.138024
0.137954
0.137756
0.13752
0.137272
0.136974
0.136711
0.136506
0.136306
0.136099
0.135944
0.135809
0.135673
0.135519
0.135339
0.135149
0.134986
0.134912
0.134936
0.134987
0.134915
0.134689
0.138929
0.139442
0.139746
0.139793
0.139726
0.139578
0.139381
0.13916
0.138923
0.138707
0.138532
0.138395
0.138309
0.138211
0.138094
0.137937
0.137794
0.137634
0.137465
0.137319
0.137255
0.137278
0.137322
0.13724
0.137006
0.140586
0.141092
0.141404
0.141518
0.141503
0.141445
0.141305
0.141104
0.140942
0.140761
0.140564
0.140425
0.140333
0.140259
0.140193
0.140133
0.140012
0.139877
0.139735
0.13961
0.139561
0.139585
0.13962
0.13953
0.139292
0.142235
0.142743
0.143047
0.143176
0.143222
0.143156
0.143061
0.142958
0.142807
0.142691
0.142597
0.142502
0.142392
0.142325
0.142275
0.142228
0.142166
0.142076
0.141971
0.141878
0.14185
0.141881
0.14191
0.141816
0.141574
0.143878
0.144365
0.144703
0.144818
0.14486
0.144836
0.144777
0.144697
0.144601
0.144523
0.144474
0.144449
0.144459
0.144444
0.144421
0.144375
0.144337
0.144277
0.144207
0.14415
0.144147
0.14419
0.144219
0.144123
0.143879
0.145533
0.146006
0.146342
0.146531
0.146597
0.146644
0.146627
0.146558
0.14652
0.146444
0.146412
0.146418
0.146459
0.146493
0.146524
0.146551
0.146532
0.146502
0.14647
0.146454
0.146481
0.14654
0.146573
0.146483
0.14624
0.147274
0.147705
0.148052
0.148259
0.148388
0.148424
0.148446
0.148468
0.148447
0.148454
0.148493
0.148526
0.148545
0.148614
0.148673
0.148707
0.148746
0.148771
0.14879
0.148824
0.148889
0.148971
0.14902
0.14894
0.148702
0.149214
0.149627
0.149995
0.150176
0.15029
0.150353
0.150399
0.15044
0.150479
0.15055
0.150589
0.150631
0.150698
0.150789
0.150887
0.150984
0.151081
0.151161
0.151235
0.151321
0.151429
0.151541
0.151615
0.151556
0.151327
0.151457
0.151854
0.152185
0.15241
0.152524
0.152634
0.152698
0.152729
0.152797
0.152832
0.152888
0.152986
0.153111
0.153238
0.153383
0.153546
0.153666
0.153781
0.153902
0.154037
0.154189
0.15434
0.154447
0.154418
0.154208
0.154099
0.154428
0.154745
0.154961
0.155117
0.155208
0.15529
0.155375
0.155441
0.155516
0.155643
0.15581
0.155974
0.156136
0.156295
0.15644
0.15659
0.156747
0.156915
0.157099
0.157297
0.157488
0.157635
0.157647
0.157468
0.157321
0.157631
0.157932
0.158091
0.158207
0.158301
0.158404
0.158529
0.15866
0.15883
0.158987
0.159144
0.159322
0.159507
0.159692
0.159873
0.16007
0.160269
0.160477
0.1607
0.160935
0.161164
0.161353
0.161414
0.161275
0.161357
0.161646
0.161886
0.162066
0.162192
0.162321
0.162472
0.162646
0.162846
0.16306
0.16327
0.163465
0.163678
0.163901
0.164127
0.164347
0.164557
0.164759
0.164966
0.165187
0.16542
0.165653
0.165864
0.165969
0.165883
0.16657
0.166834
0.167095
0.167366
0.167644
0.167935
0.168244
0.168565
0.168879
0.169182
0.169486
0.169783
0.170059
0.170317
0.170552
0.17076
0.170939
0.171093
0.171234
0.171372
0.171506
0.171638
0.171769
0.171848
0.171796
0.173724
0.174083
0.17456
0.175128
0.175745
0.17637
0.17696
0.177507
0.178024
0.178501
0.178941
0.179344
0.179706
0.180029
0.180308
0.180543
0.180716
0.180822
0.180865
0.180835
0.18073
0.180564
0.180366
0.180194
0.180027
0.184387
0.185099
0.186158
0.187332
0.188441
0.189383
0.190194
0.190908
0.191553
0.192149
0.192708
0.193236
0.193734
0.194201
0.194628
0.195001
0.195303
0.195507
0.195585
0.195507
0.195242
0.194734
0.193996
0.193209
0.192658
0.199682
0.200183
0.201423
0.202697
0.203749
0.204524
0.205126
0.205656
0.206168
0.206685
0.207223
0.207787
0.208382
0.209008
0.209656
0.210314
0.210962
0.211569
0.212081
0.212464
0.212646
0.212479
0.211881
0.211044
0.210828
0.200685
0.200731
0.200946
0.201434
0.201966
0.202439
0.20287
0.203303
0.203761
0.204254
0.204792
0.205375
0.206002
0.206671
0.207375
0.208108
0.208858
0.209607
0.210312
0.21095
0.211486
0.211881
0.212182
0.212696
0.213182
0.192696
0.190898
0.18795
0.186467
0.18613
0.186218
0.18646
0.1868
0.187231
0.187734
0.188289
0.188882
0.189485
0.190068
0.190619
0.191147
0.191669
0.192216
0.192817
0.19346
0.194108
0.194894
0.196829
0.202172
0.206632
0.167815
0.164962
0.155238
0.148885
0.146912
0.14576
0.144342
0.143092
0.142388
0.142316
0.14272
0.143788
0.145038
0.146087
0.146812
0.147364
0.147985
0.148885
0.150199
0.151925
0.153827
0.156012
0.161696
0.176166
0.185381
0.148732
0.143323
0.130904
0.118248
0.104867
0.0902901
0.0770201
0.0681875
0.063452
0.0621091
0.0627769
0.06643
0.0768944
0.0913919
0.10284
0.109545
0.112531
0.114009
0.115754
0.118532
0.121623
0.12571
0.135988
0.154622
0.163392
0.136153
0.123816
0.101513
0.0658949
0.0343531
0.0158921
0.00746338
0.00467513
0.00361968
0.00338811
0.00352795
0.00449562
0.00888338
0.0241222
0.0484437
0.0675378
0.0804913
0.0888284
0.0947534
0.100375
0.106444
0.112212
0.122872
0.139074
0.151056
0.123281
0.0967407
0.0548933
0.0154388
0.00108978
0.000208398
7.47777e-05
4.28739e-05
3.51557e-05
3.60703e-05
0.000115248
0.000982559
0.00475944
0.0169727
0.0372819
0.0568862
0.0699868
0.0774178
0.0810335
0.0843922
0.0898357
0.0983845
0.111725
0.129331
0.144785
0.102048
0.0632323
0.0217693
0.00113328
3.00323e-05
2.63336e-05
2.61911e-05
2.60295e-05
2.55599e-05
2.47547e-05
6.04189e-05
0.00126738
0.00650197
0.0156278
0.0262305
0.0358179
0.0426513
0.0441502
0.041736
0.0407083
0.0435983
0.0547344
0.0772998
0.10273
0.12982
)
;

boundaryField
{
    inlet
    {
        type            fixedValue;
        value           uniform 3.75e-05;
    }
    outlet
    {
        type            inletOutlet;
        phi             phi.water;
        inletValue      uniform 3.75e-05;
        value           nonuniform List<scalar> 
25
(
0.102048
0.0632323
0.0217693
3.75e-05
3.75e-05
3.75e-05
3.75e-05
3.75e-05
3.75e-05
3.75e-05
3.75e-05
3.75e-05
3.75e-05
0.0156278
0.0262305
0.0358179
0.0426513
0.0441502
0.041736
0.0407083
0.0435983
0.0547344
0.0772998
0.10273
0.12982
)
;
    }
    walls
    {
        type            kqRWallFunction;
        value           nonuniform List<scalar> 
150
(
0.0566399
0.0745337
0.0804874
0.0826028
0.0844549
0.088124
0.0917935
0.0950339
0.0967965
0.0979257
0.0977469
0.0967567
0.0958326
0.0948547
0.0937641
0.0926353
0.0917909
0.0912223
0.0908451
0.0906169
0.090181
0.0888562
0.0861427
0.0825357
0.0788106
0.0764754
0.0763128
0.0781655
0.081085
0.0845253
0.0883195
0.0922361
0.0958893
0.0991054
0.101888
0.104307
0.106474
0.108489
0.110424
0.112266
0.114027
0.11581
0.117646
0.11954
0.121487
0.123474
0.125488
0.12751
0.129522
0.131513
0.133482
0.135352
0.137173
0.138929
0.140586
0.142235
0.143878
0.145533
0.147274
0.149214
0.151457
0.154099
0.157321
0.161357
0.16657
0.173724
0.184387
0.199682
0.200685
0.192696
0.167815
0.148732
0.136153
0.123281
0.102048
0.040878
0.0581166
0.0649478
0.0683572
0.069777
0.0702326
0.0700154
0.0693459
0.0680793
0.0668046
0.0662811
0.0670478
0.0693314
0.0728055
0.0765616
0.0797696
0.0827401
0.0857384
0.0883041
0.0902032
0.0914873
0.0925316
0.0935137
0.0945214
0.0955599
0.0966123
0.097641
0.0984958
0.0990346
0.0993682
0.0996346
0.0998514
0.100063
0.100303
0.100684
0.101308
0.10208
0.102928
0.103958
0.105258
0.106822
0.108652
0.110645
0.112786
0.115093
0.117455
0.119899
0.12241
0.124929
0.127427
0.129901
0.132328
0.134689
0.137006
0.139292
0.141574
0.143879
0.14624
0.148702
0.151327
0.154208
0.157468
0.161275
0.165883
0.171796
0.180027
0.192658
0.210828
0.213182
0.206632
0.185381
0.163392
0.151056
0.144785
0.12982
)
;
    }
    defaultFaces
    {
        type            empty;
    }
}


// ************************************************************************* //
