/*--------------------------------*- C++ -*----------------------------------*\
| =========                 |                                                 |
| \\      /  F ield         | OpenFOAM: The Open Source CFD Toolbox           |
|  \\    /   O peration     | Version:  2.3.0                                 |
|   \\  /    A nd           | Web:      www.OpenFOAM.org                      |
|    \\/     M anipulation  |                                                 |
\*---------------------------------------------------------------------------*/
FoamFile
{
    version     2.0;
    format      ascii;
    class       volVectorField;
    location    "71";
    object      U.airMean;
}
// * * * * * * * * * * * * * * * * * * * * * * * * * * * * * * * * * * * * * //

dimensions      [0 1 -1 0 0 0 0];

internalField   nonuniform List<vector> 
1875
(
(0.0451981 0.0716302 0)
(0.0968956 0.0717261 0)
(0.167943 0.0801856 0)
(0.213912 0.0921154 0)
(0.241107 0.106254 0)
(0.252553 0.12 0)
(0.251479 0.131391 0)
(0.241219 0.141704 0)
(0.224328 0.149458 0)
(0.20241 0.155235 0)
(0.17573 0.16015 0)
(0.146022 0.162868 0)
(0.114137 0.163866 0)
(0.0806454 0.162878 0)
(0.0443546 0.160894 0)
(0.004457 0.15981 0)
(-0.0378751 0.157702 0)
(-0.0789583 0.153817 0)
(-0.114339 0.147943 0)
(-0.139811 0.138924 0)
(-0.151847 0.127645 0)
(-0.148228 0.114347 0)
(-0.125542 0.101243 0)
(-0.0839057 0.0889 0)
(-0.0414105 0.0839585 0)
(0.0444934 0.135564 0)
(0.0967015 0.159601 0)
(0.149079 0.199411 0)
(0.178984 0.236134 0)
(0.194373 0.2698 0)
(0.199971 0.301423 0)
(0.198015 0.328076 0)
(0.190282 0.351618 0)
(0.179824 0.373392 0)
(0.166862 0.391527 0)
(0.151092 0.404808 0)
(0.132827 0.414238 0)
(0.111526 0.421114 0)
(0.0880082 0.425341 0)
(0.0618684 0.429115 0)
(0.0330287 0.429166 0)
(0.002862 0.423648 0)
(-0.028142 0.411048 0)
(-0.0572963 0.391902 0)
(-0.0811347 0.36711 0)
(-0.096611 0.337888 0)
(-0.102882 0.307452 0)
(-0.0957382 0.2723 0)
(-0.0713363 0.229595 0)
(-0.0334781 0.198265 0)
(0.0274331 -0.018038 0)
(0.0618244 0.0292518 0)
(0.0881737 0.0815569 0)
(0.104506 0.129379 0)
(0.113732 0.174149 0)
(0.11859 0.216051 0)
(0.120774 0.255327 0)
(0.120455 0.28982 0)
(0.119017 0.319728 0)
(0.115685 0.346537 0)
(0.109949 0.367492 0)
(0.102077 0.381 0)
(0.0912794 0.390259 0)
(0.0781818 0.394672 0)
(0.0636246 0.396429 0)
(0.0487044 0.392768 0)
(0.0315224 0.381896 0)
(0.0144647 0.363806 0)
(-0.00232409 0.337689 0)
(-0.0160883 0.305566 0)
(-0.0266663 0.271335 0)
(-0.0345958 0.238283 0)
(-0.0364898 0.200771 0)
(-0.0344068 0.148157 0)
(-0.0164339 0.0938027 0)
(0.0166842 -0.0491374 0)
(0.040784 0.0155375 0)
(0.0497938 0.0743539 0)
(0.0562409 0.127401 0)
(0.0609851 0.176902 0)
(0.0635754 0.22351 0)
(0.0644574 0.266236 0)
(0.0636276 0.304203 0)
(0.0633294 0.337444 0)
(0.0633529 0.367047 0)
(0.0630809 0.391053 0)
(0.0617964 0.409307 0)
(0.0582693 0.422332 0)
(0.0531378 0.429305 0)
(0.0472859 0.432822 0)
(0.0407353 0.43221 0)
(0.0329376 0.424211 0)
(0.0244989 0.406444 0)
(0.0151479 0.379967 0)
(0.00489862 0.345021 0)
(-0.00384113 0.305045 0)
(-0.0107429 0.263464 0)
(-0.0143425 0.21702 0)
(-0.0180518 0.157724 0)
(-0.00844174 0.084496 0)
(0.00963071 -0.071589 0)
(0.0236125 -0.00556099 0)
(0.0209323 0.0545148 0)
(0.0184011 0.10679 0)
(0.0165569 0.154057 0)
(0.0140246 0.200127 0)
(0.0113439 0.24407 0)
(0.00866565 0.282151 0)
(0.00732374 0.315303 0)
(0.0078417 0.344417 0)
(0.0100178 0.368757 0)
(0.0121351 0.39025 0)
(0.01322 0.405773 0)
(0.0140567 0.415373 0)
(0.0149273 0.419274 0)
(0.0163223 0.418286 0)
(0.0181153 0.409273 0)
(0.0192677 0.392903 0)
(0.0178855 0.367932 0)
(0.0139732 0.336041 0)
(0.00791645 0.298353 0)
(0.00143576 0.25965 0)
(-0.00425186 0.213846 0)
(-0.00749456 0.153459 0)
(-0.00337104 0.077127 0)
(0.00734354 -0.0697549 0)
(0.0124593 0.00384967 0)
(0.000398009 0.0712436 0)
(-0.00772582 0.125482 0)
(-0.0167029 0.168753 0)
(-0.0270185 0.208911 0)
(-0.0349538 0.247139 0)
(-0.041042 0.282523 0)
(-0.0445513 0.311901 0)
(-0.0451403 0.337121 0)
(-0.0434504 0.359162 0)
(-0.0396823 0.379529 0)
(-0.034429 0.394767 0)
(-0.0276702 0.402863 0)
(-0.0199369 0.407251 0)
(-0.0111883 0.406569 0)
(-0.00214029 0.400431 0)
(0.00561309 0.387756 0)
(0.0100364 0.36939 0)
(0.0110076 0.344839 0)
(0.0078038 0.315305 0)
(0.00213488 0.2815 0)
(-0.00296187 0.235359 0)
(-0.00435691 0.168952 0)
(-0.00218974 0.083064 0)
(0.00371603 -0.0586183 0)
(0.00307 0.0154428 0)
(-0.0160539 0.0875829 0)
(-0.0254034 0.146399 0)
(-0.039506 0.188509 0)
(-0.0543391 0.223812 0)
(-0.0671383 0.255672 0)
(-0.0771221 0.283666 0)
(-0.0832948 0.306464 0)
(-0.0860539 0.326359 0)
(-0.0855578 0.343796 0)
(-0.0813027 0.358349 0)
(-0.0733813 0.368843 0)
(-0.0629626 0.374913 0)
(-0.0507284 0.378354 0)
(-0.0373897 0.378279 0)
(-0.0240622 0.373811 0)
(-0.0125869 0.366442 0)
(-0.00406909 0.354907 0)
(0.000361932 0.339248 0)
(7.47236e-05 0.317543 0)
(-0.0035777 0.289634 0)
(-0.00469013 0.241036 0)
(-0.00279912 0.171198 0)
(-0.000717478 0.0838923 0)
(0.00219972 -0.0366424 0)
(-0.00306336 0.0410436 0)
(-0.026032 0.117564 0)
(-0.0362976 0.181728 0)
(-0.0530684 0.224182 0)
(-0.070385 0.253393 0)
(-0.0862514 0.276966 0)
(-0.0976081 0.297202 0)
(-0.105202 0.312668 0)
(-0.108168 0.324423 0)
(-0.106912 0.333511 0)
(-0.101887 0.341044 0)
(-0.0924752 0.346695 0)
(-0.0804023 0.350477 0)
(-0.0665626 0.352467 0)
(-0.0518637 0.35269 0)
(-0.0374766 0.351493 0)
(-0.0250098 0.348589 0)
(-0.0152248 0.344194 0)
(-0.00979204 0.338624 0)
(-0.0094348 0.328191 0)
(-0.0108076 0.302886 0)
(-0.00956056 0.250469 0)
(-0.00360135 0.173842 0)
(-0.00190292 0.084327 0)
(-0.00036668 -0.0116786 0)
(-0.00737045 0.067227 0)
(-0.0311649 0.144222 0)
(-0.0403218 0.212238 0)
(-0.0555037 0.258253 0)
(-0.0717332 0.284634 0)
(-0.0870714 0.301579 0)
(-0.0984015 0.311186 0)
(-0.105816 0.315933 0)
(-0.108759 0.318677 0)
(-0.107597 0.321997 0)
(-0.101954 0.322341 0)
(-0.0925243 0.321498 0)
(-0.0809421 0.321548 0)
(-0.0684454 0.322487 0)
(-0.0555463 0.324007 0)
(-0.0429591 0.326078 0)
(-0.0320116 0.32906 0)
(-0.0242211 0.332216 0)
(-0.019872 0.334667 0)
(-0.0184931 0.329376 0)
(-0.0169816 0.304316 0)
(-0.0120317 0.246639 0)
(-0.00508643 0.168269 0)
(-0.00222411 0.078764 0)
(-0.00150871 0.0147814 0)
(-0.00806989 0.095713 0)
(-0.0303334 0.172701 0)
(-0.0386983 0.242394 0)
(-0.0497844 0.293378 0)
(-0.0628857 0.318933 0)
(-0.0748316 0.328876 0)
(-0.0844271 0.330597 0)
(-0.0913683 0.32854 0)
(-0.0945122 0.32434 0)
(-0.0942763 0.316802 0)
(-0.0906197 0.30789 0)
(-0.0840453 0.302199 0)
(-0.0741531 0.299892 0)
(-0.0637549 0.301204 0)
(-0.0526737 0.303594 0)
(-0.0433531 0.308329 0)
(-0.0358285 0.315892 0)
(-0.0310095 0.324737 0)
(-0.0284398 0.331694 0)
(-0.0263664 0.328563 0)
(-0.0228842 0.300264 0)
(-0.0145867 0.238968 0)
(-0.00731822 0.161136 0)
(-0.00234454 0.0718076 0)
(-0.00147865 0.0359686 0)
(-0.00614331 0.118048 0)
(-0.0245679 0.195102 0)
(-0.0316785 0.26487 0)
(-0.0396139 0.318717 0)
(-0.0478394 0.345322 0)
(-0.0569106 0.351727 0)
(-0.0643201 0.3469 0)
(-0.069976 0.336328 0)
(-0.0734227 0.32316 0)
(-0.0735955 0.309669 0)
(-0.0719378 0.297101 0)
(-0.0690369 0.285389 0)
(-0.0631046 0.279177 0)
(-0.0559542 0.278197 0)
(-0.0474543 0.283354 0)
(-0.0410785 0.292534 0)
(-0.0370548 0.305384 0)
(-0.0353227 0.31865 0)
(-0.0342733 0.328389 0)
(-0.032226 0.322742 0)
(-0.0261865 0.287604 0)
(-0.0161721 0.222934 0)
(-0.00824641 0.147283 0)
(-0.00176997 0.0609714 0)
(-0.000725339 0.0535253 0)
(-0.00291146 0.13621 0)
(-0.0176802 0.213409 0)
(-0.022622 0.282378 0)
(-0.0281249 0.336854 0)
(-0.0331207 0.36549 0)
(-0.0393295 0.371085 0)
(-0.0451366 0.362116 0)
(-0.049085 0.347432 0)
(-0.0515087 0.328684 0)
(-0.0520767 0.309818 0)
(-0.0521316 0.29324 0)
(-0.0516315 0.278448 0)
(-0.0498296 0.268717 0)
(-0.0478243 0.267045 0)
(-0.0446238 0.272396 0)
(-0.0418841 0.284705 0)
(-0.0390635 0.3008 0)
(-0.0389565 0.316936 0)
(-0.0380558 0.325198 0)
(-0.0352258 0.31394 0)
(-0.0270932 0.269856 0)
(-0.0169496 0.204954 0)
(-0.00826901 0.13059 0)
(-0.00224255 0.049834 0)
(0.000145754 0.0655352 0)
(-0.000257442 0.149082 0)
(-0.0118407 0.2248 0)
(-0.0154715 0.29172 0)
(-0.0183792 0.346734 0)
(-0.021331 0.377119 0)
(-0.0246487 0.384083 0)
(-0.0289066 0.372919 0)
(-0.032391 0.353486 0)
(-0.0341982 0.330611 0)
(-0.0353428 0.30951 0)
(-0.0360996 0.291194 0)
(-0.036571 0.274663 0)
(-0.0383622 0.265372 0)
(-0.0408082 0.26348 0)
(-0.041788 0.268112 0)
(-0.0415758 0.279763 0)
(-0.0405284 0.297085 0)
(-0.0406098 0.314668 0)
(-0.0398518 0.319545 0)
(-0.0354097 0.300097 0)
(-0.0261647 0.24909 0)
(-0.017236 0.185029 0)
(-0.00867711 0.112983 0)
(-0.00368105 0.0372387 0)
(0.000537789 0.0739675 0)
(0.00155226 0.158563 0)
(-0.00666853 0.232656 0)
(-0.00913032 0.29691 0)
(-0.0102104 0.350147 0)
(-0.0108081 0.382629 0)
(-0.0121052 0.390692 0)
(-0.0139723 0.381452 0)
(-0.01654 0.360501 0)
(-0.0192492 0.336056 0)
(-0.0217145 0.312188 0)
(-0.023439 0.291239 0)
(-0.0251894 0.275908 0)
(-0.0284198 0.269706 0)
(-0.0328811 0.267492 0)
(-0.0361751 0.270707 0)
(-0.0391521 0.280298 0)
(-0.040701 0.29689 0)
(-0.0413233 0.313937 0)
(-0.0401286 0.312596 0)
(-0.0348389 0.283749 0)
(-0.0269014 0.229979 0)
(-0.0197711 0.168313 0)
(-0.0113101 0.0980233 0)
(-0.00607954 0.0214362 0)
(0.000864923 0.0786169 0)
(0.00268426 0.16324 0)
(-0.00222008 0.235996 0)
(-0.00329313 0.297878 0)
(-0.00416265 0.348012 0)
(-0.0032383 0.381758 0)
(-0.00285066 0.391389 0)
(-0.00250711 0.383264 0)
(-0.0034116 0.365379 0)
(-0.00526181 0.339957 0)
(-0.00822586 0.315882 0)
(-0.0117901 0.294038 0)
(-0.0150178 0.278243 0)
(-0.0183253 0.273083 0)
(-0.023098 0.272287 0)
(-0.0281334 0.276976 0)
(-0.0338406 0.286403 0)
(-0.0374033 0.300803 0)
(-0.0389316 0.311555 0)
(-0.0370218 0.303838 0)
(-0.0325168 0.270304 0)
(-0.027103 0.215613 0)
(-0.0229534 0.155431 0)
(-0.0143775 0.083177 0)
(-0.00751957 0.00208635 0)
(0.0010094 0.0803043 0)
(0.00340277 0.165026 0)
(0.000953736 0.237638 0)
(0.000428581 0.298573 0)
(3.22538e-05 0.346097 0)
(0.00152594 0.377301 0)
(0.00361488 0.389174 0)
(0.00519613 0.382484 0)
(0.00644588 0.36531 0)
(0.00651673 0.342831 0)
(0.00300154 0.321475 0)
(-0.00113378 0.299992 0)
(-0.00586773 0.284492 0)
(-0.0106253 0.280094 0)
(-0.0158657 0.2822 0)
(-0.0215262 0.287658 0)
(-0.0265626 0.29529 0)
(-0.0295288 0.305202 0)
(-0.0312068 0.310307 0)
(-0.0295956 0.296013 0)
(-0.0257076 0.259239 0)
(-0.0234972 0.208171 0)
(-0.0225785 0.148191 0)
(-0.0157631 0.0713084 0)
(-0.00723596 -0.0146126 0)
(0.000879168 0.0809422 0)
(0.00363498 0.165756 0)
(0.0041351 0.238496 0)
(0.00446466 0.297668 0)
(0.00507797 0.342128 0)
(0.00663034 0.37136 0)
(0.00987147 0.382974 0)
(0.0122875 0.377043 0)
(0.0141227 0.361005 0)
(0.0142799 0.343414 0)
(0.0116483 0.325264 0)
(0.00740117 0.305778 0)
(0.00244382 0.292152 0)
(-0.00346744 0.288008 0)
(-0.00860064 0.289704 0)
(-0.013302 0.294794 0)
(-0.0172701 0.30043 0)
(-0.0196533 0.307775 0)
(-0.02019 0.307784 0)
(-0.018343 0.288837 0)
(-0.0165658 0.253947 0)
(-0.0162074 0.206752 0)
(-0.0161763 0.144385 0)
(-0.0140648 0.0643906 0)
(-0.0061784 -0.0248235 0)
(0.00104762 0.0790092 0)
(0.00449646 0.163907 0)
(0.00883378 0.237546 0)
(0.0111204 0.295802 0)
(0.0130218 0.338628 0)
(0.0154807 0.365206 0)
(0.0192495 0.376007 0)
(0.0216817 0.372773 0)
(0.022361 0.359831 0)
(0.0206187 0.343914 0)
(0.0181856 0.327395 0)
(0.0135283 0.310111 0)
(0.0088554 0.298033 0)
(0.00330038 0.295842 0)
(-0.00210621 0.29801 0)
(-0.00692122 0.302605 0)
(-0.0103895 0.306257 0)
(-0.011883 0.30829 0)
(-0.0105581 0.303653 0)
(-0.00894643 0.285089 0)
(-0.00788732 0.251964 0)
(-0.0074599 0.206112 0)
(-0.00690323 0.143653 0)
(-0.00970729 0.0635307 0)
(-0.00490816 -0.0277715 0)
(0.00157015 0.0718013 0)
(0.00612649 0.155971 0)
(0.0139829 0.230734 0)
(0.0192665 0.290197 0)
(0.0236799 0.33143 0)
(0.027906 0.356905 0)
(0.0315838 0.368799 0)
(0.0335479 0.368381 0)
(0.0328235 0.358528 0)
(0.0295219 0.344224 0)
(0.0251721 0.328794 0)
(0.0187346 0.313989 0)
(0.0118813 0.303269 0)
(0.00564705 0.302433 0)
(0.000626452 0.305599 0)
(-0.003871 0.30781 0)
(-0.00610773 0.309792 0)
(-0.00604967 0.307785 0)
(-0.0044986 0.300152 0)
(-0.00262184 0.282633 0)
(-0.000965161 0.251261 0)
(-0.000500554 0.207389 0)
(0.000255718 0.145199 0)
(-0.00521337 0.0662219 0)
(-0.00372506 -0.0276112 0)
(0.00167498 0.0614447 0)
(0.00649025 0.145364 0)
(0.0169573 0.21932 0)
(0.0242785 0.278164 0)
(0.0310125 0.320669 0)
(0.0370528 0.34758 0)
(0.0414052 0.361629 0)
(0.0438279 0.364524 0)
(0.0434603 0.35902 0)
(0.039488 0.34773 0)
(0.0329899 0.335979 0)
(0.0241497 0.32395 0)
(0.0147207 0.313745 0)
(0.00685512 0.310299 0)
(0.00212722 0.311249 0)
(-0.00127745 0.311227 0)
(-0.00249782 0.309434 0)
(-0.00153108 0.305488 0)
(-0.000776197 0.298674 0)
(0.00136828 0.27976 0)
(0.00289309 0.24999 0)
(0.00334035 0.2081 0)
(0.00328505 0.148849 0)
(-0.00265283 0.0707924 0)
(-0.00244396 -0.0259751 0)
(0.00148336 0.0507638 0)
(0.00547717 0.133806 0)
(0.0168907 0.206031 0)
(0.0251929 0.263403 0)
(0.0327577 0.305972 0)
(0.0397358 0.334124 0)
(0.0456095 0.351644 0)
(0.0485552 0.35892 0)
(0.0491539 0.358741 0)
(0.0460671 0.353722 0)
(0.0400655 0.346277 0)
(0.0320417 0.336749 0)
(0.0230225 0.325677 0)
(0.0143143 0.318724 0)
(0.00819867 0.315606 0)
(0.00477131 0.313037 0)
(0.00349 0.308469 0)
(0.00321075 0.304678 0)
(0.00385091 0.296283 0)
(0.0054927 0.277963 0)
(0.00593822 0.249807 0)
(0.00507466 0.210573 0)
(0.00386779 0.154311 0)
(-0.00143201 0.0761299 0)
(-0.00151885 -0.0226149 0)
(0.00103525 0.0410858 0)
(0.00380893 0.123206 0)
(0.0141068 0.192649 0)
(0.023175 0.24846 0)
(0.0309623 0.290055 0)
(0.0383434 0.319143 0)
(0.043846 0.341012 0)
(0.047161 0.352978 0)
(0.0484227 0.358513 0)
(0.0479371 0.358018 0)
(0.0454917 0.353663 0)
(0.0405046 0.34646 0)
(0.0338644 0.33663 0)
(0.0261729 0.329338 0)
(0.0190486 0.322996 0)
(0.014529 0.316451 0)
(0.0114917 0.31016 0)
(0.00965119 0.305001 0)
(0.0096416 0.295129 0)
(0.0103761 0.2778 0)
(0.00939051 0.252448 0)
(0.00709152 0.21455 0)
(0.00505223 0.159426 0)
(-0.000225369 0.0820436 0)
(-0.000408338 -0.0174729 0)
(0.000114288 0.0347135 0)
(0.00128694 0.115994 0)
(0.00964647 0.181841 0)
(0.0180313 0.235483 0)
(0.0262185 0.27669 0)
(0.033816 0.307503 0)
(0.0395482 0.332243 0)
(0.0437825 0.347926 0)
(0.0467927 0.355547 0)
(0.0487978 0.358099 0)
(0.0488771 0.358131 0)
(0.0464332 0.353333 0)
(0.0421409 0.343987 0)
(0.0362754 0.336993 0)
(0.0301174 0.330032 0)
(0.0244966 0.322826 0)
(0.0196607 0.315606 0)
(0.0166671 0.307823 0)
(0.0156627 0.296555 0)
(0.0148897 0.279682 0)
(0.0131265 0.257133 0)
(0.00958512 0.22109 0)
(0.00730552 0.165434 0)
(0.00148016 0.0900423 0)
(0.000877179 -0.00992992 0)
(-0.000472535 0.0306647 0)
(-0.000265564 0.110837 0)
(0.00626841 0.174269 0)
(0.0132329 0.224053 0)
(0.0215393 0.262984 0)
(0.0299163 0.294781 0)
(0.0369823 0.320708 0)
(0.043033 0.33812 0)
(0.0478979 0.349349 0)
(0.0507758 0.355865 0)
(0.051617 0.359457 0)
(0.0497988 0.357623 0)
(0.046798 0.351108 0)
(0.0421318 0.344873 0)
(0.036715 0.337901 0)
(0.0309658 0.330856 0)
(0.0256594 0.322845 0)
(0.0211623 0.312933 0)
(0.0184752 0.300507 0)
(0.0162038 0.284124 0)
(0.0138722 0.262842 0)
(0.0108886 0.227237 0)
(0.00912434 0.172158 0)
(0.00251149 0.0992782 0)
(0.00158704 0.000114011 0)
(-0.000231831 0.0275195 0)
(-0.000273418 0.106567 0)
(0.00556229 0.168961 0)
(0.0111519 0.215299 0)
(0.0185438 0.25139 0)
(0.0265311 0.282957 0)
(0.0342799 0.308646 0)
(0.0412943 0.328237 0)
(0.0464073 0.34212 0)
(0.0491378 0.352579 0)
(0.0501842 0.359694 0)
(0.0493277 0.360639 0)
(0.0475563 0.355661 0)
(0.0439616 0.351648 0)
(0.0392723 0.34606 0)
(0.0332247 0.338999 0)
(0.0272282 0.330714 0)
(0.0217002 0.319935 0)
(0.0178409 0.306512 0)
(0.0146452 0.289463 0)
(0.0125214 0.267896 0)
(0.0104241 0.232892 0)
(0.00924395 0.180124 0)
(0.00278173 0.109652 0)
(0.00182957 0.0111007 0)
(0.000661335 0.0234716 0)
(0.00142236 0.100708 0)
(0.00656619 0.161582 0)
(0.0118907 0.207158 0)
(0.0177363 0.241463 0)
(0.0243028 0.27191 0)
(0.0313432 0.296816 0)
(0.0377535 0.318166 0)
(0.0423077 0.33618 0)
(0.0445944 0.349261 0)
(0.0460653 0.357611 0)
(0.0461559 0.360433 0)
(0.0451889 0.35858 0)
(0.0423462 0.357693 0)
(0.038197 0.355012 0)
(0.0320127 0.349473 0)
(0.0255324 0.340174 0)
(0.0199153 0.327326 0)
(0.0153355 0.312402 0)
(0.0120931 0.295519 0)
(0.00984239 0.272831 0)
(0.00873949 0.237885 0)
(0.00754684 0.187305 0)
(0.00237649 0.118485 0)
(0.00172517 0.0214271 0)
(0.00174123 0.018063 0)
(0.00349909 0.0943452 0)
(0.00738067 0.153987 0)
(0.0123798 0.199342 0)
(0.0173356 0.234067 0)
(0.0224263 0.263476 0)
(0.0280783 0.287961 0)
(0.033097 0.309948 0)
(0.0369181 0.3297 0)
(0.0390772 0.344543 0)
(0.0400003 0.354506 0)
(0.0398062 0.359616 0)
(0.0386972 0.36038 0)
(0.0359242 0.362299 0)
(0.031906 0.362426 0)
(0.026796 0.358905 0)
(0.0213695 0.349229 0)
(0.016065 0.336082 0)
(0.0111086 0.319953 0)
(0.00834944 0.301417 0)
(0.00644634 0.278659 0)
(0.00601454 0.242275 0)
(0.00501538 0.194678 0)
(0.00150094 0.125784 0)
(0.00152663 0.0303542 0)
(0.0026603 0.0116751 0)
(0.00493078 0.0878489 0)
(0.00731676 0.14668 0)
(0.0113318 0.190519 0)
(0.0157599 0.225715 0)
(0.0200693 0.25552 0)
(0.0242877 0.28041 0)
(0.0278528 0.303237 0)
(0.0305581 0.324723 0)
(0.031826 0.341218 0)
(0.0321531 0.352827 0)
(0.0313201 0.359477 0)
(0.0292862 0.362511 0)
(0.0257104 0.366615 0)
(0.0210487 0.36865 0)
(0.0167736 0.366124 0)
(0.0123245 0.357821 0)
(0.0080593 0.344886 0)
(0.00430404 0.327438 0)
(0.00164561 0.307088 0)
(0.000830024 0.281843 0)
(0.00157767 0.245202 0)
(0.00150728 0.198563 0)
(0.000730062 0.129638 0)
(0.00111506 0.0368297 0)
(0.00311773 0.00561926 0)
(0.00589127 0.0824621 0)
(0.00643845 0.140282 0)
(0.00895885 0.182869 0)
(0.0121442 0.218081 0)
(0.0156323 0.248137 0)
(0.0185301 0.274552 0)
(0.0206366 0.298454 0)
(0.0220064 0.320631 0)
(0.0228278 0.338268 0)
(0.0222168 0.351826 0)
(0.0207316 0.360641 0)
(0.0177025 0.366683 0)
(0.0132295 0.373204 0)
(0.00814934 0.375551 0)
(0.00424773 0.372378 0)
(0.000779583 0.364425 0)
(-0.00182543 0.351349 0)
(-0.0040935 0.333789 0)
(-0.00571791 0.311195 0)
(-0.00515257 0.2825 0)
(-0.00335959 0.245083 0)
(-0.00181918 0.198469 0)
(-0.000146038 0.130136 0)
(0.000644302 0.040876 0)
(0.0032012 0.00115524 0)
(0.006138 0.0792429 0)
(0.0048228 0.136153 0)
(0.00604918 0.177544 0)
(0.00783873 0.212369 0)
(0.00990676 0.242299 0)
(0.0118075 0.26987 0)
(0.0126535 0.294765 0)
(0.0128879 0.31748 0)
(0.0122567 0.336593 0)
(0.0106487 0.351893 0)
(0.00823348 0.362713 0)
(0.00449966 0.371528 0)
(0.000279407 0.379341 0)
(-0.0041209 0.382218 0)
(-0.00780515 0.378463 0)
(-0.0102314 0.368754 0)
(-0.0113986 0.354559 0)
(-0.0117743 0.335901 0)
(-0.0112816 0.311194 0)
(-0.00954806 0.27992 0)
(-0.00719216 0.241165 0)
(-0.00432958 0.194358 0)
(-0.00103812 0.128677 0)
(0.000437895 0.0425484 0)
(0.0029949 -0.000666601 0)
(0.00562803 0.0788736 0)
(0.00238101 0.134395 0)
(0.00246236 0.174457 0)
(0.00308998 0.209753 0)
(0.00353494 0.239281 0)
(0.00398776 0.267286 0)
(0.00339645 0.293154 0)
(0.00233341 0.317356 0)
(0.000120371 0.338284 0)
(-0.00216028 0.354723 0)
(-0.00496295 0.367077 0)
(-0.0083697 0.376417 0)
(-0.0121006 0.384694 0)
(-0.015452 0.387168 0)
(-0.0175189 0.38194 0)
(-0.0183834 0.371064 0)
(-0.0184267 0.355113 0)
(-0.0169608 0.334263 0)
(-0.0145473 0.307459 0)
(-0.0117418 0.275412 0)
(-0.00896559 0.236502 0)
(-0.00563719 0.188988 0)
(-0.00148235 0.126386 0)
(0.000330346 0.0425802 0)
(0.00244222 0.000735048 0)
(0.00414753 0.0809964 0)
(-0.000333531 0.136199 0)
(-0.00164399 0.174588 0)
(-0.00241169 0.209123 0)
(-0.00354887 0.238371 0)
(-0.0052254 0.266785 0)
(-0.00750437 0.293471 0)
(-0.00987201 0.318257 0)
(-0.0122985 0.339738 0)
(-0.0143008 0.357224 0)
(-0.0164819 0.370472 0)
(-0.0186374 0.380452 0)
(-0.0209406 0.388527 0)
(-0.0226164 0.389452 0)
(-0.0232803 0.382531 0)
(-0.0229335 0.369929 0)
(-0.0216493 0.351812 0)
(-0.0190287 0.328507 0)
(-0.0156733 0.301296 0)
(-0.0123072 0.269005 0)
(-0.00895254 0.22987 0)
(-0.00579043 0.184029 0)
(-0.00155209 0.123296 0)
(7.37486e-05 0.0415656 0)
(0.00142019 0.00486164 0)
(0.00176341 0.0855005 0)
(-0.00318871 0.141422 0)
(-0.00545704 0.179304 0)
(-0.0080896 0.212409 0)
(-0.0110388 0.242293 0)
(-0.014685 0.270746 0)
(-0.0184973 0.29674 0)
(-0.0216922 0.321158 0)
(-0.0235562 0.342136 0)
(-0.0242678 0.359185 0)
(-0.0249411 0.372538 0)
(-0.0256335 0.381896 0)
(-0.0261961 0.389199 0)
(-0.0262271 0.3884 0)
(-0.0250834 0.37997 0)
(-0.023214 0.365957 0)
(-0.0206917 0.346642 0)
(-0.0177446 0.321895 0)
(-0.0143501 0.293454 0)
(-0.0109428 0.261981 0)
(-0.00773275 0.223708 0)
(-0.0053081 0.179353 0)
(-0.00195199 0.120369 0)
(-0.000488187 0.0398506 0)
(0.000576776 0.0106466 0)
(-8.74598e-05 0.092019 0)
(-0.0053933 0.148227 0)
(-0.00799626 0.18661 0)
(-0.0118013 0.219264 0)
(-0.0159702 0.248295 0)
(-0.0205187 0.275857 0)
(-0.0250051 0.301323 0)
(-0.0283342 0.323538 0)
(-0.0300082 0.342102 0)
(-0.0303464 0.35839 0)
(-0.0303135 0.371588 0)
(-0.0296526 0.380552 0)
(-0.0285282 0.386796 0)
(-0.0267986 0.384578 0)
(-0.0242232 0.374482 0)
(-0.0211775 0.359187 0)
(-0.0177813 0.339441 0)
(-0.0145125 0.314754 0)
(-0.011224 0.286507 0)
(-0.00853261 0.255488 0)
(-0.00578226 0.219392 0)
(-0.00435523 0.176553 0)
(-0.00208478 0.118198 0)
(-0.000959203 0.0379871 0)
(2.23869e-05 0.0182973 0)
(-0.00123039 0.100519 0)
(-0.00691079 0.156888 0)
(-0.0100342 0.195186 0)
(-0.0143221 0.22728 0)
(-0.0187585 0.255976 0)
(-0.0229862 0.283755 0)
(-0.0268629 0.309028 0)
(-0.0296806 0.32969 0)
(-0.0316744 0.34536 0)
(-0.0324258 0.358737 0)
(-0.0319936 0.369331 0)
(-0.0304943 0.375932 0)
(-0.0282908 0.381228 0)
(-0.0254216 0.37708 0)
(-0.0217805 0.366354 0)
(-0.0184538 0.351078 0)
(-0.0145209 0.331012 0)
(-0.0112592 0.306639 0)
(-0.00783436 0.27921 0)
(-0.00595663 0.250693 0)
(-0.00397111 0.215959 0)
(-0.00312328 0.17431 0)
(-0.00189215 0.115753 0)
(-0.0010903 0.0357798 0)
(-0.000115311 0.0266278 0)
(-0.00159479 0.109519 0)
(-0.00704802 0.165556 0)
(-0.0103494 0.2041 0)
(-0.0151555 0.235284 0)
(-0.019126 0.263158 0)
(-0.0221686 0.290426 0)
(-0.0244283 0.314229 0)
(-0.0257808 0.33298 0)
(-0.0273866 0.347266 0)
(-0.0287018 0.35814 0)
(-0.029037 0.366168 0)
(-0.0276936 0.370801 0)
(-0.0249232 0.374801 0)
(-0.021509 0.369539 0)
(-0.0174961 0.358347 0)
(-0.0138463 0.342966 0)
(-0.0101045 0.322904 0)
(-0.00720226 0.299796 0)
(-0.00461171 0.274154 0)
(-0.00315974 0.24713 0)
(-0.00183757 0.213703 0)
(-0.00118603 0.173108 0)
(-0.00101619 0.114191 0)
(-0.000781689 0.0351109 0)
(0.000182801 0.0342302 0)
(-0.00131525 0.117544 0)
(-0.00616111 0.17324 0)
(-0.00905626 0.212656 0)
(-0.0138781 0.243394 0)
(-0.0173744 0.26944 0)
(-0.0195694 0.295331 0)
(-0.0206024 0.317767 0)
(-0.021345 0.336435 0)
(-0.0227926 0.35025 0)
(-0.0243798 0.359415 0)
(-0.0255254 0.364521 0)
(-0.0246756 0.364889 0)
(-0.0218679 0.366277 0)
(-0.0181629 0.360116 0)
(-0.0142786 0.348726 0)
(-0.0104286 0.334385 0)
(-0.00713674 0.315733 0)
(-0.00456845 0.294105 0)
(-0.002402 0.269866 0)
(-0.0011568 0.244551 0)
(-0.000221629 0.212228 0)
(0.000891975 0.172237 0)
(5.65825e-05 0.114677 0)
(-0.000165331 0.0362996 0)
(0.000352794 0.0410468 0)
(-0.00100918 0.124974 0)
(-0.00565601 0.178974 0)
(-0.00762076 0.219982 0)
(-0.0119145 0.251168 0)
(-0.0151598 0.276015 0)
(-0.0175905 0.29958 0)
(-0.0185816 0.320037 0)
(-0.019073 0.3379 0)
(-0.0197788 0.352109 0)
(-0.0205952 0.360552 0)
(-0.0211207 0.363401 0)
(-0.0202332 0.360272 0)
(-0.0180589 0.35925 0)
(-0.0153114 0.352682 0)
(-0.0126069 0.340993 0)
(-0.00952118 0.326522 0)
(-0.00645836 0.30881 0)
(-0.0039808 0.288612 0)
(-0.00208913 0.266029 0)
(-0.000725459 0.242271 0)
(0.000135998 0.210544 0)
(0.00190168 0.171545 0)
(0.000462764 0.116723 0)
(0.000193886 0.0391141 0)
(0.000129235 0.0467818 0)
(-0.000727222 0.131433 0)
(-0.00530976 0.183076 0)
(-0.00660389 0.225059 0)
(-0.00972009 0.258044 0)
(-0.0120531 0.282223 0)
(-0.0142294 0.303943 0)
(-0.0154512 0.321987 0)
(-0.0163489 0.338805 0)
(-0.016775 0.351501 0)
(-0.0165673 0.358695 0)
(-0.016616 0.360151 0)
(-0.0160403 0.355228 0)
(-0.0145567 0.353025 0)
(-0.0121307 0.34639 0)
(-0.0101744 0.334884 0)
(-0.00810612 0.320199 0)
(-0.00589533 0.30328 0)
(-0.00384013 0.284254 0)
(-0.00228885 0.263213 0)
(-0.000845261 0.240169 0)
(0.000577669 0.20857 0)
(0.00245596 0.170589 0)
(0.000527521 0.118744 0)
(0.000282577 0.0424503 0)
(-0.000418113 0.0523903 0)
(-0.00101735 0.137332 0)
(-0.00530292 0.187386 0)
(-0.00637804 0.228055 0)
(-0.00766797 0.261696 0)
(-0.00920566 0.285604 0)
(-0.0103185 0.307263 0)
(-0.0116081 0.324873 0)
(-0.0124286 0.34034 0)
(-0.0126364 0.351074 0)
(-0.0122438 0.357183 0)
(-0.0124886 0.358194 0)
(-0.0124571 0.351468 0)
(-0.0119174 0.346986 0)
(-0.0105531 0.339836 0)
(-0.00905958 0.330257 0)
(-0.00770888 0.315921 0)
(-0.00621832 0.298939 0)
(-0.0044675 0.280563 0)
(-0.00276201 0.259691 0)
(-0.000490597 0.236443 0)
(0.00138326 0.204775 0)
(0.00257039 0.17005 0)
(0.000358703 0.120803 0)
(0.000215091 0.0455017 0)
(-0.000871333 0.0579947 0)
(-0.0017219 0.142669 0)
(-0.00560307 0.19137 0)
(-0.00665928 0.228974 0)
(-0.00679405 0.263764 0)
(-0.00758851 0.288026 0)
(-0.00821695 0.309625 0)
(-0.00908852 0.326465 0)
(-0.00927417 0.340375 0)
(-0.00921772 0.349601 0)
(-0.00898039 0.355265 0)
(-0.00921447 0.355575 0)
(-0.00917216 0.348173 0)
(-0.00945297 0.343865 0)
(-0.00951468 0.336241 0)
(-0.00883944 0.326167 0)
(-0.00755633 0.312602 0)
(-0.00613239 0.296134 0)
(-0.00459335 0.277579 0)
(-0.0022467 0.255154 0)
(0.000930616 0.231811 0)
(0.00224748 0.202882 0)
(0.00268256 0.171087 0)
(0.000280867 0.123815 0)
(0.000161598 0.0484722 0)
(-0.00114317 0.0633966 0)
(-0.00203429 0.147919 0)
(-0.00600995 0.195514 0)
(-0.00731233 0.230476 0)
(-0.00758496 0.26422 0)
(-0.00755426 0.289303 0)
(-0.0077003 0.311021 0)
(-0.00766962 0.327073 0)
(-0.00756368 0.339631 0)
(-0.00726316 0.348616 0)
(-0.00752198 0.353911 0)
(-0.00783084 0.354057 0)
(-0.00798016 0.346674 0)
(-0.00890674 0.342672 0)
(-0.00943642 0.334535 0)
(-0.00927609 0.323278 0)
(-0.00817222 0.308703 0)
(-0.00669017 0.291804 0)
(-0.00458588 0.272651 0)
(-0.00197296 0.248701 0)
(0.00073747 0.227291 0)
(0.00103599 0.201812 0)
(0.00165734 0.171955 0)
(-0.000349784 0.126525 0)
(-8.12949e-06 0.0513805 0)
(-0.0013297 0.0697486 0)
(-0.00225891 0.154074 0)
(-0.00635348 0.200645 0)
(-0.0077066 0.233706 0)
(-0.00879984 0.26544 0)
(-0.00819346 0.289231 0)
(-0.00795702 0.310839 0)
(-0.00763807 0.326397 0)
(-0.00737688 0.339167 0)
(-0.00721574 0.348377 0)
(-0.00760621 0.353884 0)
(-0.00760227 0.352828 0)
(-0.00821206 0.346487 0)
(-0.00923773 0.342572 0)
(-0.00984703 0.333309 0)
(-0.00934254 0.320709 0)
(-0.00792741 0.305159 0)
(-0.00622494 0.287191 0)
(-0.00407009 0.267303 0)
(-0.00215947 0.2439 0)
(-0.000938959 0.225328 0)
(-0.00106159 0.201384 0)
(-7.06764e-05 0.172068 0)
(-0.00144191 0.127929 0)
(-0.000307149 0.0529875 0)
(-0.00132834 0.0758264 0)
(-0.002195 0.159453 0)
(-0.0054648 0.205773 0)
(-0.00679155 0.237536 0)
(-0.00795245 0.267147 0)
(-0.00716291 0.289475 0)
(-0.00657871 0.311506 0)
(-0.00641562 0.326744 0)
(-0.00631123 0.338961 0)
(-0.00645034 0.348301 0)
(-0.00631811 0.353591 0)
(-0.00598329 0.353042 0)
(-0.00700087 0.347077 0)
(-0.00792443 0.342475 0)
(-0.00828921 0.331296 0)
(-0.00728883 0.317024 0)
(-0.00571301 0.300217 0)
(-0.00385743 0.281652 0)
(-0.00201232 0.262976 0)
(-0.00123594 0.241281 0)
(-0.00108374 0.224505 0)
(-0.00119331 0.200718 0)
(-0.000559789 0.172527 0)
(-0.00157518 0.129452 0)
(-0.000264838 0.0545023 0)
(-0.000994732 0.0810499 0)
(-0.00162781 0.162975 0)
(-0.00393265 0.209162 0)
(-0.00475124 0.240577 0)
(-0.00536009 0.267979 0)
(-0.00421126 0.288434 0)
(-0.00302558 0.310653 0)
(-0.00223851 0.32651 0)
(-0.00197623 0.339599 0)
(-0.0021707 0.34869 0)
(-0.00176001 0.352842 0)
(-0.00157784 0.353128 0)
(-0.0019358 0.348177 0)
(-0.00294332 0.342463 0)
(-0.00339041 0.32857 0)
(-0.00314963 0.312996 0)
(-0.00224444 0.295656 0)
(-0.00111887 0.277053 0)
(0.000293145 0.259894 0)
(0.00042373 0.240016 0)
(0.000348611 0.224095 0)
(-0.000127735 0.201026 0)
(-0.000532016 0.173881 0)
(-0.00131785 0.13038 0)
(-0.000203611 0.0563223 0)
(-0.000553477 0.0851288 0)
(-0.000776288 0.165936 0)
(-0.00272471 0.211021 0)
(-0.00256445 0.242102 0)
(-0.00231728 0.267697 0)
(-0.000918818 0.286526 0)
(0.000470821 0.308489 0)
(0.00137928 0.32481 0)
(0.00158695 0.33869 0)
(0.00174032 0.347845 0)
(0.00214976 0.35216 0)
(0.00228217 0.352504 0)
(0.00245938 0.347845 0)
(0.00234511 0.343008 0)
(0.00169572 0.32886 0)
(0.00092194 0.312093 0)
(0.000774162 0.293786 0)
(0.00137528 0.274407 0)
(0.00197305 0.257914 0)
(0.00195458 0.239174 0)
(0.00183242 0.224395 0)
(0.000673083 0.203752 0)
(0.000100545 0.176029 0)
(-0.00101657 0.131342 0)
(-0.000309313 0.0580858 0)
(-0.000206452 0.0882111 0)
(0.000300281 0.167651 0)
(-0.00124598 0.211038 0)
(-0.000517078 0.240457 0)
(0.00069415 0.266069 0)
(0.00184509 0.283754 0)
(0.00268374 0.3061 0)
(0.00314457 0.323525 0)
(0.00293245 0.337929 0)
(0.00322802 0.346399 0)
(0.00369527 0.35077 0)
(0.00436506 0.351423 0)
(0.00496223 0.345794 0)
(0.00565679 0.341809 0)
(0.00568942 0.329211 0)
(0.00486692 0.312516 0)
(0.00455003 0.292923 0)
(0.0044314 0.273452 0)
(0.00421621 0.256997 0)
(0.00339686 0.239117 0)
(0.00246349 0.226024 0)
(0.00104593 0.206032 0)
(0.000925409 0.177228 0)
(-0.000617359 0.132718 0)
(-0.000455272 0.0600711 0)
(-0.000138477 0.0905586 0)
(0.000968241 0.168235 0)
(-0.000465692 0.210145 0)
(0.000430221 0.238185 0)
(0.00137957 0.263773 0)
(0.00195023 0.282679 0)
(0.00195399 0.305532 0)
(0.00206924 0.32258 0)
(0.00267999 0.336308 0)
(0.00386066 0.344577 0)
(0.00510292 0.348245 0)
(0.00647401 0.348594 0)
(0.0075706 0.343778 0)
(0.00884958 0.339581 0)
(0.00971932 0.328224 0)
(0.00935385 0.312236 0)
(0.00892083 0.293098 0)
(0.00795424 0.273822 0)
(0.00679025 0.258595 0)
(0.00479819 0.241671 0)
(0.00333014 0.228609 0)
(0.0020213 0.207817 0)
(0.00223154 0.178408 0)
(-9.19232e-05 0.13503 0)
(-0.000343108 0.0630093 0)
(-0.000220377 0.093433 0)
(0.000655209 0.169486 0)
(-0.000719756 0.210178 0)
(-0.000400927 0.237251 0)
(4.15229e-05 0.262676 0)
(0.000158653 0.282682 0)
(-9.73877e-05 0.304382 0)
(0.000451415 0.319511 0)
(0.00196959 0.331996 0)
(0.0039737 0.33976 0)
(0.00629327 0.343631 0)
(0.00818901 0.344958 0)
(0.00989068 0.339667 0)
(0.0115599 0.335523 0)