/*--------------------------------*- C++ -*----------------------------------*\
| =========                 |                                                 |
| \\      /  F ield         | OpenFOAM: The Open Source CFD Toolbox           |
|  \\    /   O peration     | Version:  2.3.0                                 |
|   \\  /    A nd           | Web:      www.OpenFOAM.org                      |
|    \\/     M anipulation  |                                                 |
\*---------------------------------------------------------------------------*/
FoamFile
{
    version     2.0;
    format      ascii;
    class       volVectorField;
    location    "1.65";
    object      U.airMean;
}
// * * * * * * * * * * * * * * * * * * * * * * * * * * * * * * * * * * * * * //

dimensions      [0 1 -1 0 0 0 0];

internalField   nonuniform List<vector> 
6000
(
(-0.00880604 0.246733 0)
(0.00986505 0.210473 0)
(0.0435355 0.219992 0)
(0.0610901 0.226229 0)
(0.0562624 0.224993 0)
(0.0380725 0.216572 0)
(0.0237075 0.200717 0)
(0.00975863 0.202507 0)
(-0.00475874 0.198559 0)
(-0.0119895 0.195231 0)
(-0.010955 0.192772 0)
(-0.0094069 0.19297 0)
(-0.029612 0.216899 0)
(-0.0723272 0.234344 0)
(-0.105681 0.226263 0)
(-0.0974882 0.21392 0)
(-0.0707182 0.210584 0)
(-0.0523373 0.213724 0)
(-0.0474687 0.209717 0)
(-0.0343191 0.205416 0)
(-0.0187705 0.208045 0)
(-0.00760863 0.220693 0)
(-0.00656427 0.226279 0)
(-0.00596548 0.227859 0)
(-0.0120553 0.23651 0)
(-0.0268774 0.234803 0)
(-0.0220774 0.222747 0)
(-0.00734679 0.221551 0)
(-0.0137406 0.2124 0)
(-0.00168704 0.251342 0)
(0.0195307 0.961128 0)
(0.042952 0.953816 0)
(0.0718754 0.953897 0)
(0.0810399 0.984224 0)
(0.0700035 1.00947 0)
(0.064359 1.02549 0)
(0.0600091 1.02561 0)
(0.0340469 1.03467 0)
(0.00575947 1.03725 0)
(-0.0121303 1.00934 0)
(-0.0187479 1.01126 0)
(-0.0415803 1.03935 0)
(-0.0806152 1.04849 0)
(-0.114609 1.05521 0)
(-0.132347 1.01365 0)
(-0.125355 0.95888 0)
(-0.107324 0.956546 0)
(-0.0880803 0.984271 0)
(-0.0691978 0.978689 0)
(-0.0512903 0.982511 0)
(-0.0279321 0.979625 0)
(-0.00989647 0.983777 0)
(0.00408468 0.997248 0)
(0.00225381 0.998773 0)
(-0.0231219 1.01804 0)
(-0.0454639 1.00006 0)
(-0.0399378 0.977538 0)
(-0.0261058 0.988686 0)
(-0.029215 1.01374 0)
(-0.0275092 0.943879 0)
(0.000298652 0.791475 0)
(0.0388372 0.747753 0)
(0.0598543 0.758875 0)
(0.0608316 0.823502 0)
(0.0512821 0.84339 0)
(0.0534613 0.844578 0)
(0.0564379 0.85608 0)
(0.0345581 0.8874 0)
(0.00936392 0.884299 0)
(-0.00534183 0.8375 0)
(-0.0134708 0.84525 0)
(-0.0346171 0.896289 0)
(-0.0756288 0.916091 0)
(-0.109063 0.916841 0)
(-0.120224 0.850707 0)
(-0.120057 0.784133 0)
(-0.114123 0.774609 0)
(-0.0980087 0.788383 0)
(-0.0779548 0.785258 0)
(-0.0552844 0.77357 0)
(-0.0237904 0.768219 0)
(0.0017676 0.78816 0)
(0.0159396 0.807945 0)
(0.00635164 0.84244 0)
(-0.0261709 0.878193 0)
(-0.0399225 0.840485 0)
(-0.0280022 0.794749 0)
(-0.00360504 0.807151 0)
(-0.00205879 0.848798 0)
(0.00337043 0.781218 0)
(0.00459554 0.791876 0)
(0.0327774 0.758228 0)
(0.0293781 0.78705 0)
(0.034538 0.85106 0)
(0.0408787 0.85806 0)
(0.0484869 0.860973 0)
(0.0447491 0.888609 0)
(0.0274064 0.922742 0)
(0.0130484 0.923335 0)
(-0.00135055 0.873388 0)
(-0.0135757 0.874748 0)
(-0.0305352 0.944327 0)
(-0.0657008 0.957532 0)
(-0.0935443 0.940086 0)
(-0.111859 0.866454 0)
(-0.11931 0.799472 0)
(-0.111896 0.784317 0)
(-0.0965198 0.799101 0)
(-0.0783179 0.794707 0)
(-0.0503309 0.779118 0)
(-0.0222732 0.780357 0)
(-0.0031177 0.801521 0)
(-0.000707603 0.83291 0)
(-0.0157953 0.896644 0)
(-0.0284558 0.905075 0)
(-0.0231543 0.865655 0)
(-0.00953032 0.801098 0)
(0.011438 0.817652 0)
(0.0150604 0.887235 0)
(0.0121254 0.80569 0)
(0.0077718 0.773021 0)
(0.015673 0.741009 0)
(0.00919174 0.779961 0)
(0.0144106 0.831586 0)
(0.0274312 0.843601 0)
(0.031688 0.855515 0)
(0.0267031 0.89737 0)
(0.0129553 0.931723 0)
(0.00553433 0.934853 0)
(-0.00803448 0.886754 0)
(-0.0245183 0.888915 0)
(-0.0387789 0.961448 0)
(-0.0690401 0.978009 0)
(-0.0921136 0.952121 0)
(-0.113503 0.874309 0)
(-0.119492 0.795366 0)
(-0.106708 0.764859 0)
(-0.0906558 0.784229 0)
(-0.0730466 0.76628 0)
(-0.0459864 0.742495 0)
(-0.0244799 0.750362 0)
(-0.0151109 0.780818 0)
(-0.0203683 0.831908 0)
(-0.0273586 0.888711 0)
(-0.0212884 0.892561 0)
(-0.0102538 0.853668 0)
(0.00453775 0.782101 0)
(0.0170123 0.79521 0)
(0.0205594 0.892618 0)
(0.0144854 0.811247 0)
(0.00449782 0.760319 0)
(0.0106696 0.741929 0)
(-0.00265555 0.782285 0)
(0.00549737 0.819136 0)
(0.00804453 0.830987 0)
(0.00966311 0.851062 0)
(0.00773169 0.903878 0)
(0.000773355 0.936063 0)
(-0.00849964 0.945695 0)
(-0.0250515 0.907651 0)
(-0.0468655 0.906388 0)
(-0.0685973 0.980384 0)
(-0.0952945 1.00055 0)
(-0.102134 0.959348 0)
(-0.103408 0.877498 0)
(-0.0960209 0.782218 0)
(-0.0860418 0.7546 0)
(-0.0789522 0.773997 0)
(-0.0668168 0.747579 0)
(-0.0484668 0.723162 0)
(-0.0355738 0.739028 0)
(-0.0309971 0.782134 0)
(-0.0310311 0.833303 0)
(-0.0275749 0.88179 0)
(-0.0107667 0.871911 0)
(0.00620208 0.840728 0)
(0.014435 0.768699 0)
(0.0153227 0.78753 0)
(0.0141186 0.89717 0)
(0.0112911 0.820065 0)
(0.000994593 0.745468 0)
(0.00979482 0.737998 0)
(0.00709927 0.773344 0)
(0.00380023 0.814656 0)
(-0.000554498 0.825652 0)
(-0.00712572 0.844009 0)
(-0.00592877 0.902694 0)
(-0.00972322 0.936186 0)
(-0.0239263 0.960248 0)
(-0.0449304 0.925881 0)
(-0.0752846 0.930576 0)
(-0.105429 0.995371 0)
(-0.122008 1.00327 0)
(-0.109856 0.940541 0)
(-0.0941196 0.857925 0)
(-0.0760945 0.767785 0)
(-0.0734775 0.746779 0)
(-0.0774434 0.76779 0)
(-0.0731004 0.732451 0)
(-0.0614379 0.706594 0)
(-0.049931 0.726502 0)
(-0.0426162 0.771192 0)
(-0.0361236 0.820894 0)
(-0.0236156 0.857701 0)
(-0.000760507 0.842501 0)
(0.0164252 0.818079 0)
(0.0148399 0.762158 0)
(0.00150492 0.778117 0)
(-0.00770661 0.893903 0)
(0.000920776 0.815008 0)
(0.00307853 0.733156 0)
(0.013551 0.72056 0)
(0.01017 0.763514 0)
(-0.00147368 0.813386 0)
(-0.0188764 0.823161 0)
(-0.0241832 0.841868 0)
(-0.0235953 0.897899 0)
(-0.0223429 0.942756 0)
(-0.0359025 0.975108 0)
(-0.0619719 0.948975 0)
(-0.101273 0.95885 0)
(-0.129158 1.00962 0)
(-0.128654 0.987698 0)
(-0.109617 0.924521 0)
(-0.0858548 0.835017 0)
(-0.0664886 0.756282 0)
(-0.072533 0.758502 0)
(-0.0862267 0.765954 0)
(-0.0860667 0.720676 0)
(-0.0793438 0.69034 0)
(-0.0646739 0.710561 0)
(-0.0523139 0.755073 0)
(-0.0388229 0.80355 0)
(-0.0211254 0.829021 0)
(-0.00115971 0.811356 0)
(0.0124124 0.800923 0)
(0.00572818 0.764183 0)
(-0.0193578 0.78018 0)
(-0.030968 0.88268 0)
(-0.00883918 0.790335 0)
(0.00475227 0.716208 0)
(0.0134359 0.701232 0)
(0.00107899 0.754607 0)
(-0.0202104 0.819572 0)
(-0.0395921 0.824208 0)
(-0.04974 0.843165 0)
(-0.043096 0.893686 0)
(-0.0392377 0.944163 0)
(-0.0444828 0.986886 0)
(-0.0738953 0.979185 0)
(-0.116549 0.989007 0)
(-0.128431 1.00472 0)
(-0.118548 0.969579 0)
(-0.0967262 0.90397 0)
(-0.0773101 0.809159 0)
(-0.0682883 0.749005 0)
(-0.0818897 0.769909 0)
(-0.093924 0.762921 0)
(-0.0924933 0.713702 0)
(-0.0872536 0.671356 0)
(-0.076938 0.689345 0)
(-0.0609208 0.733673 0)
(-0.0436737 0.781315 0)
(-0.0297637 0.800635 0)
(-0.0124218 0.79056 0)
(-0.00358422 0.778038 0)
(-0.013884 0.768702 0)
(-0.0411173 0.78351 0)
(-0.0450851 0.859039 0)
(-0.0103457 0.752409 0)
(0.00360687 0.69842 0)
(0.00815634 0.691147 0)
(-0.0124264 0.757438 0)
(-0.0384081 0.8268 0)
(-0.0538372 0.826855 0)
(-0.0609828 0.842384 0)
(-0.0586494 0.888744 0)
(-0.0564461 0.944033 0)
(-0.0516262 0.995542 0)
(-0.0784788 1.0168 0)
(-0.111918 1.0061 0)
(-0.110195 0.989939 0)
(-0.0946808 0.948894 0)
(-0.0782684 0.887588 0)
(-0.0688544 0.796678 0)
(-0.0757131 0.755788 0)
(-0.0897701 0.777701 0)
(-0.090974 0.755241 0)
(-0.0844159 0.699039 0)
(-0.0847662 0.663565 0)
(-0.0855888 0.673507 0)
(-0.0733356 0.712099 0)
(-0.0591749 0.763628 0)
(-0.0443631 0.780638 0)
(-0.0285027 0.766846 0)
(-0.0247098 0.766925 0)
(-0.0419133 0.773753 0)
(-0.0623823 0.786471 0)
(-0.0516589 0.823502 0)
(-0.011524 0.719254 0)
(0.00157359 0.682881 0)
(0.00382399 0.685431 0)
(-0.0201575 0.764731 0)
(-0.0443903 0.822719 0)
(-0.0520153 0.829394 0)
(-0.0632769 0.84513 0)
(-0.0692395 0.90132 0)
(-0.0647515 0.939667 0)
(-0.051171 1.00276 0)
(-0.0672479 1.04543 0)
(-0.0911079 1.01414 0)
(-0.0843415 0.963497 0)
(-0.0713475 0.93609 0)
(-0.0647786 0.874356 0)
(-0.0661972 0.793933 0)
(-0.079497 0.766316 0)
(-0.0860579 0.771401 0)
(-0.0769175 0.743063 0)
(-0.0751463 0.689376 0)
(-0.0853844 0.669106 0)
(-0.0954112 0.665554 0)
(-0.0924536 0.699758 0)
(-0.0778633 0.747062 0)
(-0.0592836 0.755868 0)
(-0.0459897 0.751423 0)
(-0.0501296 0.760843 0)
(-0.0717052 0.782267 0)
(-0.0828975 0.776064 0)
(-0.0627637 0.781948 0)
(-0.0176946 0.688131 0)
(0.00343283 0.668656 0)
(0.00402131 0.68333 0)
(-0.0168575 0.77384 0)
(-0.0316145 0.815419 0)
(-0.0450952 0.828961 0)
(-0.0587514 0.85678 0)
(-0.0689712 0.909191 0)
(-0.0592732 0.93378 0)
(-0.0454733 0.999514 0)
(-0.0433932 1.06987 0)
(-0.0611157 1.01528 0)
(-0.0623881 0.94973 0)
(-0.053105 0.926816 0)
(-0.0574866 0.873471 0)
(-0.0649339 0.798502 0)
(-0.07454 0.768459 0)
(-0.0724734 0.760019 0)
(-0.0635177 0.731689 0)
(-0.0707622 0.695382 0)
(-0.0915403 0.682461 0)
(-0.105369 0.665826 0)
(-0.101037 0.692044 0)
(-0.0871058 0.724857 0)
(-0.0726304 0.73763 0)
(-0.0680446 0.741058 0)
(-0.0796231 0.770625 0)
(-0.100134 0.786445 0)
(-0.100551 0.766497 0)
(-0.0756347 0.74397 0)
(-0.0250728 0.648981 0)
(0.00402257 0.653174 0)
(0.00611661 0.681123 0)
(-0.0048307 0.773904 0)
(-0.0111259 0.812719 0)
(-0.0321122 0.83604 0)
(-0.0463192 0.865341 0)
(-0.0526498 0.914055 0)
(-0.0452791 0.930205 0)
(-0.0397895 0.996199 0)
(-0.0223647 1.0703 0)
(-0.0289096 1.02803 0)
(-0.0435297 0.938698 0)
(-0.0440186 0.923534 0)
(-0.0509428 0.874939 0)
(-0.0586238 0.800926 0)
(-0.0632621 0.767005 0)
(-0.0579751 0.749052 0)
(-0.0568292 0.728513 0)
(-0.0696834 0.714509 0)
(-0.0949038 0.696509 0)
(-0.103035 0.669314 0)
(-0.0950886 0.680111 0)
(-0.0860196 0.712062 0)
(-0.0845177 0.727934 0)
(-0.0939635 0.748185 0)
(-0.110471 0.779116 0)
(-0.125406 0.792431 0)
(-0.117227 0.754784 0)
(-0.0900996 0.712251 0)
(-0.0273476 0.608332 0)
(0.00461958 0.640296 0)
(0.0093871 0.676063 0)
(0.00930043 0.762208 0)
(0.0105657 0.809667 0)
(-0.00769369 0.84159 0)
(-0.0230316 0.869964 0)
(-0.0269993 0.912801 0)
(-0.026053 0.936467 0)
(-0.0240385 0.988804 0)
(-0.00668944 1.06043 0)
(-0.00286192 1.03688 0)
(-0.0246634 0.951969 0)
(-0.036101 0.919817 0)
(-0.0461026 0.880133 0)
(-0.0530863 0.805692 0)
(-0.0548489 0.763665 0)
(-0.0526277 0.742246 0)
(-0.0533721 0.733076 0)
(-0.0697122 0.734888 0)
(-0.0858295 0.708373 0)
(-0.086974 0.66652 0)
(-0.0787341 0.672932 0)
(-0.0804662 0.712287 0)
(-0.0970702 0.73833 0)
(-0.120086 0.762642 0)
(-0.141035 0.792288 0)
(-0.146854 0.791047 0)
(-0.128163 0.742634 0)
(-0.0947614 0.675296 0)
(-0.028955 0.562288 0)
(0.00771473 0.627738 0)
(0.0132348 0.664951 0)
(0.01989 0.744872 0)
(0.0330116 0.800056 0)
(0.027046 0.84578 0)
(0.0120661 0.872361 0)
(0.00475537 0.91372 0)
(-0.00216265 0.940846 0)
(9.08785e-05 0.988517 0)
(0.00907615 1.04381 0)
(0.0161597 1.04092 0)
(-0.00358922 0.96962 0)
(-0.0280915 0.92498 0)
(-0.0399975 0.890468 0)
(-0.0493302 0.808764 0)
(-0.0523032 0.762633 0)
(-0.0513488 0.737945 0)
(-0.0536357 0.73887 0)
(-0.0640507 0.746607 0)
(-0.0665923 0.712044 0)
(-0.0619748 0.661244 0)
(-0.0603442 0.670339 0)
(-0.0742692 0.722029 0)
(-0.105757 0.756337 0)
(-0.142336 0.784568 0)
(-0.164398 0.79961 0)
(-0.157859 0.782642 0)
(-0.12655 0.720304 0)
(-0.0874376 0.638898 0)
(-0.0250507 0.515194 0)
(0.0106823 0.618565 0)
(0.0110059 0.658117 0)
(0.0203493 0.718742 0)
(0.0506994 0.778957 0)
(0.0628126 0.841507 0)
(0.0565892 0.877068 0)
(0.0454593 0.918136 0)
(0.0324815 0.948681 0)
(0.0297335 0.984817 0)
(0.034079 1.04167 0)
(0.0352541 1.04088 0)
(0.0156215 1.00257 0)
(-0.0146288 0.93765 0)
(-0.0333693 0.905234 0)
(-0.0441913 0.817903 0)
(-0.0542824 0.763969 0)
(-0.055397 0.738369 0)
(-0.0578201 0.742727 0)
(-0.055112 0.745857 0)
(-0.0424967 0.702909 0)
(-0.0320932 0.652996 0)
(-0.0363719 0.675921 0)
(-0.0622291 0.741739 0)
(-0.105607 0.786441 0)
(-0.150073 0.803652 0)
(-0.166466 0.792104 0)
(-0.148534 0.748269 0)
(-0.111456 0.681821 0)
(-0.0746518 0.594646 0)
(-0.0200872 0.467864 0)
(0.00756336 0.611665 0)
(-0.0003255 0.65849 0)
(0.0124182 0.686275 0)
(0.0549326 0.739838 0)
(0.0843501 0.827773 0)
(0.0892113 0.873641 0)
(0.0831776 0.928004 0)
(0.071094 0.960599 0)
(0.05951 0.990756 0)
(0.0619366 1.03609 0)
(0.0594173 1.05127 0)
(0.0352008 1.02721 0)
(0.00585124 0.966228 0)
(-0.0218169 0.922305 0)
(-0.0363684 0.831001 0)
(-0.0562075 0.772841 0)
(-0.0628165 0.741179 0)
(-0.0592834 0.735241 0)
(-0.0409307 0.728426 0)
(-0.0194319 0.683096 0)
(-0.00934132 0.650639 0)
(-0.0229432 0.68682 0)
(-0.0536868 0.771784 0)
(-0.097634 0.825119 0)
(-0.137945 0.833078 0)
(-0.144167 0.781836 0)
(-0.122751 0.72427 0)
(-0.0872013 0.65247 0)
(-0.0551797 0.565315 0)
(-0.0161548 0.430372 0)
(-0.00662065 0.619203 0)
(-0.0138962 0.661271 0)
(0.00518842 0.649644 0)
(0.0489274 0.696067 0)
(0.085146 0.805281 0)
(0.0985419 0.865656 0)
(0.105296 0.930454 0)
(0.104817 0.975406 0)
(0.0889986 1.00015 0)
(0.0864297 1.03934 0)
(0.0793278 1.06312 0)
(0.0571708 1.05289 0)
(0.0246124 0.997023 0)
(-0.00226546 0.941383 0)
(-0.0237115 0.853275 0)
(-0.0530667 0.790568 0)
(-0.0643014 0.743638 0)
(-0.0538272 0.716383 0)
(-0.0276763 0.701548 0)
(-0.00819919 0.664394 0)
(-0.00215961 0.649233 0)
(-0.0220418 0.698704 0)
(-0.0516139 0.79635 0)
(-0.0850083 0.85017 0)
(-0.106675 0.83087 0)
(-0.108826 0.764719 0)
(-0.0886274 0.689268 0)
(-0.0610033 0.619654 0)
(-0.0376799 0.538442 0)
(-0.0109815 0.401145 0)
(-0.0130117 0.641961 0)
(-0.0173885 0.653827 0)
(0.00382244 0.619431 0)
(0.0409385 0.656632 0)
(0.0748983 0.779942 0)
(0.0961933 0.84884 0)
(0.110496 0.914663 0)
(0.121262 0.980414 0)
(0.117969 1.01167 0)
(0.102982 1.04489 0)
(0.0950871 1.07971 0)
(0.073895 1.07955 0)
(0.0410187 1.02975 0)
(0.0184962 0.963089 0)
(-0.00652442 0.879763 0)
(-0.0421771 0.815128 0)
(-0.0569579 0.745353 0)
(-0.0456295 0.691559 0)
(-0.0183347 0.679194 0)
(-0.00554846 0.649163 0)
(-0.00567332 0.653273 0)
(-0.0242457 0.711491 0)
(-0.0479188 0.813825 0)
(-0.0684166 0.86612 0)
(-0.07703 0.82667 0)
(-0.0773595 0.754955 0)
(-0.0596808 0.658238 0)
(-0.0406303 0.588449 0)
(-0.0247071 0.511498 0)
(-0.00582789 0.372892 0)
(-0.00828548 0.665278 0)
(-0.00875386 0.644869 0)
(0.00681182 0.596152 0)
(0.0407241 0.622445 0)
(0.0769808 0.754846 0)
(0.103449 0.837159 0)
(0.113528 0.901811 0)
(0.129619 0.971527 0)
(0.12932 1.02777 0)
(0.112675 1.05904 0)
(0.100795 1.09014 0)
(0.0875953 1.10667 0)
(0.0585219 1.05376 0)
(0.0349584 0.986297 0)
(0.0164966 0.905655 0)
(-0.0218199 0.845986 0)
(-0.0431064 0.751091 0)
(-0.0369157 0.669037 0)
(-0.0147886 0.659971 0)
(-0.00790893 0.644269 0)
(-0.0148469 0.656434 0)
(-0.0298232 0.72252 0)
(-0.0443671 0.822055 0)
(-0.0496714 0.876136 0)
(-0.0516896 0.817091 0)
(-0.0513278 0.751171 0)
(-0.0394126 0.637336 0)
(-0.0287927 0.57127 0)
(-0.017797 0.497611 0)
(0.000605364 0.355244 0)
(0.000747674 0.675923 0)
(0.00345004 0.638623 0)
(0.0195643 0.579005 0)
(0.047445 0.591646 0)
(0.0835302 0.720302 0)
(0.111857 0.823034 0)
(0.120263 0.891113 0)
(0.13111 0.959991 0)
(0.128864 1.04452 0)
(0.111215 1.07327 0)
(0.0981937 1.09813 0)
(0.0932747 1.12479 0)
(0.0759409 1.08289 0)
(0.0503836 1.00214 0)
(0.0364785 0.929732 0)
(0.00554156 0.878045 0)
(-0.0241162 0.766369 0)
(-0.028734 0.651679 0)
(-0.0142195 0.647366 0)
(-0.0115303 0.641293 0)
(-0.021567 0.664061 0)
(-0.0351272 0.729105 0)
(-0.0425842 0.819596 0)
(-0.0352122 0.872024 0)
(-0.0363781 0.81215 0)
(-0.0346414 0.747557 0)
(-0.0273512 0.624882 0)
(-0.0234989 0.559514 0)
(-0.0151389 0.481714 0)
(0.00578544 0.346476 0)
(0.00573616 0.673348 0)
(0.0141144 0.629573 0)
(0.0296479 0.56336 0)
(0.0575495 0.56241 0)
(0.0939639 0.68422 0)
(0.123131 0.810939 0)
(0.129452 0.879176 0)
(0.132967 0.95635 0)
(0.123637 1.05711 0)
(0.102994 1.09292 0)
(0.088427 1.10275 0)
(0.0898896 1.13018 0)
(0.0885053 1.10248 0)
(0.0673182 1.02412 0)
(0.0513281 0.94556 0)
(0.0282888 0.907767 0)
(-0.00350766 0.789121 0)
(-0.0208419 0.645653 0)
(-0.0169145 0.638245 0)
(-0.0167838 0.643205 0)
(-0.0264678 0.67124 0)
(-0.0366896 0.735521 0)
(-0.0399868 0.812997 0)
(-0.029536 0.866604 0)
(-0.033268 0.809719 0)
(-0.0301921 0.741225 0)
(-0.026547 0.618877 0)
(-0.0244972 0.550624 0)
(-0.0136011 0.467771 0)
(0.00643888 0.34084 0)
(0.00494458 0.666872 0)
(0.012839 0.619126 0)
(0.0268621 0.544123 0)
(0.0607913 0.530472 0)
(0.102344 0.647487 0)
(0.135177 0.797885 0)
(0.137344 0.875376 0)
(0.131726 0.957755 0)
(0.116864 1.07614 0)
(0.0937059 1.10956 0)
(0.0774389 1.11121 0)
(0.0791778 1.12316 0)
(0.0898109 1.1104 0)
(0.0856821 1.0447 0)
(0.0642884 0.964222 0)
(0.0428546 0.929654 0)
(0.0132828 0.818046 0)
(-0.0131516 0.65437 0)
(-0.0190732 0.634836 0)
(-0.0171087 0.645665 0)
(-0.0271896 0.679086 0)
(-0.0376282 0.740029 0)
(-0.0421579 0.810135 0)
(-0.0340433 0.859835 0)
(-0.0375272 0.814862 0)
(-0.0322694 0.732333 0)
(-0.0317013 0.615486 0)
(-0.0274464 0.540519 0)
(-0.0116154 0.450561 0)
(0.00796097 0.337782 0)
(0.00332532 0.659647 0)
(0.00921168 0.611056 0)
(0.0178433 0.523414 0)
(0.0550995 0.489124 0)
(0.103991 0.605477 0)
(0.140769 0.786567 0)
(0.137691 0.87751 0)
(0.119086 0.970787 0)
(0.103516 1.09177 0)
(0.0845216 1.1263 0)
(0.067769 1.12191 0)
(0.0694067 1.11394 0)
(0.0830431 1.10527 0)
(0.0922489 1.0545 0)
(0.0783476 0.988336 0)
(0.0523783 0.953779 0)
(0.0255478 0.845225 0)
(-0.00389177 0.671897 0)
(-0.0143563 0.635727 0)
(-0.0154674 0.64996 0)
(-0.0267456 0.686239 0)
(-0.0392461 0.750963 0)
(-0.0495387 0.813982 0)
(-0.0464874 0.855513 0)
(-0.0477807 0.815231 0)
(-0.0393905 0.725951 0)
(-0.0357059 0.615585 0)
(-0.0233399 0.530779 0)
(-0.00657079 0.437929 0)
(0.00782546 0.34101 0)
(0.00242416 0.653445 0)
(0.00905903 0.6083 0)
(0.0173922 0.506524 0)
(0.0480647 0.449124 0)
(0.0930225 0.559163 0)
(0.131523 0.775541 0)
(0.126641 0.892082 0)
(0.100316 0.987754 0)
(0.0843518 1.10199 0)
(0.0720219 1.13735 0)
(0.0594094 1.1328 0)
(0.0581998 1.10883 0)
(0.0712093 1.09334 0)
(0.0883309 1.05377 0)
(0.0811658 1.00804 0)
(0.0623419 0.98035 0)
(0.0398745 0.869054 0)
(0.0140374 0.695421 0)
(-0.00297543 0.642949 0)
(-0.0135335 0.654819 0)
(-0.0277083 0.696662 0)
(-0.040867 0.76162 0)
(-0.0568635 0.82487 0)
(-0.0592231 0.852052 0)
(-0.0629171 0.813248 0)
(-0.0483289 0.714909 0)
(-0.0329941 0.609918 0)
(-0.0114377 0.516963 0)
(-1.91405e-05 0.431126 0)
(0.00918436 0.344413 0)
(0.00204354 0.645848 0)
(0.0159945 0.600689 0)
(0.0279284 0.490922 0)
(0.0466112 0.424603 0)
(0.0779363 0.520141 0)
(0.109592 0.763383 0)
(0.107781 0.908059 0)
(0.0802739 1.01071 0)
(0.0630307 1.10549 0)
(0.0556431 1.14782 0)
(0.0494758 1.1382 0)
(0.0495447 1.1105 0)
(0.0598262 1.07985 0)
(0.0762795 1.04857 0)
(0.0756269 1.024 0)
(0.072774 0.996543 0)
(0.0576343 0.890067 0)
(0.0361838 0.720528 0)
(0.0116104 0.658999 0)
(-0.0128526 0.66657 0)
(-0.0305642 0.704767 0)
(-0.0443355 0.774067 0)
(-0.059069 0.831474 0)
(-0.0619638 0.849822 0)
(-0.0639757 0.805837 0)
(-0.0436128 0.689753 0)
(-0.0188888 0.591105 0)
(0.00586367 0.500982 0)
(0.00712313 0.434135 0)
(0.00922197 0.351472 0)
(0.00413166 0.638835 0)
(0.0272485 0.585343 0)
(0.0440767 0.478709 0)
(0.0501482 0.413446 0)
(0.0635288 0.494897 0)
(0.0841014 0.748863 0)
(0.0821953 0.92344 0)
(0.0587509 1.02896 0)
(0.0408791 1.11323 0)
(0.0379947 1.15121 0)
(0.0372258 1.14052 0)
(0.0414843 1.10934 0)
(0.0478315 1.0759 0)
(0.0600571 1.04282 0)
(0.065707 1.02979 0)
(0.0758318 0.996782 0)
(0.0661423 0.909136 0)
(0.0491479 0.74071 0)
(0.0301452 0.684791 0)
(-0.00212527 0.686489 0)
(-0.0262945 0.722621 0)
(-0.0426467 0.7867 0)
(-0.0499079 0.840773 0)
(-0.0403901 0.845314 0)
(-0.0351772 0.795213 0)
(-0.0178541 0.658374 0)
(0.0071305 0.560834 0)
(0.0283972 0.482402 0)
(0.0220722 0.430001 0)
(0.0108162 0.353156 0)
(0.0103483 0.624245 0)
(0.0417471 0.562399 0)
(0.0550322 0.473483 0)
(0.0512807 0.416637 0)
(0.0485303 0.483806 0)
(0.0580373 0.738669 0)
(0.0540052 0.935215 0)
(0.0373592 1.04391 0)
(0.0214644 1.11833 0)
(0.0192586 1.15292 0)
(0.0218567 1.13835 0)
(0.0301981 1.10753 0)
(0.0361855 1.07542 0)
(0.0405441 1.04155 0)
(0.0489449 1.023 0)
(0.0638354 0.992883 0)
(0.0609183 0.919187 0)
(0.051388 0.757643 0)
(0.0354375 0.705981 0)
(0.00325743 0.708607 0)
(-0.0226207 0.73693 0)
(-0.0358084 0.792797 0)
(-0.0293798 0.82785 0)
(-0.00680269 0.821889 0)
(0.00832357 0.784685 0)
(0.0228306 0.636883 0)
(0.0391814 0.541239 0)
(0.0493737 0.478388 0)
(0.0395609 0.447694 0)
(0.0201093 0.374113 0)
(0.0196943 0.595485 0)
(0.0537112 0.543335 0)
(0.0567477 0.47424 0)
(0.0481973 0.429313 0)
(0.0346712 0.486151 0)
(0.0343565 0.734568 0)
(0.0306698 0.945617 0)
(0.0175741 1.05549 0)
(0.00288723 1.12655 0)
(-0.00255759 1.14975 0)
(0.00249424 1.1339 0)
(0.0138627 1.10408 0)
(0.0205234 1.07741 0)
(0.0220404 1.0458 0)
(0.0264208 1.01157 0)
(0.0419184 0.984291 0)
(0.0465501 0.922362 0)
(0.0438029 0.76822 0)
(0.0326206 0.722083 0)
(0.00756111 0.730293 0)
(-0.0157036 0.755493 0)
(-0.0213579 0.789846 0)
(-0.00270872 0.80642 0)
(0.0191204 0.796189 0)
(0.0406435 0.762321 0)
(0.0593778 0.611255 0)
(0.0689699 0.526695 0)
(0.0672776 0.475565 0)
(0.0505576 0.454052 0)
(0.0261135 0.405596 0)
(0.0252822 0.553481 0)
(0.0599519 0.536742 0)
(0.054738 0.480497 0)
(0.0435871 0.445994 0)
(0.0223592 0.498352 0)
(0.0158094 0.731484 0)
(0.0152428 0.952058 0)
(0.00272936 1.07024 0)
(-0.0150372 1.13304 0)
(-0.0217516 1.14816 0)
(-0.017411 1.12476 0)
(-0.00716171 1.09684 0)
(-0.000189154 1.07891 0)
(0.00308527 1.05091 0)
(0.00517439 1.00236 0)
(0.0152759 0.969378 0)
(0.0279202 0.918738 0)
(0.0354003 0.771259 0)
(0.0333714 0.733951 0)
(0.0150583 0.752663 0)
(-0.00173699 0.767833 0)
(-0.0003775 0.781693 0)
(0.0186477 0.782814 0)
(0.0365361 0.780301 0)
(0.0559642 0.736901 0)
(0.0795331 0.58629 0)
(0.0863435 0.51866 0)
(0.0795382 0.478257 0)
(0.0565094 0.465925 0)
(0.0270384 0.436756 0)
(0.0205782 0.510386 0)
(0.0576848 0.535029 0)
(0.0513781 0.485532 0)
(0.0381232 0.465816 0)
(0.0109615 0.5193 0)
(0.000895858 0.721791 0)
(0.00579335 0.958349 0)
(-0.00850695 1.08486 0)
(-0.0299078 1.1446 0)
(-0.0355445 1.14553 0)
(-0.0333586 1.12215 0)
(-0.0297308 1.09113 0)
(-0.0245009 1.07671 0)
(-0.0219573 1.04844 0)
(-0.016822 0.995549 0)
(-0.0104855 0.957013 0)
(0.00811451 0.907336 0)
(0.0262485 0.765008 0)
(0.0330145 0.74461 0)
(0.0257206 0.76978 0)
(0.0154114 0.77709 0)
(0.0191593 0.770443 0)
(0.0297565 0.765164 0)
(0.0434937 0.767276 0)
(0.0635647 0.708038 0)
(0.0884337 0.56716 0)
(0.0939873 0.518163 0)
(0.0851264 0.490163 0)
(0.0580722 0.488502 0)
(0.0256467 0.472807 0)
(0.0136304 0.475168 0)
(0.047194 0.530025 0)
(0.0425723 0.485897 0)
(0.0296926 0.488 0)
(-0.00242113 0.542299 0)
(-0.01318 0.713432 0)
(-0.00686658 0.962891 0)
(-0.0209732 1.10221 0)
(-0.0401665 1.15008 0)
(-0.0446162 1.14602 0)
(-0.0426107 1.12071 0)
(-0.0420672 1.0924 0)
(-0.0425506 1.07494 0)
(-0.0351674 1.04531 0)
(-0.0317542 0.99118 0)
(-0.0266848 0.944084 0)
(-0.00420256 0.891567 0)
(0.0198362 0.757482 0)
(0.0305681 0.747806 0)
(0.0317019 0.781681 0)
(0.0276022 0.779319 0)
(0.031237 0.763638 0)
(0.0347361 0.751564 0)
(0.0429749 0.754425 0)
(0.0659385 0.676036 0)
(0.0897121 0.550606 0)
(0.0956428 0.518989 0)
(0.0862156 0.505613 0)
(0.0564756 0.51806 0)
(0.0235788 0.509489 0)
(0.00769583 0.447545 0)
(0.0307655 0.523661 0)
(0.0277169 0.485617 0)
(0.0145658 0.511712 0)
(-0.0178974 0.565155 0)
(-0.0307567 0.702314 0)
(-0.027632 0.965019 0)
(-0.0373307 1.11169 0)
(-0.0493656 1.15237 0)
(-0.0507933 1.14499 0)
(-0.0502431 1.12263 0)
(-0.0467594 1.09547 0)
(-0.047521 1.07225 0)
(-0.0384044 1.0385 0)
(-0.0368317 0.986576 0)
(-0.0334408 0.935304 0)
(-0.0104853 0.871092 0)
(0.013182 0.744362 0)
(0.0227055 0.747353 0)
(0.0294273 0.783703 0)
(0.0285904 0.777355 0)
(0.0341609 0.755867 0)
(0.0359753 0.744167 0)
(0.0405388 0.741119 0)
(0.0643863 0.640568 0)
(0.0872877 0.535134 0)
(0.0945435 0.517248 0)
(0.0842805 0.521404 0)
(0.0523425 0.548396 0)
(0.0212153 0.541277 0)
(0.000227177 0.432496 0)
(0.0122222 0.517116 0)
(0.00661945 0.485686 0)
(-0.00879945 0.531078 0)
(-0.036025 0.583226 0)
(-0.0517624 0.696619 0)
(-0.0503754 0.958783 0)
(-0.052197 1.11558 0)
(-0.056328 1.14565 0)
(-0.0554778 1.14353 0)
(-0.0557735 1.12553 0)
(-0.0532689 1.09804 0)
(-0.0497947 1.07172 0)
(-0.0386628 1.03286 0)
(-0.0361046 0.985256 0)
(-0.0321478 0.925407 0)
(-0.0119384 0.852023 0)
(0.00668524 0.736059 0)
(0.0142029 0.742926 0)
(0.0213557 0.785916 0)
(0.0218428 0.771419 0)
(0.0291758 0.748914 0)
(0.0326097 0.736762 0)
(0.0354304 0.726811 0)
(0.0588109 0.605822 0)
(0.0836998 0.519018 0)
(0.0928018 0.51571 0)
(0.0798168 0.537742 0)
(0.04649 0.581505 0)
(0.0188391 0.56981 0)
(-0.00699516 0.428542 0)
(-0.00260661 0.515027 0)
(-0.0166866 0.493664 0)
(-0.0352109 0.545618 0)
(-0.056836 0.602061 0)
(-0.0729608 0.694056 0)
(-0.0713427 0.946809 0)
(-0.059199 1.10781 0)
(-0.0565854 1.13549 0)
(-0.0552271 1.13811 0)
(-0.0584888 1.12827 0)
(-0.0573198 1.10188 0)
(-0.0519017 1.06533 0)
(-0.0386809 1.02814 0)
(-0.0321376 0.981917 0)
(-0.0266004 0.918052 0)
(-0.0118901 0.835864 0)
(-0.000110432 0.729733 0)
(0.00255836 0.738465 0)
(0.00696831 0.784734 0)
(0.00890802 0.763872 0)
(0.0160449 0.738279 0)
(0.022279 0.729471 0)
(0.0274045 0.712361 0)
(0.054832 0.57032 0)
(0.0849469 0.500016 0)
(0.091254 0.519692 0)
(0.0745037 0.559649 0)
(0.0405078 0.612502 0)
(0.0167109 0.593072 0)
(-0.014699 0.432427 0)
(-0.0154038 0.519362 0)
(-0.0363221 0.509728 0)
(-0.0566683 0.560229 0)
(-0.0766683 0.616985 0)
(-0.0903282 0.69444 0)
(-0.0833621 0.922266 0)
(-0.0588954 1.09296 0)
(-0.0495108 1.1247 0)
(-0.0501128 1.13289 0)
(-0.0545214 1.13472 0)
(-0.0558419 1.1014 0)
(-0.0491543 1.06089 0)
(-0.0383714 1.01968 0)
(-0.0294016 0.97683 0)
(-0.0202845 0.908132 0)
(-0.011352 0.827445 0)
(-0.00627209 0.727558 0)
(-0.00905965 0.735451 0)
(-0.00716364 0.783948 0)
(-0.00534398 0.753965 0)
(8.50642e-05 0.728844 0)
(0.00495005 0.720542 0)
(0.0193481 0.69024 0)
(0.0557707 0.533921 0)
(0.0804013 0.486303 0)
(0.0829381 0.527371 0)
(0.0670894 0.580869 0)
(0.0354523 0.643462 0)
(0.0153656 0.614539 0)
(-0.0203489 0.444757 0)
(-0.023977 0.52305 0)
(-0.0420328 0.527121 0)
(-0.0670611 0.575867 0)
(-0.0869347 0.633672 0)
(-0.0963636 0.691138 0)
(-0.0860201 0.896602 0)
(-0.0539944 1.06512 0)
(-0.038824 1.11525 0)
(-0.0397933 1.12816 0)
(-0.0450043 1.1376 0)
(-0.0444168 1.0987 0)
(-0.0383572 1.05415 0)
(-0.0346589 1.01659 0)
(-0.0268389 0.965606 0)
(-0.0160749 0.899506 0)
(-0.0093812 0.824737 0)
(-0.0113187 0.731045 0)
(-0.0189269 0.735418 0)
(-0.0183949 0.785207 0)
(-0.0189262 0.747873 0)
(-0.0172109 0.721599 0)
(-0.010173 0.708225 0)
(0.0186526 0.659171 0)
(0.0576817 0.500606 0)
(0.075888 0.481082 0)
(0.0727715 0.536353 0)
(0.0570917 0.599525 0)
(0.029691 0.665898 0)
(0.0171198 0.634072 0)
(-0.0249309 0.464745 0)
(-0.0297625 0.525067 0)
(-0.0425911 0.547314 0)
(-0.0683382 0.596999 0)
(-0.0922213 0.647952 0)
(-0.0972163 0.689641 0)
(-0.0817867 0.869419 0)
(-0.0481434 1.037 0)
(-0.028041 1.10496 0)
(-0.0290582 1.12585 0)
(-0.0326564 1.13811 0)
(-0.0298552 1.08807 0)
(-0.02501 1.05004 0)
(-0.0265555 1.01203 0)
(-0.0219954 0.956544 0)
(-0.0133481 0.887149 0)
(-0.00915959 0.828273 0)
(-0.0143992 0.740813 0)
(-0.026887 0.737693 0)
(-0.0283328 0.786803 0)
(-0.0320537 0.746857 0)
(-0.0328666 0.715381 0)
(-0.0181394 0.687696 0)
(0.0246947 0.620641 0)
(0.0604994 0.477495 0)
(0.0697971 0.483213 0)
(0.0598615 0.546815 0)
(0.0458471 0.613342 0)
(0.0219364 0.68276 0)
(0.0174668 0.651211 0)
(-0.0260159 0.491386 0)
(-0.0305658 0.522109 0)
(-0.0350409 0.563659 0)
(-0.0615057 0.624554 0)
(-0.0920739 0.665067 0)
(-0.0985067 0.686595 0)
(-0.0837534 0.841102 0)
(-0.0462281 1.00634 0)
(-0.0226041 1.0928 0)
(-0.0228501 1.12428 0)
(-0.0237556 1.13349 0)
(-0.0186954 1.08157 0)
(-0.016375 1.04566 0)
(-0.0186205 1.01195 0)
(-0.0162714 0.947896 0)
(-0.0115665 0.879892 0)
(-0.0101432 0.829302 0)
(-0.0181077 0.756472 0)
(-0.0331116 0.74401 0)
(-0.0390962 0.788319 0)
(-0.0432655 0.750782 0)
(-0.0435988 0.705292 0)
(-0.0158776 0.656142 0)
(0.0334876 0.579433 0)
(0.0616719 0.463371 0)
(0.0594407 0.490919 0)
(0.0457845 0.556256 0)
(0.0326426 0.625409 0)
(0.0126067 0.690671 0)
(0.0169385 0.664248 0)
(-0.0203905 0.519178 0)
(-0.0231852 0.517236 0)
(-0.0283041 0.577312 0)
(-0.0556445 0.65695 0)
(-0.0872754 0.682717 0)
(-0.0989105 0.69014 0)
(-0.089128 0.810594 0)
(-0.0505762 0.977006 0)
(-0.0232688 1.08007 0)
(-0.0233871 1.12092 0)
(-0.0220967 1.12729 0)
(-0.018435 1.07198 0)
(-0.0150281 1.04484 0)
(-0.0156532 1.0055 0)
(-0.0149537 0.946126 0)
(-0.0102959 0.874502 0)
(-0.0140883 0.833058 0)
(-0.0235474 0.774914 0)
(-0.0401953 0.754108 0)
(-0.0484677 0.788772 0)
(-0.0496136 0.755815 0)
(-0.0440619 0.687723 0)
(-0.00661963 0.614061 0)
(0.0378618 0.545061 0)
(0.0557987 0.460774 0)
(0.0457502 0.50122 0)
(0.0302792 0.566247 0)
(0.0194395 0.632053 0)
(0.00478471 0.694671 0)
(0.0131181 0.671079 0)
(-0.00768596 0.536563 0)
(-0.00646016 0.520443 0)
(-0.0223671 0.594731 0)
(-0.0492181 0.685539 0)
(-0.0784438 0.703866 0)
(-0.0945668 0.698004 0)
(-0.0920328 0.784919 0)
(-0.0578291 0.94313 0)
(-0.026829 1.0644 0)
(-0.0244531 1.11913 0)
(-0.0250903 1.1172 0)
(-0.0241906 1.0648 0)
(-0.0185287 1.03976 0)
(-0.0154381 1.00107 0)
(-0.0149597 0.939269 0)
(-0.0142223 0.876548 0)
(-0.0171353 0.835301 0)
(-0.0318805 0.796672 0)
(-0.0476012 0.764289 0)
(-0.0533822 0.786446 0)
(-0.0479447 0.754953 0)
(-0.0348793 0.661835 0)
(-0.000858229 0.57775 0)
(0.0330406 0.518947 0)
(0.0434457 0.463843 0)
(0.030984 0.512772 0)
(0.0149887 0.574067 0)
(0.0079951 0.634633 0)
(-0.00288742 0.694937 0)
(0.0101874 0.671589 0)
(0.00552754 0.537066 0)
(0.00963317 0.530679 0)
(-0.0139398 0.617314 0)
(-0.0421798 0.709642 0)
(-0.0653003 0.722556 0)
(-0.0842674 0.710155 0)
(-0.086453 0.765219 0)
(-0.0622652 0.909653 0)
(-0.0305316 1.04439 0)
(-0.0250388 1.117 0)
(-0.0270851 1.11361 0)
(-0.0275122 1.05524 0)
(-0.0209309 1.03499 0)
(-0.0139547 0.991592 0)
(-0.0141591 0.940179 0)
(-0.0185112 0.878095 0)
(-0.0216802 0.841937 0)
(-0.0362073 0.815783 0)
(-0.0505404 0.773622 0)
(-0.053167 0.776597 0)