/*--------------------------------*- C++ -*----------------------------------*\
| =========                 |                                                 |
| \\      /  F ield         | OpenFOAM: The Open Source CFD Toolbox           |
|  \\    /   O peration     | Version:  2.3.0                                 |
|   \\  /    A nd           | Web:      www.OpenFOAM.org                      |
|    \\/     M anipulation  |                                                 |
\*---------------------------------------------------------------------------*/
FoamFile
{
    version     2.0;
    format      ascii;
    class       volScalarField;
    location    "0.3";
    object      alpha.water;
}
// * * * * * * * * * * * * * * * * * * * * * * * * * * * * * * * * * * * * * //

dimensions      [0 0 0 0 0 0 0];

internalField   nonuniform List<scalar> 
8000
(
1
1
1
1
1
1
1
1
1
1
1
1
1
1
1
1
1
1
1
1
1
1
1
1
1
1
1
1
1
1
1
1
1
1
1
1
1
1
1
1
1
1
1
1
1
1
1
1
1
1
1
1
1
1
1
1
1
1
1
1
1
1
1
1
1
1
1
1
1
1
1
1
1
1
1
1
1
1
1
1
1
1
1
1
1
1
1
1
1
1
1
1
1
1
1
1
1
1
1
1
1
1
1
1
1
1
1
1
1
1
1
1
1
1
1
1
1
1
1
1
1
1
1
1
1
1
1
1
1
1
1
1
1
1
1
1
1
1
1
1
1
1
1
1
1
1
1
1
1
1
1
1
1
1
1
1
1
1
1
1
1
1
1
1
1
1
1
1
1
1
1
1
1
1
1
1
1
1
1
1
1
1
1
1
1
1
1
1
1
1
1
1
1
1
1
1
1
1
1
1
1
1
1
1
1
1
1
1
1
1
1
1
1
1
1
1
1
1
1
1
1
1
1
1
1
1
1
1
1
1
1
1
1
1
1
1
1
1
1
1
1
1
1
1
1
1
1
1
1
1
1
1
1
1
1
1
1
1
1
1
1
1
1
1
1
1
1
1
1
1
1
1
1
1
1
1
1
1
1
1
1
1
1
1
1
1
1
1
1
1
1
1
1
1
1
1
1
1
1
1
1
1
1
1
1
1
1
1
1
1
1
1
1
1
1
1
1
1
1
1
1
1
1
1
1
1
1
1
1
1
1
1
1
1
1
1
1
1
1
1
1
1
1
1
1
1
1
1
1
1
1
1
1
1
1
1
1
1
1
1
1
1
1
1
1
1
1
1
1
1
1
1
1
1
1
1
1
1
1
1
1
1
1
1
1
1
1
1
1
1
1
1
1
1
1
1
1
1
1
1
1
1
1
1
1
1
1
1
1
1
1
1
1
1
1
1
1
1
1
1
1
1
1
1
1
1
1
1
1
1
1
1
1
1
1
1
1
1
1
1
1
1
1
1
1
1
1
1
1
1
1
1
1
1
1
1
1
1
1
1
1
1
1
1
1
1
1
1
1
1
1
1
1
1
1
1
1
1
1
1
1
1
1
1
1
1
1
1
1
1
1
1
1
1
1
1
1
1
1
1
1
1
1
1
1
1
1
1
1
1
1
1
1
1
1
1
1
1
1
1
1
1
1
1
1
1
1
1
1
1
1
1
1
1
1
1
1
1
1
1
1
1
1
1
1
1
1
1
1
1
1
1
1
1
1
1
1
1
1
1
1
1
1
1
1
1
1
1
1
1
1
1
1
1
1
1
1
1
1
1
1
1
1
1
1
1
1
1
1
1
1
1
1
1
1
1
1
1
1
1
1
1
1
1
1
1
1
1
1
1
1
1
1
1
1
1
1
1
1
1
1
1
1
1
1
1
1
1
1
1
1
1
1
1
1
1
1
1
1
1
1
1
1
1
1
1
1
1
1
1
1
1
1
1
1
1
1
1
1
1
1
1
1
1
1
1
1
1
1
1
1
1
1
1
1
1
1
1
1
1
1
1
1
1
1
1
1
1
1
1
1
1
1
1
1
1
1
1
1
1
1
1
1
1
1
1
1
1
1
1
1
1
1
1
1
1
1
1
1
1
1
1
1
1
1
1
1
1
1
1
1
1
1
1
1
1
1
1
1
1
1
1
1
1
1
1
1
1
1
1
1
1
1
1
1
1
1
1
1
1
1
1
1
1
1
1
1
1
1
1
1
1
1
1
1
1
1
1
1
1
1
1
1
1
1
1
1
1
1
1
1
1
1
1
1
1
1
1
1
1
1
1
1
1
1
1
1
1
1
1
1
1
1
1
1
1
1
1
1
1
1
1
1
1
1
1
1
1
1
1
1
1
1
1
1
1
1
1
1
1
1
1
1
1
1
1
1
1
1
1
1
1
1
1
1
1
1
1
1
1
1
1
1
1
1
1
1
1
1
1
1
1
1
1
1
1
1
1
1
1
1
1
1
1
1
1
1
1
1
1
1
1
1
1
1
1
1
1
1
1
1
1
1
1
1
1
1
1
1
1
1
1
1
1
1
1
1
1
1
1
1
1
1
1
1
1
1
1
1
1
1
1
1
1
1
1
1
1
1
1
1
1
1
1
1
1
1
1
1
1
1
1
1
1
1
1
1
1
1
1
1
1
1
1
1
1
1
1
1
1
1
1
1
1
1
1
1
1
1
1
1
1
1
1
1
1
1
1
1
1
1
1
1
1
1
1
1
1
1
1
1
1
1
1
1
1
1
1
1
1
1
1
1
1
1
1
1
1
1
1
1
1
1
1
1
1
1
1
1
1
1
1
1
1
1
1
1
1
1
1
1
1
1
1
1
1
1
1
1
1
1
1
1
1
1
1
1
1
1
1
1
1
1
1
1
1
1
1
1
1
1
1
1
1
1
1
1
1
1
1
1
1
1
1
1
1
1
1
1
1
1
1
1
1
1
1
1
1
1
1
1
1
1
1
1
1
1
1
1
1
1
1
1
1
1
1
1
1
1
1
1
1
1
1
1
1
1
1
1
1
1
1
1
1
1
1
1
1
1
1
1
1
1
1
1
1
1
1
1
1
1
1
1
1
1
1
1
1
1
1
1
1
1
1
1
1
1
1
1
1
1
1
1
1
1
1
1
1
1
1
1
1
1
1
1
1
1
1
1
1
1
1
1
1
1
1
1
1
1
1
1
1
1
1
1
1
1
1
1
1
1
1
1
1
1
1
1
1
1
1
1
1
1
1
1
1
1
1
1
1
1
1
1
1
1
1
1
1
1
1
1
1
1
1
1
1
1
1
1
1
1
1
1
1
1
1
1
1
1
1
1
1
1
1
1
1
1
1
1
1
1
1
1
1
1
1
1
1
1
1
1
1
1
1
1
1
1
1
1
1
1
1
1
1
1
1
1
1
1
1
1
1
1
1
1
1
1
1
1
1
1
1
1
1
1
1
1
1
1
1
1
1
1
1
1
1
1
1
1
1
1
1
1
1
1
1
1
1
1
1
1
1
1
1
1
1
1
1
1
1
1
1
1
1
1
1
1
1
1
1
1
1
1
1
1
1
1
1
1
1
1
1
1
1
1
1
1
1
1
1
1
1
1
1
1
1
1
1
1
1
1
1
1
1
1
1
1
1
1
1
1
1
1
1
1
1
1
1
1
1
1
1
1
1
1
1
1
1
1
1
1
1
1
1
1
1
1
1
1
1
1
1
1
1
1
1
1
1
1
1
1
1
1
1
1
1
1
1
1
1
1
1
1
1
1
1
1
1
1
1
1
1
1
1
1
1
1
1
1
1
1
1
1
1
1
1
1
1
1
1
1
1
1
1
1
1
1
1
1
1
1
1
1
1
1
1
1
1
1
1
1
1
1
1
1
1
1
1
1
1
1
1
1
1
1
1
1
1
1
1
1
1
1
1
1
1
1
1
1
1
1
1
1
1
1
1
1
1
1
1
1
1
1
1
1
1
1
1
1
1
1
1
1
1
1
1
1
1
1
1
1
1
1
1
1
1
1
1
1
1
1
1
1
1
1
1
1
1
1
1
1
1
1
1
1
1
1
1
1
1
1
1
1
1
1
1
1
1
1
1
1
1
1
1
1
1
1
1
1
1
1
1
1
1
1
1
1
1
1
1
1
1
1
1
1
1
1
1
1
1
1
1
1
1
1
1
1
1
1
1
1
1
1
1
1
1
1
1
1
1
1
1
1
1
1
1
1
1
1
1
1
1
1
1
1
1
1
1
1
1
1
1
1
1
1
1
1
1
1
1
1
1
1
1
1
1
1
1
1
1
1
1
1
1
1
1
1
1
1
1
1
1
1
1
1
1
1
1
1
1
1
1
1
1
1
1
1
1
1
1
1
1
1
1
1
1
1
1
1
1
1
1
1
1
1
1
1
1
1
1
1
1
1
1
1
1
1
1
1
1
1
1
1
1
1
1
1
1
1
1
1
1
1
1
1
1
1
1
1
1
1
1
1
1
1
1
1
1
1
1
1
1
1
1
1
1
1
1
1
1
1
1
1
1
1
1
1
1
1
1
1
1
1
1
1
1
1
1
1
1
1
1
1
1
1
1
1
1
1
1
1
1
1
1
1
1
1
1
1
1
1
1
1
1
1
1
1
1
1
1
1
1
1
1
1
1
1
1
1
1
1
1
1
1
1
1
1
1
1
1
1
1
1
1
1
1
1
1
1
1
1
1
1
1
1
1
1
1
1
1
1
1
1
1
1
1
1
1
1
1
1
1
1
1
1
1
1
1
1
1
1
1
1
1
1
1
1
1
1
1
1
1
1
1
1
1
1
1
1
1
1
1
1
1
1
1
1
1
1
1
1
1
1
1
1
1
1
1
1
1
1
1
1
1
1
1
1
1
1
1
1
1
1
1
1
1
1
1
1
1
1
1
1
1
1
1
1
1
1
1
1
1
1
1
1
1
1
1
1
1
1
1
1
1
1
1
1
1
1
1
1
1
1
1
1
1
1
1
1
1
1
1
1
1
1
1
1
1
1
1
1
1
1
1
1
1
1
1
1
1
1
1
1
1
1
1
1
1
1
1
1
1
1
1
1
1
1
1
1
1
1
1
1
1
1
1
1
1
1
1
1
1
1
1
1
1
1
1
1
1
1
1
1
1
1
1
1
1
1
1
1
1
1
1
1
1
1
1
1
1
1
1
1
1
1
1
1
1
1
1
1
1
1
1
1
1
1
1
1
1
1
1
1
1
1
1
1
1
1
1
1
1
1
1
1
1
1
1
1
1
1
1
1
1
1
1
1
1
1
1
1
1
1
1
1
1
1
1
1
1
1
1
1
1
1
1
1
1
1
1
1
1
1
1
1
1
1
1
1
1
1
1
1
1
1
1
1
1
1
1
1
1
1
1
1
1
1
1
1
1
1
1
1
1
1
1
1
1
1
1
1
1
1
1
1
1
1
1
1
1
1
1
1
1
1
1
1
1
1
1
1
1
1
1
1
1
1
1
1
1
1
1
1
1
1
1
1
1
1
1
1
1
1
1
1
1
1
1
1
1
1
1
1
1
1
1
1
1
1
1
1
1
1
1
1
1
1
1
1
1
1
1
1
1
1
1
1
1
1
1
1
1
1
1
1
1
1
1
1
1
1
1
1
1
1
1
1
1
1
1
1
1
1
1
1
1
1
1
1
1
1
1
1
1
1
1
1
1
1
1
1
1
1
1
1
1
1
1
1
1
1
1
1
1
1
1
1
1
1
1
1
1
1
1
1
1
1
1
1
1
1
1
1
1
1
1
1
1
1
1
1
1
1
1
1
1
1
1
1
1
1
1
1
1
1
1
1
1
1
1
1
1
1
1
1
1
1
1
1
1
1
1
1
1
1
1
1
1
1
1
1
1
1
1
1
1
1
1
1
1
1
1
1
1
1
1
1
1
1
1
1
1
1
1
1
1
1
1
1
1
1
1
1
1
1
1
1
1
1
1
1
1
1
1
1
1
1
1
1
1
1
1
1
1
1
1
1
1
1
1
1
1
1
1
1
1
1
1
1
1
1
1
1
1
1
1
1
1
1
1
1
1
1
1
1
1
1
1
1
1
1
1
1
1
1
1
1
1
1
1
1
1
1
1
1
1
1
1
1
1
1
1
1
1
1
1
1
1
1
1
1
1
1
1
1
1
1
1
1
1
1
1
1
1
1
1
1
1
1
1
1
1
1
1
1
1
1
1
1
1
1
1
1
1
1
1
1
1
1
1
1
1
1
1
1
1
1
1
1
1
1
1
1
1
1
1
1
1
1
1
1
1
1
1
1
1
1
1
1
1
1
1
1
1
1
1
1
1
1
1
1
1
1
1
1
1
1
1
1
1
1
1
1
1
1
1
1
1
1
1
1
1
1
1
1
1
1
1
1
1
1
1
1
1
1
1
1
1
1
1
1
1
1
1
1
1
1
1
1
1
1
1
1
1
1
1
1
1
1
1
1
1
1
1
1
1
1
1
1
1
1
1
1
1
1
1
1
1
1
1
1
1
1
1
1
1
1
1
1
1
1
1
1
1
1
1
1
1
1
1
1
1
1
1
1
1
1
1
1
1
1
1
1
1
1
1
1
1
1
1
1
1
1
1
1
1
1
1
1
1
1
1
1
1
1
1
1
1
1
1
1
1
1
1
1
1
1
1
1
1
1
1
1
1
1
1
1
1
1
1
1
1
1
1
1
1
1
1
1
1
1
1
1
1
1
1
1
1
1
1
1
1
1
1
1
1
1
1
1
1
1
1
1
1
1
1
1
1
1
1
1
1
1
1
1
1
1
1
1
1
1
1
1
1
1
1
1
1
1
1
1
1
1
1
1
1
1
1
1
1
1
1
1
1
1
1
1
1
1
1
1
1
1
1
1
1
1
1
1
1
1
1
1
1
1
1
1
1
1
1
1
1
1
1
1
1
1
1
1
1
1
1
1
1
1
1
1
1
1
1
1
1
1
1
1
1
1
1
1
1
1
1
1
1
1
1
1
1
1
1
1
1
1
1
1
1
1
1
1
1
1
1
1
1
1
1
1
1
1
1
1
1
1
1
1
1
1
1
1
1
1
1
1
1
1
1
1
1
1
1
1
1
1
1
1
1
1
1
1
1
1
1
1
1
1
1
1
1
1
1
1
1
1
1
1
1
1
1
1
1
1
1
1
1
1
1
1
1
1
1
1
1
1
1
1
1
1
1
1
1
1
1
1
1
1
1
1
1
1
1
1
1
1
1
1
1
1
1
1
1
1
1
1
1
1
1
1
1
1
1
1
1
1
1
1
1
1
1
1
1
1
1
1
1
1
1
1
1
1
1
1
1
1
1
1
1
1
1
1
1
1
1
1
1
1
1
1
1
1
1
1
1
1
1
1
1
1
1
1
1
1
1
1
1
1
1
1
1
1
1
1
1
1
1
1
1
1
1
1
1
1
1
1
1
1
1
1
1
1
1
1
1
1
1
1
1
1
1
1
1
1
1
1
1
1
1
1
1
1
1
1
1
1
1
1
1
1
1
1
1
0.999999
1
1
1
1
1
1
1
1
1
1
1
1
1
1
1
1
1
1
0.999999
0.999999
1
1
1
1
1
1
1
1
1
1
1
1
1
1
1
1
1
1
0.999999
0.999998
1
1
1
1
1
1
1
1
1
1
1
1
1
1
1
1
1
1
0.999998
1
1
1
1
1
1
1
1
1
1
1
1
1
1
1
1
1
1
1
1
1
1
1
1
1
1
1
1
1
1
1
1
1
1
1
1
1
1
1
1
0.999979
1
1
1
1
1
1
1
1
1
1
1
1
1
1
1
1
1
1
0.999979
0.999975
1
1
1
1
1
1
1
1
1
1
1
1
1
1
1
1
1
1
0.999975
0.999983
0.999982
1
1
1
1
1
1
1
1
1
1
1
1
1
1
1
1
0.99998
0.999987
0.999997
0.99997
1
1
1
1
1
1
1
1
1
1
1
1
1
1
1
1
0.999971
0.999995
1
0.99997
0.999991
1
1
1
1
1
1
1
1
1
1
1
1
1
1
0.999996
0.999971
0.999996
0.999986
0.99999
0.999972
1
1
1
1
1
1
1
1
1
1
1
1
1
1
0.99997
0.999988
0.999996
0.999966
0.999995
0.999972
0.999999
1
1
1
1
1
1
1
1
1
1
1
1
0.999995
0.999969
0.999997
0.999997
0.999966
0.999981
0.999983
0.999972
1
1
1
1
1
1
1
1
1
1
1
0.999997
0.999971
0.99997
0.999997
0.999997
0.99999
0.999974
0.999988
0.99997
0.999974
1
1
0.999999
1
1
1
1
0.999999
1
1
0.999972
0.99997
0.999993
0.999997
0.999997
0.999997
0.99998
0.999983
0.99997
0.99997
0.99998
0.999999
0.999999
1
1
1
1
0.999999
0.999999
0.999977
0.99997
0.999975
0.999998
0.999997
0.999998
0.999998
0.999998
0.999986
0.999993
0.99998
0.999982
0.999994
0.999999
1
1
1
1
0.999999
0.999995
0.999983
0.999984
0.999997
0.999998
0.999998
0.999999
0.999999
0.999998
0.999993
0.999999
0.999999
0.999999
0.999994
0.999998
0.999999
1
1
0.999999
0.999999
0.999995
1
1
0.999999
0.999998
0.999999
1
1
0.999999
1
0.999998
0.999999
1
0.999999
0.999998
0.999999
1
1
0.999999
0.999999
0.999999
1
1
0.999999
0.999999
1
1
1
0.999999
1
0.999999
0.999999
0.999999
1
0.999999
0.999999
1
1
0.999999
0.999999
0.999999
1
1
1
1
1
1
0.999996
1
1
1
0.999999
0.999998
0.999999
0.999999
1
1
1
0.999999
0.999999
0.999999
0.999999
1
1
1
1
0.999998
1
0.999891
0.999847
0.999987
0.999999
0.999999
0.999997
0.999999
1
1
1
0.999999
0.999999
0.999999
0.999999
1
1
0.999882
0.9999
1
0.999997
0.999762
0.999761
0.999762
0.999941
1
0.999997
0.999999
0.999999
1
1
0.999999
0.999999
1
1
0.999948
0.999772
0.999764
0.999767
0.999997
1
0.999789
0.999761
0.999763
0.999938
1
0.999999
0.999997
0.999999
1
1
0.999999
0.999999
1
1
0.999925
0.999764
0.999764
0.99979
1
0.999994
0.9999
0.999912
0.999965
0.999989
1
1
0.999993
1
1
1
0.999999
1
1
1
0.999983
0.999956
0.999913
0.999906
0.999995
0.999978
0.999829
0.99991
1
1
1
1
0.999993
0.999995
0.999999
1
1
1
1
1
1
1
0.999914
0.999834
0.999979
0.999975
0.999829
0.999894
0.999998
1
1
1
0.999995
0.999993
0.999999
1
1
1
1
1
1
0.999998
0.999893
0.999834
0.999972
0.999984
0.999901
0.999991
1
1
1
1
0.999999
0.999993
0.999998
1
1
1
1
1
1
1
0.99999
0.999894
0.999983
0.999985
1
1
1
1
1
1
1
0.999993
0.999997
1
1
1
1
1
1
1
1
1
0.999987
0.999995
0.999976
1
1
1
1
1
1
0.999997
0.999998
0.999999
1
1
1
1
1
1
1
0.999977
0.999995
0.999991
0.999967
1
1
1
1
1
1
1
1
1
1
1
1
1
1
1
1
0.999968
0.999991
0.999997
0.999971
1
1
1
1
1
1
1
0.976814
0.976797
1
1
1
1
1
1
1
0.999971
0.999997
1
1
0.991542
0.955907
0.904798
0.751868
0.528002
0.33385
0.199877
0.153879
0.153828
0.199682
0.333561
0.52758
0.75149
0.904611
0.955786
0.991557
1
1
1
0.989721
0.870015
0.684195
0.323275
0.0881709
0.0125002
8.92047e-08
8.89812e-08
8.79921e-08
8.79922e-08
8.89809e-08
8.92047e-08
0.0124389
0.087957
0.322766
0.683654
0.86976
0.989705
1
1
0.783323
0.41488
0.0659123
8.55694e-08
8.56539e-08
8.51288e-08
1.08059e-07
1.28982e-07
1.51498e-07
2.77826e-07
9.6472e-08
1.00866e-07
8.54707e-08
8.54606e-08
8.49313e-08
0.0656536
0.414171
0.782887
1
0.725122
0.155949
8.32431e-08
8.41732e-08
8.43968e-08
8.47112e-08
8.6786e-08
9.73513e-08
1.20222e-07
1.77402e-07
1.05442e-07
1.0223e-07
9.23959e-08
8.63039e-08
8.45123e-08
8.37624e-08
8.3756e-08
8.33571e-08
0.155489
0.724314
0.086789
8.20294e-08
8.20585e-08
8.43487e-08
8.46672e-08
8.48887e-08
8.70089e-08
9.3553e-08
9.92154e-08
2.0473e-07
1.03149e-07
1.03012e-07
9.16943e-08
8.63253e-08
8.48855e-08
9.21972e-08
8.28297e-08
8.21729e-08
8.21538e-08
0.0863945
8.2984e-08
8.20293e-08
8.20822e-08
8.28385e-08
8.40054e-08
8.37844e-08
8.46717e-08
8.78171e-08
9.51987e-08
9.61845e-08
1.63245e-07
9.97431e-08
8.91426e-08
8.45156e-08
8.37528e-08
8.24326e-08
8.25041e-08
8.21755e-08
8.21537e-08
8.3108e-08
8.20401e-08
8.20245e-08
8.14545e-08
8.15386e-08
8.20068e-08
8.20552e-08
8.24679e-08
8.43664e-08
9.14168e-08
1.19109e-07
1.38105e-07
1.02051e-07
8.75727e-08
8.29548e-08
8.21125e-08
8.20651e-08
8.17235e-08
8.16812e-08
8.21489e-08
8.21646e-08
8.20585e-08
8.20044e-08
8.15489e-08
8.10895e-08
8.11409e-08
8.11701e-08
8.15784e-08
8.3313e-08
9.15398e-08
1.28093e-07
1.96358e-07
1.04507e-07
8.77166e-08
8.23338e-08
8.12575e-08
8.12299e-08
8.12801e-08
8.17062e-08
8.2119e-08
8.21891e-08
8.20283e-08
8.178e-08
8.14198e-08
8.10963e-08
8.09858e-08
8.10089e-08
8.14658e-08
8.28957e-08
8.32482e-08
1.38983e-07
2.52288e-07
1.07687e-07
8.98152e-08
8.24584e-08
8.10207e-08
8.10203e-08
8.12296e-08
8.15064e-08
8.18465e-08
8.21458e-08
8.08985e-08
8.08989e-08
8.10229e-08
8.11371e-08
8.12092e-08
8.14066e-08
8.18784e-08
8.27472e-08
2.36741e-07
1.54253e-07
4.64739e-07
1.09651e-07
9.56304e-08
8.35709e-08
8.13205e-08
8.11505e-08
8.11436e-08
8.08698e-08
8.09146e-08
8.09144e-08
4.72372e-05
1.58051e-06
8.18434e-08
8.26125e-08
8.20542e-08
8.25201e-08
8.24187e-08
1.28064e-07
1.20322e-07
1.35493e-07
1.76351e-07
1.54261e-07
8.89449e-08
8.68356e-08
8.29918e-08
8.20829e-08
8.16643e-08
9.5359e-08
8.19153e-08
1.17642e-05
0.000357798
1.39004e-05
8.26837e-08
8.37291e-08
8.43219e-08
8.69579e-08
9.24343e-08
1.05428e-07
1.18528e-07
1.33157e-07
1.776e-07
2.29446e-07
2.70971e-07
8.71603e-08
8.67491e-08
8.40662e-08
8.38016e-08
8.46771e-08
1.67428e-05
0.000175495
0.000217975
8.57716e-08
8.50876e-08
9.65946e-08
1.01908e-07
1.08099e-07
1.17511e-07
1.26847e-07
1.34011e-07
1.3635e-07
1.82894e-07
1.9586e-07
1.58484e-07
1.21384e-07
1.05256e-07
1.0224e-07
1.09514e-07
8.55661e-08
1.26115e-05
0.000112602
1.02275e-05
7.7108e-07
2.60104e-07
1.67698e-07
1.47813e-07
1.42982e-07
1.43939e-07
1.44858e-07
1.42566e-07
1.36652e-07
1.81388e-07
1.82735e-07
2.48071e-07
1.94694e-07
1.99774e-07
1.14728e-07
2.07541e-07
5.04945e-07
5.76461e-06
4.83659e-06
5.40587e-08
4.67952e-07
2.92087e-07
2.16484e-07
1.83002e-07
1.67203e-07
1.58869e-07
1.52123e-07
1.44433e-07
1.34329e-07
1.83481e-07
2.01343e-07
2.30382e-07
2.39442e-07
2.66053e-07
6.14544e-07
2.69952e-07
2.46361e-07
5.65193e-08
5.53349e-08
5.31787e-08
2.62178e-07
2.42731e-07
2.10448e-07
1.86642e-07
1.71652e-07
1.61183e-07
1.52016e-07
1.427e-07
1.30848e-07
1.79986e-07
1.9927e-07
2.19039e-07
2.38421e-07
2.93633e-07
2.6349e-07
2.47109e-07
1.5362e-07
7.73051e-08
5.44665e-08
5.17079e-08
1.44821e-07
1.7406e-07
1.75584e-07
1.69554e-07
1.62809e-07
1.5579e-07
1.48032e-07
1.39085e-07
1.26468e-07
1.74335e-07
1.9066e-07
2.07017e-07
2.27259e-07
2.34859e-07
2.4273e-07
1.88e-07
1.30886e-07
7.57362e-08
5.12955e-08
5.10207e-08
8.06028e-08
1.17307e-07
1.37279e-07
1.46186e-07
1.4881e-07
1.47175e-07
1.42247e-07
1.34182e-07
1.21054e-07
1.67592e-07
1.80554e-07
1.93588e-07
2.11317e-07
2.22428e-07
2.09956e-07
1.58374e-07
1.16351e-07
6.51547e-08
5.03502e-08
4.90687e-08
4.99903e-08
7.9238e-08
1.05357e-07
1.23809e-07
1.34133e-07
1.37602e-07
1.3546e-07
1.28053e-07
1.14525e-07
1.59762e-07
1.70096e-07
1.79321e-07
1.94932e-07
2.01798e-07
1.85324e-07
1.40391e-07
9.52913e-08
5.21011e-08
4.84848e-08
4.52015e-08
3.60719e-08
5.54025e-08
8.06539e-08
1.04304e-07
1.20181e-07
1.27681e-07
1.27749e-07
1.20587e-07
1.06878e-07
1.50669e-07
1.59502e-07
1.64917e-07
1.78403e-07
1.81537e-07
1.62788e-07
1.20495e-07
7.20905e-08
4.05001e-08
4.48211e-08
3.93266e-08
2.87184e-08
4.02574e-08
6.15631e-08
8.7397e-08
1.0692e-07
1.17294e-07
1.18958e-07
1.11727e-07
9.82073e-08
1.40208e-07
1.48656e-07
1.50875e-07
1.61976e-07
1.60968e-07
1.39577e-07
9.7877e-08
5.21064e-08
3.12201e-08
3.91418e-08
3.18039e-08
2.35988e-08
3.00821e-08
4.66197e-08
7.24444e-08
9.39826e-08
1.06235e-07
1.08996e-07
1.01584e-07
8.87159e-08
1.28438e-07
1.37311e-07
1.37367e-07
1.45762e-07
1.40309e-07
1.16258e-07
7.56492e-08
3.71006e-08
2.39263e-08
3.17519e-08
2.35109e-08
1.92215e-08
2.27946e-08
3.49009e-08
5.90558e-08
8.11802e-08
9.44848e-08
9.79684e-08
9.04569e-08
7.86939e-08
1.15598e-07
1.25264e-07
1.24299e-07
1.29659e-07
1.19994e-07
9.40537e-08
5.62131e-08
2.64917e-08
1.81944e-08
2.35228e-08
1.56532e-08
1.51967e-08
1.72984e-08
2.58084e-08
4.71428e-08
6.86179e-08
8.2271e-08
8.61855e-08
7.87939e-08
6.84871e-08
1.02058e-07
1.12482e-07
1.11437e-07
1.13548e-07
1.00435e-07
7.39165e-08
4.05317e-08
1.90642e-08
1.36733e-08
1.5681e-08
9.28722e-09
1.15337e-08
1.30202e-08
1.88685e-08
3.67727e-08
5.66116e-08
6.99986e-08
7.4106e-08
6.71125e-08
5.84563e-08
8.82833e-08
9.91371e-08
9.85615e-08
9.7509e-08
8.20819e-08
5.64608e-08
2.85486e-08
1.37601e-08
1.00886e-08
9.30884e-09
4.88424e-09
8.35391e-09
9.64925e-09
1.36589e-08
2.80183e-08
4.55438e-08
5.81448e-08
6.22471e-08
5.59136e-08
4.8936e-08
7.47688e-08
8.55722e-08
8.56204e-08
8.18608e-08
6.53943e-08
4.1944e-08
1.97382e-08
9.88618e-09
7.24615e-09
4.89601e-09
2.27562e-09
5.75694e-09
7.00382e-09
9.79725e-09
2.08786e-08
3.5738e-08
4.71555e-08
5.10927e-08
4.56116e-08
4.02008e-08
6.19738e-08
7.2236e-08
7.27818e-08
6.70486e-08
5.07496e-08
3.03441e-08
1.3451e-08
7.02078e-09
5.02299e-09
2.28076e-09
9.42071e-10
3.76935e-09
4.96065e-09
6.96193e-09
1.52465e-08
2.73918e-08
3.73706e-08
4.10233e-08
3.64919e-08
3.2443e-08
5.02776e-08
5.95937e-08
6.0384e-08
5.35285e-08
3.83732e-08
2.14238e-08
9.06725e-09
4.90064e-09
3.3367e-09
9.4403e-10
3.48326e-10
2.34374e-09
3.41972e-09
4.89762e-09
1.09384e-08
2.05521e-08
2.89884e-08
3.22779e-08
2.86993e-08
2.57638e-08
3.99481e-08
4.80471e-08
4.88338e-08
4.16598e-08
2.83054e-08
1.48067e-08
6.06292e-09
3.348e-09
2.11356e-09
3.49031e-10
1.15748e-10
1.38406e-09
2.29053e-09
3.40749e-09
7.7327e-09
1.51382e-08
2.20625e-08
2.49495e-08
2.22515e-08
2.01786e-08
3.11258e-08
3.78832e-08
3.84973e-08
3.16427e-08
2.0414e-08
1.0056e-08
4.02845e-09
2.23174e-09
1.2728e-09
1.16005e-10
3.47986e-11
7.76587e-10
1.48897e-09
2.34223e-09
5.40377e-09
1.09845e-08
1.65264e-08
1.90057e-08
1.70676e-08
1.56318e-08
2.38288e-08
2.92514e-08
2.96205e-08
2.3505e-08
1.44412e-08
6.74155e-09
2.66171e-09
1.44839e-09
7.27677e-10
3.48966e-11
9.52998e-12
4.14284e-10
9.38803e-10
1.58931e-09
3.7455e-09
7.88344e-09
1.22306e-08
1.43232e-08
1.3003e-08
1.20182e-08
1.79728e-08
2.21678e-08
2.22971e-08
1.71281e-08
1.00628e-08
4.48356e-09
1.74861e-09
9.1387e-10
3.94835e-10
9.56775e-12
2.39387e-12
2.10299e-10
5.74006e-10
1.06406e-09
2.5836e-09
5.62103e-09
8.98207e-09
1.07263e-08
9.88194e-09
9.20461e-09
1.34017e-08
1.65389e-08
1.64785e-08
1.22943e-08
6.94231e-09
2.9734e-09
1.14141e-09
5.60088e-10
2.03412e-10
2.40796e-12
5.55548e-13
1.01679e-10
3.404e-10
7.02891e-10
1.77919e-09
4.00038e-09
6.57757e-09
8.02013e-09
7.52401e-09
7.0495e-09
9.92053e-09
1.21963e-08
1.20113e-08
8.7371e-09
4.77011e-09
1.97595e-09
7.39678e-10
3.33301e-10
9.9589e-11
5.60422e-13
1.20107e-13
4.68778e-11
1.95898e-10
4.58324e-10
1.2266e-09
2.85448e-09
4.82657e-09
6.01588e-09
5.76201e-09
5.41763e-09
7.32416e-09
8.93282e-09
8.68359e-09
6.18447e-09
3.2849e-09
1.32127e-09
4.75567e-10
1.92599e-10
4.63932e-11
1.21614e-13
2.44632e-14
2.06347e-11
1.09502e-10
2.95266e-10
8.48418e-10
2.05013e-09
3.56473e-09
4.54605e-09
4.45196e-09
4.1894e-09
5.41871e-09
6.53397e-09
6.266e-09
4.38849e-09
2.28076e-09
8.91609e-10
3.0327e-10
1.08123e-10
2.05939e-11
2.48612e-14
4.77916e-15
8.68488e-12
5.9527e-11
1.88178e-10
5.89576e-10
1.48617e-09
2.65904e-09
3.47177e-09
3.47675e-09
3.26519e-09
4.03498e-09
4.80019e-09
4.54262e-09
3.14126e-09
1.60428e-09
6.08077e-10
1.91859e-10
5.90237e-11
8.72539e-12
4.85979e-15
9.24409e-16
3.50117e-12
3.15233e-11
1.18826e-10
4.11818e-10
1.08884e-09
2.00714e-09
2.68387e-09
2.74548e-09
2.56604e-09
3.03422e-09
3.5602e-09
3.32829e-09
2.27953e-09
1.14638e-09
4.19099e-10
1.20489e-10
3.13745e-11
3.53526e-12
9.31356e-16
1.86569e-16
1.35473e-12
1.62965e-11
7.44676e-11
2.89031e-10
8.06072e-10
1.53353e-09
2.10021e-09
2.1902e-09
2.0319e-09
2.3084e-09
2.67605e-09
2.47529e-09
1.68197e-09
8.32523e-10
2.91519e-10
7.51881e-11
1.62696e-11
1.3728e-12
1.82576e-16
4.189e-17
5.04438e-13
8.24579e-12
4.63899e-11
2.036e-10
6.02048e-10
1.18444e-09
1.66121e-09
1.76173e-09
1.61855e-09
1.77706e-09
2.04237e-09
1.87245e-09
1.26243e-09
6.13347e-10
2.04196e-10
4.66727e-11
8.25034e-12
5.12285e-13
3.88925e-17
1.08371e-17
1.81363e-13
4.09641e-12
2.87649e-11
1.43716e-10
4.52568e-10
9.22566e-10
1.32491e-09
1.42532e-09
1.29426e-09
1.38239e-09
1.58229e-09
1.44002e-09
9.62016e-10
4.56903e-10
1.43651e-10
2.885e-11
4.10344e-12
1.84336e-13
9.48411e-18
3.15137e-18
6.32436e-14
2.00523e-12
1.777e-11
1.01463e-10
3.41435e-10
7.22543e-10
1.06238e-09
1.15681e-09
1.03661e-09
1.08407e-09
1.24176e-09
1.12307e-09
7.41718e-10
3.42794e-10
1.01223e-10
1.77723e-11
2.00877e-12
6.42447e-14
2.64684e-18
9.74074e-19
2.15194e-14
9.71015e-13
1.09417e-11
7.15055e-11
2.57801e-10
5.6729e-10
8.53964e-10
9.39563e-10
8.29833e-10
8.54537e-10
9.83989e-10
8.84908e-10
5.76212e-10
2.58013e-10
7.1262e-11
1.09153e-11
9.71709e-13
2.1816e-14
8.02934e-19
3.05735e-19
7.20178e-15
4.67023e-13
6.71452e-12
5.02113e-11
1.94322e-10
4.4528e-10
6.86326e-10
7.62054e-10
6.62774e-10
6.75165e-10
7.84462e-10
7.01567e-10
4.49229e-10
1.94166e-10
5.00138e-11
6.68347e-12
4.6641e-13
7.27521e-15
2.51128e-19
9.4955e-20
2.39434e-15
2.23937e-13
4.10431e-12
3.5074e-11
1.45917e-10
3.48622e-10
5.50309e-10
6.16162e-10
5.27359e-10
5.33323e-10
6.27036e-10
5.57553e-10
3.50265e-10
1.45695e-10
3.4928e-11
4.07779e-12
2.23026e-13
2.40655e-15
7.80168e-20
2.88374e-20
7.99847e-16
1.07374e-13
2.49673e-12
2.43387e-11
1.08973e-10
2.7176e-10
4.39467e-10
4.95994e-10
4.17573e-10
4.20314e-10
5.01056e-10
4.42785e-10
2.72388e-10
1.08782e-10
2.42359e-11
2.47702e-12
1.06598e-13
7.98869e-16
2.36317e-20
8.53549e-21
2.7144e-16
5.15801e-14
1.50985e-12
1.67593e-11
8.08395e-11
2.10639e-10
3.49085e-10
3.97097e-10
3.28771e-10
3.29967e-10
3.99354e-10
3.50551e-10
2.10847e-10
8.06983e-11
1.66894e-11
1.4964e-12
5.10438e-14
2.69222e-16
6.92659e-21
2.46539e-21
9.43171e-17
2.48377e-14
9.06612e-13
1.14418e-11
5.9515e-11
1.62176e-10
2.75562e-10
3.15968e-10
2.57244e-10
2.57742e-10
3.16936e-10
2.76189e-10
1.62225e-10
5.94173e-11
1.13954e-11
8.97972e-13
2.45091e-14
9.29164e-17
1.96235e-21
6.97084e-22
3.36343e-17
1.19801e-14
5.39951e-13
7.73988e-12
4.34564e-11
1.23948e-10
2.16027e-10
2.49743e-10
1.99953e-10
2.00155e-10
2.50152e-10
2.1629e-10
1.23943e-10
4.33909e-11
7.7098e-12
5.34661e-13
1.17951e-14
3.29494e-17
5.38578e-22
1.93806e-22
1.2266e-17
5.77789e-15
3.18641e-13
5.1854e-12
3.14574e-11
9.39915e-11
1.68114e-10
1.96016e-10
1.54361e-10
1.54451e-10
1.96198e-10
1.68226e-10
9.39733e-11
3.14141e-11
5.16634e-12
3.15534e-13
5.6803e-15
1.19698e-17
1.43682e-22
5.31321e-23
4.53963e-18
2.77981e-15
1.86169e-13
3.43961e-12
2.25693e-11
7.06983e-11
1.29831e-10
1.52732e-10
1.18337e-10
1.18389e-10
1.52829e-10
1.29883e-10
7.06802e-11
2.25409e-11
3.4278e-12
1.84412e-13
2.73112e-15
4.42112e-18
3.74011e-23
1.43843e-23
1.68977e-18
1.33077e-15
1.07619e-13
2.25858e-12
1.60461e-11
5.27373e-11
9.94836e-11
1.18125e-10
9.00824e-11
9.01237e-11
1.18191e-10
9.95113e-11
5.27226e-11
1.60275e-11
2.25143e-12
1.06662e-13
1.30766e-15
1.64502e-18
9.536e-24
3.85346e-24
6.27489e-19
6.32423e-16
6.15237e-14
1.46798e-12
1.13042e-11
3.90094e-11
7.56261e-11
9.0673e-11
6.80906e-11
6.81285e-11
9.0726e-11
7.56432e-11
3.8998e-11
1.12921e-11
1.46376e-12
6.10211e-14
6.2195e-16
6.11386e-19
2.39483e-24
1.02302e-24
2.31032e-19
2.97752e-16
3.47721e-14
9.44385e-13
7.89069e-12
2.86113e-11
5.70311e-11
6.90731e-11
5.11046e-11
5.11396e-11
6.91179e-11
5.70425e-11
2.86027e-11
7.88287e-12
9.41962e-13
3.45181e-14
2.93224e-16
2.2549e-19
5.94707e-25
2.69317e-25
8.39895e-20
1.38663e-16
1.94256e-14
6.01361e-13
5.45757e-12
2.08072e-11
4.26636e-11
5.22176e-11
3.80859e-11
3.81169e-11
5.22548e-11
4.26713e-11
2.08007e-11
5.45253e-12
6.00008e-13
1.93026e-14
1.36801e-16
8.21644e-20
1.46478e-25
7.06141e-26
3.00753e-20
6.38009e-17
1.0726e-14
3.79053e-13
3.74026e-12
1.50038e-11
3.16597e-11
3.91736e-11
2.81844e-11
2.82105e-11
3.92033e-11
3.16645e-11
1.49988e-11
3.73705e-12
3.78321e-13
1.06694e-14
6.30783e-17
2.95016e-20
3.59222e-26
1.86444e-26
1.05957e-20
2.89822e-17
5.85361e-15
2.36525e-13
2.54005e-12
1.07277e-11
2.33055e-11
2.91632e-11
2.07111e-11
2.0732e-11
2.91858e-11
2.33083e-11
1.07238e-11
2.53802e-12
2.36143e-13
5.82921e-15
2.87219e-17
1.04243e-20
8.85479e-27
5.04172e-27
3.67175e-21
1.29924e-17
3.15768e-15
1.46119e-13
1.70939e-12
7.6057e-12
1.70186e-11
2.15447e-11
1.51132e-11
1.51294e-11
2.15613e-11
1.70199e-11
7.60275e-12
1.70811e-12
1.45928e-13
3.14813e-15
1.29086e-17
3.6235e-21
2.22637e-27
1.40914e-27
1.25195e-21
5.74692e-18
1.68393e-15
8.93776e-14
1.14004e-12
5.34704e-12
1.23285e-11
1.57948e-11
1.09516e-11
1.09637e-11
1.58065e-11
1.23287e-11
5.34481e-12
1.13924e-12
8.92872e-14
1.68078e-15
5.72509e-18
1.23937e-21
5.73399e-28
4.03949e-28
4.20286e-22
2.50831e-18
8.87881e-16
5.41364e-14
7.53538e-13
3.72774e-12
8.85984e-12
1.14911e-11
7.88088e-12
7.88964e-12
1.14991e-11
8.8595e-12
3.72606e-12
7.53042e-13
5.4097e-14
8.8726e-16
2.5057e-18
4.17404e-22
1.52948e-28
1.14373e-28
1.39011e-22
1.08044e-18
4.62957e-16
3.24738e-14
4.93652e-13
2.57722e-12
6.31665e-12
8.29646e-12
5.63189e-12
5.63807e-12
8.30162e-12
6.31601e-12
2.57597e-12
4.93345e-13
3.24588e-14
4.6317e-16
1.08241e-18
1.38554e-22
4.24352e-29
3.06909e-29
4.53308e-23
4.59433e-19
2.38761e-16
1.92931e-14
3.20546e-13
1.76704e-12
4.46792e-12
5.94448e-12
3.99687e-12
4.00113e-12
5.9477e-12
4.46717e-12
1.76612e-12
3.20357e-13
1.9289e-14
2.39145e-16
4.61626e-19
4.53812e-23
1.21599e-29
7.61216e-30
1.45845e-23
1.92927e-19
1.21817e-16
1.13537e-14
2.06319e-13
1.20157e-12
3.13542e-12
4.22704e-12
2.81695e-12
2.81982e-12
4.22895e-12
3.13468e-12
1.2009e-12
2.06203e-13
1.13539e-14
1.2215e-16
1.9444e-19
1.46847e-23
3.60274e-30
1.78947e-30
4.63442e-24
8.00378e-20
6.14973e-17
6.61883e-15
1.31641e-13
8.10349e-13
2.18308e-12
2.98312e-12
1.97168e-12
1.97357e-12
2.98419e-12
2.18242e-12
8.09871e-13
1.31569e-13
6.62032e-15
6.17332e-17
8.09199e-20
4.70094e-24
1.0755e-30
4.21968e-31
1.45667e-24
3.28195e-20
3.07253e-17
3.82271e-15
8.32657e-14
5.42047e-13
1.50815e-12
2.08944e-12
1.37054e-12
1.37176e-12
2.08998e-12
1.5076e-12
5.41709e-13
8.32219e-14
3.82428e-15
3.08761e-17
3.3289e-20
1.49067e-24
3.18501e-31
9.87991e-32
4.53562e-25
1.33082e-20
1.51953e-17
2.18748e-15
5.22144e-14
3.59633e-13
1.0338e-12
1.45253e-12
9.46134e-13
9.4691e-13
1.45277e-12
1.03335e-12
3.59396e-13
5.21875e-14
2.18874e-15
1.52855e-17
1.35431e-20
4.68765e-25
9.4245e-32
2.301e-32
1.40072e-25
5.33923e-21
7.44006e-18
1.24033e-15
3.24627e-14
2.36678e-13
7.03162e-13
1.00224e-12
6.48665e-13
6.49147e-13
1.00231e-12
7.02813e-13
2.36514e-13
3.24461e-14
1.24122e-15
7.49152e-18
5.4514e-21
1.46327e-25
2.7375e-32
5.61194e-33
4.29762e-26
2.1204e-21
3.60722e-18
6.96913e-16
2.00111e-14
1.54506e-13
4.74592e-13
6.86409e-13
4.41672e-13
4.41966e-13
6.86388e-13
4.74328e-13
1.54394e-13
2.00009e-14
6.97496e-16
3.63548e-18
2.17194e-21
4.53697e-26
7.73805e-33
1.56036e-33
1.31198e-26
8.33943e-22
1.73207e-18
3.88064e-16
1.22313e-14
1.00056e-13
3.17867e-13
4.66628e-13
2.98671e-13
2.98847e-13
4.66572e-13
3.17672e-13
9.99802e-14
1.22249e-14
3.88426e-16
1.7471e-18
8.56862e-22
1.39803e-26
2.14982e-33
4.78424e-34
3.98899e-27
3.24946e-22
8.23792e-19
2.14161e-16
7.41322e-15
6.4279e-14
2.11274e-13
3.14884e-13
2.00589e-13
2.00691e-13
3.14819e-13
2.11133e-13
6.42279e-14
7.4093e-15
2.14376e-16
8.31572e-19
3.34851e-22
4.28354e-27
5.89393e-34
1.49087e-34
1.20849e-27
1.25488e-22
3.88136e-19
1.17143e-16
4.45551e-15
4.09673e-14
1.3936e-13
2.1093e-13
1.33796e-13
1.33854e-13
2.10869e-13
1.3926e-13
4.09334e-14
4.45308e-15
1.17267e-16
3.92068e-19
1.29662e-22
1.3058e-27
1.63222e-34
4.39227e-35
3.64871e-28
4.80452e-23
1.81183e-19
6.35123e-17
2.65561e-15
2.5904e-14
9.12301e-14
1.40264e-13
8.86353e-14
8.86678e-14
1.40213e-13
9.116e-14
2.58817e-14
2.65411e-15
6.35815e-17
1.83126e-19
4.97648e-23
3.9644e-28
4.78242e-35
1.36046e-35
1.09917e-28
1.82425e-23
8.3804e-20
3.41345e-17
1.56974e-15
1.62508e-14
5.92734e-14
9.25952e-14
5.83182e-14
5.83357e-14
9.25548e-14
5.92252e-14
1.62363e-14
1.56881e-15
3.4172e-17
8.47451e-20
1.89361e-23
1.1991e-28
1.41248e-35
4.14805e-36
3.30634e-29
6.87098e-24
3.84121e-20
1.81864e-17
9.20254e-16
1.01153e-14
3.82226e-14
6.06851e-14
3.81101e-14
3.81192e-14
6.06546e-14
3.81898e-14
1.01059e-14
9.19685e-16
1.82062e-17
3.88593e-20
7.14515e-24
3.61288e-29
4.07795e-36
1.24647e-36
9.93102e-30
2.56767e-24
1.74488e-20
9.60594e-18
5.35087e-16
6.24731e-15
2.44644e-14
3.94858e-14
2.47355e-14
2.474e-14
3.94635e-14
2.44424e-14
6.24132e-15
5.34739e-16
9.61621e-18
1.76575e-20
2.674e-24
1.08391e-29
1.1455e-36
3.9865e-37
2.98691e-30
9.52206e-25
7.85588e-21
5.03037e-18
3.08601e-16
3.82859e-15
1.55424e-14
2.55082e-14
1.59461e-14
1.59481e-14
2.54923e-14
1.55278e-14
3.82479e-15
3.0839e-16
5.03554e-18
7.95159e-21
9.92721e-25
3.24454e-30
3.26401e-37
1.36071e-37
9.0211e-31
3.50495e-25
3.50581e-21
2.61185e-18
1.76542e-16
2.32826e-15
9.8014e-15
1.63611e-14
1.02104e-14
1.02112e-14
1.63501e-14
9.79183e-15
2.32588e-15
1.76415e-16
2.61439e-18
3.54898e-21
3.65644e-25
9.7197e-31
1.04792e-37
4.22876e-38
2.71259e-31
1.28044e-25
1.55086e-21
1.34464e-18
1.00183e-16
1.40505e-15
6.13562e-15
1.04197e-14
6.49383e-15
6.49406e-15
1.04122e-14
6.12941e-15
1.40356e-15
1.00107e-16
1.34587e-18
1.57002e-21
1.3362e-25
2.90781e-31
3.41493e-38
1.12258e-38
8.04945e-32
4.64187e-26
6.80094e-22
6.86437e-19
5.6397e-17
8.41454e-16
3.81281e-15
6.58899e-15
4.10234e-15
4.10232e-15
6.58396e-15
3.80883e-15
8.40538e-16
5.63519e-17
6.87008e-19
6.88474e-22
4.84464e-26
8.66036e-32
1.03887e-38
2.70013e-39
2.35381e-32
1.66985e-26
2.95667e-22
3.47495e-19
3.14959e-17
5.00114e-16
2.35215e-15
4.13736e-15
2.57421e-15
2.5741e-15
4.13403e-15
2.34961e-15
4.99554e-16
3.14694e-17
3.47755e-19
2.99279e-22
1.74269e-26
2.56001e-32
2.9224e-39
6.5508e-40
6.82822e-33
5.96173e-27
1.27439e-22
1.74452e-19
1.74504e-17
2.95002e-16
1.44056e-15
2.57976e-15
1.60453e-15
1.60441e-15
2.57759e-15
1.43896e-15
2.94662e-16
1.7435e-17
1.74566e-19
1.28972e-22
6.21961e-27
7.50684e-33
7.76496e-40
1.71987e-40
1.98223e-33
2.11271e-27
5.44616e-23
8.68565e-20
9.59253e-18
1.72708e-16
8.75915e-16
1.59736e-15
9.93459e-16
9.93355e-16
1.59596e-15
8.74917e-16
1.72504e-16
9.58362e-18
8.69045e-20
5.51031e-23
2.20249e-27
2.18753e-33
2.05465e-40
4.56684e-41
5.7755e-34
7.43261e-28
2.3078e-23
4.28895e-20
5.23184e-18
1.00358e-16
5.28775e-16
9.82219e-16
6.11028e-16
6.10947e-16
9.81326e-16
5.28158e-16
1.00236e-16
5.22675e-18
4.29086e-20
2.33422e-23
7.73928e-28
6.35419e-34
5.34093e-41
1.24938e-41
1.6927e-34
2.59604e-28
9.69723e-24
2.1006e-20
2.83131e-18
5.78842e-17
3.16938e-16
5.99804e-16
3.73328e-16
3.73269e-16
5.99241e-16
3.16559e-16
5.78122e-17
2.82843e-18
2.1013e-20
9.80436e-24
2.69882e-28
1.84315e-34
1.40607e-41
3.41472e-42
4.97503e-35
9.00202e-29
4.04073e-24
1.02047e-20
1.52039e-18
3.31399e-17
1.8862e-16
3.63765e-16
2.26594e-16
2.26553e-16
3.63413e-16
1.88389e-16
3.30977e-17
1.51877e-18
1.02069e-20
4.08351e-24
9.34043e-29