/*--------------------------------*- C++ -*----------------------------------*\
| =========                 |                                                 |
| \\      /  F ield         | OpenFOAM: The Open Source CFD Toolbox           |
|  \\    /   O peration     | Version:  2.3.0                                 |
|   \\  /    A nd           | Web:      www.OpenFOAM.org                      |
|    \\/     M anipulation  |                                                 |
\*---------------------------------------------------------------------------*/
FoamFile
{
    version     2.0;
    format      ascii;
    class       volScalarField;
    location    "1.19";
    object      k.air;
}
// * * * * * * * * * * * * * * * * * * * * * * * * * * * * * * * * * * * * * //

dimensions      [0 2 -2 0 0 0 0];

internalField   nonuniform List<scalar> 
6000
(
0.817996
0.907123
0.931385
0.947062
0.971249
0.999317
1.01972
1.02753
1.03571
1.03603
1.02412
1.0096
0.99876
0.994478
0.992482
0.987462
0.979259
0.970724
0.962204
0.956638
0.955885
0.961402
0.970786
0.97525
0.968678
0.951694
0.93736
0.923247
0.903916
0.818315
0.574897
0.873558
0.949124
0.989743
1.04891
1.13784
1.24249
1.27945
1.26668
1.22888
1.18509
1.13914
1.10378
1.0863
1.08016
1.07357
1.05584
1.03314
1.01003
0.997281
0.999252
1.01487
1.03092
1.04517
1.05321
1.01597
0.981667
0.947437
0.857973
0.570298
0.439026
0.778673
0.910295
0.997152
1.07161
1.14142
1.22208
1.25707
1.23584
1.19975
1.15875
1.11575
1.08069
1.06019
1.04982
1.04191
1.03265
1.0211
1.0084
0.998045
0.991987
0.991287
0.995878
1.00223
1.0025
0.979314
0.94749
0.892377
0.759383
0.424105
0.377507
0.702854
0.84685
0.949562
1.04512
1.13774
1.2126
1.23955
1.21941
1.18114
1.12953
1.08312
1.04998
1.03097
1.01782
1.00664
0.998144
0.98718
0.974674
0.963981
0.956568
0.953909
0.957494
0.958625
0.951188
0.92614
0.883261
0.81996
0.692426
0.370773
0.323005
0.623317
0.774375
0.895479
1.01694
1.13672
1.19127
1.20599
1.18644
1.14905
1.09601
1.05499
1.03021
1.01375
0.996915
0.983341
0.972619
0.960036
0.947471
0.935468
0.923789
0.915628
0.911527
0.906659
0.894487
0.863066
0.807246
0.738326
0.618466
0.333147
0.272937
0.541673
0.709986
0.878093
1.01747
1.13539
1.16525
1.16431
1.13856
1.10612
1.06915
1.03991
1.02516
1.0106
0.993751
0.984781
0.979049
0.966077
0.950628
0.934716
0.914484
0.8909
0.873488
0.859552
0.840432
0.80169
0.736601
0.653645
0.533729
0.284572
0.226105
0.467532
0.67872
0.897023
1.04068
1.13655
1.14328
1.12379
1.0989
1.07723
1.05557
1.0435
1.03535
1.02469
1.01454
1.01849
1.02369
1.00308
0.975716
0.950115
0.924862
0.894121
0.866815
0.843444
0.815993
0.771784
0.698416
0.602842
0.4559
0.236602
0.187815
0.438213
0.709393
0.940635
1.06404
1.1443
1.15408
1.11163
1.0858
1.07382
1.06906
1.06689
1.06502
1.06424
1.06466
1.07999
1.09452
1.06989
1.02807
0.98935
0.955542
0.925203
0.898979
0.876666
0.846062
0.78887
0.700588
0.595199
0.416626
0.202403
0.191261
0.494982
0.817456
0.984662
1.08622
1.18654
1.19911
1.13959
1.1209
1.11322
1.11226
1.11222
1.12394
1.14426
1.17379
1.21422
1.24203
1.2202
1.16383
1.1063
1.05942
1.02609
1.0048
0.985266
0.945675
0.866951
0.761071
0.644356
0.448305
0.207522
0.240263
0.6568
0.996541
1.05373
1.14481
1.23467
1.2373
1.2206
1.22761
1.22327
1.22426
1.23337
1.25279
1.27196
1.2928
1.31713
1.34167
1.33934
1.2777
1.20692
1.15403
1.12102
1.10327
1.08508
1.04034
0.943385
0.820819
0.7028
0.523161
0.250699
0.340032
0.832154
1.09536
1.15678
1.20311
1.26702
1.29842
1.31354
1.34193
1.33683
1.32067
1.31951
1.31968
1.31344
1.30533
1.30512
1.30895
1.2987
1.24468
1.18241
1.1376
1.11
1.09812
1.08145
1.02224
0.917222
0.804304
0.6901
0.52631
0.26037
0.396935
0.948
1.14785
1.23038
1.30053
1.32985
1.32313
1.35951
1.37089
1.35022
1.32806
1.30737
1.28779
1.26975
1.25693
1.24783
1.23927
1.2247
1.18084
1.13446
1.10569
1.07851
1.05114
1.00564
0.924689
0.825409
0.734471
0.640676
0.498487
0.24875
0.420644
0.983287
1.14798
1.21548
1.2991
1.29023
1.29287
1.3171
1.32234
1.30599
1.28149
1.25739
1.2364
1.22072
1.20965
1.20011
1.18898
1.17141
1.13707
1.09445
1.06903
1.03403
0.985604
0.920251
0.838932
0.74793
0.656429
0.564722
0.437633
0.219996
0.442627
1.0022
1.13393
1.17179
1.21776
1.22015
1.22754
1.24087
1.2467
1.24139
1.22773
1.20974
1.1923
1.17943
1.17059
1.16212
1.15067
1.13484
1.11042
1.06642
1.03623
0.991811
0.931314
0.862486
0.786367
0.698969
0.600684
0.49486
0.364312
0.179186
0.451673
1.00732
1.10252
1.11138
1.13837
1.1523
1.16553
1.17837
1.18597
1.18734
1.18185
1.17088
1.15819
1.14917
1.14284
1.13578
1.12534
1.11344
1.0941
1.04659
1.00861
0.956503
0.89262
0.826352
0.754647
0.670249
0.569853
0.453706
0.309994
0.144223
0.453971
1.0021
1.05657
1.05584
1.07607
1.09533
1.11322
1.1285
1.13959
1.14573
1.14665
1.14237
1.1349
1.13059
1.12664
1.12043
1.11161
1.10425
1.08241
1.03032
0.985508
0.929695
0.867606
0.804583
0.735601
0.654599
0.55773
0.442438
0.297879
0.132481
0.457813
0.977841
1.00022
1.00727
1.02758
1.0504
1.07167
1.08989
1.1047
1.11492
1.12072
1.12196
1.12031
1.12023
1.11906
1.11425
1.10779
1.10411
1.07182
1.01648
0.968664
0.913155
0.854138
0.793142
0.725936
0.648482
0.55732
0.447582
0.307974
0.135064
0.47442
0.914281
0.944247
0.967117
0.991198
1.01646
1.04033
1.06135
1.07905
1.09254
1.10131
1.10593
1.11001
1.11426
1.11841
1.11414
1.10857
1.10066
1.05571
1.00481
0.958306
0.905473
0.849289
0.789936
0.724651
0.650414
0.564263
0.462316
0.332665
0.147594
0.460093
0.843524
0.901303
0.937401
0.966039
0.993238
1.01827
1.04088
1.06026
1.07524
1.08539
1.09316
1.10106
1.10713
1.11808
1.11669
1.10782
1.08423
1.03705
0.994798
0.952032
0.903467
0.850668
0.793667
0.730753
0.659821
0.578493
0.4825
0.359553
0.164837
0.42867
0.779936
0.866288
0.916414
0.950832
0.978714
1.00337
1.02591
1.04494
1.06022
1.07096
1.08106
1.09056
1.09627
1.11056
1.11245
1.09594
1.05903
1.01993
0.985778
0.948741
0.905735
0.857604
0.804439
0.744915
0.677241
0.599067
0.506158
0.385308
0.179254
0.379645
0.715105
0.830995
0.901568
0.94394
0.970695
0.993784
1.01402
1.03142
1.0467
1.05942
1.0707
1.07733
1.08241
1.0948
1.0936
1.06893
1.03476
1.00621
0.980546
0.950294
0.913685
0.871344
0.822778
0.766935
0.702182
0.626136
0.534158
0.411621
0.193383
0.338562
0.656432
0.798418
0.887699
0.940505
0.968152
0.987687
1.00331
1.0183
1.0348
1.05138
1.06206
1.06182
1.06552
1.07246
1.06601
1.04297
1.01905
1.00144
0.98294
0.959163
0.929326
0.892856
0.849221
0.797305
0.735342
0.660642
0.567926
0.441059
0.208358
0.329831
0.636295
0.792282
0.881871
0.933744
0.965681
0.981549
0.990752
1.00368
1.02365
1.0447
1.05016
1.0452
1.04737
1.04986
1.04411
1.03005
1.01805
1.0075
0.994944
0.977632
0.953949
0.923285
0.884837
0.837137
0.777914
0.703869
0.609092
0.475724
0.225175
0.320772
0.615027
0.765647
0.87236
0.918517
0.95394
0.969551
0.973033
0.985696
1.01156
1.03125
1.03102
1.02847
1.03203
1.03499
1.03497
1.03273
1.02907
1.02501
1.01813
1.00632
0.98842
0.963628
0.930792
0.887796
0.831533
0.757986
0.660103
0.518038
0.245033
0.296739
0.561596
0.695057
0.819414
0.89019
0.922496
0.941857
0.946138
0.965761
0.991795
1.00515
1.01029
1.0172
1.02613
1.03396
1.0425
1.04904
1.05316
1.05473
1.05279
1.04614
1.03378
1.01498
0.988217
0.950491
0.897768
0.825137
0.72441
0.572501
0.271545
0.25157
0.476223
0.633168
0.774176
0.860726
0.875763
0.89856
0.918071
0.941772
0.965323
0.986655
1.00583
1.02377
1.04018
1.05509
1.07002
1.08242
1.09159
1.09751
1.09966
1.09746
1.09028
1.07722
1.05669
1.02454
0.976395
0.907166
0.8064
0.644171
0.303062
0.209046
0.401263
0.60657
0.777329
0.858761
0.85032
0.866225
0.890946
0.924937
0.963382
0.999503
1.03256
1.06273
1.08797
1.10683
1.12234
1.13571
1.14678
1.15516
1.16008
1.16084
1.15723
1.14883
1.13334
1.10767
1.06791
1.00785
0.914355
0.74712
0.356322
0.180483
0.367026
0.602403
0.799033
0.875547
0.848684
0.853782
0.893492
0.947736
1.00349
1.05568
1.10168
1.14101
1.17045
1.18832
1.20035
1.21119
1.22133
1.22994
1.23582
1.23802
1.23672
1.23189
1.22275
1.20841
1.18267
1.13727
1.05882
0.902205
0.455797
0.165945
0.3607
0.610746
0.820862
0.900463
0.869103
0.885343
0.946427
1.02203
1.09333
1.15439
1.2055
1.24757
1.27809
1.29497
1.30304
1.30947
1.31656
1.32361
1.32928
1.33309
1.33531
1.33702
1.33926
1.33929
1.33145
1.30637
1.24839
1.09841
0.580376
0.157983
0.369984
0.64396
0.870591
0.960675
0.939036
0.977293
1.05267
1.13273
1.2121
1.28121
1.3367
1.37966
1.4088
1.42349
1.42775
1.42926
1.43226
1.43673
1.44223
1.44955
1.45869
1.47107
1.48861
1.50544
1.52003
1.51188
1.46534
1.31944
0.742318
0.161399
0.413726
0.725094
0.987662
1.10252
1.07131
1.11196
1.17919
1.26234
1.35409
1.43444
1.49566
1.53784
1.56204
1.57123
1.57071
1.56752
1.56638
1.56813
1.57439
1.58768
1.60732
1.63503
1.67301
1.70866
1.72759
1.72114
1.66326
1.43377
0.750523
0.185121
0.514305
0.871256
1.1739
1.28552
1.23535
1.25088
1.31988
1.41406
1.51851
1.61416
1.68291
1.71996
1.73433
1.73391
1.72684
1.71918
1.71497
1.7153
1.72358
1.74593
1.78014
1.83107
1.87949
1.91429
1.91811
1.88306
1.76015
1.45129
0.735243
0.242443
0.643415
1.07105
1.38836
1.38037
1.35555
1.38543
1.45594
1.56187
1.69233
1.83039
1.89912
1.92084
1.91753
1.90352
1.88924
1.87821
1.87336
1.87463
1.88597
1.91579
1.96181
2.02202
2.06168
2.03243
1.99197
1.94577
1.82346
1.50709
0.748335
0.316652
0.799561
1.22935
1.44327
1.3938
1.41287
1.46265
1.56559
1.70103
1.86323
2.03013
2.1278
2.13298
2.1005
2.0704
2.04988
2.04061
2.03748
2.03313
2.04373
2.08012
2.11079
2.10793
2.08442
2.04875
2.03076
2.00049
1.87875
1.56417
0.786945
0.420975
1.0088
1.39241
1.42364
1.40731
1.44766
1.51817
1.6273
1.77721
1.97073
2.18375
2.32368
2.33091
2.26725
2.22514
2.20252
2.1958
2.17623
2.17097
2.1525
2.13953
2.1317
2.10333
2.06567
2.05124
2.05694
2.02654
1.89346
1.57714
0.8124
0.516481
1.18554
1.53927
1.44247
1.43122
1.47634
1.56124
1.68206
1.84065
2.0377
2.26123
2.41465
2.42496
2.387
2.34762
2.34085
2.2992
2.26013
2.20219
2.16068
2.12833
2.09658
2.06259
2.04003
2.0491
2.07034
2.03395
1.88883
1.5697
0.818386
0.582494
1.29707
1.57914
1.47048
1.45946
1.50951
1.60178
1.73109
1.89694
2.10213
2.34494
2.48924
2.45222
2.4289
2.42822
2.40296
2.34378
2.25354
2.17636
2.1222
2.08412
2.05227
2.02395
2.01579
2.04477
2.08165
2.03961
1.8785
1.55036
0.815642
0.610576
1.34222
1.58134
1.48711
1.48663
1.54369
1.64188
1.77669
1.94724
2.15588
2.40243
2.52783
2.44511
2.42452
2.42725
2.39553
2.30049
2.2044
2.12675
2.0729
2.03592
2.00629
1.98417
1.98928
2.03808
2.09081
2.04543
1.86806
1.5275
0.807916
0.621303
1.34861
1.57119
1.49706
1.51044
1.57569
1.67961
1.81872
1.99248
2.20347
2.44447
2.53931
2.42493
2.36654
2.35616
2.30019
2.21252
2.12771
2.06093
2.01361
1.98011
1.95417
1.93949
1.95751
2.02591
2.09381
2.04793
1.85757
1.50503
0.79632
0.624077
1.33814
1.55225
1.5013
1.52891
1.60215
1.7112
1.8537
2.03
2.24474
2.48558
2.53562
2.40361
2.29007
2.23885
2.18922
2.11718
2.04259
1.98508
1.94438
1.91551
1.89477
1.88846
1.91906
2.00528
2.08746
2.04448
1.84563
1.48304
0.784895
0.618444
1.31767
1.52393
1.49908
1.54042
1.62074
1.73353
1.87681
2.05311
2.26787
2.49762
2.50261
2.34619
2.21138
2.13549
2.0901
2.02755
1.95821
1.90477
1.86831
1.84399
1.82889
1.83078
1.8728
1.97365
2.06828
2.03221
1.83041
1.46136
0.773777
0.608249
1.29524
1.491
1.49115
1.54439
1.63028
1.7446
1.88577
2.05707
2.26324
2.46231
2.42357
2.25587
2.1166
2.03482
1.99429
1.93984
1.87365
1.82204
1.78807
1.76762
1.75779
1.7668
1.81865
1.93018
2.0338
2.00736
1.80981
1.43907
0.762927
0.599529
1.27507
1.45117
1.47698
1.54146
1.63091
1.74418
1.88091
2.04372
2.23273
2.38348
2.31094
2.14554
2.01314
1.93361
1.89603
1.84984
1.78733
1.73762
1.7055
1.68803
1.68265
1.69756
1.75689
1.87483
1.98477
1.97047
1.78259
1.41482
0.751675
0.595649
1.25842
1.41238
1.45902
1.53217
1.62405
1.73404
1.86235
2.01117
2.17526
2.27406
2.18055
2.02787
1.90812
1.83353
1.79635
1.75733
1.69963
1.65239
1.62193
1.60659
1.60448
1.62385
1.68821
1.80835
1.92198
1.92117
1.74743
1.38784
0.740056
0.590664
1.23799
1.37089
1.43658
1.51563
1.6076
1.71231
1.8303
1.96288
2.09829
2.14487
2.0448
1.91167
1.80696
1.7382
1.69941
1.66377
1.61149
1.56729
1.53842
1.5244
1.52435
1.54667
1.61353
1.73229
1.8472
1.85962
1.7026
1.35635
0.726755
0.58126
1.20441
1.32689
1.40974
1.49316
1.58333
1.68145
1.78845
1.90344
2.00294
2.00246
1.9114
1.80241
1.71367
1.65076
1.60828
1.57209
1.52504
1.48359
1.45601
1.4425
1.44325
1.46702
1.53387
1.64848
1.76186
1.78595
1.64793
1.31953
0.711423
0.584632
1.15669
1.28318
1.37925
1.46485
1.55226
1.64355
1.73958
1.83398
1.88964
1.8616
1.78777
1.70396
1.63079
1.57322
1.52666
1.48625
1.44199
1.40261
1.37567
1.36184
1.36215
1.38575
1.45028
1.55841
1.66775
1.70091
1.58341
1.27656
0.693161
0.589103
1.10713
1.24469
1.34513
1.43085
1.51515
1.6003
1.68566
1.75573
1.76827
1.73229
1.67918
1.61831
1.5589
1.50621
1.45612
1.40891
1.36419
1.32564
1.29837
1.28319
1.28188
1.30372
1.36411
1.464
1.56742
1.60647
1.50894
1.22535
0.67047
0.574886
1.05411
1.20303
1.30506
1.39122
1.47287
1.55264
1.62684
1.66203
1.64882
1.61978
1.58626
1.54471
1.49681
1.44853
1.39633
1.34208
1.29352
1.25395
1.22498
1.20713
1.20302
1.22173
1.27652
1.3671
1.46322
1.50504
1.42555
1.16394
0.644656
0.543724
0.992248
1.15307
1.25896
1.34636
1.42578
1.5009
1.55032
1.55422
1.54058
1.52458
1.50654
1.48021
1.44203
1.39799
1.34497
1.28564
1.23112
1.18804
1.15598
1.13447
1.12645
1.14063
1.18857
1.2692
1.35701
1.39872
1.33428
1.09241
0.615043
0.50511
0.931309
1.09896
1.20787
1.29604
1.37371
1.43144
1.45029
1.45023
1.44755
1.44401
1.43664
1.42081
1.39103
1.35121
1.29903
1.2376
1.17797
1.12886
1.09184
1.06523
1.05226
1.06082
1.10088
1.17126
1.25017
1.28966
1.2365
1.0102
0.579671
0.46999
0.874397
1.04074
1.1512
1.23949
1.30414
1.33551
1.3494
1.35998
1.36941
1.37504
1.37395
1.36404
1.34099
1.30493
1.25573
1.19588
1.13372
1.0783
1.03377
1.00014
0.981231
0.98276
1.01375
1.07384
1.14357
1.17952
1.13505
0.925255
0.541203
0.442805
0.818882
0.978125
1.08675
1.16445
1.20908
1.23692
1.26154
1.28465
1.30334
1.3146
1.31691
1.31011
1.2917
1.25883
1.21415
1.15878
1.09738
1.03749
0.984812
0.941882
0.914104
0.907755
0.928532
0.97773
1.03814
1.06979
1.03179
0.839366
0.501072
0.417747
0.757305
0.906956
1.00212
1.06565
1.11046
1.15045
1.18846
1.22128
1.24576
1.26037
1.26498
1.26006
1.24445
1.21529
1.17532
1.12525
1.06714
1.00588
0.946711
0.893554
0.85327
0.836882
0.84619
0.883551
0.934694
0.961975
0.928476
0.753618
0.460104
0.382104
0.679642
0.809799
0.894847
0.963507
1.02354
1.07882
1.12749
1.16651
1.19466
1.21199
1.21895
1.2159
1.20234
1.177
1.14122
1.09569
1.04161
0.981558
0.918819
0.857078
0.802379
0.770918
0.767636
0.792022
0.834311
0.857789
0.827676
0.669361
0.419149
0.328403
0.570195
0.68916
0.787305
0.876391
0.954749
1.02197
1.07713
1.12002
1.15116
1.1712
1.18063
1.17972
1.16832
1.14616
1.11375
1.0717
1.02093
0.96294
0.899291
0.831776
0.765031
0.712912
0.693747
0.704305
0.736414
0.758169
0.732818
0.588783
0.378747
0.262843
0.428977
0.572724
0.704463
0.816158
0.906714
0.979952
1.03852
1.08405
1.11764
1.14004
1.15169
1.15284
1.14352
1.12381
1.09399
1.05457
1.00626
0.950028
0.886686
0.81664
0.741548
0.670066
0.626583
0.620395
0.64255
0.662308
0.644927
0.514109
0.339517
0.197133
0.308348
0.501494
0.659976
0.781759
0.876708
0.95233
1.01268
1.05993
1.09532
1.11952
1.13295
1.1358
1.1282
1.11031
1.0824
1.04491
0.998412
0.943535
0.8807
0.809891
0.731009
0.64724
0.574611
0.543613
0.550775
0.570631
0.56312
0.448446
0.303273
0.154568
0.2791
0.488154
0.64674
0.767667
0.862419
0.938337
0.999409
1.04774
1.08443
1.11004
1.12484
1.12899
1.12266
1.10603
1.0794
1.04318
0.997853
0.943831
0.881403
0.810461
0.730492
0.641456
0.549063
0.482173
0.464142
0.481864
0.486731
0.390344
0.269423
0.147035
0.295966
0.499342
0.651815
0.769009
0.861737
0.936905
0.998201
1.04733
1.08502
1.11169
1.12748
1.1325
1.12692
1.11093
1.08487
1.04918
1.00431
0.950666
0.88842
0.817372
0.736931
0.646527
0.547422
0.448604
0.39472
0.391923
0.408796
0.339319
0.238951
0.154005
0.340757
0.528508
0.670437
0.78133
0.871166
0.945639
1.00738
1.05753
1.09651
1.12441
1.14127
1.14708
1.14202
1.12632
1.10036
1.06462
1.01961
0.965761
0.903287
0.832057
0.751477
0.660469
0.558055
0.448013
0.348778
0.312513
0.320606
0.29896
0.213561
0.175927
0.395161
0.569881
0.70089
0.805437
0.892564
0.966702
1.0294
1.08102
1.12149
1.15065
1.16836
1.1746
1.16954
1.15345
1.12678
1.09009
1.04401
0.989097
0.925741
0.853988
0.773367
0.682759
0.580408
0.464625
0.343157
0.254204
0.236462
0.242959
0.188584
0.203692
0.449982
0.614509
0.736504
0.837235
0.923957
0.99943
1.06408
1.11768
1.15988
1.19035
1.20883
1.21524
1.20974
1.19265
1.16452
1.12606
1.07805
1.02125
0.956296
0.88348
0.802598
0.712682
0.611805
0.496901
0.364481
0.235527
0.17589
0.172211
0.160203
0.236582
0.501163
0.656445
0.775122
0.876041
0.965417
1.04412
1.11187
1.1682
1.2126
1.24461
1.26386
1.2702
1.2638
1.24506
1.21467
1.17354
1.12269
1.06313
0.99579
0.921277
0.839728
0.750525
0.651919
0.54034
0.409092
0.252503
0.148804
0.123935
0.132292
0.269563
0.549104
0.697778
0.818187
0.923925
1.0185
1.10192
1.17382
1.23368
1.2809
1.31481
1.33492
1.34099
1.33322
1.31212
1.27858
1.23379
1.17906
1.11576
1.04514
0.9682
0.88546
0.796711
0.700512
0.593097
0.465925
0.304092
0.154289
0.106055
0.109131
0.292125
0.583709
0.74061
0.86923
0.982926
1.08427
1.17364
1.25084
1.3153
1.36618
1.40259
1.4238
1.42947
1.41984
1.39558
1.35786
1.30824
1.24844
1.18025
1.10532
1.02503
0.940327
0.851404
0.757189
0.653981
0.53256
0.37697
0.190199
0.106641
0.0954572
0.300833
0.604733
0.785456
0.929035
1.0532
1.16294
1.25979
1.34382
1.41433
1.47012
1.50992
1.53267
1.5379
1.52588
1.49751
1.45436
1.39848
1.33217
1.25772
1.17724
1.09249
1.00474
0.914553
0.821245
0.721514
0.605
0.454884
0.278421
0.128433
0.0915417
0.301621
0.631328
0.839127
0.998728
1.13473
1.25463
1.36092
1.45381
1.5323
1.5947
1.63916
1.66414
1.66898
1.65395
1.62025
1.57003
1.5061
1.4315
1.34916
1.26166
1.17108
1.07892
0.985924
0.891791
0.793927
0.681387
0.539829
0.38043
0.201126
0.0990581
0.309215
0.67191
0.903303
1.07861
1.22773
1.35976
1.47778
1.58198
1.67093
1.74219
1.79307
1.8213
1.82584
1.80696
1.7663
1.70687
1.63256
1.54745
1.45523
1.35895
1.26093
1.16271
1.06506
0.968003
0.869768
0.759442
0.62824
0.482289
0.309928
0.131636
0.329653
0.729251
0.979361
1.16972
1.33287
1.47892
1.61115
1.72954
1.83203
1.91516
1.97489
2.00778
2.01205
1.9881
1.93834
1.86683
1.77908
1.68065
1.57613
1.46896
1.36158
1.25545
1.15119
1.04909
0.948713
0.840039
0.7138
0.577956
0.415072
0.187609
0.362844
0.798863
1.06627
1.27195
1.45033
1.61236
1.76148
1.89745
2.01742
2.11648
2.18843
2.22785
2.23144
2.20024
2.13839
2.05103
1.94589
1.83071
1.71114
1.5908
1.47195
1.35583
1.24298
1.1337
1.02866
0.920308
0.792999
0.655599
0.500775
0.247456
0.399019
0.874994
1.16163
1.38397
1.57935
1.75961
1.92872
2.08637
2.22905
2.34972
2.43901
2.4867
2.48721
2.4442
2.36622
2.25879
2.13164
1.9958
1.85832
1.72261
1.59034
1.46228
1.3386
1.21972
1.10623
0.99494
0.866172
0.724824
0.56298
0.291531
0.435846
0.9542
1.26272
1.50389
1.71825
1.91931
2.11182
2.29611
2.46823
2.62003
2.73205
2.78907
2.78084
2.71697
2.61728
2.4859
2.33254
2.17238
2.01446
1.86167
1.71454
1.57305
1.43668
1.30526
1.17835
1.05676
0.927442
0.783396
0.606782
0.307314
0.472331
1.03454
1.36747
1.62926
1.86473
2.08899
2.30846
2.5244
2.73526
2.9244
3.06457
3.1385
3.11385
3.01277
2.8792
2.7217
2.54136
2.35507
2.17538
2.00468
1.84211
1.68669
1.53708
1.3917
1.24956
1.11062
0.97774
0.828805
0.641646
0.316457
0.508056
1.11479
1.4737
1.7578
2.01585
2.26544
2.51442
2.7676
3.01692
3.23613
3.4183
3.54551
3.49629
3.326
3.14326
2.95752
2.74871
2.5368
2.33633
2.14839
1.97083
1.80195
1.63988
1.48189
1.32591
1.17073
1.01962
0.863953
0.66881
0.330732
0.542782
1.19407
1.57988
1.8869
2.16867
2.44454
2.72564
3.01149
3.28939
3.54124
3.78413
3.9896
3.91619
3.65755
3.41406
3.18393
2.94422
2.71079
2.49314
2.29015
2.099
1.91781
1.74448
1.57598
1.40897
1.24098
1.06943
0.890595
0.680836
0.332358
0.576503
1.27171
1.68418
2.01439
2.31996
2.62366
2.93223
3.24405
3.54184
3.82358
4.11754
4.34794
4.27251
3.95683
3.66504
3.39199
3.12529
2.87516
2.64402
2.42849
2.22552
2.03357
1.85056
1.67322
1.4977
1.31988
1.13411
0.930563
0.68623
0.326567
0.609225
1.3468
1.78503
2.13756
2.46771
2.79556
3.12854
3.46427
3.77801
4.07862
4.33825
4.45152
4.44217
4.17227
3.86714
3.57209
3.29106
3.03036
2.78901
2.56297
2.34975
2.14855
1.95738
1.77273
1.59037
1.40534
1.20995
0.990484
0.709465
0.327152
0.640628
1.41832
1.88
2.25436
2.60505
2.95425
3.31261
3.65931
3.96038
4.19702
4.36086
4.44526
4.43709
4.31741
4.03566
3.73683
3.44871
3.17995
2.92971
2.69403
2.47137
2.26191
2.06371
1.87292
1.68494
1.49447
1.29316
1.06519
0.768497
0.345972
0.669775
1.48491
1.967
2.35661
2.72351
3.09236
3.45677
3.77247
3.97746
4.16169
4.33256
4.43349
4.41267
4.39564
4.20271
3.90622
3.60802
3.32914
3.06849
2.82254
2.59027
2.37279
2.16809
1.97184
1.77899
1.58415
1.37893
1.14692
0.84548
0.386668
0.698641
1.54531
2.03774
2.43588
2.81223
3.17845
3.51996
3.73835
3.91869
4.09812
4.25906
4.35947
4.36692
4.3593
4.3349
4.0807
3.77364
3.48053
3.20701
2.94898
2.70597
2.48011
2.26898
2.06745
1.87004
1.67122
1.46274
1.22791
0.922325
0.425724
0.72451
1.59301
2.08817
2.48618
2.85068
3.20609
3.46542
3.65341
3.83217
4.00009
4.14508
4.24188
4.27555
4.27507
4.29489
4.22706
3.94405
3.63427
3.34511
3.07241
2.81695
2.58219
2.36466
2.15781
1.95591
1.75318
1.5413
1.30352
0.993623
0.460137
0.743185
1.62768
2.11738
2.50519
2.84006
3.14379
3.36517
3.55588
3.72562
3.87811
4.00742
4.10115
4.1499
4.1669
4.17745
4.19751
4.08804
3.79027
3.48013
3.19033
2.9205
2.67647
2.45319
2.24123
2.03502
1.8284
1.61268
1.37121
1.05711
0.494323
0.760624
1.65204
2.13137
2.49145
2.79494
3.05122
3.27322
3.45568
3.61113
3.74603
3.86028
3.94732
4.00386
4.03433
4.04842
4.05898
4.05967
3.91364
3.61202
3.30132
3.01503
2.76062
2.53308
2.3166
2.10659
1.89618
1.67607
1.42965
1.11086
0.52386
0.77761
1.66745
2.1279
2.46076
2.72488
2.96656
3.18861
3.36217
3.4986
3.61489
3.71393
3.79341
3.85164
3.89023
3.91116
3.91804
3.9175
3.89386
3.71679
3.40913
3.10322
2.83803
2.60475
2.38382
2.17072
1.95671
1.73164
1.47804
1.14922
0.538226
0.788026
1.66321
2.09701
2.39792
2.63939
2.86536
3.07914
3.26105
3.39149
3.48954
3.57437
3.64615
3.70357
3.74608
3.77239
3.78147
3.77874
3.77055
3.7232
3.49321
3.17688
2.90847
2.66929
2.44399
2.22801
2.01065
1.78084
1.51961
1.17564
0.542736
0.777243
1.61622
2.02271
2.30741
2.53902
2.74784
2.94341
3.12546
3.27406
3.36941
3.44233
3.50731
3.56272
3.60629
3.63542
3.64765
3.64673
3.63938
3.61704
3.48801
3.21612
2.96313
2.72352
2.49627
2.27766
2.05789
1.82518
1.55827
1.20317
0.550703
0.731362
1.52612
1.92494
2.20845
2.43836
2.63693
2.81357
2.97433
3.12053
3.24012
3.31677
3.37625
3.4289
3.47156
3.50088
3.51519
3.51725
3.5105
3.48942
3.40924
3.20549
2.98489
2.76005
2.53466
2.31667
2.09676
1.86333
1.59499
1.23534
0.568631
0.668998
1.4455
1.84485
2.12582
2.35104
2.54213
2.70814
2.85218
2.97402
3.08261
3.17562
3.24388
3.29984
3.34416
3.37255
3.38671
3.38973
3.38352
3.36584
3.32216
3.17499
2.97941
2.77105
2.55673
2.34321
2.12553
1.89322
1.62547
1.26593
0.587686
0.641576
1.39268
1.78206
2.05536
2.27331
2.45722
2.61585
2.75156
2.86265
2.95052
3.02783
3.10075
3.16421
3.21345
3.24396
3.26123
3.26939
3.26831
3.25857
3.23594
3.12792
2.9564
2.76451
2.56186
2.35608
2.14287
1.91312
1.64697
1.28834
0.603907
0.634038
1.35722
1.73198
1.99423
2.20432
2.38221
2.53527
2.66541
2.77182
2.85392
2.91732
2.97462
3.03264
3.08342
3.1179
3.13943
3.15564
3.16522
3.16528
3.14932
3.0653
2.92104
2.74613
2.55502
2.35686
2.14929
1.9229
1.6587
1.30157
0.614726
0.629292
1.33008
1.6875
1.93954
2.14399
2.31805
2.46708
2.59274
2.69551
2.77614
2.83762
2.88726
2.93352
2.97742
3.01193
3.03466
3.05396
3.07127
3.08067
3.06408
2.99586
2.87513
2.71664
2.53883
2.35012
2.14841
1.92533
1.66225
1.30518
0.617502
0.623834
1.30385
1.64509
1.8922
2.09538
2.2675
2.41297
2.53418
2.63308
2.71197
2.77419
2.82441
2.86745
2.9054
2.93601
2.9583
2.97731
2.99551
3.00583
2.98809
2.92732
2.82019
2.6772
2.51416
2.33685
2.14305
1.92397
1.66153
1.30299
0.614855
0.612957
1.26774
1.60762
1.85825
2.06253
2.23281
2.37438
2.49094
2.58581
2.66246
2.72451
2.77553
2.81828
2.85381
2.88215
2.90434
2.92288
2.93816
2.94295
2.92074
2.86021
2.76151
2.63281
2.4842
2.31915
2.13447
1.92088
1.65967
1.2986
0.608942
0.587776
1.23232
1.58459
1.84159
2.04714
2.21502
2.35242
2.4642
2.55493
2.6289
2.68976
2.74031
2.78222
2.8163
2.84309
2.8638
2.87956
2.88921
2.88618
2.8579
2.79782
2.70704
2.59034
2.45398
2.30028
2.12541
1.91851
1.65947
1.29597
0.606052
0.561218
1.21188
1.57813
1.84327
2.05074
2.21612
2.3484
2.45453
2.54052
2.61117
2.66984
2.71872
2.75897
2.79117
2.81586
2.83369
2.84478
2.84754
2.83669
2.80418
2.74604
2.66213
2.55472
2.42777
2.28305
2.11715
1.91818
1.66224
1.29713
0.606861
0.560954
1.21285
1.59172
1.86824
2.07589
2.23516
2.36003
2.45978
2.54084
2.60771
2.6635
2.70994
2.74789
2.77778
2.79985
2.81424
2.82048
2.81695
2.79981
2.76432
2.70766
2.62873
2.52807
2.4078
2.26906
2.10903
1.91666
1.66721
1.30881
0.610161
0.56597
1.23444
1.63845
1.92375
2.12538
2.27132
2.38438
2.47575
2.55136
2.61477
2.66801
2.71222
2.74808
2.77577
2.79533
2.80646
2.80871
2.80032
2.7785
2.74036
2.68387
2.60766
2.51109
2.39473
2.259
2.10152
1.91417
1.67488
1.32085
0.623267
0.583959
1.29865
1.71225
1.98106
2.16754
2.30342
2.40817
2.49549
2.56886
2.63035
2.68174
2.72421
2.75836
2.7844
2.80215
2.81108
2.81066
2.79921
2.77411
2.73341
2.6758
2.60006
2.50495
2.38982
2.25431
2.09674
1.91104
1.67847
1.33691
0.643276
0.637472
1.38944
1.78197
2.01249
2.18393
2.31659
2.42327
2.5132
2.58863
2.65163
2.704
2.74693
2.78094
2.80623
2.82263
2.82974
2.82713
2.81348
2.7862
2.74341
2.68389
2.60683
2.51088
2.3947
2.25722
2.09702
1.90907
1.67796
1.34921
0.654336
0.713466
1.47246
1.8176
2.02504
2.18722
2.32042
2.43306
2.52947
2.61083
2.67906
2.73558
2.78147
2.81737
2.84349
2.85975
2.86599
2.86207
2.84668
2.81785
2.77279
2.71057
2.63065
2.53189
2.41255
2.2708
2.10488
1.91074
1.67483
1.34623
0.655704
0.760614
1.5138
1.82195
2.02741
2.18968
2.32733
2.44546
2.54918
2.63928
2.71581
2.77935
2.83075
2.87061
2.89915
2.91638
2.92241
2.91745
2.90078
2.87031
2.82328
2.75817
2.67444
2.57131
2.44705
2.29937
2.1257
1.92213
1.67531
1.33346
0.651088
0.776123
1.5082
1.81527
2.02536
2.19266
2.33562
2.46181
2.57689
2.67868
2.76596
2.83894
2.89823
2.94428
2.97711
2.99662
3.00308
2.99698
2.9782
2.94526
2.8961
2.82759
2.73935
2.63073
2.50027
2.34562
2.16384
1.95028
1.68977
1.32826
0.637105
0.770183
1.48459
1.79895
2.01974
2.19232
2.34456
2.48696
2.61739
2.73312
2.83332
2.91807
2.98775
3.04245
3.0818
3.10531
3.11308
3.10571
3.08366
3.04702
2.9941
2.92126
2.82757
2.71243
2.57462
2.4119
2.2212
1.99721
1.72274
1.33806
0.630018
0.759822
1.45643
1.77933
2.0033
2.18798
2.36373
2.52698
2.67468
2.80627
2.92158
3.02067
3.10358
3.16986
3.21852
3.2483
3.25862
3.25002
3.22348
3.18067
3.12138
3.04232
2.94161
2.81866
2.67221
2.5001
2.29904
2.06314
1.77458
1.3699
0.639166
0.726984
1.39001
1.72368
1.96955
2.1954
2.40115
2.58593
2.75234
2.9018
3.0347
3.15108
3.25057
3.33203
3.39357
3.43268
3.44724
3.43748
3.40498
3.35288
3.28334
3.19465
3.08447
2.95176
2.79505
2.61196
2.39885
2.1496
1.8468
1.4276
0.663659
0.649713
1.26759
1.65264
1.96414
2.22766
2.46057
2.66773
2.85456
3.02411
3.1773
3.31418
3.43402
3.53502
3.61416
3.66689
3.68808
3.67672
3.63582
3.57065
3.48584
3.38264
3.25931
3.11415
2.9451
2.74918
2.52216
2.25776
1.93901
1.50236
0.699553
0.55186
1.1408
1.62764
1.99122
2.29287
2.5511
2.77942
2.98747
3.17895
3.35486
3.51525
3.65927
3.78473
3.88754
3.96027
3.9915
3.97719
3.92276
3.83915
3.73346
3.60995
3.46878
3.30783
3.12405
2.91343
2.67057
2.38825
2.04882
1.58713
0.741303
0.489301
1.10469
1.65435
2.06786
2.40053
2.67821
2.92696
3.15733
3.37228
3.57269
3.75873
3.92985
4.08388
4.21606
4.31562
4.36313
4.34688
4.27068
4.15919
4.02679
3.87755
3.71375
3.53354
3.33279
3.10599
2.84559
2.54157
2.17418
1.67717
0.786385
0.502361
1.16502
1.7521
2.19831
2.54747
2.84332
3.11486
3.36943
3.60922
3.83486
4.04683
4.24529
4.42856
4.59081
4.71593
4.78566
4.77892
4.67666
4.52657
4.36053
4.18175
3.99174
3.78948
3.57021
3.32683
3.04832
2.71893
2.31467
1.76401
0.820008
0.557441
1.31401
1.93208
2.37124
2.72858
3.04707
3.34574
3.62772
3.89373
4.14387
4.37877
4.60033
4.80763
4.99158
5.12663
5.20836
5.23017
5.11713
4.93056
4.72485
4.51441
4.2965
4.07065
3.83228
3.57359
3.27891
2.92455
2.48128
1.85867
0.827951
0.643183
1.52308
2.13253
2.56898
2.94154
3.29108
3.62307
3.93659
4.23003
4.50139
4.75171
4.9867
5.20807
5.40365
5.53175
5.60705
5.64177
5.55953
5.35074
5.1074
4.86466
4.6196
4.37009
4.11208
3.84083
3.53566
3.16656
2.70372
2.03329
0.866775
0.778616
1.7343
2.30956
2.76177
3.18195
3.57695
3.95129
4.3029
4.62531
4.91203
5.16768
5.40425
5.6318
5.83352
5.95203
6.01657
6.05115
5.99619
5.76774
5.49466
5.22273
4.95341
4.68206
4.4017
4.11832
3.8127
3.44154
2.98051
2.30122
0.959947
0.91687
1.8958
2.47491
2.97464
3.45418
3.90859
4.33838
4.73991
5.09678
5.40123
5.65834
5.88532
6.10621
6.30541
6.40665
6.46404
6.49782
6.42571
6.16846
5.87702
5.58391
5.29304
4.99812
4.69421
4.38446
4.07813
3.71467
3.23573
2.59682
1.19446
0.987647
2.07309
2.68175
3.22183
3.76584
4.29235
4.79515
5.27018
5.68728
6.02556
6.28187
6.4692
6.65179
6.82604
6.89859
6.94326
6.94176
6.81287
6.54889
6.26399
5.95473
5.64086
5.31979
4.98355
4.6353
4.29981
3.93194
3.48739
2.87473
1.41571
1.05124
2.24832
2.89938
3.49531
4.11624
4.72591
5.32392
5.91582
6.45309
6.87008
7.10822
7.19619
7.2787
7.37106
7.39025
7.40798
7.37808
7.21111
6.97851
6.67926
6.3505
6.00586
5.65461
5.28307
4.88177
4.46626
4.05877
3.59409
2.93225
1.45877
1.06226
2.34545
3.11186
3.81226
4.49909
5.18657
5.89951
6.65343
7.38276
7.89718
8.14577
8.11911
7.98289
7.90855
7.84501
7.86125
7.83775
7.72151
7.49851
7.1669
6.7936
6.3999
6.01281
5.60661
5.15395
4.66327
4.14973
3.65557
2.98394
1.49411
1.07163
2.46715
3.38178
4.1613
4.89715
5.64259
6.4531
7.34982
8.19157
8.77811
9.10929
9.07717
8.68646
8.43071
8.31708
8.2923
8.29699
8.25543
8.08261
7.78546
7.30508
6.84312
6.40041
5.95271
5.46475
4.91329
4.29937
3.64337
2.95541
1.47346
1.16135
2.68048
3.687
4.522
5.29286
6.07143
6.93192
7.75961
8.53533
9.08223
9.51536
9.68313
9.22109
8.88979
8.75301
8.69077
8.7674
8.87476
8.79271
8.41253
7.92234
7.35633
6.81748
6.32514
5.80927
5.21329
4.48461
3.62559
2.77524
1.39396
1.3106
2.95483
3.9856
4.82892
5.62837
6.42547
7.2206
7.94948
8.68497
9.22704
9.58223