/*--------------------------------*- C++ -*----------------------------------*\
| =========                 |                                                 |
| \\      /  F ield         | OpenFOAM: The Open Source CFD Toolbox           |
|  \\    /   O peration     | Version:  2.3.0                                 |
|   \\  /    A nd           | Web:      www.OpenFOAM.org                      |
|    \\/     M anipulation  |                                                 |
\*---------------------------------------------------------------------------*/
FoamFile
{
    version     2.0;
    format      ascii;
    class       volScalarField;
    location    "1.32";
    object      p;
}
// * * * * * * * * * * * * * * * * * * * * * * * * * * * * * * * * * * * * * //

dimensions      [1 -1 -2 0 0 0 0];

internalField   nonuniform List<scalar> 
6000
(
106284
106295
106302
106313
106318
106308
106293
106282
106278
106279
106281
106286
106293
106302
106305
106304
106303
106305
106307
106308
106307
106304
106303
106308
106318
106325
106323
106316
106312
106310
106208
106211
106215
106218
106221
106218
106216
106219
106222
106224
106226
106227
106228
106229
106226
106221
106214
106208
106205
106203
106203
106205
106210
106217
106228
106241
106248
106250
106250
106250
106145
106142
106143
106144
106145
106147
106160
106174
106181
106185
106187
106189
106191
106187
106179
106165
106149
106133
106122
106119
106120
106120
106121
106126
106139
106162
106182
106196
106199
106200
106064
106048
106043
106047
106047
106055
106080
106108
106124
106132
106135
106135
106131
106119
106098
106063
106036
106024
106020
106020
106022
106025
106026
106027
106033
106048
106078
106106
106118
106122
105979
105959
105951
105954
105962
105979
106004
106037
106059
106069
106070
106063
106052
106029
105990
105973
105970
105971
105973
105976
105979
105982
105984
105985
105986
105986
105989
105997
106012
106026
105910
105900
105899
105902
105912
105926
105944
105972
105994
106002
105997
105979
105953
105934
105929
105932
105938
105944
105949
105954
105958
105961
105964
105965
105964
105960
105951
105940
105934
105936
105866
105865
105868
105872
105879
105888
105900
105920
105937
105940
105924
105894
105889
105891
105898
105906
105914
105921
105928
105934
105939
105944
105947
105949
105948
105942
105928
105915
105906
105903
105836
105838
105840
105844
105849
105857
105865
105877
105887
105882
105855
105850
105855
105863
105873
105882
105892
105901
105909
105917
105923
105929
105933
105935
105932
105922
105908
105897
105892
105890
105811
105812
105813
105816
105821
105828
105836
105839
105841
105825
105813
105819
105827
105836
105848
105861
105872
105883
105893
105902
105909
105916
105919
105918
105911
105900
105888
105881
105879
105879
105786
105786
105787
105789
105793
105801
105806
105803
105794
105775
105780
105787
105796
105808
105824
105840
105854
105866
105877
105886
105894
105899
105899
105893
105886
105877
105871
105868
105867
105867
105761
105761
105761
105762
105764
105769
105772
105764
105745
105739
105747
105755
105764
105778
105797
105816
105833
105846
105857
105865
105870
105870
105867
105861
105856
105855
105856
105857
105856
105855
105738
105738
105736
105734
105733
105733
105734
105721
105705
105710
105716
105722
105731
105744
105764
105786
105804
105817
105826
105830
105831
105829
105825
105822
105822
105828
105839
105844
105845
105844
105716
105717
105714
105709
105703
105697
105689
105678
105676
105681
105685
105690
105697
105708
105725
105747
105765
105777
105783
105784
105784
105782
105779
105777
105778
105787
105807
105824
105829
105829
105694
105696
105692
105685
105677
105667
105657
105650
105652
105653
105655
105658
105663
105672
105684
105703
105719
105729
105735
105736
105737
105735
105732
105726
105722
105725
105744
105775
105794
105799
105671
105674
105671
105663
105653
105644
105636
105631
105629
105626
105625
105626
105629
105636
105645
105659
105672
105682
105688
105691
105691
105689
105682
105662
105652
105654
105664
105683
105708
105723
105642
105646
105646
105641
105633
105624
105616
105610
105605
105599
105595
105594
105596
105602
105608
105617
105627
105637
105645
105649
105650
105647
105634
105622
105616
105617
105621
105627
105635
105642
105599
105602
105610
105616
105614
105606
105597
105587
105578
105570
105564
105562
105564
105570
105571
105575
105583
105594
105605
105612
105615
105613
105607
105602
105601
105602
105603
105605
105608
105610
105526
105530
105546
105573
105590
105588
105578
105564
105551
105540
105533
105531
105534
105538
105534
105530
105537
105551
105566
105577
105585
105590
105589
105590
105591
105592
105592
105593
105595
105595
105428
105434
105454
105492
105534
105555
105553
105539
105521
105509
105502
105500
105503
105502
105487
105476
105481
105500
105522
105540
105553
105565
105571
105576
105579
105581
105582
105583
105584
105584
105307
105314
105343
105390
105439
105477
105497
105500
105483
105474
105468
105465
105463
105448
105418
105398
105401
105430
105465
105492
105514
105534
105548
105558
105564
105569
105571
105572
105573
105574
105234
105236
105251
105288
105341
105378
105390
105414
105426
105427
105421
105412
105396
105365
105336
105323
105324
105339
105378
105428
105467
105495
105517
105533
105544
105551
105556
105559
105560
105561
105212
105213
105218
105233
105263
105290
105295
105306
105340
105353
105351
105337
105317
105300
105293
105291
105293
105299
105320
105365
105413
105451
105480
105500
105516
105527
105535
105539
105542
105543
105206
105207
105209
105215
105229
105245
105252
105258
105271
105281
105284
105282
105277
105275
105275
105277
105280
105285
105296
105323
105368
105407
105437
105460
105478
105493
105504
105512
105516
105519
105202
105203
105204
105208
105218
105228
105235
105239
105244
105249
105254
105257
105260
105261
105263
105266
105269
105274
105281
105299
105333
105365
105391
105413
105432
105449
105463
105475
105482
105485
105198
105198
105199
105202
105209
105218
105222
105227
105230
105235
105239
105242
105245
105248
105250
105253
105257
105262
105268
105280
105303
105325
105346
105365
105383
105399
105415
105428
105438
105440
105192
105193
105193
105195
105200
105207
105210
105214
105217
105221
105225
105228
105231
105234
105237
105241
105245
105249
105253
105261
105274
105289
105304
105320
105335
105350
105364
105376
105385
105387
105187
105187
105188
105188
105191
105196
105199
105201
105205
105208
105211
105215
105218
105221
105224
105228
105232
105235
105236
105240
105247
105256
105266
105278
105290
105303
105313
105322
105327
105329
105181
105182
105181
105181
105182
105185
105187
105190
105192
105195
105199
105202
105205
105208
105211
105215
105219
105221
105219
105218
105220
105225
105231
105239
105247
105254
105260
105264
105266
105267
105175
105175
105174
105173
105172
105174
105176
105178
105180
105183
105187
105190
105193
105196
105199
105203
105206
105205
105201
105196
105194
105194
105195
105197
105199
105201
105202
105203
105203
105202
105168
105167
105165
105163
105162
105163
105165
105167
105169
105172
105175
105178
105180
105183
105187
105191
105193
105189
105181
105171
105164
105158
105153
105149
105146
105143
105140
105138
105136
105135
105158
105157
105155
105153
105152
105152
105154
105156
105158
105161
105163
105166
105169
105172
105175
105179
105179
105171
105157
105142
105129
105117
105106
105096
105088
105082
105076
105071
105067
105066
105146
105145
105143
105141
105141
105142
105143
105145
105147
105150
105152
105155
105158
105161
105164
105167
105164
105150
105130
105108
105088
105070
105054
105040
105028
105018
105009
105002
104998
104997
105133
105132
105131
105130
105130
105131
105133
105134
105137
105139
105141
105144
105147
105151
105155
105155
105146
105124
105096
105069
105042
105018
104997
104978
104963
104953
104945
104939
104934
104933
105120
105119
105119
105119
105119
105121
105122
105124
105126
105128
105131
105134
105137
105141
105145
105141
105123
105091
105057
105023
104991
104962
104934
104913
104902
104898
104895
104890
104885
104881
105108
105107
105107
105107
105108
105110
105111
105113
105115
105117
105120
105124
105128
105132
105133
105121
105090
105051
105012
104973
104935
104900
104871
104859
104855
104857
104858
104852
104842
104836
105096
105095
105095
105096
105097
105099
105101
105102
105104
105106
105109
105113
105118
105121
105114
105089
105050
105006
104962
104918
104876
104840
104818
104814
104821
104824
104816
104807
104799
104790
105084
105084
105084
105084
105086
105088
105090
105092
105094
105096
105099
105101
105105
105103
105084
105049
105005
104959
104911
104862
104818
104785
104774
104778
104782
104777
104761
104749
104742
104738
105072
105072
105072
105073
105075
105077
105079
105081
105083
105086
105088
105089
105087
105077
105047
105006
104960
104910
104858
104807
104763
104738
104733
104736
104737
104718
104694
104677
104668
104665
105060
105060
105060
105061
105063
105066
105068
105071
105074
105078
105078
105076
105067
105048
105010
104964
104913
104860
104806
104754
104714
104694
104691
104690
104682
104648
104616
104593
104579
104574
105046
105048
105048
105049
105051
105053
105056
105060
105065
105069
105068
105058
105041
105014
104971
104920
104867
104811
104755
104704
104668
104651
104646
104644
104615
104567
104523
104488
104467
104462
105031
105033
105035
105035
105037
105039
105043
105047
105054
105057
105049
105031
105002
104969
104927
104876
104820
104762
104705
104656
104622
104607
104600
104588
104534
104470
104408
104356
104325
104321
105013
105017
105019
105020
105021
105023
105026
105030
105037
105031
105013
104986
104950
104914
104880
104830
104774
104715
104657
104608
104576
104562
104550
104504
104433
104355
104297
104263
104252
104250
104991
104995
104999
105000
105002
105003
105005
105008
105006
104985
104957
104926
104892
104856
104827
104782
104727
104667
104610
104562
104531
104512
104473
104403
104323
104267
104243
104236
104234
104234
104959
104964
104969
104972
104975
104977
104979
104977
104962
104930
104896
104863
104831
104798
104771
104731
104678
104620
104563
104516
104483
104447
104384
104302
104253
104237
104232
104231
104231
104231
104903
104907
104917
104927
104935
104940
104942
104933
104903
104867
104832
104801
104771
104742
104715
104679
104629
104572
104515
104466
104427
104372
104295
104249
104234
104230
104230
104230
104230
104230
104793
104803
104827
104852
104868
104878
104881
104864
104825
104788
104761
104740
104715
104688
104661
104628
104581
104526
104467
104413
104362
104300
104250
104233
104230
104230
104229
104229
104229
104229
104640
104661
104698
104733
104760
104777
104780
104761
104723
104686
104678
104680
104664
104641
104614
104583
104538
104483
104424
104364
104305
104256
104235
104230
104229
104229
104229
104228
104228
104228
104568
104574
104588
104608
104632
104650
104655
104642
104619
104607
104613
104623
104622
104603
104577
104546
104501
104447
104387
104327
104272
104240
104230
104229
104228
104228
104228
104227
104227
104227
104550
104551
104553
104558
104566
104574
104578
104578
104575
104575
104577
104587
104590
104577
104550
104517
104472
104418
104359
104301
104254
104233
104228
104227
104227
104227
104226
104226
104226
104226
104545
104545
104545
104546
104548
104551
104554
104557
104560
104563
104563
104564
104569
104559
104535
104498
104451
104397
104339
104283
104244
104230
104227
104226
104226
104226
104225
104225
104225
104225
104542
104542
104542
104543
104544
104546
104548
104550
104553
104554
104554
104552
104552
104543
104521
104483
104435
104381
104325
104271
104239
104228
104225
104225
104225
104224
104224
104224
104224
104224
104538
104538
104539
104539
104540
104542
104543
104545
104546
104546
104546
104544
104542
104534
104511
104472
104424
104371
104316
104264
104236
104226
104224
104224
104223
104223
104223
104223
104222
104223
104534
104534
104535
104535
104536
104537
104538
104539
104540
104540
104539
104537
104534
104527
104503
104464
104416
104364
104310
104259
104233
104224
104222
104222
104222
104222
104221
104221
104221
104221
104530
104531
104531
104531
104532
104533
104533
104534
104534
104534
104532
104530
104526
104520
104498
104459
104411
104360
104306
104257
104231
104222
104221
104221
104220
104220
104220
104220
104220
104220
104526
104527
104527
104527
104528
104528
104529
104529
104529
104528
104526
104523
104519
104512
104495
104455
104408
104357
104304
104254
104229
104221
104219
104219
104219
104218
104218
104218
104218
104218
104522
104523
104523
104523
104524
104524
104524
104524
104523
104522
104520
104516
104511
104501
104486
104452
104405
104355
104302
104252
104227
104219
104217
104217
104217
104217
104216
104216
104216
104216
104518
104519
104519
104519
104519
104519
104519
104519
104518
104517
104514
104510
104502
104489
104470
104440
104399
104351
104301
104248
104224
104216
104216
104215
104215
104215
104215
104215
104215
104215
104514
104515
104515
104515
104515
104515
104515
104514
104514
104512
104508
104502
104492
104474
104449
104417
104381
104343
104296
104245
104222
104214
104214
104213
104213
104213
104213
104213
104213
104213
104511
104511
104511
104511
104511
104510
104510
104510
104509
104506
104501
104492
104477
104456
104426
104392
104357
104322
104287
104243
104218
104212
104212
104212
104211
104211
104211
104211
104211
104211
104507
104507
104507
104507
104506
104506
104505
104504
104503
104499
104490
104476
104456
104431
104402
104369
104335
104301
104269
104231
104213
104210
104210
104210
104209
104209
104209
104209
104209
104209
104503
104503
104503
104502
104502
104501
104500
104498
104495
104487
104472
104452
104429
104404
104377
104346
104315
104283
104252
104222
104210
104208
104208
104208
104207
104207
104207
104207
104207
104207
104499
104499
104499
104498
104497
104496
104494
104491
104484
104469
104448
104426
104404
104380
104354
104326
104297
104267
104240
104216
104207
104206
104206
104206
104205
104205
104204
104204
104204
104205
104495
104495
104494
104493
104492
104490
104487
104480
104468
104447
104423
104400
104378
104356
104333
104309
104281
104254
104229
104211
104205
104205
104204
104203
104203
104202
104202
104202
104202
104202
104491
104490
104489
104488
104486
104482
104476
104465
104447
104422
104397
104374
104353
104333
104313
104291
104267
104241
104219
104207
104203
104203
104202
104201
104201
104200
104200
104200
104199
104200
104485
104485
104484
104482
104478
104473
104462
104445
104421
104395
104371
104349
104330
104312
104294
104275
104253
104230
104211
104203
104202
104201
104200
104199
104198
104198
104197
104197
104197
104197
104478
104478
104477
104474
104468
104458
104442
104420
104393
104368
104346
104326
104309
104292
104276
104258
104238
104218
104206
104201
104200
104198
104197
104197
104196
104195
104195
104194
104194
104194
104470
104469
104467
104462
104452
104437
104415
104389
104364
104341
104320
104302
104286
104271
104257
104242
104226
104212
104203
104199
104197
104196
104195
104194
104193
104193
104192
104192
104192
104192
104459
104458
104453
104443
104427
104404
104379
104354
104331
104310
104292
104276
104262
104249
104237
104226
104216
104206
104199
104196
104194
104193
104192
104191
104191
104190
104189
104189
104189
104189
104441
104438
104428
104411
104388
104363
104339
104316
104296
104278
104262
104249
104237
104227
104218
104209
104201
104195
104192
104191
104190
104190
104189
104188
104188
104187
104187
104186
104186
104186
104411
104404
104386
104363
104339
104316
104295
104275
104258
104243
104229
104218
104209
104201
104194
104188
104184
104181
104181
104183
104185
104186
104186
104185
104185
104184
104184
104183
104183
104183
104359
104348
104328
104307
104286
104267
104249
104232
104217
104204
104193
104184
104177
104171
104166
104163
104162
104164
104167
104172
104177
104180
104182
104182
104182
104181
104181
104180
104180
104180
104289
104279
104264
104248
104231
104215
104201
104187
104175
104164
104155
104148
104143
104139
104137
104137
104139
104143
104149
104158
104167
104173
104177
104178
104178
104178
104178
104177
104177
104177
104217
104210
104200
104188
104175
104163
104151
104140
104131
104123
104116
104111
104108
104107
104108
104110
104115
104122
104130
104141
104153
104164
104170
104173
104174
104174
104174
104174
104174
104174
104149
104144
104137
104128
104119
104109
104101
104093
104086
104081
104077
104075
104074
104076
104079
104084
104091
104100
104111
104123
104137
104151
104161
104167
104169
104170
104170
104170
104170
104170
104084
104081
104075
104069
104062
104055
104049
104044
104040
104037
104036
104036
104038
104042
104048
104056
104065
104076
104089
104104
104120
104136
104150
104159
104162
104163
104164
104165
104165
104166
104021
104018
104014
104010
104005
104001
103997
103994
103992
103992
103993
103995
103999
104005
104013
104023
104035
104049
104064
104081
104100
104118
104136
104148
104154
104156
104157
104158
104160
104160
103959
103957
103954
103951
103948
103946
103944
103943
103943
103944
103946
103951
103957
103965
103974
103986
104001
104017
104035
104055
104077
104099
104121
104137
104144
104147
104148
104150
104152
104153
103898
103896
103895
103893
103891
103890
103890
103890
103892
103894
103899
103905
103912
103922
103934
103948
103964
103983
104004
104027
104052
104078
104104
104125
104134
104136
104138
104140
104142
104144
103837
103836
103835
103834
103834
103834
103835
103837
103840
103844
103850
103858
103868
103880
103893
103909
103928
103949
103972
103998
104026
104056
104086
104112
104122
104124
104126
104128
104130
104132
103777
103776
103776
103776
103776
103778
103780
103783
103788
103794
103802
103812
103823
103837
103853
103871
103891
103914
103939
103968
103998
104031
104066
104097
104109
104111
104113
104115
104117
104118
103716
103716
103716
103717
103719
103721
103724
103729
103736
103743
103753
103764
103777
103792
103809
103828
103850
103874
103902
103933
103967
104003
104043
104080
104094
104097
104098
104100
104102
104104
103656
103656
103657
103658
103660
103664
103668
103674
103682
103690
103700
103712
103725
103740
103757
103777
103801
103827
103858
103892
103929
103971
104016
104059
104078
104082
104083
104084
104087
104089
103596
103596
103597
103599
103602
103606
103611
103617
103624
103632
103642
103653
103666
103681
103699
103720
103745
103773
103807
103844
103886
103933
103984
104034
104060
104066
104067
104068
104070
104073
103535
103535
103537
103539
103542
103545
103550
103556
103562
103570
103579
103590
103604
103620
103639
103660
103686
103716
103750
103791
103836
103887
103945
104003
104039
104049
104050
104051
104053
104055
103474
103474
103475
103477
103480
103483
103487
103492
103498
103505
103515
103526
103542
103561
103583
103606
103632
103662
103696
103735
103781
103834
103895
103963
104013
104029
104032
104033
104034
104034
103411
103411
103412
103414
103417
103419
103423
103428
103433
103441
103453
103468
103486
103506
103528
103552
103578
103607
103640
103679
103724
103776
103836
103909
103974
104003
104010
104012
104012
104009
103348
103348
103349
103350
103353
103356
103359
103364
103371
103382
103395
103412
103432
103453
103477
103501
103527
103555
103586
103622
103664
103713
103771
103840
103916
103964
103980
103983
103980
103970
103284
103284
103285
103287
103289
103292
103297
103305
103315
103328
103345
103365
103387
103409
103431
103454
103478
103503
103531
103563
103601
103646
103699
103761
103834
103896
103927
103936
103922
103898
103219
103220
103221
103223
103226
103230
103238
103248
103262
103279
103298
103317
103338
103360
103383
103406
103428
103451
103474
103501
103534
103573
103620
103674
103735
103790
103832
103844
103818
103787
103155
103155
103156
103158
103162
103168
103177
103188
103202
103217
103232
103250
103271
103294
103319
103344
103368
103391
103413
103435
103462
103496
103536
103581
103628
103665
103691
103700
103679
103648
103091
103091
103091
103092
103096
103101
103109
103118
103129
103140
103154
103171
103191
103214
103240
103268
103295
103321
103343
103364
103387
103415
103450
103487
103524
103549
103553
103547
103533
103513
103026
103025
103024
103024
103025
103030
103036
103043
103051
103060
103071
103086
103105
103128
103154
103183
103213
103241
103265
103285
103307
103332
103363
103396
103428
103451
103453
103443
103432
103428
102960
102958
102956
102953
102952
102958
102964
102971
102976
102983
102993
103005
103021
103042
103067
103096
103126
103155
103181
103202
103223
103248
103277
103307
103338
103367
103381
103379
103373
103372
102893
102891
102889
102886
102886
102891
102897
102902
102906
102912
102920
102930
102943
102961
102982
103008
103037
103067
103093
103115
103137
103163
103190
103219
103249
103283
103313
103325
103325
103321
102830
102828
102825
102825
102827
102833
102837
102840
102842
102845
102851
102858
102868
102881
102899
102921
102948
102976
103003
103026
103049
103076
103102
103130
103159
103193
103233
103264
103274
103271
102772
102773
102772
102774
102778
102782
102784
102778
102776
102776
102777
102781
102787
102797
102812
102832
102857
102885
102911
102935
102960
102988
103014
103041
103067
103098
103138
103181
103210
103216
102725
102725
102727
102731
102735
102733
102726
102718
102708
102703
102699
102697
102699
102707
102720
102738
102762
102790
102818
102843
102870
102898
102925
102951
102976
103002
103038
103081
103123
103141
102683
102685
102690
102694
102695
102689
102673
102656
102645
102636
102621
102608
102604
102611
102623
102640
102663
102691
102721
102750
102779
102808
102837
102863
102885
102908
102937
102974
103012
103036
102646
102649
102652
102655
102654
102646
102629
102609
102591
102574
102554
102534
102522
102523
102530
102541
102559
102587
102622
102655
102687
102719
102751
102776
102796
102817
102840
102866
102894
102914
102605
102607
102607
102605
102601
102594
102584
102568
102551
102531
102508
102487
102476
102470
102467
102469
102475
102491
102521
102559
102596
102632
102667
102693
102712
102730
102747
102763
102779
102794
102551
102549
102546
102542
102538
102535
102533
102527
102516
102498
102477
102460
102451
102445
102440
102438
102437
102439
102447
102472
102511
102550
102587
102614
102633
102648
102659
102667
102673
102683
102480
102478
102475
102473
102472
102475
102478
102481
102477
102465
102448
102437
102431
102427
102423
102420
102418
102416
102415
102419
102442
102478
102514
102542
102558
102571
102578
102583
102584
102587
102405
102403
102402
102404
102410
102417
102426
102432
102433
102427
102418
102414
102411
102408
102406
102404
102402
102400
102398
102396
102400
102422
102453
102477
102492
102501
102506
102508
102508
102508
102326
102326
102331
102339
102351
102363
102374
102382
102389
102391
102392
102393
102393
102392
102390
102389
102387
102385
102383
102382
102380
102386
102403
102421
102433
102439
102441
102441
102440
102438
102251
102256
102265
102280
102294
102305
102317
102330
102347
102361
102370
102375
102377
102377
102377
102375
102374
102372
102370
102369
102367
102365
102366
102373
102377
102379
102379
102377
102375
102373
102185
102192
102205
102220
102230
102241
102254
102274
102301
102328
102347
102358
102363
102365
102366
102364
102362
102361
102359
102357
102354
102346
102336
102327
102321
102318
102316
102313
102310
102308
102122
102130
102142
102151
102160
102171
102189
102213
102246
102284
102316
102336
102346
102351
102352
102352
102350
102349
102346
102342
102334
102320
102299
102278
102263
102255
102250
102247
102244
102240
102055
102064
102071
102078
102086
102099
102120
102149
102185
102226
102265
102294
102312
102322
102328
102331
102331
102329
102324
102314
102298
102275
102248
102222
102202
102188
102181
102177
102174
102171
101984
101991
101995
102001
102011
102029
102053
102080
102107
102137
102168
102200
102226
102247
102265
102280
102287
102285
102275
102256
102231
102205
102179
102155
102134
102117
102107
102103
102102
102100
101911
101914
101917
101924
101936
101954
101969
101982
101996
102015
102040
102069
102097
102125
102150
102173
102188
102191
102182
102163
102141
102118
102095
102074
102054
102036
102025
102022
102024
102026
101834
101835
101836
101841
101848
101853
101855
101858
101866
101880
101902
101930
101961
101992
102020
102043
102060
102067
102065
102056
102042
102024
102006
101986
101967
101949
101935
101931
101935
101941
101753
101751
101748
101746
101742
101736
101729
101726
101732
101747
101768
101797
101831
101864
101893
101916
101933
101942
101945
101943
101936
101926
101913
101897
101879
101861
101846
101839
101839
101846
101667
101661
101653
101643
101630
101615
101605
101606
101615
101631
101652
101681
101715
101748
101776
101797
101812
101821
101826
101827
101826
101822
101815
101806
101793
101777
101761
101751
101747
101747
101575
101567
101555
101538
101521
101508
101506
101514
101526
101541
101560
101586
101617
101646
101669
101686
101697
101704
101709
101711
101713
101713
101712
101709
101704
101694
101679
101665
101657
101653
101482
101474
101458
101439
101428
101427
101434
101444
101455
101468
101485
101507
101532
101553
101568
101579
101586
101590
101593
101595
101598
101601
101604
101607
101608
101606
101598
101583
101571
101569
101394
101384
101368
101358
101359
101368
101378
101386
101394
101404
101419
101437
101453
101463
101469
101473
101475
101476
101477
101479
101483
101488
101494
101500
101506
101511
101511
101502
101489
101485
101314
101307
101298
101299
101307
101317
101326
101334
101341
101348
101360
101369
101371
101370
101369
101367
101365
101363
101362
101363
101367
101373
101382
101391
101400
101409
101416
101416
101408
101399
101246
101245
101245
101252
101262
101271
101278
101284
101290
101299
101303
101294
101283
101275
101268
101262
101256
101251
101247
101246
101249
101257
101269
101281
101293
101305
101315
101323
101323
101312
101186
101190
101199
101207
101217
101225
101231
101236
101242
101245
101227
101207
101190
101177
101168
101160
101152
101145
101138
101133
101133
101140
101155
101171
101186
101200
101213
101223
101230
101228
101127
101134
101147
101157
101168
101175
101182
101187
101183
101161
101134
101111
101093
101080
101071
101063
101055
101047
101039
101031
101026
101029
101042
101061
101080
101096
101109
101122
101132
101138
101063
101073
101086
101099
101110
101117
101117
101107
101084
101057
101031
101008
100993
100984
100978
100972
100966
100959
100951
100942
100936
100934
100939
100955
100974
100992
101006
101018
101029
101037
100996
101007
101020
101031
101032
101026
101013
100994
100969
100943
100920
100904
100895
100890
100888
100885
100882
100878
100872
100865
100858
100853
100851
100858
100873
100890
100904
100915
100923
100929
100926
100937
100944
100942
100930
100914
100895
100873
100848
100825
100810
100803
100800
100800
100801
100801
100800
100798
100794
100789
100783
100778
100774
100774
100780
100790
100802
100812
100818
100822
100850
100856
100850
100836
100818
100797
100775
100749
100727
100716
100711
100711
100713
100715
100717
100719
100720
100719
100717
100714
100709
100703
100700
100697
100694
100696
100702
100710
100714
100716
100766
100760
100745
100726
100704
100681
100654
100632
100624
100623
100626
100629
100632
100635
100637
100639
100641
100641
100641
100638
100633
100628
100625
100622
100613
100607
100606
100608
100611
100611
100665
100653
100635
100614
100591
100565
100542
100535
100537
100545
100550
100554
100557
100559
100560
100562
100564
100565
100564
100562
100557
100551
100546
100544
100533
100521
100514
100509
100506
100505
100554
100542
100525
100503
100479
100456
100448
100453
100463
100471
100477
100480
100482
100484
100486
100487
100488
100489
100489
100486
100481
100473
100463
100458
100448
100435
100424
100413
100400
100395
100441
100431
100415
100394
100373
100365
100369
100380
100392
100398
100402
100404
100407
100410
100412
100414
100415
100416
100416
100413
100407
100396
100382
100372
100363
100349
100337
100321
100294
100282
100333
100324
100308
100290
100281
100286
100298
100311
100320
100324
100327
100330
100333
100336
100339
100342
100344
100345
100344
100342
100336
100325
100310
100294
100281
100265
100253
100232
100210
100202
100230
100221
100206
100198
100202
100215
100230
100242
100248
100252
100255
100258
100261
100265
100268
100271
100274
100276
100276
100274
100270
100261
100247
100226
100204
100189
100175
100165
100154
100150
100133
100125
100116
100117
100132
100148
100163
100172
100178
100181
100185
100189
100192
100195
100198
100202
100206
100209
100210
100210
100208
100202
100190
100168
100144
100128
100119
100116
100113
100111
100050
100049
100046
100048
100064
100081
100095
100105
100110
100113
100116
100120
100124
100128
100130
100133
100139
100144
100147
100149
100149
100147
100139
100123
100106
100092
100084
100080
100073
100071
100015
100015
100015
100016
100019
100025
100034
100044
100050
100051
100051
100054
100059
100062
100064
100066
100075
100083
100086
100092
100095
100096
100095
100088
100079
100067
100056
100043
100035
100032
100008
100008
100008
100008
100008
100009
100011
100013
100015
100016
100016
100016
100017
100019
100020
100022
100028
100036
100036
100041
100046
100051
100055
100055
100051
100040
100027
100017
100014
100013
100007
100007
100007
100007
100007
100007
100007
100007
100008
100008
100007
100007
100007
100008
100008
100009
100011
100013
100012
100013
100016
100019
100023
100024
100021
100015
100011
100008
100008
100008
100007
100007
100007
100007
100007
100007
100007
100007
100007
100007
100007
100007
100007
100007
100007
100007
100007
100007
100007
100007
100007
100008
100009
100009
100008
100007
100007
100007
100008
100008
100007
100007
100007
100007
100007
100007
100007
100007
100007
100007
100007
100007
100007
100007
100007
100007
100007
100007
100007
100007
100006
100006
100006
100007
100007
100007
100007
100007
100008
100008
100007
100007
100007
100007
100007
100007
100007
100007
100007
100007
100007
100007
100007
100007
100007
100007
100007
100007
100007
100007
100007
100007
100007
100007
100007
100007
100007
100007
100007
100007
100007
100007
100007
100007
100007
100007
100007
100007
100007
100007
100007
100007
100007
100007
100007
100007
100007
100007
100007
100007
100007
100007
100007