/*--------------------------------*- C++ -*----------------------------------*\
| =========                 |                                                 |
| \\      /  F ield         | OpenFOAM: The Open Source CFD Toolbox           |
|  \\    /   O peration     | Version:  2.3.0                                 |
|   \\  /    A nd           | Web:      www.OpenFOAM.org                      |
|    \\/     M anipulation  |                                                 |
\*---------------------------------------------------------------------------*/
FoamFile
{
    version     2.0;
    format      ascii;
    class       volScalarField;
    location    "1.32";
    object      pMean;
}
// * * * * * * * * * * * * * * * * * * * * * * * * * * * * * * * * * * * * * //

dimensions      [1 -1 -2 0 0 0 0];

internalField   nonuniform List<scalar> 
6000
(
106445
106445
106443
106441
106439
106438
106439
106439
106438
106440
106440
106440
106440
106439
106440
106442
106442
106441
106441
106441
106440
106440
106440
106440
106440
106442
106444
106446
106446
106447
106376
106374
106372
106370
106368
106368
106368
106367
106367
106368
106369
106368
106367
106367
106368
106369
106370
106370
106369
106369
106368
106367
106366
106365
106367
106370
106373
106375
106375
106378
106325
106324
106321
106320
106320
106319
106319
106319
106319
106321
106321
106320
106318
106317
106318
106319
106321
106322
106321
106321
106320
106318
106315
106314
106317
106320
106323
106325
106324
106326
106270
106269
106267
106267
106267
106267
106267
106268
106269
106269
106269
106268
106267
106266
106266
106268
106271
106272
106271
106270
106268
106266
106263
106263
106266
106268
106271
106271
106271
106272
106216
106215
106213
106214
106215
106215
106215
106216
106217
106217
106217
106217
106216
106217
106219
106221
106223
106223
106222
106220
106218
106216
106215
106215
106216
106217
106218
106219
106218
106219
106163
106162
106161
106160
106161
106163
106164
106165
106166
106166
106166
106166
106168
106171
106173
106175
106175
106174
106172
106171
106169
106168
106167
106166
106165
106165
106166
106167
106167
106169
106111
106110
106108
106107
106109
106112
106114
106115
106115
106116
106117
106119
106122
106126
106128
106129
106127
106126
106125
106123
106121
106120
106119
106118
106116
106115
106116
106117
106119
106121
106061
106059
106056
106056
106059
106063
106066
106066
106066
106067
106069
106073
106077
106080
106082
106080
106078
106077
106076
106074
106073
106073
106072
106071
106069
106068
106068
106070
106073
106075
106011
106008
106006
106007
106011
106016
106019
106020
106020
106021
106024
106028
106031
106033
106034
106032
106029
106028
106027
106026
106026
106026
106026
106026
106024
106023
106023
106026
106029
106032
105963
105960
105958
105959
105964
105969
105973
105975
105975
105976
105979
105983
105985
105986
105986
105983
105982
105981
105980
105979
105980
105981
105982
105981
105980
105979
105980
105982
105987
105989
105916
105913
105912
105913
105917
105922
105928
105931
105932
105933
105935
105938
105939
105939
105938
105936
105935
105935
105934
105934
105935
105936
105936
105935
105935
105935
105936
105940
105945
105947
105870
105868
105867
105868
105871
105876
105882
105886
105888
105888
105889
105891
105892
105892
105891
105890
105890
105890
105889
105889
105890
105890
105889
105889
105889
105890
105892
105897
105903
105906
105826
105825
105823
105824
105826
105831
105836
105841
105843
105843
105843
105844
105846
105846
105845
105845
105845
105845
105844
105844
105844
105842
105841
105841
105842
105844
105848
105853
105859
105863
105783
105782
105781
105780
105783
105787
105791
105796
105799
105798
105797
105797
105799
105800
105800
105800
105800
105799
105798
105798
105797
105795
105793
105792
105793
105797
105802
105808
105814
105817
105741
105740
105739
105738
105740
105743
105747
105751
105754
105754
105752
105751
105753
105755
105755
105756
105755
105754
105753
105751
105749
105747
105744
105743
105745
105750
105756
105762
105766
105769
105698
105697
105697
105697
105698
105700
105703
105706
105709
105709
105707
105706
105707
105709
105710
105710
105710
105709
105707
105705
105702
105699
105696
105695
105698
105703
105709
105714
105717
105720
105656
105655
105656
105656
105656
105658
105660
105662
105665
105665
105663
105662
105662
105664
105664
105665
105664
105663
105661
105658
105654
105650
105648
105647
105650
105655
105660
105664
105667
105669
105614
105614
105615
105615
105615
105616
105617
105619
105620
105621
105620
105619
105618
105619
105619
105619
105619
105618
105616
105612
105607
105602
105599
105599
105602
105606
105610
105613
105615
105617
105572
105573
105574
105574
105574
105574
105575
105576
105576
105578
105577
105576
105575
105574
105574
105573
105573
105572
105569
105564
105559
105554
105552
105552
105554
105556
105559
105561
105563
105565
105532
105532
105533
105533
105532
105532
105532
105533
105533
105533
105534
105533
105531
105530
105529
105528
105527
105525
105522
105517
105511
105507
105505
105504
105506
105507
105509
105511
105512
105514
105491
105492
105492
105492
105491
105491
105490
105490
105489
105489
105490
105489
105488
105486
105485
105483
105481
105479
105475
105469
105464
105461
105459
105458
105458
105459
105460
105462
105463
105464
105450
105451
105452
105451
105450
105449
105448
105447
105445
105445
105445
105446
105445
105443
105442
105439
105436
105433
105428
105422
105418
105415
105413
105412
105411
105411
105413
105415
105416
105416
105409
105409
105410
105410
105409
105408
105406
105404
105402
105401
105401
105402
105402
105401
105398
105395
105392
105388
105382
105376
105371
105369
105367
105365
105364
105364
105365
105367
105368
105368
105366
105367
105368
105368
105368
105366
105363
105361
105360
105359
105358
105359
105358
105357
105355
105351
105347
105343
105336
105329
105324
105321
105320
105319
105317
105317
105318
105319
105320
105318
105323
105323
105324
105326
105326
105324
105320
105318
105317
105316
105315
105315
105315
105314
105311
105308
105303
105297
105289
105281
105276
105273
105271
105271
105270
105269
105269
105270
105269
105267
105280
105280
105281
105282
105282
105280
105276
105274
105274
105273
105273
105273
105272
105270
105268
105264
105258
105250
105242
105235
105230
105227
105224
105222
105221
105220
105219
105218
105216
105215
105237
105236
105237
105237
105237
105235
105232
105231
105230
105230
105230
105230
105228
105226
105224
105220
105213
105205
105197
105190
105185
105182
105179
105177
105174
105171
105169
105166
105164
105163
105193
105192
105192
105192
105191
105190
105188
105187
105186
105187
105187
105187
105185
105181
105179
105174
105167
105161
105154
105147
105141
105138
105136
105133
105128
105125
105122
105118
105116
105115
105148
105147
105147
105146
105145
105144
105143
105142
105142
105143
105143
105143
105140
105137
105133
105129
105123
105118
105111
105104
105098
105095
105092
105088
105083
105080
105076
105072
105070
105069
105103
105101
105100
105099
105098
105098
105097
105097
105097
105098
105099
105098
105096
105092
105088
105084
105080
105075
105068
105061
105055
105051
105047
105042
105038
105034
105030
105027
105025
105024
105058
105055
105054
105053
105052
105053
105052
105052
105052
105053
105054
105053
105051
105048
105043
105039
105036
105031
105025
105017
105010
105006
105001
104996
104992
104989
104985
104982
104980
104980
105012
105010
105008
105007
105007
105008
105007
105007
105008
105009
105009
105009
105007
105003
104999
104995
104991
104987
104980
104972
104965
104960
104955
104950
104947
104944
104940
104938
104936
104936
104966
104964
104963
104962
104962
104963
104963
104963
104963
104964
104964
104964
104962
104959
104955
104951
104946
104942
104934
104927
104920
104915
104910
104905
104902
104900
104897
104895
104893
104892
104919
104918
104917
104917
104917
104918
104918
104919
104919
104920
104920
104919
104917
104915
104910
104906
104901
104896
104888
104882
104876
104871
104866
104862
104860
104858
104855
104852
104850
104849
104872
104871
104871
104872
104872
104874
104874
104875
104875
104875
104875
104874
104872
104869
104865
104860
104855
104849
104843
104837
104832
104827
104823
104820
104819
104817
104813
104810
104807
104807
104824
104824
104825
104826
104827
104829
104831
104831
104831
104831
104830
104829
104826
104823
104819
104814
104809
104803
104798
104792
104788
104784
104781
104780
104779
104776
104771
104767
104764
104764
104777
104777
104778
104780
104782
104785
104787
104787
104787
104786
104784
104783
104780
104777
104772
104768
104763
104757
104753
104748
104745
104742
104741
104740
104738
104734
104728
104724
104721
104721
104730
104731
104732
104734
104737
104740
104742
104742
104741
104740
104738
104736
104733
104730
104725
104721
104717
104712
104708
104704
104702
104700
104700
104699
104696
104691
104685
104681
104679
104679
104685
104686
104686
104688
104691
104695
104697
104697
104695
104694
104692
104690
104687
104683
104679
104675
104671
104667
104664
104661
104659
104658
104659
104657
104653
104647
104642
104639
104637
104637
104640
104641
104641
104642
104645
104649
104652
104651
104649
104647
104646
104643
104641
104637
104633
104629
104626
104622
104619
104617
104616
104616
104617
104615
104610
104604
104600
104598
104597
104597
104595
104595
104595
104597
104599
104603
104606
104606
104603
104601
104599
104597
104594
104591
104588
104584
104581
104577
104575
104574
104573
104574
104574
104572
104567
104563
104559
104558
104557
104558
104550
104549
104550
104551
104554
104557
104560
104559
104557
104555
104553
104551
104549
104546
104542
104539
104536
104533
104531
104531
104530
104531
104531
104529
104526
104522
104520
104519
104519
104520
104504
104503
104504
104506
104509
104512
104514
104513
104511
104509
104507
104505
104503
104500
104497
104494
104491
104489
104487
104487
104487
104488
104488
104487
104485
104483
104482
104482
104482
104483
104458
104458
104459
104461
104464
104466
104468
104467
104465
104463
104462
104460
104457
104454
104451
104448
104446
104444
104443
104444
104444
104445
104445
104445
104445
104444
104444
104443
104444
104444
104413
104413
104415
104417
104419
104421
104421
104421
104419
104417
104416
104414
104411
104408
104405
104402
104400
104399
104399
104400
104402
104402
104403
104404
104405
104405
104405
104405
104405
104405
104369
104370
104371
104373
104375
104375
104375
104374
104373
104371
104369
104367
104364
104361
104358
104356
104354
104353
104354
104356
104358
104360
104361
104363
104364
104364
104365
104365
104365
104365
104327
104327
104328
104329
104330
104330
104329
104328
104326
104324
104322
104319
104316
104313
104310
104309
104308
104307
104308
104311
104314
104316
104319
104321
104322
104323
104323
104324
104324
104324
104285
104285
104286
104286
104286
104284
104283
104281
104279
104276
104273
104270
104267
104264
104262
104261
104261
104261
104262
104265
104269
104272
104275
104278
104279
104279
104280
104280
104281
104281
104242
104242
104242
104242
104241
104239
104236
104233
104229
104226
104222
104219
104217
104214
104213
104213
104213
104214
104216
104220
104223
104227
104230
104233
104234
104234
104235
104236
104236
104236
104198
104198
104198
104196
104194
104192
104188
104183
104178
104173
104170
104167
104166
104165
104165
104165
104166
104167
104170
104174
104177
104180
104183
104186
104187
104188
104189
104190
104191
104190
104153
104153
104151
104149
104146
104142
104138
104131
104124
104119
104117
104115
104115
104115
104116
104117
104118
104120
104124
104128
104130
104132
104134
104137
104139
104140
104142
104144
104144
104144
104104
104103
104101
104099
104095
104091
104086
104077
104069
104065
104064
104064
104065
104066
104067
104068
104070
104073
104077
104080
104082
104083
104085
104088
104090
104092
104094
104096
104097
104097
104053
104051
104048
104046
104043
104039
104033
104024
104017
104014
104014
104015
104017
104018
104019
104020
104021
104025
104029
104031
104032
104033
104035
104038
104041
104044
104046
104048
104049
104049
103999
103997
103994
103992
103990
103986
103980
103973
103967
103966
103967
103969
103970
103971
103971
103972
103973
103976
103978
103980
103981
103982
103985
103988
103992
103995
103998
104001
104001
104001
103945
103943
103942
103940
103938
103935
103930
103924
103921
103921
103922
103923
103924
103924
103924
103924
103924
103925
103927
103929
103930
103932
103935
103939
103944
103947
103950
103953
103953
103954
103894
103893
103892
103890
103888
103886
103882
103879
103877
103877
103878
103879
103878
103878
103877
103876
103875
103873
103875
103877
103878
103881
103886
103891
103896
103900
103903
103905
103906
103906
103845
103845
103844
103842
103840
103839
103837
103835
103834
103834
103834
103834
103833
103831
103830
103828
103826
103823
103824
103826
103828
103832
103837
103843
103848
103853
103855
103857
103859
103860
103799
103798
103796
103795
103794
103794
103793
103792
103791
103790
103790
103789
103787
103786
103784
103781
103778
103776
103775
103778
103781
103785
103791
103796
103802
103806
103808
103810
103812
103813
103753
103751
103750
103749
103749
103749
103750
103750
103748
103746
103745
103744
103742
103740
103738
103735
103732
103731
103731
103733
103736
103741
103746
103751
103756
103759
103762
103763
103765
103766
103707
103705
103704
103703
103703
103705
103707
103707
103705
103703
103701
103699
103697
103694
103692
103690
103688
103688
103688
103690
103693
103697
103702
103707
103711
103714
103715
103716
103718
103720
103660
103659
103658
103657
103658
103661
103663
103663
103661
103659
103656
103654
103651
103649
103647
103645
103645
103645
103646
103647
103650
103655
103660
103664
103668
103670
103670
103671
103672
103673
103612
103611
103611
103611
103612
103615
103617
103618
103617
103614
103611
103608
103606
103604
103602
103601
103601
103602
103603
103605
103607
103612
103617
103621
103625
103626
103625
103626
103626
103626
103562
103562
103562
103563
103564
103567
103570
103571
103571
103569
103566
103563
103560
103558
103557
103557
103557
103558
103560
103561
103564
103569
103573
103578
103581
103581
103580
103581
103581
103580
103510
103511
103511
103513
103515
103518
103521
103523
103523
103522
103520
103517
103514
103513
103511
103511
103512
103514
103516
103518
103520
103525
103529
103533
103535
103536
103535
103535
103535
103534
103458
103459
103460
103462
103464
103467
103470
103472
103473
103473
103470
103468
103467
103466
103465
103465
103467
103468
103471
103473
103476
103480
103484
103487
103488
103488
103487
103487
103486
103486
103406
103406
103407
103409
103411
103414
103417
103419
103420
103420
103419
103417
103417
103417
103417
103418
103420
103422
103425
103428
103431
103434
103437
103438
103439
103438
103437
103436
103436
103435
103353
103353
103354
103355
103357
103360
103362
103364
103365
103366
103366
103365
103364
103365
103367
103369
103372
103375
103378
103381
103383
103385
103387
103388
103388
103387
103385
103384
103383
103383
103301
103300
103300
103301
103303
103305
103307
103308
103309
103310
103311
103311
103311
103312
103315
103318
103322
103325
103329
103331
103333
103335
103336
103336
103336
103334
103332
103330
103330
103330
103249
103248
103247
103247
103248
103250
103252
103252
103253
103254
103255
103255
103255
103257
103261
103265
103270
103274
103277
103280
103281
103283
103283
103284
103283
103281
103279
103277
103275
103276
103197
103195
103195
103194
103195
103196
103196
103196
103196
103196
103197
103197
103199
103201
103205
103210
103216
103221
103224
103226
103228
103229
103230
103231
103230
103229
103226
103223
103221
103222
103144
103144
103143
103142
103142
103142
103141
103140
103139
103138
103138
103139
103141
103144
103149
103155
103161
103165
103168
103170
103172
103175
103177
103178
103178
103176
103174
103171
103168
103168
103090
103091
103090
103089
103089
103088
103086
103084
103081
103079
103079
103080
103082
103086
103092
103098
103104
103109
103111
103114
103116
103120
103123
103125
103126
103125
103122
103119
103117
103117
103035
103036
103036
103035
103034
103033
103031
103028
103023
103019
103019
103021
103024
103029
103035
103042
103048
103052
103055
103057
103060
103065
103069
103073
103075
103074
103072
103069
103067
103066
102977
102979
102979
102979
102978
102977
102975
102971
102965
102962
102962
102964
102968
102974
102980
102986
102992
102996
102999
103001
103005
103009
103015
103020
103024
103024
103023
103021
103019
103018
102919
102920
102921
102921
102921
102920
102918
102914
102909
102907
102909
102911
102916
102922
102928
102933
102937
102941
102943
102946
102949
102954
102961
102967
102972
102974
102975
102973
102971
102970
102861
102862
102863
102862
102863
102863
102860
102857
102855
102856
102858
102862
102866
102872
102877
102882
102885
102888
102890
102892
102894
102899
102906
102913
102919
102923
102925
102924
102923
102922
102804
102804
102805
102805
102806
102806
102804
102803
102803
102806
102809
102814
102819
102824
102829
102833
102835
102837
102838
102839
102841
102844
102850
102858
102865
102870
102873
102874
102874
102872
102749
102749
102750
102751
102751
102752
102752
102752
102754
102757
102762
102767
102772
102777
102781
102785
102787
102788
102788
102788
102790
102792
102797
102804
102811
102816
102819
102820
102821
102820
102696
102696
102697
102698
102699
102700
102702
102704
102707
102711
102716
102722
102726
102731
102735
102738
102740
102740
102740
102740
102741
102743
102746
102750
102756
102761
102763
102765
102766
102766
102645
102645
102646
102647
102649
102651
102654
102657
102662
102667
102672
102677
102681
102685
102688
102690
102691
102692
102692
102693
102694
102695
102697
102699
102703
102707
102709
102709
102710
102711
102595
102595
102596
102598
102600
102602
102606
102611
102617
102622
102627
102631
102635
102637
102639
102640
102641
102642
102644
102645
102646
102647
102648
102649
102651
102654
102655
102655
102654
102654
102544
102544
102546
102548
102552
102554
102558
102563
102570
102576
102581
102584
102586
102588
102590
102591
102592
102593
102594
102596
102597
102599
102600
102599
102600
102601
102602
102601
102599
102599
102494
102493
102495
102499
102503
102506
102510
102515
102522
102528
102533
102536
102538
102540
102540
102541
102542
102543
102545
102546
102548
102549
102550
102549
102548
102548
102547
102547
102545
102544
102442
102442
102444
102448
102452
102457
102461
102467
102473
102478
102483
102487
102489
102491
102492
102492
102493
102494
102495
102496
102498
102498
102498
102497
102495
102493
102492
102491
102489
102489
102390
102391
102393
102397
102401
102405
102411
102417
102423
102428
102432
102436
102439
102441
102443
102443
102443
102444
102445
102446
102446
102445
102445
102443
102441
102439
102437
102435
102433
102432
102338
102339
102342
102345
102349
102353
102358
102365
102371
102376
102380
102384
102388
102390
102392
102393
102393
102394
102394
102393
102392
102392
102391
102389
102386
102384
102382
102379
102377
102376
102286
102287
102290
102293
102296
102299
102305
102312
102318
102323
102328
102332
102335
102338
102340
102341
102342
102342
102341
102340
102339
102338
102336
102334
102332
102330
102327
102324
102322
102321
102233
102235
102237
102239
102242
102246
102251
102259
102265
102270
102275
102278
102281
102285
102287
102289
102289
102288
102287
102286
102285
102284
102282
102280
102278
102275
102272
102270
102268
102266
102179
102181
102183
102185
102187
102191
102197
102205
102212
102217
102222
102225
102228
102231
102233
102234
102234
102233
102232
102231
102231
102230
102228
102226
102224
102221
102217
102215
102213
102211
102125
102126
102128
102130
102132
102136
102143
102151
102158
102163
102168
102171
102174
102176
102178
102178
102178
102177
102177
102177
102178
102178
102176
102173
102171
102167
102163
102160
102158
102157
102069
102070
102072
102074
102077
102083
102090
102097
102104
102109
102114
102117
102119
102121
102122
102122
102122
102122
102123
102125
102127
102127
102124
102121
102118
102114
102110
102106
102104
102104
102014
102014
102016
102018
102024
102031
102038
102044
102050
102055
102059
102062
102064
102066
102067
102068
102068
102069
102071
102073
102075
102075
102073
102069
102065
102060
102056
102053
102052
102052
101958
101959
101961
101964
101971
101979
101986
101992
101997
102001
102004
102007
102009
102011
102012
102013
102014
102015
102018
102020
102021
102021
102020
102016
102011
102006
102003
102001
102001
102001
101903
101904
101906
101910
101917
101925
101933
101938
101943
101947
101949
101951
101953
101955
101957
101958
101959
101962
101964
101966
101967
101967
101965
101962
101957
101953
101950
101949
101949
101950
101849
101850
101852
101855
101862
101870
101878
101884
101888
101891
101893
101894
101896
101898
101900
101902
101904
101907
101909
101912
101913
101912
101911
101908
101904
101900
101897
101896
101896
101897
101795
101795
101797
101800
101807
101814
101822
101828
101832
101835
101837
101837
101838
101839
101841
101844
101847
101851
101854
101857
101858
101858
101856
101854
101851
101847
101844
101842
101843
101843
101740
101740
101742
101745
101752
101759
101766
101773
101777
101780
101781
101781
101781
101780
101781
101785
101789
101794
101799
101802
101804
101803
101802
101800
101797
101793
101790
101788
101787
101787
101686
101687
101688
101692
101698
101705
101712
101718
101722
101725
101726
101726
101725
101724
101724
101726
101730
101736
101742
101746
101748
101748
101746
101745
101742
101739
101734
101731
101729
101727
101634
101633
101635
101640
101647
101653
101659
101665
101669
101672
101672
101672
101672
101670
101670
101670
101673
101678
101684
101689
101691
101692
101691
101689
101687
101683
101677
101672
101669
101666
101583
101584
101587
101592
101598
101604
101609
101615
101619
101621
101622
101622
101621
101620
101619
101618
101619
101622
101627
101633
101636
101637
101635
101634
101631
101626
101620
101614
101609
101605
101537
101538
101542
101547
101553
101558
101563
101567
101571
101573
101574
101574
101574
101574
101573
101571
101570
101571
101575
101579
101582
101583
101582
101579
101575
101570
101564
101557
101552
101548
101493
101494
101498
101503
101509
101513
101517
101521
101523
101525
101527
101528
101528
101528
101528
101526
101524
101523
101525
101527
101529
101530
101528
101525
101521
101515
101508
101502
101497
101494
101449
101451
101454
101460
101465
101469
101472
101475
101476
101478
101480
101481
101482
101482
101482
101481
101479
101477
101476
101477
101478
101477
101475
101471
101467
101460
101453
101447
101444
101442
101406
101407
101411
101416
101420
101424
101427
101429
101430
101432
101433
101433
101434
101435
101436
101435
101433
101431
101429
101428
101427
101425
101422
101418
101412
101405
101398
101394
101392
101392
101363
101364
101367
101371
101375
101378
101380
101382
101384
101385
101385
101384
101384
101385
101386
101386
101385
101383
101381
101378
101376
101373
101370
101366
101360
101352
101346
101344
101343
101343
101319
101320
101322
101325
101329
101331
101333
101335
101336
101336
101335
101333
101332
101333
101333
101334
101333
101332
101331
101329
101326
101322
101318
101314
101308
101302
101299
101297
101296
101296
101274
101275
101277
101279
101282
101283
101285
101287
101287
101286
101283
101281
101279
101278
101278
101279
101279
101279
101279
101278
101274
101271
101268
101264
101260
101256
101253
101252
101250
101250
101229
101229
101230
101232
101234
101235
101236
101237
101236
101234
101230
101227
101224
101223
101223
101224
101224
101225
101225
101224
101222
101220
101218
101215
101213
101211
101209
101208
101206
101206
101184
101183
101184
101185
101186
101186
101186
101185
101183
101180
101176
101173
101172
101171
101171
101171
101171
101171
101171
101170
101170
101170
101169
101167
101167
101167
101166
101165
101163
101163
101139
101138
101137
101137
101137
101135
101133
101130
101128
101126
101124
101123
101123
101123
101122
101122
101122
101122
101120
101120
101120
101121
101121
101120
101120
101121
101122
101122
101121
101120
101093
101091
101090
101088
101086
101082
101079
101077
101076
101076
101076
101076
101077
101077
101077
101077
101076
101076
101074
101073
101073
101073
101074
101073
101073
101074
101076
101077
101077
101077
101045
101044
101041
101038
101035
101031
101029
101029
101030
101031
101032
101033
101034
101035
101035
101035
101034
101033
101031
101029
101028
101028
101028
101028
101027
101026
101027
101029
101031
101032
100996
100995
100992
100989
100986
100984
100984
100985
100987
100989
100991
100992
100994
100994
100994
100994
100993
100991
100989
100986
100984
100984
100984
100984
100983
100981
100980
100981
100983
100985
100946
100945
100943
100941
100941
100942
100943
100945
100947
100950
100952
100953
100954
100955
100955
100954
100953
100951
100948
100944
100942
100940
100941
100941
100940
100938
100936
100936
100936
100937
100898
100898
100897
100897
100899
100901
100904
100906
100909
100911
100913
100914
100915
100915
100915
100914
100913
100910
100907
100903
100900
100898
100898
100899
100898
100897
100895
100893
100893
100893
100853
100855
100856
100856
100859
100863
100866
100869
100871
100873
100874
100875
100876
100876
100875
100874
100872
100870
100866
100863
100859
100856
100855
100856
100856
100855
100854
100852
100851
100850
100814
100815
100815
100817
100820
100825
100829
100831
100833
100834
100835
100835
100835
100835
100834
100833
100831
100828
100825
100821
100818
100815
100813
100813
100813
100813
100812
100810
100808
100807
100776
100776
100776
100778
100782
100787
100791
100793
100794
100795
100794
100794
100794
100794
100793
100791
100789
100786
100783
100779
100776
100772
100770
100769
100768
100768
100768
100766
100764
100762
100737
100737
100738
100739
100742
100747
100751
100753
100754
100754
100753
100753
100752
100752
100751
100749
100746
100744
100740
100737
100733
100729
100726
100724
100722
100721
100721
100720
100718
100717
100698
100698
100698
100699
100701
100706
100710
100711
100712
100712
100711
100711
100710
100710
100708
100706
100704
100701
100697
100694
100691
100687
100682
100679
100676
100674
100673
100672
100671
100671
100657
100658
100658
100658
100659
100663
100667
100669
100670
100670
100669
100669
100668
100668
100667
100664
100661
100658
100654
100651
100648
100644
100640
100635
100632
100629
100628
100626
100625
100625
100617
100617
100617
100617
100618
100621
100625
100627
100627
100628
100628
100628
100627
100627
100625
100623
100619
100616
100612
100610
100607
100603
100598
100593
100590
100587
100585
100583
100582
100582
100579
100578
100577
100577
100578
100580
100583
100585
100587
100587
100588
100588
100587
100587
100585
100582
100579
100575
100572
100569
100567
100563
100559
100554
100550
100547
100545
100543
100541
100542
100541
100540
100539
100539
100539
100541
100543
100546
100548
100549
100549
100549
100549
100548
100546
100543
100540
100536
100533
100531
100528
100526
100522
100517
100513
100510
100508
100505
100504
100504
100505
100504
100503
100502
100502
100504
100506
100508
100510
100512
100513
100513
100512
100511
100509
100506
100503
100500
100497
100494
100492
100490
100487
100482
100479
100476
100473
100470
100469
100469
100470
100469
100468
100467
100467
100468
100470
100472
100474
100476
100477
100477
100477
100476
100474
100471
100468
100465
100462
100460
100458
100456
100453
100449
100446
100442
100439
100437
100436
100436
100437
100435
100434
100433
100432
100433
100435
100437
100440
100442
100443
100443
100442
100442
100440
100438
100435
100432
100429
100427
100425
100423
100421
100417
100413
100410
100407
100406
100405
100405
100404
100402
100401
100399
100399
100399
100401
100404
100407
100409
100410
100411
100410
100409
100408
100406
100403
100401
100398
100395
100393
100391
100389
100386
100382
100379
100376
100375
100375
100376
100372
100371
100369
100367
100367
100368
100370
100373
100376
100379
100380
100381
100380
100380
100378
100377
100374
100371
100368
100364
100362
100361
100359
100356
100352
100349
100347
100347
100347
100347
100341
100340
100339
100338
100338
100338
100341
100344
100348
100351
100352
100354
100353
100352
100351
100350
100347
100344
100340
100336
100333
100331
100330
100328
100324
100322
100320
100320
100320
100320
100312
100311
100311
100310
100310
100311
100313
100317
100321
100325
100327
100328
100328
100327
100326
100324
100322
100318
100314
100310
100306
100303
100302
100300
100299
100297
100296
100295
100294
100293
100285
100285
100285
100285
100285
100286
100288
100291
100296
100300
100303
100304
100304
100303
100302
100301
100298
100294
100290
100285
100281
100277
100275
100274
100274
100273
100272
100271
100269
100267
100261
100261
100261
100261
100261
100262
100264
100268
100273
100277
100280
100281
100282
100281
100280
100279
100276
100272
100267
100262
100258
100254
100250
100248
100248
100248
100247
100245
100243
100242
100238
100237
100237
100237
100237
100239
100241
100246
100251
100255
100258
100260
100261
100260
100259
100258
100255
100251
100246
100241
100236
100231
100227
100224
100222
100221
100220
100219
100218
100217
100214
100213
100212
100213
100215
100217
100220
100225
100230
100234
100238
100240
100241
100240
100240
100238
100235
100231
100226
100221
100215
100210
100206
100202
100199
100196
100194
100194
100195
100195
100190
100190
100190
100192
100194
100197
100201
100205
100210
100214
100217
100220
100221
100221
100220
100219
100215
100211
100207
100201
100196
100191
100186
100182
100177
100174
100172
100172
100174
100174
100169
100169
100170
100172
100175
100178
100182
100187
100192
100196
100199
100201
100202
100202
100201
100200
100197
100193
100188
100183
100178
100173
100168
100163
100158
100154
100152
100153
100154
100155
100151
100151
100152
100154
100157
100161
100165
100170
100175
100178
100181
100184
100185
100185
100184
100182
100179
100176
100172
100167
100162
100157
100151
100146
100141
100137
100135
100135
100137
100137
100135
100135
100136
100139
100141
100145
100149
100154
100159
100162
100165
100167
100169
100169
100167
100166
100163
100160
100156
100151
100146
100141