/*--------------------------------*- C++ -*----------------------------------*\
| =========                 |                                                 |
| \\      /  F ield         | OpenFOAM: The Open Source CFD Toolbox           |
|  \\    /   O peration     | Version:  2.3.0                                 |
|   \\  /    A nd           | Web:      www.OpenFOAM.org                      |
|    \\/     M anipulation  |                                                 |
\*---------------------------------------------------------------------------*/
FoamFile
{
    version     2.0;
    format      ascii;
    class       volScalarField;
    location    "66";
    object      p;
}
// * * * * * * * * * * * * * * * * * * * * * * * * * * * * * * * * * * * * * //

dimensions      [1 -1 -2 0 0 0 0];

internalField   nonuniform List<scalar> 
1875
(
107093
107098
107099
107097
107094
107090
107085
107079
107074
107069
107064
107061
107058
107056
107056
107056
107058
107060
107063
107066
107068
107070
107071
107072
107075
106950
106952
106950
106947
106943
106939
106935
106930
106926
106922
106919
106916
106915
106915
106915
106916
106918
106920
106923
106925
106928
106930
106933
106935
106938
106853
106853
106850
106846
106841
106837
106832
106828
106824
106822
106820
106818
106818
106818
106819
106821
106823
106825
106828
106831
106833
106835
106837
106839
106840
106734
106730
106726
106722
106718
106713
106709
106705
106702
106700
106698
106698
106698
106700
106703
106706
106710
106713
106717
106720
106722
106724
106726
106727
106728
106617
106610
106607
106605
106602
106598
106595
106592
106590
106588
106588
106588
106589
106592
106595
106599
106604
106608
106612
106615
106617
106619
106620
106620
106620
106502
106494
106493
106491
106489
106486
106483
106481
106480
106479
106480
106481
106483
106486
106491
106495
106500
106504
106508
106511
106513
106514
106515
106515
106514
106394
106385
106384
106383
106381
106379
106378
106376
106376
106376
106377
106379
106382
106386
106391
106395
106399
106403
106406
106408
106409
106410
106411
106411
106409
106289
106280
106280
106279
106278
106277
106276
106276
106276
106277
106279
106281
106285
106288
106292
106296
106299
106302
106304
106305
106306
106306
106306
106306
106304
106186
106177
106178
106177
106177
106177
106177
106178
106178
106179
106181
106183
106186
106189
106192
106195
106197
106199
106200
106201
106201
106201
106200
106200
106198
106084
106076
106077
106077
106078
106078
106078
106079
106079
106080
106081
106083
106085
106087
106090
106092
106093
106094
106095
106095
106095
106095
106094
106093
106092
105981
105974
105975
105976
105977
105977
105977
105977
105977
105978
105979
105980
105981
105983
105985
105986
105987
105988
105988
105988
105988
105987
105987
105985
105984
105877
105871
105872
105872
105873
105873
105873
105872
105872
105872
105873
105874
105875
105876
105877
105878
105879
105879
105880
105880
105880
105880
105879
105878
105876
105771
105766
105766
105767
105767
105767
105766
105766
105765
105765
105765
105765
105766
105766
105767
105768
105769
105770
105770
105771
105772
105772
105772
105771
105769
105665
105660
105660
105660
105660
105659
105658
105658
105657
105656
105656
105656
105656
105656
105657
105658
105659
105660
105661
105662
105663
105664
105665
105666
105663
105557
105554
105554
105553
105552
105551
105550
105549
105548
105547
105546
105546
105545
105546
105546
105547
105548
105550
105551
105552
105554
105556
105558
105560
105559
105450
105449
105448
105447
105446
105445
105443
105441
105439
105438
105437
105436
105436
105436
105437
105438
105439
105440
105441
105442
105444
105446
105448
105451
105453
105344
105344
105343
105342
105340
105339
105337
105335
105333
105331
105330
105329
105328
105328
105329
105329
105330
105331
105332
105333
105335
105336
105337
105340
105344
105239
105241
105239
105238
105236
105234
105232
105230
105227
105225
105224
105223
105222
105222
105222
105222
105223
105224
105225
105226
105227
105228
105228
105229
105233
105135
105138
105137
105135
105133
105131
105129
105126
105123
105121
105119
105118
105117
105117
105117
105117
105118
105118
105119
105120
105121
105121
105122
105121
105125
105031
105035
105034
105032
105030
105028
105026
105023
105020
105018
105016
105014
105013
105013
105013
105013
105014
105014
105015
105015
105016
105016
105016
105016
105020
104926
104931
104931
104929
104927
104925
104923
104920
104918
104916
104913
104912
104910
104910
104910
104910
104910
104911
104911
104912
104912
104912
104913
104913
104916
104821
104826
104826
104826
104824
104822
104819
104817
104815
104813
104811
104809
104808
104807
104806
104807
104807
104808
104808
104809
104809
104809
104810
104809
104813
104715
104719
104720
104720
104719
104717
104715
104713
104711
104710
104708
104707
104705
104705
104704
104704
104704
104705
104705
104706
104706
104706
104706
104706
104709
104608
104611
104612
104612
104612
104612
104610
104608
104607
104605
104604
104603
104603
104602
104602
104601
104601
104601
104602
104602
104602
104603
104603
104602
104605
104500
104502
104503
104504
104504
104504
104503
104502
104501
104499
104498
104498
104498
104498
104498
104498
104498
104498
104498
104498
104499
104499
104499
104499
104501
104392
104393
104394
104395
104395
104395
104395
104395
104394
104393
104392
104392
104392
104393
104393
104394
104394
104394
104394
104394
104395
104395
104395
104395
104397
104285
104285
104286
104286
104286
104287
104287
104286
104286
104286
104286
104286
104287
104287
104288
104289
104290
104290
104290
104290
104290
104291
104291
104291
104292
104179
104178
104178
104178
104178
104178
104178
104179
104179
104179
104179
104180
104181
104182
104183
104184
104185
104185
104185
104186
104186
104186
104186
104186
104187
104074
104072
104071
104071
104071
104071
104071
104071
104071
104072
104073
104074
104075
104076
104077
104079
104079
104080
104081
104081
104081
104081
104081
104081
104081
103971
103968
103966
103965
103965
103965
103965
103965
103966
103966
103967
103969
103970
103971
103972
103974
103974
103975
103976
103976
103976
103976
103977
103977
103976
103867
103863
103862
103862
103861
103861
103860
103860
103861
103861
103863
103864
103865
103867
103868
103869
103870
103870
103871
103871
103871
103871
103872
103872
103870
103762
103758
103758
103758
103757
103756
103756
103756
103756
103757
103759
103760
103761
103762
103763
103764
103765
103766
103766
103766
103767
103767
103767
103767
103765
103656
103654
103654
103654
103653
103652
103651
103652
103653
103654
103655
103656
103657
103658
103659
103660
103660
103661
103661
103662
103662
103662
103662
103662
103660
103552
103550
103550
103549
103549
103548
103548
103548
103550
103551
103552
103553
103554
103554
103555
103556
103556
103556
103557
103557
103557
103557
103557
103557
103556
103449
103446
103446
103445
103445
103444
103445
103446
103447
103448
103449
103449
103450
103451
103451
103451
103452
103452
103452
103452
103451
103451
103450
103451
103450
103345
103342
103342
103342
103341
103341
103342
103343
103344
103345
103346
103346
103347
103347
103347
103347
103347
103348
103347
103347
103346
103346
103345
103346
103346
103242
103239
103238
103238
103238
103239
103240
103241
103241
103242
103242
103243
103243
103243
103243
103244
103244
103243
103243
103243
103242
103241
103241
103242
103242
103138
103134
103135
103135
103135
103136
103137
103138
103138
103139
103139
103139
103140
103140
103140
103140
103140
103140
103139
103139
103138
103138
103138
103137
103139
103034
103031
103031
103032
103033
103034
103034
103035
103036
103036
103036
103036
103036
103036
103036
103036
103036
103036
103035
103035
103034
103034
103034
103032
103035
102932
102929
102929
102929
102930
102931
102932
102932
102933
102933
102933
102933
102933
102933
102933
102933
102933
102932
102932
102931
102931
102931
102930
102929
102931
102829
102827
102827
102828
102828
102829
102829
102830
102830
102830
102830
102830
102830
102830
102830
102830
102829
102829
102829
102828
102828
102828
102828
102828
102828
102727
102725
102726
102726
102726
102726
102727
102727
102727
102727
102727
102727
102727
102727
102727
102727
102726
102726
102726
102726
102725
102725
102725
102725
102726
102624
102623
102623
102623
102624
102624
102624
102624
102624
102625
102625
102624
102624
102624
102624
102624
102623
102623
102623
102623
102623
102622
102622
102622
102623
102521
102521
102521
102521
102521
102521
102522
102522
102522
102522
102522
102522
102522
102521
102521
102521
102520
102520
102520
102520
102520
102519
102520
102520
102520
102419
102418
102419
102419
102419
102419
102419
102419
102419
102419
102419
102419
102419
102419
102418
102418
102418
102418
102417
102417
102417
102416
102417
102417
102417
102316
102316
102316
102316
102316
102316
102317
102317
102317
102317
102317
102317
102316
102316
102316
102316
102315
102315
102315
102314
102314
102314
102314
102314
102315
102214
102214
102214
102214
102214
102214
102214
102214
102214
102214
102214
102214
102214
102214
102213
102213
102213
102213
102212
102212
102212
102212
102212
102212
102212
102112
102111
102111
102111
102111
102112
102112
102112
102112
102112
102112
102112
102112
102111
102111
102111
102111
102110
102110
102110
102109
102110
102110
102109
102110
102009
102009
102009
102009
102009
102009
102009
102010
102010
102010
102010
102009
102009
102009
102009
102009
102008
102008
102008
102007
102007
102007
102007
102007
102008
101907
101907
101907
101907
101907
101907
101907
101907
101907
101907
101907
101907
101907
101907
101907
101907
101906
101906
101906
101905
101905
101905
101905
101905
101906
101805
101804
101804
101804
101805
101805
101805
101805
101805
101805
101805
101805
101805
101805
101805
101805
101804
101804
101804
101804
101803
101803
101803
101803
101804
101702
101702
101702
101702
101702
101702
101702
101702
101702
101702
101702
101702
101703
101703
101703
101702
101702
101702
101702
101702
101701
101701
101701
101701
101702
101600
101600
101600
101600
101600
101600
101600
101600
101600
101600
101600
101600
101600
101600
101600
101600
101600
101600
101600
101600
101600
101599
101599
101599
101600
101497
101497
101497
101497
101497
101498
101498
101498
101498
101498
101498
101498
101498
101498
101498
101498
101498
101498
101498
101498
101498
101497
101497
101497
101498
101395
101395
101395
101395
101395
101395
101395
101395
101395
101395
101395
101395
101395
101395
101395
101395
101395
101395
101395
101395
101395
101395
101395
101395
101396
101292
101293
101293
101293
101293
101293
101293
101293
101293
101293
101293
101293
101293
101293
101293
101293
101293
101293
101293
101293
101293
101293
101293
101293
101294
101190
101190
101190
101190
101190
101190
101190
101190
101190
101190
101190
101190
101190
101190
101190
101190
101190
101190
101190
101191
101191
101191
101191
101191
101192
101087
101088
101088
101088
101088
101088
101088
101088
101088
101088
101088
101088
101087
101087
101087
101087
101087
101088
101088
101088
101088
101089
101088
101088
101090
100985
100985
100985
100985
100985
100985
100985
100985
100985
100985
100985
100985
100985
100985
100985
100984
100985
100985
100985
100985
100985
100986
100985
100985
100987
100882
100883
100883
100883
100883
100883
100883
100883
100883
100882
100882
100882
100882
100882
100882
100882
100882
100882
100882
100882
100882
100882
100882
100882
100884
100779
100780
100780
100780
100780
100780
100780
100780
100780
100780
100780
100780
100780
100779
100779
100779
100779
100779
100779
100779
100779
100779
100779
100779
100781
100677
100678
100678
100678
100678
100678
100678
100678
100678
100677
100677
100677
100677
100677
100676
100676
100676
100676
100676
100676
100676
100676
100676
100676
100678
100574
100575
100575
100575
100575
100576
100576
100575
100575
100575
100575
100575
100574
100574
100574
100574
100573
100573
100573
100573
100573
100573
100573
100573
100575
100472
100472
100473
100473
100473
100473
100473
100473
100473
100473
100473
100473
100472
100472
100472
100471
100471
100471
100470
100470
100470
100471
100471
100471
100473
100370
100370
100370
100370
100370
100371
100371
100371
100371
100371
100371
100371
100370
100370
100370
100370
100369
100369
100369
100368
100368
100369
100369
100369
100371
100267
100267
100268
100269
100269
100269
100269
100270
100270
100270
100270
100269
100269
100269
100268
100268
100267
100267
100267
100266
100266
100266
100266
100266
100267
100155
100156
100158
100159
100160
100160
100160
100160
100160
100160
100159
100159
100158
100157
100157
100156
100155
100154
100153
100152
100151
100151
100150
100149
100147
100040
100045
100048
100049
100049
100049
100049
100049
100049
100048
100048
100048
100047
100046
100046
100045
100044
100042
100041
100040
100040
100039
100038
100035
100029
100003
100006
100007
100007
100007
100007
100007
100007
100007
100007
100007
100007
100007
100007
100006
100006
100006
100006
100006
100006
100006
100006
100005
100005
100003
100001
100001
100001
100001
100001
100001
100001
100001
100001
100001
100001
100001
100001
100001
100001
100001
100001
100001
100001
100001
100001
100001
100001
100001
100001
100001
100001
100001
100001
100001
100001
100001
100001
100001
100001
100001
100001
100001
100001
100001
100001
100001
100001
100001
100001
100001
100001
100001
100001
100001
100001
100001
100001
100001
100001
100001
100001
100001
100001
100001
100001
100001
100001
100001
100001
100001
100001
100001
100001
100001
100001
100001
100001
100001
100001
100000
100000
100000
100000
100000
100000
100000
100000
100000
100000
100000
100000
100000
100000
100000
100000
100000
100000
100000
100000
100000
100000
100000
100000
100000
100000
100000
100000
100000
100000
100000
100000
100000
100000
100000
100000
100000
100000
100000
100000
100000
100000
100000
100000
100000
100000
100000
100000
100000
100000
100000
100000
100000
100000
100000
100000
100000
100000
100000
100000
100000
100000
100000
100000
100000
100000
100000
100000
100000
100000
100000
100000
100000
100000
100000
)
;

boundaryField
{
    inlet
    {
        type            fixedFluxPressure;
        gradient        nonuniform List<scalar> 
25
(
1447.84
1150.11
1027.74
1010.25
1016.64
1034.01
1056.39
1079.24
1099.1
1114.19
1124.7
1129.61
1125.37
1112.67
1095.92
1080.9
1058.54
1036.16
1014.06
991.269
975.407
1016.11
1151.45
1334.15
1414.97
)
;
        value           nonuniform List<scalar> 
25
(
107103
107105
107105
107104
107101
107097
107092
107086
107081
107076
107072
107068
107065
107064
107063
107063
107065
107067
107070
107072
107075
107077
107079
107081
107085
)
;
    }
    outlet
    {
        type            fixedValue;
        value           uniform 100000;
    }
    walls
    {
        type            fixedFluxPressure;
        gradient        uniform 0;
        value           nonuniform List<scalar> 
150
(
107093
106950
106853
106734
106617
106502
106394
106289
106186
106084
105981
105877
105771
105665
105557
105450
105344
105239
105135
105031
104926
104821
104715
104608
104500
104392
104285
104179
104074
103971
103867
103762
103656
103552
103449
103345
103242
103138
103034
102932
102829
102727
102624
102521
102419
102316
102214
102112
102009
101907
101805
101702
101600
101497
101395
101292
101190
101087
100985
100882
100779
100677
100574
100472
100370
100267
100155
100040
100003
100001
100001
100001
100000
100000
100000
107075
106938
106840
106728
106620
106514
106409
106304
106198
106092
105984
105876
105769
105663
105559
105453
105344
105233
105125
105020
104916
104813
104709
104605
104501
104397
104292
104187
104081
103976
103870
103765
103660
103556
103450
103346
103242
103139
103035
102931
102828
102726
102623
102520
102417
102315
102212
102110
102008
101906
101804
101702
101600
101498
101396
101294
101192
101090
100987
100884
100781
100678
100575
100473
100371
100267
100147
100029
100003
100001
100001
100001
100000
100000
100000
)
;
    }
    defaultFaces
    {
        type            empty;
    }
}


// ************************************************************************* //
