/*--------------------------------*- C++ -*----------------------------------*\
| =========                 |                                                 |
| \\      /  F ield         | OpenFOAM: The Open Source CFD Toolbox           |
|  \\    /   O peration     | Version:  2.3.0                                 |
|   \\  /    A nd           | Web:      www.OpenFOAM.org                      |
|    \\/     M anipulation  |                                                 |
\*---------------------------------------------------------------------------*/
FoamFile
{
    version     2.0;
    format      ascii;
    class       volScalarField;
    location    "66";
    object      rhom;
}
// * * * * * * * * * * * * * * * * * * * * * * * * * * * * * * * * * * * * * //

dimensions      [1 -3 0 0 0 0 0];

internalField   nonuniform List<scalar> 
1875
(
876.696
900.347
912.342
911.668
909.735
907.163
904.178
900.921
897.597
894.418
891.542
889.639
888.724
888.548
888.901
890.664
894.119
898.14
902.51
907.292
911.527
908.437
894.014
873.392
879.194
895.049
910.688
925.559
930.853
933.147
932.784
931.609
929.581
926.689
922.961
918.26
912.54
906.839
901.672
897.666
893.781
893.819
896.177
900.576
905.904
911.527
918.759
918.759
907.704
918.338
927.612
934.501
941.689
943.976
944.656
944.307
943.455
942.217
940.371
937.873
934.855
930.679
924.337
916.213
907.968
899.902
893.834
893.911
896.964
902.919
909.91
918.266
918.759
914.716
926.779
971.249
966.709
959.47
955.679
953.781
951.821
949.242
946.308
943.106
939.534
935.314
930.569
925.106
918.672
910.929
901.99
893.313
890.79
893.473
900.235
908.401
917.241
918.59
915.786
926.816
1000.17
985.699
966.616
962.263
959.648
956.083
951.556
946.127
941.743
937.689
933.273
928.162
922.493
915.868
907.974
899.005
891.068
890.786
894.205
901.442
909.758
917.777
919.079
917.175
926.793
1008.86
987.35
963.448
963.455
960.293
954.155
948.241
942.158
936.661
931.858
926.823
921.108
914.815
907.68
900.047
893.626
891.062
891.926
897.213
904.946
912.86
918.963
920.357
919.338
925.233
1008.86
980.276
957.328
962.104
954.763
945.781
938.563
931.925
925.803
920.155
914.314
908.25
902.198
896.79
893.327
892.362
892.346
896.304
902.995
910.26
916.612
920.726
922.324
921.905
922.506
1008.86
965.962
948.051
953.232
940.248
930.396
922.71
915.763
909.632
904.176
899.52
895.998
894.152
893.674
893.675
894.535
897.836
903.838
910.122
915.729
920.016
922.784
924.537
924.068
919.603
1005.58
948.574
935.476
937.435
921.752
913.042
905.978
900.56
896.815
894.669
893.94
893.938
894.526
895.372
897.652
901.38
906.643
912.098
916.641
920.212
922.784
924.716
926.325
924.393
916.994
996.658
931.747
922.099
921.236
907.248
900.828
895.992
893.54
892.96
893.599
894.145
895.639
898.315
901.594
905.964
910.846
915.428
919.078
921.769
923.723
925.166
926.501
927.684
924.047
914.471
986.552
918.081
911.596
910.559
900.21
896.046
893.606
892.92
892.94
894.75
897.535
901.465
905.967
910.813
915.473
919.47
922.468
924.579
926.042
927.086
927.967
928.911
929.569
923.357
907.692
978.428
908.826
905.073
905.638
897.683
894.83
893.365
893.071
894.827
898.982
904.109
909.683
915
919.724
923.467
926.192
928.05
929.275
930.076
930.69
931.349
931.959
931.972
920.498
887.117
973.188
902.319
899.961
902.946
896.608
894.425
893.541
894.449
898.994
905.182
911.692
917.721
922.685
926.396
928.984
930.677
931.662
932.111
932.208
932.197
932.24
932.197
931.268
912.165
883.819
969.684
895.749
893.591
901.014
895.964
894.465
894.043
897.364
904.1
911.313
918.053
923.555
927.397
929.695
931.037
931.774
932.111
932.207
932.197
932.282
932.197
932.319
926.27
903.808
883.819
966.993
893.315
893.371
899.59
895.435
894.52
894.903
900.673
908.635
915.806
921.326
925.132
927.654
929.506
930.676
931.373
931.831
932.127
932.254
932.196
932.232
929.904
923.525
909.315
892.695
966.425
893.37
893.308
898.908
895.003
894.393
895.291
901.835
909.138
915.665
920.968
924.579
926.972
928.583
929.602
930.303
930.822
931.191
931.35
930.444
928.121
925.765
925.432
929.091
925.839
966.414
894.85
893.37
898.284
895.167
894.391
894.964
900.761
907.939
914.364
919.548
923.082
925.413
926.898
927.897
928.679
929.191
929.36
928.866
927.4
925.722
923.782
923.264
945.925
962.997
964.411
900.658
894.381
897.363
895.696
894.538
894.582
898.284
904.766
911.298
916.752
920.605
923.151
924.721
925.778
926.659
927.22
927.27
926.453
925.708
926.354
925.428
919.032
946.439
980.969
959.576
911.19
897.444
897.455
896.439
895.082
894.623
895.906
900.147
906.152
912.091
916.832
920.155
922.254
923.564
924.555
925.269
925.506
925.18
925.133
926.667
927.928
919.009
938.457
982.822
952.806
923.758
904.829
898.748
897.139
895.874
894.9
894.956
896.305
900.084
905.426
911.035
915.754
919.077
921.222
922.652
923.659
924.291
924.626
925.09
926.465
928.404
919.009
927.999
982.822
944.548
934.693
917.249
903.983
898.965
896.936
895.554
894.996
894.98
896.011
899.011
903.609
908.655
913.574
917.525
920.296
922.168
923.438
924.365
925.189
926.275
928.436
919.03
922.202
982.821
934.961
941.986
931.825
915.324
904.56
899.551
896.957
895.453
894.982
894.637
895.851
895.224
897.179
903.166
909.953
915.503
919.473
922.145
923.982
925.359
926.388
928.404
919.874
919.58
982.711
925.752
944
942.916
929.732
915.541
906.027
900.517
897.166
895.428
894.554
894.014
893.161
892.519
893.615
898.965
906.658
913.68
918.988
922.68
925.185
926.616
928.45
921.417
917.418
979.044
917.682
943.938
944.068
939.51
928.531
916.905
907.851
901.506
897.339
895.146
893.161
892.469
893.161
892.808
893.875
898.063
905.258
912.956
919.33
924.01
926.53
928.403
922.496
915.049
974.363
908.126
944.14
943.938
943.866
938.423
928.81
918.301
909.07
901.778
897.104
893.216
893.16
892.542
893.16
893.102
894.437
898.615
905.788
913.899
921.105
925.747
928.484
922.807
912.634
970.673
897.172
943.516
944.282
943.938
942.856
937.553
928.636
918.328
908.465
900.857
894.125
892.627
893.16
892.911
893.16
893.759
895.726
900.486
908.134
916.843
923.857
928.403
922.75
912.234
968.323
894.815
936.554
943.938
944.043
943.938
941.667
935.791
926.517
915.593
905.862
896.296
893.159
892.79
893.159
893.129
893.759
895.311
898.082
903.936
912.565
921.235
928.483
922.636
912.27
967.016
896.468
922.785
944.117
943.937
943.956
943.222
939.551
932.009
921.195
910.457
898.812
892.871
893.159
893.052
893.159
893.816
895.438
898.095
902.051
909.496
918.609
928.402
922.471
912.256
966.318
906.444
914.595
927.848
938.72
943.937
943.938
940.956
934.284
923.407
910.34
898.456
893.159
893.034
893.159
893.157
893.993
895.767
898.342
902.134
908.181
916.635
927.973
922.233
912.496
965.641
926.82
915.701
910.478
927.34
942.261
943.849
940.647
933.452
921.968
908.416
897.092
893.072
893.158
893.14
893.242
894.355
896.31
898.873
902.544
908.426
916.581
926.96
922.359
914.87
963.311
951.212
916.628
910.476
921.776
939.672
943.098
939.383
930.677
917.796
904.282
895.314
893.158
893.143
893.158
893.48
894.94
897.055
899.663
903.35
909.163
917.003
925.509
923.16
919.453
958.608
969.727
914.537
910.477
924.543
938.839
941.614
936.282
924.919
910.955
899.519
894.051
893.151
893.185
893.252
893.953
895.744
897.971
900.664
904.509
910.377
917.785
924.342
925.208
924.857
949.017
976.07
912.155
910.546
930.093
938.867
938.981
930.106
916.188
903.555
896.055
893.526
893.233
893.292
893.511
894.678
896.687
898.968
901.79
905.91
911.845
918.684
924.712
928.673
929.736
934.506
976.072
912.156
913.726
934.553
938.25
933.581
920.528
906.994
898.263
894.499
893.626
893.434
893.411
894.002
895.576
897.629
899.916
902.952
907.462
913.483
919.752
925.305
932.372
934.797
934.543
976.074
912.49
919.467
935.379
935.376
924.484
910.296
900.63
896.012
894.391
893.835
893.662
893.651
894.679
896.459
898.438
900.788
904.224
909.318
915.559
921.071
924.033
928.788
940.323
934.569
976.076
913.96
923.55
934.833
928.34
913.871
903.11
897.706
895.39
894.396
893.9
893.854
894.132
895.411
897.202
899.11
901.729
905.836
911.665
917.856
921.057
919.832
906.96
943.64
934.947
976.073
915.184
923.467
931.784
918.301
905.84
899.598
896.593
895.11
894.389
894.12
894.116
894.638
896.08
897.772
899.774
902.932
907.907
914.18
919.064
920.453
913.201
896.913
943.633
936.82
976.072
912.476
921.71
925.952
909.555
901.743
898.28
896.247
895.12
894.511
894.374
894.38
895.165
896.623
898.28
900.604
904.507
910.167
915.985
918.683
918.265
907.806
898.47
940.415
942.563
975.676
900.227
916.596
918.883
904.86
900.349
897.872
896.197
895.199
894.732
894.599
894.656
895.667
897.085
898.873
901.742
906.365
911.98
915.97
917.734
915.615
907.797
896.791
926.413
951.997
974.023
896.425
905.92
912.533
903.018
900.004
897.749
896.234
895.349
894.95
894.792
894.972
896.121
897.567
899.665
903.177
908.089
912.775
915.582
916.378
914.463
908.231
898.469
901.399
958.548
971.691
895.662
896.424
907.819
901.9
899.764
897.681
896.317
895.538
895.143
894.976
895.341
896.576
898.137
900.623
904.524
909.005
912.648
914.826
914.975
914.169
909.184
896.797
898.469
958.586
969.238
896.424
895.884
904.81
900.953
899.514
897.609
896.415
895.733
895.342
895.194
895.756
897.052
898.748
901.476
905.074
908.911
912.254
913.952
914.346
914.013
909.718
898.468
897.734
958.607
967.16
895.726
896.424
902.436
900.221
899.35
897.554
896.514
895.919
895.553
895.448
896.194
897.528
899.277
901.848
904.977
908.515
911.56
913.268
914.463
913.84
909.551
896.888
898.468
958.602
965.488
896.423
895.968
898.994
899.639
899.314
897.548
896.628
896.104
895.784
895.732
896.622
897.949
899.638
901.811
904.66
907.748
910.494
913.013
914.529
913.603
908.512
898.467
897.832
958.651
964.13
895.891
896.423
896.249
899.112
899.229
897.536
896.756
896.284
896.021
896.028
897.025
898.223
899.711
901.672
904.07
906.688
909.384
912.718
914.53
913.08
905.413
896.95
898.467
958.637
963.002
896.422
896.098
896.422
898.771
898.992
897.493
896.853
896.384
896.18
896.328
897.359
898.426
899.72
901.423
903.411
905.773
909.005
912.295
914.368
911.837
900.495
898.467
897.889
958.643
962.087
896.037
896.422
896.208
898.251
898.662
897.444
896.878
896.476
896.342
896.587
897.575
898.682
899.792
901.204
903.143
905.666
908.966
912.136
913.434
909.69
898.466
897.011
898.466
958.218
961.335
896.422
896.186
896.422
896.769
898.46
897.407
896.881
896.627
896.569
896.872
897.897
898.923
899.89
901.226
903.183
905.805
909.021
911.908
911.527
906.679
898.369
898.466
897.982
956.289
960.711
896.15
896.421
896.221
896.421
898.166
897.311
896.942
896.764
896.816
897.34
898.354
898.975
899.927
901.339
903.39
906.104
909.298
911.248
909.241
903.165
898.466
897.073
898.466
955.202
960.11
896.421
896.253
896.421
896.302
897.79
897.115
896.978
896.877
897.03
897.824
898.529
899.063
900.081
901.622
903.901
906.667
909.3
910.266
907.211
900.443
898.35
898.465
898.1
955.3
959.525
896.241
896.421
896.237
896.421
897.413
896.717
896.876
897.055
897.288
898.061
898.479
899.208
900.34
902.152
904.73
907.468
909.202
909.214
905.71
899.79
898.465
897.157
898.465
955.696
959.108
896.42
896.318
896.42
896.308
896.659
896.392
896.913
897.035
897.49
898.122
898.525
899.236
900.621
902.977
905.84
908.326
909.271
908.419
905.213
899.714
898.369
898.465
898.234
956.505
958.646
896.33
896.42
896.251
896.42
896.373
896.42
896.898
896.913
897.628
898.154
898.556
899.28
901.009
904.014
907.173
909.354
909.513
908.089
905.273
899.824
898.464
897.275
898.464
957.896
958.028
896.42
896.361
896.42
896.312
896.42
896.392
896.605
896.928
897.531
898.079
898.541
899.38
901.392
904.928
908.516
910.453
909.955
908.012
905.411
900.454
898.411
898.464
898.342
959.909
957.495
896.396
896.419
896.265
896.419
896.375
896.419
896.406
896.812
897.376
898.084
898.582
899.353
901.557
905.231
909.34
911.171
910.305
907.949
905.86
901.769
898.464
897.438
898.464
962.746
956.844
896.419
896.399
896.419
896.315
896.419
896.394
896.419
896.634
897.416
898.072
898.57
899.325
901.554
905.18
909.321
911.185
910.305
907.97
906.631
903.81
898.521
898.463
898.397
966.64
955.92
896.804
896.419
896.292
896.419
896.39
896.419
896.402
896.668
897.307
898.044
898.454
899.401
901.464
904.927
909.053
911.145
910.233
908.132
907.585
906.521
899.608
897.691
898.463
971.528
954.771
897.809
896.412
896.418
896.337
896.418
896.404
896.418
896.591
897.063
897.975
898.477
899.394
901.27
904.412
908.373
910.721
910.116
908.713
908.827
909.377
902.544
898.463
898.442
977.166
952.96
899.49
896.607
896.326
896.418
896.395
896.418
896.407
896.518
897.152
897.792
898.424
899.338
900.994
903.699
907.243
909.843
909.99
909.841
910.494
911.508
906.467
898.013
898.491
982.833
950.001
902.075
897.254
896.418
896.359
896.418
896.414
896.418
896.604
897.095
897.674
898.352
899.236
900.69
902.925
905.829
908.524
909.718
910.863
912.074
912.349
909.097
898.462
898.734
986.701
946.109
905.289
898.524
896.379
896.417
896.405
896.507
896.42
896.673
896.967
897.579
898.286
899.075
900.366
902.199
904.446
906.952
909.078
910.886
912.537
912.392
909.48
898.247
899.291
987.352
941.512
908.564
900.722
896.417
896.395
896.417
896.598
896.425
896.645
897.078
897.463
898.053
898.827
899.965
901.482
903.236
905.387
907.933
910.494
912.53
912.184
909.275
898.461
900.109
987.352
936.425
911.501
902.9
896.422
896.417
896.426
896.593
896.426
896.567
897.015
897.354
897.756
898.419
899.343
900.537
901.918
903.711
906.179
909.152
911.745
911.089
908.252
898.385
900.739
987.352
932.382
912.713
902.935
896.669
896.481
896.527
896.575
896.427
896.474
896.734
897.081
897.454
897.892
898.552
899.432
900.534
902.056
904.234
906.936
909.413
908.706
906.52
898.461
900.902
987.138
933.056
912.368
902.673
897.639
897.353
897.176
896.985
896.842
896.897
897.102
897.413
897.791
898.2
898.816
899.65
900.723
902.198
904.321
906.062
907.543
907.188
906.759
899.874
902.524
986.28
937.213
911.862
904.181
901.567
901.084
900.413
899.877
899.827
899.983
900.203
900.452
900.788
901.259
901.891
902.708
903.816
905.318
907.264
908.895
910.155
909.99
910.25
906.236
908.712
985.634
936.439
909.822
907.727
907.532
905.872
904.418
903.56
903.741
904.12
904.375
904.516
904.657
904.91
905.281
905.848
906.729
907.917
909.421
910.845
911.101
911.122
911.561
911.576
911.591
978.582
881.198
869.06
875.504
873.382
868.467
865.289
864.181
864.643
865.302
865.381
865.111
864.462
863.547
862.572
861.754
861.067
860.465
859.849
858.926
857.311
854.509
853.766
856.078
855.623
888.293
643.312
668.343
681.015
678.338
673.237
671.928
672.817
674.243
675.269
675.156
674.394
672.789
670.518
667.716
664.615
661.077
657.066
652.523
647.547
642.45
636.99
632.889
632.481
628.427
606.554
522.503
527.843
531.128
531.617
531.529
531.719
532.082
532.403
532.586
532.574
532.429
532.124
531.687
531.133
530.494
529.761
528.947
528.069
527.19
526.375
525.638
525.033
524.546
522.49
518.611
514.557
514.659
514.898
515.005
515.004
514.997
514.995
514.996
514.998
514.997
514.993
514.984
514.972
514.956
514.938
514.918
514.897
514.876
514.857
514.842
514.833
514.828
514.794
514.646
514.562
514.542
514.542
514.543
514.546
514.548
514.549
514.549
514.55
514.55
514.55
514.55
514.55
514.55
514.55
514.55
514.55
514.55
514.549
514.547
514.546
514.544
514.544
514.543
514.541
514.541
514.544
514.545
514.551
514.564
514.581
514.591
514.595
514.595
514.594
514.591
514.59
514.59
514.592
514.596
514.601
514.604
514.602
514.595
514.579
514.563
514.551
514.545
514.542
514.541
514.541
514.548
514.559
514.596
514.661
514.689
514.698
514.699
514.698
514.695
514.691
514.69
514.69
514.694
514.701
514.705
514.707
514.707
514.702
514.683
514.64
514.589
514.56
514.548
514.543
514.542
514.559
514.586
514.644
514.697
514.711
514.714
514.714
514.714
514.714
514.713
514.713
514.713
514.713
514.714
514.714
514.714
514.714
514.714
514.713
514.704
514.677
514.619
514.575
514.555
514.547
)
;

boundaryField
{
    inlet
    {
        type            calculated;
        value           nonuniform List<scalar> 
25
(
770.947
770.947
770.947
770.947
770.947
770.947
770.947
770.947
770.947
770.947
770.947
770.947
770.947
770.947
770.947
770.947
770.947
770.947
770.947
770.947
770.947
770.947
770.947
770.947
770.947
)
;
    }
    outlet
    {
        type            calculated;
        value           nonuniform List<scalar> 
25
(
514.558
514.585
514.643
514.696
514.714
514.714
514.714
514.714
514.714
514.713
514.713
514.713
514.713
514.714
514.714
514.714
514.714
514.714
514.714
514.714
514.677
514.62
514.576
514.555
514.547
)
;
    }
    walls
    {
        type            calculated;
        value           nonuniform List<scalar> 
150
(
876.696
895.049
927.612
971.249
1000.17
1008.86
1008.86
1008.86
1005.58
996.658
986.552
978.428
973.188
969.684
966.993
966.425
966.414
964.411
959.576
952.806
944.548
934.961
925.752
917.682
908.126
897.172
894.815
896.468
906.444
926.82
951.212
969.727
976.07
976.072
976.074
976.076
976.073
976.072
975.676
974.023
971.691
969.238
967.16
965.488
964.13
963.002
962.087
961.335
960.711
960.11
959.525
959.108
958.646
958.028
957.495
956.844
955.92
954.771
952.96
950.001
946.109
941.512
936.425
932.382
933.056
937.213
936.439
881.198
643.312
522.503
514.557
514.542
514.544
514.548
514.559
879.194
918.338
926.779
926.816
926.793
925.233
922.506
919.603
916.994
914.471
907.692
887.117
883.819
883.819
892.695
925.839
962.997
980.969
982.822
982.822
982.821
982.711
979.044
974.363
970.673
968.323
967.016
966.318
965.641
963.311
958.608
949.017
934.506
934.543
934.569
934.947
936.82
942.563
951.997
958.548
958.586
958.607
958.602
958.651
958.637
958.643
958.218
956.289
955.202
955.3
955.696
956.505
957.896
959.909
962.746
966.64
971.528
977.166
982.833
986.701
987.352
987.352
987.352
987.138
986.28
985.634
978.582
888.293
606.554
518.611
514.562
514.541
514.541
514.542
514.547
)
;
    }
    defaultFaces
    {
        type            empty;
    }
}


// ************************************************************************* //
