/*--------------------------------*- C++ -*----------------------------------*\
| =========                 |                                                 |
| \\      /  F ield         | OpenFOAM: The Open Source CFD Toolbox           |
|  \\    /   O peration     | Version:  2.3.0                                 |
|   \\  /    A nd           | Web:      www.OpenFOAM.org                      |
|    \\/     M anipulation  |                                                 |
\*---------------------------------------------------------------------------*/
FoamFile
{
    version     2.0;
    format      ascii;
    class       volVectorField;
    location    "66";
    object      U.air;
}
// * * * * * * * * * * * * * * * * * * * * * * * * * * * * * * * * * * * * * //

dimensions      [0 1 -1 0 0 0 0];

internalField   nonuniform List<vector> 
1875
(
(0.00569801 0.116487 0)
(0.0186241 0.11061 0)
(0.061716 0.107658 0)
(0.104697 0.108309 0)
(0.144217 0.112665 0)
(0.178999 0.119159 0)
(0.20782 0.126344 0)
(0.230405 0.133291 0)
(0.24676 0.139547 0)
(0.257031 0.145048 0)
(0.26127 0.15003 0)
(0.259988 0.155266 0)
(0.253399 0.160091 0)
(0.240327 0.162998 0)
(0.220442 0.164257 0)
(0.195107 0.167768 0)
(0.166701 0.170787 0)
(0.137999 0.173379 0)
(0.111321 0.173434 0)
(0.0883888 0.170078 0)
(0.0708282 0.164519 0)
(0.0587905 0.15924 0)
(0.0489785 0.156016 0)
(0.0212186 0.153722 0)
(0.00944416 0.153322 0)
(0.0246685 0.214455 0)
(0.0490375 0.210069 0)
(0.0912137 0.210091 0)
(0.122897 0.214882 0)
(0.151309 0.221661 0)
(0.176438 0.229744 0)
(0.197995 0.238907 0)
(0.21564 0.249091 0)
(0.229011 0.260362 0)
(0.237802 0.272807 0)
(0.241332 0.286366 0)
(0.238623 0.300507 0)
(0.230919 0.314962 0)
(0.219539 0.329943 0)
(0.204157 0.345067 0)
(0.185191 0.357306 0)
(0.162457 0.366498 0)
(0.139521 0.370867 0)
(0.116297 0.371897 0)
(0.0928524 0.3706 0)
(0.0693964 0.367715 0)
(0.0481207 0.364511 0)
(0.0299457 0.365012 0)
(0.0113537 0.36986 0)
(0.00371901 0.37132 0)
(0.0217978 0.0920827 0)
(0.0567615 0.0997425 0)
(0.0938486 0.110117 0)
(0.119624 0.12268 0)
(0.140527 0.136976 0)
(0.157818 0.152768 0)
(0.17179 0.169768 0)
(0.182311 0.187742 0)
(0.189317 0.206459 0)
(0.192636 0.225819 0)
(0.19331 0.245816 0)
(0.191134 0.266669 0)
(0.184934 0.288326 0)
(0.174707 0.310144 0)
(0.161724 0.331312 0)
(0.146167 0.350078 0)
(0.127658 0.364628 0)
(0.106481 0.372158 0)
(0.0854238 0.373992 0)
(0.0662585 0.371823 0)
(0.0490301 0.367417 0)
(0.0329544 0.362502 0)
(0.0190301 0.361338 0)
(0.00742465 0.360775 0)
(0.00322588 0.358193 0)
(0.0198747 0.0633884 0)
(0.05615 0.0758179 0)
(0.0745489 0.0903005 0)
(0.0898969 0.106292 0)
(0.10393 0.124337 0)
(0.115221 0.144446 0)
(0.123046 0.166199 0)
(0.127104 0.189269 0)
(0.127671 0.213201 0)
(0.125465 0.237856 0)
(0.12031 0.263218 0)
(0.113112 0.28899 0)
(0.104001 0.314729 0)
(0.0935416 0.340521 0)
(0.0822845 0.365346 0)
(0.0702617 0.387676 0)
(0.0577824 0.404668 0)
(0.0451278 0.414996 0)
(0.0338869 0.417636 0)
(0.0245848 0.412882 0)
(0.0172977 0.404119 0)
(0.0108423 0.395272 0)
(0.00540387 0.389454 0)
(0.000486658 0.385668 0)
(0.000309946 0.379433 0)
(0.0159421 0.0369647 0)
(0.0411559 0.0480966 0)
(0.0408704 0.0633778 0)
(0.0474138 0.0812417 0)
(0.0561784 0.102022 0)
(0.0615223 0.125424 0)
(0.0628057 0.150754 0)
(0.0606438 0.177479 0)
(0.0556558 0.205169 0)
(0.0484525 0.233378 0)
(0.0395243 0.26195 0)
(0.0291857 0.290758 0)
(0.017749 0.31977 0)
(0.00593106 0.348339 0)
(-0.00548823 0.375265 0)
(-0.0152311 0.398538 0)
(-0.0217556 0.416273 0)
(-0.0244564 0.425016 0)
(-0.0243134 0.424595 0)
(-0.0219532 0.417844 0)
(-0.0181787 0.407285 0)
(-0.0143309 0.39631 0)
(-0.0104117 0.387877 0)
(-0.00421711 0.383845 0)
(-0.00152682 0.377498 0)
(0.0148446 0.0257204 0)
(0.0258956 0.0376422 0)
(0.00879322 0.0544252 0)
(0.00926643 0.0742034 0)
(0.0111658 0.0978047 0)
(0.00766187 0.124157 0)
(0.000543527 0.152615 0)
(-0.00866127 0.182355 0)
(-0.019454 0.212551 0)
(-0.0315503 0.242734 0)
(-0.0445231 0.272658 0)
(-0.0577519 0.302155 0)
(-0.0704026 0.330842 0)
(-0.0814288 0.357931 0)
(-0.0892606 0.38208 0)
(-0.0921835 0.401761 0)
(-0.0892799 0.41414 0)
(-0.0817124 0.418034 0)
(-0.0710819 0.414802 0)
(-0.0585108 0.405847 0)
(-0.0456752 0.394414 0)
(-0.0340183 0.383222 0)
(-0.023342 0.374461 0)
(-0.0087982 0.368395 0)
(-0.0033936 0.363108 0)
(0.0124374 0.029827 0)
(0.013841 0.0423857 0)
(-0.0173161 0.0608978 0)
(-0.0233279 0.08251 0)
(-0.0310759 0.10762 0)
(-0.0443659 0.135677 0)
(-0.0593314 0.165637 0)
(-0.0753365 0.196245 0)
(-0.0918328 0.226455 0)
(-0.10825 0.255797 0)
(-0.123632 0.284166 0)
(-0.136781 0.310761 0)
(-0.146537 0.335165 0)
(-0.151599 0.356681 0)
(-0.150946 0.37444 0)
(-0.144239 0.386855 0)
(-0.132065 0.392729 0)
(-0.115651 0.392069 0)
(-0.0967041 0.385962 0)
(-0.077347 0.376494 0)
(-0.0592162 0.365974 0)
(-0.0432483 0.356281 0)
(-0.028669 0.348761 0)
(-0.0105136 0.342361 0)
(-0.00416552 0.33806 0)
(0.0103821 0.0526036 0)
(0.00473508 0.0659338 0)
(-0.0381708 0.0857344 0)
(-0.051767 0.107899 0)
(-0.069851 0.133951 0)
(-0.0906429 0.162814 0)
(-0.111261 0.1925 0)
(-0.131888 0.22147 0)
(-0.151157 0.248836 0)
(-0.167728 0.273545 0)
(-0.180761 0.293982 0)
(-0.18914 0.313641 0)
(-0.191759 0.330989 0)
(-0.188334 0.345272 0)
(-0.179162 0.354341 0)
(-0.164572 0.358853 0)
(-0.145472 0.35879 0)
(-0.123307 0.354679 0)
(-0.100384 0.347723 0)
(-0.0785492 0.339494 0)
(-0.0589132 0.33146 0)
(-0.0418085 0.324787 0)
(-0.026354 0.320252 0)
(-0.00904379 0.317892 0)
(-0.00365009 0.316092 0)
(0.00541041 0.0902108 0)
(-0.00639808 0.103258 0)
(-0.0545386 0.124011 0)
(-0.0746066 0.146639 0)
(-0.0989585 0.17316 0)
(-0.122469 0.2012 0)
(-0.144753 0.228039 0)
(-0.16528 0.252021 0)
(-0.182589 0.271078 0)
(-0.195879 0.285807 0)
(-0.203626 0.302637 0)
(-0.205549 0.313961 0)
(-0.201782 0.320146 0)
(-0.192991 0.324103 0)
(-0.178135 0.324923 0)
(-0.159025 0.3231 0)
(-0.136658 0.319033 0)
(-0.113149 0.31335 0)
(-0.090284 0.307073 0)
(-0.0691766 0.301186 0)
(-0.0504524 0.296544 0)
(-0.0342197 0.293802 0)
(-0.0200293 0.293443 0)
(-0.0060829 0.295489 0)
(-0.00240149 0.297302 0)
(-0.000196037 0.136113 0)
(-0.0159225 0.15084 0)
(-0.0649778 0.172171 0)
(-0.087997 0.19495 0)
(-0.113261 0.220853 0)
(-0.135581 0.245986 0)
(-0.155824 0.267756 0)
(-0.17281 0.285136 0)
(-0.186735 0.300093 0)
(-0.194776 0.310163 0)
(-0.198302 0.3109 0)
(-0.197489 0.307542 0)
(-0.190317 0.304818 0)
(-0.177063 0.298151 0)
(-0.160545 0.292675 0)
(-0.140632 0.2864 0)
(-0.119287 0.279953 0)
(-0.0978675 0.273891 0)
(-0.0773444 0.268907 0)
(-0.0582977 0.265599 0)
(-0.0411101 0.264518 0)
(-0.0259663 0.266129 0)
(-0.0129907 0.270775 0)
(-0.00200727 0.278647 0)
(-8.25228e-05 0.285945 0)
(-0.00374465 0.186574 0)
(-0.0200785 0.202994 0)
(-0.0667085 0.22475 0)
(-0.0889609 0.246989 0)
(-0.111862 0.270667 0)
(-0.13129 0.291122 0)
(-0.148525 0.306086 0)
(-0.162876 0.314276 0)
(-0.173886 0.314843 0)
(-0.180417 0.310785 0)
(-0.181308 0.303891 0)
(-0.176204 0.294321 0)
(-0.167405 0.283485 0)
(-0.154946 0.273768 0)
(-0.139895 0.263445 0)
(-0.12304 0.254082 0)
(-0.105464 0.245975 0)
(-0.0877562 0.239539 0)
(-0.0703096 0.235201 0)
(-0.0533983 0.233413 0)
(-0.0372535 0.234713 0)
(-0.022126 0.239738 0)
(-0.00837463 0.249193 0)
(0.00287873 0.26387 0)
(0.00336461 0.279443 0)
(-0.00455957 0.236404 0)
(-0.0188627 0.254259 0)
(-0.0607238 0.276081 0)
(-0.0805137 0.29675 0)
(-0.0999399 0.31685 0)
(-0.116237 0.331954 0)
(-0.130617 0.339977 0)
(-0.14262 0.33995 0)
(-0.15128 0.332342 0)
(-0.155687 0.318257 0)
(-0.155731 0.302325 0)
(-0.151825 0.286428 0)
(-0.144927 0.270202 0)
(-0.135608 0.254974 0)
(-0.124675 0.241307 0)
(-0.112681 0.229446 0)
(-0.0999517 0.219572 0)
(-0.086636 0.211892 0)
(-0.0728329 0.206716 0)
(-0.0586321 0.204518 0)
(-0.044145 0.206037 0)
(-0.0294884 0.212331 0)
(-0.014699 0.22491 0)
(-0.00133 0.245511 0)
(-0.000230623 0.26863 0)
(-0.00360383 0.280775 0)
(-0.0147304 0.299814 0)
(-0.0514457 0.321116 0)
(-0.0685141 0.339391 0)
(-0.0841524 0.355649 0)
(-0.0972454 0.36568 0)
(-0.108882 0.36758 0)
(-0.118441 0.360525 0)
(-0.124938 0.345763 0)
(-0.128333 0.325926 0)
(-0.129045 0.304101 0)
(-0.127324 0.282433 0)
(-0.12378 0.262138 0)
(-0.118973 0.243795 0)
(-0.113248 0.227567 0)
(-0.10669 0.213464 0)
(-0.0992811 0.201478 0)
(-0.0909535 0.191711 0)
(-0.0816313 0.184405 0)
(-0.0712041 0.180061 0)
(-0.0595885 0.17956 0)
(-0.0463133 0.184244 0)
(-0.0318369 0.196385 0)
(-0.0146501 0.217264 0)
(-0.00921105 0.241494 0)
(-0.00280579 0.317466 0)
(-0.0104832 0.336503 0)
(-0.0394809 0.356735 0)
(-0.0525057 0.372979 0)
(-0.0645713 0.385592 0)
(-0.074464 0.391646 0)
(-0.0832733 0.389187 0)
(-0.0903781 0.377222 0)
(-0.0952113 0.357564 0)
(-0.0984322 0.333435 0)
(-0.10055 0.307969 0)
(-0.10182 0.283266 0)
(-0.102398 0.260415 0)
(-0.10224 0.239796 0)
(-0.101272 0.221465 0)
(-0.0994622 0.205295 0)
(-0.0967126 0.191162 0)
(-0.0929296 0.178935 0)
(-0.0879447 0.168854 0)
(-0.0815488 0.161428 0)
(-0.0732438 0.157451 0)
(-0.0627599 0.158162 0)
(-0.0503342 0.164595 0)
(-0.0271655 0.178387 0)
(-0.0156156 0.193974 0)
(-0.00190386 0.344767 0)
(-0.0057417 0.363605 0)
(-0.0240912 0.382708 0)
(-0.0320846 0.396438 0)
(-0.0403666 0.406735 0)
(-0.0468439 0.410167 0)
(-0.0528073 0.404763 0)
(-0.057776 0.389921 0)
(-0.0620142 0.367716 0)
(-0.0662149 0.341436 0)
(-0.0703965 0.314042 0)
(-0.0744813 0.287567 0)
(-0.0782553 0.263036 0)
(-0.0813925 0.240812 0)
(-0.0836951 0.220851 0)
(-0.0850805 0.202998 0)
(-0.085508 0.187118 0)
(-0.0847493 0.173178 0)
(-0.0829137 0.16112 0)
(-0.0800677 0.151014 0)
(-0.0763657 0.143129 0)
(-0.0714204 0.137762 0)
(-0.0628834 0.135541 0)
(-0.0385843 0.136782 0)
(-0.0184865 0.13894 0)
(-4.47423e-05 0.357616 0)
(-0.000126581 0.376041 0)
(-0.00746915 0.396616 0)
(-0.0103894 0.409649 0)
(-0.0136529 0.418688 0)
(-0.0162114 0.420499 0)
(-0.0190347 0.413989 0)
(-0.0223166 0.398707 0)
(-0.0265367 0.375943 0)
(-0.0318323 0.34921 0)
(-0.0376814 0.321283 0)
(-0.0435598 0.294066 0)
(-0.0490973 0.26856 0)
(-0.0540443 0.245129 0)
(-0.0582472 0.223811 0)
(-0.0615645 0.204496 0)
(-0.0639023 0.187072 0)
(-0.0653971 0.171583 0)
(-0.0659104 0.157861 0)
(-0.0655114 0.145608 0)
(-0.0642547 0.134307 0)
(-0.0621594 0.12412 0)
(-0.0586244 0.115194 0)
(-0.0440138 0.105705 0)
(-0.0176502 0.0970755 0)
(0.000958236 0.360214 0)
(0.00517167 0.378212 0)
(0.00835672 0.397289 0)
(0.0109641 0.410613 0)
(0.0128445 0.419465 0)
(0.0147979 0.422587 0)
(0.0154648 0.417345 0)
(0.0140132 0.403126 0)
(0.0102008 0.382269 0)
(0.00471575 0.356758 0)
(-0.00183794 0.329478 0)
(-0.00879021 0.302274 0)
(-0.0155944 0.276218 0)
(-0.0219243 0.251788 0)
(-0.0275615 0.22914 0)
(-0.0322906 0.208265 0)
(-0.0359921 0.189125 0)
(-0.0386886 0.171572 0)
(-0.0405545 0.155577 0)
(-0.0415351 0.140914 0)
(-0.0406732 0.127297 0)
(-0.037538 0.1143 0)
(-0.0363012 0.101258 0)
(-0.0359517 0.0872432 0)
(-0.0147218 0.07545 0)
(0.00119601 0.3515 0)
(0.00872776 0.368444 0)
(0.0237185 0.385635 0)
(0.0312519 0.4004 0)
(0.0379299 0.411005 0)
(0.0440171 0.41574 0)
(0.0484421 0.414032 0)
(0.0498325 0.404051 0)
(0.0473594 0.386089 0)
(0.0421101 0.363706 0)
(0.0350913 0.338301 0)
(0.0272793 0.31201 0)
(0.0193722 0.285981 0)
(0.0117745 0.260922 0)
(0.00474662 0.237152 0)
(-0.00151407 0.214796 0)
(-0.00683303 0.193917 0)
(-0.0111278 0.174526 0)
(-0.0144169 0.156513 0)
(-0.0165304 0.139692 0)
(-0.016739 0.123766 0)
(-0.0139438 0.10826 0)
(-0.0113507 0.092506 0)
(-0.0187242 0.0761446 0)
(-0.0100531 0.0634529 0)
(0.000738 0.327816 0)
(0.0110663 0.342673 0)
(0.0358193 0.362822 0)
(0.0484163 0.380095 0)
(0.059185 0.393346 0)
(0.0689191 0.401497 0)
(0.0766671 0.403327 0)
(0.0814329 0.398505 0)
(0.0817999 0.386656 0)
(0.0777974 0.368713 0)
(0.0709119 0.347236 0)
(0.0623486 0.323085 0)
(0.0532541 0.29816 0)
(0.0443017 0.27321 0)
(0.0357938 0.248803 0)
(0.0279001 0.225276 0)
(0.0207925 0.202858 0)
(0.0146652 0.181674 0)
(0.0097675 0.16173 0)
(0.00624358 0.142876 0)
(0.00388677 0.124959 0)
(0.00351173 0.107982 0)
(0.00520019 0.0912398 0)
(-0.00619553 0.072777 0)
(-0.00612656 0.0586394 0)
(0.000198109 0.30104 0)
(0.0107248 0.314124 0)
(0.0413423 0.332574 0)
(0.0594692 0.351574 0)
(0.0739058 0.367945 0)
(0.0866869 0.380025 0)
(0.097395 0.386959 0)
(0.105178 0.387757 0)
(0.109051 0.382745 0)
(0.108159 0.370791 0)
(0.102634 0.354096 0)
(0.0942522 0.335132 0)
(0.0841169 0.31267 0)
(0.0734872 0.288952 0)
(0.0632519 0.264663 0)
(0.0536778 0.240431 0)
(0.0448547 0.21675 0)
(0.0369519 0.193961 0)
(0.030234 0.172256 0)
(0.0248034 0.151641 0)
(0.0201232 0.132145 0)
(0.0162362 0.114088 0)
(0.0144518 0.0973504 0)
(-0.0006982 0.0784416 0)
(-0.00342021 0.0631865 0)
(-0.000333902 0.272685 0)
(0.00808415 0.282742 0)
(0.040317 0.298276 0)
(0.0633568 0.317327 0)
(0.0814649 0.336334 0)
(0.0967723 0.352527 0)
(0.109775 0.364602 0)
(0.119963 0.371782 0)
(0.126706 0.373056 0)
(0.129319 0.370503 0)
(0.127701 0.358955 0)
(0.120842 0.344459 0)
(0.110337 0.328357 0)
(0.0978632 0.307303 0)
(0.0854799 0.284163 0)
(0.0739905 0.259982 0)
(0.0634969 0.235517 0)
(0.0539956 0.211416 0)
(0.0455423 0.188165 0)
(0.0381386 0.166068 0)
(0.0312756 0.145397 0)
(0.024526 0.126622 0)
(0.0195025 0.109944 0)
(0.00224981 0.0920059 0)
(-0.00110328 0.0761163 0)
(-0.000590915 0.245503 0)
(0.00432511 0.251873 0)
(0.0337648 0.264206 0)
(0.0589963 0.281649 0)
(0.0805326 0.301579 0)
(0.0985724 0.321022 0)
(0.113666 0.33789 0)
(0.125734 0.350963 0)
(0.134464 0.35949 0)
(0.139515 0.3617 0)
(0.140804 0.362364 0)
(0.137561 0.354378 0)
(0.128757 0.339931 0)
(0.116913 0.324976 0)
(0.102953 0.305276 0)
(0.0891392 0.282328 0)
(0.076605 0.257859 0)
(0.0654889 0.232962 0)
(0.055618 0.208518 0)
(0.046777 0.185237 0)
(0.0384899 0.163689 0)
(0.0299618 0.144431 0)
(0.0230995 0.12785 0)
(0.00538242 0.110965 0)
(0.000911746 0.0956065 0)
(-0.000400636 0.22268 0)
(0.00149798 0.224019 0)
(0.0246113 0.23266 0)
(0.0468651 0.247236 0)
(0.0697726 0.266363 0)
(0.0904884 0.287608 0)
(0.107893 0.308501 0)
(0.121772 0.327158 0)
(0.131853 0.342329 0)
(0.138036 0.352937 0)
(0.14021 0.35994 0)
(0.138315 0.361039 0)
(0.134452 0.356501 0)
(0.126272 0.342976 0)
(0.114401 0.326136 0)
(0.100252 0.305733 0)
(0.085793 0.282181 0)
(0.072658 0.257021 0)
(0.0612567 0.231661 0)
(0.0513522 0.207277 0)
(0.0423759 0.18485 0)
(0.0331776 0.16508 0)
(0.0255483 0.148545 0)
(0.00795767 0.132403 0)
(0.00245418 0.117081 0)
(-0.00118672 0.206323 0)
(-0.000605083 0.201388 0)
(0.01619 0.204586 0)
(0.0325323 0.215664 0)
(0.0530518 0.232864 0)
(0.0743713 0.254364 0)
(0.0934825 0.278068 0)
(0.109085 0.30173 0)
(0.120641 0.323345 0)
(0.127688 0.34145 0)
(0.131211 0.354627 0)
(0.130701 0.362731 0)
(0.127914 0.363014 0)
(0.122754 0.358756 0)
(0.114717 0.346754 0)
(0.103338 0.329259 0)
(0.0896829 0.307179 0)
(0.075667 0.28224 0)
(0.0629241 0.256144 0)
(0.0520326 0.230604 0)
(0.0427009 0.207063 0)
(0.0336499 0.186528 0)
(0.0258548 0.169802 0)
(0.00844932 0.154169 0)
(0.00289563 0.139085 0)
(-0.00217987 0.195437 0)
(-0.00226092 0.18387 0)
(0.0103675 0.181587 0)
(0.0221342 0.18854 0)
(0.0373114 0.20309 0)
(0.0555168 0.223748 0)
(0.0738029 0.248803 0)
(0.0897816 0.276165 0)
(0.102095 0.303415 0)
(0.110142 0.328182 0)
(0.113803 0.347558 0)
(0.114247 0.361722 0)
(0.111993 0.369753 0)
(0.107901 0.370286 0)
(0.102024 0.363947 0)
(0.0940414 0.350209 0)
(0.0839057 0.330668 0)
(0.0718926 0.306452 0)
(0.0596144 0.279948 0)
(0.0485048 0.253338 0)
(0.0391273 0.228609 0)
(0.0307269 0.207163 0)
(0.0233065 0.190059 0)
(0.00740229 0.174684 0)
(0.00274422 0.160374 0)
(-9.90632e-06 0.185905 0)
(-0.000103846 0.170276 0)
(0.00798645 0.163684 0)
(0.0168291 0.167017 0)
(0.0268226 0.179122 0)
(0.0394608 0.198479 0)
(0.0537895 0.223761 0)
(0.0676139 0.253299 0)
(0.0789798 0.284742 0)
(0.086859 0.31518 0)
(0.0906105 0.341958 0)
(0.0908022 0.362048 0)
(0.0889922 0.374934 0)
(0.0856979 0.38104 0)
(0.0813952 0.378916 0)
(0.0759864 0.367853 0)
(0.0692903 0.350201 0)
(0.0609383 0.327287 0)
(0.0511659 0.30089 0)
(0.0412979 0.273547 0)
(0.0325174 0.247765 0)
(0.0251691 0.225382 0)
(0.0187795 0.207864 0)
(0.00575709 0.192772 0)
(0.00234241 0.178996 0)
(0.00402479 0.174073 0)
(0.00420937 0.158772 0)
(0.007565 0.150628 0)
(0.0144872 0.152132 0)
(0.0206541 0.16206 0)
(0.0277915 0.180165 0)
(0.0366208 0.205223 0)
(0.0461163 0.235873 0)
(0.0545283 0.270029 0)
(0.0606303 0.304588 0)
(0.0637005 0.336281 0)
(0.0637158 0.361429 0)
(0.0619167 0.378125 0)
(0.0595368 0.385865 0)
(0.0565657 0.38639 0)
(0.053091 0.37985 0)
(0.0491687 0.364654 0)
(0.044466 0.343092 0)
(0.0383688 0.317288 0)
(0.0311846 0.289664 0)
(0.024055 0.263091 0)
(0.0182957 0.239913 0)
(0.0135746 0.22195 0)
(0.00406423 0.20685 0)
(0.00170097 0.193436 0)
(0.00776678 0.157451 0)
(0.0114606 0.146949 0)
(0.010386 0.142442 0)
(0.0114433 0.143025 0)
(0.014618 0.152305 0)
(0.0184638 0.169192 0)
(0.0226895 0.193894 0)
(0.0274168 0.225092 0)
(0.0318509 0.26085 0)
(0.034642 0.298144 0)
(0.0354437 0.332943 0)
(0.0347642 0.360946 0)
(0.0334054 0.38034 0)
(0.0319778 0.390795 0)
(0.0302898 0.392923 0)
(0.028721 0.386977 0)
(0.0272181 0.373128 0)
(0.0254936 0.352949 0)
(0.0230085 0.327909 0)
(0.0193058 0.300478 0)
(0.0147439 0.273531 0)
(0.0109111 0.249827 0)
(0.00797138 0.231474 0)
(0.00245315 0.21629 0)
(0.00115189 0.203098 0)
(0.0104227 0.137906 0)
(0.0205018 0.13578 0)
(0.0165342 0.135434 0)
(0.00893522 0.139316 0)
(0.00834526 0.147727 0)
(0.00996163 0.164557 0)
(0.0108704 0.189134 0)
(0.011337 0.220723 0)
(0.0113679 0.257382 0)
(0.0102245 0.295802 0)
(0.00832017 0.331949 0)
(0.00701041 0.361125 0)
(0.00624122 0.381088 0)
(0.00576753 0.391965 0)
(0.00561149 0.394355 0)
(0.00591794 0.388907 0)
(0.00661553 0.375974 0)
(0.00725563 0.356623 0)
(0.00755729 0.332505 0)
(0.00709287 0.305576 0)
(0.00569115 0.278661 0)
(0.00401287 0.254862 0)
(0.00265075 0.236188 0)
(0.00138304 0.219503 0)
(0.00108568 0.207409 0)
(0.011043 0.12138 0)
(0.0226973 0.129567 0)
(0.0164397 0.133817 0)
(0.00906078 0.140264 0)
(0.0046456 0.149103 0)
(0.00294479 0.165855 0)
(0.000756031 0.190681 0)
(-0.0025112 0.222627 0)
(-0.00672224 0.259601 0)
(-0.0113375 0.29807 0)
(-0.0150222 0.3336 0)
(-0.0166804 0.36192 0)
(-0.0169955 0.381152 0)
(-0.0165759 0.391782 0)
(-0.0153687 0.393636 0)
(-0.0134033 0.38717 0)
(-0.0108958 0.374043 0)
(-0.00825837 0.354983 0)
(-0.00583308 0.331463 0)
(-0.00384484 0.305273 0)
(-0.00237792 0.278895 0)
(-0.00206388 0.255254 0)
(-0.00213548 0.236547 0)
(0.00154718 0.221269 0)
(0.00220213 0.208797 0)
(0.0106663 0.117628 0)
(0.0190034 0.128698 0)
(0.0094643 0.137143 0)
(0.00638486 0.14357 0)
(0.0019712 0.154798 0)
(-0.00284358 0.172637 0)
(-0.0080622 0.19818 0)
(-0.0146771 0.230461 0)
(-0.0224303 0.267035 0)
(-0.0295811 0.304136 0)
(-0.0340538 0.337394 0)
(-0.0355425 0.363174 0)
(-0.0353887 0.380203 0)
(-0.0341129 0.388443 0)
(-0.0316988 0.388953 0)
(-0.0284144 0.381988 0)
(-0.0244974 0.36829 0)
(-0.0203803 0.349192 0)
(-0.0163345 0.326033 0)
(-0.0125424 0.300495 0)
(-0.00912368 0.274843 0)
(-0.00725046 0.251654 0)
(-0.00568099 0.233129 0)
(0.00242743 0.219804 0)
(0.00364152 0.208037 0)
(0.00911331 0.119673 0)
(0.0124603 0.129438 0)
(-0.000558426 0.141257 0)
(-0.000809388 0.150901 0)
(-0.00339609 0.163847 0)
(-0.00946921 0.183269 0)
(-0.0171485 0.209878 0)
(-0.0267872 0.242274 0)
(-0.0368656 0.277644 0)
(-0.044579 0.3122 0)
(-0.0484346 0.342023 0)
(-0.049212 0.364264 0)
(-0.0483877 0.378115 0)
(-0.0464406 0.384111 0)
(-0.0431535 0.382663 0)
(-0.0388827 0.37422 0)
(-0.0339876 0.359771 0)
(-0.0288838 0.340438 0)
(-0.0237338 0.31746 0)
(-0.0186844 0.29243 0)
(-0.0140246 0.26744 0)
(-0.0107018 0.244644 0)
(-0.00701993 0.226225 0)
(0.0042144 0.212016 0)
(0.00521933 0.202274 0)
(0.00379747 0.122732 0)
(0.00434294 0.135144 0)
(-0.00675522 0.148474 0)
(-0.00707943 0.160043 0)
(-0.00946147 0.174861 0)
(-0.0166462 0.19611 0)
(-0.0268151 0.223757 0)
(-0.0386183 0.255807 0)
(-0.048821 0.289252 0)
(-0.0552171 0.320345 0)
(-0.0576947 0.345476 0)
(-0.0577475 0.362514 0)
(-0.0563395 0.375527 0)
(-0.0536132 0.378828 0)
(-0.0495467 0.374576 0)
(-0.0446553 0.364731 0)
(-0.0392265 0.349477 0)
(-0.0336161 0.329852 0)
(-0.0279037 0.307017 0)
(-0.0222713 0.282492 0)
(-0.0172161 0.258195 0)
(-0.0133322 0.236072 0)
(-0.0085733 0.217783 0)
(0.00242508 0.203433 0)
(0.00345337 0.193907 0)
(0.000864936 0.129742 0)
(-0.000271856 0.143746 0)
(-0.00975507 0.157362 0)
(-0.0106239 0.17069 0)
(-0.0150573 0.187493 0)
(-0.0241986 0.21052 0)
(-0.0366029 0.238634 0)
(-0.0483573 0.269666 0)
(-0.0564888 0.300359 0)
(-0.0605925 0.327368 0)
(-0.0619256 0.34698 0)
(-0.0615777 0.363281 0)
(-0.0595569 0.37017 0)
(-0.0559656 0.37032 0)
(-0.0513221 0.365319 0)
(-0.045931 0.354124 0)
(-0.0401899 0.338165 0)
(-0.034265 0.318366 0)
(-0.0281955 0.295879 0)
(-0.022216 0.272217 0)
(-0.0168953 0.249159 0)
(-0.0132517 0.228347 0)
(-0.0105596 0.211004 0)
(-0.0019069 0.196389 0)
(0.000638442 0.189065 0)
(0.000195606 0.140574 0)
(-0.00149573 0.154739 0)
(-0.011304 0.168852 0)
(-0.0133437 0.182852 0)
(-0.0206339 0.201714 0)
(-0.0322293 0.225658 0)
(-0.0448471 0.253458 0)
(-0.0541418 0.282561 0)
(-0.0594581 0.309605 0)
(-0.061726 0.331661 0)
(-0.0619835 0.351245 0)
(-0.060907 0.362259 0)
(-0.0579259 0.363542 0)
(-0.0539854 0.362219 0)
(-0.0488766 0.354845 0)
(-0.0431404 0.342441 0)
(-0.0370782 0.325818 0)
(-0.0306947 0.305904 0)
(-0.0239947 0.283929 0)
(-0.0172316 0.261485 0)
(-0.0112367 0.240219 0)
(-0.00698676 0.22105 0)
(-0.00994591 0.20524 0)
(-0.00613366 0.189011 0)
(-0.000772136 0.181999 0)
(0.000128588 0.153748 0)
(-0.00134601 0.167674 0)
(-0.0126739 0.181886 0)
(-0.0168562 0.196614 0)
(-0.0266947 0.216592 0)
(-0.0394255 0.240661 0)
(-0.0496434 0.267347 0)
(-0.0558271 0.293495 0)
(-0.0590556 0.316503 0)
(-0.0600506 0.335635 0)
(-0.059498 0.349605 0)
(-0.0571728 0.355226 0)
(-0.0533216 0.356674 0)
(-0.0490098 0.352657 0)
(-0.0436328 0.343533 0)
(-0.0378213 0.329948 0)
(-0.031613 0.312659 0)
(-0.0249294 0.292652 0)
(-0.0178223 0.271323 0)
(-0.0109118 0.250353 0)
(-0.00521559 0.230902 0)
(-0.00195521 0.213817 0)
(-0.00754524 0.196812 0)
(-0.00768451 0.181013 0)
(-0.0018788 0.17283 0)
(0.000601846 0.168202 0)
(-0.00124154 0.182189 0)
(-0.0147007 0.195767 0)
(-0.0211637 0.211214 0)
(-0.0323661 0.231248 0)
(-0.0434325 0.254747 0)
(-0.0502136 0.279186 0)
(-0.0539779 0.301701 0)
(-0.0556745 0.320686 0)
(-0.0557679 0.335505 0)
(-0.05426 0.343381 0)
(-0.0510884 0.347683 0)
(-0.0473797 0.348371 0)
(-0.0426641 0.342471 0)
(-0.0373321 0.331951 0)
(-0.0316445 0.317442 0)
(-0.0255296 0.299743 0)
(-0.0189381 0.279998 0)
(-0.012195 0.259741 0)
(-0.00653871 0.240484 0)
(-0.00271739 0.22321 0)
(-0.00232326 0.207948 0)
(-0.00481477 0.191921 0)
(-0.00549545 0.175626 0)
(-0.00261869 0.166082 0)
(0.00196214 0.18253 0)
(-0.00187562 0.196702 0)
(-0.018394 0.209917 0)
(-0.0259111 0.225259 0)
(-0.0361638 0.244738 0)
(-0.0436502 0.266731 0)
(-0.047631 0.288105 0)
(-0.0497185 0.307026 0)
(-0.0502477 0.322491 0)
(-0.0493929 0.3334 0)
(-0.0472736 0.34058 0)
(-0.0443557 0.342974 0)
(-0.0404019 0.339686 0)
(-0.0356708 0.332226 0)
(-0.030539 0.320624 0)
(-0.0250611 0.305534 0)
(-0.0191334 0.287839 0)
(-0.0128863 0.268844 0)
(-0.00723449 0.250101 0)
(-0.0032086 0.232727 0)
(-0.00125201 0.217744 0)
(-0.00131605 0.204343 0)
(0.00020608 0.190908 0)
(-0.00445839 0.174885 0)
(-0.00515156 0.162195 0)
(0.00175256 0.195964 0)
(-0.0020806 0.208615 0)
(-0.0195388 0.223468 0)
(-0.0287272 0.237963 0)
(-0.0365168 0.256412 0)
(-0.0407661 0.27597 0)
(-0.0430515 0.294176 0)
(-0.0440514 0.309915 0)
(-0.0437947 0.322338 0)
(-0.0424076 0.330983 0)
(-0.0400285 0.33516 0)
(-0.0368273 0.335111 0)
(-0.032863 0.3309 0)
(-0.0283846 0.322271 0)
(-0.0236004 0.309939 0)
(-0.0184323 0.294575 0)
(-0.0128515 0.277193 0)
(-0.00736436 0.259146 0)
(-0.00304584 0.241729 0)
(-0.00022699 0.226179 0)
(0.00121654 0.21281 0)
(0.00238613 0.201331 0)
(0.00744725 0.188625 0)
(-0.003211 0.173398 0)
(-0.00824828 0.162726 0)
(5.55957e-05 0.208284 0)
(-0.00188963 0.22111 0)
(-0.0170156 0.23517 0)
(-0.0272268 0.249231 0)
(-0.032956 0.266026 0)
(-0.0356015 0.282809 0)
(-0.037019 0.29815 0)
(-0.0373637 0.311166 0)
(-0.0366321 0.321148 0)
(-0.0349133 0.327674 0)
(-0.0324221 0.330091 0)
(-0.0293048 0.328326 0)
(-0.025588 0.32265 0)
(-0.0214988 0.313172 0)
(-0.0171589 0.300396 0)
(-0.0124762 0.285044 0)
(-0.00767445 0.26818 0)
(-0.00352469 0.251036 0)
(-0.000534449 0.234863 0)
(0.00122653 0.220602 0)
(0.00240282 0.208483 0)
(0.00397574 0.198126 0)
(0.00758335 0.1891 0)
(-0.00103377 0.172428 0)
(-0.00587558 0.162277 0)
(-0.00106662 0.219922 0)
(-0.00289541 0.232955 0)
(-0.014097 0.245798 0)
(-0.0219129 0.259308 0)
(-0.0268898 0.273894 0)
(-0.0291077 0.288036 0)
(-0.0301758 0.300837 0)
(-0.0302108 0.311469 0)
(-0.0292742 0.319215 0)
(-0.0275042 0.323565 0)
(-0.0251061 0.3245 0)
(-0.0221659 0.321779 0)
(-0.0187766 0.315207 0)
(-0.0151614 0.305241 0)
(-0.0113588 0.292372 0)
(-0.00746999 0.277366 0)
(-0.00396241 0.261188 0)
(-0.00128904 0.245021 0)
(0.000425078 0.230064 0)
(0.00131193 0.216984 0)
(0.00196005 0.205909 0)
(0.00268418 0.196461 0)
(0.0040143 0.187468 0)
(-1.51792e-05 0.174647 0)
(-0.00102887 0.161481 0)
(-0.00136454 0.230329 0)
(-0.00366218 0.243345 0)
(-0.0114197 0.256051 0)
(-0.016194 0.267961 0)
(-0.0206815 0.280388 0)
(-0.0225987 0.29222 0)
(-0.0234443 0.302785 0)
(-0.0233336 0.311291 0)
(-0.0223333 0.317308 0)
(-0.0206472 0.32021 0)
(-0.0184305 0.319739 0)
(-0.0157315 0.315933 0)
(-0.0126888 0.308776 0)
(-0.00953072 0.298616 0)
(-0.00634079 0.285951 0)
(-0.00342897 0.27146 0)
(-0.00116165 0.256098 0)
(0.000401851 0.241022 0)
(0.0012799 0.227183 0)
(0.00183242 0.214164 0)
(0.00219825 0.204809 0)
(0.00227771 0.196656 0)
(0.00229631 0.187804 0)
(-9.76931e-05 0.175828 0)
(-0.000179806 0.163965 0)
(-0.0011567 0.238948 0)
(-0.00305004 0.251329 0)
(-0.00876917 0.26397 0)
(-0.0123877 0.274826 0)
(-0.0161137 0.285411 0)
(-0.0173583 0.295336 0)
(-0.0178279 0.304022 0)
(-0.0175271 0.310796 0)
(-0.0164731 0.315196 0)
(-0.0148174 0.31676 0)
(-0.0127403 0.315294 0)
(-0.0102754 0.310779 0)
(-0.00756344 0.303287 0)
(-0.00481836 0.293152 0)
(-0.00226483 0.280843 0)
(-0.000185056 0.266991 0)
(0.00127801 0.252531 0)
(0.00202917 0.238383 0)
(0.00239704 0.224638 0)
(0.00280911 0.213831 0)
(0.00278371 0.204795 0)
(0.00231515 0.197895 0)
(0.00185033 0.189339 0)
(-0.00031962 0.178424 0)
(-0.000151152 0.165257 0)
(-0.000933106 0.24543 0)
(-0.00236666 0.257456 0)
(-0.00651582 0.26919 0)
(-0.00943949 0.27941 0)
(-0.0125014 0.288876 0)
(-0.0131685 0.297317 0)
(-0.0133192 0.304515 0)
(-0.012834 0.309858 0)
(-0.0117403 0.312857 0)
(-0.0101554 0.313389 0)
(-0.00821026 0.311255 0)
(-0.00594551 0.306217 0)
(-0.00353981 0.298525 0)
(-0.0012304 0.28856 0)
(0.00080586 0.276723 0)
(0.00235914 0.263616 0)
(0.00326771 0.249993 0)
(0.00352597 0.236749 0)
(0.00363288 0.224021 0)
(0.003815 0.215519 0)
(0.00381907 0.205184 0)
(0.00249668 0.197963 0)
(0.00143252 0.190009 0)
(-0.00042187 0.179502 0)
(-0.000183482 0.167271 0)
(-0.00079668 0.250456 0)
(-0.00201147 0.261901 0)
(-0.005326 0.273305 0)
(-0.00717418 0.282656 0)
(-0.00907919 0.291095 0)
(-0.00961033 0.298542 0)
(-0.00970229 0.304504 0)
(-0.00916056 0.308706 0)
(-0.00813793 0.310743 0)
(-0.00673644 0.310423 0)
(-0.00497254 0.307624 0)
(-0.00293618 0.302244 0)
(-0.000783158 0.294661 0)
(0.00127663 0.284916 0)
(0.00297622 0.273422 0)
(0.00413204 0.260974 0)
(0.0046454 0.248071 0)
(0.00476093 0.234471 0)
(0.00488789 0.225531 0)
(0.00500887 0.213392 0)
(0.00519616 0.205785 0)
(0.00274519 0.198634 0)
(0.000960674 0.191236 0)
(-0.00059926 0.18112 0)
(-0.000270249 0.168951 0)
(-0.000706151 0.254409 0)
(-0.00167089 0.265599 0)
(-0.00435396 0.276305 0)
(-0.00537175 0.285458 0)
(-0.00653422 0.291956 0)
(-0.00725235 0.299486 0)
(-0.00721775 0.30447 0)
(-0.00664294 0.307757 0)
(-0.0056454 0.30907 0)
(-0.00425658 0.307967 0)
(-0.00263762 0.304432 0)
(-0.000906729 0.298755 0)
(0.0009209 0.289708 0)
(0.00267089 0.280254 0)
(0.00405586 0.270653 0)
(0.00500916 0.258789 0)
(0.00555454 0.246521 0)
(0.00582875 0.234396 0)
(0.00592124 0.223192 0)
(0.00596501 0.213891 0)
(0.00512883 0.206913 0)
(0.00257165 0.200224 0)
(0.00105468 0.192748 0)
(-0.000465505 0.182242 0)
(-0.000201479 0.170609 0)
(-0.000573736 0.257511 0)
(-0.00134884 0.268281 0)
(-0.00340679 0.278737 0)
(-0.00396108 0.287465 0)
(-0.00489128 0.29614 0)
(-0.00572563 0.299263 0)
(-0.005504 0.303309 0)
(-0.00500665 0.306176 0)
(-0.00414538 0.305606 0)
(-0.00295044 0.30406 0)
(-0.00144929 0.301848 0)
(0.000287894 0.295972 0)
(0.00178453 0.287927 0)
(0.00289593 0.278639 0)
(0.00398306 0.268251 0)
(0.00498237 0.256889 0)
(0.00575418 0.245264 0)
(0.00633274 0.235848 0)
(0.00655548 0.222695 0)
(0.00592436 0.215889 0)
(0.00401854 0.207842 0)
(0.00222049 0.20155 0)
(0.00174382 0.193715 0)
(0.000104537 0.183751 0)
(0.00020736 0.172285 0)
(-0.000478644 0.259909 0)
(-0.00108522 0.270478 0)
(-0.00272702 0.28037 0)
(-0.00309338 0.288719 0)
(-0.00374921 0.295145 0)
(-0.00414735 0.299587 0)
(-0.00430838 0.303254 0)
(-0.00399855 0.304815 0)
(-0.0034045 0.305378 0)
(-0.00273781 0.30327 0)
(-0.00162532 0.297886 0)
(-2.30892e-05 0.291922 0)
(0.00138047 0.287967 0)
(0.00259261 0.278783 0)
(0.00368766 0.266218 0)
(0.00467314 0.255224 0)
(0.00543068 0.244101 0)
(0.00628517 0.23285 0)
(0.00658181 0.225762 0)
(0.00577816 0.215892 0)
(0.00322124 0.208612 0)
(0.00168374 0.202456 0)
(0.00190277 0.194573 0)
(0.000190756 0.184576 0)
(0.000328844 0.173681 0)
(-0.000414527 0.26192 0)
(-0.00098255 0.272171 0)
(-0.00242372 0.281832 0)
(-0.0027871 0.289758 0)
(-0.00329381 0.29473 0)
(-0.00377519 0.302617 0)
(-0.00388266 0.305786 0)
(-0.0036488 0.305126 0)
(-0.00312881 0.306823 0)
(-0.00227263 0.304252 0)
(-0.00128298 0.297213 0)
(-0.000467021 0.290996 0)
(0.000684617 0.282712 0)
(0.00212688 0.273707 0)
(0.00322238 0.264341 0)
(0.004169 0.253744 0)
(0.00509719 0.243088 0)
(0.00561521 0.231932 0)
(0.00586871 0.223538 0)
(0.00500764 0.216942 0)
(0.00257994 0.211525 0)
(0.00127994 0.203164 0)
(0.0014251 0.195081 0)
(-0.000529705 0.185227 0)
(-0.000133197 0.174546 0)
(-0.000442765 0.263931 0)
(-0.00101441 0.273977 0)
(-0.00240598 0.283265 0)
(-0.00289007 0.290478 0)
(-0.00331277 0.298667 0)
(-0.00371824 0.300664 0)
(-0.00368792 0.303202 0)
(-0.00354061 0.306432 0)
(-0.00303954 0.302728 0)
(-0.0020228 0.299891 0)
(-0.00111331 0.298426 0)