/*--------------------------------*- C++ -*----------------------------------*\
| =========                 |                                                 |
| \\      /  F ield         | OpenFOAM: The Open Source CFD Toolbox           |
|  \\    /   O peration     | Version:  2.3.0                                 |
|   \\  /    A nd           | Web:      www.OpenFOAM.org                      |
|    \\/     M anipulation  |                                                 |
\*---------------------------------------------------------------------------*/
FoamFile
{
    version     2.0;
    format      ascii;
    class       surfaceScalarField;
    location    "1.2";
    object      phi.particles;
}
// * * * * * * * * * * * * * * * * * * * * * * * * * * * * * * * * * * * * * //

dimensions      [0 3 -1 0 0 0 0];

internalField   nonuniform List<scalar> 
11770
(
9.0617e-07
-1.1794e-05
1.41017e-06
-1.37863e-05
3.51275e-06
-1.52543e-05
6.15375e-06
-1.69809e-05
7.23941e-06
-1.76131e-05
7.17184e-06
-1.87603e-05
5.94315e-06
-2.17265e-05
3.83555e-06
-2.50049e-05
-5.20082e-07
-2.59203e-05
-5.86822e-06
-2.38412e-05
-8.93005e-06
-2.25838e-05
-9.72724e-06
-2.27655e-05
-9.73347e-06
-2.20606e-05
-1.01918e-05
-2.28871e-05
-1.14125e-05
-2.46264e-05
-1.18675e-05
-2.62606e-05
-1.19766e-05
-2.74095e-05
-1.18727e-05
-2.76632e-05
-1.08712e-05
-2.69391e-05
-9.09786e-06
-2.55154e-05
-7.10354e-06
-2.52261e-05
-6.19521e-06
-2.57761e-05
-7.61818e-06
-2.80419e-05
-9.02934e-06
-2.79601e-05
-7.61231e-06
-2.29153e-05
-4.61766e-06
-2.21127e-05
-1.3929e-06
-2.33004e-05
7.43761e-07
-2.46524e-05
9.10051e-07
-2.66839e-05
-2.4553e-05
1.14968e-07
9.65304e-07
3.13764e-07
4.45504e-07
3.67168e-06
-6.26449e-06
8.6174e-06
-8.20432e-06
1.09955e-05
-3.16368e-06
9.53088e-06
1.85516e-06
3.8609e-06
1.70863e-06
-2.49616e-06
-3.08722e-06
-6.47615e-06
-6.35683e-06
-9.20049e-06
-3.48527e-06
-1.14441e-05
-2.45685e-06
-1.31072e-05
-3.59935e-06
-1.45052e-05
-3.84664e-06
-1.53619e-05
-4.71144e-06
-1.652e-05
-5.59107e-06
-1.77655e-05
-5.34405e-06
-1.75257e-05
-5.64713e-06
-1.59345e-05
-6.42334e-06
-1.3212e-05
-7.06951e-06
-1.04565e-05
-7.62465e-06
-8.00615e-06
-7.65165e-06
-5.84303e-06
-7.62772e-06
-4.31588e-06
-8.6819e-06
-3.88093e-06
-8.70796e-06
-5.86558e-06
-5.38535e-06
-7.13426e-06
-6.87697e-06
-5.58797e-06
-9.21857e-06
-4.24288e-06
-9.15806e-06
-3.49394e-06
-9.62534e-06
-1.12667e-05
-1.63617e-06
-2.60057e-06
2.60433e-08
-4.64837e-06
2.80904e-06
-9.23339e-06
7.71254e-06
-1.05273e-05
1.07348e-05
-5.75016e-06
9.1676e-06
-2.18035e-07
2.30432e-06
2.03898e-06
-5.18143e-06
-7.60532e-09
-8.98608e-06
-1.06645e-06
-1.16707e-05
-2.7972e-08
-1.40639e-05
1.3625e-07
-1.56017e-05
-6.96268e-07
-1.75708e-05
-4.35161e-07
-1.9109e-05
-5.5304e-08
-1.97718e-05
-4.4274e-08
-1.96155e-05
-5.15832e-07
-1.78116e-05
-2.1473e-06
-1.50978e-05
-3.74032e-06
-1.23679e-05
-5.72359e-06
-9.86409e-06
-6.78795e-06
-7.90295e-06
-7.18477e-06
-6.57147e-06
-7.18663e-06
-6.02595e-06
-6.36489e-06
-6.62235e-06
-5.6903e-06
-8.12584e-06
-5.74155e-06
-7.68088e-06
-9.58214e-06
-3.88091e-06
-1.34743e-05
-8.53521e-07
-1.27034e-05
1.7506e-07
-1.00738e-05
-9.88252e-06
4.135e-07
-3.55995e-06
5.06824e-06
-6.74491e-06
7.78704e-06
-9.40348e-06
9.33211e-06
-8.8385e-06
9.57612e-06
-3.44311e-06
7.17446e-06
3.46411e-06
1.83336e-06
6.25122e-06
-4.23792e-06
5.27825e-06
-8.79699e-06
4.77061e-06
-1.24017e-05
5.03124e-06
-1.47415e-05
5.76537e-06
-1.60714e-05
5.44155e-06
-1.78028e-05
6.31572e-06
-1.8951e-05
6.91624e-06
-1.90978e-05
6.94924e-06
-1.73117e-05
5.18893e-06
-1.41879e-05
2.88704e-06
-1.21573e-05
2.03501e-06
-1.12865e-05
1.05723e-06
-1.09775e-05
6.59408e-07
-1.11645e-05
6.79952e-07
-1.18768e-05
1.07718e-06
-1.26423e-05
1.10347e-06
-1.32632e-05
5.15086e-07
-1.18324e-05
-1.64386e-06
-7.80996e-06
-8.07416e-06
-3.08566e-06
-1.21447e-05
1.54822e-06
-1.13578e-05
3.23057e-06
-3.67867e-06
-2.15167e-06
3.21955e-06
-7.23219e-06
1.03607e-05
-1.29299e-05
1.4553e-05
-1.22032e-05
1.40643e-05
-8.67295e-06
9.08778e-06
-1.64841e-06
3.04853e-06
8.64629e-06
-3.92924e-07
1.14472e-05
-2.86005e-06
1.02702e-05
-4.82857e-06
1.08716e-05
-8.49772e-06
1.19963e-05
-1.22328e-05
1.27934e-05
-1.47629e-05
1.29868e-05
-1.63609e-05
1.40671e-05
-1.70138e-05
1.49986e-05
-1.63563e-05
1.46804e-05
-1.43708e-05
1.07561e-05
-1.27362e-05
7.54296e-06
-1.26528e-05
6.64437e-06
-1.42391e-05
6.559e-06
-1.68757e-05
7.13849e-06
-1.88635e-05
8.29013e-06
-1.94531e-05
9.3947e-06
-1.89513e-05
9.61033e-06
-1.66837e-05
7.74951e-06
-1.22427e-05
2.68625e-06
-7.46323e-06
-6.16125e-06
-3.43522e-06
-1.02008e-05
1.21026e-06
-9.60758e-06
3.61535e-06
1.59591e-06
6.07343e-06
5.52508e-06
-1.25021e-05
1.47011e-05
-1.8316e-05
1.86776e-05
-1.36252e-05
1.65935e-05
-6.87762e-06
8.34789e-06
2.44045e-06
1.44052e-07
1.52717e-05
-1.23674e-06
1.81542e-05
-3.07563e-07
1.56436e-05
5.92512e-07
1.68685e-05
-1.60091e-06
1.98218e-05
-6.63604e-06
2.1137e-05
-1.05775e-05
2.06866e-05
-1.20904e-05
2.0798e-05
-1.24846e-05
2.15313e-05
-1.19435e-05
2.05309e-05
-1.15681e-05
1.47229e-05
-1.24559e-05
1.04875e-05
-1.41378e-05
9.19438e-06
-1.66243e-05
9.75167e-06
-1.96414e-05
1.11944e-05
-2.16967e-05
1.29074e-05
-2.11109e-05
1.44838e-05
-1.83448e-05
1.49184e-05
-1.37111e-05
1.18503e-05
-7.98394e-06
5.01553e-06
-4.24433e-06
-4.94535e-06
-2.45517e-06
-8.7665e-06
-9.99377e-08
-6.66861e-06
2.26446e-06
7.03178e-06
1.57791e-05
7.16486e-06
-1.68242e-05
1.5939e-05
-2.2157e-05
1.91039e-05
-1.40778e-05
1.66987e-05
-2.51555e-06
6.94374e-06
1.04239e-05
-1.54963e-06
2.37112e-05
2.30785e-07
2.63819e-05
4.05993e-06
2.30974e-05
6.10834e-06
2.43207e-05
4.20221e-06
2.87457e-05
-1.35814e-06
2.93084e-05
-5.11095e-06
2.59048e-05
-6.22485e-06
2.39908e-05
-6.50858e-06
2.34868e-05
-6.96191e-06
2.17344e-05
-8.86203e-06
1.62636e-05
-1.18431e-05
1.07968e-05
-1.44756e-05
8.04294e-06
-1.67078e-05
8.22654e-06
-1.90153e-05
1.03785e-05
-2.00331e-05
1.2841e-05
-1.87716e-05
1.41135e-05
-1.4509e-05
1.31467e-05
-8.34835e-06
8.55654e-06
-3.65225e-06
1.60087e-06
-2.02849e-06
-6.26751e-06
-2.29331e-06
-9.39559e-06
-2.49789e-06
-4.41924e-06
-1.4393e-06
9.58264e-06
2.02254e-05
6.96794e-06
-1.99422e-05
1.04313e-05
-2.72855e-05
1.19654e-05
-1.25135e-05
1.1448e-05
8.9555e-06
3.0293e-06
2.15851e-05
-2.37002e-06
3.11376e-05
3.88762e-06
3.2041e-05
9.07988e-06
3.07206e-05
9.27356e-06
3.30905e-05
6.03517e-06
3.66517e-05
1.72157e-06
3.3701e-05
-4.10497e-07
2.71316e-05
-1.21527e-06
2.21438e-05
-1.52929e-06
1.9738e-05
-2.6984e-06
1.71359e-05
-6.3878e-06
1.30515e-05
-1.09722e-05
6.96637e-06
-1.35757e-05
2.46979e-06
-1.51126e-05
1.25327e-06
-1.57464e-05
3.70438e-06
-1.56557e-05
5.609e-06
-1.35554e-05
6.62983e-06
-9.45438e-06
4.0737e-06
-4.83573e-06
-1.48924e-06
-1.8613e-06
-8.13583e-06
-1.25901e-06
-1.3765e-05
-2.90378e-06
-1.51073e-05
-5.11778e-06
-8.59007e-06
-3.85973e-06
5.87135e-06
1.62665e-05
4.76683e-06
-2.4627e-05
2.22874e-06
-3.33245e-05
-1.39746e-06
-1.09456e-05
-1.26842e-06
1.79037e-05
-2.32518e-06
2.64737e-05
1.45637e-06
3.18629e-05
9.13639e-06
3.18931e-05
1.07628e-05
3.44946e-05
7.54823e-06
3.88514e-05
4.37645e-06
3.9444e-05
2.92094e-06
3.33276e-05
1.92321e-06
2.29168e-05
1.72584e-06
1.47077e-05
1.37564e-06
8.86886e-06
1.39037e-09
5.15491e-06
-3.89198e-06
-1.34065e-07
-8.88349e-06
-5.63242e-06
-1.15243e-05
-1.17952e-05
-1.16868e-05
-1.35704e-05
-1.11378e-05
-1.22125e-05
-9.76598e-06
-1.00316e-05
-8.1386e-06
-1.03781e-05
-5.80955e-06
-1.26344e-05
-3.67916e-06
-1.70913e-05
-1.8632e-06
-2.16078e-05
-1.24901e-06
-2.52347e-05
-2.79717e-06
-2.51261e-05
-5.95811e-06
-2.12902e-05
-4.96546e-06
-1.13894e-05
-2.12027e-06
4.27238e-06
-3.09581e-05
-1.04578e-06
-3.88849e-05
-8.94672e-06
-1.82634e-05
-7.8339e-06
9.73299e-06
-1.80502e-06
1.65863e-05
6.81617e-06
2.00789e-05
1.11969e-05
2.09987e-05
7.6758e-06
2.70792e-05
3.27639e-06
3.36823e-05
2.50365e-06
3.34718e-05
2.69427e-06
2.23471e-05
2.44434e-06
7.46647e-06
1.44047e-06
-4.31567e-06
2.13739e-07
-1.06181e-05
-1.5069e-06
-1.59103e-05
-4.17257e-06
-2.3076e-05
-6.69755e-06
-2.76533e-05
-8.16836e-06
-3.14462e-05
-8.47797e-06
-3.2755e-05
-7.32638e-06
-3.15633e-05
-5.99643e-06
-2.90788e-05
-5.19707e-06
-2.84424e-05
-5.02074e-06
-2.84332e-05
-4.72788e-06
-2.98873e-05
-4.15755e-06
-3.13202e-05
-3.76822e-06
-3.33853e-05
-4.32268e-06
-3.42824e-05
-5.26976e-06
-3.37982e-05
-4.74795e-06
-3.14516e-05
-2.63911e-05
2.72166e-06
-3.54252e-05
-3.09441e-06
-4.30437e-05
-9.98174e-06
-3.02104e-05
-9.82211e-06
-1.4607e-05
-2.13956e-06
-9.16286e-06
3.39191e-06
-7.2869e-06
2.6197e-06
-6.23675e-06
-8.47201e-07
-3.70617e-08
-3.81559e-06
4.07392e-06
-1.96603e-06
4.86798e-06
-4.74342e-07
-7.32374e-06
-1.35391e-06
-2.04943e-05
-2.62507e-06
-2.968e-05
-3.30011e-06
-3.30642e-05
-4.09952e-06
-3.55431e-05
-3.7908e-06
-3.73983e-05
-2.25346e-06
-3.76318e-05
-2.45592e-06
-3.73373e-05
-4.4094e-06
-3.85981e-05
-5.06589e-06
-3.66174e-05
-4.48785e-06
-3.32713e-05
-4.3974e-06
-3.10536e-05
-4.59814e-06
-2.98869e-05
-4.89943e-06
-2.95622e-05
-5.95476e-06
-3.01328e-05
-6.85755e-06
-3.1578e-05
-6.80473e-06
-3.23445e-05
-5.05814e-06
-3.22882e-05
-3.3104e-06
-3.32897e-05
-3.33986e-05
-3.02495e-07
-3.69689e-05
-6.35407e-06
-4.28964e-05
-7.76725e-06
-3.51065e-05
-1.10655e-05
-3.59501e-05
-1.31852e-05
-3.51148e-05
-1.396e-05
-3.59844e-05
-1.24809e-05
-3.41608e-05
-1.05096e-05
-3.09005e-05
-9.76743e-06
-3.05855e-05
-8.27248e-06
-3.13756e-05
-6.17743e-06
-3.67306e-05
-4.28372e-06
-3.82823e-05
-3.28932e-06
-3.80855e-05
-2.62126e-06
-3.7247e-05
-2.1692e-06
-3.65595e-05
-8.11879e-07
-3.62127e-05
1.10886e-06
-3.53311e-05
1.24132e-06
-3.35795e-05
-9.54626e-07
-3.49495e-05
-3.00972e-06
-3.28822e-05
-2.87389e-06
-2.87883e-05
-1.96265e-06
-2.63108e-05
-1.99874e-06
-2.54798e-05
-3.08897e-06
-2.53468e-05
-5.21875e-06
-2.55611e-05
-7.16582e-06
-2.64521e-05
-7.21116e-06
-2.70383e-05
-5.21468e-06
-2.70856e-05
-2.62245e-06
-2.75915e-05
-2.80556e-05
-2.21514e-06
-3.52799e-05
-9.91438e-06
-4.06961e-05
-1.04595e-05
-3.57431e-05
-1.31222e-05
-3.96635e-05
-2.00589e-05
-4.3441e-05
-2.04567e-05
-4.51474e-05
-1.76474e-05
-4.4571e-05
-1.4325e-05
-4.2934e-05
-1.18138e-05
-4.18334e-05
-8.01262e-06
-4.17118e-05
-3.61413e-06
-3.98413e-05
-1.609e-06
-3.64677e-05
-1.00609e-06
-3.43846e-05
-3.84468e-07
-3.33669e-05
3.06582e-07
-3.26295e-05
1.98241e-06
-3.25326e-05
4.35805e-06
-3.18804e-05
4.50898e-06
-3.01979e-05
1.56973e-06
-3.1469e-05
-1.28583e-06
-2.93279e-05
-1.40812e-06
-2.46614e-05
-1.586e-07
-2.16609e-05
7.65235e-08
-2.05022e-05
-1.91885e-06
-2.02734e-05
-5.1889e-06
-2.0282e-05
-7.74652e-06
-2.09001e-05
-8.12887e-06
-2.15484e-05
-6.481e-06
-2.19998e-05
-3.19127e-06
-2.19064e-05
-2.18026e-05
-3.74978e-06
-3.15846e-05
-1.32076e-05
-3.81779e-05
-1.49996e-05
-3.51462e-05
-1.63356e-05
-3.80233e-05
-1.99541e-05
-4.08252e-05
-1.96712e-05
-4.37545e-05
-1.71357e-05
-4.48564e-05
-1.37752e-05
-4.35137e-05
-9.96312e-06
-4.12144e-05
-4.4389e-06
-3.9134e-05
-2.36115e-08
-3.55736e-05
3.57318e-07
-3.23839e-05
-1.97441e-08
-3.11411e-05
7.39725e-07
-3.05298e-05
2.27142e-06
-2.94296e-05
4.57665e-06
-2.92179e-05
7.40328e-06
-2.86121e-05
8.48486e-06
-2.72655e-05
5.80783e-06
-2.81174e-05
2.17153e-06
-2.59948e-05
1.10518e-06
-2.0318e-05
1.32137e-06
-1.67554e-05
4.88924e-07
-1.51742e-05
-1.8498e-06
-1.46615e-05
-5.17638e-06
-1.47413e-05
-7.83352e-06
-1.52297e-05
-8.28076e-06
-1.57132e-05
-6.52037e-06
-1.61825e-05
-3.49794e-06
-1.63521e-05
-1.63069e-05
-3.22797e-06
-2.92846e-05
-1.49408e-05
-3.61255e-05
-1.83924e-05
-3.42519e-05
-1.83778e-05
-3.64895e-05
-1.92431e-05
-3.8519e-05
-1.80225e-05
-4.16416e-05
-1.47056e-05
-4.24598e-05
-1.03579e-05
-4.08521e-05
-5.52371e-06
-3.87545e-05
-7.16589e-07
-3.49856e-05
1.61586e-06
-3.12091e-05
1.16791e-06
-2.86434e-05
1.05792e-06
-2.80743e-05
2.5139e-06
-2.77051e-05
4.48037e-06
-2.62386e-05
7.07684e-06
-2.54872e-05
1.00094e-05
-2.48017e-05
1.12859e-05
-2.37624e-05
9.21996e-06
-2.43766e-05
5.28279e-06
-2.22812e-05
2.76342e-06
-1.57601e-05
2.12603e-06
-1.14853e-05
9.53464e-07
-9.72931e-06
-1.47694e-06
-9.33505e-06
-4.52496e-06
-9.50321e-06
-7.01256e-06
-9.93024e-06
-7.79035e-06
-1.03135e-05
-6.62232e-06
-1.05147e-05
-3.35596e-06
-1.05742e-05
-1.05378e-05
-4.47367e-06
-2.81171e-05
-1.74591e-05
-3.48703e-05
-1.96407e-05
-3.40239e-05
-1.86125e-05
-3.58188e-05
-1.77304e-05
-3.6937e-05
-1.52945e-05
-3.95316e-05
-1.13266e-05
-3.94218e-05
-6.2214e-06
-3.77538e-05
-1.03084e-06
-3.5517e-05
2.70718e-06
-3.06764e-05
3.97844e-06
-2.71198e-05
3.49174e-06
-2.47379e-05
3.37485e-06
-2.44751e-05
4.62865e-06
-2.39868e-05
6.68905e-06
-2.24754e-05
9.29134e-06
-2.13103e-05
1.21968e-05
-2.07364e-05
1.38259e-05
-2.00789e-05
1.21854e-05
-2.01872e-05
7.91336e-06
-1.72925e-05
4.45439e-06
-1.05409e-05
2.82998e-06
-6.22004e-06
1.10061e-06
-4.58563e-06
-1.20102e-06
-4.44618e-06
-3.66019e-06
-4.85886e-06
-5.69025e-06
-5.41384e-06
-6.52019e-06
-5.82655e-06
-5.70035e-06
-5.95978e-06
-2.89527e-06
-5.86868e-06
-5.57128e-06
-5.57607e-06
-2.73896e-05
-1.82676e-05
-3.42802e-05
-1.96798e-05
-3.42519e-05
-1.77445e-05
-3.57948e-05
-1.57049e-05
-3.5548e-05
-1.1875e-05
-3.73048e-05
-7.65477e-06
-3.616e-05
-2.42384e-06
-3.51769e-05
3.12377e-06
-3.17376e-05
6.21434e-06
-2.70035e-05
6.95776e-06
-2.35852e-05
6.38214e-06
-2.08219e-05
5.9977e-06
-2.08682e-05
6.63733e-06
-2.03232e-05
8.26318e-06
-1.90003e-05
1.10649e-05
-1.75458e-05
1.41768e-05
-1.66603e-05
1.58108e-05
-1.59916e-05
1.4198e-05
-1.52924e-05
9.76257e-06
-1.10092e-05
5.77188e-06
-4.62118e-06
3.31095e-06
-9.44089e-07
1.19753e-06
1.07683e-07
-8.55573e-07
-1.97801e-07
-2.69556e-06
-9.38863e-07
-4.14048e-06
-1.76817e-06
-4.82632e-06
-2.46109e-06
-4.30109e-06
-2.85325e-06
-2.18379e-06
-2.9401e-06
-2.59716e-06
-9.41292e-06
-2.68901e-05
-1.95098e-05
-3.3987e-05
-1.86105e-05
-3.49054e-05
-1.53375e-05
-3.54151e-05
-1.27562e-05
-3.35239e-05
-8.3717e-06
-3.57069e-05
-3.26341e-06
-3.30762e-05
2.13949e-06
-3.2079e-05
7.45884e-06
-2.78755e-05
1.00876e-05
-2.36771e-05
1.03582e-05
-1.99374e-05
9.20116e-06
-1.69983e-05
8.18913e-06
-1.69714e-05
8.48387e-06
-1.63197e-05
1.02603e-05
-1.49615e-05
1.33154e-05
-1.35028e-05
1.63033e-05
-1.22554e-05
1.74173e-05
-1.11427e-05
1.52353e-05
-9.2341e-06
1.05997e-05
-3.47648e-06
6.30965e-06
1.95824e-06
3.28771e-06
4.24718e-06
1.05687e-06
4.41648e-06
-6.59929e-07
3.59933e-06
-1.96736e-06
2.4071e-06
-2.86924e-06
1.12496e-06
-3.25594e-06
-9.64107e-08
-2.86621e-06
-9.75376e-07
-1.43505e-06
-1.54014e-06
-1.3693e-06
-1.27363e-05
-2.77308e-05
-1.81795e-05
-3.12348e-05
-1.55834e-05
-3.45202e-05
-1.20356e-05
-3.37387e-05
-8.30961e-06
-2.97947e-05
-3.40733e-06
-3.20169e-05
1.74723e-06
-2.96189e-05
7.3764e-06
-2.80149e-05
1.204e-05
-2.37036e-05
1.38529e-05
-2.01635e-05
1.37311e-05
-1.62987e-05
1.2999e-05
-1.35606e-05
1.16688e-05
-1.31792e-05
1.10929e-05
-1.22654e-05
1.23747e-05
-1.04302e-05
1.53322e-05
-9.1758e-06
1.81263e-05
-7.53221e-06
1.84598e-05
-5.51817e-06
1.51515e-05
-1.55725e-06
9.87099e-06
5.08105e-06
5.46478e-06
8.47267e-06
2.56524e-06
8.92125e-06
6.65265e-07
8.04649e-06
-6.48861e-07
6.6078e-06
-1.5426e-06
4.96613e-06
-2.079e-06
3.30216e-06
-2.24443e-06
1.72323e-06
-1.9151e-06
2.9493e-07
-1.0186e-06
-7.41807e-07
-8.7684e-07
-1.0531e-05
-2.25719e-05
-1.26404e-05
-2.26321e-05
-9.64087e-06
-2.82098e-05
-6.57126e-06
-2.80827e-05
-2.77669e-06
-2.37768e-05
2.59714e-06
-2.54156e-05
7.19082e-06
-2.52364e-05
1.23866e-05
-2.33599e-05
1.63112e-05
-1.94663e-05
1.69674e-05
-1.65444e-05
1.66184e-05
-1.28139e-05
1.67163e-05
-1.00774e-05
1.56933e-05
-9.26751e-06
1.45132e-05
-8.40505e-06
1.50299e-05
-6.28565e-06
1.76667e-05
-4.68206e-06
1.97913e-05
-2.20217e-06
1.84084e-05
1.46501e-06
1.31625e-05
8.25265e-06
7.4316e-06
1.29337e-05
4.02848e-06
1.34004e-05
2.0061e-06
1.22763e-05
6.65365e-07
1.05832e-05
-2.74224e-07
8.67675e-06
-9.29029e-07
6.72588e-06
-1.34404e-06
4.81866e-06
-1.50959e-06
3.01106e-06
-1.36252e-06
1.35381e-06
-8.22482e-07
-3.93326e-08
-5.58403e-07
-5.7666e-06
-1.84288e-05
-6.90133e-06
-1.30463e-05
-4.67744e-06
-1.688e-05
-4.6936e-07
-1.75384e-05
3.77773e-06
-1.62151e-05
7.82527e-06
-1.87497e-05
1.23781e-05
-2.04322e-05
1.72618e-05
-1.84194e-05
1.96457e-05
-1.53627e-05
1.92836e-05
-1.2504e-05
1.92325e-05
-8.88273e-06
2.0295e-05
-6.35661e-06
2.00628e-05
-5.16168e-06
1.86804e-05
-4.4552e-06
1.87127e-05
-2.55554e-06
2.05475e-05
-2.73835e-07
2.08276e-05
3.97014e-06
1.60723e-05
1.13315e-05
9.3044e-06
1.69735e-05
5.80642e-06
1.74018e-05
4.02703e-06
1.6059e-05
2.73232e-06
1.42201e-05
1.70753e-06
1.21793e-05
8.81537e-07
1.00711e-05
2.17272e-07
7.98117e-06
-2.99415e-07
5.96448e-06
-6.53324e-07
4.04913e-06
-7.86931e-07
2.25476e-06
-6.00652e-07
6.83693e-07
-2.49082e-07
-7.71196e-07
-1.42919e-05
3.67668e-07
-9.65855e-06
3.57355e-06
-1.08023e-05
6.87992e-06
-9.51968e-06
1.03308e-05
-9.39532e-06
1.34555e-05
-1.22103e-05
1.76181e-05
-1.42554e-05
2.12094e-05
-1.26351e-05
2.20371e-05
-1.04817e-05
2.13803e-05
-7.56489e-06
2.19698e-05
-4.38259e-06
2.37809e-05
-2.21924e-06
2.43368e-05
-8.03528e-07
2.33108e-05
-3.23122e-08
2.31474e-05
1.54596e-06
2.34352e-05
4.9212e-06
1.92412e-05
1.33166e-05
1.21416e-05
1.99473e-05
8.42601e-06
2.04825e-05
6.98688e-06
1.92354e-05
5.73674e-06
1.74792e-05
4.57955e-06
1.54863e-05
3.53048e-06
1.33603e-05
2.58899e-06
1.1192e-05
1.75169e-06
9.0544e-06
1.00974e-06
6.99683e-06
3.76594e-07
5.03193e-06
-9.23953e-08
3.15079e-06
-2.81949e-07
1.41257e-06
1.15705e-07
9.40185e-08
-6.99751e-06
2.99568e-06
-1.01985e-05
8.26148e-06
-1.18536e-05
1.32388e-05
-8.89953e-06
1.66722e-05
-6.48873e-06
1.92091e-05
-6.58762e-06
2.22476e-05
-7.69607e-06
2.43216e-05
-6.50724e-06
2.42816e-05
-4.77769e-06
2.38822e-05
-1.99332e-06
2.49626e-05
4.88605e-07
2.70226e-05
2.41691e-06
2.8139e-05
3.98726e-06
2.79494e-05
5.2311e-06
2.75767e-05
6.96881e-06
2.32665e-05
1.36351e-05
1.60264e-05
2.14431e-05
1.2025e-05
2.25347e-05
1.07195e-05
2.17044e-05
9.50975e-06
2.02873e-05
8.23677e-06
1.85462e-05
6.96561e-06
1.65737e-05
5.7406e-06
1.44462e-05
4.57573e-06
1.22759e-05
3.46923e-06
1.01369e-05
2.41727e-06
8.07056e-06
1.44886e-06
6.07361e-06
6.35936e-07
4.11332e-06
8.09079e-08
2.20389e-06
5.38833e-07
1.10829e-06
9.03778e-07
3.62804e-06
-8.46689e-06
9.21137e-06
-1.20434e-05
1.4656e-05
-9.96668e-06
1.92757e-05
-5.69983e-06
2.30447e-05
-2.26684e-06
2.61587e-05
-1.41604e-06
2.72928e-05
1.75027e-07
2.67286e-05
2.11086e-06
2.65466e-05
4.29763e-06
2.79592e-05
6.24363e-06
3.00351e-05
8.31163e-06
3.15244e-05
1.02537e-05
3.19527e-05
1.21298e-05
2.78313e-05
1.50268e-05
2.01531e-05
2.18348e-05
1.59386e-05
2.35675e-05
1.48607e-05
2.32749e-05
1.37686e-05
2.24448e-05
1.24942e-05
2.11569e-05
1.10977e-05
1.95367e-05
9.65339e-06
1.76228e-05
8.19598e-06
1.55298e-05
6.73172e-06
1.33964e-05
5.24069e-06
1.12988e-05
3.75833e-06
9.25389e-06
2.39026e-06
7.20533e-06
1.24994e-06
5.10999e-06
4.20395e-07
3.0083e-06
9.98406e-07
3.41212e-06
7.80241e-06
6.98741e-06
-4.66424e-06
1.17899e-05
-9.80142e-06
1.46133e-05
-8.57687e-06
1.91682e-05
-3.44742e-06
2.41929e-05
2.0945e-06
2.77255e-05
5.57061e-06
2.85047e-05
8.29841e-06
2.82033e-05
1.03643e-05
2.88898e-05
1.21895e-05
3.06918e-05
1.43986e-05
3.25859e-05
1.65021e-05
3.37441e-05
1.8351e-05
3.16193e-05
1.96789e-05
2.46711e-05
2.22007e-05
1.95323e-05
2.36466e-05
1.88576e-05
2.37443e-05
1.81242e-05
2.36085e-05
1.70562e-05
2.28642e-05
1.57378e-05
2.18381e-05
1.4253e-05
2.04413e-05
1.26666e-05
1.8685e-05
1.08982e-05
1.67716e-05
8.99976e-06
1.4775e-05
6.92715e-06
1.28278e-05
4.8272e-06
1.08292e-05
3.00474e-06
8.60769e-06
1.654e-06
6.19551e-06
7.1292e-07
3.70916e-06
1.33349e-06
7.77761e-06
1.10289e-05
1.13597e-05
-2.70452e-06
1.3823e-05
-7.61042e-06
1.45078e-05
-6.15223e-06
1.82917e-05
-2.27369e-07
2.46271e-05
7.48619e-06
2.89677e-05
1.40259e-05
2.96836e-05
1.80327e-05
2.96235e-05
2.04995e-05
3.01843e-05
2.24246e-05
3.06565e-05
2.30548e-05
3.11599e-05
2.32159e-05
3.14783e-05
2.38027e-05
2.80946e-05
2.36025e-05
2.26935e-05
2.33085e-05
2.22159e-05
2.31348e-05
2.20017e-05
2.34313e-05
2.12509e-05
2.32733e-05
2.04586e-05
2.31316e-05
1.92976e-05
2.25605e-05
1.78898e-05
2.1498e-05
1.62316e-05
2.00266e-05
1.39217e-05
1.85212e-05
1.12647e-05
1.73238e-05
8.27234e-06
1.57804e-05
5.46943e-06
1.34498e-05
3.37253e-06
1.05497e-05
2.03905e-06
7.4512e-06
1.11967e-06
4.48616e-06
1.6629e-06
1.21793e-05
8.67827e-06
1.4664e-05
-3.57172e-06
1.54837e-05
-6.35703e-06
1.46775e-05
-4.23921e-06
1.81809e-05
3.42975e-06
2.5438e-05
1.58609e-05
2.89898e-05
2.54654e-05
2.86086e-05
3.01868e-05
2.64464e-05
3.11011e-05
2.35335e-05
2.86602e-05
2.24679e-05
2.48006e-05
2.43278e-05
2.23021e-05
2.68574e-05
2.20864e-05
2.55085e-05
2.24165e-05
2.44789e-05
2.23069e-05
2.46976e-05
2.21574e-05
2.44978e-05
2.24238e-05
2.44596e-05
2.29067e-05
2.39928e-05
2.32178e-05
2.32289e-05
2.33591e-05
2.20638e-05
2.28412e-05
2.02506e-05
2.23919e-05
1.76044e-05
2.24311e-05
1.37549e-05
2.17708e-05
1.00344e-05
1.98032e-05
7.25593e-06
1.65444e-05
5.24764e-06
1.26951e-05
3.84522e-06
8.77466e-06
2.23946e-06
5.07522e-06
1.71853e-06
1.35663e-05
9.03768e-07
1.62388e-05
-6.92367e-06
1.70839e-05
-7.11203e-06
1.69346e-05
-2.89986e-06
2.09588e-05
9.34641e-06
2.61633e-05
2.72666e-05
2.56588e-05
3.81854e-05
1.91804e-05
3.99465e-05
1.16482e-05
3.44371e-05
9.0425e-06
2.71115e-05
1.15507e-05
2.19549e-05
1.68095e-05
1.8601e-05
2.30782e-05
1.76016e-05
2.56096e-05
1.89073e-05
2.57535e-05
2.00751e-05
2.62943e-05
2.04156e-05
2.66158e-05
2.10082e-05
2.71898e-05
2.20194e-05
2.76131e-05
2.30688e-05
2.77013e-05
2.40366e-05
2.7225e-05
2.48721e-05
2.48469e-05
2.57006e-05
2.14376e-05
2.59941e-05
1.79292e-05
2.47753e-05
1.47755e-05
2.21618e-05
1.20909e-05
1.85575e-05
9.78501e-06
1.43628e-05
7.65306e-06
1.0192e-05
4.66139e-06
6.08757e-06
2.27332e-06
1.20006e-05
-7.64343e-06
1.59942e-05
-1.12604e-05
1.94791e-05
-9.03908e-06
2.21057e-05
-1.43196e-06
2.41971e-05
1.48374e-05
2.33755e-05
3.57395e-05
1.8198e-05
4.46341e-05
1.19283e-05
4.30717e-05
8.64432e-06
3.59973e-05
8.5856e-06
2.79692e-05
1.02669e-05
2.17396e-05
1.38792e-05
1.71087e-05
1.99031e-05
1.43106e-05
2.47416e-05
1.45874e-05
2.61171e-05
1.66639e-05
2.70453e-05
1.79379e-05
2.78952e-05
1.91406e-05
2.90546e-05
2.06252e-05
3.04292e-05
2.25587e-05
3.15325e-05
2.46965e-05
3.06089e-05
2.61122e-05
2.82144e-05
2.70781e-05
2.56267e-05
2.70926e-05
2.34868e-05
2.59127e-05
2.13612e-05
2.34128e-05
1.90391e-05
1.98484e-05
1.67725e-05
1.55717e-05
1.40952e-05
1.17609e-05
9.96846e-06
6.3616e-06
-4.25578e-06
9.82374e-06
-1.34806e-05
1.50343e-05
-1.46354e-05
2.04581e-05
-1.023e-05
2.36846e-05
2.39989e-07
2.29735e-05
1.66054e-05
1.91225e-05
3.65764e-05
1.51811e-05
4.57314e-05
1.2751e-05
4.52805e-05
1.07929e-05
3.766e-05
1.07168e-05
2.83051e-05
1.17026e-05
2.15652e-05
1.38402e-05
1.62434e-05
1.81735e-05
1.22301e-05
2.31537e-05
1.07795e-05
2.55819e-05
1.2722e-05
2.69383e-05
1.48975e-05
2.80695e-05
1.67207e-05
2.96191e-05
1.87917e-05
3.15789e-05
2.15416e-05
3.34227e-05
2.4224e-05
3.28528e-05
2.5779e-05
3.15695e-05
2.68078e-05
3.04552e-05
2.70509e-05
2.94498e-05
2.62744e-05
2.84207e-05
2.42181e-05
2.70443e-05
2.1372e-05
2.5406e-05
1.68377e-05
2.4817e-05
6.68099e-06
1.96817e-05
-1.00559e-05
-2.27249e-05
8.16477e-06
-1.55997e-05
1.32663e-05
-1.72933e-05
1.60925e-05
-1.12092e-05
1.68947e-05
2.25284e-07
1.61513e-05
1.61888e-05
1.46742e-05
3.4436e-05
1.39322e-05
4.35844e-05
1.4038e-05
4.46114e-05
1.35612e-05
3.84944e-05
1.33703e-05
2.81998e-05
1.39855e-05
2.12307e-05
1.52982e-05
1.55616e-05
1.80091e-05
1.0975e-05
2.17801e-05
8.32665e-06
2.44941e-05
9.2556e-06
2.61081e-05
1.16508e-05
2.74001e-05
1.39398e-05
2.91399e-05
1.65141e-05
3.16924e-05
1.97253e-05
3.43743e-05
2.27567e-05
3.46255e-05
2.43694e-05
3.44904e-05
2.56019e-05
3.45958e-05
2.62958e-05
3.51718e-05
2.65393e-05
3.64045e-05
2.45794e-05
3.91668e-05
2.07651e-05
3.96922e-05
6.24095e-06
3.06138e-05
-1.4651e-05
1.34859e-05
-3.5832e-05
-3.88251e-05
7.81233e-06
-1.76523e-05
1.15954e-05
-2.0703e-05
1.19188e-05
-1.46922e-05
9.91343e-06
-5.0672e-06
7.42083e-06
7.35831e-06
8.13105e-06
2.93207e-05
1.04451e-05
3.80303e-05
1.25306e-05
4.10036e-05
1.47486e-05
3.72507e-05
1.58189e-05
2.82915e-05
1.6339e-05
2.07619e-05
1.72368e-05
1.48164e-05
1.89073e-05
1.00493e-05
2.13206e-05
6.99436e-06
2.35224e-05
6.88994e-06
2.50877e-05
8.77194e-06
2.644e-05
1.11609e-05
2.81948e-05
1.38799e-05
3.14536e-05
1.7489e-05
3.44071e-05
2.03915e-05
3.52874e-05
2.25314e-05
3.59769e-05
2.41406e-05
3.72233e-05
2.46486e-05
3.88385e-05
2.71788e-05
4.22492e-05
1.63108e-05
3.97499e-05
-5.54799e-06
2.68902e-05
-2.88066e-05
1.1031e-05
-4.18344e-05
2.02338e-06
-4.43875e-05
-3.8891e-05
1.0486e-05
-2.55486e-05
1.20228e-05
-2.55149e-05
1.0307e-05
-2.14488e-05
8.33661e-06
-1.56295e-05
2.45559e-06
-2.38695e-05
2.7676e-06
-5.43991e-06
6.31874e-06
1.80771e-05
9.19944e-06
2.83839e-05
1.35212e-05
2.82688e-05
1.73108e-05
2.23241e-05
1.84479e-05
1.97049e-05
1.923e-05
1.39191e-05
2.01883e-05
9.01214e-06
2.16277e-05
5.96248e-06
2.31193e-05
5.34345e-06
2.4434e-05
6.58437e-06
2.56857e-05
8.6888e-06
2.74751e-05
1.1217e-05
3.08863e-05
1.5018e-05
3.35478e-05
1.75003e-05
3.48703e-05
2.06208e-05
3.49528e-05
2.38902e-05
3.61788e-05
1.8986e-05
3.73024e-05
-5.29643e-06
2.72071e-05
-3.25852e-05
1.2257e-05
-5.07239e-05
5.06874e-06
-5.21305e-05
3.19453e-06
-4.45102e-05
1.22101e-06
-3.91458e-05
-3.49639e-05
1.1511e-05
-3.64471e-05
1.26799e-05
-3.27249e-05
1.49156e-05
-2.62206e-05
4.32391e-06
-3.85197e-05
-3.5009e-06
-4.6684e-05
-5.04734e-06
-4.39114e-05
-3.18991e-06
-2.73733e-05
2.14116e-06
-1.68082e-05
7.94517e-06
-1.47502e-05
1.54715e-05
-1.74026e-05
2.03807e-05
-1.15379e-05
2.07642e-05
1.17178e-05
2.14236e-05
7.05819e-06
2.21416e-05
3.91681e-06
2.31092e-05
3.53635e-06
2.42098e-05
4.84511e-06
2.53098e-05
6.77182e-06
2.69197e-05
8.98026e-06
2.9321e-05
1.29415e-05
3.02229e-05
8.35613e-06
3.14424e-05
-4.06021e-06
2.99374e-05
-1.73028e-05
1.88713e-05
-3.40657e-05
3.96164e-06
-6.18373e-05
-2.36925e-06
-7.16126e-05
-9.63127e-07
-6.30876e-05
1.49827e-06
-5.00335e-05
1.93329e-06
-4.00807e-05
7.41146e-07
-3.49568e-05
-3.16697e-05
7.1445e-06
-4.03719e-05
1.24875e-05
-3.9488e-05
7.21685e-07
-4.25942e-05
-1.09228e-05
-4.99262e-05
-1.10088e-05
-4.99578e-05
-1.05482e-05
-5.0284e-05
-9.34407e-06
-5.0256e-05
-7.51155e-06
-5.04977e-05
-5.37436e-06
-5.05848e-05
-3.85657e-06
-4.93865e-05
9.80877e-06
-4.82332e-05
1.98692e-05
-1.69188e-05
2.24292e-05
3.67935e-06
2.25174e-05
1.50419e-07
2.31634e-05
9.3142e-07
2.39153e-05
2.91434e-06
2.50355e-05
5.83891e-06
2.57484e-05
7.29209e-06
2.53197e-05
-1.23393e-05
1.61455e-05
-3.35625e-05
4.45891e-06
-5.35757e-05
-2.67327e-06
-6.82476e-05
-5.39591e-06
-7.43124e-05
-6.29789e-06
-7.44859e-05
-5.59951e-06
-7.04929e-05
-2.35226e-06
-6.00832e-05
1.07224e-06
-4.62371e-05
1.56831e-06
-3.61885e-05
3.91808e-07
-3.10345e-05
-2.84755e-05
2.8104e-07
-3.77217e-05
-4.07094e-06
-5.25925e-05
-1.57553e-05
-5.1691e-05
-1.58299e-05
-5.08727e-05
-1.34933e-05
-5.10938e-05
-1.1797e-05
-5.06911e-05
-9.90013e-06
-5.04196e-05
-7.69917e-06
-5.13105e-05
-5.05516e-06
-5.08516e-05
-1.93586e-06
-4.88366e-05
2.77332e-06
-5.12004e-05
1.46612e-05
-4.12484e-05
2.21805e-05
-6.80772e-06
2.28391e-05
-5.15011e-06
2.2589e-05
-2.61882e-06
2.38968e-05
1.30453e-06
2.55091e-05
5.21552e-06
1.69716e-05
-1.56006e-05
1.64987e-06
-5.39829e-05
-5.48182e-06
-6.63375e-05
-6.48782e-06
-6.89587e-05
-7.18809e-06
-7.16825e-05
-7.60851e-06
-7.25749e-05
-7.73085e-06
-7.2045e-05
-7.01157e-06
-6.80542e-05
-4.16248e-06
-5.76283e-05
-3.19717e-07
-4.29439e-05
1.02532e-06
-3.20453e-05
1.88035e-07
-2.67264e-05
-2.49337e-05
-2.10724e-06
-3.3849e-05
-1.02944e-05
-5.66545e-05
-1.84358e-05
-5.04326e-05
-1.68447e-05
-5.10904e-05
-1.39933e-05
-5.1728e-05
-1.19249e-05
-5.04355e-05
-1.0119e-05
-4.94037e-05
-7.33258e-06
-4.96203e-05
-4.31657e-06
-4.82112e-05
-8.90169e-07
-4.7123e-05
5.25087e-06
-4.99692e-05
1.40958e-05
-3.907e-05
2.01495e-05
-1.66362e-05
2.08876e-05
-1.13167e-05
2.05624e-05
-6.64517e-06
2.39608e-05
-5.82404e-07
1.41728e-05
-1.30625e-05
-6.75645e-07
-5.14225e-05
-8.40834e-06
-6.48316e-05
-8.02325e-06
-6.54124e-05
-7.81414e-06
-6.66737e-05
-8.14884e-06
-6.91647e-05
-8.58911e-06
-7.00546e-05
-8.88204e-06
-6.95285e-05
-8.07989e-06
-6.52466e-05
-5.12281e-06
-5.49321e-05
-1.52422e-06
-4.02563e-05
-3.67911e-07
-2.87544e-05
-6.57586e-07
-2.33623e-05
-2.18919e-05
-8.28796e-07
-3.12452e-05
-1.06015e-05
-5.3365e-05
-1.8378e-05
-4.87172e-05
-1.6834e-05
-5.06383e-05
-1.34709e-05
-5.1509e-05
-1.1316e-05
-4.92381e-05
-9.46529e-06
-4.79788e-05
-6.28671e-06
-4.80433e-05
-3.10404e-06
-4.60099e-05
2.29817e-07
-4.53519e-05
3.25962e-06
-4.92488e-05
1.00557e-05
-3.85e-05
1.60249e-05
-2.3505e-05
1.72253e-05
-1.67328e-05
1.72408e-05
-1.13434e-05
1.37812e-05
-5.27656e-06
-3.09238e-06
-4.40498e-05
-1.14538e-05
-6.26465e-05
-1.02736e-05
-6.24182e-05
-9.27889e-06
-6.28233e-05
-9.05204e-06
-6.42198e-05
-9.3389e-06
-6.66463e-05
-9.82214e-06
-6.74901e-05
-1.02144e-05
-6.69172e-05
-9.49094e-06
-6.25405e-05
-6.58421e-06
-5.19499e-05
-2.68733e-06
-3.73027e-05
-9.1094e-07
-2.5418e-05
-9.56693e-07
-1.99553e-05
-1.87945e-05
4.72272e-08
-2.99886e-05
-1.00983e-05
-5.0688e-05
-1.76259e-05
-4.68623e-05
-1.59579e-05
-4.94606e-05
-1.25687e-05
-5.01983e-05
-1.06384e-05
-4.73522e-05
-8.28353e-06
-4.66421e-05
-4.90198e-06
-4.58898e-05
-1.74057e-06
-4.46506e-05
1.57904e-06
-4.37423e-05
2.8861e-06
-4.84319e-05
6.11162e-06
-3.9317e-05
1.20467e-05
-2.89368e-05
1.28716e-05
-2.21534e-05
1.97789e-05
-1.56113e-05
3.45948e-06
-1.98381e-05
-1.20153e-05
-5.80951e-05
-1.35797e-05
-6.06489e-05
-1.15573e-05
-5.99951e-05
-1.04467e-05
-6.0372e-05
-1.01029e-05
-6.19757e-05
-1.03717e-05
-6.41405e-05
-1.08734e-05
-6.49129e-05
-1.12095e-05
-6.42968e-05
-1.05172e-05
-5.98911e-05
-7.75104e-06
-4.93544e-05
-3.82103e-06
-3.49179e-05
-1.77756e-06
-2.23807e-05
-1.50112e-06
-1.66084e-05
-1.56642e-05
1.25604e-07
-2.90735e-05
-9.92157e-06
-4.77674e-05
-1.64937e-05
-4.46269e-05
-1.44104e-05
-4.77807e-05
-1.1309e-05
-4.81719e-05
-9.60553e-06
-4.55949e-05
-6.78478e-06
-4.52736e-05
-3.57923e-06
-4.34301e-05
-3.50666e-07
-4.27855e-05
3.06586e-06
-4.2326e-05
3.02473e-06
-4.67834e-05
2.09537e-06
-4.20565e-05
6.33877e-06
-3.2254e-05
7.81281e-06
-2.70425e-05
1.05585e-05
-2.27067e-05
-7.44376e-06
-4.27632e-05
-1.63679e-05
-5.95928e-05
-1.47957e-05
-5.81694e-05
-1.29387e-05
-5.77781e-05
-1.17158e-05
-5.80776e-05
-1.11283e-05
-5.95434e-05
-1.11856e-05
-6.13978e-05