/*--------------------------------*- C++ -*----------------------------------*\
| =========                 |                                                 |
| \\      /  F ield         | OpenFOAM: The Open Source CFD Toolbox           |
|  \\    /   O peration     | Version:  2.3.0                                 |
|   \\  /    A nd           | Web:      www.OpenFOAM.org                      |
|    \\/     M anipulation  |                                                 |
\*---------------------------------------------------------------------------*/
FoamFile
{
    version     2.0;
    format      ascii;
    class       volVectorField;
    location    "52";
    object      U.waterMean;
}
// * * * * * * * * * * * * * * * * * * * * * * * * * * * * * * * * * * * * * //

dimensions      [0 1 -1 0 0 0 0];

internalField   nonuniform List<vector> 
1875
(
(0.0572559 -0.196355 0)
(0.100218 -0.192831 0)
(0.163447 -0.174798 0)
(0.209308 -0.154632 0)
(0.238459 -0.134077 0)
(0.252462 -0.115599 0)
(0.253232 -0.100482 0)
(0.24164 -0.0851724 0)
(0.219093 -0.0726765 0)
(0.185493 -0.0621414 0)
(0.145016 -0.0525142 0)
(0.100878 -0.0487813 0)
(0.0542479 -0.0493777 0)
(0.00853713 -0.0533159 0)
(-0.036149 -0.0586223 0)
(-0.0790743 -0.0640583 0)
(-0.117509 -0.071934 0)
(-0.14877 -0.0819797 0)
(-0.170692 -0.0924884 0)
(-0.181699 -0.104541 0)
(-0.180479 -0.119027 0)
(-0.165637 -0.137455 0)
(-0.134162 -0.158707 0)
(-0.0848258 -0.181317 0)
(-0.0507222 -0.190858 0)
(0.034177 -0.215807 0)
(0.0741171 -0.172284 0)
(0.112133 -0.106532 0)
(0.138248 -0.0494957 0)
(0.15365 0.000364522 0)
(0.161554 0.0452656 0)
(0.161982 0.0820008 0)
(0.154868 0.112835 0)
(0.142956 0.139309 0)
(0.125218 0.15933 0)
(0.10326 0.172035 0)
(0.0793539 0.180151 0)
(0.053365 0.185347 0)
(0.0274283 0.186838 0)
(0.00107499 0.187501 0)
(-0.0247783 0.183865 0)
(-0.0475588 0.173401 0)
(-0.0669926 0.154077 0)
(-0.0822723 0.125244 0)
(-0.0920366 0.0880842 0)
(-0.0949171 0.0429958 0)
(-0.0919733 -0.00380728 0)
(-0.078634 -0.0607055 0)
(-0.0544551 -0.133072 0)
(-0.0244681 -0.186461 0)
(0.0166626 -0.344388 0)
(0.0330962 -0.274659 0)
(0.0441927 -0.203976 0)
(0.0533023 -0.141756 0)
(0.0603144 -0.0859373 0)
(0.066219 -0.0356524 0)
(0.0703479 0.0112177 0)
(0.0711774 0.0514495 0)
(0.0696308 0.0846345 0)
(0.06627 0.114378 0)
(0.0603402 0.136312 0)
(0.0519934 0.147402 0)
(0.0424355 0.152472 0)
(0.0320478 0.150766 0)
(0.0214107 0.145741 0)
(0.0132561 0.134023 0)
(0.00516931 0.114532 0)
(-0.000689457 0.0876715 0)
(-0.00602041 0.0515952 0)
(-0.00882836 0.00911313 0)
(-0.0107489 -0.0346643 0)
(-0.0144073 -0.0780499 0)
(-0.0155972 -0.128433 0)
(-0.0172739 -0.201678 0)
(-0.00916103 -0.284212 0)
(0.00353959 -0.355992 0)
(0.00764382 -0.267111 0)
(0.00763039 -0.191998 0)
(0.00909283 -0.126373 0)
(0.0121213 -0.066418 0)
(0.0157982 -0.0107564 0)
(0.0199128 0.0390564 0)
(0.021969 0.0819012 0)
(0.0239836 0.117793 0)
(0.0265045 0.148738 0)
(0.0288345 0.172076 0)
(0.0306363 0.188388 0)
(0.0308492 0.19766 0)
(0.0303679 0.198417 0)
(0.0299595 0.194579 0)
(0.0296142 0.185962 0)
(0.0291599 0.169548 0)
(0.0283315 0.141675 0)
(0.0269379 0.104636 0)
(0.0245317 0.05861 0)
(0.0212311 0.00777213 0)
(0.0159431 -0.0443026 0)
(0.010837 -0.10164 0)
(0.00298362 -0.177842 0)
(0.00061041 -0.282534 0)
(-0.00286897 -0.367451 0)
(-0.00406147 -0.278993 0)
(-0.0119981 -0.201737 0)
(-0.0209479 -0.138341 0)
(-0.0267336 -0.0829901 0)
(-0.0291658 -0.0296202 0)
(-0.0282969 0.0207151 0)
(-0.0262287 0.0623944 0)
(-0.0226667 0.0970229 0)
(-0.0171938 0.125875 0)
(-0.00983615 0.148192 0)
(-0.00213726 0.167294 0)
(0.00495249 0.178212 0)
(0.0128055 0.180604 0)
(0.0209047 0.175877 0)
(0.0290556 0.166025 0)
(0.0372473 0.147601 0)
(0.0445405 0.122459 0)
(0.0485562 0.0889831 0)
(0.0486336 0.0483416 0)
(0.0440773 0.00169256 0)
(0.0358263 -0.045235 0)
(0.0233197 -0.100346 0)
(0.0100359 -0.179195 0)
(0.00340656 -0.28534 0)
(-0.00547262 -0.357491 0)
(-0.0104209 -0.259459 0)
(-0.0220614 -0.17144 0)
(-0.0373903 -0.104529 0)
(-0.0504396 -0.0551389 0)
(-0.0601334 -0.011217 0)
(-0.0639322 0.0293208 0)
(-0.0643985 0.0659079 0)
(-0.0611858 0.0940368 0)
(-0.0546769 0.11642 0)
(-0.0456882 0.135109 0)
(-0.0342807 0.151617 0)
(-0.0214224 0.161668 0)
(-0.00730047 0.162574 0)
(0.00716021 0.159307 0)
(0.0213804 0.15078 0)
(0.0343562 0.138053 0)
(0.0452704 0.12001 0)
(0.0518193 0.096701 0)
(0.0533055 0.0671736 0)
(0.0483815 0.0320301 0)
(0.0379438 -0.00786478 0)
(0.0230525 -0.0642608 0)
(0.0100613 -0.152763 0)
(0.00334667 -0.271655 0)
(-0.00910095 -0.344281 0)
(-0.0139115 -0.246323 0)
(-0.0273352 -0.153171 0)
(-0.0427669 -0.0800455 0)
(-0.0601226 -0.0319112 0)
(-0.0729123 0.00479717 0)
(-0.0810025 0.0360555 0)
(-0.0841559 0.0617647 0)
(-0.0825726 0.080471 0)
(-0.077139 0.0953547 0)
(-0.0684513 0.107291 0)
(-0.0564949 0.116385 0)
(-0.0412747 0.120896 0)
(-0.0248288 0.120687 0)
(-0.00847297 0.118416 0)
(0.00713441 0.113584 0)
(0.021326 0.105628 0)
(0.0324729 0.0964475 0)
(0.0400013 0.0832328 0)
(0.0421045 0.0653293 0)
(0.0376223 0.0408984 0)
(0.0271808 0.0080064 0)
(0.0161495 -0.05312 0)
(0.00679631 -0.14649 0)
(0.00281301 -0.266478 0)
(-0.00888042 -0.323461 0)
(-0.0147776 -0.220914 0)
(-0.0274718 -0.123167 0)
(-0.0405666 -0.0427198 0)
(-0.0580584 0.00555256 0)
(-0.0721496 0.0336125 0)
(-0.0829032 0.0541968 0)
(-0.0873927 0.0700066 0)
(-0.0876148 0.0794393 0)
(-0.0828864 0.0846365 0)
(-0.0746305 0.0877548 0)
(-0.0635381 0.0890663 0)
(-0.0488722 0.089089 0)
(-0.0332043 0.0881328 0)
(-0.0178355 0.0870417 0)
(-0.00355455 0.0856431 0)
(0.00929121 0.0845352 0)
(0.0188564 0.0828818 0)
(0.0249699 0.0795832 0)
(0.0260647 0.0746821 0)
(0.0213748 0.063798 0)
(0.0130286 0.03302 0)
(0.00502518 -0.0347447 0)
(0.00235779 -0.139044 0)
(-2.3153e-05 -0.262135 0)
(-0.00898226 -0.305807 0)
(-0.013231 -0.202247 0)
(-0.0239781 -0.105032 0)
(-0.0326283 -0.0201802 0)
(-0.0458457 0.0342633 0)
(-0.0595466 0.0598819 0)
(-0.0704455 0.0724218 0)
(-0.0761568 0.0753279 0)
(-0.0778486 0.0733308 0)
(-0.0752374 0.0698056 0)
(-0.0692387 0.0664628 0)
(-0.0595434 0.0607957 0)
(-0.0473482 0.0559833 0)
(-0.0341635 0.0538472 0)
(-0.0217032 0.0545539 0)
(-0.0108953 0.0571633 0)
(-0.00192856 0.0617358 0)
(0.00511439 0.068187 0)
(0.00841811 0.0748967 0)
(0.00802187 0.080003 0)
(0.00416375 0.0742033 0)
(-0.000516089 0.0415997 0)
(-0.00236584 -0.0350383 0)
(-0.00153872 -0.142381 0)
(-0.000607193 -0.266066 0)
(-0.00698061 -0.290258 0)
(-0.00898706 -0.184781 0)
(-0.0168326 -0.088085 0)
(-0.0221372 -0.00127483 0)
(-0.0296613 0.0600954 0)
(-0.0405156 0.0867287 0)
(-0.0493083 0.0923053 0)
(-0.0555551 0.0882109 0)
(-0.0588598 0.0791513 0)
(-0.0591286 0.0677791 0)
(-0.0564207 0.0550935 0)
(-0.0503603 0.0427998 0)
(-0.0432162 0.0355266 0)
(-0.0342518 0.0348821 0)
(-0.0255725 0.038123 0)
(-0.0165355 0.0432826 0)
(-0.0104632 0.0518472 0)
(-0.0068005 0.0640611 0)
(-0.00667051 0.0773751 0)
(-0.00853696 0.0875731 0)
(-0.0110262 0.0832634 0)
(-0.0126641 0.0443718 0)
(-0.00850583 -0.0395195 0)
(-0.00524798 -0.14738 0)
(-0.0011404 -0.272749 0)
(-0.00494659 -0.283552 0)
(-0.005024 -0.177495 0)
(-0.00923002 -0.0809175 0)
(-0.0115393 0.00606272 0)
(-0.0149347 0.071933 0)
(-0.0203578 0.10236 0)
(-0.0275137 0.106705 0)
(-0.0330131 0.0978743 0)
(-0.0367216 0.0834596 0)
(-0.0388555 0.0664591 0)
(-0.0383331 0.0494586 0)
(-0.0372475 0.0349532 0)
(-0.0346135 0.0214441 0)
(-0.028947 0.0154312 0)
(-0.0237086 0.0174232 0)
(-0.0177289 0.028194 0)
(-0.0149847 0.0442692 0)
(-0.0146803 0.0639313 0)
(-0.0166755 0.0822377 0)
(-0.0196752 0.0952338 0)
(-0.0219722 0.0856501 0)
(-0.0196884 0.0352985 0)
(-0.0122244 -0.055365 0)
(-0.00681735 -0.16191 0)
(-0.000827866 -0.284145 0)
(-0.00335852 -0.279878 0)
(-0.00214952 -0.173167 0)
(-0.00408969 -0.0763491 0)
(-0.00348225 0.0102459 0)
(-0.00409883 0.0780307 0)
(-0.00560847 0.113186 0)
(-0.00955892 0.119801 0)
(-0.0144706 0.109043 0)
(-0.0176291 0.0927031 0)
(-0.0201308 0.0725695 0)
(-0.021062 0.0525382 0)
(-0.020679 0.0352539 0)
(-0.0200068 0.0206936 0)
(-0.0191709 0.012412 0)
(-0.0190268 0.0146408 0)
(-0.0181128 0.0258126 0)
(-0.0181502 0.0463751 0)
(-0.0188794 0.0712399 0)
(-0.0227609 0.0935783 0)
(-0.0257124 0.103735 0)
(-0.026749 0.0852078 0)
(-0.0207286 0.0218034 0)
(-0.0124182 -0.0700889 0)
(-0.00583364 -0.176338 0)
(-0.00150071 -0.293233 0)
(-0.00231708 -0.280595 0)
(-0.000711558 -0.17273 0)
(-0.00137985 -0.0778026 0)
(0.000204909 0.00661525 0)
(0.00248507 0.0767555 0)
(0.00307807 0.115924 0)
(0.00247379 0.126613 0)
(-0.000907612 0.116359 0)
(-0.00402595 0.0963388 0)
(-0.00588166 0.0731797 0)
(-0.00728278 0.0534281 0)
(-0.00806629 0.0367509 0)
(-0.0077201 0.0221073 0)
(-0.00921187 0.0166211 0)
(-0.0124667 0.0192868 0)
(-0.0151609 0.02979 0)
(-0.0181902 0.0492035 0)
(-0.0207254 0.0750506 0)
(-0.0233765 0.100229 0)
(-0.0256334 0.106316 0)
(-0.0237236 0.0774598 0)
(-0.015638 0.00534694 0)
(-0.00872614 -0.0859501 0)
(-0.00404047 -0.189576 0)
(-0.0020763 -0.301843 0)
(-0.00168568 -0.282344 0)
(0.00036813 -0.17309 0)
(0.000485799 -0.0794707 0)
(0.00236476 0.00208598 0)
(0.00620527 0.0705745 0)
(0.00911064 0.114529 0)
(0.010401 0.128278 0)
(0.0101591 0.122769 0)
(0.00800453 0.10372 0)
(0.00544332 0.0805534 0)
(0.00328873 0.0581891 0)
(0.00221995 0.039382 0)
(0.00120314 0.0277409 0)
(-0.00108759 0.0273273 0)
(-0.00525233 0.0307352 0)
(-0.0091163 0.0402114 0)
(-0.0146801 0.0569322 0)
(-0.0192442 0.0822607 0)
(-0.0222743 0.106531 0)
(-0.0224602 0.104928 0)
(-0.0176606 0.0652295 0)
(-0.0106493 -0.00936004 0)
(-0.00646763 -0.0966202 0)
(-0.00402615 -0.197474 0)
(-0.00303014 -0.310411 0)
(-0.00125327 -0.284789 0)
(0.000377374 -0.175355 0)
(0.000994694 -0.0831548 0)
(0.00268762 -0.00380605 0)
(0.00568589 0.0611814 0)
(0.0101062 0.107717 0)
(0.0128468 0.125074 0)
(0.0145267 0.121752 0)
(0.0145315 0.107661 0)
(0.0144796 0.0841467 0)
(0.0128632 0.0629865 0)
(0.0108715 0.043677 0)
(0.00904807 0.0317586 0)
(0.00670978 0.0330598 0)
(0.00251423 0.0397226 0)
(-0.00229817 0.0525444 0)
(-0.00929507 0.0701621 0)
(-0.0142183 0.0925866 0)
(-0.0174434 0.10854 0)
(-0.0157901 0.0995084 0)
(-0.0106728 0.0548291 0)
(-0.00585381 -0.0196045 0)
(-0.0049946 -0.103099 0)
(-0.00374208 -0.204364 0)
(-0.00256719 -0.319956 0)
(-0.00103445 -0.285702 0)
(-0.000270767 -0.175891 0)
(-0.000493214 -0.0843035 0)
(0.000432336 -0.0059251 0)
(0.00259061 0.0561202 0)
(0.00644671 0.0990239 0)
(0.0109648 0.119397 0)
(0.014018 0.117898 0)
(0.0165961 0.104413 0)
(0.018702 0.0860372 0)
(0.0174353 0.0692848 0)
(0.0156355 0.0510844 0)
(0.0130368 0.0397954 0)
(0.00975382 0.0428307 0)
(0.00550927 0.0539099 0)
(0.000665186 0.0677299 0)
(-0.00413542 0.0831654 0)
(-0.00743575 0.100467 0)
(-0.00880994 0.109846 0)
(-0.00647706 0.0928281 0)
(-0.00176496 0.0448954 0)
(0.000204622 -0.0224544 0)
(-0.00142621 -0.104085 0)
(-0.00143094 -0.20738 0)
(-0.000763436 -0.325073 0)
(-0.000600872 -0.286278 0)
(-0.000420126 -0.176249 0)
(-0.00123987 -0.0831135 0)
(-0.00134692 -0.00724944 0)
(0.000251378 0.0505512 0)
(0.00290931 0.0900339 0)
(0.00827151 0.10913 0)
(0.0121136 0.107784 0)
(0.0146865 0.095403 0)
(0.0163265 0.0829632 0)
(0.0166783 0.0699412 0)
(0.0165041 0.0550233 0)
(0.0156993 0.0470016 0)
(0.0120783 0.0506615 0)
(0.00876657 0.0611079 0)
(0.00504039 0.0751711 0)
(0.00145524 0.0889042 0)
(-0.000487263 0.104295 0)
(-0.00040212 0.107897 0)
(0.00300201 0.0854131 0)
(0.00537621 0.0409731 0)
(0.00496967 -0.0202531 0)
(0.00375044 -0.102104 0)
(0.00183334 -0.206261 0)
(0.000788662 -0.325554 0)
(4.66899e-05 -0.287001 0)
(0.000422758 -0.176853 0)
(0.000481652 -0.0823327 0)
(0.000606868 -0.00757917 0)
(0.00189172 0.0473379 0)
(0.00467202 0.0824415 0)
(0.00923985 0.0993894 0)
(0.0120495 0.100541 0)
(0.0135092 0.0911937 0)
(0.0133082 0.0794834 0)
(0.0143959 0.0681722 0)
(0.0138506 0.0562348 0)
(0.0134884 0.0505151 0)
(0.0112772 0.0576433 0)
(0.00839465 0.0695142 0)
(0.00510605 0.083316 0)
(0.00257389 0.0952078 0)
(0.00170867 0.10334 0)
(0.00402892 0.101852 0)
(0.00688991 0.0812782 0)
(0.00866076 0.0401457 0)
(0.0082065 -0.0183171 0)
(0.00742507 -0.0986398 0)
(0.00377848 -0.200244 0)
(0.00148115 -0.321753 0)
(0.00104637 -0.289543 0)
(0.00156607 -0.179945 0)
(0.00296467 -0.0856299 0)
(0.00536773 -0.0101933 0)
(0.00734735 0.0424218 0)
(0.0101558 0.075555 0)
(0.0131441 0.092465 0)
(0.0150594 0.095747 0)
(0.0153634 0.0890819 0)
(0.0143463 0.0785716 0)
(0.013218 0.0676743 0)
(0.010658 0.0582642 0)
(0.00771096 0.0541351 0)
(0.00422513 0.0625171 0)
(0.00205979 0.0759684 0)
(0.000166301 0.0867346 0)
(0.000414305 0.0964651 0)
(0.00213318 0.100025 0)
(0.00431403 0.095471 0)
(0.00704985 0.0769781 0)
(0.00940053 0.0392274 0)
(0.00918287 -0.0163066 0)
(0.00841611 -0.0939487 0)
(0.00421568 -0.193218 0)
(0.00146755 -0.31798 0)
(0.00134222 -0.293381 0)
(0.00169053 -0.18365 0)
(0.00368027 -0.0907526 0)
(0.00669679 -0.0177023 0)
(0.0102174 0.0355406 0)
(0.0139065 0.0699973 0)
(0.0169303 0.0891454 0)
(0.0184757 0.095249 0)
(0.0182849 0.0929661 0)
(0.0156988 0.0850121 0)
(0.0119173 0.078103 0)
(0.00615682 0.0714686 0)
(0.000796133 0.0658534 0)
(-0.00326569 0.0687278 0)
(-0.00445267 0.0784364 0)
(-0.00453877 0.086698 0)
(-0.00282062 0.0913805 0)
(0.000466862 0.0929454 0)
(0.00231989 0.0903051 0)
(0.00572166 0.0703951 0)
(0.00811776 0.0354958 0)
(0.00856055 -0.0161195 0)
(0.00734995 -0.0893476 0)
(0.00354268 -0.187382 0)
(0.0017859 -0.315084 0)
(0.0012923 -0.296351 0)
(0.000814844 -0.186882 0)
(0.00251537 -0.0958506 0)
(0.0053707 -0.0251507 0)
(0.00899213 0.0264824 0)
(0.0130933 0.0606686 0)
(0.0170547 0.0829788 0)
(0.0180407 0.0934295 0)
(0.0175726 0.0964198 0)
(0.014713 0.0951366 0)
(0.0100885 0.0914924 0)
(0.00532594 0.0853642 0)
(0.00106017 0.0774716 0)
(-0.00268758 0.0757492 0)
(-0.00459962 0.0791605 0)
(-0.00435771 0.083467 0)
(-0.00221659 0.0850922 0)
(7.53945e-05 0.0876468 0)
(0.00286342 0.0831195 0)
(0.00647845 0.064948 0)
(0.00833617 0.0327575 0)
(0.00806899 -0.014901 0)
(0.00632196 -0.0835795 0)
(0.0036216 -0.182082 0)
(0.00205041 -0.312063 0)
(0.000953113 -0.29802 0)
(-0.000285532 -0.188256 0)
(0.00025412 -0.0999914 0)
(0.00298872 -0.0315327 0)
(0.00583678 0.0181185 0)
(0.00983461 0.052047 0)
(0.012769 0.0781605 0)
(0.014098 0.092391 0)
(0.0135839 0.0999811 0)
(0.0122924 0.10155 0)
(0.0104364 0.0993134 0)
(0.0078012 0.0943636 0)
(0.00530233 0.0869252 0)
(0.00317956 0.0842332 0)
(0.00161258 0.0833455 0)
(0.0017285 0.0824656 0)
(0.00250713 0.08219 0)
(0.0036843 0.0832989 0)
(0.00642554 0.077256 0)
(0.00905958 0.0611511 0)
(0.00969103 0.0334578 0)
(0.00875322 -0.0114366 0)
(0.00696524 -0.0796765 0)
(0.00427387 -0.177711 0)
(0.00285739 -0.308458 0)
(0.000469065 -0.297687 0)
(-0.0013832 -0.187341 0)
(-0.00218141 -0.102053 0)
(-0.000448558 -0.035802 0)
(0.00203279 0.0131505 0)
(0.00552257 0.0485236 0)
(0.0081394 0.0761032 0)
(0.0105756 0.0926231 0)
(0.0120208 0.0996879 0)
(0.0128096 0.101329 0)
(0.0128132 0.10184 0)
(0.011528 0.0981273 0)
(0.010398 0.0903474 0)
(0.00942299 0.0870555 0)
(0.00895624 0.0849708 0)
(0.0089747 0.0837189 0)
(0.00862261 0.0826778 0)
(0.00866551 0.0805269 0)
(0.0103511 0.0735834 0)
(0.0115332 0.0587572 0)
(0.0115665 0.0353446 0)
(0.0100746 -0.00717235 0)
(0.00885942 -0.0762972 0)
(0.00535162 -0.172074 0)
(0.0037675 -0.303143 0)
(0.000638054 -0.29759 0)
(-0.000605452 -0.186956 0)
(-0.00182998 -0.102755 0)
(-0.00113093 -0.040574 0)
(0.0012646 0.00532357 0)
(0.00463565 0.0409882 0)
(0.00834026 0.0682484 0)
(0.0122171 0.0846272 0)
(0.0154494 0.0941145 0)
(0.0166657 0.0987617 0)
(0.0170232 0.10187 0)
(0.0161124 0.0997575 0)
(0.0156344 0.0934923 0)
(0.014784 0.089726 0)
(0.0141744 0.0868806 0)
(0.0132645 0.0853547 0)
(0.0126351 0.0835325 0)
(0.011869 0.0792831 0)
(0.0121173 0.0717136 0)
(0.0121836 0.0579581 0)
(0.011803 0.0366217 0)
(0.0108167 -0.00468802 0)
(0.0101421 -0.0731586 0)
(0.00586933 -0.165524 0)
(0.00411923 -0.2955 0)
(0.000810335 -0.29834 0)
(0.00024122 -0.187397 0)
(0.000681106 -0.102491 0)
(0.0011194 -0.0434931 0)
(0.00313381 -0.00091812 0)
(0.00598848 0.0338142 0)
(0.00984818 0.0594067 0)
(0.0138932 0.0771444 0)
(0.0169143 0.0881802 0)
(0.0178372 0.0963582 0)
(0.0185189 0.101765 0)
(0.0188915 0.100846 0)
(0.0197772 0.0945234 0)
(0.0190933 0.092192 0)
(0.0179788 0.090059 0)
(0.0158473 0.0878128 0)
(0.0140843 0.085546 0)
(0.0127 0.0808292 0)
(0.0121451 0.0723362 0)
(0.011434 0.0585184 0)
(0.0114374 0.0370436 0)
(0.0107445 -0.00317176 0)
(0.00999139 -0.0685766 0)
(0.0058126 -0.157698 0)
(0.00401429 -0.286976 0)
(0.000971632 -0.300911 0)
(0.00165629 -0.190863 0)
(0.00331062 -0.106604 0)
(0.00522272 -0.0470404 0)
(0.00656868 -0.0060183 0)
(0.0084054 0.0270776 0)
(0.0115522 0.0511243 0)
(0.0148036 0.0699243 0)
(0.0172553 0.0847361 0)
(0.0185914 0.0937196 0)
(0.0202286 0.0981119 0)
(0.021788 0.0980885 0)
(0.0232527 0.0946121 0)
(0.0227398 0.0952799 0)
(0.0214094 0.0962057 0)
(0.0183676 0.0957452 0)
(0.0153999 0.0917908 0)
(0.0133453 0.0842332 0)
(0.0114018 0.0742753 0)
(0.0106384 0.0606838 0)
(0.00995628 0.0379807 0)
(0.00940797 -0.00212351 0)
(0.00790887 -0.0646466 0)
(0.00482221 -0.151859 0)
(0.00343616 -0.279317 0)
(0.00083145 -0.304496 0)
(0.00214451 -0.195096 0)
(0.00390984 -0.111574 0)
(0.00669964 -0.0514519 0)
(0.0089529 -0.0091874 0)
(0.0107471 0.0227452 0)
(0.0132748 0.0460424 0)
(0.0156773 0.0648462 0)
(0.0179116 0.0801899 0)
(0.019705 0.0895116 0)
(0.021297 0.0944852 0)
(0.0224517 0.0959403 0)
(0.0233373 0.0947626 0)
(0.0226828 0.0980701 0)
(0.0209189 0.101928 0)
(0.0184455 0.103397 0)
(0.0155237 0.0987624 0)
(0.0124085 0.0908212 0)
(0.00911781 0.0788356 0)
(0.00759479 0.0628415 0)
(0.00650863 0.040651 0)
(0.00654121 -0.00139207 0)
(0.00529039 -0.0599088 0)
(0.00366332 -0.147221 0)
(0.002899 -0.272631 0)
(0.000388319 -0.307875 0)
(0.00149057 -0.199294 0)
(0.0029491 -0.116959 0)
(0.00571975 -0.0587724 0)
(0.00885638 -0.0154299 0)
(0.0116491 0.0172879 0)
(0.0140337 0.0411146 0)
(0.0160581 0.0604918 0)
(0.0181732 0.0772482 0)
(0.0194666 0.0876921 0)
(0.0203991 0.0934003 0)
(0.0207358 0.0956587 0)
(0.0203356 0.0964013 0)
(0.0185006 0.101807 0)
(0.0152934 0.107261 0)
(0.0126192 0.109377 0)
(0.00961291 0.10602 0)
(0.0065595 0.0979664 0)
(0.00330033 0.0840758 0)
(0.00103884 0.0657558 0)
(0.000701135 0.0402038 0)
(0.00158142 -0.0020058 0)
(0.00178025 -0.0593511 0)
(0.0025479 -0.14658 0)
(0.00190917 -0.268247 0)
(-0.000345913 -0.309588 0)
(0.000234401 -0.201724 0)
(0.000895933 -0.121722 0)
(0.00334612 -0.0654202 0)
(0.0059338 -0.022144 0)
(0.0090023 0.0109733 0)
(0.0114555 0.036607 0)
(0.0131788 0.0569801 0)
(0.0145764 0.0741451 0)
(0.0161317 0.0853268 0)
(0.0163446 0.0931182 0)
(0.0160138 0.0976854 0)
(0.0140975 0.102273 0)
(0.010886 0.110592 0)
(0.00678448 0.115959 0)
(0.00363068 0.116409 0)
(0.000699635 0.112796 0)
(-0.00165261 0.103738 0)
(-0.00405387 0.0896644 0)
(-0.0056839 0.0685182 0)
(-0.00500425 0.0381945 0)
(-0.00288649 -0.00520345 0)
(-0.000922648 -0.0624214 0)
(0.00139994 -0.148576 0)
(0.00111863 -0.265528 0)
(-0.00104347 -0.309497 0)
(-0.00106005 -0.201993 0)
(-0.00155919 -0.124861 0)
(0.000232137 -0.070453 0)
(0.00222761 -0.0278359 0)
(0.00447718 0.00505991 0)
(0.00686598 0.0321145 0)
(0.00836001 0.0534994 0)
(0.00971718 0.07079 0)
(0.010103 0.0841112 0)
(0.00944496 0.0945061 0)
(0.00781297 0.102057 0)
(0.00503576 0.110014 0)
(0.0015968 0.119673 0)
(-0.00206209 0.125661 0)
(-0.00539329 0.125148 0)
(-0.00796375 0.118512 0)
(-0.00975914 0.107922 0)
(-0.0106554 0.0920552 0)
(-0.0100377 0.0677782 0)
(-0.00789192 0.0337725 0)
(-0.00522581 -0.0116252 0)
(-0.00206429 -0.0691469 0)
(0.000399617 -0.151723 0)
(0.000484541 -0.264724 0)
(-0.00169357 -0.30758 0)
(-0.00219878 -0.200194 0)
(-0.0039379 -0.125975 0)
(-0.00351958 -0.0740546 0)
(-0.00234377 -0.0310936 0)
(-0.00107343 0.00087051 0)
(0.000504298 0.0283876 0)
(0.00122907 0.0511337 0)
(0.00184762 0.0709002 0)
(0.00113429 0.0870106 0)
(0.000113953 0.0995796 0)
(-0.00219346 0.109888 0)
(-0.0051206 0.118871 0)
(-0.00843025 0.129349 0)
(-0.0115511 0.134424 0)
(-0.0137478 0.131606 0)
(-0.0149008 0.123667 0)
(-0.0155676 0.11007 0)
(-0.0143545 0.0908257 0)
(-0.0118787 0.0635426 0)
(-0.00878046 0.0283885 0)
(-0.0056324 -0.017416 0)
(-0.00222277 -0.075917 0)
(-0.000167059 -0.155081 0)
(-0.000100315 -0.265218 0)
(-0.00224416 -0.303828 0)
(-0.00348596 -0.196225 0)
(-0.00608114 -0.122929 0)
(-0.00774195 -0.0742816 0)
(-0.00795802 -0.033171 0)
(-0.00780831 -0.00186887 0)
(-0.0080603 0.026004 0)
(-0.00838283 0.0499045 0)
(-0.00874015 0.0709426 0)
(-0.00940346 0.088737 0)
(-0.010201 0.103438 0)
(-0.0118956 0.115538 0)
(-0.013734 0.126015 0)
(-0.015743 0.136642 0)
(-0.0172724 0.140108 0)
(-0.0180482 0.135218 0)
(-0.0180675 0.124592 0)
(-0.0170057 0.108122 0)
(-0.0145091 0.0852199 0)
(-0.0113575 0.0572154 0)
(-0.00814095 0.0213014 0)
(-0.00476585 -0.0253737 0)
(-0.0021218 -0.0819388 0)
(-0.000303579 -0.158879 0)
(-0.000474868 -0.266264 0)
(-0.002669 -0.298034 0)
(-0.00486911 -0.19048 0)
(-0.00806167 -0.117244 0)
(-0.0108993 -0.0695161 0)
(-0.0133372 -0.0308074 0)
(-0.0150699 0.000982478 0)
(-0.0167505 0.0285389 0)
(-0.0182563 0.0515904 0)
(-0.0192214 0.0724396 0)
(-0.0193203 0.0902366 0)
(-0.0190231 0.105594 0)
(-0.0192782 0.118714 0)
(-0.0198249 0.129255 0)
(-0.0201111 0.139622 0)
(-0.0197537 0.141262 0)
(-0.0185739 0.134721 0)
(-0.0169161 0.122466 0)
(-0.0146065 0.104449 0)
(-0.0118314 0.0796651 0)
(-0.00858164 0.0496737 0)
(-0.00544484 0.0144924 0)
(-0.00277604 -0.0313937 0)
(-0.00132594 -0.0868122 0)
(-0.00028261 -0.161784 0)
(-0.000691807 -0.267672 0)
(-0.00267367 -0.291193 0)
(-0.00535986 -0.183623 0)
(-0.00912774 -0.110777 0)
(-0.0124213 -0.0627642 0)
(-0.0155534 -0.024983 0)
(-0.0178761 0.00506403 0)
(-0.0200996 0.0314135 0)
(-0.0225132 0.0541804 0)
(-0.0243954 0.0730335 0)
(-0.0255459 0.0888214 0)
(-0.0253156 0.104291 0)
(-0.0246497 0.117906 0)
(-0.0234732 0.128883 0)
(-0.0219079 0.138737 0)
(-0.0197392 0.13914 0)
(-0.0169672 0.130881 0)
(-0.0140425 0.117194 0)
(-0.0106794 0.0987471 0)
(-0.00754531 0.0739509 0)
(-0.00443378 0.0438104 0)
(-0.0024918 0.00850256 0)
(-0.000603526 -0.0351483 0)
(-0.000664231 -0.0892024 0)
(-0.000177796 -0.163699 0)
(-0.000602981 -0.269412 0)
(-0.00265681 -0.283427 0)
(-0.00560915 -0.174999 0)
(-0.00960009 -0.102443 0)
(-0.0130759 -0.0552094 0)
(-0.0163638 -0.0188525 0)
(-0.0186853 0.0107824 0)
(-0.0207675 0.0379139 0)
(-0.0233109 0.0613659 0)
(-0.0250738 0.0792842 0)
(-0.0265207 0.0923769 0)
(-0.0268299 0.104246 0)
(-0.0258445 0.115751 0)
(-0.0239637 0.124507 0)
(-0.0213439 0.133724 0)
(-0.0179774 0.132272 0)
(-0.0139754 0.123771 0)
(-0.0108802 0.110617 0)
(-0.00720462 0.0914993 0)
(-0.00431451 0.0669155 0)
(-0.00107302 0.0374597 0)
(-0.000118844 0.00504672 0)
(0.00100927 -0.0375044 0)
(0.000313549 -0.0903544 0)
(0.000436275 -0.1658 0)
(0.000143464 -0.270859 0)
(-0.00217609 -0.276284 0)
(-0.00495897 -0.167193 0)
(-0.00827715 -0.0953874 0)
(-0.0112716 -0.0482562 0)
(-0.0147474 -0.0135175 0)
(-0.0168364 0.0148138 0)
(-0.0185174 0.041759 0)
(-0.0198524 0.0642613 0)
(-0.0205181 0.0811746 0)
(-0.0217147 0.0936609 0)
(-0.022674 0.104022 0)
(-0.0227182 0.113223 0)
(-0.020832 0.119702 0)
(-0.0174873 0.128033 0)
(-0.0136699 0.125682 0)
(-0.00945689 0.117084 0)
(-0.00591415 0.103741 0)
(-0.00250997 0.0847539 0)
(6.28932e-05 0.0616935 0)
(0.00208187 0.0340864 0)
(0.00269073 0.00325796 0)
(0.00315591 -0.0378856 0)
(0.00242769 -0.0900047 0)
(0.00192144 -0.165774 0)
(0.00125978 -0.269811 0)
(-0.00161832 -0.270676 0)
(-0.00409763 -0.161378 0)
(-0.00639799 -0.0903378 0)
(-0.00837672 -0.0421995 0)
(-0.0118209 -0.00794562 0)
(-0.0140926 0.0181573 0)
(-0.0157012 0.0436853 0)
(-0.0163279 0.0653795 0)
(-0.0168456 0.0837845 0)
(-0.0180557 0.0975466 0)
(-0.0192807 0.107206 0)
(-0.0199161 0.112968 0)
(-0.0181895 0.114144 0)
(-0.0148455 0.118989 0)
(-0.0108458 0.116046 0)
(-0.00690768 0.107224 0)
(-0.0030493 0.09577 0)
(0.000120277 0.0788299 0)
(0.00234937 0.0572916 0)
(0.00409571 0.0312731 0)
(0.00465988 0.00233679 0)
(0.00463764 -0.0377875 0)
(0.00454759 -0.0895619 0)
(0.00323516 -0.163458 0)
(0.00222061 -0.266497 0)
(-0.00133259 -0.266121 0)
(-0.00353757 -0.155954 0)
(-0.005596 -0.0877088 0)
(-0.00614662 -0.0371725 0)
(-0.00944903 -0.00213397 0)
(-0.0122194 0.0229124 0)
(-0.0147454 0.0463469 0)
(-0.0157235 0.0665471 0)
(-0.0162859 0.0849285 0)
(-0.0166564 0.100323 0)
(-0.0167225 0.10952 0)
(-0.01642 0.11307 0)
(-0.0147849 0.110258 0)
(-0.0119596 0.112677 0)
(-0.00870396 0.109359 0)
(-0.00586666 0.100445 0)
(-0.00286922 0.0885221 0)
(-1.89594e-05 0.0725025 0)
(0.0022189 0.0527588 0)
(0.00373381 0.0285348 0)
(0.0044888 0.00125256 0)
(0.00458434 -0.0386114 0)
(0.0054894 -0.0892427 0)
(0.00369301 -0.159672 0)
(0.00267806 -0.26131 0)
(-0.00151445 -0.262439 0)
(-0.00319284 -0.151181 0)
(-0.00552407 -0.0862696 0)
(-0.00536703 -0.0346456 0)
(-0.00740676 0.00333843 0)
(-0.00939888 0.0284391 0)
(-0.0115811 0.0504521 0)
(-0.013071 0.0683709 0)
(-0.0142201 0.086222 0)
(-0.0144268 0.0999573 0)
(-0.0137005 0.108212 0)
(-0.0130564 0.110558 0)
(-0.0115353 0.106041 0)
(-0.00922481 0.107087 0)
(-0.00607967 0.104131 0)
(-0.00389635 0.0957829 0)
(-0.00189131 0.0833735 0)
(-0.000109485 0.0681076 0)
(0.00162656 0.0494917 0)
(0.00272601 0.0268228 0)
(0.00375847 -0.000247796 0)
(0.00477877 -0.0404514 0)
(0.00598383 -0.0895663 0)
(0.00375906 -0.156008 0)
(0.00269083 -0.25599 0)
(-0.00199158 -0.258121 0)
(-0.00349491 -0.14652 0)
(-0.00594146 -0.0836311 0)
(-0.00592592 -0.0338345 0)
(-0.00594532 0.00552289 0)
(-0.00736349 0.0311867 0)
(-0.00858288 0.0540652 0)
(-0.0102427 0.0724895 0)
(-0.0111818 0.0889501 0)
(-0.0113937 0.100586 0)
(-0.0107746 0.107955 0)
(-0.0104075 0.110379 0)
(-0.00910851 0.103825 0)
(-0.0074933 0.102158 0)
(-0.00562182 0.0982672 0)
(-0.00376834 0.0924863 0)
(-0.00249114 0.0805712 0)
(-0.00143631 0.0648353 0)
(-0.000332857 0.046488 0)
(0.00120646 0.0234592 0)
(0.00372545 -0.00420557 0)
(0.00563173 -0.0445794 0)
(0.00599465 -0.0889765 0)
(0.00357287 -0.151978 0)
(0.00248988 -0.250705 0)
(-0.00229282 -0.253141 0)
(-0.00398774 -0.142259 0)
(-0.0066792 -0.0809094 0)
(-0.00714602 -0.0352557 0)
(-0.0063722 0.00619213 0)
(-0.0071296 0.0332632 0)
(-0.00802165 0.0570223 0)
(-0.0091489 0.0750326 0)
(-0.00944292 0.0900583 0)
(-0.00944326 0.100397 0)
(-0.0090606 0.107655 0)
(-0.00868803 0.109344 0)
(-0.00755565 0.10228 0)
(-0.00688165 0.100885 0)
(-0.00658938 0.09632 0)
(-0.00575571 0.0892086 0)
(-0.00417309 0.0780527 0)
(-0.00266326 0.062753 0)
(-0.00107447 0.0436921 0)
(0.0015165 0.0179936 0)
(0.00516522 -0.00990436 0)
(0.00629123 -0.0459526 0)
(0.00616282 -0.0863299 0)
(0.00343103 -0.147054 0)
(0.00223939 -0.245676 0)
(-0.00272346 -0.247855 0)
(-0.00430762 -0.137152 0)
(-0.00756368 -0.0773494 0)
(-0.00873537 -0.0348622 0)
(-0.00882283 0.00536263 0)
(-0.00862639 0.0341138 0)
(-0.00891189 0.0586383 0)
(-0.00911747 0.0761633 0)
(-0.00924008 0.0901248 0)
(-0.00913546 0.100612 0)
(-0.00957273 0.107857 0)
(-0.00952995 0.109513 0)
(-0.00907063 0.102422 0)
(-0.00939443 0.101399 0)
(-0.00926015 0.0957633 0)
(-0.00845202 0.0867119 0)
(-0.0066862 0.0736197 0)
(-0.00469403 0.0573364 0)
(-0.00182755 0.0370947 0)
(0.00149395 0.00928328 0)
(0.00436877 -0.0155946 0)
(0.00433126 -0.0470259 0)
(0.00463971 -0.0852398 0)
(0.00233299 -0.143042 0)
(0.0017218 -0.241593 0)
(-0.00294652 -0.241189 0)
(-0.00458588 -0.13052 0)
(-0.00822837 -0.0720668 0)
(-0.0096483 -0.0318079 0)
(-0.0111888 0.00618772 0)
(-0.0105172 0.0333621 0)
(-0.0105189 0.0583105 0)
(-0.010526 0.0757021 0)
(-0.0105984 0.0903262 0)
(-0.0107249 0.101553 0)
(-0.0113043 0.109218 0)
(-0.0111233 0.109229 0)
(-0.0115966 0.103773 0)
(-0.0119634 0.102628 0)
(-0.0118832 0.0952156 0)
(-0.0105203 0.0841398 0)
(-0.00807767 0.0694595 0)
(-0.00537835 0.0512978 0)
(-0.00198468 0.0301868 0)
(0.000780462 0.00334148 0)
(0.0022591 -0.0178197 0)
(0.00226001 -0.0475363 0)
(0.00295374 -0.0846432 0)
(0.0011926 -0.140811 0)
(0.00126761 -0.239113 0)
(-0.00275739 -0.234959 0)
(-0.00406765 -0.125382 0)
(-0.00676469 -0.0669778 0)
(-0.0084123 -0.0280261 0)
(-0.00998617 0.00734292 0)
(-0.00950924 0.0330349 0)
(-0.00918807 0.0590936 0)
(-0.00933225 0.0765524 0)
(-0.00936853 0.0907728 0)
(-0.00991601 0.102296 0)
(-0.0101088 0.109643 0)
(-0.00998509 0.110728 0)
(-0.0110363 0.105824 0)
(-0.0114426 0.103878 0)
(-0.0108906 0.0934564 0)
(-0.00881097 0.0797721 0)
(-0.00601831 0.0631887 0)
(-0.00287969 0.0442796 0)
(0.000336957 0.0249421 0)
(0.00210292 0.000275426 0)
(0.00289152 -0.0186373 0)
(0.00302088 -0.0482372 0)
(0.00283736 -0.0837167 0)
(0.00130849 -0.138723 0)
(0.00125138 -0.236875 0)
(-0.00245897 -0.229413 0)
(-0.00334 -0.122231 0)
(-0.00494087 -0.0638742 0)
(-0.00581269 -0.0250834 0)
(-0.00679224 0.00762838 0)
(-0.00598809 0.0309633 0)
(-0.00478844 0.0575064 0)
(-0.00386233 0.0760748 0)
(-0.00356179 0.0920182 0)
(-0.00394332 0.103441 0)
(-0.0038508 0.109414 0)
(-0.00404995 0.111758 0)
(-0.00425205 0.108238 0)
(-0.00500199 0.104563 0)
(-0.00481774 0.0906482 0)
(-0.00375209 0.0750415 0)
(-0.00191622 0.0575805 0)
(0.000137397 0.0383453 0)
(0.00265456 0.0206886 0)
(0.00377267 -0.00138288 0)
(0.00452275 -0.0192188 0)
(0.00401681 -0.0476909 0)
(0.0025369 -0.082049 0)
(0.00141687 -0.138009 0)
(0.00127445 -0.234821 0)
(-0.00218845 -0.224783 0)
(-0.00256768 -0.119061 0)
(-0.00369766 -0.0624031 0)
(-0.00347323 -0.0240008 0)
(-0.00321299 0.00686905 0)
(-0.00209393 0.028215 0)
(-0.000916664 0.0547102 0)
(5.91409e-05 0.0743549 0)
(0.000158979 0.0914022 0)
(0.000249394 0.103112 0)
(0.000500393 0.109463 0)
(0.000656164 0.111737 0)
(0.001187 0.108445 0)
(0.00181571 0.106121 0)
(0.00173999 0.0918524 0)
(0.00141995 0.0746199 0)
(0.00185017 0.0554264 0)
(0.00312901 0.0348638 0)
(0.00440779 0.0178411 0)
(0.00522726 -0.00296508 0)
(0.00574007 -0.0192809 0)
(0.0042312 -0.0442201 0)
(0.00285245 -0.0795654 0)
(0.0017867 -0.13684 0)
(0.00131792 -0.232476 0)
(-0.00210702 -0.221332 0)
(-0.00181912 -0.1174 0)
(-0.00247753 -0.0627459 0)
(-0.00162474 -0.0266093 0)
(-0.000271252 0.00427616 0)
(0.000569612 0.0250692 0)
(0.000987021 0.0524835 0)
(0.00145825 0.073787 0)
(0.00146636 0.0919656 0)
(0.00202928 0.102609 0)
(0.00246375 0.108627 0)
(0.00344399 0.111249 0)
(0.00436363 0.106298 0)
(0.00561536 0.104842 0)
(0.0064945 0.0928268 0)
(0.00641369 0.075677 0)
(0.00673697 0.0544113 0)
(0.00692261 0.0333789 0)
(0.0072027 0.0164384 0)