/*--------------------------------*- C++ -*----------------------------------*\
| =========                 |                                                 |
| \\      /  F ield         | OpenFOAM: The Open Source CFD Toolbox           |
|  \\    /   O peration     | Version:  2.3.0                                 |
|   \\  /    A nd           | Web:      www.OpenFOAM.org                      |
|    \\/     M anipulation  |                                                 |
\*---------------------------------------------------------------------------*/
FoamFile
{
    version     2.0;
    format      ascii;
    class       volScalarField;
    location    "1.96";
    object      alpha.air;
}
// * * * * * * * * * * * * * * * * * * * * * * * * * * * * * * * * * * * * * //

dimensions      [0 0 0 0 0 0 0];

internalField   nonuniform List<scalar> 
6000
(
0.650216
0.650217
0.64978
0.638329
0.635434
0.590507
0.548419
0.548413
0.555722
0.553957
0.549639
0.554099
0.578641
0.57762
0.577619
0.577619
0.577624
0.654687
0.680871
0.657622
0.617349
0.60059
0.600589
0.600589
0.600591
0.64519
0.590997
0.550262
0.541035
0.541034
0.651743
0.661493
0.66368
0.663134
0.663798
0.662985
0.649596
0.630558
0.63108
0.634015
0.636762
0.669628
0.679039
0.658396
0.622127
0.614776
0.658458
0.68148
0.679914
0.681198
0.679793
0.665726
0.641099
0.633146
0.663141
0.672289
0.672228
0.646243
0.606976
0.577269
0.66341
0.663548
0.663262
0.663587
0.663122
0.663693
0.662801
0.622786
0.609722
0.644565
0.679862
0.679038
0.679788
0.67925
0.676178
0.665564
0.680612
0.679809
0.681248
0.679809
0.679991
0.679653
0.676646
0.672507
0.672432
0.672355
0.672276
0.637334
0.578059
0.558644
0.651744
0.663262
0.663532
0.663135
0.66365
0.66299
0.663301
0.633307
0.601169
0.638512
0.679036
0.679748
0.67925
0.679747
0.679456
0.679946
0.679653
0.681428
0.679809
0.680158
0.678809
0.668447
0.666074
0.670205
0.672354
0.672275
0.672194
0.62953
0.578217
0.564129
0.61044
0.606275
0.646705
0.658502
0.66299
0.663164
0.662796
0.64938
0.583172
0.579456
0.640129
0.665247
0.661254
0.643827
0.645684
0.668694
0.680489
0.679653
0.680572
0.672311
0.63265
0.609619
0.61223
0.631842
0.657279
0.671121
0.652026
0.603331
0.589681
0.642738
0.547713
0.491062
0.559675
0.607331
0.639095
0.650924
0.648508
0.611358
0.51592
0.496059
0.546606
0.596777
0.594581
0.551733
0.54054
0.61321
0.679456
0.680857
0.679653
0.624754
0.549108
0.5329
0.542931
0.571369
0.606507
0.626424
0.594482
0.582694
0.622492
0.684821
0.481167
0.456358
0.474959
0.516709
0.576066
0.603369
0.583133
0.51289
0.466403
0.462141
0.478835
0.513139
0.512423
0.474313
0.471324
0.53055
0.65548
0.679456
0.651637
0.539412
0.490073
0.485648
0.491402
0.510133
0.53521
0.546993
0.530632
0.582824
0.671182
0.684821
0.453813
0.453431
0.453607
0.465773
0.504169
0.52944
0.497315
0.46082
0.45616
0.456066
0.458208
0.469252
0.472524
0.47132
0.471305
0.493312
0.584794
0.631544
0.573332
0.479747
0.471192
0.46901
0.469043
0.474123
0.48316
0.48781
0.499599
0.600787
0.684821
0.684821
0.453419
0.453434
0.453427
0.453896
0.465562
0.474829
0.460713
0.456155
0.455834
0.456134
0.455946
0.45728
0.478982
0.554112
0.546523
0.538948
0.525424
0.528023
0.49335
0.465741
0.465347
0.465091
0.465128
0.465096
0.465395
0.467207
0.487956
0.592804
0.672606
0.683423
0.453453
0.458689
0.454496
0.453499
0.453928
0.455528
0.455431
0.45702
0.456135
0.455486
0.456143
0.461701
0.560741
0.742177
0.736109
0.687405
0.524197
0.468658
0.468628
0.465707
0.464995
0.465123
0.464808
0.465122
0.46494
0.465331
0.496374
0.557928
0.615975
0.640873
0.470649
0.474872
0.461221
0.453359
0.453494
0.453335
0.457375
0.48065
0.455639
0.456193
0.455632
0.500503
0.733736
0.745862
0.753232
0.745858
0.658058
0.478745
0.471335
0.467295
0.465125
0.464454
0.465119
0.464339
0.465127
0.472722
0.533238
0.537243
0.557163
0.564246
0.631913
0.5785
0.476129
0.453663
0.453252
0.453551
0.492019
0.617873
0.564176
0.509568
0.547663
0.665466
0.745861
0.753343
0.745863
0.753215
0.745781
0.640262
0.53309
0.481592
0.464457
0.465118
0.463729
0.465117
0.463991
0.48662
0.561887
0.547576
0.565347
0.521675
0.823308
0.78043
0.633215
0.476144
0.453617
0.45354
0.625417
0.71905
0.707074
0.678482
0.694059
0.733028
0.750946
0.745863
0.753302
0.745863
0.751595
0.745703
0.710591
0.601623
0.487222
0.463506
0.465115
0.463305
0.465133
0.499578
0.562748
0.573332
0.612153
0.530882
0.86175
0.859877
0.807157
0.636647
0.513245
0.540204
0.691657
0.718611
0.719453
0.718611
0.70811
0.72016
0.745863
0.752073
0.745863
0.752469
0.745863
0.75066
0.745862
0.748493
0.659209
0.493098
0.463298
0.465115
0.463792
0.499343
0.562707
0.5926
0.620616
0.587192
0.86166
0.861577
0.842868
0.738808
0.58642
0.561399
0.691076
0.719315
0.718611
0.714416
0.675917
0.703925
0.750316
0.745863
0.751964
0.745863
0.751422
0.745862
0.751143
0.745863
0.749509
0.698724
0.515585
0.463389
0.46516
0.51843
0.57791
0.608538
0.621531
0.620837
0.86157
0.860786
0.841631
0.760298
0.584735
0.536723
0.692099
0.718611
0.718705
0.688211
0.645559
0.700398
0.745863
0.75093
0.745863
0.751584
0.745863
0.751141
0.745863
0.751152
0.745863
0.748297
0.69836
0.56038
0.502126
0.558442
0.601469
0.620616
0.620637
0.620873
0.861481
0.85257
0.832693
0.769849
0.57229
0.520027
0.693376
0.718736
0.701675
0.648265
0.64536
0.726752
0.749509
0.745863
0.750781
0.745863
0.751275
0.745853
0.751322
0.745863
0.750179
0.745863
0.745477
0.65619
0.582557
0.576922
0.606556
0.620401
0.621185
0.611629
0.857014
0.835769
0.817285
0.769348
0.574004
0.511464
0.686155
0.714007
0.662672
0.621198
0.650494
0.748008
0.745863
0.749682
0.745863
0.75057
0.745863
0.751461
0.745863
0.751518
0.745863
0.748443
0.745863
0.671464
0.597087
0.576532
0.59801
0.617055
0.620401
0.569912
0.838704
0.813344
0.797902
0.755735
0.575004
0.508452
0.671547
0.699818
0.625987
0.621319
0.700103
0.745863
0.748517
0.745863
0.749362
0.745863
0.750751
0.74586
0.751752
0.745863
0.7507
0.745863
0.746126
0.667183
0.592328
0.567386
0.57603
0.586527
0.592394
0.50862
0.808373
0.786372
0.773373
0.728758
0.573068
0.507878
0.658121
0.690618
0.613116
0.649026
0.744596
0.747578
0.745863
0.748218
0.745863
0.749409
0.745863
0.751303
0.745863
0.751732
0.745863
0.747866
0.73213
0.637858
0.569884
0.547507
0.547291
0.540294
0.518534
0.470381
0.772892
0.753717
0.741414
0.69514
0.562095
0.506427
0.652701
0.693117
0.613233
0.684224
0.746914
0.745863
0.747346
0.745863
0.747733
0.745863
0.750077
0.745863
0.751723
0.745863
0.750382
0.745863
0.692479
0.587405
0.537812
0.525321
0.516247
0.495258
0.469835
0.452408
0.734228
0.714203
0.700192
0.656092
0.54228
0.50458
0.65417
0.702603
0.624805
0.709459
0.745862
0.746695
0.745863
0.747118
0.745863
0.748144
0.745863
0.750906
0.745863
0.751543
0.745863
0.746447
0.633553
0.541463
0.513096
0.501685
0.485835
0.466025
0.452333
0.4458
0.691374
0.667019
0.648257
0.60976
0.519304
0.504513
0.670939
0.716015
0.657704
0.723322
0.746099
0.745862
0.746222
0.745863
0.746655
0.745863
0.749321
0.745863
0.751209
0.745863
0.748642
0.724093
0.569422
0.508978
0.492696
0.47954
0.464818
0.452757
0.446353
0.445281
0.644533
0.613421
0.587788
0.560608
0.504557
0.504575
0.704819
0.726635
0.700742
0.728445
0.74036
0.737724
0.740241
0.746102
0.745863
0.747015
0.745863
0.750424
0.745862
0.750229
0.745862
0.669398
0.518326
0.489055
0.475493
0.463778
0.454066
0.447192
0.445288
0.445274
0.597897
0.560213
0.527637
0.520071
0.504566
0.528024
0.727192
0.728074
0.725433
0.728169
0.72878
0.716698
0.715517
0.733895
0.745785
0.745863
0.748064
0.745862
0.750047
0.745862
0.74655
0.602902
0.492595
0.47411
0.462896
0.454607
0.448717
0.445312
0.445275
0.445596
0.554947
0.51649
0.488416
0.513028
0.504512
0.630817
0.728613
0.72758
0.7279
0.727959
0.716922
0.693553
0.684342
0.700712
0.729667
0.74601
0.745862
0.749161
0.745862
0.748018
0.740025
0.554801
0.476351
0.46299
0.455091
0.44992
0.446597
0.445296
0.445364
0.455003
0.518174
0.488633
0.476161
0.552077
0.597601
0.708048
0.727199
0.728587
0.727483
0.722741
0.703625
0.674198
0.658146
0.660472
0.691366
0.729772
0.74634
0.745862
0.748153
0.745862
0.702603
0.535575
0.467251
0.45694
0.452047
0.449458
0.44834
0.448478
0.455994
0.531527
0.493422
0.47413
0.475255
0.637186
0.713383
0.726816
0.728435
0.727199
0.720877
0.70781
0.686305
0.655591
0.631958
0.623788
0.640395
0.691551
0.741914
0.747005
0.745862
0.741807
0.64528
0.525182
0.466339
0.457559
0.455724
0.455434
0.456884
0.464512
0.509318
0.599847
0.481831
0.47398
0.50232
0.690363
0.72643
0.728008
0.726816
0.727491
0.706973
0.682724
0.662146
0.631392
0.605031
0.589073
0.586837
0.626307
0.698238
0.745862
0.746171
0.690529
0.576714
0.507815
0.480381
0.470558
0.470006
0.471065
0.474802
0.479783
0.54369
0.570003
0.480129
0.478652
0.550572
0.694736
0.727269
0.72643
0.72784
0.726816
0.688935
0.647288
0.626167
0.595962
0.574804
0.555654
0.543295
0.551335
0.609869
0.686534
0.695696
0.605452
0.511946
0.485223
0.484136
0.483191
0.481496
0.481131
0.482849
0.490105
0.519363
0.503915
0.477636
0.48084
0.560224
0.692109
0.72605
0.727161
0.72643
0.726252
0.663771
0.598267
0.573404
0.549155
0.538793
0.527352
0.514084
0.506652
0.525952
0.569391
0.588139
0.529487
0.485931
0.476112
0.475074
0.475631
0.476146
0.476777
0.478232
0.481014
0.484187
0.471407
0.46127
0.470969
0.545398
0.675913
0.726172
0.72605
0.726659
0.718955
0.620866
0.536232
0.512925
0.502257
0.500429
0.498261
0.493941
0.489484
0.488954
0.495371
0.504218
0.490289
0.478766
0.472611
0.46949
0.468734
0.469013
0.469529
0.470056
0.47005
0.467539
0.460114
0.459425
0.460011
0.510777
0.623271
0.699515
0.715943
0.722191
0.691968
0.552926
0.48551
0.472742
0.469806
0.470014
0.471934
0.474293
0.475796
0.475568
0.474998
0.47495
0.474721
0.472824
0.469419
0.466606
0.465163
0.464707
0.464633
0.464443
0.463492
0.460708
0.455736
0.464042
0.470633
0.485437
0.541917
0.619123
0.656693
0.675589
0.622798
0.489643
0.463082
0.454913
0.453762
0.453908
0.455629
0.459184
0.463752
0.4682
0.469269
0.46854
0.468139
0.467343
0.465635
0.463799
0.462487
0.461758
0.461322
0.460752
0.459515
0.456929
0.45316
0.69029
0.621839
0.530685
0.533032
0.541019
0.565254
0.586048
0.518228
0.463855
0.46245
0.455259
0.453738
0.453126
0.453738
0.453705
0.457055
0.464981
0.467059
0.466234
0.464928
0.463587
0.462169
0.460815
0.459736
0.45899
0.45842
0.457715
0.456405
0.454023
0.45079
0.891547
0.858838
0.760183
0.665594
0.621488
0.601012
0.588616
0.526074
0.477618
0.486927
0.507019
0.453292
0.453741
0.452999
0.453739
0.456023
0.467847
0.469413
0.46647
0.463085
0.46072
0.459076
0.457835
0.4569
0.456215
0.455633
0.45489
0.453603
0.451379
0.44832
0.926228
0.924816
0.910967
0.87702
0.832727
0.788536
0.746985
0.717671
0.658634
0.684475
0.742242
0.6503
0.457947
0.453741
0.453023
0.46679
0.484123
0.475553
0.46541
0.460273
0.457662
0.456137
0.455078
0.454276
0.453648
0.453057
0.452277
0.450973
0.448751
0.445625
0.926293
0.926244
0.926297
0.925923
0.921805
0.912026
0.898839
0.895008
0.879594
0.889661
0.904599
0.871866
0.677779
0.453268
0.453829
0.495112
0.491785
0.469791
0.460488
0.456738
0.455014
0.453897
0.452991
0.452211
0.451507
0.450775
0.449823
0.448339
0.445913
0.442581
0.92626
0.926216
0.926122
0.926133
0.926122
0.926102
0.924186
0.923713
0.923856
0.923701
0.924151
0.905822
0.80033
0.5718
0.478563
0.495528
0.47622
0.460721
0.456315
0.454935
0.453961
0.452844
0.451722
0.450653
0.449608
0.448511
0.447198
0.445368
0.44264
0.439199
0.926165
0.926098
0.926114
0.926118
0.926103
0.925953
0.922441
0.922498
0.923701
0.924088
0.923676
0.89257
0.773646
0.610099
0.500444
0.474078
0.461025
0.457182
0.456094
0.455106
0.453842
0.452214
0.450469
0.448766
0.447148
0.445562
0.443851
0.44172
0.438876
0.435699
0.926091
0.926102
0.92607
0.926101
0.926086
0.924725
0.918025
0.918844
0.923812
0.923676
0.921643
0.866729
0.732075
0.557488
0.476291
0.45957
0.458554
0.457832
0.456508
0.454397
0.452231
0.44991
0.447522
0.445294
0.443313
0.441486
0.439632
0.437491
0.434901
0.432412
0.926091
0.926069
0.926019
0.925944
0.925871
0.921935
0.912826
0.914359
0.923676
0.923805
0.912683
0.833854
0.669465
0.489323
0.455207
0.453376
0.453782
0.453295
0.452017
0.449863
0.447261
0.444773
0.442491
0.440455
0.438652
0.436973
0.435263
0.433377
0.431326
0.429566
0.925656
0.925285
0.924915
0.924903
0.925107
0.918712
0.907734
0.909775
0.922013
0.922693
0.896819
0.781221
0.562684
0.465332
0.453273
0.449968
0.447555
0.445863
0.444369
0.442712
0.440833
0.439072
0.437451
0.435955
0.434541
0.433146
0.4317
0.430124
0.428476
0.427191
0.923237
0.922746
0.921838
0.92219
0.922778
0.91549
0.902769
0.904991
0.916956
0.914634
0.869484
0.710079
0.508949
0.463327
0.456039
0.449738
0.44464
0.4413
0.439117
0.437533
0.436188
0.434963
0.433815
0.432714
0.431632
0.430509
0.429256
0.427875
0.426543
0.425539
0.918993
0.918923
0.91807
0.918749
0.919773
0.911992
0.897888
0.899642
0.907559
0.896958
0.822866
0.64778
0.490399
0.46273
0.456562
0.449383
0.443366
0.43918
0.436462
0.434666
0.433364
0.432314
0.431399
0.430554
0.42973
0.428853
0.427835
0.426846
0.426233
0.42546
0.913713
0.91443
0.914813
0.915333
0.916116
0.907525
0.892887
0.892677
0.891318
0.863156
0.752988
0.580747
0.473212
0.458246
0.451905
0.445654
0.440523
0.436831
0.434288
0.432537
0.431283
0.430317
0.429531
0.428874
0.428302
0.427757
0.427278
0.427394
0.428677
0.428952
0.907634
0.909526
0.912167
0.911978
0.911113
0.901069
0.887172
0.881421
0.864265
0.800752
0.663985
0.507499
0.45955
0.450092
0.444236
0.439702
0.436273
0.433713
0.431809
0.430363
0.429234
0.42833
0.427621
0.4271
0.426742
0.426538
0.426731
0.428337
0.432542
0.434886
0.900564
0.90451
0.9095
0.908519
0.9039
0.892423
0.879432
0.862283
0.817259
0.708928
0.560238
0.467591
0.44878
0.442182
0.437747
0.43463
0.432412
0.430691
0.429223
0.427944
0.426871
0.425994
0.425314
0.424877
0.42463
0.424503
0.424626
0.425574
0.427919
0.429589
0.891721
0.899201
0.90591
0.904469
0.894116
0.88232
0.86754
0.830095
0.739142
0.603865
0.483835
0.449833
0.441179
0.436725
0.433606
0.431384
0.429667
0.428074
0.426502
0.425115
0.424024
0.423196
0.422617
0.422323
0.422178
0.421968
0.42153
0.420865
0.420494
0.420471
0.879491
0.892063
0.900113
0.897901
0.882303
0.869732
0.844324
0.772517
0.64213
0.506686
0.453432
0.441
0.436421
0.433473
0.431237
0.429409
0.427568
0.425405
0.423237
0.421704
0.42085
0.420241
0.419993
0.419953
0.420036
0.419994
0.419543
0.418377
0.416751
0.415744
0.861682
0.88016
0.889274
0.884903
0.865986
0.84799
0.798942
0.683538
0.539849
0.460648
0.441967
0.436608
0.433809
0.431714
0.429945
0.428091
0.425685
0.422697
0.420031
0.418864
0.418775
0.418301
0.418265
0.418343
0.418633
0.419019
0.419076
0.418328
0.416681
0.415619
0.836094
0.860165
0.868428
0.859564
0.839009
0.805877
0.719219
0.578528
0.474398
0.44491
0.437516
0.434514
0.432527
0.430946
0.42938
0.427315
0.424691
0.4228
0.422549
0.422715
0.422985
0.420613
0.418432
0.418235
0.41825
0.418951
0.419521
0.419273
0.417587
0.415847
0.800171
0.828486
0.83095
0.814828
0.790045
0.733375
0.614292
0.49375
0.450153
0.439366
0.435655
0.433567
0.432067
0.430889
0.429518
0.428028
0.428577
0.435762
0.449971
0.44958
0.445526
0.432453
0.425956
0.42128
0.420437
0.420245
0.42111
0.421778
0.420044
0.417006
0.749484
0.778902
0.76996
0.742631
0.708612
0.633495
0.51696
0.457319
0.44208
0.437238
0.434882
0.433324
0.432234
0.431425
0.431037
0.432983
0.446222
0.490615
0.507713
0.507498
0.479396
0.451024
0.445888
0.440026
0.430039
0.424672
0.424159
0.426136
0.424711
0.420597
0.68003
0.703728
0.680362
0.641834
0.601665
0.533999
0.467622
0.445907
0.439218
0.436411
0.434803
0.433685
0.433096
0.433263
0.435603
0.448427
0.506056
0.50778
0.508648
0.50778
0.496071
0.47222
0.499383
0.495584
0.451949
0.43268
0.428148
0.431971
0.431928
0.425999
0.596314
0.605781
0.574278
0.538259
0.509788
0.478306
0.454363
0.44319
0.438347
0.436463
0.435373
0.434715
0.434908
0.436832
0.445021
0.477791
0.507777
0.508673
0.50778
0.506407
0.496894
0.505524
0.659325
0.690862
0.527088
0.45047
0.432979
0.438415
0.44294
0.433015
0.520789
0.51594
0.494885
0.479413
0.471078
0.462482
0.451286
0.442365
0.438433
0.437427
0.436798
0.436305
0.437255
0.441774
0.456931
0.499998
0.508673
0.50778
0.507895
0.499964
0.497125
0.607383
0.849813
0.84026
0.581128
0.460703
0.438534
0.443464
0.454157
0.443731
0.483212
0.473274
0.46787
0.466114
0.462893
0.456628
0.447985
0.441283
0.439322
0.439862
0.439132
0.437939
0.439471
0.446255
0.464321
0.503879
0.50778
0.508038
0.501597
0.499962
0.559899
0.815237
0.900127
0.888885
0.601772
0.458476
0.44429
0.44771
0.457838
0.457834
0.487957
0.479447
0.472635
0.467224
0.460938
0.453255
0.445426
0.441287
0.441635
0.443929
0.442003
0.43895
0.440829
0.449159
0.46759
0.498624
0.50805
0.501771
0.501548
0.547476
0.78628
0.898861
0.897616
0.899105
0.702381
0.454315
0.447594
0.452543
0.458464
0.45867
0.507824
0.507192
0.505797
0.50096
0.487617
0.474339
0.450076
0.443452
0.445151
0.449477
0.445092
0.438976
0.441067
0.450651
0.469199
0.49122
0.49252
0.492282
0.538213
0.772255
0.897506
0.897616
0.900616
0.897615
0.829819
0.594394
0.459904
0.473172
0.506083
0.458724
0.507525
0.517055
0.535602
0.539209
0.537441
0.530672
0.505612
0.462507
0.447574
0.450788
0.446942
0.438782
0.440735
0.451085
0.468024
0.48005
0.479888
0.527768
0.75845
0.895455
0.897616
0.899918
0.897616
0.898849
0.862568
0.746673
0.637421
0.630377
0.675086
0.53166
0.49556
0.499787
0.520065
0.540244
0.55219
0.552281
0.549123
0.523149
0.504204
0.488769
0.457793
0.438799
0.440765
0.451771
0.465822
0.471839
0.514559
0.741867
0.892398
0.897616
0.89947
0.897616
0.899912
0.897616
0.856023
0.760459
0.711765
0.710888
0.712905
0.642373
0.49248
0.479066
0.487718
0.510257
0.534245
0.546467
0.551907
0.551933
0.551333
0.53052
0.469723
0.440005
0.443007
0.453937
0.465787
0.49424
0.708064
0.890281
0.897616
0.899291
0.897616
0.899489
0.897616
0.898122
0.843147
0.740083
0.695485
0.693099
0.711897
0.650743
0.492341
0.473785
0.470897
0.479138
0.496747
0.514601
0.525379
0.538758
0.54738
0.515242
0.459712
0.441976
0.447141
0.459151
0.478017
0.649074
0.878405
0.897616
0.899256
0.897616
0.898974
0.897616
0.898929
0.897616
0.823241
0.713975
0.679712
0.676349
0.71225
0.622947
0.492341
0.473794
0.465722
0.46746
0.473563
0.481233
0.490788
0.510087
0.509152
0.476499
0.449309
0.445779
0.453806
0.469593
0.599698
0.84476
0.897615
0.899309
0.897616
0.898951
0.897616
0.898607
0.897616
0.886795
0.784275
0.682102
0.658009
0.657611
0.707628
0.591172
0.492342
0.475787
0.464043
0.463412
0.465749
0.468019
0.472913
0.482927
0.47578
0.457477
0.449097
0.449804
0.463099
0.568956
0.805569
0.897579
0.898968
0.897616
0.899121
0.897616
0.898076
0.897616
0.897496
0.848993
0.710297
0.640711
0.62727
0.627407
0.650254
0.528265
0.49234
0.486976
0.465544
0.463116
0.463195
0.463898
0.463507
0.464197
0.459578
0.451944
0.450185
0.461066
0.550336
0.776109
0.890066
0.898708
0.897616
0.899358
0.897616
0.89804
0.897565
0.893183
0.869981
0.765529
0.612643
0.587721
0.583058
0.578281
0.543884
0.473255
0.492258
0.492188
0.470876
0.463181
0.463146
0.46406
0.459593
0.454957
0.452591
0.452741
0.464432
0.538908
0.772817
0.881278
0.898222
0.897616
0.89931
0.897616
0.898298
0.892811
0.881628
0.866893
0.810017
0.630546
0.519585
0.526549
0.525597
0.504092
0.470069
0.452412
0.487342
0.492139
0.48204
0.467715
0.465675
0.468566
0.466334
0.456866
0.45356
0.463788
0.531511
0.776195
0.888097
0.898009
0.897613
0.899311
0.897616
0.89918
0.897616
0.874547
0.846347
0.826966
0.754652
0.536898
0.474611
0.47914
0.477537
0.463848
0.452402
0.452379
0.471957
0.487364
0.487039
0.476642
0.469091
0.469763
0.481829
0.481391
0.479672
0.563738
0.766691
0.885952
0.897897
0.897616
0.898788
0.897616
0.899139
0.897616
0.894487
0.84688
0.809747
0.799318
0.736465
0.556547
0.465833
0.462973
0.458909
0.453395
0.452384
0.472245
0.459856
0.468269
0.474372
0.471957
0.467028
0.463708
0.46847
0.478276
0.563599
0.745184
0.859014
0.891273
0.897616
0.898346
0.897616
0.899334
0.897616
0.89816
0.8819
0.821291
0.793224
0.791709
0.768639
0.695674
0.535657
0.470175
0.456615
0.454101
0.452437
0.475506
0.459052
0.459071
0.461909
0.463058
0.461596
0.45933
0.459601
0.469185
0.597433
0.777366
0.838519
0.871362
0.895838
0.897616
0.898904
0.897616
0.898482
0.897616
0.857666
0.809375
0.799229
0.802672
0.806
0.803131
0.758061
0.623337
0.482114
0.464433
0.463446
0.475546
0.459051
0.459046
0.459062
0.459319
0.45932
0.459326
0.45948
0.480163
0.626773
0.738072
0.771209
0.813752
0.870326
0.897833
0.897616
0.899147
0.897616
0.885779
0.838267
0.815897
0.818582
0.822474
0.826162
0.829089
0.828978
0.806198
0.726462
0.538117
0.474467
0.475554
0.459012
0.459047
0.459875
0.460774
0.46224
0.46794
0.480981
0.553768
0.626831
0.653928
0.675146
0.731074
0.814275
0.883379
0.898072
0.897616
0.894159
0.861661
0.835802
0.835995
0.835222
0.832535
0.829863
0.829239
0.829089
0.829198
0.825395
0.768024
0.581946
0.475578
0.459016
0.461013
0.463404
0.466347
0.473072
0.499146
0.53962
0.560246
0.57387
0.576774
0.60104
0.66568
0.77278
0.863518
0.897427
0.898557
0.880368
0.849597
0.849755
0.848453
0.838061
0.823947
0.814846
0.816813
0.827165
0.828814
0.828909
0.827344
0.7555
0.543648
0.46582
0.464523
0.467328
0.475553
0.506664
0.533944
0.537572
0.528798
0.51839
0.519524
0.54795
0.632535
0.7677
0.858848
0.894396
0.897616
0.870747
0.861146
0.864038
0.845669
0.816799
0.790546
0.781537
0.794587
0.821738
0.828909
0.828522
0.828428
0.78343
0.630986
0.472265
0.468378
0.473128
0.504956
0.528966
0.529604
0.511397
0.49393
0.488991
0.491375
0.520595
0.627692
0.773338
0.858818
0.891229
0.898312
0.878069
0.88491
0.866001
0.814567
0.761143
0.727597
0.729485
0.761342
0.811749
0.828522
0.828851
0.826947
0.761935
0.631326
0.478328
0.475323
0.495391
0.523985
0.525005
0.505955
0.486178
0.478496
0.478472
0.47884
0.523562
0.649014
0.781056
0.858246
0.890717
0.897616
0.896528
0.895989
0.844401
0.746042
0.678929
0.643569
0.653475
0.715832
0.798681
0.82862
0.828244
0.815653
0.725234
0.599666
0.483289
0.488928
0.511145
0.51971
0.506684
0.488141
0.480955
0.48035
0.48037
0.488036
0.550105
0.666315
0.777945
0.854561
0.891476
0.89832
0.897616
0.8927
0.775673
0.657654
0.591039
0.560888
0.567251
0.648714
0.773024
0.825431
0.825236
0.784786
0.673685
0.569044
0.485932
0.496028
0.506983
0.504227
0.491104
0.48808
0.488563
0.498439
0.506517
0.513974
0.555998
0.655098
0.763503
0.844905
0.890561
0.897616
0.897986
0.84916
0.660765
0.571505
0.520236
0.504454
0.504757
0.562716
0.716838
0.801111
0.799359
0.726517
0.607384
0.543966
0.485698
0.493172
0.496237
0.490964
0.487215
0.489942
0.500919
0.506377
0.506416
0.50173
0.526573
0.619341
0.729711
0.819186
0.877171
0.895846
0.884252
0.735184
0.560781
0.503666
0.482364
0.478924
0.482465
0.50506
0.6212
0.733716
0.732729
0.639135
0.536695
0.525067
0.48296
0.486525
0.48629
0.484646
0.484973
0.486009
0.485654
0.481495
0.474984
0.468841
0.475813
0.536181
0.650173
0.750551
0.816258
0.84834
0.816969
0.630934
0.496471
0.471758
0.466884
0.467123
0.471819
0.479006
0.528529
0.616592
0.622844
0.542685
0.48835
0.498934
0.47871
0.479774
0.479425
0.478079
0.474273
0.467484
0.460388
0.455937
0.45562
0.455515
0.455508
0.467837
0.526204
0.615368
0.679464
0.715767
0.691003
0.589428
0.482021
0.464507
0.464693
0.464529
0.464699
0.465037
0.47847
0.508018
0.515401
0.48125
0.467476
0.473949
0.474894
0.47469
0.473423
0.469102
0.461079
0.455722
0.455736
0.455608
0.455633
0.459473
0.455392
0.452724
0.462358
0.492164
0.525709
0.549645
0.553731
0.55037
0.500692
0.464708
0.463899
0.46469
0.464283
0.466718
0.480703
0.477215
0.467092
0.466354
0.466323
0.466326
0.472079
0.471023
0.468319
0.462595
0.45704
0.457042
0.459154
0.455766
0.471746
0.470459
0.459048
0.448244
0.444651
0.448082
0.454456
0.460821
0.467795
0.492347
0.500602
0.464034
0.464689
0.46356
0.464764
0.525338
0.584813
0.568278
0.53743
0.512362
0.466391
0.466333
0.470128
0.468237
0.464756
0.460652
0.459218
0.494856
0.502779
0.480874
0.48402
0.467094
0.450418
0.439381
0.435655
0.435042
0.435412
0.436541
0.439444
0.451637
0.483508
0.476923
0.463688
0.470033
0.556479
0.672924
0.733051
0.727991
0.705149
0.671434
0.582092
0.491394
0.468846
0.466284
0.463025
0.461268
0.466428
0.507108
0.508663
0.50712
0.483501
0.4491
0.436328
0.431693
0.430576
0.42996
0.429918
0.429922
0.430499
0.433818
0.448793
0.480294
0.520273
0.58677
0.655184
0.719531
0.74216
0.741429
0.742542
0.741429
0.699147
0.592425
0.468124
0.465119
0.462532
0.463068
0.486102
0.508988
0.507124
0.507442
0.457187
0.434707
0.429972
0.429821
0.429862
0.42985
0.429892
0.429859
0.429813
0.429946
0.431644
0.454285
0.521259
0.569605
0.599223
0.655117
0.721538
0.741902
0.741429
0.741694
0.68895
0.599243
0.467778
0.464455
0.46255
0.466528
0.508799
0.507124
0.508613
0.494031
0.438952
0.429987
0.429726
0.429848
0.429832
0.431732
0.436359
0.43005
0.429874
0.429792
0.429942
0.432817
0.459799
0.492056
0.505698
0.532434
0.613582
0.691604
0.714524
0.692103
0.615553
0.558182
0.467552
0.464301
0.463849
0.471756
0.507116
0.509042
0.50708
0.454143
0.430121
0.429687
0.429843
0.430045
0.437502
0.45541
0.481793
0.457792
0.430572
0.429887
0.429807
0.42998
0.432246
0.44401
0.455189
0.464876
0.490959
0.563975
0.611974
0.57654
0.51301
0.503573
0.467231
0.464787
0.466539
0.479407
0.508714
0.507122
0.480361
0.435186
0.429738
0.429838
0.429801
0.437575
0.460749
0.503123
0.561313
0.565813
0.461707
0.42992
0.429879
0.429827
0.430039
0.436945
0.444191
0.446974
0.453255
0.472468
0.496788
0.487517
0.471463
0.477519
0.466242
0.465585
0.469109
0.488531
0.507122
0.507304
0.44779
0.429887
0.429839
0.429677
0.43379
0.452333
0.485178
0.554231
0.677712
0.754903
0.609782
0.456103
0.429897
0.429897
0.429927
0.437535
0.446707
0.447591
0.447582
0.450532
0.458944
0.464721
0.471343
0.472239
0.463738
0.464838
0.469413
0.497782
0.507785
0.471019
0.434331
0.429892
0.429669
0.430483
0.442953
0.472149
0.503051
0.613425
0.813681
0.916075
0.848423
0.605687
0.444442
0.429934
0.429991
0.435401
0.449291
0.46572
0.456495
0.455889
0.46785
0.47696
0.492322
0.470139
0.460222
0.462457
0.466929
0.503515
0.493656
0.445334
0.430081
0.429687
0.429925
0.435863
0.453517
0.482194
0.519014
0.685445
0.912656
0.97721
0.962572
0.815843
0.538301
0.435033
0.430142
0.435476
0.524648
0.582932
0.581615
0.582761
0.597062
0.597208
0.590745
0.501869
0.458067
0.463776
0.462097
0.505392
0.465971
0.436148
0.429906
0.429916
0.431991
0.441783
0.458466
0.480353
0.528857
0.78594
0.961301
0.986896
0.985136
0.919674
0.704208
0.489125
0.436446
0.484937
0.592261
0.636609
0.652537
0.668945
0.671144
0.671301
0.620509
0.470694
0.458184
0.500229
0.462092
0.505717
0.457611
0.433064
0.429957
0.429797
0.435796
0.446757
0.460833
0.477817
0.607818
0.894882
0.97881
0.987353
0.986896
0.959564
0.822297
0.603298
0.502412
0.529308
0.57634
0.600135
0.61678
0.632444
0.631973
0.572385
0.477006
0.435937
0.566952
0.721606
0.517608
0.517003
0.449021
0.430509
0.429843
0.430754
0.4432
0.459168
0.502757
0.607138
0.804189
0.953597
0.985564
0.986896
0.98766
0.977514
0.881525
0.695344
0.561719
0.537546
0.550576
0.564539
0.569281
0.558817
0.506743
0.453856
0.435924
0.435583
0.693485
0.722753
0.675866
0.519035
0.441158
0.429995
0.430026
0.435356
0.462018
0.570542
0.694392
0.844856
0.938292
0.978504
0.986896
0.987505
0.986896
0.98627
0.922078
0.743771
0.587315
0.538603
0.539713
0.539154
0.521746
0.479229
0.446452
0.435901
0.435601
0.435714
0.520994
0.702601
0.689511
0.494688
0.431069
0.430059
0.430251
0.463805
0.665366
0.835514
0.870288
0.959515
0.980543
0.986441
0.987244
0.986896
0.98767
0.986896
0.955169
0.792835
0.610702
0.540005
0.522788
0.500097
0.469429
0.445256
0.436041
0.435643
0.436011
0.464522
0.444758
0.521531
0.604365
0.448719
0.430245
0.430262
0.446351
0.642443
0.913019
0.964747
0.952916
0.982885
0.986895
0.987182
0.986896
0.987525
0.986896
0.987395
0.977763
0.850262
0.622517
0.523801
0.490342
0.465234
0.445903
0.436216
0.435733
0.436195
0.459381
0.515635
0.441018
0.448514
0.472723
0.430732
0.430499
0.439288
0.608452
0.890843
0.97964
0.986456
0.98039
0.986882
0.98719
0.986896
0.987401
0.986896
0.98752
0.986896
0.986996
0.915456
0.627182
0.495353
0.469334
0.449502
0.437252
0.435961
0.436449
0.465451
0.567895
0.559166
0.447993
0.435315
0.431118
0.430789
0.442594
0.59298
0.847023
0.975491
0.986894
0.98723
0.986889
0.987181
0.986896
0.987365
0.986895
0.987488
0.986896
0.987309
0.986896
0.963628
0.668038
0.48138
0.459711
0.442593
0.436453
0.436605
0.48546
0.56791
0.568711
0.568406
0.466725
0.431964
0.431093
0.442488
0.514465
0.7343
0.94814
0.986895
0.987337
0.986896
0.987243
0.986896
0.98733
0.986896
0.987429
0.986896
0.987433
0.986896
0.987066
0.981048
0.794785
0.49319
0.45658
0.441051
0.436871
0.466168
0.567432
0.568557
0.567991
0.568328
0.492106
0.434496
0.434247
0.459847
0.574242
0.846924
0.980154
0.987298
0.986896
0.987368
0.986896
0.987309
0.986896
0.987378
0.986896
0.987447
0.986896
0.987254
0.986896
0.986151
0.91915
0.619865
0.464641
0.445572
0.449218
0.503742
0.568008
0.567467
0.568292
0.47177
0.517502
0.440889
0.440865
0.471336
0.681438
0.945792
0.987151
0.986896
0.987378
0.986896
0.987328
0.986896
0.987305
0.986896
0.987399
0.986896
0.987395
0.986896
0.987013
0.986896
0.969121
0.83329
0.544819
0.456046
0.458322
0.522634
0.566969
0.554751
0.462713
0.445225
0.517186
0.445187
0.445669
0.513684
0.847689
0.981944
0.986896
0.987291
0.986896
0.987349
0.986896
0.987265
0.986896
0.987325
0.986896
0.987417
0.986896
0.987225
0.986896
0.984898
0.970371
0.906013
0.728052
0.49983
0.458833
0.522198
0.496233
0.456474
0.445184
0.445016
0.515009
0.456849
0.463228
0.693565
0.934457
0.986509
0.987157
0.986896
0.987341
0.986896
0.987279
0.986896
0.987234
0.986896
0.987364
0.986896
0.987357
0.986896
0.986939
0.976519
0.935426
0.868822
0.777445
0.602053
0.46931
0.476635
0.451864
0.445128
0.444936
0.445036
0.515297
0.561536
0.611999
0.786922
0.94313
0.985441
0.986896
0.987263
0.986896
0.987316
0.986896
0.987191
0.986896
0.987277
0.986896
0.987383
0.986896
0.987186
0.986685
0.963373
0.880298
0.765969
0.700544
0.629021
0.494854
0.452328
0.445198
0.444966
0.445087
0.450455
0.530926
0.674234
0.687127
0.772457
0.910585
0.981612
0.987039
0.986896
0.987325
0.986896
0.987245
0.986896
0.987172
0.986896
0.987323
0.986896
0.987308
0.986896
0.986361
0.950941
0.824327
0.681265
0.613042
0.58779
0.507886
0.448085
0.44509
0.445218
0.447324
0.473883
0.57193
0.70293
0.700694
0.729407
0.853653
0.970112