/*--------------------------------*- C++ -*----------------------------------*\
| =========                 |                                                 |
| \\      /  F ield         | OpenFOAM: The Open Source CFD Toolbox           |
|  \\    /   O peration     | Version:  2.3.0                                 |
|   \\  /    A nd           | Web:      www.OpenFOAM.org                      |
|    \\/     M anipulation  |                                                 |
\*---------------------------------------------------------------------------*/
FoamFile
{
    version     2.0;
    format      ascii;
    class       surfaceScalarField;
    location    "0.19";
    object      phi.air;
}
// * * * * * * * * * * * * * * * * * * * * * * * * * * * * * * * * * * * * * //

dimensions      [0 3 -1 0 0 0 0];

internalField   nonuniform List<scalar> 
11770
(
-4.87854e-06
0.000100677
1.32287e-06
9.20804e-05
4.96577e-06
9.37028e-05
5.66346e-06
9.63072e-05
4.10669e-06
9.81715e-05
1.63388e-06
9.89224e-05
-1.3818e-06
9.9122e-05
-3.24506e-06
9.77453e-05
-4.00733e-06
9.64244e-05
-3.96429e-06
9.54997e-05
-3.45414e-06
9.49803e-05
-2.66784e-06
9.47162e-05
-1.76869e-06
9.46404e-05
-8.15604e-07
9.4624e-05
1.09933e-08
9.47256e-05
8.16679e-07
9.474e-05
1.76075e-06
9.46305e-05
2.6558e-06
9.46366e-05
3.42877e-06
9.47209e-05
3.95977e-06
9.49531e-05
4.00928e-06
9.54811e-05
3.25373e-06
9.64024e-05
1.38316e-06
9.77329e-05
-1.65004e-06
9.91208e-05
-4.13247e-06
9.8915e-05
-5.74604e-06
9.82045e-05
-5.03006e-06
9.62828e-05
-1.39686e-06
9.36933e-05
4.84384e-06
9.20224e-05
0.000100643
-8.38591e-07
9.22116e-05
2.34155e-06
8.17437e-05
5.66526e-06
8.21933e-05
6.24096e-06
8.58209e-05
4.40937e-06
8.848e-05
5.55252e-07
9.0234e-05
-2.84005e-06
9.00809e-05
-4.91521e-06
8.76906e-05
-5.54272e-06
8.51573e-05
-5.02091e-06
8.31629e-05
-3.95137e-06
8.20876e-05
-2.81997e-06
8.16779e-05
-1.83221e-06
8.16501e-05
-9.30181e-07
8.16703e-05
-1.78313e-08
8.17674e-05
8.98503e-07
8.17917e-05
1.77965e-06
8.17042e-05
2.77131e-06
8.16574e-05
3.89964e-06
8.17008e-05
4.98199e-06
8.20598e-05
5.51448e-06
8.31544e-05
4.92465e-06
8.51156e-05
2.83734e-06
8.77129e-05
-5.6982e-07
9.01101e-05
-4.41041e-06
9.02596e-05
-6.37496e-06
8.86359e-05
-5.75915e-06
8.5787e-05
-2.46986e-06
8.22083e-05
7.71587e-07
8.16274e-05
9.20908e-05
1.33918e-06
0.000103644
2.47265e-06
9.37692e-05
2.97463e-06
9.53828e-05
4.02233e-06
9.86608e-05
4.43718e-06
0.000101382
2.10479e-06
0.000104286
-2.39567e-06
0.000103682
-4.82044e-06
9.77552e-05
-5.42122e-06
9.25155e-05
-4.51373e-06
8.84549e-05
-3.28749e-06
8.65403e-05
-2.16987e-06
8.58662e-05
-1.33497e-06
8.58359e-05
-6.39839e-07
8.58519e-05
-1.96794e-08
8.59271e-05
5.98118e-07
8.59608e-05
1.24403e-06
8.59005e-05
2.12446e-06
8.58088e-05
3.1788e-06
8.59068e-05
4.498e-06
8.64378e-05
5.31402e-06
8.84769e-05
4.89414e-06
9.2323e-05
2.34751e-06
9.78204e-05
-1.98447e-06
0.000103568
-4.54752e-06
0.000104471
-4.12151e-06
0.000101554
-3.23468e-06
9.87672e-05
-2.70611e-06
9.54267e-05
-1.56678e-06
9.36425e-05
0.00010331
5.31401e-06
0.000106183
5.66143e-06
9.94077e-05
2.48772e-06
0.000104349
2.46249e-06
0.00010659
4.41335e-06
0.000109795
1.28921e-06
0.000118392
-5.29328e-06
0.000121041
-7.97716e-06
0.00010991
-8.39473e-06
9.99046e-05
-6.63555e-06
9.21149e-05
-4.3919e-06
8.90913e-05
-2.82189e-06
8.86204e-05
-1.53083e-06
8.8669e-05
-8.18489e-07
8.90536e-05
2.14314e-08
8.90462e-05
5.69135e-07
8.92605e-05
1.5683e-06
8.88989e-05
2.58653e-06
8.88075e-05
4.42503e-06
8.84607e-05
6.42126e-06
8.91229e-05
8.43756e-06
9.19197e-05
7.84876e-06
9.97541e-05
5.49186e-06
0.000109637
-1.04551e-06
0.000120764
-4.52763e-06
0.000118671
-2.66729e-06
0.000109886
-2.88267e-06
0.000106697
-6.2229e-06
0.000104409
-5.91223e-06
9.92428e-05
0.000105377
7.94717e-06
8.41116e-05
1.00042e-05
8.18461e-05
9.63504e-06
8.83653e-05
9.9465e-06
9.20022e-05
1.03409e-05
9.77707e-05
5.07614e-06
0.000112821
-6.84573e-06
0.000124526
-1.36155e-05
0.000116607
-1.34486e-05
0.000106773
-8.32868e-06
9.7563e-05
-5.09794e-06
9.58159e-05
-2.99127e-06
9.60874e-05
-1.75786e-06
9.67667e-05
-7.1934e-07
9.73274e-05
-1.78828e-07
9.76424e-05
7.07453e-07
9.76261e-05
1.48137e-06
9.73185e-05
2.95347e-06
9.67285e-05
4.8554e-06
9.60231e-05
8.23675e-06
9.57398e-05
1.33402e-05
9.7343e-05
1.35412e-05
0.000106523
7.05495e-06
0.000116018
-5.27544e-06
0.000124265
-1.04341e-05
0.000112787
-1.05197e-05
9.7946e-05
-1.00418e-05
9.18081e-05
-1.06059e-05
8.83598e-05
-8.3684e-06
8.14422e-05
8.30092e-05
1.39325e-05
5.46809e-05
2.26919e-05
5.73273e-05
2.8082e-05
6.67777e-05
2.85932e-05
7.44318e-05
2.42806e-05
8.36414e-05
1.98647e-05
9.81831e-05
1.46825e-05
0.000109932
5.72705e-06
0.000106564
-1.05516e-06
9.97724e-05
-4.94521e-06
9.48708e-05
-3.61506e-06
9.40578e-05
-2.08434e-06
9.66221e-05
-1.16327e-06
9.91093e-05
-5.48179e-07
0.000100666
-1.95927e-07
0.000101523
3.46221e-07
0.000101398
9.04605e-07
0.000100697
1.92143e-06
9.90204e-05
3.44301e-06
9.65559e-05
4.84324e-06
9.39281e-05
5.80808e-07
9.4837e-05
-6.04289e-06
9.94761e-05
-1.55954e-05
0.000106502
-2.00016e-05
0.000109343
-2.53304e-05
9.89959e-05
-2.9261e-05
8.37196e-05
-2.90196e-05
7.46223e-05
-2.34137e-05
6.67164e-05
-1.43626e-05
5.67184e-05
5.32277e-05
2.03175e-05
3.30716e-05
3.57076e-05
4.01432e-05
4.56896e-05
5.42051e-05
4.87491e-05
6.77003e-05
4.53955e-05
8.22346e-05
4.29361e-05
9.53896e-05
4.47814e-05
0.000102204
3.75795e-05
0.000103706
2.62381e-05
9.7437e-05
1.45578e-05
9.00083e-05
7.9187e-06
8.45342e-05
4.4083e-06
8.45788e-05
2.59454e-06
8.59965e-05
9.83374e-07
8.74715e-05
-1.21691e-07
8.80946e-05
-1.65111e-06
8.82043e-05
-2.83545e-06
8.7264e-05
-5.04953e-06
8.61297e-05
-8.29515e-06
8.43944e-05
-1.54604e-05
8.47848e-05
-2.67878e-05
8.98403e-05
-3.89495e-05
9.78624e-05
-4.55179e-05
0.000103293
-4.41462e-05
0.000102099
-4.57865e-05
9.57756e-05
-4.90965e-05
8.23819e-05
-4.63989e-05
6.83251e-05
-3.64947e-05
5.42999e-05
-2.09821e-05
3.9544e-05
3.11437e-05
2.04107e-05
1.54624e-05
3.77389e-05
2.45459e-05
4.97964e-05
4.29969e-05
5.67859e-05
6.11407e-05
5.49683e-05
8.32062e-05
4.95571e-05
9.92056e-05
4.73084e-05
0.000103077
4.73704e-05
0.000102952
4.38561e-05
9.85277e-05
3.64108e-05
9.22371e-05
2.54094e-05
8.69507e-05
1.66022e-05
8.31168e-05
9.56861e-06
8.15396e-05
4.31025e-06
8.07378e-05
-6.67621e-07
8.06708e-05
-5.35177e-06
8.05919e-05
-1.10033e-05
8.08067e-05
-1.76964e-05
8.14597e-05
-2.69786e-05
8.32947e-05
-3.75082e-05
8.68674e-05
-4.51721e-05
9.22766e-05
-4.79963e-05
9.84412e-05
-4.8254e-05
0.000102768
-5.03149e-05
0.000102791
-5.48836e-05
9.87348e-05
-5.74389e-05
8.39534e-05
-5.03628e-05
6.16557e-05
-3.84643e-05
4.31876e-05
-2.09074e-05
2.36981e-05
1.31427e-05
1.46955e-05
2.91681e-06
3.03708e-05
1.07254e-05
4.2712e-05
3.22059e-05
5.40444e-05
5.11783e-05
5.69337e-05
8.04862e-05
4.88405e-05
0.000105521
4.36558e-05
0.000106807
4.07651e-05
0.000105143
3.72386e-05
0.00010177
3.19188e-05
9.7432e-05
2.55361e-05
9.30728e-05
1.83045e-05
8.94639e-05
1.15471e-05
8.70445e-05
5.17069e-06
8.55582e-05
-7.41809e-07
8.49641e-05
-6.72492e-06
8.49316e-05
-1.30129e-05
8.55882e-05
-1.98465e-05
8.70296e-05
-2.68351e-05
8.94948e-05
-3.32722e-05
9.30261e-05
-3.84119e-05
9.73017e-05
-4.18192e-05
0.000101555
-4.45025e-05
0.000104716
-4.94131e-05
0.000106226
-5.73441e-05
0.000104894
-5.44168e-05
8.10316e-05
-4.2717e-05
5.1308e-05
-3.04926e-05
3.24448e-05
-1.4782e-05
9.75349e-06
3.99219e-07
9.3253e-06
-5.47391e-06
2.20603e-05
-1.06281e-06
3.21518e-05
2.2805e-05
4.26708e-05
4.14026e-05
5.01671e-05
7.32112e-05
4.24162e-05
0.000110972
3.70419e-05
0.00011078
3.33083e-05
0.000108128
2.97465e-05
0.00010496
2.5627e-05
0.000101342
2.07674e-05
9.76855e-05
1.53509e-05
9.45335e-05
9.8743e-06
9.2122e-05
4.45857e-06
9.05185e-05
-7.65573e-07
8.97306e-05
-6.03921e-06
8.97312e-05
-1.13941e-05
9.04986e-05
-1.68708e-05
9.20886e-05
-2.22031e-05
9.44855e-05
-2.70098e-05
9.7567e-05
-3.11004e-05
0.000101174
-3.45924e-05
0.000104619
-3.82405e-05
0.000107643
-4.3527e-05
0.000110117
-5.04837e-05
0.000109645
-4.27173e-05
7.35087e-05
-3.18498e-05
4.11563e-05
-2.20512e-05
2.32159e-05
-9.14744e-06
-2.27686e-06
-7.97955e-06
5.66194e-06
-1.0993e-05
1.51212e-05
-1.02174e-05
2.28617e-05
1.46553e-05
3.09525e-05
3.30298e-05
3.75039e-05
6.56571e-05
3.3258e-05
0.000112803
2.94789e-05
0.000113217
2.64089e-05
0.000110422
2.33813e-05
0.000107488
2.00226e-05
0.000104355
1.618e-05
0.000101149
1.20169e-05
9.82762e-05
7.71454e-06
9.59362e-05
3.44391e-06
9.42815e-05
-8.01226e-07
9.344e-05
-5.00271e-06
9.3417e-05
-9.29423e-06
9.42674e-05
-1.35497e-05
9.5874e-05
-1.77198e-05
9.82112e-05
-2.15481e-05
0.000101026
-2.49358e-05
0.000104175
-2.79837e-05
0.000107179
-3.11411e-05
0.00010996
-3.45875e-05
0.000112255
-3.88197e-05
0.000111431
-3.12646e-05
6.50359e-05
-2.27748e-05
3.24118e-05
-1.50594e-05
1.503e-05
-5.1004e-06
-1.19132e-05
-1.31518e-05
3.24258e-06
-1.44533e-05
8.86737e-06
-1.59368e-05
1.49599e-05
7.69592e-06
2.07843e-05
2.62776e-05
2.50381e-05
5.95071e-05
2.40709e-05
0.000111571
2.249e-05
0.000113539
2.03037e-05
0.000111704
1.79756e-05
0.000109235
1.52369e-05
0.000106571
1.22067e-05
0.000103688
8.91419e-06
0.000101017
5.64656e-06
9.86436e-05
2.36372e-06
9.69554e-05
-7.8907e-07
9.59977e-05
-4.00332e-06
9.60094e-05
-7.21823e-06
9.68937e-05
-1.0538e-05
9.86057e-05
-1.37827e-05
0.000100926
-1.68971e-05
0.000103616
-1.96865e-05
0.00010645
-2.22325e-05
0.000109088
-2.45494e-05
0.000111397
-2.66823e-05
0.00011309
-2.72571e-05
0.000109861
-2.19012e-05
5.79428e-05
-1.53176e-05
2.5089e-05
-8.53404e-06
7.53534e-06
-2.20631e-06
-1.84115e-05
-1.58566e-05
1.507e-06
-1.62833e-05
3.65197e-06
-1.8435e-05
8.53277e-06
2.20941e-06
1.20995e-05
2.13638e-05
1.50192e-05
5.4529e-05
1.74377e-05
0.000107453
1.67785e-05
0.000112891
1.53744e-05
0.000112145
1.34076e-05
0.000110437
1.11462e-05
0.000108196
8.57369e-06
0.000105613
6.01973e-06
0.000102936
3.53171e-06
0.000100445
1.29998e-06
9.85136e-05
-8.51251e-07
9.74355e-05
-2.91289e-06
9.73896e-05
-5.21005e-06
9.84866e-05
-7.61302e-06
0.000100353
-1.02545e-05
0.000102899
-1.28051e-05
0.000105547
-1.52583e-05
0.000108224
-1.73703e-05
0.000110453
-1.9302e-05
0.000112301
-2.0374e-05
0.000112888
-1.78436e-05
0.00010572
-1.38439e-05
5.20696e-05
-9.28034e-06
1.95191e-05
-3.38517e-06
1.34895e-06
-3.91492e-07
-2.20099e-05
-1.70032e-05
-1.26352e-07
-1.66342e-05
5.30613e-08
-1.8884e-05
3.1227e-06
-1.30355e-06
4.80476e-06
1.82566e-05
7.84398e-06
4.98034e-05
1.31485e-05
0.000101023
1.29374e-05
0.000111784
1.15368e-05
0.000112421
9.72921e-06
0.000111364
7.49721e-06
0.000109616
5.2247e-06
0.000107142
2.99734e-06
0.000104385
1.35106e-06
0.000101339
4.73356e-08
9.90216e-05
-8.29707e-07
9.75747e-05
-1.75172e-06
9.75497e-05
-2.9654e-06
9.89357e-05
-4.69542e-06
0.000101295
-6.80565e-06
0.000104266
-9.19907e-06
0.000107154
-1.14192e-05
0.000109665
-1.35445e-05
0.000111642
-1.51518e-05
0.000112817
-1.61937e-05
0.000112502
-1.0515e-05
9.90074e-05
-6.53337e-06
4.65744e-05
-4.2519e-06
1.61704e-05
-5.05918e-07
-2.45511e-06
7.75213e-08
-2.30094e-05
-1.78104e-05
-1.82545e-06
-1.55722e-05
-2.77559e-06
-1.81159e-05
-1.66302e-06
-2.85855e-06
-8.5108e-07
1.62113e-05
2.81601e-06
4.49768e-05
1.10036e-05
9.23384e-05
1.03844e-05
0.000110891
8.88323e-06
0.00011273
6.67785e-06
0.000112503
4.31763e-06
0.000111061
1.809e-06
0.000108745
-2.3279e-07
0.000105579
-1.23352e-06
0.000101696
-1.24974e-06
9.86561e-05
-8.9119e-07
9.69447e-05
-4.99099e-07
9.6897e-05
-5.13502e-07
9.85506e-05
-1.34352e-06
0.000101508
-3.42296e-06
0.00010546
-5.80291e-06
0.00010867
-8.27527e-06
0.000111174
-1.04002e-05
0.000112742
-1.22426e-05
0.000113392
-1.29511e-05
0.000111695
-4.52259e-06
9.00972e-05
-1.05981e-07
4.11983e-05
3.35696e-07
1.47156e-05
1.75712e-06
-4.13271e-06
-4.16723e-08
-2.13248e-05
-1.79087e-05
-3.6569e-06
-1.31411e-05
-5.00933e-06
-1.70501e-05
-5.48263e-06
-2.63334e-06
-4.76721e-06
1.47296e-05
-1.01119e-06
4.05153e-05
9.00877e-06
8.23871e-05
9.15772e-06
0.000109217
7.01598e-06
0.000113501
4.3662e-06
0.000113999
1.35353e-06
0.00011298
-1.47081e-06
0.000110601
-2.91405e-06
0.000106496
-2.75287e-06
0.000101573
-1.83994e-06
9.81408e-05
-8.79863e-07
9.65044e-05
8.80618e-08
9.64506e-05
1.0357e-06
9.80143e-05
1.22023e-06
0.000101364
-7.79331e-08
0.000106262
-2.81046e-06
0.000110402
-5.52566e-06
0.000112841
-8.18265e-06
0.000114184
-9.99569e-06
0.000113884
-9.56602e-06
0.000109681
9.10335e-07
7.9697e-05
4.83339e-06
3.68138e-05
3.97243e-06
1.46193e-05
3.8494e-06
-4.03039e-06
2.25499e-08
-1.69658e-05
-1.74327e-05
-4.66393e-06
-9.50857e-06
-6.45287e-06
-1.52885e-05
-8.00954e-06
-1.03814e-06
-7.51953e-06
1.39497e-05
-4.83645e-06
3.74037e-05
4.97287e-06
7.2972e-05
8.50056e-06
0.000105041
6.10216e-06
0.000114606
2.48142e-06
0.000116303
-7.82351e-07
0.000115244
-2.80381e-06
0.000112149
-2.73125e-06
0.00010672
-2.07832e-06
0.000101568
-1.41818e-06
9.82411e-05
-8.29932e-07
9.67005e-05
-2.47255e-07
9.66517e-05
4.3382e-07
9.80993e-05
1.1311e-06
0.000101328
1.31351e-06
0.000106391
-4.72102e-07
0.000111744
-3.47202e-06
0.000114822
-6.5228e-06
0.000115979
-8.54106e-06
0.00011457
-3.68337e-06
0.000104333
6.55524e-06
6.99506e-05
8.36271e-06
3.47778e-05
6.77226e-06
1.56331e-05
4.86722e-06
-1.71214e-06
5.53902e-07
-1.22078e-05
-1.6504e-05
-4.39851e-06
-4.53866e-06
-7.76071e-06
-1.13094e-05
-9.24013e-06
1.25647e-06
-9.59959e-06
1.44206e-05
-8.30102e-06
3.59356e-05
-1.16138e-06
6.64546e-05
5.77371e-06
9.89212e-05
4.89466e-06
0.000115076
1.8847e-06
0.000118754
-4.24047e-07
0.000117376
-8.37301e-07
0.000113088
-4.90041e-07
0.000107144
-4.68883e-07
0.000102252
-6.3374e-07
9.90498e-05
-7.83612e-07
9.74823e-05
-9.40003e-07
9.74383e-05
-1.0815e-06
9.88868e-05
-1.02287e-06
0.000101977
-5.58177e-07
0.00010671
-6.96218e-07
0.000112437
-2.53175e-06
0.000116546
-4.88056e-06
0.000117811
-4.63398e-06
0.000113997
3.75512e-06
9.68952e-05
1.14326e-05
6.30782e-05
1.12619e-05
3.48056e-05
9.62913e-06
1.70531e-05
5.4865e-06
2.36383e-06
1.60245e-06
-7.94087e-06
-1.40518e-05
-3.91428e-06
1.38317e-06
-8.80196e-06
-5.78245e-06
-1.00257e-05
4.6169e-06
-1.12349e-05
1.65559e-05
-1.10905e-05
3.61637e-05
-6.98911e-06
6.31678e-05
-1.87329e-07
9.36064e-05
2.35875e-06
0.000113602
2.06823e-06
0.000119898
1.75671e-06
0.000118662
1.95192e-06
0.0001139
1.5503e-06
0.000108287
7.70572e-07
0.000103589
-1.80957e-08
0.00010033
-7.51491e-07
9.86946e-05
-1.48267e-06
9.86479e-05
-2.25055e-06
0.000100149
-2.97839e-06
0.000103267
-3.27036e-06
0.000107753
-2.8492e-06
0.000113042
-2.65056e-06
0.000117365
-2.12888e-06
0.000118205
1.61895e-06
0.000111388
1.00991e-05
8.99889e-05
1.48112e-05
5.93089e-05
1.34188e-05
3.61875e-05
1.16477e-05
1.89612e-05
6.22857e-06
7.19669e-06
3.62659e-06
-4.5362e-06
-8.95539e-06
-3.75847e-06
7.69339e-06
-8.65206e-06
-3.21774e-07
-1.08791e-05
8.7727e-06
-1.29706e-05
2.07586e-05
-1.37663e-05
3.7847e-05
-1.13531e-05
6.1788e-05
-5.66056e-06
8.9491e-05
-9.32458e-07
0.000110658
1.61244e-06
0.000118978
2.91086e-06
0.000118748
3.09857e-06
0.000114706
2.36951e-06
0.00010969
1.33117e-06
0.000105155
2.69975e-07
0.000101869
-7.29127e-07
0.00010016
-1.7312e-06
0.000100117
-2.76736e-06
0.000101667
-3.74749e-06
0.000104781
-4.35751e-06
0.000109042
-3.93646e-06
0.000113621
-2.27406e-06
0.000117082
9.43123e-07
0.000116611
6.82194e-06
0.000107301
1.40459e-05
8.44311e-05
1.65845e-05
5.7774e-05
1.47077e-05
3.8305e-05
1.23959e-05
2.17304e-05
7.75186e-06
1.19963e-05
5.89047e-06
-9.63098e-07
-1.20317e-06
-4.28379e-06
1.60701e-05
-8.26203e-06
5.74031e-06
-1.21351e-05
1.32325e-05
-1.56622e-05
2.62104e-05
-1.71293e-05
4.09909e-05
-1.52819e-05
6.13037e-05
-1.01835e-05
8.6009e-05
-4.45169e-06
0.00010672
-3.75436e-07
0.000116536
1.87013e-06
0.000117803
2.51292e-06
0.000115018
2.18401e-06
0.000110754
1.37552e-06
0.000106579
3.6273e-07
0.000103436
-7.03924e-07
0.000101759
-1.77686e-06
0.000101722
-2.77103e-06
0.000103217
-3.52864e-06
0.000106156
-3.76562e-06
0.00011002
-2.96659e-06
0.00011378
-5.11536e-07
0.000115909
3.94181e-06
0.000113756
1.05696e-05
0.000102472
1.6426e-05
8.03064e-05
1.71242e-05
5.81628e-05
1.52237e-05
4.10412e-05
1.24072e-05
2.55036e-05
9.97476e-06
1.5855e-05
6.89835e-06
3.92068e-06
8.16343e-06
-9.73019e-06
2.67016e-05
-1.06896e-05
9.2936e-06
-1.34939e-05
1.62832e-05
-1.75767e-05
3.09164e-05
-2.02712e-05
4.53828e-05
-1.91667e-05
6.2079e-05
-1.41938e-05
8.28833e-05
-8.22357e-06
0.000102519
-3.36326e-06
0.000113237
-4.08238e-07
0.000116127
1.05257e-06
0.000114611
1.44411e-06
0.000111242
1.095e-06
0.000107672
3.05774e-07
0.000104881
-6.72549e-07
0.000103355
-1.65814e-06
0.000103325
-2.44189e-06
0.000104661
-2.76501e-06
0.000107235
-2.32982e-06
0.000110475
-8.34277e-07
0.00011334
2.18169e-06
0.000114161
7.25025e-06
0.000110232
1.37875e-05
9.77623e-05
1.81259e-05
7.77584e-05
1.75672e-05
5.9929e-05
1.56776e-05
4.4236e-05
1.22387e-05
3.05696e-05
1.06897e-05
1.9209e-05
8.36096e-06
8.07465e-06
1.79994e-05
-1.10511e-05
3.45675e-05
-1.41816e-05
1.27514e-05
-1.52929e-05
1.81e-05
-1.84041e-05
3.43263e-05
-2.23698e-05
5.02088e-05
-2.29412e-05
6.44178e-05
-1.82383e-05
8.03152e-05
-1.21215e-05
9.8283e-05
-6.75251e-06
0.000109535
-2.99563e-06
0.000113779
-6.96132e-07
0.000113526
4.03291e-07
0.000111177
5.77521e-07
0.000108379
1.22179e-07
0.000106107
-6.28474e-07
0.000104822
-1.38283e-06
0.000104797
-1.84465e-06
0.000105901
-1.67395e-06
0.000107961
-5.78411e-07
0.000110433
1.64585e-06
0.000112334
5.35801e-06
0.000111853
1.08564e-05
0.000106415
1.68431e-05
9.37248e-05
1.96478e-05
7.67074e-05
1.81742e-05
6.27978e-05
1.57985e-05
4.81703e-05
1.17657e-05
3.5458e-05
1.12675e-05
2.09244e-05
1.10757e-05
9.28841e-06
2.85303e-05
-4.2604e-06
3.82594e-05
-1.51026e-05
2.23942e-05
-1.62725e-05
2.07494e-05
-1.82418e-05
3.7082e-05
-2.21253e-05
5.47355e-05
-2.515e-05
6.84889e-05
-2.18292e-05
7.91378e-05
-1.57649e-05
9.42495e-05
-1.00308e-05
0.000105597
-5.57239e-06
0.000110869
-2.53834e-06
0.000111839
-8.11572e-07
0.000110608
-1.41313e-07
0.000108699
-1.73091e-07
0.000107006
-5.67016e-07
0.00010602
-9.58707e-07
0.000105996
-1.01083e-06
0.000106827
-3.37028e-07
0.00010829
1.30947e-06
0.000109951
4.1806e-06
0.000110806
8.5308e-06
0.000109068
1.42153e-05
0.000102584
1.9174e-05
9.07385e-05
2.06615e-05
7.69493e-05
1.84358e-05
6.6255e-05
1.53725e-05
5.19563e-05
1.14096e-05
3.92216e-05
1.18734e-05
2.17139e-05
1.14983e-05
1.00703e-05
3.82205e-05
-1.19356e-06
3.85498e-05
-1.12475e-05
3.16004e-05
-1.67082e-05
2.70534e-05
-1.86116e-05
3.94052e-05
-2.12767e-05
5.7897e-05
-2.51643e-05
7.26455e-05
-2.42018e-05
7.97436e-05
-1.87052e-05
9.07706e-05
-1.29045e-05
0.000101612
-7.96324e-06
0.00010755
-4.39868e-06
0.000109676
-2.1636e-06
0.00010958
-9.98855e-07
0.000108573
-5.637e-07
0.000107489
-4.96057e-07
0.000106807
-4.22895e-07
0.000106781
5.69085e-09
0.00010732
1.1192e-06
0.000108218
3.25009e-06
0.000109017
6.6433e-06
0.000108798
1.1394e-05
0.000105939
1.67559e-05
9.90616e-05
2.0528e-05
8.87345e-05
2.05674e-05
7.82581e-05
1.74666e-05
6.98884e-05
1.43365e-05
5.51399e-05
1.1953e-05
4.13396e-05
1.22635e-05
2.29985e-05
9.60101e-06
1.31761e-05
4.64811e-05
7.37465e-07
3.62591e-05
-3.59864e-06
3.4934e-05
-1.75888e-05
4.03167e-05
-1.96272e-05
4.20677e-05
-2.04862e-05
5.89619e-05
-2.34643e-05
7.53232e-05
-2.44648e-05
8.13692e-05
-2.04131e-05
8.8338e-05
-1.50434e-05
9.78998e-05
-1.00456e-05
0.000104095
-6.19842e-06
0.000107174
-3.58733e-06
0.000108121
-1.96751e-06
0.000107953
-1.02916e-06
0.000107446
-4.32868e-07
0.000107052
1.58625e-07
0.000107032
1.06147e-06
0.000107312
2.60522e-06
0.00010767
5.10909e-06
0.000107654
8.82876e-06
0.000106407
1.35314e-05
0.000102758
1.80145e-05
9.61544e-05
2.05878e-05
8.74854e-05
1.91186e-05
8.03495e-05
1.58675e-05
7.30013e-05
1.35008e-05
5.73498e-05
1.29183e-05
4.2408e-05
1.30478e-05
2.50603e-05
5.84779e-06
2.02964e-05
5.13091e-05
1.63062e-06
3.3661e-05
1.63741e-06
3.38914e-05
-1.42748e-05
5.22002e-05
-1.98753e-05
4.8307e-05
-1.94962e-05
5.93105e-05
-2.09809e-05
7.63341e-05
-2.22957e-05
8.26722e-05
-2.03584e-05
8.72747e-05
-1.61081e-05
9.48716e-05
-1.16099e-05
0.000100863
-7.79163e-06
0.000104508
-4.93558e-06
0.000106263
-2.92027e-06
0.000106817
-1.50137e-06
0.000106825
-3.80336e-07
0.000106689
7.25185e-07
0.000106685
2.09559e-06
0.00010674
4.00269e-06
0.000106637
6.73945e-06
0.00010592
1.044e-05
0.000103868
1.45521e-05
9.98994e-05
1.77792e-05
9.40386e-05
1.89913e-05
8.70341e-05
1.7126e-05
8.23406e-05
1.4558e-05
7.51443e-05
1.36144e-05
5.84245e-05
1.36248e-05
4.36765e-05
1.39432e-05
2.69801e-05
1.65239e-06
3.07436e-05
5.26368e-05
1.6001e-06
3.17601e-05
2.28484e-06
3.27306e-05
-7.44944e-06
5.99603e-05
-1.94526e-05
5.89742e-05
-1.87271e-05
5.96924e-05
-1.8135e-05
7.56096e-05
-1.90043e-05
8.33149e-05
-1.86075e-05
8.71973e-05
-1.59154e-05
9.28586e-05
-1.23889e-05
9.81585e-05
-8.90936e-06
0.000101867
-5.99149e-06
0.00010413
-3.70064e-06
0.000105241
-1.88691e-06
0.000105675
-3.34568e-07
0.000105775
1.20514e-06
0.000105783
2.96567e-06
0.000105644
5.14943e-06
0.000105169
7.93435e-06
0.000103936
1.12231e-05
0.000101454
1.42948e-05
9.76607e-05
1.61921e-05
9.27399e-05
1.62573e-05
8.73023e-05
1.49909e-05
8.35327e-05
1.42314e-05
7.5618e-05
1.47131e-05
5.86145e-05
1.43417e-05
4.56046e-05
1.19643e-05
3.03377e-05
-4.46964e-07
4.02316e-05
5.17529e-05
7.60076e-07
3.05241e-05
2.23853e-06
3.08456e-05
-4.49673e-06
6.52908e-05
-1.73066e-05
6.96255e-05
-1.7341e-05
6.06206e-05
-1.5127e-05
7.38349e-05
-1.58318e-05
8.3698e-05
-1.59224e-05
8.73873e-05
-1.45671e-05
9.18177e-05
-1.21853e-05
9.62455e-05
-9.31282e-06
9.95336e-05
-6.56152e-06
0.000101923
-4.17878e-06
0.000103389
-2.13373e-06
0.000104141
-2.89735e-07
0.000104429
1.54876e-06
0.000104444
3.55227e-06
0.000104152
5.85556e-06
0.000103398
8.47101e-06
0.000101868
1.10679e-05
9.9396e-05
1.29957e-05
9.61617e-05
1.39003e-05
9.20818e-05
1.36628e-05
8.76839e-05
1.28609e-05
8.40491e-05
1.47469e-05
7.4021e-05
1.55252e-05
5.88626e-05
1.44663e-05
4.83735e-05
5.33365e-06
3.84905e-05
-3.49726e-07
4.41741e-05
5.03891e-05
-2.52322e-07
3.00028e-05
4.23226e-07
2.96747e-05
-3.48256e-06
6.79869e-05
-1.33507e-05
7.77504e-05
-1.48297e-05
6.3053e-05
-1.28152e-05
7.26404e-05
-1.29366e-05
8.35892e-05
-1.32258e-05
8.76205e-05
-1.25173e-05
9.12095e-05
-1.10022e-05
9.49277e-05
-8.90551e-06
9.77693e-05
-6.57252e-06
9.99724e-05
-4.31139e-06
0.000101507
-2.21915e-06
0.000102419
-2.51085e-07
0.000102823
1.7167e-06
0.000102839
3.77874e-06
0.000102456
5.97831e-06
0.000101568
8.17106e-06
0.000100036
9.98694e-06
9.78662e-05
1.11425e-05
9.51498e-05
1.16326e-05
9.16705e-05
1.12959e-05
8.80025e-05
1.1185e-05
8.38762e-05
1.50119e-05
7.10362e-05
1.58744e-05
5.93298e-05
1.18297e-05
5.30222e-05
6.47837e-07
4.75967e-05
-1.87221e-07
4.39231e-05
4.87199e-05
-1.12618e-06
3.04344e-05
-2.25732e-06
3.04266e-05
-1.92825e-06
6.74894e-05
-8.66291e-06
8.33505e-05
-1.21294e-05
6.74722e-05
-1.15507e-05
7.29116e-05
-1.04618e-05
8.26745e-05
-1.08101e-05
8.78181e-05
-1.03584e-05
9.07827e-05
-9.30279e-06
9.39091e-05
-7.84164e-06
9.64072e-05
-6.03076e-06
9.83497e-05
-4.08204e-06
9.97891e-05
-2.13593e-06
0.00010071
-2.26977e-07
0.000101147
1.6828e-06
0.000101162
3.60457e-06
0.000100765
5.49986e-06
9.98914e-05
7.18663e-06
9.85142e-05
8.44519e-06
9.66767e-05
9.26114e-06
9.43469e-05
9.57921e-06
9.13716e-05
9.10788e-06
8.83021e-05
1.03443e-05
8.2705e-05
1.35313e-05
6.90891e-05
1.38386e-05
6.07562e-05
4.7334e-06
6.13203e-05
-1.53467e-06
5.28356e-05
-1.54444e-06
4.26528e-05
4.60608e-05
-1.7877e-06
3.20827e-05
-4.27975e-06
3.32181e-05
-3.67421e-07
6.43537e-05
-4.55628e-06
8.61943e-05
-1.06388e-05
7.34641e-05
-1.06049e-05
7.36598e-05
-8.77738e-06
8.14188e-05
-8.70392e-06
8.77283e-05
-8.41058e-06
9.05179e-05
-7.59366e-06
9.3136e-05
-6.52714e-06
9.53655e-05
-5.18146e-06
9.7049e-05
-3.61174e-06
9.82944e-05
-1.92852e-06
9.91225e-05
-2.11876e-07
9.95346e-05
1.50501e-06
9.95493e-05
3.17047e-06
9.91909e-05
4.70469e-06
9.84236e-05
5.97951e-06
9.72679e-05
6.93848e-06
9.57221e-05
7.58246e-06
9.37181e-05
7.70534e-06
9.12585e-05
7.47191e-06
8.84502e-05
9.7344e-06
8.11971e-05
1.06227e-05
6.96519e-05
7.32145e-06
6.50774e-05
-1.11705e-06
6.88138e-05
-3.443e-06
5.49025e-05
-3.11754e-06
4.14688e-05
4.27218e-05
-3.22506e-06
3.70576e-05
-6.75231e-06
3.80899e-05
-2.03035e-06
6.11186e-05
-2.17935e-06
8.51298e-05
-8.86467e-06
7.88722e-05
-8.80809e-06
7.4308e-05
-7.726e-06
8.09805e-05
-7.01938e-06
8.7283e-05
-6.76191e-06
9.03967e-05
-6.14908e-06
9.26715e-05
-5.33331e-06
9.46476e-05
-4.31146e-06
9.61051e-05
-3.06882e-06
9.7131e-05
-1.67068e-06
9.78063e-05
-2.06096e-07
9.81515e-05
1.25814e-06
9.81651e-05
2.64576e-06
9.78764e-05
3.87638e-06
9.72574e-05
4.88745e-06
9.63147e-05
5.67918e-06
9.50038e-05
6.19705e-06
9.33036e-05
6.30794e-06
9.12362e-05
6.86428e-06
8.81459e-05
8.64002e-06
8.04761e-05
7.31417e-06
7.2066e-05
-5.96622e-07
7.24025e-05
-4.69567e-06
7.2701e-05
-4.25534e-06
5.43942e-05
-3.38884e-06
3.96001e-05
3.95029e-05
-5.31702e-06
4.63482e-05
-1.08855e-05
4.6104e-05
-7.76678e-06
6.07237e-05
-2.23115e-06
8.02987e-05
-5.62936e-06
8.13146e-05
-6.19206e-06
7.55786e-05
-6.54594e-06
8.18629e-05
-5.69373e-06
8.6921e-05
-5.42976e-06
9.04049e-05
-5.03448e-06
9.25215e-05
-4.40078e-06
9.42344e-05
-3.59022e-06
9.54853e-05
-2.59422e-06
9.63187e-05
-1.44336e-06
9.68403e-05
-2.17556e-07
9.7108e-05
1.00494e-06
9.71209e-05
2.158e-06
9.68952e-05
3.17149e-06
9.64096e-05
4.02545e-06
9.56325e-05
4.70806e-06
9.4519e-05
5.11871e-06
9.31034e-05
5.42889e-06
9.11605e-05
6.47131e-06
8.76473e-05
6.68713e-06
8.11043e-05
2.23625e-06
7.66797e-05
-5.48406e-06
7.89935e-05
-6.60721e-06
7.36697e-05
-3.60656e-06
5.17456e-05
-2.137e-06
3.66061e-05
3.7444e-05
-8.37288e-06
6.22345e-05
-1.73606e-05
5.9837e-05
-1.56829e-05
6.32877e-05
-6.01994e-06
7.39458e-05
-3.25905e-06
7.88994e-05
-3.43924e-06
7.58809e-05
-4.77493e-06
8.34811e-05
-4.4805e-06
8.71069e-05
-4.32415e-06
9.05619e-05
-4.14375e-06
9.26115e-05
-3.69736e-06
9.40557e-05
-3.02938e-06
9.50774e-05
-2.20936e-06
9.57572e-05
-1.26564e-06
9.61616e-05
-2.48667e-07
9.63582e-05
7.68037e-07
9.6367e-05
1.73916e-06
9.6182e-05
2.6129e-06
9.57874e-05
3.37011e-06
9.51314e-05
3.94446e-06
9.42065e-05
4.28609e-06
9.30145e-05
4.75429e-06
9.10206e-05
5.27542e-06
8.76493e-05
3.65081e-06
8.31283e-05
-2.80572e-06
8.25189e-05
-7.37526e-06
8.31303e-05
-6.74612e-06
7.32322e-05
-2.51096e-06
4.8767e-05
-4.54808e-07
3.3282e-05
3.69233e-05
-1.26516e-05
8.03192e-05
-2.63869e-05
7.78049e-05
-2.17789e-05
6.40717e-05
-1.19186e-05
6.75618e-05
-3.37471e-06
7.27912e-05
-9.92745e-07
7.46564e-05
-2.54638e-06
8.52765e-05
-3.18322e-06
8.81524e-05
-3.38279e-06
9.10645e-05
-3.41088e-06
9.28685e-05
-3.12307e-06
9.39906e-05
-2.57687e-06
9.47633e-05
-1.89109e-06
9.53036e-05
-1.12053e-06
9.5626e-05
-2.83376e-07
9.57613e-05
5.69243e-07
9.57557e-05
1.39313e-06
9.55995e-05
2.16332e-06
9.52598e-05
2.82618e-06
9.47134e-05
3.28285e-06
9.3984e-05
3.58074e-06
9.29509e-05
3.8715e-06
9.10446e-05
3.51661e-06
8.83905e-05
1.40546e-07
8.64495e-05
-4.9686e-06
8.72051e-05
-7.63671e-06
8.5536e-05
-5.41728e-06
7.16098e-05
-1.49951e-06
4.66685e-05
3.02846e-07
3.09913e-05
3.73483e-05
-1.59135e-05
8.85866e-05
-3.28648e-05
8.7281e-05
-2.5266e-05
5.79286e-05
-1.38725e-05
5.80755e-05
-4.31662e-06
6.54998e-05
2.93722e-07
7.20302e-05
-6.07022e-07
8.68783e-05
-2.06001e-06
9.00111e-05
-2.64503e-06
9.1932e-05
-2.83953e-06
9.32496e-05
-2.66785e-06
9.39986e-05
-2.22591e-06
9.44989e-05
-1.64913e-06
9.48965e-05
-1.0022e-06
9.51416e-05
-2.9917e-07
9.52235e-05
4.30649e-07
9.51969e-05
1.13661e-06
9.50683e-05
1.80674e-06
9.47752e-05
2.36096e-06
9.43492e-05
2.71969e-06
9.38096e-05
2.95414e-06
9.29241e-05
2.89409e-06
9.1372e-05
1.71957e-06
8.98019e-05
-2.00964e-06
8.99737e-05
-5.23488e-06
9.03522e-05
-6.07766e-06
8.66013e-05
-3.57677e-06
7.01613e-05
-9.6426e-07
4.55897e-05
-5.59276e-08
2.99441e-05
3.82666e-05
-1.51384e-05
9.50931e-05
-2.88054e-05
8.87795e-05
-2.43051e-05
4.90263e-05
-1.19711e-05
4.68031e-05
-4.25486e-06
5.85689e-05
-6.48843e-07
6.90768e-05
-3.38336e-07
8.71602e-05
-1.88036e-06
9.18615e-05
-2.38524e-06
9.27037e-05
-2.50052e-06
9.35568e-05
-2.38163e-06
9.40548e-05
-2.0175e-06
9.42956e-05
-1.50762e-06
9.45278e-05
-9.23577e-07
9.4689e-05
-2.96857e-07
9.47281e-05
3.48668e-07
9.46874e-05
9.72051e-07
9.45847e-05
1.5491e-06
9.43484e-05
2.00726e-06
9.4048e-05
2.30675e-06
9.36727e-05
2.47516e-06
9.29559e-05
2.14137e-06
9.19323e-05
3.69937e-07
9.16222e-05
-2.17559e-06
9.2469e-05
-3.86732e-06
9.21616e-05
-3.49544e-06
8.69011e-05
-2.87333e-06
7.04341e-05
-1.82568e-06
4.53259e-05
-3.68869e-07
2.96162e-05
3.93366e-05
-1.08329e-05
0.000104028
-1.53716e-05
8.91117e-05
-1.2848e-05
4.31738e-05
-6.49538e-06
4.0518e-05
-2.31017e-06
5.50218e-05
-1.82141e-06
6.84715e-05
-9.74866e-07
8.63695e-05
-2.36663e-06
9.32336e-05
-2.5278e-06
9.31153e-05
-2.46787e-06
9.37015e-05
-2.31679e-06
9.40483e-05
-1.95226e-06
9.40724e-05
-1.45202e-06
9.41654e-05
-8.84114e-07
9.42541e-05
-2.93367e-07
9.42699e-05
2.97543e-07
9.42308e-05
8.66723e-07
9.41518e-05
1.3769e-06
9.39808e-05
1.77614e-06
9.37982e-05
2.05082e-06
9.35542e-05
2.17973e-06
9.30134e-05
1.67607e-06
9.25722e-05
6.26367e-08
9.32102e-05
-1.00118e-06
9.36291e-05
-1.19798e-06
9.27044e-05
-8.6026e-07
8.7111e-05
-2.31389e-06
7.18018e-05
-2.41979e-06
4.56569e-05
-2.2794e-07
3.04921e-05
4.26248e-05
-1.1469e-05
0.000112574
-5.41521e-06
8.32066e-05
7.532e-07
3.79686e-05
-2.40189e-07
4.14549e-05
-3.24767e-07
5.51537e-05
-2.99236e-06
7.05803e-05
-2.15848e-06
8.57244e-05
-2.77614e-06
9.37626e-05
-2.74921e-06
9.32663e-05
-2.62643e-06
9.37128e-05
-2.3583e-06
9.38751e-05
-1.94138e-06
9.37813e-05
-1.42504e-06
9.37882e-05
-8.6283e-07
9.38324e-05
-2.9658e-07
9.3844e-05
2.55318e-07
9.38181e-05
7.86916e-07
9.376e-05
1.25879e-06
9.36521e-05
1.61598e-06
9.35787e-05
1.87559e-06
9.34292e-05
1.95762e-06
9.30663e-05
1.48351e-06
9.31028e-05
6.49869e-07
9.40083e-05
7.68301e-07
9.368e-05
1.05612e-06
9.27582e-05
7.66139e-07
8.75274e-05
-4.37587e-07
7.21709e-05
5.74359e-07
4.43868e-05
4.28807e-06
3.07024e-05
4.72563e-05
-4.95172e-06
0.000115616
3.60204e-06
7.71409e-05
6.64552e-06
3.68596e-05
2.76501e-06
4.57106e-05
-1.10849e-06
5.8389e-05
-4.38103e-06
7.30769e-05
-3.61114e-06
8.53557e-05
-3.13963e-06
9.33638e-05
-3.03032e-06
9.32494e-05
-2.80046e-06
9.35495e-05
-2.35012e-06
9.35466e-05
-1.90765e-06
9.3471e-05
-1.38108e-06
9.34083e-05
-8.40701e-07
9.34369e-05
-3.06511e-07
9.34548e-05