/*--------------------------------*- C++ -*----------------------------------*\
| =========                 |                                                 |
| \\      /  F ield         | OpenFOAM: The Open Source CFD Toolbox           |
|  \\    /   O peration     | Version:  2.3.0                                 |
|   \\  /    A nd           | Web:      www.OpenFOAM.org                      |
|    \\/     M anipulation  |                                                 |
\*---------------------------------------------------------------------------*/
FoamFile
{
    version     2.0;
    format      ascii;
    class       volScalarField;
    location    "0.34";
    object      alpha.water;
}
// * * * * * * * * * * * * * * * * * * * * * * * * * * * * * * * * * * * * * //

dimensions      [0 0 0 0 0 0 0];

internalField   nonuniform List<scalar> 
545
(
1
1
1
1
1
1
1
1
1
1
1
1
1
1
1
1
1
1
1
1
1
1
1
1
1
1
1
1
1
1
1
1
1
1
1
1
1
1
1
1
1
1
1
1
1
1
1
1
1
1
1
1
1
1
1
1
1
1
1
1
1
1
1
1
1
1
1
1
1
1
1
1
1
1
1
1
1
1
1
1
1
1
1
1
1
1
1
1
1
1
1
1
1
1
1
1
1
1
1
1
1
1
1
1
1
1
1
1
1
1
1
1
1
1
1
1
1
1
1
0.999999
0.999999
0.999999
0.999999
0.999999
0.999999
0.999999
0.999999
0.999999
0.999999
0.999999
0.999999
0.999999
0.999999
0.999999
0.999999
0.999999
0.999999
0.999999
0.999999
0.999999
0.999999
0.999999
0.999999
0.999999
0.999999
0.999999
0.999999
0.999999
0.999999
0.999999
0.999999
0.999999
0.999999
0.999999
0.999999
0.999999
0.999999
0.999999
0.999999
0.999999
1
1
0.999986
0.999959
0.999949
0.999948
0.999946
0.999944
0.999941
0.999939
0.999937
0.999937
0.999937
0.999937
0.999938
0.999938
0.999938
0.999938
0.999938
0.999938
0.999938
0.999938
0.999938
0.999938
0.999938
0.999938
0.999938
0.999938
0.999938
0.999938
0.999938
0.999938
0.999938
0.999938
0.999938
0.999938
0.999938
0.999938
0.999938
0.999938
0.999937
0.999937
0.999937
0.999937
0.999937
1
1
0.998548
0.996428
0.995503
0.996126
0.996358
0.996179
0.995822
0.995497
0.99528
0.995191
0.995194
0.995251
0.995316
0.99537
0.995399
0.995408
0.995398
0.995385
0.995369
0.995354
0.995339
0.995332
0.995324
0.995323
0.99532
0.995323
0.995323
0.995325
0.995321
0.995312
0.995297
0.995286
0.995271
0.995265
0.995258
0.995259
0.995258
0.995268
0.995275
0.99528
0.995281
0.995277
0.995269
0.278808
0.378559
0.392553
0.390931
0.464722
0.83358
0.99646
0.787686
0.521715
0.509465
0.50632
0.507828
0.598299
0.986642
0.704304
0.556207
0.551878
0.551872
0.551873
0.55252
0.79039
0.955346
0.723872
0.456538
0.484813
0.535728
0.505557
0.506032
0.614539
0.947506
0.99554
0.977921
0.522673
0.293818
0.293795
0.323733
0.285612
0.271082
0.299739
0.612988
0.984294
0.995397
0.99537
0.840692
0.758162
1
1
1
1
1
1
1
1
1
1
1
1
1
1
1
1
1
1
1
1
1
1
1
1
1
1
1
0.998553
0.996411
0.995522
0.996138
0.996375
0.996191
0.995835
0.995499
0.995282
0.995186
0.99519
0.995243
0.995309
0.995359
0.995391
0.995397
0.995392
0.995377
0.995364
0.995349
0.995337
0.995325
0.995321
0.995315
0.995316
0.995313
0.995316
0.995315
0.99531
0.995298
0.995282
0.995265
0.995255
0.995241
0.99524
0.995234
0.995242
0.995248
0.995258
0.995264
0.995265
0.99526
0.99525
1
1
0.999986
0.999959
0.999949
0.999948
0.999946
0.999944
0.999941
0.999939
0.999937
0.999937
0.999937
0.999937
0.999938
0.999938
0.999938
0.999938
0.999938
0.999938
0.999938
0.999938
0.999938
0.999938
0.999938
0.999938
0.999938
0.999938
0.999938
0.999938
0.999938
0.999938
0.999938
0.999938
0.999938
0.999938
0.999938
0.999938
0.999938
0.999938
0.999938
0.999938
0.999938
0.999937
0.999937
1
1
1
1
0.999999
0.999999
0.999999
0.999999
0.999999
0.999999
0.999999
0.999999
0.999999
0.999999
0.999999
0.999999
0.999999
0.999999
0.999999
0.999999
0.999999
0.999999
0.999999
0.999999
0.999999
0.999999
0.999999
0.999999
0.999999
0.999999
0.999999
0.999999
0.999999
0.999999
0.999999
0.999999
0.999999
0.999999
0.999999
0.999999
0.999999
0.999999
0.999999
0.999999
0.999999
1
1
1
1
1
1
1
1
1
1
1
1
1
1
1
1
1
1
1
1
1
1
1
1
1
1
1
1
1
1
1
1
1
1
1
1
1
1
1
1
1
1
1
1
1
1
1
1
1
1
1
1
1
1
1
1
1
1
1
1
1
1
1
1
1
1
1
1
1
1
1
1
1
1
1
1
1
1
1
1
1
1
1
1
1
1
1
1
1
1
)
;

boundaryField
{
    AirInlet
    {
        type            fixedValue;
        value           uniform 0;
    }
    WaterInlet
    {
        type            fixedValue;
        value           uniform 1;
    }
    ChannelWall
    {
        type            zeroGradient;
    }
    Outlet
    {
        type            inletOutlet;
        inletValue      uniform 0;
        value           nonuniform List<scalar> 
11
(
1
1
0.999999
0.999937
0.995269
0.758162
0.99525
0.999937
0.999999
1
1
)
;
    }
    FrontAndBack
    {
        type            empty;
    }
}


// ************************************************************************* //
