/*--------------------------------*- C++ -*----------------------------------*\
| =========                 |                                                 |
| \\      /  F ield         | OpenFOAM: The Open Source CFD Toolbox           |
|  \\    /   O peration     | Version:  2.3.0                                 |
|   \\  /    A nd           | Web:      www.OpenFOAM.org                      |
|    \\/     M anipulation  |                                                 |
\*---------------------------------------------------------------------------*/
FoamFile
{
    version     2.0;
    format      ascii;
    class       volScalarField;
    location    "48";
    object      nut.water;
}
// * * * * * * * * * * * * * * * * * * * * * * * * * * * * * * * * * * * * * //

dimensions      [0 2 -1 0 0 0 0];

internalField   nonuniform List<scalar> 
1875
(
0.00108049
0.00113309
0.0012222
0.00130652
0.00138354
0.00145106
0.00150936
0.0015597
0.00160276
0.00164013
0.00167276
0.00170039
0.00172229
0.0017388
0.00174251
0.00173856
0.00172108
0.00168325
0.00162698
0.00155275
0.00146166
0.00135309
0.00122201
0.00105912
0.000867584
0.00111679
0.00129235
0.00143811
0.00154201
0.00161588
0.00166674
0.00170088
0.00172361
0.00173799
0.0017444
0.00175175
0.0017581
0.00176261
0.00176706
0.00177014
0.00177317
0.00176452
0.00174594
0.00170504
0.0016374
0.00154541
0.00142389
0.00126391
0.00105613
0.000816074
0.00142396
0.00162972
0.00178453
0.00188339
0.00194211
0.00197012
0.00197783
0.00197173
0.00195654
0.00193648
0.00191601
0.00189611
0.00187489
0.00185534
0.00183653
0.00181458
0.00179216
0.00176383
0.00172824
0.00166535
0.00158389
0.00147511
0.00133931
0.00118682
0.00104923
0.00182949
0.00205334
0.00216843
0.00221549
0.00222219
0.00220503
0.0021755
0.00213845
0.00209827
0.00205778
0.00201819
0.00197985
0.00194268
0.00190815
0.00187576
0.00184366
0.0018103
0.00177205
0.00172637
0.00166359
0.00158414
0.00148814
0.0013743
0.00125108
0.00113446
0.00235001
0.00243581
0.0024418
0.00241537
0.00237124
0.00231687
0.00225818
0.00219956
0.00214343
0.00209078
0.0020413
0.00199506
0.00195168
0.00191106
0.00187328
0.00183574
0.00179499
0.00175197
0.00170225
0.00164228
0.0015691
0.00148188
0.00138362
0.00128012
0.00117974
0.00269521
0.00269243
0.00263242
0.00254799
0.00245396
0.00235916
0.00227019
0.00219051
0.00212041
0.00206001
0.00200754
0.00196089
0.001918
0.00187675
0.00183531
0.00179281
0.00175175
0.00171011
0.00166091
0.00160425
0.00153874
0.00146377
0.0013818
0.00129669
0.00121257
0.00288373
0.00284272
0.00272833
0.00259765
0.00246565
0.00234109
0.00222911
0.00213247
0.00205286
0.00198787
0.00193475
0.00188965
0.00184874
0.00181022
0.00177344
0.00173758
0.00170132
0.00166195
0.00161624
0.00156531
0.00150805
0.00144382
0.0013758
0.00130751
0.00124222
0.00312015
0.00298829
0.00280261
0.00262047
0.00245083
0.00229523
0.00216018
0.00205016
0.00196136
0.00189427
0.00184297
0.00180148
0.00176513
0.00173311
0.0017038
0.0016757
0.0016466
0.00161075
0.00157027
0.0015246
0.00147382
0.00141764
0.00135867
0.00129758
0.00123392
0.00331719
0.00309209
0.00283902
0.00261173
0.00241058
0.00222879
0.00207675
0.0019557
0.00185895
0.0017937
0.00174486
0.00170937
0.00168123
0.00165608
0.00163335
0.0016102
0.00158126
0.00154786
0.00151069
0.00146953
0.00142393
0.00137372
0.00132018
0.00126205
0.00119806
0.00339365
0.00312171
0.00283012
0.00257892
0.00235364
0.00215164
0.00198498
0.00185202
0.001756
0.00169458
0.0016536
0.00162434
0.00159947
0.0015772
0.00155592
0.00153229
0.0015064
0.00147751
0.00144457
0.00140725
0.00136458
0.00131735
0.00126395
0.00120191
0.00112952
0.0034408
0.00311731
0.00280104
0.00253375
0.00229382
0.00208076
0.00190631
0.00177354
0.00167791
0.00161623
0.00157738
0.00155043
0.0015295
0.00151186
0.0014937
0.00147322
0.00144925
0.00142146
0.0013896
0.00135271
0.00131104
0.00126331
0.001208
0.00113953
0.0010528
0.00341968
0.00306846
0.00274885
0.00248119
0.00224041
0.00202813
0.00185527
0.0017255
0.00163612
0.00157972
0.00154491
0.0015226
0.00150688
0.00149327
0.0014787
0.00146123
0.0014404
0.00141428
0.00138203
0.00134301
0.001297
0.00124375
0.00118312
0.00110924
0.00102454
0.00317536
0.0029146
0.00264994
0.00241261
0.00219228
0.00199541
0.00183468
0.00171502
0.00163481
0.00158627
0.00155907
0.00154448
0.00153605
0.00152877
0.00152048
0.00150969
0.00149365
0.00147087
0.00144014
0.00140049
0.00135086
0.00129041
0.00121761
0.00113198
0.00104363
0.00286664
0.00271469
0.00252833
0.00234002
0.00215366
0.00198189
0.00183873
0.00173077
0.0016605
0.00162118
0.00160326
0.00159824
0.00160022
0.00160314
0.00160473
0.00160326
0.00159622
0.0015816
0.00155786
0.00152247
0.00147351
0.00140876
0.00132609
0.00122268
0.00111075
0.00264531
0.00255488
0.00242567
0.00228067
0.00212946
0.00198554
0.00186115
0.00176899
0.00171018
0.00167925
0.00166834
0.00167086
0.00168041
0.00169126
0.00170229
0.00171178
0.00171683
0.00171539
0.001705
0.00168247
0.00164436
0.00158602
0.00150253
0.00138512
0.00123518
0.0025591
0.00247305
0.00236522
0.00224927
0.00212748
0.00200845
0.00190426
0.00182507
0.00177343
0.00174625
0.00173781
0.00174271
0.00175573
0.00177268
0.00179136
0.00181025
0.00182714
0.00183972
0.00184569
0.00184247
0.00182655
0.00179288
0.00173387
0.00163819
0.00148371
0.00251115
0.00243196
0.0023425
0.00224773
0.00214686
0.00204584
0.00195748
0.00188803
0.00184072
0.00181419
0.00180485
0.00180855
0.00182151
0.00184042
0.00186283
0.00188684
0.00191106
0.0019337
0.00195285
0.00196635
0.00197116
0.00196311
0.00193727
0.00189024
0.00180478
0.00248817
0.00242047
0.00234631
0.00226667
0.00218308
0.00210072
0.00202541
0.0019631
0.00191735
0.00188877
0.00187567
0.00187522
0.00188455
0.00190132
0.0019231
0.00194869
0.00197602
0.00200335
0.00202905
0.00205116
0.0020675
0.00207477
0.00206844
0.00204798
0.0020058
0.00251618
0.00244094
0.00237377
0.0023078
0.00224236
0.00217374
0.00210779
0.0020495
0.002003
0.00197023
0.00195132
0.00194499
0.00194902
0.00196145
0.00198039
0.00200399
0.0020322
0.00206256
0.00209324
0.00212211
0.0021458
0.00216009
0.00216061
0.00214455
0.00210024
0.00248171
0.00242285
0.00237368
0.00232421
0.00227794
0.00222891
0.00217546
0.0021263
0.00208249
0.00204819
0.0020248
0.00201188
0.00200976
0.00201733
0.00203311
0.00205438
0.00208157
0.00211307
0.00214674
0.00218047
0.00221139
0.00223576
0.0022486
0.00224789
0.00222536
0.00233271
0.00230851
0.00229225
0.0022707
0.00224613
0.0022217
0.00219275
0.00216003
0.00212811
0.00209842
0.00207544
0.0020624
0.00205804
0.00206244
0.00207579
0.00209555
0.00212211
0.00215445
0.00219037
0.00222803
0.00226513
0.00229841
0.00232373
0.00234012
0.00234369
0.0019926
0.00204218
0.00208084
0.00210978
0.00212944
0.00213681
0.00213314
0.00212287
0.00210877
0.00209539
0.00208233
0.00207347
0.00207262
0.0020808
0.00209686
0.00211806
0.00214761
0.00218268
0.00222186
0.00226374
0.00230661
0.00234798
0.00238385
0.00241372
0.00242987
0.0016142
0.00171331
0.0017954
0.00186426
0.00192138
0.00196682
0.00200191
0.00202539
0.00203321
0.0020376
0.0020388
0.00204216
0.00204994
0.00206524
0.00208702
0.00211653
0.00215307
0.00219446
0.00223942
0.00228728
0.00233723
0.00238802
0.0024371
0.00248456
0.00252279
0.00131096
0.00143691
0.0015436
0.00163537
0.00171336
0.00178016
0.00183373
0.00187741
0.001914
0.0019428
0.00196473
0.00198269
0.0020033
0.00202742
0.00205774
0.00209812
0.00214376
0.0021938
0.00224526
0.00230023
0.00235852
0.0024199
0.00248392
0.00255329
0.00262123
0.00118668
0.00132008
0.00144024
0.00154018
0.00162102
0.00168461
0.00173825
0.00178076
0.00181605
0.00184676
0.00187742
0.00190925
0.00194281
0.00197927
0.00202192
0.00207159
0.00212634
0.00218526
0.00224465
0.00230672
0.00237317
0.00244461
0.002522
0.00261118
0.00270714
0.0011875
0.00133724
0.00146652
0.00156718
0.00164684
0.00170636
0.00174883
0.00178072
0.00180199
0.0018204
0.00184014
0.0018653
0.0018985
0.00194033
0.00199067
0.00204813
0.00211075
0.00217703
0.00224337
0.00231207
0.00238533
0.0024649
0.00255248
0.00265691
0.00277555
0.00132511
0.00149677
0.00162976
0.00172122
0.00178166
0.00181959
0.00184032
0.00185136
0.00185456
0.00185586
0.00186014
0.00187253
0.00189676
0.00193399
0.00198326
0.00204198
0.00210808
0.00217806
0.00224813
0.0023208
0.00239685
0.0024792
0.0025717
0.00268367
0.00281489
0.00161918
0.00177915
0.00187841
0.00193485
0.00196026
0.0019659
0.00196019
0.00194787
0.00193152
0.00191465
0.00190298
0.00190188
0.00191611
0.00194774
0.00199522
0.00205492
0.00212154
0.00219097
0.00226054
0.00233039
0.0024036
0.0024825
0.00257138
0.00268221
0.00281983
0.00199469
0.00206928
0.0021048
0.00211696
0.00211303
0.00209592
0.00207029
0.0020397
0.00200796
0.00197881
0.00195632
0.00194628
0.00195426
0.0019823
0.00202813
0.00208487
0.00214757
0.00221019
0.00227016
0.00233053
0.00239008
0.00245123
0.00251886
0.00260174
0.00270562
0.00223412
0.00226355
0.00226669
0.00225598
0.00223079
0.00219504
0.00215387
0.00211153
0.00207075
0.00203463
0.00200736
0.00199492
0.00200192
0.00202768
0.00206799
0.00211825
0.00216959
0.00221606
0.00226136
0.00230077
0.00233448
0.00236548
0.00239663
0.00243325
0.00248309
0.00237689
0.00239971
0.00238644
0.00235696
0.00231503
0.00226534
0.0022129
0.00216118
0.00211287
0.00207167
0.00204402
0.00203211
0.00203867
0.00206146
0.00209412
0.00213194
0.00216366
0.00219194
0.00221079
0.00221859
0.00221701
0.002208
0.00219468
0.00218169
0.00217833
0.00255583
0.00254035
0.00249553
0.0024411
0.00237997
0.00231592
0.00225207
0.00219212
0.00213695
0.00209107
0.00206531
0.00205032
0.00205247
0.00206711
0.00208798
0.00210604
0.00211656
0.00211537
0.00210065
0.00207343
0.0020338
0.00198197
0.00191929
0.00184631
0.0017614
0.00273241
0.00267002
0.00258809
0.00250672
0.00242563
0.00234792
0.00227298
0.00220114
0.00213817
0.00208692
0.00205813
0.00204174
0.00203746
0.00203908
0.00203971
0.00203184
0.00201336
0.00198257
0.00193889
0.00188238
0.00181404
0.00173391
0.0016441
0.00154228
0.00142054
0.0028848
0.00277546
0.00265751
0.00255075
0.00245188
0.00236136
0.00227233
0.00219164
0.00212328
0.00206641
0.00202935
0.00200499
0.00198651
0.00196855
0.00194513
0.00191429
0.00187317
0.00182063
0.00175681
0.00168279
0.00159921
0.00150929
0.00141341
0.00131273
0.00120569
0.00300164
0.00284835
0.00270093
0.00257341
0.00246066
0.00235631
0.00225774
0.00217052
0.00209464
0.00203217
0.00198241
0.00194194
0.00190759
0.00187351
0.00183436
0.00178775
0.00173235
0.001668
0.00159535
0.00151556
0.00142908
0.00133922
0.0012447
0.00114685
0.0010433
0.00308137
0.00289364
0.00272278
0.00258035
0.00245709
0.00234511
0.00224036
0.00214501
0.00206124
0.00199006
0.00193111
0.00187997
0.00183368
0.00178826
0.00173985
0.00168645
0.00162738
0.00156289
0.00149385
0.00142038
0.00134356
0.0012621
0.00117374
0.00107762
0.000973121
0.00311801
0.00290878
0.00272481
0.00257466
0.00244627
0.00233089
0.00222342
0.00212522
0.00203686
0.00195924
0.00189244
0.0018346
0.00178244
0.00173257
0.00168219
0.0016299
0.00157544
0.00151913
0.00146128
0.00139952
0.00133235
0.00125708
0.00117059
0.00107111
0.000958776
0.00310294
0.00288473
0.00270017
0.0025533
0.0024285
0.00231734
0.00221256
0.00211506
0.00202553
0.0019452
0.0018754
0.00181495
0.00176119
0.00171147
0.00166358
0.00161622
0.00156881
0.00152111
0.00147185
0.00141903
0.00136022
0.00129242
0.0012113
0.00111186
0.000993048
0.00301519
0.00279782
0.00262869
0.00250003
0.00239174
0.0022938
0.00219989
0.00210964
0.00202446
0.00194661
0.00187805
0.00181891
0.00176696
0.00171977
0.00167552
0.00163294
0.00159149
0.0015504
0.00150832
0.00146344
0.00141311
0.00135465
0.00128202
0.00118966
0.00107358
0.00273548
0.00257996
0.00246901
0.00238581
0.00231384
0.00224412
0.00217203
0.00209755
0.00202314
0.00195211
0.00188774
0.00183103
0.00178161
0.00173811
0.00169885
0.00166229
0.00162673
0.00159065
0.00155302
0.00151258
0.00146744
0.00141466
0.00135008
0.00126936
0.00117345
0.00225169
0.00222857
0.00221731
0.0022059
0.00218661
0.00215683
0.00211709
0.00206653
0.00201045
0.0019525
0.00189823
0.00184946
0.00180661
0.00176841
0.00173323
0.00169967
0.00166648
0.00163254
0.00159673
0.00155792
0.00151477
0.00146534
0.00140495
0.00132984
0.00124061
0.0018119
0.00188917
0.00194998
0.00199673
0.00202607
0.00203753
0.0020316
0.00201081
0.0019791
0.00194044
0.0018986
0.0018595
0.00182404
0.00179195
0.00176171
0.00173174
0.00170083
0.00166812
0.00163291
0.00159452
0.00155203
0.00150387
0.00144743
0.00137648
0.00129473
0.00159628
0.00167347
0.00174638
0.00181346
0.00186709
0.00190535
0.00192636
0.00193193
0.00192328
0.00190457
0.0018807
0.00185455
0.00182949
0.00180474
0.00177973
0.00175344
0.00172479
0.00169309
0.001658
0.00161935
0.00157667
0.00152881
0.00147527
0.00141103
0.00134341
0.00141346
0.00150983
0.00159607
0.00167332
0.00173676
0.00178799
0.00182559
0.00184798
0.00185744
0.00185679
0.00184769
0.00183515
0.00182067
0.00180438
0.00178559
0.00176319
0.00173662
0.00170577
0.00167063
0.00163122
0.00158782
0.00154004
0.00148817
0.00142891
0.00137345
0.00133724
0.0014423
0.00153048
0.00160308
0.0016621
0.00171001
0.00174816
0.0017761
0.00179352
0.00180469
0.00180879
0.00180664
0.00179964
0.00179081
0.00177797
0.00175998
0.00173625
0.00170653
0.00167135
0.00163165
0.00158789
0.00154003
0.00148902
0.00143311
0.00138583
0.00133466
0.00144731
0.00153453
0.00159846
0.00164443
0.00167858
0.00170652
0.00172904
0.00174812
0.00176299
0.00177272
0.00177813
0.00177916
0.00177406
0.00176406
0.0017479
0.00172616
0.00169824
0.00166443
0.00162517
0.00158116
0.00153228
0.00148024
0.00142372
0.00137768
0.00141999
0.00152425
0.00159616
0.00164126
0.00166795
0.00168484
0.00169822
0.00171164
0.00172551
0.00173851
0.00174921
0.00175685
0.00176004
0.0017579
0.00175014
0.00173522
0.00171407
0.00168693
0.00165407
0.00161555
0.0015711
0.00152099
0.00146546
0.00140727
0.00136133
0.00157195
0.00164789
0.00169073
0.00170879
0.00171152
0.00170904
0.00170822
0.00171128
0.00171787
0.00172646
0.00173509
0.00174174
0.00174472
0.00174336
0.00173659
0.00172312
0.00170366
0.00167833
0.00164705
0.00160899
0.00156287
0.00150992
0.00144763
0.00138318
0.00132972
0.00178046
0.00179923
0.00179634
0.00178162
0.00175964
0.00173983
0.00172465
0.00171809
0.00171772
0.00172168
0.00172744
0.00173269
0.00173534
0.00173372
0.00172757
0.001717
0.00170125
0.00167935
0.00165015
0.00161205
0.00156453
0.0015068
0.00143731
0.00136282
0.00128969
0.00197263
0.00192834
0.00188357
0.00183991
0.00180046
0.00176714
0.00174298
0.00172998
0.0017231
0.00172191
0.00172512
0.00172933
0.00173221
0.00173344
0.00173194
0.00172632
0.0017152
0.00169711
0.00167003
0.0016327
0.00158435
0.00152411
0.00145266
0.00137425
0.00128953
0.00207193
0.00200761
0.00194085
0.00188062
0.00182961
0.00178757
0.00175695
0.00173805
0.00172935
0.00172741
0.0017307
0.00173667
0.00174436
0.00175149
0.00175608
0.00175647
0.00175065
0.00173653
0.00171263
0.0016776
0.00163054
0.00157217
0.00150368
0.00142724
0.00134067
0.00217201
0.00207669
0.00198681
0.00191236
0.00185215
0.00180538
0.00177176
0.00175077
0.00174162
0.00174161
0.0017488
0.00176024
0.00177442
0.00178882
0.00180084
0.00180813
0.00180837
0.00180018
0.0017818
0.00175207
0.00171076
0.00165859
0.0015943
0.00151601
0.00141659
0.00225386
0.00213141
0.00202288
0.00193728
0.00187126
0.0018213
0.00178574
0.00176535
0.00175896
0.00176376
0.00177702
0.00179647
0.0018193
0.00184254
0.00186351
0.00187873
0.00188749
0.00188785
0.00187874
0.00185911
0.00182819
0.00178525
0.00172777
0.00165251
0.00155158
0.00231185
0.00217041
0.0020505
0.00195891
0.00188987
0.00183931
0.00180523
0.00178794
0.00178452
0.00179373
0.00181408
0.00184237
0.00187517
0.00190886
0.00193977
0.00196607
0.00198605
0.00199859
0.00200243
0.00199622
0.00197847
0.00194724
0.00189901
0.0018286
0.00172541
0.00233347
0.00218792
0.00206686
0.00197576
0.00190746
0.00185855
0.00182704
0.0018128
0.00181429
0.00183077
0.00186008
0.00189863
0.00194223
0.00198649
0.00202852
0.00206756
0.00210172
0.00212973
0.00214949
0.00215907
0.00215623
0.00213929
0.00210549
0.00204973
0.00196318
0.00233199
0.00219036
0.00207518
0.00198948
0.0019253
0.00188017
0.00185288
0.00184322
0.00185043
0.00187437
0.00191311
0.00196257
0.00201808
0.00207532
0.00213148
0.00218535
0.00223596
0.00228093
0.00231756
0.00234276
0.00235428
0.00235177
0.0023338
0.00229574
0.0022317
0.00231581
0.00218446
0.00208045
0.00200483
0.00194835
0.00190933
0.00188764
0.00188327
0.00189664
0.00192806
0.00197611
0.00203688
0.00210539
0.00217717
0.00224943
0.00232014
0.00238757
0.00244887
0.00250105
0.0025416
0.00256854
0.0025814
0.00257945
0.00255952
0.00251711
0.00228223
0.00217519
0.00209263
0.00203195
0.00198704
0.00195691
0.00194223
0.00194406
0.00196365
0.00200234
0.00205946
0.00213129
0.00221258
0.00229857
0.0023861
0.00247279
0.00255611
0.00263301
0.00270068
0.00275689
0.00279983
0.00282834
0.00284182
0.00283733
0.00280979
0.00224188
0.00217784
0.0021285
0.00209125
0.00206195
0.00204307
0.00203645
0.00204451
0.0020697
0.00211389
0.00217723
0.00225721
0.00234899
0.00244727
0.00254818
0.00264873
0.00274588
0.00283649
0.00291815
0.00298909
0.0030479
0.00309395
0.00312653
0.00314365
0.00313783
0.00225049
0.00223701
0.00222461
0.00221247
0.00219977
0.00219165
0.00219233
0.00220561
0.00223466
0.00228169
0.0023477
0.00243115
0.00252832
0.00263406
0.00274365
0.0028534
0.00296005
0.00306051
0.00315273
0.00323547
0.003308
0.00337004
0.00342263
0.00346839
0.00350305
0.00235542
0.00238223
0.00240164
0.00241084
0.00241295
0.00241478
0.00242199
0.00243925
0.00247029
0.00251766
0.00258254
0.00266422
0.00276012
0.00286603
0.00297741
0.00308995
0.00320011
0.00330489
0.00340237
0.0034917
0.00357228
0.00364365
0.00370634
0.00376264
0.00380552
0.0025393
0.00260822
0.00265604
0.00268481
0.00270076
0.00271186
0.00272491
0.00274529
0.00277688
0.00282211
0.00288225
0.00295734
0.00304589
0.00314469
0.00324959
0.0033573
0.00346409
0.00356694
0.00366407
0.00375493
0.00383906
0.00391558
0.00398382
0.00404385
0.00408461
0.00286635
0.00293731
0.00299054
0.00302661
0.00304993
0.00306733
0.00308488
0.00310731
0.00313817
0.00317978
0.00323323
0.00329851
0.00337454
0.00345993
0.00355223
0.00364778
0.0037439
0.00383807
0.00392899
0.00401695
0.00410243
0.00418545
0.00426608
0.004344
0.00440457
0.00326689
0.00332611
0.00337158
0.00340463
0.0034289
0.00344955
0.00347066
0.00349517
0.00352603
0.00356439
0.00361103
0.0036659
0.00372823
0.00379711
0.00387082
0.00394722
0.0040245
0.00410139
0.0041778
0.00425549
0.00433721
0.00442641
0.00452751
0.00464396
0.00475733
0.00369689
0.00371976
0.00374089
0.00376337
0.00378716
0.00381284
0.00384083
0.0038716
0.00390552
0.00394344
0.00398534
0.00403092
0.00407958
0.00413022
0.00418176
0.00423328
0.00428356
0.00433237
0.00438087
0.00443251
0.00449363
0.00457369
0.00468829
0.00485797
0.00507792
0.00410311
0.00401192
0.00399461
0.00401597
0.00405418
0.00409905
0.00414549
0.00419131
0.00423528
0.00427805
0.00431955
0.00435941
0.00439696
0.00443111
0.00446082
0.00448497
0.00450238
0.00451244
0.00451584
0.00451552
0.00451827
0.00453729
0.004597
0.00474385
0.00502847
0.00381273
0.0038529
0.00396055
0.00407796
0.00418762
0.00428513
0.00436916
0.00444045
0.00450154
0.00455435
0.0045999
0.00463851
0.00466951
0.00469182
0.00470415
0.0047049
0.00469181
0.00466223
0.00461337
0.00454261
0.0044485
0.0043328
0.00420445
0.00409068
0.00406982
0.00265888
0.00330878
0.00376511
0.00406931
0.0042833
0.00444227
0.00456335
0.00465728
0.00473199
0.00479279
0.00484214
0.00488096
0.0049095
0.0049264
0.00493023
0.00491858
0.00488802
0.00483361
0.00474868
0.00462375
0.00444459
0.00419001
0.00382525
0.00329342
0.00258821
0.00500758
0.00464355
0.00460393
0.00465441
0.00474176
0.00484089
0.00493356
0.00501368
0.00508109
0.00513791
0.00518526
0.00522334
0.00525225
0.00527027
0.00527568
0.00526643
0.0052393
0.00519001
0.0051137
0.00500611
0.00486684
0.00470868
0.00456928
0.00452219
0.00479718
0.012075
0.00745816
0.00609869
0.00553114
0.00536168
0.0053461
0.00538311
0.00543532
0.00548579
0.00553049
0.00556988
0.0056041
0.00563226
0.00565516
0.00566828
0.00567081
0.00566063
0.0056337
0.00558408
0.00550916
0.00542447
0.00539667
0.0056276
0.00683477
0.0121613
0.075032
0.020812
0.00946523
0.00674103
0.00597651
0.00580006
0.00578389
0.00581182
0.00584115
0.00586898
0.00589626
0.00592146
0.0059392
0.00595011
0.00596323
0.00596784
0.00596016
0.00593208
0.005869
0.00572062
0.005479
0.00540433
0.00590588
0.00896092
0.0229612
0.0541551
0.0211836
0.00982301
0.00661
0.00571785
0.00515824
0.00485457
0.00469455
0.00460678
0.00458591
0.00462922
0.00471976
0.00480432
0.00482355
0.00480948
0.00481332
0.0048813
0.00506719
0.00537512
0.00581177
0.0060008
0.00573446
0.00627784
0.0102619
0.0268336
0.0222087
0.0144408
0.00655494
0.00317912
0.0019314
0.00150165
0.0013166
0.00124616
0.00122495
0.00127793
0.00139535
0.00143617
0.0013839
0.00118781
0.00105551
0.000992469
0.00112745
0.00146017
0.00213642
0.00311622
0.00463261
0.00550434
0.00646584
0.00966212
0.015333
0.0103803
0.0059578
0.0017786
0.000448652
0.000161386
9.78026e-05
8.65794e-05
0.0001063
0.000123517
0.000145809
0.00016496
0.000162021
0.00010641
3.61589e-05
8.76038e-06
7.6513e-06
1.09169e-05
2.12963e-05
0.000172235
0.000653274
0.00168424
0.00364881
0.0055855
0.00861682
0.0108615
0.00453003
0.00241364
0.000686343
0.000115137
1.48422e-05
1.96798e-06
8.12439e-07
2.42023e-06
5.88562e-06
8.6886e-06
1.08132e-05
1.02465e-05
4.53368e-06
7.24554e-07
6.94817e-07
7.73946e-07
8.70504e-07
1.04705e-06
1.63864e-06
3.33467e-05
0.000311464
0.00122923
0.00324142
0.00583671
0.00621123
)
;

boundaryField
{
    inlet
    {
        type            calculated;
        value           uniform 8.4375e-07;
    }
    outlet
    {
        type            calculated;
        value           nonuniform List<scalar> 
25
(
0.00453003
0.00241364
0.000686343
0.000115137
8.4375e-07
8.4375e-07
8.4375e-07
2.42023e-06
5.88562e-06
8.6886e-06
1.08132e-05
1.02465e-05
4.53368e-06
7.24554e-07
8.4375e-07
8.4375e-07
8.4375e-07
8.4375e-07
8.4375e-07
8.4375e-07
0.000311464
0.00122923
0.00324142
0.00583671
0.00621123
)
;
    }
    walls
    {
        type            nutkWallFunction;
        Cmu             0.09;
        kappa           0.41;
        E               9.8;
        value           nonuniform List<scalar> 
150
(
1.70372e-05
1.93408e-05
2.00519e-05
2.03043e-05
2.05085e-05
2.08945e-05
2.12839e-05
2.16363e-05
2.18833e-05
2.19845e-05
2.20452e-05
2.19896e-05
2.18709e-05
2.17287e-05
2.15691e-05
2.1409e-05
2.12976e-05
2.12443e-05
2.12088e-05
2.11383e-05
2.09417e-05
2.05527e-05
1.99783e-05
1.94254e-05
1.92208e-05
1.93321e-05
1.9679e-05
2.00905e-05
2.04713e-05
2.07847e-05
2.10583e-05
2.13029e-05
2.1513e-05
2.16786e-05
2.17609e-05
2.17738e-05
2.17115e-05
2.15742e-05
2.13621e-05
2.10796e-05
2.07111e-05
2.02196e-05
1.96578e-05
1.92338e-05
1.90582e-05
1.90465e-05
1.91551e-05
1.93579e-05
1.95929e-05
1.98049e-05
1.99631e-05
2.00636e-05
2.01177e-05
2.01402e-05
2.01486e-05
2.01579e-05
2.01772e-05
2.02397e-05
2.04033e-05
2.07111e-05
2.11563e-05
2.17208e-05
2.23774e-05
2.31154e-05
2.39474e-05
2.4908e-05
2.61139e-05
2.76435e-05
2.784e-05
2.75072e-05
2.6377e-05
2.53835e-05
2.43803e-05
2.17934e-05
2.08539e-05
1.44231e-05
1.69924e-05
1.79536e-05
1.84147e-05
1.86157e-05
1.87069e-05
1.87037e-05
1.86578e-05
1.85268e-05
1.83466e-05
1.82372e-05
1.83094e-05
1.86418e-05
1.90805e-05
1.94407e-05
1.97904e-05
2.01076e-05
2.03561e-05
2.05295e-05
2.06781e-05
2.08214e-05
2.09541e-05
2.10556e-05
2.11208e-05
2.11501e-05
2.11524e-05
2.11258e-05
2.10663e-05
2.09684e-05
2.07891e-05
2.04814e-05
2.00391e-05
1.94258e-05
1.87228e-05
1.82034e-05
1.79861e-05
1.79528e-05
1.80254e-05
1.81843e-05
1.83604e-05
1.8524e-05
1.86315e-05
1.8686e-05
1.87065e-05
1.87123e-05
1.87133e-05
1.87144e-05
1.8732e-05
1.87947e-05
1.89184e-05
1.91343e-05
1.94584e-05
1.98443e-05
2.02836e-05
2.07526e-05
2.12121e-05
2.16466e-05
2.20743e-05
2.24973e-05
2.29154e-05
2.33412e-05
2.37867e-05
2.42646e-05
2.47944e-05
2.54157e-05
2.62185e-05
2.73752e-05
2.89538e-05
2.90929e-05
2.87053e-05
2.74143e-05
2.57784e-05
2.50574e-05
2.46876e-05
2.36912e-05
)
;
    }
    defaultFaces
    {
        type            empty;
    }
}


// ************************************************************************* //
