/*--------------------------------*- C++ -*----------------------------------*\
| =========                 |                                                 |
| \\      /  F ield         | OpenFOAM: The Open Source CFD Toolbox           |
|  \\    /   O peration     | Version:  2.3.0                                 |
|   \\  /    A nd           | Web:      www.OpenFOAM.org                      |
|    \\/     M anipulation  |                                                 |
\*---------------------------------------------------------------------------*/
FoamFile
{
    version     2.0;
    format      ascii;
    class       volScalarField;
    location    "1";
    object      alpha.water;
}
// * * * * * * * * * * * * * * * * * * * * * * * * * * * * * * * * * * * * * //

dimensions      [0 0 0 0 0 0 0];

internalField   nonuniform List<scalar> 
2268
(
1
1
1
1
1
1
1
1
1
1
1
1
0.999935
0.992957
0.978647
0.98494
0.988277
0.983069
0.972217
0.975111
0.999685
0.999999
0.99999
1
1
1
1
1
1
1
1
1
1
1
0.999999
0.998534
0.964493
0.951883
0.955236
0.972685
0.970033
0.972143
0.976222
0.990378
1
0.999989
1
1
1
1
1
1
1
1
1
1
1
1
0.999402
0.971604
0.951893
0.951883
0.951944
0.975732
0.998119
1
1
1
0.99999
1
1
1
1
1
1
1
1
1
1
1
1
0.999982
0.996478
0.978505
0.97229
0.989268
1
1
1
1
1
0.999995
1
1
1
1
0.999999
1
1
1
1
1
1
1
1
0.999999
0.999995
0.999952
1
1
1
1
0.999999
0.999993
0.999994
1
1
1
1
0.999999
0.999832
0.999922
1
1
1
1
1
1
1
1
0.999999
1
1
1
0.999999
0.999973
0.999854
0.999071
0.999993
0.999985
1
1
1
0.999488
0.999039
0.999833
1
1
1
1
1
1
1
1
1
1
0.999999
0.999557
0.973512
0.93039
0.997712
0.981035
0.998083
0.999999
1
1
0.999761
0.999038
0.999666
1
1
1
1
1
1
1
0.999996
0.999994
0.986415
0.948937
0.822504
0.706213
0.841917
0.99767
0.982726
0.982716
0.95498
0.897052
0.955055
0.988233
0.988342
0.988342
0.978869
0.73636
0.718891
0.717967
0.704502
0.704502
0.781107
0.896017
0.896017
0.838256
0.784961
0.983215
0.960149
0.798618
0.801014
0.963167
0.988233
0.988341
0.988342
0.816329
0.726824
0.794401
0.83685
0.728047
0.705686
0.760716
0.896017
0.813399
0.686661
0.686596
0.984101
0.912829
0.755837
0.933768
0.982169
0.988119
0.988233
0.97283
0.785248
0.843836
0.842857
0.842012
0.83456
0.75075
0.872377
0.878245
0.735265
0.687099
0.688582
0.984722
0.87779
0.755794
0.930211
0.905878
0.928352
0.988031
0.95662
0.877542
0.859043
0.832248
0.842508
0.842508
0.842508
0.839439
0.735687
0.737655
0.760854
0.760854
0.985256
0.785034
0.755967
0.890316
0.893454
0.895227
0.977076
0.965737
0.834833
0.544302
0.435176
0.725171
0.842508
0.839662
0.645252
0.388645
0.395529
0.759827
0.760854
0.993613
0.78788
0.865185
0.931439
0.941362
0.937698
0.966931
0.884056
0.276586
0.0158144
0.00845073
0.121373
0.338816
0.383121
0.0962456
0.0448682
0.0461064
0.308441
0.76043
0.994075
0.8443
0.961537
0.969039
0.961629
0.957203
0.92063
0.398229
0.00646682
0.00185977
0.00163693
0.0016437
0.00207877
0.031498
0.0469524
0.0445417
0.0448682
0.0487654
0.609056
0.994075
0.9482
0.983032
0.976211
0.950245
0.948925
0.68604
0.0100564
0.00245074
0.00163367
0.00164589
0.00138654
0.00112956
0.00530355
0.0382285
0.0592118
0.0505721
0.0736601
0.213776
0.848103
0.923226
0.997586
0.999997
1
0.999998
0.999998
1
1
1
1
1
1
0.999989
0.976302
0.901513
0.721693
0.469879
0.386662
0.386166
0.698233
0.996606
0.997583
0.827455
0.827842
0.934901
0.999781
0.999985
0.999997
0.992987
0.999996
0.976642
0.790017
0.756014
0.928676
0.984183
0.751194
0.223494
0.136938
0.145136
0.163361
0.50719
0.966635
0.990862
0.993465
0.997274
0.864437
0.878673
0.933997
0.995769
0.999773
0.827356
0.757293
0.879188
0.829787
0.718941
0.468213
0.183831
0.139903
0.139371
0.136477
0.136477
0.136938
0.161047
0.730333
0.948884
0.990567
0.990862
0.934964
0.847418
0.683371
0.293365
0.15059
0.151348
0.13259
0.166224
0.35932
0.451409
0.465875
0.353794
0.258166
0.33846
0.339039
0.337233
0.330576
0.325123
0.234083
0.353929
0.828509
0.983478
0.869241
0.256899
0.725703
0.0574154
0.0296891
0.0399581
0.0388118
0.0363719
0.0354679
0.0288457
0.0322508
0.0876452
0.191228
0.230909
0.137845
0.100812
0.123818
0.142431
0.0902657
0.0432259
0.325182
0.827951
0.954062
0.523045
0.000385556
0.599601
0.0281365
0.0296891
0.0382242
0.0408907
0.0358779
0.0295213
0.021221
0.0137625
0.0068076
0.00492937
0.00175191
3.12923e-05
6.31024e-05
0.000730889
0.000586518
0.000540545
0.00145707
0.0138533
0.347738
0.79389
0.483171
0.000439826
0.58766
0.0250423
0.0359155
0.0583649
0.0590964
0.0565579
0.0309543
0.0181832
0.0122186
0.00389755
0.00226805
2.8412e-05
2.33152e-05
2.95124e-05
2.10702e-05
2.87049e-05
9.03072e-05
0.000493846
0.00145285
0.00658899
0.306896
0.562207
0.200657
0.662405
0.0228714
0.0154246
0.0588456
0.0588355
0.0590836
0.0585513
0.0570236
0.0549794
0.0464652
0.00670832
2.33152e-05
2.16713e-05
1.42438e-05
8.88447e-06
1.15028e-05
3.23902e-05
0.000104796
0.000360931
0.0019125
0.0746966
0.511486
0.571014
0.709025
0.0294791
0.00142791
0.00708731
0.0210286
0.043843
0.0570518
0.055912
0.0558709
0.0396374
2.8281e-05
2.47482e-05
3.02208e-05
9.74222e-06
5.11107e-06
8.63691e-06
1.59769e-05
5.32889e-05
0.000105342
0.000157386
0.00118957
0.154605
0.58801
0.709025
0.0329464
0.000565365
0.000305327
0.0002391
0.00331169
0.0112184
0.0157901
0.0143933
0.00344872
2.13656e-05
1.61609e-05
1.84717e-05
1.16898e-05
9.89839e-07
3.45284e-06
0.000115279
0.000225931
0.000204047
2.71542e-05
-8.90286e-06
5.55601e-05
0.0745427
0.695357
0.0254819
0.000221346
8.77551e-05
4.75037e-05
2.97477e-05
2.0451e-05
2.04699e-05
2.32958e-05
1.35064e-05
1.2477e-05
1.25158e-05
2.30837e-07
7.27288e-08
1.7645e-09
6.39699e-08
3.95966e-05
9.68452e-05
6.12692e-05
2.52884e-05
4.38702e-06
-1.32658e-06
6.00476e-07
0.473863
0.00666044
6.2168e-05
2.57942e-05
1.07278e-05
4.99059e-06
2.62331e-06
2.10915e-06
2.77205e-06
5.25088e-06
2.75428e-05
2.75428e-05
1.46505e-06
1.65891e-09
1.66874e-09
1.76402e-09
1.92684e-09
2.18115e-09
3.02407e-09
1.06686e-05
6.98641e-06
2.37745e-07
4.47781e-08
0.364894
7.8232e-05
2.24732e-05
7.16883e-06
2.47895e-06
9.5618e-07
4.29384e-07
3.82019e-07
4.38775e-07
4.00876e-07
2.58365e-06
4.81012e-06
1.38647e-07
1.65891e-09
1.64386e-09
1.66929e-09
1.76447e-09
1.92818e-09
2.18277e-09
3.00763e-09
5.60708e-09
3.56628e-07
5.58433e-08
0.484717
2.53263e-05
6.49443e-06
2.41306e-06
6.12102e-07
2.0204e-07
9.49442e-08
7.54908e-08
7.86558e-08
5.98736e-08
2.3948e-08
4.37611e-09
1.77407e-09
1.64308e-09
1.62021e-09
1.75671e-09
1.88718e-09
2.23284e-09
1.15189e-08
1.90606e-08
1.86389e-08
1.69544e-08
1.89672e-07
0.519533
0.000458402
-5.0599e-07
2.84447e-07
1.85443e-07
6.07084e-08
4.33913e-08
3.85586e-08
3.56092e-08
2.47951e-08
1.26932e-08
5.66489e-09
4.19953e-09
1.82783e-09
2.44009e-09
2.86189e-09
3.24953e-09
4.82408e-09
3.24714e-08
4.13837e-08
4.13308e-08
1.42188e-08
1.52746e-08
0.519533
0.00651321
5.86235e-06
-3.25976e-07
6.00973e-08
3.83571e-08
3.39519e-08
3.28871e-08
2.84582e-08
2.42402e-08
2.22086e-08
1.92456e-08
3.49984e-08
5.42475e-09
1.10147e-08
1.46879e-08
1.48178e-08
1.08203e-08
2.33726e-08
3.04627e-08
3.25365e-08
7.75892e-09
2.92915e-11
0.29014
0.0132922
8.25272e-06
4.00168e-08
3.68847e-08
3.37053e-08
3.32661e-08
3.31373e-08
3.1522e-08
2.49815e-08
2.35323e-08
2.46438e-08
5.20082e-07
6.12973e-08
1.0529e-07
1.1425e-07
8.92376e-08
3.85124e-08
4.4685e-09
4.5883e-10
3.92486e-11
2.93289e-11
2.92874e-11
0.00761349
0.0160938
8.04886e-05
1.51192e-06
3.24025e-08
3.4156e-08
3.33344e-08
3.01683e-08
2.10413e-08
-1.51333e-07
4.40429e-06
2.91589e-05
3.1834e-05
5.82111e-06
2.92909e-06
1.01831e-06
1.10226e-06
2.0533e-07
1.9785e-08
1.26482e-09
8.83472e-11
3.47293e-11
3.02304e-11
0.00134
0.0121268
7.12399e-07
2.93634e-07
3.04892e-08
3.24316e-08
3.41088e-08
4.35176e-08
1.40378e-07
5.93449e-07
1.93577e-05
5.2995e-05
5.45034e-05
5.48188e-05
3.61534e-05
2.68129e-05
2.23655e-05
5.33792e-06
1.00896e-07
6.27967e-09
4.46108e-10
5.23346e-11
4.40342e-11
0.000898186
0.000600556
-7.52924e-06
2.543e-08
3.0754e-08
3.099e-08
3.21267e-08
6.46798e-08
2.52939e-07
1.13461e-06
6.72596e-06
1.49271e-05
4.53483e-05
7.59459e-05
6.71067e-05
5.34005e-05
4.80271e-05
4.03669e-05
9.46996e-07
1.0114e-07
2.71821e-08
1.91867e-09
1.87785e-10
0.000516594
6.72318e-06
-4.51996e-07
-3.23051e-08
3.10624e-08
3.37322e-08
4.59686e-08
7.24924e-06
6.73024e-05
4.79983e-05
1.04599e-05
1.64518e-05
9.07749e-05
0.000105247
2.98063e-05
2.46666e-05
4.8418e-05
4.80006e-05
2.76891e-05
2.93687e-06
6.46839e-08
4.10016e-09
4.65341e-10
0.0849193
2.76505e-06
-4.67632e-08
8.54903e-08
4.54002e-08
7.79274e-08
1.86895e-05
0.000121217
0.000155171
0.000158038
0.000121946
0.000151827
0.000157962
0.000157401
4.25179e-05
2.26068e-05
3.42936e-05
4.85416e-05
4.87813e-05
9.50964e-06
4.56353e-08
4.16152e-09
6.76492e-10
0.257947
5.42519e-05
5.38689e-08
1.40902e-07
1.07779e-07
4.33485e-07
3.0552e-05
0.000151623
0.000154157
0.000156867
0.000158714
0.000158714
0.000158714
0.000157133
3.98106e-05
2.0543e-05
2.05034e-05
4.67344e-05
4.90602e-05
1.31686e-05
1.13163e-07
1.19365e-08
2.30608e-09
0.263633
0.00180014
-1.71672e-06
1.32256e-07
1.31134e-07
1.86256e-07
8.96473e-06
7.71946e-05
0.00012917
0.000131026
0.000151747
0.000157935
9.19374e-05
2.12312e-05
2.0378e-05
2.04938e-05
2.05549e-05
4.77231e-05
5.01255e-05
1.16094e-05
1.84022e-07
1.85443e-08
4.64707e-09
0.264488
0.00431817
-3.73157e-07
1.42467e-07
1.39926e-07
1.42416e-07
1.90587e-07
2.01493e-06
1.42984e-05
2.57947e-05
3.06375e-05
3.3065e-05
2.71469e-05
2.14497e-05
2.06721e-05
2.05829e-05
2.05444e-05
5.83411e-05
5.43384e-05
1.15165e-05
2.22634e-07
3.08203e-08
5.93782e-09
0.264488
0.00754813
3.21579e-06
2.31076e-07
1.44763e-07
1.9094e-07
2.3117e-07
3.07845e-06
9.61195e-06
7.5594e-05
8.88184e-05
8.87969e-05
8.88373e-05
6.46348e-05
2.14465e-05
2.06721e-05
3.71457e-05
6.60786e-05
5.73788e-05
8.2538e-06
2.26619e-07
3.12026e-08
6.04237e-09
0.219107
0.028702
5.14172e-05
3.27307e-06
2.445e-07
2.31018e-07
5.68594e-05
0.000117503
0.000106661
4.00644e-05
6.87837e-05
8.87988e-05
8.74616e-05
6.93329e-05
2.66302e-05
2.29761e-05
6.5131e-05
6.82803e-05
5.0758e-05
3.18743e-06
1.48232e-07
1.96175e-08
3.81505e-09
0.0260588
0.0470004
0.0130549
0.00101417
0.000310804
0.000339331
0.000206279
5.26871e-05
3.05914e-05
3.55337e-05
3.49906e-05
3.4753e-05
3.33467e-05
3.11884e-05
3.19608e-05
5.09303e-05
7.17748e-05
6.85606e-05
3.65006e-05
1.23111e-06
6.74669e-08
7.96084e-09
1.27871e-09
0.0012259
0.0137936
0.0158524
0.0136949
0.00639085
0.00111156
0.000110483
3.35469e-05
1.2617e-05
2.81709e-05
4.15385e-05
3.66763e-05
4.15152e-05
7.16968e-05
7.26321e-05
7.27122e-05
7.22651e-05
5.84611e-05
6.72898e-06
1.08771e-07
1.12114e-08
1.09199e-09
1.29261e-10
0.000227054
0.000725508
0.00623514
0.00614012
0.00461501
0.00122867
5.16162e-05
9.84249e-06
1.76241e-06
2.15877e-05
7.0625e-05
7.24793e-05
7.27705e-05
7.27498e-05
7.27498e-05
7.27498e-05
5.5098e-05
7.34018e-06
8.42254e-08
1.06816e-08
9.48352e-10
8.7171e-11
1.19569e-11
3.9262e-05
0.00016716
0.000235447
0.000197211
0.00025939
0.000221564
3.25639e-05
1.25002e-06
1.78685e-07
1.80277e-06
4.20407e-05
7.15747e-05
7.27963e-05
7.27786e-05
5.86581e-05
2.98144e-05
3.17746e-06
4.38403e-08
6.86859e-09
8.40726e-10
8.57851e-11
9.55554e-12
3.66221e-12
6.31184e-06
3.49028e-05
4.98942e-05
3.82064e-05
1.74631e-05
5.27624e-06
1.60979e-06
1.55857e-07
1.88858e-08
1.6069e-09
1.42372e-10
9.36874e-06
1.59849e-05
1.02295e-05
3.11457e-06
5.0674e-08
1.3407e-08
2.31067e-09
4.27485e-10
5.92981e-11
1.53257e-11
3.4197e-12
2.57764e-12
9.37459e-07
6.26378e-06
9.18507e-06
6.2659e-06
2.5991e-06
7.27125e-07
1.52857e-07
1.95656e-08
1.62014e-09
1.43195e-10
3.01648e-11
2.74769e-11
2.97521e-11
2.92026e-10
2.42007e-09
1.75501e-09
5.19603e-10
1.34108e-10
2.97564e-11
1.58088e-11
3.8499e-12
2.12324e-12
4.64838e-13
1.28387e-07
9.30443e-07
1.46751e-06
9.02463e-07
3.39993e-07
8.91565e-08
1.77772e-08
2.23076e-09
2.06541e-10
3.40428e-11
2.81127e-11
2.74769e-11
5.92502e-11
5.36115e-11
1.40882e-10
9.79417e-11
3.99189e-11
1.23655e-11
8.66394e-12
3.99986e-12
1.75046e-12
3.64868e-13
6.38582e-14
1.62519e-08
1.2757e-07
2.06899e-07
1.14173e-07
3.97512e-08
9.85901e-09
1.8378e-09
2.85764e-10
3.98976e-11
2.17413e-11
4.10039e-11
4.31356e-11
3.10261e-11
2.502e-11
1.48072e-11
1.04456e-11
8.79491e-12
4.21818e-12
4.11085e-12
1.42347e-12
2.92802e-13
4.72606e-14
8.04976e-15
1.91678e-09
1.62217e-08
2.61695e-08
1.2978e-08
4.22147e-09
9.96941e-10
2.07528e-10
3.6919e-11
1.26017e-11
1.03829e-11
1.27612e-11
1.26118e-11
9.8794e-12
6.83652e-12
5.329e-12
5.37746e-12
4.53303e-12
3.11758e-12
1.00433e-12
2.24557e-13
3.65196e-14
5.21871e-15
1.54404e-15
2.46307e-10
1.92028e-09
3.00058e-09
1.34945e-09
4.14098e-10
1.13818e-10
2.54927e-11
9.34281e-12
7.24543e-12
6.11583e-12
6.97459e-12
7.23654e-12
6.36105e-12
4.63519e-12
4.28101e-12
4.2197e-12
1.8472e-12
6.24468e-13
1.52139e-13
2.737e-14
3.81138e-15
6.85951e-16
6.04083e-16
3.29033e-11
2.4002e-10
3.19151e-10
1.51828e-10
4.95508e-11
1.38364e-11
5.53226e-12
3.29506e-12
3.67123e-12
3.47898e-12
4.82557e-12
5.46789e-12
4.87479e-12
3.15701e-12
1.76187e-12
9.88228e-13
3.49146e-13
9.24489e-14
1.84364e-14
2.81428e-15
3.98331e-16
1.84608e-16
3.09532e-16
6.74363e-12
3.31247e-11
4.17369e-11
1.83119e-11
7.97951e-12
3.34647e-12
1.84908e-12
1.29679e-12
1.34413e-12
1.49964e-12
1.99116e-12
2.03558e-12
1.58163e-12
9.00142e-13
4.16546e-13
1.70852e-13
5.04342e-14
1.12356e-14
1.91621e-15
2.70048e-16
6.78376e-17
8.37554e-17
1.60295e-16
2.22548e-12
9.31008e-12
7.24129e-12
3.97327e-12
1.93645e-12
1.26089e-12
5.4706e-13
3.17627e-13
4.30605e-13
4.9138e-13
5.88255e-13
5.30125e-13
3.57476e-13
1.80203e-13
7.26685e-14
2.43664e-14
6.16872e-15
1.1929e-15
1.82369e-16
3.20071e-17
2.39975e-17
4.16842e-17
7.8558e-17
9.39908e-13
2.26008e-12
1.9625e-12
1.5097e-12
8.82052e-13
2.33105e-13
8.69376e-14
8.1432e-14
1.17082e-13
1.29666e-13
1.38284e-13
1.10083e-13
6.52166e-14
2.94145e-14
1.05547e-14
3.05697e-15
6.82319e-16
1.18655e-16
1.86692e-17
7.37895e-18
1.10196e-17
2.02346e-17
3.59386e-17
1.3842e-13
1.55717e-12
9.54295e-13
3.46368e-13
9.79302e-14
2.70254e-14
1.58931e-14
1.95397e-14
2.7382e-14
2.87236e-14
2.72857e-14
1.92662e-14
1.01232e-14
4.10537e-15
1.32179e-15
3.38794e-16
6.77121e-17
1.11724e-17
2.71272e-18
2.89977e-18
5.42558e-18
1.01816e-17
1.70188e-17
0.996532
0.995619
0.994587
0.993628
0.996317
0.988667
0.968118
0.947711
0.734548
0.49965
0.301637
0.245236
0.000382936
0.000387068
0.000403553
0.00042958
0.000385556
0.000384279
0.000387068
0.000313627
0.00038318
0.000387068
0.000378904
0.000422578
0.000438763
0.000493183
0.000500254
0.00037067
0.320006
0.0587691
0.082709
0.00738928
0.594278
0.594278
0.592767
0.315398
0.529258
0.582436
0.545436
0.539497
-3.02155e-05
6.36225e-05
0.0884961
0.375383
3.85688e-08
-4.84314e-06
-2.91627e-05
-1.45764e-05
3.27464e-08
3.36041e-09
-1.01564e-08
-9.16772e-10
1.83247e-07
1.89673e-09
8.15025e-10
3.93306e-10
1.83912e-07
9.32861e-08
1.1618e-09
4.99675e-09
3.21615e-11
3.98823e-10
1.9139e-08
6.39553e-09
2.96852e-11
3.1272e-11
1.01324e-10
3.04063e-11
5.26687e-11
6.11222e-11
4.20786e-11
5.42552e-11
2.89359e-11
2.69964e-11
3.9565e-11
2.46823e-11
2.5792e-11
1.48604e-11
1.20548e-11
6.88931e-12
7.64278e-11
3.05583e-11
1.05732e-11
5.92749e-12
1.71169e-10
1.09362e-10
2.44541e-11
8.85593e-12
4.43568e-10
1.90508e-10
5.29202e-11
1.00064e-11
8.12206e-10
2.16938e-10
6.45631e-11
1.31946e-11
1.04508e-09
2.59437e-10
5.38907e-11
1.4211e-11
1.09133e-09
2.68815e-10
5.19173e-11
1.34211e-11
6.92377e-10
1.76271e-10
3.43137e-11
8.42309e-12
2.34009e-10
6.94112e-11
1.79701e-11
5.1452e-12
2.28506e-11
1.78935e-11
5.47188e-12
5.05789e-12
7.36279e-12
5.23007e-12
3.55375e-12
1.15899e-12
4.38907e-12
1.90008e-12
6.24539e-13
2.02129e-13
9.68668e-13
3.23483e-13
1.04994e-13
4.31226e-14
1.49984e-13
4.76025e-14
1.98896e-14
1.51009e-14
1.96656e-14
8.57946e-15
6.99574e-15
8.16429e-15
3.65341e-15
3.17297e-15
3.76652e-15
4.87371e-15
1.40396e-15
1.69196e-15
2.17198e-15
2.92471e-15
7.36818e-16
9.43095e-16
1.24413e-15
1.78367e-15
3.96494e-16
5.14189e-16
7.10211e-16
1.13546e-15
2.05238e-16
2.714e-16
4.10498e-16
7.56497e-16
1e-16
1.39542e-16
2.43115e-16
5.07441e-16
4.60648e-17
7.23771e-17
1.47187e-16
3.23556e-16
2.17281e-17
3.96096e-17
8.3042e-17
1.65722e-16
0.99406
0.993662
0.993344
0.971587
0.947447
0.595706
0.177156
0.0217673
0.0223429
0.0179536
0.00138566
0.00113171
0.00100245
0.000834028
0.00842304
0.0632056
0.0977998
0.0983692
0.0936953
0.924934
0.964744
0.844315
0.919015
0.923811
0.530113
0.0330371
0.0298845
0.129836
0.184724
0.129502
0.00483244
0.000835849
0.000797449
0.000835239
0.000889753
0.0185312
0.0629116
0.0881629
0.260044
0.463971
0.813045
0.919276
0.919709
0.672308
0.118021
0.148951
0.185156
0.185156
0.107335
0.0052311
0.000828998
0.000797449
0.000797107
0.00104785
0.00447185
0.0147012
0.0882301
0.000504484
0.00115416
0.343144
0.777484
0.915558
0.494455
0.177109
0.118889
0.0530062
0.0437647
0.0419331
0.000911518
0.000854484
0.000795478
0.00103588
0.0274507
0.103753
0.0687866
0.06336
0.000429869
0.000459903
0.000537699
0.136639
0.294773
0.0876369
0.0298203
0.000772049
0.000833227
0.000914056
0.00126535
0.00133688
0.000911518
0.00141658
0.0407194
0.231315
0.246181
0.203899
0.101437
0.000449921
0.000461506
0.000497396
0.00154704
0.000870399
0.000738002
0.000423044
0.000516924
0.000678365
0.00135888
0.00174306
0.00321204
0.0386678
0.132127
0.266786
0.262509
0.255991
0.12161
0.1255
0.000458076
0.000472198
0.00046233
0.000389761
0.000332433
0.000343092
0.000318291
0.000375099
0.000610009
0.00109928
0.0320635
0.147835
0.267372
0.266705
0.267562
0.262834
0.0272308
0.0262694
0.0574666
0.000618697
0.000396825
0.000296117
0.000290359
0.0002948
0.000316885
0.000305772
0.000319631
0.000376616
0.0376034
0.227262
0.266004
0.267129
0.267363
0.260732
0.0250946
0.000374349
0.00448727
0.00395673
0.110666
0.0164539
0.000287026
0.000292738
0.000292738
0.000294285
0.000303828
0.000306164
0.0162637
0.225384
0.254379
0.264385
0.257907
0.167407
0.0164189
2.26756e-05
0.000128711
0.000439069
0.000741478
0.533526
0.39831
0.0981087
0.00313002
0.000473807
0.00182538
0.000336139
0.000352835
0.202704
0.226098
0.195605
0.0740078
0.00532036
2.49391e-07
2.48424e-06
5.28361e-06
0.000117196
0.000119097
0.000179618
0.482943
0.49058
0.490117
0.329765
0.219232
0.250144
0.124378
0.259258
0.257435
0.146601
7.68024e-05
1.11707e-09
6.68058e-09
2.06498e-08
2.50234e-07
1.8539e-05
6.44814e-05
7.56989e-05
0.000135188
1.17981e-05
0.280309
0.425622
0.435336
0.435336
0.435336
0.433222
0.346898
0.0778089
-5.5496e-06
2.39022e-10
6.23779e-10
9.05308e-10
6.60885e-09
6.73719e-08
6.55365e-07
6.36487e-06
9.28156e-05
0.000179403
-3.79644e-07
-5.07341e-06
-4.48155e-07
0.120694
0.174742
0.126412
0.0780928
3.33047e-09
2.19754e-10
2.20014e-10
2.18273e-10
2.27045e-10
4.04466e-10
8.21636e-10
5.42247e-08
1.96014e-06
0.000127121
0.000209031
0.00020911
1.25186e-10
5.50307e-11
4.72117e-11
5.32728e-11
5.52284e-11
2.08032e-10
2.73031e-09
9.42984e-10
2.20006e-10
2.19843e-10
2.25094e-10
2.97826e-10
3.04675e-10
4.20595e-10
6.76217e-10
7.66737e-09
4.6059e-05
0.000206593
0.000208589
3.96144e-09
2.32669e-09
2.33606e-10
1.17587e-10
1.08912e-09
4.23605e-08
7.78212e-08
7.61197e-08
1.96293e-08
2.20288e-10
8.64205e-10
6.53939e-10
6.48426e-10
6.46353e-10
6.55663e-10
7.28468e-10
1.23169e-06
2.37457e-05
5.81204e-05
2.54561e-09
3.23589e-09
3.29224e-10
1.26471e-10
1.94609e-09
7.73774e-08
1.11883e-07
1.11883e-07
4.54381e-08
2.32827e-10
1.43521e-09
8.20187e-10
9.24682e-10
1.12232e-09
9.64539e-10
9.30821e-10
1.41591e-08
2.92608e-06
3.48721e-06
2.38333e-11
6.88828e-10
2.25349e-10
1.29229e-10
1.07252e-10
9.70955e-11
2.48178e-08
1.19791e-08
7.8407e-09
2.41074e-09
1.58245e-09
8.70073e-10
1.07149e-09
2.2768e-09
9.82432e-10
9.91554e-10
3.0143e-08
3.88111e-08
1.58388e-06
2.25759e-11
1.59129e-11
3.30072e-11
6.08841e-11
1.0209e-10
9.64938e-11
9.69636e-11
9.87326e-11
1.14369e-10
2.45141e-09
1.74028e-09
1.66584e-09
1.12889e-09
2.6799e-09
9.89222e-10
9.9661e-10
1.09607e-06
4.41163e-05
7.8098e-05
2.01199e-11
1.57194e-11
1.47574e-11
2.13398e-11
4.62694e-11
9.76082e-11
1.11339e-10
4.05792e-10
2.86688e-10
1.25181e-09
5.04033e-09
6.14874e-09
2.0461e-09
2.40753e-09
1.00274e-09
1.02245e-09
2.11592e-05
0.000147485
0.000147485
7.78698e-12
9.60297e-12
1.08153e-11
1.48492e-11
2.73516e-11
7.3166e-11
1.17127e-10
8.54175e-10
1.18499e-08
1.68157e-09
1.18417e-08
1.10638e-08
2.73144e-09
1.60417e-09
1.02244e-09
1.03014e-09
5.96138e-05
0.000147144
0.000147485
3.91316e-12
4.87761e-12
6.85129e-12
1.09175e-11
2.12418e-11
5.58573e-11
6.07374e-11
7.0983e-10
2.81536e-08
6.44319e-09
1.52549e-08
1.20065e-08
1.59001e-09
1.48338e-09
1.02944e-09
1.71267e-06
7.82654e-05
4.36927e-05
0.000146789
3.44243e-12
3.3862e-12
5.09516e-12
8.88226e-12
1.76514e-11
5.13996e-11
5.63694e-11
3.23256e-10
3.26179e-08
1.16734e-07
4.43775e-08
1.22007e-08
1.76007e-09
1.52336e-09
4.18299e-07
6.486e-06
7.83085e-05
1.08175e-06
8.53615e-05
4.11992e-12
2.70712e-12
4.11977e-12
7.63983e-12
1.525e-11
4.89857e-11
5.13099e-11
6.52188e-11
7.29443e-07
8.60418e-06
2.47519e-07
1.34672e-08
4.39615e-07
1.75966e-09
6.18565e-09
3.13407e-05
6.52689e-05
9.50811e-07
1.44619e-05
4.55261e-12
2.29715e-12
3.36491e-12
6.60652e-12
1.27784e-11
4.97364e-11
4.99312e-11
6.23619e-10
3.37547e-06
1.46434e-05
2.2182e-06
1.76821e-08
1.06286e-06
3.52916e-06
2.56159e-05
3.11205e-05
4.89705e-06
3.41837e-08
8.49863e-05
4.71007e-12
2.03684e-12
2.78033e-12
5.72569e-12
1.02768e-11
5.41983e-11
5.06635e-11
5.39541e-11
5.24938e-06
1.46593e-05
8.94634e-06
3.81645e-08
2.17531e-06
2.02101e-05
2.54941e-05
1.66405e-05
3.41692e-08
3.41979e-08
8.56332e-05
4.04597e-12
1.73428e-12
2.309e-12
4.94182e-12
8.13801e-12
5.94518e-11
6.67601e-11
7.27161e-11
4.34813e-06
1.46367e-05
1.32907e-05
1.31717e-07
8.3101e-06
2.05074e-05
1.86057e-05
1.64549e-07
5.10037e-08
3.41692e-08
8.56244e-05
3.43553e-12
1.33815e-12
1.91515e-12
4.2157e-12
6.49116e-12
6.36816e-11
2.07429e-10
1.41668e-10
8.25859e-07
1.36286e-05
1.3465e-05
5.89771e-07
8.52939e-06
1.60095e-05
3.89641e-06
3.74315e-06
2.81532e-06
3.79949e-08
8.55301e-05
2.3051e-12
8.84241e-13
1.57442e-12
3.51966e-12
5.28774e-12
5.79916e-11
2.62201e-10
1.95012e-10
1.96645e-10
1.63745e-07
1.32631e-05
1.04037e-05
4.26958e-06
4.26958e-06
1.41787e-05
1.94268e-05
4.57973e-06
7.24011e-08
8.53695e-05
9.34172e-13
5.52141e-13
1.27721e-12
2.84247e-12
4.28444e-12
3.23113e-11
2.13215e-10
1.95418e-10
1.94307e-10
6.74979e-11
9.68005e-06
1.73259e-05
8.2512e-06
1.68237e-05
1.97812e-05
1.97812e-05
3.04908e-06
4.73394e-08
8.36025e-05
2.71022e-13
3.80385e-13
1.01141e-12
2.19403e-12
3.41641e-12
1.58177e-11
6.44297e-11
1.12319e-10
6.15739e-10
6.70357e-11
4.17146e-11
9.56517e-06
1.86852e-05
1.9085e-05
1.93659e-05
3.25233e-06
4.73403e-08
4.45023e-08
2.05149e-05
1.06855e-13
2.83097e-13
7.68029e-13
1.60568e-12
2.57796e-12
9.53977e-12
2.63781e-11
3.75248e-11
5.87759e-10
4.54881e-10
6.58536e-11
4.33907e-11
2.31604e-07
6.77431e-06
5.1554e-07
8.16424e-12
8.94659e-08
4.15931e-08
4.50974e-09
6.42353e-14
2.09403e-13
5.53888e-13
1.11216e-12
1.81349e-12
5.80078e-12
1.6342e-11
2.56182e-11
2.05362e-10
2.05705e-10
1.12893e-10
5.9755e-11
1.80182e-11
1.13792e-11
8.053e-12
8.05285e-12
2.87553e-07
1.23957e-07
3.8413e-09
4.39826e-14
1.49344e-13
3.79653e-13
7.30007e-13
1.19593e-12
3.65786e-12
1.00505e-11
1.61283e-11
1.32669e-11
4.49616e-11
9.28678e-11
1.12445e-10
1.66217e-10
1.79604e-10
1.19629e-10
1.27612e-11
2.87584e-07
2.25626e-07
3.34933e-09
3.05281e-14
1.0299e-13
2.48928e-13
4.5352e-13
7.39546e-13
2.13272e-12
5.14997e-12
7.9676e-12
8.9492e-12
3.33633e-11
3.57381e-11
7.07876e-11
2.17683e-10
2.48564e-10
1.5765e-10
1.0105e-12
2.81316e-07
1.42083e-07
1.361e-09
2.12017e-14
6.94209e-14
1.56382e-13
2.63783e-13
4.16657e-13
1.04188e-12
2.03132e-12
2.99289e-12
4.00379e-12
1.20144e-11
1.45715e-11
2.07636e-11
6.40562e-11
1.61717e-10
4.70595e-11
8.84143e-13
1.96483e-08
4.96296e-13
2.6075e-10
1.48616e-14
4.56469e-14
9.27367e-14
1.39983e-13
2.01005e-13
4.79028e-13
8.25612e-13
1.2277e-12
1.82778e-12
5.17564e-12
6.27336e-12
7.11956e-12
1.22129e-11
1.86042e-11
1.04746e-11
8.45414e-13
1.543e-15
1.30453e-14
1.52902e-10
1.03874e-14
2.8508e-14
5.02162e-14
6.53464e-14
7.86331e-14
2.05751e-13
3.37344e-13
4.93397e-13
7.11491e-13
1.85448e-12
1.9463e-12
1.4086e-12
2.01407e-12
1.78538e-12
9.78527e-13
1.1236e-13
1.54154e-15
5.94314e-12
2.19616e-11
6.94017e-15
1.61784e-14
2.38553e-14
2.58851e-14
2.50032e-14
7.11127e-14
1.03649e-13
1.40822e-13
1.81312e-13
2.89365e-13
2.33378e-13
7.46436e-14
-2.19138e-14
-5.10183e-14
-4.22119e-14
-1.40952e-14
-1.76045e-15
9.85838e-12
2.40989e-12
4.2029e-15
7.98805e-15
9.59609e-15
8.43014e-15
6.34237e-15
1.86191e-14
2.24039e-14
2.32928e-14
1.90707e-14
8.26681e-15
1.63713e-15
-3.35376e-15
-7.27832e-15
-7.70329e-15
-5.1277e-15
-1.55459e-15
-2.01252e-16
7.99247e-12
3.64715e-13
2.2159e-15
3.30806e-15
3.14713e-15
2.15972e-15
1.22347e-15
3.49132e-15
3.11326e-15
9.11323e-16
-4.62301e-16
-6.62657e-16
-4.21892e-16
-2.13564e-16
-9.46705e-17
-3.80806e-17
-1.32252e-17
-2.77374e-18
-3.0042e-19
2.3367e-12
1.55984e-13
9.74878e-16
1.07658e-15
7.74076e-16
3.91058e-16
1.57499e-16
4.51961e-16
2.49313e-16
-9.38032e-17
-1.48863e-16
-8.00856e-17
-2.85706e-17
-8.67293e-18
-2.45362e-18
-6.72708e-19
-1.64564e-19
-2.45939e-20
-1.83687e-21
4.92248e-13
2.9031e-14
2.93729e-16
2.13776e-16
1.07627e-16
3.5891e-17
9.21529e-18
3.52677e-17
7.95692e-18
-5.56217e-20
-1.41602e-19
-1.78823e-20
-1.238e-21
-5.73569e-23
-2.08835e-24
-7.61331e-26
-3.9789e-27
-2.94039e-28
-4.21497e-29
-5.99877e-30
-1.56302e-30
)
;

boundaryField
{
    leftWall
    {
        type            zeroGradient;
    }
    rightWall
    {
        type            zeroGradient;
    }
    lowerWall
    {
        type            zeroGradient;
    }
    atmosphere
    {
        type            inletOutlet;
        inletValue      uniform 0;
        value           nonuniform List<scalar> 
46
(
1.3842e-13
1.55717e-12
9.54295e-13
3.46368e-13
9.79302e-14
2.70254e-14
1.58931e-14
1.95397e-14
2.7382e-14
2.87236e-14
2.72857e-14
1.92662e-14
1.01232e-14
4.10537e-15
1.32179e-15
3.38794e-16
6.77121e-17
1.11724e-17
2.71272e-18
2.89977e-18
5.42558e-18
1.01816e-17
1.70188e-17
0
0
0
0
0
0
0
0
0
0
0
0
0
0
0
0
0
0
0
0
0
0
0
)
;
    }
    defaultFaces
    {
        type            empty;
    }
}


// ************************************************************************* //
