/*--------------------------------*- C++ -*----------------------------------*\
| =========                 |                                                 |
| \\      /  F ield         | OpenFOAM: The Open Source CFD Toolbox           |
|  \\    /   O peration     | Version:  2.3.0                                 |
|   \\  /    A nd           | Web:      www.OpenFOAM.org                      |
|    \\/     M anipulation  |                                                 |
\*---------------------------------------------------------------------------*/
FoamFile
{
    version     2.0;
    format      ascii;
    class       volScalarField;
    location    "2.70074";
    object      k.air;
}
// * * * * * * * * * * * * * * * * * * * * * * * * * * * * * * * * * * * * * //

dimensions      [0 2 -2 0 0 0 0];

internalField   nonuniform List<scalar> 
1000
(
0.000680372
0.00112649
0.00111276
0.00159982
1.12806e-12
1e-15
1e-15
1e-15
0.00175763
0.00205119
1.08018e-14
8.60633e-15
7.9114e-13
6.79595e-07
0.000729213
0.00075135
0.00100909
0.00165904
0.00337173
0.00166546
0.001488
0.000542188
0.000792364
0.00241052
0.00314525
0.00221823
5.67803e-14
1e-15
1.89561e-14
3.04591e-10
1.74425e-15
0.00163209
0.0035265
0.00394404
0.00426873
0.00451822
0.00437222
0.00331347
0.00166816
0.00250239
0.000800253
0.000658757
0.002933
0.00613467
0.0067793
0.00679989
0.00543243
1.54295e-15
1e-15
1e-15
2.06872e-06
0.00409597
0.00428879
0.00463976
0.00510014
0.0054809
0.00421477
0.0008395
0.00134672
0.00341531
0.00032867
0.00314869
0.00610494
0.00688584
0.00612495
0.00628934
0.00631934
0.000706463
0.00138637
1e-15
5.11668e-11
0.00371121
0.00309709
0.00414934
0.00506494
0.00556793
0.00353718
0.000684394
0.00177289
0.00398698
0.00200151
0.00554496
0.00648618
0.00532137
0.00334617
0.00382894
0.00557679
0.00223371
0.00478637
0.000857199
0.000566014
0.00305469
0.00181265
0.00327312
0.00453013
0.00520174
0.00388403
0.000788429
0.00259264
0.00382096
0.00244319
0.00583653
0.00611058
0.00292814
0.00157799
0.00196832
0.00446481
0.00284465
0.00696402
0.00307433
0.00175233
0.00238325
0.000959921
0.00275061
0.00380024
0.00463984
0.00447852
0.000714507
0.00221222
0.00325992
0.00236686
0.00551715
0.00519781
0.00184289
0.00120881
0.00136591
0.00389305
0.00307077
0.00944046
0.00479857
0.0025212
0.00185179
0.00078996
0.00273784
0.00319903
0.00387357
0.0040443
0.00166949
0.000918003
0.00177877
0.00200693
0.00445243
0.00387815
0.0016079
0.00144667
0.00132956
0.0038093
0.00278366
0.0114709
0.00502006
0.00284269
0.00153883
0.000935801
0.00299907
0.00256452
0.00309847
0.00332882
0.00259549
0.000728838
0.000551306
0.00143096
0.00314032
0.00280506
0.0020093
0.00173383
0.00139913
0.00385951
0.00299147
0.0131255
0.00475667
0.00290318
0.00141498
0.00110793
0.00273767
0.00191204
0.00213896
0.00229737
0.0017257
0.00301801
0.000475172
0.000706414
0.00128868
0.00120031
0.000753304
0.00149848
0.00154713
0.0036031
0.00543546
0.0134437
0.00369628
0.00252716
0.00132864
0.00172451
0.00113389
0.00104441
0.00109491
0.00116738
0.000902528
0.00204656
0.00154586
0.000483755
0.000905318
0.00090084
0.00091222
0.000638995
0.000512901
0.000469921
0.00050938
0.000558977
0.000632953
0.000474443
0.000428944
0.000420951
0.000428881
0.000583878
0.000656683
0.000706335
0.00078025
0.00130193
0.000572037
0.000374319
0.00148732
0.0025599
0.00351933
0.00356673
0.00327417
0.0017876
0.000157166
0.000392921
0.000400486
0.000352568
0.00224294
0.00284016
0.00312707
0.00332572
0.0034414
0.00333124
0.00264487
0.00143172
0.000920199
0.000225852
0.00172344
0.00360433
0.00384895
0.00394953
0.00410741
0.00383163
0.000477635
0.00042722
0.0003267
0.000958515
0.00278281
0.00275487
0.00279847
0.00295501
0.00311989
0.00260206
0.000741374
0.00102581
0.000915267
0.000823489
0.00303187
0.00330394
0.00353013
0.00287181
0.00316114
0.00368308
0.00136326
0.000476133
0.000285563
0.00113667
0.00234209
0.0017464
0.00213014
0.00253562
0.00278771
0.00211697
0.000486008
0.000959154
0.000887534
0.00102787
0.00286506
0.0030665
0.00232744
0.00150045
0.00180184
0.00279976
0.00181516
0.000900414
0.000293149
0.00114039
0.00166354
0.00103029
0.00154908
0.00188705
0.00226374
0.00214289
0.000473752
0.000826279
4.28813e-06
0.000986125
0.00266502
0.00242803
0.00134498
0.000918226
0.00108778
0.00212284
0.00196497
0.00158241
0.000441606
0.00120782
0.00116565
0.000667021
0.00136682
0.00144735
0.00184177
0.00230348
0.000479835
0.000546934
3.70427e-13
0.000760649
0.0020318
0.00151206
0.00103943
0.000865707
0.000910967
0.00189995
0.00199597
0.00269897
0.000880126
0.00128713
0.000898996
0.000655442
0.00153308
0.00110577
0.00140825
0.00195052
0.00129962
0.0002694
1e-15
0.000580947
0.00157565
0.00104951
0.00102629
0.00101137
0.000974382
0.00191412
0.00198522
0.00388817
0.00135743
0.00131428
0.000821889
0.00077932
0.00212516
0.000792197
0.00101907
0.00151618
0.00191607
0.000438955
9.9979e-16
0.000423002
0.000957052
0.000739559
0.00118056
0.00132085
0.0010693
0.00204558
0.00178843
0.00483458
0.00179016
0.00125407
0.000832754
0.000833074
0.00210853
0.000609203
0.000735902
0.00105905
0.00132519
0.00240456
3.18849e-11
0.000349332
0.000493182
0.000530653
0.000387398
0.000995475
0.00131759
0.00267433
0.00285859
0.00545545
0.00182971
0.00115662
0.000808615
0.00106997
0.000717628
0.000422775
0.00051029
0.000649974
0.000817614
0.00183902
1.95418e-05
0.000406193
0.000774098
0.000782713
0.000758727
0.000624228
0.000524265
0.000455289
0.000424177
0.000458941
0.000534716
0.000451419
0.000438828
0.000439074
0.000447713
0.000532157
0.000611358
0.00063583
0.00064351
0.00086162
0.000503676
7.08659e-05
0.00288976
0.00287918
0.00295393
0.00306955
0.00290923
0.00233201
0.000759074
0.00028308
0.000377451
0.000695773
0.00207715
0.00241582
0.00263396
0.00281565
0.00286693
0.00299545
0.00275314
0.00185218
0.000568902
0.000538456
0.00200328
0.00212893
0.00255712
0.00274319
0.00306626
0.00305026
0.00166374
0.000304488
0.000291345
0.00124015
0.00203118
0.00178047
0.00188382
0.00204465
0.00217898
0.00245492
0.00157205
0.0019062
1.63947e-15
0.000628552
0.00143694
0.00169002
0.00206386
0.0017268
0.00202375
0.00264314
0.00211715
0.000363172
0.000283434
0.00122672
0.00139358
0.000907836
0.00110093
0.00151772
0.0017062
0.00215041
0.00075046
0.000702991
1.48381e-15
0.000661066
0.00121052
0.00139826
0.00132094
0.00093328
0.00113381
0.00175467
0.00215674
0.000444629
0.000257559
0.00107319
0.000869841
0.000541636
0.000697376
0.000950242
0.00111434
0.00185945
0.000511793
0.000226184
1.2343e-15
0.000549579
0.000873294
0.00095633
0.000872491
0.000722445
0.000789214
0.0012588
0.00207316
0.000560931
0.000265722
0.000895771
0.000635388
0.000467709
0.000640678
0.000711607
0.00083427
0.00151716
0.000834843
8.01091e-05
1.00971e-15
0.000458956
0.000590508
0.000659387
0.000766728
0.00079155
0.000751261
0.00108801
0.00200225
0.000868572
0.000302372
0.000772337
0.000566858
0.000578447
0.000783104
0.000522543
0.000602276
0.00104044
0.00182524
0.0001531
1.05487e-15
0.000390595
0.000477123
0.000544733
0.000820687
0.000824903
0.000809764
0.00115998
0.00210403
0.00165489
0.000400586
0.000672146
0.000589589
0.000713515
0.00149928
0.000428438
0.00044482
0.000659418
0.00156373
0.000946143
1.40677e-15
0.000358316
0.000389773
0.000430008
0.000927935
0.00106567
0.000884712
0.00131052
0.00213341
0.00266676
0.000630766
0.000621114
0.000659647
0.000752296
0.00170361
0.000373219
0.000372692
0.000452261
0.000944555
0.00262487
1.69026e-12
0.000339938
0.000346773
0.000374265
0.000373274
0.000909056
0.00111694
0.00201133
0.00284057
0.00406962
0.000978976
0.000631036
0.000650593
0.000674153
0.000591619
0.000337187
0.000339963
0.000355399
0.000555315
0.00187879
7.29344e-06
0.000484099
0.000904007
0.000898362
0.000910033
0.000638365
0.000511947
0.000469535
0.000516157
0.000457402
0.000634504
0.000478178
0.000430802
0.000421606
0.000426161
0.00053867
0.000649395
0.000693358
0.000762583
0.00129898
0.00057895
0.000377226
0.0014779
0.00260211
0.00355755
0.00359088
0.00329052
0.00180205
0.000162805
0.000398429
0.000411997
0.000350639
0.00230844
0.00284986
0.00314029
0.00335977
0.00345485
0.00333695
0.00264648
0.00144614
0.00090401
0.000222889
0.0017831
0.00364754
0.00389338
0.00396875
0.00410926
0.00382979
0.000535717
0.000424107
0.000325528
0.000930325
0.00280431
0.00275955
0.0027979
0.00294821
0.00311744
0.00261608
0.000742743
0.00102963
0.000924651
0.000827191
0.00300726
0.0033417
0.00358208
0.00289378
0.00317278
0.00370588
0.00182626
0.000489098
0.000308432
0.00114491
0.00234558
0.00175473
0.00213563
0.00253782
0.002788
0.00213205
0.000485628
0.000953255
0.000891988
0.00102705
0.00278181
0.00300733
0.00231087
0.00150311
0.00179946
0.00282999
0.00216832
0.000589364
0.000293301
0.00110202
0.00167139
0.00103688
0.00155478
0.00188577
0.00226118
0.0021543
0.000472532
0.000818254
2.46457e-06
0.000983272
0.00243568
0.00230466
0.00133149
0.000916611
0.00108776
0.00212934
0.00217079
0.000939624
0.000430134
0.00099524
0.00117665
0.000670389
0.00137321
0.00144643
0.00183925
0.00230547
0.000481824
0.000533772
2.24045e-13
0.000758192
0.00175157
0.00144788
0.00103762
0.000865628
0.000911903
0.00189532
0.00214772
0.00173295
0.000877253
0.000935835
0.000904701
0.000656871
0.00153945
0.00110558
0.00140583
0.00194632
0.00131453
0.000263803
1e-15
0.000577967
0.00145883
0.00105006
0.00102952
0.00101194
0.000975902
0.00191216
0.00210485
0.00312376
0.00137461
0.000954624
0.000825151
0.0007802
0.00212756
0.000791594
0.00101785
0.0015158
0.00191451
0.000441685
9.9978e-16
0.000423824
0.00114621
0.00075204
0.00118954
0.00132501
0.00107046
0.00204676
0.0017854
0.00434033
0.00180464
0.00103111
0.00083245
0.000833502
0.00210504
0.000608629
0.000735894
0.00106253
0.00132121
0.00241252
3.78969e-11
0.00034976
0.000823916
0.00054474
0.000388028
0.00100134
0.00131989
0.00269202
0.00278435
0.00529556
0.00180572
0.00110564
0.000808456
0.00107023
0.000716545
0.000422768
0.000510072
0.000650294
0.000817166
0.00183681
2.2141e-05
0.000686332
0.00112512
0.00110837
0.00159183
9.92368e-13
1e-15
1e-15
1e-15
0.000327218
0.00203672
6.5871e-15
5.48628e-14
2.00536e-13
1.68018e-06
0.000531856
0.000745613
0.000990245
0.00162623
0.00335807
0.00167658
0.00148237
0.000533285
0.000798661
0.00248488
0.00317182
0.00224748
6.16462e-14
1e-15
1.01893e-15
1.8905e-10
3.15281e-15
0.00167755
0.00352456
0.00394521
0.00426949
0.00450827
0.00436537
0.00331007
0.0016611
0.00250715
0.000786321
0.000663335
0.00302959
0.0061981
0.00680144
0.00681005
0.00544422
0.00043149
1e-15
1e-15
0.00018321
0.00412691
0.00429438
0.00464753
0.00510156
0.00548206
0.00423944
0.000841539
0.00134014
0.00341315
0.000337295
0.00324611
0.00618215
0.00693429
0.00614424
0.00630743
0.00634783
0.0014992
1e-15
1e-15
5.54417e-08
0.00372333
0.00310887
0.00415968
0.00506928
0.00556877
0.00356281
0.000683955
0.00176607
0.00397913
0.00200654
0.00555069
0.00653092
0.00531304
0.00334789
0.0038297
0.00560878
0.00272267
0.00136086
0.000872838
8.43149e-12
0.00305902
0.00182221
0.00328355
0.00453214
0.0052018
0.00390145
0.0007864
0.00257444
0.00380974
0.00244096
0.00580507
0.00609131
0.0029157
0.00157679
0.00196807
0.0044529
0.00299682
0.00440972
0.00315679
0.000190593
0.0023881
0.000964624
0.00276127
0.00380128
0.00463983
0.00448266
0.000713658
0.00218912
0.00324248
0.00236754
0.00541198
0.00515696
0.00184129
0.00120922
0.00136724
0.0038874
0.00312406
0.00785789
0.00506457
0.000901972
0.00185277
0.000791427
0.0027493
0.00320107
0.00387325
0.00404218
0.00168589
0.000904994
0.00175431
0.00200478
0.00440304
0.00387339
0.00161467
0.00144844
0.00133196
0.00381009
0.00275437
0.0105601
0.00533453
0.00198906
0.00154038
0.000935788
0.00300244
0.00256512
0.00309878
0.00332693
0.00259563
0.00073341
0.000542999
0.00143345
0.00318976
0.00282596
0.00202583
0.0017414
0.00140211
0.00385288
0.00286523
0.0126879
0.00502944
0.00252152
0.00141505
0.00110687
0.00273331
0.00191227
0.00213935
0.00229686
0.00172373
0.00301449
0.000483948
0.000706057
0.00130578
0.00119084
0.000756949
0.00150769
0.00155018
0.00360486
0.00534828
0.0133439
0.00383105
0.00242462
0.00133002
0.00172838
0.00113305
0.00104434
0.00109491
0.00116753
0.000898055
0.00204513
0.00154756
)
;

boundaryField
{
    aeration
    {
        type            fixedValue;
        value           uniform 3.75e-05;
    }
    xsides
    {
        type            kqRWallFunction;
        value           nonuniform List<scalar> 
100
(
0.000680372
0.001488
0.000800253
0.00032867
0.00200151
0.00244319
0.00236686
0.00200693
0.00143096
0.000706414
0.000483755
0.000374319
0.000225852
0.000823489
0.00102787
0.000986125
0.000760649
0.000580947
0.000423002
0.000349332
0.000406193
7.08659e-05
0.000538456
0.000628552
0.000661066
0.000549579
0.000458956
0.000390595
0.000358316
0.000339938
0.000484099
0.000377226
0.000222889
0.000827191
0.00102705
0.000983272
0.000758192
0.000577967
0.000423824
0.00034976
0.000686332
0.00148237
0.000786321
0.000337295
0.00200654
0.00244096
0.00236754
0.00200478
0.00143345
0.000706057
0.00166546
0.00250239
0.00341531
0.00398698
0.00382096
0.00325992
0.00177877
0.000551306
0.000475172
0.00154586
0.000572037
0.000920199
0.000915267
0.000887534
4.28813e-06
3.70427e-13
1e-15
9.9979e-16
3.18849e-11
1.95418e-05
0.000503676
0.000568902
1.63947e-15
1.48381e-15
1.2343e-15
1.00971e-15
1.05487e-15
1.40677e-15
1.69026e-12
7.29344e-06
0.00057895
0.00090401
0.000924651
0.000891988
2.46457e-06
2.24045e-13
1e-15
9.9978e-16
3.78969e-11
2.2141e-05
0.00167658
0.00250715
0.00341315
0.00397913
0.00380974
0.00324248
0.00175431
0.000542999
0.000483948
0.00154756
)
;
    }
    zsides
    {
        type            kqRWallFunction;
        value           nonuniform List<scalar> 
400
(
0.000680372
0.001488
0.000800253
0.00032867
0.00200151
0.00244319
0.00236686
0.00200693
0.00143096
0.000706414
0.00112649
0.000542188
0.000658757
0.00314869
0.00554496
0.00583653
0.00551715
0.00445243
0.00314032
0.00128868
0.00111276
0.000792364
0.002933
0.00610494
0.00648618
0.00611058
0.00519781
0.00387815
0.00280506
0.00120031
0.00159982
0.00241052
0.00613467
0.00688584
0.00532137
0.00292814
0.00184289
0.0016079
0.0020093
0.000753304
1.12806e-12
0.00314525
0.0067793
0.00612495
0.00334617
0.00157799
0.00120881
0.00144667
0.00173383
0.00149848
1e-15
0.00221823
0.00679989
0.00628934
0.00382894
0.00196832
0.00136591
0.00132956
0.00139913
0.00154713
1e-15
5.67803e-14
0.00543243
0.00631934
0.00557679
0.00446481
0.00389305
0.0038093
0.00385951
0.0036031
1e-15
1e-15
1.54295e-15
0.000706463
0.00223371
0.00284465
0.00307077
0.00278366
0.00299147
0.00543546
0.00175763
1.89561e-14
1e-15
0.00138637
0.00478637
0.00696402
0.00944046
0.0114709
0.0131255
0.0134437
0.00205119
3.04591e-10
1e-15
1e-15
0.000857199
0.00307433
0.00479857
0.00502006
0.00475667
0.00369628
1.08018e-14
1.74425e-15
2.06872e-06
5.11668e-11
0.000566014
0.00175233
0.0025212
0.00284269
0.00290318
0.00252716
8.60633e-15
0.00163209
0.00409597
0.00371121
0.00305469
0.00238325
0.00185179
0.00153883
0.00141498
0.00132864
7.9114e-13
0.0035265
0.00428879
0.00309709
0.00181265
0.000959921
0.00078996
0.000935801
0.00110793
0.00172451
6.79595e-07
0.00394404
0.00463976
0.00414934
0.00327312
0.00275061
0.00273784
0.00299907
0.00273767
0.00113389
0.000729213
0.00426873
0.00510014
0.00506494
0.00453013
0.00380024
0.00319903
0.00256452
0.00191204
0.00104441
0.00075135
0.00451822
0.0054809
0.00556793
0.00520174
0.00463984
0.00387357
0.00309847
0.00213896
0.00109491
0.00100909
0.00437222
0.00421477
0.00353718
0.00388403
0.00447852
0.0040443
0.00332882
0.00229737
0.00116738
0.00165904
0.00331347
0.0008395
0.000684394
0.000788429
0.000714507
0.00166949
0.00259549
0.0017257
0.000902528
0.00337173
0.00166816
0.00134672
0.00177289
0.00259264
0.00221222
0.000918003
0.000728838
0.00301801
0.00204656
0.00166546
0.00250239
0.00341531
0.00398698
0.00382096
0.00325992
0.00177877
0.000551306
0.000475172
0.00154586
0.000686332
0.00148237
0.000786321
0.000337295
0.00200654
0.00244096
0.00236754
0.00200478
0.00143345
0.000706057
0.00112512
0.000533285
0.000663335
0.00324611
0.00555069
0.00580507
0.00541198
0.00440304
0.00318976
0.00130578
0.00110837
0.000798661
0.00302959
0.00618215
0.00653092
0.00609131
0.00515696
0.00387339
0.00282596
0.00119084
0.00159183
0.00248488
0.0061981
0.00693429
0.00531304
0.0029157
0.00184129
0.00161467
0.00202583
0.000756949
9.92368e-13
0.00317182
0.00680144
0.00614424
0.00334789
0.00157679
0.00120922
0.00144844
0.0017414
0.00150769
1e-15
0.00224748
0.00681005
0.00630743
0.0038297
0.00196807
0.00136724
0.00133196
0.00140211
0.00155018
1e-15
6.16462e-14
0.00544422
0.00634783
0.00560878
0.0044529
0.0038874
0.00381009
0.00385288
0.00360486
1e-15
1e-15
0.00043149
0.0014992
0.00272267
0.00299682
0.00312406
0.00275437
0.00286523
0.00534828
0.000327218
1.01893e-15
1e-15
1e-15
0.00136086
0.00440972
0.00785789
0.0105601
0.0126879
0.0133439
0.00203672
1.8905e-10
1e-15
1e-15
0.000872838
0.00315679
0.00506457
0.00533453
0.00502944
0.00383105
6.5871e-15
3.15281e-15
0.00018321
5.54417e-08
8.43149e-12
0.000190593
0.000901972
0.00198906
0.00252152
0.00242462
5.48628e-14
0.00167755
0.00412691
0.00372333
0.00305902
0.0023881
0.00185277
0.00154038
0.00141505
0.00133002
2.00536e-13
0.00352456
0.00429438
0.00310887
0.00182221
0.000964624
0.000791427
0.000935788
0.00110687
0.00172838
1.68018e-06
0.00394521
0.00464753
0.00415968
0.00328355
0.00276127
0.0027493
0.00300244
0.00273331
0.00113305
0.000531856
0.00426949
0.00510156
0.00506928
0.00453214
0.00380128
0.00320107
0.00256512
0.00191227
0.00104434
0.000745613
0.00450827
0.00548206
0.00556877
0.0052018
0.00463983
0.00387325
0.00309878
0.00213935
0.00109491
0.000990245
0.00436537
0.00423944
0.00356281
0.00390145
0.00448266
0.00404218
0.00332693
0.00229686
0.00116753
0.00162623
0.00331007
0.000841539
0.000683955
0.0007864
0.000713658
0.00168589
0.00259563
0.00172373
0.000898055
0.00335807
0.0016611
0.00134014
0.00176607
0.00257444
0.00218912
0.000904994
0.00073341
0.00301449
0.00204513
0.00167658
0.00250715
0.00341315
0.00397913
0.00380974
0.00324248
0.00175431
0.000542999
0.000483948
0.00154756
)
;
    }
    outlet
    {
        type            inletOutlet;
        phi             phi.air;
        inletValue      uniform 3.75e-05;
        value           nonuniform List<scalar> 
100
(
3.75e-05
3.75e-05
3.75e-05
3.75e-05
3.75e-05
3.75e-05
3.75e-05
3.75e-05
3.75e-05
3.75e-05
3.75e-05
3.75e-05
3.75e-05
3.75e-05
3.75e-05
3.75e-05
3.75e-05
3.75e-05
3.75e-05
3.75e-05
3.75e-05
3.75e-05
3.75e-05
3.75e-05
3.75e-05
0.00154713
0.00131759
0.00111694
0.00131989
0.00155018
0.0036031
0.00267433
0.00201133
0.00269202
0.00360486
0.00543546
0.00285859
0.00284057
0.00278435
0.00534828
0.0134437
0.00545545
0.00406962
0.00529556
0.0133439
0.00369628
0.00182971
0.000978976
0.00180572
0.00383105
0.00252716
0.00115662
0.000631036
0.00110564
0.00242462
0.00132864
0.000808615
0.000650593
0.000808456
0.00133002
3.75e-05
3.75e-05
3.75e-05
3.75e-05
3.75e-05
3.75e-05
3.75e-05
3.75e-05
3.75e-05
3.75e-05
3.75e-05
3.75e-05
3.75e-05
3.75e-05
3.75e-05
3.75e-05
3.75e-05
3.75e-05
3.75e-05
3.75e-05
3.75e-05
3.75e-05
3.75e-05
3.75e-05
3.75e-05
3.75e-05
3.75e-05
3.75e-05
3.75e-05
3.75e-05
0.00204656
0.00183902
0.00187879
0.00183681
0.00204513
0.00154586
1.95418e-05
7.29344e-06
2.2141e-05
0.00154756
)
;
    }
}


// ************************************************************************* //
