/*--------------------------------*- C++ -*----------------------------------*\
| =========                 |                                                 |
| \\      /  F ield         | OpenFOAM: The Open Source CFD Toolbox           |
|  \\    /   O peration     | Version:  2.3.0                                 |
|   \\  /    A nd           | Web:      www.OpenFOAM.org                      |
|    \\/     M anipulation  |                                                 |
\*---------------------------------------------------------------------------*/
FoamFile
{
    version     2.0;
    format      ascii;
    class       volVectorField;
    location    "2.70074";
    object      Ur;
}
// * * * * * * * * * * * * * * * * * * * * * * * * * * * * * * * * * * * * * //

dimensions      [0 1 -1 0 0 0 0];

internalField   nonuniform List<vector> 
1000
(
(-1.19152e-05 0.00209191 -8.01599e-06)
(-3.07181e-05 0.00218193 -5.79834e-06)
(-8.45221e-06 0.00264144 -5.2973e-06)
(8.84874e-05 0.00293389 6.33717e-06)
(0.000104552 0.0028656 8.46376e-06)
(4.49088e-05 0.00264879 4.27764e-06)
(-1.43037e-05 0.00241103 3.35352e-07)
(-7.89023e-05 0.0020486 -4.97434e-06)
(-6.24813e-05 0.00262611 -1.97481e-05)
(0.000173263 0.00230646 -2.17683e-05)
(6.34357e-05 0.00245022 -2.34295e-06)
(-2.69106e-05 0.0029163 1.39689e-06)
(-8.4742e-05 0.00320078 3.81007e-06)
(-0.000113874 0.00350708 5.7779e-06)
(-9.33904e-05 0.00370829 6.12991e-06)
(-1.79524e-05 0.00383883 3.57623e-06)
(0.000121564 0.00391996 7.73616e-08)
(8.15721e-05 0.00346843 -1.79807e-06)
(-0.000111452 0.00231665 1.61747e-05)
(-9.05222e-05 0.00271123 7.46601e-07)
(-2.88786e-05 0.00212698 -1.70717e-06)
(-4.38645e-05 0.0022894 -1.90171e-06)
(-1.2523e-05 0.00239863 1.50514e-06)
(5.18836e-05 0.00244701 3.36478e-07)
(6.46122e-05 0.00244721 3.26578e-06)
(1.20417e-05 0.00241104 1.39562e-05)
(-6.83248e-05 0.00237909 2.20676e-05)
(-8.33861e-05 0.00233509 1.28526e-05)
(3.15951e-05 0.00261641 -2.25161e-06)
(0.000113197 0.00255457 5.42561e-07)
(8.85865e-05 0.00233224 4.7183e-06)
(-3.20303e-05 0.00233045 9.59743e-06)
(-6.70998e-05 0.00233434 5.54822e-06)
(-0.000101792 0.00236168 1.02331e-06)
(-9.99421e-05 0.00239475 -3.7737e-06)
(-3.67494e-05 0.00241713 -5.5671e-06)
(7.85618e-06 0.00242328 -2.79447e-06)
(4.43857e-05 0.00243002 -4.18446e-07)
(-0.000150423 0.00242025 5.38436e-06)
(-6.01545e-05 0.0028115 1.08113e-05)
(-2.74771e-05 0.00211981 -7.4578e-06)
(4.72261e-06 0.00222763 -3.75553e-06)
(2.81113e-05 0.00238056 -3.06395e-06)
(6.19133e-05 0.0024627 -4.52201e-06)
(4.93817e-05 0.00253066 -2.87334e-06)
(-7.58241e-06 0.00253245 5.98431e-08)
(-0.000109308 0.00247579 1.38653e-05)
(-0.000105926 0.00249892 1.48145e-05)
(5.74587e-05 0.00240748 1.61949e-05)
(2.50888e-05 0.00250964 -1.07784e-05)
(5.78173e-05 0.00237266 9.32074e-06)
(-4.05395e-05 0.00238083 2.74301e-06)
(-6.95292e-05 0.00238473 -1.40049e-06)
(-9.7845e-05 0.00238052 -2.77106e-06)
(-9.57667e-05 0.00238324 -2.15511e-06)
(-2.7725e-05 0.00238435 1.00984e-07)
(8.64886e-06 0.00237342 -5.00259e-06)
(-1.71919e-05 0.00237968 -7.25589e-07)
(-0.000210217 0.00246779 4.17136e-06)
(-4.77883e-05 0.00219044 1.80241e-05)
(8.71621e-07 0.0022982 -3.41207e-06)
(5.54013e-05 0.00220927 1.64327e-06)
(9.54706e-05 0.00242392 -1.96522e-07)
(0.000115048 0.00251681 -3.84483e-06)
(5.13147e-05 0.00257797 -1.40779e-06)
(-1.68816e-05 0.00260636 -3.12117e-06)
(-0.000105071 0.0025366 7.47085e-06)
(-0.000106984 0.00253624 1.73673e-05)
(-8.19634e-05 0.00253891 1.86415e-05)
(-2.25829e-05 0.00246989 -2.49332e-06)
(3.33181e-05 0.00238969 4.06663e-06)
(-4.2652e-05 0.00240064 2.24667e-06)
(-5.87808e-05 0.00238676 -1.41704e-06)
(-8.30328e-05 0.0023803 -4.07357e-06)
(-9.93305e-05 0.00236598 -2.73658e-06)
(-8.77673e-05 0.00236536 -7.0742e-06)
(2.19195e-05 0.00233086 -3.69059e-06)
(-2.49316e-05 0.00223304 1.08984e-06)
(-0.000139514 0.0022363 4.30003e-06)
(-2.49506e-06 0.0019939 -1.19055e-05)
(2.49011e-05 0.00173396 2.34698e-06)
(0.000111176 0.00149308 0.00014562)
(0.00015965 0.00240632 6.04093e-06)
(0.000166737 0.00248656 -3.6299e-06)
(6.77267e-05 0.0025441 -6.47977e-07)
(-1.79567e-05 0.00260135 -2.17281e-06)
(-0.000105638 0.00252695 2.3258e-06)
(-0.000131441 0.00252513 7.25583e-06)
(-0.000152648 0.00264581 -4.21465e-06)
(-6.11358e-05 0.00232875 6.2463e-06)
(1.12562e-05 0.00238984 -2.03983e-06)
(-3.20586e-05 0.00239515 3.02211e-06)
(-4.24084e-05 0.00236432 -9.6687e-07)
(-5.79687e-05 0.00235989 -2.72764e-06)
(-8.98037e-05 0.00235251 -1.08059e-06)
(-8.70371e-05 0.00186322 -1.49265e-05)
(-2.51349e-05 0.00227762 -4.81968e-06)
(-4.61175e-06 0.00218485 4.89872e-07)
(-3.58714e-05 0.00209527 9.82448e-06)
(1.4533e-06 0.00199719 -1.14315e-05)
(-8.75632e-07 0.000521401 3.94102e-07)
(5.28891e-05 0.000347465 3.20826e-06)
(0.000161421 0.00232706 9.21192e-06)
(0.000169454 0.00239392 9.06336e-07)
(6.80526e-05 0.0024558 3.31215e-06)
(-1.59045e-05 0.0025121 -2.63514e-08)
(-0.00013193 0.00250562 1.40094e-06)
(-0.000134249 0.00250831 9.74988e-06)
(-0.000151071 0.00268639 -2.85516e-05)
(-0.000103711 0.00220025 -2.3138e-05)
(-1.49695e-05 0.00237217 -4.83539e-06)
(-2.38971e-05 0.00236598 2.33566e-06)
(-2.39716e-05 0.00232478 5.93684e-08)
(-3.80426e-05 0.002336 -1.77796e-06)
(-3.1653e-05 0.00234449 -1.42951e-06)
(-1.35392e-05 0.000775955 -7.10922e-06)
(-3.99991e-05 0.00226541 -4.28013e-06)
(2.50802e-06 0.00218583 -1.42768e-06)
(4.12518e-05 0.0020998 -3.31796e-06)
(3.33915e-05 0.00205397 -7.98096e-06)
(2.32836e-06 -8.59078e-05 -2.86513e-07)
(4.51842e-05 -0.000111649 4.82427e-07)
(0.000103932 0.00228791 1.77436e-06)
(8.83464e-05 0.00229929 9.30414e-07)
(2.4274e-05 0.00237772 3.80776e-06)
(-2.30999e-05 0.00245593 8.09197e-07)
(-0.000100641 0.00245703 1.45401e-06)
(-7.62174e-05 0.00240119 -1.94741e-06)
(-0.000287675 0.00269019 -2.70622e-05)
(-0.000112112 0.00215106 -4.11836e-05)
(-2.70368e-05 0.00235248 -4.31885e-06)
(-2.06891e-05 0.002342 2.46323e-06)
(-1.5594e-05 0.00228495 -5.17471e-07)
(-2.08884e-05 0.00230376 -3.73766e-06)
(-1.12123e-05 0.00188395 3.5686e-06)
(-3.22704e-06 9.0152e-05 1.16733e-06)
(4.25339e-06 0.00169995 -1.30427e-05)
(2.0277e-05 0.00222778 -2.83904e-06)
(5.6753e-05 0.00213642 -1.38392e-06)
(4.88224e-05 0.00208796 1.31963e-06)
(3.10699e-06 -7.74009e-05 -1.65473e-06)
(2.55848e-05 -9.16806e-05 -2.84769e-06)
(5.10342e-05 0.00198981 1.07332e-05)
(2.54312e-05 0.00226414 -3.09317e-06)
(2.73272e-06 0.00232581 -2.0743e-06)
(3.27107e-06 0.00241825 -2.09666e-06)
(3.47739e-08 0.00239232 -2.69879e-07)
(-7.58335e-05 0.00248113 -1.0084e-05)
(-0.000416747 0.00258527 -2.56609e-05)
(-4.02771e-05 0.00215031 -2.84758e-05)
(-3.59358e-05 0.00232565 -3.58771e-06)
(-1.19942e-05 0.00232381 1.99638e-06)
(-1.52629e-05 0.00226284 4.45433e-07)
(-7.11191e-06 0.00227893 -4.25582e-06)
(-5.56584e-06 0.000865026 1.31348e-06)
(1.74599e-05 -2.50744e-05 -1.92727e-07)
(2.17064e-05 0.000524225 -3.69228e-07)
(3.02451e-05 0.00169287 -3.16704e-06)
(4.42181e-05 0.00218717 -1.58676e-06)
(3.4197e-05 0.00213448 7.70929e-06)
(9.78226e-08 -9.44269e-05 3.52759e-07)
(-7.59141e-06 -0.000100072 -1.15725e-06)
(-5.08563e-06 0.0011205 5.52362e-06)
(1.66441e-06 0.00228864 -7.94229e-06)
(1.18386e-05 0.00234009 -1.12453e-05)
(3.44867e-05 0.00239722 -3.23953e-06)
(2.34217e-05 0.00242428 -1.92959e-06)
(-0.000118957 0.00258529 -2.58551e-05)
(-0.000282327 0.00250048 -3.41001e-05)
(-2.97629e-05 0.00211853 -1.49574e-05)
(-3.03043e-05 0.00230934 -5.56483e-06)
(-1.89062e-05 0.00231265 -4.19054e-06)
(-1.12048e-05 0.00226352 1.08756e-06)
(-1.16396e-06 0.00226719 -1.23631e-06)
(4.02102e-06 0.000136343 -5.61799e-09)
(2.01689e-05 -4.59792e-05 -3.83103e-07)
(2.11997e-05 -7.6278e-05 3.66127e-07)
(1.69463e-05 0.00051539 1.61708e-06)
(3.18937e-05 0.00172297 -1.45048e-06)
(1.72049e-05 0.0021873 1.18884e-06)
(-2.97267e-06 -0.000138081 1.35049e-06)
(-1.86299e-05 -0.000496889 4.815e-07)
(-2.06385e-05 0.000138658 -2.89998e-07)
(1.13705e-06 0.00113942 -4.38211e-06)
(1.60145e-05 0.00116836 -1.26154e-05)
(4.34402e-06 0.00243733 -1.1786e-06)
(-2.67593e-05 0.00250121 -6.00235e-07)
(-0.000165055 0.00274859 -1.60311e-05)
(-9.1906e-05 0.00238785 -2.7344e-05)
(-7.54283e-05 0.00202242 -1.59162e-05)
(-4.54045e-05 0.00229264 -3.3132e-06)
(-2.433e-05 0.00226348 -4.53784e-06)
(-2.81162e-05 0.00110878 -3.04059e-06)
(-3.67452e-06 0.0011189 -3.83866e-07)
(3.19841e-06 -3.17968e-05 1.3412e-07)
(5.21666e-06 -6.30386e-05 6.87798e-07)
(5.12194e-06 -9.14215e-05 1.18323e-06)
(1.70592e-07 -9.45083e-05 1.34433e-06)
(6.42973e-06 0.000704387 -8.84027e-06)
(3.63766e-06 0.00220423 -7.40647e-06)
(-1.19896e-05 0.00303786 -2.74738e-05)
(-1.77424e-05 0.00345819 -1.45979e-05)
(1.11303e-05 0.0041657 -1.23551e-05)
(0.000107628 0.0041802 1.32956e-06)
(0.000116931 0.00407022 5.63785e-06)
(3.86699e-05 0.00367354 1.79641e-06)
(-2.51735e-05 0.00322916 -3.7413e-06)
(-5.00645e-05 0.00285833 -1.33216e-05)
(-6.05055e-05 0.00227697 -3.91072e-05)
(8.18e-05 0.00217469 -3.09071e-05)
(3.53367e-05 0.00295742 -6.17332e-06)
(-3.21785e-05 0.00335664 -7.89555e-07)
(-9.73055e-05 0.00370048 3.15339e-06)
(-0.000144422 0.00407066 5.07287e-06)
(-0.000113597 0.0043015 4.94888e-06)
(-3.38599e-05 0.00435928 -1.53163e-06)
(0.000111403 0.00453025 -2.29674e-06)
(8.18224e-05 0.00400682 -3.98827e-06)
(-8.08555e-05 0.00292411 2.67598e-05)
(-7.52151e-05 0.00200128 -8.88205e-06)
(-5.35562e-05 0.00216651 -1.58185e-05)
(-1.23483e-05 0.00226479 -5.7829e-06)
(1.46968e-05 0.00240187 -3.00188e-07)
(7.80631e-05 0.00245033 3.46705e-06)
(8.80489e-05 0.00246352 5.50981e-06)
(2.16315e-05 0.00242716 1.83168e-05)
(-6.73297e-05 0.00238277 1.78296e-05)
(-5.74228e-05 0.00233023 2.20992e-05)
(4.6758e-06 0.00231743 1.49487e-05)
(8.37703e-05 0.00231465 -1.05355e-05)
(7.2833e-05 0.00232677 2.24407e-06)
(-6.66341e-05 0.0023338 5.57342e-06)
(-0.000124869 0.00233045 5.42065e-06)
(-0.00015551 0.00234678 6.44386e-06)
(-0.000152019 0.00238526 9.63355e-06)
(-8.35676e-05 0.00240491 6.60603e-06)
(-3.22152e-05 0.00240211 3.10585e-06)
(2.87195e-05 0.00244797 4.40066e-06)
(-0.000147619 0.00241459 7.94888e-06)
(-7.31502e-05 0.00228719 2.23858e-05)
(-2.91487e-05 0.0021711 3.39993e-06)
(4.27381e-06 0.00219778 -1.72486e-06)
(3.74129e-05 0.0023657 -5.64263e-06)
(8.2675e-05 0.00246978 -5.99513e-06)
(5.55825e-05 0.00253955 -1.21583e-06)
(-1.41099e-06 0.00255802 8.53179e-07)
(-0.000125216 0.00249815 8.13908e-06)
(-8.12146e-05 0.00247975 1.94074e-05)
(1.13963e-05 0.00245295 3.52144e-05)
(6.12553e-05 0.00242675 -2.13997e-05)
(2.47308e-05 0.00237979 1.64288e-06)
(-0.000106911 0.00239094 -4.85166e-07)
(-0.000133522 0.00238549 -1.48361e-06)
(-0.000149416 0.00237311 -2.26826e-06)
(-0.00014501 0.00237186 -4.13751e-06)
(-7.49107e-05 0.00236943 -4.04589e-06)
(-5.67534e-05 0.00235355 -1.21884e-06)
(-7.11905e-05 0.002402 -3.35239e-06)
(-0.00024205 0.00246157 -5.53276e-06)
(-5.92204e-05 0.00234992 -2.87264e-06)
(-6.88712e-07 0.00169643 1.40011e-05)
(6.94791e-05 0.00178344 9.52582e-06)
(0.000102063 0.00241873 -2.8194e-06)
(0.000137506 0.00252312 -2.69472e-06)
(5.89761e-05 0.00260376 -9.29373e-07)
(2.31449e-07 0.00265125 -2.71079e-06)
(-0.000119757 0.00257002 3.0105e-06)
(-0.000110008 0.00252698 2.01017e-05)
(-6.76037e-05 0.00252778 3.31453e-05)
(-7.11087e-06 0.00246927 -2.32401e-05)
(-8.95479e-06 0.00239287 -3.35233e-06)
(-0.000121956 0.00242122 6.78082e-07)
(-0.00011966 0.00238517 -3.39121e-07)
(-0.000130255 0.00237521 -1.57622e-06)
(-0.000133722 0.00235072 -2.9149e-06)
(-0.000116754 0.00236882 -4.91137e-06)
(-3.2498e-05 0.00232427 -2.55647e-06)
(-7.091e-05 0.00222709 -6.70645e-07)
(-0.000146323 0.00212302 -1.04316e-05)
(-3.36606e-05 0.00205555 -5.03752e-06)
(-9.94343e-06 0.000481098 2.17621e-06)
(4.94721e-05 0.000526931 1.37397e-06)
(0.000153303 0.00239845 -4.36598e-06)
(0.000196428 0.00250656 9.66011e-07)
(8.40478e-05 0.00258341 3.49437e-07)
(1.28515e-05 0.00266249 -2.83401e-06)
(-0.000126442 0.00258561 1.4027e-06)
(-0.000169791 0.00257402 1.46934e-05)
(-0.000152234 0.00261022 -6.75431e-06)
(-8.63023e-05 0.00244863 -6.96725e-06)
(-3.42512e-05 0.00239453 -7.63575e-06)
(-9.95828e-05 0.00242014 1.9233e-06)
(-9.15465e-05 0.00236601 5.78141e-07)
(-9.22413e-05 0.00236046 -3.6056e-07)
(-0.000116064 0.00235078 -5.37359e-07)
(-0.000103564 0.00178456 -3.34338e-06)
(-4.34376e-05 0.00224458 -2.3962e-06)
(-2.05032e-05 0.00217643 -7.17453e-07)
(-4.52039e-05 0.00205735 -4.56645e-08)
(7.2219e-06 0.00201628 1.68099e-05)
(8.42303e-07 -0.000109199 -2.55187e-07)
(4.8244e-05 -0.000115592 -4.89156e-07)
(0.000171825 0.00233455 -5.70303e-07)
(0.000199878 0.00242151 4.63743e-06)
(9.94725e-05 0.00252234 5.87939e-06)
(1.85562e-05 0.00260212 -5.90298e-08)
(-0.000146758 0.00259237 1.53893e-06)
(-0.000167349 0.0025927 8.79193e-06)
(-0.000156689 0.00264696 -4.93526e-05)
(-0.000122845 0.00237029 -1.5978e-05)
(-4.38307e-05 0.00237314 -7.56089e-06)
(-7.04036e-05 0.00239353 1.91157e-06)
(-5.53916e-05 0.00232682 -3.43261e-07)
(-5.99437e-05 0.00233966 6.42863e-07)
(-3.58067e-05 0.00194222 -1.19404e-07)
(-5.03221e-05 0.00066967 -2.44461e-07)
(-5.10911e-05 0.00222151 -1.67746e-06)
(-7.90716e-06 0.00216102 1.07325e-06)
(2.78709e-05 0.00208489 7.00189e-06)
(2.33973e-05 0.00210639 1.53352e-05)
(2.44233e-06 -0.000112898 -8.93839e-07)
(5.38836e-05 -0.00010619 -4.77534e-07)
(0.000108434 0.00231584 -9.36642e-07)
(9.47678e-05 0.00233884 4.34191e-06)
(2.05407e-05 0.00248772 3.77422e-06)
(-1.79213e-05 0.00259509 7.23892e-07)
(-0.000103867 0.00255982 1.7116e-06)
(-0.000107287 0.0025123 8.15148e-06)
(-0.000236562 0.00270342 -4.79688e-05)
(-0.000142506 0.00222308 -2.46557e-05)
(-4.4647e-05 0.00235632 -3.17102e-06)
(-4.93294e-05 0.00237013 1.55261e-06)
(-3.59058e-05 0.00227523 -1.8607e-06)
(-3.32068e-05 0.0023007 -1.16788e-06)
(-5.3826e-06 0.000946136 -2.92055e-07)
(-8.71251e-06 4.52236e-05 7.09322e-07)
(1.65093e-06 0.00167162 -7.81317e-07)
(3.80254e-05 0.00217532 -2.72413e-06)
(5.44491e-05 0.00212418 -4.35529e-06)
(4.76482e-05 0.00212498 1.84357e-06)
(6.18792e-06 -0.000112863 -2.60584e-06)
(1.9236e-05 -0.000112157 -7.94328e-08)
(4.49053e-05 0.00187911 -3.28721e-06)
(1.13471e-05 0.00231801 -4.08912e-06)
(-2.69058e-05 0.00242498 -5.58645e-06)
(-6.64822e-06 0.00255525 1.88969e-07)
(1.01067e-05 0.00249688 1.39012e-06)
(-9.19983e-05 0.00260784 7.45263e-06)
(-0.00040258 0.00272882 -2.05104e-05)
(-9.1682e-05 0.00212586 -1.94036e-05)
(-5.21132e-05 0.00233217 3.92716e-07)
(-2.4947e-05 0.0023436 8.05813e-07)
(-3.42284e-05 0.00225201 -1.83479e-06)
(-1.42518e-05 0.00227058 -1.0456e-06)
(-5.55698e-06 0.000205938 5.19736e-07)
(1.893e-05 -3.37201e-05 -2.05164e-07)
(2.26991e-05 0.000497085 -3.48654e-07)
(3.99521e-05 0.00164644 -2.18826e-06)
(7.21575e-05 0.00214373 -1.01192e-05)
(4.0117e-05 0.00213929 8.85849e-07)
(-6.43555e-07 -0.000169251 2.72141e-07)
(-1.15343e-05 -0.000151718 -3.4303e-07)
(-1.43773e-05 0.000757702 -2.90308e-06)
(-1.54355e-05 0.00234326 -1.24413e-05)
(-1.82142e-05 0.00243071 -1.6484e-05)
(2.19077e-05 0.00251886 2.55126e-06)
(2.4709e-06 0.00255642 1.49471e-06)
(-0.00015412 0.00270443 -2.04441e-05)
(-0.000362952 0.00262903 -8.89531e-06)
(-2.73541e-05 0.00206376 -7.88305e-06)
(-4.20243e-05 0.00232226 -1.43278e-06)
(-2.69486e-05 0.0023253 -4.01417e-06)
(-1.78815e-05 0.00225578 1.29291e-06)
(-7.32742e-06 0.0022613 -4.2006e-07)
(3.51645e-06 -1.74674e-06 3.2089e-07)
(1.90018e-05 -5.90442e-05 3.51851e-07)
(1.63462e-05 -0.000111492 7.99805e-07)
(1.77445e-05 0.000485314 3.31948e-06)
(4.43319e-05 0.0019032 -2.09906e-07)
(1.7588e-05 0.00219087 -6.31547e-06)
(-4.11268e-06 -0.000434271 3.18573e-06)
(-2.00931e-05 -0.00167688 6.12924e-07)
(-2.18938e-05 -0.000355899 -4.1963e-07)
(-5.07141e-07 0.00114833 -5.28335e-06)
(3.80689e-06 0.00120178 -1.16644e-05)
(-5.84771e-06 0.00259772 2.57393e-06)
(-6.69514e-05 0.00266929 -2.11181e-06)
(-0.000212674 0.00288627 -2.80918e-05)
(-0.000175289 0.00243367 -1.83289e-05)
(-7.35093e-05 0.0019358 -1.38598e-05)
(-5.42382e-05 0.00231272 -1.60112e-06)
(-3.37435e-05 0.00226416 -4.29497e-06)
(-3.64276e-05 0.00109352 3.01797e-06)
(-4.86833e-06 0.00111437 7.5337e-08)
(3.10506e-06 -5.75719e-05 2.89455e-09)
(5.85938e-06 -0.00011829 4.06009e-07)
(7.94987e-06 -0.000206185 1.81699e-06)
(1.241e-06 -0.000108168 2.1854e-06)
(8.25906e-06 0.00136862 2.18245e-07)
(3.93339e-06 0.00220511 -1.73954e-06)
(-6.69583e-06 0.00354086 -5.77152e-08)
(-5.96636e-06 0.00397356 -5.80541e-08)
(1.01676e-05 0.00456602 -1.68259e-07)
(0.000107806 0.00458675 1.33795e-08)
(0.000125282 0.00436497 8.45255e-08)
(3.94312e-05 0.00392062 -2.06197e-08)
(-2.52177e-05 0.00339664 -6.42309e-08)
(-5.43362e-05 0.00307248 3.80841e-07)
(-5.81829e-05 0.00235851 -2.17534e-06)
(7.25016e-05 0.00224785 -3.91252e-07)
(3.12147e-05 0.00307756 -2.46973e-07)
(-4.02032e-05 0.00342639 -7.24929e-08)
(-0.000108263 0.00378421 6.34739e-07)
(-0.000156462 0.00417354 -2.39306e-07)
(-0.000119378 0.00442562 6.83704e-08)
(-3.65147e-05 0.0045095 4.36647e-07)
(0.000111169 0.00471407 -1.14507e-07)
(9.12766e-05 0.00422626 -4.0014e-07)
(-5.43284e-05 0.00312871 -1.11865e-07)
(-7.19753e-05 0.00220555 -2.45446e-07)
(-5.05504e-05 0.0022717 -1.07653e-07)
(-4.622e-05 0.00229089 -2.76091e-07)
(-7.99254e-07 0.00241544 1.53074e-07)
(7.10771e-05 0.00245417 5.21715e-07)
(8.91978e-05 0.00246336 1.33872e-07)
(2.48688e-05 0.00242003 -1.10776e-08)
(-6.47393e-05 0.00238124 4.44497e-08)
(-6.17758e-05 0.00231702 9.42315e-07)
(-4.83894e-06 0.00232877 2.10156e-06)
(7.7269e-05 0.00231993 -2.61221e-06)
(5.74897e-05 0.00232603 -1.03343e-06)
(-7.04374e-05 0.00232898 9.74484e-07)
(-0.000124573 0.00232754 9.97688e-07)
(-0.000156464 0.00234454 9.76089e-08)
(-0.000151681 0.00238148 5.99988e-07)
(-8.38684e-05 0.00234452 5.01396e-07)
(-3.73455e-05 0.00240615 4.50925e-07)
(2.43367e-05 0.00246281 2.28795e-07)
(-0.00011816 0.00239594 -7.69669e-08)
(-8.12461e-05 0.0023469 -5.35928e-07)
(-4.03851e-05 0.00169356 -5.58322e-08)
(-3.18354e-05 0.00174002 -1.89594e-07)
(3.55088e-05 0.00236919 9.25199e-09)
(8.1764e-05 0.00246803 4.93068e-07)
(5.55791e-05 0.00253821 4.85114e-07)
(1.3155e-06 0.00255916 1.17338e-07)
(-0.000120161 0.00250512 -5.93447e-07)
(-8.29853e-05 0.00247134 -9.92774e-07)
(5.22379e-06 0.00247071 1.91089e-07)
(4.73799e-05 0.00241486 1.74341e-06)
(4.08516e-06 0.00237986 -7.13727e-07)
(-0.000104471 0.00238977 1.60047e-07)
(-0.00012729 0.00238053 1.48647e-07)
(-0.000143164 0.00237181 1.99984e-08)
(-0.000136225 0.00236997 -1.24408e-07)
(-7.22301e-05 0.00222455 -2.21849e-07)
(-5.79475e-05 0.002354 -1.40126e-07)
(-6.79629e-05 0.00241282 5.19868e-08)
(-0.000231407 0.0024667 -4.46439e-08)
(-6.73983e-05 0.00230408 -3.71359e-07)
(-2.51213e-05 0.000579423 -3.59011e-08)
(3.19507e-05 0.000542809 -1.2367e-06)
(7.79198e-05 0.00241708 -1.00527e-06)
(0.000141135 0.0025203 -2.88414e-07)
(6.08004e-05 0.00260139 5.03759e-08)
(4.12478e-06 0.00264459 -1.02402e-07)
(-0.000115857 0.00257689 -2.56897e-06)
(-0.000120903 0.00252715 -2.98665e-06)
(-2.99855e-05 0.0025092 2.09712e-06)
(-1.52882e-05 0.00243223 -3.83738e-06)
(-3.4775e-05 0.00239775 1.95976e-07)
(-0.000119689 0.00241768 1.92699e-07)
(-0.000111564 0.00238107 8.67243e-08)
(-0.000119763 0.0023766 2.45741e-08)
(-0.000124162 0.00234285 -2.47136e-08)
(-0.000104991 0.00183261 -6.0008e-08)
(-2.4155e-05 0.00233466 1.06059e-08)
(-5.50164e-05 0.00223187 -6.77394e-08)
(-0.00013459 0.00217267 -9.59455e-08)
(-2.7974e-05 0.00212416 -4.72112e-08)
(-1.52284e-05 -9.05852e-05 4.03155e-07)
(6.83449e-05 -7.5034e-05 -1.79729e-06)
(0.00015987 0.00240657 -1.65577e-06)
(0.0001959 0.00250507 -7.03265e-07)
(8.5422e-05 0.00258246 -2.79525e-07)
(1.67599e-05 0.00265374 -3.41417e-07)
(-0.000126405 0.00259018 -1.96178e-06)
(-0.000161895 0.00256305 1.32979e-06)
(-9.00392e-05 0.00255725 4.37139e-07)
(-7.74436e-05 0.0024174 -2.24725e-06)
(-5.34274e-05 0.00239383 1.04766e-06)
(-0.000100631 0.00241714 -4.12391e-07)
(-8.70726e-05 0.0023638 -1.57814e-08)
(-8.47949e-05 0.00236053 8.64428e-09)
(-0.000112251 0.00234808 -1.51695e-08)
(-8.94408e-05 0.000878926 -5.54411e-09)
(-3.08661e-05 0.00219821 -1.4511e-08)
(-1.5526e-05 0.00217828 -1.57168e-08)
(-4.12577e-05 0.00212084 7.84642e-08)
(-2.05975e-05 0.00212998 -7.90509e-08)
(-3.93001e-07 -9.89203e-05 1.58924e-07)
(4.77829e-05 -0.000114849 -1.22409e-07)
(0.000159436 0.00235334 -5.64516e-07)
(0.000196609 0.00243204 4.03223e-07)
(9.97856e-05 0.00252343 1.0287e-07)
(2.20417e-05 0.00259446 -2.11276e-07)
(-0.000147601 0.00259136 -8.96593e-07)
(-0.000161068 0.00259578 1.16022e-06)
(-0.000157665 0.00254417 -1.27248e-06)
(-0.000106045 0.00244067 1.39679e-08)
(-5.44738e-05 0.00237114 1.36278e-06)
(-7.31539e-05 0.00239225 -1.08289e-06)
(-5.27311e-05 0.00232623 -1.20653e-07)
(-5.89894e-05 0.0023399 -1.85599e-08)
(-2.67057e-05 0.00200048 -1.6607e-08)
(-1.92531e-05 0.000138148 -3.50028e-08)
(-4.80006e-05 0.00185685 -1.83906e-08)
(-3.7337e-06 0.00216485 6.10618e-09)
(2.54651e-05 0.00218399 1.45679e-07)
(2.73317e-05 0.00221127 3.77201e-07)
(4.66942e-06 -0.000106157 -2.98629e-07)
(4.46708e-05 -0.000126393 2.0096e-06)
(9.85014e-05 0.00232134 1.14252e-06)
(9.30637e-05 0.0023543 4.63895e-07)
(1.90436e-05 0.00249059 1.39796e-07)
(-1.3571e-05 0.00258698 -4.75335e-08)
(-0.000106434 0.00256183 -1.97204e-08)
(-0.000105438 0.00252737 5.02322e-07)
(-0.000134803 0.00250232 1.41493e-07)
(-0.00016699 0.00234474 -2.48017e-06)
(-5.22903e-05 0.00235 3.21706e-07)
(-5.27624e-05 0.00237109 -6.92451e-07)
(-3.13692e-05 0.00227802 -9.07943e-08)
(-3.2898e-05 0.00229707 -4.27964e-09)
(-6.02863e-07 0.00106886 -3.98529e-09)
(-1.58321e-06 -2.15691e-06 1.99914e-08)
(1.36201e-05 0.000961648 -1.39047e-08)
(5.27531e-05 0.00216438 -1.14099e-08)
(5.09193e-05 0.00218458 -7.08857e-08)
(3.78008e-05 0.00222208 2.8538e-08)
(7.85347e-06 -0.000116173 -3.56966e-08)
(2.01855e-05 -0.000119639 1.66315e-06)
(3.91847e-05 0.0019023 3.54478e-07)
(9.712e-06 0.00233666 -2.33431e-07)
(-2.7849e-05 0.0024316 -8.2873e-09)
(-3.2237e-06 0.00254233 1.74857e-08)
(8.45146e-06 0.00249912 -7.45729e-09)
(-8.90578e-05 0.00260785 5.75601e-07)
(-0.000245839 0.00256271 1.45452e-07)
(-0.000130423 0.00213016 -1.26483e-07)
(-5.61985e-05 0.00232837 -1.63054e-06)
(-2.74166e-05 0.00234525 -2.75638e-08)
(-2.71737e-05 0.00225682 -1.29119e-08)
(-1.38674e-05 0.00226574 -1.80586e-08)
(-5.15064e-06 0.000282801 9.46771e-09)
(1.98423e-05 -3.13682e-05 2.09142e-08)
(2.28138e-05 0.00013508 4.70772e-09)
(4.17913e-05 0.00161333 2.25159e-08)
(6.93267e-05 0.00213843 -1.32458e-07)
(2.40754e-05 0.00220007 -1.88036e-07)
(-2.14174e-06 -0.000193322 -2.11436e-07)
(-1.19098e-05 -0.000157473 -1.81737e-06)
(-2.18517e-05 0.000786833 -4.67728e-07)
(-1.8964e-05 0.00236904 -1.23936e-07)
(-1.89857e-05 0.00244719 5.14479e-09)
(2.61383e-05 0.00249525 1.15508e-07)
(5.14799e-06 0.00255546 5.85911e-08)
(-0.000140612 0.00263301 6.25395e-07)
(-0.000350738 0.00264367 -2.13397e-06)
(-6.02896e-05 0.00202188 1.93165e-06)
(-4.44853e-05 0.00232091 -6.20532e-07)
(-2.88618e-05 0.00232721 6.7528e-08)
(-1.49629e-05 0.00225748 2.88889e-09)
(-8.21036e-06 0.00225567 2.97252e-08)
(4.699e-06 3.07269e-05 1.90788e-08)
(2.07255e-05 -6.16529e-05 3.53448e-08)
(1.54093e-05 -0.00012246 9.02001e-08)
(1.74687e-05 0.000410452 3.00721e-08)
(4.86181e-05 0.00161807 -2.6345e-08)
(2.71978e-05 0.00222703 -1.83222e-08)
(-4.64488e-06 -0.00067444 -1.35225e-07)
(-2.08987e-05 -0.00226752 -7.24396e-07)
(-1.47356e-05 -0.000439929 -2.09095e-07)
(-1.42735e-06 0.00116283 -7.36006e-08)
(2.20765e-06 0.00121505 -3.30953e-08)
(9.97352e-07 0.00254095 1.20905e-07)
(-6.14801e-05 0.00266039 5.75966e-09)
(-0.000188563 0.00278568 1.98735e-06)
(-0.000221586 0.00244791 -1.32638e-06)
(-6.37635e-05 0.00192975 1.04114e-06)
(-5.6603e-05 0.00231501 -5.23242e-07)
(-3.52687e-05 0.00226275 -1.54914e-08)
(-3.41892e-05 0.00109849 -7.05023e-09)
(-4.56635e-06 0.00111104 5.25575e-09)
(5.06137e-06 -4.88108e-05 1.75658e-08)
(4.66281e-06 -0.000152115 1.23062e-08)
(8.14013e-06 -0.000285202 1.6106e-09)
(1.20948e-06 -0.000144389 8.26105e-09)
(1.38857e-05 0.000497419 -6.8201e-08)
(1.31495e-05 0.00222016 6.44268e-08)
(-1.20326e-05 0.00303737 2.74118e-05)
(-1.81321e-05 0.00345688 1.42103e-05)
(1.07577e-05 0.00417187 1.19422e-05)
(0.000107545 0.00418527 -1.67845e-06)
(0.000116856 0.00407425 -5.50596e-06)
(3.86601e-05 0.00367603 -1.90005e-06)
(-2.50839e-05 0.00323099 3.70387e-06)
(-5.03488e-05 0.00285907 1.18974e-05)
(-5.98159e-05 0.00227 3.82614e-05)
(8.2843e-05 0.00217134 3.27814e-05)
(3.55459e-05 0.00294856 5.27919e-06)
(-3.197e-05 0.00335512 6.318e-07)
(-9.73115e-05 0.00370018 -1.44734e-06)
(-0.000144417 0.00407695 -3.82441e-06)
(-0.000110978 0.00432243 -3.6115e-06)
(-3.36849e-05 0.00438752 -6.54889e-07)
(0.000111438 0.0045441 1.85174e-06)
(8.25345e-05 0.00401783 3.88888e-06)
(-8.12127e-05 0.00292866 -2.60303e-05)
(-7.54586e-05 0.00200093 8.8778e-06)
(-5.38367e-05 0.00216498 1.61971e-05)
(-1.25875e-05 0.00226639 5.49276e-06)
(1.3614e-05 0.0024053 2.08226e-07)
(7.8214e-05 0.002453 -3.63226e-06)
(8.81579e-05 0.00246407 -5.78415e-06)
(2.15833e-05 0.0024274 -1.85086e-05)
(-6.72541e-05 0.00238307 -1.81081e-05)
(-5.32497e-05 0.00232544 -1.93708e-05)
(-9.32076e-06 0.00232897 -1.69439e-05)
(8.47668e-05 0.00231872 8.34583e-06)
(7.36466e-05 0.00232831 -2.05752e-06)
(-6.96633e-05 0.00233338 -6.1468e-06)
(-0.000124864 0.00233015 -5.62504e-06)
(-0.00015618 0.00234663 -6.79775e-06)
(-0.000152529 0.00238437 -9.67911e-06)
(-8.3197e-05 0.00240634 -7.44455e-06)
(-3.27005e-05 0.00240178 -2.96768e-06)
(2.85275e-05 0.00244739 -3.7507e-06)
(-0.000147927 0.00241422 -7.29505e-06)
(-7.38952e-05 0.00228896 -2.25743e-05)
(-2.93834e-05 0.00217241 -3.3354e-06)
(3.81766e-06 0.00220348 1.48386e-06)
(3.73502e-05 0.00237104 5.61143e-06)
(8.24982e-05 0.00247498 6.1343e-06)
(5.63706e-05 0.00254182 1.3528e-06)
(-2.00127e-06 0.00255815 -5.11759e-07)
(-0.00012514 0.00249876 -6.7284e-06)
(-9.27966e-05 0.00248839 -1.36274e-05)
(-2.68758e-06 0.00247241 -3.33316e-05)
(5.58006e-05 0.00243148 1.92806e-05)
(1.98612e-05 0.00238162 -1.48868e-06)
(-0.000108214 0.00239145 1.96099e-06)
(-0.000133617 0.00238528 1.6898e-06)
(-0.000149434 0.00237315 2.21143e-06)
(-0.000144857 0.00237202 4.29792e-06)
(-7.50831e-05 0.00236937 3.64256e-06)
(-5.66888e-05 0.00235392 9.79679e-07)
(-7.11269e-05 0.00240209 3.41494e-06)
(-0.000241922 0.00246128 5.4496e-06)
(-5.90633e-05 0.00235014 2.27628e-06)
(-8.17299e-07 0.00169541 -1.49344e-05)
(7.0916e-05 0.00178709 -9.75836e-06)
(0.000101878 0.00242281 2.53127e-06)
(0.000139304 0.00253077 2.39308e-06)
(6.06065e-05 0.00260822 3.86817e-07)
(2.34694e-07 0.00265191 2.3688e-06)
(-0.000120067 0.00257118 -7.50076e-07)
(-0.000135929 0.00255249 -1.66988e-05)
(-6.05411e-05 0.00254113 -3.06267e-05)
(-2.38171e-06 0.00245487 1.85904e-05)
(-1.10563e-05 0.00239292 1.74587e-06)
(-0.000122475 0.00242119 -5.57813e-07)
(-0.000119841 0.00238519 4.69881e-07)
(-0.000130368 0.00237517 1.62432e-06)
(-0.000133732 0.0023507 2.98705e-06)
(-0.000116706 0.00236881 4.84481e-06)
(-3.25154e-05 0.00232433 2.518e-06)
(-7.0455e-05 0.00222729 5.75284e-07)
(-0.00014587 0.00212222 1.02218e-05)
(-3.35269e-05 0.00205431 4.53683e-06)
(-1.12492e-05 0.000477353 -1.74464e-06)
(5.20612e-05 0.000518942 -2.3618e-06)
(0.000152222 0.00239467 3.79804e-06)
(0.000195894 0.0025068 -1.24377e-06)
(8.57286e-05 0.00258579 -8.35436e-07)
(1.35294e-05 0.00266292 2.04861e-06)
(-0.000127089 0.00258813 -3.86893e-07)
(-0.00017941 0.00259069 -1.82603e-05)
(-0.000124578 0.00255474 -1.74002e-05)
(-7.80025e-05 0.00244456 8.52122e-06)
(-2.87497e-05 0.00239514 2.55081e-06)
(-9.98115e-05 0.00241999 -2.668e-06)
(-9.16041e-05 0.00236596 -5.88773e-07)
(-9.22394e-05 0.0023604 3.88312e-07)
(-0.000115987 0.00235083 5.31518e-07)
(-0.000103491 0.0017829 3.3275e-06)
(-4.34758e-05 0.00224474 2.41195e-06)
(-2.04305e-05 0.00217681 6.35654e-07)
(-4.51141e-05 0.00205719 2.48353e-07)
(7.3812e-06 0.00201509 -1.67658e-05)
(6.17049e-07 -0.000107113 3.34881e-07)
(4.23228e-05 -0.000136055 1.3062e-06)
(0.000170452 0.00232565 1.88622e-06)
(0.000198148 0.00241851 -4.0791e-06)
(9.92341e-05 0.00252132 -5.7121e-06)
(1.88786e-05 0.00260187 -2.13593e-07)
(-0.000147904 0.00259362 -1.10389e-06)
(-0.000167592 0.00260697 -1.25248e-05)
(-0.00012599 0.00254822 2.7009e-05)
(-0.000126168 0.00239208 1.60759e-05)
(-3.5377e-05 0.00236916 1.67401e-07)
(-7.07139e-05 0.00239352 -3.43343e-06)
(-5.5326e-05 0.00232668 2.02552e-07)
(-5.99164e-05 0.00233957 -6.66329e-07)
(-3.58232e-05 0.00193843 8.1781e-08)
(-4.9949e-05 0.000665907 1.87653e-07)
(-5.10775e-05 0.00222157 1.61258e-06)
(-8.01121e-06 0.00216118 -1.03787e-06)
(2.80006e-05 0.00208567 -6.63168e-06)
(2.33703e-05 0.00210608 -1.46102e-05)
(3.70465e-06 -0.000109875 3.80461e-07)
(4.83635e-05 -0.000136622 3.75272e-06)
(0.000106825 0.00230854 2.38607e-06)
(9.39774e-05 0.0023394 -3.50047e-06)
(2.03012e-05 0.0024876 -3.54584e-06)
(-1.78178e-05 0.0025952 -8.44204e-07)
(-0.000104924 0.00256105 -1.56863e-06)
(-0.000105184 0.00251638 -9.53239e-06)
(-0.000189534 0.00262376 4.85899e-05)
(-0.000151072 0.00223535 2.17755e-05)
(-4.36382e-05 0.00235204 1.95751e-06)
(-4.99618e-05 0.00237031 -2.50554e-06)
(-3.57996e-05 0.0022752 1.80375e-06)
(-3.31744e-05 0.00230062 1.16689e-06)
(-5.35007e-06 0.00093767 2.79913e-07)
(-8.59369e-06 4.31473e-05 -6.86067e-07)
(1.70639e-06 0.00167164 7.72528e-07)
(3.80885e-05 0.00217543 2.73437e-06)
(5.41664e-05 0.00212568 4.62001e-06)
(4.76077e-05 0.0021257 -1.94122e-06)
(6.7752e-06 -0.000112057 2.28714e-06)
(2.20584e-05 -0.00012961 2.86031e-06)
(4.54543e-05 0.00187757 2.92645e-06)
(1.13878e-05 0.00231852 3.87212e-06)
(-2.68806e-05 0.0024251 5.51235e-06)
(-6.67463e-06 0.00255558 -1.78314e-07)
(1.01521e-05 0.0024957 -1.44082e-06)
(-8.93275e-05 0.00260684 -9.24162e-06)
(-0.000384528 0.00271309 3.33208e-05)
(-9.52523e-05 0.00212681 1.64712e-05)
(-5.05288e-05 0.00232979 5.47071e-06)
(-2.49808e-05 0.00234424 -1.17477e-06)
(-3.39915e-05 0.00225205 1.80597e-06)
(-1.42189e-05 0.00227052 1.05346e-06)
(-5.52078e-06 0.000200937 -5.20392e-07)
(1.8939e-05 -3.37497e-05 2.47412e-07)
(2.26752e-05 0.000497047 3.39163e-07)
(3.99896e-05 0.00164497 2.24242e-06)
(7.2159e-05 0.00214506 9.88617e-06)
(4.00054e-05 0.00214021 -1.27087e-06)
(-1.04192e-06 -0.000169313 -5.41257e-07)
(-1.06124e-05 -0.000154157 -2.34428e-06)
(-1.37651e-05 0.000756774 2.26075e-06)
(-1.5533e-05 0.00234384 1.24004e-05)
(-1.82922e-05 0.00243104 1.65225e-05)
(2.18486e-05 0.00251924 -2.48653e-06)