/*--------------------------------*- C++ -*----------------------------------*\
| =========                 |                                                 |
| \\      /  F ield         | OpenFOAM: The Open Source CFD Toolbox           |
|  \\    /   O peration     | Version:  2.3.0                                 |
|   \\  /    A nd           | Web:      www.OpenFOAM.org                      |
|    \\/     M anipulation  |                                                 |
\*---------------------------------------------------------------------------*/
FoamFile
{
    version     2.0;
    format      ascii;
    class       volScalarField;
    location    "0.72";
    object      alpha.particlesMean;
}
// * * * * * * * * * * * * * * * * * * * * * * * * * * * * * * * * * * * * * //

dimensions      [0 0 0 0 0 0 0];

internalField   nonuniform List<scalar> 
6000
(
0.410297
0.416546
0.415416
0.414862
0.410664
0.408899
0.412
0.414059
0.413562
0.408466
0.40333
0.403689
0.400348
0.397662
0.400152
0.397775
0.402787
0.409142
0.410109
0.415102
0.418857
0.41737
0.41287
0.411284
0.412323
0.417275
0.420666
0.417954
0.415679
0.41101
0.39328
0.390974
0.385867
0.38147
0.382872
0.383413
0.385581
0.383459
0.381298
0.381934
0.381122
0.380576
0.381696
0.383769
0.386113
0.386091
0.381728
0.379123
0.379992
0.380921
0.385743
0.389266
0.388406
0.385071
0.382551
0.382348
0.383848
0.391241
0.393527
0.393538
0.396092
0.39317
0.387112
0.386233
0.391311
0.391368
0.390432
0.383475
0.385197
0.391618
0.391339
0.389276
0.389982
0.391038
0.395805
0.390594
0.38395
0.384715
0.386817
0.388168
0.390439
0.392004
0.394687
0.389664
0.387567
0.388442
0.390763
0.393639
0.39656
0.394799
0.397121
0.386002
0.38225
0.385298
0.390528
0.393976
0.388565
0.383732
0.385754
0.394821
0.398338
0.396097
0.393206
0.393057
0.393224
0.384894
0.382213
0.387241
0.389944
0.391764
0.390052
0.389275
0.390665
0.385892
0.384929
0.388471
0.388173
0.389356
0.388157
0.392611
0.387666
0.37841
0.37781
0.381297
0.386828
0.38798
0.382688
0.378529
0.38339
0.39402
0.399234
0.396007
0.387974
0.375354
0.378177
0.372767
0.376583
0.381981
0.388165
0.387458
0.38361
0.381475
0.380315
0.375718
0.378604
0.380613
0.381173
0.380958
0.375997
0.378681
0.37744
0.375709
0.377217
0.381519
0.38341
0.381533
0.374176
0.372147
0.377802
0.387512
0.392089
0.388528
0.368414
0.366376
0.373825
0.370474
0.369892
0.376425
0.380903
0.378135
0.372544
0.370232
0.367229
0.365519
0.367985
0.372104
0.374215
0.372158
0.363986
0.366209
0.374092
0.374223
0.378201
0.380678
0.380744
0.375757
0.367054
0.365235
0.371135
0.38105
0.38325
0.373724
0.36492
0.370922
0.377496
0.372098
0.368647
0.370687
0.375234
0.369998
0.365695
0.361314
0.35768
0.355041
0.358295
0.36414
0.367897
0.363626
0.358063
0.360446
0.375926
0.375863
0.376994
0.378505
0.378458
0.375665
0.365321
0.358929
0.363795
0.373642
0.371656
0.364801
0.368882
0.377618
0.378792
0.375011
0.36683
0.366772
0.36926
0.366647
0.359491
0.352971
0.347935
0.348247
0.352456
0.359664
0.363348
0.360834
0.357817
0.359544
0.386248
0.382384
0.37994
0.374904
0.378916
0.378228
0.369868
0.354958
0.352775
0.358721
0.363276
0.361756
0.374516
0.379627
0.380976
0.373188
0.365936
0.361089
0.363228
0.358379
0.350854
0.347057
0.346383
0.349097
0.354248
0.363038
0.367518
0.369123
0.367398
0.370355
0.398892
0.389861
0.381336
0.371852
0.377368
0.382217
0.37812
0.353608
0.342244
0.346347
0.359843
0.36702
0.377491
0.379698
0.377025
0.368825
0.360105
0.356816
0.35653
0.349502
0.344431
0.349055
0.353812
0.356368
0.362339
0.369566
0.372805
0.382206
0.382659
0.389023
0.408098
0.394846
0.379696
0.367564
0.372423
0.382364
0.384401
0.358024
0.337955
0.342553
0.366092
0.378269
0.381921
0.378438
0.373754
0.36563
0.360871
0.35872
0.358749
0.347188
0.346638
0.354793
0.359916
0.365549
0.371778
0.376246
0.379305
0.391029
0.398548
0.408242
0.414077
0.397718
0.376715
0.363059
0.364949
0.377644
0.384181
0.368016
0.340806
0.341388
0.369653
0.389238
0.384547
0.37931
0.372058
0.366375
0.362341
0.364809
0.359794
0.348079
0.353005
0.360096
0.366505
0.373694
0.380423
0.38362
0.386511
0.399371
0.414235
0.428604
0.42126
0.400306
0.379094
0.360516
0.358086
0.368163
0.381483
0.379007
0.349511
0.341238
0.364835
0.394083
0.387545
0.37845
0.371154
0.365652
0.366808
0.370691
0.359592
0.353549
0.360132
0.366132
0.371402
0.379403
0.38671
0.391119
0.395841
0.412151
0.431061
0.451849
0.431086
0.405157
0.387255
0.36193
0.354579
0.359064
0.374732
0.380078
0.360575
0.345841
0.357818
0.38795
0.390118
0.379211
0.368728
0.366728
0.371634
0.373565
0.361109
0.360694
0.366381
0.370721
0.373235
0.381481
0.390562
0.395964
0.406064
0.432011
0.453059
0.474718
0.441467
0.413573
0.397448
0.364948
0.354452
0.353167
0.364663
0.37596
0.370321
0.354454
0.353747
0.373785
0.389863
0.380057
0.369409
0.368599
0.377517
0.374179
0.364699
0.366187
0.370865
0.372023
0.372633
0.38045
0.390947
0.400061
0.41968
0.455952
0.474713
0.494172
0.450233
0.421703
0.408058
0.371594
0.355181
0.349868
0.356196
0.370694
0.372002
0.36234
0.354295
0.354568
0.384073
0.381296
0.370171
0.373012
0.382466
0.374765
0.367945
0.370191
0.372497
0.370805
0.369924
0.377816
0.389142
0.407845
0.438815
0.479127
0.492643
0.506507
0.454032
0.428016
0.419593
0.383276
0.35741
0.348598
0.351738
0.365027
0.369545
0.363694
0.35634
0.347294
0.370787
0.381984
0.372387
0.376842
0.38752
0.375873
0.370501
0.372929
0.371424
0.367518
0.36721
0.375128
0.386329
0.42082
0.458599
0.49952
0.50518
0.511574
0.45553
0.43543
0.430909
0.399345
0.360321
0.349009
0.349465
0.357998
0.366167
0.362119
0.355757
0.348414
0.358938
0.381697
0.374777
0.380128
0.392155
0.378085
0.373698
0.373494
0.368546
0.363883
0.363291
0.371573
0.388295
0.431069
0.475043
0.509425
0.506164
0.512784
0.456797
0.442808
0.441082
0.415669
0.364972
0.349768
0.348449
0.351146
0.360301
0.359648
0.354654
0.350645
0.353293
0.378027
0.377427
0.382291
0.396183
0.383639
0.375422
0.372339
0.364993
0.360039
0.359169
0.366783
0.390112
0.433047
0.485673
0.508743
0.500113
0.509796
0.460352
0.449531
0.450378
0.429588
0.369282
0.350553
0.348113
0.347787
0.353011
0.356854
0.353954
0.351456
0.353281
0.375962
0.379445
0.383878
0.398553
0.390325
0.37719
0.369745
0.36193
0.356401
0.353582
0.359232
0.39037
0.427476
0.483468
0.501155
0.487528
0.504179
0.465549
0.454575
0.460081
0.441974
0.37704
0.350931
0.347984
0.346195
0.348952
0.353273
0.353239
0.350326
0.353034
0.374894
0.380435
0.384686
0.398671
0.398961
0.378295
0.367963
0.359174
0.352906
0.347952
0.351463
0.383369
0.41697
0.474149
0.485716
0.476034
0.492724
0.46859
0.460322
0.468115
0.451355
0.386732
0.351479
0.347375
0.346362
0.347505
0.3509
0.351888
0.349902
0.351183
0.367309
0.380137
0.383775
0.398559
0.40511
0.381366
0.366395
0.357705
0.349586
0.343221
0.342566
0.371187
0.40544
0.465035
0.47725
0.471134
0.489379
0.470317
0.463778
0.473034
0.457888
0.394757
0.352519
0.346828
0.347094
0.347657
0.350231
0.351101
0.349812
0.34835
0.357103
0.371397
0.380425
0.39546
0.407407
0.383756
0.36751
0.356204
0.347046
0.338712
0.335261
0.358761
0.398831
0.461009
0.479172
0.475272
0.489802
0.473994
0.463075
0.470954
0.462739
0.401683
0.354189
0.346486
0.347061
0.347924
0.349372
0.350629
0.350184
0.346907
0.350227
0.356627
0.373922
0.391238
0.404487
0.387105
0.368264
0.355976
0.344028
0.334796
0.329456
0.350678
0.396261
0.456221
0.485773
0.483093
0.490362
0.47818
0.460894
0.469884
0.46881
0.410879
0.356047
0.345462
0.34627
0.347246
0.348134
0.349349
0.349363
0.346681
0.345031
0.348419
0.359626
0.383291
0.401281
0.388467
0.36995
0.354471
0.342217
0.330045
0.325843
0.345881
0.394025
0.451248
0.485357
0.486781
0.49093
0.480332
0.458337
0.469095
0.472058
0.422406
0.359696
0.345497
0.345031
0.346088
0.346527
0.347375
0.347873
0.346139
0.342601
0.341963
0.347942
0.372094
0.395297
0.389905
0.368852
0.353862
0.338765
0.32633
0.32296
0.342594
0.393955
0.448954
0.477459
0.484798
0.492538
0.48101
0.456558
0.466814
0.473232
0.431611
0.367141
0.347205
0.343383
0.344084
0.34497
0.345202
0.345602
0.345101
0.342101
0.337813
0.342683
0.357295
0.389612
0.387301
0.367115
0.350203
0.335738
0.322026
0.323829
0.3411
0.395365
0.447786
0.472205
0.477221
0.491914
0.477566
0.455226
0.463528
0.471078
0.437793
0.376362
0.349938
0.340486
0.341968
0.343107
0.343571
0.34349
0.343524
0.342048
0.337403
0.337805
0.347782
0.38181
0.382336
0.362397
0.345676
0.330197
0.322236
0.32931
0.339668
0.397963
0.445904
0.467284
0.471704
0.489528
0.470908
0.451955
0.460774
0.467177
0.442709
0.38377
0.351656
0.338429
0.338363
0.341019
0.341942
0.341985
0.342005
0.341023
0.337991
0.33592
0.341602
0.372845
0.376007
0.35788
0.338307
0.327635
0.326469
0.336685
0.341193
0.4016
0.44316
0.462529
0.468894
0.48685
0.466175
0.445973
0.457099
0.463946
0.448774
0.390644
0.352082
0.33613
0.334178
0.337873
0.339967
0.340626
0.34011
0.340377
0.338237
0.336229
0.340579
0.36691
0.37275
0.351655
0.333359
0.326078
0.334376
0.338721
0.346471
0.407991
0.440654
0.458415
0.46631
0.48328
0.466636
0.440576
0.454734
0.461666
0.455373
0.40048
0.352683
0.334233
0.329744
0.334204
0.336652
0.338097
0.33859
0.338457
0.337393
0.335778
0.339777
0.365086
0.367174
0.345651
0.327449
0.328204
0.337896
0.338619
0.355779
0.417538
0.441126
0.457205
0.464836
0.480492
0.473979
0.44023
0.453484
0.460751
0.460972
0.413718
0.355077
0.33244
0.327057
0.330665
0.333932
0.335404
0.33616
0.336108
0.335411
0.334775
0.338918
0.363056
0.363574
0.338199
0.32539
0.331006
0.338669
0.338494
0.366232
0.429238
0.445271
0.457974
0.461701
0.478669
0.482765
0.444764
0.454443
0.461229
0.465555
0.427788
0.361146
0.33428
0.326845
0.328895
0.331749
0.333038
0.333671
0.333697
0.334028
0.333248
0.337543
0.365063
0.357646
0.331033
0.326479
0.333951
0.338041
0.339322
0.378635
0.439601
0.451598
0.457982
0.458444
0.478163
0.484985
0.454661
0.460921
0.464346
0.468854
0.443305
0.369526
0.337873
0.330272
0.330536
0.332051
0.332764
0.332546
0.333861
0.333049
0.332559
0.335715
0.364566
0.352898
0.32698
0.329201
0.338338
0.340752
0.342728
0.392202
0.449062
0.457638
0.458515
0.453231
0.477919
0.483837
0.463435
0.470909
0.470666
0.470585
0.460383
0.380338
0.343327
0.334481
0.333713
0.33508
0.335004
0.334662
0.334972
0.334378
0.331796
0.333598
0.362663
0.350973
0.328268
0.334339
0.344977
0.344086
0.349224
0.406954
0.460018
0.463375
0.458855
0.4499
0.475688
0.482138
0.465967
0.476577
0.477965
0.473859
0.472538
0.394066
0.349501
0.339357
0.337051
0.338185
0.338206
0.336811
0.337212
0.335454
0.332574
0.331356
0.360739
0.352178
0.330396
0.341765
0.349057
0.348182
0.357567
0.424003
0.470228
0.466419
0.459503
0.449065
0.472435
0.479063
0.460853
0.478805
0.484163
0.479167
0.47981
0.405794
0.358156
0.343973
0.340402
0.341869
0.341284
0.339745
0.338682
0.337857
0.332833
0.331074
0.357605
0.354144
0.332655
0.346445
0.351917
0.35283
0.369905
0.442194
0.475774
0.467442
0.459877
0.449678
0.470955
0.47606
0.458027
0.4794
0.485615
0.482057
0.483432
0.414915
0.366261
0.348507
0.343914
0.344809
0.345019
0.342301
0.34099
0.339211
0.334529
0.33073
0.353449
0.354989
0.334547
0.346891
0.354031
0.361477
0.386669
0.456208
0.476015
0.467022
0.461259
0.448813
0.46878
0.475356
0.464377
0.480102
0.486203
0.482469
0.482112
0.421494
0.37441
0.352159
0.346612
0.347509
0.347755
0.345903
0.342657
0.341331
0.33498
0.332146
0.347526
0.355157
0.337172
0.34489
0.357971
0.37415
0.403834
0.463308
0.473139
0.465994
0.460233
0.450434
0.46601
0.482803
0.475716
0.487534
0.484201
0.481011
0.477183
0.426656
0.380508
0.355213
0.349356
0.349735
0.350809
0.349467
0.345996
0.341947
0.33622
0.332491
0.341873
0.353597
0.339388
0.342598
0.364482
0.38833
0.416202
0.46487
0.4687
0.462475
0.458193
0.451286
0.465403
0.491807
0.485058
0.493877
0.484484
0.479816
0.472405
0.432022
0.386455
0.357874
0.351391
0.352653
0.353211
0.353425
0.349421
0.343776
0.335932
0.334376
0.336502
0.350754
0.341501
0.342603
0.372667
0.398813
0.422736
0.463998
0.462882
0.457198
0.455865
0.451851
0.468965
0.498803
0.487193
0.496276
0.48864
0.477039
0.470575
0.43948
0.392541
0.36154
0.354441
0.355013
0.356228
0.355875
0.353434
0.34484
0.337481
0.334679
0.334881
0.347723
0.344264
0.344611
0.378368
0.404857
0.426194
0.461975
0.45696
0.452017
0.453018
0.44872
0.472782
0.50099
0.484593
0.495111
0.489022
0.476521
0.474832
0.448708
0.400005
0.367009
0.357516
0.358589
0.358864
0.358555
0.355643
0.346835
0.337706
0.33653
0.335372
0.345979
0.346411
0.347792
0.381005
0.406609
0.429331
0.459148
0.452223
0.450013
0.451315
0.448006
0.476314
0.498406
0.478919
0.489748
0.487183
0.478979
0.480574
0.459341
0.405009
0.373672
0.362909
0.362696
0.363274
0.361337
0.357987
0.347245
0.339225
0.336656
0.337028
0.34386
0.348454
0.351269
0.381493
0.407424
0.434073
0.456412
0.449508
0.4476
0.448712
0.448181
0.479745
0.490577
0.471809
0.483261
0.484216
0.481747
0.481165
0.467373
0.407837
0.379204
0.368247
0.368836
0.368266
0.366548
0.360455
0.348737
0.339057
0.338401
0.337329
0.342812
0.349027
0.357083
0.382483
0.408426
0.440713
0.45467
0.446744
0.446548
0.449736
0.450477
0.485115
0.481648
0.465496
0.476749
0.481738
0.482236
0.47951
0.469264
0.409291
0.382623
0.374058
0.373405
0.374114
0.371068
0.363896
0.349789
0.340383
0.338161
0.338794
0.34138
0.349737
0.36315
0.384186
0.410008
0.44794
0.45498
0.449075
0.451101
0.456217
0.456833
0.493773
0.476644
0.46285
0.473465
0.479492
0.480517
0.477335
0.467791
0.411818
0.385737
0.377298
0.377614
0.377272
0.375309
0.365272
0.35131
0.340296
0.339669
0.338876
0.342123
0.349733
0.368594
0.3843
0.411714
0.454941
0.458124
0.455653
0.459369
0.465399
0.466433
0.503052
0.47633
0.461373
0.472299
0.475707
0.478136
0.475248
0.467499
0.415329
0.388758
0.380053
0.378765
0.38003
0.376501
0.365456
0.349851
0.3416
0.339681
0.34074
0.342496
0.351209
0.369236
0.383019
0.413272
0.461764
0.463082
0.464623
0.469573
0.474149
0.476649
0.509717
0.481404
0.46034
0.470628
0.471414
0.475638
0.474577
0.46932
0.419316
0.391184
0.379775
0.37951
0.379474
0.375695
0.361452
0.348061
0.341395
0.341742
0.341436
0.344794
0.352008
0.37039
0.380786
0.415489
0.467638
0.467455
0.473372
0.480066
0.48214
0.487672
0.513407
0.48864
0.464805
0.473141
0.470875
0.474942
0.475673
0.47308
0.42294
0.391537
0.37909
0.377103
0.377819
0.369194
0.355716
0.344918
0.34358
0.342381
0.343957
0.346221
0.355025
0.370892
0.379594
0.418337
0.470677
0.471977
0.480789
0.487977
0.495946
0.496734
0.515188
0.492173
0.479806
0.489105
0.483936
0.479272
0.480486
0.478301
0.426843
0.391102
0.375641
0.376063
0.371882
0.361025
0.348373
0.345752
0.34425
0.345177
0.345326
0.349485
0.357775
0.374579
0.377124
0.420981
0.471455
0.476649
0.485509
0.498646
0.509565
0.505506
0.515045
0.498633
0.491232
0.50593
0.501667
0.490247
0.487999
0.483909
0.431702
0.387493
0.374256
0.374411
0.367419
0.352624
0.348375
0.346391
0.347058
0.346335
0.348647
0.352203
0.364114
0.375623
0.377138
0.415553
0.471243
0.481837
0.494598
0.507295
0.518186
0.511604
0.512564
0.505755
0.497825
0.507701
0.511156
0.501588
0.495347
0.489006
0.433965
0.381098
0.372388
0.374401
0.361626
0.351181
0.348669
0.349057
0.347954
0.34924
0.351406
0.358324
0.3698
0.377253
0.37605
0.404859
0.469555
0.488639
0.50276
0.513133
0.521388
0.511115
0.509046
0.504236
0.500391
0.504103
0.509612
0.507243
0.501724
0.491284
0.425098
0.374888
0.373387
0.371933
0.358933
0.350791
0.350959
0.34961
0.350635
0.350835
0.35583
0.36305
0.374575
0.375299
0.37693
0.395196
0.459487
0.492699
0.508325
0.515204
0.5197
0.5072
0.50516
0.500501
0.488105
0.489884
0.496514
0.50337
0.505963
0.486625
0.412542
0.372826
0.372587
0.370149
0.356456
0.352688
0.351183
0.351938
0.351544
0.353626
0.357714
0.36699
0.374538
0.375838
0.376227
0.390029
0.440435
0.491082
0.510624
0.515887
0.517015
0.502818
0.499614
0.490886
0.467211
0.474253
0.483186
0.493212
0.505075
0.478318
0.401538
0.371572
0.372413
0.36483
0.356616
0.352466
0.353159
0.352397
0.353791
0.354428
0.359212
0.366688
0.374316
0.373989
0.37681
0.385802
0.422371
0.477894
0.509233
0.515964
0.514507
0.498803
0.495297
0.46801
0.455986
0.464001
0.473251
0.480868
0.498065
0.464821
0.392307
0.37109
0.368928
0.361572
0.354852
0.354071
0.353307
0.354438
0.35434
0.356184
0.358352
0.36495
0.370959
0.372556
0.373655
0.382103
0.408917
0.458108
0.504232
0.515519
0.511643
0.494193
0.495364
0.461474
0.450733
0.457093
0.465433
0.47119
0.484598
0.447918
0.386699
0.368012
0.364858
0.358134
0.35558
0.354122
0.355378
0.354959
0.356429
0.356568
0.358615
0.36214
0.368426
0.367954
0.371156
0.378228
0.402126
0.440328
0.498277
0.514114
0.505815
0.492559
0.496174
0.467531
0.447633
0.454123
0.458865
0.463716
0.473739
0.435162
0.383863
0.365637
0.359405
0.35801
0.355338
0.356197
0.355816
0.357235
0.357236
0.358605
0.358796
0.36223
0.365091
0.365333
0.365834
0.376635
0.397146
0.427042
0.487826
0.51156
0.500365
0.491698
0.496811
0.479076
0.452653
0.453474
0.454874
0.458152
0.46621
0.430204
0.383619
0.360892
0.358595
0.356859
0.35716
0.356353
0.357879
0.357864
0.359643
0.359687
0.360682
0.361681
0.364208
0.361639
0.36315
0.373039
0.394132
0.41736
0.475316
0.506702
0.492522
0.490713
0.498615
0.487252
0.460583
0.462441
0.454297
0.454452
0.460858
0.429299
0.382602
0.358632
0.35748
0.35837
0.357182
0.35841
0.358152
0.359947
0.360487
0.362044
0.361669
0.363063
0.362212
0.360475
0.358427
0.369975
0.390431
0.411693
0.465877
0.495168
0.476135
0.480459
0.503182
0.49219
0.469936
0.474525
0.461388
0.45305
0.455108
0.428634
0.381622
0.35737
0.359248
0.358328
0.359304
0.358661
0.360211
0.360378
0.362383
0.362281
0.362826
0.361902
0.361472
0.357536
0.35647
0.364646
0.386434
0.407414
0.456219
0.467561
0.44668
0.443029
0.489883
0.495716
0.475448
0.482061
0.471248
0.45356
0.449309
0.426822
0.379995
0.358711
0.35871
0.359982
0.359098
0.360454
0.360049
0.361705
0.361542
0.361933
0.360724
0.360892
0.358844
0.356813
0.353479
0.36083
0.381619
0.404835
0.445231
0.442539
0.436191
0.435575
0.46346
0.49525
0.476112
0.482459
0.476592
0.455367
0.447258
0.4263
0.379632
0.358774
0.359662
0.358966
0.360208
0.359554
0.360836
0.360287
0.360966
0.359718
0.359756
0.358742
0.358543
0.355526
0.355546
0.357589
0.379128
0.406977
0.443137
0.438777
0.439113
0.435505
0.454629
0.490465
0.472626
0.479279
0.476929
0.457559
0.448319
0.427867
0.379083
0.361445
0.35914
0.3605
0.359563
0.360723
0.359905
0.360863
0.359943
0.360405
0.35993
0.360544
0.359299
0.358821
0.356651
0.359781
0.377025
0.41326
0.447397
0.440489
0.443779
0.436857
0.453386
0.485511
0.468565
0.474921
0.475851
0.45936
0.451088
0.430641
0.379652
0.362852
0.362301
0.36145
0.36229
0.36126
0.362283
0.361676
0.362574
0.362293
0.363226
0.362913
0.363049
0.36055
0.360359
0.361051
0.377887
0.423402
0.451889
0.442442
0.448219
0.437281
0.454122
0.484779
0.466724
0.470558
0.473765
0.462771
0.456615
0.434185
0.380388
0.366311
0.36383
0.365159
0.363971
0.364941
0.36411
0.365268
0.364847
0.365827
0.365936
0.366791
0.36538
0.36411
0.361744
0.364789
0.380454
0.434477
0.45614
0.445114
0.449705
0.439488
0.456763
0.490102
0.467478
0.46818
0.472222
0.466184
0.464643
0.439659
0.382682
0.367954
0.367167
0.36685
0.367643
0.366768
0.367823
0.367396
0.368404
0.368525
0.369676
0.369666
0.369126
0.36556
0.365301
0.366367
0.384195
0.445936
0.46008
0.446727
0.450502
0.441479
0.460743
0.497454
0.47275
0.469309
0.470724
0.469718
0.473236
0.446194
0.385469
0.371528
0.368679
0.370217
0.369254
0.370297
0.369717
0.370968
0.370815
0.372189
0.373037
0.373949
0.371378
0.368605
0.36628
0.369914
0.387488
0.456716
0.461827
0.448117
0.450828
0.445822
0.463426
0.501721
0.480395
0.477281
0.472849
0.472244
0.479948
0.450249
0.389919
0.373317
0.372567
0.372002
0.37272
0.372073
0.373378
0.373276
0.374634
0.3756
0.377578
0.377202
0.374628
0.369638
0.369062
0.371121
0.390289
0.465578
0.462267
0.44895
0.453205
0.449725
0.46464
0.501788
0.486761
0.486913
0.481457
0.473702
0.48327
0.44938
0.392788
0.376518
0.373789
0.375471
0.374828
0.375894
0.375764
0.377285
0.377675
0.379823
0.380733
0.380537
0.37574
0.371952
0.369495
0.373925
0.392853
0.471307
0.462296
0.451162
0.45676
0.453694
0.467288
0.498292
0.488685
0.492727
0.488789
0.479111
0.482441
0.445617
0.39451
0.37718
0.375662
0.375771
0.377246
0.376579
0.378195
0.378267
0.379904
0.38112
0.38193
0.380384
0.376347
0.371964
0.372003
0.374806
0.396016
0.473733
0.463867
0.454594
0.460087
0.457384
0.471933
0.492375
0.489222
0.493225
0.492972
0.484247
0.478246
0.440266
0.395079
0.379334
0.374829
0.376097
0.376132
0.376943
0.376873
0.378119
0.37826
0.37962
0.379877
0.378167
0.374576
0.373291
0.372527
0.37771
0.399721
0.47433
0.4668
0.458799
0.46424
0.462237
0.479136
0.48666
0.487483
0.493342
0.493304
0.487504
0.473263
0.435306
0.395809
0.380247
0.375866
0.374385
0.375773
0.374713
0.375944
0.375355
0.376245
0.375819
0.376172
0.374631
0.374216
0.373256
0.375342
0.37923
0.403942
0.470482
0.470534
0.464464
0.472055
0.469404
0.489883
0.48103
0.484658
0.493644
0.492715
0.488415
0.471356
0.431574
0.395922
0.382995
0.376361
0.375822
0.37453
0.375239
0.37458
0.37551
0.374927
0.375635
0.374882
0.375207
0.374387
0.375564
0.376237
0.382781
0.408476
0.468228
0.474036
0.473605
0.48639
0.483284
0.499268
0.474903
0.481667
0.492507
0.49228
0.489073
0.47118
0.429612
0.397593
0.384378
0.379193
0.37671
0.37676
0.37573
0.376814
0.376098
0.377069
0.376476
0.377002
0.376186
0.376706
0.376725
0.379283
0.385533
0.412626
0.467515
0.477933
0.48463
0.499892
0.49661
0.501058
0.468242
0.478787
0.491731
0.492304
0.48908
0.471166
0.427987
0.398998
0.387255
0.380369
0.379581
0.377733
0.378475
0.377743
0.378826
0.378232
0.379054
0.378297
0.378713
0.378127
0.379564
0.380502
0.390193
0.415836
0.467412
0.482828
0.496603
0.508986
0.500645
0.499274
0.460374
0.473572
0.490445
0.492273
0.488587
0.471241
0.426144
0.401384
0.388506
0.383488
0.380804
0.38077
0.379526
0.380671
0.380036
0.381109
0.380495
0.38105
0.380171
0.380952
0.381113
0.384187
0.393399
0.418899
0.467477
0.489312
0.505959
0.509519
0.498908
0.495216
0.452018
0.466397
0.488597
0.491854
0.488239
0.471254
0.425242
0.403343
0.391541
0.384904
0.384052
0.382155
0.382633
0.381925
0.383139
0.382624
0.383462
0.382747
0.383072
0.382878
0.384199
0.386503
0.397729
0.422146
0.467904
0.495329
0.508986
0.507411
0.49334
0.487788
0.443472
0.459123
0.485658
0.490481
0.487978
0.469754
0.426267
0.407335
0.393564
0.388111
0.385716
0.385742
0.384022
0.38516
0.384668
0.385815
0.385295
0.385882
0.385036
0.386125
0.386471
0.391179
0.400929
0.424513
0.468615
0.498104
0.508959
0.503942
0.487124
0.481939
0.436127
0.452324
0.480839
0.488616
0.486979
0.46598
0.428374
0.410993
0.397869
0.389707
0.38942
0.387715
0.387431
0.386695
0.388058
0.387717
0.388577
0.388067
0.388399
0.38835
0.390519
0.394259
0.405486
0.426548
0.470379
0.498698
0.506916
0.498901
0.482086
0.478185
0.436404
0.44712
0.472939
0.485818
0.484555
0.459678
0.430259
0.415813
0.401241
0.393184
0.391008
0.39152
0.389128
0.390106
0.389897
0.39112
0.390814
0.391464
0.390459
0.391659
0.393575
0.398858
0.409058
0.428419
0.472633
0.498723
0.503733
0.490839
0.47712
0.476508
0.441472
0.443344
0.465032
0.482332
0.482491
0.45476
0.432455
0.419155
0.406182
0.395272
0.393935
0.393119
0.392755
0.391937
0.393448
0.393304
0.394296
0.393846
0.393728
0.39419
0.397884
0.401728
0.414026
0.430642
0.474863
0.498746
0.49978
0.48308
0.471131
0.473962
0.444353
0.441425
0.461749
0.478468
0.48158
0.452479
0.433946
0.422588
0.409602
0.399339
0.395039
0.39597
0.39482
0.39563
0.395696
0.39693
0.396859
0.397148
0.396407
0.398001
0.400923
0.406362
0.418023
0.43494
0.474068
0.498566
0.495819
0.479391
0.463082
0.468466
0.441683
0.44128
0.461889
0.476928
0.479978
0.454032
0.437152
0.424016
0.413426
0.401703
0.397576
0.396475
0.398633
0.397999
0.399486
0.399516
0.400452
0.399919
0.400008
0.401078
0.40501
0.409632
0.423327
0.440416
0.471294
0.499038
0.494898
0.478204
0.456276
0.461294
0.435459
0.441133
0.46355
0.479607
0.476085
0.457349
0.441583
0.426743
0.414747
0.404711
0.39833
0.398816
0.4007
0.402085
0.401938
0.403221
0.403193
0.403539
0.40309
0.404746
0.407807
0.413958
0.427845
0.446558
0.467811
0.498055
0.496792
0.4774
0.452272
0.454488
0.430342
0.441732
0.464744
0.481686
0.474998
0.458448
0.4462
0.429534
0.416039
0.405066
0.400679
0.400214
0.403712
0.404748
0.405647
0.40593
0.40682
0.406682
0.406959
0.40778
0.410957
0.41688
0.433278
0.45121
0.467369
0.491691
0.496698
0.4756
0.450752
0.449372
0.425797
0.440818
0.465373
0.480679
0.476338
0.45948
0.447997
0.432802
0.414948
0.405844
0.401891
0.403481
0.405536
0.408555
0.408274
0.409574
0.409933
0.410532
0.410487
0.41133
0.413119
0.420274
0.436447
0.454685
0.469889
0.489204
0.492992
0.472859
0.449568
0.444712
0.421673
0.439163
0.464832
0.479997
0.477556
0.460481
0.448781
0.432689
0.414366
0.40607
0.405063
0.405806
0.40897
0.410539
0.412116
0.412476
0.413729
0.414124
0.414509
0.41466
0.416165
0.421782
0.439059
0.457021
0.473197
0.49147
0.489641
0.470096
0.44831
0.440362
0.417979
0.43753
0.463734
0.479859
0.479037
0.461197
0.447938
0.431453
0.413019
0.40838
0.407903
0.409654
0.411262
0.413545
0.414957
0.416313
0.417205
0.418133
0.418345
0.418568
0.419081
0.424299
0.440157
0.458935
0.477578
0.495498
0.489322
0.468117
0.44609
0.435712
0.414864
0.436392
0.462819
0.480101
0.48136
0.462771
0.446679
0.428873
0.415283
0.41099
0.412193
0.412479
0.414758
0.415696
0.418709
0.419693
0.421215
0.422079
0.422554
0.422404
0.422932
0.427115
0.440966
0.460731
0.482721
0.498087
0.489558
0.466254
0.443505
0.431265
0.412129
0.435425
0.461813
0.479654
0.483078
0.465529
0.444743
0.427922
0.418277
0.416243
0.415481
0.416315
0.417169
0.41908
0.421358
0.423751
0.425111
0.426468
0.426592
0.426686
0.426842
0.431756
0.441712
0.462708
0.486626
0.498633
0.488808
0.465229
0.440648
0.427463
0.409761
0.433082
0.461133
0.477487
0.483085
0.467025
0.444223
0.428003
0.423164
0.42097
0.419432
0.418779
0.420423
0.421472
0.424516
0.427321
0.429535
0.430903
0.430953
0.431014
0.432038
0.436341
0.444217
0.463942
0.487089
0.496968
0.487229
0.466482
0.437915
0.424533
0.407847
0.429144
0.460179
0.474149
0.48093
0.466702
0.443886
0.429933
0.426695
0.426421
0.422095
0.421636
0.422211
0.424653
0.426926
0.431411
0.434135
0.435481
0.43597
0.436082
0.437889
0.441477
0.447018
0.464477
0.48565
0.493555
0.485179
0.468
0.434777
0.421718
0.406462
0.424205
0.457049
0.470256
0.47716
0.465261
0.444118
0.431586
0.430172
0.430379
0.425515
0.423081
0.424718
0.426939
0.430304
0.435119
0.439153
0.441558
0.442437
0.442049
0.444062
0.4463
0.450465
0.463767
0.484619
0.490443
0.481842
0.466257
0.431069
0.418183
0.405384
0.419783
0.452164
0.466477
0.472737
0.462691
0.443716
0.434231
0.432679
0.434074
0.428529
0.425475
0.426123
0.429956
0.433245
0.438881
0.445252
0.449196
0.450459
0.449161
0.450064
0.451438
0.45379
0.46297
0.484073
0.488257
0.478377
0.461766
0.427082
0.414075
0.404956
0.416736
0.448013
0.463597
0.468662
0.458863
0.444196
0.437279
0.435973
0.436589
0.432497
0.427631
0.428659
0.432063
0.436611
0.442917
0.45222
0.457494
0.459075
0.456752
0.456296
0.456486
0.457588
0.463086
0.483364
0.486906
0.475502
0.457219
0.422759
0.410372
0.405208
0.415411
0.445199
0.461945
0.466015
0.455597
0.445548
0.441646
0.439072
0.43975
0.435536
0.431061
0.430851
0.434894
0.439416
0.447624
0.459211
0.465501
0.467055
0.464204
0.462724
0.461926
0.461879
0.464761
0.481767
0.486129
0.47266
0.452427
0.41868
0.406702
0.406171
0.415451
0.443015
0.461017
0.466257
0.454644
0.448427
0.445707
0.442757
0.442432
0.439067
0.433728
0.434115
0.437091
0.442362
0.451971
0.465332
0.47267
0.473737
0.471222
0.469459
0.46756
0.466841
0.468367
0.480753
0.485374
0.469172
0.447184
0.413961
0.401973
0.407072
0.415138
0.440477
0.459348
0.466584
0.454993
0.451236
0.449258
0.445531
0.445047
0.441574
0.43663
0.436358
0.439488
0.444281
0.454684
0.46971
0.477683
0.479019
0.477359
0.475858
0.473166
0.471884
0.473166
0.481447
0.483748
0.464539
0.440371
0.40806
0.395529
0.406054
0.412972
0.435891
0.45593
0.464716
0.454791
0.453038
0.450742
0.446879
0.445534
0.442977
0.437473
0.43718
0.440006
0.444771
0.454961
0.470491
0.479397
0.481747
0.481411
0.480067
0.477415
0.47618
0.47764
0.482199
0.479846
0.457965
0.431193
0.398856
0.388471
0.402807
0.409913
0.430743
0.451798
0.461982
0.454762
0.454281
0.451997
0.447293
0.445711
0.44343
0.438296
0.437007
0.440023
0.44483
0.454245
0.468626
0.478485
0.482863
0.484032
0.482859
0.48074
0.480417
0.482212
0.482861
0.474688
0.450368
0.420079
0.391989
0.386083
0.396151
0.407115
0.425827
0.447173
0.459206
0.45481
0.455616
0.453189
0.447765
0.445367
0.443938
0.438285
0.437062
0.439493
0.444792
0.453456
0.465324
0.475714
0.481863
0.485021
0.484365
0.483004
0.484113
0.485687
0.481845
0.468454
0.441727
0.412572
0.392046
0.384124
0.387628
0.404699
0.421888
0.442215
0.456657
0.455057
0.456915
0.454875
0.448196
0.445412
0.443908
0.438569
0.436964
0.439386
0.444583
0.452494
0.462639
0.472158
0.479306
0.484205
0.484466
0.484138
0.486334
0.486161
0.478234
0.46165
0.435325
0.411915
0.396009
0.381404
0.37825
0.40223
0.417602
0.437181
0.453798
0.455087
0.457967
0.456289
0.448797
0.44517
0.44407
0.438565
0.437341
0.439467
0.444552
0.452134
0.460903
0.46913
0.476618
0.481685
0.482758
0.483652
0.485812
0.48288
0.47299
0.455563
0.433073
0.413994
0.400804
0.378979
0.368759
0.398563
0.41331
0.431781
0.450152
0.455279
0.459214
0.458094
0.450291
0.445924
0.444408
0.439342
0.437975
0.440279
0.445297
0.452568
0.460588
0.467588
0.474377
0.47916
0.48057
0.482408
0.48343
0.478626
0.46727
0.451003
0.432419
0.416212
0.404685
0.377558
0.359925
0.392944
0.409288
0.42637
0.44568
0.455073
0.460517
0.459929
0.45233
0.446814
0.444975
0.440042
0.439023
0.441504
0.446498
0.45387
0.461159
0.46704
0.472676
0.476908
0.478446
0.480599
0.480245
0.474152
0.462063
0.447769
0.431634
0.418626
0.40658
0.377745
0.351416
0.385525
0.406205
0.421161
0.440606
0.453606
0.461194
0.461637
0.454346
0.448141
0.445507
0.441253
0.440069
0.442724
0.447788
0.455041
0.461725
0.46648
0.471366
0.47499
0.476775
0.478646
0.476823
0.46958
0.457931
0.445012
0.430888
0.421592
0.406727
0.378324
0.345422
0.377793
0.403391
0.416721
0.435605
0.450377
0.460813
0.46297
0.456352
0.449628
0.446365
0.442539
0.441366
0.443746
0.448776
0.455792
0.461487
0.465419
0.470039
0.473218
0.475375
0.476635
0.473765
0.4657
0.454117
0.442448
0.430419
0.424407
0.405445
0.378699
0.343232
0.371896
0.399648
0.413342
0.431134
0.446161
0.459025