/*--------------------------------*- C++ -*----------------------------------*\
| =========                 |                                                 |
| \\      /  F ield         | OpenFOAM: The Open Source CFD Toolbox           |
|  \\    /   O peration     | Version:  2.3.0                                 |
|   \\  /    A nd           | Web:      www.OpenFOAM.org                      |
|    \\/     M anipulation  |                                                 |
\*---------------------------------------------------------------------------*/
FoamFile
{
    version     2.0;
    format      ascii;
    class       volScalarField;
    location    "0.72";
    object      p;
}
// * * * * * * * * * * * * * * * * * * * * * * * * * * * * * * * * * * * * * //

dimensions      [1 -1 -2 0 0 0 0];

internalField   nonuniform List<scalar> 
6000
(
105705
105704
105700
105691
105679
105669
105663
105660
105660
105663
105665
105667
105671
105678
105690
105700
105702
105692
105684
105678
105673
105670
105669
105666
105663
105660
105657
105656
105656
105659
105643
105638
105630
105623
105618
105615
105614
105612
105611
105610
105611
105613
105616
105619
105623
105631
105635
105630
105626
105623
105622
105621
105620
105619
105617
105614
105610
105605
105601
105600
105609
105603
105596
105590
105586
105583
105580
105579
105579
105579
105579
105580
105582
105585
105590
105598
105603
105599
105593
105591
105591
105590
105590
105590
105589
105586
105580
105573
105567
105564
105575
105572
105566
105561
105555
105550
105547
105547
105548
105549
105549
105548
105550
105554
105560
105564
105564
105561
105558
105558
105561
105561
105562
105562
105559
105552
105543
105533
105524
105520
105542
105545
105538
105531
105525
105519
105516
105517
105519
105520
105519
105517
105518
105523
105529
105528
105523
105522
105522
105525
105528
105528
105527
105522
105512
105498
105487
105481
105474
105470
105496
105510
105505
105494
105486
105481
105480
105481
105482
105480
105479
105480
105482
105486
105489
105482
105475
105477
105479
105478
105474
105468
105457
105439
105414
105391
105383
105392
105404
105406
105429
105434
105451
105443
105432
105428
105427
105424
105420
105414
105415
105421
105426
105428
105422
105415
105409
105405
105401
105386
105370
105357
105336
105306
105268
105234
105228
105253
105288
105306
105320
105324
105342
105356
105356
105351
105345
105334
105319
105308
105305
105306
105319
105326
105322
105314
105301
105280
105258
105236
105221
105205
105186
105168
105154
105144
105141
105144
105156
105170
105182
105186
105201
105225
105243
105246
105236
105214
105189
105169
105149
105140
105161
105196
105203
105184
105150
105123
105108
105102
105101
105104
105109
105112
105114
105114
105113
105111
105111
105113
105032
105027
105042
105073
105106
105124
105122
105095
105070
105055
105047
105047
105049
105062
105068
105059
105052
105050
105051
105054
105059
105068
105079
105090
105098
105101
105101
105099
105098
105097
104873
104867
104880
104911
104966
105008
105027
105020
105010
105007
105005
105006
105004
105002
105004
105008
105012
105017
105023
105030
105038
105048
105061
105074
105084
105090
105091
105091
105090
105089
104774
104774
104780
104794
104834
104901
104964
104977
104980
104981
104981
104981
104979
104977
104978
104982
104988
104993
104999
105007
105016
105028
105041
105056
105069
105078
105081
105082
105082
105082
104745
104746
104749
104753
104765
104808
104889
104936
104953
104959
104959
104958
104957
104956
104957
104960
104964
104968
104975
104983
104993
105006
105019
105035
105051
105062
105069
105072
105073
105074
104736
104737
104739
104741
104744
104758
104807
104883
104922
104935
104937
104935
104934
104934
104934
104936
104939
104944
104950
104959
104970
104981
104994
105010
105027
105042
105053
105059
105062
105063
104730
104731
104732
104734
104736
104739
104759
104821
104880
104907
104915
104914
104912
104911
104911
104912
104914
104918
104925
104934
104945
104955
104966
104980
104997
105015
105030
105039
105045
105049
104723
104724
104725
104727
104728
104729
104735
104768
104832
104874
104890
104893
104889
104887
104886
104886
104888
104892
104899
104909
104918
104925
104933
104945
104959
104977
104995
105010
105019
105025
104715
104716
104717
104718
104720
104720
104721
104734
104785
104835
104861
104870
104866
104863
104860
104859
104861
104865
104872
104882
104887
104890
104895
104903
104915
104930
104948
104966
104978
104984
104707
104708
104708
104709
104710
104710
104709
104712
104739
104791
104825
104842
104844
104837
104833
104831
104832
104836
104845
104851
104851
104850
104852
104856
104865
104876
104891
104906
104918
104921
104698
104698
104698
104698
104698
104698
104697
104695
104704
104745
104784
104808
104818
104812
104805
104801
104801
104806
104814
104815
104810
104804
104802
104804
104809
104817
104827
104837
104844
104846
104686
104687
104686
104686
104686
104685
104682
104679
104679
104698
104738
104766
104785
104785
104775
104768
104767
104774
104779
104772
104761
104753
104748
104746
104748
104752
104758
104763
104767
104768
104673
104673
104673
104673
104671
104668
104665
104661
104658
104664
104689
104718
104742
104752
104742
104731
104728
104738
104736
104721
104706
104695
104687
104683
104682
104683
104685
104688
104689
104690
104658
104658
104658
104656
104652
104648
104643
104639
104636
104636
104647
104669
104690
104709
104702
104686
104682
104692
104682
104662
104645
104631
104621
104614
104610
104609
104609
104610
104611
104611
104641
104640
104638
104635
104629
104623
104618
104613
104610
104608
104611
104623
104636
104652
104651
104633
104627
104633
104617
104596
104578
104562
104549
104539
104534
104532
104531
104532
104532
104532
104619
104616
104613
104608
104601
104594
104588
104584
104580
104576
104574
104576
104578
104584
104586
104570
104565
104563
104546
104525
104505
104486
104470
104458
104452
104450
104451
104452
104453
104453
104589
104586
104581
104574
104566
104559
104553
104549
104544
104538
104531
104523
104516
104514
104511
104499
104495
104490
104474
104451
104427
104404
104385
104371
104365
104366
104369
104373
104375
104375
104552
104547
104541
104533
104524
104516
104511
104506
104500
104491
104476
104460
104448
104441
104434
104425
104423
104418
104401
104375
104345
104317
104291
104272
104270
104277
104287
104294
104299
104299
104506
104500
104492
104481
104471
104463
104457
104452
104443
104430
104411
104391
104377
104367
104357
104353
104352
104348
104330
104298
104261
104223
104186
104149
104158
104182
104203
104218
104226
104228
104446
104437
104427
104416
104404
104395
104387
104378
104367
104353
104336
104318
104303
104292
104283
104286
104286
104284
104263
104222
104175
104126
104078
104052
104060
104089
104122
104146
104158
104161
104361
104347
104342
104334
104323
104309
104295
104281
104270
104261
104253
104243
104232
104221
104217
104222
104225
104223
104197
104148
104093
104040
104007
104001
104000
104017
104049
104080
104096
104102
104261
104248
104251
104246
104232
104210
104186
104165
104157
104157
104160
104162
104160
104157
104157
104161
104163
104161
104132
104077
104021
103981
103969
103971
103969
103972
103992
104023
104043
104049
104165
104165
104169
104161
104139
104108
104068
104030
104030
104049
104062
104073
104082
104091
104093
104096
104099
104097
104068
104012
103962
103944
103945
103946
103946
103944
103956
103977
103998
104005
104086
104094
104095
104080
104051
104004
103948
103920
103922
103942
103963
103981
103994
104009
104019
104027
104033
104032
104002
103946
103921
103919
103922
103923
103925
103924
103930
103945
103962
103969
104028
104031
104028
104007
103968
103908
103875
103870
103869
103872
103883
103897
103909
103921
103942
103959
103969
103969
103938
103901
103895
103898
103901
103903
103905
103906
103909
103921
103932
103938
103978
103975
103968
103942
103893
103856
103845
103845
103843
103840
103842
103848
103858
103871
103889
103905
103914
103915
103890
103874
103876
103878
103881
103883
103886
103889
103892
103898
103903
103906
103928
103923
103914
103887
103851
103831
103826
103824
103822
103821
103821
103824
103832
103843
103856
103868
103873
103874
103861
103856
103857
103859
103862
103865
103869
103873
103875
103874
103875
103872
103879
103874
103866
103847
103822
103811
103806
103804
103801
103801
103801
103804
103810
103818
103827
103836
103840
103842
103838
103836
103838
103840
103843
103847
103852
103856
103855
103851
103847
103843
103831
103829
103822
103810
103797
103791
103787
103783
103781
103780
103780
103782
103786
103791
103798
103804
103808
103813
103817
103817
103818
103821
103825
103830
103835
103836
103832
103826
103821
103818
103788
103787
103781
103776
103771
103769
103767
103762
103759
103758
103757
103758
103761
103764
103769
103773
103776
103783
103795
103797
103798
103802
103807
103813
103816
103813
103806
103799
103795
103794
103751
103749
103746
103744
103744
103746
103746
103742
103738
103735
103734
103734
103735
103737
103740
103743
103745
103750
103770
103775
103777
103782
103788
103793
103793
103786
103777
103771
103768
103770
103721
103717
103715
103714
103717
103723
103725
103722
103716
103712
103710
103708
103708
103709
103711
103713
103715
103717
103739
103750
103754
103761
103768
103770
103764
103755
103747
103744
103743
103747
103694
103689
103687
103687
103691
103698
103703
103701
103694
103689
103686
103683
103682
103681
103682
103684
103685
103685
103706
103722
103729
103738
103743
103740
103731
103722
103718
103719
103719
103722
103668
103664
103662
103661
103663
103670
103677
103679
103672
103666
103661
103658
103655
103653
103653
103654
103656
103657
103673
103693
103701
103709
103710
103703
103695
103690
103689
103691
103692
103690
103638
103639
103637
103635
103635
103639
103647
103652
103649
103642
103637
103632
103628
103625
103623
103624
103626
103628
103641
103662
103670
103674
103671
103664
103658
103655
103655
103654
103651
103646
103603
103605
103605
103604
103603
103605
103613
103621
103623
103618
103613
103606
103601
103596
103593
103592
103593
103596
103604
103626
103637
103636
103630
103624
103619
103616
103612
103606
103600
103595
103566
103567
103568
103568
103567
103569
103575
103584
103592
103592
103588
103581
103573
103566
103561
103559
103559
103561
103566
103586
103603
103597
103589
103582
103576
103569
103561
103552
103544
103538
103526
103527
103528
103529
103529
103530
103536
103544
103554
103561
103559
103553
103544
103533
103527
103524
103524
103526
103529
103544
103564
103555
103546
103537
103527
103516
103504
103494
103484
103480
103485
103486
103488
103489
103490
103491
103495
103502
103512
103521
103523
103520
103510
103497
103490
103487
103488
103490
103494
103505
103518
103510
103500
103488
103474
103460
103446
103432
103422
103423
103443
103445
103446
103447
103448
103450
103453
103460
103467
103473
103478
103476
103468
103455
103448
103447
103450
103454
103460
103468
103470
103461
103450
103435
103420
103403
103386
103371
103365
103372
103400
103403
103404
103404
103405
103407
103409
103414
103417
103419
103422
103420
103412
103402
103402
103405
103411
103418
103427
103434
103424
103412
103399
103382
103365
103346
103329
103322
103322
103327
103356
103359
103361
103361
103360
103360
103361
103362
103361
103360
103360
103355
103345
103346
103354
103363
103372
103383
103396
103402
103382
103364
103348
103328
103311
103295
103288
103288
103290
103293
103317
103313
103317
103316
103314
103313
103310
103307
103304
103303
103300
103292
103282
103296
103308
103320
103334
103349
103366
103368
103340
103316
103295
103277
103264
103257
103258
103263
103266
103268
103282
103276
103272
103271
103269
103266
103261
103256
103253
103250
103246
103236
103234
103249
103262
103277
103295
103318
103336
103328
103296
103268
103247
103233
103227
103228
103233
103238
103243
103240
103250
103239
103233
103228
103224
103220
103216
103210
103208
103205
103197
103188
103195
103205
103218
103233
103255
103282
103296
103275
103242
103219
103205
103198
103196
103201
103206
103209
103207
103204
103206
103201
103191
103184
103181
103177
103173
103169
103167
103164
103154
103146
103155
103163
103174
103188
103207
103230
103229
103208
103185
103173
103167
103165
103165
103169
103171
103168
103163
103160
103154
103151
103145
103140
103137
103134
103132
103130
103129
103124
103113
103110
103117
103124
103132
103141
103150
103156
103152
103144
103135
103131
103128
103127
103128
103129
103125
103119
103115
103110
103094
103094
103094
103093
103093
103092
103092
103092
103089
103080
103072
103076
103082
103087
103093
103096
103094
103084
103078
103084
103087
103087
103085
103084
103084
103079
103073
103067
103063
103058
103025
103030
103038
103043
103047
103050
103052
103052
103047
103036
103036
103044
103049
103054
103057
103057
103048
103033
103026
103034
103040
103040
103037
103036
103033
103025
103017
103012
103007
103002
102945
102951
102974
102989
102999
103005
103011
103013
103010
103001
103007
103015
103021
103025
103027
103025
103018
103007
103001
103002
102999
102993
102987
102984
102978
102967
102957
102951
102946
102942
102890
102891
102898
102929
102946
102958
102969
102977
102981
102978
102983
102990
102995
102999
103002
103001
102997
102991
102987
102984
102967
102949
102937
102929
102919
102906
102893
102883
102877
102878
102851
102848
102850
102861
102889
102909
102927
102944
102959
102960
102963
102967
102972
102977
102980
102982
102982
102979
102976
102967
102933
102902
102884
102872
102860
102844
102825
102810
102807
102814
102820
102815
102814
102817
102831
102859
102886
102913
102935
102941
102944
102947
102952
102957
102962
102966
102968
102967
102959
102933
102878
102841
102825
102815
102803
102782
102755
102737
102737
102752
102788
102786
102786
102785
102791
102810
102849
102871
102899
102916
102921
102925
102930
102934
102940
102946
102946
102937
102909
102849
102790
102754
102752
102759
102750
102723
102700
102692
102693
102695
102754
102756
102757
102758
102759
102772
102806
102817
102844
102867
102877
102884
102890
102893
102895
102892
102874
102837
102787
102732
102697
102681
102685
102703
102704
102680
102667
102666
102665
102664
102722
102727
102729
102729
102730
102732
102746
102751
102759
102772
102787
102798
102803
102801
102786
102753
102715
102689
102670
102655
102647
102645
102646
102655
102666
102653
102647
102647
102646
102644
102698
102701
102702
102702
102702
102703
102706
102703
102691
102690
102693
102695
102693
102686
102672
102654
102641
102633
102629
102626
102626
102628
102628
102634
102635
102632
102630
102629
102629
102628
102678
102678
102679
102679
102678
102678
102676
102669
102659
102654
102651
102647
102642
102636
102629
102623
102619
102617
102615
102614
102615
102615
102615
102618
102617
102612
102613
102612
102612
102611
102661
102659
102658
102657
102656
102655
102651
102643
102637
102634
102630
102626
102622
102617
102613
102610
102607
102605
102603
102602
102602
102602
102602
102603
102603
102596
102596
102596
102596
102596
102647
102642
102640
102638
102636
102634
102628
102621
102617
102615
102612
102609
102605
102602
102599
102596
102593
102591
102590
102589
102589
102589
102589
102589
102585
102582
102581
102581
102581
102581
102634
102628
102624
102621
102617
102614
102608
102600
102597
102595
102593
102591
102588
102586
102583
102581
102579
102577
102576
102575
102575
102575
102576
102575
102570
102568
102567
102567
102567
102567
102621
102616
102611
102606
102601
102597
102589
102580
102578
102577
102575
102573
102571
102569
102567
102565
102564
102563
102562
102561
102561
102561
102562
102561
102556
102554
102554
102554
102554
102555
102604
102604
102598
102591
102585
102580
102571
102561
102559
102558
102557
102555
102554
102552
102551
102550
102549
102547
102547
102546
102546
102547
102548
102546
102543
102542
102542
102542
102542
102544
102584
102583
102581
102574
102568
102561
102551
102542
102541
102540
102539
102538
102537
102536
102535
102534
102533
102532
102531
102531
102531
102532
102533
102532
102531
102530
102531
102532
102532
102534
102558
102560
102557
102554
102547
102539
102532
102525
102524
102523
102522
102521
102520
102519
102518
102518
102517
102516
102516
102516
102516
102517
102519
102519
102519
102520
102521
102522
102523
102526
102533
102537
102534
102529
102524
102517
102513
102508
102506
102505
102505
102504
102503
102503
102502
102502
102501
102501
102500
102500
102501
102502
102503
102506
102508
102510
102512
102514
102515
102517
102510
102515
102513
102505
102500
102495
102494
102490
102489
102488
102487
102487
102486
102486
102486
102486
102485
102485
102484
102484
102485
102485
102487
102491
102496
102499
102502
102505
102508
102510
102488
102493
102492
102483
102478
102475
102474
102472
102471
102471
102470
102470
102470
102470
102470
102469
102469
102469
102468
102468
102468
102469
102470
102475
102481
102485
102489
102493
102498
102498
102467
102470
102470
102462
102457
102455
102455
102453
102454
102454
102454
102453
102453
102453
102453
102453
102453
102452
102452
102452
102452
102452
102451
102457
102463
102468
102472
102477
102481
102483
102448
102453
102451
102443
102437
102435
102435
102435
102436
102436
102437
102437
102437
102437
102437
102437
102436
102436
102436
102435
102435
102434
102433
102437
102444
102449
102453
102458
102465
102464
102436
102437
102434
102425
102418
102415
102415
102417
102418
102419
102420
102421
102421
102421
102421
102421
102420
102420
102420
102419
102418
102418
102416
102417
102422
102427
102431
102438
102449
102447
102424
102423
102417
102407
102400
102397
102396
102399
102401
102403
102404
102404
102405
102405
102405
102405
102404
102404
102403
102403
102402
102401
102400
102398
102402
102406
102410
102418
102424
102424
102410
102408
102400
102389
102382
102379
102379
102383
102385
102386
102388
102388
102389
102389
102389
102389
102389
102388
102388
102387
102386
102385
102384
102381
102384
102386
102390
102395
102398
102396
102398
102395
102385
102374
102364
102360
102363
102367
102369
102371
102372
102373
102373
102373
102374
102373
102373
102373
102372
102372
102371
102370
102368
102365
102367
102368
102371
102375
102375
102374
102389
102384
102373
102360
102349
102344
102349
102352
102354
102355
102356
102357
102358
102358
102358
102358
102358
102358
102357
102357
102356
102355
102353
102350
102350
102351
102355
102359
102361
102360
102381
102373
102360
102347
102336
102332
102335
102337
102339
102340
102341
102342
102343
102343
102343
102343
102343
102343
102342
102342
102341
102340
102339
102337
102334
102336
102341
102349
102354
102357
102370
102361
102347
102332
102322
102321
102322
102324
102325
102326
102327
102328
102328
102328
102329
102329
102329
102328
102328
102328
102327
102326
102325
102323
102320
102323
102330
102340
102349
102353
102354
102348
102333
102316
102307
102308
102309
102310
102311
102312
102313
102313
102314
102314
102314
102314
102314
102314
102314
102314
102313
102313
102311
102310
102307
102311
102319
102329
102337
102337
102335
102336
102321
102305
102294
102295
102296
102296
102297
102298
102299
102299
102300
102300
102300
102301
102301
102301
102301
102300
102300
102300
102299
102297
102296
102298
102306
102315
102319
102318
102316
102317
102305
102290
102283
102283
102283
102283
102284
102284
102285
102285
102286
102286
102287
102287
102287
102287
102287
102287
102287
102287
102286
102286
102285
102285
102292
102300
102300
102300
102297
102295
102288
102275
102271
102270
102270
102270
102270
102271
102271
102272
102272
102273
102273
102274
102274
102274
102275
102275
102275
102275
102274
102274
102274
102275
102277
102280
102282
102283
102278
102276
102269
102261
102258
102257
102256
102256
102257
102257
102258
102258
102259
102260
102260
102261
102261
102262
102262
102262
102263
102263
102263
102263
102264
102265
102264
102265
102265
102266
102260
102259
102253
102248
102245
102243
102243
102243
102243
102244
102244
102245
102246
102246
102247
102248
102249
102249
102250
102250
102251
102251
102251
102252
102253
102254
102252
102251
102250
102250
102243
102242
102238
102234
102231
102230
102230
102230
102230
102230
102231
102232
102233
102234
102235
102236
102237
102238
102238
102239
102239
102240
102240
102241
102242
102242
102239
102236
102234
102235
102226
102226
102223
102219
102217
102216
102216
102216
102217
102217
102218
102218
102219
102221
102222
102224
102225
102226
102227
102228
102228
102228
102229
102230
102231
102230
102226
102222
102219
102220
102210
102210
102208
102205
102203
102203
102203
102203
102203
102204
102204
102205
102206
102208
102210
102212
102214
102216
102217
102217
102217
102218
102218
102219
102220
102219
102213
102208
102204
102205
102194
102194
102194
102191
102189
102189
102189
102189
102190
102190
102191
102192
102193
102195
102197
102200
102203
102206
102207
102207
102207
102208
102208
102208
102209
102207
102201
102195
102191
102191
102178
102179
102180
102178
102176
102176
102176
102176
102176
102177
102178
102179
102180
102182
102184
102188
102192
102196
102198
102198
102198
102198
102198
102198
102199
102196
102189
102182
102178
102175
102163
102164
102165
102165
102164
102163
102163
102163
102163
102164
102164
102165
102166
102168
102171
102175
102181
102186
102189
102190
102189
102189
102189
102189
102189
102186
102177
102168
102160
102155
102148
102149
102151
102153
102152
102151
102150
102150
102150
102150
102151
102152
102153
102154
102157
102161
102167
102175
102179
102181
102181
102180
102180
102180
102180
102176
102164
102149
102137
102129
102133
102134
102137
102140
102139
102138
102138
102137
102137
102137
102137
102138
102139
102140
102142
102145
102152
102162
102170
102172
102173
102172
102172
102172
102172
102166
102147
102124
102105
102091
102118
102119
102123
102127
102127
102126
102125
102125
102124
102124
102124
102124
102125
102125
102127
102128
102135
102148
102159
102164
102165
102164
102164
102164
102163
102155
102124
102093
102062
102034
102102
102104
102109
102114
102115
102113
102112
102112
102111
102111
102111
102111
102111
102111
102112
102112
102116
102130
102146
102154
102156
102156
102156
102156
102153
102137
102095
102052
102020
102007
102086
102088
102094
102102
102103
102101
102100
102100
102099
102098
102098
102098
102097
102097
102097
102097
102098
102110
102130
102142
102146
102147
102147
102145
102139
102111
102056
102013
101998
101996
102068
102071
102079
102089
102092
102090
102088
102087
102087
102086
102085
102085
102084
102084
102084
102084
102083
102090
102110
102126
102132
102134
102134
102130
102114
102072
102017
101995
101991
101991
102048
102053
102063
102077
102081
102079
102077
102076
102075
102074
102073
102072
102072
102071
102071
102071
102070
102074
102088
102105
102113
102116
102115
102105
102077
102028
101996
101988
101987
101986
102024
102030
102044
102062
102070
102069
102066
102065
102063
102062
102061
102060
102059
102059
102059
102059
102060
102061
102069
102081
102088
102090
102086
102070
102037
102000
101986
101983
101982
101981
101992
102000
102018
102042
102058
102059
102056
102054
102052
102050
102049
102048
102047
102047
102047
102049
102049
102049
102052
102057
102059
102058
102050
102033
102004
101986
101980
101978
101977
101976
101943
101958
101982
102015
102045
102049
102046
102043
102041
102039
102037
102036
102036
102036
102036
102038
102039
102038
102036
102034
102030
102024
102014
101999
101983
101975
101973
101972
101971
101971
101873
101894
101933
101978
102023
102036
102036
102033
102030
102027
102026
102025
102024
102024
102025
102027
102028
102026
102019
102010
102002
101993
101983
101972
101965
101962
101962
101963
101964
101964
101842
101850
101880
101931
101987
102019
102024
102023
102019
102016
102014
102013
102013
102013
102014
102016
102016
102010
101999
101986
101975
101965
101956
101948
101945
101945
101948
101951
101953
101954
101832
101834
101844
101881
101941
101989
102007
102011
102008
102005
102003
102002
102001
102002
102003
102005
102002
101992
101977
101961
101948
101937
101928
101923
101921
101922
101927
101933
101937
101939
101828
101829
101831
101844
101888
101945
101982
101996
101997
101994
101992
101990
101990
101991
101993
101993
101987
101972
101952
101934
101919
101907
101898
101893
101890
101892
101897
101905
101912
101915
101825
101825
101826
101830
101848
101899
101947
101976
101985
101983
101980
101979
101979
101980
101982
101980
101969
101947
101923
101903
101885
101872
101862
101856
101853
101853
101857
101864
101872
101877
101821
101822
101823
101824
101831
101857
101909
101948
101969
101971
101968
101967
101967
101969
101970
101966
101947
101917
101890
101867
101847
101831
101820
101812
101807
101806
101808
101813
101819
101823
101817
101818
101819
101820
101823
101834
101869
101915
101948
101958
101957
101955
101956
101958
101958
101946
101914
101880
101850
101824
101803
101785
101771
101761
101755
101752
101752
101754
101757
101759
101812
101813
101813
101815
101817
101821
101837
101876
101918
101940
101944
101943
101944
101946
101940
101911
101871
101834
101803
101776
101752
101733
101718
101706
101697
101692
101690
101689
101690
101691
101806
101806
101807
101807
101808
101810
101815
101836
101877
101914
101926
101927
101929
101927
101907
101862
101819
101781
101748
101720
101695
101675
101658
101645
101634
101627
101623
101621
101620
101621
101798
101798
101797
101795
101793
101793
101795
101801
101827
101869
101895
101903
101905
101892
101852
101802
101759
101720
101687
101658
101632
101611
101593
101578
101567
101558
101552
101549
101547
101547
101785
101785
101781
101774
101768
101765
101765
101767
101776
101805
101839
101859
101857
101826
101778
101732
101691
101654
101620
101590
101564
101541
101522
101506
101494
101484
101477
101472
101470
101469
101763
101760
101749
101734
101722
101718
101720
101721
101723
101733
101755
101775
101766
101734
101695
101655
101618
101582
101549
101518
101491
101467
101447
101430
101416
101405
101396
101391
101388
101387
101718
101709
101686
101665
101652
101648
101652
101658
101659
101657
101661
101664
101656
101635
101607
101574
101540
101506
101473
101443
101415
101390
101368
101349
101334
101321
101311
101304
101300
101298
101634
101617
101593
101575
101565
101563
101567
101576
101582
101577
101571
101563
101553
101540
101518
101490
101459
101427
101395
101364
101335
101309
101286
101266
101248
101233
101221
101213
101207
101205
101515
101502
101486
101473
101467
101468
101474
101483
101492
101493
101483
101471
101460
101451
101432
101407
101379
101348
101316
101284
101254
101227
101202
101180
101159
101141
101128
101117
101111
101107
101388
101382
101374
101370
101368
101370
101377
101386
101395
101400
101393
101382
101373
101366
101349
101327
101299
101269
101237
101204
101173
101145
101119
101094
101072
101052
101035
101020
101009
101004
101263
101261
101262
101266
101268
101271
101278
101287
101297
101303
101302
101293
101287
101281
101267
101247
101222
101192
101160
101126
101094
101066
101039
101014
100991
100969
100946
100924
100905
100895
101134
101137
101144
101155
101163
101170
101178
101189
101200
101207
101210
101204
101200
101197
101186
101169
101146
101117
101085
101050
101019
100992
100965
100939
100915
100889
100857
100824
100793
100775
100999
101003
101015
101032
101049
101063
101077
101091
101104
101114
101118
101115
101113
101112
101105
101092
101072
101045
101013
100979
100948
100920
100893
100866
100836
100799
100755
100711
100667
100628
100848
100853
100875
100902
100929
100951
100974
100994
101011
101023
101030
101031
101028
101028
101024
101016
100999
100976
100944
100911
100877
100848
100819
100787
100748
100699
100647
100595
100539
100498
100669
100681
100724
100771
100810
100841
100872
100900
100922
100935
100943
100948
100946
100946
100945
100941
100929
100908
100879
100845
100807
100776
100744
100705
100658
100605
100552
100496
100453
100439
100506
100525
100579
100643
100696
100737
100776
100812
100838
100851
100857
100859
100861
100865
100868
100869
100861
100843
100815
100780
100740
100707
100673
100628
100576
100525
100476
100433
100419
100417
100452
100457
100477
100532
100593
100641
100687
100731
100762
100775
100780
100779
100782
100790
100797
100800
100796
100781
100756
100719
100680
100644
100608
100560
100505
100456
100419
100406
100405
100407
100438
100439
100443
100459
100504
100558
100609
100659
100697
100715
100720
100726
100729
100733
100739
100738
100736
100723
100699
100666
100625
100588
100551
100498
100442
100406
100396
100395
100397
100399
100434
100434
100434
100437
100451
100491
100543
100597
100640
100667
100677
100687
100692
100692
100692
100689
100681
100668
100646
100615
100575
100531
100492
100438
100397
100387
100387
100388
100390
100392
100430
100430
100431
100431
100434
100450
100491
100542
100591
100624
100639
100651
100656
100654
100649
100643
100628
100614
100594
100565
100521
100479
100434
100393
100380
100380
100381
100382
100384
100385
100426
100427
100427
100427
100427
100432
100453
100499
100544
100577
100596
100607
100611
100610
100604
100594
100581
100562
100545
100517
100478
100435
100392
100376
100374
100375
100376
100377
100377
100378
100422
100423
100423
100422
100422
100423
100433
100460
100500
100528
100546
100556
100561
100560
100555
100546
100534
100519
100497
100473
100440
100398
100374
100369
100369
100370
100371
100371
100371
100371
100418
100418
100417
100417
100417
100418
100422
100436
100463
100485
100500
100509
100513
100513
100509
100501
100490
100476
100458
100438
100408
100376
100365
100364
100364
100364
100364
100364
100364
100363
100411
100411
100410
100410
100411
100412
100415
100422
100437
100451
100461
100468
100472
100472
100468
100462
100452
100439
100424
100405
100380
100364
100359
100358
100357
100356
100356
100356
100355
100353
100403
100403
100402
100402
100402
100404
100407
100410
100415
100422
100428
100432
100433
100432
100429
100423
100415
100405
100393
100378
100363
100355
100352
100351
100349
100348
100347
100346
100344
100341
100393
100392
100392
100391
100391
100393
100395
100394
100393
100393
100394
100394
100394
100392
100388
100383
100378
100371
100363
100355
100349
100346
100344