/*--------------------------------*- C++ -*----------------------------------*\
| =========                 |                                                 |
| \\      /  F ield         | OpenFOAM: The Open Source CFD Toolbox           |
|  \\    /   O peration     | Version:  2.3.0                                 |
|   \\  /    A nd           | Web:      www.OpenFOAM.org                      |
|    \\/     M anipulation  |                                                 |
\*---------------------------------------------------------------------------*/
FoamFile
{
    version     2.0;
    format      ascii;
    class       surfaceScalarField;
    location    "0.72";
    object      phi.particles;
}
// * * * * * * * * * * * * * * * * * * * * * * * * * * * * * * * * * * * * * //

dimensions      [0 3 -1 0 0 0 0];

internalField   nonuniform List<scalar> 
11770
(
1.35914e-06
-1.61823e-05
2.51212e-06
-2.01096e-05
2.79973e-06
-2.23544e-05
2.72815e-06
-2.46192e-05
3.29935e-06
-2.56053e-05
3.85544e-06
-2.7466e-05
3.78289e-06
-2.85556e-05
3.60518e-06
-3.04328e-05
4.65276e-06
-2.77672e-05
5.90489e-06
-2.63992e-05
6.27828e-06
-2.68156e-05
5.35014e-06
-2.72663e-05
1.65343e-06
-2.84141e-05
-2.35317e-06
-2.31923e-05
-3.83567e-06
-1.80929e-05
-2.90837e-06
-1.77314e-05
-6.12432e-07
-1.73414e-05
3.1638e-07
-1.845e-05
-6.70651e-07
-2.19444e-05
-1.22135e-06
-2.2095e-05
-1.50288e-06
-2.39067e-05
-2.27843e-06
-2.70355e-05
-2.84801e-06
-2.81526e-05
-2.72472e-06
-2.73875e-05
-2.00259e-06
-2.58879e-05
-4.26293e-07
-2.22968e-05
1.7472e-06
-1.94797e-05
2.21058e-06
-1.79394e-05
1.02436e-06
-1.7629e-05
-1.40823e-05
7.13663e-07
-3.43405e-06
-2.95578e-06
-6.14678e-07
-4.92786e-06
-3.52903e-06
-3.60254e-06
-8.22628e-06
-2.84904e-07
-1.14123e-05
3.39153e-06
-1.15574e-05
5.94114e-06
-9.88545e-06
7.44142e-06
-7.73509e-06
8.48482e-06
-7.02782e-06
9.17375e-06
-6.47477e-06
9.18732e-06
-4.80999e-06
7.94551e-06
-1.84786e-06
6.57691e-06
-3.92381e-06
5.15496e-06
-2.67454e-06
3.5146e-06
8.15746e-07
1.35371e-07
1.75722e-06
-5.17638e-06
3.4642e-06
-8.96607e-06
4.63765e-06
-1.03498e-05
-9.72293e-09
-1.0026e-05
-2.55566e-06
-7.46213e-06
-4.30817e-06
-4.28759e-06
-5.61888e-06
-2.69103e-06
-3.3022e-06
-2.15371e-06
-1.30035e-06
-1.27204e-06
-3.55902e-07
1.65109e-06
-7.58033e-07
4.75969e-06
-1.32427e-06
6.36188e-06
8.94958e-07
4.68007e-06
4.13491e-06
5.15685e-06
-2.46904e-06
-3.33079e-06
-5.15788e-06
-2.30168e-06
-6.75639e-06
-4.75117e-06
-4.53257e-06
-1.03653e-05
-8.05461e-07
-1.30852e-05
2.80976e-06
-1.2906e-05
5.62695e-06
-1.11729e-05
7.16624e-06
-7.80599e-06
8.20483e-06
-7.01111e-06
9.45044e-06
-7.08672e-06
1.02903e-05
-5.43749e-06
1.05202e-05
-1.87734e-06
1.08585e-05
-1.41056e-07
1.10919e-05
2.21683e-06
9.48648e-06
3.00668e-06
2.69276e-06
4.48507e-06
-6.77823e-06
5.66888e-06
-1.2443e-05
4.87002e-06
-1.35886e-05
8.37571e-07
-1.22829e-05
-2.73814e-06
-9.46085e-06
-4.2768e-06
-6.60787e-06
-3.39965e-06
-4.44582e-06
-1.4881e-06
-2.15119e-06
3.24775e-07
1.61619e-06
1.62124e-07
6.29346e-06
-2.80249e-06
9.4685e-06
-1.7352e-06
1.08287e-05
7.10259e-07
9.22794e-06
5.07534e-06
1.06243e-05
-4.53123e-06
2.57538e-06
-6.6185e-06
3.67394e-06
-7.69269e-06
-6.42744e-07
-6.23397e-06
-6.71404e-06
-4.40778e-06
-8.43742e-06
-1.12022e-06
-8.88344e-06
2.7873e-06
-6.32059e-06
5.64624e-06
-1.84206e-06
8.26571e-06
-1.59362e-06
1.09101e-05
-3.03702e-06
1.23128e-05
-1.1607e-06
1.42553e-05
1.93105e-06
1.62647e-05
5.6601e-06
1.65215e-05
9.10108e-06
1.42306e-05
1.03036e-05
4.29908e-06
1.31401e-05
-8.17062e-06
1.38763e-05
-1.36994e-05
1.06801e-05
-1.31024e-05
7.7906e-06
-1.08462e-05
3.81364e-06
-9.08085e-06
1.81221e-06
-6.90013e-06
2.03524e-06
-3.66009e-06
2.47585e-06
5.23929e-07
2.267e-06
5.06506e-06
5.36665e-07
8.67305e-06
-1.14848e-06
1.04814e-05
2.42157e-06
1.07694e-05
8.55286e-06
9.18185e-06
1.41669e-05
2.11994e-05
-1.85084e-06
6.74791e-06
-9.22331e-06
1.19396e-05
-9.83496e-06
6.21449e-06
-1.07423e-05
-2.39293e-06
-9.86746e-06
-4.62409e-06
-6.02592e-06
-6.25387e-06
-5.77262e-07
-4.63747e-06
4.1439e-06
-2.33171e-07
7.78558e-06
3.7625e-07
1.0342e-05
-1.86319e-07
1.35426e-05
1.74187e-06
1.80392e-05
5.63604e-06
2.07109e-05
1.12424e-05
1.98418e-05
1.6401e-05
1.22778e-05
2.09015e-05
-1.50126e-06
2.52158e-05
-1.13194e-05
2.28845e-05
-1.30369e-05
1.75062e-05
-9.72965e-06
1.36084e-05
-6.47081e-06
7.57351e-06
-5.76831e-06
5.33628e-06
-5.09256e-06
5.13771e-06
-2.97357e-06
1.99807e-06
7.58714e-07
-2.46018e-06
4.65613e-06
-5.745e-06
7.08432e-06
-5.31743e-06
8.07421e-06
1.2792e-06
7.46719e-06
1.18918e-05
5.35394e-06
2.36109e-05
3.19892e-05
5.34387e-06
8.64218e-06
-4.70876e-06
1.41181e-05
-1.27445e-05
1.59389e-05
-1.30916e-05
7.28498e-06
-1.20374e-05
-4.51287e-07
-8.00724e-06
-3.25077e-06
-2.37754e-06
-2.8871e-06
2.97788e-06
-9.3461e-08
6.69962e-06
1.33506e-06
8.43e-06
2.96658e-06
1.09083e-05
6.35946e-06
1.51722e-05
1.25463e-05
1.81689e-05
1.85282e-05
1.28163e-05
2.75563e-05
-1.5815e-07
3.2167e-05
-9.37176e-06
3.3864e-05
-1.17844e-05
2.6701e-05
-9.32152e-06
1.93203e-05
-4.98272e-06
1.38484e-05
-3.90007e-06
8.1372e-06
-5.97384e-06
6.4872e-06
-6.4661e-06
3.70617e-06
-4.59126e-06
-3.36111e-06
-1.7754e-06
-1.10328e-05
4.02215e-07
-1.55952e-05
1.06805e-06
-1.43485e-05
3.09258e-07
-5.72377e-06
-1.00541e-06
1.05683e-05
-1.67364e-06
2.58726e-05
3.49634e-05
1.84664e-06
7.48747e-06
-3.83634e-07
1.56447e-05
-9.8084e-06
1.87174e-05
-1.51851e-05
1.50964e-05
-1.26259e-05
5.3959e-06
-7.65382e-06
-1.31458e-06
-1.96246e-06
-2.22479e-06
1.87203e-06
2.55902e-07
3.70264e-06
1.72547e-06
4.35323e-06
4.2147e-06
4.6731e-06
8.50349e-06
3.90563e-06
1.56582e-05
2.7765e-06
2.29048e-05
-3.01328e-06
3.36372e-05
-1.05774e-05
3.65914e-05
-1.23898e-05
3.30927e-05
-9.29606e-06
2.28895e-05
-5.44532e-06
1.47164e-05
-4.25356e-06
9.65056e-06
-6.37927e-06
6.45588e-06
-9.07082e-06
2.55551e-06
-9.22232e-06
-4.72537e-06
-7.32865e-06
-1.52008e-05
-5.71868e-06
-2.50199e-05
-5.66111e-06
-2.94607e-05
-6.987e-06
-3.15133e-05
-9.13261e-06
-2.6386e-05
-9.09778e-06
-8.54763e-06
-6.08354e-06
1.05129e-05
2.2962e-05
-7.50023e-07
7.04485e-06
-3.84355e-06
1.58322e-05
-7.574e-06
1.96955e-05
-1.25647e-05
1.73877e-05
-1.43083e-05
8.99378e-06
-9.67441e-06
-1.65433e-08
-3.80508e-06
-3.43908e-06
-9.08133e-07
-1.34398e-06
-1.1386e-07
3.48932e-07
-5.23192e-07
1.82761e-06
-3.00712e-06
4.86761e-06
-8.5912e-06
9.42692e-06
-1.11429e-05
2.0553e-05
-1.11897e-05
2.98524e-05
-1.14237e-05
3.13388e-05
-8.52598e-06
2.57049e-05
-5.0091e-06
1.36871e-05
-4.83667e-06
4.204e-06
-7.51322e-06
-3.90607e-07
-1.11298e-05
-3.90573e-06
-1.35188e-05
-1.01766e-05
-1.37842e-05
-1.85015e-05
-1.32783e-05
-3.0171e-05
-1.30466e-05
-4.10052e-05
-1.32255e-05
-4.55766e-05
-1.25491e-05
-4.75983e-05
-1.13473e-05
-4.58562e-05
-1.07835e-05
-3.71057e-05
-6.79326e-06
-2.33721e-05
-1.09054e-05
-2.37819e-06
7.51149e-06
-5.26917e-06
1.69416e-05
-8.32808e-06
2.01109e-05
-1.10974e-05
1.70153e-05
-1.25422e-05
9.48676e-06
-1.06266e-05
4.35577e-07
-5.84181e-06
-4.92055e-06
-3.25606e-06
-5.02332e-06
-3.99079e-06
-9.38278e-06
-5.19404e-06
-1.04402e-05
-8.57268e-06
-1.26149e-05
-1.59126e-05
-1.30358e-05
-1.74555e-05
-1.03328e-06
-1.31079e-05
1.28726e-05
-8.33583e-06
1.45013e-05
-4.1752e-06
8.28456e-06
-4.81818e-06
-4.43474e-06
-1.07013e-05
-1.39167e-05
-1.63485e-05
-1.85268e-05
-1.86202e-05
-2.38302e-05
-1.79413e-05
-3.00911e-05
-1.7299e-05
-3.47016e-05
-1.77008e-05
-4.04406e-05
-1.76197e-05
-4.47045e-05
-1.63522e-05
-4.66017e-05
-1.37174e-05
-4.756e-05
-1.00443e-05
-4.70323e-05
-6.74789e-06
-4.57095e-05
-4.01903e-06
-4.35478e-05
-3.90964e-05
-3.43322e-06
8.01918e-06
-5.73292e-06
2.00821e-05
-7.32746e-06
2.28842e-05
-9.20772e-06
1.63998e-05
-1.04925e-05
8.15672e-06
-9.8815e-06
-3.25726e-07
-6.97223e-06
-7.33427e-06
-7.57907e-06
-1.52147e-05
-9.43309e-06
-2.82196e-05
-1.1029e-05
-3.07489e-05
-1.27558e-05
-3.0793e-05
-1.2582e-05
-2.93842e-05
-1.41661e-05
-2.64778e-05
-1.19038e-05
-1.54196e-05
-5.90788e-06
-8.84458e-06
-7.78237e-06
-1.85056e-05
-1.54514e-05
-2.55348e-05
-2.14144e-05
-2.8051e-05
-2.29767e-05
-2.96315e-05
-2.11329e-05
-3.31227e-05
-1.80891e-05
-3.56435e-05
-1.71829e-05
-3.65971e-05
-1.69083e-05
-3.91639e-05
-1.69828e-05
-4.05805e-05
-1.63692e-05
-4.16676e-05
-1.40278e-05
-4.27578e-05
-1.07726e-05
-4.31735e-05
-7.12109e-06
-4.26596e-05
-3.74398e-06
-4.14746e-05
-3.99917e-05
-4.38322e-06
1.0955e-05
-5.40058e-06
1.37563e-05
-5.4756e-06
1.63488e-05
-6.50827e-06
1.62174e-05
-7.93889e-06
6.29708e-06
-8.36174e-06
-2.88002e-06
-6.98782e-06
-1.09504e-05
-1.271e-05
-2.41346e-05
-1.26348e-05
-3.42982e-05
-1.23473e-05
-3.56338e-05
-1.22255e-05
-3.14036e-05
-1.03523e-05
-2.96397e-05
-9.49567e-06
-3.08292e-05
-1.11729e-05
-3.0716e-05
-1.41912e-05
-2.82179e-05
-1.86158e-05
-3.16059e-05
-2.20885e-05
-2.94953e-05
-2.29883e-05
-2.83347e-05
-2.13751e-05
-2.86819e-05
-1.7423e-05
-3.09721e-05
-1.45199e-05
-3.18809e-05
-1.38308e-05
-3.34217e-05
-1.42059e-05
-3.50395e-05
-1.53282e-05
-3.60313e-05
-1.55907e-05
-3.65747e-05
-1.38965e-05
-3.72826e-05
-1.11714e-05
-3.81312e-05
-7.84344e-06
-3.82014e-05
-4.44261e-06
-3.6981e-05
-3.48846e-05
-7.75414e-06
-5.39811e-06
-1.43109e-06
-1.23066e-05
-4.27978e-07
-1.1313e-05
-3.09592e-06
-8.17419e-06
-6.74698e-06
-8.90454e-06
-8.3685e-06
-6.1318e-06
-1.60755e-05
-1.88827e-05
-1.79536e-05
-2.47853e-05
-1.37223e-05
-3.03948e-05
-1.26225e-05
-3.26267e-05
-1.22512e-05
-2.89528e-05
-1.13263e-05
-2.63603e-05
-1.13075e-05
-2.69447e-05
-1.3965e-05
-2.7706e-05
-1.73916e-05
-2.84957e-05
-2.02572e-05
-2.8615e-05
-2.21552e-05
-2.56712e-05
-2.17163e-05
-2.49906e-05
-1.82243e-05
-2.56662e-05
-1.38664e-05
-2.79591e-05
-1.19862e-05
-2.86158e-05
-1.12513e-05
-3.05881e-05
-1.18513e-05
-3.15312e-05
-1.32742e-05
-3.15866e-05
-1.38962e-05
-3.11839e-05
-1.29318e-05
-3.13821e-05
-1.05807e-05
-3.21885e-05
-7.87909e-06
-3.2701e-05
-4.92843e-06
-3.22397e-05
-3.07425e-05
-1.39285e-07
-2.52324e-05
2.78011e-06
-3.02923e-05
4.94853e-06
-3.10258e-05
4.95796e-06
-3.09219e-05
-3.70844e-07
-3.08229e-05
-1.32684e-05
-2.32111e-05
-2.2505e-05
-2.46092e-05
-1.87779e-05
-2.22081e-05
-1.44854e-05
-2.44014e-05
-1.34672e-05
-2.87329e-05
-1.29152e-05
-2.66565e-05
-1.23149e-05
-2.27419e-05
-1.23718e-05
-2.28753e-05
-1.48892e-05
-2.36065e-05
-1.81449e-05
-2.42491e-05
-2.03865e-05
-2.40802e-05
-2.11593e-05
-2.16666e-05
-1.93186e-05
-2.11968e-05
-1.49175e-05
-2.2934e-05
-1.13576e-05
-2.48866e-05
-9.64185e-06
-2.63436e-05
-8.62818e-06
-2.78265e-05
-9.49528e-06
-2.80546e-05
-1.13259e-05
-2.71061e-05
-1.2453e-05
-2.60842e-05
-1.21237e-05
-2.58082e-05
-1.03947e-05
-2.59294e-05
-7.96862e-06
-2.62573e-05
-4.86873e-06
-2.62773e-05
-2.61883e-05
2.4939e-06
-2.73339e-05
4.31632e-06
-2.88303e-05
7.38968e-06
-3.07282e-05
1.08127e-05
-3.27647e-05
1.045e-05
-3.43811e-05
1.83028e-07
-3.47528e-05
-1.42849e-05
-2.92019e-05
-1.65995e-05
-2.12301e-05
-1.36958e-05
-1.86669e-05
-1.32727e-05
-2.39941e-05
-1.31241e-05
-2.39697e-05
-1.30918e-05
-1.88837e-05
-1.33735e-05
-1.85959e-05
-1.56458e-05
-1.95472e-05
-1.8412e-05
-2.02263e-05
-1.99966e-05
-1.95178e-05
-1.98444e-05
-1.77768e-05
-1.65871e-05
-1.7615e-05
-1.18243e-05
-2.07282e-05
-8.55137e-06
-2.1911e-05
-6.31423e-06
-2.40586e-05
-5.58986e-06
-2.49305e-05
-6.80583e-06
-2.42562e-05
-8.98953e-06
-2.28945e-05
-1.06576e-05
-2.15033e-05
-1.07341e-05
-2.0507e-05
-9.44259e-06
-1.99098e-05
-7.16379e-06
-1.9488e-05
-3.8422e-06
-1.92919e-05
-1.98409e-05
2.77172e-06
-2.35122e-05
5.04872e-06
-2.58633e-05
8.49206e-06
-2.83813e-05
1.1832e-05
-3.11104e-05
1.53053e-05
-3.18601e-05
1.23926e-05
-3.32926e-05
-3.49957e-06
-3.09423e-05
-1.3161e-05
-2.15865e-05
-1.14764e-05
-1.68233e-05
-1.17296e-05
-1.83843e-05
-1.29653e-05
-2.01487e-05
-1.3279e-05
-1.53858e-05
-1.38683e-05
-1.37627e-05
-1.59774e-05
-1.48731e-05
-1.83224e-05
-1.60643e-05
-1.91939e-05
-1.54843e-05
-1.77135e-05
-1.38193e-05
-1.34648e-05
-1.41906e-05
-8.88748e-06
-1.78985e-05
-5.57533e-06
-1.98834e-05
-3.21387e-06
-2.17927e-05
-2.92701e-06
-2.18977e-05
-4.12771e-06
-2.07819e-05
-5.9275e-06
-1.92996e-05
-7.82496e-06
-1.77181e-05
-8.87918e-06
-1.61147e-05
-8.32304e-06
-1.47448e-05
-6.18171e-06
-1.35493e-05
-2.06187e-06
-1.26976e-05
-1.2521e-05
3.00622e-06
-2.02126e-05
5.77126e-06
-2.32601e-05
8.95007e-06
-2.6365e-05
1.27047e-05
-2.89912e-05
1.73723e-05
-2.98395e-05
1.91267e-05
-3.09929e-05
7.07814e-06
-2.94033e-05
-5.8592e-06
-2.21969e-05
-6.74702e-06
-1.60261e-05
-7.22733e-06
-1.40623e-05
-1.00071e-05
-1.39879e-05
-1.13468e-05
-1.25857e-05
-1.27971e-05
-8.69294e-06
-1.53706e-05
-9.81104e-06
-1.75593e-05
-1.13215e-05
-1.79778e-05
-1.16046e-05
-1.54876e-05
-9.96508e-06
-1.02472e-05
-1.11989e-05
-5.65623e-06
-1.49679e-05
-2.4173e-06
-1.81874e-05
-6.51789e-07
-1.9307e-05
-1.01299e-06
-1.86985e-05
-2.449e-06
-1.74824e-05
-4.04608e-06
-1.61989e-05
-5.53347e-06
-1.47515e-05
-6.52123e-06
-1.30527e-05
-6.26214e-06
-1.11285e-05
-4.45778e-06
-9.31777e-06
-5.41217e-07
-7.92296e-06
-6.45981e-06
3.17363e-06
-1.72174e-05
6.26719e-06
-2.07507e-05
9.48326e-06
-2.42459e-05
1.36443e-05
-2.65641e-05
1.82743e-05
-2.84131e-05
2.1432e-05
-2.83929e-05
1.72224e-05
-2.66631e-05
3.34282e-06
-2.16924e-05
-3.10888e-06
-1.57457e-05
-2.54859e-06
-1.25012e-05
-4.49168e-06
-8.2761e-06
-7.52665e-06
-9.69216e-06
-1.07379e-05
-3.50097e-06
-1.38496e-05
-3.96679e-06
-1.55532e-05
-6.00399e-06
-1.57678e-05
-7.19138e-06
-1.28581e-05
-5.51057e-06
-7.48874e-06
-8.07141e-06
-2.82981e-06
-1.31233e-05
2.73013e-07
-1.60614e-05
1.11059e-06
-1.64517e-05
1.31001e-07
-1.56811e-05
-1.19517e-06
-1.47092e-05
-2.38041e-06
-1.36931e-05
-3.29873e-06
-1.24691e-05
-3.84644e-06
-1.09092e-05
-3.54866e-06
-8.99544e-06
-2.10632e-06
-7.02108e-06
6.50815e-07
-5.27407e-06
-3.44448e-06
3.34263e-06
-1.43474e-05
6.47013e-06
-1.80981e-05
1.00769e-05
-2.19151e-05
1.47828e-05
-2.45643e-05
1.92563e-05
-2.69409e-05
2.30585e-05
-2.52763e-05
2.44859e-05
-2.48645e-05
1.3434e-05
-2.07843e-05
4.54851e-06
-1.59497e-05
1.49424e-06
-1.01417e-05
1.57133e-06
-4.58932e-06
-2.08309e-06
-4.86264e-06
-8.23269e-06
1.31175e-06
-1.13255e-05
3.21284e-06
-1.41758e-05
3.07759e-07
-1.32646e-05
-2.12813e-06
-9.40381e-06
-2.1048e-07
-4.59452e-06
-5.19513e-06
-4.00429e-08
-1.11618e-05
2.22173e-06
-1.36472e-05
1.91758e-06
-1.36187e-05
6.93286e-07
-1.30251e-05
-4.05136e-07
-1.24244e-05
-1.17855e-06
-1.17141e-05
-1.61773e-06
-1.07539e-05
-1.69047e-06
-9.44366e-06
-1.27762e-06
-7.78703e-06
-4.74416e-07
-5.99073e-06
2.74247e-07
-4.17844e-06
-1.97423e-06
3.52895e-06
-1.14253e-05
6.69794e-06
-1.52762e-05
1.08526e-05
-1.96717e-05
1.60282e-05
-2.28345e-05
2.06588e-05
-2.49559e-05
2.41012e-05
-2.29514e-05
2.85245e-05
-2.25129e-05
2.80194e-05
-1.99101e-05
1.77069e-05
-1.65337e-05
8.33433e-06
-8.13107e-06
4.92547e-06
-9.60974e-07
5.82658e-07
1.47591e-06
-5.0692e-06
4.40347e-06
-8.95792e-06
1.04807e-05
-1.20699e-05
8.12425e-06
-1.08877e-05
4.38311e-06
-6.83693e-06
5.89706e-06
-1.75755e-06
-2.72884e-06
2.01876e-06
-9.04887e-06
2.81242e-06
-1.11152e-05
1.84013e-06
-1.11058e-05
7.94106e-07
-1.09117e-05
4.33967e-08
-1.0655e-05
-4.14715e-07
-1.02203e-05
-6.02452e-07
-9.50593e-06
-5.65022e-07
-8.43435e-06
-3.53877e-07
-6.99878e-06
-8.73505e-08
-5.29485e-06
8.01998e-08
-3.44149e-06
-1.34981e-06
3.93057e-06
-8.40052e-06
7.16954e-06
-1.24573e-05
1.20139e-05
-1.75184e-05
1.74462e-05
-2.10189e-05
2.2075e-05
-2.27311e-05
2.50854e-05
-2.12216e-05
2.95844e-05
-1.95533e-05
3.32323e-05
-1.82595e-05
2.80249e-05
-1.44672e-05
1.81308e-05
-7.47301e-06
1.15531e-05
1.95824e-06
8.00557e-06
6.28369e-06
1.95102e-06
8.3694e-06
-5.44048e-06
1.59765e-05
-9.7534e-06
1.74062e-05
-8.77936e-06
1.24016e-05
-4.20904e-06
1.2483e-05
4.36403e-07
-1.98364e-07
2.85797e-06
-7.12555e-06
2.3882e-06
-8.77083e-06
1.43674e-06
-9.12954e-06
7.00132e-07
-9.29356e-06
2.17398e-07
-9.30637e-06
-4.20336e-08
-9.09769e-06
-1.38943e-07
-8.57659e-06
-1.36751e-07
-7.68239e-06
-8.42964e-08
-6.40762e-06
-2.16272e-08
-4.82184e-06
2.40316e-08
-3.04896e-06
-1.08635e-06
4.54745e-06
-5.44011e-06
8.0954e-06
-9.69015e-06
1.34721e-05
-1.54446e-05
1.88696e-05
-1.92037e-05
2.33849e-05
-2.07625e-05
2.65064e-05
-1.95826e-05
3.00484e-05
-1.75443e-05
3.42626e-05
-1.56708e-05
3.38705e-05
-1.13951e-05
2.61069e-05
-4.79612e-06
1.92455e-05
4.13256e-06
1.5984e-05
9.50701e-06
1.13426e-05
1.34138e-05
1.30187e-06
1.99856e-05
-6.58096e-06
2.63475e-05
-6.31002e-06
2.12671e-05
-2.23698e-06
1.90138e-05
1.54156e-06
1.6729e-06
2.53269e-06
-5.18555e-06
1.76765e-06
-6.84376e-06
1.05146e-06
-7.57934e-06
5.52239e-07
-8.01733e-06
2.68612e-07
-8.24861e-06
1.35897e-07
-8.21063e-06
7.31233e-08
-7.83094e-06
3.57742e-08
-7.07397e-06
1.68441e-08
-5.94312e-06
1.98527e-08
-4.49412e-06
3.0873e-08
-2.83213e-06
-9.54949e-07
5.41593e-06
-2.80295e-06
9.33081e-06
-7.26914e-06
1.48985e-05
-1.37336e-05
2.021e-05
-1.78108e-05
2.45297e-05
-1.92067e-05
2.76372e-05
-1.82718e-05
3.03454e-05
-1.56096e-05
3.44743e-05
-1.24973e-05
3.64949e-05
-7.66582e-06
3.22444e-05
-6.28329e-07
2.65363e-05
6.75939e-06
2.31584e-05
1.27784e-05
2.0572e-05
1.73781e-05
1.28659e-05
2.41589e-05
-5.70491e-07
3.40532e-05
-4.04796e-06
3.13125e-05
-3.26189e-07
2.7041e-05
1.62144e-06
2.92279e-06
1.92389e-06
-3.49203e-06
1.35746e-06
-5.36744e-06
8.56601e-07
-6.33213e-06
5.39359e-07
-6.97495e-06
3.8655e-07
-7.37198e-06
3.05597e-07
-7.45552e-06
2.23441e-07
-7.17571e-06
1.35088e-07
-6.54164e-06
7.28005e-08
-5.56288e-06
5.65762e-08
-4.26725e-06
8.02054e-08
-2.72766e-06
-8.87077e-07
6.20678e-06
-7.80652e-07
1.06615e-05
-5.91186e-06
1.63174e-05
-1.28511e-05
2.1403e-05
-1.70091e-05
2.53824e-05
-1.8079e-05
2.83185e-05
-1.67423e-05
3.10264e-05
-1.33873e-05
3.50647e-05
-9.27577e-06
3.83368e-05
-3.73282e-06
3.69331e-05
3.5695e-06
3.25398e-05
1.05269e-05
2.90616e-05
1.65204e-05
2.72464e-05
2.12348e-05
2.1161e-05
2.81499e-05
5.5093e-06
4.02215e-05
-1.43058e-06
4.34085e-05
1.19717e-06
3.41313e-05
1.7825e-06
3.15899e-06
1.76132e-06
-2.19002e-06
1.39204e-06
-4.1959e-06
1.05889e-06
-5.30548e-06
8.49802e-07
-6.08696e-06
7.07547e-07
-6.58944e-06
5.56624e-07
-6.75064e-06
3.55269e-07
-6.54216e-06
1.67741e-07
-6.032e-06
6.17637e-08
-5.23299e-06
5.91649e-08
-4.12716e-06
1.24001e-07
-2.72937e-06
-8.69959e-07
6.90073e-06
-9.15199e-07
1.22339e-05
-6.36746e-06
1.73989e-05
-1.27018e-05
2.19391e-05
-1.65902e-05
2.56994e-05
-1.70994e-05
2.87717e-05
-1.50353e-05
3.18346e-05
-1.10786e-05
3.59303e-05
-6.05005e-06
4.00243e-05
4.20545e-07
4.04261e-05
8.05792e-06
3.6755e-05
1.49769e-05
3.30927e-05
2.03725e-05
3.0592e-05
2.51762e-05
2.70821e-05
3.19809e-05
1.0359e-05
4.55364e-05
1.09765e-06
5.53403e-05
2.88653e-06
3.8685e-05
2.08793e-06
3.03245e-06
2.16354e-06
-1.33353e-06
1.99877e-06
-3.28465e-06
1.81895e-06
-4.4679e-06
1.62562e-06
-5.31631e-06
1.31829e-06
-5.85355e-06
8.93714e-07
-6.01849e-06
4.14646e-07
-5.86716e-06
4.92046e-08
-5.52413e-06
-1.10762e-07
-4.96504e-06
-5.67378e-08
-4.10745e-06
1.22977e-07
-2.89406e-06
-9.5235e-07
7.32419e-06
-3.17541e-06
1.32499e-05
-7.46277e-06
1.78172e-05
-1.26032e-05
2.18625e-05
-1.6233e-05
2.55606e-05
-1.63561e-05
2.90287e-05
-1.35729e-05
3.25336e-05
-8.77292e-06
3.67483e-05
-2.74225e-06
4.10251e-05
4.83247e-06
4.29567e-05
1.26522e-05
4.00152e-05
1.92501e-05
3.5461e-05
2.44633e-05
3.19637e-05
2.92812e-05
2.71503e-05
3.57075e-05
1.15922e-05
5.08203e-05
3.83332e-06
6.32209e-05
4.67362e-06
4.24993e-05
2.90519e-06
3.32842e-06
3.16547e-06
-7.1126e-07
3.28844e-06
-2.64526e-06
3.24887e-06
-3.84047e-06
2.96988e-06
-4.68741e-06
2.28325e-06
-5.30311e-06
1.24741e-06
-5.62471e-06
2.65019e-07
-5.43251e-06
-3.58833e-07
-5.21385e-06
-5.68013e-07
-4.95143e-06
-4.28612e-07
-4.35236e-06
-7.5338e-09
-3.32323e-06
-1.26564e-06
7.28434e-06
-4.86539e-06
1.34793e-05
-7.5134e-06
1.76059e-05
-1.19701e-05
2.14437e-05
-1.60365e-05
2.54117e-05
-1.61765e-05
2.92484e-05
-1.25863e-05
3.30548e-05
-6.63885e-06
3.70162e-05
7.31147e-07
4.08946e-05
9.29627e-06
4.34494e-05
1.74943e-05
4.13458e-05
2.36887e-05
3.60775e-05
2.90657e-05
3.18631e-05
3.35686e-05
2.58045e-05
4.0197e-05
1.09965e-05
5.59543e-05
6.34158e-06
6.71811e-05
6.99864e-06
4.6249e-05
4.28839e-06
3.24397e-06
4.83464e-06
-4.32755e-07
5.29201e-06
-2.34726e-06
5.36846e-06
-3.47896e-06
4.84087e-06
-4.3568e-06
3.44245e-06
-5.21488e-06
1.4246e-06
-5.54925e-06
-2.46884e-07
-5.17351e-06
-1.1702e-06
-5.11973e-06
-1.37379e-06
-5.22919e-06
-1.13081e-06
-4.98638e-06
-3.18091e-07
-4.14387e-06
-1.98905e-06
6.65281e-06
-5.38725e-06
1.28436e-05
-7.07543e-06
1.69531e-05
-1.17946e-05
2.102e-05
-1.70054e-05
2.53825e-05
-1.69363e-05
2.96034e-05
-1.20689e-05
3.32875e-05
-4.6797e-06
3.61912e-05
4.07875e-06
3.84973e-05
1.32238e-05
4.01406e-05
2.18896e-05
3.89627e-05
2.8659e-05
3.51099e-05
3.39047e-05
3.06026e-05
3.8074e-05
2.41498e-05
4.50176e-05
1.07734e-05
6.04612e-05
8.63879e-06
6.99264e-05
9.1048e-06
5.3264e-05
6.13283e-06
3.33675e-06
7.0752e-06
-7.35871e-07
7.89939e-06
-2.48888e-06
8.06185e-06
-3.41396e-06
7.29965e-06
-4.44799e-06
5.38804e-06
-5.41013e-06
1.13568e-06
-4.56694e-06
-1.6059e-06
-3.44451e-06
-2.4909e-06
-5.19027e-06
-2.62489e-06
-6.0501e-06
-2.22147e-06
-6.06407e-06
-9.79519e-07
-5.44081e-06
-3.45223e-06
5.22031e-06
-7.80686e-06
1.0686e-05
-1.06537e-05
1.55659e-05
-1.52906e-05
2.05266e-05
-2.01642e-05
2.52719e-05
-1.83625e-05
2.90782e-05
-1.20106e-05
3.13947e-05
-3.44663e-06
3.24351e-05
6.01076e-06
3.28213e-05
1.57347e-05
3.28833e-05
2.48842e-05
3.19763e-05
3.24169e-05
3.04687e-05
3.78352e-05
2.76988e-05
4.19969e-05
2.16227e-05
4.89911e-05
1.35601e-05
6.39566e-05
1.41713e-05
7.30374e-05
1.26804e-05
6.20647e-05
8.49597e-06
3.24649e-06
9.78813e-06
-1.94648e-06
1.09801e-05
-3.16715e-06
1.13382e-05
-3.79529e-06
1.13518e-05
-4.84887e-06
9.96624e-06
-1.07758e-05
6.7018e-07
-3.03695e-05
-5.57895e-06
-2.31967e-05
-4.75466e-06
-6.28715e-06
-4.12797e-06
-7.29758e-06
-3.60417e-06
-7.69628e-06
-2.01249e-06
-7.31233e-06
-5.90276e-06
2.71009e-06
-1.29044e-05
6.48936e-06
-1.96467e-05
1.33627e-05
-2.23427e-05
1.89952e-05
-2.395e-05
2.27337e-05
-1.94348e-05
2.47199e-05
-1.17029e-05
2.55017e-05
-2.45116e-06
2.55317e-05
7.23277e-06
2.48194e-05
1.75998e-05
2.39127e-05
2.70519e-05
2.29739e-05
3.40621e-05
2.25794e-05
3.93581e-05
2.28339e-05
4.34687e-05
2.02173e-05
5.12252e-05
1.90865e-05
6.6455e-05
2.04464e-05
7.66029e-05
1.62675e-05
6.86554e-05
1.06339e-05
1.01048e-06
1.25613e-05
-4.53656e-06
1.40346e-05
-4.61105e-06
1.51156e-05
-4.78928e-06
1.69289e-05
-9.16758e-06
7.66905e-06
-3.29362e-05
-2.95198e-06
-5.28136e-05
-6.40463e-06
-4.65774e-05
-7.61091e-06
-1.89053e-05
-5.38498e-06
-8.81013e-06
-4.80893e-06
-9.76748e-06
-3.02984e-06
-9.68536e-06
-8.97924e-06
1.64249e-06
-1.96766e-05
4.66845e-06
-2.80201e-05
1.14565e-05
-2.83545e-05
1.59954e-05
-2.65402e-05
1.81808e-05
-2.01323e-05
1.89701e-05
-1.16322e-05
1.866e-05
-2.11628e-06
1.76424e-05
7.80582e-06
1.58479e-05
1.87399e-05
1.46382e-05
2.84339e-05
1.43244e-05
3.45399e-05
1.45667e-05
3.91702e-05
1.62241e-05
4.25483e-05
1.80995e-05
5.06847e-05
2.13756e-05
6.74503e-05
2.30991e-05
7.92263e-05
1.79033e-05
7.20003e-05
1.17567e-05
-3.42336e-06
1.45437e-05
-8.81118e-06
1.67789e-05
-6.99286e-06
2.01436e-05
-7.82076e-06
1.1996e-05
-2.58958e-05
-6.69356e-07
-5.10258e-05
-1.93985e-06
-5.34474e-05
-4.97359e-06
-5.11444e-05
-9.73752e-06
-3.77423e-05
-7.09133e-06
-1.28551e-05
-5.64236e-06
-1.20484e-05
-3.80222e-06
-1.23237e-05
-1.21803e-05
3.85339e-07
-2.55254e-05
4.47309e-06
-3.21013e-05
9.20222e-06
-3.20146e-05
1.2282e-05
-2.85176e-05
1.35154e-05
-2.15799e-05
1.33714e-05
-1.33113e-05
1.22714e-05
-3.26437e-06
8.52218e-06
3.31652e-06
5.97779e-06
1.73147e-05
5.91377e-06
2.78762e-05
6.83197e-06
3.34023e-05
7.38898e-06
3.80285e-05
9.16171e-06
4.11559e-05
1.39525e-05
4.57085e-05
2.04389e-05
6.45745e-05
2.24893e-05
7.98378e-05
1.76038e-05
7.22644e-05
1.14418e-05
-9.19616e-06
1.50816e-05
-1.45093e-05
1.85056e-05
-1.20343e-05
1.29271e-05
-2.21013e-05
-8.05334e-07
-4.67589e-05
-4.07543e-06
-5.27001e-05
-1.07891e-06
-5.05305e-05
-1.29231e-06
-4.93721e-05
-6.00396e-06
-4.77239e-05
-1.00419e-05
-2.20292e-05
-6.49396e-06
-1.50153e-05
-4.34994e-06
-1.52338e-05
-1.59829e-05
3.80336e-08
-2.88541e-05
3.72583e-06
-3.37497e-05
6.27184e-06
-3.53614e-05
8.51104e-06
-3.07638e-05
8.77967e-06
-2.47784e-05
9.27462e-06
-1.6617e-05
7.95154e-06
-2.00324e-05
2.34894e-06
-2.24056e-05
-2.3225e-06
-1.00986e-05
-5.59125e-07
1.37791e-05
1.32053e-06
2.95846e-05
2.66684e-06
3.53587e-05
3.91452e-06
3.79541e-05
1.05169e-05
2.97333e-05
1.68181e-05
5.0796e-05
2.0292e-05
7.66149e-05
1.69717e-05
6.69188e-05
1.09218e-05
-1.56254e-05
1.37111e-05
-2.12386e-05
1.0262e-05
-2.43639e-05
-2.26484e-06
-4.34999e-05
-7.20917e-06
-5.09402e-05
-4.58518e-06
-4.86995e-05
-2.56254e-06
-4.67443e-05
-7.29472e-07
-4.7372e-05
-4.09249e-06
-4.8851e-05
-1.05502e-05
-3.71505e-05
-6.92926e-06
-2.05106e-05
-4.41032e-06
-1.88074e-05
-2.12554e-05
8.08651e-07
-2.88629e-05
2.85876e-06
-3.4214e-05
2.93378e-06
-3.91342e-05
4.36351e-06
-3.43616e-05
5.19195e-06
-2.99665e-05
5.97902e-06
-3.1843e-05
4.4323e-06
-4.22894e-05
4.64383e-06
-4.0038e-05
1.55932e-06
-3.66e-05
-2.40772e-06
-2.10419e-05
-1.445e-06
-1.84106e-06
1.52299e-06
7.96346e-06
2.53179e-06
1.05459e-05
3.39713e-06
-2.44447e-06
9.15572e-06
2.56904e-05
1.49189e-05
6.4431e-05
1.45101e-05
4.57817e-05
1.21157e-05
-2.34711e-05
5.52116e-06
-3.08505e-05
-5.26726e-06
-3.70233e-05
-9.37319e-06
-4.70705e-05
-7.34324e-06
-4.65564e-05
-5.40201e-06
-4.39857e-05
-3.54155e-06
-4.39767e-05
-7.77567e-08
-4.5776e-05
1.85453e-06
-4.75077e-05
-4.64203e-06
-4.73622e-05
-6.22325e-06
-3.17488e-05
-3.27286e-06
-2.38737e-05
-2.61299e-05
9.77199e-07
-2.82004e-05
1.27577e-06
-3.40301e-05
-1.70495e-07
-4.22564e-05
1.53148e-06
-3.85673e-05
3.6794e-06
-3.90686e-05
1.02462e-06
-4.9056e-05
1.4604e-06
-4.61461e-05
4.971e-06
-3.9256e-05
7.30825e-06
-3.84268e-05
6.65686e-06
-3.68816e-05
4.84995e-06
-3.21293e-05
3.85895e-06
-2.66979e-05
2.27103e-06
-2.26727e-05
4.59979e-08
-2.22837e-05
3.34445e-06
3.4646e-06
1.12359e-05
4.00112e-05
1.03901e-05
1.30809e-05
1.83417e-06
-2.79471e-05
-7.41942e-06
-3.39058e-05
-1.09421e-05
-3.55907e-05
-9.21562e-06
-4.16008e-05
-7.35694e-06
-4.08752e-05
-6.20558e-06
-3.9777e-05
-3.36512e-06
-4.24508e-05
1.23159e-06
-4.40963e-05
6.00393e-06
-4.58677e-05
5.34703e-06
-4.76395e-05
-1.39788e-06
-4.40381e-05
-2.42029e-06
-3.04472e-05
-3.10839e-05
6.54097e-07
-2.76644e-05
9.4702e-07
-3.36505e-05
-1.06898e-06
-4.32852e-05
3.00926e-07
-4.29195e-05
-2.18463e-06
-4.99083e-05
-3.46324e-06
-5.123e-05
2.10221e-07
-4.43599e-05
4.52614e-06
-3.75605e-05
7.52646e-06
-3.5841e-05
8.69429e-06
-3.40787e-05
8.45316e-06
-3.27504e-05
7.23309e-06
-3.21681e-05
4.91336e-06
-2.89784e-05
2.82174e-06
-2.48166e-05
4.87917e-06
-1.12806e-05
1.11464e-05
1.14739e-05
7.66182e-06
-9.35852e-06
-4.25671e-06
-2.69328e-05
-1.19654e-05
-3.04948e-05
-1.21189e-05
-3.14016e-05
-9.74262e-06
-3.68254e-05
-8.23908e-06
-3.61921e-05
-6.36926e-06
-3.65749e-05
-2.1144e-06
-4.05146e-05
3.01961e-06
-4.22813e-05
7.47375e-06
-4.37958e-05
9.77866e-06
-4.47837e-05
5.42093e-06
-4.44444e-05
-7.8318e-07
-4.11427e-05
-3.5083e-05
1.94221e-08
-2.71142e-05
-1.6046e-08
-3.32019e-05
-1.20835e-06
-4.2303e-05
-3.65306e-06
-4.76676e-05
-6.65955e-06
-5.12076e-05
-5.29311e-06
-4.9329e-05
-1.49216e-06
-4.34485e-05
3.44739e-06
-3.62927e-05
7.68767e-06
-3.3227e-05
9.51461e-06
-3.1e-05
9.75611e-06
-2.90567e-05
9.76143e-06
-2.87467e-05
8.78708e-06
-2.65034e-05
7.08778e-06
-2.38768e-05
8.06985e-06
-1.94945e-05
1.16091e-05
-8.36762e-06
5.0965e-06
-1.67415e-05
-7.75028e-06
-2.322e-05
-1.46471e-05
-2.60974e-05
-1.40988e-05
-2.62161e-05
-1.11754e-05
-3.24029e-05
-8.82143e-06
-3.21414e-05
-5.28775e-06
-3.44676e-05
2.71313e-07
-3.83388e-05
5.2864e-06
-4.04004e-05
9.07267e-06
-4.15133e-05
1.00077e-05
-4.17536e-05
8.11986e-06
-4.09927e-05
4.81618e-06
-3.99752e-05
-3.46595e-05
-5.55055e-07
-2.65083e-05
-9.46358e-07
-3.24758e-05
-3.87313e-06
-4.03904e-05
-6.79202e-06
-4.67511e-05
-8.48583e-06
-4.88087e-05
-7.00718e-06
-4.79818e-05
-3.10242e-06
-4.32075e-05
2.67809e-06
-3.58907e-05
7.79102e-06
-3.06448e-05
9.99882e-06
-2.82575e-05
1.12373e-05
-2.56862e-05
1.22836e-05
-2.55922e-05
1.23233e-05
-2.38547e-05
1.06324e-05
-2.15675e-05
1.07126e-05
-2.08778e-05
1.17018e-05
-1.68376e-05
4.58424e-06
-1.81482e-05
-8.21542e-06
-1.74185e-05
-1.52745e-05
-2.03125e-05
-1.46333e-05
-1.93423e-05
-1.16989e-05
-2.73917e-05
-8.32079e-06
-2.89841e-05
-3.6687e-06
-3.29519e-05
2.33192e-06
-3.65694e-05
7.01387e-06
-3.82953e-05
9.78519e-06
-3.89862e-05
9.38051e-06
-3.87614e-05
6.48128e-06
-3.75051e-05
4.38126e-06
-3.57266e-05
-3.02255e-05
-1.13315e-06
-2.54669e-05
-1.06634e-06
-3.15011e-05
-4.69118e-06
-3.82534e-05
-8.0208e-06
-4.4104e-05
-9.83875e-06
-4.65371e-05
-8.65289e-06
-4.64035e-05
-4.38203e-06
-4.29965e-05
1.50631e-06
-3.60106e-05
7.00607e-06
-2.87968e-05
1.02184e-05
-2.60969e-05
1.21389e-05
-2.28561e-05
1.38405e-05
-2.24129e-05
1.50782e-05
-2.10594e-05
1.42498e-05
-1.90306e-05
1.32078e-05
-1.91692e-05
1.25762e-05
-1.90484e-05
8.30593e-06
-1.81258e-05
-4.39352e-06
-1.18762e-05
-1.51988e-05
-1.38234e-05
-1.52448e-05
-1.22503e-05
-1.2098e-05
-2.19852e-05
-7.07788e-06
-2.78446e-05
-1.1543e-06
-3.17994e-05
4.48686e-06
-3.46489e-05
8.58348e-06
-3.6023e-05
9.5238e-06
-3.61301e-05
7.84976e-06
-3.57081e-05
4.50899e-06
-3.37976e-05
3.26141e-06
-3.09081e-05
-2.52718e-05
-1.71065e-06
-2.27796e-05
-1.03337e-06
-2.9437e-05
-4.97589e-06
-3.56705e-05
-8.71544e-06
-4.12307e-05
-1.06083e-05
-4.39499e-05
-9.58225e-06
-4.42616e-05
-5.49902e-06
-4.23561e-05
1.17301e-07
-3.58326e-05
6.22563e-06
-2.75602e-05
9.88576e-06
-2.43949e-05
1.2251e-05
-2.09695e-05
1.48593e-05
-1.93749e-05
1.70521e-05
-1.83786e-05
1.72998e-05
-1.62216e-05
1.59249e-05
-1.66819e-05
1.38171e-05
-1.83657e-05
1.18261e-05
-1.77645e-05
7.87388e-08
-8.93739e-06
-1.40975e-05
-7.27432e-06
-1.53894e-05
-5.5589e-06
-1.20838e-05
-1.59169e-05
-6.10541e-06
-2.65765e-05
1.25432e-06
-3.06038e-05
6.09175e-06
-3.26286e-05
8.49456e-06
-3.35539e-05
7.99439e-06
-3.3524e-05
5.67913e-06
-3.26686e-05
2.65643e-06
-2.97407e-05
2.79887e-06
-2.55514e-05
-1.91585e-05
-2.42304e-06
-1.73912e-05
-9.17052e-07
-2.51042e-05
-4.06895e-06
-3.16383e-05
-7.83446e-06
-3.75197e-05
-1.01628e-05
-4.08151e-05
-9.69812e-06
-4.15075e-05
-6.1357e-06
-4.06159e-05
-7.2861e-07
-3.49789e-05
4.8193e-06
-2.60856e-05
9.09729e-06
-2.24542e-05
1.23787e-05
-1.99699e-05
1.52406e-05
-1.64289e-05