/*--------------------------------*- C++ -*----------------------------------*\
| =========                 |                                                 |
| \\      /  F ield         | OpenFOAM: The Open Source CFD Toolbox           |
|  \\    /   O peration     | Version:  2.3.0                                 |
|   \\  /    A nd           | Web:      www.OpenFOAM.org                      |
|    \\/     M anipulation  |                                                 |
\*---------------------------------------------------------------------------*/
FoamFile
{
    version     2.0;
    format      ascii;
    class       volScalarField;
    location    "0.72";
    object      Theta.particles;
}
// * * * * * * * * * * * * * * * * * * * * * * * * * * * * * * * * * * * * * //

dimensions      [0 2 -2 0 0 0 0];

internalField   nonuniform List<scalar> 
6000
(
0.000704184
0.000630276
0.000815549
0.00100767
0.00105556
0.00126303
0.00145478
0.00169071
0.00131135
0.00113748
0.00122518
0.0013628
0.00171964
0.00117489
0.000604941
0.000482678
0.000419324
0.000537832
0.000874633
0.000873163
0.00102355
0.00136675
0.0014575
0.00132524
0.00114482
0.000803623
0.000571871
0.000538315
0.000596325
0.000729042
1.96357e-05
5.02514e-05
4.89716e-05
3.64739e-05
2.58667e-05
2.93284e-05
3.8305e-05
5.50777e-05
4.70611e-05
4.46943e-05
5.47346e-05
7.09954e-05
6.7201e-05
5.37342e-05
4.95788e-05
5.33864e-05
6.26939e-05
7.04635e-05
5.87394e-05
4.47762e-05
4.46912e-05
4.93734e-05
6.4596e-05
7.1187e-05
6.77452e-05
4.83907e-05
3.59407e-05
3.90332e-05
5.47202e-05
5.21361e-05
2.48447e-05
3.0016e-05
2.02972e-05
7.44237e-06
3.44875e-06
2.38015e-06
1.52837e-06
3.59732e-07
1.16411e-07
4.19041e-07
2.18388e-06
2.57634e-06
3.3419e-06
5.42216e-06
9.00165e-06
4.94016e-05
0.000104713
5.76263e-05
9.69256e-06
1.30381e-06
5.88469e-07
1.11851e-06
6.99371e-07
7.50345e-07
1.29828e-06
3.56602e-06
1.87676e-06
4.34014e-06
1.24721e-05
6.41834e-05
1.40782e-05
6.54101e-06
3.68495e-06
3.19276e-06
3.5754e-06
2.98221e-06
3.4891e-06
3.79729e-06
3.14388e-06
1.97322e-06
2.24505e-06
3.08944e-06
6.44059e-06
7.01e-06
9.18302e-06
6.13563e-05
0.000111924
2.12064e-05
4.913e-06
4.43257e-06
3.68971e-06
3.18097e-06
2.42792e-06
1.90587e-06
1.86015e-06
1.55901e-06
2.27409e-06
6.34241e-06
9.81494e-06
7.39498e-05
2.04423e-05
3.07087e-05
1.02571e-05
5.48728e-06
2.70356e-06
2.17745e-06
2.819e-06
2.19634e-06
1.56994e-06
1.25838e-06
1.62864e-06
3.88925e-06
4.94147e-06
6.80541e-06
3.6095e-05
0.000121062
6.28537e-05
6.38798e-06
3.93436e-06
2.02808e-06
1.27908e-06
9.57583e-07
6.46556e-07
1.44924e-05
2.95124e-05
1.29092e-05
1.51132e-06
2.61856e-06
1.06763e-05
0.000109041
9.02642e-06
0.000134701
3.71439e-05
1.46859e-05
2.51559e-06
2.20665e-06
3.04291e-06
2.76184e-06
1.20695e-06
1.24406e-06
2.48967e-06
5.87283e-06
5.74581e-06
2.08911e-05
0.000111632
6.31375e-05
8.26036e-06
1.131e-06
1.6663e-06
9.02229e-07
4.05013e-06
1.06445e-05
4.214e-05
8.79828e-05
0.000118391
0.000118863
9.44137e-05
1.42692e-05
1.94996e-06
0.000141067
9.72625e-06
4.88939e-06
8.91045e-05
2.87315e-05
7.48437e-06
2.83938e-06
2.92628e-06
1.43651e-06
3.89256e-07
2.54778e-07
7.55197e-07
2.30086e-06
5.90769e-06
2.81796e-05
5.61393e-05
1.88182e-05
1.25778e-05
1.44475e-05
2.30339e-05
2.93555e-05
7.04929e-05
0.000138514
0.000211118
0.000294313
0.0003267
0.000514593
0.00077951
0.000615745
0.000311323
0.000294316
1.55093e-05
1.63366e-05
1.57227e-05
2.04888e-05
1.08052e-05
4.79841e-06
3.90359e-06
1.83828e-06
1.61334e-06
1.12625e-05
5.15483e-05
0.00019046
3.52409e-05
2.49999e-05
4.57564e-05
5.34149e-05
8.83533e-05
0.000182427
0.000244555
0.000295432
0.000372955
0.000364463
0.000390131
0.000404954
0.000406819
0.000391054
0.000585354
0.00131929
0.00157214
0.00133445
2.69393e-05
1.20246e-05
1.17501e-05
1.76685e-05
7.81279e-06
3.20664e-06
3.32715e-06
1.01982e-05
0.000171513
0.000281907
0.000626477
0.00118497
0.000815386
0.000316729
0.000288812
0.000352948
0.000589666
0.000834228
0.000809452
0.000747074
0.000589578
0.000385936
0.000195517
3.38129e-05
3.06876e-06
6.09916e-07
1.92712e-06
0.000114116
0.000702857
0.00152101
4.01946e-05
5.92156e-06
1.25403e-06
1.16973e-05
1.52878e-05
4.28426e-06
4.52089e-06
0.000188922
0.000638926
0.000703403
0.000610155
0.000480732
0.00121064
0.00111655
0.000607658
0.0012478
0.00126778
0.000677841
0.00031395
0.000139946
3.22949e-05
5.863e-06
4.27652e-08
1.01966e-06
1.59752e-06
1.60173e-06
1.17453e-06
8.2722e-07
5.65177e-07
0.000289382
2.59101e-05
9.34801e-05
6.71538e-05
7.93901e-06
2.42562e-05
2.04077e-05
3.37135e-05
0.000387373
9.54636e-05
4.64136e-05
2.65961e-06
3.70924e-07
3.41656e-05
0.000494069
0.000763856
0.000569864
0.000113227
3.7896e-06
1.96512e-07
1.35795e-06
1.44459e-06
5.53951e-07
1.2677e-06
2.17753e-06
2.25366e-06
2.34458e-06
1.94715e-06
1.51417e-06
1.45619e-06
0.000126551
0.000781502
0.000774748
0.0011638
0.00103953
0.000500645
4.86766e-05
0.000387421
6.07448e-05
3.11755e-06
5.35803e-07
7.20877e-07
7.43562e-07
1.22551e-06
3.58344e-06
3.10279e-05
4.20675e-06
2.48452e-06
8.75007e-07
1.57839e-06
2.21313e-06
1.10545e-06
6.57539e-07
1.55277e-06
2.7845e-06
3.08133e-06
3.00752e-06
2.89707e-06
2.2956e-06
1.62424e-06
9.88404e-05
0.000962412
0.000638231
0.000817891
0.00117366
0.00120077
0.00115504
0.000306927
1.61024e-06
4.95332e-06
1.29537e-06
8.70063e-07
1.0219e-06
1.42543e-06
4.18211e-06
6.42658e-06
3.68451e-06
1.98133e-06
1.33579e-06
2.06617e-06
1.65761e-06
6.28925e-07
8.26951e-07
2.06345e-06
3.95776e-06
3.29999e-06
2.84521e-06
3.335e-06
3.32676e-06
2.74411e-06
7.16229e-05
0.000162241
1.41164e-07
4.72507e-07
2.48513e-06
5.64543e-05
0.000798424
0.000596463
1.70515e-05
3.60671e-06
2.10296e-06
1.13973e-06
1.42069e-06
1.64401e-06
3.64623e-06
4.97679e-06
2.84156e-06
1.50914e-06
1.78641e-06
2.08342e-06
1.46868e-06
8.07208e-07
1.30568e-06
2.82605e-06
4.61197e-06
3.74432e-06
2.95946e-06
3.30215e-06
3.94816e-06
4.22743e-06
4.73172e-05
6.28795e-05
5.49722e-07
6.65859e-07
4.93659e-07
5.24685e-07
1.92853e-05
0.000562046
0.000204073
1.06709e-06
3.28423e-06
3.70645e-06
2.2464e-06
2.09257e-06
3.72104e-06
3.76405e-06
1.94143e-06
1.48743e-06
2.16204e-06
2.14931e-06
1.15427e-06
9.41286e-07
1.31011e-06
2.43312e-06
3.61758e-06
4.12032e-06
3.06234e-06
2.6927e-06
3.37899e-06
4.81123e-06
2.47935e-05
4.64398e-05
7.04092e-07
6.6469e-07
8.71318e-07
1.09492e-06
3.31703e-07
0.000255209
0.000361128
8.82507e-06
2.68491e-06
9.84642e-06
6.5404e-06
3.39938e-06
4.83108e-06
3.74026e-06
1.74913e-06
1.75821e-06
2.66239e-06
2.2139e-06
9.65495e-07
1.0473e-06
1.4583e-06
2.32418e-06
2.67945e-06
2.84879e-06
2.69556e-06
2.24739e-06
2.38809e-06
3.57854e-06
1.00172e-05
3.27718e-05
9.2389e-07
8.00997e-07
1.23607e-06
1.19999e-06
7.54394e-07
2.73932e-05
0.000356673
9.18835e-05
4.57318e-06
6.10595e-06
2.0914e-05
8.09148e-06
6.49679e-06
3.52635e-06
1.92586e-06
2.34578e-06
2.84172e-06
1.85329e-06
1.15623e-06
9.75599e-07
1.40341e-06
1.72334e-06
1.66538e-06
1.71808e-06
1.92045e-06
1.86401e-06
1.6238e-06
1.91482e-06
3.22889e-06
2.19348e-05
1.14788e-06
1.15369e-06
1.58158e-06
1.3013e-06
1.51316e-06
1.2644e-06
0.000229175
0.000207405
2.65206e-05
3.34896e-06
1.823e-05
3.49943e-05
7.96629e-06
6.53654e-06
2.15528e-06
3.32074e-06
2.44353e-06
1.84255e-06
9.86439e-07
8.60843e-07
1.25618e-06
1.08039e-06
8.68686e-07
8.47424e-07
9.81712e-07
1.06484e-06
8.67211e-07
6.84435e-07
6.37553e-07
1.33857e-05
1.40831e-06
1.60134e-06
1.937e-06
1.68695e-06
1.32777e-06
1.62275e-06
1.08084e-05
0.000260449
0.000170551
2.00578e-05
1.5476e-05
5.41873e-05
1.1578e-05
8.94917e-06
3.4732e-06
4.04188e-06
2.88711e-06
1.58314e-06
6.7017e-07
8.96417e-07
8.10643e-07
5.39592e-07
4.03865e-07
3.90005e-07
4.54537e-07
4.96904e-07
4.2077e-07
3.66135e-07
4.7135e-07
7.86425e-06
1.58319e-06
2.19715e-06
2.18968e-06
1.90228e-06
1.23229e-06
2.1281e-06
1.50931e-06
4.74846e-05
0.000208174
7.93667e-05
1.45871e-05
6.5706e-05
6.0012e-05
1.42205e-05
5.1568e-06
4.96319e-06
4.04506e-06
1.28565e-06
7.37631e-07
7.04569e-07
4.42209e-07
2.64523e-07
1.87414e-07
1.85482e-07
2.26624e-07
2.78598e-07
3.08662e-07
3.48992e-07
4.81892e-07
4.81809e-06
1.82389e-06
2.74847e-06
2.31979e-06
1.91341e-06
1.31755e-06
1.51303e-06
1.938e-06
5.06559e-06
9.69657e-05
9.78597e-05
2.24837e-05
3.65064e-05
0.000158533
4.37761e-05
6.14805e-06
5.43766e-06
6.92225e-06
1.64238e-06
7.62845e-07
4.58164e-07
2.57793e-07
1.428e-07
1.02769e-07
1.08637e-07
1.43605e-07
2.03805e-07
2.77911e-07
3.72494e-07
4.79362e-07
3.67577e-06
2.08504e-06
3.14421e-06
2.37362e-06
1.78877e-06
1.22478e-06
1.45556e-06
2.6528e-06
3.52375e-06
2.79005e-05
6.36421e-05
2.68011e-05
1.97998e-05
0.000106533
0.000173565
1.23901e-05
9.37667e-06
1.34587e-05
1.943e-06
5.47051e-07
2.89672e-07
1.55502e-07
9.34941e-08
7.70773e-08
8.36739e-08
1.07262e-07
1.57971e-07
2.4403e-07
3.74126e-07
4.95172e-07
3.75209e-06
2.47662e-06
3.54472e-06
2.32974e-06
1.55482e-06
1.31701e-06
1.90298e-06
3.30734e-06
4.21285e-06
1.18647e-05
3.2497e-05
2.27472e-05
1.25801e-05
6.78691e-05
0.000274065
2.99562e-05
1.55542e-05
3.46075e-05
1.52891e-06
3.21469e-07
1.61109e-07
1.01693e-07
8.11657e-08
7.89064e-08
8.33317e-08
8.48921e-08
1.02956e-07
1.76463e-07
3.5074e-07
5.31275e-07
4.64029e-06
4.25907e-06
3.55775e-06
2.0244e-06
1.44357e-06
1.54289e-06
2.40849e-06
3.89116e-06
5.33752e-06
7.3759e-06
2.03056e-05
1.86323e-05
1.13393e-05
2.87496e-05
0.000316329
5.05345e-05
3.77349e-05
5.39827e-05
6.50791e-07
1.25904e-07
8.57153e-08
9.28644e-08
1.11951e-07
1.28974e-07
1.28914e-07
8.12584e-08
4.15707e-08
8.61119e-08
3.011e-07
6.15564e-07
8.49685e-06
5.35856e-06
2.96265e-06
1.75696e-06
1.41326e-06
1.9323e-06
3.02548e-06
4.70216e-06
5.85749e-06
5.32393e-06
1.27157e-05
1.93437e-05
1.1813e-05
3.67526e-05
0.000259342
3.90389e-05
6.78456e-05
6.92403e-05
2.48106e-07
4.44327e-08
8.045e-08
1.60379e-07
4.47937e-07
1.06915e-06
8.34421e-07
3.20702e-07
6.07155e-08
7.14935e-08
2.66843e-07
7.98203e-07
9.03177e-06
4.72321e-06
2.67398e-06
1.75695e-06
1.68622e-06
2.56365e-06
3.90396e-06
5.231e-06
5.34104e-06
4.09144e-06
5.24887e-06
1.97473e-05
1.31018e-05
4.60965e-05
0.000231354
1.89397e-05
8.76085e-05
8.99799e-05
8.7297e-08
5.21324e-08
1.57118e-07
6.16338e-07
3.28357e-06
6.05292e-06
3.63558e-06
1.33816e-06
4.56639e-07
3.9485e-07
3.55875e-07
1.28614e-06
6.85067e-06
5.02674e-06
3.74136e-06
2.81871e-06
2.45122e-06
3.52688e-06
4.39592e-06
4.35064e-06
3.5645e-06
2.45842e-06
2.98587e-06
8.58921e-06
1.26065e-05
4.66561e-05
0.000193278
3.79545e-06
8.25934e-05
0.000105672
1.59074e-07
1.55144e-07
3.79193e-07
2.08244e-06
9.25263e-06
1.94502e-05
5.85646e-06
2.7457e-06
1.95807e-06
1.28526e-06
7.07831e-07
2.84782e-06
8.51725e-06
1.44405e-05
1.59037e-05
7.76223e-06
3.34114e-06
3.29042e-06
2.78942e-06
2.10932e-06
1.42131e-06
1.08911e-06
2.3336e-06
3.00901e-06
4.28357e-06
3.7502e-05
8.68591e-05
1.98563e-06
8.89189e-05
0.00016638
9.3125e-07
4.36974e-07
7.98392e-07
1.75686e-06
7.12817e-05
0.00163727
0.00087974
3.23591e-06
2.08145e-06
3.03523e-06
1.54514e-06
7.01474e-06
4.92732e-05
8.6051e-05
3.34022e-05
8.43887e-06
2.37198e-06
1.4418e-06
9.57558e-07
7.18258e-07
5.67313e-07
6.13461e-07
1.40203e-06
1.70994e-06
2.97151e-07
1.02029e-05
2.39833e-05
2.67305e-06
0.000157663
0.000297517
4.27745e-06
1.31661e-06
1.3167e-06
1.45088e-05
0.00149811
0.00215773
0.00136026
0.00030879
1.41398e-06
5.14648e-06
2.78686e-06
1.34586e-05
0.000138425
7.39322e-05
1.92714e-05
4.08646e-06
1.40612e-06
1.1578e-06
1.67971e-06
2.28091e-06
2.48178e-06
9.43158e-07
8.7733e-07
1.43327e-06
4.79613e-07
3.98009e-06
1.36088e-05
1.14161e-06
0.000290032
0.000441852
1.18239e-05
3.0386e-06
4.53041e-06
0.000979596
0.00199636
1.1855e-05
0.000187234
0.000951433
1.68472e-05
3.97345e-06
3.77141e-06
2.06221e-05
0.000200225
1.09582e-05
8.81805e-06
2.12498e-06
3.01075e-06
8.56232e-06
1.28432e-05
9.8187e-05
2.42496e-05
8.56851e-07
1.08528e-06
1.66765e-06
7.00829e-07
2.06988e-05
2.28098e-05
3.39733e-07
0.000425702
0.000540199
1.95562e-05
1.55526e-05
0.000648348
0.002251
8.2478e-05
1.2635e-06
8.32686e-07
0.00051625
0.000277109
3.7747e-06
4.47535e-06
3.40269e-05
0.00018266
2.13508e-06
8.94196e-06
2.74441e-06
1.59232e-05
1.94828e-05
0.000478465
0.00138694
0.00149546
0.000287327
1.67879e-05
7.54844e-06
1.34007e-05
0.000252383
0.000206824
4.75868e-06
0.000629022
0.000585835
4.33208e-05
0.000420715
0.0019662
0.000231976
1.58615e-06
1.23842e-06
5.05909e-07
8.3115e-05
0.000768583
2.17994e-05
7.09915e-06
6.93702e-05
0.000134777
1.22361e-06
2.26028e-05
1.12189e-05
3.52706e-05
0.000336898
0.000945578
0.000673083
0.00180113
0.00249692
0.00151442
0.000991166
0.0010964
0.00152888
0.000887704
0.000149886
0.00144875
0.000573436
0.000401945
0.000886326
0.00018141
1.52131e-06
1.93007e-06
8.17235e-07
1.04722e-06
4.17623e-07
0.000543077
0.000308212
1.53073e-05
0.000107062
0.000125706
5.19431e-06
2.88496e-05
1.59196e-05
0.000100255
0.000629631
3.29531e-05
1.09619e-06
4.11172e-06
0.000655552
0.00198435
0.00224769
0.00213457
0.000980725
0.00115936
0.00082131
0.00269592
0.000546573
0.000273934
3.82965e-05
2.78861e-06
2.66703e-06
1.41224e-06
7.79396e-07
1.68438e-06
1.65176e-06
1.2823e-05
0.00057166
0.000114895
0.000144527
0.000127741
8.90179e-06
1.44964e-05
2.09032e-05
0.000260558
2.64086e-05
2.05722e-06
1.72892e-06
1.00194e-06
5.71642e-07
4.94624e-06
0.000111989
0.000179897
0.000111816
0.000615623
0.00137243
0.00165395
0.000290671
6.16325e-05
3.0209e-06
2.24751e-06
1.67198e-06
1.14931e-06
1.51037e-06
2.12407e-06
1.64639e-06
1.05089e-06
5.16717e-05
0.00039401
0.000273815
0.000131908
9.36633e-06
8.82239e-06
7.61073e-05
3.53961e-05
5.62367e-07
2.33413e-06
2.11679e-06
1.81397e-06
1.00155e-06
1.21105e-06
1.44082e-06
4.42604e-06
2.02462e-05
0.000193438
0.000692487
0.000443525
0.0001971
3.70484e-05
3.18631e-06
2.34771e-06
1.4647e-06
1.23889e-06
2.47244e-06
2.05471e-06
1.41005e-06
8.88816e-07
2.22595e-06
1.5097e-05
0.00035074
0.000136286
7.63235e-06
1.75372e-05
1.72797e-05
1.795e-06
4.16128e-07
2.33518e-06
3.63603e-06
2.48153e-06
9.79824e-07
1.0508e-06
1.08538e-06
2.00961e-06
6.20945e-06
1.67635e-05
0.000144896
0.000156168
0.00014395
3.36944e-05
4.62781e-06
3.08102e-06
1.57627e-06
1.79055e-06
2.76965e-06
1.96561e-06
1.14037e-06
8.76278e-07
4.65831e-06
3.14478e-06
0.000199306
0.000137055
4.28605e-06
1.76258e-05
1.06403e-05
2.12961e-06
4.03381e-07
2.21516e-06
5.00045e-06
2.76653e-06
1.19935e-06
8.83467e-07
9.8861e-07
1.20372e-06
2.37743e-06
3.02764e-06
1.93918e-05
4.32535e-05
0.000149339
9.35865e-05
5.42115e-06
4.37794e-06
2.65741e-06
2.62704e-06
2.62647e-06
1.7159e-06
7.68435e-07
1.77025e-06
6.29712e-06
2.93963e-06
0.000133831
0.000120219
3.01794e-06
1.66468e-05
1.10508e-05
2.25722e-06
5.61717e-07
1.90802e-06
5.08303e-06
3.63555e-06
1.29994e-06
7.30185e-07
1.17417e-06
1.04384e-06
1.02393e-06
1.89389e-06
8.1371e-06
1.62987e-05
0.000169692
0.00018086
6.26833e-06
6.62367e-06
4.17231e-06
4.11964e-06
2.14749e-06
9.77003e-07
7.98671e-07
3.00367e-06
5.52428e-06
3.56116e-06
8.70008e-05
8.13019e-05
4.6853e-06
9.62215e-06
8.99347e-06
3.16935e-06
8.51005e-07
1.79371e-06
4.59841e-06
3.33412e-06
1.60789e-06
1.19628e-06
1.18939e-06
1.09122e-06
1.01874e-06
1.24638e-06
4.25691e-06
9.33408e-06
0.000220438
0.000261433
5.44715e-06
7.74238e-06
4.6733e-06
4.41257e-06
1.53037e-06
5.41391e-07
1.58068e-06
3.21703e-06
4.55953e-06
5.46967e-06
4.76996e-05
4.09362e-05
7.10052e-06
7.38332e-06
6.17132e-06
3.76603e-06
1.28736e-06
1.58204e-06
3.53366e-06
3.31695e-06
2.46934e-06
1.11882e-06
9.80381e-07
1.46184e-06
9.49388e-07
8.60479e-07
2.54665e-06
1.28139e-05
0.00037747
0.000313702
4.37388e-06
1.16353e-05
5.62285e-06
3.21283e-06
6.89777e-07
6.03586e-07
1.81693e-06
2.92582e-06
4.93106e-06
7.33247e-06
2.07477e-05
1.50819e-05
7.49437e-06
6.55187e-06
5.2224e-06
3.75126e-06
1.77086e-06
1.47677e-06
3.31402e-06
3.44823e-06
2.59551e-06
1.34702e-06
1.47518e-06
1.85043e-06
1.00055e-06
7.00671e-07
1.31239e-06
1.01186e-05
0.000418138
0.000470586
4.22669e-06
1.66965e-05
6.58694e-06
1.59745e-06
2.47943e-07
5.74523e-07
1.85447e-06
3.42988e-06
5.00487e-06
6.29534e-06
4.01397e-06
3.12579e-06
5.54842e-06
5.37596e-06
4.56704e-06
3.76741e-06
2.23749e-06
1.96992e-06
4.04756e-06
3.44666e-06
2.85624e-06
1.94266e-06
2.04685e-06
1.77549e-06
1.64535e-06
1.26542e-06
1.45358e-06
3.7945e-06
0.000104545
0.000516446
5.50815e-05
2.30661e-05
1.14802e-05
4.42965e-07
1.12982e-07
9.35574e-07
2.29197e-06
3.28199e-06
2.88744e-06
2.02533e-06
2.52598e-06
2.36121e-06
1.89869e-06
3.21359e-06
4.1592e-06
3.12864e-06
2.2748e-06
2.87226e-06
6.84544e-06
4.26466e-06
3.76331e-06
2.69462e-06
2.77837e-06
2.37738e-06
1.91143e-06
1.8269e-06
1.88424e-06
2.30436e-06
1.87281e-05
0.000330837
0.000146905
3.10424e-05
2.71062e-05
1.26775e-07
4.81539e-07
1.42225e-06
1.8948e-06
1.38045e-06
1.06721e-06
1.62996e-06
3.27844e-06
3.2519e-06
1.6353e-06
1.43481e-06
2.46148e-06
2.62104e-06
1.48698e-06
3.21646e-06
1.1552e-05
7.33003e-06
4.10971e-06
3.70584e-06
2.92629e-06
2.39597e-06
3.46431e-06
1.82523e-06
1.54729e-06
1.81355e-06
7.56178e-06
0.000199905
0.000195048
7.62802e-05
3.25916e-05
2.29763e-07
7.53163e-07
1.00507e-06
7.78046e-07
7.82255e-07
1.07831e-06
2.60141e-06
1.94665e-06
3.14632e-06
2.03546e-06
1.35412e-06
1.41777e-06
2.00048e-06
1.3831e-06
1.26841e-06
6.69249e-06
1.01521e-05
4.04255e-06
4.37916e-06
3.51498e-06
3.4426e-06
3.76878e-06
2.68817e-06
2.31931e-06
2.16218e-06
5.37545e-06
0.00012192
0.000219441
0.00018467
3.41077e-05
3.08936e-07
4.56415e-07
5.02056e-07
5.62628e-07
7.64933e-07
1.68391e-06
1.17989e-06
3.32169e-06
3.15166e-06
2.89623e-06
1.51727e-06
1.11072e-06
1.34685e-06
1.26991e-06
8.10301e-07
3.15897e-06
7.70097e-06
4.52664e-06
3.8987e-06
3.76526e-06
4.4825e-06
4.50952e-06
3.10429e-06
2.18027e-06
2.1757e-06
6.37253e-06
9.93871e-05
0.000240586
0.000274873
2.58633e-05
1.38628e-07
2.57848e-07
4.34533e-07
6.71832e-07
1.02637e-06
1.01182e-06
2.42309e-06
2.88207e-06
4.03583e-06
3.40088e-06
1.8671e-06
1.01668e-06
8.95197e-07
8.67397e-07
3.6832e-07
1.44309e-06
5.28054e-06
4.83167e-06
3.48655e-06
4.2565e-06
5.21343e-06
4.14097e-06
3.57239e-06
2.98599e-06
3.75046e-06
9.2495e-06
0.000112711
0.000281669
0.000286229
2.15717e-05
5.7861e-08
2.1948e-07
4.8855e-07
1.39853e-06
1.79609e-06
1.04983e-05
0.000182776
1.61689e-05
4.81131e-06
4.08816e-06
2.84544e-06
9.73209e-07
6.69897e-07
6.14399e-07
1.88179e-07
6.70609e-07
4.01226e-06
5.51359e-06
5.22209e-06
7.05761e-06
6.03013e-06
3.164e-06
4.37223e-06
4.66127e-06
4.8765e-06
1.02089e-05
0.000167266
0.000379375
0.000218463
1.78479e-05
1.42972e-06
2.53975e-07
6.60341e-07
1.69488e-06
8.96659e-05
0.000177516
6.49471e-05
0.000132342
1.46729e-05
7.15634e-06
4.98264e-06
1.26474e-06
6.76894e-07
6.09934e-07
1.93428e-07
5.12314e-07
4.06822e-06
5.46066e-06
6.28685e-06
7.81172e-06
2.11495e-05
4.95476e-06
3.58061e-06
3.30137e-06
4.14528e-06
1.55767e-05
0.000269348
0.000532312
0.000121216
1.22119e-05
4.65377e-05
6.47587e-06
2.51858e-06
8.02293e-05
9.37636e-05
1.95919e-05
7.05603e-06
7.54975e-05
0.000116449
8.78502e-06
6.75873e-06
2.03006e-06
8.47893e-07
8.05315e-07
6.38952e-07
1.67628e-06
3.5066e-06
3.51129e-06
2.62284e-06
4.45035e-06
4.52111e-06
5.63973e-06
3.13976e-06
3.1356e-06
8.97977e-06
2.22475e-05
0.000480768
0.00060326
8.19278e-05
1.93186e-05
2.83991e-05
6.35526e-05
7.74703e-05
6.62925e-05
9.5507e-07
4.71256e-06
8.83505e-06
1.83505e-05
8.9287e-05
4.28872e-05
1.3873e-06
1.88079e-06
1.14542e-06
1.13205e-06
1.52332e-06
1.57975e-06
1.10671e-06
3.49897e-06
3.86866e-06
3.55561e-05
6.23331e-06
4.96561e-06
5.56049e-06
9.09252e-06
1.6231e-05
0.00023355
0.000870654
0.000507437
7.46849e-05
4.35457e-05
2.12383e-05
9.39779e-06
1.85397e-05
1.52781e-06
4.16845e-06
5.87383e-06
7.58437e-06
3.17779e-06
5.5264e-05
3.47888e-06
3.99497e-06
1.95126e-06
1.72218e-06
1.46973e-06
2.3523e-06
3.71065e-07
1.35651e-06
3.16362e-06
4.2293e-06
7.3383e-05
7.85874e-06
8.65021e-06
1.30648e-05
1.00477e-05
0.000106973
0.000962548
0.000919519
0.000305843
6.92247e-05
3.48708e-05
4.48503e-06
8.00989e-07
1.04843e-06
3.31045e-06
4.69712e-06
4.49835e-06
2.48114e-06
3.80063e-06
7.09873e-06
1.17805e-05
3.36079e-06
2.1303e-06
1.78471e-06
1.73168e-06
3.9509e-06
7.77282e-08
3.38638e-06
4.04193e-06
2.48828e-05
6.52916e-05
9.22751e-06
1.82508e-05
1.30922e-05
2.57243e-05
0.000538984
0.000834568
0.000379183
6.1554e-05
2.38127e-05
7.2837e-06
2.23105e-06
6.78739e-07
1.74467e-06
3.27952e-06
2.97371e-06
1.39671e-06
2.39418e-06
5.39084e-06
2.02478e-05
6.6635e-06
2.92423e-06
1.44238e-06
1.20848e-06
1.5703e-06
2.15648e-06
7.67948e-07
5.01701e-06
1.3048e-05
0.00013198
7.89184e-05
1.20291e-05
1.65632e-05
4.57575e-06
5.82168e-05
0.000373563
0.000313616
7.91064e-05
1.2658e-05
6.29173e-06
3.72886e-06
2.42612e-06
1.11666e-06
1.89658e-06
2.11477e-06
1.07448e-06
1.44652e-06
4.78263e-06
4.28499e-06
1.58327e-05
1.29627e-05
5.10038e-06
1.46914e-06
9.75005e-07
1.17893e-06
6.04745e-07
1.29609e-06
4.138e-06
2.91751e-05
0.000220426
0.000118368
1.03514e-05
4.87729e-06
6.58312e-07
3.40905e-05
0.00015436
0.000146988
4.27581e-05
3.83977e-06
2.26463e-06
3.34871e-06
2.80487e-06
1.4601e-06
1.69348e-06
1.05528e-06
8.67787e-07
1.99795e-06
6.10056e-06
7.43674e-06
1.43845e-05
1.60227e-05
1.23561e-05
6.34914e-06
2.37477e-06
1.2999e-06
5.47234e-07
1.56398e-06
5.43376e-06
9.6323e-05
0.000212342
6.12192e-05
6.62295e-06
1.44899e-06
3.31859e-06
2.36612e-05
7.62151e-05
7.93054e-05
2.01513e-05
2.67985e-06
1.68388e-06
3.1158e-06
3.19994e-06
1.96362e-06
1.71635e-06
7.03494e-07
8.99948e-07
3.35178e-06
7.75799e-06
1.6937e-05
2.01956e-05
2.06414e-05
4.10012e-05
1.5753e-05
6.2257e-06
1.86423e-06
6.072e-07
2.18628e-06
2.48187e-05
0.000177612
0.000193939
7.66081e-06
6.82029e-06
6.00114e-06
1.53868e-05
2.27021e-05
2.09915e-05
2.85693e-05
2.39378e-05
1.27783e-05
6.0178e-06
3.77489e-06
3.68592e-06
1.99418e-06
1.4872e-06
8.00138e-07
1.0378e-06
2.99492e-06
8.17152e-06
5.86899e-05
0.000518888
0.000891873
2.12601e-05
3.91895e-05
1.06107e-05
2.0956e-06
5.77849e-07
1.86509e-06
9.26011e-05
0.000183666
9.80827e-05
4.60142e-06
5.57946e-06
4.32509e-06
7.09353e-06
5.73335e-06
2.02746e-06
1.60653e-05
4.00065e-05
8.73938e-05
1.27554e-05
4.45977e-06
4.04448e-06
1.93514e-06
9.6657e-07
9.54309e-07
1.15418e-06
1.49808e-06
5.14021e-07
7.74575e-05
0.000530646
0.00029421
0.00129323
0.000108614
1.43396e-05
2.14585e-06
6.42186e-07
6.79189e-06
0.000325117
0.000192235
1.10231e-05
8.31101e-06
2.91109e-06
1.4932e-06
2.61424e-06
4.03158e-06
6.72496e-06
1.37177e-05
2.04928e-05
0.000206659
1.25869e-05
1.66784e-06
1.55795e-06
9.27647e-07
5.48318e-07
1.75081e-06
1.86072e-06
5.05738e-07
7.26451e-07
3.39669e-05
0.000216177
1.38635e-05
0.000548377
0.00132622
3.63456e-05
3.07337e-06
9.70738e-07
8.4087e-06
0.000450553
0.000234534
1.10166e-05
7.10337e-06
2.98501e-06
3.88607e-06
5.38536e-06
5.85254e-06
1.42068e-05
2.8996e-05
5.17982e-05
0.000158547
1.65393e-05
3.74767e-06
1.43532e-06
1.05739e-07
8.73139e-07
4.9714e-06
2.02481e-05
0.000943584
0.000189007
7.52347e-05
0.000269907
3.19675e-05
4.77223e-05
0.000503915
0.0014065
2.37161e-05
7.69075e-05
0.000109763
0.000325509
0.000159885
1.09586e-05
4.30748e-06
2.55871e-06
4.00325e-06
5.43524e-06
1.95159e-05
9.52649e-05
0.000120586
8.89173e-05
1.39987e-05
3.31883e-05
0.000423478
2.79839e-05
1.6076e-05
1.2476e-05
5.51606e-06
0.000889015
0.00251151
0.00312722
0.000939142
0.000362164
2.96742e-05
2.02192e-05
3.60214e-06
0.00096897
0.00170541
0.00114285
0.00239158
0.00121972
0.000598168
0.000230495
7.59977e-05
3.25976e-05
3.75289e-05
0.000148308
0.000474528
0.000701655
0.000817616
0.000695341
0.000481665
0.00153511
0.0025611
0.000936188
3.30761e-05
3.65236e-05
9.74508e-05
0.00137364
9.86793e-05
0.00077939
0.00198202
0.00041538
1.14933e-05
3.37611e-06
2.92964e-06
2.24119e-06
0.000344743
0.000771937
0.00165568
0.00439857
0.00286368
0.00220547
0.00162843
0.00122531
0.00126489
0.0018889
0.00233975
0.00223975
0.00223415
0.00249128
0.00320683
0.00344088
0.000921971
0.000992174
4.06378e-05
4.52173e-05
0.000183553
0.000224326
6.57375e-07
2.42262e-06
0.000963865
0.000374496
3.38956e-06
1.8849e-06
3.35398e-06
6.19518e-06
2.30429e-06
1.29381e-05
0.000173163
0.0016874
0.00280076
0.00269027
0.0029472
0.00284604
0.00289591
0.00269865
0.00181332
0.000936056
0.000666194
0.000955512
0.000954634
0.00016807
6.21115e-06
0.00027503
0.000619077
1.33545e-05
0.000460119
5.83388e-05
4.24479e-07
2.68545e-06
0.000848585
0.000281733
4.10201e-06
1.87844e-06
2.21e-06
6.60518e-06
6.14328e-06
7.13177e-06
9.56875e-05
0.000198532
0.000551841
0.000728445
0.00105839
0.00127258
0.00115015
0.000534277
0.000114362
6.66042e-06
7.27945e-07
1.01383e-06
8.98086e-07
6.20629e-07
2.2738e-06
3.02923e-05
0.00066932
0.000123147
0.000898125
4.33778e-06
4.73117e-07
2.47888e-06
0.000793868
0.000189118
6.85567e-06
1.8889e-06
1.67645e-06
4.96962e-06
7.69236e-06
9.36148e-06
8.45334e-05
9.62781e-05
2.6046e-05
2.84324e-05
6.35356e-05
8.32695e-05
5.33813e-05
5.27102e-06
6.97957e-07
2.02977e-08
1.92481e-07
3.03552e-07
9.21046e-07
9.33705e-07
5.5873e-06
4.93036e-05
0.000129691
0.00103532
0.000197281
2.11229e-06
5.28734e-07
3.26192e-06
0.000747813
0.000143764
1.06418e-05
3.85665e-06
2.45321e-06
5.63574e-06
9.0151e-06
1.23662e-05
7.20295e-05
7.15109e-05
6.44999e-06
1.72608e-06
3.42856e-06
3.58139e-06
3.00255e-06
1.04574e-06
3.88948e-07
3.14486e-08
4.93345e-07
1.80163e-07
8.22992e-07
1.49042e-06
8.445e-06
4.60561e-05
9.49648e-05
0.000244058
4.54371e-06
2.58438e-06
9.44279e-07
3.18919e-06
0.000686497
6.44331e-05
1.84767e-05
8.23906e-06
5.01809e-06
7.96204e-06
9.9248e-06
1.76346e-05
5.97825e-05
4.68168e-05
1.62245e-06
2.84344e-07
7.88192e-07
1.06989e-06
5.48771e-07
1.05778e-06
1.61589e-07
2.18002e-06
3.06231e-06
9.12517e-08
5.61475e-07
2.28263e-06
1.22679e-05
6.07641e-05
9.80939e-05
4.42637e-06
5.96517e-06
2.43413e-06
8.90202e-07
3.97246e-06
0.000610056
2.03947e-05
1.78653e-05
1.15417e-05
6.63835e-06
1.03505e-05
1.37672e-05
2.78765e-05
5.4713e-05
2.80805e-05
2.5508e-07
6.60445e-08
1.85439e-07
2.06382e-07
5.8362e-08
7.09818e-07
1.35708e-07
1.31175e-05
5.40317e-06
1.13599e-07
2.44099e-07
3.24078e-06
1.9923e-05
8.36706e-05
7.7102e-05
4.03016e-06
5.71821e-06
2.40593e-06
1.51718e-06
5.09826e-06
0.000513498
2.55623e-06
1.1892e-05
1.16916e-05
9.15699e-06
1.19232e-05
1.7625e-05
3.9664e-05
5.2751e-05
1.68325e-05
8.51684e-08
7.0747e-08
8.38089e-08
5.61289e-08
3.14354e-08
2.772e-07
1.56069e-06
2.08165e-05
1.66602e-06
3.13568e-07
2.07137e-07
4.32369e-06
2.96946e-05
0.000107914
5.14873e-05
4.17256e-06
6.3013e-06
2.61608e-06
1.82882e-06
6.28232e-06
0.000437752
8.21567e-06
2.79665e-06
4.88043e-06
1.00471e-05
1.45603e-05
2.05234e-05
4.69593e-05
5.08151e-05
8.25441e-06
5.60546e-08
1.03256e-07
9.32797e-08
5.4355e-08
7.21778e-08
1.09645e-07
8.29128e-06
1.37399e-05
1.22866e-07
4.22099e-07
3.41443e-07
4.73969e-06
4.05347e-05
0.000109013
3.38837e-05
3.65154e-06
6.16596e-06
2.74159e-06
2.87842e-06
7.88778e-06
0.000320865
5.71159e-06
5.77653e-06
1.19024e-06
3.80642e-06
1.27878e-05
2.27695e-05
4.6705e-05
5.96494e-05
3.36419e-06
8.31193e-08
1.77091e-07
1.40273e-07
5.63982e-08
1.20825e-07
9.43956e-08
1.99755e-05
8.01111e-06
5.01486e-07
3.81067e-07
4.44891e-07
3.48221e-06
5.0873e-05
9.22918e-05
2.06934e-05
4.99361e-06
6.88272e-06
3.54545e-06
3.47228e-06
1.00363e-05
0.000207028
6.55706e-06
7.71735e-06
1.31505e-06
7.15659e-07
6.33325e-06
1.70461e-05
4.09412e-05
8.97558e-05
3.54921e-06
1.05597e-07
2.40357e-07
1.7994e-07
8.1792e-08
7.56926e-08
8.72925e-07
2.35099e-05
4.4541e-06
2.04197e-06
5.72949e-07
3.9604e-07
2.43112e-06
5.3719e-05
7.18985e-05
1.36727e-05
4.97416e-06
7.66185e-06
3.66914e-06
5.46811e-06
1.43011e-05
0.000118364
2.50083e-05
1.05362e-05
3.54611e-06
3.99249e-07
1.73793e-06
1.05506e-05
3.68576e-05
0.000150291
9.4669e-06
4.18689e-08
1.5966e-07
1.44907e-07
7.42708e-08
4.22898e-08
2.9282e-06
1.30014e-05
2.69284e-06
2.74584e-06
3.29223e-06
8.18656e-07
1.81551e-06
4.44186e-05
5.73925e-05
1.11073e-05
6.68395e-06
8.1766e-06
4.63876e-06
9.44148e-06
2.2739e-05
6.77388e-05
7.41104e-05
1.0337e-05
4.96291e-06
2.98092e-07
6.70359e-07
7.97797e-06
3.42674e-05
0.000203173
2.15387e-05
2.2597e-08
6.39063e-08
4.9787e-08
4.17373e-08
1.42749e-07
8.81737e-06
6.11048e-06
1.43761e-06
1.75158e-06
4.88385e-06
3.30542e-06
1.21721e-06
2.59035e-05
5.12501e-05
1.29658e-05
7.30692e-06
9.62599e-06
6.71817e-06
1.18358e-05
1.71215e-05
7.83951e-06
8.08816e-05
1.88986e-06
4.72765e-06
3.12894e-07
4.4756e-07
5.91143e-06
5.57582e-05
0.000227569
1.58925e-05
6.84992e-08
1.09388e-07
2.54395e-08
4.30887e-08
7.66281e-07
1.66088e-05
2.68519e-06
4.56096e-07
5.08406e-07
1.77485e-06
6.13853e-06
1.1289e-06
9.98445e-06
4.69538e-05
1.91304e-05
9.57033e-06
9.43603e-06
6.70243e-06
6.55919e-06
6.28835e-06
1.64397e-05
7.82193e-05
6.25258e-06
2.97782e-06
4.33434e-07
4.03788e-07
4.41638e-06
8.43082e-05
0.000310226
1.50829e-05
8.8912e-07
4.00823e-07
7.11789e-08
1.67479e-07
4.82815e-06
1.10316e-05
6.64741e-07
2.37539e-07
1.82932e-07
5.78845e-07
4.80644e-06
5.02742e-06
2.05209e-06
5.19199e-05
3.08768e-05
1.13833e-05
8.41167e-06
3.43436e-06
1.30984e-06
1.37048e-05
1.18897e-05
0.000163093
5.42406e-06
3.41237e-06
4.0008e-07
4.61938e-07
3.46822e-06
0.000127282
0.000357738
1.17464e-05
4.90336e-06
4.93497e-06
1.03031e-06
1.68757e-06
1.28918e-05
3.73553e-06
4.37609e-08
1.91931e-07
6.74577e-08
1.62513e-07
1.40164e-06
7.39807e-06
3.33001e-07
7.21719e-05
4.14614e-05
1.30307e-05
7.69268e-06
1.19249e-06
1.01978e-06
3.68467e-05
8.71799e-05
0.00038431
1.32883e-05
1.90565e-06
3.98761e-07
8.31301e-07
3.68745e-06
0.000280665
0.000332793
1.41045e-06
4.85971e-06
1.17915e-05
6.84206e-06
6.67621e-06
7.89706e-06
7.92112e-07
8.11086e-08
1.25677e-07
4.26188e-08
6.38808e-08
1.00362e-07
3.09908e-06
4.66625e-08
6.32202e-05
4.57733e-05
1.21495e-05
8.83515e-06
6.35935e-07
2.44228e-06
1.29681e-05
0.000161801
0.000441546
2.19565e-05
1.05483e-06
3.67773e-07
1.92039e-06
2.67028e-05
0.000425016
0.000139185
7.97891e-07
2.50481e-06
6.46815e-06
8.24493e-06
6.38409e-06
2.44576e-06
1.39518e-07
1.1555e-07
9.67312e-08
5.35418e-08
5.00444e-08
1.00472e-08
1.57112e-06
1.04631e-07
4.31426e-05
5.80775e-05
9.75619e-06
6.56449e-06
7.41558e-07
2.03848e-06
2.07493e-06
0.000121601
0.000283175
1.31186e-05
8.67949e-07
1.09792e-06
5.40946e-06
0.000115121
0.000344235
4.95693e-05
1.68217e-06
1.33792e-06
2.18941e-06
3.05508e-06
3.03809e-06
7.01861e-07
3.14787e-08
1.95497e-07
1.04574e-07
6.42189e-08
5.91794e-08
3.9032e-08
8.29608e-07
2.02022e-06
4.03895e-05
8.06377e-05
8.81072e-06
5.08149e-06
9.53248e-07