/*--------------------------------*- C++ -*----------------------------------*\
| =========                 |                                                 |
| \\      /  F ield         | OpenFOAM: The Open Source CFD Toolbox           |
|  \\    /   O peration     | Version:  2.3.0                                 |
|   \\  /    A nd           | Web:      www.OpenFOAM.org                      |
|    \\/     M anipulation  |                                                 |
\*---------------------------------------------------------------------------*/
FoamFile
{
    version     2.0;
    format      ascii;
    class       volVectorField;
    location    "0.72";
    object      U.air;
}
// * * * * * * * * * * * * * * * * * * * * * * * * * * * * * * * * * * * * * //

dimensions      [0 1 -1 0 0 0 0];

internalField   nonuniform List<vector> 
6000
(
(0.00986598 0.189464 0)
(0.0548541 0.107659 0)
(0.114764 0.107335 0)
(0.165829 0.109237 0)
(0.187076 0.114678 0)
(0.180538 0.147277 0)
(0.134457 0.163978 0)
(0.0678532 0.15591 0)
(0.0131141 0.145542 0)
(0.00103601 0.120407 0)
(0.0169982 0.105221 0)
(-0.00402849 0.10434 0)
(-0.069395 0.160437 0)
(-0.146764 0.181369 0)
(-0.174176 0.153217 0)
(-0.106713 0.128301 0)
(0.0316455 0.0945432 0)
(0.118264 0.0938756 0)
(0.105074 0.127548 0)
(0.0789761 0.128089 0)
(0.0634252 0.14896 0)
(0.0406309 0.175222 0)
(0.0293878 0.133532 0)
(0.0370238 0.117749 0)
(0.0561542 0.117583 0)
(0.0604746 0.137343 0)
(0.0547668 0.149837 0)
(0.0348409 0.143726 0)
(-0.00845178 0.121612 0)
(-0.012842 0.170946 0)
(0.0756128 0.906576 0)
(0.112229 0.964984 0)
(0.103134 0.982248 0)
(0.0896281 0.990792 0)
(0.0863269 1.01631 0)
(0.084076 1.01464 0)
(0.0979976 1.03622 0)
(0.100135 1.04455 0)
(0.100697 1.02135 0)
(0.0827346 0.97872 0)
(0.064691 1.00223 0)
(0.0258829 1.08837 0)
(-0.00859511 1.0757 0)
(-0.0417823 1.06643 0)
(-0.0977899 1.00028 0)
(-0.0898153 0.866774 0)
(-0.0107657 0.819757 0)
(0.0276551 1.01113 0)
(-0.00987163 1.04136 0)
(-0.0539853 1.02332 0)
(-0.060106 0.994425 0)
(-0.0274174 0.960763 0)
(0.0049571 0.956164 0)
(0.0172416 0.943998 0)
(0.0357071 0.928837 0)
(0.0831527 0.940006 0)
(0.155361 0.949129 0)
(0.170659 1.0248 0)
(0.132695 1.07864 0)
(0.0375602 0.974779 0)
(0.043548 0.615516 0)
(0.108202 0.70266 0)
(0.0958256 0.762036 0)
(0.0750316 0.744945 0)
(0.0857611 0.743566 0)
(0.0922128 0.772873 0)
(0.0927188 0.800312 0)
(0.0834784 0.816622 0)
(0.0840178 0.799797 0)
(0.085053 0.763126 0)
(0.0801648 0.782017 0)
(0.0643836 0.859156 0)
(0.0359433 0.892906 0)
(-0.00424784 0.894989 0)
(-0.0476443 0.834663 0)
(-0.0404084 0.63053 0)
(-0.0259894 0.557601 0)
(-0.0121164 0.785176 0)
(-0.0451853 0.867179 0)
(-0.0962519 0.789469 0)
(-0.0976981 0.732692 0)
(-0.0733366 0.727028 0)
(-0.0512919 0.722053 0)
(-0.0191798 0.711919 0)
(0.0430001 0.677445 0)
(0.142105 0.620336 0)
(0.233076 0.66797 0)
(0.258053 0.76782 0)
(0.21411 0.921804 0)
(0.103062 0.922874 0)
(-0.000768126 0.601347 0)
(0.0662683 0.689786 0)
(0.0795344 0.802707 0)
(0.0806488 0.758497 0)
(0.0927505 0.762435 0)
(0.0785338 0.807231 0)
(0.0576986 0.838393 0)
(0.0319356 0.837817 0)
(0.0430413 0.80493 0)
(0.0871262 0.765892 0)
(0.129855 0.813562 0)
(0.113217 0.899546 0)
(0.0824679 0.926511 0)
(0.0266984 0.926175 0)
(0.0380615 0.829 0)
(0.067296 0.668514 0)
(-0.0097774 0.625815 0)
(-0.0663357 0.836989 0)
(-0.112724 0.943481 0)
(-0.146684 0.851362 0)
(-0.132621 0.749127 0)
(-0.0973321 0.738167 0)
(-0.0579209 0.718551 0)
(0.00933099 0.681939 0)
(0.10513 0.631563 0)
(0.190353 0.609509 0)
(0.250812 0.701416 0)
(0.27473 0.855151 0)
(0.241163 1.05285 0)
(0.121599 1.10987 0)
(0.0389387 0.63211 0)
(-0.0453212 0.621343 0)
(0.0798533 0.786115 0)
(0.0620374 0.75014 0)
(0.03827 0.739536 0)
(0.0238153 0.818292 0)
(-0.00929417 0.858577 0)
(-0.0138566 0.835011 0)
(0.029125 0.763788 0)
(0.0971711 0.687078 0)
(0.144792 0.76647 0)
(0.154575 0.912891 0)
(0.119702 0.967074 0)
(0.0837702 0.942455 0)
(0.126474 0.781776 0)
(0.0931098 0.762538 0)
(-0.0455829 0.774667 0)
(-0.1288 0.912471 0)
(-0.152115 1.00858 0)
(-0.124207 0.830774 0)
(-0.0833862 0.688909 0)
(-0.0497212 0.712113 0)
(-0.00792564 0.690467 0)
(0.0585866 0.645282 0)
(0.129355 0.61056 0)
(0.155547 0.612429 0)
(0.147979 0.697882 0)
(0.158324 0.849594 0)
(0.146847 1.13244 0)
(0.0816966 1.31484 0)
(0.018506 0.682399 0)
(-0.0078572 0.621072 0)
(-0.00190727 0.800597 0)
(0.0418898 0.788214 0)
(-0.0134722 0.774754 0)
(-0.0429731 0.842679 0)
(-0.04663 0.86446 0)
(-0.00907522 0.778566 0)
(0.0553367 0.701029 0)
(0.0929392 0.665288 0)
(0.0935419 0.759491 0)
(0.10358 0.930839 0)
(0.109526 0.994357 0)
(0.130279 0.964862 0)
(0.0820963 0.820253 0)
(0.00641121 0.918453 0)
(-0.0892289 0.929513 0)
(-0.132963 0.953715 0)
(-0.0810852 1.00191 0)
(-0.00532661 0.832449 0)
(-0.00704062 0.745893 0)
(-0.00862379 0.774159 0)
(0.0392416 0.725502 0)
(0.105901 0.680519 0)
(0.141528 0.690611 0)
(0.10866 0.767731 0)
(0.00411897 0.878503 0)
(-0.0742661 0.955309 0)
(-0.080919 1.18757 0)
(-0.0254475 1.40247 0)
(0.0198852 0.746682 0)
(-0.0600598 0.716764 0)
(-0.0435092 0.853923 0)
(-0.0634432 0.867829 0)
(-0.0507864 0.825996 0)
(-0.0667884 0.858161 0)
(-0.0209539 0.861496 0)
(0.0407038 0.774645 0)
(0.0734916 0.720861 0)
(0.0594986 0.731103 0)
(0.0161283 0.827821 0)
(0.00320676 0.992812 0)
(-0.00331344 1.0391 0)
(0.0373717 1.06472 0)
(-0.0367829 0.956806 0)
(-0.0798197 1.0271 0)
(-0.0662384 1.01735 0)
(-0.0413196 0.981411 0)
(0.0271389 1.00177 0)
(0.0478175 0.91637 0)
(0.0098616 0.879842 0)
(0.00679754 0.854325 0)
(0.0688706 0.778555 0)
(0.146754 0.723738 0)
(0.164849 0.746882 0)
(0.0607824 0.846293 0)
(-0.142561 0.986323 0)
(-0.284657 1.07849 0)
(-0.255876 1.22729 0)
(-0.0982371 1.39216 0)
(-0.00380462 0.795128 0)
(-0.0825557 0.849628 0)
(-0.144978 0.930423 0)
(-0.14661 0.925628 0)
(-0.127491 0.883505 0)
(-0.0788834 0.840995 0)
(0.00775559 0.815142 0)
(0.0780469 0.770976 0)
(0.0807651 0.772464 0)
(0.0412363 0.830287 0)
(-0.00167111 0.956606 0)
(-0.0941826 1.17217 0)
(-0.175657 1.13811 0)
(-0.115501 1.1094 0)
(-0.0825641 1.04702 0)
(-0.0421393 1.06762 0)
(0.042502 1.05589 0)
(0.088014 1.05814 0)
(0.0748787 1.1 0)
(0.018352 1.05266 0)
(-0.0333209 0.971858 0)
(-0.0345636 0.852663 0)
(-0.015156 0.701467 0)
(0.00687768 0.595151 0)
(0.0349982 0.637002 0)
(0.00518495 0.83652 0)
(-0.109085 0.983099 0)
(-0.224529 0.903395 0)
(-0.23276 1.00747 0)
(-0.101765 1.18729 0)
(-0.019686 0.872955 0)
(-0.0926471 0.985122 0)
(-0.174187 1.02721 0)
(-0.214319 0.976944 0)
(-0.187766 0.888693 0)
(-0.104512 0.792275 0)
(0.0253228 0.734654 0)
(0.112152 0.768593 0)
(0.105955 0.859484 0)
(0.0768382 0.91649 0)
(0.0304913 1.04424 0)
(-0.167352 1.31888 0)
(-0.364109 1.22803 0)
(-0.278355 1.09956 0)
(-0.0763631 1.05369 0)
(0.104514 1.06547 0)
(0.159726 1.05308 0)
(0.0760079 1.04942 0)
(-0.0466472 1.057 0)
(-0.14572 0.989057 0)
(-0.21057 0.862419 0)
(-0.241173 0.750226 0)
(-0.269781 0.658893 0)
(-0.265646 0.579453 0)
(-0.209798 0.604178 0)
(-0.104005 0.848097 0)
(-0.00445902 1.05872 0)
(-0.0291557 1.08086 0)
(-0.100464 0.950151 0)
(-0.0567558 0.885831 0)
(-0.00672545 0.934478 0)
(-0.0792608 1.08263 0)
(-0.18951 1.1132 0)
(-0.258319 1.03449 0)
(-0.242979 0.868474 0)
(-0.15159 0.702806 0)
(0.00366055 0.589364 0)
(0.140425 0.717512 0)
(0.108332 0.817471 0)
(0.0493447 0.833468 0)
(-0.0463327 1.0264 0)
(-0.153337 1.43841 0)
(-0.241515 1.16425 0)
(-0.224285 0.880734 0)
(-0.0785941 0.84011 0)
(0.0294584 0.910837 0)
(-0.0393064 1.03307 0)
(-0.188126 1.16961 0)
(-0.32057 1.22066 0)
(-0.444112 1.14504 0)
(-0.555917 1.01075 0)
(-0.664362 0.845265 0)
(-0.689221 0.627984 0)
(-0.597465 0.439026 0)
(-0.452995 0.358386 0)
(-0.268978 0.535063 0)
(-0.0554528 0.764891 0)
(0.0811763 0.924999 0)
(0.0911655 0.952626 0)
(0.0309246 0.975963 0)
(-0.0206005 0.915492 0)
(-0.0787213 1.1729 0)
(-0.177427 1.19336 0)
(-0.297768 1.07583 0)
(-0.342306 0.84663 0)
(-0.259458 0.614387 0)
(-0.0908612 0.399285 0)
(0.0348316 0.650124 0)
(0.0409664 0.88808 0)
(-0.026076 0.934757 0)
(-0.108523 1.14805 0)
(-0.0853198 1.34007 0)
(-0.0236565 1.26285 0)
(-0.10419 0.895677 0)
(-0.198025 0.783563 0)
(-0.308788 1.04987 0)
(-0.44025 1.20302 0)
(-0.519575 1.2072 0)
(-0.567365 1.13228 0)
(-0.617596 1.04862 0)
(-0.683666 0.922945 0)
(-0.767889 0.779812 0)
(-0.702471 0.448135 0)
(-0.586322 0.239442 0)
(-0.4731 0.171132 0)
(-0.349177 0.310561 0)
(-0.179582 0.538309 0)
(-0.0149371 0.727264 0)
(0.059621 0.805097 0)
(0.0239493 0.800529 0)
(-0.137332 0.893637 0)
(-0.0746942 1.06548 0)
(-0.152133 1.0874 0)
(-0.271668 1.0926 0)
(-0.413704 0.861806 0)
(-0.459795 0.582881 0)
(-0.384943 0.343639 0)
(-0.355509 0.618072 0)
(-0.234604 0.813424 0)
(-0.159417 0.842027 0)
(-0.112695 1.02941 0)
(-0.0662457 1.12649 0)
(-0.01299 1.10448 0)
(-0.0905414 0.991617 0)
(-0.291283 0.966963 0)
(-0.441296 1.05236 0)
(-0.514553 1.14306 0)
(-0.552449 1.14424 0)
(-0.608048 1.13796 0)
(-0.642876 1.05249 0)
(-0.719016 0.972091 0)
(-0.702848 0.708944 0)
(-0.56337 0.320925 0)
(-0.485976 0.152618 0)
(-0.434461 0.117033 0)
(-0.373636 0.214987 0)
(-0.2696 0.419285 0)
(-0.133212 0.612301 0)
(-0.0345956 0.772768 0)
(-0.00560082 0.846346 0)
(-0.0752639 0.907197 0)
(-0.155258 1.04149 0)
(-0.262236 1.10961 0)
(-0.414354 1.11878 0)
(-0.565199 0.772047 0)
(-0.679333 0.626589 0)
(-0.806185 0.413779 0)
(-0.704842 0.528215 0)
(-0.46838 0.62018 0)
(-0.263282 0.689977 0)
(-0.110133 0.940808 0)
(-0.0579119 1.08457 0)
(-0.0696439 1.08596 0)
(-0.140874 1.04325 0)
(-0.269963 1.03284 0)
(-0.387712 1.10581 0)
(-0.468338 1.16752 0)
(-0.540117 1.20155 0)
(-0.596814 1.15715 0)
(-0.654073 1.0996 0)
(-0.692296 0.977554 0)
(-0.552266 0.555484 0)
(-0.426972 0.221322 0)
(-0.397829 0.123003 0)
(-0.388424 0.110161 0)
(-0.369254 0.179637 0)
(-0.316412 0.338249 0)
(-0.233606 0.55512 0)
(-0.145876 0.713845 0)
(-0.0563206 0.796384 0)
(-0.087161 1.04567 0)
(-0.228797 1.09654 0)
(-0.316488 1.13087 0)
(-0.399638 1.13923 0)
(-0.631535 0.982347 0)
(-0.794172 0.641843 0)
(-0.874831 0.433144 0)
(-0.807775 0.397271 0)
(-0.556063 0.443831 0)
(-0.347249 0.522596 0)
(-0.144554 0.828784 0)
(-0.0533307 1.07401 0)
(-0.0796296 1.12214 0)
(-0.146329 1.1224 0)
(-0.24138 1.14532 0)
(-0.336429 1.17969 0)
(-0.428409 1.24456 0)
(-0.511306 1.23893 0)
(-0.579623 1.20873 0)
(-0.638102 1.12484 0)
(-0.571285 0.85444 0)
(-0.377401 0.394836 0)
(-0.303948 0.175426 0)
(-0.306978 0.127315 0)
(-0.328144 0.129657 0)
(-0.339634 0.185869 0)
(-0.323974 0.314746 0)
(-0.27899 0.507707 0)
(-0.213014 0.677189 0)
(-0.0848534 0.691111 0)
(-0.0725897 1.04231 0)
(-0.203416 1.05614 0)
(-0.269306 1.05267 0)
(-0.282145 1.02465 0)
(-0.368627 0.94944 0)
(-0.595492 0.762106 0)
(-0.66548 0.358582 0)
(-0.775139 0.289556 0)
(-0.578544 0.313276 0)
(-0.402949 0.379248 0)
(-0.223455 0.681318 0)
(-0.0631492 1.05543 0)
(-0.0461832 1.15698 0)
(-0.115207 1.19639 0)
(-0.202853 1.22381 0)
(-0.293722 1.27816 0)
(-0.387253 1.30758 0)
(-0.483208 1.31783 0)
(-0.556096 1.24151 0)
(-0.579252 1.11403 0)
(-0.385355 0.637439 0)
(-0.224426 0.269582 0)
(-0.195537 0.155748 0)
(-0.218559 0.147174 0)
(-0.255223 0.167215 0)
(-0.290118 0.216633 0)
(-0.302103 0.321961 0)
(-0.277222 0.490018 0)
(-0.215345 0.621686 0)
(-0.0610455 0.552487 0)
(-0.0644746 1.16007 0)
(-0.175331 1.1347 0)
(-0.199048 1.06653 0)
(-0.171977 0.991151 0)
(-0.129974 0.915412 0)
(-0.231768 0.801537 0)
(-0.437621 0.450031 0)
(-0.571645 0.197312 0)
(-0.526203 0.21541 0)
(-0.394956 0.308585 0)
(-0.284574 0.549482 0)
(-0.0866577 0.948635 0)
(0.0218765 1.18893 0)
(-0.0506325 1.26409 0)
(-0.145049 1.31238 0)
(-0.243089 1.34971 0)
(-0.350785 1.4027 0)
(-0.445238 1.37282 0)
(-0.522649 1.28848 0)
(-0.433923 0.950678 0)
(-0.201067 0.431807 0)
(-0.109822 0.208707 0)
(-0.116439 0.168049 0)
(-0.152073 0.181519 0)
(-0.195759 0.211914 0)
(-0.23712 0.258085 0)
(-0.259636 0.344607 0)
(-0.236835 0.471014 0)
(-0.169924 0.568465 0)
(-0.0295935 0.47307 0)
(-0.0553472 1.28683 0)
(-0.124337 1.18815 0)
(-0.101185 1.04911 0)
(-0.0636301 0.957488 0)
(0.0155169 0.866775 0)
(0.0372796 0.826752 0)
(-0.166189 0.659637 0)
(-0.330237 0.198876 0)
(-0.476492 0.187401 0)
(-0.385807 0.259185 0)
(-0.299763 0.480607 0)
(-0.123032 0.759105 0)
(0.0669417 1.19323 0)
(0.0443454 1.33914 0)
(-0.0630186 1.39876 0)
(-0.177711 1.45653 0)
(-0.307676 1.48236 0)
(-0.421572 1.44914 0)
(-0.453194 1.27514 0)
(-0.244965 0.707158 0)
(-0.0638784 0.301108 0)
(-0.0345789 0.195756 0)
(-0.0609628 0.19447 0)
(-0.0993175 0.217779 0)
(-0.139012 0.250989 0)
(-0.17564 0.294944 0)
(-0.196539 0.362414 0)
(-0.174652 0.448916 0)
(-0.107342 0.512942 0)
(-0.00646521 0.443424 0)
(-0.0314359 1.3787 0)
(-0.0507075 1.18529 0)
(-0.00365143 1.01629 0)
(0.0393883 0.918847 0)
(0.118992 0.808379 0)
(0.178463 0.812386 0)
(0.133792 0.754961 0)
(-0.11009 0.398531 0)
(-0.327324 0.197505 0)
(-0.328085 0.243169 0)
(-0.306239 0.43199 0)
(-0.133565 0.59723 0)
(0.0337414 1.09412 0)
(0.154007 1.40655 0)
(0.0359798 1.50904 0)
(-0.10734 1.56173 0)
(-0.258486 1.60983 0)
(-0.392546 1.51506 0)
(-0.321994 1.12613 0)
(-0.0726595 0.487391 0)
(0.0231308 0.24614 0)
(0.0119937 0.213969 0)
(-0.0226201 0.227054 0)
(-0.0581508 0.250451 0)
(-0.0898776 0.280507 0)
(-0.115041 0.318884 0)
(-0.12588 0.368723 0)
(-0.107537 0.423733 0)
(-0.0558099 0.464179 0)
(-0.00344198 0.43635 0)
(0.000350162 1.40445 0)
(0.0119552 1.16022 0)
(0.068641 0.986721 0)
(0.114263 0.874689 0)
(0.192528 0.777409 0)
(0.273656 0.772378 0)
(0.323597 0.822595 0)
(0.152976 0.673441 0)
(-0.0848081 0.292041 0)
(-0.253864 0.289321 0)
(-0.263193 0.425303 0)
(-0.180118 0.549259 0)
(-0.0405405 0.886008 0)
(0.212324 1.43089 0)
(0.155653 1.62835 0)
(-0.0199749 1.714 0)
(-0.216555 1.74013 0)
(-0.340082 1.56363 0)
(-0.155477 0.881074 0)
(0.0437559 0.353199 0)
(0.0684432 0.247412 0)
(0.0393799 0.244498 0)
(0.00500638 0.25808 0)
(-0.0255828 0.277109 0)
(-0.0500812 0.301353 0)
(-0.0662525 0.331701 0)
(-0.0700768 0.367507 0)
(-0.0573879 0.404162 0)
(-0.029053 0.430725 0)
(-0.00392197 0.427158 0)
(0.0257631 1.40083 0)
(0.0494179 1.13289 0)
(0.109498 0.95433 0)
(0.170244 0.845023 0)
(0.257622 0.70735 0)
(0.340195 0.685059 0)
(0.412524 0.800873 0)
(0.375475 0.813928 0)
(0.106248 0.572236 0)
(-0.0934896 0.344522 0)
(-0.188269 0.450733 0)
(-0.163156 0.558273 0)
(-0.0537659 0.694679 0)
(0.18596 1.31003 0)
(0.290853 1.75986 0)
(0.0809482 1.90736 0)
(-0.185699 1.94005 0)
(-0.246744 1.52079 0)
(-0.0026663 0.642552 0)
(0.105854 0.315046 0)
(0.0908136 0.274322 0)
(0.0568404 0.276142 0)
(0.025432 0.285508 0)
(-0.000450878 0.299141 0)
(-0.0200572 0.317161 0)
(-0.0320208 0.339647 0)
(-0.0347561 0.365115 0)
(-0.0279479 0.390083 0)
(-0.0140574 0.408752 0)
(-0.00278827 0.418672 0)
(0.0400831 1.38607 0)
(0.0692594 1.10148 0)
(0.143516 0.931427 0)
(0.232971 0.763278 0)
(0.324065 0.641762 0)
(0.390567 0.629663 0)
(0.448102 0.749328 0)
(0.46263 0.886322 0)
(0.30477 0.805518 0)
(0.0650526 0.508795 0)
(-0.0815567 0.477332 0)
(-0.0909496 0.572142 0)
(-0.0340328 0.643259 0)
(0.137839 1.06868 0)
(0.373134 1.82768 0)
(0.211104 2.17348 0)
(-0.149074 2.17635 0)
(-0.131706 1.33509 0)
(0.103114 0.501516 0)
(0.132414 0.33001 0)
(0.102436 0.307567 0)
(0.0692683 0.305593 0)
(0.0414474 0.309725 0)
(0.0189328 0.318214 0)
(0.00172914 0.330723 0)
(-0.00936104 0.346672 0)
(-0.0135882 0.364712 0)
(-0.0114717 0.382762 0)
(-0.0052897 0.398189 0)
(-0.00106696 0.414376 0)
(0.0493471 1.35197 0)
(0.095669 1.08489 0)
(0.191082 0.85247 0)
(0.293744 0.681194 0)
(0.374133 0.590169 0)
(0.42291 0.596135 0)
(0.455126 0.713631 0)
(0.4753 0.915455 0)
(0.416778 0.935088 0)
(0.229374 0.718911 0)
(0.0769088 0.524542 0)
(0.0249711 0.573166 0)
(0.0405333 0.6493 0)
(0.15714 0.889126 0)
(0.396273 1.74562 0)
(0.328004 2.47313 0)
(-0.0640115 2.46081 0)
(-0.0381931 1.08482 0)
(0.151173 0.463783 0)
(0.14246 0.362008 0)
(0.10981 0.339355 0)
(0.0804913 0.332068 0)
(0.0556345 0.331752 0)
(0.0343383 0.33625 0)
(0.0168332 0.34427 0)
(0.0043272 0.354692 0)
(-0.00215198 0.366766 0)
(-0.00305687 0.379905 0)
(-0.000483754 0.393596 0)
(0.000232213 0.413896 0)
(0.0695816 1.32169 0)
(0.143842 1.02335 0)
(0.242995 0.775587 0)
(0.333755 0.610191 0)
(0.398845 0.551406 0)
(0.432958 0.581249 0)
(0.447172 0.697282 0)
(0.469312 0.915293 0)
(0.465661 1.00274 0)
(0.374036 0.867662 0)
(0.248688 0.606466 0)
(0.180576 0.578942 0)
(0.162162 0.664503 0)
(0.216743 0.811933 0)
(0.373497 1.59089 0)
(0.371042 2.76236 0)
(0.0617182 2.74545 0)
(0.0428937 0.903028 0)
(0.15307 0.466235 0)
(0.142604 0.390842 0)
(0.118006 0.365865 0)
(0.0941117 0.355763 0)
(0.0704863 0.353615 0)
(0.0469925 0.356189 0)
(0.0256669 0.360411 0)
(0.00967406 0.365049 0)
(0.000838966 0.370964 0)
(-0.00124966 0.379153 0)
(0.00114598 0.390774 0)
(0.000965627 0.415661 0)
(0.0886577 1.21875 0)
(0.199069 0.9676 0)
(0.278402 0.717228 0)
(0.345056 0.555111 0)
(0.394942 0.525465 0)
(0.419408 0.571135 0)
(0.429763 0.686133 0)
(0.457956 0.887812 0)
(0.494998 1.01175 0)
(0.483003 0.957137 0)
(0.399672 0.702347 0)
(0.327001 0.607726 0)
(0.284986 0.696395 0)
(0.283697 0.809544 0)
(0.35971 1.47553 0)
(0.326777 2.99339 0)
(0.163731 2.91811 0)
(0.114882 0.845898 0)
(0.152242 0.471961 0)
(0.148045 0.407754 0)
(0.134025 0.385543 0)
(0.114385 0.377922 0)
(0.0888015 0.378488 0)
(0.0579157 0.382496 0)
(0.0275019 0.38247 0)
(0.00538702 0.378858 0)
(-0.00549881 0.376052 0)
(-0.00641939 0.377491 0)
(-0.000701102 0.386148 0)
(0.000973721 0.417882 0)
(0.0932399 1.08557 0)
(0.230331 0.913593 0)
(0.290524 0.681193 0)
(0.335599 0.517884 0)
(0.371716 0.504179 0)
(0.392802 0.558613 0)
(0.408258 0.670648 0)
(0.44772 0.841295 0)
(0.515032 0.974382 0)
(0.557443 0.984707 0)
(0.525212 0.793737 0)
(0.436869 0.674665 0)
(0.368564 0.744302 0)
(0.33667 0.839965 0)
(0.331322 1.45674 0)
(0.265891 3.1577 0)
(0.195319 2.99828 0)
(0.14959 0.865699 0)
(0.167239 0.47487 0)
(0.170509 0.413787 0)
(0.164182 0.399465 0)
(0.145715 0.401094 0)
(0.114349 0.412786 0)
(0.0681468 0.429409 0)
(0.0197098 0.420318 0)
(-0.0118667 0.399649 0)
(-0.0235293 0.381619 0)
(-0.0198261 0.372408 0)
(-0.00720543 0.376188 0)
(-0.000477567 0.418697 0)
(0.0870498 0.950027 0)
(0.234617 0.863575 0)
(0.289551 0.658946 0)
(0.320304 0.49636 0)
(0.347973 0.486274 0)
(0.367597 0.546021 0)
(0.389021 0.648309 0)
(0.439508 0.784536 0)
(0.519516 0.909091 0)
(0.594128 0.970994 0)
(0.598712 0.869242 0)
(0.503111 0.7799 0)
(0.407905 0.81588 0)
(0.365664 0.895222 0)
(0.303407 1.50442 0)
(0.220183 3.25819 0)
(0.200222 3.02174 0)
(0.161368 0.894427 0)
(0.195671 0.469362 0)
(0.211725 0.410352 0)
(0.211602 0.409249 0)
(0.194925 0.42822 0)
(0.161033 0.465086 0)
(0.0810869 0.525537 0)
(-0.0105174 0.486783 0)
(-0.0535396 0.42788 0)
(-0.0595777 0.384479 0)
(-0.0447168 0.360757 0)
(-0.0207105 0.357184 0)
(-0.00517627 0.414213 0)
(0.0754715 0.825094 0)
(0.220257 0.809836 0)
(0.277093 0.645397 0)
(0.306163 0.485593 0)
(0.33062 0.470832 0)
(0.352524 0.529775 0)
(0.379982 0.620184 0)
(0.42719 0.731357 0)
(0.49201 0.847424 0)
(0.562325 0.933537 0)
(0.583407 0.920383 0)
(0.514162 0.889807 0)
(0.417196 0.894965 0)
(0.370058 0.954649 0)
(0.25714 1.60431 0)
(0.16289 3.30707 0)
(0.195221 3.02728 0)
(0.177725 0.906388 0)
(0.239939 0.449688 0)
(0.271791 0.39827 0)
(0.278748 0.414118 0)
(0.274607 0.453065 0)
(0.26101 0.515238 0)
(0.106333 0.66468 0)
(-0.0951292 0.555977 0)
(-0.140184 0.444592 0)
(-0.120974 0.375663 0)
(-0.0831846 0.336876 0)
(-0.0429568 0.325481 0)
(-0.0156939 0.399145 0)
(0.0667368 0.722128 0)
(0.17891 0.78145 0)
(0.238809 0.632462 0)
(0.280339 0.467964 0)
(0.316988 0.447764 0)
(0.346905 0.508281 0)
(0.371481 0.603911 0)
(0.393927 0.712889 0)
(0.418435 0.823948 0)
(0.449953 0.906724 0)
(0.467497 0.942252 0)
(0.442797 0.953375 0)
(0.395368 0.969289 0)
(0.343877 1.01702 0)
(0.191146 1.76121 0)
(0.0991421 3.28201 0)
(0.18646 3.00402 0)
(0.207408 0.899135 0)
(0.303184 0.419062 0)
(0.346808 0.378324 0)
(0.363465 0.407701 0)
(0.376337 0.449871 0)
(0.351938 0.54469 0)
(0.14355 0.921362 0)
(-0.181931 0.721604 0)
(-0.232717 0.418356 0)
(-0.194573 0.339494 0)
(-0.132169 0.295236 0)
(-0.0713583 0.279217 0)
(-0.032565 0.366428 0)
(0.0699561 0.63322 0)
(0.10907 0.770535 0)
(0.157133 0.577116 0)
(0.238529 0.413186 0)
(0.299525 0.413546 0)
(0.332359 0.493683 0)
(0.342233 0.608219 0)
(0.332385 0.72968 0)
(0.3119 0.836178 0)
(0.297346 0.907979 0)
(0.297104 0.941093 0)
(0.304049 0.967063 0)
(0.313607 0.986038 0)
(0.283315 1.08625 0)
(0.155438 1.92143 0)
(0.0874229 3.22932 0)
(0.190824 2.93662 0)
(0.243607 0.868667 0)
(0.368353 0.382224 0)
(0.42064 0.352062 0)
(0.441741 0.383072 0)
(0.456457 0.412368 0)
(0.389153 0.622029 0)
(0.122411 1.18299 0)
(-0.193383 0.847914 0)
(-0.291808 0.400804 0)
(-0.239875 0.275493 0)
(-0.176711 0.237273 0)
(-0.0992421 0.22037 0)
(-0.0497817 0.310412 0)
(0.0790015 0.558794 0)
(0.0587439 0.822744 0)
(0.0894773 0.472052 0)
(0.211333 0.331726 0)
(0.285167 0.370529 0)
(0.31982 0.479326 0)
(0.31908 0.627953 0)
(0.265358 0.790395 0)
(0.187964 0.888661 0)
(0.141283 0.931179 0)
(0.130838 0.942317 0)
(0.144122 0.955405 0)
(0.169096 0.966219 0)
(0.181061 1.12701 0)
(0.144239 1.99801 0)
(0.117929 3.21019 0)
(0.209193 2.87864 0)
(0.271799 0.842568 0)
(0.413337 0.338884 0)
(0.470835 0.319333 0)
(0.483063 0.346046 0)
(0.472728 0.431983 0)
(0.19678 0.916527 0)
(0.02 1.20092 0)
(-0.0510909 1.08713 0)
(-0.260184 0.385722 0)
(-0.267182 0.186 0)
(-0.200788 0.164194 0)
(-0.121288 0.152593 0)
(-0.0621263 0.234801 0)
(0.00126878 0.488217 0)
(-0.0153943 0.86891 0)
(0.0841109 0.332727 0)
(0.207791 0.239135 0)
(0.283648 0.317222 0)
(0.336953 0.464335 0)
(0.346124 0.66305 0)
(0.215534 0.93422 0)
(0.0131641 0.981698 0)
(-0.0363684 0.944432 0)
(-0.00898744 0.937643 0)
(0.0119297 0.942974 0)
(0.0220081 0.956252 0)
(0.0515427 1.10883 0)
(0.119291 2.02689 0)
(0.115483 3.20652 0)
(0.193549 2.83454 0)
(0.275848 0.818371 0)
(0.421882 0.288479 0)
(0.478254 0.296234 0)
(0.481127 0.373801 0)
(0.240832 0.642426 0)
(-0.046114 1.03465 0)
(-0.0506525 1.13371 0)
(0.00717871 1.04129 0)
(-0.166945 0.603572 0)
(-0.28595 0.133917 0)
(-0.198144 0.0828609 0)
(-0.132392 0.0798609 0)
(-0.0710381 0.147913 0)
(-0.0601715 0.525125 0)
(-0.0477121 0.770581 0)
(0.102353 0.199866 0)
(0.209654 0.152296 0)
(0.303907 0.259563 0)
(0.384645 0.433038 0)
(0.376779 0.723936 0)
(0.196851 1.07611 0)
(-0.101553 1.0781 0)
(-0.154686 0.94792 0)
(-0.110019 0.914352 0)
(-0.0706855 0.928536 0)
(-0.0530373 0.960769 0)
(-0.0485004 1.10411 0)
(-0.0096237 2.02396 0)
(-0.0102329 3.17406 0)
(0.110584 2.76879 0)
(0.275667 0.767341 0)
(0.415763 0.241407 0)
(0.462821 0.294571 0)
(0.283197 0.509413 0)
(-0.047425 0.931971 0)
(-0.165709 1.0605 0)
(-0.125376 1.061 0)
(-0.0702423 1.00728 0)
(-0.150889 0.777443 0)
(-0.26206 0.138882 0)
(-0.201251 -0.00356742 0)
(-0.126018 0.00954769 0)
(-0.0727929 0.062543 0)
(-0.0298995 0.570477 0)
(0.0214888 0.65308 0)
(0.114845 0.110727 0)
(0.219184 0.0713454 0)
(0.336094 0.184319 0)
(0.418259 0.374488 0)
(0.373402 0.696849 0)
(0.184505 1.29721 0)
(0.0179875 1.22589 0)
(-0.113878 0.864258 0)
(-0.143235 0.891632 0)
(-0.102532 0.937211 0)
(-0.0817451 1.00409 0)
(-0.206034 1.09425 0)
(-0.348507 2.00429 0)
(-0.303885 3.04455 0)
(-0.0179259 2.58433 0)
(0.288597 0.641977 0)
(0.440217 0.196435 0)
(0.32052 0.371222 0)
(-0.00381004 0.869062 0)
(-0.204124 0.997932 0)
(-0.215204 1.02649 0)
(-0.194057 1.02218 0)
(-0.154236 0.946293 0)
(-0.142631 0.793308 0)
(-0.186292 0.200001 0)
(-0.194346 -0.0571995 0)
(-0.0948985 -0.040625 0)
(-0.053006 -0.0127577 0)
(0.018143 0.533229 0)
(0.0975425 0.57305 0)
(0.133461 0.0736925 0)
(0.235457 -0.0147222 0)
(0.365793 0.0470408 0)
(0.433739 0.266927 0)
(0.314928 0.92838 0)
(0.15418 1.20057 0)
(0.177222 1.22825 0)
(0.0650953 1.11598 0)
(-0.113267 0.932545 0)
(-0.240631 0.906274 0)
(-0.374885 1.06462 0)
(-0.617705 1.4195 0)
(-0.746946 2.10858 0)
(-0.514267 2.80407 0)
(-0.0939627 2.26023 0)
(0.217786 0.42021 0)
(0.290798 0.195787 0)
(0.15609 0.762125 0)
(-0.166117 0.96976 0)
(-0.23163 1.00797 0)
(-0.254822 1.02244 0)
(-0.249029 0.975192 0)
(-0.221738 0.903021 0)
(-0.16107 0.75148 0)
(-0.0929807 0.275714 0)
(-0.0717416 -0.0998963 0)
(-0.065928 -0.0440353 0)
(-0.0373181 -0.0308912 0)
(0.0332343 0.463321 0)
(0.124078 0.526791 0)
(0.162002 0.0509672 0)
(0.230178 -0.106554 0)
(0.330698 -0.111242 0)
(0.345637 0.310594 0)
(0.24587 0.924351 0)
(0.174613 1.13324 0)
(0.167183 1.16255 0)
(0.101106 1.13593 0)
(-0.0656263 1.10057 0)
(-0.298619 1.15052 0)
(-0.520686 1.28977 0)
(-0.697938 1.53637 0)
(-0.70798 1.93554 0)
(-0.441787 2.37722 0)
(-0.0922665 2.01795 0)
(0.0918992 0.285489 0)
(0.0689908 0.21531 0)
(-0.0231122 0.94005 0)
(-0.204797 1.0322 0)
(-0.259674 1.04628 0)
(-0.29426 1.01515 0)
(-0.2978 0.949621 0)
(-0.270663 0.848003 0)
(-0.134124 0.606427 0)
(0.0512402 0.162663 0)
(0.0887202 -0.0152926 0)
(0.0205251 0.000808702 0)
(-0.00745755 -0.0594191 0)
(0.0243166 0.39233 0)
(0.106283 0.476205 0)
(0.136148 0.0353204 0)
(0.187808 -0.156666 0)
(0.18366 -0.163989 0)
(0.20424 0.28229 0)
(0.226229 0.937183 0)
(0.193595 1.12619 0)
(0.161257 1.19605 0)
(0.087599 1.20196 0)
(-0.0447177 1.2176 0)
(-0.21203 1.25373 0)
(-0.379707 1.38266 0)
(-0.494978 1.54147 0)
(-0.50476 1.8096 0)
(-0.315232 2.02944 0)
(-0.104348 1.81746 0)
(-0.0175844 0.234915 0)
(-0.0771479 0.284655 0)
(-0.146799 1.02509 0)
(-0.243589 1.08647 0)
(-0.298786 1.06553 0)
(-0.339464 1.01981 0)
(-0.333894 0.919556 0)
(-0.254106 0.766924 0)
(-0.0196537 0.372858 0)
(0.147337 0.0554581 0)
(0.172308 0.0367586 0)
(0.13285 0.0866245 0)
(0.0603728 0.0176658 0)
(0.00420256 0.339663 0)
(0.0720207 0.43101 0)
(0.0829434 0.0238639 0)
(0.0727156 -0.152838 0)
(0.0492482 -0.152929 0)
(0.0657421 0.192618 0)
(0.185282 0.884992 0)
(0.215698 1.14178 0)
(0.182776 1.22636 0)
(0.110637 1.28669 0)
(0.0138129 1.32739 0)
(-0.101714 1.39377 0)
(-0.207375 1.47948 0)
(-0.294156 1.62129 0)
(-0.312599 1.74836 0)
(-0.221389 1.90823 0)
(-0.137162 1.73302 0)
(-0.10706 0.269303 0)
(-0.191047 0.356668 0)
(-0.212318 1.09858 0)
(-0.281686 1.14081 0)
(-0.346138 1.10624 0)
(-0.382103 1.0114 0)
(-0.335062 0.87062 0)
(-0.134604 0.557614 0)
(0.103702 0.17112 0)
(0.187849 0.0111925 0)
(0.18085 0.0616375 0)
(0.117248 0.128934 0)
(0.0720588 0.138 0)
(-0.015827 0.307283 0)
(0.0539962 0.374518 0)
(0.0413326 0.0543348 0)
(-0.0112802 -0.126517 0)
(-0.0465625 -0.140158 0)
(-0.0404744 0.109753 0)
(0.112327 0.733675 0)
(0.232676 1.1246 0)
(0.214455 1.26862 0)
(0.158944 1.33747 0)
(0.0878013 1.41545 0)
(0.00720243 1.47391 0)
(-0.0717586 1.57135 0)
(-0.128893 1.65965 0)
(-0.167257 1.77455 0)
(-0.130092 1.81756 0)
(-0.133678 1.73798 0)
(-0.122118 0.365321 0)
(-0.275029 0.392676 0)
(-0.269849 1.14942 0)
(-0.322375 1.21767 0)
(-0.40053 1.12761 0)
(-0.395662 0.989194 0)
(-0.240151 0.712278 0)
(0.0255506 0.30606 0)
(0.175822 0.0688516 0)
(0.194106 0.0180842 0)
(0.154357 0.103337 0)
(0.0715962 0.176041 0)
(0.0510005 0.18744 0)
(-0.0277103 0.28258 0)
(0.0491824 0.312418 0)
(0.0161479 0.114624 0)
(-0.0605164 -0.0830161 0)
(-0.115651 -0.114929 0)
(-0.116519 0.0442944 0)
(0.0373084 0.521432 0)
(0.236923 1.07272 0)
(0.257795 1.27312 0)
(0.222235 1.38279 0)
(0.163666 1.46235 0)
(0.105156 1.54225 0)
(0.0449891 1.61445 0)
(-0.00558873 1.71493 0)
(-0.0417532 1.76463 0)
(-0.04723 1.8251 0)
(-0.0781196 1.71034 0)
(-0.130927 0.540021 0)
(-0.342502 0.467491 0)
(-0.365175 1.17485 0)
(-0.391582 1.30898 0)
(-0.457247 1.14057 0)
(-0.333351 0.874089 0)
(-0.0722207 0.458931 0)
(0.129515 0.14421 0)
(0.19055 0.0370504 0)
(0.169427 0.048757 0)
(0.111678 0.154221 0)
(0.0189907 0.216366 0)
(0.0329085 0.210772 0)
(-0.0246246 0.250866 0)
(0.0534068 0.264702 0)
(0.00249224 0.165132 0)
(-0.0731691 -0.0108139 0)
(-0.15173 -0.0785195 0)
(-0.161886 -0.00553984 0)
(-0.0361581 0.294505 0)
(0.224837 0.948681 0)
(0.325548 1.2743 0)
(0.287486 1.40433 0)
(0.242654 1.50234 0)
(0.192979 1.57938 0)
(0.143022 1.66345 0)
(0.0984644 1.7383 0)
(0.0548424 1.81564 0)
(0.0353773 1.80497 0)
(-0.00242616 1.73831 0)
(-0.149791 0.794865 0)
(-0.436645 0.590015 0)
(-0.500243 1.203 0)
(-0.485695 1.40236 0)
(-0.44517 1.06968 0)
(-0.18432 0.624071 0)
(0.0638911 0.253635 0)
(0.164934 0.0781417 0)
(0.169227 0.0458937 0)
(0.117871 0.094591 0)
(0.0607154 0.198272 0)
(-0.0179045 0.246559 0)
(0.0274421 0.184002 0)
(-0.0221904 0.196813 0)
(0.0561266 0.247694 0)
(0.00258106 0.185098 0)
(-0.0629562 0.0669955 0)
(-0.146558 -0.0345888 0)
(-0.170015 -0.0348274 0)
(-0.0933746 0.098179 0)
(0.162834 0.694738 0)
(0.374454 1.25119 0)
(0.357215 1.43073 0)
(0.316459 1.52048 0)
(0.270885 1.62033 0)
(0.229249 1.68861 0)
(0.183493 1.78858 0)
(0.135485 1.82811 0)
(0.0951428 1.85893 0)
(0.0567428 1.76149 0)
(-0.209824 1.15292 0)
(-0.54481 0.756981 0)
(-0.615967 1.20913 0)
(-0.514902 1.40645 0)
(-0.327956 0.854087 0)
(-0.040282 0.363748 0)
(0.121595 0.147732 0)
(0.149114 0.067196 0)
(0.118642 0.0762352 0)
(0.0523422 0.148867 0)
(0.0116779 0.21693 0)
(-0.0152154 0.247139 0)
(0.0430543 0.181611 0)
(-0.0320896 0.167751 0)
(0.0390301 0.219517 0)
(0.0185208 0.202417 0)
(-0.0240244 0.132461 0)
(-0.099502 0.0137079 0)
(-0.13957 -0.0401242 0)
(-0.114193 -0.00949249 0)
(0.0571901 0.394272 0)
(0.340508 1.16349 0)
(0.408594 1.43697 0)
(0.376304 1.5438 0)
(0.348392 1.63474 0)
(0.313277 1.72731 0)
(0.264737 1.81448 0)
(0.201249 1.90044 0)
(0.132345 1.89409 0)
(0.0553754 1.87179 0)
(-0.26475 1.59047 0)
(-0.539007 0.940271 0)
(-0.619299 1.13926 0)
(-0.424203 1.30322 0)
(-0.173886 0.598798 0)
(0.0363812 0.193965 0)
(0.115275 0.104923 0)
(0.107859 0.0820819 0)
(0.0616986 0.117082 0)
(0.0129309 0.182289 0)
(0.00658279 0.20437 0)
(0.0192423 0.224275 0)
(0.0313792 0.206495 0)
(-0.0213689 0.167486 0)
(-0.000607933 0.179853 0)
(0.0169244 0.177294 0)
(0.0130598 0.162889 0)
(-0.0397532 0.0646901 0)
(-0.0954689 -0.0220184 0)
(-0.109442 -0.0379471 0)
(-0.0407552 0.181265 0)
(0.205349 0.951238 0)
(0.411229 1.41362 0)
(0.43216 1.53762 0)
(0.435705 1.6426 0)
(0.409137 1.75122 0)
(0.352741 1.87055 0)
(0.275721 1.94232 0)
(0.17462 1.9997 0)
(0.0613052 1.96413 0)
(-0.200325 1.86789 0)
(-0.382178 1.12434 0)
(-0.503937 1.02981 0)
(-0.278146 1.14573 0)
(-0.0463276 0.393245 0)
(0.0646685 0.110386 0)
(0.088464 0.0933292 0)
(0.0673816 0.103778 0)
(0.0328978 0.144705 0)
(0.0236072 0.181386 0)
(0.0334712 0.204749 0)
(0.0385206 0.227153 0)
(0.0206083 0.242156 0)
(-0.0105822 0.177621 0)
(-0.0134533 0.162779 0)
(0.000442734 0.159587 0)