/*--------------------------------*- C++ -*----------------------------------*\
| =========                 |                                                 |
| \\      /  F ield         | OpenFOAM: The Open Source CFD Toolbox           |
|  \\    /   O peration     | Version:  2.3.0                                 |
|   \\  /    A nd           | Web:      www.OpenFOAM.org                      |
|    \\/     M anipulation  |                                                 |
\*---------------------------------------------------------------------------*/
FoamFile
{
    version     2.0;
    format      ascii;
    class       volScalarField;
    location    "1.07";
    object      alpha.air;
}
// * * * * * * * * * * * * * * * * * * * * * * * * * * * * * * * * * * * * * //

dimensions      [0 0 0 0 0 0 0];

internalField   nonuniform List<scalar> 
6000
(
0.605073
0.563079
0.554675
0.548626
0.548582
0.548559
0.548513
0.548559
0.549459
0.548797
0.548908
0.549024
0.549131
0.581059
0.652221
0.581524
0.531289
0.521424
0.521424
0.521424
0.521423
0.521423
0.521422
0.521422
0.521423
0.551513
0.547767
0.542902
0.542901
0.542902
0.605074
0.604917
0.600816
0.63731
0.600218
0.548514
0.548492
0.548592
0.549563
0.548689
0.549486
0.587272
0.623189
0.689976
0.708281
0.668963
0.617778
0.585798
0.573252
0.578462
0.581652
0.589779
0.600713
0.576659
0.573102
0.614929
0.614884
0.582657
0.551504
0.551963
0.557518
0.553207
0.590344
0.724365
0.727454
0.606211
0.548504
0.548519
0.548539
0.548587
0.608766
0.675035
0.707393
0.712387
0.710606
0.71145
0.68984
0.666429
0.657051
0.671981
0.680192
0.686062
0.688229
0.660484
0.633057
0.607076
0.577608
0.553416
0.562072
0.592648
0.505721
0.498211
0.590937
0.730701
0.724366
0.726825
0.618298
0.575899
0.584594
0.611459
0.681198
0.711327
0.71242
0.710967
0.713132
0.710606
0.711433
0.710243
0.710445
0.70988
0.710336
0.709576
0.710238
0.709209
0.70276
0.641208
0.558053
0.553338
0.620758
0.679299
0.484299
0.476294
0.608402
0.724455
0.730606
0.724361
0.726922
0.695501
0.654548
0.663394
0.700256
0.711952
0.711327
0.71345
0.710967
0.713064
0.710606
0.711101
0.710243
0.710571
0.709889
0.710352
0.70957
0.710035
0.709203
0.678419
0.558358
0.553416
0.6827
0.720681
0.481578
0.476328
0.659168
0.730601
0.724455
0.729724
0.724366
0.726522
0.682667
0.673326
0.700701
0.711685
0.713079
0.711327
0.713659
0.710967
0.712169
0.710606
0.71072
0.710243
0.710372
0.709883
0.710118
0.709529
0.709394
0.679972
0.558261
0.574392
0.714584
0.720965
0.48113
0.477064
0.699964
0.724538
0.730258
0.724455
0.728552
0.724366
0.697118
0.677224
0.701572
0.711998
0.711685
0.713572
0.711327
0.713282
0.710967
0.711116
0.710606
0.710559
0.710243
0.710197
0.709878
0.707193
0.688442
0.654385
0.562964
0.616165
0.719076
0.720965
0.478207
0.485816
0.709444
0.73012
0.724455
0.729392
0.724366
0.727272
0.721322
0.69212
0.706596
0.712041
0.712434
0.711685
0.713572
0.711327
0.711807
0.708046
0.697896
0.700368
0.70508
0.702337
0.689959
0.666252
0.62524
0.595903
0.56511
0.621354
0.720229
0.720888
0.472194
0.474121
0.703615
0.724455
0.729641
0.724366
0.728134
0.724267
0.725713
0.71328
0.712385
0.712215
0.712041
0.712889
0.711685
0.712569
0.711177
0.674967
0.647387
0.649679
0.655614
0.64817
0.620633
0.575896
0.534685
0.521039
0.537293
0.603162
0.716514
0.720246
0.466638
0.467178
0.695154
0.729597
0.724366
0.728689
0.724267
0.726415
0.724165
0.720749
0.709119
0.707564
0.711184
0.711685
0.712482
0.711327
0.683732
0.609716
0.576321
0.573017
0.567375
0.547392
0.514526
0.48671
0.473824
0.47235
0.485081
0.545692
0.670968
0.720047
0.466681
0.480711
0.699612
0.724365
0.72944
0.724267
0.72723
0.724165
0.724688
0.711058
0.689374
0.685175
0.702584
0.71177
0.711327
0.692221
0.611467
0.534051
0.510161
0.498476
0.485642
0.471503
0.460115
0.454231
0.452468
0.452943
0.456248
0.477354
0.567308
0.688861
0.477618
0.541389
0.717593
0.729431
0.724267
0.728278
0.724165
0.725018
0.722584
0.686685
0.644077
0.631149
0.670103
0.707314
0.692833
0.619184
0.518967
0.482544
0.470717
0.462276
0.455414
0.450661
0.448745
0.448696
0.448631
0.448642
0.448581
0.449277
0.477914
0.588739
0.489633
0.618941
0.726702
0.724267
0.728948
0.724165
0.725476
0.71989
0.697007
0.647137
0.585478
0.562456
0.605255
0.653938
0.612335
0.514419
0.470798
0.460266
0.454852
0.450904
0.448781
0.448674
0.448677
0.448566
0.448626
0.44848
0.448585
0.448412
0.448702
0.484914
0.53688
0.686528
0.724165
0.728693
0.724165
0.72572
0.709865
0.673155
0.639081
0.587935
0.527095
0.506295
0.527203
0.550824
0.50269
0.463807
0.454262
0.450683
0.448913
0.448747
0.448635
0.448675
0.448488
0.448625
0.448467
0.448585
0.448359
0.448544
0.448418
0.451044
0.615858
0.724072
0.727011
0.724165
0.725792
0.705127
0.641746
0.591251
0.553228
0.506334
0.475495
0.468669
0.471024
0.469537
0.456041
0.449676
0.448842
0.448703
0.448765
0.448494
0.448704
0.448299
0.44867
0.448342
0.448645
0.448511
0.448553
0.448392
0.448499
0.448448
0.669865
0.724568
0.724073
0.725464
0.703553
0.623913
0.542192
0.502988
0.478446
0.460185
0.452115
0.450753
0.450508
0.448949
0.448798
0.448847
0.448505
0.448794
0.448247
0.448747
0.44797
0.448695
0.447904
0.448756
0.455484
0.454857
0.453552
0.460666
0.44851
0.448498
0.67498
0.723558
0.718063
0.688921
0.610497
0.518143
0.47597
0.461255
0.453008
0.449136
0.449031
0.448898
0.448966
0.448846
0.448913
0.448762
0.44881
0.447473
0.448772
0.447528
0.448736
0.447175
0.448842
0.476005
0.498855
0.474071
0.531219
0.596382
0.461449
0.448533
0.627046
0.659215
0.62671
0.577164
0.501605
0.461448
0.452626
0.452573
0.452576
0.454113
0.451798
0.449692
0.448928
0.44899
0.45462
0.484272
0.447527
0.448791
0.447128
0.448765
0.447086
0.448873
0.485145
0.65291
0.687577
0.648125
0.739467
0.78076
0.61041
0.448978
0.528925
0.538049
0.502736
0.478445
0.457194
0.454136
0.452725
0.452754
0.454178
0.508604
0.563162
0.528715
0.463132
0.452179
0.48109
0.644098
0.587061
0.447507
0.448789
0.44711
0.448885
0.469714
0.66858
0.782558
0.784526
0.78255
0.785153
0.782562
0.767577
0.544436
0.550631
0.554866
0.572742
0.582494
0.570864
0.562181
0.565781
0.579251
0.62778
0.712731
0.758398
0.725393
0.645646
0.592434
0.667078
0.774802
0.723138
0.538187
0.447382
0.459204
0.47504
0.590642
0.762297
0.785109
0.782562
0.784465
0.782562
0.785905
0.78256
0.602788
0.714229
0.719512
0.754947
0.766869
0.757098
0.742759
0.736268
0.736609
0.76447
0.79178
0.793879
0.79178
0.777507
0.762014
0.786008
0.791781
0.741945
0.577309
0.504747
0.517184
0.52199
0.594282
0.755509
0.782562
0.784569
0.782562
0.784185
0.782562
0.783095
0.583325
0.823568
0.824156
0.824036
0.813351
0.795871
0.766886
0.732934
0.725994
0.769833
0.795692
0.791781
0.792441
0.78954
0.791615
0.791781
0.792536
0.74747
0.565123
0.508053
0.508672
0.50338
0.549532
0.707738
0.783237
0.782562
0.783172
0.782562
0.783374
0.775236
0.556634
0.8237
0.819322
0.807163
0.787337
0.76134
0.716131
0.668159
0.691345
0.790352
0.791781
0.794449
0.791781
0.789567
0.791245
0.792103
0.791781
0.750497
0.553926
0.482966
0.47986
0.480348
0.495242
0.610582
0.753213
0.77375
0.779541
0.779732
0.77785
0.704809
0.517885
0.796485
0.788285
0.768598
0.742249
0.708776
0.656538
0.613035
0.672117
0.791781
0.79612
0.791781
0.792768
0.789575
0.791172
0.791781
0.791953
0.748446
0.544595
0.468926
0.468895
0.468897
0.468912
0.509998
0.63132
0.68288
0.710186
0.717441
0.698605
0.579026
0.487278
0.756828
0.74753
0.724803
0.694871
0.652123
0.596157
0.58833
0.691575
0.796868
0.791781
0.794575
0.791781
0.789602
0.791572
0.791914
0.789664
0.733219
0.562351
0.468934
0.468911
0.468916
0.468935
0.469347
0.511374
0.572694
0.600618
0.610629
0.562369
0.487259
0.487216
0.715492
0.705217
0.680225
0.646594
0.596976
0.54579
0.587123
0.776162
0.791781
0.79581
0.791781
0.793051
0.789811
0.791834
0.791781
0.769074
0.703621
0.594498
0.504025
0.515083
0.557456
0.59981
0.622316
0.633928
0.638703
0.61426
0.595958
0.566006
0.496396
0.487268
0.674158
0.663655
0.638273
0.602037
0.554644
0.531462
0.613533
0.791781
0.796918
0.791781
0.79442
0.791777
0.791917
0.791781
0.780659
0.729694
0.685244
0.685398
0.748204
0.809088
0.827734
0.83343
0.841503
0.836369
0.81305
0.765487
0.736436
0.740646
0.738146
0.664462
0.637541
0.630568
0.608611
0.572022
0.529468
0.531846
0.711058
0.796659
0.791781
0.795065
0.791781
0.793557
0.791778
0.789337
0.751518
0.70739
0.707511
0.789018
0.865721
0.883399
0.884437
0.884438
0.888365
0.89356
0.897023
0.890693
0.885144
0.888784
0.889814
0.87798
0.611827
0.613863
0.594984
0.55832
0.519379
0.579466
0.794825
0.791781
0.795913
0.791781
0.794656
0.791774
0.792045
0.775825
0.72616
0.708869
0.770424
0.85372
0.881814
0.882447
0.878041
0.876019
0.88204
0.894714
0.906712
0.911945
0.912705
0.912318
0.908968
0.903051
0.598323
0.610067
0.588542
0.551566
0.51607
0.61719
0.791781
0.796343
0.791781
0.794894
0.79178
0.793819
0.791781
0.757362
0.720952
0.744026
0.826528
0.872882
0.880059
0.876176
0.868211
0.864339
0.870326
0.887338
0.904127
0.912043
0.912948
0.91301
0.910884
0.906414
0.591175
0.608829
0.581166
0.544745
0.516157
0.668513
0.795957
0.791781
0.795342
0.791781
0.794634
0.791781
0.791853
0.745085
0.721101
0.781512
0.851367
0.87427
0.874973
0.869144
0.860158
0.854967
0.858813
0.876956
0.899686
0.911539
0.913096
0.913172
0.912447
0.910426
0.582149
0.601719
0.569795
0.536255
0.52561
0.715916
0.791781
0.795941
0.791781
0.794703
0.791781
0.793436
0.791781
0.739605
0.733839
0.797508
0.854152
0.867318
0.866448
0.862664
0.854148
0.847588
0.848763
0.867043
0.894291
0.910129
0.913221
0.913393
0.913498
0.913515
0.569177
0.587668
0.558934
0.526105
0.542699
0.760854
0.795719
0.791781
0.795066
0.791781
0.793973
0.791781
0.791842
0.733641
0.735861
0.799598
0.84296
0.852784
0.855505
0.855071
0.848533
0.840765
0.839797
0.857128
0.887108
0.907279
0.913322
0.913387
0.913485
0.913591
0.555026
0.570847
0.551714
0.509243
0.580505
0.793521
0.791781
0.795551
0.791781
0.794152
0.791781
0.792559
0.784008
0.721883
0.723462
0.786062
0.818094
0.831767
0.841844
0.845904
0.842488
0.835334
0.832811
0.846968
0.877446
0.902046
0.912421
0.913481
0.913503
0.91359
0.542079
0.553105
0.54317
0.492376
0.630443
0.791781
0.795373
0.791781
0.794385
0.791781
0.792929
0.791781
0.75373
0.699107
0.697895
0.753504
0.783478
0.804581
0.822763
0.833114
0.834968
0.830683
0.827908
0.837021
0.865218
0.893208
0.909218
0.913411
0.91359
0.913627
0.530253
0.538652
0.527082
0.492427
0.673377
0.793923
0.791781
0.794676
0.791781
0.793053
0.791781
0.773095
0.707071
0.662283
0.664285
0.710245
0.742223
0.770051
0.795945
0.814855
0.824557
0.825931
0.824162
0.827718
0.850266
0.879821
0.901944
0.912159
0.913518
0.913654
0.519538
0.531797
0.505729
0.500818
0.712014
0.791781
0.794666
0.791781
0.793189
0.791781
0.778568
0.724129
0.654963
0.618632
0.625229
0.661314
0.694703
0.727986
0.760838
0.788827
0.809702
0.820034
0.820605
0.819836
0.83322
0.861783
0.889187
0.908094
0.913343
0.91372
0.50846
0.519917
0.483895
0.546429
0.746652
0.793874
0.791781
0.793322
0.791781
0.779438
0.729989
0.66122
0.603592
0.57681
0.584058
0.61031
0.641938
0.678591
0.717346
0.754451
0.788128
0.81096
0.816494
0.813282
0.815773
0.84002
0.870859
0.899982
0.913015
0.913388
0.502235
0.509637
0.483712
0.600695
0.76704
0.791781
0.793293
0.791781
0.780975
0.730139
0.659858
0.598242
0.558112
0.542048
0.546667
0.562668
0.58788
0.623159
0.665504
0.711164
0.758215
0.795603
0.80998
0.805986
0.799997
0.814838
0.847275
0.886417
0.910015
0.913201
0.494298
0.492703
0.483764
0.65766
0.783458
0.792789
0.791781
0.782823
0.732577
0.655558
0.588439
0.544266
0.522581
0.515416
0.517166
0.52449
0.539727
0.566729
0.606701
0.65776
0.716099
0.768896
0.796232
0.796383
0.784998
0.787563
0.818022
0.865768
0.901831
0.913201
0.482061
0.476171
0.507574
0.700194
0.791095
0.791781
0.783113
0.734923
0.653533
0.577434
0.529082
0.50648
0.49781
0.495196
0.495352
0.497895
0.5044
0.518502
0.546563
0.594096
0.657954
0.723288
0.767805
0.779343
0.766251
0.759484
0.782513
0.836234
0.885641
0.909794
0.465426
0.469614
0.56192
0.717228
0.780949
0.776748
0.733864
0.649904
0.566694
0.514265
0.492195
0.484071
0.480763
0.479438
0.479198
0.480126
0.482692
0.488135
0.500314
0.529011
0.583953
0.654692
0.715984
0.744572
0.740292
0.72844
0.739677
0.796186
0.858489
0.894608
0.460924
0.478281
0.615515
0.715435
0.745404
0.719137
0.64131
0.554175
0.501054
0.480657
0.473406
0.470143
0.468453
0.46767
0.467558
0.468137
0.469525
0.472064
0.476744
0.487176
0.514099
0.568356
0.635486
0.684364
0.698358
0.688242
0.689093
0.743749
0.816985
0.86203
0.476936
0.538176
0.639657
0.690831
0.68011
0.62177
0.538978
0.489774
0.471836
0.465392
0.462277
0.460501
0.459532
0.459169
0.459304
0.459908
0.461009
0.462731
0.465354
0.469625
0.478244
0.499648
0.543126
0.596956
0.629555
0.631128
0.628666
0.675042
0.756183
0.809163
0.59587
0.596449
0.626213
0.641408
0.593982
0.522668
0.48022
0.465235
0.459408
0.456372
0.454493
0.453363
0.452828
0.452771
0.453124
0.45384
0.454917
0.456406
0.458413
0.46112
0.46496
0.471415
0.485067
0.511789
0.5429
0.557058
0.558481
0.589837
0.670948
0.732042
0.642071
0.632494
0.605595
0.572236
0.511037
0.473452
0.460378
0.454927
0.451842
0.449789
0.448438
0.447674
0.447409
0.447561
0.44808
0.448916
0.450049
0.451485
0.453263
0.455433
0.458018
0.461081
0.465107
0.471795
0.483046
0.49372
0.498334
0.510995
0.569987
0.630945
0.641999
0.636429
0.575887
0.506176
0.470397
0.457252
0.451626
0.448325
0.446026
0.444414
0.443388
0.442871
0.442786
0.443081
0.443719
0.444655
0.445858
0.447312
0.449011
0.450945
0.453057
0.455218
0.457362
0.459731
0.462791
0.466261
0.468923
0.47249
0.494534
0.531288
0.641927
0.618949
0.527656
0.472185
0.456011
0.449383
0.445619
0.443
0.441107
0.439833
0.439092
0.438798
0.438866
0.439256
0.439954
0.440936
0.442178
0.443655
0.445342
0.447196
0.449127
0.451019
0.452848
0.45469
0.456423
0.457927
0.459907
0.463454
0.471356
0.480397
0.641857
0.566131
0.484928
0.457283
0.448233
0.443622
0.440609
0.43845
0.436954
0.436048
0.435618
0.435555
0.435779
0.436215
0.43689
0.437832
0.439035
0.440481
0.442146
0.443987
0.445907
0.447813
0.449753
0.451704
0.453129
0.45416
0.456864
0.461666
0.467416
0.4848
0.611971
0.506212
0.461861
0.448376
0.442345
0.438806
0.436433
0.434811
0.433874
0.43342
0.433274
0.43335
0.433679
0.434089
0.434639
0.435436
0.436504
0.437836
0.439411
0.441204
0.443162
0.445248
0.447591
0.449992
0.451156
0.451803
0.455757
0.462792
0.477115
0.535125
0.530903
0.466098
0.448619
0.441681
0.437597
0.435053
0.433505
0.432626
0.432409
0.432421
0.432429
0.432478
0.432707
0.43293
0.433258
0.433767
0.434588
0.435731
0.437144
0.438802
0.44072
0.443032
0.446108
0.449671
0.450725
0.450771
0.45691
0.472311
0.542358
0.594874
0.468944
0.450777
0.441697
0.436964
0.43425
0.432851
0.43238
0.432377
0.432404
0.432458
0.433047
0.434244
0.433547
0.432797
0.432782
0.432832
0.433284
0.434121
0.43532
0.436767
0.438501
0.440914
0.444944
0.450647
0.452289
0.450803
0.45784
0.528454
0.595728
0.596905
0.470629
0.44762
0.437505
0.433862
0.432554
0.432357
0.432368
0.432423
0.434061
0.439795
0.441964
0.444199
0.438464
0.433772
0.432806
0.432788
0.4328
0.433124
0.433987
0.435117
0.436524
0.438733
0.443569
0.453398
0.460105
0.451233
0.480281
0.569143
0.589963
0.584196
0.470726
0.443293
0.4341
0.432391
0.432344
0.432361
0.432429
0.436336
0.457086
0.472209
0.468266
0.462888
0.446199
0.436862
0.434753
0.434518
0.433861
0.433328
0.433439
0.434063
0.434944
0.436601
0.441536
0.455482
0.480354
0.485938
0.513614
0.549575
0.553696
0.540484
0.467623
0.438344
0.432433
0.432305
0.432355
0.432348
0.435864
0.461182
0.488459
0.488942
0.486788
0.459257
0.445293
0.443762
0.446729
0.443254
0.439645
0.435958
0.434174
0.434042
0.434053
0.434868
0.438995
0.45423
0.496543
0.550802
0.517217
0.507343
0.508839
0.499692
0.459779
0.435096
0.432269
0.432352
0.432243
0.433392
0.448052
0.488412
0.489331
0.488492
0.470637
0.447503
0.447238
0.469267
0.489526
0.463371
0.453999
0.443889
0.437397
0.434677
0.434041
0.434064
0.436436
0.449939
0.494313
0.559452
0.526539
0.494218
0.494139
0.491417
0.452344
0.434066
0.43237
0.432196
0.432402
0.437299
0.461947
0.489316
0.488497
0.487802
0.464236
0.450258
0.461478
0.580054
0.613974
0.502934
0.475196
0.459685
0.444673
0.437521
0.434553
0.434026
0.43459
0.444183
0.483989
0.559395
0.550179
0.4943
0.501934
0.491417
0.447894
0.434014
0.432214
0.432351
0.432335
0.443276
0.476959
0.488495
0.488838
0.488385
0.471592
0.467293
0.565373
0.743013
0.755082
0.562366
0.481222
0.477751
0.456042
0.442937
0.43651
0.434076
0.434078
0.439678
0.469471
0.545656
0.550031
0.51368
0.524369
0.491418
0.444672
0.434
0.432369
0.432191
0.43458
0.451097
0.486351
0.488792
0.488497
0.488508
0.483033
0.579801
0.742509
0.781077
0.778213
0.675593
0.499662
0.478357
0.467306
0.450524
0.440073
0.435016
0.434097
0.437029
0.455851
0.513507
0.550054
0.545397
0.546068
0.498142
0.441802
0.433749
0.43219
0.432416
0.438746
0.462046
0.487163
0.487287
0.486459
0.486424
0.580924
0.754946
0.780523
0.778213
0.781856
0.776684
0.575738
0.47916
0.47394
0.457924
0.44473
0.437186
0.434292
0.435796
0.447745
0.488639
0.549989
0.549988
0.549838
0.513416
0.439065
0.433351
0.432383
0.432578
0.445025
0.470945
0.486688
0.486989
0.493352
0.565201
0.753841
0.78044
0.778213
0.781171
0.778213
0.781159
0.708372
0.505533
0.472294
0.46591
0.450125
0.439771
0.435627
0.435677
0.443886
0.475541
0.543334
0.549838
0.545661
0.508097
0.436485
0.432811
0.432271
0.43709
0.451509
0.469627
0.477867
0.475577
0.57863
0.731408
0.780507
0.778213
0.780399
0.778213
0.781347
0.778213
0.779311
0.568755
0.475343
0.473534
0.454901
0.442459
0.437016
0.435972
0.442327
0.467552
0.527034
0.549295
0.524612
0.491367
0.434276
0.432766
0.433098
0.441604
0.453239
0.463961
0.471957
0.469556
0.650534
0.778999
0.778213
0.780257
0.778213
0.780277
0.778213
0.780839
0.778213
0.690419
0.501622
0.476361
0.458944
0.445252
0.438551
0.436827
0.442085
0.463501
0.512694
0.532996
0.496888
0.475806
0.432842
0.43276
0.435199
0.443385
0.45157
0.457146
0.465684
0.469135
0.657287
0.778212
0.780523
0.778213
0.779491
0.778213
0.779543
0.778213
0.780159
0.778211
0.552837
0.479368
0.463749
0.448406
0.440341
0.438018
0.442479
0.461264
0.501212
0.505458
0.47847
0.466965
0.432667
0.432748
0.436221
0.443468
0.449747
0.453031
0.458825
0.472902
0.631084
0.778667
0.778213
0.778835
0.778213
0.778579
0.778213
0.778782
0.778213
0.779096
0.648578
0.474136
0.469754
0.452189
0.44248
0.439554
0.44356
0.458819
0.490022
0.484837
0.46881
0.462252
0.432748
0.437367
0.442418
0.445778
0.451734
0.454343
0.45527
0.466815
0.563582
0.763444
0.778834
0.774097
0.766922
0.749859
0.744874
0.753468
0.775075
0.778213
0.716286
0.482104
0.469499
0.454937
0.444294
0.441139
0.445256
0.457564
0.47998
0.473259
0.463188
0.459434
0.437307
0.472346
0.466545
0.455281
0.461618
0.462859
0.458892
0.460441
0.500632
0.686546
0.757752
0.729537
0.699335
0.654822
0.642181
0.665051
0.727351
0.766667
0.715774
0.545179
0.460776
0.451048
0.443873
0.44193
0.446546
0.457875
0.471946
0.465697
0.459226
0.457706
0.45436
0.591512
0.585931
0.467219
0.472056
0.472112
0.462489
0.45989
0.471001
0.573125
0.685626
0.657212
0.600339
0.544186
0.529308
0.550147
0.632784
0.715548
0.698159
0.589281
0.455474
0.44667
0.442513
0.441938
0.446082
0.457452
0.464224
0.459864
0.456214
0.456904
0.494186
0.661685
0.715271
0.582608
0.467121
0.467085
0.461416
0.459922
0.470673
0.529967
0.608003
0.62568
0.568674
0.528115
0.512964
0.512976
0.554201
0.639341
0.64653
0.588598
0.500927
0.449791
0.442826
0.441951
0.444399
0.452981
0.457311
0.455291
0.454525
0.457109
0.518087
0.663349
0.718027
0.717599
0.577935
0.476071
0.461513
0.470977
0.547677
0.590857
0.62886
0.668306
0.619395
0.581994
0.539318
0.529219
0.562812
0.597818
0.589696
0.571261
0.57235
0.528831
0.454869
0.442793
0.442974
0.447974
0.452012
0.452485
0.454289
0.459683
0.521086
0.61301
0.714053
0.718027
0.711059
0.634168
0.577863
0.595667
0.703206
0.701883
0.704695
0.701885
0.702915
0.652699
0.605855
0.597045
0.612376
0.600473
0.565561
0.567522
0.641349
0.639464
0.515816
0.454506
0.445049
0.446049
0.449554
0.452411
0.457768
0.466057
0.517031
0.523344
0.633494
0.694611
0.711404
0.709139
0.697727
0.703902
0.701885
0.707029
0.701885
0.70592
0.701885
0.664783
0.620232
0.629252
0.62928
0.591892
0.565362
0.599319
0.669788
0.669774
0.600134
0.4905
0.454866
0.448377
0.450518
0.456517
0.469207
0.474253
0.484035
0.481972
0.514428
0.597264
0.656521
0.675059
0.693698
0.701885
0.706611
0.701885
0.706753
0.701885
0.704053
0.656664
0.602841
0.614394
0.62427
0.565611
0.565561
0.642669
0.669774
0.659367
0.618148
0.561109
0.498372
0.460253
0.457933
0.471442
0.484672
0.480611
0.463125
0.468328
0.474822
0.50256
0.562251
0.600969
0.659777
0.704959
0.701885
0.707021
0.701885
0.705263
0.701885
0.652356
0.574004
0.572346
0.595844
0.542585
0.56907
0.643054
0.636736
0.616142
0.598601
0.584969
0.560769
0.511553
0.485697
0.48992
0.489024
0.480004
0.45326
0.460561
0.467882
0.479418
0.505527
0.550649
0.637114
0.701885
0.706301
0.701885
0.705867
0.701885
0.703193
0.658786
0.561344
0.534123
0.551634
0.542455
0.601056
0.62775
0.571271
0.557797
0.560592
0.572328
0.570437
0.553583
0.51695
0.491598
0.482824
0.474587
0.447026
0.453581
0.463458
0.478892
0.504374
0.553245
0.638219
0.703849
0.701885
0.70614
0.701885
0.703879
0.701885
0.665861
0.556646
0.52377
0.519727
0.542323
0.617382
0.617827
0.53126
0.520768
0.526162
0.547246
0.557357
0.538597
0.501497
0.480036
0.471126
0.466336
0.4413
0.445788
0.455081
0.473254
0.512417
0.573326
0.643283
0.701885
0.704366
0.701885
0.704387
0.701885
0.70211
0.657518
0.56862
0.551736
0.518414
0.550571
0.616936
0.617382
0.553831
0.518085
0.513731
0.524636
0.523968
0.499791
0.476067
0.465441
0.460201
0.457792
0.43701
0.438934
0.443969
0.454916
0.484348
0.561837
0.631644
0.690054
0.701885
0.704115
0.701885
0.702274
0.688518
0.64437
0.609678
0.605407
0.512787
0.533114
0.60271
0.616298
0.590617
0.546331
0.513806
0.506017
0.488382
0.470613
0.460733
0.455717
0.452454
0.450948
0.435955
0.436002
0.436912
0.44068
0.450056
0.481504
0.541145
0.619152
0.698374
0.701885
0.702308
0.67168
0.626238
0.617532
0.616464
0.596946
0.474366
0.490734
0.552913
0.598451
0.596495
0.5743
0.520161
0.488639
0.468964
0.458788
0.453421
0.450258
0.448168
0.447353
0.435712
0.435941
0.435842
0.436228
0.437573
0.44379
0.460299
0.499837
0.604863
0.666409
0.670558
0.586532
0.543496
0.584219
0.612181
0.559685
0.460019
0.460262
0.498588
0.565653
0.58997
0.569336
0.510829
0.474097
0.459821
0.453393
0.450027
0.447799
0.447341
0.447336
0.435705
0.435447
0.435922
0.435848
0.436217
0.436803
0.439951
0.449121
0.48182
0.547735
0.583918
0.514165
0.499127
0.562548
0.603233
0.546945
0.459827
0.451841
0.468549
0.527814
0.580511
0.549356
0.488756
0.462407
0.454217
0.450897
0.449395
0.448094
0.44737
0.447373
0.435639
0.435896
0.435327
0.436202
0.438238
0.437656
0.437853
0.438699
0.443655
0.462203
0.498406
0.507292
0.498735
0.551765
0.590983
0.554392
0.463349
0.447889
0.457087
0.506841
0.570636
0.53054
0.471167
0.454815
0.451806
0.451244
0.451767
0.453507
0.456504
0.460979
0.492619
0.439395
0.440962
0.444498
0.441784
0.439144
0.438228
0.438352
0.438534
0.441634
0.463343
0.50209
0.501799
0.538009
0.577159
0.56061
0.464181
0.447312
0.451726
0.499307
0.572654
0.551318
0.474338
0.456135
0.455286
0.455636
0.457708
0.464831
0.511365
0.56844
0.503651
0.461024
0.452921
0.447789
0.441535
0.438763
0.438352
0.43847
0.438566
0.438799
0.45048
0.48954
0.504595
0.51852
0.559736
0.551347
0.462769
0.447357
0.448244
0.490231
0.57769
0.592587
0.53259
0.486981
0.48594
0.493221
0.503005
0.534831
0.608891
0.647169
0.487178
0.458137
0.446388
0.442751
0.438778
0.43854
0.438469
0.438368
0.4387
0.438621
0.442612
0.474151
0.502701
0.509545
0.544692
0.52236
0.45734
0.44681
0.44736
0.477844
0.574402
0.593298
0.593091
0.566074
0.563479
0.573167
0.583169
0.604413
0.623463
0.645019
0.470931
0.452914
0.439917
0.438965
0.438553
0.438698
0.438204
0.43869
0.438264
0.438886
0.439244
0.464903
0.506271
0.520468
0.534952
0.492304
0.452968
0.447299
0.446945
0.462189
0.541283
0.593291
0.593291
0.593285
0.589157
0.585824
0.582862
0.584372
0.580624
0.603099
0.470875
0.452346
0.439251
0.438659
0.438923
0.43825
0.438725
0.438152
0.438778
0.438291
0.439176
0.464913
0.519678
0.543452
0.525255
0.476161
0.452339
0.446499
0.447273
0.449771
0.486509
0.570492
0.581461
0.568287
0.555166
0.546761
0.536575
0.524061
0.509052
0.532164
0.475896
0.459572
0.441251
0.43923
0.438763
0.445256
0.455757
0.438972
0.438153
0.439045
0.439164
0.463967
0.524487
0.543541
0.505218
0.464325
0.452119
0.447279
0.446466
0.447308
0.456389
0.506582
0.53517
0.513883
0.497163
0.488558
0.481271
0.475005
0.470071
0.481711
0.478179
0.472164
0.46004
0.449756
0.462821
0.528403
0.554078
0.449567
0.439144
0.438361
0.439356
0.460182
0.519024
0.538145
0.475006
0.455075
0.451899
0.446549
0.44726
0.447001
0.448471
0.464675
0.484958
0.478374
0.469913
0.465504
0.462507
0.461126
0.461416
0.467573
0.478475
0.474656
0.472755
0.469932
0.486613
0.585761
0.637175
0.516451
0.443767
0.439287
0.439434
0.452867
0.504757
0.531887
0.472248
0.455181
0.455344
0.447372
0.446538
0.447278
0.447705
0.454503
0.464563
0.466762
0.465069
0.463979
0.462628
0.460852
0.460726
0.463599
0.478978
0.473887
0.472652
0.470552
0.487982
0.611122
0.648817
0.61423
0.470927
0.438849
0.439622
0.445496
0.488315
0.541536
0.54331
0.520873
0.472941
0.458908
0.449463
0.449297
0.450966
0.452826
0.454786
0.457548
0.460624
0.463611
0.464199
0.462199
0.460788
0.460745
0.482219
0.47294
0.471554
0.471036
0.517456
0.617043
0.648328
0.641081
0.551452
0.44526
0.439417
0.44098
0.473188
0.558892
0.653174
0.676775
0.611097
0.520528
0.492927
0.526486
0.532178
0.499002
0.483238
0.481451
0.484309
0.493308
0.500292
0.492454
0.516071
0.484605
0.510567
0.473847
0.472322
0.502544
0.587999
0.616375
0.63316
0.624673
0.609403
0.470115
0.440038
0.440203
0.45795
0.544893
0.688283
0.734336
0.73388
0.673499
0.648639
0.678207
0.684207
0.674448
0.674543
0.681413
0.688204
0.699046
0.706489
0.695561
0.708394
0.647614
0.556672
0.502914
0.504159
0.5773
0.632764
0.623691
0.613723
0.597861
0.610108
0.527682
0.449718
0.440464
0.444503
0.494852
0.647987
0.723917
0.734337
0.730606
0.713035
0.713239
0.722073
0.746605
0.773311
0.794686
0.806113
0.807386
0.807303
0.806061
0.786239
0.725387
0.556526
0.548917
0.552251
0.601019
0.63554
0.635442
0.619095
0.597643
0.597417
0.577708
0.490283
0.451837
0.444423
0.457062
0.555533
0.682133
0.718248
0.708934
0.69027
0.693948
0.712515
0.743122
0.770187
0.7873
0.793183
0.790736
0.779143
0.749387
0.685529
0.529192
0.556421
0.556289
0.555217
0.582107
0.621855
0.63554
0.628504
0.598118
0.597643
0.608936
0.596269
0.518405
0.456965
0.457
0.502494
0.641742
0.67975
0.676455
0.666728
0.683012
0.710287
0.73933
0.758319
0.76437
0.756932
0.734181
0.691965
0.619448
0.500091
0.443171
0.556289
0.546634
0.531682
0.532862
0.566351
0.611869
0.628713
0.614779
0.602231
0.6467
0.713358
0.698456
0.563254
0.491301
0.555111
0.630173
0.653087
0.65142
0.652065
0.679047
0.711725
0.73455
0.742807
0.734862
0.704963
0.649724
0.571434
0.478593
0.443116
0.436838
0.539262
0.511281
0.491852
0.483667
0.496675
0.537786
0.589031
0.615862
0.622696
0.688286
0.807909
0.85713
0.809738
0.739562
0.715701
0.674523
0.65277
0.643394
0.643605
0.665807
0.702446
0.722654
0.72536
0.699072
0.64112
0.555495
0.474881
0.442281
0.436879
0.43707
0.49355
0.476335
0.46775
0.464367
0.465574
0.471032
0.496684
0.549723
0.589623
0.722591
0.862554
0.898646
0.894907
0.89708
0.874867
0.80856
0.729059
0.670567
0.643399
0.644326
0.673765
0.699185
0.703038
0.656104
0.570374
0.48104
0.446843
0.436897
0.436871
0.465619
0.461959
0.457993
0.457581
0.459863
0.467933
0.470573
0.451239
0.445169
0.486678
0.670939
0.859866
0.894907
0.900304
0.894907
0.898748
0.894907
0.862164
0.78585
0.682594
0.632914
0.632412
0.65907
0.66917
0.602048
0.501913
0.453818
0.439929
0.436779
0.437066
0.468781
0.448618
0.449297
0.45272
0.459405
0.469734
0.47117
0.452867
0.440152
0.440715
0.488535
0.720742
0.871533
0.894906
0.898566
0.894907
0.89889
0.894907
0.885324
0.807128
0.671423
0.603572
0.600838
0.61213
0.534316
0.462161
0.442718
0.438902
0.439766
0.446265
0.468854
0.445214
0.446418
0.449209
0.456387
0.468927
0.470218
0.46732
0.439819
0.432835
0.440332
0.471487
0.661078
0.826161
0.893244
0.8974
0.894907
0.897154
0.894907
0.885253
0.806293
0.637706
0.548109
0.528758
0.47475
0.446697
0.438897
0.438993
0.453006
0.453486
0.451355
0.453041
0.459739
0.449269
0.453524
0.46512
0.470587
0.469754
0.445024
0.432773
0.432653
0.445219
0.458349
0.582856
0.775678
0.872903
0.895151
0.894907
0.894172
0.897673
0.897643
0.78822
0.538774
0.469194
0.452469
0.441352
0.438943
0.445009
0.464667
0.473254
0.464371
0.521246
0.584988
0.456548
0.457945
0.458074
0.469805
0.469853
0.448103
0.432377
0.432617
0.436593
0.45497
0.463036
0.545436
0.746605
0.848129
0.86592
0.871606
0.892972
0.924911
0.897591
0.598436
0.46036
0.445971
0.441388
0.44533
0.460844
0.50094
0.697418
0.54361
0.741484
0.815369
0.692486
0.538921
0.458469
0.467387
0.46774
0.447276
0.432681
0.431848
0.432693
0.445447
0.459565
0.459224
0.558774
0.722661
0.786331
0.83442
0.890141
0.932429
0.921397
0.674611
0.455398
0.444765
0.444759
0.464061
0.496879
0.661178
0.760054
0.576081
0.8126
0.855579
0.846057
0.78171
0.694801
0.56085
0.46666
0.449816
0.432083
0.432533
0.431639
0.433098
0.438843
0.443334
0.48768
0.615849
0.71219
0.815801
0.898864
0.932761
0.916154
0.710584
0.44739
0.444932
0.459815
0.520279
0.646951
0.760068
0.763495
0.580632
0.786434
0.855509
0.841488
0.83069
0.808875
0.720653
0.635293
0.495582
0.434285
0.431317
0.432518
0.431658
0.433375
0.471985
0.581832
0.642598
0.7321
0.839789
0.913393
0.928044
0.893257
0.737874
0.497162
0.469054
0.54824
0.696508
0.760069
0.763457
0.760128
0.650613
0.748644
0.836602
0.817205
0.80229
0.779662
0.751517
0.69543
0.56763
0.459791
0.432675
0.430913
0.432817
0.455246
0.673404
0.81323
0.7968
0.831264
0.890497
0.921103
0.903028
0.827023
0.727427
0.654987
0.640986
0.714661
0.760071
0.76223
0.760132
0.763457
0.728006
0.706848
0.808681
0.788436
0.765676
0.73096
0.681918
0.617646
0.552057
0.447124
0.431087
0.432854
0.449183
0.636564
0.898579
0.939711
0.92924
0.925873
0.932348
0.921783
0.85368
0.739472
0.686654
0.718674
0.746393
0.759615
0.760203
0.760071
0.761085
0.760131
0.75759
0.664774
0.767232