/*--------------------------------*- C++ -*----------------------------------*\
| =========                 |                                                 |
| \\      /  F ield         | OpenFOAM: The Open Source CFD Toolbox           |
|  \\    /   O peration     | Version:  2.3.0                                 |
|   \\  /    A nd           | Web:      www.OpenFOAM.org                      |
|    \\/     M anipulation  |                                                 |
\*---------------------------------------------------------------------------*/
FoamFile
{
    version     2.0;
    format      ascii;
    class       volScalarField;
    location    "0.188";
    object      alpha.water;
}
// * * * * * * * * * * * * * * * * * * * * * * * * * * * * * * * * * * * * * //

dimensions      [0 0 0 0 0 0 0];

internalField   nonuniform List<scalar> 
545
(
1
1
1
1
1
1
1
1
1
1
1
1
1
1
1
1
1
1
1
1
1
1
1
1
1
1
1
1
1
1
1
1
1
1
1
1
1
1
1
1
1
1
1
1
1
1
1
1
1
1
1
1
1
1
1
1
1
1
1
1
1
1
1
1
1
1
1
1
1
1
1
1
1
1
1
1
1
1
1
1
1
1
1
1
1
1
1
1
1
1
1
1
1
1
1
1
1
1
1
1
1
1
1
1
1
1
1
1
1
1
1
1
1
1
1
1
1
1
1
1
0.999999
0.999999
0.999999
0.999999
0.999999
0.999999
0.999999
0.999999
0.999999
0.999999
0.999999
0.999999
0.999999
0.999999
0.999999
0.999999
0.999999
0.999999
0.999999
0.999999
0.999999
0.999999
0.999999
0.999999
0.999999
0.999999
0.999999
0.999999
0.999999
0.999999
0.999999
0.999999
0.999999
0.999999
0.999999
0.999999
0.999999
0.999999
0.999999
0.999999
1
1
0.999986
0.999961
0.999952
0.99995
0.999947
0.999943
0.99994
0.999938
0.999936
0.999936
0.999937
0.999938
0.999938
0.999938
0.999939
0.999939
0.999938
0.999938
0.999938
0.999938
0.999938
0.999938
0.999938
0.999938
0.999938
0.999938
0.999938
0.999938
0.999938
0.999938
0.999938
0.999938
0.999938
0.999938
0.999938
0.999938
0.999938
0.999938
0.999938
0.999938
0.999938
0.999938
0.999938
1
1
0.998504
0.996333
0.99598
0.996445
0.996512
0.996108
0.99565
0.995335
0.99518
0.995156
0.99521
0.995294
0.995372
0.995424
0.995448
0.995448
0.995435
0.995417
0.995401
0.995391
0.995386
0.995385
0.995388
0.995392
0.995395
0.995397
0.995397
0.995396
0.995395
0.995394
0.995393
0.995393
0.995394
0.995394
0.995395
0.995395
0.995395
0.995393
0.995391
0.995389
0.995388
0.995388
0.995386
0.278732
0.378022
0.392086
0.394335
0.528714
0.917004
0.985175
0.625759
0.504535
0.499396
0.499389
0.499391
0.68441
0.918215
0.639219
0.576996
0.576639
0.576634
0.576661
0.901148
0.897664
0.501251
0.506262
0.536851
0.518498
0.519107
0.534466
0.889699
0.99545
0.77396
0.467851
0.471076
0.467567
0.506115
0.446453
0.466609
0.795542
0.995554
0.995603
0.950264
0.500918
0.303504
0.294483
0.294476
0.325562
1
1
1
1
1
1
1
1
1
1
1
1
1
1
1
1
1
1
1
1
1
1
1
1
1
1
1
0.998505
0.996333
0.995981
0.996445
0.996512
0.996108
0.995651
0.995333
0.995179
0.995153
0.995208
0.995291
0.995368
0.995418
0.995441
0.99544
0.995426
0.995408
0.995391
0.995379
0.995374
0.995371
0.995374
0.995376
0.99538
0.995382
0.995382
0.99538
0.995377
0.995374
0.995372
0.99537
0.995369
0.995369
0.99537
0.99537
0.995368
0.995363
0.995358
0.995351
0.995347
0.995345
0.99534
1
1
0.999986
0.999961
0.999952
0.99995
0.999946
0.999943
0.999939
0.999937
0.999936
0.999936
0.999937
0.999937
0.999938
0.999938
0.999939
0.999939
0.999938
0.999938
0.999938
0.999938
0.999938
0.999938
0.999938
0.999938
0.999938
0.999938
0.999938
0.999938
0.999938
0.999938
0.999938
0.999938
0.999938
0.999938
0.999938
0.999938
0.999938
0.999938
0.999938
0.999938
0.999938
0.999938
0.999938
1
1
1
1
1
0.999999
0.999999
0.999999
0.999999
0.999999
0.999999
0.999999
0.999999
0.999999
0.999999
0.999999
0.999999
0.999999
0.999999
0.999999
0.999999
0.999999
0.999999
0.999999
0.999999
0.999999
0.999999
0.999999
0.999999
0.999999
0.999999
0.999999
0.999999
0.999999
0.999999
0.999999
0.999999
0.999999
0.999999
0.999999
0.999999
0.999999
0.999999
0.999999
0.999999
1
1
1
1
1
1
1
1
1
1
1
1
1
1
1
1
1
1
1
1
1
1
1
1
1
1
1
1
1
1
1
1
1
1
1
1
1
1
1
1
1
1
1
1
1
1
1
1
1
1
1
1
1
1
1
1
1
1
1
1
1
1
1
1
1
1
1
1
1
1
1
1
1
1
1
1
1
1
1
1
1
1
1
1
1
1
1
1
1
1
)
;

boundaryField
{
    AirInlet
    {
        type            fixedValue;
        value           uniform 0;
    }
    WaterInlet
    {
        type            fixedValue;
        value           uniform 1;
    }
    ChannelWall
    {
        type            zeroGradient;
    }
    Outlet
    {
        type            inletOutlet;
        inletValue      uniform 0;
        value           nonuniform List<scalar> 
11
(
1
1
0.999999
0.999938
0.995386
0.325562
0.99534
0.999938
0.999999
1
1
)
;
    }
    FrontAndBack
    {
        type            empty;
    }
}


// ************************************************************************* //
