/*--------------------------------*- C++ -*----------------------------------*\
| =========                 |                                                 |
| \\      /  F ield         | OpenFOAM: The Open Source CFD Toolbox           |
|  \\    /   O peration     | Version:  2.3.0                                 |
|   \\  /    A nd           | Web:      www.OpenFOAM.org                      |
|    \\/     M anipulation  |                                                 |
\*---------------------------------------------------------------------------*/
FoamFile
{
    version     2.0;
    format      ascii;
    class       volScalarField;
    location    "1.47";
    object      p;
}
// * * * * * * * * * * * * * * * * * * * * * * * * * * * * * * * * * * * * * //

dimensions      [1 -1 -2 0 0 0 0];

internalField   nonuniform List<scalar> 
6000
(
105660
105669
105679
105690
105706
105729
105752
105769
105773
105765
105759
105754
105751
105747
105742
105736
105731
105727
105723
105719
105712
105699
105677
105657
105663
105692
105730
105763
105785
105793
105549
105554
105561
105573
105595
105623
105647
105667
105678
105679
105675
105665
105653
105649
105647
105644
105642
105637
105632
105625
105616
105601
105587
105584
105587
105602
105639
105673
105693
105701
105491
105493
105497
105504
105518
105545
105578
105602
105619
105625
105619
105602
105587
105582
105579
105577
105575
105571
105566
105560
105550
105539
105535
105536
105537
105543
105570
105612
105631
105637
105460
105461
105463
105466
105471
105482
105505
105533
105555
105562
105555
105538
105533
105530
105527
105526
105525
105525
105522
105516
105507
105498
105493
105490
105489
105492
105504
105530
105543
105549
105437
105438
105439
105441
105444
105447
105455
105471
105496
105506
105498
105490
105490
105489
105489
105490
105492
105494
105492
105485
105475
105463
105452
105443
105438
105438
105443
105459
105461
105463
105415
105416
105418
105419
105420
105422
105424
105429
105446
105455
105448
105448
105448
105450
105454
105458
105462
105464
105460
105451
105438
105424
105409
105395
105386
105381
105382
105390
105386
105385
105394
105396
105397
105398
105398
105397
105395
105396
105404
105410
105403
105404
105407
105414
105421
105427
105429
105425
105416
105403
105389
105375
105361
105345
105331
105321
105315
105315
105312
105311
105374
105376
105378
105377
105375
105370
105364
105361
105362
105365
105359
105362
105367
105378
105387
105389
105384
105372
105357
105342
105327
105314
105303
105290
105274
105258
105246
105238
105238
105239
105352
105355
105356
105354
105349
105340
105329
105323
105320
105320
105317
105319
105325
105339
105345
105338
105325
105310
105294
105278
105262
105249
105239
105227
105212
105195
105182
105169
105165
105169
105327
105328
105328
105325
105317
105303
105289
105282
105276
105274
105274
105275
105281
105289
105288
105279
105263
105247
105231
105215
105200
105188
105176
105163
105150
105135
105125
105112
105102
105107
105293
105292
105289
105284
105274
105259
105244
105237
105231
105229
105233
105232
105234
105232
105226
105216
105202
105185
105168
105153
105140
105128
105116
105104
105093
105081
105072
105065
105058
105059
105246
105243
105237
105230
105220
105208
105196
105190
105187
105188
105192
105190
105184
105174
105165
105154
105139
105122
105105
105089
105075
105065
105056
105049
105042
105034
105026
105024
105024
105025
105184
105180
105172
105165
105159
105154
105145
105141
105142
105148
105151
105145
105133
105116
105105
105093
105075
105057
105038
105020
105004
104990
104983
104985
104990
104992
104987
104986
104992
104995
105108
105104
105098
105095
105094
105096
105093
105089
105093
105103
105103
105094
105079
105060
105045
105030
105010
104989
104967
104944
104922
104903
104893
104899
104920
104943
104946
104946
104953
104952
105023
105020
105018
105020
105026
105033
105036
105032
105037
105049
105046
105036
105023
105003
104982
104963
104941
104916
104888
104857
104822
104791
104774
104786
104814
104856
104880
104883
104881
104867
104929
104929
104932
104941
104954
104967
104973
104970
104974
104985
104982
104975
104963
104943
104918
104894
104869
104838
104799
104750
104685
104628
104619
104638
104672
104711
104749
104760
104739
104737
104830
104832
104841
104857
104877
104897
104904
104904
104908
104919
104917
104910
104897
104878
104852
104824
104794
104756
104703
104627
104563
104543
104541
104545
104556
104571
104585
104590
104580
104584
104721
104728
104745
104770
104798
104825
104834
104838
104844
104852
104850
104842
104827
104808
104783
104754
104721
104677
104612
104545
104520
104515
104513
104511
104511
104513
104516
104517
104516
104515
104588
104616
104647
104680
104717
104753
104767
104774
104782
104788
104782
104773
104757
104738
104715
104689
104655
104609
104547
104511
104501
104499
104497
104495
104494
104493
104492
104493
104493
104492
104484
104512
104552
104592
104633
104676
104700
104712
104721
104720
104710
104702
104689
104671
104650
104626
104595
104550
104508
104489
104485
104483
104482
104481
104480
104479
104479
104479
104479
104479
104426
104438
104466
104502
104536
104579
104619
104640
104651
104640
104632
104628
104619
104603
104583
104563
104535
104503
104478
104469
104468
104467
104467
104466
104466
104466
104466
104466
104467
104467
104386
104386
104395
104404
104411
104438
104498
104539
104551
104543
104545
104549
104546
104533
104515
104496
104476
104459
104451
104449
104451
104452
104452
104452
104453
104453
104453
104454
104455
104456
104347
104339
104326
104307
104278
104274
104325
104383
104413
104430
104449
104466
104472
104463
104447
104434
104426
104423
104424
104429
104434
104437
104438
104439
104440
104441
104442
104442
104443
104445
104300
104288
104261
104224
104189
104175
104181
104211
104261
104307
104344
104374
104393
104389
104386
104385
104388
104393
104400
104409
104416
104421
104424
104426
104428
104429
104430
104432
104433
104434
104239
104228
104201
104163
104133
104121
104114
104113
104133
104182
104230
104273
104306
104320
104331
104342
104354
104366
104377
104388
104397
104404
104409
104413
104416
104418
104420
104421
104423
104424
104169
104161
104139
104109
104089
104081
104074
104067
104067
104091
104140
104188
104229
104255
104277
104300
104322
104341
104355
104366
104377
104386
104394
104399
104404
104407
104409
104411
104412
104414
104098
104092
104079
104061
104049
104043
104038
104034
104030
104039
104076
104124
104164
104197
104227
104259
104290
104315
104332
104345
104356
104366
104376
104383
104389
104394
104397
104399
104400
104401
104026
104025
104022
104020
104015
104008
104002
103999
103998
104000
104025
104069
104109
104144
104179
104218
104257
104289
104309
104322
104334
104345
104355
104365
104372
104378
104383
104385
104386
104386
103950
103951
103960
103978
103985
103977
103969
103965
103963
103963
103977
104015
104055
104091
104129
104172
104220
104260
104284
104298
104310
104322
104333
104343
104352
104358
104363
104366
104367
104365
103865
103867
103881
103914
103946
103943
103935
103932
103928
103926
103930
103958
103996
104033
104074
104121
104175
104224
104253
104270
104283
104296
104307
104317
104326
104332
104336
104338
104337
104334
103762
103759
103776
103810
103860
103880
103883
103885
103885
103882
103880
103891
103917
103957
104005
104060
104120
104177
104213
104234
104251
104265
104276
104285
104292
104295
104296
104296
104293
104289
103666
103668
103678
103697
103726
103762
103786
103803
103818
103824
103817
103811
103816
103860
103921
103985
104051
104115
104160
104188
104208
104225
104237
104243
104246
104245
104242
104240
104237
104235
103632
103633
103637
103643
103654
103670
103687
103704
103725
103740
103737
103719
103709
103734
103807
103893
103970
104037
104089
104126
104153
104172
104182
104186
104184
104182
104179
104178
104177
104176
103622
103623
103624
103627
103631
103637
103643
103649
103657
103664
103665
103658
103657
103664
103695
103777
103878
103950
104006
104051
104083
104103
104113
104115
104115
104115
104116
104117
104117
104117
103617
103618
103619
103621
103623
103626
103628
103630
103631
103633
103634
103636
103639
103643
103654
103694
103781
103865
103925
103975
104009
104029
104040
104045
104048
104052
104055
104057
104058
104058
103611
103612
103613
103615
103617
103619
103620
103621
103622
103622
103624
103627
103630
103634
103641
103662
103719
103793
103858
103906
103940
103961
103971
103979
103986
103992
103997
103999
104000
104000
103605
103606
103607
103608
103610
103611
103612
103613
103614
103615
103617
103618
103621
103625
103632
103647
103685
103746
103805
103849
103880
103898
103910
103919
103928
103936
103940
103943
103944
103947
103598
103599
103600
103601
103603
103604
103605
103606
103606
103607
103608
103609
103610
103613
103621
103635
103668
103715
103763
103799
103825
103841
103854
103865
103875
103882
103887
103890
103893
103898
103592
103592
103593
103594
103595
103596
103597
103598
103598
103598
103599
103599
103600
103601
103607
103622
103652
103691
103727
103755
103774
103790
103804
103815
103824
103831
103836
103842
103848
103854
103585
103585
103586
103587
103588
103588
103589
103590
103590
103590
103590
103590
103589
103589
103593
103607
103633
103665
103693
103714
103730
103745
103758
103768
103777
103784
103792
103800
103807
103809
103578
103578
103579
103579
103580
103580
103581
103582
103581
103581
103581
103580
103580
103579
103578
103591
103615
103639
103659
103676
103691
103705
103716
103725
103734
103743
103753
103760
103762
103762
103571
103571
103571
103571
103572
103572
103573
103574
103573
103573
103573
103572
103571
103570
103569
103576
103595
103613
103630
103644
103657
103669
103678
103688
103698
103706
103712
103715
103716
103714
103564
103564
103564
103564
103564
103564
103565
103565
103565
103565
103565
103565
103564
103564
103563
103566
103578
103592
103605
103618
103628
103637
103647
103656
103664
103668
103670
103670
103669
103669
103558
103557
103557
103556
103556
103556
103557
103557
103558
103558
103558
103558
103558
103559
103559
103559
103565
103575
103586
103596
103604
103611
103619
103624
103627
103628
103628
103628
103627
103627
103551
103550
103549
103549
103549
103549
103549
103549
103550
103550
103551
103551
103552
103554
103555
103555
103557
103563
103569
103576
103581
103586
103589
103591
103591
103590
103589
103589
103589
103591
103544
103543
103542
103541
103541
103541
103541
103541
103542
103543
103544
103545
103547
103549
103550
103551
103551
103551
103553
103555
103557
103559
103559
103558
103556
103555
103554
103554
103556
103558
103536
103535
103534
103533
103533
103533
103533
103533
103534
103535
103537
103538
103541
103543
103545
103544
103542
103538
103536
103534
103533
103531
103529
103527
103525
103522
103523
103524
103526
103527
103528
103527
103526
103525
103525
103525
103525
103525
103527
103528
103529
103531
103534
103536
103537
103534
103528
103522
103517
103513
103510
103506
103502
103498
103495
103495
103495
103495
103495
103495
103519
103518
103517
103516
103516
103516
103517
103517
103519
103520
103522
103524
103527
103529
103526
103520
103511
103503
103497
103491
103486
103481
103477
103474
103471
103469
103467
103465
103464
103463
103510
103509
103508
103507
103507
103508
103508
103509
103510
103512
103514
103517
103520
103519
103513
103503
103493
103484
103477
103471
103465
103459
103454
103449
103444
103440
103436
103433
103431
103430
103500
103499
103498
103498
103498
103499
103500
103501
103502
103504
103506
103509
103511
103506
103496
103485
103475
103466
103458
103451
103443
103436
103429
103422
103416
103410
103405
103401
103398
103397
103491
103489
103489
103489
103489
103490
103491
103492
103494
103496
103498
103501
103499
103490
103478
103467
103457
103448
103440
103431
103422
103413
103404
103395
103387
103379
103373
103368
103365
103364
103481
103479
103479
103480
103480
103481
103482
103484
103485
103487
103490
103492
103486
103474
103462
103451
103441
103432
103422
103412
103402
103390
103379
103368
103358
103350
103342
103336
103333
103331
103471
103469
103470
103471
103471
103472
103473
103475
103477
103480
103483
103483
103470
103455
103443
103434
103425
103416
103406
103395
103383
103370
103357
103344
103332
103321
103312
103305
103300
103297
103462
103460
103461
103462
103462
103463
103464
103466
103469
103471
103473
103468
103444
103429
103421
103415
103410
103401
103392
103379
103365
103351
103337
103322
103307
103293
103281
103272
103265
103262
103453
103452
103452
103453
103454
103454
103455
103456
103457
103456
103448
103427
103408
103399
103396
103396
103395
103389
103378
103365
103351
103335
103316
103297
103278
103261
103247
103236
103229
103225
103445
103444
103444
103444
103445
103445
103445
103444
103440
103428
103408
103391
103383
103381
103381
103385
103387
103381
103367
103353
103335
103315
103292
103269
103246
103226
103210
103198
103189
103185
103437
103436
103436
103436
103438
103437
103436
103431
103418
103400
103385
103378
103376
103374
103374
103374
103379
103376
103358
103342
103320
103295
103267
103237
103211
103190
103171
103157
103147
103142
103428
103428
103427
103428
103428
103427
103422
103411
103394
103380
103374
103372
103371
103370
103369
103368
103369
103374
103354
103333
103308
103275
103241
103208
103179
103154
103132
103114
103102
103095
103418
103418
103416
103415
103412
103407
103398
103384
103373
103368
103367
103366
103365
103364
103363
103363
103363
103367
103353
103329
103297
103259
103218
103184
103151
103119
103091
103069
103053
103045
103402
103403
103400
103394
103384
103376
103368
103362
103360
103360
103359
103359
103358
103357
103356
103356
103356
103358
103352
103326
103291
103244
103205
103164
103121
103081
103045
103017
102999
102989
103376
103380
103375
103365
103357
103352
103350
103350
103351
103352
103352
103352
103351
103350
103349
103348
103347
103346
103350
103330
103289
103241
103193
103138
103083
103033
102991
102959
102939
102930
103338
103347
103347
103343
103341
103341
103341
103343
103344
103345
103345
103345
103344
103343
103342
103340
103339
103337
103337
103338
103302
103245
103176
103103
103035
102975
102928
102892
102873
102865
103320
103324
103327
103330
103331
103333
103334
103336
103337
103337
103337
103337
103336
103335
103334
103332
103330
103328
103326
103325
103316
103245
103150
103056
102973
102904
102850
102817
102806
102799
103314
103316
103318
103321
103324
103326
103327
103328
103329
103330
103330
103329
103328
103327
103326
103324
103321
103319
103316
103313
103305
103233
103110
102992
102891
102811
102764
102746
102736
102727
103312
103312
103314
103316
103318
103319
103320
103321
103321
103322
103322
103321
103320
103319
103317
103315
103311
103308
103304
103299
103286
103192
103044
102906
102790
102710
102683
102682
102662
102651
103308
103309
103309
103310
103312
103312
103313
103314
103314
103314
103313
103313
103311
103310
103307
103304
103299
103294
103288
103280
103249
103115
102951
102801
102681
102613
102604
102614
102580
102558
103304
103304
103305
103305
103306
103306
103306
103306
103306
103305
103305
103303
103302
103300
103296
103290
103283
103275
103267
103251
103172
103014
102845
102695
102584
102527
102512
102504
102455
102401
103299
103299
103299
103299
103299
103299
103299
103298
103298
103297
103295
103294
103291
103288
103281
103272
103260
103249
103236
103193
103063
102899
102738
102601
102502
102449
102416
102369
102304
102268
103294
103293
103293
103293
103293
103292
103292
103291
103289
103288
103286
103283
103279
103272
103261
103245
103229
103214
103187
103089
102944
102788
102642
102519
102432
102377
102328
102264
102222
102211
103287
103287
103287
103286
103286
103285
103284
103283
103281
103279
103276
103271
103264
103252
103233
103210
103189
103165
103097
102973
102831
102688
102557
102448
102369
102311
102253
102204
102191
102190
103280
103280
103280
103279
103279
103278
103276
103275
103272
103269
103264
103256
103244
103225
103198
103168
103139
103087
102986
102861
102728
102598
102481
102385
102311
102252
102200
102181
102178
102180
103272
103272
103272
103272
103271
103270
103268
103266
103263
103258
103250
103238
103220
103192
103156
103118
103070
102987
102878
102758
102635
102517
102413
102327
102260
102204
102175
102170
102172
102173
103264
103264
103264
103263
103263
103261
103260
103257
103252
103245
103232
103213
103186
103148
103103
103053
102981
102887
102779
102664
102549
102442
102349
102273
102212
102171
102162
102163
102165
102166
103255
103255
103255
103254
103253
103252
103250
103246
103238
103225
103203
103174
103137
103091
103038
102974
102892
102794
102687
102577
102470
102373
102289
102221
102170
102153
102153
102155
102157
102157
103245
103245
103245
103244
103243
103241
103237
103230
103216
103191
103158
103118
103074
103024
102966
102894
102807
102708
102602
102496
102395
102306
102232
102173
102144
102140
102143
102146
102147
102148
103234
103234
103233
103232
103231
103226
103217
103202
103175
103138
103096
103051
103005
102955
102893
102817
102727
102627
102521
102418
102324
102243
102177
102136
102128
102131
102134
102136
102138
102139
103220
103220
103219
103217
103213
103202
103183
103153
103114
103072
103028
102982
102934
102883
102820
102742
102650
102548
102443
102343
102255
102183
102132
102118
102119
102122
102125
102128
102129
102130
103203
103202
103200
103195
103183
103162
103129
103089
103047
103004
102959
102912
102862
102809
102747
102670
102575
102471
102365
102270
102190
102132
102111
102109
102112
102115
102118
102120
102122
102123
103177
103175
103169
103157
103134
103101
103061
103019
102977
102934
102889
102841
102790
102736
102675
102597
102500
102393
102289
102200
102133
102106
102102
102104
102106
102109
102111
102113
102115
102116
103135
103129
103116
103093
103062
103026
102988
102947
102905
102863
102819
102772
102720
102664
102603
102524
102424
102315
102214
102136
102103
102097
102098
102100
102102
102103
102105
102107
102109
102110
103066
103055
103037
103011
102981
102949
102914
102875
102834
102792
102749
102703
102652
102596
102532
102451
102347
102237
102144
102102
102094
102094
102096
102097
102098
102099
102100
102102
102104
102105
102975
102964
102949
102927
102902
102873
102841
102805
102765
102724
102681
102636
102586
102530
102465
102379
102270
102161
102105
102092
102092
102093
102094
102094
102095
102095
102096
102098
102099
102100
102885
102878
102866
102849
102827
102800
102770
102736
102698
102658
102616
102571
102523
102468
102401
102310
102198
102117
102093
102090
102091
102092
102092
102092
102092
102092
102092
102093
102095
102096
102805
102801
102791
102776
102756
102731
102702
102669
102634
102595
102554
102510
102463
102409
102341
102250
102148
102100
102090
102090
102090
102090
102090
102090
102090
102089
102090
102090
102091
102092
102736
102731
102722
102709
102690
102666
102637
102606
102572
102535
102495
102452
102406
102354
102290
102203
102121
102093
102088
102089
102089
102089
102088
102088
102088
102087
102087
102087
102088
102089
102672
102667
102659
102645
102626
102602
102575
102545
102512
102477
102439
102398
102354
102305
102248
102173
102110
102090
102087
102087
102087
102087
102087
102086
102086
102085
102085
102085
102086
102086
102610
102606
102598
102582
102563
102539
102514
102486
102456
102424
102388
102349
102308
102265
102216
102156
102103
102087
102085
102086
102086
102085
102085
102084
102084
102084
102083
102083
102084
102084
102545
102541
102533
102519
102500
102478
102455
102430
102403
102375
102343
102308
102271
102233
102192
102143
102098
102085
102084
102084
102084
102084
102083
102083
102083
102082
102082
102082
102082
102082
102480
102474
102468
102456
102439
102420
102399
102378
102356
102331
102303
102272
102240
102207
102170
102127
102092
102083
102082
102083
102082
102082
102082
102082
102081
102081
102081
102081
102081
102081
102420
102414
102407
102396
102382
102366
102349
102332
102314
102294
102269
102241
102213
102183
102149
102112
102087
102081
102081
102081
102081
102081
102081
102080
102080
102080
102080
102080
102080
102080
102363
102361
102354
102344
102333
102321
102308
102294
102279
102261
102239
102213
102185
102157
102126
102095
102081
102079
102080
102080
102080
102080
102079
102079
102079
102079
102079
102078
102079
102078
102316
102314
102308
102301
102293
102282
102270
102258
102244
102228
102208
102184
102157
102130
102103
102083
102078
102078
102078
102078
102078
102078
102078
102078
102078
102077
102077
102077
102077
102077
102279
102274
102270
102265
102257
102247
102236
102224
102211
102195
102177
102155
102130
102105
102085
102077
102076
102076
102077
102077
102077
102077
102077
102076
102076
102076
102076
102076
102076
102076
102248
102240
102236
102231
102223
102215
102206
102195
102183
102168
102150
102129
102103
102084
102076
102075
102075
102075
102075
102075
102075
102075
102075
102075
102075
102075
102075
102075
102075
102075
102217
102212
102205
102197
102190
102182
102174
102165
102155
102143
102128
102106
102083
102075
102074
102074
102074
102074
102074
102074
102074
102074
102074
102074
102074
102074
102074
102074
102074
102074
102179
102176
102171
102163
102155
102147
102139
102131
102123
102112
102100
102086
102075
102072
102072
102073
102074
102074
102073
102073
102073
102073
102073
102073
102073
102073
102073
102073
102073
102073
102137
102134
102129
102123
102116
102109
102102
102095
102089
102083
102078
102072
102069
102069
102070
102072
102073
102073
102073
102072
102072
102072
102072
102072
102072
102072
102072
102072
102072
102072
102089
102088
102085
102080
102074
102068
102061
102055
102054
102055
102058
102059
102062
102064
102066
102069
102072
102073
102072
102071
102071
102070
102070
102070
102070
102071
102071
102071
102071
102071
102039
102039
102037
102033
102027
102021
102017
102017
102023
102030
102038
102047
102053
102057
102060
102063
102067
102071
102070
102070
102069
102069
102069
102069
102069
102069
102070
102070
102070
102070
101990
101990
101989
101986
101981
101981
101982
101985
101994
102008
102021
102032
102041
102046
102050
102055
102062
102068
102068
102068
102068
102068
102068
102068
102068
102068
102069
102069
102069
102069
101947
101947
101945
101945
101944
101946
101952
101961
101971
101984
101998
102010
102019
102028
102037
102047
102059
102066
102067
102067
102067
102067
102067
102067
102067
102068
102068
102068
102068
102068
101907
101906
101907
101908
101911
101917
101924
101934
101945
101956
101968
101980
101992
102006
102022
102039
102057
102064
102065
102066
102066
102066
102066
102066
102066
102066
102067
102067
102067
102067
101868
101868
101870
101874
101880
101887
101895
101903
101912
101922
101934
101948
101963
101981
102003
102030
102052
102060
102064
102065
102065
102065
102065
102065
102065
102065
102065
102065
102065
102066
101830
101831
101835
101840
101846
101852
101859
101866
101875
101886
101899
101915
101934
101955
101981
102012
102040
102056
102062
102064
102064
102064
102063
102064
102064
102064
102064
102064
102064
102064
101795
101796
101800
101804
101808
101813
101818
101826
101836
101848
101864
101883
101904
101928
101956
101987
102021
102047
102059
102063
102063
102062
102062
102062
102062
102062
102062
102062
102062
102062
101759
101760
101761
101763
101766
101770
101777
101785
101796
101811
101829
101850
101874
101900
101929
101963
101998
102030
102052
102060
102061
102061
102060
102060
102060
102060
102059
102059
102059
102059
101719
101720
101719
101720
101723
101727
101734
101744
101757
101773
101793
101816
101842
101870
101901
101934
101968
102005
102037
102054
102058
102058
102057
102057
102057
102057
102056
102056
102056
102056
101675
101675
101675
101676
101679
101684
101692
101703
101717
101734
101755
101779
101805
101834
101865
101899
101936
101976
102016
102044
102053
102055
102054
102053
102053
102053
102052
102052
102052
102051
101629
101629
101630
101632
101635
101641
101649
101660
101674
101692
101712
101736
101762
101792
101824
101861
101901
101944
101990
102028
102046
102050
102050
102049
102048
102048
102048
102048
102048
102045
101583
101583
101584
101586
101590
101595
101603
101614
101628
101645
101665
101688
101715
101746
101781
101819
101862
101908
101958
102006
102034
102043
102044
102043
102042
102042
102041
102041
102040
102036
101536
101536
101537
101539
101542
101547
101555
101564
101577
101594
101613
101637
101664
101696
101732
101772
101817
101865
101917
101971
102015
102032
102035
102035
102034
102033
102032
102031
102027
102020
101488
101488
101489
101490
101493
101497
101503
101511
101523
101538
101558
101581
101608
101639
101675
101716
101761
101811
101865
101923
101980
102013
102021
102022
102021
102019
102016
102011
102000
101991
101439
101439
101439
101440
101442
101444
101448
101454
101464
101479
101498
101520
101546
101577
101612
101651
101696
101746
101802
101863
101926
101977
101998
102001
101999
101993
101983
101969
101951
101945
101390
101390
101389
101389
101389
101389
101390
101393
101402
101415
101433
101455
101480
101509
101543
101581
101624
101674
101730
101790
101853
101913
101951
101961
101955
101941
101923
101901
101881
101879
101341
101340
101339
101338
101335
101332
101328
101326
101331
101346
101365
101387
101412
101440
101472
101509
101550
101596
101651
101711
101771
101828
101871
101888
101880
101863
101845
101827
101814
101811
101292
101291
101290
101287
101282
101275
101264
101252
101256
101275
101295
101317
101342
101371
101403
101438
101476
101520
101572
101629
101687
101739
101776
101795
101795
101786
101774
101765
101758
101755
101244
101244
101242
101239
101233
101223
101207
101194
101193
101206
101225
101244
101269
101299
101333
101369
101406
101448
101496
101551
101607
101654
101689
101710
101721
101719
101715
101711
101707
101704
101198
101198
101197
101195
101190
101180
101166
101159
101157
101158
101163
101172
101192
101224
101259
101297
101335
101377
101422
101474
101528
101574
101607
101632
101652
101658
101659
101657
101652
101646
101153
101153
101153
101154
101153
101151
101144
101140
101137
101129
101121
101117
101123
101148
101185
101224
101265
101306
101350
101397
101448
101494
101526
101553
101577
101592
101596
101595
101589
101582
101109
101110
101111
101115
101119
101125
101125
101125
101121
101110
101097
101089
101085
101089
101114
101153
101195
101237
101278
101321
101367
101411
101443
101469
101492
101510
101518
101521
101518
101513
101073
101072
101073
101077
101084
101092
101101
101105
101103
101093
101080
101069
101062
101058
101061
101088
101128
101170
101210
101247
101286
101325
101356
101381
101403
101419
101431
101440
101445
101445
101031
101032
101035
101041
101049
101059
101069
101073
101070
101068
101061
101049
101042
101037
101033
101040
101070
101109
101146
101178
101209
101241
101269
101293
101315
101333
101349
101362
101373
101378
100991
100994
100999
101006
101014
101022
101027
101029
101031
101033
101036
101028
101021
101017
101014
101014
101027
101056
101088
101115
101140
101164
101188
101210
101232
101253
101273
101289
101303
101309
100954
100958
100964
100969
100973
100977
100981
100986
100992
100999
101007
101005
100999
100996
100996
100996
101003
101020
101044
101067
101088
101106
101124
101142
101161
101181
101200
101216
101228
101232
100918
100920
100923
100924
100927
100932
100938
100947
100957
100968
100978
100980
100977
100976
100977
100979
100983
100994
101011
101030
101048
101061
101073
101087
101101
101115
101129
101141
101149
101150
100877
100876
100875
100877
100881
100887
100897
100909
100924
100939
100951
100955
100955
100955
100958
100961
100963
100968
100979
100992
101005
101014
101023
101034
101044
101053
101061
101068
101073
101073
100825
100824
100825
100828
100834
100843
100856
100871
100890
100909
100925
100931
100933
100935
100939
100941
100941
100941
100945
100951
100957
100962
100969
100977
100985
100992
100996
100999
101001
101002
100767
100768
100771
100777
100785
100796
100810
100829
100851
100877
100897
100907
100913
100916
100919
100919
100915
100910
100908
100908
100908
100909
100913
100917
100923
100929
100933
100934
100935
100936
100706
100709
100715
100723
100732
100744
100760
100780
100806
100838
100863
100879
100890
100895
100896
100891
100884
100875
100868
100863
100860
100858
100858
100859
100862
100867
100872
100873
100873
100873
100640
100647
100656
100666
100677
100687
100703
100725
100754
100789
100822
100845
100860
100866
100863
100855
100845
100834
100824
100817
100812
100809
100807
100807
100807
100809
100813
100814
100814
100811
100567
100581
100594
100607
100621
100633
100647
100668
100696
100731
100768
100798
100816
100823
100817
100806
100795
100784
100775
100768
100763
100761
100759
100757
100756
100755
100756
100756
100753
100750
100514
100528
100543
100555
100570
100584
100600
100619
100642
100671
100704
100735
100754
100760
100755
100746
100736
100727
100720
100714
100712
100711
100711
100710
100708
100705
100700
100695
100690
100690
100484
100491
100503
100514
100528
100544
100560
100577
100595
100616
100640
100664
100680
100686
100686
100680
100673
100666
100661
100657
100657
100660
100662
100662
100659
100653
100645
100638
100632
100631
100460
100464
100473
100482
100493
100507
100521
100535
100552
100567
100583
100597
100608
100615
100616
100614
100609
100603
100599
100597
100599
100603
100606
100605
100603
100599
100592
100586
100580
100575
100436
100440
100447
100453
100460
100472
100483
100495
100508
100520
100529
100535
100542
100546
100548
100547
100544
100539
100536
100535
100537
100539
100538
100537
100535
100532
100530
100528
100528
100522
100413
100416
100422
100425
100428
100436
100446
100454
100462
100469
100473
100475
100477
100480
100481
100480
100478
100474
100471
100469
100470
100469
100466
100461
100456
100453
100451
100453
100457
100461
100391
100392
100394
100397
100395
100397
100403
100408
100411
100413
100413
100413
100413
100414
100414
100413
100411
100408
100405
100402
100401
100397
100391
100383
100375
100368
100364
100365
100370
100375
100366
100364
100360
100362
100358
100354
100353
100354
100353
100352
100352
100351
100350
100349
100348
100347
100345
100342
100338
100334
100331
100325
100316