/*--------------------------------*- C++ -*----------------------------------*\
| =========                 |                                                 |
| \\      /  F ield         | OpenFOAM: The Open Source CFD Toolbox           |
|  \\    /   O peration     | Version:  2.3.0                                 |
|   \\  /    A nd           | Web:      www.OpenFOAM.org                      |
|    \\/     M anipulation  |                                                 |
\*---------------------------------------------------------------------------*/
FoamFile
{
    version     2.0;
    format      ascii;
    class       surfaceScalarField;
    location    "1.47";
    object      phi;
}
// * * * * * * * * * * * * * * * * * * * * * * * * * * * * * * * * * * * * * //

dimensions      [0 3 -1 0 0 0 0];

internalField   nonuniform List<scalar> 
11770
(
-8.52485e-06
5.73423e-05
-9.92015e-06
5.01842e-05
-1.20633e-05
5.09837e-05
-1.75717e-05
5.44088e-05
-2.18106e-05
5.30925e-05
-2.23354e-05
4.92472e-05
-2.01633e-05
4.63396e-05
-1.20881e-05
4.00867e-05
-3.84043e-06
3.98338e-05
-2.01431e-06
4.65122e-05
-3.19876e-06
4.96145e-05
-4.99134e-06
5.0324e-05
-6.2041e-06
4.97227e-05
-7.57883e-06
4.98818e-05
-8.31781e-06
4.92653e-05
-8.62848e-06
4.88351e-05
-7.47246e-06
4.73444e-05
-5.28005e-06
4.63104e-05
-1.68559e-06
4.49162e-05
2.91127e-06
4.39506e-05
7.47138e-06
4.4053e-05
1.10256e-05
4.51612e-05
4.84227e-06
5.51269e-05
-1.84579e-05
7.26733e-05
-2.91587e-05
5.9754e-05
-2.88634e-05
4.85585e-05
-2.26169e-05
4.24415e-05
-1.53005e-05
4.12477e-05
-6.24122e-06
3.93054e-05
4.19791e-05
-2.8718e-06
6.1641e-05
-3.75792e-06
5.22768e-05
-7.02211e-06
5.5434e-05
-1.44002e-05
6.30398e-05
-1.95393e-05
5.94868e-05
-1.75947e-05
4.8502e-05
-1.65329e-05
4.646e-05
-1.46821e-05
3.9291e-05
-1.13671e-05
3.75522e-05
-6.8066e-06
4.31049e-05
-2.39496e-06
4.64347e-05
-3.41842e-06
5.26268e-05
-1.19101e-05
5.94625e-05
-1.65994e-05
5.58069e-05
-1.72712e-05
5.11734e-05
-1.62569e-05
4.90772e-05
-1.32341e-05
4.55727e-05
-1.00791e-05
4.43987e-05
-5.9323e-06
4.19763e-05
2.74627e-08
3.91535e-05
5.86391e-06
3.93243e-05
8.28512e-06
4.37726e-05
2.56211e-06
6.20021e-05
-2.55261e-06
7.93546e-05
-1.51337e-05
7.36725e-05
-2.87873e-05
6.3321e-05
-2.3176e-05
3.78349e-05
-1.25769e-05
3.16799e-05
-6.35505e-06
3.41833e-05
3.68095e-05
-8.87671e-07
6.26427e-05
-2.58882e-06
5.40245e-05
-6.3585e-06
5.92514e-05
-1.18473e-05
6.86002e-05
-1.89028e-05
6.66214e-05
-1.9947e-05
4.96342e-05
-1.70732e-05
4.3722e-05
-1.733e-05
3.97194e-05
-1.5075e-05
3.5422e-05
-8.40156e-06
3.65439e-05
-1.4831e-06
3.96682e-05
-2.51609e-06
5.38486e-05
-1.16259e-05
6.87814e-05
-1.73576e-05
6.17201e-05
-1.85421e-05
5.24961e-05
-1.68345e-05
4.75019e-05
-1.25293e-05
4.1398e-05
-6.15008e-06
3.81465e-05
2.62319e-06
3.3315e-05
1.13383e-05
3.05257e-05
1.79011e-05
3.28311e-05
1.61163e-05
4.5622e-05
1.1281e-05
6.69228e-05
1.31017e-05
7.76241e-05
4.08573e-06
8.27582e-05
-1.46471e-05
8.2114e-05
-1.46068e-05
3.78326e-05
-7.73153e-06
2.4834e-05
-4.11158e-06
3.06152e-05
3.27992e-05
1.19107e-06
6.14339e-05
-2.90858e-06
5.80971e-05
-5.83958e-06
6.2155e-05
-6.36769e-06
6.91074e-05
-1.09576e-05
7.11981e-05
-1.561e-05
5.42953e-05
-1.71185e-05
4.52783e-05
-1.8767e-05
4.14493e-05
-1.55914e-05
3.23008e-05
-1.12552e-05
3.2247e-05
-6.19303e-06
3.4659e-05
-1.58132e-05
6.3516e-05
-1.70709e-05
7.00824e-05
-1.87952e-05
6.34743e-05
-2.05032e-05
5.4236e-05
-1.80374e-05
4.50825e-05
-1.24712e-05
3.58818e-05
-2.2875e-06
2.80045e-05
1.00861e-05
2.09693e-05
2.05912e-05
2.00422e-05
2.6149e-05
2.72962e-05
2.42935e-05
4.75068e-05
2.51307e-05
6.61211e-05
2.39544e-05
7.8837e-05
1.85054e-05
8.824e-05
6.00254e-06
9.46477e-05
-7.98492e-06
5.18311e-05
-6.13265e-06
2.29899e-05
-3.68056e-06
2.818e-05
2.91416e-05
-6.79323e-07
6.20809e-05
-3.92746e-06
6.13144e-05
-4.86896e-06
6.30623e-05
-3.37752e-06
6.75783e-05
-4.46693e-06
7.22536e-05
-8.66489e-06
5.84762e-05
-1.55721e-05
5.22012e-05
-2.18067e-05
4.77285e-05
-1.76941e-05
2.82096e-05
-1.55804e-05
3.01452e-05
-1.7751e-05
3.68344e-05
-2.79454e-05
7.37122e-05
-2.72696e-05
6.94095e-05
-2.63296e-05
6.25469e-05
-2.43217e-05
5.22525e-05
-1.98807e-05
4.06663e-05
-1.26778e-05
2.86897e-05
-1.17591e-06
1.65032e-05
1.06772e-05
9.11143e-06
2.10554e-05
9.66023e-06
2.9942e-05
1.84117e-05
3.70356e-05
4.04268e-05
3.71215e-05
6.60609e-05
3.39963e-05
8.1995e-05
2.77578e-05
9.45151e-05
1.79259e-05
0.000104519
-1.77342e-06
7.1551e-05
-2.95464e-06
2.41759e-05
-2.23301e-06
2.74686e-05
2.69194e-05
-2.60965e-06
6.46668e-05
-3.31168e-06
6.19955e-05
-2.79161e-06
6.25192e-05
-1.74102e-06
6.65016e-05
7.079e-07
6.97813e-05
1.12006e-07
5.90535e-05
-7.88004e-06
6.01877e-05
-2.00812e-05
5.99544e-05
-1.91235e-05
2.72545e-05
-1.97051e-05
3.07229e-05
-2.96858e-05
4.68094e-05
-3.32805e-05
7.73086e-05
-3.38461e-05
6.99829e-05
-3.17698e-05
6.04841e-05
-2.69806e-05
4.74767e-05
-1.90431e-05
3.27284e-05
-8.41408e-06
1.80522e-05
1.97067e-06
6.10693e-06
9.64926e-06
1.42146e-06
1.6445e-05
2.85586e-06
2.49902e-05
9.86277e-06
3.71325e-05
2.82906e-05
4.50872e-05
5.81254e-05
4.36738e-05
8.34375e-05
3.76034e-05
0.000100622
2.73307e-05
0.000114836
5.89142e-06
9.30249e-05
1.72519e-07
2.98979e-05
-1.21165e-06
2.88597e-05
2.57124e-05
-2.6876e-06
6.73353e-05
3.62269e-07
5.89267e-05
4.41519e-06
5.84472e-05
7.32092e-06
6.35776e-05
1.15895e-05
6.54958e-05
1.15903e-05
5.90329e-05
2.8513e-06
6.89016e-05
-9.42283e-06
7.22336e-05
-1.57312e-05
3.35542e-05
-1.96738e-05
3.46559e-05
-3.42609e-05
6.13927e-05
-3.75218e-05
8.05771e-05
-3.91845e-05
7.16564e-05
-3.46219e-05
5.59297e-05
-2.34842e-05
3.63375e-05
-1.17185e-05
2.09526e-05
-1.68518e-06
8.00638e-06
4.8522e-06
-4.43449e-07
8.96408e-06
-2.70218e-06
1.25204e-05
-7.09686e-07
1.73361e-05
5.04199e-06
2.64869e-05
1.91431e-05
4.06152e-05
4.40138e-05
4.91898e-05
7.48941e-05
4.7559e-05
0.000102296
3.99125e-05
0.000122537
1.83459e-05
0.000114644
1.6161e-06
4.66412e-05
-1.01347e-06
3.14942e-05
2.46985e-05
-4.30822e-06
7.16261e-05
1.29119e-06
5.33087e-05
8.43326e-06
5.12866e-05
1.53237e-05
5.66696e-05
2.13201e-05
5.9483e-05
2.10467e-05
5.9285e-05
1.0101e-05
7.98238e-05
-1.03532e-06
8.33639e-05
-1.45568e-05
4.70751e-05
-2.05443e-05
4.06331e-05
-3.55764e-05
7.64266e-05
-4.00214e-05
8.50309e-05
-4.38635e-05
7.55108e-05
-3.15244e-05
4.35922e-05
-1.38138e-05
1.8618e-05
-3.17044e-06
1.0297e-05
3.08408e-06
1.73873e-06
6.22848e-06
-3.60108e-06
8.6718e-06
-5.15788e-06
1.11799e-05
-3.22799e-06
1.37649e-05
2.45049e-06
1.83853e-05
1.45232e-05
2.94738e-05
3.29369e-05
4.45582e-05
5.98375e-05
5.39733e-05
9.29264e-05
5.30164e-05
0.000123555
3.44528e-05
0.00013327
7.63971e-06
7.34787e-05
6.59795e-07
3.8479e-05
2.53537e-05
-1.25306e-06
7.28643e-05
4.33496e-06
4.77032e-05
1.16196e-05
4.39844e-05
1.97059e-05
4.85671e-05
2.63964e-05
5.27778e-05
2.68813e-05
5.87814e-05
1.60469e-05
9.06511e-05
3.99629e-06
9.54126e-05
-1.46104e-05
6.56978e-05
-2.2544e-05
4.85577e-05
-3.41561e-05
8.8044e-05
-3.90811e-05
8.9964e-05
-3.87713e-05
7.52117e-05
-2.12118e-05
2.60284e-05
-8.39522e-06
5.78855e-06
-1.25379e-07
2.01309e-06
3.80062e-06
-2.20167e-06
6.11489e-06
-5.92999e-06
8.18774e-06
-7.24468e-06
1.0248e-05
-5.30036e-06
1.20985e-05
5.91085e-07
1.50655e-05
1.15528e-05
2.1946e-05
2.60616e-05
3.44405e-05
4.73614e-05
4.95295e-05
7.7874e-05
5.6716e-05
0.000116424
5.18811e-05
0.000138155
2.41914e-05
0.000101195
5.15677e-06
5.75182e-05
3.05016e-05
4.26653e-06
6.85861e-05
8.13825e-06
4.38157e-05
1.30126e-05
3.90944e-05
1.9042e-05
4.25235e-05
2.47169e-05
4.70902e-05
2.65753e-05
5.69083e-05
1.72757e-05
9.99602e-05
6.69155e-06
0.000106007
-1.28107e-05
8.52281e-05
-2.49454e-05
6.06854e-05
-2.97084e-05
9.28126e-05
-3.2943e-05
9.32062e-05
-2.46172e-05
6.68913e-05
-1.27324e-05
1.4134e-05
-7.4093e-06
4.50299e-07
-1.46643e-06
-3.9461e-06
2.82799e-06
-6.51282e-06
5.47505e-06
-8.59381e-06
7.33549e-06
-9.12126e-06
8.75122e-06
-6.7308e-06
1.0033e-05
-7.02915e-07
1.25857e-05
8.99203e-06
1.74158e-05
2.12295e-05
2.59299e-05
3.88544e-05
3.89512e-05
6.48724e-05
4.74993e-05
0.000107911
5.50899e-05
0.000130597
3.93683e-05
0.000116935
1.49657e-05
8.19228e-05
4.54551e-05
8.18061e-06
6.03967e-05
1.13641e-05
4.06181e-05
1.36491e-05
3.67952e-05
1.62366e-05
3.99235e-05
1.93184e-05
4.39972e-05
2.17458e-05
5.44706e-05
1.46475e-05
0.000107078
6.36257e-06
0.000114327
-1.05769e-05
0.000102207
-2.49234e-05
7.5029e-05
-2.25399e-05
9.04329e-05
-2.07146e-05
9.13882e-05
-1.21546e-05
5.83318e-05
-8.45198e-06
1.04178e-05
-5.50923e-06
-2.50982e-06
-1.78203e-06
-7.69184e-06
1.8266e-06
-1.01404e-05
4.55248e-06
-1.13386e-05
6.19521e-06
-1.07824e-05
6.94016e-06
-7.49305e-06
7.27569e-06
-1.0537e-06
8.24491e-06
8.01065e-06
1.06622e-05
1.88039e-05
1.6085e-05
3.34283e-05
2.72315e-05
5.37293e-05
3.53793e-05
9.97784e-05
4.13657e-05
0.000124629
3.81231e-05
0.000120186
1.70481e-05
0.000102993
6.24885e-05
9.33728e-06
5.10518e-05
1.26973e-05
3.72448e-05
1.34517e-05
3.60276e-05
1.37025e-05
3.96608e-05
1.41402e-05
4.35487e-05
1.57315e-05
5.28705e-05
1.00341e-05
0.000112797
1.56775e-06
0.000122842
-1.1659e-05
0.000115482
-2.17233e-05
8.5094e-05
-1.53643e-05
8.40767e-05
-7.35032e-06
8.33818e-05
-2.8261e-06
5.3805e-05
-5.36514e-06
1.29416e-05
-3.33623e-06
-4.55818e-06
-8.12935e-07
-1.02356e-05
1.69099e-06
-1.26652e-05
3.78368e-06
-1.3452e-05
4.95217e-06
-1.19712e-05
5.05426e-06
-7.61435e-06
4.25583e-06
-2.72546e-07
2.90152e-06
9.35038e-06
1.44496e-06
2.02489e-05
2.18001e-06
3.26844e-05
8.43873e-06
4.7464e-05
1.79535e-05
9.02644e-05
1.85953e-05
0.000123992
1.55469e-05
0.000123234
6.14863e-06
0.000112379
6.86228e-05
9.03938e-06
4.20035e-05
1.17459e-05
3.4525e-05
1.15898e-05
3.61707e-05
1.06481e-05
4.05909e-05
9.05188e-06
4.51343e-05
8.71854e-06
5.31955e-05
4.3463e-06
0.000117189
-5.9895e-06
0.000133228
-1.69181e-05
0.00012646
-1.94445e-05
8.76228e-05
-1.13861e-05
7.60197e-05
-9.99647e-07
7.30006e-05
2.69186e-06
5.01084e-05
-3.1458e-06
1.87633e-05
-1.70811e-06
-6.01712e-06
3.72551e-07
-1.23387e-05
2.03666e-06
-1.43516e-05
3.32581e-06
-1.47632e-05
3.82277e-06
-1.24897e-05
3.07268e-06
-6.88445e-06
7.39677e-07
2.04266e-06
-3.072e-06
1.31477e-05
-8.0558e-06
2.52217e-05
-1.22606e-05
3.68811e-05
-1.43219e-05
4.9519e-05
-6.47737e-06
8.2418e-05
-7.39926e-06
0.000124917
-1.39475e-05
0.000129785
-7.45199e-06
0.00010588
6.11677e-05
7.67893e-06
3.43129e-05
9.04573e-06
3.31442e-05
8.29639e-06
3.69072e-05
6.63895e-06
4.2237e-05
3.97202e-06
4.77912e-05
1.30661e-06
5.58537e-05
3.57553e-07
0.000118158
-1.21208e-05
0.000145748
-2.22456e-05
0.000136629
-1.99641e-05
8.53449e-05
-1.22671e-05
6.83225e-05
-2.49167e-06
6.32249e-05
3.30476e-06
4.43039e-05
-6.67781e-07
2.27196e-05
-1.10238e-06
-5.60477e-06
6.46096e-07
-1.41111e-05
2.29396e-06
-1.60233e-05
3.60241e-06
-1.60952e-05
4.10064e-06
-1.30107e-05
2.83098e-06
-5.63593e-06
-1.14411e-06
5.99996e-06
-8.25976e-06
2.02505e-05
-1.73739e-05
3.43303e-05
-2.51434e-05
4.46511e-05
-3.17643e-05
5.61446e-05
-2.78824e-05
7.855e-05
-2.2405e-05
0.000119465
-2.34771e-05
0.000130883
-9.76774e-06
9.21946e-05
5.14104e-05
4.89627e-06
2.94018e-05
5.13108e-06
3.28946e-05
3.76782e-06
3.82577e-05
1.59541e-06
4.43989e-05
-1.25974e-06
5.06376e-05
-5.25925e-06
5.98474e-05
-2.36836e-06
0.000115288
-1.50805e-05
0.0001585
-2.44716e-05
0.000146061
-2.17143e-05
8.25904e-05
-1.63543e-05
6.29591e-05
-8.53389e-06
5.5399e-05
-8.64984e-07
3.66238e-05
4.89387e-07
2.13496e-05
-1.81195e-06
-3.32567e-06
-1.03682e-07
-1.58442e-05
2.23307e-06
-1.83852e-05
4.42729e-06
-1.83142e-05
5.77945e-06
-1.43866e-05
5.01532e-06
-4.89278e-06
-8.00114e-07
1.18014e-05
-1.19445e-05
3.13901e-05
-2.6801e-05
4.91936e-05
-3.55559e-05
5.34213e-05
-4.25383e-05
6.31512e-05
-4.17123e-05
7.77638e-05
-2.70426e-05
0.00010486
-1.16242e-05
0.000115537
-9.78436e-07
8.16007e-05
5.04542e-05
1.39971e-06
2.79851e-05
4.03822e-07
3.3875e-05
-2.03065e-06
4.06801e-05
-4.74091e-06
4.71001e-05
-7.24666e-06
5.31363e-05
-1.02749e-05
6.28717e-05
-7.42684e-06
0.000112463
-1.59827e-05
0.0001671
-2.28168e-05
0.000152934
-2.21906e-05
8.19652e-05
-1.91064e-05
5.98682e-05
-1.34973e-05
4.97812e-05
-6.80775e-06
2.99212e-05
-1.17793e-06
1.57037e-05
-1.93477e-06
-2.59015e-06
-6.7815e-07
-1.71255e-05
2.41733e-06
-2.15067e-05
5.94048e-06
-2.18627e-05
9.58217e-06
-1.8052e-05
1.21325e-05
-7.46197e-06
5.79626e-06
1.81266e-05
-1.64939e-05
5.36913e-05
-3.57248e-05
6.84382e-05
-4.23085e-05
6.00192e-05
-4.3557e-05
6.4426e-05
-4.08902e-05
7.5145e-05
-2.50809e-05
8.91291e-05
-3.11612e-06
9.36653e-05
-1.3553e-06
7.99027e-05
4.91217e-05
-1.86423e-06
2.98329e-05
-4.86196e-06
3.68574e-05
-9.27422e-06
4.50812e-05
-1.24769e-05
5.02958e-05
-1.41505e-05
5.4805e-05
-1.53462e-05
6.40652e-05
-1.56468e-05
0.000112786
-1.84606e-05
0.000169961
-2.13678e-05
0.00015588
-2.11123e-05
8.17097e-05
-1.93545e-05
5.81021e-05
-1.53671e-05
4.5783e-05
-1.17756e-05
2.63156e-05
-6.32705e-06
1.0238e-05
-3.58562e-06
-5.35283e-06
-1.72798e-06
-1.90076e-05
2.1732e-06
-2.54336e-05
7.54829e-06
-2.72631e-05
1.44622e-05
-2.49882e-05
1.99357e-05
-1.29529e-05
1.17874e-05
2.62727e-05
-7.48245e-06
7.29607e-05
-2.3545e-05
8.45024e-05
-3.57515e-05
7.22257e-05
-3.73632e-05
6.6047e-05
-2.99009e-05
6.77051e-05
-1.48486e-05
7.41166e-05
1.01505e-06
7.78509e-05
-9.78874e-07
8.19342e-05
4.8155e-05
-6.18416e-06
3.60049e-05
-1.24203e-05
4.30809e-05
-1.81433e-05
5.07958e-05
-2.12034e-05
5.33517e-05
-2.20464e-05
5.56459e-05
-2.21773e-05
6.41956e-05
-2.48837e-05
0.000115515
-2.4059e-05
0.000169183
-2.13239e-05
0.000153181
-1.90123e-05
7.93984e-05
-1.75571e-05
5.66394e-05
-1.47173e-05
4.29319e-05
-1.27842e-05
2.43674e-05
-9.60607e-06
7.0416e-06
-6.60158e-06
-8.37882e-06
-3.88089e-06
-2.17521e-05
7.07108e-07
-3.00466e-05
7.47394e-06
-3.40544e-05
1.89018e-05
-3.64386e-05
2.66215e-05
-2.06858e-05
1.16379e-05
4.12445e-05
9.97374e-07
8.35884e-05
-2.8386e-06
8.83265e-05
-1.24072e-05
8.17808e-05
-1.81503e-05
7.17773e-05
-1.64821e-05
6.60282e-05
-8.93008e-06
6.65613e-05
-1.12013e-06
7.004e-05
3.25481e-06
7.75564e-05
5.13989e-05
-1.79895e-05
5.40037e-05
-2.55011e-05
5.05901e-05
-2.78977e-05
5.31898e-05
-2.83239e-05
5.37768e-05
-2.88154e-05
5.61383e-05
-3.01495e-05
6.55321e-05
-3.29979e-05
0.000118386
-2.90467e-05
0.000165277
-1.85755e-05
0.000142744
-1.42848e-05
7.51088e-05
-1.38602e-05
5.62089e-05
-1.24602e-05
4.15222e-05
-1.12784e-05
2.3171e-05
-9.87918e-06
5.62421e-06
-8.36101e-06
-9.91801e-06
-6.28869e-06
-2.38472e-05
-2.5711e-06
-3.37886e-05
3.23065e-06
-3.98806e-05
1.13936e-05
-4.46203e-05
7.90197e-06
-1.72127e-05
-5.04708e-07
4.96338e-05
-2.86761e-06
8.59349e-05
-1.56724e-06
8.70094e-05
-1.33114e-06
8.15268e-05
-3.70509e-06
7.41328e-05
-6.85895e-06
6.91626e-05
-7.70616e-06
6.7389e-05
-4.96715e-06
6.72815e-05
5.36974e-06
6.72002e-05
5.67462e-05
-3.01622e-05
8.41635e-05
-3.33986e-05
5.38317e-05
-2.96999e-05
4.94959e-05
-2.93695e-05
5.34508e-05
-3.18306e-05
5.86055e-05
-3.73286e-05
7.10415e-05
-3.99806e-05
0.000121069
-3.13144e-05
0.000156654
-1.43908e-05
0.000125852
-1.11031e-05
7.18248e-05
-1.16318e-05
5.67342e-05
-1.10985e-05
4.09805e-05
-1.02747e-05
2.23336e-05
-9.78875e-06
5.1213e-06
-9.657e-06
-1.00698e-05
-8.65122e-06
-2.48766e-05
-6.48666e-06
-3.59788e-05
-2.94633e-06
-4.34463e-05
-4.74503e-06
-4.28436e-05
-1.0063e-05
-1.19163e-05
-1.23023e-05
5.18542e-05
-1.04965e-05
8.41123e-05
-8.27551e-06
8.47707e-05
-6.72354e-06
7.99558e-05
-7.1043e-06
7.44928e-05
-8.0086e-06
7.00447e-05
-7.41111e-06
6.67683e-05
-4.92797e-06
6.47747e-05
-4.11493e-07
6.26597e-05
5.63098e-05
-2.06058e-05
0.000104781
-2.82012e-05
6.14235e-05
-2.53215e-05
4.66129e-05
-2.57561e-05
5.38892e-05
-3.08502e-05
6.37123e-05
-4.2545e-05
8.27676e-05
-4.4995e-05
0.000123572
-2.92696e-05
0.00014098
-1.1945e-05
0.00010856
-1.2213e-05
7.20984e-05
-1.31377e-05
5.76568e-05
-1.23774e-05
4.0212e-05
-1.11989e-05
2.1142e-05
-1.06452e-05
4.55118e-06
-1.10008e-05
-9.7353e-06
-1.13157e-05
-2.4588e-05
-1.2005e-05
-3.53179e-05
-1.43751e-05
-4.11016e-05
-1.86942e-05
-3.85481e-05
-2.5717e-05
-4.91715e-06
-2.42393e-05
5.03568e-05
-1.92757e-05
7.91308e-05
-1.61304e-05
8.16066e-05
-1.38631e-05
7.76684e-05
-1.22364e-05
7.28447e-05
-1.11793e-05
6.8965e-05
-9.65499e-06
6.52205e-05
-7.55724e-06
6.26528e-05
-5.32979e-06
6.04076e-05
5.09545e-05
6.38534e-06
9.84064e-05
-7.80937e-06
7.56192e-05
-1.31125e-05
5.1904e-05
-1.37695e-05
5.45368e-05
-2.30558e-05
7.3009e-05
-4.43969e-05
0.000104173
-4.60633e-05
0.000125329
-2.76162e-05
0.000122603
-1.47151e-05
9.56931e-05
-1.61769e-05
7.35677e-05
-1.66771e-05
5.8155e-05
-1.54935e-05
3.90189e-05
-1.33964e-05
1.90306e-05
-1.19117e-05
3.04838e-06
-1.2729e-05
-8.94079e-06
-1.67114e-05
-2.06307e-05
-2.00675e-05
-3.19893e-05
-2.5105e-05
-3.60899e-05
-3.26532e-05
-3.10251e-05
-3.99273e-05
2.33289e-06
-3.66766e-05
4.70858e-05
-2.82995e-05
7.07345e-05
-2.31412e-05
7.64283e-05
-2.01367e-05
7.46429e-05
-1.78976e-05
7.05834e-05
-1.5541e-05
6.65853e-05
-1.31619e-05
6.28174e-05
-1.07341e-05
6.02003e-05
-8.85953e-06
5.85079e-05
4.20688e-05
2.26254e-05
7.57928e-05
2.75741e-05
7.06817e-05
1.9362e-05
6.01183e-05
1.36164e-05
6.02812e-05
-1.71197e-06
8.8358e-05
-3.78838e-05
0.000140432
-4.29323e-05
0.00013049
-2.99818e-05
0.000109734
-2.21461e-05
8.78931e-05
-2.16853e-05
7.31158e-05
-2.14631e-05
5.79293e-05
-1.99323e-05
3.74764e-05
-1.7652e-05
1.67331e-05
-1.55344e-05
9.10465e-07
-1.92405e-05
-5.25818e-06
-2.48875e-05
-1.50116e-05
-2.95337e-05
-2.73716e-05
-3.51921e-05
-3.04586e-05
-4.54839e-05
-2.07591e-05
-5.2522e-05
9.34782e-06
-4.83128e-05
4.28565e-05
-3.8914e-05
6.13156e-05
-3.07632e-05
6.82564e-05
-2.64315e-05
7.02891e-05
-2.29164e-05
6.70452e-05
-1.94589e-05
6.31037e-05
-1.64547e-05
5.97883e-05
-1.36545e-05
5.73746e-05
-1.04437e-05
5.52712e-05
3.15981e-05
1.95454e-05
5.62575e-05
3.72211e-05
5.30199e-05
4.6002e-05
5.13574e-05
4.81007e-05
5.82073e-05
2.87148e-05
0.00010779
-7.25921e-06
0.000176492
-2.90948e-05
0.000152424
-3.28292e-05
0.000113548
-2.8347e-05
8.34483e-05
-2.61415e-05
7.09183e-05
-2.58832e-05
5.76642e-05
-2.51059e-05
3.66856e-05
-2.26988e-05
1.4307e-05
-2.58397e-05
4.02753e-06
-3.28409e-05
1.71534e-06
-3.56671e-05
-1.22138e-05
-3.88697e-05
-2.41983e-05
-4.56259e-05
-2.37305e-05
-5.57898e-05
-1.06207e-05
-6.1721e-05
1.52574e-05
-5.79163e-05
3.90325e-05
-4.8982e-05
5.23616e-05
-4.07413e-05
5.99945e-05
-3.42324e-05
6.37574e-05
-2.89738e-05
6.17624e-05
-2.42891e-05
5.8394e-05
-2.02816e-05
5.57551e-05
-1.67275e-05
5.37943e-05
-1.20953e-05
5.06124e-05
1.94752e-05
1.24364e-05
4.38276e-05
2.5537e-05
3.99268e-05
3.70169e-05
3.98918e-05
4.67643e-05
4.84834e-05
3.87016e-05
0.0001159
2.85904e-05
0.000186672
5.09889e-06
0.000175989
-1.99156e-05
0.00013863
-2.89757e-05
9.25507e-05
-2.90779e-05
7.10372e-05
-3.09633e-05
5.95338e-05
-3.25111e-05
3.82108e-05
-3.42282e-05
1.6e-05
-4.39135e-05
1.36844e-05
-4.65681e-05
4.34404e-06
-4.73088e-05
-1.15007e-05
-4.93192e-05
-2.22159e-05
-5.40418e-05
-1.90348e-05
-6.14035e-05
-3.28302e-06
-6.63564e-05
2.01901e-05
-6.46904e-05
3.73485e-05
-5.80677e-05
4.57203e-05
-5.0488e-05
5.23943e-05
-4.24015e-05
5.56485e-05
-3.45417e-05
5.38784e-05
-2.82805e-05
5.21073e-05
-2.21306e-05
4.95789e-05
-1.65967e-05
4.82338e-05
-1.12632e-05
4.52522e-05
8.18467e-06
8.97191e-06
3.48594e-05
1.56655e-05
3.3236e-05
2.15374e-05
3.40256e-05
2.87947e-05
4.12384e-05
2.74842e-05
0.000117247
3.12733e-05
0.000182937
2.96072e-05
0.000177712
6.42703e-06
0.000161869
-2.80389e-05
0.000127064
-4.2618e-05
8.56412e-05
-4.86131e-05
6.55248e-05
-5.10012e-05
4.05843e-05
-5.62247e-05
2.12024e-05
-6.09369e-05
1.83783e-05
-5.99727e-05
3.3606e-06
-5.88911e-05
-1.26053e-05
-5.92817e-05
-2.18497e-05
-6.09182e-05
-1.74225e-05
-6.48993e-05
6.75671e-07
-6.83572e-05
2.36289e-05
-6.77438e-05
3.6718e-05
-6.34915e-05
4.14506e-05
-5.60597e-05
4.49435e-05
-4.74156e-05
4.69832e-05
-3.86572e-05
4.50967e-05
-2.99795e-05
4.34049e-05
-2.11846e-05
4.07582e-05
-1.26537e-05
3.96767e-05
-7.54003e-06
4.01124e-05
6.18126e-07
6.58647e-06
2.82747e-05
9.37444e-06
3.04493e-05
1.03569e-05
3.30453e-05
1.28702e-05
3.87295e-05
1.68602e-05
0.000113278
2.26682e-05
0.000177164
2.24641e-05
0.000177957
1.42021e-05
0.000170168
-2.00286e-05
0.000161342
-5.59067e-05
0.000121552
-6.30084e-05
7.26293e-05
-6.49267e-05
4.24983e-05
-6.89639e-05
2.5237e-05
-6.91813e-05
1.85891e-05
-6.77269e-05
1.89341e-06
-6.55617e-05
-1.4788e-05
-6.44857e-05
-2.29457e-05
-6.39548e-05
-1.79747e-05
-6.56313e-05
2.33118e-06
-6.80091e-05
2.59883e-05
-6.73688e-05
3.60612e-05
-6.3206e-05
3.72713e-05
-5.61565e-05
3.78762e-05
-4.71712e-05
3.79782e-05
-3.85748e-05
3.64786e-05
-2.86699e-05
3.34767e-05
-1.84229e-05
3.04867e-05
-8.55685e-06
2.97856e-05
-2.23824e-06
3.37689e-05
-1.64505e-06
3.06171e-06
2.52148e-05
2.85718e-06
3.06564e-05
3.85553e-07
3.55196e-05
-1.95812e-06
4.10754e-05
1.21791e-05
9.91501e-05
1.88596e-05
0.000170486
1.78265e-05
0.000178995
9.16101e-06
0.000178832
-1.09012e-05
0.000181408
-5.14272e-05
0.000162101
-6.37784e-05
8.49876e-05
-6.76489e-05
4.63639e-05
-7.17163e-05
2.93034e-05
-7.11552e-05
1.80257e-05
-6.80851e-05
-1.18481e-06
-6.63679e-05
-1.65181e-05
-6.52603e-05
-2.40692e-05
-6.42339e-05
-1.90194e-05
-6.42619e-05
2.33993e-06
-6.47433e-05
2.64522e-05
-6.26134e-05
3.3915e-05
-5.75158e-05
3.21571e-05
-5.11061e-05
3.14493e-05
-4.28717e-05
2.97251e-05
-3.33274e-05
2.69139e-05
-2.31464e-05
2.32738e-05
-1.35685e-05
2.0886e-05
-4.70945e-06
2.09035e-05
3.23238e-06
2.58044e-05
1.56456e-06
-1.25721e-06
2.64776e-05
-4.79044e-06
3.41974e-05
-1.03142e-05
4.10523e-05
-1.75072e-05
4.82781e-05
-4.18318e-07
8.2074e-05
1.52332e-05
0.000154847
1.26312e-05
0.000181611
8.47033e-06
0.000183
-6.39917e-06
0.00019628
-3.78584e-05
0.00019359
-5.98935e-05
0.000107037
-6.61463e-05
5.26139e-05
-6.8118e-05
3.12759e-05
-6.62482e-05
1.61553e-05
-6.33023e-05
-4.137e-06
-6.19826e-05
-1.7848e-05
-6.18438e-05
-2.42204e-05
-6.13324e-05
-1.95464e-05
-6.08662e-05
1.85667e-06
-5.92943e-05
2.48642e-05
-5.52175e-05
2.98222e-05
-4.975e-05
2.66729e-05
-4.30062e-05
2.46882e-05
-3.42519e-05
2.09523e-05
-2.44324e-05
1.70749e-05
-1.54095e-05
1.42305e-05
-7.76211e-06
1.3218e-05
-1.03792e-06
1.4159e-05
5.70869e-06
1.90386e-05
7.25353e-06
-5.24906e-06
3.1738e-05
-1.24924e-05
4.14579e-05
-2.04733e-05
4.90544e-05
-2.90277e-05
5.68586e-05
-2.14311e-05
7.45165e-05
-7.03931e-06
0.000140541
-3.933e-06
0.000178595
2.47146e-06
0.000176676
-7.96441e-07
0.000199609
-1.95838e-05
0.00021245
-4.56341e-05
0.000133122
-5.53089e-05
6.22947e-05
-5.90551e-05
3.50268e-05
-5.79397e-05
1.50412e-05
-5.72423e-05
-4.83931e-06
-5.69607e-05
-1.81378e-05
-5.71039e-05
-2.40872e-05
-5.66128e-05
-2.00503e-05
-5.58959e-05
1.12547e-06
-5.28027e-05
2.17574e-05
-4.66801e-05
2.36847e-05
-4.01214e-05
2.00977e-05
-3.1839e-05
1.6388e-05
-2.27677e-05
1.18625e-05
-1.40927e-05
8.38087e-06
-6.86129e-06
6.98032e-06
-1.95029e-06
8.28917e-06
1.76602e-06
1.0426e-05
5.18637e-06
1.56035e-05
1.24241e-05
-8.74307e-06
4.04945e-05
-1.9794e-05
5.25316e-05
-2.78978e-05
5.71854e-05
-3.6325e-05
6.53245e-05
-3.79773e-05
7.62311e-05
-3.42084e-05
0.000136911
-2.8965e-05
0.000173508
-1.79671e-05
0.000165818
-6.32347e-06
0.000188115
-5.69394e-06
0.000211981
-2.54215e-05
0.000152938
-3.89891e-05
7.58864e-05
-4.4508e-05
4.05577e-05
-4.69599e-05
1.74982e-05
-4.94043e-05
-2.39707e-06
-5.13568e-05
-1.61904e-05
-5.2742e-05
-2.27087e-05
-5.27268e-05
-2.0075e-05
-5.05467e-05
-1.0654e-06
-4.53966e-05
1.65968e-05
-3.75549e-05
1.58298e-05
-2.92893e-05
1.18161e-05
-2.00633e-05
7.14436e-06
-1.17139e-05
3.49492e-06
-5.23427e-06
1.88374e-06
-1.15961e-06
2.88953e-06
1.00289e-06
6.11219e-06
2.40717e-06
9.00857e-06
2.91686e-06
1.50826e-05
1.53286e-05
-1.77926e-05
5.83192e-05
-2.90102e-05
6.37847e-05
-3.40097e-05
6.22137e-05
-3.79758e-05
6.93258e-05
-5.00641e-05
8.83824e-05
-5.33958e-05
0.000140379
-4.75704e-05
0.000167849
-4.27515e-05
0.000161159
-2.49781e-05
0.000170535
-1.94422e-06
0.000189162
-2.93484e-06
0.000154067
-1.59223e-05
8.89267e-05
-3.10997e-05
5.57617e-05
-4.02967e-05
2.67086e-05
-4.56762e-05
2.98702e-06
-4.82874e-05
-1.35796e-05
-4.93351e-05
-2.16635e-05
-4.88138e-05
-2.06017e-05
-4.50361e-05
-4.84885e-06
-3.82403e-05
9.79425e-06
-2.94454e-05
7.02349e-06
-1.96524e-05
2.00815e-06
-1.07399e-05
-1.78463e-06
-4.42966e-06
-2.83157e-06
-8.04435e-07
-1.75625e-06
8.71319e-07
1.20059e-06
1.21543e-06
5.75638e-06
1.29818e-06
8.91516e-06
8.22537e-07
1.55492e-05
1.61414e-05
-1.46369e-05
7.2976e-05
-2.70045e-05
7.61739e-05
-3.63339e-05
7.15646e-05
-4.53534e-05
7.83717e-05
-6.07448e-05
0.000103819
-6.08396e-05
0.000140559
-5.44227e-05
0.000161547
-5.42451e-05
0.000161107
-4.00199e-05
0.000156455
-8.59054e-06
0.000157909
7.51939e-06
0.000138097
1.33062e-06
9.51765e-05
-1.79086e-05
7.50364e-05
-3.86908e-05
4.75162e-05
-4.73822e-05
1.16905e-05
-4.87248e-05
-1.22294e-05
-4.7903e-05
-2.24836e-05
-4.62665e-05
-2.22395e-05
-4.14454e-05
-9.67079e-06
-3.19697e-05
3.15139e-07
-2.1557e-05
-3.39924e-06
-1.20176e-05
-7.54494e-06
-5.40047e-06
-8.41617e-06
-1.75859e-06
-6.48684e-06
-2.21239e-07
-3.30592e-06
2.05524e-08
9.4757e-07
-4.03434e-07
6.1705e-06
-7.1351e-07
9.21615e-06
-3.62303e-07
1.51898e-05
1.57707e-05
-2.04396e-05
9.34278e-05
-3.3374e-05
8.91214e-05
-4.8337e-05
8.65438e-05
-6.18523e-05
9.19061e-05
-6.8643e-05
0.000110635
-6.44769e-05
0.000136431
-5.54777e-05
0.000152599
-4.97443e-05
0.000155435
-3.81103e-05
0.000144896
-1.48897e-05
0.000134779
6.30665e-07
0.000122656
-8.11424e-06
0.000103968
-3.19318e-05
9.88848e-05
-5.14676e-05
6.70795e-05
-5.49503e-05
1.51971e-05
-5.21911e-05
-1.49755e-05
-4.75433e-05
-2.7123e-05
-4.389e-05
-2.58907e-05
-3.82647e-05
-1.52948e-05
-2.61369e-05
-1.18163e-05
-1.51241e-05
-1.44224e-05
-8.42989e-06
-1.42519e-05
-4.77829e-06
-1.20806e-05
-2.86699e-06
-8.41007e-06
-2.17015e-06
-4.01383e-06
-2.30085e-06
1.06826e-06
-1.92588e-06
5.78683e-06
-1.56376e-06
8.84569e-06
-6.11092e-07
1.42292e-05
1.51521e-05
-2.41893e-05
0.00011763
-3.68268e-05
0.000101772
-4.77243e-05
9.74553e-05
-5.69695e-05
0.000101167
-5.83374e-05
0.00011202
-5.30168e-05
0.000131132
-4.5449e-05
0.000145056
-3.8213e-05
0.000148227
-3.32707e-05
0.000139987
-2.84802e-05
0.000130026
-3.06567e-05
0.00012487
-4.87106e-05
0.000122052
-6.62346e-05
0.000116434
-7.9051e-05
7.99184e-05
-7.6333e-05
1.25024e-05
-5.75795e-05
-3.37102e-05
-4.67572e-05
-3.79347e-05
-4.07999e-05
-3.18423e-05
-3.1271e-05
-2.48244e-05
-1.96594e-05
-2.34348e-05
-1.27892e-05
-2.13041e-05
-8.6226e-06
-1.84314e-05
-6.0082e-06
-1.47074e-05
-4.88883e-06
-9.54086e-06
-4.61071e-06
-4.30237e-06
-4.03435e-06
4.82606e-07
-2.48256e-06
4.22658e-06
-1.51971e-06
7.87474e-06
-6.41878e-07
1.33435e-05
1.45034e-05
-2.5145e-05
0.00014279
-3.6186e-05
0.000112827
-4.16516e-05
0.000102935
-4.67691e-05
0.000106299
-4.7443e-05
0.00011271
-4.39392e-05
0.000127646
-3.88755e-05
0.000140011
-3.45265e-05
0.000143899
-3.5014e-05
0.000140495
-4.18991e-05
0.000136933
-5.37066e-05
0.0001367
-6.7392e-05
0.00013576
-7.85525e-05
0.000127617
-7.94295e-05
8.08154e-05
-6.79557e-05
1.04496e-06
-5.44789e-05
-4.71737e-05
-4.27044e-05
-4.97019e-05
-3.38067e-05
-4.07368e-05
-2.37759e-05
-3.486e-05
-1.68791e-05
-3.03418e-05
-1.2284e-05
-2.5912e-05
-8.82358e-06
-2.1905e-05
-7.21383e-06
-1.63294e-05
-6.83835e-06
-9.92723e-06
-5.91282e-06
-5.23774e-06
-4.16565e-06
-1.27369e-06
-2.53796e-06
2.58976e-06
-1.54808e-06
6.87645e-06
-7.50727e-07
1.25384e-05
1.37459e-05
-2.27653e-05
0.000165573
-3.21069e-05
0.000122184
-3.40566e-05
0.0001049
-3.70446e-05
0.000109303
-3.85209e-05
0.000114203
-3.77522e-05
0.000126894
-3.55888e-05
0.000137866
-3.40383e-05
0.000142367
-3.5701e-05
0.000142177
-4.20377e-05
0.000143289
-5.05735e-05
0.000145257
-6.04552e-05
0.000145664
-6.83005e-05
0.000135486
-6.15358e-05
7.40717e-05
-4.42391e-05
-1.62393e-05
-3.72473e-05
-5.41579e-05
-3.18179e-05
-5.51286e-05
-2.49341e-05
-4.76229e-05
-1.91055e-05
-4.06968e-05
-1.47553e-05
-3.47038e-05
-1.09295e-05
-2.9751e-05
-8.52947e-06
-2.43179e-05
-8.05161e-06
-1.68187e-05
-7.03874e-06
-1.09505e-05
-5.3037e-06
-6.98258e-06
-3.72136e-06
-2.86565e-06
-2.65382e-06
1.51258e-06
-2.02735e-06
6.24115e-06
-1.17309e-06
1.1676e-05
1.25653e-05
-1.73204e-05
0.000182912
-2.61211e-05
0.000131001
-2.68356e-05
0.00010563
-2.89633e-05
0.000111446
-3.13547e-05
0.000116611
-3.21065e-05
0.000127664
-3.10186e-05
0.000136797
-2.99272e-05
0.000141295
-3.11885e-05
0.000143458
-3.46604e-05
0.000146782
-3.90442e-05
0.000149662
-4.3608e-05
0.000150251
-4.62248e-05
0.000138126
-3.80504e-05
6.59176e-05
-2.29892e-05
-3.12909e-05
-2.10998e-05
-5.60428e-05
-2.0695e-05
-5.55342e-05
-1.79274e-05
-5.03964e-05
-1.47681e-05
-4.38657e-05
-1.14423e-05
-3.80417e-05
-8.54951e-06
-3.26568e-05
-7.89535e-06
-2.4984e-05
-7.37342e-06
-1.73514e-05
-5.75544e-06
-1.25788e-05
-4.42386e-06
-8.32445e-06
-3.55404e-06
-3.74568e-06
-3.13213e-06
1.08064e-06
-2.94567e-06
6.04531e-06
-1.66179e-06
1.03832e-05
1.0895e-05
-1.14554e-05
0.000194388
-1.92773e-05
0.00013884
-1.99996e-05
0.000106368
-2.19203e-05
0.000113383
-2.49734e-05
0.000119681
-2.65169e-05
0.000129225
-2.49659e-05
0.000135264
-2.23664e-05
0.000138714
-2.29478e-05
0.00014406
-2.38501e-05
0.000147706
-2.43726e-05
0.000150207
-2.41504e-05
0.000150051
-2.28047e-05
0.000136804
-1.94802e-05
6.26114e-05
-1.22306e-05
-3.85335e-05
-1.21166e-05
-5.61539e-05
-1.22647e-05
-5.53869e-05
-1.16885e-05
-5.09789e-05
-9.74421e-06
-4.58195e-05
-7.34824e-06
-4.04493e-05
-6.95315e-06
-3.30634e-05
-7.13796e-06
-2.48101e-05
-6.00965e-06
-1.849e-05
-4.7535e-06
-1.38455e-05
-4.04424e-06
-9.04441e-06
-3.92151e-06
-3.879e-06
-4.02993e-06
1.17874e-06
-3.51265e-06
5.51831e-06
-1.31224e-06
8.17332e-06
9.57383e-06
-6.81226e-06
0.000201221
-1.20109e-05
0.000144056
-1.3247e-05
0.000107619
-1.60164e-05
0.000116169
-1.93744e-05
0.000123056
-2.1276e-05
0.000131144
-1.90979e-05
0.000133104
-1.44102e-05
0.000134045
-1.45679e-05
0.000144237
-1.33807e-05
0.000146539
-1.07817e-05
0.000147629
-6.56694e-06
0.000145858
-2.3301e-06
0.000132588
-4.70426e-06
6.50021e-05
-6.70523e-06
-3.65265e-05
-6.87723e-06
-5.598e-05
-6.83514e-06
-5.54309e-05
-6.06392e-06
-5.17557e-05
-4.84281e-06
-4.70493e-05
-4.90294e-06
-4.03993e-05
-5.88349e-06
-3.20933e-05
-5.86217e-06
-2.48418e-05
-4.87994e-06
-1.94828e-05
-4.39595e-06
-1.43403e-05
-4.53862e-06
-8.91259e-06
-4.83418e-06
-3.5942e-06
-4.00457e-06
3.38648e-07
-1.86969e-06
3.37347e-06
3.20516e-08
6.2625e-06