/*--------------------------------*- C++ -*----------------------------------*\
| =========                 |                                                 |
| \\      /  F ield         | OpenFOAM: The Open Source CFD Toolbox           |
|  \\    /   O peration     | Version:  2.3.0                                 |
|   \\  /    A nd           | Web:      www.OpenFOAM.org                      |
|    \\/     M anipulation  |                                                 |
\*---------------------------------------------------------------------------*/
FoamFile
{
    version     2.0;
    format      ascii;
    class       volScalarField;
    location    "0.95";
    object      p_rgh;
}
// * * * * * * * * * * * * * * * * * * * * * * * * * * * * * * * * * * * * * //

dimensions      [1 -1 -2 0 0 0 0];

internalField   nonuniform List<scalar> 
2268
(
996.321
989.508
981.107
970.832
959.624
947.914
936.107
924.511
913.298
902.443
891.69
880.625
868.853
856.286
842.441
828.748
815.55
803.108
790.757
776.743
760.079
747.355
742.457
997.955
991.297
983.052
972.949
961.823
950.049
938.065
926.207
914.642
903.311
891.944
880.141
867.65
854.237
840.204
825.251
810.027
795.708
782.339
768.889
754.638
743.658
741.242
999.766
992.95
984.881
975.043
964.041
952.259
940.173
928.146
916.327
904.607
892.665
880.099
866.591
851.967
836.455
820.18
803.531
787.511
772.958
759.861
748.427
741.166
739.281
1001.79
994.369
986.192
976.513
965.576
953.786
941.656
929.564
917.643
905.735
893.46
880.364
866.065
850.345
833.396
815.391
796.803
779.264
764.451
752.704
743.927
738.775
736.771
1003.81
995.604
987.018
977.321
966.351
954.524
942.388
930.34
918.501
906.667
894.378
881.057
866.212
849.521
831.186
811.408
790.704
771.564
756.617
746.243
739.94
736.819
734.002
1005.64
996.641
987.464
977.597
966.499
954.596
942.475
930.568
918.993
907.505
895.528
882.272
867.06
849.411
829.559
807.64
784.156
762.911
747.802
738.936
735.347
734.986
731.153
1007.15
997.442
987.593
977.436
966.129
954.108
942.018
930.344
919.218
908.356
897.017
884.072
868.61
849.871
828.096
803.369
776.235
752.251
736.999
729.968
729.571
732.11
728.428
1008.28
998.01
987.453
976.889
965.318
953.154
941.116
929.756
919.246
909.273
898.866
886.353
870.627
850.323
825.94
798.108
767.111
739.672
723.78
718.773
722.37
726.606
721.264
950.829
913.526
844.751
727.619
641.736
626.742
655.871
652.125
604.432
562.659
537.782
517.241
498.788
480.683
461.87
442.43
422.672
403.175
397.467
958.358
923.525
851.797
715.608
616.382
591.269
613.841
611.697
577.047
551.947
537.335
517.984
496.292
474.802
452.85
431.965
413.335
397.272
397.794
977.311
926.394
835.685
689.978
581.791
547.616
570.303
574.023
546.789
532.387
528.377
519.273
498.241
472.716
444.944
423.375
406.91
394.115
396.484
991.195
914.129
801.547
648.612
499.172
469.443
524.482
517.692
477.562
511.622
525.078
515.809
494.61
469.147
444.53
422.756
407.782
396.628
384.657
990.27
892.777
762.868
575.098
436.35
439.302
507.418
459.498
408.509
413.072
516.128
512.168
492.109
465.856
439.255
411.587
391.602
378.898
380.658
972.094
867.779
713.946
465.169
414.155
491.08
499.324
471.784
393.89
345.806
380.678
494.858
487.362
441.449
346.204
246.616
211.59
222.949
273.986
937.167
843.699
650.132
314.39
344.13
465.773
484.959
498.781
482.497
330.177
254.358
304.829
309.974
232.119
162.961
135.543
123.48
112.693
109.825
887.538
823.484
587.483
301.057
297.278
292.929
342.812
496.071
494.698
352.58
234.166
191.797
162.783
150.556
142.63
132.959
121.044
110.924
109.19
1009.5
998.556
986.869
975.463
963.392
950.942
938.949
928.104
918.716
910.526
902.137
890.517
874.232
850.649
822.645
788.815
712.939
640.043
614.381
615.92
625.949
673.038
695.786
1010.54
998.502
985.523
972.675
959.32
945.808
933.176
922.64
915.069
910.793
907.947
901.962
884.567
855.312
777.553
585.806
392.555
303.774
249.889
216.644
233.119
560.021
753.553
1012.33
998.984
983.898
967.412
949.871
928.039
889.853
855.108
825.908
810.524
806.97
803.395
757.185
551.65
313.506
256.186
268.756
188.806
132.729
133.552
145.548
641.667
867
1012.03
949.14
847.439
714.343
563.091
426.766
333.012
266.173
222.615
199.621
184.692
168.566
166.953
190.389
206.566
233.643
294.491
148.405
127.414
121.228
134.053
677.754
985.841
466.206
321.887
180.565
77.2793
23.7354
5.75572
2.72919
2.21629
2.29198
3.83029
9.34351
23.1411
138.274
272.418
296.573
305.456
309.045
264.214
119.894
111.614
100.393
374.544
1055.63
6.01408
2.35714
2.17376
1.55042
1.1295
0.872618
0.741195
0.727895
0.868913
1.40579
2.76536
5.88119
29.8622
158.803
277.395
296.413
304.51
302.826
179.51
101.611
90.5671
87.8542
701.088
0.712962
0.446081
0.43222
0.37184
0.364347
0.397764
0.435218
0.485579
0.574001
0.73184
1.18768
3.17928
4.45606
5.00295
45.7666
221.691
296.5
297.177
288.678
103.638
84.3858
76.3781
93.8361
0.261126
0.205748
0.20901
0.218191
0.252034
0.295431
0.331974
0.361638
0.387834
0.411217
0.402632
0.279973
0.0134295
0.448397
1.30943
16.1267
185.312
286.934
282.851
268.026
77.554
72.8874
71.2188
0.174641
0.162174
0.170632
0.185809
0.20978
0.234482
0.252425
0.257896
0.243019
0.194291
0.0830724
-0.107778
-0.265659
-0.311258
-0.199112
0.287731
3.58864
151.783
273.788
267.467
264.286
95.4807
69.9493
0.151383
0.147419
0.151557
0.160509
0.173416
0.184852
0.189068
0.179256
0.145975
0.0770417
-0.0390007
-0.19388
-0.338604
-0.444415
-0.5286
-0.572461
-0.319114
0.760059
98.4189
260.996
255.238
254.555
186.301
0.13533
0.133874
0.135391
0.138978
0.143647
0.145616
0.14025
0.121616
0.0820304
0.0128443
-0.0912484
-0.223471
-0.354572
-0.465517
-0.558657
-0.621728
-0.639955
-0.568189
-0.491078
9.17978
211.888
258.238
261.996
0.119764
0.118638
0.119279
0.119291
0.118296
0.113661
0.102006
0.0787454
0.0381665
-0.0253945
-0.115012
-0.226103
-0.342727
-0.450232
-0.542249
-0.613074
-0.658949
-0.676543
-0.670935
-0.663173
-1.27062
17.3574
230.476
0.103372
0.102585
0.102288
0.10038
0.0960163
0.0873978
0.0721135
0.0469144
0.00787612
-0.0486788
-0.124534
-0.21695
-0.317302
-0.415579
-0.504301
-0.576984
-0.631361
-0.66944
-0.686659
-0.682625
-0.641936
-0.702097
-1.19749
0.0866745
0.0865129
0.0858925
0.0829871
0.076898
0.0662594
0.0493244
0.0239224
-0.0124588
-0.0620919
-0.125988
-0.202526
-0.286902
-0.372824
-0.454274
-0.525562
-0.583359
-0.628484
-0.661855
-0.680159
-0.666608
-0.649151
-0.632666
0.0709721
0.0714452
0.0708708
0.0676428
0.0609036
0.0495805
0.0323804
0.00787939
-0.0254163
-0.0687771
-0.12269
-0.186129
-0.256278
-0.329243
-0.400852
-0.466883
-0.524004
-0.571149
-0.608858
-0.637535
-0.653763
-0.661928
-0.662625
0.056804
0.0578174
0.0574914
0.0543633
0.0476251
0.0364405
0.0198689
-0.00301503
-0.0330539
-0.0708703
-0.116574
-0.169403
-0.227581
-0.288613
-0.349697
-0.407904
-0.460557
-0.505849
-0.542952
-0.571711
-0.592702
-0.605398
-0.610998
0.0442552
0.0457099
0.045739
0.0429477
0.0365695
0.0259755
0.0105245
-0.0103573
-0.0371129
-0.0699939
-0.108889
-0.153146
-0.201522
-0.25232
-0.303599
-0.353307
-0.39943
-0.440251
-0.474482
-0.501295
-0.520197
-0.531288
-0.534966
0.0332959
0.0351008
0.0355141
0.0331617
0.0273177
0.0175348
0.00342159
-0.015335
-0.0389283
-0.0674027
-0.100549
-0.137799
-0.178202
-0.220512
-0.263311
-0.305095
-0.344339
-0.379604
-0.409631
-0.433366
-0.449943
-0.459203
-0.460974
0.023853
0.0259429
0.0267136
0.0248058
0.0195565
0.0106783
-0.00203197
-0.0186993
-0.0393554
-0.0639266
-0.09217
-0.123601
-0.157466
-0.192795
-0.228496
-0.263411
-0.29635
-0.326137
-0.351678
-0.371993
-0.386227
-0.393899
-0.394552
0.0158621
0.0181888
0.0192564
0.0177421
0.0130802
0.0051281
-0.00618841
-0.0208745
-0.0388609
-0.060005
-0.084056
-0.110603
-0.139043
-0.168603
-0.198413
-0.227551
-0.255056
-0.279965
-0.301347
-0.318346
-0.330181
-0.336308
-0.336113
0.00925807
0.011768
0.0130588
0.0118712
0.00775948
0.000709213
-0.00926505
-0.022104
-0.0376882
-0.0558385
-0.0763058
-0.0987359
-0.122639
-0.147398
-0.172311
-0.196626
-0.219557
-0.240303
-0.258076
-0.27213
-0.281771
-0.286485
-0.285627
0.00391775
0.00654308
0.00798901
0.00707635
0.00347727
-0.00271791
-0.0114296
-0.0225677
-0.0359989
-0.051537
-0.0689411
-0.0878991
-0.108006
-0.128761
-0.149596
-0.169893
-0.189004
-0.206258
-0.220989
-0.23255
-0.240336
-0.243893
-0.24262
-0.000358895
0.00230624
0.00385351
0.00318814
7.71325e-05
-0.00531385
-0.0128576
-0.0224493
-0.0339596
-0.0472152
-0.0619951
-0.0780229
-0.0949551
-0.11238
-0.129829
-0.146795
-0.162741
-0.177107
-0.189328
-0.19885
-0.205151
-0.207846
-0.206413
-0.00381013
-0.00117641
0.000431095
-6.80431e-07
-0.00263958
-0.00727616
-0.0137529
-0.0219566
-0.0317659
-0.0430276
-0.0555486
-0.0690888
-0.0833555
-0.0980041
-0.112646
-0.126859
-0.140199
-0.152201
-0.162387
-0.170281
-0.175434
-0.177533
-0.17614
-0.00665226
-0.00410608
-0.00247268
-0.0026864
-0.00487349
-0.0088092
-0.0143237
-0.0212982
-0.0296166
-0.0391448
-0.0497175
-0.061131
-0.0731376
-0.0854484
-0.0977391
-0.109659
-0.120841
-0.130897
-0.139427
-0.146023
-0.15029
-0.151999
-0.150767
-0.00903657
-0.0066136
-0.00498601
-0.00500837
-0.00677794
-0.0100757
-0.0147354
-0.0206362
-0.0276652
-0.0357015
-0.0446029
-0.0541973
-0.0642768
-0.0745998
-0.0848972
-0.0948794
-0.104243
-0.11267
-0.119826
-0.125371
-0.128983
-0.130397
-0.129376
-0.0110389
-0.00875514
-0.0071621
-0.00702996
-0.00843096
-0.0111634
-0.0150751
-0.0200492
-0.0259768
-0.032746
-0.0402308
-0.0482832
-0.0567283
-0.0653645
-0.0739699
-0.0823067
-0.0901266
-0.0971701
-0.103164
-0.107825
-0.110876
-0.112121
-0.111339
-0.012676
-0.010533
-0.00899705
-0.00875007
-0.00983909
-0.0120829
-0.0153483
-0.0195287
-0.0245228
-0.0302259
-0.0365237
-0.0432859
-0.0503631
-0.0575867
-0.0647729
-0.0717268
-0.0782463
-0.0841218
-0.0891329
-0.0930525
-0.0956524
-0.0967761
-0.096231
-0.0139342
-0.0119254
-0.0104606
-0.010134
-0.0109666
-0.0127954
-0.0155068
-0.019009
-0.0232114
-0.0280179
-0.0333238
-0.0390132
-0.0449566
-0.0510115
-0.0570248
-0.0628356
-0.068279
-0.0731869
-0.0773855
-0.080692
-0.0829264
-0.0839621
-0.0836351
-0.0147958
-0.0129127
-0.0115249
-0.0111457
-0.0117705
-0.0132503
-0.0154884
-0.0184089
-0.0219339
-0.0259775
-0.0304459
-0.0352366
-0.0402374
-0.0453273
-0.0503771
-0.0552529
-0.0598189
-0.0639396
-0.0674776
-0.0702901
-0.0722307
-0.0731996
-0.0730587
-0.0152562
-0.0134915
-0.0121815
-0.0117688
-0.0122256
-0.0134122
-0.0152456
-0.0176638
-0.0206013
-0.0239841
-0.0277315
-0.0317552
-0.0359599
-0.0402427
-0.0444946
-0.0486026
-0.0524539
-0.0559385
-0.0589462
-0.0613612
-0.0630655
-0.0639786
-0.0639853
-0.0153286
-0.0136783
-0.0124455
-0.0120124
-0.0123324
-0.0132722
-0.0147586
-0.01674
-0.0191617
-0.0219632
-0.0250778
-0.028433
-0.03195
-0.0355434
-0.0391211
-0.0425877
-0.0458488
-0.0488136
-0.0513902
-0.053483
-0.0549938
-0.0558556
-0.0559711
-0.0150419
-0.0135054
-0.0123511
-0.0119075
-0.0121155
-0.0128465
-0.0140341
-0.0156333
-0.0175996
-0.0198849
-0.0224373
-0.0252005
-0.0281127
-0.0311052
-0.0341015
-0.037021
-0.0397843
-0.042314
-0.0445318
-0.0463566
-0.0477044
-0.0485153
-0.0487063
-0.0144339
-0.0130147
-0.0119425
-0.0114977
-0.0116136
-0.0121671
-0.0130961
-0.0143605
-0.0159242
-0.0177504
-0.0198014
-0.0220368
-0.0244123
-0.0268763
-0.0293658
-0.031812
-0.0341467
-0.0363031
-0.0382141
-0.0398096
-0.0410155
-0.0417755
-0.0420172
-0.0135456
-0.0122511
-0.0112672
-0.0108302
-0.010871
-0.0112732
-0.0119782
-0.0129499
-0.0141586
-0.0155774
-0.0171811
-0.0189455
-0.0208443
-0.0228446
-0.0248944
-0.0269305
-0.0288928
-0.0307243
-0.0323678
-0.0337625
-0.0348422
-0.0355527
-0.0358294
-0.0124166
-0.0112572
-0.0103699
-0.00995056
-0.00993183
-0.0102059
-0.0107177
-0.0114344
-0.012331
-0.0133879
-0.0145917
-0.0159343
-0.0174104
-0.0190101
-0.0206868
-0.0223733
-0.0240142
-0.0255621
-0.0269702
-0.0281868
-0.0291532
-0.0298172
-0.0301203
-0.0110817
-0.0100694
-0.00928917
-0.00889829
-0.00883555
-0.00900346
-0.00935069
-0.00984627
-0.0104678
-0.0112015
-0.0120443
-0.0130056
-0.0141046
-0.0153675
-0.0167432
-0.0181425
-0.0195115
-0.0208138
-0.0220142
-0.0230713
-0.0239347
-0.0245556
-0.0248799
-0.009567
-0.00871442
-0.00805205
-0.0077018
-0.00761201
-0.00769632
-0.00790651
-0.00821181
-0.00859063
-0.00903284
-0.00954443
-0.010153
-0.0109073
-0.0119012
-0.013059
-0.0142362
-0.0153819
-0.0164735
-0.0174907
-0.0184036
-0.0191712
-0.0197498
-0.0200896
-0.0078858
-0.00720534
-0.00667152
-0.00637858
-0.00628403
-0.0063109
-0.00641248
-0.00655675
-0.00672107
-0.0068957
-0.00708907
-0.00734025
-0.00774034
-0.00855893
-0.00962698
-0.0106587
-0.0116264
-0.0125378
-0.0133919
-0.0141718
-0.0148464
-0.0153778
-0.0157201
-0.00603362
-0.0055453
-0.00516448
-0.00496515
-0.00490404
-0.0049088
-0.00493284
-0.00494175
-0.00490849
-0.00481521
-0.00464717
-0.00441179
-0.00427342
-0.0050993
-0.00640375
-0.00743069
-0.00826655
-0.00901913
-0.00972417
-0.0103769
-0.0109546
-0.011425
-0.0117454
-0.00397532
-0.00373146
-0.00356842
-0.00353151
-0.00355859
-0.00358184
-0.00355787
-0.00344987
-0.0032213
-0.00283183
-0.00219589
-0.001164
9.06496e-05
-0.000961263
-0.00327211
-0.00454825
-0.00530019
-0.00590499
-0.00646808
-0.00699586
-0.00746961
-0.00786052
-0.00813595
-0.00167273
-0.00168016
-0.00174212
-0.00184109
-0.00192363
-0.00195295
-0.00190441
-0.00175096
-0.00145766
-0.000974418
-0.000173652
0.00128329
0.00375457
0.00342226
-2.91581e-05
-0.00148401
-0.00217461
-0.00268361
-0.0031574
-0.00360934
-0.00401959
-0.00435609
-0.00458663
667.78
665.893
653.779
633.932
736.087
741.12
769.006
804.812
891.92
917.232
950.65
977.05
1027.46
1055.21
1077.3
1075.73
1112.71
1133.09
1148.15
1153.28
1200.46
1205.18
1208.82
1210.66
550.565
838.2
896.692
876.677
67.9057
78.1175
104.796
114.928
70.1678
69.9243
65.6618
91.3364
74.6797
72.4083
60.7931
46.962
265.806
268.067
266.333
198.915
269.916
265.851
255.772
248.045
-2.20641
-2.11569
90.3895
197.978
-0.561992
-0.462743
-0.481909
-0.898229
-0.658131
-0.634202
-0.604312
-0.618353
-0.608256
-0.606275
-0.606096
-0.604634
-0.528792
-0.522788
-0.517385
-0.512671
-0.453988
-0.446133
-0.437224
-0.428756
-0.387156
-0.378501
-0.368069
-0.357793
-0.328693
-0.320246
-0.309958
-0.299725
-0.278551
-0.270789
-0.261336
-0.251946
-0.236102
-0.229218
-0.220861
-0.212604
-0.200616
-0.194656
-0.18743
-0.180331
-0.17117
-0.166116
-0.159967
-0.15394
-0.14663
-0.142437
-0.137303
-0.132254
-0.126004
-0.122605
-0.118408
-0.11425
-0.108645
-0.105942
-0.102566
-0.0991859
-0.0941291
-0.0920042
-0.0892968
-0.0865483
-0.0820391
-0.0803739
-0.0781842
-0.0759194
-0.0718801
-0.0705749
-0.0687842
-0.0668908
-0.0631367
-0.0621168
-0.0606504
-0.0590633
-0.0553735
-0.0545857
-0.053402
-0.0520923
-0.0482944
-0.0476996
-0.0467723
-0.0457258
-0.0417419
-0.0413081
-0.0406111
-0.0398115
-0.0356563
-0.0353544
-0.034856
-0.0342777
-0.0300258
-0.0298283
-0.0294923
-0.0291014
-0.0248482
-0.0247306
-0.0245206
-0.0242796
-0.0201088
-0.0200513
-0.0199347
-0.0198068
-0.0157771
-0.0157624
-0.015711
-0.0156613
-0.0118144
-0.0118217
-0.0118078
-0.0118017
-0.00822166
-0.00823648
-0.00822465
-0.0082071
-0.00465777
-0.00466998
-0.00466051
-0.00463861
783.324
778.791
361.563
291.474
291.112
290.719
302.413
408.707
492.775
344.71
211.958
181.178
164.18
152.635
143.953
140.357
119.837
112.823
106.622
862.551
689.923
279.749
281.1
288.38
553.83
625.48
515.472
524.856
334.231
192.572
173.769
164.205
205.529
218.937
202.102
171.334
109.328
98.1828
820.3
324.821
276.087
274.255
293.812
740.613
749.726
696.716
600.005
513.184
208.751
160.996
205.225
238.079
222.861
208.028
187.643
107.629
86.8122
722.849
277.353
272.477
264.76
552.116
825.702
800.608
475.962
327.159
543.581
310.749
141.477
200.704
237.737
222.998
169.097
67.5465
55.7075
79.2144
993.289
644.708
478.582
567.856
903.871
875.665
789.523
76.2399
100.004
581.606
264.13
119.27
142.154
237.718
220.142
47.9827
9.27239
9.7217
12.7722
1213.17
1202.09
1144.06
1068.22
892.831
780.601
340.704
54.671
101.442
623.144
196.063
100.737
186.031
238.505
140.948
9.73897
4.34897
4.65903
4.76321
866.461
799.626
666.155
536.999
412.718
212.994
35.3001
46.2463
208.656
533.885
204.531
79.0787
242.147
243.987
83.1451
2.68928
2.80991
3.50801
3.99309
114.421
105.341
112.319
48.6906
28.5954
30.8304
33.7521
67.6245
264.59
74.8813
48.4895
70.2011
103.433
49.0881
10.3831
2.40283
1.89557
2.83079
3.37681
110.944
37.8897
31.716
31.689
30.8524
30.2556
30.7821
235.516
272.954
40.59
6.68066
15.0076
10.1376
0.974484
3.38765
1.89104
1.44982
1.33097
1.90451
41.0986
34.5854
31.6408
30.8635
30.4948
30.1359
84.0911
249.314
253.382
52.5506
3.86799
3.21768
8.79664
0.843752
0.755026
1.07093
1.31647
1.3139
1.32115
194.919
95.9382
84.1951
146.736
157.42
157.184
176.336
108.921
1.38291
10.4935
8.25687
2.87844
2.98945
0.597322
0.734338
0.966513
1.21801
1.36629
1.71574
250.446
248.965
243.977
240.001
233.408
216.014
137.761
1.39529
1.49307
3.50682
6.17035
1.5829
0.516815
0.533723
0.685552
0.868256
1.05253
2.28936
2.21471
103.391
51.5328
81.7786
88.4849
45.7001
17.0099
-0.0884905
1.89791
1.52438
0.019059
0.0966051
0.236674
0.343935
0.485644
0.620563
0.746697
0.926048
2.18589
1.7267
-1.31077
-1.31149
-1.18213
-0.974845
-0.72463
-0.388119
0.148357
2.2661
2.33134
0.040789
0.114728
0.221652
0.329405
0.448494
0.553193
0.634389
0.812458
2.10229
0.703356
-0.653697
-0.601095
-0.498401
-0.404042
-0.325203
-0.235574
0.372935
0.966475
0.628357
0.0587051
0.136697
0.235365
0.368517
0.489249
0.542194
0.542302
0.647076
1.61948
0.611448
-0.585618
-0.536033
-0.46193
-0.381139
-0.30214
-0.220764
-0.151882
-0.090415
-0.00976899
0.0746363
0.266796
0.345353
0.416974
0.483455
0.464209
0.453227
0.479336
0.491223
0.524383
-0.501102
-0.45973
-0.399674
-0.329823
-0.256782
-0.184878
-0.106874
0.032087
0.0951837
0.0917042
0.208498
0.330776
0.384901
0.379551
0.343749
0.380336
0.402019
0.420145
0.437746
-0.414966
-0.37864
-0.327337
-0.267538
-0.203892
-0.140589
-0.0514946
0.117396
0.172447
0.103242
0.124282
0.166674
0.208424
0.244815
0.282927
0.321332
0.336043
0.353196
0.375035
-0.342093
-0.309842
-0.265697
-0.214461
-0.160162
-0.106139
-0.056396
0.0174973
0.152086
0.0709261
0.107393
0.139173
0.169179
0.199324
0.238136
0.265149
0.278874
0.296247
0.495765
-0.284301
-0.25633
-0.21865
-0.174892
-0.128701
-0.0830953
-0.0409339
-0.00392907
0.0288234
0.0831727
0.0905745
0.112946
0.136047
0.160541
0.194488
0.216265
0.230518
0.247669
0.82233
-0.237952
-0.214171
-0.182405
-0.145417
-0.106418
-0.0680337
-0.0325585
-0.00129854
0.0259828
0.0534605
0.0748878
0.0911785
0.10876
0.12819
0.154081
0.171277
0.193456
0.216031
0.80449
-0.200396
-0.180414
-0.153937
-0.123036
-0.0903942
-0.0582027
-0.0283593
-0.00200635
0.0213205
0.0407573
0.057793
0.0731225
0.0881571
0.105085
0.124199
0.145164
0.167088
0.193328
0.800842
-0.169896
-0.15322
-0.13131
-0.10569
-0.0785164
-0.0515542
-0.0263665
-0.0040219
0.0158054
0.0324056
0.0464562
0.0592878
0.0732458
0.0888542
0.106651
0.126727
0.148886
0.286662
0.806599
-0.145096
-0.131217
-0.113123
-0.09192
-0.0693019
-0.0466532
-0.0252316
-0.00595924
0.0108674
0.0256856
0.0384818
0.0505109
0.0633975
0.0779172
0.0945785
0.113466
0.134559
0.66751
0.818512
-0.124812
-0.113264
-0.0982929
-0.0806987
-0.0617939
-0.0426441
-0.0242353
-0.00733041
0.00771504
0.0210154
0.0330873
0.0447879
0.0570784
0.0707709
0.0863331
0.103775
0.122829
0.797317
0.833681
-0.108053
-0.0984415
-0.0860105
-0.0713415
-0.0554424
-0.0391189
-0.0231224
-0.00806702
0.005707
0.018217
0.0298273
0.0411921
0.0530867
0.0661852
0.0809469
0.0972999
0.115124
0.756175
0.82241
-0.0940693
-0.0860669
-0.0757091
-0.0634193
-0.0499623
-0.0359319
-0.0218888
-0.00832741
0.00443443
0.0163443
0.0276328
0.0387845
0.0504229
0.0631677
0.0774818
0.0935247
0.111155
0.784215
0.529041
-0.0823222
-0.0756518
-0.0669974
-0.0566579
-0.0452009
-0.033051
-0.0206235
-0.00832043
0.00356823
0.0149441
0.0259329
0.0368814
0.0482985
0.0607959
0.074945
0.0912829
0.117324
0.924796
0.540574
-0.072394
-0.0668226
-0.0595768
-0.050849
-0.0410457
-0.0304612
-0.0194052
-0.00820337
0.00288217
0.0137221
0.0243591
0.035027
0.0461435
0.0582764
0.0721445
0.0880848
0.412586
0.951172
0.568057
-0.0639164
-0.0592558
-0.0531825
-0.0457972
-0.0373773
-0.0281212
-0.0182579
-0.00805181
0.00226192
0.0125269
0.0227171
0.0329747
0.0436362
0.0551915
0.0682175
0.0824065
0.712741
0.970794
0.497269
-0.0565483
-0.0526549
-0.0475667
-0.0413111
-0.0340663
-0.0259607
-0.017162
-0.00788323
0.00165736
0.0112792
0.0209225
0.0306534
0.0407707
0.0515854
0.0635267
0.075777
0.736019
0.988808
0.328117
-0.0499925
-0.0467613
-0.0425113
-0.0372197
-0.030992
-0.023906
-0.0160824
-0.00769677
0.00104756
0.00996966
0.0189851
0.028153
0.0375156
0.0475486
0.0587413
0.0701743
0.753047
1.00432
0.242373
-0.0440201
-0.0413728
-0.0378474
-0.0333923
-0.0280633
-0.0219023
-0.0149945
-0.00748535
0.000439812
0.0086134
0.0169356
0.0253198
0.0337957
0.0427877
0.0529037
0.309383
0.933602
0.83806
0.151687
-0.0384801
-0.0363541
-0.0334635
-0.0297463
-0.0252274
-0.0199246
-0.0138978
-0.0072596
-0.000171915
0.00720922
0.0147332
0.0222166
0.0296338
0.037185
0.0446081
0.707636
0.947744
0.354245
0.115931
-0.0332909
-0.0316297
-0.0292996
-0.0262416
-0.0224647
-0.0179738
-0.0128054
-0.00704134
-0.000827947
0.00572724
0.0124785
0.0204104
0.0308853
0.0327487
0.0359182
0.50077
0.942715
0.230293
0.102324
-0.0284182
-0.0271669
-0.0253317
-0.0228658
-0.0197753
-0.0160629
-0.0117566
-0.00691439
-0.00161851
0.00412894
0.0106514
0.0349078
0.0357964
0.0277501
0.0499642
0.141455
0.0436902
0.0673741
0.090454
-0.0238517
-0.0229544
-0.0215524
-0.0196166
-0.017161
-0.0141976
-0.0107582
-0.00688145
-0.00257839
0.00370777
0.027924
0.0340183
0.0374204
0.0280407
0.0513868
0.03021
0.0406101
0.0591444
0.0786157
-0.0195817
-0.0189802
-0.0179505
-0.0164829
-0.0146069
-0.0123554
-0.00977768
-0.00691331
-0.00374052
0.00191376
0.0225967
0.0203365
0.0248345
0.0341768
0.0294838
0.026555
0.0351036
0.0498254
0.0663476
-0.0155815
-0.0152107
-0.0144885
-0.0134226
-0.0120598
-0.0104602
-0.00871725
-0.00694325
-0.00519883
-0.00193928
0.00321852
0.0075646
0.01128
0.0148282
0.0179879
0.021747
0.0283021
0.0397696
0.0534742
-0.0118002
-0.0115755
-0.0110793
-0.0103326
-0.00939551
-0.00835371
-0.00739466
-0.00694593
-0.00761682
-0.0066675
-0.00144229
0.0038087
0.00825807
0.0117462
0.01441
0.0170226
0.021324
0.0294359
0.0397868
-0.00817149
-0.00797529
-0.00759084
-0.00704438
-0.00640422
-0.00578221
-0.00555293
-0.00700463
-0.0125392
-0.0146725
-0.00681011
7.27901e-05
0.00528913
0.00909602
0.0115733
0.0131427
0.0148437
0.0187714
0.030056
-0.00457948
-0.00434905
-0.00396443
-0.00347927
-0.00299579
-0.00268507
-0.00310528
-0.00644048
-0.0183642
-0.0187717
-0.00921476
-0.00246449
0.00213826
0.00541506
0.00732935
0.00792756
0.00768469
0.00743765
0.018029
)
;

boundaryField
{
    leftWall
    {
        type            fixedFluxPressure;
        gradient        uniform 0;
        value           nonuniform List<scalar> 
50
(
996.321
997.955
999.766
1001.79
1003.81
1005.64
1007.15
1008.28
1009.5
1010.54
1012.33
1012.03
466.206
6.01408
0.712962
0.261126
0.174641
0.151383
0.13533
0.119764
0.103372
0.0866745
0.0709721
0.056804
0.0442552
0.0332959
0.023853
0.0158621
0.00925807
0.00391775
-0.000358895
-0.00381013
-0.00665226
-0.00903657
-0.0110389
-0.012676
-0.0139342
-0.0147958
-0.0152562
-0.0153286
-0.0150419
-0.0144339
-0.0135456
-0.0124166
-0.0110817
-0.009567
-0.0078858
-0.00603362
-0.00397532
-0.00167273
)
;
    }
    rightWall
    {
        type            fixedFluxPressure;
        gradient        uniform 0;
        value           nonuniform List<scalar> 
50
(
397.467
397.794
396.484
384.657
380.658
273.986
109.825
109.19
106.622
98.1828
86.8122
79.2144
12.7722
4.76321
3.99309
3.37681
1.90451
1.32115
1.71574
2.21471
1.7267
0.703356
0.611448
0.524383
0.437746
0.375035
0.495765
0.82233
0.80449
0.800842
0.806599
0.818512
0.833681
0.82241
0.529041
0.540574
0.568057
0.497269
0.328117
0.242373
0.151687
0.115931
0.102324
0.090454
0.0786157
0.0663476
0.0534742
0.0397868
0.030056
0.018029
)
;
    }
    lowerWall
    {
        type            fixedFluxPressure;
        gradient        uniform 0;
        value           nonuniform List<scalar> 
62
(
996.321
989.508
981.107
970.832
959.624
947.914
936.107
924.511
913.298
902.443
891.69
880.625
868.853
856.286
842.441
828.748
815.55
803.108
790.757
776.743
760.079
747.355
742.457
742.457
741.242
739.281
736.771
734.002
731.153
728.428
721.264
667.78
665.893
653.779
633.932
950.829
958.358
977.311
991.195
990.27
972.094
937.167
887.538
950.829
913.526
844.751
727.619
641.736
626.742
655.871
652.125
604.432
562.659
537.782
517.241
498.788
480.683
461.87
442.43
422.672
403.175
397.467
)
;
    }
    atmosphere
    {
        type            totalPressure;
        rho             rho;
        psi             none;
        gamma           1;
        p0              uniform 0;
        value           nonuniform List<scalar> 
46
(
0
0
0
0
0
0
0
0
0
0
0
0
0
-8.44172e-06
-9.33228e-05
-0.00028686
-0.000580198
-0.000954779
-0.00138258
-0.00182628
-0.00224188
-0.00258358
-0.00281183
-0.00288367
-0.00290748
-0.00291514
-0.00290542
-0.00284771
-0.00258286
-0.00214106
-0.00159168
-0.0010372
-0.000576259
-0.000267731
-0.000104426
-1.95273e-05
0
0
0
0
0
0
0
0
0
0
)
;
    }
    defaultFaces
    {
        type            empty;
    }
}


// ************************************************************************* //
