/*--------------------------------*- C++ -*----------------------------------*\
| =========                 |                                                 |
| \\      /  F ield         | OpenFOAM: The Open Source CFD Toolbox           |
|  \\    /   O peration     | Version:  2.3.0                                 |
|   \\  /    A nd           | Web:      www.OpenFOAM.org                      |
|    \\/     M anipulation  |                                                 |
\*---------------------------------------------------------------------------*/
FoamFile
{
    version     2.0;
    format      ascii;
    class       volVectorField;
    location    "5.0000038";
    object      U.waterMean;
}
// * * * * * * * * * * * * * * * * * * * * * * * * * * * * * * * * * * * * * //

dimensions      [0 1 -1 0 0 0 0];

internalField   nonuniform List<vector> 
10000
(
(-0.245054 -1.05906 -0.61109)
(0.0330369 -1.06165 -0.623287)
(0.108116 -0.886853 -0.560191)
(0.15908 -0.619264 -0.361861)
(0.205212 -0.415926 -0.230324)
(0.213539 -0.286299 -0.361463)
(0.14825 -0.185371 -0.285002)
(0.045902 -0.139473 -0.264605)
(0.00854676 -0.139313 -0.254774)
(-0.0147663 -0.142316 -0.25244)
(-0.035319 -0.153051 -0.29546)
(-0.0895942 -0.243172 -0.225499)
(-0.132189 -0.248334 -0.152263)
(-0.175294 -0.2466 -0.159471)
(-0.202839 -0.291809 -0.180088)
(-0.186941 -0.389305 -0.230559)
(-0.131808 -0.576217 -0.338527)
(-0.0842784 -0.781382 -0.494241)
(-0.0178188 -0.916053 -0.531624)
(0.217328 -0.873997 -0.520609)
(0.00836269 -1.1571 -0.0866337)
(0.00073586 -1.09234 -0.0774162)
(0.000910339 -0.903747 -0.0583365)
(-0.000751712 -0.495009 -0.0114247)
(0.0127056 -0.27645 -0.16208)
(0.0593264 -0.0729386 -0.857549)
(0.00545816 -0.0716307 -0.497945)
(-0.00496359 -0.0978662 -0.380477)
(-0.000376071 -0.115271 -0.32023)
(-0.00123037 -0.108944 -0.328046)
(-0.0010815 -0.0853249 -0.530744)
(0.0018053 -0.0956805 -0.526298)
(-0.00285875 -0.123143 -0.24709)
(-0.00187773 -0.118356 -0.275514)
(-0.0259747 -0.147286 -0.22352)
(-0.0324683 -0.282652 -0.160216)
(0.000264566 -0.456841 -0.0098626)
(-0.00243926 -0.789194 -0.0517134)
(-0.000222262 -0.943244 -0.0622385)
(-0.004479 -0.906958 -0.0669704)
(0.0035448 -1.19214 -0.0318053)
(0.00330923 -1.09053 -0.0219876)
(0.00385392 -0.911832 -0.0231972)
(-0.001062 -0.514606 -0.0114701)
(0.00381245 -0.316757 -0.0819436)
(0.00249061 -0.152768 -0.187981)
(0.00180813 -0.125704 -0.217774)
(0.000489796 -0.119321 -0.230196)
(-3.5228e-05 -0.126533 -0.216022)
(-0.00036335 -0.132844 -0.206395)
(-0.00119921 -0.129375 -0.221777)
(0.00772512 -0.138833 -0.206532)
(0.00085351 -0.136675 -0.185855)
(-0.000559139 -0.131859 -0.185444)
(-0.0010724 -0.165381 -0.148701)
(-0.00444434 -0.3265 -0.0831846)
(0.000242933 -0.512311 -0.0144884)
(-0.00463325 -0.78874 -0.0182232)
(-0.00259364 -0.943453 -0.017821)
(-0.00249263 -0.923271 -0.0239489)
(0.00574708 -1.1606 -0.0117704)
(0.00231919 -1.04694 -0.00820852)
(0.00330234 -0.869211 -0.00385793)
(-0.000716824 -0.448707 0.00375)
(0.000697604 -0.300254 -0.0806269)
(-0.00102491 -0.128929 -0.208859)
(0.000496318 -0.109739 -0.258175)
(-0.000154578 -0.110886 -0.251833)
(-3.79445e-05 -0.121868 -0.228722)
(-3.8714e-05 -0.125442 -0.219696)
(-0.000263425 -0.118214 -0.233558)
(-0.000449211 -0.122956 -0.227877)
(-0.000364267 -0.12777 -0.229435)
(-0.000531952 -0.125806 -0.228287)
(0.00028526 -0.158381 -0.174011)
(-0.000594462 -0.308691 -0.0814512)
(-0.000143631 -0.446875 0.00145299)
(-0.00558727 -0.748743 -0.000721141)
(-0.00172363 -0.911298 -0.00327937)
(-0.0044705 -0.886439 -0.00610647)
(0.00159622 -1.18635 -0.0141122)
(0.00292871 -1.05024 -0.0101307)
(0.00413003 -0.897694 -0.00677454)
(0.00220057 -0.460924 0.000480198)
(0.00354587 -0.290765 -0.0819526)
(-0.000908508 -0.13651 -0.187424)
(0.000277352 -0.114067 -0.241188)
(-6.5382e-05 -0.111743 -0.244475)
(-4.76542e-05 -0.122119 -0.223924)
(-6.52814e-05 -0.127155 -0.214437)
(-6.17214e-05 -0.120928 -0.222471)
(-0.000116215 -0.128552 -0.209491)
(-0.000180052 -0.126522 -0.211704)
(-0.000642277 -0.12504 -0.217635)
(5.08382e-05 -0.155728 -0.169307)
(-0.00365668 -0.299963 -0.0826361)
(-0.00221916 -0.454752 -0.000906764)
(-0.00751355 -0.774277 -0.00275068)
(-0.00237555 -0.926422 -0.00286049)
(-4.54066e-05 -0.904778 -0.00762225)
(0.00236002 -1.19811 -0.0152838)
(0.00242536 -1.04477 -0.00963718)
(0.00343012 -0.90531 -0.0058786)
(0.000442381 -0.441708 0.00312938)
(0.00211655 -0.267492 -0.084109)
(-0.000691515 -0.126439 -0.199088)
(0.000279233 -0.108679 -0.246604)
(-5.50686e-05 -0.107031 -0.248375)
(-0.000104064 -0.118502 -0.226145)
(-8.72799e-05 -0.122268 -0.216662)
(-1.90965e-05 -0.115544 -0.227543)
(-0.000117308 -0.122232 -0.21538)
(-5.31966e-05 -0.121711 -0.216092)
(-0.000392336 -0.11949 -0.221511)
(0.000158446 -0.146446 -0.174888)
(-0.00228559 -0.276895 -0.0848178)
(-0.00122989 -0.431734 0.00166999)
(-0.00712528 -0.777759 -0.00128629)
(-0.00199746 -0.937422 -0.00185547)
(4.99715e-05 -0.906023 -0.00588939)
(0.00124874 -1.20544 -0.0164467)
(0.001784 -1.03574 -0.0086107)
(0.00355323 -0.919803 -0.00602336)
(0.00174741 -0.437445 0.00362532)
(0.00408568 -0.247074 -0.0813511)
(-0.00029828 -0.122007 -0.197135)
(0.000405446 -0.105794 -0.241274)
(4.5514e-05 -0.10341 -0.245061)
(-0.000140944 -0.114351 -0.222652)
(-5.97645e-05 -0.119246 -0.213027)
(2.2856e-05 -0.111535 -0.223202)
(6.49185e-05 -0.118322 -0.21057)
(0.000195119 -0.116694 -0.213019)
(-0.000127164 -0.114028 -0.219204)
(0.000217079 -0.138656 -0.174445)
(-0.00430144 -0.255905 -0.0824849)
(-0.00230366 -0.422583 0.00241607)
(-0.00685014 -0.790989 -0.00141495)
(-0.00198819 -0.952614 -0.002353)
(0.000442464 -0.912022 -0.00560021)
(9.50445e-05 -1.20509 -0.016067)
(0.00147256 -1.02634 -0.00698997)
(0.00333994 -0.934355 -0.00549626)
(0.00226543 -0.430826 0.00511467)
(0.00326413 -0.200989 -0.0708953)
(0.000999464 -0.109443 -0.192659)
(0.000475056 -0.0974952 -0.231463)
(4.42843e-05 -0.0945421 -0.234185)
(-0.000331352 -0.10468 -0.209932)
(8.10621e-05 -0.107783 -0.199848)
(0.000237501 -0.101499 -0.211501)
(0.000337285 -0.107443 -0.198729)
(0.000532062 -0.106387 -0.201463)
(0.000315304 -0.103673 -0.208987)
(-0.000191495 -0.121855 -0.16703)
(-0.00333315 -0.210349 -0.0723767)
(-0.00275509 -0.411177 0.003844)
(-0.00657946 -0.802153 -0.00120009)
(-0.00158366 -0.963864 -0.00199591)
(0.00073119 -0.912667 -0.00454482)
(-0.00094534 -1.20333 -0.0161401)
(0.000940239 -1.01717 -0.00533651)
(0.00316959 -0.951721 -0.00546249)
(0.00399782 -0.438064 0.00522581)
(-0.00110125 -0.136332 -0.0239396)
(-0.00158688 -0.0748733 -0.142692)
(0.000649556 -0.0672909 -0.169434)
(-7.74925e-05 -0.0635909 -0.171274)
(-0.000949054 -0.0698558 -0.149014)
(0.00055908 -0.0725767 -0.13903)
(0.000236332 -0.0682971 -0.150695)
(-0.00016758 -0.0720818 -0.138171)
(0.000791023 -0.0708348 -0.141321)
(0.000237444 -0.0695689 -0.151428)
(0.00270248 -0.0804448 -0.118799)
(0.00030492 -0.141542 -0.0267002)
(-0.00422283 -0.413441 0.00440205)
(-0.00585335 -0.81317 -0.00107937)
(-0.00128367 -0.975163 -0.00183419)
(0.00132102 -0.914349 -0.00311358)
(-0.00126814 -1.19837 -0.0154659)
(0.000361854 -1.00759 -0.0031271)
(0.00310833 -0.970871 -0.00630197)
(0.00379475 -0.454239 0.00250311)
(0.00115922 -0.063429 0.00924526)
(0.000333496 -0.0316796 0.00461858)
(0.000400322 -0.0276866 0.00505896)
(0.000170403 -0.0191546 0.0049719)
(0.000193231 -0.0276252 0.00564079)
(-0.000119418 -0.0289012 0.00589173)
(-2.38252e-06 -0.0221799 0.00542378)
(0.000157382 -0.0291749 0.00582336)
(-1.7671e-05 -0.0286439 0.0056924)
(-0.000260957 -0.028837 0.00544663)
(-0.000281847 -0.0364758 0.00574483)
(-0.00148579 -0.0614494 0.0103459)
(-0.00316344 -0.426645 0.00233697)
(-0.00494815 -0.822996 -0.00147943)
(-0.000705448 -0.983842 -0.0014965)
(0.00203205 -0.914262 -0.00189186)
(-0.00151973 -1.1914 -0.0142938)
(-0.000105526 -1.00032 -0.001345)
(0.0032202 -0.988746 -0.00683619)
(0.0038232 -0.458732 0.00114769)
(0.000137531 -0.0968003 -0.000557964)
(-0.000413916 -0.0476225 -0.000751233)
(1.7495e-05 -0.0322484 -0.000726024)
(5.77778e-05 -0.0290484 -0.000408214)
(-7.39086e-05 -0.0290554 -0.000214617)
(0.000141908 -0.0298297 -0.000197209)
(8.20318e-06 -0.0304936 -0.00025317)
(-0.000102234 -0.0301571 -0.000217326)
(-4.13985e-06 -0.0294543 -0.000129559)
(-8.02454e-05 -0.0304892 -0.000194863)
(9.20725e-05 -0.04142 -0.000744606)
(0.000126227 -0.09348 -0.00156713)
(-0.00224413 -0.427261 0.00141105)
(-0.00443982 -0.830985 -0.00167417)
(-0.000447817 -0.991145 -0.000712883)
(0.00222606 -0.91348 -0.000791241)
(-0.00214908 -1.18004 -0.0125091)
(-0.000655851 -0.992009 0.000256914)
(0.00307831 -1.00649 -0.00703981)
(0.00449693 -0.453335 0.00194998)
(-0.000229809 -0.0808805 0.000676997)
(-0.000573578 -0.0455685 -0.00025051)
(-0.00017049 -0.0449704 -0.00231539)
(6.41244e-05 -0.0291725 -0.000378123)
(-3.45608e-05 -0.0387676 -0.00146328)
(0.00013477 -0.0397464 -0.00134755)
(2.21674e-05 -0.0300613 -0.000131563)
(-5.89421e-05 -0.0401352 -0.00130543)
(8.24557e-06 -0.038703 -0.00117192)
(0.000124098 -0.039977 -0.00120736)
(0.000413861 -0.0535883 -0.00140964)
(0.000927419 -0.0953792 -0.00121801)
(-0.00287912 -0.418925 0.00244938)
(-0.00383727 -0.837334 -0.00204012)
(-0.000410399 -0.996096 -0.0004719)
(0.00289841 -0.91001 0.000281429)
(-0.00307933 -1.16679 -0.0107359)
(-0.000671208 -0.982507 0.00192804)
(0.00295604 -1.02774 -0.00796847)
(0.00443757 -0.450399 0.00203503)
(0.000319442 -0.0782896 0.000501971)
(-0.00019797 -0.0487411 -0.0002208)
(-0.000228831 -0.0498984 -0.000949214)
(-4.05719e-06 -0.0330545 -0.000506033)
(0.00019493 -0.0381736 -0.00039916)
(-0.000100635 -0.037347 -0.00018432)
(3.77338e-05 -0.0310522 -8.26274e-05)
(0.00017823 -0.0367718 -7.7087e-05)
(2.39581e-05 -0.0354011 -6.00459e-05)
(0.000137858 -0.0371746 -4.6408e-05)
(0.000255097 -0.0468245 0.000344131)
(0.000116009 -0.0778472 0.000978466)
(-0.00260931 -0.412247 0.00300313)
(-0.00311545 -0.843811 -0.00190569)
(-0.000456105 -0.998871 0.000942993)
(0.00468968 -0.905246 0.00185524)
(-0.00368994 -1.14915 -0.0095223)
(-0.000801293 -0.970654 0.00307345)
(0.00249873 -1.04966 -0.00977035)
(0.00339387 -0.445913 0.00235971)
(0.000388597 -0.0692828 0.00085278)
(-0.000130064 -0.0453745 0.00031719)
(-0.000253962 -0.0499518 -0.000209439)
(-0.000174687 -0.0343452 -0.000373525)
(-4.3984e-05 -0.0404338 -0.000579064)
(4.45549e-06 -0.0391962 -0.000472848)
(3.70433e-05 -0.0304097 -7.12358e-05)
(-1.59685e-05 -0.0381873 -0.000316547)
(3.95172e-05 -0.0369102 -0.000303552)
(0.00010918 -0.0385681 -0.000205423)
(0.000229823 -0.0468061 0.000106879)
(1.47387e-05 -0.0766358 0.000740154)
(-0.00151154 -0.405172 0.00366245)
(-0.00177887 -0.849896 -0.00247084)
(-0.00052503 -1.00217 0.00120932)
(0.00530791 -0.89862 0.00239076)
(-0.0030728 -1.12162 -0.00794682)
(-0.00085802 -0.954537 0.00376758)
(0.00146481 -1.06468 -0.0109597)
(0.00163236 -0.439609 0.00227058)
(0.000489171 -0.0638381 0.000918915)
(-4.89578e-05 -0.0419559 0.000519505)
(-0.000126776 -0.048178 0.000230821)
(-0.000183458 -0.0364591 -0.000191488)
(-5.67153e-05 -0.0443444 -0.000617727)
(-2.72893e-05 -0.0431043 -0.000519421)
(3.42594e-05 -0.032127 -0.000105771)
(-4.73983e-06 -0.0409717 -0.000223029)
(1.31527e-05 -0.0394935 -0.000334137)
(4.71812e-05 -0.0400571 -0.00029395)
(0.000302385 -0.0473757 -1.92875e-05)
(-1.25951e-05 -0.0698314 0.00102963)
(-0.000276973 -0.398272 0.0038824)
(-0.000169084 -0.851599 -0.00221953)
(-0.000666882 -0.999236 0.00286395)
(0.00540894 -0.88515 0.00332408)
(-0.00451941 -1.06908 -0.00322779)
(0.000709203 -0.924035 0.00478979)
(0.00035768 -1.07355 -0.0106695)
(-0.000429942 -0.433193 0.00208607)
(0.000525452 -0.0593641 0.000977591)
(-4.9639e-05 -0.0392133 0.000492703)
(-1.02827e-05 -0.0460639 0.000399034)
(-0.000115522 -0.0353172 0.000102958)
(-4.53388e-05 -0.0452875 -0.000444086)
(-6.58127e-05 -0.0433303 -0.000439316)
(-1.38353e-05 -0.031455 4.00818e-05)
(-3.44114e-05 -0.0397524 -0.000193984)
(1.25927e-05 -0.0400218 -0.000335191)
(0.000101123 -0.0415954 -0.000327496)
(0.000297901 -0.0480286 -5.34573e-05)
(-0.000207624 -0.0663681 0.00096074)
(0.00114631 -0.390371 0.00417335)
(0.00128042 -0.846835 -0.000776947)
(-0.00060149 -0.986598 0.00498558)
(0.00545917 -0.858451 0.00427654)
(-0.00773258 -0.991604 0.00110059)
(0.00239105 -0.870941 0.0069757)
(-0.000556237 -1.07378 -0.00873757)
(-0.00234829 -0.424114 0.00226995)
(0.000643299 -0.0585145 0.000669265)
(4.09177e-05 -0.0384384 8.17822e-05)
(8.33076e-05 -0.0445936 0.000385494)
(3.55989e-07 -0.0346638 0.000118878)
(0.000128395 -0.0461053 -0.000111072)
(-0.000201 -0.0449998 -0.00017138)
(-4.16625e-05 -0.0312141 2.05797e-05)
(9.07336e-05 -0.0419279 -0.00023226)
(2.08949e-05 -0.0419397 -0.000391181)
(8.96816e-05 -0.0424623 -0.000322667)
(0.000257256 -0.04691 -0.000182939)
(2.66928e-05 -0.0635636 0.000941193)
(0.00262326 -0.382257 0.00439838)
(0.00263978 -0.834961 0.00104222)
(-0.000218242 -0.959934 0.00719761)
(0.00342115 -0.808699 0.00542859)
(-0.00680553 -0.88703 0.00338868)
(0.00219547 -0.785718 0.00692602)
(-0.00224288 -1.0652 -0.00634391)
(-0.00389905 -0.412595 0.00234849)
(0.000255789 -0.0622155 -0.000303716)
(0.000100589 -0.0409801 -0.00128957)
(0.000141909 -0.0434811 0.000963679)
(7.46089e-05 -0.0353175 -0.000503762)
(0.000330034 -0.0439998 0.00110742)
(-0.000316043 -0.0425896 0.00114514)
(-4.04419e-05 -0.0325513 -0.00036607)
(0.00015543 -0.0410705 0.000720672)
(-9.05805e-05 -0.0425452 0.000297168)
(-1.8832e-05 -0.043502 0.000197766)
(0.000219585 -0.0486008 -3.04585e-05)
(0.000585023 -0.0620046 0.00155514)
(0.00395795 -0.368981 0.0052403)
(0.0040423 -0.813556 0.00308934)
(-0.000201966 -0.911386 0.0103584)
(0.0020834 -0.726096 0.00729391)
(-0.00270416 -0.720057 0.0060018)
(0.00129857 -0.642103 0.0059974)
(-0.00357188 -1.04555 -0.00228432)
(-0.00500375 -0.390089 0.00379518)
(-0.0017632 -0.0730154 -0.00299959)
(-0.000286887 -0.0555677 -0.00446201)
(8.23529e-05 -0.0448313 -0.00129816)
(2.54643e-05 -0.0430289 -0.00258722)
(0.000126037 -0.0429497 -0.000632903)
(-0.00013178 -0.0408914 -0.000404886)
(-3.8282e-05 -0.0377844 -0.00194442)
(-7.75396e-06 -0.0419215 -0.00124902)
(5.2102e-06 -0.0472691 -0.00226074)
(8.42637e-05 -0.0499051 -0.00265272)
(0.000269333 -0.0583271 -0.00344441)
(0.00183107 -0.068556 -0.00118382)
(0.00427553 -0.344273 0.0082051)
(0.00474827 -0.775799 0.00782499)
(0.000303694 -0.830095 0.0132708)
(-0.000109374 -0.596632 0.00873697)
(-0.00115903 -0.571075 0.0039385)
(0.000384644 -0.514455 0.00356058)
(-0.00345854 -1.01786 -0.000745038)
(-0.00521164 -0.355559 0.00367154)
(-0.00374821 -0.109125 -0.00221912)
(-0.000553833 -0.0990963 -0.00316223)
(-0.000287129 -0.073865 -0.00213809)
(-0.0001094 -0.0692406 -0.00208976)
(-0.000118452 -0.0663459 -0.00167969)
(2.46754e-05 -0.0612564 -0.00147933)
(9.57157e-05 -0.0574315 -0.00161189)
(0.000183994 -0.0688324 -0.00207127)
(0.000140644 -0.0831974 -0.0028362)
(0.000214874 -0.0905707 -0.00311672)
(0.000301344 -0.107908 -0.00350696)
(0.00342021 -0.101271 -0.00209468)
(0.00378669 -0.303755 0.008017)
(0.00395706 -0.728727 0.00692498)
(0.000593588 -0.756544 0.00793465)
(-0.00121549 -0.493583 0.00529864)
(-0.259329 -1.05275 -0.546233)
(0.0351883 -1.05844 -0.557476)
(0.115689 -0.88185 -0.498534)
(0.167719 -0.620195 -0.324786)
(0.216764 -0.416568 -0.206697)
(0.218711 -0.285163 -0.343761)
(0.146801 -0.180178 -0.265863)
(0.043794 -0.135082 -0.251918)
(0.0086876 -0.134932 -0.244952)
(-0.014442 -0.138213 -0.241143)
(-0.0359383 -0.149436 -0.282839)
(-0.0909059 -0.242206 -0.213453)
(-0.135044 -0.24726 -0.138639)
(-0.178529 -0.243687 -0.144785)
(-0.208423 -0.289209 -0.163581)
(-0.195387 -0.387817 -0.208841)
(-0.139158 -0.578183 -0.304039)
(-0.089878 -0.777484 -0.440359)
(-0.0191613 -0.912612 -0.474531)
(0.229424 -0.870823 -0.467917)
(0.0065861 -1.15866 -0.0808097)
(0.000928652 -1.10076 -0.0746841)
(0.00219752 -0.909709 -0.0560948)
(0.00101048 -0.522304 -0.0149703)
(0.0145858 -0.266678 -0.169945)
(0.0601908 -0.0691679 -0.863236)
(0.00505056 -0.0672998 -0.497839)
(-0.00506811 -0.0936786 -0.381265)
(-0.000273162 -0.109793 -0.321119)
(-0.000984823 -0.103633 -0.328535)
(-0.000827157 -0.0809115 -0.532081)
(0.00161294 -0.0897304 -0.534569)
(-0.00289132 -0.116273 -0.247484)
(-0.00152113 -0.110582 -0.268068)
(-0.0266872 -0.139568 -0.22511)
(-0.0347745 -0.272025 -0.164544)
(-0.00136219 -0.493195 -0.0126679)
(-0.00352635 -0.797074 -0.0501898)
(-0.000354269 -0.951061 -0.0596431)
(-0.00290709 -0.914182 -0.0640697)
(0.00319185 -1.20913 -0.0290888)
(0.00328174 -1.11618 -0.0213721)
(0.00401284 -0.935239 -0.0217237)
(-0.00041425 -0.544896 -0.0125988)
(0.00472909 -0.311862 -0.0812063)
(0.00256512 -0.149341 -0.185549)
(0.00178799 -0.12076 -0.215845)
(0.000489015 -0.114922 -0.229459)
(-2.90048e-05 -0.120956 -0.215671)
(-0.00033565 -0.127219 -0.205552)
(-0.00116676 -0.124999 -0.220604)
(0.00774684 -0.133202 -0.205014)
(0.000763845 -0.130726 -0.18439)
(-0.000285862 -0.126032 -0.184122)
(-0.00114017 -0.157673 -0.147766)
(-0.00524587 -0.318924 -0.0822259)
(-0.000424791 -0.537613 -0.014478)
(-0.004713 -0.813646 -0.0173259)
(-0.00272421 -0.967181 -0.0164975)
(-0.00220498 -0.945013 -0.0224461)
(0.00611061 -1.18913 -0.010334)
(0.00231121 -1.08225 -0.00819786)
(0.00352192 -0.904901 -0.0028868)
(-0.0002171 -0.492855 0.00248389)
(0.000974117 -0.294978 -0.081718)
(-0.000951619 -0.123618 -0.209664)
(0.000496992 -0.104767 -0.258744)
(-0.00015805 -0.10661 -0.252135)
(-3.45401e-05 -0.116263 -0.228915)
(-3.38352e-05 -0.119523 -0.219944)
(-0.000263416 -0.113361 -0.23393)
(-0.000455877 -0.117253 -0.22835)
(-0.000362193 -0.122033 -0.229938)
(-0.000528255 -0.120297 -0.228643)
(0.000284275 -0.151406 -0.174423)
(-0.000857184 -0.300871 -0.0825305)
(-0.000765259 -0.485586 0.000196824)
(-0.00581969 -0.784926 7.04159e-05)
(-0.00181701 -0.944604 -0.00215874)
(-0.0049023 -0.918457 -0.00520887)
(0.00171394 -1.21624 -0.0135759)
(0.00303777 -1.08596 -0.010528)
(0.0045637 -0.929659 -0.00571519)
(0.00316793 -0.49939 0.000443174)
(0.00369689 -0.286702 -0.0831614)
(-0.000921713 -0.131348 -0.187314)
(0.000269246 -0.109102 -0.241246)
(-7.28046e-05 -0.107587 -0.244606)
(-4.68882e-05 -0.116659 -0.22405)
(-5.87398e-05 -0.121428 -0.214558)
(-5.98419e-05 -0.116182 -0.222566)
(-0.000115237 -0.12297 -0.209486)
(-0.000176375 -0.121074 -0.211925)
(-0.000636448 -0.119754 -0.217895)
(7.26276e-05 -0.148996 -0.169638)
(-0.00379036 -0.293052 -0.0838379)
(-0.00314263 -0.488223 -0.00105985)
(-0.00798959 -0.807519 -0.00176714)
(-0.00257275 -0.960869 -0.00219147)
(-0.000280518 -0.936711 -0.00699852)
(0.00261547 -1.22683 -0.0150437)
(0.00245856 -1.07842 -0.00995998)
(0.00376319 -0.936729 -0.0048897)
(0.00121327 -0.481546 0.00267671)
(0.00228424 -0.263867 -0.0858527)
(-0.000719325 -0.121683 -0.199615)
(0.000267819 -0.104029 -0.246968)
(-6.46405e-05 -0.103155 -0.248692)
(-0.000105241 -0.113343 -0.226447)
(-8.43499e-05 -0.116923 -0.216984)
(-1.9049e-05 -0.111162 -0.227927)
(-0.000123245 -0.117011 -0.21579)
(-5.4103e-05 -0.116588 -0.216456)
(-0.000393101 -0.114493 -0.221948)
(0.000178929 -0.140281 -0.175465)
(-0.0024485 -0.270847 -0.0865301)
(-0.00202912 -0.466912 0.00108842)
(-0.00757499 -0.811432 -0.000580752)
(-0.00215122 -0.971941 -0.00157881)
(-0.000199099 -0.938546 -0.00553884)
(0.00145975 -1.2352 -0.0164165)
(0.00184591 -1.07034 -0.00886543)
(0.00390066 -0.951325 -0.00494476)
(0.00260014 -0.476155 0.00364013)
(0.00421009 -0.245061 -0.0839478)
(-0.000356529 -0.117331 -0.197656)
(0.000394502 -0.101253 -0.241717)
(3.76825e-05 -0.0995461 -0.245524)
(-0.000135555 -0.109434 -0.223189)
(-6.23053e-05 -0.114194 -0.213595)
(1.73835e-05 -0.107286 -0.223757)
(5.44275e-05 -0.113274 -0.211139)
(0.000191451 -0.111725 -0.213588)
(-0.000130745 -0.109176 -0.219799)
(0.000262251 -0.132824 -0.175197)
(-0.0044287 -0.251239 -0.0850085)
(-0.00312711 -0.457096 0.00221504)
(-0.00728644 -0.823699 -0.000561771)
(-0.00213094 -0.986244 -0.00197267)
(0.000207735 -0.945062 -0.00530781)
(0.000219514 -1.23634 -0.0163856)
(0.00149778 -1.06146 -0.00707537)
(0.00367438 -0.965567 -0.00443544)
(0.00298435 -0.469453 0.00557366)
(0.00374149 -0.201954 -0.075202)
(0.00101047 -0.105009 -0.194636)
(0.000463708 -0.0931925 -0.233127)
(4.21896e-05 -0.0906208 -0.235905)
(-0.000316522 -0.100278 -0.21186)
(7.09914e-05 -0.103332 -0.201887)
(0.000232733 -0.0974619 -0.213391)
(0.000341196 -0.102902 -0.200735)
(0.000523758 -0.101836 -0.203417)
(0.000317252 -0.0991859 -0.210832)
(-0.000213271 -0.116842 -0.16928)
(-0.00379888 -0.20794 -0.0766064)
(-0.00347712 -0.446219 0.0041241)
(-0.00697785 -0.83377 -0.000489835)
(-0.00172649 -0.997107 -0.00170929)
(0.000614686 -0.946675 -0.0043356)
(-0.00094504 -1.23468 -0.0165693)
(0.00092467 -1.05294 -0.00531002)
(0.00351356 -0.98247 -0.0045277)
(0.00430718 -0.474258 0.00638392)
(-0.000446566 -0.141221 -0.0287836)
(-0.00160897 -0.0708 -0.145375)
(0.000639339 -0.0634565 -0.171753)
(-8.09019e-05 -0.0601231 -0.173815)
(-0.000958412 -0.0663128 -0.151585)
(0.000575246 -0.0689534 -0.141695)
(0.000239414 -0.0647308 -0.153418)
(-0.00017314 -0.0685139 -0.140792)
(0.000800611 -0.0672441 -0.143909)
(0.000245327 -0.0658168 -0.153941)
(0.00273442 -0.0764781 -0.12162)
(-0.000116968 -0.145098 -0.0317257)
(-0.00455816 -0.446612 0.00534944)
(-0.00620512 -0.843938 -0.000489333)
(-0.00147547 -1.00783 -0.00157158)
(0.00130581 -0.948686 -0.00304525)
(-0.0014541 -1.22967 -0.0160254)
(0.000355526 -1.04447 -0.00314102)
(0.00347946 -1.0004 -0.00538136)
(0.00373647 -0.484395 0.00327909)
(0.00141369 -0.0843093 0.00793849)
(0.000424695 -0.034988 0.0037978)
(0.00040703 -0.0316979 0.00403038)
(0.00016215 -0.0220573 0.00393474)
(0.000185435 -0.0312564 0.00446643)
(-0.000126069 -0.032462 0.0046568)
(6.84394e-07 -0.0249116 0.00428886)
(0.000166664 -0.0327153 0.00461048)
(-1.01938e-05 -0.0321454 0.00451308)
(-0.000277796 -0.0325299 0.00433287)
(-0.000396751 -0.0403785 0.00459609)
(-0.00191127 -0.080105 0.00873)
(-0.00317442 -0.453583 0.00294811)
(-0.0052356 -0.852359 -0.000994943)
(-0.000926321 -1.01593 -0.00141915)
(0.00205893 -0.94867 -0.00201864)
(-0.0017773 -1.22254 -0.0150395)
(-6.41863e-05 -1.03792 -0.00135151)
(0.003621 -1.01769 -0.00595306)
(0.00380577 -0.485549 0.00130318)
(0.000217271 -0.0944605 0.000260478)
(-0.000396915 -0.044489 -0.000328678)
(1.58368e-05 -0.0300947 -0.000308832)
(5.17691e-05 -0.027253 -0.0001271)
(-7.76906e-05 -0.0273501 1.81293e-05)
(0.000139683 -0.028131 2.7726e-05)
(7.24658e-06 -0.0289067 -2.0565e-05)
(-0.000104287 -0.0284714 1.17804e-05)
(-2.96079e-06 -0.027798 7.30768e-05)
(-6.79442e-05 -0.028768 3.68255e-05)
(0.000101563 -0.0384987 -0.000309227)
(8.2279e-05 -0.0868331 -0.000338869)
(-0.00230029 -0.451336 0.00141981)
(-0.00472915 -0.859346 -0.00133692)
(-0.000689452 -1.02296 -0.000767064)
(0.00232099 -0.947767 -0.000997823)
(-0.00246728 -1.21177 -0.0134615)
(-0.000593693 -1.03067 0.000171304)
(0.0036238 -1.03533 -0.0063547)
(0.00445699 -0.479405 0.00201881)
(-0.000243185 -0.0852599 0.000225484)
(-0.000528315 -0.0435597 -0.000172355)
(-0.000159044 -0.0424564 -0.00172386)
(5.53434e-05 -0.0273097 -0.000228238)
(-3.49905e-05 -0.0366656 -0.00113289)
(0.000128982 -0.037619 -0.00105506)
(1.95492e-05 -0.0283039 -7.02829e-05)
(-5.7801e-05 -0.0379626 -0.00103491)
(7.88547e-06 -0.0366015 -0.00093725)
(0.000118305 -0.0377851 -0.000966458)
(0.000382244 -0.0506104 -0.00116587)
(0.000879193 -0.0938846 -0.00154905)
(-0.00289549 -0.443105 0.0023541)
(-0.0041412 -0.865307 -0.00175775)
(-0.000674333 -1.02772 -0.000461901)
(0.00303138 -0.944739 -1.55595e-05)
(-0.00350739 -1.1984 -0.0120842)
(-0.00055059 -1.02261 0.00150495)
(0.00364214 -1.05505 -0.00756478)
(0.00440072 -0.474952 0.00202318)
(0.000315849 -0.0819747 0.000278527)
(-0.000173171 -0.046598 -0.000162278)
(-0.000211874 -0.04825 -0.000683422)
(-5.09918e-06 -0.031024 -0.000331714)
(0.000188518 -0.0374544 -0.000280234)
(-0.000100974 -0.0369234 -0.000129955)
(3.51875e-05 -0.0297345 -6.39117e-05)
(0.000176671 -0.0367032 -6.81204e-05)
(2.52348e-05 -0.0351343 -5.29456e-05)
(0.000127724 -0.0366208 -3.5383e-05)
(0.000226881 -0.0469478 0.000208124)
(8.82616e-05 -0.0833402 0.000487399)
(-0.00261836 -0.436248 0.00286322)
(-0.00356877 -0.871344 -0.00179616)
(-0.000766116 -1.03134 0.000579187)
(0.00490727 -0.94053 0.00121561)
(-0.00418782 -1.18108 -0.0112976)
(-0.000620495 -1.01257 0.00219691)
(0.00338257 -1.07389 -0.00957843)
(0.00335467 -0.469019 0.00221325)
(0.000333778 -0.0749876 0.000468651)
(-0.000111207 -0.0449625 0.000154266)
(-0.000234465 -0.0500546 -0.000204245)
(-0.000162145 -0.0328084 -0.000247771)
(-4.56917e-05 -0.0395225 -0.000380956)
(5.34552e-06 -0.0384062 -0.000299837)
(3.43992e-05 -0.0293379 -3.83198e-05)
(-1.86546e-05 -0.0377773 -0.000184403)
(3.77692e-05 -0.0363158 -0.00018608)
(0.000100866 -0.0376895 -0.000114259)
(0.000214384 -0.0463505 0.00012521)
(-3.01652e-06 -0.0804505 0.000545224)
(-0.00153523 -0.428773 0.00341182)
(-0.00228951 -0.875836 -0.0024284)
(-0.000887083 -1.03495 0.000592651)
(0.00555081 -0.934139 0.00151449)
(-0.00364671 -1.1552 -0.00954924)
(-0.000618231 -0.998943 0.0022119)
(0.00258667 -1.08609 -0.0108418)
(0.00162791 -0.462293 0.00196019)
(0.000509606 -0.0692729 0.000628628)
(-3.8334e-05 -0.0422747 0.000348859)
(-0.000114823 -0.0492831 0.00014699)
(-0.000171685 -0.0348833 -0.000125591)
(-5.77748e-05 -0.0430871 -0.000445293)
(-2.25116e-05 -0.0416917 -0.000372216)
(3.17945e-05 -0.0305175 -5.69599e-05)
(-6.43364e-06 -0.0399193 -0.000155694)
(1.11527e-05 -0.0383632 -0.000221768)
(4.19952e-05 -0.0388725 -0.00019066)
(0.00028331 -0.0462409 1.41366e-05)
(-5.5905e-05 -0.0743098 0.000720176)
(-0.000342799 -0.421954 0.00352102)
(-0.000754315 -0.876339 -0.00234811)
(-0.00104662 -1.03244 0.00198255)
(0.00570152 -0.922057 0.00198796)
(-0.00530527 -1.1103 -0.00623636)
(0.00115794 -0.974079 0.00195294)
(0.0017223 -1.09268 -0.0104391)
(-0.000368866 -0.45587 0.00158263)
(0.000652017 -0.0633302 0.0007746)
(-4.89498e-05 -0.0389585 0.000376748)
(-4.02626e-07 -0.047379 0.000299687)
(-0.000105636 -0.034588 6.57259e-05)
(-4.18862e-05 -0.0451118 -0.000359866)
(-6.19672e-05 -0.0431327 -0.000361197)
(-1.45513e-05 -0.0304139 1.71404e-05)
(-3.27833e-05 -0.0397507 -0.000178862)
(1.10075e-05 -0.0394072 -0.00026097)
(9.44999e-05 -0.0406137 -0.00024483)
(0.00028213 -0.0466988 -4.3822e-05)
(-0.000337142 -0.0698846 0.000731923)
(0.000974637 -0.415128 0.00362359)
(0.000624571 -0.871784 -0.00120689)
(-0.00104399 -1.02277 0.0034388)
(0.00588206 -0.899084 0.00174258)
(-0.00890204 -1.0471 -0.00507627)
(0.00309462 -0.932554 0.00140876)
(0.000959032 -1.09312 -0.00874707)
(-0.00216664 -0.448446 0.00143881)
(0.000799384 -0.0589644 0.000659886)
(3.61867e-05 -0.0368824 0.000108836)
(9.1445e-05 -0.0455505 0.000298001)
(4.75017e-06 -0.0336086 0.000101348)
(0.000128116 -0.0466522 -0.000103697)
(-0.00019446 -0.0452684 -0.000137732)
(-3.95827e-05 -0.0300426 2.52677e-05)
(9.04079e-05 -0.0416391 -0.000156756)
(2.24166e-05 -0.0414386 -0.000277702)
(8.07534e-05 -0.0419487 -0.000240075)
(0.000238907 -0.0461827 -0.000128338)
(-0.000158001 -0.0660669 0.000735831)
(0.00233223 -0.40887 0.00354439)
(0.00196178 -0.861848 2.2747e-05)
(-0.000722213 -1.0024 0.00437355)
(0.00411502 -0.85783 0.00105257)
(-0.00833695 -0.965142 -0.00763632)
(0.00297556 -0.868102 -0.00272609)
(-0.000988752 -1.08703 -0.00712213)
(-0.00360744 -0.441222 0.00092582)
(0.000408301 -0.0586994 4.54252e-05)
(9.15532e-05 -0.0380482 -0.00073497)
(0.000135867 -0.0440749 0.000943978)
(7.04147e-05 -0.0336383 -0.000269923)
(0.000325536 -0.04535 0.00102126)
(-0.000309023 -0.0438976 0.00102555)
(-3.43376e-05 -0.030748 -0.000199395)
(0.000153165 -0.0416155 0.000739649)
(-8.86461e-05 -0.0426676 0.000469684)
(-1.90472e-05 -0.0434442 0.000412793)
(0.000200027 -0.0478824 0.000313434)
(0.000346165 -0.063416 0.00154996)
(0.00354376 -0.400666 0.00378907)
(0.00344057 -0.845407 0.00115863)
(-0.000708305 -0.966428 0.00535591)
(0.00317747 -0.793444 -0.000856302)
(-0.00454008 -0.852162 -0.00831715)
(0.00190902 -0.773574 -0.00607898)
(-0.00305446 -1.07605 -0.00408438)
(-0.00477022 -0.43261 0.00153268)
(-0.0014432 -0.0667552 -0.00152914)
(-0.0002609 -0.0506258 -0.00251813)
(5.83456e-05 -0.0422444 -0.000373624)
(2.16198e-05 -0.0396565 -0.00147017)
(0.000108176 -0.0412238 3.94447e-05)
(-0.00011536 -0.0392041 0.000138066)
(-3.31339e-05 -0.0348382 -0.00113059)
(-4.12341e-06 -0.0396711 -0.000402025)
(1.0375e-05 -0.043946 -0.000976815)
(8.23917e-05 -0.0462079 -0.00117589)
(0.000237322 -0.0535006 -0.0015677)
(0.00145321 -0.0636164 -6.22724e-05)
(0.00375168 -0.391926 0.00562644)
(0.00451804 -0.821626 0.00450358)
(3.02618e-05 -0.914176 0.00662327)
(0.00144423 -0.707972 -0.00209075)
(-0.00272388 -0.789817 -0.005289)
(0.000318293 -0.723652 -0.00420917)
(-0.00366033 -1.06716 -0.0027367)
(-0.0052756 -0.425915 0.00127563)
(-0.00343563 -0.0950779 -0.000943113)
(-0.000503187 -0.0857978 -0.00148691)
(-0.000261157 -0.0646 -0.00103609)
(-0.000100183 -0.0608502 -0.00105419)
(-0.000112824 -0.0588556 -0.000829073)
(3.12467e-05 -0.0548439 -0.000769824)
(8.70028e-05 -0.0512162 -0.00086724)
(0.000160787 -0.0610114 -0.00106191)
(0.000127375 -0.0727661 -0.00142341)
(0.000192647 -0.077912 -0.00148903)
(0.000270251 -0.0920799 -0.00159616)
(0.00308472 -0.0889349 -0.000957818)
(0.00355909 -0.386204 0.0052512)
(0.0041058 -0.802209 0.00351278)
(0.000774059 -0.882516 0.00297524)
(0.000124556 -0.664171 -0.00156057)
(-0.274985 -1.04594 -0.489171)
(0.0368766 -1.05621 -0.506513)
(0.122755 -0.877634 -0.451644)
(0.177062 -0.621128 -0.293405)
(0.228982 -0.41676 -0.188886)
(0.22199 -0.283828 -0.333881)
(0.146074 -0.176068 -0.257769)
(0.0424585 -0.132387 -0.247093)
(0.00889592 -0.132404 -0.240812)
(-0.0141277 -0.135747 -0.236548)
(-0.0362903 -0.14736 -0.277413)
(-0.0912196 -0.24131 -0.208057)
(-0.136468 -0.246356 -0.132097)
(-0.181184 -0.240921 -0.137047)
(-0.213465 -0.285915 -0.153028)
(-0.205048 -0.385964 -0.191378)
(-0.146909 -0.579843 -0.275154)
(-0.0950369 -0.774222 -0.399057)
(-0.0202966 -0.909937 -0.430433)
(0.242506 -0.867762 -0.42223)
(0.00408576 -1.162 -0.0756826)
(0.00100029 -1.114 -0.0726237)
(0.00379094 -0.918543 -0.0542771)
(0.00365055 -0.547662 -0.0170377)
(0.0159642 -0.260763 -0.173968)
(0.0604291 -0.0678122 -0.865399)
(0.00477836 -0.0652097 -0.497682)
(-0.00501205 -0.091686 -0.381618)
(-0.000250014 -0.106874 -0.321474)