/*--------------------------------*- C++ -*----------------------------------*\
| =========                 |                                                 |
| \\      /  F ield         | OpenFOAM: The Open Source CFD Toolbox           |
|  \\    /   O peration     | Version:  2.3.0                                 |
|   \\  /    A nd           | Web:      www.OpenFOAM.org                      |
|    \\/     M anipulation  |                                                 |
\*---------------------------------------------------------------------------*/
FoamFile
{
    version     2.0;
    format      ascii;
    class       volScalarField;
    location    "0.94";
    object      nut.air;
}
// * * * * * * * * * * * * * * * * * * * * * * * * * * * * * * * * * * * * * //

dimensions      [0 2 -1 0 0 0 0];

internalField   nonuniform List<scalar> 
6000
(
0.000508091
0.00436889
0.00741293
0.00836535
0.00874974
0.00894397
0.0090554
0.00911663
0.00914036
0.00915916
0.00915628
0.00916475
0.00919082
0.00920512
0.00921076
0.00924774
0.00927975
0.00927804
0.00927845
0.0093001
0.00934501
0.00929809
0.00912612
0.00886859
0.00868861
0.00847431
0.00818692
0.00720828
0.003975
0.000510326
0.000437155
0.00314459
0.00589185
0.00761082
0.00849025
0.00897654
0.00926083
0.00944231
0.00956507
0.00960238
0.00961386
0.00965687
0.00968866
0.00971867
0.00975632
0.00979302
0.00984231
0.00988985
0.0099345
0.00996854
0.00989342
0.00971322
0.00947498
0.00933672
0.0090359
0.00832613
0.00720791
0.0054113
0.00259
0.00041747
0.000396215
0.00284906
0.00539913
0.00714234
0.00819943
0.00887604
0.00926125
0.00947203
0.00960754
0.00970825
0.00980776
0.00991159
0.0100112
0.0101452
0.0102456
0.0103108
0.0103443
0.010364
0.0104082
0.0104162
0.0103197
0.0100679
0.00979968
0.00945026
0.00906404
0.00849279
0.00710364
0.00510222
0.00237655
0.000350715
0.000377313
0.00269206
0.00498709
0.00669138
0.00791667
0.00872919
0.00922564
0.00952426
0.00972189
0.00989627
0.0100671
0.0102175
0.0103516
0.0105293
0.0106793
0.01079
0.0108322
0.0108219
0.010822
0.0107806
0.0106304
0.010344
0.0100438
0.00957345
0.00910248
0.00854584
0.00726195
0.00521185
0.00254633
0.000328207
0.000365884
0.00249419
0.00463555
0.00638625
0.00771212
0.00863872
0.00924067
0.00961462
0.00986843
0.0101246
0.0103437
0.0105461
0.0107502
0.0109696
0.0111509
0.0112905
0.0113534
0.011337
0.0112962
0.0111882
0.0109541
0.0106329
0.0102216
0.00970999
0.00918945
0.0085231
0.00737166
0.00539657
0.00263231
0.000331702
0.00034817
0.00228192
0.00443545
0.00629265
0.00768397
0.00866905
0.00933847
0.00978402
0.0100974
0.0103976
0.0107093
0.010964
0.0111969
0.0114117
0.0115919
0.0117597
0.0118521
0.0118247
0.011783
0.0116195
0.0113014
0.0108574
0.0102692
0.00974377
0.00919879
0.00847764
0.00734736
0.00545333
0.00270585
0.000344823
0.000317782
0.0021804
0.00449336
0.00636067
0.00776523
0.00878655
0.00950604
0.0100105
0.010368
0.0107471
0.0110889
0.0113522
0.011595
0.0118218
0.0120211
0.0122084
0.0123203
0.0123143
0.0122288
0.0119838
0.0115449
0.010939
0.0103301
0.00971935
0.00909864
0.00829125
0.00711641
0.00533773
0.00277374
0.000345505
0.000303287
0.00224271
0.00464669
0.00653634
0.00794779
0.00900751
0.00979335
0.0103507
0.010776
0.0111619
0.0114772
0.0117479
0.0120178
0.0122684
0.0124676
0.0126629
0.0127847
0.0127163
0.0125228
0.0121487
0.0116423
0.0110559
0.0103983
0.00968937
0.00893957
0.00803469
0.00682105
0.00509153
0.00277411
0.000344727
0.000314164
0.00251858
0.00500496
0.00688371
0.00830423
0.00938898
0.0102277
0.0108599
0.011331
0.0116799
0.0119501
0.012211
0.0125091
0.0127691
0.0129431
0.013107
0.0131343
0.0129644
0.0126752
0.0122937
0.0117985
0.0112132
0.0105233
0.00974601
0.00888195
0.0078707
0.00659521
0.00489228
0.00274692
0.000342327
0.000357059
0.00281308
0.00531712
0.00720679
0.00864214
0.009746
0.010618
0.0112848
0.011775
0.0121364
0.0124296
0.0127028
0.0129996
0.0132369
0.0133585
0.0134296
0.0133235
0.0131452
0.0128667
0.0124819
0.0120036
0.0114267
0.0107212
0.00989796
0.0089506
0.00784215
0.00648634
0.00476041
0.00270832
0.000339035
0.000366835
0.00287033
0.00534202
0.00722892
0.0086943
0.00988825
0.0108266
0.0115359
0.0120665
0.0124624
0.0127831
0.01307
0.0133688
0.0136047
0.0136949
0.0136734
0.0135666
0.0133831
0.0130983
0.0127222
0.0122608
0.0116951
0.0109858
0.0101323
0.0091255
0.0079331
0.00649358
0.00472067
0.00266878
0.000334864
0.000361242
0.00281838
0.00521127
0.00707126
0.0085867
0.00985612
0.0108757
0.0116402
0.0122117
0.0126477
0.0129915
0.0132831
0.013564
0.0138283
0.0139686
0.0139333
0.0138232
0.0136414
0.0133596
0.0129927
0.0125394
0.0119841
0.0112852
0.0104206
0.00936978
0.00811012
0.00659441
0.00476185
0.00267883
0.000339463
0.000349019
0.00264928
0.00492289
0.00676128
0.00834203
0.00971778
0.0108308
0.0116737
0.0123232
0.0128248
0.013218
0.0135368
0.0138195
0.0140688
0.0141926
0.0141876
0.0140939
0.013915
0.013632
0.0132748
0.0128282
0.0122886
0.0115755
0.0106886
0.00962306
0.00832449
0.0067366
0.00482683
0.00270312
0.000340734
0.000334746
0.00245895
0.0045754
0.0063787
0.00802327
0.00952845
0.0107473
0.0116862
0.0124189
0.0129894
0.0134364
0.0137958
0.0140987
0.014346
0.0144651
0.0144701
0.0143887
0.014211
0.0139369
0.0135855
0.0131337
0.0125931
0.0118928
0.0109897
0.00986747
0.00849654
0.00683088
0.00482926
0.00265642
0.000330308
0.000320357
0.00222063
0.00417798
0.0059654
0.007696
0.00933967
0.0106685
0.0117104
0.0125303
0.0131762
0.013674
0.0140603
0.0143787
0.0146441
0.0147742
0.0147854
0.0147049
0.0145331
0.0142657
0.0139074
0.0134272
0.012846
0.0121378
0.0112213
0.0101016
0.00869725
0.00693252
0.00479843
0.00251095
0.000320455
0.000304114
0.00190902
0.00376125
0.00558606
0.00743187
0.00921086
0.010643
0.0117693
0.0126559
0.013359
0.0139081
0.0143365
0.014682
0.0149891
0.0151266
0.0151409
0.0150631
0.0148918
0.0146213
0.0142365
0.0137095
0.0130562
0.0122978
0.01138
0.0102462
0.00881027
0.00698417
0.0047451
0.00242833
0.0003219
0.000283422
0.00159514
0.00342859
0.00535227
0.00733438
0.00921642
0.0107313
0.0119022
0.0128217
0.0135624
0.0141473
0.0146076
0.0149827
0.0153125
0.0154918
0.0155203
0.0154415
0.0152668
0.0149763
0.014549
0.01398
0.013259
0.0124102
0.0114524
0.0103122
0.00887994
0.00704815
0.0048252
0.00256738
0.000330867
0.000260224
0.00139817
0.00331343
0.00537793
0.00749902
0.0094198
0.0109673
0.0121395
0.0130586
0.0138097
0.0144092
0.0148816
0.0152574
0.0155757
0.0158339
0.0158984
0.0158238
0.0156395
0.0153189
0.0148566
0.0142472
0.0134741
0.0125286
0.011489
0.0103183
0.00890825
0.00712664
0.00503991
0.00280065
0.000337305
0.000240077
0.00140206
0.00349591
0.00573185
0.00790271
0.00981486
0.0113819
0.0125412
0.0134073
0.0141333
0.0147179
0.0151894
0.0155756
0.0159021
0.0161868
0.0163045
0.016229
0.0160212
0.0156718
0.0151873
0.0145475
0.0137214
0.0127089
0.0115651
0.0103524
0.00896509
0.00729071
0.00535105
0.00308388
0.000338309
0.000228363
0.00159802
0.00392081
0.00629419
0.00851489
0.0104341
0.0119908
0.0131304
0.0139214
0.0145832
0.0151301
0.0155852
0.0159634
0.0162761
0.0165496
0.0167354
0.0166689
0.016439
0.0160744
0.0155619
0.0148888
0.0140311
0.0129769
0.0117513
0.0104769
0.0090896
0.00745742
0.00554917
0.00316433
0.000345336
0.000228869
0.00184807
0.00450786
0.00705205
0.00927504
0.0111549
0.0126826
0.0138148
0.0145585
0.0151695
0.0156905
0.0161188
0.0164603
0.0167503
0.0169994
0.0171875
0.0171295
0.0168781
0.0164864
0.0159424
0.0152374
0.0143422
0.0132523
0.0120092
0.0106984
0.00930789
0.00771264
0.00576266
0.00319635
0.000376806
0.000238919
0.00229283
0.00522975
0.00784014
0.0100492
0.0119017
0.0134138
0.0145613
0.0152814
0.0158318
0.0163416
0.0167762
0.0171155
0.017384
0.0175792
0.0176651
0.0175747
0.0173075
0.016894
0.0163231
0.0155647
0.0146362
0.0135259
0.0122324
0.0108346
0.00934603
0.00766533
0.00563733
0.00310841
0.000380519
0.000263125
0.0026759
0.0058292
0.00855281
0.0107837
0.0126299
0.0141422
0.0153194
0.0160561
0.0165512
0.0170347
0.0174451
0.0177698
0.0180073
0.0181489
0.0181453
0.0179876
0.0176943
0.0172446
0.0166392
0.0158308
0.0148616
0.0137271
0.0124091
0.0109264
0.00932588
0.00755428
0.00546942
0.00297548
0.000362858
0.00029158
0.00298087
0.00634914
0.00917746
0.0114602
0.0133228
0.0148463
0.0160565
0.0168365
0.0173024
0.0177597
0.0181358
0.0184164
0.0186073
0.0186891
0.018611
0.0183815
0.0180282
0.0175197
0.0168048
0.0159435
0.0149478
0.0137971
0.0124689
0.0109696
0.00930394
0.00743826
0.00530507
0.00287681
0.000341654
0.000317173
0.00326261
0.00680568
0.00973826
0.0120874
0.0139828
0.0155247
0.0167664
0.0175911
0.0180486
0.0184786
0.0188116
0.0190448
0.0191754
0.0191822
0.0190388
0.0187541
0.018312
0.0177126
0.0169444
0.0160478
0.0150343
0.0138762
0.0125478
0.0110449
0.00936566
0.00748429
0.00534633
0.00288856
0.000333472
0.000339845
0.00351918
0.00721845
0.0102561
0.0126752
0.0146138
0.0161837
0.0174525
0.0183099
0.0187583
0.0191511
0.0194415
0.0196239
0.0196761
0.0196081
0.0194224
0.019083
0.0185616
0.0178777
0.0170757
0.0161568
0.0151237
0.0139587
0.0126377
0.0111457
0.00947441
0.00759826
0.00545595
0.00293511
0.000331392
0.000360768
0.00375292
0.00759842
0.0107398
0.0132287
0.0152131
0.0168152
0.0181047
0.0189785
0.0194074
0.0197608
0.0200132
0.0201334
0.0201185
0.0200116
0.019789
0.0193867
0.0187958
0.0180738
0.0172396
0.0162981
0.015244
0.0140673
0.0127494
0.0112679
0.00960559
0.00773222
0.00557087
0.00297614
0.000331139
0.00038115
0.00395874
0.0079475
0.0111902
0.0137441
0.0157709
0.0174019
0.018702
0.0195696
0.0199944
0.0203168
0.0205309
0.0205996
0.0205809
0.0204697
0.0201996
0.0197452
0.01911
0.0183381
0.017465
0.0164948
0.0154167
0.0142201
0.0128909
0.0114051
0.00973837
0.00785259
0.00565148
0.00298789
0.000330319
0.00040135
0.00414569
0.00827341
0.0116049
0.0142129
0.0162731
0.0179257
0.0192304
0.020079
0.0205232
0.0208305
0.0210119
0.021103
0.0211484
0.0210383
0.0207333
0.0202245
0.0195384
0.0187104
0.0177743
0.0167544
0.0156454
0.014425
0.0130726
0.0115604
0.00986513
0.007942
0.00568695
0.00296741
0.000328169
0.000421128
0.00432969
0.0085807
0.0119794
0.0146247
0.0167081
0.0183754
0.0196803
0.0205237
0.0210074
0.0213104
0.021507
0.0217032
0.0217728
0.0216703
0.0213779
0.0208774
0.0201824
0.0193163
0.0183044
0.0171957
0.0160104
0.0147257
0.0133096
0.0117379
0.00998719
0.00800623
0.0056921
0.00292937
0.000324631
0.000443712
0.00451004
0.00886937
0.012306
0.0149739
0.0170793
0.0187602
0.020072
0.020922
0.0214545
0.0217946
0.0221035
0.0223477
0.0224453
0.0223601
0.0220756
0.0215856
0.0208981
0.0200308
0.019005
0.0178389
0.0165643
0.0151968
0.0137041
0.0120482
0.0101923
0.00808663
0.00569705
0.00288983
0.000320556
0.000474035
0.00471983
0.00912825
0.0125841
0.0152769
0.0174106
0.0191081
0.0204223
0.0213011
0.0219076
0.0223612
0.0227526
0.023039
0.0231747
0.0231235
0.0228605
0.0223841
0.0217031
0.0208342
0.0197967
0.018604
0.0172714
0.0158202
0.014249
0.0125114
0.0105422
0.0082824
0.00575322
0.00286988
0.000315996
0.000491213
0.00487825
0.00930882
0.0128163
0.015562
0.0177328
0.0194464
0.0207692
0.0217316
0.022445
0.0229963
0.0234435
0.0237821
0.0239786
0.0239836
0.023753
0.0232936
0.0226125
0.0217334
0.0206797
0.0194665
0.0180995
0.0165865
0.0149305
0.0131038
0.0110411
0.00865935
0.00592369
0.00286353
0.000313944
0.000496806
0.00480574
0.00934793
0.0130328
0.0158744
0.0180987
0.0198457
0.0212067
0.0222486
0.0230495
0.0236787
0.0241918
0.024603
0.0248903
0.0249782
0.0247899
0.0243421
0.0236493
0.0227426
0.0216571
0.0204111
0.0190085
0.0174457
0.0157191
0.0138062
0.0116468
0.00915307
0.00622814
0.00288367
0.000315701
0.000488881
0.00463351
0.00936259
0.0132725
0.0162569
0.0185739
0.0203859
0.0217975
0.0228899
0.0237476
0.024438
0.0250197
0.0255177
0.0259065
0.0260975
0.0259835
0.0255592
0.024831
0.0238697
0.0227296
0.021432
0.0199798
0.0183632
0.0165683
0.0145671
0.0122978
0.00966815
0.0065656
0.00296837
0.00032399
0.000470257
0.00429969
0.00933555
0.0135415
0.0167444
0.0192161
0.0211319
0.022601
0.0236949
0.0245684
0.0252902
0.0259208
0.0264864
0.0269461
0.0272054
0.0271596
0.026806
0.0261256
0.025114
0.0238861
0.0225134
0.0209934
0.0193097
0.0174378
0.0153395
0.0129471
0.0101602
0.00688655
0.0030985
0.00034114
0.000468683
0.00415381
0.00928394
0.0138086
0.0173552
0.0200761
0.0221361
0.0236046
0.0246661
0.0255154
0.0262281
0.0268627
0.0274458
0.0279094
0.0281014
0.0280658
0.0278162
0.0273044
0.0263878
0.0251021
0.0236259
0.022018
0.0202511
0.0182884
0.0160786
0.0135508
0.0106131
0.00723088
0.00337813
0.000370862
0.00048432
0.00430846
0.00953181
0.0142123
0.01803
0.0210146
0.0232013
0.0246819
0.0257546
0.02658
0.0272372
0.0278248
0.0283676
0.0287643
0.0288244
0.02878
0.028575
0.0281843
0.0274723
0.0262738
0.0247304
0.0230132
0.02115
0.0190883
0.0167566
0.0141171
0.011114
0.00767413
0.00377341
0.000399879
0.000529771
0.00485048
0.0101808
0.0148856
0.0187569
0.0218306
0.024118
0.0257331
0.026938
0.0277733
0.0283309
0.0288066
0.0292579
0.0295183
0.0295196
0.0294667
0.0292723
0.02889
0.028279
0.027218
0.0257197
0.0239361
0.021972
0.0198098
0.0174122
0.0147327
0.0116461
0.00807965
0.00401828
0.000417742
0.000575817
0.00548311
0.0110406
0.0157508
0.0195988
0.0226679
0.0250395
0.0267955
0.0280848
0.0290479
0.0295306
0.0298172
0.0301445
0.0302278
0.0302034
0.0301372
0.0299391
0.0295486
0.0289201
0.0279106
0.0264667
0.0246981
0.0227003
0.0205006
0.0180755
0.0153378
0.0121376
0.00840883
0.00411089
0.000429423
0.000610855
0.0060013
0.0118431
0.0166365
0.0204926
0.0235749
0.0260195
0.0278804
0.0292222
0.0302247
0.0307841
0.0308405
0.0310192
0.0309582
0.0308927
0.0308015
0.0305853
0.0301765
0.0295273
0.0284995
0.0270631
0.0253241
0.0233471
0.0211431
0.0186782
0.015879
0.0125884
0.00870963
0.00419828
0.00044316
0.000639112
0.00636829
0.0124936
0.0174363
0.0213589
0.0244804
0.0269814
0.0289365
0.0303483
0.0313157
0.0319168
0.0318344
0.0318362
0.0317036
0.0315978
0.0314705
0.0312268
0.0307971
0.0301254
0.0290695
0.0276136
0.0258864
0.0239272
0.0217257
0.0192344
0.0163783
0.0130167
0.00903959
0.00439317
0.000462195
0.0006633
0.00664925
0.0130251
0.0181365
0.0221564
0.0253382
0.0278938
0.0299323
0.0314399
0.0323924
0.0329319
0.0327886
0.0326196
0.0324538
0.032315
0.0321471
0.031867
0.0314136
0.0307081
0.029601
0.0281264
0.0264081
0.0244689
0.0222791
0.0197792
0.0168855
0.0134676
0.00942421
0.00467859
0.000480581
0.000684339
0.00688295
0.0134747
0.0187485
0.0228772
0.0261346
0.0287506
0.0308725
0.0325013
0.0334709
0.0339189
0.0337279
0.0333996
0.0332044
0.033035
0.0328212
0.0324968
0.0320083
0.0312495
0.0300845
0.0286001
0.0268976
0.024983
0.0228118
0.0203159
0.0174029
0.0139371
0.00980471
0.00491663
0.000495848
0.000702555
0.00707507
0.0138552
0.0192802
0.0235214
0.0268646
0.0295479
0.0317507
0.0335145
0.0345299
0.0348944
0.0346751
0.0341906
0.0339518
0.0337435
0.0334792
0.0331018
0.0325584
0.0317255
0.030524
0.029046
0.0273661
0.025476
0.0233228
0.0208307
0.0178975
0.0143776
0.010136
0.00508854
0.000509862
0.000717083
0.0072214
0.0141606
0.0197268
0.0240843
0.0275214
0.0302797
0.0325577
0.0344585
0.0355276
0.0358268
0.0356175
0.0350023
0.0346904
0.0344306
0.034107
0.0336672
0.0330455
0.0321419
0.0309347
0.0294794
0.0278253
0.0259562
0.0238151
0.021319
0.0183562
0.0147744
0.0104244
0.00522941
0.000523441
0.000727396
0.00727991
0.0143604
0.0200695
0.0245552
0.0280996
0.0309489
0.0333119
0.03532
0.0364251
0.0366826
0.0365367
0.0358432
0.0354194
0.0350902
0.0347015
0.0341846
0.033476
0.03253
0.0313347
0.0299113
0.028284
0.026432
0.0242957
0.021787
0.0187872
0.01514
0.0106889
0.00536216
0.000536484
0.000734497
0.00721301
0.0144109
0.020279
0.0249222
0.0285991
0.0315631
0.0340271
0.036078
0.037217
0.0374738
0.0374319
0.0367376
0.0361548
0.035736
0.0352728
0.034671
0.0338929
0.0329221
0.0317414
0.0303502
0.0287492
0.0269105
0.0247729
0.0222446
0.0192029
0.0154887
0.0109412
0.00549158
0.000549068
0.000749817
0.00706022
0.0142659
0.0203201
0.0251814
0.029028
0.0321243
0.0346812
0.0367241
0.0379222
0.038237
0.0382892
0.0377112
0.0369644
0.0364005
0.035848
0.03517
0.0343347
0.0333397
0.0321697
0.0308058
0.0292277
0.0273985
0.0252543
0.022701
0.0196133
0.0158301
0.0111878
0.00561851
0.000561256
0.000756727
0.00720232
0.0143208
0.0203517
0.0253743
0.029412
0.0326453
0.0352519
0.0372483
0.0385227
0.0389668
0.0390556
0.0387209
0.0379148
0.0371748
0.0364864
0.0357184
0.0348241
0.0338013
0.0326334
0.0312886
0.0297278
0.0279035
0.0257476
0.0231644
0.0200266
0.0161713
0.0114328
0.00574375
0.0005731
0.000772595
0.00742044
0.0146607
0.0206808
0.0256736
0.0297871
0.0331053
0.0356878
0.03762
0.0389649
0.0395727
0.0396939
0.0396382
0.0389444
0.0380852
0.0372392
0.036349
0.0353854
0.0343304
0.0331541
0.0318152
0.0302621
0.0284354
0.0262617
0.0236429
0.02045
0.0165183
0.0116802
0.00586862
0.000584675
0.000779881
0.00774048
0.0151686
0.021231
0.0261885
0.0302182
0.0334553
0.0359747
0.0378796
0.0391946
0.0398981
0.0401757
0.0402578
0.0398593
0.0390376
0.0380732
0.0370704
0.0360415
0.0349541
0.0337609
0.0324113
0.0308489
0.0290073
0.0268066
0.0241449
0.0208908
0.016877
0.011934
0.00599491
0.000596094
0.000780366
0.00790656
0.0155249
0.0217154
0.0266805
0.0306374
0.0337914
0.0362836
0.0381744
0.0394531
0.0401465
0.0404352
0.0405265
0.04044
0.0398641
0.0389121
0.037849
0.0367833
0.0356804
0.0344723
0.0331001
0.0315095
0.0296352
0.0273938
0.0246792
0.0213561
0.0172534
0.0121986
0.00612481
0.000607506
0.000780877
0.00794558
0.0156571
0.0219417
0.026966
0.0309619
0.0341367
0.036654
0.0385418
0.0397164
0.040352
0.0406896
0.0407828
0.0407116
0.0404163
0.0396416
0.0386312
0.0375824
0.0364979
0.0352858
0.0338861
0.0322533
0.030329
0.0280316
0.0252524
0.0218516
0.0176527
0.0124782
0.00626077
0.000619094
0.000781012
0.00793081
0.0156649
0.0219948
0.0270727
0.0311546
0.0344359
0.0370449
0.0388989
0.039936
0.0405512
0.0409017
0.0410206
0.0409772
0.0407664
0.0402146
0.0393583
0.0384204
0.0374063
0.0361956
0.0347594
0.0330738
0.0310866
0.0287206
0.0258664
0.02238
0.0180781
0.0127762
0.00640519
0.000631061
0.000777664
0.00784085
0.0155845
0.0219386
0.0270609
0.0312389
0.0346652
0.0373816
0.0391635
0.0401415
0.0407807
0.0411536
0.0412971
0.0412809
0.0411485
0.0407224
0.0400555
0.0392779
0.0383649
0.0371832
0.0357019
0.0339503
0.0318927
0.0294518
0.0265167
0.0229396
0.0185301
0.0130943
0.00655979
0.000643586
0.000769387
0.00760669
0.0153847
0.0217505
0.026912
0.0311945
0.0347743
0.0375579
0.0393111
0.0403239
0.0410179
0.0414377
0.0416201
0.0416318
0.0415644
0.0412786
0.0407485
0.0401177
0.0392832
0.0381517
0.0366531
0.0348465
0.0327213
0.0302063
0.027192
0.0235241
0.0190054
0.0134309
0.00672478
0.000656755
0.000786714
0.00740668
0.0151333
0.0214045
0.0265435
0.0309596
0.0347247
0.0375601
0.0393558
0.0404658
0.0412407
0.0417317
0.0419658
0.0420253
0.0420168
0.0418522
0.0414495
0.0408753
0.0400997
0.0390178
0.0375313
0.0357032
0.033533
0.0309623
0.0278802
0.0241261
0.0194982
0.0137808
0.00689625
0.000670404
0.000791473
0.00758761
0.0151576
0.0213443
0.0262812
0.0305514
0.034444
0.0374129
0.0393381
0.0405721
0.0414427
0.0420139
0.0423121
0.0424408
0.0424923
0.0424228
0.0421119
0.0415527
0.0408396
0.0398043
0.0383343
0.0365007
0.0343111
0.0317101
0.0285777
0.0247421
0.0200002
0.0141309
0.00706147
0.000684043
0.000785704
0.00768413
0.0151656
0.0213209
0.0262214
0.0303132
0.0340166
0.0371349
0.0392736
0.0406481
0.0416193
0.0422784
0.0426444
0.0428484
0.0429542
0.0429384
0.0426885
0.0422039
0.0415409
0.0405384
0.0390788
0.0372462
0.0350646
0.0324656
0.0292952
0.0253745
0.0205001
0.0144542
0.00719016
0.000697266
0.000787099
0.007669
0.0151566
0.0212871
0.0261507
0.0301013
0.033593
0.0367484
0.0391339
0.0406976
0.0417786
0.0425369
0.0429778
0.0432547
0.0434219
0.0434522
0.0432641
0.0428419
0.0422142
0.0412243
0.0397694
0.0379454
0.0358226
0.0332663
0.0300624
0.0260343
0.0209836
0.0147018
0.00722939
0.000712871
0.000788445
0.00769538
0.0152213
0.0213145
0.0260893
0.0299244
0.0332835
0.0363494
0.0388913
0.0407083
0.041949
0.0428181
0.0433551
0.0437176
0.0439602
0.0440399
0.0438764
0.0434779
0.0428566
0.0418588
0.0403965
0.0385683
0.0365069
0.0340689
0.0309014
0.0267479
0.0214575
0.014823
0.00712706
0.000734679
0.000785024
0.00774433
0.0153011
0.0213857
0.0261277
0.029904
0.0331432
0.0360932
0.0386415
0.0406493
0.0421238
0.0431499
0.043808
0.0442566
0.0445669
0.0446638
0.0445129
0.0441505
0.0434898
0.0424551
0.0409596
0.039144
0.037127
0.0347224
0.0315677
0.0273873
0.0220178
0.0153114
0.00746754
0.000742567
0.000775014
0.00776183
0.0153242
0.0214327
0.0262237
0.0300309
0.0332057
0.0360405
0.0385613
0.0406424
0.0422758
0.0435121
0.0443639
0.0448823
0.0452364
0.0453734
0.0452526
0.0448501
0.0441372
0.0430481
0.0415597
0.0398149
0.0377639
0.0352538
0.0320331
0.0278518
0.0225077
0.015765
0.00770645
0.00076666
0.00076471
0.00770402
0.0152369
0.0213947
0.026296
0.0302174
0.0334052
0.0361791
0.038685
0.0408469
0.0426093
0.0439954
0.0449922
0.045583
0.0459523
0.0461418
0.0460243
0.0455914
0.0448345
0.043702
0.0423202
0.0405347
0.0384243
0.0358044
0.0324714
0.0282469
0.0228973
0.0161425
0.00794858
0.000780806
0.000756737
0.00762205
0.0151133
0.0213142
0.0263228
0.0303804
0.0336798
0.0364685
0.0389744
0.0412172
0.0431177
0.0446553
0.0458258
0.0465362
0.0468717
0.0470667
0.0468979
0.0464175
0.0456142
0.0445007
0.0430815
0.041282
0.0390831
0.036321
0.0328854
0.0286023
0.0232063
0.0163991
0.00812217
0.000782739
0.0007503
0.00753721
0.0149913
0.0212367
0.0263475
0.0305314
0.0339693
0.036834
0.0393853
0.041697
0.0437012
0.0454443
0.0468809
0.0477794
0.048032
0.0481123
0.0478594
0.0472819
0.046432
0.0453435
0.0438307
0.0419969
0.0396576
0.0367552
0.0332318
0.028879
0.0234116
0.0165294
0.00819411
0.000783727
0.000742856
0.00744429
0.0148686
0.0211662
0.0263819
0.0306897
0.0342506
0.0372187
0.0398418
0.0422109
0.0443232
0.0462014
0.047852
0.0488877
0.0490846
0.0491271
0.0487639
0.0481122
0.0472701
0.0460691
0.0445761
0.042623
0.040112
0.0371039
0.033503
0.0290749
0.0235326
0.0165874
0.0082171
0.000784251
0.000734385
0.0073166
0.0147248
0.0210872
0.0264157
0.0308466
0.034521
0.0375987
0.0403092
0.0427471
0.0449242
0.0469233
0.0486579
0.0496698
0.0498537
0.0498939
0.0495131
0.0488441
0.0479862
0.0467806
0.0452364
0.0430948
0.0404609
0.0373765
0.0336988
0.0291928
0.0235823
0.0165964
0.00821948
0.0007836
0.000726654
0.00713203
0.0145463
0.0209849
0.0264379
0.0309968
0.0347947
0.03799
0.0407748
0.043253
0.0454769
0.047535
0.049196
0.0500194
0.0502423
0.0503152
0.0500065
0.0493656
0.0484412
0.047358
0.0456861
0.0434023
0.0407095
0.0375619
0.033809
0.0292294
0.0235651
0.016563
0.00820559
0.000781647
0.000725631
0.00703928
0.0144019
0.0208621
0.0264434
0.0311499
0.0350735
0.0383739
0.0412235
0.0437317
0.0459628
0.0479584
0.0494972
0.0502176
0.050408
0.0504395
0.0501693
0.0495887
0.0487977
0.0477248
0.0459635
0.0436081
0.0408679
0.0376609
0.0338363
0.0291864
0.0234785
0.0164832
0.00817405
0.000779161
0.000734886
0.00708007
0.0144431
0.0208043
0.0264339
0.0313135
0.0353694
0.038771
0.0416763
0.0441891
0.0463896
0.0482883
0.0497149
0.0503507
0.0505474
0.0505548
0.0502729
0.0497381
0.0490332
0.0479887
0.0461347
0.0437055
0.0409171
0.0376576
0.0337668
0.029049
0.0233024
0.0163372
0.00812234
0.000776493
0.000752635
0.00720971
0.0146708
0.0209962
0.0265916
0.031558
0.0357277
0.0392161
0.0421622
0.0446582
0.0467707
0.0485524
0.0498648
0.0504406
0.0506471
0.0506467
0.0503543
0.0498401
0.0491906
0.048135
0.04621
0.0437075
0.0408723
0.0375674
0.0336118
0.0288105
0.0229963
0.0160546
0.00800156
0.000776795
0.000766944
0.00758386
0.0151451
0.0214561
0.0269848
0.0319391
0.0361912
0.0397522
0.0427388
0.0451575
0.0470986
0.0487316
0.0499352
0.0504827
0.0507081
0.0506997
0.0503909
0.0498778
0.0492504
0.0481531
0.0461658
0.0436261
0.0407664
0.037428
0.0334084
0.0284869
0.0225038
0.0154768
0.00771674
0.000788452
0.000778662
0.008014
0.0157413
0.0221687
0.0275905
0.0324357
0.0367655
0.0403862
0.0433739
0.045597
0.0473091
0.0487704
0.0498942
0.050467
0.0507122
0.050682
0.0503465
0.0498281
0.0492095
0.0480188
0.0459752
0.0434746
0.0406384
0.0372977
0.0332334
0.0281981
0.0219989
0.0148971
0.0074566
0.000786643
0.000786111
0.00818463
0.0163728
0.0229862
0.0283664
0.0331576
0.0374659
0.0410411
0.043756
0.0457105
0.0472987
0.0486707
0.0497321
0.0503508
0.050622
0.0505667
0.0502116
0.0496873
0.0490416
0.0477264
0.0456415
0.0432534
0.0405325
0.0372439
0.0331706
0.0281005
0.0218085
0.014512
0.00701981
0.00075328
0.000793206
0.00826889
0.0167493
0.0237497
0.0292975
0.0340555
0.0382196
0.0414121
0.0437556
0.0455762
0.0471199
0.0484266
0.0494358
0.0500918
0.0503972
0.0503381
0.049995
0.0494669
0.0487375
0.0472952
0.0452234
0.0430114
0.0404979
0.0373093
0.0332383
0.0281672
0.0218856
0.0144168
0.00661709
0.000695712
0.000801251
0.00837085
0.0170345
0.0243454
0.0301896
0.034968
0.038631
0.0413775
0.0435598
0.0453576
0.0468473
0.0480712
0.0490209
0.0496748
0.0500063
0.0499889
0.0497011
0.0491708
0.0483245
0.0468146
0.0449056
0.0428532
0.0404587
0.0373752
0.033371
0.0283067
0.0220159
0.0144182
0.00615044
0.000651779
0.00080782
0.00848146
0.0172744
0.0247581
0.0309275
0.0354258
0.0386343
0.0411882
0.0433223
0.0450779
0.0465005
0.0476459
0.0485398
0.049175
0.0495157
0.0495565
0.0493242
0.0488122
0.0479072
0.0464895
0.044754
0.0427639
0.0403734
0.037348
0.0334497
0.0284492
0.0221649
0.0145644
0.0061701
0.000652635
0.000811654
0.00856994
0.0174296
0.0250052
0.0313083
0.0354683
0.0384354
0.0409342
0.0430284
0.0447418
0.0461013
0.0471847
0.0480438
0.0486516
0.0489983
0.04909
0.0489087
0.048441
0.0475684
0.0462666
0.0446364
0.042682
0.0402716
0.0372437
0.0334014
0.0284984
0.0223311
0.0148974
0.00664893
0.000690323
0.000814586
0.00857302
0.0174155
0.0250397
0.031274
0.0352695
0.038142
0.0406084
0.0426782
0.0443602
0.045664
0.046709
0.0475667
0.0481801
0.0485483
0.048665
0.0485145
0.0480956
0.0472788
0.0460456
0.0444885
0.0425706
0.040138
0.0370557
0.0331981
0.0283897
0.0224615
0.0153558
0.00729003
0.000731208
0.000811784
0.0085063
0.0171745
0.0247322
0.0309254
0.0349067
0.0377656
0.0402191
0.0422769
0.0439428
0.0452138
0.046237
0.0471236
0.0477837
0.0481926
0.0483305
0.0481871
0.0477851
0.0470054
0.0458278
0.0443178
0.0423974
0.0398793
0.0366898
0.0328123
0.0281091
0.022417
0.0156063
0.00769139
0.000738015
0.000785726
0.0084009
0.0166738
0.023969
0.0301551
0.0343951
0.0373556
0.0397886
0.0418351
0.0434968
0.0447733
0.0458011
0.0467151
0.0474461
0.0479011
0.0480524
0.0479158
0.0475153
0.0467422
0.0455861
0.0440522
0.0419991
0.0393315
0.0361066
0.0322683
0.0276736
0.0221725
0.0155594
0.00773447
0.000738573
0.000783634
0.00783598
0.0157761
0.0228576
0.0288172
0.0335092
0.0368414
0.0393563
0.0413923
0.0430534
0.0443628
0.045425
0.0463469
0.0471327
0.0476307
0.0477932
0.0476579
0.0472427
0.0464527
0.0452338
0.0435216
0.0412734
0.0385524
0.0353564
0.0315714
0.0270772
0.0217805
0.0153746
0.00765152
0.000740445
0.000789092
0.0072457
0.0146453
0.0216662
0.0275257
0.0322292
0.035927
0.0387357
0.0409218
0.0426346
0.0439888
0.0450911
0.04601
0.0468153
0.0473427
0.0475355
0.0473875
0.0469417
0.0460226
0.0445691
0.0426473
0.0403223
0.0376121
0.0344345
0.0306845
0.0262471
0.0212622
0.0152418
0.00747786
0.000744672
0.000772172
0.0069568
0.0138097
0.0205054
0.0264027
0.0310865
0.0348366
0.0378801
0.0402991
0.0421741
0.0436168
0.0447529
0.0456681
0.0464611
0.0469962
0.0471461
0.0469651
0.0464102
0.0452211
0.0435549
0.0415427
0.0392184
0.036509
0.0332876
0.0295336
0.0254516
0.0208255
0.015074
0.00755884
0.00075556
0.000746607
0.00665237
0.0132952
0.0195721
0.0255491
0.0303078
0.0340065
0.0369243
0.0394328
0.0415345
0.0431777
0.0443991
0.0452971
0.0460316
0.0465
0.0465946
0.0463524
0.0455303
0.0441378
0.0423807
0.0403279
0.0379626
0.0353136
0.0323373
0.0289854
0.0250922
0.0204518
0.0147089
0.00749892
0.000761937
0.000726901
0.00637936
0.012918
0.0189599
0.0249811
0.0299355
0.0335673
0.0363162
0.0386245
0.0407235
0.0424392
0.0437957
0.0447335
0.0454232
0.0458424
0.0459117
0.0455583
0.0445404
0.043043
0.0411886
0.0392039
0.0370801
0.0346662
0.0318653
0.0285716
0.0246912
0.0200317
0.0143318
0.0073462
0.000750419
0.000723758
0.00632153
0.0127577
0.0187476
0.024677
0.0296069
0.0332019
0.0358337
0.0380679
0.040075
0.0417596
0.0430866
0.0440498
0.0447049
0.0450559
0.0451281
0.0448248
0.043921
0.0423992
0.0405437
0.0385843
0.0365024
0.034119
0.0313102
0.0280364
0.0241712
0.019538
0.0139098
0.00712478
0.000724552
0.000731749
0.00648072
0.0129587
0.0191049
0.0248914
0.0294417
0.0326823
0.0352139
0.0375108
0.0395846
0.0412701
0.0425745
0.0434818
0.0440392
0.0443207
0.044416
0.0442835
0.0435175
0.0420447
0.0401151
0.0380615
0.0358901
0.0334619
0.0306663
0.0274056
0.0235665
0.0189854
0.0134568
0.00687168
0.000700438
0.000745226
0.006745
0.0134839
0.01986
0.0254319
0.0294713
0.0323575
0.0348045
0.0370735
0.0390938
0.0407957
0.0421049
0.0430112
0.0435197
0.0437305
0.0437856
0.0436785
0.0429347
0.0414807
0.0395337
0.0374372
0.0352342
0.0327904
0.0299866
0.0267289
0.0229141
0.0183884
0.0129792
0.00659478
0.000676015
0.000758797
0.00702178
0.0142202
0.0207948
0.0259283
0.0294598
0.0321421
0.034536
0.0367449
0.0387072
0.0403454
0.0416052
0.042483
0.0429963
0.0431574
0.0430531
0.0428578
0.0421691
0.0407858
0.0389064
0.036833
0.0346111
0.0321443
0.0293237
0.0260599
0.0222608
0.0177853
0.0125001
0.00628635
0.000651438
0.00077752
0.00732645
0.0150216
0.0215419
0.0260946
0.0292965
0.0319381
0.0342978
0.0364355
0.0383239
0.0398919
0.0411013
0.0419532
0.0424567
0.042627
0.0425301
0.0422931
0.041589
0.0402109
0.0383651
0.0363032
0.034064
0.0315748
0.0287349
0.0254597
0.0216703
0.0172376
0.0120768
0.00606472
0.000629422
0.000798158
0.00769672
0.0157633
0.02184
0.0259397
0.0290423
0.0316946
0.0340389
0.0361191
0.0379358
0.0394369
0.0405979
0.0414238
0.041928
0.0421331
0.0420935
0.0418881
0.0411802
0.0397792
0.0379331
0.0358733
0.0336265
0.0311251
0.0282738
0.0249899
0.0211995
0.0167873
0.0117189
0.00587894
0.000610263
0.000810029
0.00812941
0.0161525
0.0217592
0.0256471
0.0287415
0.0314006
0.0337405
0.0357807
0.0375426
0.0389949
0.0401214
0.0409286
0.0414358
0.041679
0.0417042
0.0415591
0.0408646
0.0394397
0.0375903
0.0355454
0.033312
0.0308194
0.0279758
0.0246924
0.0208946
0.0164724
0.0114305
0.00566971
0.000592775
0.000813155
0.00834349
0.0161245
0.0214741
0.0253183
0.0284137
0.0310673
0.0334007
0.0354141
0.0371392