/*--------------------------------*- C++ -*----------------------------------*\
| =========                 |                                                 |
| \\      /  F ield         | OpenFOAM: The Open Source CFD Toolbox           |
|  \\    /   O peration     | Version:  2.3.0                                 |
|   \\  /    A nd           | Web:      www.OpenFOAM.org                      |
|    \\/     M anipulation  |                                                 |
\*---------------------------------------------------------------------------*/
FoamFile
{
    version     2.0;
    format      ascii;
    class       volVectorField;
    location    "1.52";
    object      U;
}
// * * * * * * * * * * * * * * * * * * * * * * * * * * * * * * * * * * * * * //

dimensions      [0 1 -1 0 0 0 0];

internalField   nonuniform List<vector> 
6000
(
(-0.0103751 0.000616305 0)
(-0.00576072 -0.0913279 0)
(-0.0030595 -0.103528 0)
(-0.00649316 -0.0936924 0)
(-0.011791 -0.0754623 0)
(-0.0201194 -0.0720239 0)
(-0.010895 -0.0998726 0)
(0.0289435 -0.066399 0)
(0.0812776 -0.0722584 0)
(0.0625946 -0.111578 0)
(-0.0864165 -0.00595653 0)
(-0.175317 -0.153479 0)
(-0.159216 -0.141891 0)
(-0.144203 -0.119178 0)
(-0.148375 -0.0903998 0)
(-0.153907 -0.0306009 0)
(-0.14844 0.0161354 0)
(-0.112618 0.0306566 0)
(-0.059581 0.0292242 0)
(0.00633269 0.0281856 0)
(0.0653456 0.013883 0)
(0.0986259 -0.0179941 0)
(0.110145 -0.0157844 0)
(0.158096 0.0141233 0)
(0.175046 0.060696 0)
(0.19562 0.0251157 0)
(0.214069 0.0471509 0)
(0.158175 0.00371008 0)
(0.0861686 -0.0368529 0)
(0.0446473 0.024457 0)
(-0.00673517 0.630978 0)
(-0.032491 0.681947 0)
(-0.0441015 0.693533 0)
(-0.0628269 0.698772 0)
(-0.0559959 0.656062 0)
(-0.0231021 0.630719 0)
(0.0366068 0.611082 0)
(0.0972557 0.552546 0)
(0.150611 0.636544 0)
(0.133992 0.83537 0)
(-0.0240341 0.854738 0)
(-0.18354 0.740317 0)
(-0.229976 0.681372 0)
(-0.201609 0.706487 0)
(-0.18252 0.708079 0)
(-0.168695 0.694785 0)
(-0.142345 0.628282 0)
(-0.0997072 0.583467 0)
(-0.0378431 0.5405 0)
(0.0251924 0.538797 0)
(0.0887641 0.573186 0)
(0.143792 0.634335 0)
(0.187902 0.64417 0)
(0.221021 0.559653 0)
(0.126666 0.539477 0)
(0.089721 0.613922 0)
(0.0983387 0.677114 0)
(0.104923 0.728291 0)
(0.0557816 0.711284 0)
(-0.00853244 0.672863 0)
(-0.0541361 0.577868 0)
(-0.105921 0.524 0)
(-0.124382 0.510031 0)
(-0.132989 0.500759 0)
(-0.111823 0.463664 0)
(-0.0745892 0.426692 0)
(-0.018565 0.342654 0)
(0.0428679 0.288169 0)
(0.116129 0.362809 0)
(0.151027 0.697214 0)
(0.0334551 0.961149 0)
(-0.157521 0.637443 0)
(-0.196205 0.408772 0)
(-0.141887 0.407636 0)
(-0.0908154 0.415418 0)
(-0.0523506 0.413095 0)
(-0.03122 0.359339 0)
(-0.00458791 0.30523 0)
(0.0379287 0.283527 0)
(0.073327 0.291703 0)
(0.125437 0.306424 0)
(0.193158 0.339069 0)
(0.281229 0.399463 0)
(0.334116 0.473828 0)
(0.160627 0.583843 0)
(-0.0353101 0.520659 0)
(-0.0853766 0.48486 0)
(-0.0160584 0.579735 0)
(0.0154291 0.546139 0)
(0.00644039 0.600926 0)
(-0.074637 0.696944 0)
(-0.158941 0.584159 0)
(-0.200618 0.546538 0)
(-0.199114 0.492996 0)
(-0.179333 0.438069 0)
(-0.136397 0.390687 0)
(-0.0761648 0.329803 0)
(-0.0139181 0.26427 0)
(0.0483157 0.329521 0)
(0.0808641 0.785181 0)
(0.0900316 1.02689 0)
(-0.0124498 0.773535 0)
(-0.107719 0.41358 0)
(-0.0970302 0.375409 0)
(-0.046684 0.374166 0)
(0.00142024 0.40511 0)
(0.0370361 0.394037 0)
(0.0743231 0.309949 0)
(0.107618 0.272892 0)
(0.145832 0.271733 0)
(0.186127 0.259477 0)
(0.231472 0.280631 0)
(0.280746 0.350822 0)
(0.335736 0.442372 0)
(0.138404 0.832616 0)
(-0.136365 0.712325 0)
(-0.249198 0.478645 0)
(-0.142016 0.531156 0)
(-0.0540336 0.537191 0)
(-0.0222201 0.62423 0)
(-0.0705667 0.685899 0)
(-0.19948 0.546794 0)
(-0.292715 0.546092 0)
(-0.298925 0.489264 0)
(-0.267123 0.414438 0)
(-0.217884 0.331472 0)
(-0.153455 0.246654 0)
(-0.095586 0.187981 0)
(-0.0557445 0.247643 0)
(-0.0270361 0.786072 0)
(0.0759301 1.01607 0)
(0.0768034 0.879533 0)
(-0.0166473 0.520994 0)
(-0.0429072 0.380997 0)
(-0.0236658 0.398854 0)
(0.0178639 0.437803 0)
(0.0829601 0.397552 0)
(0.156708 0.347748 0)
(0.222694 0.304557 0)
(0.300129 0.299467 0)
(0.359925 0.296957 0)
(0.374212 0.274342 0)
(0.341025 0.342238 0)
(0.244359 0.463726 0)
(-0.00651711 1.2669 0)
(-0.196891 0.96532 0)
(-0.271989 0.409314 0)
(-0.183336 0.408629 0)
(-0.0938202 0.473309 0)
(-0.0470175 0.563516 0)
(-0.0431334 0.956389 0)
(-0.129244 0.718748 0)
(-0.196903 0.506507 0)
(-0.281809 0.414369 0)
(-0.330743 0.361976 0)
(-0.281111 0.271756 0)
(-0.220852 0.198551 0)
(-0.164988 0.146483 0)
(-0.160331 0.22839 0)
(-0.12923 0.765908 0)
(-0.0431917 0.914937 0)
(0.0135942 0.848302 0)
(-0.0336882 0.596618 0)
(-0.0324263 0.437847 0)
(-0.0434778 0.358855 0)
(0.00982982 0.337986 0)
(0.0879027 0.283968 0)
(0.189046 0.241717 0)
(0.293363 0.186035 0)
(0.399578 0.183462 0)
(0.501143 0.234648 0)
(0.550461 0.334391 0)
(0.460094 0.567985 0)
(0.213176 0.920956 0)
(-0.0319098 1.25585 0)
(-0.12013 1.23839 0)
(-0.183258 0.364212 0)
(-0.155194 0.328434 0)
(-0.0860926 0.42041 0)
(-0.0480181 0.479202 0)
(0.022202 1.13073 0)
(-0.01124 0.987244 0)
(-0.116166 0.833561 0)
(-0.19809 0.571853 0)
(-0.241568 0.302468 0)
(-0.27525 0.209475 0)
(-0.247298 0.151703 0)
(-0.205642 0.112278 0)
(-0.20591 0.210515 0)
(-0.181122 0.737701 0)
(-0.134391 0.862589 0)
(-0.0939352 0.782402 0)
(-0.111817 0.618058 0)
(-0.101241 0.42014 0)
(-0.0907783 0.313336 0)
(-0.00254829 0.280524 0)
(0.0921234 0.207875 0)
(0.190736 0.128068 0)
(0.270633 0.0664024 0)
(0.341776 0.0659267 0)
(0.420186 0.119006 0)
(0.483979 0.274431 0)
(0.443049 0.730436 0)
(0.274999 1.10283 0)
(0.0899455 1.31874 0)
(0.0204989 1.31884 0)
(-0.0832177 0.375525 0)
(-0.113791 0.297341 0)
(-0.0613175 0.379273 0)
(-0.0387028 0.421546 0)
(0.0230314 0.947499 0)
(0.0254659 0.914771 0)
(0.0199278 0.860034 0)
(-0.0466476 0.812439 0)
(-0.192337 0.532629 0)
(-0.193857 0.161182 0)
(-0.248846 0.120876 0)
(-0.223802 0.0910359 0)
(-0.219798 0.196147 0)
(-0.191285 0.729865 0)
(-0.175652 0.813049 0)
(-0.15654 0.774267 0)
(-0.173057 0.628652 0)
(-0.180087 0.423603 0)
(-0.122026 0.232399 0)
(0.0201097 0.149891 0)
(0.123729 0.086828 0)
(0.203581 0.0288627 0)
(0.252029 0.00144629 0)
(0.286736 0.00802942 0)
(0.317322 0.044852 0)
(0.351125 0.203481 0)
(0.361625 0.815855 0)
(0.294802 1.27309 0)
(0.190931 1.34549 0)
(0.156203 1.43873 0)
(0.00215728 0.465138 0)
(-0.098042 0.291795 0)
(-0.0581962 0.352134 0)
(-0.0368121 0.371148 0)
(-0.000324409 0.926298 0)
(-0.0106873 0.868699 0)
(0.0214356 0.768134 0)
(0.0658094 0.744794 0)
(-0.003259 0.716257 0)
(-0.135188 0.300042 0)
(-0.168354 0.0881614 0)
(-0.198337 0.0826686 0)
(-0.208043 0.171649 0)
(-0.15859 0.714751 0)
(-0.163912 0.821148 0)
(-0.164747 0.766021 0)
(-0.194226 0.692172 0)
(-0.183459 0.387996 0)
(-0.0705663 0.0777445 0)
(0.0589315 0.00839454 0)
(0.156472 -0.0121103 0)
(0.219256 -0.0228033 0)
(0.247614 -0.0233117 0)
(0.259796 -0.00720281 0)
(0.261267 0.0225007 0)
(0.250155 0.17774 0)
(0.254493 0.83914 0)
(0.25189 1.31744 0)
(0.231124 1.42065 0)
(0.269714 1.44124 0)
(0.0584164 0.696366 0)
(-0.108406 0.303319 0)
(-0.0718052 0.321965 0)
(-0.0299026 0.335007 0)
(-0.0154278 0.957497 0)
(-0.0447764 0.866521 0)
(-0.0101315 0.709674 0)
(0.058381 0.677583 0)
(0.107849 0.694246 0)
(-0.00339716 0.537423 0)
(-0.0427677 0.103164 0)
(-0.125266 0.0886217 0)
(-0.167098 0.165378 0)
(-0.106024 0.679793 0)
(-0.11297 0.818287 0)
(-0.130507 0.800574 0)
(-0.13525 0.735347 0)
(-0.102434 0.257647 0)
(0.0101962 -0.0467529 0)
(0.0886337 -0.0850251 0)
(0.15865 -0.0876618 0)
(0.211512 -0.0656871 0)
(0.241266 -0.041112 0)
(0.24563 -0.00948811 0)
(0.225417 0.044563 0)
(0.186182 0.207443 0)
(0.179367 0.83634 0)
(0.205116 1.33211 0)
(0.23124 1.3755 0)
(0.296769 1.47068 0)
(0.0797802 1.04291 0)
(-0.0991662 0.312428 0)
(-0.0673717 0.287103 0)
(-0.0353414 0.291203 0)
(-0.0213781 1.00029 0)
(-0.0592879 0.861582 0)
(-0.0221448 0.66088 0)
(0.0496453 0.596047 0)
(0.127317 0.663681 0)
(0.134171 0.583853 0)
(0.0397522 0.24918 0)
(-0.0314383 0.109775 0)
(-0.110163 0.179265 0)
(-0.0485826 0.608945 0)
(-0.0383135 0.854015 0)
(-0.062205 0.788715 0)
(-0.0232933 0.748174 0)
(-0.00688482 0.149376 0)
(0.0521093 -0.114643 0)
(0.11401 -0.143883 0)
(0.163295 -0.132982 0)
(0.207146 -0.0971067 0)
(0.233106 -0.0503051 0)
(0.23128 0.00978006 0)
(0.202917 0.0894125 0)
(0.158899 0.252906 0)
(0.152642 0.809286 0)
(0.173018 1.28677 0)
(0.206444 1.39634 0)
(0.257725 1.40443 0)
(0.151481 1.35066 0)
(-0.0396933 0.346618 0)
(-0.0465289 0.273318 0)
(-0.0284378 0.241232 0)
(-0.0132781 1.05011 0)
(-0.0407001 0.851669 0)
(0.00685736 0.591118 0)
(0.0687523 0.499375 0)
(0.148032 0.577844 0)
(0.206946 0.571008 0)
(0.162965 0.385504 0)
(0.0871478 0.157547 0)
(-0.0180648 0.214396 0)
(-0.00236521 0.534557 0)
(0.0223101 0.872592 0)
(0.0119666 0.809984 0)
(0.0963216 0.716057 0)
(0.0719098 0.147026 0)
(0.0916285 -0.16358 0)
(0.128896 -0.188992 0)
(0.161758 -0.168433 0)
(0.190181 -0.127242 0)
(0.202611 -0.0591756 0)
(0.19901 0.029294 0)
(0.175744 0.12674 0)
(0.146975 0.282734 0)
(0.153256 0.771645 0)
(0.167612 1.29062 0)
(0.18352 1.34051 0)
(0.227269 1.41603 0)
(0.238522 1.43113 0)
(0.023356 0.470664 0)
(-0.0301712 0.275623 0)
(-0.0142849 0.210953 0)
(0.00695758 1.09308 0)
(0.0146817 0.835285 0)
(0.0717492 0.538248 0)
(0.113795 0.434105 0)
(0.175917 0.500177 0)
(0.24151 0.522756 0)
(0.25837 0.448436 0)
(0.17992 0.243093 0)
(0.0667457 0.265179 0)
(0.0391474 0.495508 0)
(0.0606988 0.902149 0)
(0.0490332 0.800141 0)
(0.150369 0.654752 0)
(0.14977 0.181116 0)
(0.136161 -0.180603 0)
(0.147488 -0.213772 0)
(0.162851 -0.188577 0)
(0.168553 -0.139735 0)
(0.166138 -0.0573666 0)
(0.154745 0.0428005 0)
(0.138718 0.148609 0)
(0.120922 0.296351 0)
(0.150208 0.72583 0)
(0.169715 1.27458 0)
(0.176706 1.35463 0)
(0.218584 1.35329 0)
(0.307689 1.45434 0)
(0.1024 0.681329 0)
(-0.0105855 0.282296 0)
(-0.00589841 0.199041 0)
(0.0367197 1.06398 0)
(0.088708 0.771462 0)
(0.144454 0.501173 0)
(0.169613 0.395796 0)
(0.20702 0.441996 0)
(0.263137 0.47337 0)
(0.295071 0.461722 0)
(0.239823 0.346103 0)
(0.14075 0.336258 0)
(0.0704117 0.529225 0)
(0.0588132 0.902689 0)
(0.0734019 0.784261 0)
(0.153707 0.580169 0)
(0.202897 0.185343 0)
(0.172318 -0.167068 0)
(0.159826 -0.221861 0)
(0.157477 -0.190028 0)
(0.148485 -0.13235 0)
(0.132867 -0.0452393 0)
(0.114688 0.0581816 0)
(0.0962325 0.162648 0)
(0.0826468 0.294333 0)
(0.11541 0.660161 0)
(0.160341 1.28176 0)
(0.1751 1.31275 0)
(0.207414 1.32877 0)
(0.309484 1.35988 0)
(0.258258 0.942034 0)
(0.0261851 0.331868 0)
(-0.00123592 0.191248 0)
(0.0673837 0.979837 0)
(0.144818 0.693778 0)
(0.199419 0.470634 0)
(0.218287 0.376614 0)
(0.231907 0.406309 0)
(0.273173 0.439096 0)
(0.283072 0.460953 0)
(0.250418 0.423894 0)
(0.138926 0.388947 0)
(0.0719169 0.590553 0)
(0.0444878 0.890313 0)
(0.0903111 0.743719 0)
(0.138627 0.452736 0)
(0.217689 0.155914 0)
(0.179606 -0.132804 0)
(0.156157 -0.210397 0)
(0.145101 -0.177214 0)
(0.125435 -0.113198 0)
(0.101608 -0.0233248 0)
(0.0749336 0.0795441 0)
(0.0484489 0.182862 0)
(0.0263906 0.294633 0)
(0.0460749 0.587269 0)
(0.113167 1.24917 0)
(0.145034 1.31614 0)
(0.152196 1.27508 0)
(0.258129 1.2857 0)
(0.243368 1.08393 0)
(0.0354499 0.510953 0)
(0.0315271 0.21191 0)
(0.0798697 0.848816 0)
(0.1683 0.609038 0)
(0.226582 0.437207 0)
(0.244805 0.367121 0)
(0.24414 0.391525 0)
(0.270821 0.421303 0)
(0.273865 0.463381 0)
(0.232124 0.467147 0)
(0.159757 0.471251 0)
(0.0907649 0.678209 0)
(0.0611883 0.863988 0)
(0.13389 0.7274 0)
(0.157865 0.369846 0)
(0.196823 0.139183 0)
(0.173463 -0.0868436 0)
(0.136566 -0.191366 0)
(0.121045 -0.154764 0)
(0.0953876 -0.0846284 0)
(0.0660975 0.0087548 0)
(0.031985 0.114456 0)
(-0.00748452 0.2184 0)
(-0.0447934 0.316025 0)
(-0.054295 0.534208 0)
(0.0333188 1.19619 0)
(0.095261 1.28688 0)
(0.0894389 1.27795 0)
(0.134292 1.23155 0)
(0.0764153 1.18127 0)
(0.0217866 0.557199 0)
(0.0444619 0.25951 0)
(0.0795289 0.726314 0)
(0.167612 0.522982 0)
(0.226252 0.40192 0)
(0.23826 0.365278 0)
(0.232429 0.386495 0)
(0.243931 0.400282 0)
(0.239209 0.457192 0)
(0.206083 0.538182 0)
(0.146347 0.560479 0)
(0.0962273 0.731355 0)
(0.124365 0.849844 0)
(0.195962 0.679369 0)
(0.19854 0.343263 0)
(0.181195 0.159307 0)
(0.147565 -0.0591435 0)
(0.101144 -0.166569 0)
(0.0836023 -0.12553 0)
(0.0517127 -0.0502852 0)
(0.0141977 0.0487092 0)
(-0.028604 0.159813 0)
(-0.0774804 0.269127 0)
(-0.131403 0.36654 0)
(-0.173487 0.527967 0)
(-0.0935607 1.0541 0)
(0.0235538 1.30338 0)
(0.00658362 1.3065 0)
(-0.0606291 1.28783 0)
(-0.0457083 1.18907 0)
(0.017793 0.506302 0)
(0.0122526 0.317511 0)
(0.0787698 0.607851 0)
(0.158425 0.444309 0)
(0.20085 0.377947 0)
(0.19811 0.375245 0)
(0.182668 0.404479 0)
(0.145248 0.457874 0)
(0.0704384 0.531381 0)
(0.0399364 0.538799 0)
(0.0581476 0.57559 0)
(0.0878346 0.722395 0)
(0.176552 0.808028 0)
(0.239687 0.603619 0)
(0.22368 0.357231 0)
(0.178563 0.202535 0)
(0.122347 -0.0130447 0)
(0.0714142 -0.136328 0)
(0.0495588 -0.0912056 0)
(0.00520138 -0.011362 0)
(-0.0482574 0.0933567 0)
(-0.107831 0.207864 0)
(-0.167441 0.322024 0)
(-0.229045 0.427897 0)
(-0.283989 0.55481 0)
(-0.255605 0.872964 0)
(-0.132888 1.30517 0)
(-0.106967 1.43167 0)
(-0.140611 1.40892 0)
(-0.0229773 1.04422 0)
(0.0224209 0.491655 0)
(-0.00555673 0.359725 0)
(0.0780963 0.491714 0)
(0.141438 0.385568 0)
(0.156454 0.377094 0)
(0.135822 0.404951 0)
(0.0570413 0.451047 0)
(-0.0234505 0.51535 0)
(-0.0729412 0.553267 0)
(-0.122608 0.554857 0)
(-0.106476 0.524174 0)
(0.0145414 0.628522 0)
(0.151611 0.689062 0)
(0.218642 0.547576 0)
(0.222093 0.401316 0)
(0.18533 0.284558 0)
(0.121106 0.0422709 0)
(0.070049 -0.107906 0)
(0.0395687 -0.0473608 0)
(-0.0210744 0.0500056 0)
(-0.104306 0.168411 0)
(-0.194246 0.281824 0)
(-0.269429 0.383398 0)
(-0.327452 0.48761 0)
(-0.375716 0.592548 0)
(-0.377676 0.763139 0)
(-0.309334 1.15633 0)
(-0.199961 1.41405 0)
(-0.0648958 1.3419 0)
(0.0475959 0.870224 0)
(0.0508857 0.522529 0)
(0.00583123 0.375314 0)
(0.0724443 0.386784 0)
(0.115056 0.354247 0)
(0.114311 0.393582 0)
(0.0790999 0.458128 0)
(-0.0313382 0.539166 0)
(-0.116049 0.582364 0)
(-0.164003 0.587243 0)
(-0.19635 0.542586 0)
(-0.204228 0.488303 0)
(-0.121497 0.486321 0)
(0.0432659 0.526093 0)
(0.161197 0.49843 0)
(0.190751 0.417205 0)
(0.180489 0.332777 0)
(0.139362 0.0849517 0)
(0.0924909 -0.0790566 0)
(0.055992 0.0160282 0)
(-0.0277728 0.130037 0)
(-0.161027 0.267284 0)
(-0.297474 0.375975 0)
(-0.381462 0.438429 0)
(-0.409085 0.530688 0)
(-0.421394 0.62424 0)
(-0.419135 0.730578 0)
(-0.364433 0.993807 0)
(-0.205575 1.25485 0)
(0.0136084 1.16298 0)
(0.07401 0.8038 0)
(0.0640784 0.601504 0)
(0.0271265 0.420196 0)
(0.0541257 0.306309 0)
(0.0820941 0.335276 0)
(0.0837515 0.409489 0)
(0.0479294 0.529626 0)
(-0.0995821 0.640062 0)
(-0.167929 0.643318 0)
(-0.209857 0.621474 0)
(-0.220774 0.548193 0)
(-0.216289 0.458379 0)
(-0.177791 0.404463 0)
(-0.0750026 0.37987 0)
(0.0663298 0.396821 0)
(0.160474 0.40276 0)
(0.200283 0.355465 0)
(0.199953 0.111844 0)
(0.156864 -0.0522599 0)
(0.0906359 0.0655174 0)
(-0.0274073 0.216506 0)
(-0.255931 0.393113 0)
(-0.409773 0.483711 0)
(-0.461365 0.497438 0)
(-0.43545 0.55786 0)
(-0.404292 0.637056 0)
(-0.369717 0.716713 0)
(-0.271153 0.867129 0)
(-0.0855169 0.928553 0)
(-0.0158451 0.895053 0)
(0.00765691 0.736815 0)
(0.00561397 0.59979 0)
(0.0134768 0.439192 0)
(0.0280028 0.254744 0)
(0.0480916 0.320085 0)
(0.0408342 0.426604 0)
(-0.0445863 0.649312 0)
(-0.0948455 0.732869 0)
(-0.17118 0.71745 0)
(-0.216206 0.638304 0)
(-0.220738 0.537405 0)
(-0.191508 0.439284 0)
(-0.162596 0.351771 0)
(-0.116252 0.291585 0)
(-0.0360809 0.274623 0)
(0.0905971 0.311151 0)
(0.198247 0.3015 0)
(0.270081 0.105942 0)
(0.230504 -0.0465157 0)
(0.117204 0.16895 0)
(-0.0416731 0.463491 0)
(-0.220527 0.689738 0)
(-0.346772 0.66696 0)
(-0.408715 0.400243 0)
(-0.429305 0.415768 0)
(-0.366636 0.514885 0)
(-0.281524 0.579779 0)
(-0.188989 0.564393 0)
(-0.115974 0.838533 0)
(-0.0360459 0.921424 0)
(-0.0114857 0.650773 0)
(-0.0286999 0.465402 0)
(0.00228144 0.273967 0)
(0.00956149 0.231391 0)
(0.00414097 0.320457 0)
(-0.0513395 0.516271 0)
(-0.13202 0.692155 0)
(-0.108552 0.748549 0)
(-0.129261 0.813828 0)
(-0.185877 0.688664 0)
(-0.196456 0.506271 0)
(-0.165566 0.408534 0)
(-0.131713 0.322969 0)
(-0.102745 0.246597 0)
(-0.0660126 0.195997 0)
(0.00877617 0.192966 0)
(0.151411 0.185756 0)
(0.297577 0.0422377 0)
(0.166399 -0.00366743 0)
(0.105848 0.536058 0)
(-0.161974 0.768707 0)
(-0.268043 0.808626 0)
(-0.285148 0.762695 0)
(-0.310739 0.685481 0)
(-0.363945 0.602073 0)
(-0.369804 0.582953 0)
(-0.348011 0.640344 0)
(-0.331972 0.874291 0)
(-0.252294 1.08816 0)
(-0.114545 1.12844 0)
(-0.0200136 0.997382 0)
(-0.0455673 0.83434 0)
(-0.00907548 0.517583 0)
(-0.00458004 0.2318 0)
(-0.0388255 0.371545 0)
(-0.162431 0.605614 0)
(-0.158071 0.682289 0)
(-0.135006 0.718376 0)
(-0.102178 0.803864 0)
(-0.121065 0.758357 0)
(-0.144593 0.495608 0)
(-0.147204 0.375432 0)
(-0.114693 0.294045 0)
(-0.0883847 0.221879 0)
(-0.061446 0.155971 0)
(-0.0254159 0.109725 0)
(0.0628295 0.0742975 0)
(0.1545 -0.0741798 0)
(0.067477 0.326904 0)
(-0.18039 0.723975 0)
(-0.324069 0.765108 0)
(-0.355149 0.734317 0)
(-0.33368 0.656802 0)
(-0.314798 0.585349 0)
(-0.329753 0.567531 0)
(-0.35367 0.577567 0)
(-0.373304 0.616522 0)
(-0.352383 0.691365 0)
(-0.264389 0.765679 0)
(-0.152633 0.789539 0)
(-0.0718028 0.750465 0)
(-0.0800719 0.699119 0)
(-0.0174781 0.340156 0)
(-0.0191147 0.261913 0)
(-0.0646946 0.484067 0)
(-0.176551 0.623056 0)
(-0.158143 0.678356 0)
(-0.137071 0.684504 0)
(-0.0794243 0.738211 0)
(-0.0472429 0.804706 0)
(-0.0837501 0.541863 0)
(-0.1364 0.349679 0)
(-0.121032 0.271417 0)
(-0.0976949 0.197434 0)
(-0.0725414 0.129066 0)
(-0.0443467 0.0613412 0)
(0.0242268 -0.0157241 0)
(-0.0124218 -0.00955059 0)
(-0.173273 0.599783 0)
(-0.363561 0.78801 0)
(-0.423872 0.788775 0)
(-0.421205 0.725103 0)
(-0.400313 0.606439 0)
(-0.370009 0.540958 0)
(-0.355245 0.537888 0)
(-0.34296 0.548442 0)
(-0.328022 0.564132 0)
(-0.281567 0.60374 0)
(-0.21241 0.648606 0)
(-0.135055 0.684234 0)
(-0.084039 0.702339 0)
(-0.0881442 0.674982 0)
(-0.00969037 0.209871 0)
(-0.0401009 0.309244 0)
(-0.099492 0.565776 0)
(-0.163112 0.652955 0)
(-0.1411 0.672678 0)
(-0.108799 0.641723 0)
(-0.0708206 0.655013 0)
(-0.0144148 0.75906 0)
(-0.0465073 0.626912 0)
(-0.123969 0.361457 0)
(-0.153869 0.253546 0)
(-0.136843 0.177973 0)
(-0.116885 0.103854 0)
(-0.0952006 0.031109 0)
(-0.046623 -0.0611317 0)
(-0.181793 0.218877 0)
(-0.373361 0.732746 0)
(-0.451472 0.830131 0)
(-0.469967 0.807634 0)
(-0.468413 0.713479 0)
(-0.433022 0.576282 0)
(-0.403823 0.498069 0)
(-0.372062 0.498292 0)
(-0.327049 0.500265 0)
(-0.281482 0.501726 0)
(-0.22124 0.530468 0)
(-0.164489 0.576789 0)
(-0.0957268 0.632702 0)
(-0.0518165 0.693704 0)
(-0.0325259 0.673823 0)
(0.015355 0.156375 0)
(-0.0771186 0.39408 0)
(-0.122262 0.640438 0)
(-0.132833 0.639884 0)
(-0.0840413 0.630896 0)
(-0.0631158 0.624 0)
(-0.0578018 0.634381 0)
(-0.0211057 0.680957 0)
(-4.13568e-05 0.751708 0)
(-0.11613 0.445285 0)
(-0.190593 0.253367 0)
(-0.20658 0.164695 0)
(-0.191428 0.0874987 0)
(-0.164731 0.00179945 0)
(-0.17555 -0.0105291 0)
(-0.35673 0.483553 0)
(-0.482504 0.796061 0)
(-0.516214 0.846206 0)
(-0.501589 0.814023 0)
(-0.490226 0.695577 0)
(-0.445364 0.540541 0)
(-0.406233 0.479316 0)
(-0.355983 0.465302 0)
(-0.289599 0.451777 0)
(-0.233272 0.449172 0)
(-0.174632 0.474921 0)
(-0.117238 0.519045 0)
(-0.0575595 0.547187 0)
(-0.0112847 0.633409 0)
(0.0371319 0.631417 0)
(0.0423057 0.177742 0)
(-0.0952897 0.508782 0)
(-0.091248 0.649471 0)
(-0.0272739 0.596511 0)
(-0.0226969 0.609778 0)
(-0.0286835 0.626623 0)
(-0.0442738 0.642056 0)
(-0.0521947 0.665559 0)
(-0.0132688 0.727318 0)
(-0.120689 0.625705 0)
(-0.219554 0.298617 0)
(-0.288281 0.159448 0)
(-0.301881 0.0803697 0)
(-0.264351 0.000497318 0)
(-0.40641 0.132131 0)
(-0.558669 0.65275 0)
(-0.585994 0.812938 0)
(-0.569569 0.835159 0)
(-0.531333 0.803958 0)
(-0.492107 0.664606 0)
(-0.423927 0.508596 0)
(-0.355601 0.416458 0)
(-0.286908 0.396671 0)
(-0.217414 0.379887 0)
(-0.171581 0.385231 0)
(-0.131203 0.411927 0)
(-0.0829586 0.44806 0)
(-0.0356854 0.506434 0)
(0.0113723 0.595599 0)
(0.0702067 0.612395 0)
(0.0552141 0.250628 0)
(-0.0279872 0.592539 0)
(0.0332487 0.573264 0)
(0.0223126 0.586941 0)
(0.0068855 0.619306 0)
(-0.0162965 0.647447 0)
(-0.0458448 0.667411 0)
(-0.0758541 0.683158 0)
(-0.0844927 0.713837 0)
(-0.0667358 0.752702 0)
(-0.301721 0.456181 0)
(-0.386084 0.192057 0)
(-0.431353 0.0865016 0)
(-0.454505 0.0404276 0)
(-0.679284 0.333038 0)
(-0.744134 0.680104 0)
(-0.691765 0.773693 0)
(-0.621884 0.80106 0)
(-0.549505 0.766054 0)
(-0.461613 0.610725 0)
(-0.35304 0.418999 0)
(-0.259061 0.340594 0)
(-0.189573 0.333972 0)
(-0.135697 0.336039 0)
(-0.105522 0.35838 0)
(-0.0861932 0.382362 0)
(-0.0576609 0.404822 0)
(-0.0265989 0.453352 0)
(0.0248946 0.527983 0)
(0.073897 0.555834 0)
(0.0556441 0.327029 0)
(0.0698084 0.514364 0)
(0.0529354 0.555987 0)
(0.0386923 0.603594 0)
(0.0136868 0.644732 0)
(-0.0177979 0.679463 0)
(-0.0549302 0.704354 0)
(-0.0959872 0.719339 0)
(-0.131571 0.730088 0)
(-0.141631 0.746926 0)
(-0.178047 0.71974 0)
(-0.455755 0.328862 0)
(-0.526721 0.122455 0)
(-0.713929 0.186907 0)
(-0.86453 0.504377 0)
(-0.835385 0.6187 0)
(-0.752429 0.658218 0)
(-0.630317 0.706067 0)
(-0.523526 0.655223 0)
(-0.374618 0.480969 0)
(-0.248382 0.301127 0)
(-0.167662 0.25773 0)
(-0.110999 0.271233 0)
(-0.0791527 0.303883 0)
(-0.0646152 0.343115 0)
(-0.0560056 0.369719 0)
(-0.0400846 0.381616 0)
(-0.0129757 0.41892 0)
(0.0288384 0.476458 0)
(0.0721628 0.53428 0)
(0.0454651 0.406916 0)
(0.0362013 0.465952 0)
(0.0390494 0.557149 0)
(0.0289585 0.626531 0)
(0.00701838 0.677023 0)
(-0.0244576 0.715888 0)
(-0.0634948 0.746772 0)
(-0.111291 0.767385 0)
(-0.161078 0.771163 0)
(-0.201092 0.767381 0)
(-0.230588 0.741116 0)
(-0.304301 0.656074 0)
(-0.606453 0.237015 0)
(-0.865537 0.357432 0)
(-0.874324 0.528076 0)
(-0.803329 0.498966 0)
(-0.721289 0.541712 0)
(-0.597368 0.564789 0)
(-0.455459 0.491026 0)
(-0.282928 0.30935 0)
(-0.177908 0.19365 0)
(-0.119897 0.203674 0)
(-0.0875956 0.231539 0)
(-0.0669573 0.287705 0)
(-0.0545744 0.339515 0)
(-0.0435681 0.362519 0)
(-0.0293423 0.3627 0)
(-0.00422711 0.389593 0)
(0.0359019 0.429983 0)
(0.0614561 0.522578 0)
(0.0308673 0.471171 0)
(0.0130054 0.450608 0)
(0.0162181 0.558212 0)
(0.0115977 0.642505 0)
(-0.00399649 0.702624 0)
(-0.0308903 0.751426 0)
(-0.0669214 0.78706 0)
(-0.120773 0.821076 0)
(-0.184018 0.823033 0)
(-0.240465 0.815628 0)
(-0.294252 0.784208 0)
(-0.345252 0.74188 0)
(-0.452851 0.676596 0)
(-0.796781 0.464475 0)
(-0.766374 0.494338 0)
(-0.73119 0.41258 0)
(-0.650818 0.434311 0)
(-0.539418 0.422232 0)
(-0.365066 0.316546 0)
(-0.227904 0.165847 0)
(-0.16601 0.125415 0)
(-0.131295 0.16659 0)
(-0.112266 0.208165 0)
(-0.0970717 0.263704 0)
(-0.0776392 0.319364 0)
(-0.0535252 0.345087 0)
(-0.025909 0.338041 0)
(0.00208766 0.357026 0)
(0.034447 0.393362 0)
(0.0402012 0.530096 0)
(0.0110615 0.51188 0)
(0.000159518 0.447915 0)
(-0.00264593 0.562991 0)
(-0.00743759 0.652508 0)
(-0.0209906 0.722692 0)
(-0.044519 0.779867 0)
(-0.070488 0.817193 0)
(-0.122495 0.879729 0)
(-0.200687 0.877676 0)
(-0.268899 0.873551 0)
(-0.339072 0.844033 0)
(-0.411574 0.804329 0)
(-0.432813 0.779229 0)
(-0.693762 0.635153 0)
(-0.679465 0.476248 0)
(-0.659763 0.356429 0)
(-0.580864 0.322507 0)
(-0.462199 0.26726 0)
(-0.31739 0.149435 0)
(-0.238308 0.0777909 0)
(-0.199613 0.0978445 0)
(-0.177419 0.14573 0)
(-0.159788 0.193646 0)
(-0.140506 0.243342 0)
(-0.108272 0.284993 0)
(-0.0664503 0.305865 0)
(-0.030168 0.305695 0)
(-0.00275663 0.323598 0)
(0.013177 0.372932 0)
(0.000347677 0.554291 0)
(-0.0116762 0.519562 0)
(-0.00784669 0.457807 0)
(-0.0233423 0.573636 0)
(-0.0367088 0.665568 0)
(-0.0628007 0.745352 0)
(-0.0925612 0.804394 0)
(-0.107977 0.846241 0)
(-0.133526 0.952664 0)
(-0.211849 0.95256 0)
(-0.275162 0.942914 0)
(-0.356922 0.916348 0)
(-0.465568 0.903859 0)
(-0.666712 0.781668 0)
(-0.751626 0.707489 0)
(-0.689615 0.460766 0)
(-0.644639 0.306331 0)
(-0.564513 0.231043 0)
(-0.44325 0.155781 0)
(-0.346601 0.0702122 0)
(-0.296211 0.0466118 0)
(-0.267183 0.0783828 0)
(-0.245474 0.129043 0)
(-0.222268 0.17437 0)
(-0.189227 0.209033 0)
(-0.144083 0.237405 0)
(-0.0946782 0.259413 0)
(-0.055292 0.27506 0)
(-0.0341432 0.306729 0)
(-0.034137 0.373239 0)
(-0.0503487 0.578102 0)
(-0.0289856 0.483543 0)
(-0.0214299 0.484295 0)
(-0.0630027 0.597533 0)
(-0.10607 0.682668 0)
(-0.153641 0.786985 0)
(-0.191005 0.845506 0)
(-0.200581 0.887456 0)
(-0.194825 1.00789 0)
(-0.243654 1.09644 0)
(-0.33353 1.08182 0)
(-0.469209 1.08368 0)
(-0.6478 1.11192 0)
(-0.74862 0.869484 0)
(-0.742349 0.683045 0)
(-0.683865 0.433144 0)
(-0.651862 0.255827 0)
(-0.589749 0.143575 0)
(-0.490897 0.0600182 0)
(-0.402858 0.00391134 0)
(-0.352263 0.00931683 0)
(-0.322346 0.0593105 0)
(-0.295576 0.111535 0)
(-0.259478 0.14728 0)
(-0.213362 0.16867 0)
(-0.164586 0.189643 0)
(-0.117522 0.214062 0)
(-0.0850567 0.247323 0)
(-0.0762033 0.298587 0)
(-0.08665 0.383977 0)
(-0.0909077 0.57948 0)
(-0.0346441 0.418382 0)
(-0.0666373 0.510961 0)
(-0.158063 0.63961 0)
(-0.252998 0.724428 0)
(-0.296759 0.852139 0)
(-0.288403 0.855101 0)
(-0.283801 0.885045 0)
(-0.273827 0.95642 0)
(-0.26754 1.11927 0)
(-0.262878 1.19188 0)
(-0.343144 1.25021 0)
(-0.416043 1.26169 0)
(-0.454788 0.980562 0)
(-0.576754 0.674794 0)
(-0.63874 0.430742 0)
(-0.64384 0.225501 0)
(-0.607145 0.0798892 0)
(-0.53636 -0.0177192 0)
(-0.456935 -0.064596 0)
(-0.403044 -0.0343182 0)
(-0.368075 0.0340569 0)
(-0.330516 0.0798063 0)
(-0.284053 0.101605 0)
(-0.234329 0.121262 0)
(-0.185491 0.142152 0)
(-0.145294 0.170311 0)
(-0.126892 0.227465 0)
(-0.127944 0.30447 0)
(-0.128949 0.388972 0)
(-0.104504 0.53904 0)
(-0.0232653 0.345163 0)
(-0.231134 0.627673 0)
(-0.331235 0.78604 0)
(-0.374828 0.856883 0)
(-0.287379 0.879918 0)
(-0.2629 0.842522 0)
(-0.286599 0.890109 0)
(-0.339402 0.964002 0)
(-0.343995 1.06777 0)
(-0.250105 1.16846 0)
(-0.146081 1.23797 0)
(-0.0306386 1.25183 0)
(-0.10244 1.04234 0)
(-0.422685 0.828299 0)
(-0.649615 0.463611 0)
(-0.695439 0.207834 0)
(-0.650671 0.0245057 0)
(-0.579139 -0.0878139 0)
(-0.504144 -0.133939 0)
(-0.451461 -0.0816351 0)
(-0.407672 -0.00583721 0)
(-0.350854 0.0183653 0)
(-0.300488 0.0371475 0)
(-0.256462 0.0560532 0)
(-0.224775 0.0839685 0)
(-0.203862 0.145026 0)
(-0.191911 0.234564 0)
(-0.171625 0.309861 0)
(-0.136399 0.371633 0)
(-0.0886065 0.466431 0)
(0.00561345 0.285477 0)
(-0.209219 1.09523 0)
(-0.341248 0.947161 0)
(-0.350293 0.684876 0)
(-0.275807 0.696549 0)
(-0.23355 0.821255 0)
(-0.257216 0.858102 0)
(-0.311418 0.905963 0)
(-0.321209 0.868247 0)
(-0.24873 0.942904 0)
(-0.116959 1.01325 0)
(0.0254658 1.0788 0)
(-0.0504829 1.19723 0)
(-0.422497 1.20371 0)
(-0.72452 0.54768 0)
(-0.744346 0.13591 0)
(-0.721399 -0.0423321 0)
(-0.635149 -0.16443 0)
(-0.556749 -0.205424 0)
(-0.512424 -0.13036 0)
(-0.442142 -0.048074 0)
(-0.410589 -0.0184659 0)
(-0.37666 0.0125058 0)
(-0.341137 0.0439054 0)
(-0.304316 0.0784874 0)
(-0.268917 0.136337 0)
(-0.223367 0.202605 0)
(-0.168915 0.260342 0)
(-0.112082 0.320573 0)
(-0.0597198 0.384132 0)
(0.0271564 0.259535 0)
(-0.0947655 1.50925 0)
(-0.208133 1.23476 0)
(-0.267332 0.927214 0)
(-0.35073 0.848282 0)
(-0.383757 0.875924 0)
(-0.404964 1.04429 0)
(-0.366874 1.1746 0)
(-0.326215 1.02293 0)
(-0.287766 0.901628 0)
(-0.265981 0.918229 0)
(-0.292926 1.19492 0)
(-0.49333 1.78481 0)
(-0.746911 1.88399 0)
(-0.968793 1.06253 0)
(-0.868942 0.0879358 0)
(-0.76916 -0.172162 0)
(-0.706251 -0.260387 0)
(-0.632862 -0.272252 0)
(-0.571863 -0.175234 0)
(-0.52183 -0.0756407 0)
(-0.484148 -0.0559388 0)
(-0.432395 -0.030411 0)
(-0.375673 -0.00543995 0)
(-0.319897 0.0289049 0)
(-0.263507 0.0804444 0)
(-0.201732 0.139622 0)
(-0.139125 0.199621 0)
(-0.077355 0.261513 0)
(-0.0396341 0.317548 0)
(0.0315164 0.266181 0)
(-0.0493748 1.40117 0)
(-0.0815588 1.09857 0)
(-0.154653 0.948361 0)
(-0.343802 1.03247 0)
(-0.482164 1.0278 0)
(-0.542556 1.01559 0)
(-0.497984 1.07685 0)
(-0.4767 1.12693 0)
(-0.550465 1.19468 0)
(-0.728728 1.30284 0)
(-0.933255 1.53076 0)
(-1.05141 1.79561 0)
(-1.05364 1.74505 0)
(-1.21135 1.18132 0)
(-1.21322 0.250088 0)
(-0.880383 -0.331965 0)
(-0.753352 -0.401023 0)
(-0.698308 -0.35727 0)
(-0.620693 -0.201101 0)
(-0.565212 -0.132225 0)
(-0.496887 -0.112918 0)
(-0.431752 -0.0919059 0)
(-0.366455 -0.0652494 0)
(-0.298828 -0.0323753 0)
(-0.229454 0.0163777 0)
(-0.16187 0.0790814 0)
(-0.106175 0.149897 0)
(-0.0567763 0.218193 0)
(-0.0237486 0.289655 0)
(0.00376 0.26376 0)
(0.0151702 1.38628 0)
(0.0225538 1.06548 0)
(-0.0594556 0.995848 0)
(-0.229575 1.04764 0)
(-0.410319 1.06993 0)
(-0.524862 0.945719 0)
(-0.565711 0.923462 0)
(-0.611386 1.00995 0)
(-0.721639 1.18119 0)
(-0.912162 1.3553 0)
(-1.0885 1.5308 0)
(-1.15073 1.65868 0)
(-1.11652 1.5678 0)
(-1.15986 1.04835 0)
(-1.14116 0.14318 0)
(-0.793731 -0.51157 0)
(-0.734888 -0.549257 0)
(-0.689436 -0.417143 0)
(-0.612561 -0.262693 0)
(-0.524335 -0.208153 0)
(-0.438665 -0.183992 0)
(-0.359806 -0.164249 0)
(-0.284406 -0.141466 0)
(-0.220193 -0.10484 0)
(-0.167614 -0.0498783 0)
(-0.121977 0.0221137 0)
(-0.0833405 0.103723 0)
(-0.0417737 0.179227 0)
(-0.0216671 0.266334 0)
(-0.00637706 0.249456 0)
(0.081475 1.2982 0)
(0.114964 1.07318 0)
(0.0336314 1.13634 0)
(-0.120629 1.20995 0)
(-0.288078 1.22212 0)
(-0.453063 1.07456 0)
(-0.559092 0.982531 0)
(-0.649947 1.06018 0)
(-0.746468 1.27005 0)
(-0.890403 1.47653 0)
(-1.02167 1.61227 0)
(-1.08249 1.67189 0)
(-1.05721 1.51647 0)
(-0.994879 0.926028 0)
(-0.850459 -0.0118504 0)
(-0.598073 -0.607752 0)
(-0.570876 -0.620983 0)
(-0.553823 -0.473685 0)
(-0.486725 -0.366387 0)
(-0.389133 -0.304768 0)
(-0.308275 -0.272043 0)
(-0.244084 -0.240549 0)
(-0.196857 -0.202439 0)
(-0.161867 -0.150106 0)
(-0.132781 -0.0882813 0)
(-0.107339 -0.013819 0)
(-0.0834873 0.0708098 0)
(-0.0608244 0.147018 0)
(-0.0332994 0.243711 0)
(-0.0194263 0.230171 0)
(0.111689 1.17064 0)
(0.166169 1.07765 0)
(0.103687 1.27918 0)
(-0.027728 1.34719 0)
(-0.171936 1.38157 0)
(-0.355841 1.26652 0)
(-0.505641 1.11335 0)
(-0.619469 1.14318 0)
(-0.709193 1.36833 0)