/*--------------------------------*- C++ -*----------------------------------*\
| =========                 |                                                 |
| \\      /  F ield         | OpenFOAM: The Open Source CFD Toolbox           |
|  \\    /   O peration     | Version:  2.3.0                                 |
|   \\  /    A nd           | Web:      www.OpenFOAM.org                      |
|    \\/     M anipulation  |                                                 |
\*---------------------------------------------------------------------------*/
FoamFile
{
    version     2.0;
    format      ascii;
    class       volVectorField;
    location    "1.52";
    object      U.particlesMean;
}
// * * * * * * * * * * * * * * * * * * * * * * * * * * * * * * * * * * * * * //

dimensions      [0 1 -1 0 0 0 0];

internalField   nonuniform List<vector> 
6000
(
(-0.00250335 -0.32107 0)
(0.0055576 -0.341776 0)
(0.0257145 -0.337065 0)
(0.0375208 -0.346445 0)
(0.0403258 -0.358242 0)
(0.0383729 -0.394701 0)
(0.0283035 -0.419847 0)
(0.00983338 -0.431543 0)
(-0.000130589 -0.426574 0)
(-0.00587474 -0.425053 0)
(-0.0115402 -0.429453 0)
(-0.00971521 -0.432887 0)
(-0.0223829 -0.423729 0)
(-0.0476246 -0.403359 0)
(-0.0565888 -0.385845 0)
(-0.0488931 -0.38583 0)
(-0.0412383 -0.386421 0)
(-0.0292295 -0.392957 0)
(-0.0311939 -0.400225 0)
(-0.0316719 -0.393257 0)
(-0.0286914 -0.383505 0)
(-0.0276676 -0.372314 0)
(-0.0256426 -0.366027 0)
(-0.020153 -0.353979 0)
(-0.0144192 -0.346178 0)
(-0.017725 -0.342943 0)
(-0.0161254 -0.35443 0)
(-0.0096845 -0.37018 0)
(-0.0137902 -0.372776 0)
(-0.00312522 -0.309734 0)
(0.0118574 0.00118025 0)
(0.0229402 0.0169985 0)
(0.0419715 0.0133317 0)
(0.0515416 0.00958656 0)
(0.0517969 0.00837701 0)
(0.0506706 0.0109449 0)
(0.0436803 0.00776919 0)
(0.0225462 0.00501616 0)
(0.00956714 0.0110866 0)
(-0.0052136 0.0109838 0)
(-0.0190166 0.0108326 0)
(-0.0311546 0.0110765 0)
(-0.0474941 -0.00599886 0)
(-0.0592471 -0.0110954 0)
(-0.059151 -0.00957255 0)
(-0.0591936 -0.00842106 0)
(-0.0592142 0.00194995 0)
(-0.0548789 0.0170761 0)
(-0.0504979 0.00781857 0)
(-0.0465616 0.019542 0)
(-0.0374328 0.0279445 0)
(-0.0309368 0.0203659 0)
(-0.0198059 0.0218716 0)
(-0.0135573 0.0208988 0)
(-0.0183606 0.0212014 0)
(-0.0264897 0.00962741 0)
(-0.0289976 0.000180703 0)
(-0.0291332 0.00258014 0)
(-0.0229007 0.0180642 0)
(-0.0162571 -0.00780964 0)
(-0.00679934 -0.0557448 0)
(0.0211857 -0.0904092 0)
(0.0352836 -0.096221 0)
(0.0444899 -0.0790779 0)
(0.0453525 -0.0636601 0)
(0.0393927 -0.0544278 0)
(0.0364584 -0.0502382 0)
(0.0249226 -0.0404713 0)
(0.0154225 -0.0352798 0)
(0.000325557 -0.0416389 0)
(-0.0162624 -0.0401128 0)
(-0.0303255 -0.0389121 0)
(-0.0440991 -0.0461875 0)
(-0.0521826 -0.0500062 0)
(-0.0514584 -0.0658072 0)
(-0.0557948 -0.0698811 0)
(-0.0640704 -0.0648932 0)
(-0.0663984 -0.0631953 0)
(-0.058574 -0.0728753 0)
(-0.0474297 -0.079464 0)
(-0.034342 -0.0850606 0)
(-0.0238591 -0.0784883 0)
(-0.0154604 -0.078953 0)
(-0.0106796 -0.0826922 0)
(-0.0149661 -0.0695859 0)
(-0.0161082 -0.0712237 0)
(-0.0181837 -0.0821365 0)
(-0.0180925 -0.0802661 0)
(-0.0073804 -0.0647783 0)
(0.00749686 -0.0752881 0)
(-0.00409739 -0.0639773 0)
(0.0197158 -0.0995972 0)
(0.0222756 -0.100918 0)
(0.0366104 -0.0845552 0)
(0.0403757 -0.0649539 0)
(0.0382036 -0.0540035 0)
(0.0339192 -0.0420835 0)
(0.026597 -0.0295999 0)
(0.0195293 -0.0207405 0)
(0.00292517 -0.0255354 0)
(-0.0162635 -0.0292729 0)
(-0.0306758 -0.0315976 0)
(-0.0433772 -0.0425374 0)
(-0.0458891 -0.0519504 0)
(-0.0472545 -0.0674253 0)
(-0.0538765 -0.069069 0)
(-0.0631036 -0.0664145 0)
(-0.0673963 -0.0660145 0)
(-0.0609323 -0.0758987 0)
(-0.046163 -0.0849735 0)
(-0.0349443 -0.0904787 0)
(-0.0312797 -0.0884616 0)
(-0.0289438 -0.0933341 0)
(-0.0237005 -0.0948278 0)
(-0.0173412 -0.0852348 0)
(-0.00472461 -0.0868936 0)
(-0.00119252 -0.0934996 0)
(-0.00598434 -0.0908608 0)
(0.00189464 -0.0702884 0)
(0.013373 -0.0746735 0)
(0.00753863 -0.0946381 0)
(0.0180185 -0.127521 0)
(0.0178742 -0.129639 0)
(0.0274636 -0.102499 0)
(0.0287989 -0.0754006 0)
(0.0258553 -0.0607595 0)
(0.0244732 -0.0478055 0)
(0.0192569 -0.031425 0)
(0.0120719 -0.0207781 0)
(-0.00508435 -0.0239406 0)
(-0.0240147 -0.0296161 0)
(-0.0363692 -0.0378543 0)
(-0.0476384 -0.0493008 0)
(-0.046379 -0.0621525 0)
(-0.0476343 -0.0724712 0)
(-0.0545183 -0.074756 0)
(-0.0601396 -0.0767876 0)
(-0.0634917 -0.0776454 0)
(-0.0579445 -0.0969683 0)
(-0.0437165 -0.116546 0)
(-0.0360638 -0.119826 0)
(-0.0347846 -0.112315 0)
(-0.0350227 -0.112206 0)
(-0.0313058 -0.107002 0)
(-0.0167261 -0.102315 0)
(-0.00134627 -0.110781 0)
(0.00472387 -0.117495 0)
(-0.00213602 -0.118275 0)
(0.00597879 -0.089511 0)
(0.0143191 -0.0859082 0)
(0.00750567 -0.112931 0)
(0.0222211 -0.135718 0)
(0.0133502 -0.132709 0)
(0.0189663 -0.10886 0)
(0.0179214 -0.0807789 0)
(0.0132616 -0.0632003 0)
(0.0124995 -0.0497564 0)
(0.00837045 -0.0357431 0)
(-0.00270149 -0.02086 0)
(-0.0206681 -0.0219688 0)
(-0.0375338 -0.0295145 0)
(-0.0481248 -0.0354464 0)
(-0.0553675 -0.0487667 0)
(-0.0464841 -0.0641801 0)
(-0.0458309 -0.0725321 0)
(-0.0495371 -0.0769353 0)
(-0.051787 -0.080024 0)
(-0.0525091 -0.0845917 0)
(-0.0454931 -0.111023 0)
(-0.0374667 -0.129145 0)
(-0.0346576 -0.13021 0)
(-0.034453 -0.119406 0)
(-0.0346717 -0.111281 0)
(-0.0306435 -0.104819 0)
(-0.0119457 -0.108903 0)
(0.00318682 -0.119625 0)
(0.00339446 -0.125418 0)
(-0.00224012 -0.127826 0)
(0.00640366 -0.0959425 0)
(0.013961 -0.084685 0)
(0.00496154 -0.12445 0)
(0.0218802 -0.141772 0)
(0.0201209 -0.13557 0)
(0.020049 -0.111352 0)
(0.0229328 -0.0837885 0)
(0.0121146 -0.0635708 0)
(0.0033728 -0.0449825 0)
(-0.00378564 -0.0290576 0)
(-0.0186634 -0.0177116 0)
(-0.0365932 -0.0194978 0)
(-0.0532653 -0.0263647 0)
(-0.0599721 -0.0301526 0)
(-0.0613784 -0.0437142 0)
(-0.0467567 -0.0618213 0)
(-0.0460518 -0.0710393 0)
(-0.0514774 -0.0826273 0)
(-0.0518641 -0.0898888 0)
(-0.045139 -0.102867 0)
(-0.0370168 -0.125573 0)
(-0.0335661 -0.135912 0)
(-0.0319613 -0.130917 0)
(-0.0332694 -0.116874 0)
(-0.0324557 -0.110027 0)
(-0.0254333 -0.10857 0)
(-0.00913568 -0.114086 0)
(0.00118862 -0.123409 0)
(-0.000112859 -0.127638 0)
(-0.0060495 -0.127487 0)
(-0.00192257 -0.0962172 0)
(0.0095157 -0.0819704 0)
(0.00640346 -0.129827 0)
(0.0184664 -0.142068 0)
(0.015592 -0.13205 0)
(0.0225042 -0.112226 0)
(0.0223922 -0.0801518 0)
(0.0119533 -0.0547743 0)
(-0.00585007 -0.0311808 0)
(-0.018621 -0.0160398 0)
(-0.0330459 -0.00967448 0)
(-0.0513733 -0.0127218 0)
(-0.0672282 -0.0211408 0)
(-0.0680459 -0.0269392 0)
(-0.0638085 -0.03625 0)
(-0.049717 -0.0560863 0)
(-0.0462733 -0.0688492 0)
(-0.0498034 -0.0833536 0)
(-0.0515858 -0.0986818 0)
(-0.042861 -0.113457 0)
(-0.0331601 -0.127343 0)
(-0.0321226 -0.132791 0)
(-0.0292878 -0.125757 0)
(-0.0282793 -0.112299 0)
(-0.0258978 -0.106208 0)
(-0.0219796 -0.10667 0)
(-0.0130917 -0.112589 0)
(-0.00630974 -0.122431 0)
(-0.00598661 -0.124621 0)
(-0.0127766 -0.120507 0)
(-0.0105804 -0.0939746 0)
(0.00483731 -0.0843791 0)
(0.00561331 -0.12857 0)
(0.0146711 -0.140013 0)
(0.00945558 -0.122396 0)
(0.0179839 -0.10052 0)
(0.0206944 -0.0668584 0)
(0.00203353 -0.0349018 0)
(-0.0142202 -0.0123968 0)
(-0.0355634 -0.00145579 0)
(-0.046976 -0.00102432 0)
(-0.0629333 -0.007883 0)
(-0.0760771 -0.0188394 0)
(-0.0705659 -0.0253566 0)
(-0.0638709 -0.0374635 0)
(-0.0477159 -0.0579678 0)
(-0.0447651 -0.0704129 0)
(-0.0467361 -0.0853034 0)
(-0.0492124 -0.0985109 0)
(-0.0433224 -0.112996 0)
(-0.0325354 -0.126345 0)
(-0.0306976 -0.131585 0)
(-0.0267707 -0.123081 0)
(-0.0234055 -0.106068 0)
(-0.0238764 -0.0981411 0)
(-0.0255558 -0.10176 0)
(-0.0193797 -0.109836 0)
(-0.0175248 -0.12103 0)
(-0.0165396 -0.119983 0)
(-0.021929 -0.112707 0)
(-0.0162462 -0.0920052 0)
(0.00238654 -0.0903476 0)
(0.00401268 -0.124834 0)
(0.0122471 -0.132987 0)
(0.00641053 -0.111539 0)
(0.0113951 -0.0826901 0)
(0.0154367 -0.051905 0)
(0.000874615 -0.0222548 0)
(-0.0170238 -0.00286334 0)
(-0.0446753 0.00522792 0)
(-0.0544331 0.00680498 0)
(-0.0666019 -0.000185207 0)
(-0.0763828 -0.0159891 0)
(-0.0716068 -0.0265011 0)
(-0.0600986 -0.042639 0)
(-0.0428203 -0.0613174 0)
(-0.0407565 -0.0699733 0)
(-0.0451165 -0.0823364 0)
(-0.0466682 -0.0946389 0)
(-0.0395344 -0.111768 0)
(-0.0316628 -0.126806 0)
(-0.0308234 -0.130253 0)
(-0.0280876 -0.120293 0)
(-0.0274323 -0.101688 0)
(-0.0281342 -0.0944035 0)
(-0.0295398 -0.0952343 0)
(-0.0290712 -0.102875 0)
(-0.0287545 -0.114481 0)
(-0.02822 -0.112956 0)
(-0.0270573 -0.10271 0)
(-0.018072 -0.08885 0)
(-0.00174823 -0.0908143 0)
(0.00252137 -0.118175 0)
(0.0101857 -0.126895 0)
(0.00333586 -0.106164 0)
(0.00870016 -0.0782328 0)
(0.0181148 -0.0469105 0)
(0.00197555 -0.0155467 0)
(-0.0156177 0.00667674 0)
(-0.0377017 0.0127032 0)
(-0.0520951 0.0140812 0)
(-0.0605954 0.00519477 0)
(-0.0692779 -0.0111921 0)
(-0.0670409 -0.0267991 0)
(-0.0546702 -0.0466408 0)
(-0.0408664 -0.0643942 0)
(-0.0372793 -0.0685134 0)
(-0.0418202 -0.0792122 0)
(-0.0420876 -0.0908137 0)
(-0.0338293 -0.106087 0)
(-0.0331296 -0.123619 0)
(-0.0357512 -0.126145 0)
(-0.0388637 -0.115991 0)
(-0.0405969 -0.10107 0)
(-0.0366455 -0.0924597 0)
(-0.037963 -0.0895012 0)
(-0.0392288 -0.0956044 0)
(-0.0401671 -0.106924 0)
(-0.0367309 -0.106144 0)
(-0.0293631 -0.0991456 0)
(-0.0206196 -0.0879053 0)
(-0.00549674 -0.0900448 0)
(0.00497485 -0.112741 0)
(0.00987155 -0.122243 0)
(0.00122487 -0.102629 0)
(0.0129471 -0.0826334 0)
(0.0183952 -0.0499294 0)
(0.00732496 -0.0150026 0)
(-0.00748749 0.00799789 0)
(-0.0209937 0.0153224 0)
(-0.0412791 0.0197436 0)
(-0.0470106 0.0129601 0)
(-0.0566517 -0.00342868 0)
(-0.059282 -0.0213369 0)
(-0.0471841 -0.0411745 0)
(-0.0391977 -0.0591618 0)
(-0.0360302 -0.0667372 0)
(-0.0388069 -0.0772433 0)
(-0.0362228 -0.0889917 0)
(-0.0314252 -0.101501 0)
(-0.0323965 -0.118231 0)
(-0.0419156 -0.120308 0)
(-0.0497463 -0.113148 0)
(-0.04784 -0.104183 0)
(-0.0467765 -0.0920058 0)
(-0.0499213 -0.0844288 0)
(-0.0509831 -0.0874607 0)
(-0.0495739 -0.0940158 0)
(-0.0439826 -0.0949598 0)
(-0.0304612 -0.0920465 0)
(-0.0212771 -0.0868824 0)
(-0.0061527 -0.0948972 0)
(0.00572352 -0.111523 0)
(0.00892472 -0.120888 0)
(0.000851683 -0.102901 0)
(0.013708 -0.0827339 0)
(0.0170157 -0.0549206 0)
(0.0148655 -0.0169558 0)
(0.00237797 0.00785264 0)
(-0.00713881 0.0200402 0)
(-0.0295705 0.0264101 0)
(-0.0357073 0.0198527 0)
(-0.0400555 0.00167814 0)
(-0.0482115 -0.0170201 0)
(-0.0417358 -0.0360482 0)
(-0.0363515 -0.054945 0)
(-0.0347256 -0.0675385 0)
(-0.0352416 -0.0768736 0)
(-0.0321734 -0.0853026 0)
(-0.0315379 -0.0981738 0)
(-0.0331612 -0.112611 0)
(-0.0486976 -0.117472 0)
(-0.0523487 -0.115212 0)
(-0.0533032 -0.104886 0)
(-0.0550073 -0.0897314 0)
(-0.0591742 -0.0789173 0)
(-0.0602962 -0.0786556 0)
(-0.0566461 -0.0814118 0)
(-0.0494039 -0.0839852 0)
(-0.0332892 -0.0840063 0)
(-0.0261676 -0.0833874 0)
(-0.00357013 -0.102262 0)
(0.0060889 -0.109386 0)
(0.00670253 -0.11939 0)
(0.000185372 -0.104376 0)
(0.0126904 -0.0846456 0)
(0.0189401 -0.0581399 0)
(0.0229131 -0.0215284 0)
(0.0121036 0.00884184 0)
(0.00494303 0.0254128 0)
(-0.00724319 0.0315869 0)
(-0.0215781 0.0298765 0)
(-0.0232961 0.00906536 0)
(-0.0350449 -0.00952057 0)
(-0.035202 -0.0275408 0)
(-0.03452 -0.0468005 0)
(-0.0363214 -0.064442 0)
(-0.0354663 -0.0748213 0)
(-0.0335718 -0.083657 0)
(-0.0298967 -0.0943406 0)
(-0.0376795 -0.106266 0)
(-0.0472108 -0.116145 0)
(-0.0512609 -0.115345 0)
(-0.0559448 -0.102541 0)
(-0.0613708 -0.0849808 0)
(-0.0684049 -0.0735388 0)
(-0.0681117 -0.0722489 0)
(-0.0631171 -0.0749961 0)
(-0.0531911 -0.0782081 0)
(-0.0362385 -0.0801762 0)
(-0.0287642 -0.0915249 0)
(-0.00477447 -0.114124 0)
(0.00869984 -0.108713 0)
(0.00689722 -0.118456 0)
(9.29717e-05 -0.105662 0)
(0.012346 -0.0861337 0)
(0.0234869 -0.0582614 0)
(0.0303313 -0.0248139 0)
(0.0246737 0.00561794 0)
(0.015524 0.0260106 0)
(0.0110246 0.0368257 0)
(-0.00506567 0.0362038 0)
(-0.00974323 0.0153515 0)
(-0.0197065 -0.0033588 0)
(-0.0288683 -0.0203041 0)
(-0.0314241 -0.0382696 0)
(-0.0378098 -0.0622034 0)
(-0.0377488 -0.0723028 0)
(-0.0323655 -0.082252 0)
(-0.0293275 -0.0914546 0)
(-0.0387315 -0.104341 0)
(-0.0427712 -0.115568 0)
(-0.0494426 -0.112747 0)
(-0.0564673 -0.10044 0)
(-0.0663582 -0.0828432 0)
(-0.0746397 -0.0746484 0)
(-0.0744905 -0.0756101 0)
(-0.0686701 -0.0776604 0)
(-0.0579126 -0.082572 0)
(-0.0392523 -0.0914155 0)
(-0.0257126 -0.112035 0)
(-0.00229542 -0.132169 0)
(0.0103718 -0.107367 0)
(0.00532446 -0.116324 0)
(-0.000806419 -0.105904 0)
(0.0132076 -0.0878859 0)
(0.0274054 -0.0561624 0)
(0.0412899 -0.0283556 0)
(0.0416531 0.00478205 0)
(0.0308074 0.0250831 0)
(0.0265787 0.0380789 0)
(0.016307 0.046292 0)
(0.0067099 0.0249705 0)
(-0.00207793 0.00258789 0)
(-0.0189304 -0.0128269 0)
(-0.0274142 -0.0295339 0)
(-0.0342542 -0.0528547 0)
(-0.0384414 -0.0660067 0)
(-0.0312685 -0.0794628 0)
(-0.0329829 -0.0895244 0)
(-0.0361697 -0.103611 0)
(-0.0389057 -0.116421 0)
(-0.0460378 -0.11435 0)
(-0.0545187 -0.105422 0)
(-0.0650561 -0.0897423 0)
(-0.0751746 -0.0838237 0)
(-0.0743088 -0.0904793 0)
(-0.0668255 -0.0971998 0)
(-0.0550481 -0.109606 0)
(-0.0359431 -0.122904 0)
(-0.021509 -0.146292 0)
(-0.00147908 -0.160375 0)
(0.00683908 -0.109095 0)
(-0.00232491 -0.116918 0)
(-0.00193124 -0.108349 0)
(0.0124905 -0.0898045 0)
(0.0293111 -0.0570041 0)
(0.0471917 -0.0307842 0)
(0.0559725 0.00707894 0)
(0.0490709 0.027571 0)
(0.0379422 0.0404168 0)
(0.032209 0.0471228 0)
(0.027855 0.0331268 0)
(0.0139987 0.00839434 0)
(-0.00152014 -0.00606614 0)
(-0.0186289 -0.0183643 0)
(-0.0261166 -0.0395271 0)
(-0.0339576 -0.0570609 0)
(-0.029278 -0.0760649 0)
(-0.0325054 -0.0893584 0)
(-0.0336906 -0.102544 0)
(-0.03656 -0.115165 0)
(-0.0438021 -0.115715 0)
(-0.0552135 -0.104697 0)
(-0.0681809 -0.0919965 0)
(-0.0702897 -0.0899868 0)
(-0.0651712 -0.101216 0)
(-0.0587537 -0.107399 0)
(-0.0466394 -0.124166 0)
(-0.0281677 -0.141332 0)
(-0.0143754 -0.165114 0)
(-0.0025544 -0.177354 0)
(-0.00435779 -0.113568 0)
(-0.00688903 -0.118653 0)
(-0.0011175 -0.112003 0)
(0.0131246 -0.0929493 0)
(0.0292323 -0.0617851 0)
(0.0487022 -0.0368204 0)
(0.0659013 0.00532422 0)
(0.0662536 0.0327195 0)
(0.0505985 0.0432876 0)
(0.0448414 0.0473366 0)
(0.0402832 0.0380924 0)
(0.033648 0.0167387 0)
(0.0146385 0.00465925 0)
(-0.00470007 -0.00412617 0)
(-0.0146116 -0.0217579 0)
(-0.0248455 -0.0454075 0)
(-0.0238011 -0.0699725 0)
(-0.0290023 -0.0854211 0)
(-0.0296804 -0.0986171 0)
(-0.0346613 -0.108918 0)
(-0.0437864 -0.108339 0)
(-0.0591692 -0.0977065 0)
(-0.0731916 -0.0843701 0)
(-0.0657099 -0.0817916 0)
(-0.0558623 -0.0998855 0)
(-0.0504234 -0.108058 0)
(-0.0369593 -0.130086 0)
(-0.0220469 -0.152798 0)
(-0.00962762 -0.174508 0)
(-0.000684078 -0.187397 0)
(-0.00679713 -0.117649 0)
(-0.00519389 -0.119583 0)
(0.00152628 -0.116071 0)
(0.0158162 -0.0975855 0)
(0.030325 -0.0687905 0)
(0.0527651 -0.0488637 0)
(0.0710388 -0.0134166 0)
(0.0804249 0.0298118 0)
(0.072798 0.0466627 0)
(0.0584011 0.0486979 0)
(0.0516765 0.0440395 0)
(0.045955 0.0268936 0)
(0.0288733 0.0143826 0)
(0.010157 0.00979964 0)
(-0.00189123 -0.00503683 0)
(-0.013083 -0.034079 0)
(-0.0138402 -0.0604876 0)
(-0.0214534 -0.0815279 0)
(-0.0247849 -0.0923237 0)
(-0.0322973 -0.101656 0)
(-0.0444909 -0.100327 0)
(-0.0605909 -0.0883111 0)
(-0.0728917 -0.0762219 0)
(-0.060355 -0.0774136 0)
(-0.0488511 -0.10205 0)
(-0.0399214 -0.113025 0)
(-0.0276658 -0.135498 0)
(-0.0177701 -0.15883 0)
(-0.00512156 -0.177888 0)
(0.00360655 -0.191588 0)
(-0.00344458 -0.117072 0)
(-0.00144221 -0.118814 0)
(0.00559278 -0.119093 0)
(0.0205402 -0.105097 0)
(0.0331886 -0.0748495 0)
(0.0574558 -0.0550416 0)
(0.0716197 -0.0248717 0)
(0.0882657 0.0130392 0)
(0.0876979 0.0464829 0)
(0.0752306 0.050914 0)
(0.062879 0.0480413 0)
(0.0579467 0.0360992 0)
(0.0442269 0.0215414 0)
(0.0228529 0.0239235 0)
(0.0130301 0.00599651 0)
(0.00121789 -0.022281 0)
(-0.00219304 -0.0508977 0)
(-0.0114769 -0.0760711 0)
(-0.0202825 -0.0853223 0)
(-0.0339306 -0.0947507 0)
(-0.0466242 -0.0927209 0)
(-0.0603284 -0.0791299 0)
(-0.0675572 -0.0695985 0)
(-0.0502147 -0.0753304 0)
(-0.0397402 -0.107337 0)
(-0.0312461 -0.124368 0)
(-0.0218019 -0.144837 0)
(-0.01396 -0.161707 0)
(-0.00267145 -0.177226 0)
(0.00995271 -0.194673 0)
(-0.000324075 -0.116224 0)
(0.00502772 -0.11675 0)
(0.0138734 -0.119031 0)
(0.025468 -0.111511 0)
(0.0373779 -0.0845075 0)
(0.0584167 -0.0628146 0)
(0.0742304 -0.0314506 0)
(0.0882971 0.000766607 0)
(0.0937823 0.039718 0)
(0.0863747 0.0507956 0)
(0.074401 0.05093 0)
(0.0668234 0.0454286 0)
(0.0579069 0.0314802 0)
(0.0374555 0.0318464 0)
(0.0238563 0.0180949 0)
(0.0153411 -0.0124167 0)
(0.00898519 -0.0421759 0)
(-0.00342332 -0.0708791 0)
(-0.019348 -0.0812777 0)
(-0.0333006 -0.0873612 0)
(-0.0472366 -0.0858642 0)
(-0.0582762 -0.0732602 0)
(-0.0610249 -0.0666788 0)
(-0.0417999 -0.0790351 0)
(-0.0343807 -0.114902 0)
(-0.0241168 -0.1327 0)
(-0.0173327 -0.152281 0)
(-0.010135 -0.164888 0)
(0.000585955 -0.176919 0)
(0.0158017 -0.193261 0)
(0.00424201 -0.120121 0)
(0.0126825 -0.121631 0)
(0.022631 -0.121253 0)
(0.0343618 -0.118474 0)
(0.0426385 -0.0931604 0)
(0.0597865 -0.0657034 0)
(0.0754719 -0.0396525 0)
(0.0892412 -0.00764427 0)
(0.0947018 0.0328507 0)
(0.0930454 0.050439 0)
(0.0812623 0.0544726 0)
(0.0727027 0.0528598 0)
(0.0679695 0.0424421 0)
(0.0518449 0.037938 0)
(0.0332359 0.025264 0)
(0.0234802 -0.00163995 0)
(0.0172086 -0.0355847 0)
(-0.0016202 -0.0676055 0)
(-0.0180727 -0.0736171 0)
(-0.0335902 -0.077888 0)
(-0.046172 -0.0788579 0)
(-0.051888 -0.067622 0)
(-0.0521013 -0.0644607 0)
(-0.0367667 -0.0806665 0)
(-0.0331061 -0.119695 0)
(-0.0202019 -0.135777 0)
(-0.0158019 -0.15249 0)
(-0.00883062 -0.162522 0)
(0.00250753 -0.171539 0)
(0.0152716 -0.186595 0)
(0.00440744 -0.125356 0)
(0.0146941 -0.13238 0)
(0.0263617 -0.130186 0)
(0.0399638 -0.12527 0)
(0.0465235 -0.0993498 0)
(0.0616706 -0.0678524 0)
(0.0752164 -0.0436111 0)
(0.0900542 -0.0163814 0)
(0.0965967 0.0289473 0)
(0.0980501 0.0501717 0)
(0.0869503 0.057421 0)
(0.0777928 0.0582163 0)
(0.0720802 0.0508292 0)
(0.0637481 0.0409625 0)
(0.0371914 0.0270673 0)
(0.0276499 0.00559556 0)
(0.021128 -0.0291931 0)
(0.0021827 -0.0586001 0)
(-0.0168849 -0.0646176 0)
(-0.0277062 -0.0680846 0)
(-0.0405619 -0.0695674 0)
(-0.0463617 -0.0606022 0)
(-0.0444161 -0.0595097 0)
(-0.0336775 -0.0760045 0)
(-0.0308021 -0.115705 0)
(-0.0158797 -0.135274 0)
(-0.0152679 -0.149672 0)
(-0.0100668 -0.156357 0)
(0.00126106 -0.170453 0)
(0.0138588 -0.176523 0)
(0.00437783 -0.130309 0)
(0.0162597 -0.144596 0)
(0.0279784 -0.142271 0)
(0.0425403 -0.133702 0)
(0.0478151 -0.105399 0)
(0.0598502 -0.0703093 0)
(0.0726641 -0.0512377 0)
(0.0838545 -0.0204698 0)
(0.0947484 0.024357 0)
(0.0997628 0.0488117 0)
(0.0915567 0.0587758 0)
(0.0822194 0.0614705 0)
(0.0733642 0.0577806 0)
(0.0646542 0.0467414 0)
(0.0468353 0.0260117 0)
(0.0301958 0.0100517 0)
(0.0226238 -0.0191204 0)
(0.00328636 -0.0486389 0)
(-0.0119078 -0.0587779 0)
(-0.0203948 -0.0605501 0)
(-0.033292 -0.0611135 0)
(-0.0410174 -0.0518633 0)
(-0.0403908 -0.0551193 0)
(-0.0294946 -0.0737975 0)
(-0.0267702 -0.115814 0)
(-0.0160231 -0.133183 0)
(-0.0140819 -0.142731 0)
(-0.00747642 -0.1494 0)
(0.000282796 -0.16899 0)
(0.010403 -0.166171 0)
(0.00489387 -0.132342 0)
(0.0199095 -0.15108 0)
(0.0335143 -0.153859 0)
(0.0442734 -0.142679 0)
(0.0452296 -0.113395 0)
(0.0529318 -0.0771405 0)
(0.0652423 -0.0534926 0)
(0.0731603 -0.02143 0)
(0.089081 0.0187528 0)
(0.0968937 0.0465315 0)
(0.0922924 0.0603899 0)
(0.0836241 0.0647423 0)
(0.0717393 0.0624886 0)
(0.0647812 0.0516148 0)
(0.0503856 0.0298139 0)
(0.0342564 0.0135653 0)
(0.0247197 -0.00832202 0)
(0.0090667 -0.0422122 0)
(-0.00528978 -0.0542822 0)
(-0.0156871 -0.0563674 0)
(-0.026994 -0.0546009 0)
(-0.0332352 -0.0450239 0)
(-0.036989 -0.0534076 0)
(-0.0262188 -0.0838684 0)
(-0.0249408 -0.120167 0)
(-0.016291 -0.13254 0)
(-0.0117238 -0.140507 0)
(-0.00295218 -0.152028 0)
(0.00114891 -0.172813 0)
(0.00974583 -0.159402 0)
(0.00820754 -0.135687 0)
(0.0277626 -0.157216 0)
(0.0384984 -0.159059 0)
(0.0444949 -0.149065 0)
(0.0426904 -0.122704 0)
(0.0433904 -0.0832455 0)
(0.0557336 -0.0533437 0)
(0.0637269 -0.0191183 0)
(0.0799442 0.0137873 0)
(0.0901358 0.0436799 0)
(0.0885505 0.0605349 0)
(0.0803066 0.0667694 0)
(0.0691272 0.0644552 0)
(0.0625406 0.0552136 0)
(0.0496542 0.0346057 0)
(0.0447275 0.0195309 0)
(0.0303544 -0.00335455 0)
(0.0147651 -0.0377232 0)
(-0.000729471 -0.0512566 0)
(-0.014599 -0.054726 0)
(-0.0219086 -0.0550481 0)
(-0.0259514 -0.0450611 0)
(-0.0301488 -0.0568698 0)
(-0.0225759 -0.0926176 0)
(-0.0198166 -0.125752 0)
(-0.0113834 -0.141434 0)
(-0.00668471 -0.148155 0)
(0.00225816 -0.165726 0)
(0.00182125 -0.176289 0)
(0.00860331 -0.153448 0)
(0.0108524 -0.140116 0)
(0.0308497 -0.162693 0)
(0.0410427 -0.161561 0)
(0.04296 -0.152854 0)
(0.0364352 -0.127403 0)
(0.0326602 -0.0874158 0)
(0.0409279 -0.0505162 0)
(0.052717 -0.0172485 0)
(0.0651271 0.0135538 0)
(0.0786249 0.0421552 0)
(0.079028 0.0604488 0)
(0.0721566 0.0665864 0)
(0.0638281 0.0655877 0)
(0.0558947 0.0547122 0)
(0.0509452 0.0379966 0)
(0.0511659 0.0247217 0)
(0.0328101 -0.00147631 0)
(0.00956603 -0.0379287 0)
(-0.00109153 -0.0535032 0)
(-0.0116903 -0.0599292 0)
(-0.0169856 -0.0601425 0)
(-0.0198103 -0.0499472 0)
(-0.0226228 -0.0591075 0)
(-0.015006 -0.0906841 0)
(-0.00724003 -0.12952 0)
(-0.00146401 -0.155974 0)
(0.00285937 -0.16711 0)
(0.00892486 -0.182548 0)
(0.00439939 -0.191122 0)
(0.00543139 -0.156319 0)
(0.0103629 -0.151698 0)
(0.0307833 -0.170452 0)
(0.0388144 -0.163133 0)
(0.0379421 -0.154291 0)
(0.02647 -0.129057 0)
(0.0182219 -0.0897892 0)
(0.0244929 -0.0466485 0)
(0.0394682 -0.0189602 0)
(0.0510257 0.0153057 0)
(0.0641152 0.0410822 0)
(0.063003 0.0579964 0)
(0.061008 0.0620727 0)
(0.0558157 0.0596587 0)
(0.047741 0.0506899 0)
(0.047493 0.0377426 0)
(0.0490303 0.0252631 0)
(0.0324845 -0.00250091 0)
(0.00842497 -0.0394203 0)
(0.000488665 -0.0529601 0)
(-0.00882378 -0.056207 0)
(-0.0162013 -0.0560131 0)
(-0.0189589 -0.049441 0)
(-0.020695 -0.0622343 0)
(-0.0127787 -0.0929897 0)
(0.00162983 -0.127558 0)
(0.0070935 -0.156977 0)
(0.00980139 -0.170072 0)
(0.0122308 -0.183762 0)
(0.00659726 -0.191502 0)
(0.00807405 -0.1657 0)
(0.00729525 -0.165177 0)
(0.0270162 -0.182457 0)
(0.0325006 -0.167485 0)
(0.0311546 -0.153891 0)
(0.0166933 -0.129522 0)
(0.0054622 -0.0902702 0)
(0.00932356 -0.0422296 0)
(0.0234534 -0.0179918 0)
(0.0354562 0.0131839 0)
(0.0432095 0.0396425 0)
(0.0445627 0.0543273 0)
(0.0473792 0.0562675 0)
(0.0444094 0.0523538 0)
(0.0428402 0.0444938 0)
(0.0414883 0.0351511 0)
(0.0440978 0.0222889 0)
(0.0278095 0.000972121 0)
(0.00676898 -0.0360496 0)
(0.000937814 -0.0457959 0)
(-0.0089119 -0.0483195 0)
(-0.0172284 -0.0480787 0)
(-0.0190212 -0.0498633 0)
(-0.0197329 -0.0700862 0)
(-0.0156894 -0.10179 0)
(0.00432781 -0.128884 0)
(0.0119998 -0.154451 0)
(0.0143966 -0.163976 0)
(0.0149687 -0.173391 0)
(0.00803616 -0.183969 0)
(0.00934793 -0.162361 0)
(0.00215238 -0.174759 0)
(0.0218609 -0.188667 0)
(0.0260579 -0.169703 0)
(0.0255032 -0.153231 0)
(0.0105094 -0.132637 0)
(-0.00395847 -0.0935828 0)
(-0.00307777 -0.0456601 0)
(0.00991318 -0.0196181 0)
(0.019862 0.00657515 0)
(0.0243823 0.0369598 0)
(0.0287793 0.0490428 0)
(0.0336283 0.0495632 0)
(0.0354063 0.0462441 0)
(0.0396505 0.0404549 0)
(0.0423192 0.03054 0)
(0.0372745 0.0194408 0)
(0.0244881 0.00932874 0)
(0.00839939 -0.0267016 0)
(0.000777425 -0.0359752 0)
(-0.0119852 -0.0369151 0)
(-0.0178566 -0.0415131 0)
(-0.0185445 -0.0512984 0)
(-0.0202344 -0.0765463 0)
(-0.0118041 -0.105396 0)
(0.00495153 -0.130438 0)
(0.0144757 -0.15034 0)
(0.0172097 -0.155246 0)
(0.017135 -0.162426 0)
(0.00833106 -0.173546 0)
(0.00826578 -0.154165 0)
(-0.00515092 -0.178714 0)
(0.0162083 -0.19025 0)
(0.0206151 -0.168975 0)
(0.0201642 -0.151764 0)
(0.00600674 -0.135512 0)
(-0.00922692 -0.10198 0)
(-0.0104225 -0.0557944 0)
(0.00261747 -0.0277506 0)
(0.00867429 0.00260927 0)
(0.01313 0.0310748 0)
(0.0189141 0.0446956 0)
(0.0224136 0.0442929 0)
(0.0300674 0.0428867 0)
(0.0347757 0.0354708 0)
(0.0403892 0.0249855 0)
(0.0282292 0.0207669 0)
(0.0192712 0.0156821 0)
(0.00695109 -0.0196166 0)
(-0.00258138 -0.0224816 0)
(-0.0105563 -0.0250836 0)
(-0.0158137 -0.0360871 0)
(-0.0168043 -0.0528606 0)
(-0.0195571 -0.0793919 0)
(-0.00586819 -0.105429 0)
(0.00764694 -0.130456 0)
(0.0149592 -0.1474 0)
(0.0177164 -0.148141 0)
(0.0162793 -0.154247 0)
(0.00709737 -0.165828 0)
(0.00651597 -0.148458 0)
(-0.00681403 -0.176623 0)
(0.0119026 -0.186216 0)
(0.0135412 -0.166908 0)
(0.0133592 -0.150244 0)
(-0.000235688 -0.137152 0)
(-0.0146734 -0.108501 0)
(-0.0172945 -0.0629439 0)
(-0.0033684 -0.0309045 0)
(0.00291441 -0.00105226 0)
(0.00790046 0.0260114 0)
(0.0144742 0.038694 0)
(0.0202377 0.0426888 0)
(0.0272116 0.0391879 0)
(0.0366079 0.0317063 0)
(0.0376044 0.0223066 0)
(0.0232054 0.0241284 0)
(0.016073 0.0224193 0)
(0.00630272 -0.0113605 0)
(-0.00492611 -0.0138409 0)
(-0.0109335 -0.015008 0)
(-0.0144248 -0.0329373 0)
(-0.0150799 -0.0521483 0)
(-0.0167192 -0.0795856 0)
(-0.00206186 -0.102936 0)
(0.00966793 -0.129594 0)
(0.0135192 -0.14413 0)
(0.0160064 -0.141233 0)
(0.0143956 -0.145232 0)
(0.00581604 -0.157516 0)
(0.00565523 -0.141502 0)
(-0.00473509 -0.177545 0)
(0.00749648 -0.179122 0)
(0.00682457 -0.161804 0)
(0.00383865 -0.145412 0)
(-0.00730025 -0.13535 0)
(-0.0206735 -0.112899 0)
(-0.0271475 -0.0657677 0)
(-0.0123609 -0.0326409 0)
(-0.000441943 -0.00415614 0)
(0.00692435 0.0217061 0)
(0.0153029 0.0382855 0)
(0.0242106 0.0416105 0)
(0.0298529 0.0388105 0)
(0.0406159 0.0281897 0)
(0.0357296 0.0236569 0)
(0.0223137 0.0279368 0)
(0.0143493 0.0256525 0)
(0.00285049 -0.00908164 0)
(-0.011384 -0.0110388 0)
(-0.0142963 -0.0153234 0)
(-0.0151391 -0.0325735 0)
(-0.0142988 -0.0513317 0)
(-0.0131701 -0.076495 0)
(0.000758375 -0.100365 0)
(0.00997287 -0.127616 0)
(0.0118011 -0.14125 0)
(0.0141359 -0.136482 0)
(0.0121668 -0.138239 0)
(0.00415952 -0.149847 0)
(0.00560909 -0.13581 0)
(-0.00610855 -0.177975 0)
(0.00242483 -0.171697 0)
(0.000784515 -0.156391 0)
(-0.00603116 -0.138318 0)
(-0.0147517 -0.130756 0)
(-0.0284379 -0.112119 0)
(-0.0368808 -0.0670548 0)
(-0.0203501 -0.0330912 0)
(-0.00234867 -0.00902438 0)
(0.00713729 0.0177838 0)
(0.0182128 0.0386568 0)
(0.0291293 0.0443553 0)
(0.0339879 0.0411285 0)
(0.0404975 0.0319313 0)
(0.0346804 0.02739 0)
(0.0235 0.0325903 0)
(0.0135122 0.0277155 0)
(-0.000379863 -0.00467891 0)
(-0.0138804 -0.00993469 0)
(-0.0150445 -0.0141314 0)
(-0.0149674 -0.030774 0)
(-0.0132451 -0.0468361 0)
(-0.00773534 -0.0730736 0)
(0.0049136 -0.0962455 0)
(0.0104337 -0.124858 0)
(0.0107987 -0.135956 0)
(0.0118257 -0.131139 0)
(0.00876168 -0.131707 0)
(0.00158757 -0.141904 0)
(0.00562393 -0.128876 0)
(-0.0088579 -0.174567 0)
(-0.0009828 -0.165763 0)
(-0.00481277 -0.149838 0)
(-0.0133791 -0.133251 0)
(-0.0220232 -0.12552 0)
(-0.0347187 -0.109675 0)
(-0.0435734 -0.0692119 0)
(-0.0225252 -0.0336081 0)
(-0.000792714 -0.011944 0)
(0.00892408 0.0148353 0)
(0.0193715 0.0372742 0)
(0.0324855 0.0431878 0)
(0.035954 0.0424068 0)
(0.0390378 0.0322892 0)
(0.0362591 0.0317228 0)
(0.0269687 0.0389447 0)
(0.0136856 0.0286673 0)
(-0.000341171 0.000853171 0)
(-0.0140063 -0.00545671 0)
(-0.0163226 -0.0111002 0)
(-0.0175933 -0.0273449 0)
(-0.0150887 -0.0499245 0)
(-0.00273536 -0.0720382 0)
(0.0100919 -0.0931212 0)
(0.0138836 -0.121803 0)
(0.0150206 -0.130361 0)
(0.0120265 -0.122191 0)
(0.00608646 -0.123334 0)
(-0.000524911 -0.135233 0)
(0.00581791 -0.126187 0)
(-0.0105244 -0.169931 0)
(-0.00306271 -0.164705 0)
(-0.0115856 -0.14683 0)
(-0.0176426 -0.131873 0)
(-0.0268229 -0.122824 0)
(-0.0383646 -0.108511 0)
(-0.0437329 -0.0729473 0)
(-0.0213185 -0.0354189 0)
(0.000694443 -0.0129755 0)
(0.011311 0.0138552 0)
(0.0201449 0.0360418 0)
(0.0300858 0.038578 0)
(0.0356255 0.0410382 0)
(0.0394477 0.0316726 0)
(0.0384373 0.0357785 0)
(0.0301723 0.0445363 0)
(0.0157133 0.0280128 0)
(0.0024456 0.00836562 0)
(-0.0130334 -0.000359158 0)
(-0.0180131 -0.00755354 0)
(-0.0198727 -0.0304097 0)
(-0.0141567 -0.0556778 0)
(0.000334572 -0.074361 0)
(0.0160236 -0.092213 0)
(0.0182294 -0.120195 0)
(0.00969532 -0.122916 0)
(0.00678492 -0.118779 0)
(0.00538763 -0.11951 0)
(0.000351627 -0.128603 0)
(0.00641294 -0.123814 0)
(-0.00839271 -0.164733 0)
(-0.000988097 -0.167322 0)
(-0.00802559 -0.148704 0)
(-0.017208 -0.131555 0)
(-0.0265342 -0.120973 0)
(-0.0357844 -0.109129 0)
(-0.0395146 -0.0741032 0)
(-0.0196927 -0.0378384 0)
(-0.000806204 -0.0139027 0)
(0.0131224 0.008977 0)
(0.0221233 0.0323276 0)
(0.0301504 0.03302 0)
(0.0376914 0.0399939 0)
(0.0411273 0.0352646 0)
(0.0397224 0.0415795 0)
(0.0318714 0.0486191 0)
(0.0190911 0.0298208 0)
(0.0066138 0.015509 0)
(-0.0108077 0.00692764 0)
(-0.0174258 -0.00200735 0)
(-0.0172893 -0.0318854 0)
(-0.00775429 -0.0594022 0)
(0.00648555 -0.0779247 0)
(0.0209274 -0.0935299 0)
(0.0149782 -0.116407 0)
(0.0058251 -0.118897 0)
(0.00427943 -0.117398 0)
(0.00356164 -0.11704 0)
(0.000119891 -0.126945 0)
(0.00992391 -0.12009 0)
(-0.00697723 -0.158543 0)
(0.00204508 -0.165205 0)
(-0.00625718 -0.147537 0)
(-0.0188302 -0.130837 0)
(-0.0295348 -0.119261 0)
(-0.0313969 -0.106845 0)
(-0.0337987 -0.0708464 0)
(-0.02184 -0.0392921 0)
(-0.00246626 -0.0150822 0)
(0.0138614 0.00739072 0)
(0.0242531 0.0283379 0)
(0.0320237 0.0319411 0)
(0.0409058 0.0393789 0)
(0.0437923 0.039341 0)
(0.0414465 0.0473093 0)
(0.032205 0.0524309 0)
(0.0217436 0.033068 0)
(0.0126372 0.0233805 0)
(-0.00646511 0.0136478 0)
(-0.0142185 0.00290945 0)
(-0.0109919 -0.0347212 0)
(0.000576496 -0.0614853 0)
(0.0126341 -0.0796578 0)
(0.0218899 -0.0936197 0)
(0.0117481 -0.109463 0)
(0.00427866 -0.115938 0)
(0.00079609 -0.113946 0)
(0.00160549 -0.115841 0)
(-0.00194003 -0.125495 0)
(0.0112463 -0.115184 0)
(-0.00700085 -0.148493 0)
(0.00178248 -0.158834 0)
(-0.00662015 -0.140209 0)
(-0.0178578 -0.12375 0)
(-0.0271372 -0.113257 0)
(-0.0267184 -0.0985684 0)
(-0.0334456 -0.0644601 0)
(-0.0243286 -0.0368531 0)
(-0.00233534 -0.0139423 0)
(0.0113516 0.00575305 0)
(0.0238847 0.0279034 0)
(0.035112 0.0378913 0)
(0.0430209 0.0485513 0)
(0.0472905 0.0472159 0)
(0.0452693 0.0516423 0)
(0.0339557 0.0543417 0)
(0.0240544 0.037785 0)
(0.0174644 0.0296775 0)
(-0.000433046 0.020174 0)
(-0.01049 0.00722654 0)
(-0.00309103 -0.0361967 0)
(0.00624941 -0.0645667 0)