/*--------------------------------*- C++ -*----------------------------------*\
| =========                 |                                                 |
| \\      /  F ield         | OpenFOAM: The Open Source CFD Toolbox           |
|  \\    /   O peration     | Version:  2.3.0                                 |
|   \\  /    A nd           | Web:      www.OpenFOAM.org                      |
|    \\/     M anipulation  |                                                 |
\*---------------------------------------------------------------------------*/
FoamFile
{
    version     2.0;
    format      ascii;
    class       volVectorField;
    location    "21";
    object      U.waterMean;
}
// * * * * * * * * * * * * * * * * * * * * * * * * * * * * * * * * * * * * * //

dimensions      [0 1 -1 0 0 0 0];

internalField   nonuniform List<vector> 
1875
(
(0.0975301 -0.281528 0)
(0.157102 -0.266352 0)
(0.250101 -0.225513 0)
(0.3079 -0.186924 0)
(0.334347 -0.153297 0)
(0.33507 -0.124985 0)
(0.315149 -0.10355 0)
(0.277326 -0.0811396 0)
(0.226958 -0.0653209 0)
(0.163817 -0.0536791 0)
(0.0960118 -0.0434086 0)
(0.0275881 -0.0445832 0)
(-0.042869 -0.0498044 0)
(-0.109827 -0.0573584 0)
(-0.172205 -0.0683827 0)
(-0.228797 -0.0788455 0)
(-0.275456 -0.0918744 0)
(-0.311199 -0.108491 0)
(-0.333345 -0.123973 0)
(-0.34083 -0.141481 0)
(-0.330577 -0.162894 0)
(-0.30083 -0.190217 0)
(-0.243315 -0.224587 0)
(-0.153922 -0.265224 0)
(-0.0944501 -0.279959 0)
(0.0420341 -0.382694 0)
(0.0959408 -0.280654 0)
(0.139256 -0.141902 0)
(0.163265 -0.0348876 0)
(0.170682 0.0522956 0)
(0.168004 0.12486 0)
(0.155608 0.175095 0)
(0.133625 0.20918 0)
(0.107899 0.232407 0)
(0.0777036 0.245655 0)
(0.045915 0.251811 0)
(0.0137585 0.256911 0)
(-0.0215735 0.26057 0)
(-0.055694 0.255497 0)
(-0.0877175 0.247414 0)
(-0.115964 0.233687 0)
(-0.137879 0.214732 0)
(-0.155018 0.18822 0)
(-0.166437 0.14993 0)
(-0.172074 0.0988797 0)
(-0.168844 0.03152 0)
(-0.159959 -0.0427407 0)
(-0.134437 -0.143093 0)
(-0.0914113 -0.278164 0)
(-0.0427232 -0.377055 0)
(0.0127122 -0.507245 0)
(0.0163182 -0.35534 0)
(0.00928057 -0.224719 0)
(0.00507986 -0.125158 0)
(0.00386142 -0.0410736 0)
(0.00573907 0.0317644 0)
(0.00868922 0.0965452 0)
(0.00776598 0.14388 0)
(0.00581562 0.17175 0)
(0.00330745 0.191715 0)
(-0.00088071 0.204546 0)
(-0.00703969 0.208148 0)
(-0.0135873 0.207989 0)
(-0.0188755 0.194464 0)
(-0.0241249 0.173491 0)
(-0.0231616 0.143912 0)
(-0.0222343 0.109325 0)
(-0.0177859 0.0725924 0)
(-0.0142565 0.0262545 0)
(-0.00765326 -0.0285065 0)
(-0.000786107 -0.0872894 0)
(-0.00386788 -0.144272 0)
(-0.00905955 -0.221372 0)
(-0.0187593 -0.346471 0)
(-0.0142616 -0.497668 0)
(-0.00367454 -0.493528 0)
(-0.0172638 -0.305857 0)
(-0.0342101 -0.177204 0)
(-0.0452354 -0.0788785 0)
(-0.0492448 0.00419271 0)
(-0.0489074 0.0762219 0)
(-0.042608 0.134118 0)
(-0.0375787 0.175825 0)
(-0.0306777 0.203778 0)
(-0.0224996 0.224782 0)
(-0.013633 0.239122 0)
(-0.00411195 0.24995 0)
(0.0044482 0.253352 0)
(0.0136024 0.240409 0)
(0.0232004 0.218595 0)
(0.0329491 0.191485 0)
(0.0424595 0.162294 0)
(0.0498554 0.126605 0)
(0.0563537 0.0844453 0)
(0.0597421 0.0288511 0)
(0.0599883 -0.032021 0)
(0.0524619 -0.0951599 0)
(0.0387953 -0.171431 0)
(0.0181471 -0.29444 0)
(0.00349351 -0.490828 0)
(-0.00373415 -0.481612 0)
(-0.0170745 -0.300871 0)
(-0.033166 -0.170628 0)
(-0.0529381 -0.0803696 0)
(-0.0641257 -0.0114299 0)
(-0.0685452 0.0493075 0)
(-0.0649106 0.103292 0)
(-0.0593928 0.139561 0)
(-0.0515405 0.163488 0)
(-0.0406347 0.179399 0)
(-0.0267795 0.187469 0)
(-0.0108984 0.198303 0)
(0.00468888 0.199032 0)
(0.0227407 0.186878 0)
(0.0401565 0.165086 0)
(0.0553084 0.141563 0)
(0.0697295 0.110831 0)
(0.0813999 0.0814205 0)
(0.0895414 0.0454881 0)
(0.091559 0.00412839 0)
(0.0856673 -0.0452603 0)
(0.070988 -0.0915854 0)
(0.0457926 -0.158798 0)
(0.0216508 -0.28387 0)
(0.00494694 -0.478646 0)
(0.00116802 -0.469202 0)
(-0.00932415 -0.271265 0)
(-0.0188352 -0.118668 0)
(-0.0401419 -0.0215193 0)
(-0.0568459 0.0361752 0)
(-0.0694969 0.0794238 0)
(-0.0720441 0.115135 0)
(-0.0715586 0.144874 0)
(-0.0658161 0.159083 0)
(-0.0554166 0.16511 0)
(-0.0412322 0.167742 0)
(-0.0230604 0.172909 0)
(-0.00260574 0.173107 0)
(0.0193514 0.15989 0)
(0.040862 0.144896 0)
(0.059403 0.126226 0)
(0.0748544 0.107864 0)
(0.0866039 0.0876374 0)
(0.0918394 0.0659779 0)
(0.0894754 0.0419188 0)
(0.0767636 0.0143401 0)
(0.0563044 -0.0202194 0)
(0.0292259 -0.0931259 0)
(0.0120868 -0.238832 0)
(0.000575375 -0.456705 0)
(-0.00029256 -0.469044 0)
(-0.00370807 -0.27535 0)
(-0.00894308 -0.110333 0)
(-0.0230809 0.00370489 0)
(-0.0434556 0.0627603 0)
(-0.0574739 0.0982623 0)
(-0.0664122 0.123395 0)
(-0.0694538 0.139154 0)
(-0.0667189 0.139436 0)
(-0.0588578 0.132728 0)
(-0.0466177 0.124713 0)
(-0.0307326 0.118589 0)
(-0.00933734 0.109134 0)
(0.012964 0.0969575 0)
(0.0334816 0.0876302 0)
(0.0505902 0.0793697 0)
(0.0644099 0.0698183 0)
(0.0717263 0.0653759 0)
(0.0725785 0.0612538 0)
(0.0659709 0.0552147 0)
(0.0505092 0.0394819 0)
(0.0279546 0.0101123 0)
(0.00981529 -0.0814769 0)
(0.000838922 -0.241039 0)
(-0.00133786 -0.459845 0)
(0.00276448 -0.466731 0)
(-0.000290671 -0.26448 0)
(-0.00260689 -0.0881632 0)
(-0.0101705 0.0466056 0)
(-0.0296102 0.112618 0)
(-0.0450756 0.13807 0)
(-0.0575157 0.149104 0)
(-0.0610024 0.152183 0)
(-0.0595879 0.141603 0)
(-0.0518024 0.123198 0)
(-0.0402973 0.104789 0)
(-0.0263117 0.0873464 0)
(-0.00651478 0.0724308 0)
(0.0131102 0.0615418 0)
(0.0307245 0.0575779 0)
(0.044707 0.0584202 0)
(0.0547734 0.0649999 0)
(0.0572162 0.0757387 0)
(0.0541226 0.0859649 0)
(0.0440956 0.0962494 0)
(0.0267597 0.0986404 0)
(0.00562165 0.0630528 0)
(-0.00854367 -0.053501 0)
(-0.00590687 -0.241861 0)
(-0.00623753 -0.466877 0)
(0.00240432 -0.474809 0)
(0.00315265 -0.270387 0)
(0.00281986 -0.0918367 0)
(0.00280522 0.0576998 0)
(-0.0098395 0.141841 0)
(-0.0261973 0.167057 0)
(-0.0398062 0.168955 0)
(-0.0453875 0.152655 0)
(-0.0456491 0.125896 0)
(-0.0400901 0.0976395 0)
(-0.0308237 0.0732244 0)
(-0.01632 0.0474293 0)
(0.000634243 0.027172 0)
(0.017102 0.0176132 0)
(0.0303777 0.0202892 0)
(0.038283 0.0331836 0)
(0.0417984 0.0526326 0)
(0.0414347 0.0786599 0)
(0.0347615 0.10541 0)
(0.0221624 0.129119 0)
(0.00486042 0.134354 0)
(-0.0105464 0.0857181 0)
(-0.0140793 -0.059298 0)
(-0.00897795 -0.257956 0)
(-0.00535447 -0.485925 0)
(0.00429445 -0.48404 0)
(0.00843159 -0.273658 0)
(0.0106723 -0.0921281 0)
(0.0146506 0.0678978 0)
(0.0109308 0.17398 0)
(-0.00367678 0.206761 0)
(-0.0161295 0.196785 0)
(-0.0238773 0.169706 0)
(-0.0271988 0.133521 0)
(-0.0256855 0.0945633 0)
(-0.0201935 0.0560743 0)
(-0.00947855 0.0210997 0)
(0.000637077 0.00151424 0)
(0.011977 0.000543815 0)
(0.0205756 0.0136967 0)
(0.0290323 0.0343776 0)
(0.0299011 0.062619 0)
(0.026176 0.0982943 0)
(0.0149762 0.1362 0)
(-0.000293038 0.168579 0)
(-0.0155612 0.171616 0)
(-0.0254575 0.0998341 0)
(-0.0187909 -0.0676475 0)
(-0.0122314 -0.26986 0)
(-0.00490474 -0.504518 0)
(0.00537986 -0.506281 0)
(0.0113671 -0.293281 0)
(0.017546 -0.108278 0)
(0.0247576 0.0579965 0)
(0.0271319 0.181449 0)
(0.0218279 0.228505 0)
(0.00950719 0.218327 0)
(0.000112191 0.18054 0)
(-0.00590194 0.132815 0)
(-0.00902977 0.0832092 0)
(-0.00643179 0.0379359 0)
(-0.00381646 0.00495227 0)
(0.000395233 -0.0216153 0)
(0.00973718 -0.0287263 0)
(0.0157772 -0.0152077 0)
(0.0227716 0.0202933 0)
(0.0214754 0.0672806 0)
(0.0146604 0.12052 0)
(0.00137246 0.170343 0)
(-0.0146527 0.20731 0)
(-0.0285835 0.194399 0)
(-0.031029 0.0920421 0)
(-0.0196468 -0.094132 0)
(-0.0131617 -0.294999 0)
(-0.00286302 -0.528897 0)
(0.00510684 -0.525694 0)
(0.011312 -0.3105 0)
(0.018117 -0.122291 0)
(0.028505 0.0471206 0)
(0.0350502 0.180548 0)
(0.0372068 0.244598 0)
(0.0309883 0.243334 0)
(0.021006 0.20283 0)
(0.0138005 0.152266 0)
(0.00794175 0.0952629 0)
(0.00573603 0.0433854 0)
(0.00698561 0.00332869 0)
(0.00875862 -0.0253137 0)
(0.0105136 -0.0352354 0)
(0.00929654 -0.0171081 0)
(0.00903428 0.0220677 0)
(0.00593553 0.0805536 0)
(0.00122665 0.147333 0)
(-0.0123033 0.208492 0)
(-0.0246458 0.242115 0)
(-0.0341339 0.209109 0)
(-0.0275995 0.0772282 0)
(-0.0169731 -0.109477 0)
(-0.00946831 -0.315641 0)
(-0.00246831 -0.545065 0)
(0.00412694 -0.545689 0)
(0.00866194 -0.327532 0)
(0.0140959 -0.142225 0)
(0.0228428 0.0235895 0)
(0.0336926 0.164666 0)
(0.0400589 0.242665 0)
(0.0415882 0.255299 0)
(0.0348806 0.218654 0)
(0.0279425 0.160075 0)
(0.023831 0.0961325 0)
(0.0208119 0.0430076 0)
(0.019727 0.00383692 0)
(0.0205301 -0.0244832 0)
(0.0175704 -0.0263851 0)
(0.0106112 -0.00624175 0)
(0.00471617 0.0314644 0)
(-0.00230944 0.0876575 0)
(-0.0093381 0.160281 0)
(-0.017895 0.231609 0)
(-0.0261424 0.257134 0)
(-0.027107 0.205459 0)
(-0.0150247 0.0576758 0)
(-0.00755797 -0.125901 0)
(-0.00300512 -0.33224 0)
(-0.00136527 -0.555651 0)
(0.00296006 -0.559998 0)
(0.00665153 -0.337182 0)
(0.0100304 -0.153942 0)
(0.0162236 0.00589645 0)
(0.0278491 0.141389 0)
(0.0386179 0.231198 0)
(0.0452695 0.253722 0)
(0.0470153 0.230452 0)
(0.0436378 0.174655 0)
(0.0394893 0.110567 0)
(0.0345848 0.0525318 0)
(0.0320316 0.00817292 0)
(0.0298005 -0.0141132 0)
(0.0255753 -0.00558666 0)
(0.0169262 0.0158671 0)
(0.0104961 0.0534927 0)
(-0.00117308 0.106136 0)
(-0.0120461 0.178763 0)
(-0.0194628 0.249279 0)
(-0.0223659 0.261907 0)
(-0.0151431 0.188987 0)
(-0.00436152 0.040329 0)
(-0.000866879 -0.133249 0)
(0.000176473 -0.335915 0)
(-0.00125768 -0.56078 0)
(0.0017776 -0.570908 0)
(0.00346363 -0.345512 0)
(0.00563268 -0.164383 0)
(0.00920891 -0.00990825 0)
(0.0173353 0.114066 0)
(0.0301969 0.206295 0)
(0.0404366 0.237766 0)
(0.0473131 0.220733 0)
(0.0497594 0.177804 0)
(0.0516206 0.11551 0)
(0.0483402 0.0627483 0)
(0.0434117 0.0170943 0)
(0.0386487 -0.00718547 0)
(0.033312 0.00381347 0)
(0.0231452 0.0305416 0)
(0.0132538 0.0746802 0)
(-0.000959243 0.13087 0)
(-0.0110547 0.200498 0)
(-0.0182701 0.25584 0)
(-0.0153852 0.254222 0)
(-0.00578978 0.173859 0)
(0.00182988 0.028565 0)
(0.00139558 -0.13799 0)
(0.000865441 -0.337787 0)
(-0.000718297 -0.566089 0)
(0.000471702 -0.574801 0)
(9.8386e-05 -0.346695 0)
(-0.000712049 -0.166347 0)
(0.000196351 -0.0159037 0)
(0.00466752 0.0985994 0)
(0.0141721 0.17961 0)
(0.0272909 0.216837 0)
(0.0376884 0.205058 0)
(0.0464926 0.165853 0)
(0.0529128 0.116976 0)
(0.0509318 0.0767592 0)
(0.0467289 0.0351052 0)
(0.0399126 0.0122369 0)
(0.0315835 0.0278337 0)
(0.021304 0.0635455 0)
(0.0107875 0.106656 0)
(-5.64091e-05 0.157339 0)
(-0.0074342 0.215129 0)
(-0.0102577 0.256325 0)
(-0.00567017 0.238892 0)
(0.00384247 0.154562 0)
(0.00761005 0.0247146 0)
(0.00349369 -0.135383 0)
(0.00248759 -0.336868 0)
(0.000204171 -0.566727 0)
(-0.000204728 -0.575186 0)
(-0.00224979 -0.344938 0)
(-0.00532666 -0.160147 0)
(-0.00771041 -0.0152339 0)
(-0.0059926 0.0880987 0)
(-0.000894549 0.156579 0)
(0.0127741 0.18685 0)
(0.0237871 0.173671 0)
(0.0329521 0.139586 0)
(0.0387541 0.107446 0)
(0.0410228 0.0771173 0)
(0.0409974 0.0443675 0)
(0.0388381 0.0302817 0)
(0.0301697 0.0459499 0)
(0.0228796 0.0787156 0)
(0.0144138 0.123081 0)
(0.00582687 0.169825 0)
(0.00115989 0.224091 0)
(0.000329498 0.253478 0)
(0.00724337 0.225006 0)
(0.0115633 0.147878 0)
(0.010819 0.0311172 0)
(0.00836217 -0.128861 0)
(0.00525388 -0.331814 0)
(0.000988094 -0.563585 0)
(-0.000483357 -0.57342 0)
(-0.00257321 -0.341662 0)
(-0.00476544 -0.153104 0)
(-0.00732895 -0.0111124 0)
(-0.00739286 0.0848154 0)
(-0.00337516 0.140645 0)
(0.00691214 0.162655 0)
(0.0137903 0.152147 0)
(0.0192202 0.12354 0)
(0.0214162 0.0945576 0)
(0.0262735 0.069753 0)
(0.0264285 0.0457276 0)
(0.0268899 0.037297 0)
(0.0225323 0.0610023 0)
(0.0159617 0.0984905 0)
(0.00850015 0.143001 0)
(0.00267593 0.185567 0)
(0.000173945 0.22322 0)
(0.00438211 0.241574 0)
(0.0101631 0.217922 0)
(0.0135385 0.147525 0)
(0.012486 0.0370286 0)
(0.0118889 -0.121527 0)
(0.00691986 -0.321277 0)
(0.00117765 -0.556377 0)
(6.08628e-05 -0.572336 0)
(-0.00209764 -0.341277 0)
(-0.00243445 -0.153239 0)
(-0.000829423 -0.0096278 0)
(2.31893e-06 0.0804717 0)
(0.00298092 0.129496 0)
(0.0081207 0.147644 0)
(0.0117336 0.139224 0)
(0.0130959 0.114178 0)
(0.0125938 0.0865551 0)
(0.0123951 0.0634257 0)
(0.00900698 0.0460177 0)
(0.00477286 0.0423617 0)
(-0.00147695 0.0711494 0)
(-0.00501917 0.11305 0)
(-0.00849538 0.150418 0)
(-0.00790243 0.189643 0)
(-0.00481918 0.217667 0)
(-0.000779966 0.228968 0)
(0.00447688 0.209122 0)
(0.00951762 0.146463 0)
(0.00987987 0.0407847 0)
(0.0107853 -0.114603 0)
(0.00561215 -0.310113 0)
(-1.92546e-05 -0.549736 0)
(-0.00044144 -0.571234 0)
(-0.00361103 -0.339614 0)
(-0.00368663 -0.154776 0)
(-0.00145608 -0.017712 0)
(0.00231544 0.0728947 0)
(0.00683293 0.123652 0)
(0.0109438 0.14429 0)
(0.0129586 0.139357 0)
(0.012351 0.121295 0)
(0.00760313 0.0967503 0)
(0.00102976 0.0807825 0)
(-0.00960577 0.0690394 0)
(-0.0190686 0.0619963 0)
(-0.0257081 0.0788109 0)
(-0.0268519 0.114896 0)
(-0.0267911 0.149687 0)
(-0.0239312 0.178484 0)
(-0.0173713 0.202262 0)
(-0.0139508 0.217579 0)
(-0.00641857 0.194404 0)
(8.2904e-05 0.135835 0)
(0.004081 0.037119 0)
(0.0055894 -0.111151 0)
(0.00235614 -0.303908 0)
(-0.00132577 -0.549065 0)
(-0.00111737 -0.566417 0)
(-0.00638744 -0.335192 0)
(-0.00740977 -0.155329 0)
(-0.00615119 -0.0250539 0)
(-0.002388 0.0609916 0)
(0.00271206 0.10988 0)
(0.00825772 0.134854 0)
(0.00802876 0.136619 0)
(0.00559241 0.127188 0)
(-0.00120392 0.115828 0)
(-0.0111762 0.105228 0)
(-0.0204395 0.0929454 0)
(-0.0281796 0.0818625 0)
(-0.0349346 0.0915297 0)
(-0.0379805 0.116575 0)
(-0.0371706 0.14452 0)
(-0.0334373 0.166299 0)
(-0.0291948 0.191533 0)
(-0.0228986 0.200599 0)
(-0.0131972 0.177433 0)
(-0.00576569 0.121304 0)
(-0.0013266 0.0291468 0)
(0.00024871 -0.108024 0)
(0.000347398 -0.300877 0)
(-0.0018973 -0.551542 0)
(-0.00193004 -0.557667 0)
(-0.00889762 -0.32548 0)
(-0.0127791 -0.153255 0)
(-0.0119292 -0.0285225 0)
(-0.0106234 0.0520312 0)
(-0.00610939 0.0997609 0)
(-0.0038205 0.132645 0)
(-0.00479923 0.141582 0)
(-0.00925737 0.140311 0)
(-0.0147145 0.132697 0)
(-0.020329 0.123058 0)
(-0.0266941 0.11127 0)
(-0.0322049 0.0988534 0)
(-0.0360909 0.104876 0)
(-0.0380599 0.12139 0)
(-0.0364021 0.140571 0)
(-0.0339132 0.160074 0)
(-0.0308597 0.179589 0)
(-0.0232316 0.181662 0)
(-0.0141542 0.1597 0)
(-0.00814136 0.111297 0)
(-0.00447491 0.0246771 0)
(-0.00197621 -0.111159 0)
(-0.000112316 -0.301933 0)
(-0.00137486 -0.555494 0)
(-0.0026782 -0.544898 0)
(-0.0108061 -0.310153 0)
(-0.0179984 -0.145957 0)
(-0.0195466 -0.0260767 0)
(-0.0197014 0.0524202 0)
(-0.0170024 0.102497 0)
(-0.0159875 0.138667 0)
(-0.0155759 0.152077 0)
(-0.0167543 0.148673 0)
(-0.0190959 0.138411 0)
(-0.0219456 0.13227 0)
(-0.0265881 0.121785 0)
(-0.0299305 0.107201 0)
(-0.0322787 0.109901 0)
(-0.0328278 0.120782 0)
(-0.031365 0.137723 0)
(-0.0293745 0.155112 0)
(-0.0263979 0.167384 0)
(-0.0195499 0.165213 0)
(-0.012494 0.143431 0)
(-0.00718697 0.102662 0)
(-0.00435851 0.0201155 0)
(8.70418e-05 -0.11823 0)
(0.000878141 -0.303598 0)
(-3.45619e-05 -0.557497 0)
(-0.00196414 -0.53365 0)
(-0.00828647 -0.296416 0)
(-0.0165533 -0.134847 0)
(-0.0207132 -0.0243022 0)
(-0.0212476 0.0468566 0)
(-0.0196094 0.0971273 0)
(-0.0164809 0.132535 0)
(-0.0131171 0.145452 0)
(-0.0108814 0.147204 0)
(-0.0128993 0.142729 0)
(-0.0158373 0.139934 0)
(-0.0209239 0.129417 0)
(-0.0237545 0.115501 0)
(-0.0258962 0.114546 0)
(-0.0265018 0.12208 0)
(-0.0265011 0.135574 0)
(-0.0241574 0.148772 0)
(-0.0213426 0.155038 0)
(-0.015551 0.150699 0)
(-0.0100654 0.12964 0)
(-0.0052011 0.0930042 0)
(-0.00136605 0.012761 0)
(0.00333957 -0.124767 0)
(0.00196405 -0.304199 0)
(0.000564553 -0.556605 0)
(-0.0013633 -0.524543 0)
(-0.00632974 -0.284899 0)
(-0.0103333 -0.120565 0)
(-0.0151087 -0.0179442 0)
(-0.0162374 0.0460129 0)
(-0.0164452 0.0929809 0)
(-0.013126 0.123524 0)
(-0.00940591 0.139468 0)
(-0.00795124 0.144137 0)
(-0.0106896 0.146558 0)
(-0.013136 0.147183 0)
(-0.0153413 0.138117 0)
(-0.0156133 0.120975 0)
(-0.0180494 0.119231 0)
(-0.0193785 0.12418 0)
(-0.0208251 0.133147 0)
(-0.0197741 0.143326 0)
(-0.0173174 0.146701 0)
(-0.0123307 0.139407 0)
(-0.00809842 0.118687 0)
(-0.00237222 0.0821331 0)
(0.00180835 0.00520331 0)
(0.00559725 -0.125846 0)
(0.00307489 -0.300065 0)
(0.000881798 -0.553523 0)
(-0.000687292 -0.519476 0)
(-0.00333902 -0.280836 0)
(-0.00420416 -0.117261 0)
(-0.00517619 -0.0134966 0)
(-0.00711405 0.0484693 0)
(-0.00931975 0.0914714 0)
(-0.00800599 0.116975 0)
(-0.00578353 0.135108 0)
(-0.00529583 0.147684 0)
(-0.00672613 0.150642 0)
(-0.00706336 0.147401 0)
(-0.0065586 0.137959 0)
(-0.00544928 0.123888 0)
(-0.00711826 0.12516 0)
(-0.00906952 0.131478 0)
(-0.0126735 0.13966 0)
(-0.0145515 0.14298 0)
(-0.0128414 0.139469 0)
(-0.0108776 0.129432 0)
(-0.00655586 0.110324 0)
(-0.00246236 0.0713381 0)
(0.00227375 -0.0040846 0)
(0.0041734 -0.127322 0)
(0.00276128 -0.297726 0)
(0.000682831 -0.550228 0)
(-0.000210205 -0.516521 0)
(-0.00187078 -0.278537 0)
(-0.00193151 -0.116253 0)
(-0.000616473 -0.0120415 0)
(0.000179453 0.0524309 0)
(-0.000386663 0.094448 0)
(7.07784e-06 0.117034 0)
(0.0010989 0.133429 0)
(0.00271621 0.146383 0)
(0.00335425 0.148709 0)
(0.00386969 0.145714 0)
(0.00367215 0.138155 0)
(0.00412179 0.126841 0)
(0.00234328 0.129978 0)
(-0.000721113 0.139217 0)
(-0.00400848 0.147644 0)
(-0.00685387 0.145915 0)
(-0.00892598 0.139695 0)
(-0.0105794 0.125099 0)
(-0.00759173 0.101681 0)
(-0.00448771 0.0648456 0)
(0.00124653 -0.0144056 0)
(0.00193731 -0.126142 0)
(0.00156892 -0.296472 0)
(0.000550296 -0.548081 0)
(8.71804e-05 -0.515295 0)
(-0.00175479 -0.278253 0)
(-0.00107999 -0.117833 0)
(0.00104512 -0.0177496 0)
(0.00425515 0.0473018 0)
(0.00708165 0.0911481 0)
(0.00893598 0.115027 0)
(0.0100712 0.13055 0)
(0.012066 0.144442 0)
(0.0128791 0.150016 0)
(0.0132164 0.148556 0)
(0.0131276 0.141362 0)
(0.0123184 0.131693 0)
(0.00901324 0.137175 0)
(0.00337612 0.147503 0)
(-0.000580802 0.154805 0)
(-0.00397669 0.153804 0)
(-0.00642992 0.145005 0)
(-0.00914697 0.124197 0)
(-0.00968054 0.0950924 0)
(-0.00622965 0.0531956 0)
(-0.00187915 -0.0228676 0)
(-0.000820441 -0.12865 0)
(0.00121623 -0.297695 0)
(0.000397445 -0.547367 0)
(-5.7174e-05 -0.513699 0)
(-0.00206914 -0.277727 0)
(-0.0013431 -0.122171 0)
(0.00170882 -0.0244674 0)
(0.00487717 0.0394324 0)
(0.00945684 0.0826649 0)
(0.013148 0.110821 0)
(0.0150406 0.12867 0)
(0.0166128 0.142487 0)
(0.019068 0.146518 0)
(0.0196956 0.147367 0)
(0.0201659 0.142505 0)
(0.0181014 0.140913 0)
(0.0132585 0.152871 0)
(0.00678486 0.162262 0)
(0.00264528 0.163341 0)
(-0.000824876 0.159008 0)
(-0.0027897 0.147138 0)
(-0.00515179 0.127057 0)
(-0.00725858 0.0951039 0)
(-0.00608185 0.0462279 0)
(-0.0032958 -0.0282264 0)
(-0.00151513 -0.133217 0)
(0.00175524 -0.302063 0)
(0.000593453 -0.546814 0)
(-0.000182691 -0.511906 0)
(-0.00243534 -0.276233 0)
(-0.00259439 -0.126542 0)
(0.000786943 -0.0320195 0)
(0.00439666 0.0306898 0)
(0.00870847 0.0718893 0)
(0.0140877 0.103046 0)
(0.0174647 0.122902 0)
(0.0210861 0.135312 0)
(0.0233167 0.143106 0)
(0.0244011 0.146494 0)
(0.0239868 0.146108 0)
(0.0219424 0.150967 0)
(0.0184692 0.16497 0)
(0.0141775 0.17402 0)
(0.00983495 0.173169 0)
(0.00615034 0.164072 0)
(0.00321325 0.151435 0)
(0.000565576 0.131571 0)
(-0.000887299 0.0970231 0)
(-0.000543183 0.0446009 0)
(2.11577e-05 -0.033334 0)
(0.0020026 -0.139603 0)
(0.00343137 -0.303237 0)
(0.00134237 -0.544192 0)
(-0.000437369 -0.509671 0)
(-0.00271783 -0.274165 0)
(-0.00383537 -0.130341 0)
(-0.00189966 -0.041184 0)
(0.00197349 0.0224561 0)
(0.00568192 0.0603346 0)
(0.0107632 0.0917813 0)
(0.0147425 0.113931 0)
(0.0192045 0.130565 0)
(0.0218127 0.141613 0)
(0.0248622 0.14821 0)
(0.0245842 0.15134 0)
(0.0232159 0.158122 0)
(0.0197628 0.174732 0)
(0.0159212 0.184949 0)
(0.0126594 0.182329 0)
(0.00993609 0.17415 0)
(0.00672722 0.158341 0)
(0.00583968 0.135445 0)
(0.0056535 0.0998161 0)
(0.0060177 0.0462345 0)
(0.00610712 -0.0323785 0)
(0.00689751 -0.141311 0)
(0.00558432 -0.299875 0)
(0.00218762 -0.538167 0)
(-0.000504089 -0.506889 0)
(-0.00343327 -0.270825 0)
(-0.00519823 -0.128785 0)
(-0.00636827 -0.0468895 0)
(-0.00399232 0.0136586 0)
(-0.00127371 0.0502064 0)
(0.00138085 0.0805186 0)
(0.00508397 0.102663 0)
(0.00952824 0.119595 0)
(0.0135114 0.132612 0)
(0.0172664 0.14351 0)
(0.0182306 0.153755 0)
(0.0180014 0.165612 0)
(0.0161919 0.184807 0)
(0.0146251 0.193364 0)
(0.0130334 0.189684 0)
(0.011808 0.179695 0)
(0.0108482 0.162159 0)
(0.0112217 0.135455 0)
(0.0117905 0.100081 0)
(0.0118249 0.0464516 0)
(0.0118745 -0.0335571 0)
(0.0102144 -0.138885 0)
(0.00755127 -0.294429 0)
(0.00253684 -0.528889 0)
(-0.000778717 -0.502656 0)
(-0.00475646 -0.26617 0)
(-0.00688024 -0.123696 0)
(-0.00994488 -0.0449167 0)
(-0.0112916 0.00971662 0)
(-0.0110809 0.0468907 0)
(-0.0102869 0.0744188 0)
(-0.00886808 0.0940462 0)
(-0.00611184 0.111116 0)
(-0.00187128 0.124932 0)
(0.00297903 0.138406 0)
(0.00630192 0.152066 0)
(0.00825009 0.166021 0)
(0.00921822 0.186987 0)
(0.0103461 0.194636 0)
(0.01171 0.190533 0)
(0.0128539 0.180178 0)
(0.013969 0.162944 0)
(0.0147724 0.135248 0)
(0.0158467 0.0977125 0)
(0.0163546 0.0474594 0)
(0.0157826 -0.0299609 0)
(0.0122926 -0.133124 0)
(0.00842656 -0.285174 0)
(0.0025955 -0.518057 0)
(-0.0011347 -0.497032 0)
(-0.00618164 -0.259563 0)
(-0.00960781 -0.116737 0)
(-0.0129998 -0.0372187 0)
(-0.0159688 0.0148197 0)
(-0.0167491 0.0473866 0)
(-0.0172137 0.072401 0)
(-0.0178618 0.091101 0)
(-0.0174301 0.103757 0)
(-0.0159292 0.113279 0)
(-0.0120909 0.127538 0)
(-0.00822431 0.143785 0)
(-0.00418486 0.161596 0)
(-0.000653013 0.184182 0)
(0.00293321 0.191366 0)
(0.00658205 0.186141 0)
(0.0094216 0.174864 0)
(0.0125709 0.159086 0)
(0.0146878 0.133409 0)
(0.0169039 0.0969142 0)
(0.0167103 0.0469349 0)
(0.0165894 -0.0252245 0)
(0.0116805 -0.125016 0)
(0.00811721 -0.274942 0)
(0.00236461 -0.507102 0)
(-0.00186736 -0.488758 0)
(-0.0077935 -0.248803 0)
(-0.0123547 -0.107115 0)
(-0.0160784 -0.0294668 0)
(-0.0187077 0.0193929 0)
(-0.0190383 0.0509199 0)
(-0.0190707 0.076381 0)
(-0.0200667 0.0957762 0)
(-0.0202281 0.107778 0)
(-0.0208738 0.114014 0)
(-0.0204677 0.123216 0)
(-0.0182478 0.136769 0)
(-0.0146004 0.151628 0)
(-0.0103099 0.175363 0)
(-0.00567253 0.181261 0)
(-0.000538265 0.177792 0)
(0.00207398 0.169499 0)
(0.0062075 0.152303 0)
(0.00867762 0.126873 0)
(0.0131602 0.0910123 0)
(0.0129262 0.047878 0)
(0.0134892 -0.0211468 0)
(0.00933403 -0.116711 0)
(0.00704553 -0.266555 0)
(0.00194508 -0.497177 0)
(-0.00206355 -0.478962 0)
(-0.00825295 -0.237904 0)
(-0.0122144 -0.0986018 0)
(-0.0152471 -0.0225206 0)
(-0.0186141 0.0211648 0)
(-0.0183841 0.0491436 0)
(-0.0183275 0.0748972 0)
(-0.0181818 0.0948241 0)
(-0.0177402 0.107712 0)
(-0.0195247 0.115581 0)
(-0.0219825 0.123379 0)
(-0.0237898 0.132901 0)
(-0.0220457 0.143573 0)
(-0.0179748 0.167944 0)
(-0.0135966 0.173786 0)
(-0.00836741 0.170667 0)
(-0.00409032 0.161462 0)
(0.000506251 0.143772 0)
(0.00384822 0.120272 0)
(0.00739443 0.0871503 0)
(0.00825481 0.0468275 0)
(0.0094156 -0.0188419 0)
(0.0073691 -0.110851 0)
(0.00609983 -0.259868 0)
(0.00151421 -0.488629 0)
(-0.00181894 -0.46944 0)
(-0.0080656 -0.229162 0)
(-0.0108496 -0.0934513 0)
(-0.0127524 -0.0166576 0)
(-0.0171811 0.0256878 0)
(-0.0186861 0.050514 0)
(-0.0204745 0.0749511 0)
(-0.0205225 0.093911 0)
(-0.0213154 0.111143 0)
(-0.0239671 0.124188 0)
(-0.0274979 0.133514 0)
(-0.0309418 0.138437 0)
(-0.0301134 0.139333 0)
(-0.0261432 0.156631 0)
(-0.0211984 0.160726 0)
(-0.0164347 0.155848 0)
(-0.0112179 0.149534 0)
(-0.00674818 0.134851 0)
(-0.00282017 0.112207 0)
(0.00148087 0.0807974 0)
(0.00374024 0.0436386 0)
(0.00495223 -0.0194316 0)
(0.00564269 -0.109403 0)
(0.00484503 -0.25435 0)
(0.00134095 -0.482125 0)
(-0.00187327 -0.459677 0)
(-0.00783216 -0.21857 0)
(-0.0110564 -0.0904424 0)
(-0.0110061 -0.00892228 0)
(-0.0171792 0.0340765 0)
(-0.0215874 0.0573681 0)
(-0.026215 0.079407 0)
(-0.0285626 0.0971651 0)
(-0.0308988 0.116346 0)
(-0.0330784 0.13319 0)
(-0.0347597 0.140825 0)
(-0.0361884 0.142161 0)
(-0.0346559 0.134432 0)
(-0.0306339 0.147481 0)
(-0.0259283 0.152576 0)
(-0.0224738 0.148245 0)
(-0.0180702 0.139561 0)
(-0.0129594 0.123736 0)
(-0.00798145 0.101911 0)
(-0.0036916 0.0723212 0)
(-0.000697302 0.0384058 0)
(0.00104234 -0.0236868 0)
(0.0042444 -0.110965 0)
(0.00358007 -0.250613 0)
(0.00122238 -0.476625 0)
(-0.00210157 -0.4509 0)
(-0.00668027 -0.208488 0)
(-0.0105993 -0.0885636 0)
(-0.0098293 -0.00391277 0)
(-0.0144491 0.046187 0)
(-0.0191256 0.0690088 0)
(-0.0236505 0.0894358 0)
(-0.0278967 0.103622 0)
(-0.0318899 0.12194 0)
(-0.0342217 0.135707 0)
(-0.0347569 0.142761 0)
(-0.0354799 0.14171 0)
(-0.0341838 0.129395 0)
(-0.0311695 0.138532 0)
(-0.0259556 0.144605 0)
(-0.0221713 0.14001 0)
(-0.0182759 0.128397 0)
(-0.0140706 0.112675 0)
(-0.00952041 0.0919929 0)
(-0.00629181 0.0655561 0)
(-0.00333746 0.0321373 0)
(-0.000371758 -0.0307254 0)
(0.00370394 -0.115773 0)
(0.00278581 -0.249233 0)
(0.00112527 -0.473087 0)
(-0.00226818 -0.442188 0)
(-0.00599501 -0.199817 0)
(-0.00958699 -0.0836988 0)
(-0.00938067 -0.00150155 0)
(-0.0097286 0.0532364 0)
(-0.0143444 0.0768783 0)
(-0.0179027 0.0994794 0)
(-0.0228671 0.116523 0)
(-0.0268256 0.132647 0)
(-0.0292443 0.141747 0)
(-0.0298985 0.145399 0)
(-0.0310899 0.143328 0)
(-0.0301653 0.12704 0)
(-0.0283153 0.130333 0)
(-0.0247702 0.13245 0)
(-0.0201621 0.133109 0)
(-0.016597 0.121655 0)
(-0.0134875 0.103828 0)
(-0.0109048 0.0842511 0)
(-0.00781932 0.0578366 0)
(-0.00246487 0.0232559 0)
(0.00180847 -0.0409439 0)
(0.00420504 -0.11914 0)
(0.00277997 -0.246962 0)
(0.00138775 -0.469624 0)
(-0.00186342 -0.434509 0)
(-0.00534675 -0.194282 0)
(-0.00840355 -0.079721 0)
(-0.00881523 -0.00518701 0)
(-0.00696084 0.0567235 0)
(-0.0102886 0.084297 0)
(-0.0138323 0.109299 0)
(-0.0180531 0.125938 0)
(-0.0203846 0.138998 0)
(-0.0220232 0.14486 0)
(-0.0226159 0.148994 0)
(-0.0238182 0.145836 0)
(-0.0232835 0.127176 0)
(-0.0228082 0.128288 0)
(-0.0222016 0.12604 0)
(-0.0194195 0.121771 0)
(-0.0149133 0.112534 0)
(-0.0113539 0.0979072 0)
(-0.00857243 0.0787526 0)
(-0.00383942 0.0466321 0)
(0.00337508 0.0112796 0)
(0.00580243 -0.0455487 0)
(0.00718175 -0.117827 0)
(0.00428389 -0.241712 0)
(0.00220823 -0.464767 0)
(-0.00207942 -0.42861 0)
(-0.00487428 -0.188478 0)
(-0.00847609 -0.0757671 0)
(-0.00970592 -0.0056826 0)
(-0.00925187 0.056163 0)
(-0.01013 0.0902419 0)
(-0.0124391 0.117695 0)
(-0.0143293 0.133292 0)
(-0.0155657 0.143846 0)
(-0.0159785 0.148974 0)
(-0.0172453 0.152291 0)
(-0.0174218 0.148376 0)
(-0.0163218 0.129192 0)
(-0.017162 0.129732 0)
(-0.0169031 0.123237 0)
(-0.0152055 0.114607 0)
(-0.0114718 0.102588 0)
(-0.00810003 0.088029 0)
(-0.00341968 0.0674555 0)
(0.00216822 0.0306223 0)
(0.00703524 0.000925697 0)
(0.00646894 -0.0486878 0)
(0.00816367 -0.118537 0)
(0.00463242 -0.235966 0)
(0.00285911 -0.458532 0)
(-0.00245814 -0.421095 0)
(-0.00525655 -0.180173 0)
(-0.00964957 -0.0693587 0)
(-0.0110908 -0.00258464 0)
(-0.012971 0.0568755 0)
(-0.0107891 0.089979 0)
(-0.0109818 0.119336 0)
(-0.0115181 0.133278 0)
(-0.0115438 0.143506 0)
(-0.0116922 0.149451 0)
(-0.0122668 0.152323 0)
(-0.010862 0.144245 0)
(-0.0109049 0.129532 0)
(-0.011252 0.131287 0)
(-0.0115256 0.122834 0)
(-0.00946367 0.110737 0)
(-0.00548494 0.0962123 0)
(-0.0016874 0.0782584 0)
(0.00324133 0.0568034 0)
(0.00673956 0.022239 0)
(0.00832614 -0.000892054 0)
(0.00755735 -0.0490609 0)
(0.00901378 -0.11714 0)
(0.00466526 -0.230229 0)
(0.00326899 -0.451313 0)
(-0.00227226 -0.41434 0)
(-0.00444485 -0.17477 0)
(-0.00717292 -0.062524 0)
(-0.00966672 0.00191905 0)
(-0.0119707 0.0550583 0)
(-0.00941114 0.0857441 0)
(-0.00713412 0.119903 0)
(-0.00626533 0.134738 0)
(-0.00518084 0.143968 0)
(-0.00563843 0.150041 0)
(-0.00537205 0.151583 0)
(-0.00438924 0.145414 0)
(-0.00625087 0.132598 0)
(-0.00686289 0.133935 0)
(-0.00573893 0.119617 0)
(-0.00189509 0.10304 0)
(0.00243479 0.0860932 0)
(0.00671404 0.0689516 0)
(0.011435 0.0521727 0)
(0.0135416 0.0201797 0)
(0.0141168 -0.000122179 0)
(0.0132755 -0.0482763 0)
(0.0114347 -0.111924 0)
(0.00628461 -0.22158 0)
(0.00375992 -0.441893 0)
(-0.00203354 -0.408271 0)
(-0.00377409 -0.172869 0)
(-0.00426591 -0.0582114 0)
(-0.00569808 0.00713867 0)
(-0.00735697 0.0540551 0)
(-0.00481973 0.0784224 0)
(-0.00064407 0.112939 0)
(0.00307957 0.130109 0)
(0.00570709 0.144087 0)
(0.0061691 0.150516 0)
(0.00760848 0.149734 0)
(0.0074182 0.146988 0)
(0.00716489 0.137508 0)
(0.00559002 0.134725 0)
(0.00594747 0.113098 0)
(0.00735447 0.0946037 0)
(0.0095717 0.0777362 0)
(0.0123519 0.0590704 0)
(0.0166523 0.0446102 0)
(0.0179996 0.0180858 0)
(0.018346 0.00115936 0)
(0.015657 -0.0436801 0)
(0.010636 -0.103877 0)
(0.00639304 -0.21513 0)
(0.00362402 -0.43219 0)
(-0.00215234 -0.402875 0)
(-0.00334292 -0.170301 0)
(-0.00318797 -0.0577003 0)
(-0.00193086 0.00871642 0)
(-0.00105001 0.0516054 0)
(0.00220696 0.0705856 0)
(0.00609575 0.103917 0)
(0.00985553 0.122688 0)
(0.0120603 0.138669 0)
(0.0142588 0.146789 0)
(0.0162309 0.148285 0)
(0.0171792 0.146675 0)
(0.0187097 0.137596 0)
(0.0200691 0.138402 0)
(0.0189614 0.117117 0)
(0.0167867 0.0956654 0)
(0.0160992 0.0749766 0)
(0.0174224 0.0534989 0)
(0.0189008 0.0410359 0)
(0.0192525 0.018015 0)
(0.019165 0.00463734 0)
(0.0146111 -0.0319323 0)
(0.0103415 -0.0942239 0)
(0.00676148 -0.207914 0)
(0.00353939 -0.422227 0)
(-0.00219152 -0.398696 0)
(-0.00262443 -0.170892 0)
(-0.00141153 -0.0621448 0)
(0.00179599 0.000414171 0)
(0.00574245 0.0436344 0)
(0.0081008 0.0604873 0)
(0.0102551 0.0955311 0)
(0.0126375 0.117408 0)
(0.0140536 0.135042 0)
(0.0166699 0.140609 0)
(0.0188414 0.142744 0)
(0.0218056 0.143455 0)
(0.023863 0.131809 0)
(0.0261017 0.136075 0)
(0.0267517 0.122172 0)
(0.0245123 0.102236 0)
(0.023207 0.0768476 0)
(0.0218384 0.0542278 0)
(0.0212335 0.0414552 0)
(0.0196007 0.0201268 0)
(0.0174744 0.0111523 0)
(0.0128449 -0.0238819 0)
(0.0108904 -0.0880568 0)
(0.00798738 -0.199917 0)
(0.00361147 -0.411181 0)
(-0.00282839 -0.394266 0)
(-0.00289924 -0.171947 0)
(-0.00242529 -0.0678865 0)
(0.00119097 -0.00844198 0)
(0.00485033 0.0373947 0)
(0.00574224 0.0585402 0)
(0.00632047 0.0943408 0)
(0.00868587 0.114879 0)
(0.012476 0.130144 0)
(0.0169565 0.136233 0)
(0.0211633 0.137812 0)
(0.024463 0.136871 0)
(0.0268526 0.128618 0)
(0.0291964 0.13245 0)