/*--------------------------------*- C++ -*----------------------------------*\
| =========                 |                                                 |
| \\      /  F ield         | OpenFOAM: The Open Source CFD Toolbox           |
|  \\    /   O peration     | Version:  2.3.0                                 |
|   \\  /    A nd           | Web:      www.OpenFOAM.org                      |
|    \\/     M anipulation  |                                                 |
\*---------------------------------------------------------------------------*/
FoamFile
{
    version     2.0;
    format      ascii;
    class       volScalarField;
    location    "1.71";
    object      p;
}
// * * * * * * * * * * * * * * * * * * * * * * * * * * * * * * * * * * * * * //

dimensions      [1 -1 -2 0 0 0 0];

internalField   nonuniform List<scalar> 
6000
(
105954
105946
105937
105931
105928
105927
105926
105925
105928
105931
105936
105948
105965
105966
105948
105923
105917
105920
105931
105948
105964
105975
105976
105969
105949
105931
105915
105902
105891
105889
105881
105879
105877
105875
105874
105874
105874
105874
105874
105874
105876
105879
105878
105863
105828
105799
105797
105799
105810
105830
105851
105867
105871
105867
105860
105857
105850
105839
105829
105821
105828
105833
105837
105838
105839
105841
105841
105840
105839
105839
105841
105841
105827
105791
105743
105727
105719
105718
105723
105741
105764
105785
105797
105796
105798
105806
105808
105798
105787
105779
105735
105747
105762
105777
105787
105794
105798
105800
105801
105801
105799
105790
105766
105719
105688
105681
105673
105671
105673
105683
105702
105718
105726
105723
105725
105733
105749
105749
105741
105735
105605
105618
105649
105684
105710
105726
105739
105749
105754
105755
105748
105733
105706
105663
105649
105644
105640
105639
105639
105645
105660
105673
105676
105672
105669
105669
105685
105695
105693
105688
105531
105532
105541
105565
105607
105639
105661
105678
105689
105693
105687
105674
105648
105620
105612
105608
105609
105609
105607
105610
105619
105627
105628
105624
105619
105618
105626
105637
105640
105638
105497
105496
105495
105496
105506
105535
105570
105597
105614
105622
105623
105617
105599
105583
105576
105573
105575
105577
105576
105576
105576
105571
105564
105567
105569
105571
105576
105583
105587
105587
105474
105473
105470
105466
105462
105462
105475
105507
105536
105552
105560
105560
105553
105547
105543
105539
105537
105537
105538
105538
105528
105509
105502
105511
105521
105528
105533
105532
105535
105537
105455
105454
105451
105446
105438
105430
105426
105431
105455
105482
105497
105504
105505
105509
105509
105505
105496
105489
105489
105491
105473
105451
105454
105464
105477
105488
105489
105485
105487
105488
105438
105438
105434
105427
105418
105408
105399
105392
105392
105409
105433
105447
105458
105469
105472
105466
105451
105436
105438
105443
105420
105406
105411
105422
105436
105447
105445
105442
105442
105443
105421
105420
105415
105407
105396
105385
105376
105366
105357
105354
105365
105386
105403
105420
105426
105419
105400
105384
105389
105393
105373
105366
105368
105377
105392
105400
105398
105399
105399
105400
105397
105394
105388
105380
105371
105362
105352
105342
105332
105323
105318
105322
105338
105354
105362
105357
105340
105331
105338
105339
105327
105323
105325
105330
105341
105347
105350
105355
105360
105361
105354
105350
105346
105344
105341
105335
105327
105317
105309
105301
105290
105279
105273
105279
105283
105279
105270
105272
105280
105282
105280
105279
105279
105281
105285
105292
105299
105310
105320
105324
105282
105278
105279
105287
105299
105302
105299
105292
105286
105278
105263
105238
105210
105196
105195
105190
105196
105208
105215
105224
105232
105236
105234
105232
105230
105236
105243
105258
105274
105281
105187
105187
105193
105207
105229
105251
105259
105259
105254
105243
105218
105180
105145
105125
105119
105122
105134
105147
105149
105164
105181
105192
105191
105185
105178
105176
105178
105191
105209
105221
105085
105088
105098
105116
105139
105166
105190
105199
105195
105172
105137
105106
105089
105082
105079
105081
105087
105094
105091
105102
105125
105139
105141
105130
105118
105106
105098
105105
105123
105138
104978
104985
105002
105023
105044
105067
105088
105098
105085
105051
105029
105029
105041
105048
105051
105050
105047
105046
105042
105042
105061
105071
105070
105051
105035
105014
104998
105000
105030
105051
104894
104899
104912
104930
104950
104971
104988
104991
104978
104967
104965
104973
104992
105011
105020
105017
105006
105000
104994
104984
104998
104998
104982
104956
104939
104923
104915
104917
104939
104974
104866
104867
104871
104877
104886
104900
104915
104926
104930
104933
104936
104940
104949
104965
104981
104977
104963
104954
104946
104935
104933
104930
104909
104893
104884
104879
104878
104880
104887
104909
104858
104859
104860
104862
104866
104873
104883
104896
104907
104914
104917
104919
104921
104926
104935
104931
104918
104909
104902
104892
104879
104871
104861
104859
104856
104855
104856
104858
104863
104870
104855
104856
104856
104858
104860
104864
104871
104881
104892
104899
104901
104902
104901
104900
104898
104887
104876
104868
104862
104854
104843
104834
104831
104834
104835
104834
104836
104840
104845
104846
104852
104852
104853
104854
104856
104858
104863
104870
104879
104884
104886
104886
104884
104878
104866
104847
104837
104833
104828
104822
104815
104809
104808
104810
104812
104813
104815
104822
104825
104825
104847
104848
104848
104849
104850
104852
104854
104859
104865
104869
104870
104868
104864
104853
104832
104808
104804
104801
104797
104792
104788
104785
104784
104784
104785
104786
104789
104797
104798
104800
104842
104842
104842
104843
104843
104844
104845
104847
104849
104850
104850
104847
104840
104823
104794
104774
104774
104772
104768
104764
104759
104757
104755
104755
104754
104754
104756
104760
104762
104762
104836
104835
104835
104835
104836
104836
104835
104833
104831
104829
104827
104822
104810
104788
104761
104748
104747
104745
104740
104736
104731
104727
104725
104723
104722
104720
104719
104715
104708
104699
104828
104827
104827
104827
104827
104825
104821
104816
104810
104805
104800
104792
104777
104754
104734
104727
104724
104719
104714
104709
104703
104698
104694
104692
104689
104687
104682
104673
104655
104639
104818
104818
104817
104816
104815
104810
104803
104793
104783
104775
104768
104758
104743
104725
104712
104708
104703
104697
104689
104682
104675
104669
104664
104661
104658
104654
104649
104638
104622
104613
104807
104806
104805
104803
104798
104790
104777
104763
104751
104741
104733
104723
104710
104698
104692
104689
104684
104676
104666
104656
104648
104641
104635
104631
104627
104623
104619
104611
104601
104596
104792
104790
104788
104783
104775
104761
104744
104728
104714
104704
104694
104686
104677
104671
104669
104667
104663
104654
104643
104630
104620
104612
104606
104601
104598
104594
104591
104586
104580
104576
104770
104768
104763
104754
104740
104722
104703
104687
104674
104663
104654
104647
104641
104639
104639
104639
104636
104628
104616
104603
104592
104583
104577
104572
104569
104566
104564
104561
104558
104555
104736
104733
104726
104713
104695
104675
104658
104643
104631
104621
104613
104606
104602
104601
104602
104603
104601
104595
104585
104573
104562
104554
104547
104543
104540
104539
104537
104536
104534
104532
104687
104683
104673
104658
104641
104624
104609
104596
104585
104576
104569
104563
104560
104558
104558
104559
104558
104554
104548
104540
104531
104524
104517
104513
104511
104510
104510
104510
104510
104510
104623
104619
104610
104598
104584
104571
104558
104547
104538
104530
104523
104518
104515
104513
104512
104511
104510
104509
104508
104506
104501
104493
104487
104483
104481
104481
104482
104484
104486
104487
104555
104551
104545
104536
104526
104515
104505
104497
104489
104482
104477
104472
104469
104466
104464
104463
104462
104462
104465
104469
104468
104462
104455
104452
104450
104451
104452
104456
104460
104463
104487
104484
104480
104473
104466
104459
104451
104444
104438
104433
104429
104425
104422
104419
104416
104415
104414
104414
104419
104427
104433
104430
104422
104419
104418
104419
104422
104427
104432
104436
104421
104419
104416
104411
104406
104401
104396
104391
104386
104382
104379
104376
104373
104371
104368
104366
104365
104367
104373
104383
104392
104393
104387
104384
104384
104386
104389
104395
104402
104406
104356
104355
104352
104350
104346
104343
104339
104336
104333
104330
104328
104326
104324
104322
104320
104318
104317
104319
104325
104336
104347
104351
104349
104347
104349
104352
104355
104361
104369
104374
104291
104291
104290
104288
104286
104284
104282
104280
104278
104277
104276
104275
104274
104273
104271
104268
104267
104269
104275
104285
104298
104307
104310
104311
104315
104319
104323
104327
104332
104336
104227
104227
104227
104226
104225
104224
104224
104223
104223
104223
104223
104223
104224
104223
104221
104217
104213
104214
104217
104225
104244
104262
104273
104278
104284
104289
104293
104294
104290
104288
104163
104163
104164
104164
104165
104165
104166
104167
104168
104169
104171
104173
104174
104175
104171
104165
104157
104151
104146
104148
104174
104208
104233
104245
104254
104260
104263
104255
104234
104226
104099
104099
104100
104102
104104
104106
104109
104112
104116
104119
104123
104126
104129
104128
104125
104114
104100
104085
104069
104067
104086
104131
104176
104202
104215
104221
104217
104191
104150
104133
104034
104035
104037
104039
104043
104047
104053
104059
104066
104074
104081
104087
104089
104089
104083
104070
104052
104035
104031
104033
104040
104060
104099
104133
104151
104151
104138
104108
104087
104080
103968
103970
103972
103976
103981
103988
103996
104006
104017
104029
104040
104051
104057
104056
104051
104035
104021
104016
104017
104021
104024
104030
104043
104061
104075
104079
104075
104068
104064
104063
103902
103903
103906
103911
103918
103926
103936
103948
103963
103978
103994
104009
104021
104029
104025
104014
104008
104008
104010
104013
104016
104019
104023
104030
104040
104047
104051
104054
104054
104054
103834
103836
103839
103845
103852
103861
103873
103887
103903
103922
103942
103963
103983
104001
104009
104005
104003
104003
104004
104005
104008
104011
104014
104019
104026
104034
104040
104045
104046
104046
103765
103767
103771
103776
103785
103795
103808
103824
103843
103865
103889
103915
103942
103971
103996
103999
103998
103997
103996
103997
103999
104001
104005
104010
104016
104024
104031
104036
104039
104039
103694
103696
103700
103707
103716
103729
103744
103763
103784
103808
103834
103863
103895
103932
103973
103991
103992
103990
103988
103988
103989
103991
103995
104000
104006
104013
104021
104027
104031
104032
103620
103622
103626
103634
103644
103658
103675
103696
103719
103744
103771
103802
103838
103881
103932
103975
103984
103983
103980
103979
103978
103980
103984
103989
103995
104000
104007
104015
104021
104024
103541
103543
103547
103553
103563
103575
103590
103609
103631
103656
103686
103721
103764
103816
103876
103939
103972
103974
103971
103968
103967
103968
103971
103976
103980
103982
103987
103995
104007
104013
103456
103457
103460
103463
103469
103476
103487
103502
103522
103548
103581
103623
103673
103734
103804
103880
103948
103963
103961
103957
103955
103955
103957
103959
103957
103957
103958
103965
103979
103992
103367
103366
103366
103365
103365
103367
103372
103382
103400
103427
103463
103510
103567
103634
103713
103802
103895
103946
103950
103945
103942
103941
103942
103937
103926
103919
103917
103920
103926
103935
103273
103272
103268
103263
103257
103251
103247
103250
103266
103294
103334
103385
103447
103521
103606
103704
103812
103909
103935
103932
103927
103924
103922
103907
103885
103870
103862
103856
103848
103844
103180
103177
103170
103159
103145
103129
103110
103105
103115
103145
103190
103247
103316
103396
103487
103590
103705
103827
103905
103915
103907
103901
103890
103865
103833
103810
103792
103776
103761
103753
103089
103084
103074
103059
103038
103014
102995
102985
102984
102999
103038
103099
103175
103261
103357
103463
103580
103708
103829
103879
103875
103860
103839
103806
103767
103737
103713
103692
103678
103671
103003
102997
102987
102973
102955
102932
102918
102907
102900
102898
102912
102955
103028
103119
103220
103328
103444
103568
103696
103795
103814
103791
103761
103726
103686
103653
103627
103609
103599
103600
102925
102920
102914
102907
102898
102880
102866
102853
102842
102832
102829
102843
102892
102978
103080
103189
103303
103422
103543
103652
103705
103690
103657
103628
103592
103561
103538
103524
103521
103527
102863
102863
102860
102863
102858
102838
102818
102803
102789
102779
102771
102768
102785
102848
102943
103051
103162
103276
103390
103495
103562
103564
103539
103520
103491
103465
103445
103437
103437
103441
102811
102815
102827
102839
102831
102797
102771
102751
102736
102725
102716
102710
102709
102740
102817
102917
103025
103134
103243
103345
103421
103437
103421
103408
103387
103365
103348
103342
103343
103343
102762
102784
102801
102802
102798
102755
102719
102696
102678
102665
102656
102649
102646
102656
102707
102794
102894
102998
103103
103204
103287
103320
103310
103299
103282
103261
103242
103233
103235
103239
102725
102742
102746
102737
102734
102697
102660
102636
102618
102605
102594
102586
102582
102584
102614
102682
102771
102868
102969
103067
103155
103209
103209
103194
103180
103160
103135
103116
103114
103130
102670
102674
102669
102655
102651
102625
102594
102574
102559
102546
102535
102524
102517
102517
102533
102581
102657
102746
102841
102936
103023
103090
103108
103092
103083
103070
103050
103036
103029
103029
102590
102588
102578
102564
102560
102547
102527
102514
102502
102491
102479
102465
102453
102448
102457
102490
102552
102632
102720
102811
102897
102966
102998
102993
102991
102992
102988
102982
102973
102964
102497
102489
102472
102468
102473
102469
102461
102453
102443
102430
102416
102400
102384
102374
102378
102404
102454
102526
102609
102697
102780
102850
102890
102899
102902
102912
102927
102931
102925
102920
102391
102376
102365
102375
102391
102395
102392
102384
102371
102355
102336
102318
102301
102288
102288
102314
102362
102427
102506
102592
102676
102746
102791
102809
102812
102816
102835
102863
102874
102875
102270
102267
102278
102299
102314
102320
102316
102305
102289
102268
102251
102241
102237
102235
102236
102248
102281
102339
102413
102498
102584
102657
102703
102726
102726
102724
102733
102762
102798
102812
102215
102215
102224
102236
102245
102245
102240
102232
102226
102220
102216
102214
102215
102217
102219
102222
102234
102269
102334
102415
102503
102584
102636
102662
102666
102669
102675
102684
102699
102723
102200
102201
102203
102207
102209
102209
102208
102206
102206
102205
102206
102208
102210
102212
102214
102215
102218
102231
102268
102340
102431
102525
102590
102612
102626
102635
102642
102646
102650
102658
102196
102196
102196
102197
102197
102198
102199
102200
102201
102202
102204
102206
102207
102209
102211
102213
102213
102217
102232
102274
102358
102464
102547
102571
102592
102606
102615
102621
102624
102629
102195
102195
102195
102195
102195
102196
102197
102198
102200
102201
102202
102203
102205
102207
102208
102210
102211
102212
102217
102235
102286
102388
102487
102534
102555
102571
102583
102594
102600
102605
102194
102194
102194
102194
102194
102195
102196
102197
102198
102199
102200
102201
102202
102204
102205
102207
102209
102211
102212
102218
102243
102308
102418
102488
102510
102528
102542
102554
102565
102558
102192
102192
102192
102192
102193
102193
102194
102195
102196
102197
102197
102198
102200
102201
102202
102204
102206
102208
102211
102214
102224
102261
102347
102425
102452
102472
102488
102496
102495
102488
102190
102190
102191
102191
102191
102192
102192
102193
102194
102194
102195
102196
102197
102198
102200
102201
102203
102205
102208
102211
102217
102234
102285
102352
102383
102405
102419
102424
102421
102417
102189
102189
102189
102189
102189
102190
102190
102191
102191
102192
102193
102194
102195
102196
102197
102198
102200
102202
102204
102208
102213
102224
102246
102280
102316
102340
102352
102355
102351
102355
102187
102187
102187
102187
102187
102188
102188
102189
102189
102190
102191
102192
102192
102193
102194
102196
102197
102199
102201
102204
102209
102219
102231
102247
102268
102286
102295
102297
102296
102302
102185
102185
102185
102185
102185
102186
102186
102187
102187
102188
102189
102189
102190
102191
102192
102193
102194
102196
102198
102200
102205
102215
102225
102233
102242
102252
102258
102260
102262
102264
102183
102183
102183
102183
102183
102184
102184
102185
102185
102186
102187
102187
102188
102189
102190
102191
102192
102193
102195
102197
102200
102208
102219
102224
102228
102232
102235
102237
102239
102240
102181
102181
102181
102181
102181
102182
102182
102182
102183
102184
102185
102185
102186
102187
102187
102188
102189
102190
102192
102194
102196
102201
102208
102214
102216
102218
102219
102220
102220
102222
102179
102179
102179
102179
102179
102179
102180
102180
102181
102182
102182
102183
102184
102184
102185
102186
102187
102188
102189
102190
102192
102195
102198
102200
102202
102203
102204
102204
102204
102204
102177
102177
102177
102177
102177
102177
102177
102178
102178
102179
102180
102181
102181
102182
102182
102183
102184
102185
102186
102187
102187
102187
102187
102187
102187
102187
102187
102187
102186
102185
102174
102174
102174
102174
102175
102175
102175
102175
102176
102176
102177
102178
102179
102179
102180
102181
102182
102183
102184
102183
102181
102178
102175
102173
102171
102170
102168
102167
102166
102166
102172
102172
102172
102172
102172
102172
102172
102173
102173
102174
102174
102175
102176
102177
102177
102178
102179
102180
102181
102179
102174
102168
102161
102156
102153
102150
102148
102146
102146
102146
102170
102170
102170
102170
102170
102170
102170
102170
102170
102171
102172
102172
102173
102174
102175
102176
102177
102177
102177
102173
102165
102155
102147
102141
102136
102131
102128
102127
102127
102127
102168
102168
102168
102168
102168
102168
102168
102168
102168
102168
102169
102169
102170
102171
102172
102173
102174
102175
102173
102166
102154
102143
102133
102125
102119
102114
102110
102109
102108
102107
102166
102166
102166
102165
102165
102165
102165
102165
102165
102165
102166
102166
102167
102168
102169
102170
102171
102171
102168
102158
102143
102130
102119
102110
102102
102096
102092
102089
102087
102086
102164
102164
102163
102163
102163
102163
102163
102163
102162
102163
102163
102164
102164
102165
102167
102168
102169
102168
102162
102147
102130
102116
102104
102093
102084
102078
102072
102068
102065
102063
102162
102162
102161
102161
102161
102161
102161
102160
102160
102160
102160
102161
102162
102163
102164
102165
102166
102164
102152
102133
102115
102099
102086
102074
102065
102056
102050
102045
102041
102038
102160
102160
102160
102159
102159
102159
102158
102158
102158
102158
102158
102158
102159
102160
102161
102162
102162
102156
102137
102116
102098
102081
102066
102053
102042
102033
102025
102019
102015
102012
102158
102158
102158
102158
102157
102157
102156
102156
102156
102155
102155
102156
102156
102157
102159
102159
102155
102141
102119
102098
102078
102060
102044
102030
102018
102008
101999
101992
101988
101985
102157
102157
102156
102156
102155
102155
102154
102154
102153
102153
102153
102153
102154
102155
102156
102154
102143
102122
102100
102077
102057
102038
102021
102005
101992
101981
101972
101965
101960
101958
102155
102155
102155
102154
102154
102153
102152
102151
102151
102151
102151
102151
102152
102152
102152
102147
102127
102103
102078
102055
102033
102013
101995
101979
101965
101953
101943
101936
101931
101930
102154
102154
102154
102153
102152
102151
102150
102149
102149
102148
102148
102148
102149
102149
102148
102137
102110
102083
102056
102030
102007
101985
101967
101950
101936
101924
101914
101907
101902
101901
102153
102153
102152
102151
102150
102149
102148
102147
102146
102146
102146
102146
102146
102146
102141
102123
102092
102062
102033
102006
101980
101957
101938
101920
101906
101893
101884
101876
101872
101870
102151
102151
102150
102149
102148
102146
102145
102144
102143
102143
102143
102143
102144
102142
102133
102109
102076
102044
102012
101982
101955
101931
101909
101891
101875
101862
101852
101844
101840
101837
102148
102148
102147
102146
102145
102143
102142
102141
102140
102140
102140
102140
102140
102138
102125
102096
102063
102028
101994
101962
101932
101905
101881
101861
101844
101830
101818
101810
101805
101802
102144
102144
102143
102142
102141
102140
102139
102137
102136
102136
102136
102136
102137
102134
102115
102082
102046
102010
101975
101940
101908
101878
101851
101829
101810
101795
101782
101773
101767
101764
102140
102139
102139
102138
102137
102136
102134
102133
102132
102132
102132
102132
102132
102128
102102
102065
102027
101989
101950
101913
101877
101844
101816
101793
101773
101757
101744
101734
101727
101724
102135
102134
102133
102133
102132
102131
102130
102129
102128
102128
102127
102127
102127
102121
102090
102049
102008
101967
101924
101882
101843
101806
101778
101754
101735
101717
101703
101693
101685
101682
102129
102128
102128
102127
102126
102125
102124
102124
102123
102123
102122
102121
102120
102113
102081
102036
101991
101944
101896
101849
101809
101772
101744
101720
101697
101678
101662
101650
101642
101638
102121
102120
102120
102120
102120
102120
102119
102118
102118
102117
102117
102115
102113
102105
102073
102025
101972
101920
101867
101824
101782
101748
101716
101685
101661
101639
101620
101606
101596
101592
102109
102109
102110
102111
102113
102113
102113
102112
102112
102111
102110
102109
102106
102098
102066
102012
101953
101897
101849
101810
101774
101732
101692
101656
101626
101599
101576
101559
101548
101543
102090
102094
102096
102099
102103
102106
102107
102106
102106
102105
102104
102102
102098
102089
102057
101997
101935
101882
101839
101802
101754
101706
101662
101623
101588
101556
101529
101509
101496
101490
102058
102067
102074
102082
102089
102097
102100
102100
102099
102098
102096
102094
102089
102079
102045
101984
101923
101873
101828
101777
101719
101664
101615
101572
101534
101501
101473
101452
101438
101431
102007
102019
102037
102054
102068
102083
102091
102092
102091
102089
102087
102084
102079
102066
102030
101973
101913
101857
101800
101732
101666
101606
101553
101507
101470
101437
101409
101387
101373
101366
101942
101955
101977
102005
102031
102057
102077
102082
102080
102078
102075
102072
102065
102046
102004
101948
101884
101817
101743
101666
101595
101531
101475
101429
101392
101360
101333
101312
101298
101293
101863
101879
101904
101936
101972
102008
102048
102066
102066
102063
102059
102055
102042
102009
101952
101894
101826
101745
101661
101580
101506
101440
101384
101338
101303
101273
101247
101227
101215
101209
101776
101794
101821
101855
101894
101937
101986
102030
102039
102036
102032
102023
101997
101936
101866
101807
101740
101653
101562
101477
101402
101338
101286
101246
101215
101186
101159
101140
101127
101121
101693
101705
101732
101766
101805
101848
101897
101951
101982
101984
101978
101958
101904
101824
101754
101696
101631
101542
101446
101360
101289
101232
101189
101152
101119
101090
101064
101044
101032
101028
101610
101617
101639
101671
101707
101746
101790
101836
101873
101878
101866
101831
101763
101687
101622
101566
101501
101408
101312
101230
101166
101119
101079
101040
101002
100970
100947
100931
100925
100926
101524
101529
101546
101573
101604
101637
101671
101705
101728
101721
101701
101660
101601
101537
101477
101421
101349
101257
101165
101090
101036
100994
100952
100905
100859
100823
100800
100790
100796
100810
101439
101440
101452
101474
101500
101525
101548
101568
101576
101563
101527
101486
101436
101380
101323
101266
101189
101097
101012
100947
100902
100863
100813
100756
100701
100655
100623
100609
100631
100676
101353
101350
101357
101377
101396
101414
101427
101434
101430
101408
101361
101316
101275
101223
101170
101111
101029
100939
100860
100805
100768
100727
100668
100606
100549
100509
100492
100495
100524
100564
101266
101255
101265
101282
101297
101307
101312
101308
101292
101260
101213
101166
101127
101083
101033
100962
100872
100784
100715
100666
100632
100588
100528
100476
100442
100430
100434
100440
100454
100469
101170
101168
101184
101196
101203
101207
101205
101192
101167
101129
101086
101043
101002
100961
100907
100812
100713
100634
100574
100531
100495
100458
100425
100406
100402
100404
100408
100413
100421
100428
101092
101099
101111
101116
101117
101116
101108
101088
101055
101013
100971
100932
100889
100837
100755
100641
100550
100490
100449
100418
100401
100391
100387
100387
100390
100393
100396
100399
100403
100407
101034
101039
101042
101041
101039
101033
101020
100995
100954
100904
100855
100810
100754
100674
100561
100468
100419
100397
100385
100380
100378
100378
100380
100382
100385
100387
100390
100391
100393
100395
100983
100982
100977
100973
100968
100960
100942
100911
100863
100801
100737
100671
100590
100484
100413
100387
100377
100374
100373
100373
100374
100376
100378
100380
100382
100384
100386
100386
100387
100388
100932
100928
100919
100913
100907
100895
100874
100838
100782
100708
100627
100542
100450
100393
100375
100371
100370
100371
100371
100372
100374
100375
100376
100378
100380
100381
100383
100383
100383
100383
100883
100879
100871
100863
100854
100838
100815
100773
100712
100630
100538
100449
100391
100372
100369
100370
100370
100370
100371
100372
100373
100374
100375
100376
100378
100379
100380
100380
100380
100380
100837
100834
100829
100822
100810
100788
100758
100716
100652
100567
100476
100403
100374
100368
100369
100369
100369
100370
100370
100371
100371
100372
100373
100374
100375
100377
100377
100378
100378
100377
100795
100793
100792
100786
100769
100738
100700
100659
100595
100515
100433
100383
100368
100367
100368
100368
100368
100368
100369
100369
100370
100371
100371
100372
100373
100374
100375
100376
100375
100374
100756
100756
100755
100745
100720
100685
100646
100604
100544
100471
100401
100371
100365
100366
100366
100366
100367
100367
100367
100368
100368
100369
100369
100370
100371
100372
100372
100373
100372
100371
100720
100719
100715
100699
100671
100637
100597
100554
100498
100431
100381
100365
100364
100364
100365
100365
100365
100366
100366
100366
100367
100367
100367
100367
100368
100369
100369
100369
100369
100368
100683
100682
100673
100653
100625
100592
100554
100510
100457
100398
100369
100363
100363
100363
100363
100364
100364
100364
100364
100365
100365
100365
100365
100365
100365
100365
100366
100366
100365
100365
100644
100640
100629
100609
100583
100552
100516
100473
100421
100377
100363
100362
100362
100362
100362
100362
100362
100362
100363
100363
100362
100362
100362
100362
100361
100361
100361
100361
100361
100361
100601
100596
100584
100566
100544
100516
100483
100442
100394
100368
100362
100361
100361
100361
100361
100361
100361
100361
100361
100360
100360
100359
100359
100358
100357
100357
100356
100356
100356
100356
100558
100552
100542
100527
100508
100485
100456
100419
100380
100364
100361
100361
100361
100360
100360
100359
100359
100358
100358
100358
100357
100356
100355
100354
100353
100352
100352
100352
100352
100352
100517
100512
100504
100491
100476
100458
100433
100403
100373
100363
100361
100360
100360
100359
100358
100357
100357
100356
100355
100354
100353
100352
100351
100350
100348
100347
100347
100347
100347
100347
100480
100476
100469
100459
100449
100434
100415
100391
100369
100362
100360
100360
100359
100358
100356
100355
100354
100353
100352
100351
100349
100348
100346
100345
100344
100343
100342
100342
100342
100342
100447
100444
100439
100432
100424
100413
100398
100381
100367
100360
100358
100358
100357
100356
100354
100352
100351
100350
100348
100347
100345
100343
100342
100340
100339
100338
100338
100337
100338
100338
100417
100415
100413
100408
100402
100393
100382
100371
100361
100356
100354
100354
100353
100352
100350
100348
100347
100346
100344
100342
100340
100339
100337
100336
100335
100334
100333
100333
100334
100334
100391
100390
100389
100387
100382
100376
100367
100359
100352
100348
100347
100346
100346
100345
100343
100342
100341
100340
100339
100337
100335
100334
100332
100331
100330
100329
100329
100329
100330
100331
100367
100367
100367
100367
100365
100360
100354
100347
100341
100337
100336
100336
100336
100336
100335
100335
100335
100334
100333
100331
100330
100329
100328
100327
100326
100325
100325
100325
100326
100327
100345
100345
100346
100347
100348
100345
100341
100335
100329
100324
100323
100324
100325
100326
100327
100327
100328
100328
100327
100326
100325
100324
100323
100323
100322
100321
100321
100321
100322
100323
100324
100324
100325
100327
100329
100330
100327
100322
100315
100311
100310
100311
100314
100317
100319
100320
100321
100321
100321
100321
100320
100319
100319
100318
100318
100317
100317
100318
100319
100320
100303
100304
100304
100306
100309
100313
100314
100310
100304
100302
100301
100303
100306
100309
100312
100314
100315
100315
100316
100315
100315
100315
100315
100314
100314
100313
100313
100314
100315
100316
100284
100284
100285
100286
100289
100295
100300
100299
100297
100297
100298
100299
100301
100304
100306
100308
100309
100310
100310
100311
100310
100310
100310
100310
100310
100310
100310
100311
100312
100313
100265
100265
100267
100269
100272
100277
100285
100290
100292
100294
100296
100298
100299
100300
100302
100303
100304
100305
100306
100306
100306
100306
100306
100306
100306
100306
100307
100307
100308
100309
100247
100248
100250
100254
100257
100263
100271
100280
100287
100291
100295
100297
100297
100297
100298
100299
100300
100300
100301
100301
100302
100302
100302
100302
100303
100303
100303
100304
100305
100306
100229
100230
100234
100238
100243
100249
100258
100268
100279
100286
100292
100296
100296
100294
100294
100295
100296
100296
100297
100297
100298
100298
100298