/*--------------------------------*- C++ -*----------------------------------*\
| =========                 |                                                 |
| \\      /  F ield         | OpenFOAM: The Open Source CFD Toolbox           |
|  \\    /   O peration     | Version:  2.3.0                                 |
|   \\  /    A nd           | Web:      www.OpenFOAM.org                      |
|    \\/     M anipulation  |                                                 |
\*---------------------------------------------------------------------------*/
FoamFile
{
    version     2.0;
    format      ascii;
    class       volScalarField;
    location    "1.71";
    object      Theta.particles;
}
// * * * * * * * * * * * * * * * * * * * * * * * * * * * * * * * * * * * * * //

dimensions      [0 2 -2 0 0 0 0];

internalField   nonuniform List<scalar> 
6000
(
0.000242507
6.98793e-05
9.47308e-05
0.000239686
0.000515847
0.00044113
0.000340558
0.000624181
0.000810723
0.000881088
0.000398725
9.86172e-05
6.41432e-05
7.55946e-05
0.000175457
0.000198097
0.000167271
0.000160597
0.000147708
0.000128173
0.000104667
8.67704e-05
9.36631e-05
0.00010595
7.44891e-05
5.20387e-05
0.000122419
0.000236092
0.000383679
0.00128602
7.84358e-05
4.79553e-05
3.65481e-05
4.64924e-05
6.90656e-05
7.0338e-05
5.17237e-05
4.53612e-05
4.04446e-05
5.74466e-05
5.77522e-05
4.65647e-05
4.37315e-05
3.66197e-05
3.23434e-05
1.09377e-05
2.35462e-06
1.83403e-06
1.58049e-06
3.94259e-06
7.21089e-06
6.88498e-06
9.41213e-06
1.77838e-05
2.79671e-05
2.12779e-05
1.95214e-05
1.40258e-05
3.47974e-05
4.30431e-05
9.91999e-05
6.524e-05
2.2615e-05
2.69093e-06
7.18873e-07
1.42439e-06
1.92946e-06
8.05741e-07
1.07928e-06
2.26393e-06
1.63081e-06
1.44833e-05
6.65936e-05
0.000233666
0.000350277
0.000211102
0.000133937
0.000117873
0.000132423
0.000187614
0.000227257
0.00029218
0.000334873
0.000318631
0.000359161
0.000160315
1.35414e-05
4.20107e-07
1.07588e-05
6.82361e-06
0.000341217
0.000247679
8.92094e-05
4.29091e-06
8.01057e-07
1.20216e-06
1.14481e-06
1.93221e-06
1.54518e-06
1.66222e-06
1.10168e-06
6.1831e-06
0.000142009
0.000298497
8.81396e-05
1.86006e-07
9.00307e-07
5.95665e-07
1.95406e-06
5.62575e-06
1.78874e-05
3.97675e-05
6.92156e-05
4.47814e-05
9.02192e-05
6.96942e-05
1.39319e-05
1.76058e-06
1.96894e-06
8.02397e-06
0.000641006
0.000485018
0.000446486
0.000312907
9.35575e-05
1.58562e-05
3.17277e-06
1.95348e-06
5.55745e-07
2.08016e-06
7.18376e-07
3.44789e-05
0.000180648
0.000149413
1.02798e-06
4.76736e-06
8.3335e-06
5.31191e-06
5.84674e-06
4.03604e-06
5.38328e-06
1.23732e-05
2.49248e-05
1.2233e-05
8.98098e-06
7.62764e-05
6.85766e-05
3.57625e-06
5.27969e-06
1.36652e-05
0.000301078
0.00013431
0.000280736
0.000447985
0.000421715
0.000200767
5.42795e-05
1.22596e-05
3.44674e-06
1.36794e-05
1.31157e-05
4.11741e-05
0.00010876
3.61006e-05
8.17697e-06
2.02769e-05
1.59943e-05
9.25816e-06
1.41565e-05
8.19215e-06
3.44162e-06
9.89584e-06
2.59952e-05
1.04455e-05
2.75675e-06
1.42341e-05
6.20489e-05
8.83959e-06
7.0802e-06
2.03985e-05
8.97617e-05
8.86979e-07
2.86334e-06
4.97887e-05
0.000248726
0.000338565
0.000214852
7.3012e-05
3.16399e-05
2.08043e-05
3.25115e-05
3.65719e-05
6.47082e-05
4.09948e-05
1.5216e-05
2.07648e-05
5.42209e-05
5.54904e-05
6.59475e-06
1.1282e-05
6.41024e-07
8.26895e-06
4.23524e-05
1.89436e-05
3.52794e-06
3.64446e-06
4.07114e-05
1.35186e-05
3.46586e-06
2.65222e-05
5.66647e-05
1.1821e-06
1.3211e-06
7.91472e-07
1.41684e-06
5.81728e-05
0.000192632
0.000163917
6.61835e-05
2.28457e-05
2.59638e-05
3.15237e-05
4.54419e-05
4.99968e-05
4.17986e-05
1.44685e-05
1.46223e-05
8.50512e-05
1.11526e-06
3.89504e-05
2.43364e-05
9.74799e-06
0.000109428
7.93613e-05
4.25726e-06
5.49288e-06
3.84092e-05
1.05892e-05
5.64919e-07
2.6298e-05
3.53445e-05
2.0021e-06
1.87037e-06
1.54282e-06
1.16891e-06
4.90936e-07
4.0267e-06
9.40485e-05
0.000120373
5.59279e-05
3.25746e-05
1.35375e-05
9.04266e-06
1.27084e-05
3.09056e-05
2.72113e-05
3.0041e-06
4.48045e-05
6.879e-05
0.000208167
7.88869e-05
4.11679e-05
2.55187e-05
6.14242e-05
1.39297e-05
9.69654e-06
1.45574e-05
4.03818e-06
3.61883e-06
2.76538e-05
1.88316e-05
2.8816e-06
2.79103e-06
2.24591e-06
1.67835e-06
1.37654e-06
9.26295e-07
5.82894e-06
8.80749e-05
0.000141614
7.60623e-05
2.37343e-05
7.50866e-06
6.62162e-06
7.55037e-06
9.63567e-06
1.0024e-06
2.61816e-05
0.000176932
0.000349094
0.000130295
2.40233e-05
1.52403e-05
4.5651e-05
1.84962e-05
5.64379e-06
7.57945e-06
5.49384e-06
5.61003e-06
2.28508e-05
8.41031e-06
4.19123e-06
4.77234e-06
4.55183e-06
2.99459e-06
2.11397e-06
2.84992e-06
1.26286e-05
1.92747e-05
6.6915e-05
0.000106132
7.25245e-05
3.07194e-05
1.02288e-05
3.78196e-06
2.62108e-06
1.34575e-06
1.80307e-05
0.000335146
0.000293998
3.39107e-05
1.14939e-05
1.66915e-05
4.30767e-05
2.53794e-05
4.04147e-06
5.48212e-06
5.97935e-06
3.96399e-06
1.32494e-05
3.27511e-06
4.03471e-06
5.78981e-06
7.32035e-06
5.77174e-06
4.26009e-06
4.7387e-06
1.04676e-05
8.28572e-06
3.94522e-06
8.63134e-06
5.64626e-05
5.71189e-05
2.78187e-05
6.17499e-06
6.41411e-06
8.67817e-06
1.8678e-05
0.00039309
0.000135944
5.44799e-06
1.00324e-05
1.12103e-05
5.62678e-05
7.1087e-05
3.7352e-06
3.88436e-06
4.25138e-06
2.95118e-06
9.46272e-06
1.24853e-06
2.23699e-06
3.74359e-06
6.52407e-06
8.15349e-06
6.45368e-06
5.48464e-06
6.88187e-06
7.84242e-06
5.10679e-06
3.42782e-06
4.02266e-06
2.80834e-05
3.92611e-05
5.57148e-05
9.81879e-05
8.1641e-05
3.69009e-05
0.000349196
4.75228e-05
2.52735e-06
6.59276e-06
7.9166e-06
3.42854e-05
0.000118927
9.84074e-06
2.42667e-06
2.30382e-06
2.60147e-06
9.31548e-06
4.61101e-07
8.04729e-07
1.38828e-06
3.26128e-06
8.01273e-06
6.69014e-06
5.08136e-06
4.52664e-06
7.94459e-06
6.45542e-06
2.50018e-06
3.73229e-06
3.94936e-05
0.000151165
0.000243734
0.000304466
0.00020598
4.48987e-05
0.000222805
4.66544e-05
2.5063e-06
4.72372e-06
9.54105e-06
1.55412e-05
8.04887e-05
2.5787e-05
1.44973e-06
1.26121e-06
2.0173e-06
8.89724e-06
1.48491e-06
1.38607e-06
2.05561e-06
2.76443e-06
2.36051e-06
4.42487e-06
2.39538e-06
4.54042e-06
4.90636e-06
5.13972e-06
1.04905e-05
3.50153e-05
4.83589e-05
0.000125106
0.000174693
0.000178789
0.000216107
0.000103657
0.000204086
6.07042e-05
2.62804e-06
5.0394e-06
9.87203e-06
1.36591e-05
3.15989e-05
2.98451e-05
1.58614e-06
7.52161e-07
1.40294e-06
5.39583e-06
6.00035e-06
1.91745e-06
2.41655e-06
3.68355e-06
2.54702e-06
8.88846e-07
2.09475e-06
9.08202e-06
1.33488e-05
2.2713e-05
0.000113401
9.25009e-05
1.10713e-05
1.13301e-05
1.03555e-05
1.63453e-05
8.77339e-05
0.000200892
0.000315952
8.55008e-05
2.64499e-06
4.80041e-06
8.77329e-06
1.49189e-05
5.26893e-06
3.03238e-05
2.65956e-06
3.0037e-06
2.79923e-06
1.62784e-06
1.20142e-05
3.13491e-06
2.42949e-06
6.97266e-07
1.37318e-06
2.00001e-06
5.05327e-06
1.21248e-05
0.000108624
0.000421316
0.000420562
0.000167054
3.94666e-06
5.67117e-06
5.14215e-06
6.1132e-06
1.2722e-05
7.63039e-05
0.000409023
0.000305791
6.95307e-06
3.04568e-06
1.46754e-05
0.000106219
0.000296402
0.000407515
0.000315097
0.00033498
5.58401e-05
1.27524e-05
0.000920568
0.000791521
0.000544031
0.000357069
8.92777e-05
3.54641e-05
4.10078e-05
0.000166569
0.000531024
0.000331466
0.000125009
0.000128803
6.41653e-05
3.29506e-06
3.95687e-06
5.35429e-06
4.27352e-06
8.66444e-06
3.19213e-05
0.000614434
0.0001555
1.4337e-05
5.00229e-05
0.000159129
0.000500053
0.000863285
0.000981948
0.000660841
0.000435714
0.000143941
0.0017904
0.00203612
0.0021096
0.00196027
0.00151173
0.00102734
0.000752299
0.000755133
0.000237967
2.65393e-06
1.99285e-06
3.96126e-06
3.24623e-05
1.29547e-05
1.9223e-06
6.97181e-06
3.73683e-06
7.49965e-06
2.72954e-06
0.000638593
0.000414951
4.02704e-05
7.47975e-05
1.62087e-05
2.55997e-05
5.50551e-05
3.48674e-05
8.51539e-06
0.000232653
0.000388547
0.00079954
0.000103922
0.000302592
0.00046422
0.00104542
0.000991098
0.000586436
6.39678e-05
1.82228e-06
2.50577e-06
2.17442e-06
1.01094e-06
9.68181e-07
6.04512e-06
9.10129e-06
2.9156e-05
2.57241e-06
8.08735e-06
3.92627e-06
4.88887e-05
0.000878282
0.000451719
0.000233157
1.95582e-05
3.80913e-06
1.26584e-05
8.2647e-06
8.94097e-06
1.74758e-06
0.000199075
0.000224033
3.95041e-07
4.51469e-07
5.07944e-07
4.92344e-07
4.80344e-07
1.09048e-06
3.53522e-06
3.47746e-06
2.0011e-06
1.87712e-06
1.38098e-06
1.40669e-06
1.3302e-06
1.56657e-05
7.82513e-05
6.39637e-06
1.07106e-05
1.05506e-05
8.58743e-07
0.00023069
0.000737454
0.000813968
0.000464805
1.73089e-05
5.88434e-06
7.75875e-06
7.74968e-06
3.46304e-06
7.89512e-05
0.000207855
4.88478e-07
6.63776e-07
8.47663e-07
8.5425e-07
1.28753e-06
1.95814e-06
3.86033e-06
4.04865e-06
2.28394e-06
1.78917e-06
1.93769e-06
1.58971e-06
1.19901e-06
1.97413e-05
0.000106154
3.32226e-05
5.16333e-06
1.69553e-05
1.2292e-05
9.91725e-06
0.000169984
0.00050889
0.000998913
0.000486707
1.38439e-05
2.75778e-06
3.30005e-06
5.96299e-06
6.87869e-05
0.000195236
8.46328e-07
1.11785e-06
1.1754e-06
1.36443e-06
1.61756e-06
2.56188e-06
5.11539e-06
5.97709e-06
2.84515e-06
1.76204e-06
1.98241e-06
1.7763e-06
1.1639e-06
4.41119e-05
0.000125728
3.58884e-05
1.21527e-05
9.81364e-06
1.66812e-05
1.11441e-05
2.04703e-05
8.74432e-05
0.000269388
0.000515083
0.000232974
3.30316e-05
1.50152e-05
1.0601e-05
9.39815e-05
0.000131537
1.38748e-06
1.43034e-06
1.38886e-06
1.75766e-06
2.31889e-06
2.90235e-06
4.99376e-06
5.70182e-06
2.64614e-06
1.65717e-06
1.87756e-06
1.65664e-06
4.3556e-06
6.69704e-05
5.27047e-05
8.22342e-06
4.94989e-06
4.27368e-06
3.43787e-06
7.949e-06
4.7004e-06
7.86183e-06
3.24004e-05
8.27448e-05
0.000128142
5.71735e-05
8.81012e-05
6.68218e-05
0.000127507
8.24452e-05
1.48556e-06
1.7049e-06
2.06205e-06
2.3959e-06
2.74607e-06
3.17691e-06
4.53908e-06
4.05993e-06
1.80709e-06
1.14033e-06
1.02596e-06
1.84233e-06
1.90272e-05
3.44908e-05
2.85118e-06
1.68358e-06
1.63051e-06
1.75869e-06
9.32867e-07
1.27015e-06
3.38969e-06
6.92635e-07
5.55977e-07
4.86689e-06
1.56772e-05
1.72749e-05
0.000118749
0.000131477
0.000206479
5.59123e-05
2.2582e-06
2.46562e-06
2.59278e-06
2.87034e-06
2.79164e-06
2.74503e-06
4.00505e-06
4.3225e-06
1.90502e-06
9.06433e-07
1.10241e-06
3.34831e-06
1.93931e-05
7.73579e-06
1.17296e-06
1.58338e-06
1.43888e-06
1.10332e-06
1.25953e-06
6.06081e-07
1.64449e-06
1.71706e-06
2.18358e-07
2.31316e-07
8.87862e-07
1.18702e-05
0.00011558
0.000344494
0.000241026
3.12273e-05
2.91588e-06
2.87256e-06
3.02486e-06
2.85863e-06
2.56302e-06
2.43509e-06
3.25575e-06
2.77567e-06
1.24915e-06
5.9506e-07
9.95832e-07
5.47456e-06
1.00641e-05
2.03017e-06
1.53058e-06
1.87497e-06
1.40958e-06
1.61869e-06
1.48697e-06
1.31765e-06
1.46433e-06
2.72812e-06
1.30665e-06
3.69742e-07
2.34169e-07
3.71676e-05
0.000192887
0.00015324
4.94375e-05
1.82051e-05
3.46093e-06
3.43627e-06
3.23467e-06
2.55462e-06
1.89686e-06
2.13952e-06
2.97296e-06
2.15272e-06
1.16656e-06
7.21041e-07
1.4111e-06
4.65894e-06
4.39347e-06
1.67392e-06
1.8373e-06
1.99654e-06
1.58384e-06
1.43317e-06
1.02528e-06
2.27697e-06
2.42953e-06
3.17711e-06
2.44172e-06
1.12419e-06
1.66212e-06
7.57383e-05
0.000173014
4.26039e-05
2.00541e-05
9.24357e-06
4.10537e-06
3.61165e-06
2.68149e-06
1.92098e-06
1.81423e-06
2.52174e-06
2.3451e-06
1.59774e-06
1.07441e-06
9.16231e-07
1.49177e-06
2.74448e-06
2.36076e-06
1.4972e-06
1.69518e-06
1.88605e-06
1.63927e-06
1.04473e-06
1.13687e-06
2.27318e-06
2.89302e-06
3.84013e-06
2.67487e-06
1.97515e-06
6.61233e-06
9.10515e-05
0.000116846
1.67444e-05
1.1509e-05
4.17634e-06
3.33101e-06
2.63821e-06
1.88245e-06
1.6667e-06
2.22246e-06
2.30148e-06
1.73339e-06
1.23539e-06
9.57607e-07
8.91943e-07
1.14826e-06
1.61573e-06
1.46889e-06
1.05837e-06
1.05597e-06
1.2302e-06
1.23273e-06
9.78706e-07
1.1995e-06
7.74279e-07
2.76495e-06
4.56217e-06
3.46485e-06
3.20828e-06
1.29319e-05
7.31339e-05
6.97984e-05
1.00267e-05
7.18934e-06
1.71906e-06
1.95876e-06
1.76389e-06
1.73007e-06
2.173e-06
2.22348e-06
1.7016e-06
1.23244e-06
9.40804e-07
7.81946e-07
7.19689e-07
7.60154e-07
8.5776e-07
8.23753e-07
6.5494e-07
5.07664e-07
4.75239e-07
5.69724e-07
6.97991e-07
1.23787e-06
1.0615e-06
2.4823e-06
5.11959e-06
4.98169e-06
4.35089e-06
1.86889e-05
4.5369e-05
4.04583e-05
8.25771e-06
5.31017e-06
6.36312e-07
1.14461e-06
1.56023e-06
2.03648e-06
2.04141e-06
1.56232e-06
1.13297e-06
8.69704e-07
7.13184e-07
6.11039e-07
5.32579e-07
4.67817e-07
4.0911e-07
3.68797e-07
3.76389e-07
3.2153e-07
1.87992e-07
1.78905e-07
4.30081e-07
1.34059e-06
1.87198e-06
7.965e-07
3.78949e-06
6.11755e-06
9.18182e-06
2.09659e-05
2.09535e-05
2.92071e-05
8.88327e-06
4.62836e-06
3.62816e-07
9.48212e-07
1.47877e-06
1.60098e-06
1.28909e-06
9.48373e-07
7.39424e-07
6.3015e-07
5.57822e-07
4.85663e-07
3.94891e-07
2.87618e-07
1.86471e-07
1.36024e-07
1.75266e-07
2.7451e-07
3.4118e-07
3.75346e-07
4.60063e-07
1.25729e-06
2.21598e-06
2.10205e-06
3.41229e-06
9.49562e-06
1.80934e-05
2.25044e-05
1.24527e-05
2.74887e-05
1.01623e-05
4.80954e-06
3.08853e-07
7.43466e-07
9.65709e-07
8.85528e-07
6.83967e-07
5.45024e-07
4.89521e-07
4.77039e-07
4.56666e-07
4.04402e-07
3.12023e-07
1.96556e-07
9.39607e-08
4.44714e-08
6.7865e-08
2.1647e-07
5.70516e-07
1.05289e-06
1.21349e-06
1.40579e-06
2.8173e-06
4.56124e-06
2.68483e-06
8.48836e-06
2.08334e-05
2.54386e-05
1.18744e-05
3.0463e-05
1.10741e-05
5.4496e-06
2.92844e-07
4.79664e-07
5.14452e-07
4.27066e-07
3.34194e-07
3.07933e-07
3.32845e-07
3.72619e-07
3.83873e-07
3.49112e-07
2.69026e-07
1.64027e-07
6.93593e-08
2.03754e-08
2.49413e-08
1.44907e-07
5.60351e-07
1.25629e-06
2.10985e-06
2.45839e-06
3.51098e-06
4.62395e-06
1.64325e-06
4.34116e-06
1.58699e-05
2.74455e-05
1.79035e-05
3.38641e-05
1.19835e-05
6.49064e-06
2.92084e-07
3.09296e-07
2.66575e-07
1.94932e-07
1.57052e-07
1.76159e-07
2.35297e-07
2.99013e-07
3.31176e-07
3.16893e-07
2.57956e-07
1.71228e-07
8.29057e-08
2.60677e-08
1.59185e-08
9.0551e-08
4.54947e-07
1.17188e-06
2.32848e-06
3.41149e-06
3.50508e-06
3.3871e-06
2.04959e-06
3.16912e-06
1.12128e-05
2.91321e-05
2.8573e-05
3.66834e-05
1.33513e-05
8.28118e-06
2.82648e-07
2.10484e-07
1.41985e-07
8.71721e-08
7.39156e-08
1.08108e-07
1.79173e-07
2.54983e-07
3.04304e-07
3.12796e-07
2.76727e-07
2.09339e-07
1.2828e-07
5.78925e-08
2.91185e-08
8.65238e-08
4.87907e-07
1.26265e-06
2.47522e-06
3.35411e-06
2.90613e-06
2.93755e-06
3.98938e-06
6.48496e-06
1.44689e-05
3.42511e-05
3.53504e-05
3.54359e-05
1.57815e-05
1.10496e-05
2.60241e-07
1.52245e-07
8.02017e-08
4.00066e-08
3.85243e-08
7.79602e-08
1.53843e-07
2.45953e-07
3.25514e-07
3.65398e-07
3.55789e-07
2.97254e-07
2.12966e-07
1.27231e-07
7.10181e-08
1.19458e-07
6.79246e-07
1.60005e-06
2.44444e-06
2.66743e-06
2.46705e-06
5.17401e-06
8.9459e-06
1.45697e-05
2.15858e-05
2.90546e-05
2.18716e-05
3.35375e-05
2.12525e-05
1.25892e-05
2.28819e-07
1.14839e-07
4.96936e-08
2.18276e-08
2.65682e-08
6.87906e-08
1.51544e-07
2.66107e-07
4.0226e-07
5.25355e-07
5.96284e-07
5.75256e-07
6.28429e-07
2.88938e-07
1.64812e-07
1.66699e-07
9.31903e-07
2.28483e-06
2.82413e-06
4.07296e-06
3.29539e-06
7.49969e-06
1.29497e-05
1.31162e-05
1.24402e-05
7.00054e-06
4.56607e-06
3.45282e-05
2.34501e-05
1.58554e-05
1.93545e-07
8.89661e-08
3.58443e-08
1.79117e-08
2.58805e-08
6.52039e-08
1.46341e-07
2.78186e-07
4.97517e-07
8.90186e-07
1.4234e-06
1.79132e-06
2.15687e-06
2.06139e-06
3.70257e-07
2.56064e-07
1.10759e-06
5.34195e-06
1.7217e-05
9.04975e-05
8.66245e-05
1.26919e-05
5.30392e-06
5.33589e-06
5.92208e-06
8.03031e-06
1.31297e-05
5.78871e-05
3.36073e-05
0.00014086
1.578e-07
6.9918e-08
3.07753e-08
2.17311e-08
3.25919e-08
6.30932e-08
1.17242e-07
2.17057e-07
4.36377e-07
9.27237e-07
2.17692e-06
4.92216e-06
8.63714e-06
3.8168e-06
2.64069e-06
4.98664e-07
1.12988e-06
7.69006e-06
0.000223073
0.000842827
0.000795236
0.000282286
7.72746e-05
8.37946e-05
0.000158749
0.000403557
0.000459252
0.000573054
0.000732464
0.0010167
1.23355e-07
5.42727e-08
2.90412e-08
2.99533e-08
4.86378e-08
8.25696e-08
1.39352e-07
2.40758e-07
4.60854e-07
9.94921e-07
2.61335e-06
8.87805e-06
1.17752e-05
1.36233e-05
4.11245e-06
2.2324e-06
6.86407e-06
0.000316318
0.00096986
0.000767529
0.00100096
0.00121888
0.00116688
0.00126552
0.00157727
0.00191389
0.00223283
0.00229895
0.00162934
0.00124788
9.12738e-08
3.96958e-08
2.71461e-08
4.03112e-08
7.44036e-08
1.26414e-07
2.02698e-07
3.2903e-07
5.7083e-07
1.11064e-06
2.46274e-06
7.189e-06
2.92726e-05
2.37035e-05
1.84547e-05
4.57381e-05
0.000516277
0.000799075
2.93138e-05
1.49694e-05
0.000454255
0.00120539
0.00170898
0.00185303
0.00196871
0.00145844
0.00148699
0.000905878
0.000233602
0.000276811
6.32842e-08
2.60049e-08
2.47486e-08
5.45586e-08
1.13773e-07
1.94967e-07
2.90439e-07
4.03239e-07
5.73087e-07
8.98604e-07
1.56548e-06
3.0115e-06
9.10142e-06
4.75965e-05
0.000125892
0.000383759
0.000271195
1.34279e-06
3.31631e-06
1.93147e-06
7.06891e-07
0.000179852
0.000469122
0.000494191
0.000367957
0.000150242
6.15334e-05
4.87583e-06
9.55721e-07
4.81931e-05
4.20519e-08
1.51359e-08
2.36861e-08
7.48044e-08
1.72097e-07
2.92387e-07
4.18874e-07
5.47578e-07
7.60978e-07
1.24161e-06
2.21105e-06
3.96989e-06
6.27765e-06
2.64081e-05
0.000173691
0.000152988
6.12303e-06
1.53736e-06
2.4772e-06
2.76926e-06
1.39828e-06
7.13152e-07
3.7089e-06
1.27179e-05
3.9161e-06
1.36757e-06
1.65348e-06
2.09579e-06
1.45501e-06
2.09024e-05
2.9199e-08
8.82766e-09
2.43116e-08
8.90526e-08
2.07267e-07
3.98761e-07
6.52945e-07
1.02647e-06
1.75419e-06
3.27234e-06
4.5037e-06
5.12164e-06
4.21833e-06
1.2043e-05
0.00017197
7.75373e-05
7.03055e-06
2.4786e-06
1.42933e-06
2.78833e-06
1.11642e-06
4.25913e-07
1.74174e-06
3.3147e-06
2.68482e-06
2.46415e-06
3.15141e-06
2.30745e-06
2.27868e-06
1.33872e-05
2.20636e-08
5.32351e-09
2.57872e-08
9.38784e-08
2.15618e-07
4.2608e-07
8.79633e-07
1.92533e-06
3.83414e-06
4.5667e-06
3.85728e-06
1.95296e-06
1.32939e-06
1.22715e-06
4.40563e-05
0.000162107
4.50036e-05
2.92006e-06
1.81905e-06
2.66794e-06
2.67392e-06
1.91829e-06
1.99971e-06
2.82534e-06
3.38169e-06
2.56748e-06
2.6859e-06
2.53581e-06
3.90385e-06
9.03419e-06
1.46054e-08
6.969e-09
7.28064e-08
2.46853e-07
6.25131e-07
1.33228e-06
2.56653e-06
4.32047e-06
5.62683e-06
5.17469e-06
3.60513e-06
1.45602e-06
4.1916e-07
2.90645e-07
1.51375e-06
0.000107234
0.000138021
1.08064e-05
2.44116e-06
2.27906e-06
3.63239e-06
4.43303e-06
2.83792e-06
2.55886e-06
2.19489e-06
3.10575e-06
3.23846e-06
4.29092e-06
7.51234e-06
7.14621e-06
1.63252e-08
9.94155e-08
3.43588e-07
7.34246e-07
1.29103e-06
1.93172e-06
2.4346e-06
2.59083e-06
2.26373e-06
1.51221e-06
7.92086e-07
3.75916e-07
2.1645e-07
1.987e-07
1.97619e-07
7.33703e-06
0.000139817
8.24335e-05
2.20236e-06
2.82715e-06
3.94609e-06
6.28873e-06
7.06592e-06
2.49468e-06
2.23401e-06
4.00381e-06
4.20873e-06
5.57472e-06
1.61329e-05
3.2401e-06
7.79433e-08
3.57044e-07
7.4165e-07
1.13703e-06
1.48332e-06
1.74247e-06
1.87331e-06
1.75985e-06
1.57558e-06
1.2469e-06
9.41087e-07
6.60673e-07
4.6683e-07
3.31226e-07
2.06384e-07
6.48206e-08
8.68125e-05
0.000128967
9.48964e-06
2.75031e-06
5.94599e-06
6.44748e-06
1.26546e-05
4.08375e-06
2.67771e-06
3.77241e-06
5.02879e-06
8.7585e-06
1.63243e-05
2.22247e-06
2.24602e-07
6.95875e-07
1.17949e-06
1.556e-06
1.8099e-06
2.34279e-06
3.33243e-06
3.73758e-06
3.20973e-06
2.27704e-06
1.47006e-06
1.10465e-06
8.54255e-07
6.20484e-07
3.94193e-07
2.11612e-07
5.84432e-08
0.000189114
9.35251e-05
3.13389e-06
7.11511e-06
8.55806e-06
1.49364e-05
6.51985e-06
2.26207e-06
3.02536e-06
6.97921e-06
1.01008e-05
4.6339e-06
3.609e-06
5.08082e-07
1.01589e-06
1.54297e-06
1.9252e-06
2.65924e-06
4.32103e-06
6.10379e-06
6.21646e-06
5.55551e-06
4.23324e-06
2.47746e-06
1.60396e-06
1.221e-06
9.51338e-07
7.43395e-07
5.53986e-07
2.46907e-07
4.04942e-05
0.000164434
8.33825e-06
7.1529e-06
2.03824e-05
2.23182e-05
5.29741e-06
1.52954e-06
3.17184e-06
4.41367e-06
4.64484e-06
6.07017e-06
1.39772e-05
1.06783e-06
1.31682e-06
1.85152e-06
2.30233e-06
2.90168e-06
4.43421e-06
8.9533e-06
9.84977e-06
7.15344e-06
3.98604e-06
3.29985e-06
2.32713e-06
1.66947e-06
1.30274e-06
1.09792e-06
1.03028e-06
7.9535e-07
6.21776e-07
0.000140452
9.7653e-05
7.76847e-06
3.55723e-05
3.44675e-05
2.46626e-06
9.13824e-07
1.41239e-06
1.33288e-06
1.18009e-06
1.16535e-06
5.51289e-05
1.47523e-06
1.53812e-06
1.76156e-06
1.97837e-06
1.73797e-06
3.57116e-06
4.00745e-05
3.73826e-05
2.62992e-05
1.28935e-05
1.68089e-06
1.87392e-06
1.78233e-06
1.54379e-06
1.29551e-06
1.18677e-06
1.387e-06
7.69613e-07
1.06753e-05
0.000162404
1.79698e-05
4.51205e-05
3.93743e-05
1.68222e-06
6.12078e-07
4.63109e-07
3.61254e-07
4.83431e-07
2.56801e-06
7.59543e-05
1.46249e-06
1.29233e-06
8.80675e-07
2.3008e-06
5.44685e-06
2.56114e-05
3.32517e-05
2.0102e-05
1.58113e-05
1.73451e-05
1.14231e-05
4.18124e-06
1.14636e-06
1.313e-06
1.33597e-06
1.21638e-06
1.28519e-06
1.47861e-06
3.83031e-07
3.57817e-05
6.25667e-05
4.94949e-05
5.84825e-05
3.43696e-06
4.17916e-07
2.09601e-07
1.90241e-07
1.67775e-07
6.87086e-06
9.36718e-05
1.26255e-06
1.53901e-06
1.01973e-06
7.18933e-06
0.000100134
0.000149834
3.96007e-05
2.06829e-05
1.22692e-05
1.18447e-05
1.69964e-05
1.38051e-05
3.6108e-06
8.32321e-07
1.0615e-06
1.18574e-06
1.2624e-06
1.57268e-06
1.05796e-06
1.25076e-06
3.23045e-05
6.84777e-05
5.86245e-05
4.0113e-06
3.96786e-07
1.57205e-07
1.48085e-07
5.62366e-07
7.68231e-06
0.000115328
7.58138e-06
9.166e-06
3.92623e-05
8.87961e-05
0.000199219
8.58473e-05
1.46555e-05
1.02519e-05
7.20064e-06
5.42058e-06
6.48887e-06
1.70795e-05
1.10024e-05
1.0204e-06
6.11029e-07
9.71179e-07
1.20262e-06
1.45452e-06
1.67496e-06
5.08284e-07
1.22653e-05
6.24965e-05
4.19363e-05
2.85273e-06
5.08102e-07
1.65509e-07
1.61158e-07
1.50462e-06
5.99309e-07
8.05544e-05
3.18461e-05
4.4961e-05
8.75655e-05
0.000254727
0.000404803
2.53201e-05
2.88619e-06
2.18233e-06
1.55862e-06
2.00875e-06
3.67976e-06
5.81371e-06
1.1661e-05
6.2987e-06
4.31562e-07
6.34709e-07
9.75882e-07
1.25092e-06
2.01202e-06
1.40579e-06
1.88264e-05
3.94998e-05
3.178e-05
2.59427e-06
6.94714e-07
4.53922e-07
7.19825e-07
5.68352e-06
1.33143e-05
4.993e-05
4.59238e-05
0.000108927
0.00013351
7.65451e-05
0.000987174
0.000307278
1.50114e-06
7.91466e-07
1.13709e-07
5.36224e-08
2.83333e-06
5.03319e-06
6.66346e-06
6.00369e-06
7.21266e-07
3.73742e-07
6.79122e-07
1.01292e-06
1.83673e-06
3.32077e-06
1.20133e-05
2.83458e-05
2.4505e-05
5.21617e-06
1.55045e-06
4.37772e-06
3.51572e-05
0.000211941
0.000101414
3.66453e-05
2.43795e-05
7.55396e-05
7.60371e-05
1.68296e-05
0.000694617
0.000478091
4.18882e-06
2.56667e-06
1.65963e-06
1.06879e-06
3.32313e-07
4.63414e-07
3.16817e-06
3.83629e-06
1.36513e-06
3.02193e-07
4.37062e-07
7.86843e-07
1.39282e-06
3.23724e-06
2.13205e-06
2.78482e-05
1.91154e-05
1.32202e-05
4.43354e-06
2.54503e-05
0.000166081
0.000320774
0.000267909
5.3871e-05
3.11173e-05
5.90847e-05
3.431e-05
7.4381e-06
0.000544986
0.000372241
3.40598e-06
3.25762e-06
3.68095e-06
3.82249e-06
3.54574e-06
1.54851e-06
1.38868e-06
3.3533e-06
2.69473e-06
3.99174e-07
3.17665e-07
5.45704e-07
9.99855e-07
2.36551e-06
2.14669e-06
1.89795e-05
1.19395e-05
1.29813e-05
5.95599e-06
5.66567e-05
9.61749e-05
1.10292e-05
3.19636e-05
0.000117628
4.44958e-05
4.1623e-05
2.65955e-05
3.0309e-05
0.000298637
0.000178321
2.54505e-06
2.62246e-06
3.17278e-06
4.02689e-06
6.17933e-06
7.53715e-06
3.21999e-06
2.55406e-06
2.11563e-06
7.39234e-07
3.23757e-07
3.74725e-07
7.48749e-07
1.47373e-06
2.29204e-06
5.24875e-06
1.01511e-05
9.21292e-06
7.74782e-06
2.98116e-05
1.12839e-05
5.93207e-06
4.09834e-06
1.71955e-05
5.93452e-05
4.71443e-05
1.19489e-05
0.000157789
0.000125136
4.25223e-06
3.81785e-06
3.63488e-06
3.54546e-06
3.79632e-06
5.05578e-06
5.21909e-06
1.14898e-06
5.08357e-06
3.21265e-05
6.27767e-07
3.87901e-07
3.23173e-07
5.47149e-07
1.24407e-06
1.93083e-06
3.29427e-06
1.02709e-05
8.00018e-06
7.41597e-06
4.28434e-06
4.89905e-06
8.24271e-06
6.15713e-06
3.54453e-06
8.37289e-05
2.52805e-05
7.13808e-05
8.38606e-05
1.59653e-05
3.85725e-06
4.46711e-06
4.09374e-06
3.97629e-06
4.2532e-06
9.62104e-06
7.58109e-05
0.000320882
0.00115923
0.00244299
0.000336839
6.73991e-07
4.40079e-07
4.12109e-07
1.09905e-06
1.8779e-06
2.95009e-06
9.42019e-06
8.90843e-06
1.82147e-05
2.90464e-05
6.42256e-05
6.19097e-05
2.40255e-05
4.58509e-06
5.40301e-05
0.000143488
6.52531e-05
3.44159e-06
9.87436e-06
9.82249e-06
1.72167e-05
4.88321e-05
0.000142008
0.000342942
0.000685148
0.00176025
0.00351214
0.00479546
0.00892932
0.0057902
0.000313766
2.25306e-06
4.69065e-07
9.15094e-07
1.84459e-06
2.58683e-06
5.54613e-06
5.35239e-05
0.000244148
0.000302527
0.000267825
0.000325637
0.000300217
6.90123e-05
0.00238923
0.000671353
0.000346779
0.00026751
0.00022467
0.000292521
0.000553517
0.0011232
0.00231614
0.00376134
0.00558042
0.00737823
0.00885209
0.00767283
0.00900625
0.0186328
0.00478791
0.000161058
1.74266e-06
7.2558e-07
2.12361e-06
2.6925e-06
2.43342e-05
0.000611246
0.000330779
0.000101593
2.98954e-05
0.000154244
0.000359269
0.000390138
0.00762791
0.00946904
0.006067
0.00396499
0.00310353
0.00344588
0.00480787
0.00732312
0.0114916
0.0177268
0.0256181
0.0174574
0.00230466
5.10299e-06
1.07593e-06
0.0119595
0.0186892
0.00301478
2.59301e-05
1.08928e-06
2.89157e-06
4.69451e-06
0.000151238
0.000191971
1.14495e-06
2.64151e-06
3.274e-06
3.57265e-06
2.2244e-05
0.000352995
0.0169279
0.0243652
0.0282984
0.0190956
0.0160475
0.0178804
0.0252761
0.0338502
0.0270106
0.0103039
0.000411885
5.8123e-08
4.90422e-08
3.1319e-07
6.16001e-07
5.0141e-07
0.0125639
0.01577
0.00283746
9.64086e-06
1.70832e-06
1.78388e-05
0.000139874
3.26459e-05
1.69774e-06
2.68698e-06
4.80723e-06
6.11078e-06
1.36649e-05
0.000169717
0.00173321
4.38608e-06
0.000711405
0.00578198
0.0114325
0.00819535
0.00199582
7.47673e-06
6.30251e-08
6.08711e-08
5.93693e-08
6.96834e-08
8.85287e-08
3.61468e-07
5.03274e-07
9.58221e-07
1.1765e-07
0.0121196
0.0164201
0.00423272
6.15449e-06
1.68827e-05
2.24649e-05
2.13905e-05
3.03638e-06
3.77737e-06
6.37665e-06
9.75343e-06
1.4895e-05
5.82303e-05
0.00132386
3.52926e-06
5.16902e-08
7.91471e-08
6.91299e-08
6.1124e-08
7.88153e-08
1.08445e-07
1.51314e-07
1.16593e-07
8.16322e-08
1.18203e-07
1.18489e-07
3.25838e-07
4.4491e-07
7.36907e-07
4.49706e-07
2.40006e-07
0.00555335
0.0164724
0.00560775
1.0019e-05
5.12165e-05
8.99203e-05
1.42772e-06
4.21013e-06
6.76971e-06
6.92906e-06
1.78221e-05
6.51021e-06
0.00132014
4.46528e-06
4.45793e-08
1.18884e-07
1.2728e-07
8.99517e-08
8.01759e-08
1.21622e-07
1.1826e-07
1.38102e-07
1.02267e-07
2.12429e-07
2.03344e-07
3.45497e-07
3.3019e-07
4.90323e-07
3.31214e-07
6.32329e-07
2.90632e-07
0.00165852
0.0101118
0.0043366
0.000115894
0.000219678
5.52394e-07
3.30181e-06
3.46982e-06
1.29157e-06
2.27041e-06
9.45769e-06
0.00127283
2.03039e-06
5.98474e-08
1.02019e-07
9.85846e-08
5.50753e-08
6.0832e-08
1.18782e-07
1.40362e-07
1.18947e-07
1.71629e-07
2.11076e-07
2.34358e-07
2.87544e-07
2.85196e-07
3.61364e-07
4.10144e-07
7.14694e-07
3.31268e-07
5.42621e-08
0.000463509
0.00495043
0.00214534
0.000218967
2.58434e-06
1.39795e-06
7.4496e-07
1.8263e-06
2.58317e-06
1.5676e-05
0.00099108
1.65002e-06
7.37619e-08
8.36398e-08
9.20486e-08
4.90324e-08
5.42651e-08
1.32166e-07
1.89791e-07
1.13875e-07
2.27953e-07
2.5722e-07
2.58489e-07
2.5552e-07
4.04717e-07
3.10075e-07
5.42115e-07
7.23072e-07
1.67777e-07
1.99852e-07
1.39175e-05
0.00020945
0.00214787
0.000574247
1.59577e-05
2.79955e-06
2.70754e-06
3.41861e-06
1.27496e-05
7.79149e-05
0.000952744
2.22509e-06
6.02253e-08
1.06664e-07
9.57573e-08
5.48742e-08
5.78372e-08
1.34141e-07
1.79039e-07
1.53139e-07
4.17693e-07
2.29306e-07
3.12179e-07
2.65618e-07
5.74824e-07
2.98649e-07
5.40054e-07
4.64652e-07
8.286e-08
3.73011e-06
4.98522e-05
3.28178e-05
6.02308e-05
0.000822352
0.000512591
5.19734e-05
4.69293e-05
7.47913e-05
0.000158713
0.000234966
0.000931978
1.36181e-06
7.52863e-08
1.02419e-07
8.7424e-08
5.40388e-08
7.78103e-08
1.67703e-07
1.59797e-07
3.15307e-07
4.88227e-07
2.71924e-07
3.4517e-07
3.25008e-07
6.4815e-07
2.71846e-07
5.18118e-07
2.85249e-07
1.54949e-07
1.05298e-05
9.72694e-05
8.76254e-05
1.01203e-05
5.80063e-06
0.000306143
0.000379834
0.000166008
0.000112729
5.186e-05
0.000290993
0.000701791
1.07616e-06
1.21596e-07
1.14235e-07
9.85543e-08
6.45765e-08
1.16656e-07
2.93108e-07
2.61529e-07
6.85e-07
5.02737e-07
3.3005e-07
3.9116e-07
5.65947e-07
6.83959e-07
3.82524e-07
4.73179e-07
1.61773e-07
1.08828e-06
2.68041e-05
7.51329e-05
9.12358e-05
2.05409e-05
2.71851e-06
2.96332e-06
9.41813e-06
1.48615e-05
1.33603e-05
4.91081e-06
0.000163443
0.000654932
1.27782e-06
1.22483e-07
1.55962e-07
1.37228e-07
1.31048e-07
2.89058e-07
3.23956e-07
4.43387e-07
1.14319e-06
4.37006e-07
3.93438e-07
5.09653e-07
8.70339e-07
8.47506e-07
5.13368e-07
3.9084e-07
1.22898e-07
8.19802e-06
6.24298e-05
7.18488e-05
3.89943e-05
1.94681e-05
6.28441e-06
3.06306e-06
3.70513e-06
3.20577e-06
3.58873e-06
2.72453e-06
0.000107366
0.000552037
1.02436e-06
1.16538e-07
1.68608e-07
1.63051e-07
1.83782e-07
4.60321e-07
3.24301e-07
1.00592e-06
8.53835e-07
4.21032e-07
5.56219e-07
5.96162e-07
1.21855e-06
8.93612e-07
5.95785e-07
2.3421e-07
3.95633e-07
2.98781e-05
7.87315e-05
6.47186e-05
2.11227e-05
1.18136e-05
7.50318e-06
4.75415e-06
3.72727e-06
2.92427e-06
3.15781e-06
3.77751e-06
7.7811e-05
0.000452215
1.03853e-06
1.16132e-07
1.52981e-07
2.23523e-07
2.71284e-07
5.61372e-07
4.25219e-07
1.1647e-06
4.08019e-07
4.95124e-07
5.81233e-07
5.88726e-07
1.2998e-06
7.05881e-07
5.80674e-07
1.50811e-07
3.1978e-06
6.3923e-05
8.15125e-05
3.70769e-05
1.41295e-05
1.02269e-05
6.5555e-06
3.70476e-06
2.36725e-06
2.87705e-06
4.17508e-06
3.47625e-06
4.81719e-05
0.000437518
1.10852e-06
8.64922e-08
1.41175e-07
2.92082e-07
3.38372e-07
4.64932e-07
4.44782e-07
4.52427e-07
3.13502e-07
4.48599e-07
5.13708e-07
5.91233e-07
8.40313e-07
6.84564e-07
4.47214e-07
1.58297e-07
1.6267e-05
7.6726e-05
8.34856e-05
3.25288e-05
1.22523e-05
6.50519e-06
4.20598e-06
1.83927e-06
1.43726e-06
1.62991e-06
3.06801e-06
5.40632e-06
2.48936e-05
0.000307495
4.85662e-07
6.25953e-08
1.34541e-07
3.08296e-07
4.81966e-07
3.56486e-07
4.31284e-07
2.60862e-07
2.64981e-07
3.69156e-07
4.69746e-07
6.01421e-07
5.7114e-07
6.93955e-07
3.26605e-07
3.38711e-07
5.24191e-05
9.48239e-05
5.63903e-05
2.30287e-05
1.4291e-05
4.73523e-06
1.68433e-06
1.58405e-06
2.08455e-06
3.24984e-06
5.60583e-06
6.12605e-06
7.92288e-06
0.000247106
5.73588e-07
4.13151e-08
1.09809e-07
2.28387e-07
4.89998e-07
3.57721e-07
3.22641e-07
2.20575e-07
2.43406e-07
3.40302e-07
4.14127e-07
4.81757e-07
6.16204e-07
6.60623e-07
2.59377e-07
2.39301e-06
7.28938e-05
9.83577e-05
4.21438e-05
1.32294e-05
7.46709e-06
4.37405e-06
2.46079e-06
1.93908e-06
2.40012e-06
4.05984e-06
5.17949e-06