/*--------------------------------*- C++ -*----------------------------------*\
| =========                 |                                                 |
| \\      /  F ield         | OpenFOAM: The Open Source CFD Toolbox           |
|  \\    /   O peration     | Version:  2.3.0                                 |
|   \\  /    A nd           | Web:      www.OpenFOAM.org                      |
|    \\/     M anipulation  |                                                 |
\*---------------------------------------------------------------------------*/
FoamFile
{
    version     2.0;
    format      ascii;
    class       volScalarField;
    location    "0.35";
    object      epsilon.air;
}
// * * * * * * * * * * * * * * * * * * * * * * * * * * * * * * * * * * * * * //

dimensions      [0 2 -3 0 0 0 0];

internalField   nonuniform List<scalar> 
6000
(
118.15
19.3546
11.2931
10.1842
9.95657
9.93555
9.95537
9.77868
9.3676
9.25433
9.4853
10.0302
10.6848
10.7898
10.4825
10.5387
10.7959
10.5168
9.84288
9.38966
9.23544
9.40483
9.85045
10.0322
10.1103
10.0603
10.1818
11.1345
18.8892
118.353
62.5113
25.9135
15.8824
12.5216
11.4858
11.4303
11.9356
12.1952
11.0656
10.7374
11.3287
12.8956
15.4867
16.4292
16.4408
16.4646
16.2308
14.6951
12.265
11.0464
10.6744
11.2121
12.4395
12.1275
11.5406
11.6536
12.6829
15.775
25.7737
62.3471
37.8931
21.7167
14.9466
12.2225
11.1781
10.9608
11.1509
11.2889
11.1257
11.4014
12.1218
13.3346
14.6967
15.4112
15.6885
15.649
15.2426
14.2993
12.8702
11.8727
11.2926
11.1047
11.3609
11.2494
11.068
11.313
12.3407
14.9935
21.9306
37.6898
31.3333
17.4159
13.3364
11.4705
10.6237
10.411
10.5299
10.7604
11.0399
11.3842
12.3917
13.7291
13.8258
14.1172
14.2597
14.2502
14.0714
13.8177
13.5543
12.0816
11.2425
10.9703
10.7106
10.5494
10.4589
10.6929
11.5368
13.3722
17.4402
30.4349
25.0982
14.5674
11.855
10.615
10.0564
9.98516
10.1992
10.6445
11.1768
11.6416
13.0675
13.5479
13.1403
13.1242
13.164
13.1695
13.153
13.2748
13.8843
12.6472
11.4247
11.0654
10.5031
10.1496
9.9727
10.074
10.6459
11.8738
14.5348
24.0469
18.6584
12.3382
10.5168
9.79898
9.54806
9.68754
10.1026
10.8039
11.4823
12.2881
14.2046
13.2738
12.6203
12.4073
12.3596
12.38
12.481
12.7914
13.5759
13.6142
11.9119
11.3221
10.5793
9.97393
9.61595
9.52904
9.79414
10.4946
12.2605
17.7129
14.5468
10.5716
9.44136
9.15518
9.21493
9.5924
10.2357
11.2041
11.849
13.085
14.3893
13.0184
12.274
11.9512
11.8457
11.8763
12.0555
12.4821
13.3836
14.719
12.7704
11.6847
10.9106
10.0276
9.44487
9.13975
9.11391
9.36695
10.3643
13.7572
14.098
9.63682
8.80431
8.8473
9.17798
9.77097
10.6661
11.8453
12.5888
14.286
14.0542
12.8824
12.1665
11.7955
11.6532
11.6903
11.9149
12.4027
13.3047
14.7806
13.9692
12.2836
11.5036
10.3346
9.53323
9.01413
8.74718
8.72151
9.40299
13.5634
15.1909
9.49318
8.70984
8.93515
9.45285
10.271
11.4217
12.7708
14.182
16.1647
14.3914
13.1241
12.3612
11.9435
11.7735
11.8125
12.0667
12.5961
13.5102
14.9463
15.8531
13.625
12.3185
10.9489
9.9256
9.20721
8.78719
8.65845
9.27431
14.8808
17.8879
9.90693
9.0996
9.41725
10.1615
11.1602
12.4921
14.3544
16.7021
17.6413
15.3044
13.8364
12.9408
12.4246
12.202
12.2448
12.5613
13.2018
14.2488
15.8548
17.9298
16.0917
13.6816
11.9001
10.7208
9.81099
9.19298
9.0295
9.68346
17.5718
20.7867
10.9851
10.1942
10.4837
11.4103
12.8038
14.7253
17.6727
20.4401
19.3767
16.8619
15.0749
13.8666
13.1377
12.8201
12.8755
13.3222
14.224
15.6372
17.5642
20.2385
19.9092
16.7829
13.902
12.2175
10.9983
10.2568
10.0726
10.6777
20.0017
24.2199
12.6203
11.9202
12.2961
13.5994
15.5364
18.6997
23.0925
25.6891
21.9094
18.9961
16.475
14.7233
13.6759
13.2024
13.2804
13.9216
15.2042
17.2452
19.8875
23.2469
25.4982
22.0335
17.6404
14.8894
13.325
12.2434
11.7905
12.1451
22.6695
27.9193
14.5688
14.0758
15.0655
16.935
19.9228
25.1255
31.3299
31.4831
24.3916
20.7096
17.4938
15.1739
13.6734
13.0124
13.1135
13.994
15.7712
18.3946
21.8493
25.867
32.5389
30.2755
23.8916
19.1443
16.7065
15.1487
13.9101
13.8009
25.1581
30.9654
16.6336
16.6451
18.7096
21.5169
26.6104
34.8151
42.1087
34.5635
26.0586
21.9442
18.1013
15.122
13.3152
12.5198
12.6272
13.6629
15.7888
19.1272
23.1174
27.2981
36.656
41.284
33.3453
25.7094
21.1186
18.5613
16.2736
15.4415
27.0301
33.0109
18.6441
19.4975
22.7866
27.4819
35.1602
45.996
47.317
34.2592
27.212
22.5109
18.0172
14.8725
13.0182
12.2014
12.2943
13.3262
15.4848
19.0281
23.772
28.2138
36.0343
47.7859
44.371
34.1606
26.8697
22.2776
18.7299
17.1124
28.6008
34.7501
20.5627
22.2816
27.1744
34.1808
44.1924
51.7949
45.2757
33.7841
27.3889
22.0971
17.7217
14.7343
12.9377
12.12
12.196
13.1763
15.202
18.4933
23.1764
28.3927
34.9911
46.0796
50.7371
43.4156
33.622
26.5368
21.2976
18.8942
30.268
35.2941
21.9055
24.6491
31.5811
41.947
53.1359
51.1779
43.8673
34.175
27.5669
22.2328
17.9031
14.953
13.1499
12.3259
12.3774
13.3397
15.2972
18.4936
22.998
28.3943
35.1446
44.3754
50.5531
52.987
41.986
31.2082
23.8534
20.4855
31.7857
33.9073
22.2518
26.2831
35.6103
49.4485
58.6318
50.6026
44.6841
35.7985
29.4942
24.1031
19.6551
16.5044
14.5029
13.5467
13.5933
14.6315
16.7356
20.0193
24.5104
29.8557
36.2428
44.5357
49.704
57.5455
49.7116
35.854
26.0181
21.5182
32.1098
31.5084
21.5883
27.3163
39.2546
54.8262
55.1721
47.8966
43.7331
36.752
30.633
25.6627
21.5904
18.4367
16.3051
15.2159
15.2514
16.3468
18.5287
21.6965
25.7494
30.6315
36.7634
43.0598
46.8704
53.7533
55.022
40.0325
27.6266
22.4089
30.0435
33.6119
22.6451
27.8777
39.4489
53.8948
49.5955
43.424
39.3392
35.0746
29.6919
24.8382
21.0127
18.1706
16.2783
15.3298
15.3124
16.266
18.1869
21.0244
24.8095
29.6151
34.6745
38.5767
42.3628
48.4937
54.4856
40.8813
28.7713
22.7084
32.0576
34.2633
23.1826
28.0356
38.7639
49.1748
43.7596
38.2322
34.2396
30.6338
26.6532
22.8001
19.5535
17.0427
15.3522
14.5357
14.5266
15.3677
17.0481
19.5107
22.7017
26.4447
30.1975
33.6421
37.5139
43.1684
50.0089
40.797
28.6528
23.7951
33.7147
34.0253
22.8816
27.7041
37.3976
45.4977
39.4102
33.8926
29.8225
26.4291
23.1914
20.1898
17.5987
15.5702
14.1891
13.4965
13.5059
14.1893
15.5557
17.5551
20.0908
23.0215
26.1268
29.4155
33.399
39.0058
45.8609
40.0142
28.3661
23.3725
33.3007
33.6272
21.9787
26.5728
35.7483
43.447
36.4272
30.5211
26.3064
22.9976
20.1717
17.6938
15.6106
13.9868
12.8875
12.3353
12.3333
12.8767
13.9652
15.5623
17.6134
20.0365
22.8013
26.0346
30.2297
36.1574
43.4935
38.4544
27.2841
22.2649
32.9948
32.5574
20.8252
25.0824
33.4639
41.8459
34.4107
27.9824
23.5381
20.2632
17.6672
15.5368
13.808
12.4941
11.6114
11.1701
11.1647
11.5979
12.4658
13.7642
15.467
17.5712
20.1314
23.389
27.8174
34.2125
41.9128
35.8799
25.6168
20.9371
32.3637
31.3918
19.6721
23.4982
31.0546
39.9631
32.8577
26.0097
21.3691
18.0861
15.6382
13.7344
12.2601
11.1679
10.4474
10.0838
10.0817
10.4291
11.1391
12.2176
13.6807
15.5678
18.0131
21.2925
25.924
32.6446
39.8863
32.7006
23.7412
19.6051
31.1411
29.9769
18.6324
21.9505
28.732
37.8953
31.7118
24.4842
19.6595
16.3634
14.0036
12.2591
10.9597
10.0275
9.41825
9.11777
9.10872
9.40263
9.99866
10.9245
12.2178
13.9634
16.3254
19.6257
24.3767
31.2803
37.3358
29.5859
21.9486
18.4679
30.0494
28.6525
17.7064
20.5815
26.662
35.6862
30.8542
23.3142
18.338
15.0089
12.7078
11.0649
9.88594
9.06116
8.53512
8.26765
8.26436
8.51667
9.03844
9.85902
11.0419
12.6937
15.0152
18.3432
23.2437
30.4629
35.0026
26.9625
20.4119
17.573
29.0582
27.5721
16.9105
19.386
24.9164
33.6369
30.4916
22.5602
17.3836
13.9954
11.7057
10.1196
9.01232
8.25922
7.77805
7.54181
7.5387
7.77013
8.2397
8.99587
10.1131
11.7243
14.0516
17.4753
22.6062
30.2041
32.8965
24.8686
19.1385
16.824
28.1756
26.8888
16.2659
18.3063
23.378
31.7027
30.5669
22.3158
16.8407
13.3114
10.9765
9.39548
8.31997
7.59729
7.14809
6.92977
6.92695
7.13943
7.58776
8.30789
9.40171
11.0211
13.4282
17.0533
22.6038
30.5572
31.12
23.2119
18.0478
16.135
27.2361
26.6285
15.6943
17.2342
21.9484
29.9606
30.9661
22.5766
16.7491
12.967
10.5046
8.8739
7.78323
7.06964
6.6295
6.42063
6.41669
6.61873
7.05224
7.76928
8.87273
10.5484
13.0998
17.0346
23.0486
31.3631
29.4257
21.7027
17.0184
15.4378
26.2357
26.7697
15.018
16.0889
20.5136
28.336
31.9794
23.5199
17.0564
12.9512
10.2725
8.52993
7.39155
6.6519
6.21062
6.00146
5.99557
6.192
6.62353
7.34798
8.48698
10.2438
12.9685
17.2131
23.8055
32.0421
27.5248
20.1969
15.9759
14.6903
25.1001
24.4323
13.8608
14.8253
18.9679
26.3962
32.8061
24.9887
17.7868
13.1617
10.238
8.33984
7.11145
6.33562
5.87735
5.6605
5.65024
5.84486
6.27824
7.02403
8.20127
10.0442
12.9293
17.4619
24.4579
31.8475
25.5265
18.7569
14.9322
13.9247
24.1075
20.6894
12.1448
13.4084
17.2019
23.947
32.0015
26.2066
18.6025
13.5691
10.3261
8.25657
6.93156
6.1015
5.61614
5.3854
5.36949
5.56355
6.00277
6.76399
7.98648
9.90054
12.9042
17.6069
24.8342
30.8349
23.6186
17.3752
13.8929
13.1361
23.2879
17.2208
10.3877
11.7257
15.2496
21.1792
29.3368
26.7376
19.3017
14.0133
10.5113
8.26031
6.82082
5.93207
5.41327
5.16523
5.14197
5.33645
5.78343
6.56215
7.81761
9.79472
12.8942
17.7461
25.2744
29.5695
21.9114
16.0894
12.8684
12.264
22.4204
14.7382
8.80188
10.0086
13.2409
18.558
26.3247
27.1283
19.9588
14.4314
10.7161
8.28696
6.75553
5.80854
5.25557
4.9889
4.95781
5.15304
5.60888
6.40549
7.69343
9.71882
12.8971
17.8645
25.5392
28.1589
20.3683
14.8692
11.8332
11.2577
20.5875
12.6075
7.44229
8.49178
11.3878
16.2131
23.4866
26.854
20.1389
14.6106
10.812
8.30335
6.70611
5.71179
5.129
4.84578
4.8076
5.00407
5.46908
6.28391
7.59945
9.67087
12.9034
17.9439
25.6965
26.6588
18.8781
13.6631
10.7785
10.0803
18.1408
10.5928
6.30296
7.2628
9.85119
14.1705
20.852
25.6186
19.7831
14.4953
10.7631
8.26788
6.64582
5.62428
5.02099
4.72543
4.68195
4.8801
5.35341
6.18418
7.52355
9.62327
12.8842
17.9261
25.4824
24.8833
17.2877
12.4051
9.66215
8.83477
15.7067
8.77538
5.60598
6.40725
8.6837
12.4727
18.5307
23.5922
18.9084
14.0989
10.5839
8.16422
6.55692
5.53233
4.92108
4.6186
4.57205
4.7713
5.24974
6.08929
7.43825
9.54037
12.7705
17.6806
24.5514
22.6075
15.5002
11.063
8.50048
7.67135
13.6201
9.12616
5.28736
5.94089
7.84923
11.2632
16.6533
21.255
17.7646
13.465
10.2453
7.97189
6.4287
5.42574
4.81976
4.51704
4.46917
4.66793
5.14536
5.98096
7.31215
9.36255
12.4523
17.0109
22.7744
19.8545
13.5748
9.67109
7.38236
6.67103
11.9382
9.64606
5.2864
5.65438
7.35045
10.4248
15.0421
19.0514
16.6086
12.7865
9.84497
7.73052
6.26776
5.3015
4.71014
4.41261
4.3649
4.56038
5.02973
5.84379
7.123
9.0491
11.8604
15.8639
20.1921
16.8673
11.6373
8.32048
6.38058
5.82981
10.5688
9.55872
5.16982
5.44814
6.97528
9.6632
13.5531
17.0147
15.6176
12.1653
9.44493
7.46701
6.08321
5.15872
4.5874
4.29839
4.2509
4.44008
4.89228
5.66848
6.86517
8.61638
11.0683
14.3605
17.0953
13.8913
9.78502
7.09456
5.5234
5.13133
9.44234
9.65237
5.04749
5.22699
6.55988
8.86745
12.0837
15.2577
14.8186
11.6412
9.06889
7.19308
5.87843
4.99526
4.44648
4.16673
4.11918
4.29768
4.72499
5.44763
6.53904
8.08067
10.1342
12.6435
13.8881
11.1638
8.14462
6.06388
4.82462
4.56093
8.47726
9.73379
4.9393
4.98982
6.10477
7.95417
10.5383
13.5676
13.9825
11.1063
8.67151
6.89359
5.64557
4.80484
4.27849
4.00817
3.9586
4.12361
4.51808
5.17412
6.13719
7.44498
9.10599
10.851
10.9415
8.9785
6.83286
5.26075
4.29405
4.08637
7.66315
9.70855
4.78581
4.70367
5.55551
6.93
8.89787
11.5086
12.5884
10.2933
8.11825
6.50394
5.35221
4.56706
4.07036
3.81175
3.75953
3.90509
4.25644
4.82848
5.64411
6.7073
8.00885
8.96136
8.58145
7.31999
5.86249
4.68122
3.99405
3.97873
7.34766
9.50248
4.57307
4.34852
4.94517
5.9608
7.43621
9.35274
10.5065
9.11146
7.33222
5.97227
4.97189
4.27536
3.827
3.58835
3.53381
3.6535
3.94858
4.42584
5.09565
5.9581
6.84945
7.20235
6.92591
6.15775
5.17381
4.26854
3.77144
3.99326
7.61687
9.08638
4.30895
3.98219
4.38438
5.19198
6.34566
7.75411
8.61161
7.8165
6.48619
5.38117
4.55024
3.95969
3.57328
3.36181
3.30738
3.39999
3.63894
4.03195
4.58399
5.24201
5.7543
5.99573
5.96863
5.46401
4.65926
3.96329
3.59763
3.83468
7.76065
8.52687
4.00044
3.62333
3.93734
4.63069
5.60722
6.78481
7.39293
6.7261
5.71683
4.83436
4.15029
3.6578
3.33005
3.14634
3.09456
3.16597
3.36065
3.68675
4.13367
4.59933
4.96002
5.33416
5.52244
5.07062
4.29319
3.66283
3.33742
3.54783
7.2384
7.86775
3.67598
3.31362
3.6002
4.22395
5.11906
6.17689
6.61116
5.90303
5.05744
4.36084
3.80388
3.39531
3.11762
2.95847
2.91062
2.96784
3.12969
3.39793
3.74786
4.08988
4.4578
4.97708
5.25712
4.79006
3.96061
3.351
3.06209
3.24235
6.65228
7.24443
3.38915
3.06415
3.33175
3.90343
4.735
5.69704
6.0133
5.2648
4.51812
3.96514
3.52155
3.18787
2.95503
2.81779
2.77386
2.81937
2.95017
3.16108
3.42561
3.70479
4.09329
4.61414
4.90939
4.4387
3.61585
3.02745
2.75984
2.95751
6.14219
6.73191
3.1577
2.85376
3.09541
3.6134
4.37214
5.24488
5.47291
4.72977
4.0733
3.63044
3.28879
3.02554
2.83556
2.7207
2.68158
2.71318
2.80677
2.95772
3.14958
3.38336
3.72286
4.13218
4.44031
4.01273
3.26699
2.73657
2.48627
2.72905
5.70035
6.33369
2.96932
2.66787
2.87125
3.32518
4.00134
4.7775
4.90436
4.22477
3.6765
3.32262
3.06906
2.87241
2.72547
2.63458
2.60162
2.61608
2.66885
2.76301
2.89459
3.07805
3.32841
3.648
3.9289
3.5818
2.95218
2.50093
2.28436
2.50871
5.24472
6.02679
2.81254
2.49964
2.65609
3.03884
3.61809
4.26951
4.30711
3.73348
3.29654
3.01751
2.83375
2.69431
2.58848
2.52139
2.49281
2.49083
2.51102
2.56054
2.64614
2.78194
2.97091
3.23017
3.438
3.17851
2.70011
2.32184
2.13728
2.34174
4.89529
5.79519
2.68471
2.34989
2.45453
2.76366
3.23733
3.74979
3.73145
3.26986
2.92934
2.71275
2.57748
2.47848
2.40421
2.35658
2.33126
2.32074
2.32595
2.35022
2.40653
2.51197
2.66706
2.87747
2.98766
2.81373
2.52209
2.20701
2.03905
2.24317
4.68517
5.64458
2.58983
2.22222
2.27104
2.50741
2.88036
3.25843
3.20546
2.84545
2.58453
2.41552
2.31021
2.23597
2.18198
2.14696
2.12534
2.1157
2.12009
2.1361
2.17876
2.26725
2.4017
2.57343
2.5954
2.50103
2.40143
2.14329
1.97649
2.184
4.64002
5.59604
2.53691
2.11729
2.10578
2.27131
2.55706
2.82548
2.75626
2.47994
2.27622
2.13941
2.05192
1.99339
1.95215
1.92503
1.90812
1.90265
1.90963
1.92613
1.96699
2.04832
2.1738
2.29698
2.27501
2.24816
2.24886
2.08895
1.93321
2.15437
4.70229
5.73839
2.53361
2.03217
1.95673
2.05286
2.26063
2.44981
2.39357
2.18089
2.01527
1.90062
1.82587
1.77798
1.7454
1.72405
1.71164
1.70901
1.71641
1.73523
1.78
1.86269
1.97934
2.04819
2.02674
2.04092
2.09135
2.05765
1.92731
2.13822
4.5649
6.39176
2.5944
1.96335
1.82349
1.85709
1.99267
2.12327
2.09993
1.94033
1.80215
1.70452
1.64018
1.59998
1.57373
1.55692
1.54806
1.54713
1.55432
1.57525
1.62218
1.70264
1.79885
1.82926
1.8252
1.8782
1.97511
2.03672
1.91953
2.05388
4.30311
7.07519
2.68804
1.91171
1.7182
1.70342
1.77653
1.85488
1.85628
1.74343
1.62719
1.54265
1.48671
1.45255
1.43134
1.41843
1.41262
1.41337
1.42072
1.44207
1.48669
1.55641
1.62566
1.63652
1.65953
1.7614
1.90725
1.99149
1.90852
2.01961
3.99815
7.29492
2.7555
1.92637
1.68679
1.62076
1.62678
1.65196
1.65096
1.57274
1.4772
1.40321
1.35412
1.32501
1.3079
1.29809
1.29448
1.29641
1.3042
1.32429
1.36266
1.41762
1.46376
1.47419
1.53072
1.6582
1.8281
1.90078
1.86276
1.88464
3.47763
6.83267
3.03305
2.07807
1.75985
1.61813
1.54388
1.51505
1.48598
1.4193
1.34176
1.27768
1.23446
1.20898
1.19431
1.18613
1.18356
1.18589
1.19411
1.21243
1.24398
1.28571
1.31785
1.34289
1.42755
1.54575
1.70305
1.76416
1.72845
1.6519
2.82618
5.36684
3.07895
2.49897
2.02837
1.69739
1.52404
1.43977
1.37495
1.29445
1.22041
1.16454
1.12588
1.10159
1.08678
1.07824
1.07514
1.07719
1.08596
1.10347
1.13011
1.16281
1.19122
1.23854
1.32824
1.43562
1.5537
1.57509
1.54653
1.45609
2.44249
3.34763
2.67709
2.59858
2.46623
1.8914
1.55528
1.41876
1.31893
1.21409
1.12525
1.06868
1.03158
1.00554
0.988072
0.977423
0.97266
0.973925
0.982812
1.00007
1.0245
1.05399
1.08815
1.1566
1.23389
1.33095
1.40038
1.38325
1.35351
1.3171
2.33712
2.23068
2.03807
2.29653
2.46913
2.1132
1.63129
1.43478
1.30582
1.1765
1.06489
0.995227
0.953904
0.923852
0.902714
0.889276
0.882497
0.882586
0.890698
0.907147
0.930883
0.961605
1.00647
1.08696
1.15205
1.22927
1.25627
1.22249
1.20023
1.24245
2.33715
1.98658
1.65326
1.88473
2.17852
2.13385
1.70828
1.46167
1.31209
1.16669
1.03617
0.945989
0.892764
0.856649
0.831463
0.815071
0.806246
0.804997
0.811969
0.827405
0.851186
0.885347
0.944255
1.01933
1.07996
1.13571
1.13725
1.10487
1.09107
1.21261
2.41469
2.04244
1.50634
1.64335
1.88119
1.9995
1.76926
1.47008
1.31195
1.16052
1.02094
0.917309
0.848971
0.804659
0.774822
0.755298
0.744395
0.741618
0.74726
0.761931
0.78638
0.826181
0.896441
0.953419
1.01764
1.05337
1.04752
1.02899
1.02049
1.19837
2.71612
2.43354
1.52915
1.51065
1.69345
1.79495
1.77832
1.47022
1.30069
1.14762
1.00371
0.895085
0.819923
0.768242
0.733735
0.711475
0.698997
0.694954
0.699214
0.712899
0.738106
0.782071
0.841646
0.893061
0.956094
0.976817
0.980433
0.986485
0.978586
1.16859
2.79637
3.21334
1.63877
1.44855
1.55598
1.65468
1.73535
1.46778
1.27866
1.1303
0.984435
0.87141
0.794014
0.740242
0.703254
0.679327
0.665928
0.66136
0.665102
0.678488
0.70392
0.743738
0.787618
0.839906
0.89039
0.911399
0.93404
0.963848
0.947647
1.12561
2.651
3.28184
1.72131
1.42545
1.4751
1.56558
1.63491
1.45781
1.25516
1.11308
0.96902
0.851522
0.769495
0.713595
0.675555
0.650712
0.636525
0.631553
0.635227
0.648654
0.67247
0.704575
0.743715
0.793105
0.831175
0.867383
0.908126
0.949006
0.926943
1.09233
2.41896
3.10145
1.72094
1.40628
1.45566
1.51799
1.54036
1.45148
1.24719
1.10147
0.962598
0.83941
0.75128
0.691022
0.650605
0.624404
0.609231
0.603391
0.606333
0.618421
0.639574
0.667708
0.703923
0.750949
0.785821
0.843294
0.899344
0.936004
0.918437
1.06778
2.27006
2.68614
1.66211
1.37654
1.4285
1.48827
1.499
1.47069
1.26785
1.10248
0.966034
0.836789
0.740521
0.674802
0.630962
0.602742
0.586288
0.579367
0.581047
0.591135
0.60954
0.635141
0.669303
0.713802
0.755772
0.82756
0.900355
0.929124
0.923812
1.05391
2.12329
2.55394
1.52199
1.33089
1.39157
1.47983
1.51451
1.5108
1.34189
1.12648
0.979831
0.841609
0.736195
0.664022
0.61622
0.585619
0.567618
0.559477
0.55972
0.567934
0.58416
0.608257
0.642369
0.685119
0.743298
0.829996
0.914801
0.932659
0.951117
1.05899
2.01005
2.69195
1.44182
1.31608
1.39393
1.49885
1.58155
1.54931
1.4922
1.19887
1.00677
0.854292
0.736913
0.657318
0.60519
0.572041
0.552387
0.542939
0.541864
0.548665
0.563448
0.586911
0.621923
0.66569
0.741556
0.851289
0.950365
0.954768
1.02167
1.08065
1.96349
2.94527
1.43692
1.32619
1.41655
1.53823
1.68586
1.62577
1.60074
1.32005
1.04645
0.871023
0.740196
0.653233
0.596813
0.561144
0.539877
0.529213
0.527075
0.53287
0.546671
0.569581
0.604565
0.655018
0.744105
0.888361
0.995396
0.986612
1.03559
1.08397
1.95708
2.95024
1.42821
1.33559
1.43658
1.54398
1.75211
1.7116
1.611
1.45881
1.10679
0.89122
0.745275
0.650776
0.590257
0.552236
0.529499
0.517784
0.514817
0.519889
0.532877
0.555174
0.590449
0.651844
0.74632
0.915623
1.02585
1.00024
1.01181
1.08131
1.95372
2.94181
1.41012
1.32829
1.41673
1.50509
1.74192
1.741
1.59957
1.54404
1.17978
0.913304
0.751083
0.649037
0.584841
0.544767
0.520787
0.508209
0.504572
0.50901
0.521282
0.543625
0.58147
0.651802
0.742595
0.919247
1.03909
0.997769
0.975914
1.06486
1.92766
2.87823
1.36311
1.27688
1.31302
1.3987
1.66531
1.71023
1.55652
1.50644
1.23203
0.932444
0.755085
0.646977
0.579864
0.538234
0.513326
0.500085
0.49587
0.499539
0.511231
0.534063
0.575345
0.648944
0.73171
0.906454
1.05952
0.999187
0.952711
1.0232
1.84188
2.58858
1.23688
1.12739
1.14538
1.26606
1.53821
1.618
1.47009
1.39578
1.22041
0.937466
0.754218
0.643374
0.574653
0.532172
0.506749
0.493094
0.488372
0.491176
0.502193
0.525111
0.567706
0.63613
0.714676
0.87704
1.06723
1.00458
0.94105
1.00802
1.77592
1.97303
1.0748
0.972805
1.01893
1.15994
1.39883
1.49115
1.36613
1.27976
1.15871
0.925261
0.74766
0.637193
0.56866
0.526218
0.500784
0.487036
0.481991
0.484146
0.49452
0.516817
0.557805
0.615598
0.692606
0.837237
1.03507
0.996104
0.923805
0.995885
1.77885
1.61481
0.966549
0.8928
0.953225
1.08702
1.26345
1.35989
1.26286
1.17492
1.0704
0.890257
0.731821
0.627632
0.561518
0.520095
0.495178
0.48172
0.476771
0.478903
0.489192
0.510749
0.550434
0.598317
0.668201
0.789441
0.957835
0.96379
0.905314
0.988751
1.82819
1.54469
0.919614
0.867639
0.933158
1.04207
1.14428
1.23611
1.17268
1.08581
0.988314
0.843242
0.708326
0.614621
0.552911
0.513435
0.489548
0.476838
0.472579
0.475483
0.486553
0.508431
0.54322
0.584184
0.643949
0.7404
0.872261
0.9071
0.888329
0.996297
1.94377
1.5841
0.913001
0.869895
0.935885
1.00017
1.04153
1.11083
1.09386
1.01254
0.917598
0.794963
0.68051
0.598308
0.542451
0.505892
0.483609
0.472085
0.468911
0.472854
0.48442
0.50554
0.535335
0.5726
0.622723
0.693297
0.780882
0.835506
0.87278
1.03075
2.10705
1.70009
0.927364
0.892849
0.941288
0.941493
0.947803
0.983359
1.00704
0.945501
0.854495
0.747303
0.65
0.578976
0.530045
0.497541
0.477528
0.467349
0.465193
0.469872
0.481671
0.501705
0.529732
0.564024
0.606834
0.657457
0.708674
0.775871
0.872029
1.1074
2.38722
1.82367
0.974277
0.923398
0.922191
0.875159
0.864259
0.871793
0.894869
0.870232
0.791078
0.698706
0.617165
0.557004
0.515714
0.488463
0.471442
0.462459
0.460722
0.465696
0.477794
0.497547
0.52435
0.556817
0.593843
0.630575
0.672364
0.745255
0.89298
1.27617
2.94559
2.04146
1.1065
0.970609
0.882351
0.821456
0.794269
0.781885
0.785856
0.776987
0.720757
0.648514
0.58385
0.534662
0.500726
0.478662
0.464796
0.456845
0.45495
0.459486
0.471203
0.490915
0.517202
0.548015
0.579652
0.614007
0.67304
0.75995
0.956518
1.55129
3.5943
2.48545
1.33232
1.01654
0.869172
0.801543
0.756212
0.720236
0.702676
0.688723
0.65106
0.600372
0.552732
0.514561
0.487311
0.469328
0.457911
0.451074
0.449148
0.452838
0.463516
0.482799
0.509198
0.538902
0.571122
0.619334
0.703089
0.821215
1.09445
1.8928
3.77806
2.86769
1.45487
1.02419
0.865142
0.799055
0.73917
0.689552
0.654277
0.627771
0.597702
0.561524
0.526928
0.498176
0.477071
0.462903
0.453568
0.447903
0.446131
0.449345
0.459011
0.476853
0.50293
0.535308
0.576133
0.649807
0.774232
0.927008
1.32541
1.93864
3.50742
3.13127
1.43315
1.03026
0.862624
0.790319
0.72314
0.667991
0.627341
0.594798
0.565438
0.536334
0.5093
0.486804
0.470569
0.460115
0.453058
0.448241
0.446795
0.450353
0.460102
0.477321
0.503394
0.539668
0.597307
0.697983
0.842684
1.04373
1.5938
1.91356
3.38638
3.46868
1.3709
1.05426
0.867843
0.77947
0.708717
0.648789
0.604866
0.572668
0.545648
0.520882
0.49829
0.479471
0.466188
0.458249
0.45334
0.45021
0.450378
0.455687
0.466777
0.48448
0.511971
0.555185
0.625587
0.737477
0.882806
1.13218
1.74717
1.85747
3.56365
4.2774
1.39478
1.06683
0.866331
0.77513
0.703573
0.639371
0.592695
0.558113
0.532406
0.510446
0.490498
0.473697
0.461896
0.455209
0.45236
0.45199
0.455683
0.464741
0.478444
0.497942
0.527724
0.573533
0.64537
0.759582
0.8921
1.16955
1.73852
1.88374
4.46715
5.28721
1.48068
1.02716
0.843195
0.768228
0.710737
0.642958
0.594359
0.557433
0.529189
0.506611
0.486579
0.469804
0.458488
0.452578
0.451122
0.453482
0.461207
0.474655
0.491588
0.51392
0.546801
0.595928
0.672998
0.781756
0.905072
1.2353
1.69008
1.97868
5.18039
5.19578
1.68733
1.08375
0.844676
0.767718
0.731971
0.66468
0.608705
0.567288
0.535319
0.509517
0.487761
0.469847
0.458323
0.452811
0.452307
0.457165
0.469202
0.487388
0.508996
0.537828
0.577661
0.637676
0.728101
0.814892
0.969919
1.39909
1.6656
2.01705
5.00338
4.68159
1.85539
1.28265
0.933086
0.794514
0.768739
0.717624
0.64603
0.593197
0.553709
0.520776
0.494414
0.473899
0.461982
0.456906
0.457785
0.46566
0.481458
0.504931
0.532752
0.569784
0.621113
0.698771
0.797034
0.868525
1.05856
1.39496
1.56594
1.99766
4.46172
3.87824
1.77994
1.2764
1.01549
0.854855
0.820236
0.781584
0.696489
0.625993
0.576909
0.53977
0.508064
0.484128
0.471613
0.467749
0.470219
0.479015
0.497296
0.525902
0.558729
0.601545
0.663292
0.754013
0.842101
0.895614
1.04425
1.26479
1.40907
1.83634
3.75226
3.25977
1.56111
1.18428
0.977849
0.861431
0.844749
0.812478
0.727342
0.646354
0.593022
0.556248
0.523709
0.498652
0.485833
0.483203
0.486737
0.495262
0.51475
0.545339
0.577
0.619006
0.684829
0.774181
0.843695
0.881033
0.980607
1.1521
1.28286
1.57821
3.27657
3.0245
1.38963
1.12255
0.937232
0.837115
0.827544
0.801594
0.725594
0.64809
0.596351
0.564146
0.535992
0.51457
0.503243
0.500754
0.504395
0.513052
0.530035
0.555303
0.583077
0.619108
0.680941
0.759566
0.812897
0.835958
0.924634
1.10451
1.23699
1.43789
3.14861
2.9791
1.32165
1.10394
0.902857
0.790162
0.775715
0.75848
0.704253
0.641199
0.593824
0.561488
0.53913
0.526547
0.520935
0.519214
0.52236
0.528743
0.537315
0.553868
0.576938
0.611339
0.662022
0.718053
0.752024
0.771123
0.851286
1.02553
1.20416
1.38286
3.11572
2.88117
1.29947
1.04264
0.828265
0.733189
0.718047
0.707278
0.673685
0.629098
0.589038
0.555472
0.535046
0.527929
0.530298
0.531652
0.533535
0.533816
0.534283
0.543436
0.566718
0.599839
0.638529
0.674939
0.695337
0.707698
0.760199
0.892114
1.10882
1.36397
3.00634
2.6333
1.27134
0.900861
0.736415
0.684477
0.676798
0.669826
0.648779
0.617915
0.586324
0.556265
0.532849
0.524714
0.527334
0.529295
0.530314
0.528727
0.526768
0.537594
0.561812
0.590136
0.618691
0.642363
0.654664
0.660905
0.685045
0.758576
0.937874
1.33902
2.7205
2.12037
1.16727
0.773384
0.675268
0.653908
0.650638
0.644746
0.629899
0.608341
0.585354
0.561748
0.540555
0.524156
0.516781
0.514746
0.515415
0.518188
0.526584
0.541875
0.561344
0.582267
0.602692
0.61888
0.627335
0.630771
0.639226
0.670704
0.786849
1.22554
2.17539
1.61053
0.953941
0.697629
0.649087
0.640317
0.636381
0.629138
0.616963
0.60195
0.586759
0.572083
0.55214
0.525768
0.508197
0.501696
0.502733
0.510909
0.529542
0.55173
0.563568
0.577725
0.591345
0.603047
0.610747
0.615121
0.619327
0.631225
0.689773
0.980727
1.65333
1.33136
0.8244
0.675149
0.648144
0.641183
0.634492
0.623843
0.611887
0.601714
0.593776
0.582733
0.559256
0.525076
0.507531
0.499596
0.500625
0.509396
0.529862
0.558097
0.571936
0.578949
0.587404
0.596438
0.605821
0.613933
0.619471
0.626675
0.656007
0.823333
1.3401
1.29811
0.796122
0.68493
0.663696
0.655091
0.643158
0.628116
0.614471
0.607325
0.606131
0.595077
0.558928
0.528052
0.511881
0.503367
0.504266
0.513464
0.530749
0.561409
0.583286
0.587261
0.590437
0.598959
0.61141
0.624409
0.634163
0.641135
0.662715
0.779193
1.28196
1.41001
0.827616
0.728736
0.708869
0.693294
0.6712
0.646135
0.625361
0.617112
0.620454
0.594959
0.561239
0.538712
0.523594
0.515134
0.51575
0.524691
0.538798
0.561513
0.589583
0.601155
0.600469
0.612452
0.633538
0.656982
0.675439
0.686312
0.702918
0.802905
1.36915
1.81335
0.939311
0.822932
0.786271
0.756693
0.720861
0.680858
0.642665
0.626594
0.625653
0.598565
0.574907
0.556814
0.542507
0.534441
0.534838
0.543081
0.556261
0.572241
0.593758
0.61447
0.612666
0.637458
0.676462
0.714072
0.744214
0.766571
0.795194
0.902798
1.73359
2.30446
1.11956
0.951694
0.884306
0.8327
0.778731
0.720495
0.662166
0.63945
0.636389
0.617166
0.597422
0.579375
0.564263
0.555689
0.55601
0.564771
0.578966
0.595113
0.611793
0.628155
0.630583
0.663375
0.724249
0.77935
0.827095
0.869897
0.927481
1.08172
2.22602
2.93017
1.38321
1.11337
0.988617
0.90499
0.828169
0.751776
0.686693
0.666374
0.669339
0.647733
0.621443
0.599553
0.581992
0.572242
0.57265
0.582909
0.60025
0.621008
0.644543
0.663361
0.662021
0.691164
0.759865
0.833889
0.904635
0.980332
1.09561
1.35078
2.85309
4.33003
1.78716
1.26879
1.06038
0.948123
0.858675
0.776412
0.718325
0.70404
0.711547
0.678612
0.640939
0.61093
0.589706
0.578757
0.579297
0.591243
0.613207
0.643558
0.680462
0.709667
0.70128
0.722429
0.784768
0.864591
0.947138
1.05439
1.25632
1.76156
4.23584
6.5375
2.13109
1.35717
1.1011
0.976476
0.886019
0.809185
0.761783
0.748319
0.74562
0.706232
0.656504
0.616644
0.591326
0.579446
0.580051
0.593202
0.61995
0.661505
0.713247
0.747997
0.747427
0.764081
0.814157
0.888256
0.973006
1.09319
1.34441
2.09714
6.41558
9.24072
2.49465
1.50606
1.19925
1.04494
0.943422
0.867489
0.823288
0.805246
0.784806
0.734067
0.67393
0.625285
0.595173
0.581851
0.582478
0.597289
0.628992
0.679876
0.743596
0.791521
0.805823
0.824038
0.868236
0.939708
1.03366
1.17966
1.47865
2.46377
9.18666
9.26039
3.16442
1.88218
1.49044
1.23547
1.07279
0.967776
0.906851
0.873663
0.83363
0.768133
0.696474
0.638809
0.60315
0.587199
0.587839
0.605427
0.643122
0.703229
0.778656
0.843371
0.876298
0.906213
0.964083
1.05858
1.20527
1.43434
1.81412
3.10966
9.26441
8.08616
3.3103
2.34702
2.0687
1.69757
1.33057
1.13259
1.01908
0.955978
0.890802
0.806825
0.721435
0.653542
0.610352
0.59054
0.591328
0.613175
0.659112
0.730095
0.818764
0.902665
0.961173
1.01831
1.12374
1.30047
1.62422
1.95294
2.24481
3.22888
8.13964
6.24609
3.12387
2.31814
2.29449
2.11705
1.77201
1.3563
1.1586
1.05236
0.958181
0.849882
0.747547
0.667945
0.616676
0.592904
0.594028
0.620583
0.675585
0.759788
0.866064
0.974336
1.06172
1.16097
1.34773
1.72978
2.03562
2.17628
2.22682
3.05083
6.29702
4.9636
2.69152
2.12405
2.161
2.10599
1.95531
1.63439
1.27928
1.15222
1.03569
0.899872
0.775603
0.682102
0.622741
0.595415
0.597057
0.628375
0.693168
0.794145
0.925418
1.06107
1.16888
1.29458
1.65108
1.93543
2.06485
2.09039
2.0846
2.67296
5.07278
4.21026
2.34883
1.91625
1.92996
1.91282
1.82289
1.63741
1.36679
1.22305
1.11123
0.948315
0.801901
0.695811
0.630109
0.600184
0.602552
0.638088
0.711391
0.828466
0.986883
1.15049
1.2474
1.40166
1.67084
1.84055
1.9286
1.92006
1.92708
2.35542
4.34171
3.606
2.11795
1.76117
1.76556
1.70148
1.61344
1.50748
1.36004
1.28564
1.16609
0.983514
0.823623
0.711103
0.642679
0.611789
0.61474
0.652329
0.729943
0.855998
1.03218
1.21926
1.31589
1.39184
1.53187
1.64716
1.75265
1.77626
1.77836
2.14843
3.9708
2.82849
1.75698
1.59059
1.6053
1.51873
1.48304
1.39681
1.3092
1.28254
1.16339
0.978775
0.820791
0.710158
0.642967
0.612807
0.615778
0.652715
0.729139
0.853747
1.03033
1.22775
1.32108
1.32731
1.40439
1.50207
1.58497
1.60335
1.5713
1.96616
3.58272
2.08955
1.32387
1.38459
1.4079
1.35612
1.34832
1.26792
1.24575
1.23794
1.11526
0.942585
0.798316
0.696678
0.634591
0.606536
0.609463
0.64407
0.715328
0.831054
0.995855
1.18802
1.29194
1.25803
1.27625
1.36334
1.40404
1.38835
1.325
1.66018
2.88739
1.53958
0.98746
1.18124
1.22182
1.19253
1.17077
1.13464
1.16607
1.14549
1.02888
0.884373
0.76298
0.675974
0.621985
0.597514
0.600339
0.631149
0.693821
0.794132
0.934439
1.10013
1.20977
1.18321
1.13881
1.18223
1.19973
1.1503
1.06993
1.26396
2.14501
1.21204
0.788968
0.993604
1.06776
1.04102
1.02294
1.03454
1.06363