/*--------------------------------*- C++ -*----------------------------------*\
| =========                 |                                                 |
| \\      /  F ield         | OpenFOAM: The Open Source CFD Toolbox           |
|  \\    /   O peration     | Version:  2.3.0                                 |
|   \\  /    A nd           | Web:      www.OpenFOAM.org                      |
|    \\/     M anipulation  |                                                 |
\*---------------------------------------------------------------------------*/
FoamFile
{
    version     2.0;
    format      ascii;
    class       volScalarField;
    location    "0.35";
    object      Theta.particles;
}
// * * * * * * * * * * * * * * * * * * * * * * * * * * * * * * * * * * * * * //

dimensions      [0 2 -2 0 0 0 0];

internalField   nonuniform List<scalar> 
6000
(
0.000715147
0.000754153
0.000983098
0.00118951
0.00116908
0.00214136
0.00236668
0.000842675
0.000531372
0.000429229
0.000397443
0.000504122
0.00123712
0.00265341
0.00421254
0.00374157
0.00217411
0.000892693
0.000437508
0.000392786
0.000441228
0.000560647
0.000874615
0.00226239
0.00215505
0.00113762
0.00101523
0.000939754
0.000768556
0.000677593
1.07223e-05
1.11893e-05
9.70591e-06
8.77778e-06
9.74892e-06
2.17925e-05
4.92353e-05
5.07389e-05
3.6508e-05
2.95302e-05
2.71541e-05
3.6876e-05
7.25947e-05
8.94987e-05
9.60828e-05
9.6146e-05
8.81462e-05
6.44604e-05
3.23402e-05
2.76057e-05
3.08226e-05
3.84804e-05
5.084e-05
4.73072e-05
1.96074e-05
7.84002e-06
5.88061e-06
8.07465e-06
1.14478e-05
1.11188e-05
0.000155014
4.31249e-05
5.28312e-05
3.18485e-05
4.64755e-05
2.56304e-05
8.93353e-06
2.3074e-05
4.83465e-05
5.21336e-05
9.27834e-05
0.000236399
0.000159147
1.58093e-05
4.82801e-06
5.78243e-06
3.90004e-05
0.000253086
0.000180533
6.8998e-05
4.68979e-05
5.43976e-05
3.36705e-05
1.1083e-05
2.90092e-05
5.29665e-05
3.40068e-05
4.27805e-05
3.26136e-05
0.000155597
8.69981e-05
2.95959e-06
4.35629e-06
2.78848e-06
1.17071e-06
4.71239e-06
1.65332e-05
5.74372e-06
4.26566e-06
2.00612e-05
6.81848e-05
9.47917e-05
2.17966e-05
2.57811e-06
4.998e-07
8.31976e-07
5.41996e-06
4.35431e-05
0.000114908
5.22437e-05
9.48756e-06
4.77838e-06
7.35053e-06
1.81961e-05
5.0531e-06
1.62292e-06
2.64169e-06
3.34087e-06
2.54547e-06
8.51137e-05
6.6951e-05
1.88418e-06
2.26744e-06
1.47959e-06
5.42065e-07
1.71964e-06
5.27284e-06
3.0766e-06
3.22968e-06
5.0922e-05
0.000108266
3.08169e-05
2.25136e-06
5.35643e-07
2.42531e-07
3.0953e-07
7.82298e-07
6.37129e-06
6.87263e-05
9.65161e-05
2.95379e-05
1.44583e-06
3.94068e-06
5.42058e-06
1.57208e-06
6.63598e-07
1.25961e-06
1.97034e-06
1.84374e-06
6.46744e-05
5.08892e-05
2.21034e-06
1.95265e-06
1.12501e-06
4.24361e-07
1.70188e-06
4.29702e-06
2.30169e-06
5.97963e-06
7.8235e-05
0.00010326
1.10376e-05
1.02568e-06
4.26629e-07
2.44958e-07
2.67029e-07
5.71574e-07
1.59969e-06
2.54358e-05
0.000130305
5.50538e-05
1.59213e-06
3.50952e-06
4.8874e-06
1.58379e-06
6.75235e-07
1.16079e-06
1.56809e-06
2.15101e-06
5.63816e-05
4.47063e-05
3.69521e-06
1.68099e-06
9.97293e-07
8.27934e-07
2.15108e-06
5.44287e-06
2.66253e-06
3.71525e-05
0.000127451
4.89746e-05
3.69368e-06
9.39748e-07
4.29339e-07
2.76144e-07
3.00602e-07
5.39362e-07
1.20815e-06
8.63723e-06
0.000103449
0.000120675
1.42373e-05
3.65631e-06
5.54038e-06
2.06509e-06
1.08558e-06
1.29754e-06
1.53509e-06
3.50889e-06
5.4817e-05
2.91702e-05
4.38452e-06
1.75938e-06
1.51215e-06
1.79147e-06
3.96262e-06
9.11174e-06
6.28912e-06
0.000117499
0.000136126
1.31275e-05
1.82478e-06
9.10626e-07
6.0959e-07
4.73734e-07
4.98974e-07
6.65291e-07
1.06112e-06
2.30264e-06
3.5491e-05
0.000171007
8.33013e-05
4.97791e-06
8.43233e-06
2.95784e-06
1.32661e-06
1.53823e-06
1.80057e-06
4.7833e-06
3.74711e-05
1.72325e-05
4.54332e-06
1.96024e-06
1.69466e-06
1.83566e-06
1.87323e-05
1.43876e-05
2.68243e-05
0.000113455
6.18721e-05
2.49651e-06
1.5006e-06
9.8762e-07
8.90378e-07
8.33461e-07
8.27747e-07
9.1055e-07
1.04429e-06
1.51363e-06
5.25882e-06
0.000111947
0.000135727
1.79791e-05
1.78784e-05
1.3394e-05
1.88506e-06
1.96208e-06
1.80878e-06
6.1774e-06
2.10116e-05
8.03514e-06
4.10928e-06
2.88497e-06
1.52235e-06
6.31515e-06
2.55343e-05
4.92184e-05
5.42066e-05
0.000119167
1.52576e-05
1.40745e-06
1.46228e-06
1.34734e-06
1.31277e-06
1.29612e-06
1.3026e-06
1.30141e-06
1.33475e-06
1.52274e-06
1.56622e-06
2.72737e-05
0.00015838
7.54417e-05
3.75888e-05
2.22946e-05
6.77515e-06
1.8102e-06
3.00927e-06
6.48839e-06
7.5375e-06
3.56846e-06
4.04953e-06
3.67479e-06
3.2478e-06
1.5742e-05
1.88296e-05
1.66486e-05
1.39151e-05
0.000230325
7.80988e-05
2.36258e-06
1.91571e-06
1.91812e-06
1.91568e-06
1.95061e-06
1.9394e-06
1.91927e-06
1.90491e-06
1.959e-06
2.27859e-06
0.000175764
0.000270267
2.44096e-06
2.05343e-05
2.2213e-05
1.57949e-05
3.83989e-06
4.37142e-06
6.66735e-06
2.61536e-06
1.84601e-06
2.91725e-06
3.6599e-06
4.74353e-06
1.63748e-05
3.51701e-05
8.83825e-06
1.27683e-05
0.000320587
0.000123314
3.32396e-06
2.43687e-06
2.37289e-06
2.44061e-06
2.48444e-06
2.49372e-06
2.44388e-06
2.42864e-06
2.52244e-06
3.4718e-06
0.000286
0.000354557
2.91016e-06
1.29722e-05
4.25581e-05
2.04597e-05
5.92372e-06
5.34639e-06
5.5122e-06
1.76105e-06
1.81891e-06
1.96501e-06
3.02043e-06
5.95148e-06
1.49824e-05
1.76439e-05
2.68614e-05
5.28608e-05
0.000322518
2.0967e-05
3.62191e-06
2.48887e-06
2.30868e-06
2.21981e-06
2.15202e-06
2.16547e-06
2.26357e-06
2.37693e-06
2.68467e-06
4.15489e-06
0.000110497
0.000383549
1.41016e-05
2.83685e-05
1.88591e-05
1.65277e-05
9.36582e-06
5.98943e-06
4.44107e-06
2.5577e-06
4.3525e-06
1.73421e-06
5.12957e-06
8.13806e-06
1.10943e-05
1.15474e-05
1.90454e-05
0.000266432
0.000122397
6.21032e-06
3.01931e-06
1.79454e-06
1.1978e-06
8.84549e-07
7.38449e-07
7.44679e-07
9.20782e-07
1.29567e-06
1.97918e-06
3.57015e-06
5.85098e-06
0.000190758
0.000246925
8.86734e-06
8.29538e-06
7.77702e-06
8.53926e-06
7.8545e-06
5.10144e-06
5.03066e-06
5.88682e-06
2.6741e-06
4.92075e-06
5.10585e-06
4.1374e-06
8.85067e-06
0.000223542
0.000115136
3.05388e-06
5.39324e-06
1.71527e-06
4.30394e-07
6.3077e-08
3.26854e-08
1.36139e-07
9.78014e-08
1.67104e-08
9.77752e-08
5.8856e-07
2.25965e-06
5.98235e-06
6.59158e-06
0.000123545
0.000140526
4.01164e-06
3.14067e-06
4.20699e-06
5.80977e-06
6.70481e-06
6.88523e-06
8.08493e-06
3.87355e-06
1.99547e-06
1.61838e-06
7.68299e-06
5.39888e-05
0.000130825
3.75422e-05
1.28408e-05
1.02344e-05
3.82579e-06
5.91825e-06
1.70755e-05
2.02137e-05
2.22944e-05
2.07483e-05
2.03212e-05
1.31344e-05
5.10378e-06
4.86617e-06
1.48835e-05
9.62284e-06
4.51131e-05
0.000119492
5.21398e-05
1.34906e-05
1.22368e-06
2.47814e-06
7.39979e-06
9.26271e-06
1.01436e-05
4.4661e-06
3.49468e-06
8.48603e-06
1.3787e-05
0.000510891
0.000113874
5.34585e-05
0.000563274
0.000728536
0.000288471
0.000248105
0.00018914
0.000183609
0.000164343
0.000178379
0.00017453
0.000216973
0.0002403
0.000334306
0.000824415
0.000473713
2.32751e-05
0.000129192
0.000562157
1.45223e-05
7.48178e-06
4.14176e-06
1.0765e-05
1.15133e-05
3.40453e-05
2.56052e-05
2.88824e-05
4.81891e-05
0.000350313
0.00121907
0.000945969
0.00131597
0.00186622
0.00217952
0.00178038
0.00123586
0.000932885
0.000803027
0.000784225
0.000776666
0.000859366
0.00100773
0.00134965
0.00191287
0.00210086
0.00181049
0.00106566
0.00103504
0.00106491
0.000408253
3.17637e-05
2.73012e-05
2.8489e-05
2.77488e-05
0.000476428
0.000763163
5.85554e-05
0.000103651
0.00100837
0.000907131
0.00272408
0.00285533
0.00124037
0.000717488
0.00108135
0.00113998
0.00116161
0.00107946
0.00105204
0.00104498
0.00110257
0.00114483
0.00117802
0.00100768
0.000710812
0.00143587
0.0030561
0.00264134
0.00075606
0.000981654
2.73506e-05
9.04831e-05
5.77621e-05
0.000516686
0.000815857
0.000295557
0.000469934
0.00107945
0.000172783
1.54353e-05
0.00137205
0.000727628
9.90454e-05
1.27512e-05
1.01856e-05
1.96938e-05
3.42367e-05
4.57213e-05
4.38563e-05
4.43054e-05
3.74109e-05
2.51452e-05
1.53719e-05
9.32498e-06
1.83793e-05
0.000157672
0.000993743
0.00116802
1.79825e-05
0.000207057
0.00119465
8.08855e-05
0.00053133
0.000623166
0.000364172
1.07236e-05
0.000329825
0.000174451
6.58139e-06
2.43839e-06
1.47418e-05
9.81318e-06
8.73709e-07
6.89029e-07
1.51668e-06
2.21514e-06
2.03117e-06
1.77637e-06
1.60592e-06
1.6401e-06
1.83969e-06
2.02811e-06
1.88974e-06
1.1348e-06
6.18741e-07
2.58007e-06
2.25817e-05
1.7533e-05
2.97427e-06
7.02055e-06
0.000384535
0.000479922
0.000139576
0.000405022
0.000353616
1.2204e-05
8.44284e-06
6.8976e-06
9.8402e-06
2.15312e-06
6.85894e-07
2.88119e-07
1.97333e-07
4.5248e-07
9.60093e-07
1.1649e-06
1.21824e-06
1.15493e-06
1.0913e-06
1.13009e-06
1.22029e-06
1.25835e-06
1.10927e-06
7.13594e-07
2.75394e-07
1.38211e-07
3.58496e-07
4.73493e-07
2.25755e-06
7.90787e-06
5.71548e-06
9.04192e-05
1.49834e-05
0.000372713
0.000344783
8.64568e-06
5.60079e-06
8.53869e-06
1.31667e-05
1.81906e-06
1.23949e-06
4.8062e-07
2.51368e-07
4.41769e-07
6.15112e-07
6.92052e-07
7.14122e-07
6.88896e-07
6.93449e-07
7.09157e-07
7.75856e-07
7.88775e-07
7.25894e-07
5.64428e-07
3.3801e-07
2.01909e-07
3.98245e-07
1.28684e-06
2.19005e-06
1.02746e-05
5.47753e-06
8.00278e-06
1.85512e-05
0.000374582
0.000324063
7.07345e-06
6.68917e-06
7.44413e-06
1.86761e-05
1.47541e-06
1.4439e-06
3.75251e-07
2.77092e-07
3.97918e-07
4.12778e-07
4.52709e-07
4.65296e-07
4.74411e-07
4.67601e-07
4.97366e-07
5.32117e-07
5.53374e-07
5.33632e-07
4.73668e-07
3.85571e-07
2.62365e-07
5.72282e-07
1.8446e-06
1.44254e-06
1.41966e-05
4.68834e-06
7.68734e-06
1.57136e-05
0.000362666
0.000298452
6.66628e-06
6.55314e-06
5.96316e-06
2.11493e-05
1.61352e-06
1.45704e-06
2.75324e-07
2.69054e-07
2.90453e-07
3.09569e-07
3.27739e-07
3.58186e-07
3.71125e-07
3.65597e-07
3.86103e-07
4.12342e-07
4.30876e-07
4.32041e-07
3.99261e-07
3.60119e-07
2.91624e-07
4.21354e-07
1.8905e-06
1.46341e-06
1.69057e-05
4.08224e-06
7.31753e-06
1.36308e-05
0.000345221
0.000268797
5.15486e-06
5.49088e-06
5.47287e-06
2.38583e-05
1.67194e-06
1.30504e-06
2.28697e-07
2.23603e-07
2.22809e-07
2.44376e-07
2.72433e-07
2.96301e-07
3.17151e-07
3.23983e-07
3.27647e-07
3.3637e-07
3.69018e-07
3.53098e-07
3.53821e-07
3.18468e-07
2.96299e-07
3.29419e-07
1.73527e-06
2.25379e-06
1.76701e-05
2.36459e-06
7.40063e-06
1.2023e-05
0.000326738
0.000231139
4.67483e-06
6.04054e-06
3.96184e-06
2.44291e-05
2.14614e-06
1.11049e-06
1.98252e-07
1.82102e-07
2.03585e-07
2.24543e-07
2.46627e-07
2.82684e-07
2.85577e-07
2.95569e-07
2.8604e-07
3.09378e-07
3.12454e-07
3.18001e-07
3.04551e-07
2.93106e-07
2.79847e-07
2.93374e-07
1.57405e-06
3.18362e-06
1.5431e-05
1.23685e-06
7.16576e-06
1.00829e-05
0.000304031
0.000200124
4.60483e-06
5.8404e-06
3.06216e-06
2.06203e-05
3.27466e-06
9.38697e-07
1.7629e-07
1.75924e-07
2.22336e-07
2.30647e-07
2.74802e-07
2.83244e-07
2.95392e-07
2.73444e-07
2.82594e-07
2.98981e-07
3.04388e-07
3.04271e-07
3.00149e-07
2.84113e-07
2.84369e-07
3.02578e-07
1.4131e-06
4.75632e-06
1.15208e-05
8.58007e-07
6.45165e-06
7.85041e-06
0.00026999
0.000164357
4.95756e-06
5.77956e-06
3.04609e-06
1.77478e-05
5.17611e-06
8.9619e-07
1.99469e-07
2.15113e-07
2.49312e-07
2.8476e-07
3.00601e-07
3.24557e-07
2.98858e-07
2.94075e-07
2.99737e-07
3.04061e-07
3.119e-07
3.24975e-07
3.11554e-07
3.09858e-07
3.13941e-07
3.74861e-07
1.34378e-06
6.17714e-06
9.28542e-06
1.07644e-06
5.71615e-06
6.28799e-06
0.000234164
0.00012467
6.43965e-06
5.787e-06
2.82419e-06
1.51573e-05
9.10185e-06
9.93527e-07
2.81249e-07
2.71713e-07
3.28506e-07
3.33287e-07
3.5344e-07
3.47106e-07
3.29655e-07
3.20696e-07
3.17075e-07
3.07904e-07
3.31997e-07
3.30207e-07
3.40751e-07
3.38137e-07
3.77889e-07
5.15253e-07
1.1771e-06
8.44885e-06
7.88585e-06
1.21944e-06
5.40631e-06
5.30496e-06
0.00019337
7.51657e-05
1.04035e-05
6.60795e-06
3.06652e-06
1.0369e-05
1.3747e-05
1.30256e-06
4.34677e-07
3.72587e-07
4.13778e-07
4.12891e-07
4.08738e-07
3.84787e-07
3.77681e-07
3.4859e-07
3.26043e-07
3.29914e-07
3.39658e-07
3.52979e-07
3.57062e-07
3.64659e-07
4.0853e-07
6.72739e-07
1.01422e-06
1.16738e-05
7.0288e-06
1.49398e-06
4.96424e-06
4.69163e-06
0.000153469
2.85333e-05
1.47206e-05
9.1509e-06
2.68583e-06
7.09061e-06
1.85029e-05
1.40793e-06
6.00631e-07
4.43355e-07
5.33e-07
5.16233e-07
4.72028e-07
4.57966e-07
4.1089e-07
3.8508e-07
3.5912e-07
3.55935e-07
3.62344e-07
3.69599e-07
3.83832e-07
3.64561e-07
4.00557e-07
8.4235e-07
9.28979e-07
1.47612e-05
5.4275e-06
1.89702e-06
5.18214e-06
4.71903e-06
0.000116287
8.90876e-06
1.16264e-05
1.09215e-05
3.26634e-06
2.92615e-06
2.17357e-05
2.13334e-06
7.98884e-07
5.29906e-07
6.54285e-07
6.0494e-07
5.52056e-07
5.00863e-07
4.58886e-07
4.2002e-07
4.06425e-07
3.84112e-07
3.87879e-07
3.96575e-07
4.02003e-07
3.85793e-07
3.65506e-07
9.72985e-07
1.06299e-06
1.72719e-05
4.73441e-06
2.22711e-06
5.48636e-06
5.22803e-06
8.05299e-05
1.52904e-05
5.86611e-06
7.4803e-06
4.28672e-06
1.1929e-06
1.72984e-05
6.94087e-06
1.18314e-06
6.75893e-07
7.98198e-07
7.172e-07
6.12102e-07
5.54902e-07
4.93989e-07
4.64384e-07
4.36249e-07
4.16675e-07
4.13329e-07
4.24849e-07
4.4058e-07
4.07434e-07
3.94915e-07
1.08795e-06
1.42978e-06
1.95904e-05
3.92786e-06
2.60255e-06
6.23024e-06
6.22566e-06
4.79108e-05
1.46309e-05
7.06241e-06
3.68295e-06
2.83347e-06
1.15432e-06
1.20987e-05
6.90273e-06
1.54202e-06
8.59392e-07
9.30548e-07
8.05272e-07
6.71506e-07
5.91387e-07
5.30912e-07
4.96321e-07
4.59528e-07
4.4535e-07
4.47125e-07
4.54708e-07
4.81158e-07
4.57953e-07
4.94757e-07
1.24071e-06
2.09079e-06
2.06888e-05
3.70333e-06
3.35825e-06
7.41312e-06
7.58623e-06
2.1714e-05
1.21088e-05
8.8085e-06
2.75782e-06
1.21102e-06
9.33525e-07
1.14473e-05
7.72097e-06
1.37593e-06
1.02741e-06
9.83664e-07
8.41188e-07
7.11929e-07
6.1124e-07
5.5996e-07
5.07429e-07
4.88637e-07
4.79471e-07
4.79286e-07
5.01631e-07
5.25929e-07
5.2632e-07
6.40914e-07
1.43315e-06
2.89754e-06
2.21305e-05
3.95187e-06
4.40442e-06
8.48313e-06
7.07858e-06
7.35131e-06
1.5172e-05
1.62458e-05
3.8082e-06
6.08506e-07
1.08473e-06
1.78548e-05
7.12781e-06
1.30143e-06
1.23e-06
1.03915e-06
8.58997e-07
7.16337e-07
6.367e-07
5.73021e-07
5.4036e-07
5.16445e-07
5.15344e-07
5.27939e-07
5.48203e-07
5.85253e-07
6.18127e-07
7.85124e-07
1.55869e-06
3.65468e-06
2.44824e-05
4.49105e-06
5.45571e-06
7.58736e-06
4.23036e-06
3.93495e-06
0.000207656
3.27039e-05
1.15014e-05
5.70049e-07
1.3388e-05
2.75087e-05
6.086e-06
1.4143e-06
1.6023e-06
9.9924e-07
8.19723e-07
7.14718e-07
6.51782e-07
6.032e-07
5.78329e-07
5.5937e-07
5.5288e-07
5.73852e-07
6.06026e-07
6.35834e-07
7.43388e-07
9.17858e-07
1.6226e-06
4.51868e-06
2.95636e-05
5.14605e-06
5.07414e-06
4.94354e-06
2.68417e-06
3.65108e-06
0.000248185
5.78682e-05
5.07896e-06
1.76992e-05
3.19077e-05
1.44037e-05
6.6846e-06
1.43791e-06
1.9731e-06
9.14284e-07
7.70552e-07
7.20996e-07
6.67335e-07
6.38736e-07
6.18016e-07
6.16201e-07
6.1837e-07
6.31814e-07
6.7965e-07
7.02188e-07
9.00435e-07
1.08374e-06
1.56377e-06
6.03114e-06
3.82188e-05
5.069e-06
3.55495e-06
2.85844e-06
2.48125e-06
3.90675e-06
0.000117616
7.79123e-06
1.13833e-05
2.46874e-05
6.31984e-06
1.00823e-05
5.9924e-06
1.48236e-06
2.16685e-06
8.79274e-07
7.78179e-07
7.43308e-07
7.05666e-07
6.84983e-07
6.8144e-07
6.81571e-07
7.02306e-07
7.22969e-07
7.73044e-07
8.11985e-07
1.09317e-06
1.28261e-06
1.5115e-06
9.32691e-06
5.06421e-05
4.06843e-06
1.84876e-06
1.72861e-06
2.51198e-06
4.22623e-06
0.000103683
2.95174e-06
4.19842e-06
2.53077e-06
6.46308e-06
1.16436e-05
3.71208e-06
1.69375e-06
2.08142e-06
9.99146e-07
8.42248e-07
8.11866e-07
7.8977e-07
7.67659e-07
7.7016e-07
7.77771e-07
7.98877e-07
8.45461e-07
8.8678e-07
9.6876e-07
1.2847e-06
1.56211e-06
1.38721e-06
1.56701e-05
6.06415e-05
2.51545e-06
7.67288e-07
1.20792e-06
2.74248e-06
4.41723e-06
9.6045e-05
3.87388e-06
5.63207e-06
8.08223e-06
1.30372e-05
1.1729e-05
1.91027e-06
2.06797e-06
1.88297e-06
1.17066e-06
9.5648e-07
9.15656e-07
9.07086e-07
8.80082e-07
8.82343e-07
8.87219e-07
9.16521e-07
9.67349e-07
1.01732e-06
1.14155e-06
1.47618e-06
1.79432e-06
1.21754e-06
1.85516e-05
5.48023e-05
1.70192e-06
3.55921e-07
1.58608e-06
4.737e-06
4.14143e-06
8.2882e-05
2.32336e-06
1.04578e-05
1.82565e-05
1.72673e-05
1.68056e-05
2.71711e-06
2.23618e-06
1.61153e-06
1.39092e-06
1.08278e-06
1.04034e-06
1.01098e-06
9.87846e-07
9.82101e-07
1.00007e-06
1.02877e-06
1.09501e-06
1.13933e-06
1.33304e-06
1.62655e-06
1.82405e-06
1.24882e-06
3.62925e-06
4.20373e-05
1.36761e-05
5.38531e-07
1.10787e-05
1.71616e-05
2.61589e-06
6.94276e-05
2.64113e-06
8.3117e-06
1.5446e-05
1.06121e-05
1.36294e-05
2.44818e-05
1.95287e-06
1.77421e-06
1.50173e-06
1.2214e-06
1.15335e-06
1.10554e-06
1.0739e-06
1.06658e-06
1.09118e-06
1.12186e-06
1.1823e-06
1.23765e-06
1.47225e-06
1.73994e-06
1.75574e-06
1.37719e-06
2.19703e-06
1.97826e-05
4.22956e-05
4.77245e-06
5.27345e-06
0.000436445
0.000160193
5.3034e-05
2.47931e-06
8.47363e-06
1.05627e-05
7.75189e-06
3.94483e-06
3.07522e-05
9.86682e-06
1.30672e-06
1.6849e-06
1.30663e-06
1.22165e-06
1.16616e-06
1.14157e-06
1.13069e-06
1.15117e-06
1.18813e-06
1.23914e-06
1.32488e-06
1.5884e-06
1.84916e-06
1.56407e-06
1.26829e-06
5.79996e-06
1.66747e-05
8.5873e-06
2.85875e-05
0.00014846
5.30027e-05
0.000334046
3.69082e-05
2.24685e-06
7.90793e-06
8.46723e-06
2.68077e-06
3.02193e-06
1.6855e-05
1.83682e-05
1.04511e-06
1.64539e-06
1.33803e-06
1.19284e-06
1.12211e-06
1.09113e-06
1.07058e-06
1.07937e-06
1.12484e-06
1.19441e-06
1.32505e-06
1.59532e-06
1.62399e-06
9.38455e-07
2.10812e-06
1.67985e-05
1.51647e-05
1.40226e-05
3.22606e-05
2.22124e-05
7.93899e-07
9.18552e-05
2.3057e-05
2.45514e-06
5.42082e-06
4.46064e-06
2.23093e-06
4.87676e-06
2.15171e-05
1.88501e-05
8.77681e-07
1.16971e-06
1.16865e-06
9.89329e-07
9.14305e-07
8.71161e-07
8.40313e-07
8.32958e-07
8.72418e-07
9.47589e-07
1.07382e-06
1.22396e-06
9.19394e-07
7.6565e-07
9.58191e-06
2.0976e-05
1.59664e-05
1.43102e-05
2.26819e-05
1.06596e-05
9.52941e-07
5.93779e-05
1.29511e-05
1.79917e-06
2.64286e-06
2.44434e-06
3.00476e-06
7.51129e-06
3.61935e-05
2.15899e-05
7.67694e-07
5.47617e-07
8.24944e-07
7.19394e-07
6.65941e-07
6.22561e-07
5.82722e-07
5.71101e-07
6.00193e-07
6.45955e-07
7.18856e-07
7.65538e-07
6.91688e-07
5.58469e-06
1.48e-05
1.65219e-05
2.90618e-05
7.85274e-06
1.32197e-05
8.07918e-06
1.13244e-06
4.08569e-05
6.10367e-06
9.35293e-07
1.14089e-06
1.53254e-06
2.60417e-06
1.08993e-05
4.18374e-05
2.63025e-05
1.87171e-06
5.01351e-07
6.63791e-07
6.30354e-07
5.80454e-07
5.31179e-07
4.92302e-07
4.94097e-07
5.26432e-07
5.43917e-07
6.07858e-07
7.60783e-07
3.39102e-06
9.17675e-06
5.37477e-06
1.67212e-05
2.69346e-05
2.15359e-06
4.26426e-06
6.20662e-06
2.04936e-06
2.63447e-05
2.28692e-06
4.96194e-07
8.4886e-07
1.35408e-06
2.06649e-06
9.76597e-06
4.4883e-05
1.7991e-05
1.97585e-06
1.12484e-06
7.48026e-07
7.01366e-07
6.19309e-07
5.69172e-07
5.47791e-07
5.62808e-07
5.95212e-07
6.21179e-07
7.49936e-07
1.53786e-06
4.45653e-06
2.3651e-06
9.10483e-07
1.26056e-05
2.05988e-05
1.88464e-06
1.31567e-06
3.97793e-06
2.47454e-06
1.48557e-05
7.70546e-07
3.50336e-07
8.1582e-07
1.52346e-06
2.20724e-06
8.33236e-06
4.15894e-05
8.02866e-06
5.57116e-07
6.23141e-07
5.92115e-07
5.95471e-07
5.59732e-07
5.38155e-07
5.44828e-07
5.65e-07
5.63543e-07
5.67518e-07
6.49549e-07
9.0887e-07
1.05333e-06
3.1403e-07
5.27157e-07
7.80398e-06
2.03247e-05
2.07408e-06
7.75958e-07
8.88878e-07
1.81121e-06
6.3282e-06
2.46702e-07
2.92398e-07
7.66375e-07
1.46325e-06
2.14416e-06
7.93941e-06
3.86031e-05
3.92825e-06
4.55819e-07
3.65811e-07
3.70895e-07
4.07139e-07
4.3074e-07
4.49937e-07
4.74624e-07
4.72492e-07
4.39685e-07
4.36673e-07
4.13173e-07
4.00357e-07
3.67263e-07
4.07918e-07
6.55358e-07
2.94911e-06
1.53376e-05
4.86135e-06
9.2353e-07
4.29322e-07
5.68134e-07
1.71209e-06
8.95713e-08
2.52149e-07
6.48349e-07
1.19134e-06
1.7848e-06
7.56797e-06
3.61345e-05
3.06344e-06
7.60652e-07
5.93115e-07
5.23539e-07
5.18215e-07
5.33404e-07
5.44789e-07
5.585e-07
5.37458e-07
5.17984e-07
5.33451e-07
5.29004e-07
5.38252e-07
5.26309e-07
7.45987e-07
8.53941e-07
7.42289e-07
1.26326e-05
2.91992e-05
1.76432e-06
3.76421e-07
2.51632e-07
9.77773e-07
4.78373e-08
2.51094e-07
5.58577e-07
9.24909e-07
1.37142e-06
6.6018e-06
3.10938e-05
2.63883e-06
9.8204e-07
8.06207e-07
7.31373e-07
7.03292e-07
6.94131e-07
6.8589e-07
6.74154e-07
6.52864e-07
6.59757e-07
6.97673e-07
7.21397e-07
7.60946e-07
7.83997e-07
1.08864e-06
9.84118e-07
8.12006e-07
1.82479e-05
2.73813e-05
2.48994e-06
4.25635e-07
6.63084e-07
1.85233e-06
3.65627e-07
4.25592e-07
6.12133e-07
8.26099e-07
1.14554e-06
5.94183e-06
2.20608e-05
1.77058e-06
7.81514e-07
6.35475e-07
5.78397e-07
5.25416e-07
5.1278e-07
5.01559e-07
4.90945e-07
4.91005e-07
5.21002e-07
5.8167e-07
6.4647e-07
7.39519e-07
8.60489e-07
1.13756e-06
8.94095e-07
9.1332e-07
1.34509e-05
1.96634e-05
1.61041e-05
2.6789e-06
1.8762e-06
3.68272e-06
3.97204e-06
1.77683e-06
9.47414e-07
9.60215e-07
1.28485e-06
6.75164e-06
1.27796e-05
1.15132e-06
4.55244e-07
3.09427e-07
2.66782e-07
2.32899e-07
2.39261e-07
2.39774e-07
2.37503e-07
2.45941e-07
2.64282e-07
2.76778e-07
3.10437e-07
4.28112e-07
6.23242e-07
8.2753e-07
6.6186e-07
1.52661e-06
9.36897e-06
2.70831e-05
4.12935e-05
6.81891e-07
1.60582e-06
6.37668e-05
1.56958e-05
4.19113e-06
1.59936e-06
1.278e-06
1.82432e-06
7.64492e-06
7.31788e-06
1.29265e-06
4.45585e-07
2.98192e-07
2.32139e-07
1.94821e-07
2.12421e-07
2.18223e-07
2.08228e-07
2.01475e-07
1.96419e-07
1.59686e-07
1.48081e-07
2.37429e-07
4.26496e-07
6.17659e-07
5.71411e-07
2.77385e-06
1.098e-05
4.37029e-05
2.14677e-05
4.39733e-06
8.39316e-05
7.13169e-05
7.18963e-05
6.41911e-06
2.08358e-06
1.20098e-06
2.47081e-06
5.32358e-06
6.35059e-06
1.83615e-06
5.49292e-07
3.96934e-07
4.02017e-07
3.59005e-07
3.96522e-07
3.95807e-07
3.67645e-07
3.42876e-07
3.27e-07
2.79155e-07
2.62366e-07
3.52613e-07
5.38496e-07
7.82155e-07
6.34392e-07
4.44016e-06
1.44655e-05
3.17718e-05
2.08889e-05
6.19468e-05
3.71005e-05
1.67967e-05
0.000275147
6.54918e-05
4.84383e-07
1.02327e-06
2.66483e-06
3.94598e-06
6.29482e-06
3.1902e-06
5.10307e-07
3.06152e-07
2.59753e-07
2.23259e-07
2.44826e-07
2.59053e-07
2.51187e-07
2.45139e-07
2.45727e-07
2.3395e-07
2.46761e-07
3.24056e-07
4.47995e-07
4.83766e-07
1.00595e-06
6.47589e-06
9.45272e-06
1.84103e-05
2.90233e-05
2.47857e-05
6.82795e-07
1.32364e-05
1.6964e-05
0.000265251
3.68814e-05
4.59452e-06
5.2436e-06
4.1049e-06
5.17585e-06
4.8151e-06
6.80682e-07
2.8141e-07
2.24822e-07
1.76032e-07
1.74581e-07
1.8072e-07
1.73137e-07
1.66353e-07
1.588e-07
1.53304e-07
1.62145e-07
1.81063e-07
2.12385e-07
2.00679e-07
2.20515e-06
5.09028e-06
4.33604e-06
8.20836e-06
1.71845e-05
1.33257e-05
7.47853e-07
9.65078e-06
2.70458e-06
4.92739e-05
0.000262434
4.76895e-05
7.49469e-06
4.3589e-06
5.67759e-06
5.25584e-06
1.9153e-06
2.38997e-07
2.2926e-07
2.21036e-07
2.05674e-07
2.01209e-07
1.89786e-07
1.77233e-07
1.66924e-07
1.70005e-07
1.84178e-07
1.83253e-07
1.72802e-07
3.26335e-07
3.51977e-06
2.6636e-06
2.4491e-06
3.25772e-06
8.19577e-06
1.27352e-05
1.28917e-06
6.37247e-06
1.69662e-06
9.59855e-07
3.70752e-05
0.00019672
3.6016e-05
4.18933e-06
8.76129e-06
8.74707e-06
4.77326e-06
1.01593e-06
2.48751e-07
2.44841e-07
2.05274e-07
1.72055e-07
1.50636e-07
1.29945e-07
1.20522e-07
1.32166e-07
1.60511e-07
1.82961e-07
2.04191e-07
8.76163e-07
4.07777e-06
1.49659e-06
1.52112e-06
1.63225e-06
5.38821e-06
1.25279e-05
2.59431e-06
5.91869e-06
5.36969e-07
4.45639e-07
2.02229e-07
3.60665e-05
7.15844e-05
7.76344e-06
6.00129e-06
1.66198e-05
1.13643e-05
7.04601e-06
2.04261e-06
7.0962e-07
3.85445e-07
2.41639e-07
1.67408e-07
1.17679e-07
9.16286e-08
9.81242e-08
1.46455e-07
2.26068e-07
3.89487e-07
2.09616e-06
3.21201e-06
9.20384e-07
9.30642e-07
1.27711e-06
5.05613e-06
1.17879e-05
6.45317e-06
1.24288e-05
2.43299e-07
3.61314e-07
7.63115e-08
4.26709e-06
3.35706e-05
1.69696e-05
9.65332e-07
9.45508e-06
1.30274e-05
1.09146e-05
7.52663e-06
3.4955e-06
1.94787e-06
1.28446e-06
9.46405e-07
7.71398e-07
6.39991e-07
5.90498e-07
6.37736e-07
7.33474e-07
1.4254e-06
3.749e-06
1.07696e-06
6.87812e-07
7.12775e-07
1.81579e-06
6.41488e-06
1.43533e-05
1.41243e-05
1.84134e-05
4.67985e-06
3.90131e-06
9.10847e-08
5.1831e-06
1.18466e-05
1.93888e-05
1.38186e-06
9.30413e-07
5.56789e-06
4.7866e-06
7.83915e-06
6.21674e-06
4.22682e-06
3.1879e-06
2.77233e-06
2.66751e-06
2.55927e-06
2.33906e-06
2.05984e-06
2.07941e-06
3.37674e-06
3.78773e-06
2.75956e-07
7.40458e-07
6.76461e-07
3.46731e-06
1.13898e-05
2.56369e-05
2.05092e-05
2.01048e-05
1.17729e-05
8.93052e-06
1.272e-06
7.78579e-06
9.53989e-06
1.11937e-05
3.22058e-06
1.18077e-07
1.61572e-06
1.34635e-06
2.40422e-06
4.91943e-06
5.19421e-06
4.58973e-06
4.17499e-06
4.0297e-06
4.12995e-06
4.15406e-06
4.13884e-06
4.32518e-06
4.39494e-06
1.22104e-06
6.32787e-07
6.79493e-07
1.04857e-06
7.7535e-06
2.02018e-05
3.25373e-05
1.53467e-05
1.02732e-05
8.54164e-06
8.79005e-06
3.85835e-06
1.02506e-05
1.73462e-05
6.95048e-06
4.93096e-06
1.49774e-07
4.64481e-07
6.22808e-07
4.24309e-07
1.04932e-06
2.27099e-06
3.02414e-06
3.15852e-06
2.99554e-06
2.95556e-06
3.40038e-06
3.90425e-06
3.70741e-06
1.78824e-06
4.03865e-07
7.07799e-07
3.92509e-07
2.29443e-06
1.18095e-05
2.29828e-05
2.53376e-05
7.34204e-06
2.57435e-06
3.0193e-06
4.56975e-06
3.54721e-06
1.0198e-05
2.23945e-05
1.04156e-05
6.61252e-06
4.14592e-07
1.53324e-07
4.0435e-07
1.61587e-07
1.20177e-07
2.77748e-07
5.60549e-07
7.21603e-07
7.48938e-07
6.59189e-07
7.05439e-07
8.2597e-07
6.94546e-07
3.55862e-07
2.3285e-07
3.51659e-07
5.25386e-07
4.04906e-06
1.19993e-05
1.99839e-05
1.70887e-05
2.18979e-06
1.30234e-06
2.74803e-06
2.5697e-06
2.14764e-06
7.34026e-06
1.91995e-05
1.71388e-05
9.72611e-06
1.43506e-06
5.83394e-08
3.04664e-07
1.19976e-07
5.06537e-08
3.19124e-08
4.49856e-08
6.41721e-08
8.64309e-08
6.43806e-08
2.88668e-08
2.30084e-08
6.27479e-08
1.23797e-07
1.60737e-07
1.73421e-07
1.27415e-06
4.91015e-06
8.75228e-06
1.68955e-05
1.06204e-05
1.0304e-06
1.11067e-06
4.24273e-06
1.51108e-06
1.47693e-06
3.26544e-06
1.49034e-05
1.82856e-05
1.58785e-05
4.80168e-06
5.46091e-08
1.85371e-07
1.05273e-07
4.47681e-08
2.22728e-08
1.43448e-08
1.31964e-08
1.55354e-08
2.06539e-08
8.72407e-09
1.167e-08
2.43841e-08
5.41769e-08
1.54413e-07
1.36358e-07
2.5077e-06
3.59009e-06
6.57373e-06
1.24041e-05
7.61128e-06
1.28246e-06
1.5653e-06
8.48008e-06
1.12331e-06
1.1823e-06
1.77878e-06
1.00248e-05
1.80865e-05
1.31317e-05
1.32164e-05
1.12313e-06
8.00522e-08
8.74725e-08
3.48603e-08
1.99938e-08
1.10618e-08
9.30803e-09
1.00364e-08
1.53056e-08
1.28916e-08
1.10909e-08
1.19698e-08
3.35599e-08
1.21936e-07
1.22516e-07
2.76893e-06
2.31777e-06
5.3725e-06
1.14681e-05
1.23432e-05
4.91242e-06
2.08486e-06
1.77248e-05
2.16168e-06
1.80985e-06
2.11719e-06
5.91765e-06
1.59089e-05
7.92302e-06
2.3867e-05
4.89402e-06
3.92954e-08
6.43019e-08
2.08525e-08
1.33271e-08
7.96021e-09
7.23176e-09
8.42979e-09
1.20666e-08
1.26488e-08
1.05298e-08
6.08808e-09
2.53244e-08
4.81463e-08
4.69863e-08
9.71622e-07
2.54354e-06
1.16914e-05
1.986e-05
1.49649e-05
3.37034e-06
2.09171e-06
1.13469e-05
4.48451e-06
2.76351e-06
2.70253e-06
4.22708e-06
1.19269e-05
5.90692e-06
1.21172e-05
7.34486e-06
1.0249e-06
2.18687e-08
8.07424e-09
4.56216e-09
3.93628e-09
4.81806e-09
7.02379e-09
9.97619e-09
1.1434e-08
1.18473e-08
5.06622e-09
1.75264e-08
7.9521e-09
2.63126e-07
5.69272e-07
9.71635e-06
2.02575e-05
1.28196e-05
1.03058e-05
2.57386e-06
1.25184e-06
3.05971e-06
4.22683e-06
3.13502e-06
2.49102e-06
3.34139e-06
9.1933e-06
4.35145e-06
2.57271e-06
1.51107e-05
5.22072e-06
6.62488e-08
3.92837e-09
1.95171e-09
1.62398e-09
3.07164e-09
6.13773e-09
9.38698e-09
1.20644e-08
1.30509e-08
1.01427e-08
2.12964e-08
2.23133e-08
8.13584e-07
1.94131e-06
1.57945e-05
1.14907e-05
7.12759e-06
8.77274e-06
3.21332e-06
6.18052e-07
1.06899e-06
2.83519e-06
2.99772e-06
2.26562e-06
2.42683e-06
7.562e-06
3.03555e-06
4.72631e-07
1.39282e-05
7.9585e-06
7.98959e-07
3.95869e-09
4.43954e-09
1.89358e-09
3.16272e-09
6.71405e-09
1.06555e-08
1.56824e-08
1.58551e-08
2.14358e-08
2.75462e-08
1.7166e-07
1.62291e-06
2.35188e-06
9.44145e-06
1.09773e-05
5.15946e-06
5.46248e-06
3.03253e-06
6.18181e-07
8.12798e-07
2.44216e-06
2.63021e-06
1.97791e-06
1.92541e-06
7.75114e-06
2.01419e-06
1.59864e-07
5.82523e-06
8.26697e-06
1.90024e-06
5.27393e-08
8.70963e-09
4.93082e-09
5.16731e-09
8.78006e-09
1.49086e-08
2.28688e-08
2.51084e-08
2.85347e-08
2.00966e-08
2.98467e-07
1.76474e-06
8.5979e-07
7.39622e-06
1.7322e-05
5.52045e-06
1.7439e-06
1.78496e-06
1.00151e-06
1.42277e-06
2.08404e-06
1.90927e-06
1.41782e-06
1.83319e-06
7.497e-06
1.55917e-06
3.4471e-07
2.76693e-06
4.23001e-06
1.95289e-06
2.86744e-07
2.20629e-08
1.25932e-08
9.33766e-09
1.2976e-08
2.33749e-08
3.53426e-08
4.13968e-08
3.56753e-08
4.53762e-08
3.84518e-07
6.99582e-07
4.99431e-07
1.17904e-05
2.34187e-05
3.00442e-06
7.21535e-07
7.57675e-07
1.00028e-06
2.08229e-06
1.34382e-06
1.05379e-06
9.47259e-07
2.06029e-06
5.95612e-06
1.09702e-06
6.15999e-07
1.62088e-06
2.16555e-06
1.27572e-06
4.21517e-07
6.91751e-08
2.47614e-08
1.63345e-08
1.91614e-08
3.34745e-08
5.79948e-08
8.32595e-08
1.26604e-07
3.05324e-07
7.12556e-07
2.80682e-07
4.6432e-07
6.687e-06
9.97116e-06
3.12183e-06
6.64617e-07
5.50797e-07
7.62153e-07
2.18602e-06
7.0318e-07
5.76817e-07
1.01113e-06
4.65369e-06
4.10543e-06
7.77271e-08
9.88328e-07
1.15494e-06
1.24024e-06
5.9207e-07
2.66883e-07
7.91053e-08
2.7773e-08
1.88403e-08
2.1117e-08
4.27444e-08
9.70621e-08
1.94829e-07
4.2999e-07
9.7537e-07
1.38973e-06
5.77427e-07
4.76043e-07
3.68195e-08
6.15362e-06
8.48317e-06
1.26622e-06
8.29426e-07
7.58018e-07
1.71876e-06
5.93308e-07
6.40515e-07
1.78723e-06
7.93882e-06
3.06302e-06
1.75763e-07
1.1851e-06
1.03647e-06
6.87698e-07
2.52853e-07
5.66983e-08
1.5813e-08
6.91682e-09
6.38093e-09
1.31752e-08
4.68333e-08
1.29875e-07
2.42915e-07
5.03612e-07
1.01152e-06
8.34461e-07
9.56113e-07
6.88604e-07
1.71425e-07
6.15673e-06
1.13877e-05
2.20491e-06
1.11303e-06
1.00019e-06
1.50051e-06
1.03772e-06
1.675e-06
7.232e-06
7.09258e-06
1.34594e-06
2.3439e-07
1.1553e-06
1.12417e-06
4.78775e-07
2.10568e-07
6.16682e-08
9.09528e-09
8.40955e-10
3.77093e-10
1.0072e-08
4.54012e-08
8.62734e-08
9.76412e-08
1.05198e-07
2.15424e-07
3.62138e-07
8.18882e-07
8.90288e-07
3.87889e-07
5.36754e-06
9.56931e-06
2.54435e-06
1.34676e-06
2.52398e-06
2.04612e-06
2.08598e-06
2.34007e-06
1.51998e-05
6.65238e-06
2.22463e-07
9.38038e-08
8.21963e-07
1.1869e-06
5.66769e-07
2.66931e-07
1.3376e-07
5.22108e-08
1.53539e-08
1.00892e-08
2.55025e-08
3.31989e-08
3.00467e-08
2.81506e-08
3.07878e-08
7.50541e-08
2.6118e-07
6.01772e-07
9.33567e-07
5.11183e-07