/*--------------------------------*- C++ -*----------------------------------*\
| =========                 |                                                 |
| \\      /  F ield         | OpenFOAM: The Open Source CFD Toolbox           |
|  \\    /   O peration     | Version:  2.3.0                                 |
|   \\  /    A nd           | Web:      www.OpenFOAM.org                      |
|    \\/     M anipulation  |                                                 |
\*---------------------------------------------------------------------------*/
FoamFile
{
    version     2.0;
    format      ascii;
    class       volVectorField;
    location    "0.35";
    object      U;
}
// * * * * * * * * * * * * * * * * * * * * * * * * * * * * * * * * * * * * * //

dimensions      [0 1 -1 0 0 0 0];

internalField   nonuniform List<vector> 
6000
(
(0.0586195 -0.0171829 0)
(0.135464 -0.0621601 0)
(0.139813 -0.0675184 0)
(0.116286 -0.00877883 0)
(0.0827672 0.00602573 0)
(0.02554 0.00812927 0)
(-0.0615248 -0.042304 0)
(-0.0671115 -0.127548 0)
(-0.0422125 -0.113253 0)
(0.0173584 -0.0996995 0)
(0.0835165 -0.0823931 0)
(0.126536 -0.084094 0)
(0.120199 -0.0964119 0)
(0.0594456 -0.104187 0)
(0.00159517 -0.147664 0)
(-0.049703 -0.137497 0)
(-0.100137 -0.0950729 0)
(-0.146809 -0.100044 0)
(-0.129187 -0.0833547 0)
(-0.0753483 -0.0849089 0)
(-0.0130895 -0.103395 0)
(0.0426901 -0.121585 0)
(0.0584383 -0.13553 0)
(0.0468492 -0.0496459 0)
(-0.0497056 0.0211468 0)
(-0.124836 -0.000903365 0)
(-0.154073 -0.0295363 0)
(-0.154953 -0.0474826 0)
(-0.12611 -0.0524194 0)
(-0.0513204 -0.00348635 0)
(0.0598714 0.407141 0)
(0.10282 0.585401 0)
(0.0672618 0.657618 0)
(0.0653156 0.646588 0)
(0.0890037 0.661765 0)
(0.103576 0.63918 0)
(0.0982556 0.660011 0)
(0.0484074 0.704928 0)
(0.0166046 0.589778 0)
(0.0788518 0.544509 0)
(0.170331 0.551413 0)
(0.228334 0.597595 0)
(0.194162 0.695353 0)
(0.105851 0.681679 0)
(0.0250301 0.561295 0)
(-0.0682512 0.587674 0)
(-0.155734 0.687607 0)
(-0.232872 0.673332 0)
(-0.236212 0.566063 0)
(-0.157046 0.552079 0)
(-0.0645215 0.556042 0)
(-0.0127533 0.607274 0)
(-0.0534259 0.730106 0)
(-0.1148 0.66211 0)
(-0.112831 0.672814 0)
(-0.0899088 0.670717 0)
(-0.0796215 0.663466 0)
(-0.0884783 0.575761 0)
(-0.109383 0.538622 0)
(-0.0612467 0.422462 0)
(-0.00220944 0.213066 0)
(0.043021 0.519663 0)
(0.0391128 0.49746 0)
(0.070345 0.496875 0)
(0.112805 0.498017 0)
(0.124138 0.542405 0)
(0.12537 0.589732 0)
(0.100359 0.611731 0)
(0.0994045 0.356594 0)
(0.155431 0.255858 0)
(0.230302 0.277123 0)
(0.238352 0.397016 0)
(0.179716 0.73453 0)
(0.0994006 0.784444 0)
(0.0274541 0.745778 0)
(-0.0616169 0.758579 0)
(-0.134362 0.787414 0)
(-0.226329 0.624334 0)
(-0.261777 0.323308 0)
(-0.224977 0.265974 0)
(-0.145474 0.263366 0)
(-0.0964414 0.388813 0)
(-0.110653 0.621932 0)
(-0.132233 0.60346 0)
(-0.129148 0.540167 0)
(-0.103738 0.507948 0)
(-0.0550015 0.496111 0)
(-0.0324673 0.497123 0)
(-0.0602997 0.496463 0)
(-0.00872502 0.218477 0)
(-0.043229 0.223943 0)
(-0.00373403 0.491702 0)
(0.0300843 0.468133 0)
(0.0820585 0.467245 0)
(0.107076 0.489876 0)
(0.135515 0.503246 0)
(0.160207 0.568814 0)
(0.173923 0.633814 0)
(0.181741 0.378621 0)
(0.204982 0.249769 0)
(0.211816 0.275524 0)
(0.150343 0.553463 0)
(0.0503725 0.763948 0)
(0.0380404 0.731496 0)
(0.010859 0.717626 0)
(-0.0271146 0.713113 0)
(-0.0444245 0.752235 0)
(-0.0793976 0.74774 0)
(-0.177633 0.408773 0)
(-0.23823 0.263426 0)
(-0.208355 0.244707 0)
(-0.184445 0.430297 0)
(-0.186138 0.64663 0)
(-0.165882 0.561407 0)
(-0.134905 0.5134 0)
(-0.103048 0.479716 0)
(-0.0725332 0.469388 0)
(-0.0265695 0.458452 0)
(-0.00192411 0.490237 0)
(0.0339737 0.214176 0)
(-0.0388881 0.281364 0)
(0.0119365 0.449903 0)
(0.0373776 0.424522 0)
(0.0940784 0.44058 0)
(0.105125 0.462342 0)
(0.132823 0.488818 0)
(0.167457 0.534614 0)
(0.186597 0.628732 0)
(0.211916 0.360917 0)
(0.227138 0.23383 0)
(0.155628 0.28531 0)
(0.0744899 0.726041 0)
(0.0122975 0.756682 0)
(0.0143396 0.75093 0)
(0.00245559 0.728393 0)
(-0.0137727 0.740594 0)
(-0.0221337 0.744316 0)
(-0.0172863 0.760844 0)
(-0.124283 0.619966 0)
(-0.20808 0.248531 0)
(-0.237293 0.217571 0)
(-0.218856 0.427808 0)
(-0.199393 0.627956 0)
(-0.171687 0.539383 0)
(-0.135752 0.478888 0)
(-0.112128 0.462453 0)
(-0.0941853 0.430826 0)
(-0.0497467 0.430252 0)
(-0.0197215 0.443756 0)
(0.0289247 0.26035 0)
(-0.00373355 0.265645 0)
(0.0629385 0.421452 0)
(0.0604302 0.398837 0)
(0.104636 0.410043 0)
(0.106454 0.447219 0)
(0.123087 0.46325 0)
(0.150839 0.530306 0)
(0.173442 0.608265 0)
(0.226234 0.322167 0)
(0.235248 0.244543 0)
(0.110095 0.414878 0)
(-0.00423827 0.756086 0)
(4.05411e-05 0.771377 0)
(0.000257375 0.750025 0)
(-0.00243124 0.751598 0)
(-0.00652974 0.742296 0)
(-0.00920355 0.761886 0)
(-0.00840053 0.762784 0)
(-0.0496151 0.740923 0)
(-0.144117 0.29516 0)
(-0.25418 0.22816 0)
(-0.232286 0.392202 0)
(-0.182816 0.615738 0)
(-0.160278 0.516723 0)
(-0.132812 0.465847 0)
(-0.124633 0.428592 0)
(-0.109159 0.414744 0)
(-0.0857937 0.401066 0)
(-0.0746869 0.412152 0)
(-0.00627923 0.231292 0)
(0.00233026 0.190492 0)
(0.0931789 0.410929 0)
(0.0840196 0.374276 0)
(0.10834 0.403915 0)
(0.104753 0.429813 0)
(0.105113 0.457598 0)
(0.118017 0.512941 0)
(0.161963 0.56401 0)
(0.224775 0.275785 0)
(0.174526 0.27141 0)
(0.0846914 0.681359 0)
(-0.0303643 0.777585 0)
(-0.0179011 0.762979 0)
(-0.0127096 0.758889 0)
(-0.00632435 0.745383 0)
(0.000233054 0.753516 0)
(0.00634047 0.754271 0)
(0.0110516 0.77493 0)
(0.0217375 0.767548 0)
(-0.100789 0.489535 0)
(-0.230293 0.259727 0)
(-0.245119 0.320534 0)
(-0.171998 0.575249 0)
(-0.134505 0.513481 0)
(-0.121818 0.453372 0)
(-0.129799 0.434605 0)
(-0.129624 0.407458 0)
(-0.106 0.379405 0)
(-0.102005 0.388324 0)
(0.00289408 0.151282 0)
(-0.00410508 0.116959 0)
(0.0829945 0.406623 0)
(0.100318 0.362687 0)
(0.104683 0.398902 0)
(0.114553 0.435934 0)
(0.0884405 0.451821 0)
(0.0855928 0.514953 0)
(0.150502 0.46529 0)
(0.192317 0.286176 0)
(0.0660016 0.331446 0)
(-0.00198392 0.774413 0)
(-0.0427114 0.776 0)
(-0.0393337 0.763467 0)
(-0.0269422 0.740759 0)
(-0.0102844 0.737304 0)
(0.00765165 0.73413 0)
(0.0235865 0.748886 0)
(0.0354401 0.760035 0)
(0.0468547 0.781789 0)
(-0.0477042 0.716795 0)
(-0.133487 0.310636 0)
(-0.221667 0.282844 0)
(-0.161228 0.51367 0)
(-0.105076 0.503038 0)
(-0.111882 0.462644 0)
(-0.138187 0.440768 0)
(-0.144696 0.410834 0)
(-0.120149 0.354316 0)
(-0.0799172 0.357205 0)
(0.0204985 0.0872188 0)
(-0.0206682 0.0815742 0)
(0.0558608 0.357468 0)
(0.12056 0.345161 0)
(0.100524 0.416717 0)
(0.105968 0.454046 0)
(0.0317601 0.505824 0)
(0.0304125 0.550505 0)
(0.113569 0.340214 0)
(0.130562 0.311639 0)
(0.0195385 0.507252 0)
(-0.0893343 0.798553 0)
(-0.0791555 0.781174 0)
(-0.0677277 0.742921 0)
(-0.0448624 0.722796 0)
(-0.0152302 0.706273 0)
(0.0159074 0.712279 0)
(0.0430401 0.723728 0)
(0.0612711 0.755636 0)
(0.0644143 0.778565 0)
(0.0376518 0.789737 0)
(-0.0549883 0.420715 0)
(-0.162319 0.288056 0)
(-0.136411 0.388028 0)
(-0.0613992 0.541513 0)
(-0.0864166 0.486775 0)
(-0.140824 0.460936 0)
(-0.135948 0.423379 0)
(-0.1198 0.288712 0)
(-0.0397448 0.284656 0)
(0.0392201 0.0706865 0)
(-0.0277047 0.083135 0)
(0.0363536 0.251178 0)
(0.103659 0.300053 0)
(0.0967611 0.443548 0)
(0.0671412 0.46744 0)
(0.0705577 0.536075 0)
(0.0790638 0.466589 0)
(0.11519 0.299869 0)
(0.0733336 0.335184 0)
(-0.00605859 0.732779 0)
(-0.114022 0.817578 0)
(-0.116601 0.767964 0)
(-0.101036 0.725675 0)
(-0.0668264 0.68423 0)
(-0.0216918 0.669644 0)
(0.0262874 0.669967 0)
(0.0680247 0.697421 0)
(0.095019 0.735621 0)
(0.0990917 0.791125 0)
(0.0789353 0.826135 0)
(-0.0323433 0.626253 0)
(-0.0880428 0.30383 0)
(-0.140237 0.340234 0)
(-0.0902327 0.523769 0)
(-0.102051 0.532952 0)
(-0.101244 0.472291 0)
(-0.112005 0.432392 0)
(-0.0833617 0.207986 0)
(-0.0214914 0.204317 0)
(0.035042 0.0850866 0)
(-0.0226769 0.0979427 0)
(0.0222129 0.16427 0)
(0.0611841 0.275076 0)
(0.0689727 0.469858 0)
(0.0554281 0.509241 0)
(0.0953239 0.562721 0)
(0.181774 0.395845 0)
(0.192108 0.318295 0)
(0.13716 0.394159 0)
(-0.0600988 0.872888 0)
(-0.137974 0.850083 0)
(-0.165216 0.772455 0)
(-0.146652 0.69285 0)
(-0.0973219 0.638651 0)
(-0.0299072 0.61299 0)
(0.0416717 0.618805 0)
(0.104134 0.652753 0)
(0.145613 0.718779 0)
(0.151842 0.799766 0)
(0.107754 0.887987 0)
(0.0175002 0.780752 0)
(-0.207002 0.338583 0)
(-0.217809 0.339931 0)
(-0.19807 0.440362 0)
(-0.10301 0.566115 0)
(-0.0722658 0.517832 0)
(-0.0594095 0.411416 0)
(-0.0390789 0.177268 0)
(-0.0112626 0.145378 0)
(0.0193868 0.0998987 0)
(-0.0152992 0.11287 0)
(-0.00145997 0.117873 0)
(0.0169851 0.276029 0)
(0.0484015 0.470528 0)
(0.099402 0.488573 0)
(0.223856 0.416186 0)
(0.259041 0.346226 0)
(0.2462 0.360433 0)
(0.134703 0.567607 0)
(-0.171021 1.02919 0)
(-0.220684 0.916076 0)
(-0.246616 0.777211 0)
(-0.208023 0.667451 0)
(-0.128005 0.583276 0)
(-0.0365168 0.54859 0)
(0.0558178 0.555874 0)
(0.145418 0.606381 0)
(0.217494 0.697634 0)
(0.242882 0.821769 0)
(0.202061 0.961703 0)
(0.130466 0.97347 0)
(-0.232208 0.476656 0)
(-0.275154 0.37975 0)
(-0.288642 0.360753 0)
(-0.240809 0.423557 0)
(-0.0958942 0.464446 0)
(-0.0296313 0.377079 0)
(-0.009629 0.184066 0)
(0.00253245 0.113425 0)
(0.0102159 0.109557 0)
(-0.0105872 0.128194 0)
(-0.020645 0.102333 0)
(0.00130025 0.240925 0)
(0.0759903 0.398602 0)
(0.196903 0.36682 0)
(0.298396 0.318138 0)
(0.283106 0.372058 0)
(0.22948 0.441739 0)
(-0.0485285 0.857164 0)
(-0.326008 1.15848 0)
(-0.331567 0.969965 0)
(-0.296047 0.751238 0)
(-0.197674 0.57126 0)
(-0.103243 0.478061 0)
(-0.02778 0.449269 0)
(0.0421209 0.455707 0)
(0.122502 0.500308 0)
(0.221918 0.613639 0)
(0.315667 0.815802 0)
(0.334653 1.03133 0)
(0.320313 1.1743 0)
(-0.0637195 0.73656 0)
(-0.260728 0.445022 0)
(-0.307721 0.371208 0)
(-0.309278 0.301557 0)
(-0.20346 0.32793 0)
(-0.0674538 0.313458 0)
(-0.0036724 0.172493 0)
(0.00933201 0.0954064 0)
(0.00620825 0.117809 0)
(-0.00593213 0.144075 0)
(-0.0181909 0.097699 0)
(0.000975365 0.171422 0)
(0.120016 0.272837 0)
(0.254684 0.245829 0)
(0.29266 0.290587 0)
(0.264342 0.411879 0)
(0.112173 0.658615 0)
(-0.374017 1.21855 0)
(-0.436433 1.22863 0)
(-0.341389 0.920935 0)
(-0.197568 0.618311 0)
(-0.094858 0.459258 0)
(-0.0414559 0.406234 0)
(-0.011303 0.392979 0)
(0.0141324 0.396693 0)
(0.0492752 0.418552 0)
(0.113841 0.490492 0)
(0.233985 0.684074 0)
(0.381498 1.00783 0)
(0.46281 1.2672 0)
(0.33688 1.14549 0)
(-0.16281 0.618471 0)
(-0.270835 0.398835 0)
(-0.293659 0.271526 0)
(-0.250826 0.203087 0)
(-0.138269 0.196434 0)
(-0.0120604 0.126353 0)
(0.0049259 0.0819466 0)
(0.00314624 0.124248 0)
(0.00181955 0.149715 0)
(0.00462325 0.0918778 0)
(0.0288024 0.0990683 0)
(0.144632 0.145635 0)
(0.23074 0.17848 0)
(0.25801 0.277107 0)
(0.197329 0.535823 0)
(-0.226224 1.17669 0)
(-0.447818 1.38893 0)
(-0.369286 1.14887 0)
(-0.178327 0.732944 0)
(-0.0543656 0.502143 0)
(-0.0133819 0.412542 0)
(-0.00336792 0.385483 0)
(-0.00147361 0.380556 0)
(-0.000329117 0.381965 0)
(0.00344103 0.392302 0)
(0.0194966 0.428854 0)
(0.0774624 0.542358 0)
(0.231671 0.813135 0)
(0.424111 1.2299 0)
(0.472764 1.3819 0)
(0.173886 1.10264 0)
(-0.192641 0.497316 0)
(-0.244435 0.253221 0)
(-0.222271 0.142659 0)
(-0.156151 0.088843 0)
(-0.0395955 0.0580241 0)
(-0.0102121 0.0659762 0)
(-0.00149496 0.12465 0)
(0.00927031 0.141232 0)
(0.031855 0.0735035 0)
(0.0659965 0.0468481 0)
(0.137142 0.0714756 0)
(0.188973 0.138436 0)
(0.181032 0.292681 0)
(0.042158 0.896382 0)
(-0.298292 1.42477 0)
(-0.291851 1.38443 0)
(-0.139462 0.944437 0)
(-0.0155824 0.597699 0)
(0.0187596 0.470641 0)
(0.019242 0.418715 0)
(0.0116932 0.400832 0)
(0.0032925 0.396854 0)
(-0.00472044 0.398097 0)
(-0.012016 0.405499 0)
(-0.0173355 0.42866 0)
(-0.00975043 0.488047 0)
(0.0431253 0.646681 0)
(0.191396 1.0318 0)
(0.338632 1.41133 0)
(0.304038 1.39916 0)
(-0.035512 0.832308 0)
(-0.164874 0.273231 0)
(-0.18579 0.106002 0)
(-0.143854 0.0231704 0)
(-0.0746149 0.00196962 0)
(-0.0331593 0.0383861 0)
(-0.00813007 0.11427 0)
(0.0137081 0.115462 0)
(0.0493082 0.0434465 0)
(0.085607 -0.000663376 0)
(0.142324 0.0161173 0)
(0.181117 0.104799 0)
(0.103435 0.391818 0)
(-0.146257 1.1607 0)
(-0.1462 1.45428 0)
(-0.0276852 1.26297 0)
(0.0234438 0.804749 0)
(0.0402272 0.596776 0)
(0.0291264 0.502145 0)
(0.0288415 0.448478 0)
(0.0206342 0.432049 0)
(0.00690141 0.426002 0)
(-0.00773072 0.428883 0)
(-0.020507 0.434809 0)
(-0.0244915 0.459554 0)
(-0.0248544 0.515947 0)
(-0.0311937 0.619606 0)
(0.004358 0.864809 0)
(0.0697919 1.31866 0)
(0.173249 1.43024 0)
(0.156849 1.08713 0)
(-0.090738 0.384117 0)
(-0.186428 0.0701339 0)
(-0.155518 -0.0257711 0)
(-0.0998454 -0.0468244 0)
(-0.0526785 -0.00177441 0)
(-0.0141965 0.0914739 0)
(0.0306438 0.1022 0)
(0.0626428 0.0253028 0)
(0.100528 -0.0500524 0)
(0.155605 -0.0406603 0)
(0.185473 0.0921567 0)
(0.0191274 0.745257 0)
(-0.139902 1.09898 0)
(0.0936728 1.28237 0)
(0.25497 1.1218 0)
(0.206307 0.70887 0)
(0.122113 0.508243 0)
(0.0771986 0.382476 0)
(0.0539192 0.354407 0)
(0.0305828 0.350694 0)
(0.00987487 0.358508 0)
(-0.0111501 0.352306 0)
(-0.0326951 0.354465 0)
(-0.0549109 0.3442 0)
(-0.0811401 0.406936 0)
(-0.127491 0.517538 0)
(-0.206298 0.758835 0)
(-0.21581 1.17451 0)
(-0.030666 1.29003 0)
(0.139313 1.02575 0)
(-0.0266253 0.790335 0)
(-0.199948 0.0693321 0)
(-0.177427 -0.0782268 0)
(-0.12562 -0.0986811 0)
(-0.07063 -0.0464136 0)
(-0.0323748 0.0721239 0)
(0.0793934 0.0278781 0)
(0.0928682 0.026546 0)
(0.132536 -0.120439 0)
(0.197824 -0.124177 0)
(0.203043 0.127828 0)
(0.0515377 1.11709 0)
(0.0192763 0.811664 0)
(0.195714 1.05018 0)
(0.39519 1.27279 0)
(0.443684 1.07954 0)
(0.366936 0.821871 0)
(0.250317 0.587762 0)
(0.1535 0.479395 0)
(0.0801958 0.431398 0)
(0.023882 0.417112 0)
(-0.0287901 0.42322 0)
(-0.0870346 0.44273 0)
(-0.162266 0.506418 0)
(-0.26274 0.631018 0)
(-0.375011 0.851397 0)
(-0.43934 1.12099 0)
(-0.356435 1.24458 0)
(-0.152895 1.07492 0)
(-0.0174233 0.858454 0)
(-0.0496832 1.08473 0)
(-0.212915 0.146647 0)
(-0.220402 -0.159175 0)
(-0.155455 -0.164772 0)
(-0.105839 -0.0931662 0)
(-0.111204 0.0264663 0)
(0.0117016 -0.100829 0)
(0.0498939 -0.0185743 0)
(0.121408 -0.194854 0)
(0.249505 -0.222336 0)
(0.208378 0.407144 0)
(0.11428 0.994648 0)
(0.16871 0.975752 0)
(0.181996 1.02769 0)
(0.293673 1.00074 0)
(0.391714 0.906538 0)
(0.41227 0.805961 0)
(0.361247 0.719793 0)
(0.270281 0.682186 0)
(0.165672 0.678125 0)
(0.0498986 0.660022 0)
(-0.0636052 0.670973 0)
(-0.170228 0.663156 0)
(-0.271712 0.675409 0)
(-0.358802 0.729829 0)
(-0.402806 0.806406 0)
(-0.375403 0.899963 0)
(-0.279573 1.00035 0)
(-0.17345 1.02148 0)
(-0.151484 0.979836 0)
(-0.0843637 0.966793 0)
(-0.226134 0.435036 0)
(-0.2598 -0.211486 0)
(-0.161726 -0.255003 0)
(-0.119685 -0.107552 0)
(-0.000257983 -0.145623 0)
(0.004616 -0.0874663 0)
(0.0804279 -0.0290905 0)
(0.098648 -0.378379 0)
(0.154865 -0.341177 0)
(0.176676 0.575177 0)
(0.1324 0.892646 0)
(0.164031 0.884538 0)
(0.192544 0.880126 0)
(0.249304 0.881567 0)
(0.294522 0.831342 0)
(0.306426 0.772317 0)
(0.270773 0.712023 0)
(0.203517 0.662467 0)
(0.127212 0.648885 0)
(0.042159 0.65641 0)
(-0.0448418 0.640972 0)
(-0.126625 0.641688 0)
(-0.207398 0.675704 0)
(-0.268563 0.717893 0)
(-0.299282 0.777579 0)
(-0.286477 0.838649 0)
(-0.240109 0.872517 0)
(-0.186344 0.893058 0)
(-0.143882 0.885747 0)
(-0.107281 0.89134 0)
(-0.207027 0.637452 0)
(-0.194513 -0.345878 0)
(-0.162735 -0.364761 0)
(-0.0662643 -0.235281 0)
(-0.0135296 -0.128092 0)
(0.0046778 -0.137637 0)
(0.0683702 -0.0737598 0)
(0.0580282 -0.340459 0)
(0.0670098 -0.384735 0)
(0.13537 0.583038 0)
(0.155369 0.864049 0)
(0.157041 0.861587 0)
(0.182793 0.858615 0)
(0.205908 0.841605 0)
(0.22366 0.819841 0)
(0.21945 0.785363 0)
(0.192424 0.747885 0)
(0.147344 0.727443 0)
(0.0893649 0.706402 0)
(0.0321615 0.712605 0)
(-0.0271035 0.701331 0)
(-0.0906398 0.716447 0)
(-0.146404 0.725634 0)
(-0.190647 0.757447 0)
(-0.215471 0.788961 0)
(-0.217353 0.821512 0)
(-0.200531 0.847708 0)
(-0.175327 0.854532 0)
(-0.14797 0.872041 0)
(-0.142358 0.865489 0)
(-0.152158 0.693645 0)
(-0.105573 -0.334677 0)
(-0.0764346 -0.471538 0)
(-0.068608 -0.228758 0)
(-0.0169495 -0.181481 0)
(-0.00495074 -0.165248 0)
(0.0374478 -0.0962313 0)
(0.0226532 -0.341277 0)
(0.0191877 -0.431392 0)
(0.0976594 0.536365 0)
(0.156625 0.867945 0)
(0.146849 0.86041 0)
(0.161696 0.837981 0)
(0.17077 0.831584 0)
(0.172873 0.818369 0)
(0.163737 0.801855 0)
(0.142422 0.787291 0)
(0.109113 0.767842 0)
(0.0687139 0.768295 0)
(0.0250912 0.759017 0)
(-0.0196428 0.766787 0)
(-0.0649411 0.761683 0)
(-0.106356 0.77868 0)
(-0.138787 0.787649 0)
(-0.160236 0.806911 0)
(-0.169885 0.82075 0)
(-0.166709 0.830481 0)
(-0.161932 0.847619 0)
(-0.150439 0.864824 0)
(-0.162676 0.863507 0)
(-0.112283 0.667821 0)
(-0.0244975 -0.354787 0)
(-0.0271668 -0.473097 0)
(-0.0443874 -0.251455 0)
(-0.00749292 -0.220042 0)
(-0.0140972 -0.177277 0)
(0.0156601 -0.102109 0)
(-0.00449061 -0.331798 0)
(-0.0169766 -0.445159 0)
(0.047689 0.403218 0)
(0.150357 0.886039 0)
(0.141527 0.848745 0)
(0.144391 0.835503 0)
(0.142475 0.827286 0)
(0.137715 0.823424 0)
(0.12705 0.818893 0)
(0.109428 0.807314 0)
(0.0851252 0.80772 0)
(0.054673 0.798954 0)
(0.0212134 0.80866 0)
(-0.0139604 0.79984 0)
(-0.0482277 0.809015 0)
(-0.0787206 0.805245 0)
(-0.104328 0.816559 0)
(-0.122961 0.820383 0)
(-0.134991 0.828585 0)
(-0.140792 0.83231 0)
(-0.145329 0.836532 0)
(-0.14377 0.874462 0)
(-0.169465 0.884789 0)
(-0.0716507 0.514473 0)
(0.0313696 -0.363653 0)
(0.00910112 -0.464759 0)
(-0.0203042 -0.253644 0)
(8.6395e-05 -0.239713 0)
(-0.0228193 -0.175483 0)
(0.00132504 -0.094263 0)
(-0.0253821 -0.318256 0)
(-0.0429646 -0.438216 0)
(0.00869045 0.241062 0)
(0.127414 0.866375 0)
(0.130397 0.843061 0)
(0.122559 0.830063 0)
(0.118748 0.830658 0)
(0.111961 0.832157 0)
(0.102071 0.828008 0)
(0.0884837 0.830005 0)
(0.0696445 0.825291 0)
(0.046996 0.835279 0)
(0.0193197 0.83175 0)
(-0.0100685 0.839766 0)
(-0.036877 0.830122 0)
(-0.0603547 0.83634 0)
(-0.0802677 0.831941 0)
(-0.0966029 0.83772 0)
(-0.109011 0.835915 0)
(-0.117738 0.835194 0)
(-0.12889 0.843127 0)
(-0.132244 0.865717 0)
(-0.146336 0.901365 0)
(-0.0263485 0.307715 0)
(0.0597726 -0.362351 0)
(0.0315557 -0.443719 0)
(-0.00494136 -0.247764 0)
(0.00631226 -0.244113 0)
(-0.0271742 -0.164 0)
(-0.00728071 -0.0941464 0)
(-0.0371822 -0.293981 0)
(-0.0546306 -0.424748 0)
(-0.0169274 0.0932361 0)
(0.0999107 0.862344 0)
(0.108521 0.838105 0)
(0.100528 0.834707 0)
(0.0975492 0.835917 0)
(0.0930052 0.835785 0)
(0.085462 0.840793 0)
(0.0750124 0.839353 0)
(0.0617334 0.849139 0)
(0.044311 0.850067 0)
(0.0182123 0.864703 0)
(-0.00872947 0.857411 0)
(-0.0289766 0.859935 0)
(-0.0471277 0.850132 0)
(-0.0633447 0.852619 0)
(-0.0768773 0.847378 0)
(-0.0881816 0.847581 0)
(-0.0965346 0.843663 0)
(-0.105046 0.842229 0)
(-0.111632 0.866794 0)
(-0.102416 0.882557 0)
(0.00781607 0.140033 0)
(0.0741167 -0.352457 0)
(0.0450134 -0.409847 0)
(0.00417828 -0.235117 0)
(0.0144638 -0.240448 0)
(-0.0307948 -0.150426 0)
(-0.00745554 -0.0735665 0)
(-0.0400329 -0.270977 0)
(-0.0586624 -0.409734 0)
(-0.0355909 -0.0372655 0)
(0.0711104 0.836899 0)
(0.0845533 0.829259 0)
(0.0801597 0.830877 0)
(0.0813537 0.835354 0)
(0.0805726 0.845559 0)
(0.0747787 0.845939 0)
(0.067665 0.857922 0)
(0.057405 0.856947 0)
(0.0393113 0.875082 0)
(0.0187037 0.897753 0)
(-0.00152029 0.880909 0)
(-0.022609 0.869919 0)
(-0.0382098 0.871811 0)
(-0.0508934 0.860944 0)
(-0.0622435 0.861634 0)
(-0.0722114 0.854513 0)
(-0.0783447 0.849532 0)
(-0.0840803 0.845882 0)
(-0.0873248 0.861683 0)
(-0.0649504 0.871188 0)
(0.0304983 0.00651741 0)
(0.084706 -0.342881 0)
(0.0582929 -0.369785 0)
(0.0151281 -0.228771 0)
(0.0208843 -0.225599 0)
(-0.0359854 -0.137986 0)
(-0.00658067 -0.0680681 0)
(-0.0405591 -0.246008 0)
(-0.0615621 -0.3871 0)
(-0.0480813 -0.146076 0)
(0.0482514 0.811469 0)
(0.0692411 0.830509 0)
(0.0671701 0.825531 0)
(0.0726352 0.836126 0)
(0.0746042 0.845265 0)
(0.0703562 0.859207 0)
(0.0626992 0.859798 0)
(0.0513301 0.876203 0)
(0.036129 0.905255 0)
(0.0208587 0.897486 0)
(0.00775484 0.913334 0)
(-0.0125397 0.89355 0)
(-0.0312831 0.877839 0)
(-0.0424631 0.880822 0)
(-0.0517414 0.868541 0)
(-0.0613453 0.867781 0)
(-0.0664977 0.854909 0)
(-0.0711245 0.844186 0)
(-0.0733726 0.854692 0)
(-0.0398855 0.82758 0)
(0.049503 -0.102675 0)
(0.091429 -0.338956 0)
(0.0692716 -0.327403 0)
(0.0229268 -0.205956 0)
(0.0261012 -0.204939 0)
(-0.0436827 -0.124545 0)
(-0.00517733 -0.0524635 0)
(-0.0395329 -0.21938 0)
(-0.0619572 -0.359748 0)
(-0.0566647 -0.231679 0)
(0.0264528 0.760359 0)
(0.0696912 0.838563 0)
(0.0720643 0.81922 0)
(0.0751372 0.834845 0)
(0.0760082 0.851973 0)
(0.0704912 0.858046 0)
(0.0621086 0.876122 0)
(0.0485391 0.881328 0)
(0.0346149 0.905681 0)
(0.0223198 0.925986 0)
(0.00988094 0.91301 0)
(-0.00408437 0.922264 0)
(-0.0210855 0.899567 0)
(-0.0350925 0.88322 0)
(-0.0451412 0.885603 0)
(-0.0549258 0.872066 0)
(-0.0624275 0.865631 0)
(-0.0737828 0.851807 0)
(-0.0831208 0.861464 0)
(-0.0273007 0.776193 0)
(0.0713299 -0.188291 0)
(0.0962878 -0.335901 0)
(0.0752648 -0.289641 0)
(0.0282823 -0.186313 0)
(0.0308231 -0.180578 0)
(-0.056502 -0.111224 0)
(-0.00360085 -0.0462834 0)
(-0.0338727 -0.198684 0)
(-0.0532331 -0.335672 0)
(-0.0577794 -0.293364 0)
(0.0180441 0.694717 0)
(0.0905009 0.807719 0)
(0.0909848 0.809415 0)
(0.0872109 0.833076 0)
(0.0832362 0.852183 0)
(0.0763288 0.872612 0)
(0.0656192 0.879396 0)
(0.0490814 0.902905 0)
(0.033527 0.932189 0)
(0.023223 0.92209 0)
(0.0125553 0.937529 0)
(0.000907374 0.923085 0)
(-0.0133543 0.908575 0)
(-0.0278365 0.902674 0)
(-0.0394157 0.887977 0)
(-0.0508919 0.886081 0)
(-0.0622986 0.870645 0)
(-0.0832366 0.857001 0)
(-0.1114 0.860837 0)
(-0.0197263 0.659776 0)
(0.0913896 -0.254385 0)
(0.101542 -0.324446 0)
(0.0797869 -0.251975 0)
(0.0306634 -0.153912 0)
(0.0337862 -0.154203 0)
(-0.082094 -0.0862724 0)
(-0.00198423 -0.0439893 0)
(-0.0189539 -0.179395 0)
(-0.0432185 -0.304226 0)
(-0.0587155 -0.320978 0)
(0.0254684 0.573224 0)
(0.150188 0.816307 0)
(0.125526 0.818562 0)
(0.107504 0.836727 0)
(0.0952867 0.864696 0)
(0.0834948 0.877638 0)
(0.0670778 0.899597 0)
(0.0502103 0.931754 0)
(0.0364577 0.9279 0)
(0.0259831 0.94538 0)
(0.0159086 0.934399 0)
(0.00690264 0.948408 0)
(-0.00641219 0.925365 0)
(-0.0224414 0.907045 0)
(-0.0352274 0.906404 0)
(-0.0461009 0.892684 0)
(-0.0596779 0.889863 0)
(-0.0860413 0.875183 0)
(-0.130341 0.892636 0)
(-0.00373847 0.444769 0)
(0.0978995 -0.292153 0)
(0.0962201 -0.313287 0)
(0.0743091 -0.220001 0)
(0.0283679 -0.122937 0)
(0.0363003 -0.129286 0)
(-0.0665726 -0.0371261 0)
(-0.00261134 -0.0784953 0)
(-0.00225036 -0.168979 0)
(-0.0267783 -0.273344 0)
(-0.0491171 -0.321393 0)
(0.0306122 0.332183 0)
(0.21198 0.823666 0)
(0.159377 0.839777 0)
(0.128658 0.859463 0)
(0.10635 0.874728 0)
(0.0893769 0.899 0)
(0.0687106 0.912837 0)
(0.0515331 0.933292 0)
(0.0386512 0.952288 0)
(0.0275767 0.942779 0)
(0.0181817 0.956044 0)
(0.00956428 0.942588 0)
(0.00157914 0.952474 0)
(-0.0144674 0.925143 0)
(-0.0309741 0.909817 0)
(-0.0395562 0.910572 0)
(-0.0508238 0.899877 0)
(-0.0778727 0.903793 0)
(-0.112004 0.929787 0)
(0.0229637 0.226949 0)
(0.0954639 -0.302885 0)
(0.0897032 -0.295197 0)
(0.0686899 -0.19082 0)
(0.0261506 -0.0902134 0)
(0.039236 -0.10639 0)
(-0.0183858 -0.0195327 0)
(-0.0137361 -0.0857414 0)
(0.0058482 -0.161727 0)
(-0.00811383 -0.245264 0)
(-0.0227192 -0.3047 0)
(0.0256725 0.0611679 0)
(0.226528 0.844533 0)
(0.181579 0.879998 0)
(0.142673 0.881832 0)
(0.115314 0.904039 0)
(0.0917261 0.911311 0)
(0.0682262 0.934993 0)
(0.0501021 0.959778 0)
(0.0379984 0.950941 0)
(0.0281415 0.964631 0)
(0.0189563 0.952798 0)
(0.0108956 0.963056 0)
(0.00295065 0.947224 0)
(-0.00759924 0.95269 0)
(-0.0203671 0.925727 0)
(-0.0287761 0.912308 0)
(-0.0369646 0.917784 0)
(-0.0560044 0.912315 0)
(-0.0682983 0.92746 0)
(0.0429697 0.0673522 0)
(0.0861519 -0.303851 0)
(0.0780448 -0.277054 0)
(0.057712 -0.169731 0)
(0.0227109 -0.0616743 0)
(0.0434802 -0.0843725 0)
(-0.00362176 -0.0174309 0)
(-0.00653615 -0.0977536 0)
(0.002559 -0.160199 0)
(0.0129699 -0.232568 0)
(0.00881608 -0.286456 0)
(0.0220661 -0.112355 0)
(0.184147 0.798419 0)
(0.189636 0.916649 0)
(0.149003 0.916555 0)
(0.116683 0.920279 0)
(0.0872354 0.944028 0)
(0.0626647 0.968894 0)
(0.0475851 0.959052 0)
(0.0365227 0.97354 0)
(0.02673 0.962432 0)
(0.0186714 0.972344 0)
(0.0114102 0.958774 0)
(0.00483266 0.966938 0)
(-0.00203982 0.951022 0)
(-0.0109851 0.927726 0)
(-0.0179293 0.927296 0)
(-0.0227752 0.914967 0)
(-0.0317348 0.924978 0)
(-0.0255736 0.925971 0)
(0.0547338 -0.0451701 0)
(0.0743068 -0.297898 0)
(0.0645163 -0.255551 0)
(0.0423276 -0.151174 0)
(0.0187526 -0.0406096 0)
(0.0499115 -0.0591694 0)
(0.00200238 -0.0193076 0)
(0.00791227 -0.107877 0)
(0.0134666 -0.175206 0)
(0.0248299 -0.225226 0)
(0.0253878 -0.269354 0)
(0.0163076 -0.188725 0)
(0.128637 0.681307 0)
(0.195274 0.964374 0)
(0.144231 0.946045 0)
(0.106737 0.956951 0)
(0.0757672 0.979704 0)
(0.0566733 0.970464 0)
(0.0433648 0.985215 0)
(0.0323395 0.972603 0)
(0.0239218 0.981438 0)
(0.016683 0.968854 0)
(0.010875 0.975753 0)
(0.00631622 0.960741 0)
(0.00376999 0.967972 0)
(-0.0041693 0.943321 0)
(-0.0109523 0.921676 0)
(-0.0124213 0.921749 0)
(-0.0146969 0.914688 0)
(0.00992621 0.897388 0)
(0.0614861 -0.113523 0)
(0.0649836 -0.286596 0)
(0.0502685 -0.232909 0)
(0.0280535 -0.132007 0)
(0.0120703 -0.0469839 0)
(0.044779 -0.026884 0)
(0.00695958 -0.0267831 0)
(0.0216258 -0.120686 0)
(0.0315817 -0.186557 0)
(0.0372836 -0.227917 0)
(0.0428149 -0.253964 0)
(0.0200824 -0.215824 0)
(0.0831156 0.524689 0)
(0.162954 0.996056 0)
(0.117875 0.98377 0)
(0.0867945 0.999658 0)
(0.0621228 0.986258 0)
(0.0474674 0.999232 0)
(0.0351401 0.984315 0)
(0.0261348 0.993447 0)
(0.0188718 0.979105 0)
(0.0131351 0.98428 0)
(0.00837259 0.970642 0)
(0.00482544 0.974805 0)
(0.00267108 0.95746 0)
(0.00126312 0.959564 0)
(-0.0038744 0.92861 0)
(-0.00767649 0.910855 0)
(-0.00999803 0.914858 0)
(0.0303205 0.865946 0)
(0.0646986 -0.151593 0)
(0.0560501 -0.270281 0)
(0.0381656 -0.209007 0)
(0.0173618 -0.115301 0)
(0.00958601 -0.0445078 0)
(0.0230788 -0.00386411 0)
(0.0234456 -0.0351803 0)
(0.0366168 -0.135981 0)
(0.049029 -0.19491 0)
(0.0501155 -0.227003 0)
(0.0535945 -0.242344 0)
(0.0245726 -0.201869 0)
(0.0370661 0.410998 0)
(0.103001 1.0253 0)
(0.076375 0.997171 0)
(0.0544006 1.00408 0)
(0.041584 1.01454 0)
(0.0323649 0.996491 0)
(0.0243511 1.00268 0)
(0.017804 0.989185 0)
(0.0123777 0.995037 0)
(0.00788398 0.980584 0)
(0.00403428 0.985425 0)
(0.000972848 0.96839 0)
(-0.00173452 0.970368 0)
(-0.00245657 0.949715 0)
(-0.00444937 0.942949 0)
(-0.0106356 0.915496 0)
(-0.0215631 0.920683 0)
(0.0418027 0.820752 0)
(0.0666367 -0.166363 0)
(0.0476605 -0.248739 0)
(0.026254 -0.184317 0)
(0.00779481 -0.0984281 0)
(0.00745979 -0.0416528 0)
(0.00842709 0.00328142 0)
(0.0749279 -0.0610611 0)
(0.0570234 -0.150535 0)
(0.0558914 -0.197123 0)
(0.0529484 -0.221868 0)
(0.0525977 -0.226041 0)
(0.00242069 -0.17171 0)
(-0.0135539 0.3626 0)
(0.0269891 1.03808 0)
(0.0321487 1.01626 0)
(0.0191769 1.02646 0)
(0.0169453 1.00922 0)
(0.0156031 1.013 0)
(0.0120307 0.998125 0)
(0.00851572 1.0004 0)
(0.00511977 0.989807 0)
(0.00163648 0.993417 0)
(-0.00137138 0.979079 0)
(-0.00461875 0.98168 0)
(-0.00756362 0.963251 0)
(-0.00941563 0.963522 0)
(-0.0142633 0.934192 0)
(-0.0191383 0.928353 0)
(-0.0351908 0.897807 0)
(0.0458659 0.742703 0)
(0.0665565 -0.161523 0)
(0.0379778 -0.222198 0)
(0.0127415 -0.158315 0)
(0.00291055 -0.0894334 0)
(0.0031175 -0.0429582 0)
(0.00194363 0.00435513 0)
(-0.00906483 -0.166637 0)
(0.0398805 -0.16293 0)
(0.0352086 -0.198664 0)
(0.0361041 -0.20892 0)
(0.0137513 -0.210606 0)
(-0.0265989 -0.126829 0)
(-0.0629912 0.366612 0)
(-0.0491941 0.999272 0)
(-0.00969229 1.02438 0)
(-0.00831537 1.01043 0)
(-0.00270699 1.0183 0)
(0.000633632 1.00496 0)
(0.000803324 1.01019 0)
(-0.000483707 0.996972 0)
(-0.00235064 0.997055 0)
(-0.00485691 0.987819 0)
(-0.00765938 0.986575 0)
(-0.0104298 0.975371 0)
(-0.0144236 0.976166 0)
(-0.0156777 0.954656 0)
(-0.0238567 0.948503 0)
(-0.0235933 0.922432 0)
(-0.0454619 0.91051 0)
(0.0532913 0.629205 0)
(0.0624404 -0.141079 0)
(0.025561 -0.19024 0)
(0.00354109 -0.136489 0)
(-0.000774786 -0.0878164 0)
(-0.000624808 -0.0451195 0)
(-0.000520754 0.00361115 0)
(-0.00815482 -0.113141 0)
(-0.0223525 -0.194234 0)
(-0.00407433 -0.198298 0)
(-0.0126651 -0.207351 0)
(-0.0344876 -0.18348 0)
(-0.0673497 -0.0805028 0)
(-0.109767 0.387949 0)
(-0.0961614 0.96446 0)
(-0.0383831 0.994014 0)
(-0.0255096 1.00891 0)
(-0.0158308 1.00396 0)
(-0.00960751 1.01253 0)
(-0.0075722 1.00432 0)
(-0.00813005 1.00567 0)
(-0.00920361 0.994875 0)
(-0.011343 0.993939 0)
(-0.0138264 0.985371 0)
(-0.0171026 0.983124 0)
(-0.0207944 0.970215 0)
(-0.0234244 0.964162 0)
(-0.0298471 0.943558 0)
(-0.0270438 0.934865 0)
(-0.0403289 0.899456 0)
(0.066025 0.525192 0)
(0.0517466 -0.108611 0)
(0.0127429 -0.154199 0)
(-0.000182677 -0.121051 0)
(-0.00306123 -0.0876523 0)
(-0.00247481 -0.0476416 0)
(-0.000884736 0.00219222 0)
(-0.00436484 -0.108446 0)
(-0.0217625 -0.167493 0)
(-0.043488 -0.198404 0)
(-0.0570606 -0.186535 0)
(-0.078722 -0.155331 0)
(-0.123779 -0.0270558 0)
(-0.150962 0.393743 0)
(-0.107755 0.906262 0)
(-0.044549 0.975064 0)
(-0.0289012 0.984556 0)
(-0.0187014 1.0028 0)
(-0.013951 1.00369 0)
(-0.0123399 1.00568 0)
(-0.0131885 1.00203 0)
(-0.014831 1.00223 0)
(-0.0168464 0.993951 0)
(-0.0196826 0.992979 0)
(-0.0235397 0.983501 0)
(-0.028112 0.979157 0)
(-0.0319875 0.962355 0)
(-0.038709 0.951236 0)
(-0.0316942 0.922144 0)
(-0.0292007 0.877851 0)
(0.0800615 0.445618 0)
(0.0386185 -0.0659746 0)
(0.0051669 -0.120607 0)
(1.38585e-05 -0.109763 0)
(-0.00324869 -0.088032 0)
(-0.0027659 -0.0505715 0)
(-0.000618898 0.0010806 0)
(-0.00611641 -0.0976656 0)
(-0.0212041 -0.142203 0)
(-0.0540349 -0.175882 0)
(-0.0859297 -0.162944 0)
(-0.133701 -0.111551 0)
(-0.183411 0.0208517 0)
(-0.177521 0.353153 0)
(-0.0843424 0.848339 0)
(-0.0219317 0.943441 0)
(-0.0143723 0.978305 0)
(-0.0119491 0.993379 0)
(-0.0120861 1.0038 0)
(-0.0136343 1.00653 0)
(-0.0165809 1.0047 0)
(-0.0190464 1.00031 0)
(-0.0212593 0.99815 0)
(-0.0243078 0.993525 0)
(-0.0295048 0.991923 0)
(-0.0349989 0.981434 0)