/*--------------------------------*- C++ -*----------------------------------*\
| =========                 |                                                 |
| \\      /  F ield         | OpenFOAM: The Open Source CFD Toolbox           |
|  \\    /   O peration     | Version:  2.3.0                                 |
|   \\  /    A nd           | Web:      www.OpenFOAM.org                      |
|    \\/     M anipulation  |                                                 |
\*---------------------------------------------------------------------------*/
FoamFile
{
    version     2.0;
    format      ascii;
    class       volVectorField;
    location    "0.206";
    object      U;
}
// * * * * * * * * * * * * * * * * * * * * * * * * * * * * * * * * * * * * * //

dimensions      [0 1 -1 0 0 0 0];

internalField   nonuniform List<vector> 
545
(
(0.454749 0.0865385 4.22641e-29)
(0.40384 0.00696398 3.80596e-30)
(0.362424 0.0034235 -1.90006e-31)
(0.332729 0.00326896 0)
(0.301705 0.00859424 -8.48607e-31)
(0.460229 0.0265677 8.52693e-29)
(0.41643 0.0220099 1.06399e-29)
(0.362342 0.0212987 1.06076e-30)
(0.330044 0.0187816 0)
(0.297872 0.0211356 -1.22721e-30)
(0.46625 0.0432632 1.32125e-30)
(0.414746 0.0382727 5.73629e-31)
(0.358216 0.0341319 4.3576e-31)
(0.32438 0.0288592 0)
(0.292021 0.0317076 -3.98741e-31)
(0.463937 0.0608162 -1.65547e-28)
(0.399317 0.0527493 -3.40267e-30)
(0.349686 0.0464924 -2.85954e-31)
(0.315961 0.0388002 0)
(0.282325 0.0401593 -2.4052e-29)
(0.469225 0.00376512 -3.25209e-28)
(0.37153 0.075269 1.27715e-30)
(0.339823 0.0632619 2.14841e-30)
(0.30186 0.056187 7.8658e-30)
(0.263953 0.0766019 -4.00409e-29)
(0.271412 0.0069918 0)
(0.257755 0.00168395 0)
(0.25774 -1.12647e-05 0)
(0.258655 -0.000438476 0)
(0.259362 -0.000285971 0)
(0.259866 -0.000109693 0)
(0.259859 -6.35578e-05 0)
(0.260056 -2.03505e-06 0)
(0.259926 -2.04565e-05 0)
(0.260072 1.47987e-05 0)
(0.259931 -1.57347e-05 0)
(0.260069 1.61331e-05 0)
(0.259932 -1.58942e-05 0)
(0.260066 1.62128e-05 0)
(0.259935 -1.61725e-05 0)
(0.260064 1.63932e-05 0)
(0.259937 -1.63483e-05 0)
(0.260061 1.65175e-05 0)
(0.25994 -1.65424e-05 0)
(0.260058 1.67036e-05 0)
(0.259943 -1.6662e-05 0)
(0.260055 1.68393e-05 0)
(0.259947 -1.68201e-05 0)
(0.260052 1.69328e-05 0)
(0.25995 -1.69212e-05 0)
(0.260048 1.70637e-05 0)
(0.259954 -1.71785e-05 0)
(0.260045 1.72135e-05 0)
(0.259958 -1.71871e-05 0)
(0.260041 1.72899e-05 0)
(0.259961 -1.7279e-05 0)
(0.260037 1.74069e-05 0)
(0.259965 -1.73328e-05 0)
(0.260033 1.7454e-05 0)
(0.259969 -1.74111e-05 0)
(0.260029 1.74995e-05 0)
(0.259973 -1.74894e-05 0)
(0.260025 1.75583e-05 0)
(0.259977 -1.7529e-05 0)
(0.26002 1.74728e-05 0)
(0.259981 -1.73875e-05 0)
(0.260016 1.72601e-05 0)
(0.259986 -1.68341e-05 0)
(0.260011 1.63649e-05 0)
(0.25999 -1.36499e-05 0)
(0.269645 0.0148329 0)
(0.257479 0.00340532 0)
(0.258456 7.63635e-05 0)
(0.258851 -0.000562285 0)
(0.259656 -0.000325322 0)
(0.259754 -0.000167244 0)
(0.260017 -4.36822e-05 0)
(0.259909 -3.67496e-05 0)
(0.260069 9.70945e-06 0)
(0.259929 -1.69326e-05 0)
(0.260071 1.61283e-05 0)
(0.259931 -1.59766e-05 0)
(0.260068 1.63734e-05 0)
(0.259933 -1.63538e-05 0)
(0.260065 1.64624e-05 0)
(0.259936 -1.65487e-05 0)
(0.260062 1.66876e-05 0)
(0.259939 -1.68277e-05 0)
(0.26006 1.68642e-05 0)
(0.259942 -1.69802e-05 0)
(0.260056 1.70936e-05 0)
(0.259945 -1.71438e-05 0)
(0.260053 1.72309e-05 0)
(0.259948 -1.73512e-05 0)
(0.26005 1.74239e-05 0)
(0.259952 -1.74794e-05 0)
(0.260046 1.73696e-05 0)
(0.259956 -1.75727e-05 0)
(0.260043 1.76618e-05 0)
(0.259959 -1.77093e-05 0)
(0.260039 1.77359e-05 0)
(0.259963 -1.77257e-05 0)
(0.260035 1.78435e-05 0)
(0.259967 -1.78226e-05 0)
(0.260031 1.78964e-05 0)
(0.259971 -1.78907e-05 0)
(0.260027 1.79085e-05 0)
(0.259975 -1.79002e-05 0)
(0.260023 1.78921e-05 0)
(0.259979 -1.79347e-05 0)
(0.260018 1.78516e-05 0)
(0.259984 -1.76625e-05 0)
(0.260014 1.75271e-05 0)
(0.259988 -1.65134e-05 0)
(0.26001 1.61193e-05 0)
(0.266276 0.0236713 0)
(0.257054 0.00485793 0)
(0.259158 -0.000163436 0)
(0.259635 -0.000810101 0)
(0.259806 -0.000504423 0)
(0.260023 -0.000197755 0)
(0.259905 -9.95262e-05 0)
(0.260066 -1.5042e-05 0)
(0.259926 -2.50629e-05 0)
(0.260071 1.44532e-05 0)
(0.25993 -1.62295e-05 0)
(0.260069 1.662e-05 0)
(0.259932 -1.63717e-05 0)
(0.260067 1.66532e-05 0)
(0.259935 -1.67609e-05 0)
(0.260064 1.69197e-05 0)
(0.259937 -1.69409e-05 0)
(0.260061 1.69973e-05 0)
(0.25994 -1.71726e-05 0)
(0.260058 1.72292e-05 0)
(0.259943 -1.72586e-05 0)
(0.260055 1.74123e-05 0)
(0.259947 -1.7463e-05 0)
(0.260052 1.7491e-05 0)
(0.25995 -1.75386e-05 0)
(0.260048 1.76607e-05 0)
(0.259954 -1.80066e-05 0)
(0.260045 1.78393e-05 0)
(0.259957 -1.78263e-05 0)
(0.260041 1.79138e-05 0)
(0.259961 -1.80192e-05 0)
(0.260037 1.81429e-05 0)
(0.259965 -1.80643e-05 0)
(0.260033 1.81886e-05 0)
(0.259969 -1.81667e-05 0)
(0.260029 1.82509e-05 0)
(0.259973 -1.83031e-05 0)
(0.260025 1.83499e-05 0)
(0.259977 -1.83536e-05 0)
(0.260021 1.82327e-05 0)
(0.259982 -1.8224e-05 0)
(0.260016 1.81877e-05 0)
(0.259986 -1.77366e-05 0)
(0.260012 1.7855e-05 0)
(0.25999 -1.61124e-05 0)
(0.262355 0.030477 0)
(0.256782 0.00490656 0)
(0.260659 -0.000516622 0)
(0.260311 -0.000934769 0)
(0.260335 -0.000475899 0)
(0.260014 -0.000219982 0)
(0.260105 -6.47512e-05 0)
(0.259934 -4.60278e-05 0)
(0.260074 7.018e-06 0)
(0.259929 -1.77997e-05 0)
(0.26007 1.63405e-05 0)
(0.259931 -1.62508e-05 0)
(0.260068 1.6716e-05 0)
(0.259933 -1.66828e-05 0)
(0.260065 1.67736e-05 0)
(0.259936 -1.68285e-05 0)
(0.260063 1.70767e-05 0)
(0.259939 -1.72483e-05 0)
(0.26006 1.72659e-05 0)
(0.259942 -1.74222e-05 0)
(0.260057 1.7589e-05 0)
(0.259945 -1.75957e-05 0)
(0.260053 1.77482e-05 0)
(0.259948 -1.78912e-05 0)
(0.26005 1.80432e-05 0)
(0.259952 -1.80015e-05 0)
(0.260046 1.77174e-05 0)
(0.259956 -1.81054e-05 0)
(0.260043 1.83167e-05 0)
(0.259959 -1.83145e-05 0)
(0.260039 1.8265e-05 0)
(0.259963 -1.82273e-05 0)
(0.260035 1.84184e-05 0)
(0.259967 -1.83699e-05 0)
(0.260031 1.84734e-05 0)
(0.259971 -1.84469e-05 0)
(0.260027 1.84353e-05 0)
(0.259975 -1.84287e-05 0)
(0.260023 1.8476e-05 0)
(0.25998 -1.86015e-05 0)
(0.260018 1.85123e-05 0)
(0.259984 -1.83539e-05 0)
(0.260014 1.84222e-05 0)
(0.259989 -1.76387e-05 0)
(0.260011 1.81901e-05 0)
(0.259622 0.050062 0)
(0.259352 0.00489735 0)
(0.262398 -0.000616966 0)
(0.261329 -0.000771321 0)
(0.260485 -0.000374765 0)
(0.260277 -0.000111356 0)
(0.259996 -6.66575e-05 0)
(0.260093 -5.08891e-06 0)
(0.259931 -2.28583e-05 0)
(0.260071 1.55607e-05 0)
(0.259929 -1.66879e-05 0)
(0.260069 1.7009e-05 0)
(0.259932 -1.68995e-05 0)
(0.260067 1.71233e-05 0)
(0.259935 -1.73323e-05 0)
(0.260064 1.75304e-05 0)
(0.259938 -1.74993e-05 0)
(0.260061 1.75438e-05 0)
(0.25994 -1.77365e-05 0)
(0.260058 1.7775e-05 0)
(0.259944 -1.78067e-05 0)
(0.260055 1.79811e-05 0)
(0.259947 -1.80103e-05 0)
(0.260052 1.80509e-05 0)
(0.25995 -1.80519e-05 0)
(0.260048 1.83247e-05 0)
(0.259954 -1.87871e-05 0)
(0.260044 1.85091e-05 0)
(0.259957 -1.83719e-05 0)
(0.260041 1.85174e-05 0)
(0.259961 -1.87375e-05 0)
(0.260037 1.88713e-05 0)
(0.259965 -1.87888e-05 0)
(0.260033 1.89015e-05 0)
(0.259969 -1.89005e-05 0)
(0.260029 1.90104e-05 0)
(0.259973 -1.91237e-05 0)
(0.260025 1.91857e-05 0)
(0.259977 -1.91481e-05 0)
(0.260021 1.90253e-05 0)
(0.259982 -1.90833e-05 0)
(0.260016 1.91342e-05 0)
(0.259986 -1.89339e-05 0)
(0.260012 1.90158e-05 0)
(0.259991 -1.83227e-05 0)
(0.269384 1.57644e-05 0)
(0.260028 -1.55277e-05 0)
(0.26447 1.5818e-05 0)
(0.261773 -1.59975e-05 0)
(0.260755 1.61839e-05 0)
(0.260158 -1.63539e-05 0)
(0.260165 1.65207e-05 0)
(0.259951 -1.66924e-05 0)
(0.260075 1.68805e-05 0)
(0.259928 -1.70392e-05 0)
(0.26007 1.71994e-05 0)
(0.259931 -1.73572e-05 0)
(0.260068 1.74973e-05 0)
(0.259933 -1.76293e-05 0)
(0.260065 1.77752e-05 0)
(0.259936 -1.79192e-05 0)
(0.260063 1.80556e-05 0)
(0.259939 -1.81749e-05 0)
(0.26006 1.83073e-05 0)
(0.259942 -1.84209e-05 0)
(0.260057 1.85315e-05 0)
(0.259945 -1.86295e-05 0)
(0.260054 1.87332e-05 0)
(0.259949 -1.88388e-05 0)
(0.26005 1.89465e-05 0)
(0.259953 -1.90362e-05 0)
(0.260046 1.91215e-05 0)
(0.259955 -1.92066e-05 0)
(0.260043 1.92807e-05 0)
(0.259959 -1.93599e-05 0)
(0.260039 1.94216e-05 0)
(0.259963 -1.94837e-05 0)
(0.260035 1.95346e-05 0)
(0.259967 -1.95882e-05 0)
(0.260031 1.96339e-05 0)
(0.259971 -1.96801e-05 0)
(0.260027 1.97225e-05 0)
(0.259975 -1.97767e-05 0)
(0.260023 1.98002e-05 0)
(0.25998 -1.98396e-05 0)
(0.260018 1.98536e-05 0)
(0.259984 -1.98974e-05 0)
(0.260014 1.98656e-05 0)
(0.259989 -2.00916e-05 0)
(0.260012 1.96266e-05 0)
(0.469225 -0.00373634 0)
(0.37153 -0.0752979 2.47519e-31)
(0.339823 -0.0632328 -2.00343e-30)
(0.30186 -0.0562163 -7.86581e-30)
(0.263954 -0.0765723 0)
(0.463936 -0.060845 0)
(0.399317 -0.0527204 0)
(0.349686 -0.0465215 0)
(0.315962 -0.0387709 -2.44785e-30)
(0.282325 -0.040189 0)
(0.46625 -0.0432344 0)
(0.414746 -0.0383015 0)
(0.358217 -0.0341028 0)
(0.32438 -0.0288885 -1.37656e-30)
(0.292022 -0.0316779 0)
(0.460229 -0.0265965 0)
(0.41643 -0.021981 0)
(0.362342 -0.0213278 0)
(0.330044 -0.0187522 5.90932e-31)
(0.297872 -0.0211652 0)
(0.454749 -0.0865097 0)
(0.403839 -0.00699286 0)
(0.362424 -0.00339442 0)
(0.332729 -0.0032983 9.1443e-32)
(0.301705 -0.00856457 0)
(0.259621 -0.050092 0)
(0.259352 -0.00486679 0)
(0.262398 0.000586021 0)
(0.261329 0.000802607 0)
(0.260485 0.000343056 0)
(0.260277 0.000143419 0)
(0.259996 3.42579e-05 0)
(0.260093 3.78195e-05 0)
(0.259931 -1.01853e-05 0)
(0.260071 1.78166e-05 0)
(0.259929 -1.69915e-05 0)
(0.260069 1.69842e-05 0)
(0.259932 -1.73985e-05 0)
(0.260067 1.74539e-05 0)
(0.259935 -1.74963e-05 0)
(0.260064 1.75649e-05 0)
(0.259938 -1.78641e-05 0)
(0.260061 1.80627e-05 0)
(0.25994 -1.81181e-05 0)
(0.260058 1.83073e-05 0)
(0.259944 -1.85205e-05 0)
(0.260055 1.85594e-05 0)
(0.259947 -1.87135e-05 0)
(0.260052 1.885e-05 0)
(0.25995 -1.90408e-05 0)
(0.260048 1.89477e-05 0)
(0.259954 -1.86541e-05 0)
(0.260044 1.90991e-05 0)
(0.259957 -1.9381e-05 0)
(0.260041 1.93849e-05 0)
(0.259961 -1.93057e-05 0)
(0.260037 1.93142e-05 0)
(0.259965 -1.95247e-05 0)
(0.260033 1.95204e-05 0)
(0.259969 -1.96082e-05 0)
(0.260029 1.95835e-05 0)
(0.259973 -1.95223e-05 0)
(0.260025 1.95287e-05 0)
(0.259977 -1.96346e-05 0)
(0.260021 1.98141e-05 0)
(0.259982 -1.98196e-05 0)
(0.260016 1.98056e-05 0)
(0.259986 -2.01207e-05 0)
(0.260012 1.98547e-05 0)
(0.259989 -2.07356e-05 0)
(0.262355 -0.030447 0)
(0.256782 -0.00493685 0)
(0.260659 0.000547314 0)
(0.260311 0.000903683 0)
(0.260335 0.000507308 0)
(0.260014 0.000188222 0)
(0.260105 9.68459e-05 0)
(0.259934 1.35957e-05 0)
(0.260074 2.57662e-05 0)
(0.259929 -1.5288e-05 0)
(0.26007 1.70612e-05 0)
(0.259931 -1.74433e-05 0)
(0.260068 1.72557e-05 0)
(0.259933 -1.75656e-05 0)
(0.260065 1.77537e-05 0)
(0.259936 -1.79769e-05 0)
(0.260063 1.79783e-05 0)
(0.259939 -1.80579e-05 0)
(0.26006 1.82765e-05 0)
(0.259942 -1.83521e-05 0)
(0.260057 1.83904e-05 0)
(0.259945 -1.85892e-05 0)
(0.260053 1.8643e-05 0)
(0.259948 -1.87064e-05 0)
(0.26005 1.87468e-05 0)
(0.259952 -1.89665e-05 0)
(0.260046 1.94186e-05 0)
(0.259956 -1.91891e-05 0)
(0.260043 1.91326e-05 0)
(0.259959 -1.9272e-05 0)
(0.260039 1.94543e-05 0)
(0.259963 -1.96037e-05 0)
(0.260035 1.95214e-05 0)
(0.259967 -1.96664e-05 0)
(0.260031 1.96624e-05 0)
(0.259971 -1.97747e-05 0)
(0.260027 1.98798e-05 0)
(0.259975 -1.99669e-05 0)
(0.260023 1.9983e-05 0)
(0.259979 -1.99176e-05 0)
(0.260019 2.0044e-05 0)
(0.259984 -2.0266e-05 0)
(0.260014 2.02084e-05 0)
(0.259988 -2.09827e-05 0)
(0.260011 2.05054e-05 0)
(0.266276 -0.0237014 0)
(0.257054 -0.00482743 0)
(0.259158 0.000132615 0)
(0.259635 0.000841295 0)
(0.259806 0.000472848 0)
(0.260023 0.000229675 0)
(0.259905 6.72599e-05 0)
(0.260066 4.76469e-05 0)
(0.259926 -7.85449e-06 0)
(0.260071 1.87958e-05 0)
(0.25993 -1.73225e-05 0)
(0.260069 1.72304e-05 0)
(0.259932 -1.7773e-05 0)
(0.260067 1.77701e-05 0)
(0.259935 -1.79337e-05 0)
(0.260064 1.8041e-05 0)
(0.259937 -1.82818e-05 0)
(0.260061 1.84731e-05 0)
(0.25994 -1.85362e-05 0)
(0.260058 1.87077e-05 0)
(0.259943 -1.89037e-05 0)
(0.260055 1.89605e-05 0)
(0.259947 -1.91089e-05 0)
(0.260052 1.92754e-05 0)
(0.25995 -1.94168e-05 0)
(0.260048 1.94743e-05 0)
(0.259954 -1.92991e-05 0)
(0.260045 1.96263e-05 0)
(0.259957 -1.97879e-05 0)
(0.260041 1.98438e-05 0)
(0.259961 -1.98708e-05 0)
(0.260037 1.98727e-05 0)
(0.259965 -2.00689e-05 0)
(0.260033 2.00519e-05 0)
(0.259969 -2.01632e-05 0)
(0.260029 2.01684e-05 0)
(0.259973 -2.01922e-05 0)
(0.260025 2.02159e-05 0)
(0.259977 -2.02816e-05 0)
(0.260021 2.04539e-05 0)
(0.259982 -2.05218e-05 0)
(0.260016 2.05815e-05 0)
(0.259986 -2.10735e-05 0)
(0.260012 2.10605e-05 0)
(0.259989 -2.2629e-05 0)
(0.269645 -0.0148029 0)
(0.257479 -0.00343568 0)
(0.258457 -4.55931e-05 0)
(0.258851 0.000531145 0)
(0.259656 0.0003568 0)
(0.259754 0.000135408 0)
(0.260017 7.58467e-05 0)
(0.259909 4.24415e-06 0)
(0.260069 2.31345e-05 0)
(0.259929 -1.62165e-05 0)
(0.260071 1.73332e-05 0)
(0.259931 -1.77834e-05 0)
(0.260068 1.76721e-05 0)
(0.259933 -1.79727e-05 0)
(0.260065 1.81365e-05 0)
(0.259936 -1.83214e-05 0)
(0.260062 1.84333e-05 0)
(0.259939 -1.85459e-05 0)
(0.26006 1.87446e-05 0)
(0.259942 -1.88631e-05 0)
(0.260056 1.89623e-05 0)
(0.259945 -1.91265e-05 0)
(0.260053 1.92398e-05 0)
(0.259948 -1.93153e-05 0)
(0.26005 1.94314e-05 0)
(0.259952 -1.95546e-05 0)
(0.260046 1.98297e-05 0)
(0.259956 -1.97924e-05 0)
(0.260043 1.98518e-05 0)
(0.259959 -1.99453e-05 0)
(0.260039 2.0052e-05 0)
(0.259963 -2.01857e-05 0)
(0.260035 2.01813e-05 0)
(0.259967 -2.0301e-05 0)
(0.260031 2.03277e-05 0)
(0.259971 -2.04135e-05 0)
(0.260027 2.04846e-05 0)
(0.259975 -2.05585e-05 0)
(0.260023 2.06349e-05 0)
(0.259979 -2.0645e-05 0)
(0.260018 2.07722e-05 0)
(0.259984 -2.10104e-05 0)
(0.260014 2.11564e-05 0)
(0.259988 -2.21683e-05 0)
(0.26001 2.27023e-05 0)
(0.271412 -0.00702187 0)
(0.257756 -0.00165353 0)
(0.257739 -1.95118e-05 0)
(0.258655 0.000469594 0)
(0.259362 0.000254463 0)
(0.259866 0.000141524 0)
(0.259859 3.13639e-05 0)
(0.260056 3.45512e-05 0)
(0.259926 -1.23798e-05 0)
(0.260072 1.83659e-05 0)
(0.259931 -1.77296e-05 0)
(0.260069 1.76279e-05 0)
(0.259932 -1.81586e-05 0)
(0.260066 1.81181e-05 0)
(0.259935 -1.84357e-05 0)
(0.260064 1.84725e-05 0)
(0.259937 -1.87893e-05 0)
(0.260061 1.8855e-05 0)
(0.25994 -1.90781e-05 0)
(0.260058 1.91345e-05 0)
(0.259943 -1.94077e-05 0)
(0.260055 1.94288e-05 0)
(0.259947 -1.96589e-05 0)
(0.260052 1.97402e-05 0)
(0.25995 -1.99386e-05 0)
(0.260048 1.99749e-05 0)
(0.259954 -2.0035e-05 0)
(0.260045 2.0152e-05 0)
(0.259958 -2.03314e-05 0)
(0.260041 2.03713e-05 0)
(0.259961 -2.05121e-05 0)
(0.260037 2.05062e-05 0)
(0.259965 -2.06897e-05 0)
(0.260033 2.06883e-05 0)
(0.259969 -2.08067e-05 0)
(0.260029 2.08224e-05 0)
(0.259973 -2.08924e-05 0)
(0.260025 2.09158e-05 0)
(0.259977 -2.09943e-05 0)
(0.26002 2.11121e-05 0)
(0.259981 -2.1242e-05 0)
(0.260016 2.13886e-05 0)
(0.259985 -2.18634e-05 0)
(0.260011 2.23654e-05 0)
(0.25999 -2.51387e-05 0)
)
;

boundaryField
{
    AirInlet
    {
        type            fixedValue;
        value           uniform (0.1 0 0);
    }
    WaterInlet
    {
        type            fixedValue;
        value           uniform (0.5 0 0);
    }
    ChannelWall
    {
        type            fixedValue;
        value           uniform (0 0 0);
    }
    Outlet
    {
        type            pressureInletOutletVelocity;
        value           nonuniform List<vector> 
11
(
(0.25999 -1.36499e-05 0)
(0.26001 1.61193e-05 0)
(0.25999 -1.61124e-05 0)
(0.260011 1.81901e-05 0)
(0.259991 -1.83227e-05 0)
(0.260012 1.96266e-05 0)
(0.259989 -2.07356e-05 0)
(0.260011 2.05054e-05 0)
(0.259989 -2.2629e-05 0)
(0.26001 2.27023e-05 0)
(0.25999 -2.51387e-05 0)
)
;
    }
    FrontAndBack
    {
        type            empty;
    }
}


// ************************************************************************* //
