/*--------------------------------*- C++ -*----------------------------------*\
| =========                 |                                                 |
| \\      /  F ield         | OpenFOAM: The Open Source CFD Toolbox           |
|  \\    /   O peration     | Version:  2.3.0                                 |
|   \\  /    A nd           | Web:      www.OpenFOAM.org                      |
|    \\/     M anipulation  |                                                 |
\*---------------------------------------------------------------------------*/
FoamFile
{
    version     2.0;
    format      ascii;
    class       volScalarField;
    location    "0.304";
    object      epsilon;
}
// * * * * * * * * * * * * * * * * * * * * * * * * * * * * * * * * * * * * * //

dimensions      [0 2 -3 0 0 0 0];

internalField   nonuniform List<scalar> 
545
(
4.18573e+08
3.98592e+08
3.66705e+08
3.39196e+08
3.2037e+08
4.26677e+08
3.99511e+08
3.65729e+08
3.37516e+08
3.17225e+08
4.4061e+08
4.00258e+08
3.63389e+08
3.34032e+08
3.11599e+08
4.61679e+08
3.99651e+08
3.59632e+08
3.29045e+08
3.02998e+08
4.92911e+08
3.96218e+08
3.5531e+08
3.23699e+08
2.9088e+08
3.10745e+08
3.05488e+08
3.03814e+08
3.03285e+08
3.03116e+08
3.0306e+08
3.03039e+08
3.0303e+08
3.03023e+08
3.03018e+08
3.03014e+08
3.03009e+08
3.03005e+08
3.03001e+08
3.02997e+08
3.02993e+08
3.02989e+08
3.02986e+08
3.02982e+08
3.02979e+08
3.02976e+08
3.02973e+08
3.0297e+08
3.02967e+08
3.02965e+08
3.02962e+08
3.0296e+08
3.02957e+08
3.02955e+08
3.02953e+08
3.02951e+08
3.0295e+08
3.02948e+08
3.02946e+08
3.02945e+08
3.02944e+08
3.02943e+08
3.02942e+08
3.02941e+08
3.0294e+08
3.02939e+08
3.02939e+08
3.02938e+08
3.02938e+08
3.02938e+08
3.08338e+08
3.04751e+08
3.03581e+08
3.03211e+08
3.03093e+08
3.03053e+08
3.03037e+08
3.03029e+08
3.03023e+08
3.03018e+08
3.03013e+08
3.03009e+08
3.03005e+08
3.03001e+08
3.02997e+08
3.02993e+08
3.02989e+08
3.02986e+08
3.02982e+08
3.02979e+08
3.02976e+08
3.02973e+08
3.0297e+08
3.02967e+08
3.02964e+08
3.02962e+08
3.0296e+08
3.02957e+08
3.02955e+08
3.02953e+08
3.02951e+08
3.02949e+08
3.02948e+08
3.02946e+08
3.02945e+08
3.02944e+08
3.02942e+08
3.02941e+08
3.02941e+08
3.0294e+08
3.02939e+08
3.02939e+08
3.02938e+08
3.02938e+08
3.02938e+08
3.04836e+08
3.03517e+08
3.03185e+08
3.03087e+08
3.03054e+08
3.03041e+08
3.03033e+08
3.03028e+08
3.03023e+08
3.03018e+08
3.03013e+08
3.03009e+08
3.03005e+08
3.03001e+08
3.02997e+08
3.02993e+08
3.02989e+08
3.02986e+08
3.02982e+08
3.02979e+08
3.02976e+08
3.02973e+08
3.0297e+08
3.02967e+08
3.02964e+08
3.02962e+08
3.02959e+08
3.02957e+08
3.02955e+08
3.02953e+08
3.02951e+08
3.02949e+08
3.02948e+08
3.02946e+08
3.02945e+08
3.02944e+08
3.02942e+08
3.02941e+08
3.0294e+08
3.0294e+08
3.02939e+08
3.02939e+08
3.02938e+08
3.02938e+08
3.02938e+08
3.0028e+08
3.02076e+08
3.02741e+08
3.0295e+08
3.03012e+08
3.03028e+08
3.03029e+08
3.03026e+08
3.03022e+08
3.03018e+08
3.03013e+08
3.03009e+08
3.03005e+08
3.03001e+08
3.02997e+08
3.02993e+08
3.02989e+08
3.02986e+08
3.02982e+08
3.02979e+08
3.02976e+08
3.02973e+08
3.0297e+08
3.02967e+08
3.02964e+08
3.02962e+08
3.02959e+08
3.02957e+08
3.02955e+08
3.02953e+08
3.02951e+08
3.02949e+08
3.02948e+08
3.02946e+08
3.02945e+08
3.02943e+08
3.02942e+08
3.02941e+08
3.0294e+08
3.0294e+08
3.02939e+08
3.02939e+08
3.02938e+08
3.02938e+08
3.02938e+08
2.94969e+08
3.00858e+08
3.02389e+08
3.02843e+08
3.02979e+08
3.03017e+08
3.03026e+08
3.03025e+08
3.03022e+08
3.03018e+08
3.03013e+08
3.03009e+08
3.03005e+08
3.03001e+08
3.02997e+08
3.02993e+08
3.02989e+08
3.02986e+08
3.02982e+08
3.02979e+08
3.02976e+08
3.02973e+08
3.0297e+08
3.02967e+08
3.02964e+08
3.02962e+08
3.02959e+08
3.02957e+08
3.02955e+08
3.02953e+08
3.02951e+08
3.02949e+08
3.02948e+08
3.02946e+08
3.02945e+08
3.02943e+08
3.02942e+08
3.02941e+08
3.0294e+08
3.0294e+08
3.02939e+08
3.02939e+08
3.02938e+08
3.02938e+08
3.02938e+08
2.95559e+08
3.00487e+08
3.02246e+08
3.02797e+08
3.02964e+08
3.03013e+08
3.03024e+08
3.03025e+08
3.03022e+08
3.03017e+08
3.03013e+08
3.03009e+08
3.03005e+08
3.03001e+08
3.02997e+08
3.02993e+08
3.02989e+08
3.02986e+08
3.02982e+08
3.02979e+08
3.02976e+08
3.02973e+08
3.0297e+08
3.02967e+08
3.02964e+08
3.02962e+08
3.02959e+08
3.02957e+08
3.02955e+08
3.02953e+08
3.02951e+08
3.02949e+08
3.02948e+08
3.02946e+08
3.02945e+08
3.02943e+08
3.02942e+08
3.02941e+08
3.0294e+08
3.0294e+08
3.02939e+08
3.02938e+08
3.02938e+08
3.02938e+08
3.02938e+08
4.92911e+08
3.96218e+08
3.5531e+08
3.23699e+08
2.9088e+08
4.61679e+08
3.99651e+08
3.59632e+08
3.29045e+08
3.02998e+08
4.4061e+08
4.00258e+08
3.63389e+08
3.34032e+08
3.11599e+08
4.26677e+08
3.99511e+08
3.65729e+08
3.37516e+08
3.17225e+08
4.18573e+08
3.98592e+08
3.66705e+08
3.39196e+08
3.2037e+08
2.94969e+08
3.00858e+08
3.02389e+08
3.02843e+08
3.02979e+08
3.03017e+08
3.03026e+08
3.03025e+08
3.03022e+08
3.03018e+08
3.03013e+08
3.03009e+08
3.03005e+08
3.03001e+08
3.02997e+08
3.02993e+08
3.02989e+08
3.02986e+08
3.02982e+08
3.02979e+08
3.02976e+08
3.02973e+08
3.0297e+08
3.02967e+08
3.02964e+08
3.02962e+08
3.02959e+08
3.02957e+08
3.02955e+08
3.02953e+08
3.02951e+08
3.02949e+08
3.02948e+08
3.02946e+08
3.02945e+08
3.02943e+08
3.02942e+08
3.02941e+08
3.0294e+08
3.0294e+08
3.02939e+08
3.02939e+08
3.02938e+08
3.02938e+08
3.02938e+08
3.0028e+08
3.02076e+08
3.02741e+08
3.0295e+08
3.03012e+08
3.03028e+08
3.03029e+08
3.03026e+08
3.03022e+08
3.03018e+08
3.03013e+08
3.03009e+08
3.03005e+08
3.03001e+08
3.02997e+08
3.02993e+08
3.02989e+08
3.02986e+08
3.02982e+08
3.02979e+08
3.02976e+08
3.02973e+08
3.0297e+08
3.02967e+08
3.02964e+08
3.02962e+08
3.02959e+08
3.02957e+08
3.02955e+08
3.02953e+08
3.02951e+08
3.02949e+08
3.02948e+08
3.02946e+08
3.02945e+08
3.02943e+08
3.02942e+08
3.02941e+08
3.0294e+08
3.0294e+08
3.02939e+08
3.02939e+08
3.02938e+08
3.02938e+08
3.02938e+08
3.04836e+08
3.03517e+08
3.03185e+08
3.03087e+08
3.03054e+08
3.03041e+08
3.03033e+08
3.03028e+08
3.03023e+08
3.03018e+08
3.03013e+08
3.03009e+08
3.03005e+08
3.03001e+08
3.02997e+08
3.02993e+08
3.02989e+08
3.02986e+08
3.02982e+08
3.02979e+08
3.02976e+08
3.02973e+08
3.0297e+08
3.02967e+08
3.02964e+08
3.02962e+08
3.02959e+08
3.02957e+08
3.02955e+08
3.02953e+08
3.02951e+08
3.02949e+08
3.02948e+08
3.02946e+08
3.02945e+08
3.02944e+08
3.02942e+08
3.02941e+08
3.0294e+08
3.0294e+08
3.02939e+08
3.02939e+08
3.02938e+08
3.02938e+08
3.02938e+08
3.08338e+08
3.04751e+08
3.03581e+08
3.03211e+08
3.03093e+08
3.03053e+08
3.03037e+08
3.03029e+08
3.03023e+08
3.03018e+08
3.03013e+08
3.03009e+08
3.03005e+08
3.03001e+08
3.02997e+08
3.02993e+08
3.02989e+08
3.02986e+08
3.02982e+08
3.02979e+08
3.02976e+08
3.02973e+08
3.0297e+08
3.02967e+08
3.02964e+08
3.02962e+08
3.0296e+08
3.02957e+08
3.02955e+08
3.02953e+08
3.02951e+08
3.02949e+08
3.02948e+08
3.02946e+08
3.02945e+08
3.02944e+08
3.02942e+08
3.02941e+08
3.02941e+08
3.0294e+08
3.02939e+08
3.02939e+08
3.02938e+08
3.02938e+08
3.02938e+08
3.10745e+08
3.05488e+08
3.03814e+08
3.03285e+08
3.03116e+08
3.0306e+08
3.03039e+08
3.0303e+08
3.03023e+08
3.03018e+08
3.03014e+08
3.03009e+08
3.03005e+08
3.03001e+08
3.02997e+08
3.02993e+08
3.02989e+08
3.02986e+08
3.02982e+08
3.02979e+08
3.02976e+08
3.02973e+08
3.0297e+08
3.02967e+08
3.02965e+08
3.02962e+08
3.0296e+08
3.02957e+08
3.02955e+08
3.02953e+08
3.02951e+08
3.0295e+08
3.02948e+08
3.02946e+08
3.02945e+08
3.02944e+08
3.02943e+08
3.02942e+08
3.02941e+08
3.0294e+08
3.02939e+08
3.02939e+08
3.02938e+08
3.02938e+08
3.02938e+08
)
;

boundaryField
{
    AirInlet
    {
        type            fixedValue;
        value           uniform 0.1;
    }
    WaterInlet
    {
        type            fixedValue;
        value           uniform 0.1;
    }
    ChannelWall
    {
        type            fixedValue;
        value           uniform 0.1;
    }
    Outlet
    {
        type            inletOutlet;
        inletValue      uniform 0.1;
        value           nonuniform List<scalar> 
11
(
3.02938e+08
3.02938e+08
3.02938e+08
3.02938e+08
3.02938e+08
3.02938e+08
3.02938e+08
3.02938e+08
3.02938e+08
3.02938e+08
3.02938e+08
)
;
    }
    FrontAndBack
    {
        type            empty;
    }
}


// ************************************************************************* //
