/*--------------------------------*- C++ -*----------------------------------*\
| =========                 |                                                 |
| \\      /  F ield         | OpenFOAM: The Open Source CFD Toolbox           |
|  \\    /   O peration     | Version:  2.3.0                                 |
|   \\  /    A nd           | Web:      www.OpenFOAM.org                      |
|    \\/     M anipulation  |                                                 |
\*---------------------------------------------------------------------------*/
FoamFile
{
    version     2.0;
    format      ascii;
    class       volScalarField;
    location    "0.304";
    object      p;
}
// * * * * * * * * * * * * * * * * * * * * * * * * * * * * * * * * * * * * * //

dimensions      [1 -1 -2 0 0 0 0];

internalField   nonuniform List<scalar> 
545
(
-7.60335e+07
-1.41627e+07
-2.05586e+06
-2.63475e+06
-8.30485e+06
5.43919e+07
-3.02533e+06
-2.39612e+06
-2.53953e+06
-6.7797e+06
9.47149e+07
3.22913e+06
-522209
-568786
-7.10618e+06
5.48702e+07
-3.19547e+06
-1.94657e+06
-299824
-6.34515e+06
-8.74613e+07
-2.40291e+06
-606004
3.8396e+06
1.10034e+07
-6.96022e+06
-1.83623e+06
-800843
-140571
-28485.8
-16503.6
-30548.4
-35284.4
-37047.6
-37824.9
-39092.1
-39956.5
-40954.6
-41301.8
-41865.3
-41635.5
-41827.6
-41492.2
-41601.7
-41351.6
-41634.4
-41400.1
-41750.7
-41444.6
-41703.4
-41290.6
-41343.6
-40594.5
-40355
-39232.8
-38570.8
-36901.8
-35748.2
-33577.7
-31949.9
-29559.3
-27568
-24626.6
-22511.8
-19153.4
-16571.3
-12886.7
-9938.09
-6037.23
-3181.5
-6.19264e+06
-1.17626e+06
-760457
-252862
-126262
-66792.7
-51535.8
-42754.6
-39418.7
-38506.6
-39100
-39967.7
-40786.3
-41322.7
-41711.8
-41678.5
-41632.2
-41547.3
-41416.2
-41421.5
-41445.9
-41472.3
-41576.8
-41552.3
-41511.9
-41412.7
-41195
-40705.9
-40187.1
-39358.5
-38403.2
-37032.8
-35557.1
-33726.2
-31761.1
-29729.7
-27434.1
-24769.6
-22365.4
-19342.9
-16397.4
-13063.5
-9671.92
-5959.34
-1952.91
-7.31643e+06
-606449
-473913
-123365
-89074.4
-59228.6
-53085.5
-44179.9
-40581.8
-38696.6
-39538
-39779.7
-41043.4
-41027.6
-41989.2
-41367.1
-41869.7
-41253.9
-41663.8
-41129.7
-41723.4
-41157.2
-41892.9
-41239.1
-41799.8
-41109.4
-41522.5
-40365.1
-40509.6
-39024.2
-38759.8
-36677.1
-35900.2
-33348.9
-32039
-29408
-27786.4
-24366.2
-22763.8
-19015.7
-16794.4
-12712.5
-9989.62
-5536.43
-2831.66
-7.77001e+06
506216
87434.6
101379
-14729.1
-37218.4
-49665.4
-43473.2
-41405.4
-38538.1
-40145
-39460.5
-41463.3
-40570.8
-42470.5
-40909.7
-42254.7
-40856.9
-42040.8
-40731.8
-42149.3
-40715.9
-42365.9
-40808.1
-42187.8
-40717.6
-41951.7
-39915.5
-40917.8
-38581.3
-39244.8
-36202.4
-36350.9
-32867.9
-32331.7
-29054.1
-28175.3
-23851.9
-23254.2
-18620.1
-17306
-12256
-10418.6
-4742.48
-2232.35
-1.64529e+06
2.99208e+06
994318
281646
5416.01
-39981
-51923.9
-43380.9
-42712.1
-38199.6
-40981
-38919.6
-42099.8
-39794.2
-43317.9
-40097
-42926.5
-40215.8
-42645.9
-40078.3
-42884.8
-39917.5
-43211
-39999.4
-42898.9
-40011.5
-42735.9
-39070.3
-41695.4
-37714.5
-40173
-35237.9
-37280.5
-31943.6
-32912.4
-28431.9
-28964.3
-22753.8
-24319.1
-17723.2
-18325.6
-11337
-11308.2
-3819.92
-3929.26
-1.2288e+07
4.52057e+06
1.66628e+06
386281
10030.8
-47996.8
-54349.4
-46167.9
-40091.5
-36802.7
-36380.9
-35917.9
-37242.5
-39520.5
-41601.5
-39639.2
-37893.7
-37787.7
-39175.5
-37637
-38202.6
-40649.5
-41313.3
-40003.6
-37404.3
-36637.9
-37921.6
-37510.5
-36707.5
-37123.8
-38140.8
-37089.6
-35110.8
-31829.8
-25895.8
-23017.5
-22737.9
-21525
-16074.3
-14467.3
-14505.3
-13287.7
-9396.64
-5131.3
-215.846
-8.74423e+07
-2.38785e+06
-595033
3.84772e+06
1.10085e+07
5.48894e+07
-3.18074e+06
-1.93589e+06
-291642
-6.33985e+06
9.4734e+07
3.24374e+06
-511530
-560496
-7.10074e+06
5.44109e+07
-3.01079e+06
-2.38534e+06
-2.53157e+06
-6.77448e+06
-7.60148e+07
-1.41482e+07
-2.04503e+06
-2.62705e+06
-8.29957e+06
-1.64211e+06
2.98964e+06
997123
279454
8254.23
-42336.8
-48938.1
-46554.5
-40208.6
-41269.9
-38362.1
-41808.4
-39254.5
-42702.7
-40095.1
-43041.7
-39982.1
-43187.5
-39652
-43108.4
-39872.7
-43121.5
-39866.8
-43164.2
-39869.1
-43061.8
-39590.1
-42157.8
-38529.4
-40868.9
-36681
-38643.5
-33793.8
-35210
-29903.1
-31451.8
-25854.5
-25800.7
-21215.4
-20765.9
-15002.6
-14888
-7832.3
-7841.86
-1073.34
-7.76697e+06
505182
89462.9
100818
-12651
-38124.3
-47920.8
-45543.2
-40581.8
-40695.5
-38986.4
-41163.5
-39884.8
-42088.3
-40594.6
-42437.4
-40600.9
-42485.7
-40395.7
-42420.4
-40516
-42481.2
-40523.6
-42526
-40516.7
-42380.2
-40170.9
-41568.6
-39108.4
-40229
-37243.2
-37973.4
-34382.1
-34618.5
-30645.8
-30697.2
-26390.6
-25504.2
-21481.5
-20258.2
-15449.9
-14188.3
-8593.13
-6998.84
-680.266
-7.31367e+06
-605919
-472554
-122533
-87633.3
-58853.6
-52432.5
-45402.2
-41236.2
-40136.4
-39657.5
-40474.4
-40549.9
-41360.6
-41246.8
-41706.4
-41305.5
-41729.5
-41172.7
-41669.9
-41262.6
-41708
-41309.2
-41745.4
-41278.1
-41573.4
-40912.7
-40781
-39855.9
-39388
-38005.6
-37091.5
-35181.2
-33804.4
-31470.3
-29833
-27157.1
-24791.1
-22149.4
-19446.5
-16180.2
-13316.9
-9448.66
-6448.57
-2648.75
-6.18959e+06
-1.1749e+06
-758996
-251292
-124755
-65810.8
-51244.3
-43825.1
-40803.1
-39895.6
-39783
-40367.2
-40663.7
-41231.2
-41345.8
-41583.8
-41423.3
-41617.5
-41324
-41570.7
-41386.1
-41607.7
-41440.8
-41637.5
-41374.7
-41455.4
-40978.7
-40679.3
-39905.1
-39262.3
-38059.3
-36951.7
-35252
-33699.4
-31541
-29712.2
-27185.5
-24750
-22135.5
-19348.4
-16220.4
-13176.6
-9621.17
-6276.79
-1993.64
-6.95673e+06
-1.83436e+06
-799301
-138652
-26899.1
-15208.5
-30341.6
-36353.7
-38748.8
-39297
-40013.3
-40306.5
-40957.1
-41077.5
-41611.2
-41404.8
-41712.8
-41436.1
-41628.5
-41384.2
-41697.4
-41409
-41757.2
-41407.7
-41673.9
-41203.4
-41239.7
-40427.7
-40173.9
-38984.8
-38346.5
-36656.4
-35554.8
-33396.2
-31809
-29401.8
-27416.3
-24470.9
-22374.9
-19042.1
-16503
-12885
-9979.37
-6260.28
-3485.39
)
;

boundaryField
{
    AirInlet
    {
        type            calculated;
        value           uniform -1.22853e+07;
    }
    WaterInlet
    {
        type            calculated;
        value           nonuniform List<scalar> 10(-7.60335e+07 5.43919e+07 9.47149e+07 5.48702e+07 -8.74613e+07 -8.74423e+07 5.48894e+07 9.4734e+07 5.44109e+07 -7.60148e+07);
    }
    ChannelWall
    {
        type            calculated;
        value           nonuniform List<scalar> 
110
(
-8.74613e+07
-2.40291e+06
-606004
3.8396e+06
1.10034e+07
-8.74423e+07
-2.38785e+06
-595033
3.84772e+06
1.10085e+07
-7.60148e+07
-1.41482e+07
-2.04503e+06
-2.62705e+06
-8.29957e+06
-6.95673e+06
-1.83436e+06
-799301
-138652
-26899.2
-15208.5
-30341.6
-36353.8
-38748.9
-39297.1
-40013.4
-40306.5
-40957.2
-41077.5
-41611.2
-41404.9
-41712.8
-41436.1
-41628.6
-41384.2
-41697.4
-41409.1
-41757.3
-41407.7
-41673.9
-41203.5
-41239.7
-40427.7
-40173.9
-38984.8
-38346.5
-36656.5
-35554.9
-33396.3
-31809.1
-29401.9
-27416.3
-24470.9
-22375
-19042.1
-16503.1
-12885.1
-9979.42
-6260.32
-3485.44
-7.60335e+07
-1.41627e+07
-2.05586e+06
-2.63475e+06
-8.30485e+06
-6.96022e+06
-1.83623e+06
-800843
-140571
-28485.8
-16503.5
-30548.4
-35284.3
-37047.5
-37824.9
-39092.1
-39956.5
-40954.5
-41301.7
-41865.2
-41635.4
-41827.6
-41492.2
-41601.7
-41351.5
-41634.3
-41400.1
-41750.7
-41444.5
-41703.4
-41290.6
-41343.6
-40594.5
-40355
-39232.8
-38570.7
-36901.7
-35748.2
-33577.7
-31949.9
-29559.2
-27568
-24626.5
-22511.7
-19153.4
-16571.3
-12886.7
-9938.05
-6037.18
-3181.46
)
;
    }
    Outlet
    {
        type            calculated;
        value           nonuniform List<scalar> 
11
(
-0.044145
-0.132435
-0.220725
-0.308996
-0.395448
-0.411251
-0.580955
-0.671943
-0.760274
-0.848565
-0.936855
)
;
    }
    FrontAndBack
    {
        type            empty;
    }
}


// ************************************************************************* //
