/*--------------------------------*- C++ -*----------------------------------*\
| =========                 |                                                 |
| \\      /  F ield         | OpenFOAM: The Open Source CFD Toolbox           |
|  \\    /   O peration     | Version:  2.3.0                                 |
|   \\  /    A nd           | Web:      www.OpenFOAM.org                      |
|    \\/     M anipulation  |                                                 |
\*---------------------------------------------------------------------------*/
FoamFile
{
    version     2.0;
    format      ascii;
    class       surfaceScalarField;
    location    "3.39753";
    object      phi.air;
}
// * * * * * * * * * * * * * * * * * * * * * * * * * * * * * * * * * * * * * //

dimensions      [0 3 -1 0 0 0 0];

internalField   nonuniform List<scalar> 
2650
(
-6.17455e-08
1.01042e-07
-3.36194e-08
-8.03239e-08
3.6102e-08
-1.17691e-08
-7.16841e-08
9.67897e-09
-1.23033e-08
-4.22249e-08
-8.72896e-09
-1.43699e-08
-5.52986e-09
-2.02389e-08
-9.81544e-09
2.85944e-08
-2.04004e-08
-7.04289e-09
6.22814e-08
-1.90908e-08
-7.98062e-09
8.30859e-08
-8.95644e-09
-5.36948e-09
8.04053e-08
1.72189e-08
-8.22963e-09
4.6187e-09
1.17934e-07
-3.64514e-08
-5.42223e-08
1.08757e-07
-4.4441e-08
-6.0909e-08
2.43772e-08
-1.20414e-08
-6.01686e-08
1.03863e-08
-5.09832e-09
-5.48947e-08
2.33942e-09
-1.34893e-09
-4.01057e-08
-4.98962e-09
-3.41798e-09
-1.12213e-08
-1.40884e-08
-8.19283e-09
2.40418e-08
-2.22725e-08
-6.22864e-09
5.60532e-08
-2.2905e-08
-2.46361e-09
7.45393e-08
-8.80398e-09
-3.41024e-09
9.1575e-08
-1.15647e-08
-5.04191e-08
1.52285e-07
-2.66475e-10
-6.36813e-08
4.53237e-08
4.18285e-09
-6.1331e-08
6.88683e-09
4.3693e-10
-4.46011e-08
-2.46591e-08
-9.54708e-10
-2.5108e-08
-4.41811e-08
4.48582e-09
-6.91135e-09
-4.2298e-08
3.71328e-09
9.86643e-09
-3.85205e-08
2.64862e-09
2.76573e-08
-3.14158e-08
4.90796e-09
6.2196e-08
-1.72996e-08
-2.59271e-10
1.57768e-08
1.67279e-07
-2.29064e-09
-1.00146e-08
1.52837e-07
-1.83576e-08
-2.93441e-08
4.58286e-08
-1.83382e-09
-3.8577e-08
2.18902e-08
-2.09839e-09
-4.15123e-08
5.41802e-09
7.13698e-11
-3.62594e-08
-1.38906e-08
3.71341e-09
-1.85883e-08
-3.59237e-08
4.09212e-09
2.69188e-09
-4.47778e-08
1.11757e-09
1.74665e-08
-3.77932e-08
7.46997e-11
2.14873e-08
-1.62224e-08
3.67524e-09
1.14319e-07
-1.11318e-09
-2.38578e-08
1.72253e-07
4.119e-09
-3.68612e-08
5.83121e-08
-2.51007e-10
-3.30998e-08
4.15179e-09
-1.32246e-09
-2.22676e-08
-3.52706e-08
-2.81608e-10
-1.32112e-08
-5.43812e-08
1.20044e-09
-2.21864e-09
-5.1657e-08
-1.649e-09
9.31473e-09
-4.82067e-08
-1.89e-09
2.15818e-08
-4.12093e-08
-2.44284e-09
3.34296e-08
-3.16218e-08
2.51874e-09
3.71438e-08
1.72234e-07
-8.49882e-09
1.21963e-08
2.00171e-07
-2.22017e-08
-2.4715e-08
7.20546e-08
1.09269e-08
-2.96648e-08
2.70769e-08
-3.81687e-10
-3.40335e-08
7.67277e-09
2.10071e-09
-3.01856e-08
-2.0189e-08
2.45075e-09
-1.61186e-08
-5.1026e-08
1.03628e-09
2.66198e-09
-6.1781e-08
-1.77392e-09
1.72004e-08
-4.96089e-08
-2.78778e-09
2.04206e-08
-1.90564e-08
-3.96352e-10
1.32376e-07
2.61997e-09
-3.04624e-09
1.74814e-07
4.29786e-10
-1.2411e-08
6.92058e-08
-1.74178e-09
-1.01725e-08
1.85087e-09
-8.43311e-11
-8.12145e-09
-3.92612e-08
1.95753e-09
-5.09634e-09
-5.79989e-08
6.40368e-10
2.63536e-10
-5.64076e-08
-5.93386e-10
8.68209e-09
-5.49525e-08
-1.66214e-09
2.33772e-08
-5.37351e-08
-2.12442e-09
3.38566e-08
-4.56808e-08
3.99069e-09
5.42713e-08
1.51611e-07
3.86598e-10
4.04833e-08
2.25584e-07
-1.14711e-08
1.38801e-09
1.31207e-07
-2.03842e-08
-1.29897e-08
4.3455e-08
-2.11914e-09
-1.74535e-08
1.18244e-08
2.3445e-10
-1.79522e-08
-2.16261e-08
1.85701e-09
-1.00928e-08
-5.97273e-08
7.85547e-10
4.47233e-09
-7.36057e-08
-2.72875e-09
1.58406e-08
-5.75216e-08
-3.52665e-09
1.42707e-08
-1.73944e-08
-2.37135e-10
1.46218e-07
6.6327e-10
1.14191e-08
1.63178e-07
2.43573e-10
8.89044e-09
7.63273e-08
-4.83128e-09
8.05023e-09
2.9432e-09
-3.65252e-10
4.01855e-09
-3.83077e-08
3.16665e-09
1.59996e-09
-5.50591e-08
-5.28175e-10
3.29281e-09
-5.6909e-08
-1.19631e-09
9.53369e-09
-5.97529e-08
-1.86245e-09
2.31941e-08
-6.37802e-08
-3.58569e-09
3.41194e-08
-5.85531e-08
2.40609e-09
6.56619e-08
8.58661e-08
3.45927e-08
5.98968e-08
2.33255e-07
-1.74525e-09
3.30598e-08
1.7696e-07
-1.89596e-08
7.68593e-09
7.42486e-08
-5.87732e-09
-2.64167e-09
2.15702e-08
4.47069e-10
-4.11102e-09
-2.26392e-08
2.4154e-09
5.36609e-10
-6.52733e-08
8.3882e-10
1.09167e-08
-8.13973e-08
-2.56168e-09
1.7981e-08
-5.93237e-08
-5.38212e-09
1.16758e-08
-9.75382e-09
-1.5727e-09
1.56679e-07
1.43873e-09
1.83013e-08
1.41125e-07
3.88286e-09
2.28738e-08
7.31341e-08
-1.47973e-09
1.77646e-08
1.56495e-09
6.56699e-09
1.05693e-08
-3.29458e-08
1.92463e-09
6.18251e-09
-4.92197e-08
-1.4786e-09
5.58901e-09
-5.59809e-08
-1.88092e-09
1.00741e-08
-6.38149e-08
-1.86159e-09
2.12057e-08
-7.25634e-08
-3.21405e-09
3.2203e-08
-6.6711e-08
-2.50331e-09
7.21764e-08
1.10604e-08
3.48688e-08
6.45702e-08
2.19533e-07
2.1811e-08
4.91669e-08
1.96374e-07
-4.02828e-09
2.81318e-08
1.0614e-07
-1.11144e-08
1.62389e-08
3.55875e-08
-2.3693e-09
1.20724e-08
-1.78219e-08
-7.59953e-10
1.26281e-08
-6.51726e-08
-6.84335e-10
2.11248e-08
-8.67921e-08
-3.10834e-09
2.46345e-08
-5.77405e-08
-5.25057e-09
1.51539e-08
2.93655e-09
-3.50555e-09
1.71015e-07
1.08634e-09
1.64381e-08
1.19633e-07
5.13296e-09
2.51163e-08
6.07855e-08
3.71057e-09
1.97138e-08
3.92041e-11
7.19952e-09
1.28642e-08
-2.65895e-08
5.63888e-10
7.45518e-09
-4.2643e-08
-1.90583e-09
6.56736e-09
-5.46636e-08
-1.96694e-09
1.05731e-08
-6.69543e-08
-1.95211e-09
2.15212e-08
-8.23087e-08
-2.75575e-09
3.44873e-08
-7.76869e-08
-1.96799e-09
6.61846e-08
-3.87554e-08
1.83786e-08
6.2149e-08
1.90488e-07
3.32979e-08
4.94334e-08
1.97899e-07
1.12283e-08
3.46174e-08
1.30728e-07
-9.89907e-09
2.51819e-08
5.31004e-08
-8.2356e-09
2.04894e-08
-8.23062e-09
-4.94541e-09
2.05932e-08
-6.21566e-08
-3.14207e-09
2.81496e-08
-9.27916e-08
-1.52239e-09
3.40134e-08
-5.98984e-08
-3.88778e-09
2.21474e-08
1.74196e-08
-2.94422e-09
1.94463e-07
-9.15295e-10
1.18166e-08
1.02584e-07
5.25794e-09
2.26835e-08
4.45961e-08
5.42637e-09
1.87315e-08
4.27286e-10
3.84374e-09
1.16359e-08
-1.8412e-08
-1.04174e-09
6.54735e-09
-3.70448e-08
-2.11931e-09
5.85718e-09
-5.2232e-08
-1.77179e-09
9.6982e-09
-6.91836e-08
-1.68242e-09
2.0815e-08
-9.30816e-08
-1.00481e-09
3.98417e-08
-9.72623e-08
4.63684e-10
5.74361e-08
-5.89356e-08
2.51668e-09
5.48938e-08
1.5924e-07
3.37728e-08
3.97149e-08
1.97071e-07
1.60575e-08
3.01208e-08
1.4297e-07
-2.72839e-09
2.66174e-08
6.65238e-08
-9.94083e-09
2.23576e-08
2.60332e-09
-6.51259e-09
2.22399e-08
-5.65352e-08
-5.50077e-09
2.87586e-08
-1.009e-07
9.30193e-10
3.80429e-08
-6.79478e-08
-1.46393e-09
2.06619e-08
3.18055e-08
2.64377e-09
2.14804e-07
7.05935e-10
8.92668e-09
8.58409e-08
7.87944e-09
1.41725e-08
3.60228e-08
3.55916e-09
1.16552e-08
2.62688e-09
4.47041e-10
5.92373e-09
-1.28932e-08
-1.32485e-09
3.26761e-09
-3.37616e-08
-1.4752e-09
2.85867e-09
-5.06975e-08
-1.1087e-09
5.49638e-09
-7.09423e-08
-8.7239e-10
1.37536e-08
-1.01344e-07
9.11949e-13
3.45657e-08
-1.21188e-07
1.58551e-09
4.70925e-08
-7.59756e-08
4.32905e-09
4.09056e-08
1.45073e-07
1.97403e-08
2.65692e-08
1.92352e-07
1.91099e-08
2.37581e-08
1.45719e-07
2.92514e-11
2.08667e-08
8.02874e-08
-1.07616e-08
1.52206e-08
1.52752e-08
-6.93153e-09
1.35999e-08
-5.04178e-08
-4.46854e-09
1.70627e-08
-1.06625e-07
1.36936e-09
2.54237e-08
-7.74978e-08
1.05683e-09
5.16145e-09
4.74475e-08
4.25826e-09
2.17259e-07
2.82546e-09
2.35097e-09
-1.03117e-09
3.95395e-09
-4.73676e-10
2.84989e-09
-8.57549e-10
1.25419e-09
-6.54772e-10
6.83266e-10
-6.38673e-10
4.08349e-10
-4.06437e-10
8.29018e-10
-3.68506e-10
2.37891e-09
-1.44203e-10
1.1156e-08
5.45104e-10
1.68454e-08
2.05402e-09
1.10691e-08
1.22021e-08
9.20557e-09
8.25942e-09
1.27727e-08
-1.56727e-09
1.05206e-08
-5.5091e-09
6.04267e-09
-2.65935e-09
3.12514e-09
-1.45131e-09
4.40678e-09
-2.55933e-10
7.07833e-09
-3.52396e-10
-3.67012e-09
1.07435e-09
1.52855e-09
-7.44958e-08
6.76001e-08
-2.09654e-08
-8.8496e-08
1.59969e-08
-7.91489e-09
-7.88732e-08
-7.29237e-09
-8.52627e-09
-4.86098e-08
-2.76564e-08
-1.04481e-08
-1.15905e-08
-3.31754e-08
-6.91435e-09
2.2325e-08
-3.06694e-08
-3.66318e-09
5.34675e-08
-2.91359e-08
-3.46202e-09
7.96851e-08
-2.35168e-08
-1.58138e-09
9.83739e-08
-1.48971e-08
-5.54649e-09
3.33083e-08
5.15453e-08
-1.69043e-08
-5.90708e-08
7.4188e-08
-2.04726e-08
-6.65315e-08
6.97302e-09
-5.6003e-09
-6.69559e-08
3.62672e-09
-2.35311e-09
-6.07131e-08
-5.68273e-10
-8.47537e-10
-4.39666e-08
-1.16489e-08
-2.0994e-09
-1.43826e-08
-2.70556e-08
-3.9885e-09
2.27254e-08
-3.31044e-08
-3.39866e-09
5.76405e-08
-2.93314e-08
-1.42315e-09
7.78866e-08
-1.59317e-08
-1.39378e-09
7.87717e-08
-6.74631e-09
-5.04914e-08
1.19822e-07
-1.209e-09
-6.65344e-08
3.29791e-08
3.30452e-09
-6.41732e-08
-9.10423e-09
-1.13123e-10
-5.0055e-08
-4.1543e-08
-1.36204e-09
-2.77361e-08
-5.43628e-08
3.28546e-09
-7.03196e-09
-4.93068e-08
1.67807e-09
1.13018e-08
-4.54023e-08
6.29789e-10
2.83621e-08
-3.61953e-08
5.52433e-10
4.37634e-08
-3.23893e-08
1.94955e-09
5.40119e-08
4.06056e-08
-1.3212e-09
-1.07634e-09
1.22128e-07
-1.02675e-08
-2.47675e-08
2.9345e-08
-3.80402e-11
-4.11275e-08
1.90368e-08
-8.89162e-10
-4.53619e-08
3.50852e-09
3.84038e-10
-3.79547e-08
-1.76056e-08
2.29505e-09
-1.92611e-08
-4.38782e-08
2.09465e-09
2.84417e-09
-5.4453e-08
2.32952e-10
1.87019e-08
-4.48224e-08
-3.31471e-10
2.50588e-08
-1.98759e-08
1.49431e-09
1.03723e-07
-8.32706e-10
-2.4045e-08
1.50942e-07
-2.68469e-09
-3.87776e-08
4.74521e-08
-2.69006e-10
-3.53225e-08
-1.397e-08
-1.6585e-10
-2.39058e-08
-5.24469e-08
-8.13038e-10
-1.33588e-08
-6.53774e-08
1.73864e-09
-1.25279e-09
-6.22739e-08
-7.74957e-10
1.12891e-08
-5.89621e-08
-8.83213e-10
2.58016e-08
-5.11265e-08
-2.03832e-09
3.92776e-08
-4.3763e-08
2.92256e-10
5.72021e-08
1.85527e-08
-3.83965e-09
2.19753e-08
1.48317e-07
-1.27102e-08
-2.1657e-08
8.00913e-08
3.68532e-09
-3.28074e-08
3.03282e-08
-6.82171e-10
-3.61946e-08
7.9802e-09
9.63753e-10
-3.08171e-08
-2.19622e-08
1.40593e-09
-1.51125e-08
-5.902e-08
4.79325e-10
4.47636e-09
-7.44979e-08
-1.29241e-09
1.86923e-08
-6.00353e-08
-1.78983e-09
2.06054e-08
-2.18678e-08
-4.51743e-10
1.26252e-07
8.41736e-10
-3.35813e-09
1.57313e-07
-2.54244e-09
-1.35148e-08
5.67125e-08
-1.06663e-09
-1.10705e-08
-1.60003e-08
-7.2536e-10
-7.24448e-09
-5.50837e-08
8.32057e-10
-3.71569e-09
-6.88345e-08
6.46745e-10
1.73197e-09
-6.79373e-08
-3.30964e-10
1.01917e-08
-6.81257e-08
-1.29202e-09
2.64883e-08
-6.75786e-08
-1.91117e-09
4.46533e-08
-6.00056e-08
1.92088e-09
5.93183e-08
8.07966e-09
-3.76851e-09
7.07344e-08
1.41363e-07
-1.59813e-08
1.35803e-08
1.33072e-07
-1.64947e-08
-1.35647e-08
5.58968e-08
-6.7066e-10
-1.81606e-08
1.2773e-08
-2.17449e-11
-1.70808e-08
-2.22814e-08
1.01607e-09
-7.48909e-09
-6.83144e-08
4.73268e-10
7.30786e-09
-9.01294e-08
-1.85152e-09
1.73941e-08
-7.12661e-08
-2.31389e-09
1.49612e-08
-1.97478e-08
-1.02404e-10
1.42637e-07
-5.71842e-10
1.02196e-08
1.52035e-07
-4.80877e-09
7.10874e-09
6.06208e-08
-5.8204e-09
9.2081e-09
-1.62492e-08
-2.35306e-09
6.03287e-09
-5.16851e-08
3.05176e-09
3.13638e-09
-6.60901e-08
-3.82151e-10
4.42817e-09
-7.03191e-08
-8.72762e-10
1.11776e-08
-7.69109e-08
-1.25149e-09
2.6021e-08
-8.36744e-08
-2.93775e-09
4.23208e-08
-7.64597e-08
2.56233e-09
7.40442e-08
-3.29558e-09
1.42729e-08
8.70564e-08
1.36559e-07
-1.03207e-08
5.72016e-08
1.52641e-07
-8.6391e-09
1.42767e-08
9.92089e-08
-6.65201e-09
-1.89447e-09
2.9396e-08
-1.79975e-10
-2.17472e-09
-2.04199e-08
7.42679e-10
3.40902e-09
-7.34564e-08
3.7746e-10
1.51096e-08
-1.02716e-07
-1.64044e-09
2.04349e-08
-7.88402e-08
-3.03015e-09
1.23144e-08
-1.26883e-08
-5.20212e-10
1.56309e-07
2.30903e-10
1.69365e-08
1.38781e-07
1.35397e-10
1.97977e-08
6.09552e-08
-4.87192e-09
2.07593e-08
-1.46289e-08
4.15498e-09
1.29791e-08
-4.36364e-08
1.74992e-09
7.2998e-09
-6.04873e-08
-1.40707e-09
6.04082e-09
-7.14048e-08
-1.03901e-09
1.12932e-08
-8.42262e-08
-9.85825e-10
2.33385e-08
-9.86885e-08
-1.77351e-09
3.59318e-08
-9.00544e-08
-1.43939e-09
7.38908e-08
-3.38904e-08
2.80357e-08
9.03885e-08
1.38083e-07
3.17634e-09
8.03845e-08
1.62733e-07
-4.24388e-09
4.74618e-08
1.30965e-07
-1.0067e-08
2.21707e-08
5.40481e-08
-1.96809e-09
1.48928e-08
-1.28417e-08
-1.17074e-09
1.60687e-08
-7.46438e-08
-7.2213e-10
2.53936e-08
-1.13666e-07
-1.45147e-09
2.75633e-08
-8.36456e-08
-2.49981e-09
1.53318e-08
-2.67781e-09
-1.23177e-09
1.7201e-07
9.1957e-10
1.5569e-08
1.19103e-07
9.33688e-09
2.51256e-08
5.2699e-08
2.41724e-09
2.25884e-08
-9.91239e-09
5.33697e-09
1.46408e-08
-3.58314e-08
7.91151e-10
7.69235e-09
-5.57988e-08
-1.01719e-09
6.49746e-09
-7.21729e-08
-7.90292e-10
1.07249e-08
-8.99304e-08
-6.08306e-10
2.20883e-08
-1.13319e-07
-4.98419e-10
3.76949e-08
-1.07031e-07
-3.90076e-10
6.66944e-08
-5.86504e-08
1.44366e-08
8.44348e-08
1.39485e-07
1.38998e-08
7.80714e-08
1.74941e-07
5.22109e-09
5.71536e-08
1.48153e-07
-6.21418e-09
3.35923e-08
7.32274e-08
-3.94942e-09
2.25945e-08
-2.85544e-09
-3.95596e-09
2.19744e-08
-7.50286e-08
-2.17499e-09
3.222e-08
-1.25009e-07
-3.81962e-10
3.61125e-08
-9.00577e-08
-1.25781e-09
2.28469e-08
8.69835e-09
-1.17531e-09
1.95724e-07
-1.45449e-09
1.15265e-08
1.04807e-07
8.17003e-09
2.32981e-08
4.04837e-08
6.08415e-09
2.08604e-08
-7.44549e-09
4.04406e-09
1.18435e-08
-2.81385e-08
-4.68393e-10
6.06308e-09
-5.28816e-08
-7.92255e-10
5.26082e-09
-7.26508e-08
-5.40505e-10
8.80714e-09
-9.49486e-08
-2.59716e-10
1.94629e-08
-1.25473e-07
3.93337e-10
4.1496e-08
-1.2993e-07
8.97888e-10
5.85367e-08
-7.76673e-08
4.76547e-09
7.05096e-08
1.36471e-07
2.47228e-08
6.23375e-08
1.85935e-07
1.32534e-08
4.64525e-08
1.59393e-07
2.08046e-09
3.33124e-08
8.22943e-08
-5.85373e-09
2.39231e-08
5.68958e-09
-5.57773e-09
2.09209e-08
-7.47444e-08
-2.77443e-09
3.15561e-08
-1.36705e-07
6.95103e-10
3.80537e-08
-9.80747e-08
1.64466e-10
2.29951e-08
2.43126e-08
1.76912e-09
2.22289e-07
-2.56522e-09
9.22571e-09
9.58933e-08
7.65726e-09
1.3598e-08
3.54325e-08
4.36474e-09
1.10692e-08
-5.23857e-09
8.81312e-10
5.24494e-09
-2.46907e-08
-4.77642e-10
2.58902e-09
-5.14185e-08
-4.94675e-10
2.11258e-09
-7.31219e-08
-2.041e-10
4.4163e-09
-9.81091e-08
-9.8365e-11
1.13368e-08
-1.32963e-07
4.28208e-10
3.28185e-08
-1.52173e-07
4.35926e-10
4.61034e-08
-9.11014e-08
4.5497e-09
5.11608e-08
1.33442e-07
1.75082e-08
4.43972e-08
1.91104e-07
2.08326e-08
3.47835e-08
1.6153e-07
7.62464e-09
2.60146e-08
9.098e-08
-1.05968e-08
1.50372e-08
1.56083e-08
-5.77629e-09
1.09105e-08
-7.32855e-08
-1.7611e-09
1.62891e-08
-1.43852e-07
6.95116e-10
2.3221e-08
-1.04586e-07
1.11542e-09
7.26119e-09
4.20331e-08
2.08267e-09
2.3251e-07
-1.16172e-11
1.83393e-09
-8.60854e-10
3.3813e-09
-6.65689e-11
2.1847e-09
-3.11571e-10
8.95504e-10
-2.00747e-10
4.83806e-10
-1.21012e-10
3.17845e-10
3.8704e-12
6.59756e-10
6.96907e-12
1.78789e-09
1.48413e-10
9.39168e-09
1.52854e-11
1.60441e-08
1.35408e-09
1.81154e-08
1.15655e-08
1.83821e-08
1.05761e-08
1.72449e-08
2.22578e-09
1.26186e-08
-6.87282e-09
6.02172e-09
-2.13941e-09
2.50488e-09
-3.35587e-10
3.3026e-09
1.14001e-10
6.47507e-09
2.53654e-10
-3.66727e-09
1.54684e-10
3.84295e-10
-7.78347e-08
4.28879e-08
2.01555e-08
-9.05625e-08
4.62609e-09
6.19712e-09
-8.08064e-08
-1.78393e-08
5.78308e-09
-5.12192e-08
-3.87438e-08
5.35037e-09
-1.42284e-08
-3.9983e-08
2.84293e-09
2.06023e-08
-3.267e-08
7.19958e-10
5.17031e-08
-2.96068e-08
1.5073e-09
7.84074e-08
-2.27692e-08
8.32107e-10
9.88375e-08
-2.36685e-08
4.18996e-09
4.51685e-08
2.68848e-08
1.62043e-08
-5.69208e-08
6.67702e-08
2.09097e-08
-6.68072e-08
3.64311e-09
6.58776e-09
-6.83915e-08
1.56483e-09
3.77386e-09
-6.22024e-08
-2.53124e-09
1.73622e-09
-4.51068e-08
-1.60811e-08
3.34089e-09
-1.50523e-08
-3.20132e-08
4.71797e-09
2.20089e-08
-3.78797e-08
4.28154e-09
5.73372e-08
-3.19919e-08
1.87156e-09
7.86766e-08
-1.84476e-08
2.04563e-09
7.02128e-08
7.4685e-09
-5.22112e-08
9.35452e-08
1.0934e-09
-6.68435e-08
2.51094e-08
-2.62469e-09
-6.52445e-08
-1.97798e-08
2.5979e-10
-5.35913e-08
-5.38933e-08
2.07899e-09
-2.87988e-08
-6.05999e-08
-1.02621e-09
-6.7916e-09
-5.29309e-08
-2.04949e-11
1.21215e-08
-4.90746e-08
1.28677e-09
2.84826e-08
-3.84256e-08
5.3996e-11
4.49562e-08
-3.57764e-08
-2.24925e-09
6.43502e-08
6.35192e-09
-1.92078e-10
2.89279e-09
1.08451e-07
1.06197e-08
-2.36047e-08
2.89901e-08
1.55609e-09
-4.19658e-08
1.83357e-08
9.80747e-10
-4.62928e-08
3.00949e-09
-6.22144e-10
-3.83523e-08
-1.84883e-08
-3.26199e-09
-1.91938e-08
-4.64401e-08
-2.82786e-09
3.06658e-09
-5.90237e-08
-1.05142e-09
1.90926e-08
-4.82731e-08
-1.0158e-10
2.60988e-08
-2.15271e-08
-2.18894e-09
9.47374e-08
8.28698e-10
-2.35385e-08
1.12231e-07
2.64804e-09
-3.95746e-08
3.91576e-08
1.50196e-09
-3.61555e-08
-2.53553e-08
1.78805e-09
-2.67953e-08
-6.56115e-08
1.58371e-09
-1.34078e-08
-7.13834e-08
-9.24503e-10
-6.15456e-10
-6.81294e-08
8.50789e-10
1.21739e-08
-6.44204e-08
1.68818e-09
2.6063e-08
-5.58426e-08
1.49687e-09
4.23697e-08
-4.88789e-08
-2.84099e-09
5.61784e-08
-1.32341e-08
2.13195e-09
2.76777e-08
1.14737e-07
1.01293e-08
-1.91957e-08
8.2902e-08
-3.63617e-09
-3.34901e-08
3.18927e-08
-7.77002e-11
-3.67342e-08
8.41066e-09
-1.25736e-09
-3.02867e-08
-2.18685e-08
-1.70543e-09
-1.36808e-08
-6.1861e-08
-7.16267e-10
5.72904e-09
-8.08582e-08
1.181e-09
1.93208e-08
-6.54238e-08
1.79656e-09
2.02981e-08
-2.33787e-08
3.95992e-10
1.16785e-07
-8.16228e-10
-1.84802e-09
1.09056e-07
2.5569e-09
-1.4296e-08
4.85334e-08
1.75436e-09
-1.19207e-08
-2.94728e-08
8.22372e-10
-7.47545e-09
-6.90522e-08
-1.09589e-10
-3.38168e-09
-7.45095e-08
-2.78875e-10
2.37113e-09
-7.60407e-08
5.61251e-10
1.09047e-08
-7.59392e-08
7.7129e-10
2.62604e-08
-7.55684e-08
2.52548e-09
4.85361e-08
-6.73493e-08
-1.80386e-09
6.65316e-08
-3.41546e-08
-4.91261e-10
7.94903e-08
8.19789e-08
4.17972e-09
1.8442e-08
1.16227e-07
1.14004e-08
-1.28682e-08
6.0949e-08
1.41954e-09
-1.81755e-08
1.39085e-08
-2.73206e-10
-1.61714e-08
-2.14822e-08
-1.47154e-09
-5.66079e-09
-7.11431e-08
-8.00549e-10
9.22465e-09
-9.92439e-08
1.71758e-09
1.81937e-08
-7.89261e-08
2.30093e-09
1.59301e-08
-2.14898e-08
9.68917e-11
1.31806e-07
5.61961e-10
1.34488e-08
8.60618e-08
4.80259e-09
7.16985e-09
4.34094e-08
5.4743e-09
8.44938e-09
-3.55762e-08
2.51007e-09
7.59442e-09
-6.30257e-08
-2.11306e-09
3.82524e-09
-7.15629e-08
4.73609e-10
4.66011e-09
-7.93525e-08
9.0095e-10
1.16292e-08
-8.70429e-08
1.38318e-09
2.57714e-08
-9.54381e-08
1.92895e-09
4.77704e-08
-8.70064e-08
2.64547e-10
7.86362e-08
-4.97077e-08
-9.36734e-10
9.27429e-08
4.92159e-08
8.3778e-09
7.08329e-08
1.19765e-07
9.91242e-09
1.93877e-08
9.95552e-08
6.00815e-09
-1.3564e-09
3.57593e-08
-1.49472e-09
-1.31317e-09
-1.83985e-08
-2.48925e-09
5.15229e-09
-7.61743e-08
-1.12229e-09
1.72962e-08
-1.14464e-07
1.49676e-09
2.15051e-08
-8.91279e-08
3.06959e-09
1.38737e-08
-1.50216e-08
5.78315e-10
1.46503e-07
-4.08063e-10
1.8849e-08
6.79125e-08
-5.17382e-10
1.87919e-08
3.39335e-08
4.73503e-09
2.15033e-08
-3.14468e-08
-2.70716e-09
1.5341e-08
-5.31222e-08
-1.92279e-09
7.27933e-09
-6.62713e-08
1.24184e-09
5.68623e-09
-7.99933e-08
9.57674e-10
1.10827e-08
-9.50388e-08
1.02798e-09
2.32582e-08
-1.12346e-07
1.43428e-09
3.69974e-08
-1.02774e-07
7.19272e-10
8.72905e-08
-5.451e-08
-1.7846e-08
9.51419e-08
4.34832e-08
1.09705e-09
9.13223e-08
1.13342e-07
6.00105e-09
6.00826e-08
1.14762e-07
6.06198e-09
2.6811e-08
6.62102e-08
7.39445e-10
1.62974e-08
-9.15352e-09
-1.83117e-12
1.6995e-08
-7.81488e-08
4.89984e-10
2.66735e-08
-1.27086e-07
1.52398e-09
2.80196e-08
-9.55117e-08
2.61972e-09
1.63747e-08
-5.9303e-09
1.35653e-09
1.65095e-07
-1.10956e-09
1.40149e-08
7.23212e-08
-9.26502e-09
2.38015e-08
2.81376e-08
-1.55946e-09
2.52768e-08
-2.15979e-08
-5.92086e-09
1.48043e-08
-4.10058e-08
-7.99247e-10
7.18887e-09
-6.22648e-08
1.06953e-09
6.02826e-09
-8.0502e-08
8.67415e-10
9.88537e-09
-1.0018e-07
6.52679e-10
2.14458e-08
-1.25386e-07
3.29158e-10
3.70364e-08
-1.18835e-07
1.10271e-10
8.29832e-08
-6.76495e-08
-1.86894e-08
9.03843e-08
5.71685e-08
-7.54739e-09
9.10115e-08
1.17736e-07
-1.90238e-11
7.17797e-08
1.22385e-07
5.59175e-09
4.22177e-08
8.57041e-08
6.26207e-09
2.42918e-08
1.15917e-09
3.69769e-09
2.15798e-08
-8.01603e-08
2.52169e-09
3.20133e-08
-1.38616e-07
6.81331e-10
3.56897e-08
-1.01801e-07
1.35672e-09
2.28757e-08
4.32287e-09
1.27305e-09
1.85402e-07
1.4978e-09
8.95705e-09
7.89319e-08
-7.57646e-09
2.05782e-08
2.82833e-08
-5.78048e-09
2.13329e-08
-1.42861e-08
-3.87325e-09
1.12439e-08
-3.33321e-08
4.72955e-10
5.52216e-09
-5.95866e-08
8.41157e-10
4.74101e-09
-8.07642e-08
5.23583e-10
8.14091e-09
-1.0404e-07
2.48791e-10
1.86671e-08
-1.34973e-07
-5.02301e-10
4.08937e-08
-1.39739e-07
-1.86669e-09
6.82089e-08
-8.47395e-08
-5.68533e-09
7.76734e-08
8.0727e-08
-8.9144e-09
7.95623e-08
1.352e-07
-6.53083e-09
6.4934e-08
1.35718e-07
3.44789e-09
4.2131e-08
9.64162e-08
6.48222e-09
2.51658e-08
8.81622e-09
3.87334e-09
1.99693e-08
-8.13189e-08
3.60619e-09
2.99264e-08
-1.4827e-07
-1.75505e-10
3.69286e-08
-1.08562e-07
-9.75044e-11
2.36388e-08
2.0643e-08
-1.67992e-09
2.04365e-07
2.542e-09
7.31335e-09
8.61919e-08
-7.09833e-09
1.27403e-08
3.15702e-08
-4.36218e-09
1.01971e-08
-1.13312e-08
-9.17167e-10
4.71138e-09
-3.03769e-08
4.83909e-10
2.26873e-09
-5.80318e-08
3.98952e-10
1.85929e-09
-8.06932e-08
1.56576e-10
4.03228e-09
-1.06352e-07
2.70767e-11
1.07049e-08
-1.40995e-07
-3.28492e-10
3.16589e-08
-1.60144e-07
-2.01236e-09
5.11684e-08
-9.64927e-08
-3.39333e-09
5.84968e-08
9.52652e-08
-4.68699e-09
6.56351e-08
1.59429e-07
-1.11712e-08
5.38145e-08
1.5192e-07
3.32338e-09
3.3622e-08
1.01927e-07
4.35976e-09
1.5621e-08
1.62372e-08
4.96809e-09
1.02453e-08
-8.08463e-08
3.21508e-09
1.50372e-08
-1.53885e-07
-3.53247e-10
2.28075e-08
-1.14777e-07
-1.34227e-09
9.2381e-09
3.78339e-08
-1.99601e-09
2.1388e-07
-7.68796e-11
1.71205e-09
9.63501e-10
3.02371e-09
1.96582e-11
1.87338e-09
2.31629e-10
7.70075e-10
1.73953e-10
4.26234e-10
1.17577e-10
2.6112e-10
2.28767e-11
5.60195e-10
-1.08777e-12
1.61149e-09
-1.21293e-10
8.70894e-09
-5.88949e-10
1.79684e-08
-1.11447e-09
2.45676e-08
-4.65122e-09
3.1466e-08
-6.38201e-09
2.62149e-08
8.57792e-10
1.56666e-08
4.96789e-10
5.98585e-09
2.3443e-09
2.28628e-09
1.22831e-09
3.01544e-09
-1.02973e-10
6.87679e-09
-2.91052e-10
-2.07873e-09
-1.10053e-10
-4.11497e-10
-7.45443e-08
6.74588e-08
3.29982e-08
-8.85053e-08
1.51824e-08
1.0839e-08
-7.88744e-08
-8.50516e-09
1.07787e-08
-4.87791e-08
-2.95815e-08
1.13868e-08
-1.18683e-08
-3.4477e-08
7.1578e-09
2.18354e-08
-3.11526e-08
4.78537e-09
5.30475e-08
-2.94293e-08
6.2282e-09
7.91523e-08
-2.36939e-08
4.91144e-09
9.78868e-08
-1.57639e-08
7.6865e-09
3.37578e-08
5.18707e-08
3.44607e-08
-5.91e-08
7.30558e-08
4.64623e-08
-6.66392e-08
7.09799e-09
1.299e-08
-6.70246e-08
3.92934e-09
6.19287e-09
-6.07285e-08
-2.68353e-10
1.89364e-09
-4.38957e-08
-1.10297e-08
3.94561e-09
-1.42885e-08
-2.66791e-08
8.52302e-09
2.27968e-08
-3.29004e-08
6.93186e-09
5.77504e-08
-2.92553e-08
2.79888e-09
7.79839e-08
-1.57673e-08
3.90784e-09
7.90701e-08
1.20842e-08
-5.05794e-08
1.19613e-07
3.1319e-10
-6.63129e-08
3.21564e-08
-3.81206e-09
-6.39844e-08
-1.02714e-08
-3.04105e-10
-5.03262e-08
-4.29405e-08
1.61954e-09
-2.79045e-08
-5.49605e-08
-3.0439e-09
-7.1392e-09
-4.95037e-08
-2.41868e-09
1.13356e-08
-4.55219e-08
-1.05389e-09
2.83118e-08
-3.61952e-08
-4.39773e-09
4.26107e-08
-3.28336e-08
6.53236e-10
5.38292e-08
3.67486e-08
4.08343e-09
-1.53638e-09
1.21277e-07
1.86866e-08
-2.5155e-08
2.95624e-08
3.20892e-09
-4.12142e-08
1.91888e-08
2.03681e-09
-4.53712e-08
3.55276e-09
-1.35615e-10
-3.79546e-08
-1.75949e-08
-4.07661e-09
-1.92562e-08
-4.3905e-08
-4.42479e-09
2.85342e-09
-5.44752e-08
-1.7129e-09
1.87e-08
-4.48434e-08
-3.98765e-10
2.50616e-08
-1.98457e-08
-4.23927e-09
1.0404e-07
1.09167e-09
-2.41273e-08
1.50597e-07
-3.92796e-09
-3.86617e-08
4.69746e-08
9.43585e-10
-3.50838e-08
-1.45839e-08
2.25554e-09
-2.40167e-08
-5.34067e-08
9.67366e-10
-1.33864e-08
-6.56187e-08
-8.24151e-10
-1.32939e-09
-6.2323e-08
1.62554e-09
1.14205e-08
-5.89493e-08
2.35082e-09
2.56999e-08
-5.0788e-08
1.78149e-09
3.90125e-08
-4.46844e-08
-4.31456e-09
5.50809e-08
1.0724e-08
1.26494e-08
2.27817e-08
1.47576e-07
1.64066e-08
-2.12273e-08
8.12308e-08
-1.14749e-08
-3.27495e-08
3.02842e-08
1.93289e-10
-3.61763e-08
7.92943e-09
-2.25754e-09
-3.08398e-08
-2.20567e-08
-2.60425e-09
-1.51332e-08
-5.91532e-08
-1.16991e-09
4.47222e-09
-7.46157e-08
1.74226e-09
1.86956e-08
-6.00755e-08
2.80605e-09
2.06147e-08
-2.18653e-08
3.64256e-10
1.26611e-07
-2.62703e-09
-3.32397e-09
1.56907e-07
-3.84166e-10
-1.35052e-08
5.66203e-08
2.06297e-09
-1.10579e-08
-1.65589e-08
1.21089e-10
-7.32808e-09
-5.57209e-08
-1.4627e-09
-3.74982e-09
-6.89014e-08
-4.96891e-10
1.73319e-09
-6.79501e-08
7.46951e-10
1.0148e-08
-6.81322e-08
1.18447e-09
2.64731e-08
-6.72806e-08
2.73545e-09
4.59808e-08
-6.10997e-08
-5.07519e-09
5.99427e-08
-6.14819e-09
2.63459e-09
6.91308e-08
1.34314e-07
8.37611e-09
1.28237e-08
1.31054e-07
1.76384e-08
-1.3526e-08
5.57693e-08
2.10114e-09
-1.80383e-08
1.27266e-08
-6.23871e-10
-1.7074e-08
-2.23829e-08
-2.18564e-09
-7.47631e-09
-6.85934e-08
-9.7601e-10
7.30642e-09
-9.03622e-08
2.72456e-09
1.74031e-08
-7.13544e-08
3.5509e-09
1.49672e-08
-1.97485e-08
2.37921e-10
1.43022e-07
-6.92599e-10
1.0303e-08
1.51665e-07
-3.70034e-10
7.16734e-09
6.05407e-08
4.49392e-09
9.26111e-09
-1.68253e-08
5.51412e-10
6.09669e-09
-5.17797e-08
-2.7847e-09
3.16806e-09
-6.60832e-08
5.76917e-10
4.46011e-09
-7.0377e-08
1.21379e-09
1.12041e-08
-7.69763e-08
2.05897e-09
2.60198e-08
-8.35417e-08
2.76782e-09
4.41747e-08
-7.67375e-08
-2.40076e-09
7.36711e-08
-1.20896e-08
-2.45726e-08
8.47453e-08
1.24705e-07
6.70222e-09
5.61984e-08
1.47913e-07
2.17268e-08
1.43576e-08
9.82459e-08
4.90497e-09
-1.67791e-09
2.98886e-08
-2.80246e-09
-2.06283e-09
-2.06117e-08
-3.9575e-09
3.46129e-09
-7.4044e-08
-1.20976e-09
1.51246e-08
-1.03063e-07
2.57328e-09
2.04589e-08
-7.89648e-08
5.44901e-09
1.23286e-08
-1.2676e-08
1.62328e-09
1.56665e-07
-1.5693e-09
1.69379e-08
1.38176e-07
-4.03003e-09
1.99025e-08
6.05409e-08
1.57286e-09
2.09485e-08
-1.45028e-08
-5.92056e-09
1.30516e-08
-4.3683e-08
-2.02435e-09
7.29796e-09
-6.04959e-08
1.40358e-09
6.01829e-09
-7.14792e-08
1.83577e-09
1.12599e-08
-8.42435e-08
1.8891e-09
2.32462e-08
-9.87617e-08
3.13941e-09
3.55145e-08
-9.00489e-08
1.81888e-09
7.59276e-08
-3.19039e-08
-3.79524e-08
9.07347e-08
1.2413e-07
-1.32886e-08
8.22033e-08
1.54085e-07
8.28912e-09
4.97017e-08
1.31105e-07
5.55693e-09
2.29353e-08
5.85807e-08
-1.47551e-09
1.49582e-08
-1.2325e-08
-3.64993e-10
1.61185e-08
-7.5395e-08
6.68254e-10
2.53924e-08
-1.14037e-07
3.25893e-09
2.75823e-08
-8.37418e-08
5.32024e-09
1.5361e-08
-2.62967e-09
3.58067e-09
1.72338e-07
-1.21828e-09
1.5615e-08
1.18303e-07
-4.91325e-09
2.52142e-08
5.26302e-08
-3.26311e-09
2.25581e-08
-9.92957e-09
-7.51446e-09
1.46193e-08
-3.5831e-08
-6.32841e-10
7.684e-09
-5.58048e-08
1.93904e-09
6.50192e-09
-7.21661e-08
2.00542e-09
1.07013e-08
-8.99154e-08
1.99258e-09
2.20402e-08
-1.13415e-07
2.63793e-09
3.71661e-08
-1.06827e-07
1.94695e-09
6.79848e-08
-5.79372e-08
-2.32021e-08
8.81252e-08
1.24841e-07
-2.8459e-08
8.37303e-08
1.6492e-07
-6.62027e-09
6.26226e-08
1.49041e-07
8.70249e-09
3.57132e-08
8.25437e-08
9.07822e-09
2.25347e-08
-1.74893e-09
6.27294e-09
2.19413e-08
-7.58003e-08
3.48115e-09
3.2161e-08
-1.2527e-07
1.72868e-09
3.60954e-08
-9.00887e-08
3.87914e-09
2.2848e-08
8.76831e-09
3.00049e-09
1.96103e-07
9.06224e-10
1.16064e-08
1.0426e-07
-4.99473e-09
2.33164e-08
4.07126e-08
-5.35551e-09
2.09024e-08
-7.39511e-09
-3.76823e-09
1.18619e-08
-2.81324e-08
1.06048e-09
6.07741e-09
-5.2855e-08
2.13988e-09
5.26838e-09
-7.26395e-08
1.75773e-09
8.82433e-09
-9.49494e-08
1.67736e-09
1.9459e-08
-1.25601e-07
9.51796e-10
4.13112e-08
-1.29721e-07
-1.23941e-09
5.92259e-08
-7.79384e-08
-3.45283e-09
7.60691e-08
1.27068e-07
-2.79861e-08
7.20954e-08
1.7914e-07
-1.67297e-08
5.49594e-08
1.65417e-07
4.23773e-09
3.58455e-08
9.38751e-08
1.42463e-08
2.38228e-08
6.29547e-09
7.93711e-09
2.08328e-08
-7.52975e-08
6.09657e-09
3.15022e-08
-1.36734e-07
-6.80059e-10
3.80356e-08
-9.80912e-08
1.48014e-09
2.29911e-08
2.43829e-08
-2.56809e-09
2.22708e-07
-7.72028e-10
9.29696e-09
9.56416e-08
-7.68475e-09
1.3625e-08
3.57058e-08
-3.55677e-09
1.10845e-08
-5.15624e-09
-5.06617e-10
5.25241e-09
-2.46585e-08
1.31283e-09
2.58663e-09
-5.14155e-08
1.41662e-09
2.10957e-09
-7.31459e-08
1.09703e-09
4.40534e-09
-9.81246e-08
8.23526e-10
1.13052e-08
-1.33063e-07
8.96917e-11
3.22639e-08
-1.52097e-07
-2.48276e-09
4.58944e-08
-9.17692e-08
-3.16347e-09
5.76754e-08
1.30671e-07
-2.02675e-08
5.77717e-08
1.96943e-07
-2.88731e-08
4.35182e-08
1.76707e-07
6.36238e-09
2.74174e-08
9.88448e-08
1.56218e-08
1.47644e-08
1.54464e-08
8.56316e-09
1.08408e-08
-7.35748e-08
5.45224e-09
1.62624e-08
-1.4376e-07
-1.18141e-09
2.31951e-08
-1.04686e-07
-1.21765e-09
7.23621e-09
4.21224e-08
-4.19217e-09
2.32892e-07
-2.90179e-09
1.86575e-09
1.08409e-09
3.40973e-09
4.55193e-10
2.1893e-09
8.0161e-10
8.96474e-10
6.31902e-10
4.84805e-10
6.4752e-10
3.16682e-10
4.34165e-10
6.57585e-10
3.65254e-10
1.79776e-09
1.52144e-10
9.12551e-09
-7.8358e-10
1.65236e-08
-2.04879e-09
2.53662e-08
-1.47488e-08
2.92559e-08
-1.33171e-08
2.17105e-08
7.42275e-09
1.26845e-08
6.95602e-09
5.80623e-09
3.68427e-09
2.47563e-09
2.04078e-09
3.29682e-09
1.99969e-10
6.47319e-09
3.37275e-10
-3.68853e-09
-1.02742e-09
-1.55036e-09
-6.21165e-08
1.00787e-07
-8.04796e-08
3.49659e-08
-7.17692e-08
8.09073e-09
-4.2583e-08
-1.14214e-08
-6.3952e-09
-2.23772e-08
2.70944e-08
-2.20066e-08
6.06042e-08
-2.06533e-08
8.19158e-08
-9.93452e-09
8.11646e-08
1.47905e-08
4.62468e-09
1.16696e-07
-5.44922e-08
1.1112e-07
-6.1232e-08
2.5369e-08
-6.02979e-08
1.12637e-08
-5.48794e-08
2.74049e-09
-3.99719e-08
-4.57479e-09
-1.1098e-08
-1.37426e-08
2.42512e-08
-2.16603e-08
5.6312e-08
-2.26178e-08
7.46819e-08
-8.19053e-09
9.22341e-08
-5.02532e-08
1.51928e-07
-6.33418e-08
4.43762e-08
-6.09759e-08
5.4133e-09
-4.46207e-08
-2.63304e-08
-2.52316e-08
-4.47874e-08
-7.1377e-09
-4.2513e-08
9.77946e-09
-3.8627e-08
2.72313e-08
-3.15479e-08
5.96704e-08
-1.72383e-08
1.61387e-08
1.64921e-07
-1.13459e-08
1.57211e-07
-2.99446e-08
4.74308e-08
-3.87677e-08
2.2297e-08
-4.14986e-08
5.5473e-09
-3.62484e-08
-1.38417e-08
-1.85733e-08
-3.59206e-08
2.71769e-09
-4.47706e-08
1.74679e-08
-3.78089e-08
2.14787e-08
-1.6162e-08
1.1495e-07
-2.37329e-08
1.71958e-07