/*--------------------------------*- C++ -*----------------------------------*\
| =========                 |                                                 |
| \\      /  F ield         | OpenFOAM: The Open Source CFD Toolbox           |
|  \\    /   O peration     | Version:  2.3.0                                 |
|   \\  /    A nd           | Web:      www.OpenFOAM.org                      |
|    \\/     M anipulation  |                                                 |
\*---------------------------------------------------------------------------*/
FoamFile
{
    version     2.0;
    format      ascii;
    class       surfaceScalarField;
    location    "16";
    object      phi.water;
}
// * * * * * * * * * * * * * * * * * * * * * * * * * * * * * * * * * * * * * //

dimensions      [0 3 -1 0 0 0 0];

internalField   nonuniform List<scalar> 
3650
(
0.000166068
-0.000163664
0.000333978
-0.00016508
0.000472144
-0.00013428
0.000593729
-0.000115898
0.000681562
-7.97274e-05
0.000738362
-4.53752e-05
0.000765122
-1.42017e-05
0.000743567
3.51896e-05
0.000667301
8.90703e-05
0.000565732
0.000107504
0.000415808
0.000143953
0.000234324
0.000162818
4.3585e-05
0.000159581
-0.000122654
0.00014333
-0.000248004
0.000119233
-0.000371987
0.000114327
-0.000478399
9.76527e-05
-0.000552156
7.53286e-05
-0.000592519
4.99308e-05
-0.000596042
1.20916e-05
-0.00055456
-3.18065e-05
-0.00048668
-5.94932e-05
-0.000371466
-0.00010909
-0.000204334
-0.000163182
-0.000202066
0.000160764
-0.000331288
0.00031098
-0.000319482
0.000424898
-0.000250637
0.000520029
-0.000210689
0.000582903
-0.000140892
0.000616551
-7.6571e-05
0.000616509
-1.62061e-05
0.000602653
5.47149e-05
0.000567158
0.000142244
0.000476415
0.000206256
0.000370273
0.000235075
0.000264324
0.000251
0.000159969
0.000251134
8.15614e-05
0.000216415
-4.49593e-06
0.000195701
-0.000109664
0.000203122
-0.00019409
0.000178519
-0.00024281
0.000140774
-0.000270505
9.77238e-05
-0.00027801
2.80562e-05
-0.000265202
-5.2682e-05
-0.000242545
-9.81956e-05
-0.000193767
-0.000172322
-0.000109268
-0.000254193
-0.000320776
0.000134692
-0.000473755
0.000226632
-0.000415961
0.000285766
-0.000313452
0.000310398
-0.000239958
0.000297912
-0.000140116
0.000259926
-5.66152e-05
0.000236508
1.01292e-05
0.00022481
9.11125e-05
0.000211704
0.000188468
0.000179934
0.000255208
0.000141409
0.000272975
0.000114922
0.000271421
8.88772e-05
0.000270626
5.577e-05
0.000244283
5.59005e-06
0.000236849
-4.58057e-05
0.000247045
-7.67932e-05
0.000215985
-8.50934e-05
0.000162348
-5.94039e-05
9.08168e-05
-2.05476e-05
-2.11763e-07
-1.42035e-05
-5.88959e-05
-1.96431e-05
-0.000100104
-3.20714e-05
-0.000170974
-3.2352e-05
-0.000260056
-0.000355742
6.85614e-05
-0.000549229
9.00017e-05
-0.000444663
8.70651e-05
-0.000316481
5.76124e-05
-0.000217459
4.25289e-06
-9.44904e-05
-5.88631e-05
1.15785e-05
-9.8863e-05
7.18151e-05
-0.000119352
0.00013744
-0.000102024
0.000186753
-5.59847e-05
0.000211943
-2.36619e-06
0.000217673
3.57801e-05
0.000230392
5.9647e-05
0.000244499
6.59313e-05
0.000234709
6.02824e-05
0.000236171
5.90138e-05
0.000244866
5.85003e-05
0.000220352
6.87844e-05
0.000162536
8.4383e-05
9.08393e-05
7.47019e-05
2.42489e-05
6.92183e-05
-4.26096e-05
6.22707e-05
-8.93561e-05
4.18757e-05
-0.000156319
1.71851e-05
-0.000243692
-0.000341063
2.68902e-05
-0.000576219
1.2797e-05
-0.000433027
-1.13975e-05
-0.000292622
-4.72832e-05
-0.000179758
-8.07545e-05
-6.2159e-05
-0.000129214
5.96616e-05
-0.000164329
0.000111832
-0.000171205
0.000151221
-0.000129844
0.000149662
-5.97967e-05
0.000144941
-4.66774e-06
0.000164245
4.06081e-05
0.000183458
7.96369e-05
0.000203876
0.000104382
0.000208009
0.000128733
0.000209771
0.000156278
0.000218338
0.000172333
0.000208104
0.000180002
0.000166072
0.000176505
0.000107398
0.000163701
4.85934e-05
0.000133075
-4.56714e-06
0.000101637
-5.93395e-05
4.59045e-05
-0.000107643
2.47524e-05
-0.000230238
-0.000318791
2.72744e-06
-0.000578173
-2.06708e-05
-0.000409362
-3.12196e-05
-0.000281075
-4.80627e-05
-0.000161836
-4.91838e-05
-5.75871e-05
-7.56397e-05
8.50853e-05
-0.000120136
0.000155943
-0.000126854
0.000159405
-9.0205e-05
0.000115722
-4.00624e-05
9.78706e-05
8.27655e-08
0.000124993
4.44146e-05
0.00013817
9.37066e-05
0.00015365
0.000136216
0.000164429
0.000173639
0.000172095
0.000208358
0.000186751
0.00023488
0.000185637
0.000245386
0.000161074
0.000234896
0.000125586
0.000208798
8.11447e-05
0.000160535
4.70273e-05
5.88812e-05
3.48744e-05
1.83958e-06
-6.21991e-05
5.57088e-06
-0.00024163
-0.000318908
-9.17037e-06
-0.000569597
-2.71396e-05
-0.000391428
-3.37875e-05
-0.000276286
-2.96598e-05
-0.000166402
-1.96597e-05
-6.46949e-05
5.81302e-06
6.06014e-05
-3.05201e-05
0.000191529
-6.42757e-05
0.000194101
-6.76427e-05
0.000120953
-5.89868e-05
9.07339e-05
-4.07213e-05
0.000106015
-6.67738e-06
0.000103216
3.75937e-05
0.000108181
7.97086e-05
0.000121256
0.00012344
0.000127415
0.000170722
0.000141515
0.000211503
0.000148675
0.000231602
0.000147858
0.000218117
0.000147812
0.000158467
0.000141717
5.41407e-05
0.000143889
-4.16838e-05
0.000124211
-4.58357e-05
-6.61308e-05
-4.0352e-05
-0.000253718
-0.000360129
-1.23145e-05
-0.000557812
-1.73433e-05
-0.000385602
-2.25576e-05
-0.000275077
-1.20328e-05
-0.000179643
-5.06687e-06
-7.13162e-05
2.51595e-05
3.25613e-05
2.27027e-05
0.000196155
-2.25343e-05
0.000238652
-5.96595e-05
0.000156784
-7.45115e-05
0.000105358
-7.96783e-05
0.000110794
-7.61e-05
9.94019e-05
-6.02269e-05
9.16206e-05
-1.63493e-05
7.63745e-05
4.64659e-05
6.45602e-05
0.000122066
6.87868e-05
0.000182084
9.37989e-05
0.000195316
0.000139409
0.000153672
0.000192558
5.10506e-05
0.000243391
-4.86537e-05
0.000240394
-5.73376e-05
0.000132791
-6.36127e-05
-6.82081e-05
-6.18798e-05
-0.000259985
-0.000425349
-9.13587e-06
-0.000549254
-9.13498e-06
-0.000384959
-8.69952e-06
-0.000277246
-4.33776e-06
-0.000187906
-1.71989e-06
-7.92697e-05
4.33513e-06
2.51783e-05
1.59537e-05
0.000186482
-2.11369e-05
0.000275183
-7.09144e-05
0.00020389
-9.47068e-05
0.000127759
-0.000106655
0.000122388
-0.000113536
0.000106042
-9.78522e-05
7.43962e-05
-4.09354e-05
1.70675e-05
3.02182e-05
-8.04334e-06
0.000104312
-5.19063e-06
0.00015288
4.67177e-05
0.000145757
0.000149318
9.21406e-05
0.000246459
1.74762e-05
0.000315681
-1.91664e-05
0.0002775
-1.31021e-05
0.000126951
-2.2096e-05
-5.31367e-05
-2.55911e-05
-0.000253157
-0.000454086
-9.69776e-06
-0.000541079
-1.12676e-05
-0.000383017
-9.86524e-06
-0.000277448
-1.19171e-05
-0.000187019
-1.5592e-05
-7.73299e-05
-2.59699e-05
3.55126e-05
-1.72337e-05
0.00017996
-3.56848e-05
0.000292357
-7.74974e-05
0.000242176
-0.000102709
0.000150993
-0.000104867
0.00012372
-0.000103836
0.000104751
-9.48902e-05
6.45069e-05
-8.74304e-05
7.08566e-06
-6.41339e-05
-3.65645e-05
-2.46688e-05
-5.17459e-05
3.00669e-05
-8.59496e-06
5.19118e-05
0.000133398
4.61172e-05
0.000255259
4.39668e-05
0.000316478
4.74345e-05
0.000275943
4.32222e-05
0.000135219
4.92153e-05
-4.21966e-05
2.37004e-05
-0.000219797
-0.000434456
-1.84034e-05
-0.000525231
-3.30456e-05
-0.0003702
-4.17097e-05
-0.000267254
-4.93632e-05
-0.000176759
-5.22376e-05
-6.92818e-05
-5.70939e-05
4.67404e-05
-5.65434e-05
0.000184574
-5.57592e-05
0.000290978
-8.07119e-05
0.000263232
-9.57489e-05
0.000163748
-8.82275e-05
0.000115316
-7.02741e-05
8.65894e-05
-5.73799e-05
5.17588e-05
-8.22019e-05
2.99159e-05
-0.000123191
-5.40853e-07
-0.000127821
-4.75695e-05
-7.55086e-05
-6.12694e-05
2.75891e-05
3.19282e-05
6.26575e-05
0.000219246
9.23685e-05
0.000284694
0.000118129
0.000251902
0.00010652
0.00015532
8.19279e-05
-4.48711e-06
5.07249e-05
-0.000185741
-0.000387883
-2.41397e-05
-0.00050278
-4.54459e-05
-0.000350399
-6.39145e-05
-0.000247982
-7.61364e-05
-0.000161674
-8.22021e-05
-5.81078e-05
-8.51728e-05
5.65806e-05
-8.72574e-05
0.000192355
-7.94604e-05
0.000283921
-9.07554e-05
0.000271566
-9.55303e-05
0.000166956
-8.26884e-05
0.000101915
-5.07498e-05
5.4632e-05
-1.98901e-05
2.12989e-05
-1.84096e-05
2.85693e-05
-5.59812e-05
3.76319e-05
-0.00010467
1.58461e-07
-0.000124954
-3.99894e-05
-4.5266e-05
-4.5339e-05
7.27114e-05
0.000100209
0.000130898
0.00022389
0.000154555
0.000228017
0.000142983
0.000171496
9.91289e-05
4.18193e-05
5.02209e-05
-0.00013947
-0.000338899
-2.60692e-05
-0.000478508
-4.79734e-05
-0.000330494
-7.11705e-05
-0.000224956
-8.80697e-05
-0.000142559
-0.000100965
-4.05185e-05
-0.000109489
7.18903e-05
-0.000111622
0.000199612
-9.89153e-05
0.000271782
-9.48951e-05
0.000265121
-9.12206e-05
0.000162418
-7.43213e-05
8.48078e-05
-4.39329e-05
2.39919e-05
-1.36318e-05
-9.21766e-06
1.30143e-05
2.39001e-06
2.66044e-05
2.73391e-05
4.24141e-06
2.50376e-05
-4.14916e-05
3.69426e-06
-6.16228e-05
-2.58395e-05
3.30148e-05
6.83692e-06
0.000102537
0.000153635
0.000113139
0.00021613
9.43184e-05
0.000189189
6.88488e-05
6.44797e-05
3.12261e-05
-0.000105078
-0.000306739
-2.86466e-05
-0.000451237
-5.41997e-05
-0.000307513
-8.53389e-05
-0.000195626
-0.00011106
-0.000116426
-0.000130771
-1.83434e-05
-0.000141695
8.87944e-05
-0.000136692
0.000198354
-0.00010908
0.000245529
-8.48535e-05
0.00023978
-7.0217e-05
0.000147282
-5.6046e-05
7.13435e-05
-3.83879e-05
6.53659e-06
-4.62699e-06
-4.2664e-05
3.73001e-05
-3.84003e-05
7.69392e-05
-1.02024e-05
7.94916e-05
2.32397e-05
5.57084e-05
2.70978e-05
2.35704e-05
3.86965e-06
2.25367e-05
8.41275e-06
4.3389e-05
0.000132469
2.91836e-05
0.000232851
1.73249e-05
0.00019881
2.44029e-05
5.00607e-05
1.21198e-05
-9.72782e-05
-0.000294219
-2.76212e-05
-0.000423686
-5.11187e-05
-0.000284876
-8.42757e-05
-0.000164985
-0.000115887
-8.63592e-05
-0.000137742
3.69781e-06
-0.000150222
0.000103366
-0.000133525
0.000182722
-9.64146e-05
0.000209511
-5.65262e-05
0.000199641
-2.89242e-05
0.000120538
-1.63175e-05
6.00988e-05
2.14542e-05
-2.92365e-05
5.61649e-05
-7.66919e-05
8.63017e-05
-6.7638e-05
0.00010366
-2.57505e-05
8.55474e-05
4.16242e-05
8.33471e-05
2.94375e-05
7.27317e-05
1.29669e-05
4.00732e-05
4.0658e-05
-8.06358e-06
0.00018046
-4.72901e-05
0.000270501
-2.71275e-05
0.000173049
-1.48666e-06
1.66859e-05
2.971e-06
-0.000106395
-0.000291555
-2.70825e-05
-0.000396522
-4.39652e-05
-0.000266801
-7.0193e-05
-0.000140431
-9.93274e-05
-5.91584e-05
-0.000119382
2.24499e-05
-0.000126814
0.000110068
-0.000102998
0.000158247
-6.25307e-05
0.000169667
-1.34841e-05
0.000150349
2.71077e-05
8.07468e-05
5.2704e-05
3.59479e-05
9.18398e-05
-6.69843e-05
0.000105907
-9.12289e-05
0.000103769
-6.49026e-05
6.57468e-05
1.20536e-05
4.58353e-05
6.12953e-05
7.68468e-05
7.55001e-08
7.64929e-05
1.37731e-05
6.02789e-06
0.000109827
-6.33155e-05
0.000249241
-8.41769e-05
0.000289207
-4.38603e-05
0.00012625
-2.19395e-05
-9.82118e-06
-2.4398e-06
-0.000126799
-0.000293908
-2.37714e-05
-0.00037303
-3.63424e-05
-0.000252118
-5.51314e-05
-0.000122231
-7.73127e-05
-3.85984e-05
-9.03176e-05
3.43235e-05
-8.41129e-05
0.000102735
-5.66159e-05
0.000130415
-1.82668e-05
0.00013203
2.85886e-05
0.000103819
6.61197e-05
4.33759e-05
0.000106519
-3.95578e-06
0.000118831
-7.95117e-05
0.000108609
-8.07453e-05
6.41234e-05
-2.18176e-05
1.99009e-05
5.33357e-05
2.70307e-05
5.43928e-05
4.81323e-05
-2.0424e-05
4.08201e-05
2.03448e-05
-2.00706e-05
0.000168729
-5.42678e-05
0.000285383
-4.93552e-05
0.000288495
-2.9097e-05
0.000107158
-1.40087e-05
-2.30425e-05
3.96373e-06
-0.000142826
-0.000291052
-1.91963e-05
-0.000355449
-3.14554e-05
-0.000238797
-4.97419e-05
-0.000104571
-7.28024e-05
-1.65303e-05
-8.15416e-05
4.28952e-05
-6.59021e-05
8.68279e-05
-3.67344e-05
0.000101472
2.76452e-06
9.35011e-05
4.70918e-05
6.04435e-05
9.11413e-05
-1.41754e-06
0.000133084
-4.61894e-05
0.000122064
-6.94303e-05
7.67154e-05
-3.55453e-05
2.83145e-05
2.19826e-05
2.52592e-05
5.54731e-05
4.98156e-05
2.99465e-05
4.48453e-05
-1.67056e-05
4.04174e-05
2.3466e-05
2.40531e-05
0.000181241
8.96148e-06
0.000298486
2.05921e-05
0.000282154
1.53554e-05
0.00012482
1.91619e-05
-2.02538e-05
1.95757e-05
-0.000142567
-0.000273981
-1.82923e-05
-0.000338241
-3.04965e-05
-0.00022669
-4.5165e-05
-9.06256e-05
-7.00779e-05
7.37465e-06
-7.66074e-05
4.93681e-05
-5.84978e-05
6.94965e-05
-2.38926e-05
6.82519e-05
2.48558e-05
4.61798e-05
7.66762e-05
1.03765e-05
0.000107173
-3.23241e-05
9.87675e-05
-3.87904e-05
5.64976e-05
-2.88494e-05
1.51539e-05
1.3549e-06
2.09229e-05
1.34467e-05
6.13468e-05
1.53002e-05
8.63928e-05
5.01977e-06
7.00676e-05
-2.65639e-06
5.3381e-05
3.92406e-05
4.49912e-05
0.000186895
5.03638e-05
0.000291979
6.74999e-05
0.000268702
5.77231e-05
0.000141417
4.96585e-05
-8.06367e-06
3.22034e-05
-0.00012516
-0.000243497
-8.84248e-06
-0.000329665
-1.35999e-05
-0.000222359
-1.07365e-05
-9.30877e-05
-2.8428e-05
2.33293e-05
-3.96631e-05
6.04927e-05
-3.13375e-05
6.28492e-05
-7.68736e-06
4.72568e-05
2.2518e-05
1.91733e-05
3.66362e-05
-3.04819e-06
4.67753e-06
-4.40101e-06
-3.72444e-05
-2.94044e-07
-5.53391e-05
-1.41695e-05
-3.42998e-05
-2.4243e-05
1.44571e-05
-3.6233e-05
6.56931e-05
-3.4979e-05
8.49994e-05
-1.28579e-05
6.38214e-05
1.92855e-05
3.00419e-05
7.34268e-05
1.6343e-05
0.000200769
2.85364e-05
0.000280599
5.05753e-05
0.000247688
5.84664e-05
0.000134674
5.57885e-05
-4.62578e-06
3.67151e-05
-0.00010566
-0.000208268
2.63397e-07
-0.000329841
8.5015e-06
-0.000231563
2.6618e-05
-0.000110478
2.29014e-05
2.5996e-05
5.89756e-07
8.25492e-05
-8.46745e-06
7.40624e-05
-8.59511e-06
5.02037e-05
-2.14415e-05
3.24745e-05
-6.00518e-05
3.36586e-05
-0.000106565
3.90248e-05
-0.000129543
1.71726e-05
-0.00011414
-3.40249e-05
-7.51658e-05
-6.3167e-05
-3.69347e-05
-7.15336e-05
-7.5798e-06
-6.19361e-05
3.3334e-06
-2.11583e-05
-1.49217e-05
4.23271e-05
-5.31995e-05
0.000115432
-5.34316e-05
0.000204673
-1.61819e-05
0.000244886
2.11111e-05
0.000208617
4.07027e-05
0.000112892
4.91423e-05
-1.30524e-05
3.36813e-05
-8.99708e-05
-0.000175313
9.77191e-06
-0.000339396
2.35961e-05
-0.000246131
4.11012e-05
-0.000128152
5.25341e-05
1.47548e-05
2.85253e-05
0.000106179
3.37173e-06
0.000100315
-8.33559e-06
6.32708e-05
-2.83751e-05
5.18803e-05
-6.13732e-05
6.38139e-05
-9.52376e-05
6.73019e-05
-0.0001113
3.24064e-05
-0.000108938
-3.44101e-05
-8.82032e-05
-7.99361e-05
-6.83255e-05
-8.85009e-05
-5.97982e-05
-6.85297e-05
-6.93745e-05
-9.21089e-06
-9.3875e-05
7.15444e-05
-0.000113839
0.000138709
-9.413e-05
0.000187522
-5.35744e-05
0.000203464
-1.48486e-05
0.000166894
2.04192e-05
7.571e-05
3.75262e-05
-2.89348e-05
2.61377e-05
-7.85908e-05
-0.000149265
1.65305e-05
-0.00035614
3.00045e-05
-0.000259845
4.18069e-05
-0.000140611
6.06655e-05
-3.64076e-06
5.15022e-05
0.000114582
2.11599e-05
0.00013011
-3.99869e-06
8.81073e-05
-1.90633e-05
6.55897e-05
-3.32172e-05
7.42948e-05
-4.52538e-05
7.7449e-05
-5.04321e-05
4.11899e-05
-6.22348e-05
-2.16069e-05
-6.63756e-05
-7.4638e-05
-7.57775e-05
-7.83347e-05
-0.000108409
-3.56217e-05
-0.000154979
3.84333e-05
-0.000180526
0.000100978
-0.000179871
0.000140752
-0.000150954
0.000159576
-0.000103483
0.000154506
-4.08498e-05
0.000102418
1.41544e-05
2.04534e-05
2.72488e-05
-4.11799e-05
1.78517e-05
-6.91731e-05
-0.000131764
1.66987e-05
-0.00037358
2.67163e-05
-0.000269837
3.45379e-05
-0.000148615
4.73634e-05
-1.62947e-05
4.83641e-05
0.00011314
2.56655e-05
0.000152078
-7.12267e-06
0.000119964
-2.95967e-05
8.62654e-05
-4.13299e-05
8.28195e-05
-4.0291e-05
7.6725e-05
-3.67395e-05
3.86818e-05
-4.54337e-05
-1.15813e-05
-7.98878e-05
-4.11337e-05
-0.000139803
-2.1303e-05
-0.000209042
3.18911e-05
-0.00024701
8.04738e-05
-0.000246203
0.000104505
-0.000218569
0.000114687
-0.000164109
0.000105245
-8.92742e-05
7.95868e-05
-1.4765e-05
2.79053e-05
2.62242e-05
-1.99391e-05
2.49028e-05
-4.02483e-05
1.14241e-05
-5.55374e-05
-0.00012078
1.61309e-05
-0.000390424
2.02812e-05
-0.000273983
2.40541e-05
-0.000152062
2.98532e-05
-2.16023e-05
3.13015e-05
0.000111447
1.23361e-05
0.000169996
-1.75246e-05
0.000148535
-4.63405e-05
0.000113394
-6.4256e-05
9.92769e-05
-7.05053e-05
8.26469e-05
-7.99237e-05
4.78913e-05
-0.00010474
1.43544e-05
-0.000160498
1.28338e-05
-0.000228983
4.57726e-05
-0.0002691
7.29562e-05
-0.000269034
8.32031e-05
-0.000241335
7.8809e-05
-0.000186342
6.05769e-05
-0.000114772
3.38283e-05
-4.23262e-05
7.36593e-06
8.11683e-06
-2.20471e-05
2.37584e-05
-3.53291e-05
1.83033e-05
-3.48005e-05
4.25182e-06
-4.13111e-05
-0.000116411
1.03801e-05
-0.000401086
9.1831e-06
-0.000273235
1.1175e-05
-0.000153338
1.61612e-05
-2.5701e-05
1.88099e-05
0.000109153
9.54847e-07
0.000186266
-2.66834e-05
0.000174295
-5.58498e-05
0.000141186
-7.80801e-05
0.000121253
-9.29274e-05
9.77547e-05
-0.000114955
7.04215e-05
-0.000155735
5.4864e-05
-0.00020744
6.36603e-05
-0.000246661
8.37145e-05
-0.000259391
8.64901e-05
-0.000247379
7.36927e-05
-0.000205251
3.89251e-05
-0.000146874
2.93047e-06
-9.16101e-05
-2.03929e-05
-4.57773e-05
-3.76134e-05
-1.8907e-05
-4.79349e-05
-8.55913e-06
-4.45616e-05
-7.33119e-06
-3.47682e-05
-8.81089e-06
-3.91858e-05
-0.000124775
2.70829e-06
-0.000403545
7.83404e-07
-0.00027155
3.65937e-06
-0.000155975
1.35239e-05
-3.47248e-05
2.00721e-05
0.000103003
5.23552e-06
0.000198938
-2.41661e-05
0.000201329
-5.36362e-05
0.000169483
-7.42446e-05
0.000142222
-8.84827e-05
0.000113369
-0.000109285
9.20821e-05
-0.000139671
8.4544e-05
-0.000172544
9.57965e-05
-0.000194465
0.000106283
-0.000207475
0.000101259
-0.000201719
6.93266e-05
-0.000177516
1.60259e-05
-0.000143904
-2.92729e-05
-0.000104629
-5.80329e-05
-7.08271e-05
-6.99873e-05
-4.88649e-05
-6.83408e-05
-3.77401e-05
-5.36665e-05
-3.48898e-05
-3.64291e-05
-2.84039e-05
-4.53701e-05
-0.000152681
1.12288e-07
-0.000403179
1.07958e-06
-0.00027262
4.20174e-06
-0.000159648
1.98419e-05
-4.92513e-05
3.38311e-05
8.90984e-05
2.96774e-05
0.000201652
7.91816e-07
0.00022713
-3.1665e-05
0.000200704
-5.13379e-05
0.000162367
-5.89381e-05
0.000122888
-6.22474e-05
9.67716e-05
-6.69651e-05
8.9039e-05
-7.52105e-05
0.000103413
-8.46295e-05
0.000116305
-9.62046e-05
0.000114187
-9.31021e-05
6.93804e-05
-8.81137e-05
1.18629e-05
-7.63094e-05
-4.15465e-05
-6.2822e-05
-7.26181e-05
-5.18374e-05
-8.13715e-05
-4.45947e-05
-7.5345e-05
-4.1112e-05
-5.56959e-05
-3.99741e-05
-3.67398e-05
-3.14417e-05
-5.3583e-05
-0.000183817
2.30879e-06
-0.000405393
1.08644e-05
-0.000282102
1.3491e-05
-0.000163445
2.81647e-05
-6.32275e-05
4.84947e-05
6.91576e-05
5.49959e-05
0.000194592
3.44857e-05
0.000244949
2.08842e-06
0.000231563
-2.56764e-05
0.000190416
-3.7628e-05
0.000136315
-3.70703e-05
9.79376e-05
-3.53695e-05
8.74994e-05
-3.73035e-05
0.000104909
-4.14928e-05
0.00012029
-4.18919e-05
0.000115131
-2.77931e-05
5.74291e-05
-1.90353e-05
3.15812e-06
-2.44816e-05
-3.94215e-05
-3.32828e-05
-6.71371e-05
-3.89008e-05
-7.69015e-05
-4.23008e-05
-7.2547e-05
-4.2965e-05
-5.5351e-05
-3.61522e-05
-4.38521e-05
-1.90016e-05
-7.09881e-05
-0.000202323
1.23047e-05
-0.000419047
2.89336e-05
-0.000300829
2.87943e-05
-0.000164717
3.48394e-05
-6.95857e-05
5.64882e-05
4.82356e-05
7.24511e-05
0.000178201
6.50848e-05
0.000251199
4.03479e-05
0.000254412
6.97984e-06
0.000223621
-1.83976e-05
0.000162082
-2.88262e-05
0.000109062
-3.52626e-05
9.39776e-05
-4.62228e-05
0.000114761
-5.755e-05
0.000130247
-5.59467e-05
0.000113711
-4.37315e-05
4.58411e-05
-4.26811e-05
1.27217e-06
-6.11582e-05
-2.53083e-05
-8.57117e-05
-4.82441e-05
-9.64239e-05
-6.90489e-05
-9.16378e-05
-7.85344e-05
-7.39947e-05
-7.47868e-05
-4.38017e-05
-7.50907e-05
-8.72494e-06
-0.000106584
-0.000211295
2.31226e-05
-0.000444647
3.42111e-05
-0.000314877
3.48576e-05
-0.000166101
3.52961e-05
-7.03435e-05
5.69383e-05
2.73782e-05
8.25798e-05
0.000152913
8.68195e-05
0.000246838
6.96143e-05
0.000271
3.8439e-05
0.000254083
2.19651e-06
0.000198093
-2.6543e-05
0.000137537
-4.89403e-05
0.000116178
-7.70324e-05
0.000140761
-0.000101929
0.000153028
-0.000109703
0.000120977
-0.000122852
5.76486e-05
-0.000155955
3.06499e-05
-0.000184631
1.51085e-06
-0.000199733
-3.37884e-05
-0.00020117
-7.09638e-05
-0.000174561
-0.000107395
-0.000121936
-0.000128804
-6.10192e-05
-0.000137243
-9.46727e-06
-0.000158898
-0.000220923
1.90252e-05
-0.000465072
1.92007e-05
-0.000316672
2.63298e-05
-0.00017369
3.10551e-05
-7.52384e-05
5.2103e-05
7.11545e-06
8.55338e-05
0.000120612
0.000100018
0.000232225
9.31681e-05
0.000277905
7.07059e-05
0.000276295
3.25981e-05
0.000235462
-1.87254e-08
0.000169798
-3.05037e-05
0.000145794
-6.63005e-05
0.000174821
-9.87049e-05
0.00018405
-0.000118162
0.000140247
-0.000156847
9.5854e-05
-0.000197963
7.04004e-05
-0.000219541
2.43966e-05
-0.000225784
-2.47312e-05
-0.000222144
-7.31098e-05
-0.000205802
-0.00012609
-0.000157978
-0.000176083
-9.28413e-05
-0.000201056
-3.25378e-05
-0.000217445
-0.000252411
2.39682e-06
-0.000467607
-4.15576e-06
-0.000309139
8.11451e-06
-0.000186984
2.20552e-05
-8.89406e-05
3.7748e-05
-7.94061e-06
7.50902e-05
8.50336e-05
0.00010433
0.0002035
0.000109526
0.000272471
9.80368e-05
0.000287969
6.47962e-05
0.00026772
2.53482e-05
0.000207705
2.16891e-06
0.000167935
-1.62971e-05
0.000192486
-4.15426e-05
0.000209759
-7.134e-05
0.00017043
-0.000100744
0.000125889
-0.000123894
9.61259e-05
-0.00014301
4.8391e-05
-0.000155891
-5.93771e-06
-0.0001568
-6.53617e-05
-0.0001542
-0.000126241
-0.000134778
-0.000195152
-8.96009e-05
-0.000244403
-4.06675e-05
-0.000264283
-0.000293245
-1.36313e-05
-0.000453432
-2.4548e-05
-0.000296505
-1.40035e-05
-0.000198035
5.26196e-06
-0.000107866
2.21514e-05
-2.42727e-05
5.58361e-05
5.25421e-05
0.000103442
0.000157445
0.000124492
0.000251328
0.000126815
0.000285618
0.000111808
0.000282531
6.85003e-05
0.000249084
3.7438e-05
0.000197813
3.58958e-05
0.000193267
3.9394e-05
0.000206303
2.63907e-05
0.000184845
1.61282e-05
0.000137716
1.38156e-05
0.000102727
9.31984e-06
6.00298e-05
6.4285e-06
6.27197e-06
4.95193e-06
-5.59129e-05
-5.71878e-06
-0.000110341
-2.52811e-05
-0.000176646
-2.70593e-05
-0.000245008
-1.55042e-05
-0.000277694
-0.000309206
-2.08859e-05
-0.000431766
-3.00703e-05
-0.000286651
-2.62076e-05
-0.000202353
-1.152e-05
-0.000123195
8.83573e-06
-4.40474e-05
3.49432e-05
2.72804e-05
8.67405e-05
0.000106808
0.000134157
0.000204893
0.00015517
0.000264881
0.00016429
0.000273559
0.000150979
0.000261217
0.000122012
0.000224875
0.000117379
0.000197547
0.000131507
0.000193071
0.000136723
0.000181693
0.000127419
0.000149803
0.000124087
0.00011087
0.000123725
6.6219e-05
0.0001226
1.37576e-05
0.000115962
-4.30572e-05
9.90064e-05
-8.96404e-05
7.07208e-05
-0.000149295
4.35468e-05
-0.000219096
1.74567e-05
-0.000254178
-0.000295699
-1.50483e-05
-0.000416753
-2.64334e-05
-0.000275766
-2.94634e-05
-0.000199596
-2.49173e-05
-0.000129009
-8.45473e-06
-6.0435e-05
1.33871e-05
6.16042e-06
5.33854e-05
6.78937e-05
0.000114498
0.000144955
0.000163155
0.000217089
0.000187676
0.000249576
0.00019832
0.00025019
0.000190686
0.000230678
0.000187436
0.000200405
0.000198034
0.000183178
0.000212689
0.000168455
0.000219116
0.000145747
0.000220552
0.000113249
0.000214397
7.63658e-05
0.000198909
3.32043e-05
0.000173857
-1.51845e-05
0.000146676
-6.11378e-05
0.000110787
-0.000114659
7.23525e-05
-0.000183016
3.4023e-05
-0.000217018
-0.000264888
-9.38057e-06
-0.000407633
-2.20583e-05
-0.000263467
-3.07097e-05
-0.000191408
-3.45699e-05
-0.000127287
-2.97003e-05
-6.66872e-05
-1.64553e-05
-6.90442e-06
6.70615e-06
4.57802e-05
4.88365e-05
0.000103698
0.000107914
0.000158748
0.000158739
0.000198947
0.000191025
0.000218123
0.000204341
0.00021628
0.000207681
0.000196184
0.000215535
0.000175575
0.000226216
0.000158943
0.000233153
0.000139936
0.000234297
0.000113452
0.000228408
8.3733e-05
0.000213417
4.94601e-05
0.00018859
1.02007e-05
0.00015449
-2.71229e-05
0.000115838
-7.70319e-05
7.41968e-05
-0.000143459
3.19469e-05
-0.0001767
-0.000234787
-8.83417e-06
-0.000398547
-1.7906e-05
-0.00025376
-2.58148e-05
-0.000184068
-2.99984e-05
-0.000124521
-2.73491e-05
-7.25659e-05
-9.90248e-06
-2.64412e-05
1.30045e-05
2.21671e-05
4.54954e-05
7.11049e-05
8.71281e-05
0.000116393
0.000133638
0.000151485
0.000172109
0.000179371
0.000196115
0.000192093
0.000205518
0.000185632
0.000211053
0.000169698
0.000215585
0.000154284
0.000218474
0.000137415
0.000216782
0.000115739
0.000208704
9.23853e-05
0.000191758
6.66384e-05
0.000164841
3.67994e-05
0.000135696
1.50632e-06
0.000109957
-5.235e-05
7.51065e-05
-0.000110528
3.13093e-05
-0.000134464
-0.000204344
-6.8224e-06
-0.000391655
-1.06892e-05
-0.000249106
-1.02655e-05
-0.000183743
-3.53552e-06
-0.000129857
8.67407e-06
-8.58889e-05
2.82776e-05
-4.91089e-05
5.07773e-05
-5.25344e-06
7.12707e-05
4.52649e-05
9.41655e-05
8.97085e-05
0.000115179
0.000126954
0.000137093
0.00015531
0.00015586
0.000172306
0.000167913
0.000171783
0.000172742
0.00016309
0.00017435
0.000151739
0.000172873
0.000138503
0.000165258
0.000123288
0.000150568
0.000106846
0.000132346
8.41648e-05
0.000114735
5.41436e-05
0.000101209
1.47371e-05
8.63576e-05
-3.86e-05
5.67328e-05
-8.26089e-05
1.91884e-05
-9.80964e-05
-0.000185953
-7.67919e-06
-0.000385651
-1.28023e-05
-0.000244867
-1.173e-05
-0.000184416
-5.76353e-06
-0.000134978
1.4926e-06
-9.27885e-05
5.19058e-06
-5.41993e-05
1.11017e-05
-1.15776e-05
2.14636e-05
3.51767e-05
3.25152e-05
7.84974e-05
4.21719e-05
0.000117288
5.12112e-05
0.000144895
6.18424e-05
0.000160733
6.75603e-05
0.000165563
6.65699e-05
0.00016274
6.13565e-05
0.000155596
5.50369e-05
0.000143818
4.99235e-05
0.000127696
5.07245e-05
0.000105925
5.81496e-05
7.6982e-05
6.97137e-05
4.23498e-05
8.38452e-05
-2.24087e-08
8.26099e-05
-3.83527e-05
5.57758e-05
-5.70433e-05
1.38799e-05
-5.77819e-05
-0.000174385
-1.82119e-05
-0.000368722
-4.04687e-05
-0.000224341
-5.9943e-05
-0.000166011
-7.92089e-05
-0.000117503
-0.000100516
-7.38449e-05
-0.000121906
-3.31166e-05
-0.000134495
5.64299e-06
-0.000137859
4.61453e-05
-0.000143925
9.22397e-05
-0.000148424
0.000128195
-0.000149592
0.000148788
-0.000144897
0.000156346
-0.000133982
0.000154487
-0.000117576
0.000145819
-9.6722e-05
0.000134368
-7.21831e-05
0.0001189
-4.21737e-05
9.76065e-05
-8.11518e-06
7.14684e-05
2.71659e-05
4.08498e-05
6.11936e-05
7.18121e-06
8.43809e-05
-2.35254e-05
7.92516e-05
-3.39247e-05
4.83231e-05
-2.71191e-05
7.8967e-06
-1.95337e-05
-0.000169365
-1.72648e-05
-0.000352184
-4.32142e-05
-0.000199513
-7.10275e-05
-0.000139387
-0.000102522
-8.80142e-05
-0.000138367
-3.9946e-05
-0.000173034
1.11707e-06
-0.000205805
3.93861e-05
-0.000236941
8.0743e-05
-0.000257364
0.000117356
-0.000264142
0.000138155
-0.000258306
0.00014561
-0.000242982
0.000142645
-0.000214742
0.000127384
-0.000179298
0.000111651
-0.000143441
9.93901e-05
-0.00010517
8.10312e-05
-6.3844e-05
5.57272e-05
-1.9087e-05
2.53465e-05
2.20958e-05
-1.94007e-06
4.97234e-05
-2.07599e-05
4.70054e-05
-2.23331e-05
2.64126e-05
-1.63445e-05
5.05516e-06
-6.3901e-06
-3.74709e-06
-1.26255e-05
-0.000175267
-1.82434e-05
-0.000334351
-4.18959e-05
-0.000176187
-6.92153e-05
-0.000112653
-9.84827e-05
-6.07036e-05
-0.000131324
-9.18429e-06
-0.000167574
3.53551e-05
-0.000200172
7.09117e-05
-0.000226785
0.000107466
-0.000241856
0.000133285
-0.000246122
0.000143766
-0.000241963
0.000144199
-0.000224809
0.000128492
-0.000197144
0.000101427
-0.000168261
8.37948e-05
-0.000140268
7.19023e-05
-0.00011199
5.25015e-05
-8.44998e-05
2.70895e-05
-5.96757e-05
-1.35553e-06
-4.69989e-05
-1.67914e-05
-5.15334e-05
-1.93896e-05
-6.30472e-05
-1.38201e-05
-6.06645e-05
-1.94704e-05
-4.00256e-05
-2.89866e-05
-4.3847e-06
-5.05664e-05
-0.000180125
-1.17777e-05
-0.00032247
-2.46609e-05
-0.000163043
-4.30304e-05
-9.39549e-05
-6.04209e-05
-4.40487e-05
-7.54486e-05
4.28431e-06
-9.57809e-05
5.37032e-05
-0.000120546
9.30492e-05
-0.000141761
0.000126816
-0.000157495
0.000149207
-0.000167198
0.000154958
-0.000167385
0.000146858
-0.000155358
0.000118759
-0.000143316
9.03974e-05
-0.000132907
7.37687e-05
-0.000120227
5.90107e-05
-0.000105651
3.73271e-05
-9.13837e-05
1.21689e-05
-8.87915e-05
-4.7885e-06
-9.55315e-05
-1.10604e-05
-0.000111049
-7.77677e-06
-0.000106717
-2.11376e-05
-8.25914e-05
-4.4251e-05
-4.61003e-05
-6.66927e-05
-3.59428e-06
-9.32642e-05
-0.000182638
-4.62746e-06
-0.000317906
-6.36017e-06
-0.000161281
-1.17731e-05
-8.84422e-05
-1.74446e-05
-3.82903e-05
-1.89058e-05
5.02336e-06
-1.38536e-05
4.7452e-05
-1.25063e-05
8.96896e-05
-1.38353e-05
0.000126402
-1.95797e-05
0.000154363
-3.21138e-05
0.000168236
-4.67977e-05
0.000163522
-6.41609e-05
0.000137226
-7.83621e-05
0.000104337
-8.55699e-05
8.03903e-05
-8.78901e-05
6.05662e-05
-8.77266e-05
3.64386e-05
-8.25934e-05
6.77835e-06
-7.23637e-05
-1.49156e-05
-6.25584e-05
-2.22519e-05
-5.17008e-05
-1.96308e-05
-3.96631e-05
-3.29982e-05
-3.58492e-05
-4.88854e-05
-2.41941e-05
-7.8284e-05
-3.25769e-06
-0.000112817
-0.000185388
-1.0355e-06
-0.000316581
9.17749e-06
-0.000171713
1.92395e-05
-9.93854e-05
2.62737e-05
-4.53233e-05
3.33173e-05
-2.30908e-06
4.40792e-05
3.60806e-05
5.87642e-05
7.35098e-05
7.39677e-05
0.000109003
8.73557e-05
0.000139424
9.46423e-05
0.000161015
9.10598e-05
0.000168531
7.07958e-05
0.000158622
4.13509e-05
0.000133704
1.7765e-05
0.000102979
1.70996e-06
7.55827e-05
-1.21358e-05
4.88371e-05
-2.68498e-05
1.94849e-05
-3.30004e-05
-9.91556e-06
-2.30705e-05
-3.2178e-05
6.62077e-06
-4.78534e-05
2.45157e-05
-5.0191e-05
2.65058e-05
-5.08467e-05
1.70856e-05
-6.98894e-05
8.12204e-06
-0.000103867
-0.000176958
6.99691e-06
-0.000322427
2.82008e-05
-0.000191909
5.56693e-05
-0.000127001
8.11575e-05
-7.16712e-05
0.000101128
-2.39837e-05
0.000113614
2.07412e-05
0.000120996
6.28629e-05
0.000129261
9.80287e-05
0.000138231
0.000128151
0.000149445
0.00014922
0.000156759
0.000161169
0.00015895
0.000156557
0.000150138
0.000141915
0.00013736
0.000114617
0.000124924
8.67359e-05
0.000111812
6.11941e-05
9.38608e-05
3.67732e-05
7.05148e-05
1.21246e-05
5.43118e-05
-1.72408e-05
5.1238e-05
-4.50533e-05
5.36874e-05
-5.25424e-05
5.4636e-05
-5.13809e-05
4.29445e-05
-5.85593e-05
2.25314e-05
-8.38908e-05
-0.000155299
7.74184e-06
-0.000329501
2.38446e-05
-0.000205724
5.00039e-05
-0.000151307
7.57803e-05
-9.71257e-05
9.33117e-05
-4.24745e-05
0.000102963
1.01066e-05
0.00010567
5.92623e-05
0.00010814
9.47829e-05
0.000114927
0.000121016
0.000124074
0.000139756
0.000133393
0.000152039
0.000140757
0.000149512
0.00014458
0.00013825
0.000143601
0.000114997
0.000139379
8.98347e-05
0.000132854
6.67049e-05
0.00012269
4.57005e-05
0.000108943
2.40834e-05
9.64724e-05
-5.29755e-06
8.50442e-05
-3.34301e-05
7.76235e-05
-4.43907e-05
6.84023e-05
-4.18546e-05
5.1592e-05
-4.25424e-05
2.54106e-05
-5.88318e-05
-0.000131025
1.96556e-06
-0.000331976