/*--------------------------------*- C++ -*----------------------------------*\
| =========                 |                                                 |
| \\      /  F ield         | OpenFOAM: The Open Source CFD Toolbox           |
|  \\    /   O peration     | Version:  2.3.0                                 |
|   \\  /    A nd           | Web:      www.OpenFOAM.org                      |
|    \\/     M anipulation  |                                                 |
\*---------------------------------------------------------------------------*/
FoamFile
{
    version     2.0;
    format      ascii;
    class       volScalarField;
    location    "16";
    object      rhom;
}
// * * * * * * * * * * * * * * * * * * * * * * * * * * * * * * * * * * * * * //

dimensions      [1 -3 0 0 0 0 0];

internalField   nonuniform List<scalar> 
1875
(
952.375
952.007
950.643
948.347
944.195
937.293
928.427
919.341
909.561
899.549
903.235
908.811
911.084
884.811
884.654
894.03
887.33
889.742
910.762
929.296
939.522
947.904
954.212
958.393
960.282
969.667
969.637
969.888
969.676
969.785
966.676
958.364
937.712
896.378
877.187
894.383
929.407
954.551
953.682
948.621
894.975
866.552
859.341
866.272
886.51
920.565
943.216
960.927
967.902
967.902
969.666
969.888
969.826
968.062
957.759
937.414
882.186
876.906
873.228
876.906
892.903
944.592
953.682
955.31
946.609
886.152
860.835
866.272
859.664
866.272
860.66
866.552
906.537
959.545
967.934
964.364
959.12
958.231
951.932
915.827
874.823
876.906
873.351
876.906
877.576
910.748
953.682
956.474
953.682
942.39
882.768
866.551
861.4
866.272
861.009
866.551
863.65
876.476
948.793
967.934
954.573
941.901
947.447
944.028
906.389
879.203
875.994
876.905
881.91
901.305
934.608
954.291
953.681
956.619
941.486
890.122
866.031
866.551
863.227
866.551
863.582
866.846
900.812
952.275
967.93
953.106
928.957
942.498
945.587
922.824
889.94
879.097
883.205
905.901
931.759
952.046
953.681
956.708
953.681
943.095
904.007
873.726
866.179
866.551
865.469
866.846
880.648
938.152
951.956
950.076
950.769
917.43
935.809
945.911
941.684
909.705
885.724
892.136
929.072
950.123
953.681
955.166
953.71
957.016
942.37
914.357
888.41
874.182
867.637
866.845
877.797
915.57
951.479
951.562
935.06
946.13
910.259
921.481
944.711
944.959
929.659
895.099
893.029
933.378
953.681
954.342
953.71
957.225
953.71
942.867
927.216
911.434
897.78
882.963
871.955
901.583
939.018
937.752
922.943
923.776
944.163
908.429
904.082
926.408
939.297
932.005
903.525
893.014
934.793
954.032
953.709
955.794
953.815
957.23
953.064
948.115
935.345
912.123
882.918
880.658
909.464
930.521
881.695
885.83
914.638
943.385
909.152
896.304
901.212
900.342
900.331
890.098
893.335
936.22
953.68
954.893
953.815
957.231
953.815
954.51
944.461
921.927
896.716
882.515
884.168
906.032
910.053
882.336
881.865
911.428
942.194
909.875
895.213
890.25
891.642
888.732
891.642
892.111
936.939
955.112
953.68
955.989
953.814
956.756
943.732
925.672
915.181
896.227
882.816
884.667
897.008
883.141
881.896
882.529
911.144
940.809
908.923
896.81
891.641
889.421
891.641
888.732
892.825
937.21
953.68
955.567
953.68
956.587
941.166
917.06
927.921
929.878
913.09
890.057
886.157
887.521
882.182
882.335
895.345
913.783
940.356
908.539
900.223
893.706
891.641
889.146
891.641
894.463
936.864
955.803
953.679
956.077
953.679
935.6
916.612
916.618
934.904
942.243
915.988
894.148
887.043
883.46
889.684
906.358
919.118
940.246
908.008
901.966
899.324
891.233
891.641
890.903
897.354
936.553
953.679
955.708
953.679
955.528
939.148
920.122
916.723
926.176
942.496
942.507
911.575
886.921
888.163
908.818
910.307
923.398
941.288
907.318
900.343
903.389
894.069
891.448
892.247
900.498
933.993
955.617
953.671
955.61
953.624
948.566
934.324
920.499
921.347
936.059
941.46
911.383
889.34
901.094
908.626
902.451
924.961
943.124
910.527
896.543
903.476
899.161
895.136
896.016
905.204
931.343
953.678
955.187
953.678
954.874
952.483
940.504
921.397
922.524
934.498
935.442
899.962
881.75
891.681
887.205
891.705
925.081
944.342
919.09
895.531
902.985
900.898
899.619
900.861
910.45
930.277
955.079
953.679
955.236
953.679
952.057
933.058
918.759
930.998
938.773
921.658
883.427
881.91
878.999
881.91
887.93
925.395
944.663
930.448
895.823
895.994
899.913
902.099
906.191
916.319
932.146
951.593
955.098
953.678
955.412
942.749
909.966
913.082
935.549
940.462
921.992
883.324
879.27
881.91
879.751
890.931
925.398
942.533
939.994
903.324
896.123
900.323
904.537
912.232
923.61
937.272
950.722
953.678
955.635
953.344
915.797
908.398
908.638
928.937
940.566
922.571
885.022
881.909
880.641
881.909
895.897
925.407
940.632
944.815
917.22
900.381
901.948
908.363
919.877
933.186
947.943
953.678
955.044
949.985
922.924
909.468
908.552
909.365
920.481
935.975
918.101
884.256
881.627
881.909
883.067
902.59
925.408
939.824
945.534
932.767
908.823
905.663
914.556
930.523
947.148
949.828
950.357
938.11
924.04
918.64
917.72
919.03
915.416
915.973
925.111
904.252
884.011
883.707
885.31
891.665
911.487
923.321
939.679
945.376
940.627
918.71
911.346
921.972
939.568
948.464
948.657
931.934
910.667
916.585
928.749
935.822
934.635
923.992
913.92
911.777
893.987
886.783
888.399
893.426
906.578
917.344
921.903
940.043
945.754
941.708
925.629
915.169
923.581
940.814
947.714
940.069
915.377
910.46
916.714
941.421
947.051
938.431
920.886
909.273
901.755
895.484
893.477
897.341
906.495
918.868
918.263
921.458
940.417
945.376
940.811
924.434
914.171
922.747
940.045
943.746
927.457
910.46
910.506
917.311
943.217
947.068
930.544
910.24
904.712
903.588
902.108
904.415
910.604
918.842
921.414
918.81
920.652
940.336
945.721
940.176
920.973
910.414
920.518
938.048
938.32
919.811
911.185
913.005
926.098
944.09
938.692
917.999
909.539
908.395
910.842
914.661
919.333
923.846
924.066
921.458
919.584
919.79
939.476
944.134
940.347
918.991
903.714
916.403
934.885
934.112
918.483
912.652
918.784
936.652
943.955
930.843
917.021
913.452
917.113
923.556
927.999
931.339
932.371
926.719
921.387
920.483
920.641
939.124
940.221
940.503
920.214
903.617
909.305
929.732
930.841
918.978
915.182
925.237
940.93
942.608
926.037
916.692
916.034
926.065
933.946
938.68
940.926
940.631
933.271
926.586
923.256
924.227
939.359
939.286
940.546
925.04
904.429
899.87
920.734
927.209
920.275
919.845
929.866
942.247
944.056
928.611
913.354
908.027
920.99
933.745
944.792
948.317
948.275
942.804
932.61
924.85
928.697
940.47
940.312
939.475
932.304
908.294
899.476
908.119
920.657
920.015
926.331
935.575
943.831
944.214
930.041
910.518
907.98
912.296
927.651
940.724
947.368
948.277
946.195
932.864
923.934
931.262
940.734
940.845
938.614
936.976
915.656
899.749
898.259
909.701
917.212
927.536
941.247
945.222
943.349
927.49
911.059
910.836
916.258
915.105
927.532
942.023
944.897
942.197
930.891
924.015
933.249
935.66
937.012
937.694
937.389
923.218
902.649
897.886
898.692
909.965
925.552
941.801
945.224
937.706
921.607
914.668
920.046
919.828
916.266
913.908
927.519
937.699
935.871
930.155
926.98
934.549
926.482
918.097
933.86
936.253
928.823
909.097
898.38
897.36
901.732
919.58
940.329
945.068
928.344
915.241
920.881
925.92
916.816
913.81
916.641
914.52
929.691
936.709
935.909
935.038
936.753
922.39
905.448
928.133
934.505
932.834
916.77
901.248
897.424
898.196
912.043
936.468
945.057
927.361
914.813
921.17
925.672
915.069
916.645
914.226
917.055
916.013
940.155
946.615
945.984
942.388
922.372
904.895
919.878
932.379
933.518
923.575
906.352
898.395
898.676
906.024
928.722
944.162
929.942
914.974
917.02
924.191
917.055
914.588
917.055
914.513
917.575
935.898
951.334
951.456
946.128
926.485
904.911
910.672
928.298
933.41
928.442
913.011
901.259
900.097
903.155
917.71
938.564
934.203
918.764
917.05
918.223
916.398
917.054
915.852
917.574
916.916
930.234
951.098
951.333
947.892
932.229
907.323
905.253
921.355
930.711
929.52
918.224
906.266
902.313
903.57
908.841
926.42
932.61
926.881
919.035
917.828
917.575
916.926
917.574
917.425
919.297
930.626
949.253
951.593
943.896
935.233
910.522
904.157
912.54
926.465
928.954
922.089
911.989
906.349
906
908.35
915.997
927.417
926.582
922.878
920.182
918.873
918.217
918.396
920.039
924.791
935.917
948.485
951.385
939.612
936.051
913.134
904.234
905.057
919.075
928.18
926.267
919.811
914.324
911.928
910.767
913.127
920.229
924.657
924.25
922.871
920.998
920.349
921.13
924.529
932.944
942.01
946.955
946.515
937.721
936.658
915.612
904.69
904.67
907.184
919.073
923.079
918.635
912.953
909.598
909.746
911.295
915.252
921.026
923.249
922.827
922.563
923.576
926.747
932.568
940.18
942.086
943.203
943.53
937.159
936.93
917.155
906.916
904.698
902.38
902.078
895.89
886.264
885.778
885.47
895.541
903.674
906.978
914.603
920.67
923.584
926.1
929.781
935.42
940.587
940.879
939.226
939.184
941.959
935.577
936.939
916.968
909.014
906.604
897.802
885.307
883.435
884.992
883.213
884.992
885.04
896.086
907.841
916.073
922.785
928.081
933.498
938.944
940.789
940.948
940.789
936.546
935.811
937.383
929.582
936.942
916.551
909.582
905.901
895.74
886.638
884.991
884.31
884.991
884.524
886.549
899.261
912.554
921.672
929.54
936.159
940.59
940.788
941.209
940.788
940.601
935.69
930.944
925.692
923.021
936.952
916.532
910.242
906.084
898.485
890.463
886.756
885.229
884.828
886.082
892.873
907.685
922.267
931.783
937.888
940.716
940.78
941.395
940.788
941.395
933.486
924.902
923.135
916.18
920.173
935.804
917.701
912.761
907.067
902.673
895.79
891.819
888.12
885.989
886.805
898.619
915.891
928.98
935.717
939.155
940.683
941.076
940.78
941.398
933.281
917.915
913.886
915.405
915.249
920.843
936.766
919.565
916.817
911.074
906.788
901.883
897.983
893.929
889.543
886.97
893.531
912.174
926.782
934.171
937.525
939.933
940.683
941.369
936.241
915.278
908.711
910.736
915.24
918.913
925.55
938.047
921.495
918.563
916.885
912.805
909.313
905.135
901.737
897.179
890.158
890.637
899.746
914.978
926.018
930.68
932.915
937.49
939.312
926.048
913.116
908.754
908.711
917.043
925.767
929.102
939.984
923.934
918.381
917.96
917.363
915.102
908.026
899.592
896.153
894.555
892.051
892.35
898.881
909.006
915.966
918.523
921.385
925.867
923.131
918.352
913.032
909.331
915.308
926.839
930.529
942.941
929.815
920.64
915.324
907.301
896.972
891.358
892.609
891.494
893.549
892.573
892.292
892.806
896.428
901.719
905.261
907.878
912.476
916.627
919.105
916.881
912.152
915.387
926.761
930.75
944.72
936.87
925.463
908.677
892.677
890.945
892.609
891.017
892.557
892.315
892.557
892.937
893.949
896.767
900.918
904.359
906.587
910.173
916.712
920.785
919.395
914.956
915.991
925.879
930.771
944.929
939.605
924.943
899.914
891.333
892.676
891.017
892.609
891.993
892.557
894.239
896.435
898.736
901.088
903.72
905.951
908.531
912.826
919.462
923.41
921.966
918.058
914.471
924.052
930.77
944.981
936.545
924.306
901.137
892.761
892.196
892.676
891.482
892.608
896.495
900.447
903.66
906.29
908.582
910.271
911.84
915.263
920.606
925.893
928.343
926.619
919.696
913.957
922.838
930.77
945.051
932.759
927.393
905.78
895.208
892.818
892.302
892.676
892.46
903.601
909.451
912.896
915.171
917.144
918.817
921.286
924.772
928.134
929.566
929.536
928.549
920.559
913.958
922.342
929.664
945.135
928.64
930.25
912.546
899.433
893.992
892.76
892.181
892.675
894.964
907.974
916.056
922.928
927.121
927.567
927.539
926.57
927.299
929.366
929.672
929.536
923.411
914.998
921.366
922.836
944.331
924.367
930.307
921.407
904.858
895.72
892.769
892.76
892.305
892.76
896.196
906.612
917.803
925.359
924.747
916.623
912.374
917.627
925.584
929.535
929.671
926.723
916.889
919.207
918.644
943.388
920.58
930.381
922.225
905.899
897.334
893.411
893.073
893.006
894.297
898.206
905.438
912.549
916.918
908.993
903.876
903.107
905.444
918.001
929.398
929.535
926.481
916.39
913.367
915.387
941.331
918.794
928.752
919.703
904.323
897.56
895.153
895.667
897.589
902.307
909.841
915.448
914.524
907.03
903.876
902.197
903.876
905.568
918.245
928.039
927.858
922.398
912.72
907.449
909.76
937.56
916.619
924.677
914.037
901.738
898.09
897.936
900.672
906.693
917.826
926.074
924.351
913.851
906.079
902.597
903.875
903.635
908.249
922.793
925.502
919.928
912.989
907.43
906.017
904.739
933.253
912.85
919.749
910.331
900.474
898.18
898.065
904.237
917.28
932.625
935.136
929.104
915.39
911.857
903.875
902.421
903.875
915.144
922.802
918.554
911.089
907.171
907.33
906.528
902.843
929.186
908.343
916.38
910.635
900.514
898.356
898.259
907.358
925.812
934.713
935.217
927.35
920.728
918.004
902.624
903.875
903.883
917.097
920.18
907.928
901.913
907.021
908.019
906.451
902.555
926.905
904.049
914.702
911.128
901.049
899.569
902.196
915.501
929.633
934.814
931.783
926.018
922.295
909.769
903.874
903.619
905.851
916.544
915.075
897.495
894.431
902.59
908.055
907.163
905.926
926.474
899.519
913.467
911.334
903.449
905.67
914.198
927.953
929.28
926.629
922.141
919.689
915.459
908.297
907.274
907.727
908.524
914.6
913.363
895.806
894.444
894.431
905.834
911.156
910.04
928.285
893.235
912.505
913.316
910.975
922.071
934.436
926.65
914.915
912.113
914.197
913.616
911.402
910.973
915.543
916.525
913.812
913.149
910.599
897.329
894.857
894.444
898.804
911.123
913.01
928.785
884.242
909.409
916.735
925.44
936.783
934.194
914.483
898.472
897.183
902.768
902.281
900.932
910.807
915.702
917.623
917.949
914.311
910.299
901.695
899.728
896.807
899.481
909.312
913.191
930.956
884.009
900.079
915.518
926.394
936.693
926.218
902.629
893.824
893.829
894.689
892.51
892.435
904.589
916.964
919.056
919.045
916.158
912.638
908.944
907.153
903.716
902.349
908.775
913.213
928.82
884.115
881.69
904.702
917.721
932.538
926.927
905.879
898.024
895.792
894.491
892.474
892.361
892.293
913.577
919.084
919.055
916.819
914.524
914.031
912.534
910.618
904.04
906.635
913.215
934.614
882.524
881.163
897.667
916.028
931.765
934.481
919.525
912.055
908.601
903.171
898.563
895.861
892.225
905.08
919.092
919.084
915.6
913.939
914.045
913.95
912.179
909.772
908.612
913.214
903.964
891.089
888.88
908.963
934.618
934.481
934.618
928.649
900.861
888.278
877.88
870.502
867.09
863.678
862.594
873.435
884.095
876.144
875.671
876.318
872.293
870.088
873.509
908.474
877.765
690.552
729.579
739.478
748.611
773.679
772.639
761.904
707.623
644.847
625.077
645.935
666.284
673.311
675.061
668.451
664.274
657.064
653.429
645.479
638.067
632.334
611.743
627.754
771.606
634.354
529.667
529.36
529.952
527.945
526.649
522.985
520.098
518.673
519.345
520.964
522.537
522.994
522.799
522.7
522.72
522.182
521.811
521.133
520.724
520.372
519.886
518.575
517.918
519.672
519.649
514.764
514.719
514.692
514.667
514.61
514.569
514.562
514.575
514.625
514.67
514.634
514.59
514.578
514.575
514.576
514.574
514.578
514.576
514.575
514.578
514.581
514.589
514.603
514.644
514.575
514.542
514.543
514.544
514.548
514.554
514.555
514.554
514.545
514.543
514.543
514.548
514.565
514.578
514.583
514.584
514.585
514.586
514.574
514.556
514.547
514.548
514.561
514.638
514.669
514.576
514.541
514.542
514.546
514.564
514.61
514.63
514.626
514.587
514.553
514.545
514.546
514.562
514.625
514.691
514.702
514.703
514.698
514.674
514.62
514.58
514.572
514.583
514.636
514.676
514.619
514.541
514.544
514.561
514.625
514.688
514.702
514.704
514.701
514.667
514.61
514.557
514.564
514.65
514.704
514.712
514.713
514.714
514.714
514.712
514.703
514.693
514.701
514.71
514.706
514.658
514.542
514.549
514.585
514.677
514.708
514.713
514.714
514.714
514.711
514.688
514.606
514.568
514.61
514.669
514.691
514.709
514.714
514.714
514.714
514.714
514.714
514.714
514.709
514.694
514.653
514.545
514.568
514.641
514.703
514.713
514.714
514.714
514.714
514.714
514.71
514.676
514.594
514.603
514.65
514.695
514.711
514.714
514.714
514.714
514.714
514.714
514.714
514.712
514.698
514.656
)
;

boundaryField
{
    inlet
    {
        type            calculated;
        value           nonuniform List<scalar> 
25
(
770.948
770.947
770.947
770.947
770.947
770.947
770.946
770.946
770.946
770.947
770.947
770.947
770.947
770.947
770.947
770.947
770.947
770.946
770.946
770.946
770.946
770.946
770.947
770.947
770.947
)
;
    }
    outlet
    {
        type            calculated;
        value           nonuniform List<scalar> 
25
(
514.545
514.568
514.64
514.702
514.714
514.714
514.714
514.714
514.714
514.71
514.677
514.595
514.603
514.649
514.695
514.714
514.714
514.714
514.714
514.714
514.714
514.714
514.714
514.698
514.656
)
;
    }
    walls
    {
        type            calculated;
        value           nonuniform List<scalar> 
150
(
952.375
969.667
969.666
964.364
954.573
953.106
950.769
946.13
944.163
943.385
942.194
940.809
940.356
940.246
941.288
943.124
944.342
944.663
942.533
940.632
939.824
939.679
940.043
940.417
940.336
939.476
939.124
939.359
940.47
940.734
935.66
926.482
922.39
922.372
926.485
932.229
935.233
936.051
936.658
936.93
936.939
936.942
936.952
935.804
936.766
938.047
939.984
942.941
944.72
944.929
944.981
945.051
945.135
944.331
943.388
941.331
937.56
933.253
929.186
926.905
926.474
928.285
928.785
930.956
928.82
934.614
903.964
690.552
529.667
514.764
514.542
514.541
514.541
514.542
514.545
960.282
967.902
967.934
967.934
967.93
950.076
935.06
923.776
914.638
911.428
911.144
913.783
919.118
923.398
924.961
925.081
925.395
925.398
925.407
925.408
923.321
921.903
921.458
920.652
919.79
920.641
924.227
928.697
931.262
933.249
934.549
936.753
942.388
946.128
947.892
943.896
939.612
937.721
937.159
935.577
929.582
923.021
920.173
920.843
925.55
929.102
930.529
930.75
930.771
930.77
930.77
929.664
922.836
918.644
915.387
909.76
904.739
902.843
902.555
905.926
910.04
913.01
913.191
913.213
913.215
913.214
877.765
634.354
519.649
514.575
514.576
514.619
514.658
514.653
514.656
)
;
    }
    defaultFaces
    {
        type            empty;
    }
}


// ************************************************************************* //
