/*--------------------------------*- C++ -*----------------------------------*\
| =========                 |                                                 |
| \\      /  F ield         | OpenFOAM: The Open Source CFD Toolbox           |
|  \\    /   O peration     | Version:  2.3.0                                 |
|   \\  /    A nd           | Web:      www.OpenFOAM.org                      |
|    \\/     M anipulation  |                                                 |
\*---------------------------------------------------------------------------*/
FoamFile
{
    version     2.0;
    format      ascii;
    class       volScalarField;
    location    "0.87";
    object      p;
}
// * * * * * * * * * * * * * * * * * * * * * * * * * * * * * * * * * * * * * //

dimensions      [1 -1 -2 0 0 0 0];

internalField   nonuniform List<scalar> 
6000
(
105953
105962
105965
105963
105956
105955
105961
105967
105977
105989
105991
105983
105968
105946
105943
105953
105956
105947
105944
105939
105934
105925
105909
105884
105853
105843
105866
105881
105874
105878
105885
105886
105884
105881
105874
105865
105856
105849
105846
105852
105856
105852
105837
105822
105835
105859
105874
105878
105878
105873
105864
105850
105829
105799
105777
105776
105778
105780
105782
105798
105827
105823
105817
105810
105800
105785
105765
105748
105741
105742
105746
105747
105742
105742
105751
105781
105808
105823
105826
105824
105813
105792
105761
105736
105733
105734
105733
105732
105733
105740
105750
105744
105736
105723
105703
105686
105677
105675
105676
105679
105682
105686
105691
105696
105700
105716
105741
105753
105753
105747
105730
105705
105689
105689
105694
105697
105698
105699
105699
105701
105663
105657
105648
105635
105627
105627
105630
105635
105640
105644
105648
105653
105659
105663
105667
105674
105683
105686
105675
105662
105649
105644
105646
105652
105658
105661
105663
105665
105666
105670
105573
105573
105576
105580
105587
105594
105600
105606
105611
105615
105619
105623
105628
105633
105638
105640
105633
105619
105608
105605
105606
105609
105614
105618
105622
105626
105628
105630
105632
105638
105535
105538
105543
105551
105561
105568
105573
105578
105582
105586
105589
105593
105597
105602
105609
105605
105585
105573
105573
105576
105581
105584
105585
105587
105589
105592
105594
105596
105598
105604
105520
105522
105526
105531
105538
105544
105548
105551
105554
105557
105560
105563
105566
105570
105577
105565
105546
105545
105548
105555
105560
105560
105558
105557
105557
105558
105560
105562
105564
105569
105507
105509
105511
105515
105519
105522
105524
105526
105527
105529
105531
105533
105535
105538
105540
105527
105517
105519
105524
105532
105536
105535
105532
105529
105527
105526
105527
105528
105531
105535
105494
105495
105498
105499
105501
105502
105502
105502
105502
105502
105502
105503
105505
105506
105503
105495
105493
105494
105498
105504
105508
105508
105507
105502
105498
105496
105495
105496
105498
105501
105481
105482
105484
105485
105484
105482
105480
105479
105477
105476
105475
105475
105475
105475
105471
105467
105468
105469
105472
105475
105477
105479
105480
105477
105471
105467
105464
105464
105465
105467
105467
105468
105470
105469
105467
105463
105459
105456
105453
105451
105449
105448
105448
105447
105444
105444
105446
105445
105445
105445
105447
105450
105453
105452
105446
105440
105436
105435
105436
105436
105454
105455
105455
105453
105449
105444
105438
105434
105430
105427
105424
105423
105422
105422
105421
105424
105426
105423
105420
105416
105417
105419
105423
105425
105422
105415
105410
105409
105411
105411
105441
105441
105439
105436
105431
105424
105417
105412
105407
105403
105400
105398
105398
105398
105400
105405
105406
105402
105394
105388
105385
105384
105385
105391
105395
105391
105386
105384
105387
105385
105427
105426
105422
105416
105410
105404
105397
105390
105384
105380
105376
105374
105373
105374
105378
105383
105382
105376
105365
105355
105349
105340
105335
105336
105349
105356
105354
105353
105354
105347
105408
105405
105399
105393
105387
105383
105377
105369
105362
105357
105352
105350
105348
105349
105352
105355
105350
105342
105330
105317
105304
105286
105268
105258
105265
105282
105291
105289
105286
105278
105377
105374
105367
105360
105359
105360
105357
105349
105341
105334
105329
105325
105323
105323
105324
105323
105312
105301
105287
105269
105248
105218
105177
105156
105156
105162
105167
105167
105161
105169
105328
105323
105314
105311
105315
105325
105333
105328
105320
105312
105306
105301
105298
105296
105295
105291
105274
105255
105237
105214
105181
105134
105101
105092
105091
105092
105093
105094
105093
105096
105251
105244
105238
105240
105250
105268
105292
105302
105297
105289
105283
105278
105273
105270
105268
105262
105236
105209
105184
105156
105117
105086
105074
105070
105069
105069
105070
105071
105071
105072
105151
105147
105147
105155
105170
105193
105223
105254
105265
105261
105256
105253
105250
105245
105243
105231
105196
105163
105134
105106
105080
105066
105061
105060
105059
105058
105059
105059
105060
105061
105040
105042
105047
105059
105078
105106
105139
105177
105209
105218
105219
105221
105223
105221
105218
105197
105151
105115
105087
105066
105055
105051
105050
105049
105049
105048
105048
105048
105049
105049
104924
104928
104938
104955
104980
105012
105048
105086
105124
105149
105161
105172
105184
105192
105186
105145
105096
105062
105040
105030
105032
105035
105036
105036
105036
105036
105036
105036
105035
105034
104798
104805
104822
104846
104878
104914
104952
104990
105026
105055
105077
105095
105114
105133
105106
105055
105016
104993
104982
104986
105003
105014
105018
105019
105020
105021
105020
105020
105018
105016
104651
104670
104704
104739
104777
104818
104856
104891
104922
104948
104972
104991
105000
104997
104963
104927
104905
104898
104905
104924
104955
104980
104990
104994
104997
104998
104998
104997
104995
104993
104539
104554
104592
104637
104680
104725
104763
104792
104816
104837
104856
104864
104857
104834
104796
104769
104758
104772
104797
104835
104879
104925
104946
104956
104963
104966
104967
104966
104963
104961
104497
104500
104512
104546
104593
104639
104673
104695
104711
104725
104736
104735
104715
104668
104622
104600
104589
104600
104651
104717
104780
104838
104877
104898
104911
104920
104923
104923
104920
104918
104481
104480
104482
104491
104520
104562
104589
104601
104608
104616
104624
104617
104584
104533
104504
104497
104496
104500
104518
104575
104664
104734
104783
104817
104840
104854
104862
104865
104865
104863
104471
104470
104469
104470
104480
104497
104509
104507
104505
104511
104523
104517
104489
104460
104455
104455
104457
104459
104463
104482
104549
104630
104686
104727
104756
104776
104788
104795
104798
104798
104460
104459
104458
104456
104457
104463
104435
104417
104414
104420
104438
104445
104435
104426
104428
104430
104432
104434
104436
104441
104471
104539
104600
104644
104675
104697
104712
104721
104726
104728
104447
104445
104443
104440
104432
104417
104389
104367
104365
104368
104379
104397
104401
104401
104402
104405
104407
104409
104412
104417
104431
104475
104530
104572
104602
104624
104638
104648
104654
104657
104431
104429
104425
104418
104401
104375
104355
104345
104342
104341
104343
104361
104372
104376
104377
104380
104383
104386
104389
104394
104405
104433
104476
104510
104537
104556
104570
104579
104585
104588
104411
104408
104402
104390
104369
104348
104335
104328
104325
104323
104322
104329
104345
104352
104353
104356
104360
104363
104368
104373
104380
104398
104429
104456
104477
104493
104505
104514
104519
104522
104387
104383
104375
104360
104341
104326
104316
104310
104306
104304
104304
104306
104319
104328
104330
104333
104337
104342
104347
104353
104357
104365
104384
104404
104421
104434
104445
104452
104457
104460
104356
104353
104344
104330
104316
104306
104298
104291
104286
104284
104284
104286
104295
104305
104308
104311
104315
104320
104326
104332
104333
104334
104342
104355
104369
104380
104389
104395
104399
104402
104320
104319
104312
104302
104293
104286
104279
104271
104265
104261
104261
104264
104271
104282
104287
104289
104293
104299
104305
104309
104308
104306
104308
104315
104323
104331
104338
104343
104346
104348
104281
104281
104278
104274
104269
104264
104257
104249
104241
104236
104234
104236
104243
104257
104265
104268
104272
104278
104283
104284
104280
104278
104278
104280
104284
104288
104291
104294
104296
104299
104237
104239
104240
104240
104240
104237
104231
104225
104215
104207
104204
104205
104208
104227
104242
104247
104251
104255
104256
104254
104250
104247
104246
104246
104246
104247
104248
104249
104251
104252
104189
104191
104195
104199
104203
104204
104202
104196
104186
104175
104169
104168
104170
104188
104212
104223
104227
104228
104224
104219
104215
104213
104211
104208
104206
104205
104205
104205
104206
104207
104135
104138
104144
104150
104157
104164
104166
104161
104152
104139
104131
104128
104128
104134
104168
104189
104194
104191
104185
104179
104176
104173
104170
104166
104163
104161
104161
104161
104161
104161
104077
104081
104087
104095
104105
104114
104120
104120
104113
104100
104091
104086
104082
104077
104103
104139
104150
104146
104141
104136
104132
104128
104124
104121
104118
104116
104115
104114
104114
104113
104015
104019
104027
104037
104048
104058
104067
104072
104069
104058
104049
104043
104038
104031
104037
104074
104093
104095
104093
104089
104085
104080
104076
104073
104070
104068
104067
104066
104065
104064
103948
103954
103964
103976
103989
104001
104012
104020
104022
104016
104007
104001
103996
103991
103983
104004
104028
104039
104041
104038
104034
104030
104026
104022
104020
104018
104017
104016
104015
104014
103881
103885
103899
103915
103930
103945
103958
103969
103976
103977
103970
103963
103957
103951
103944
103947
103967
103980
103984
103983
103980
103976
103973
103970
103968
103966
103965
103965
103964
103963
103823
103824
103837
103855
103873
103890
103905
103920
103933
103940
103938
103930
103921
103915
103910
103907
103918
103925
103926
103925
103922
103920
103917
103915
103914
103914
103913
103914
103913
103913
103777
103777
103784
103800
103818
103836
103854
103872
103888
103902
103909
103900
103886
103878
103875
103875
103877
103874
103870
103866
103863
103861
103860
103859
103859
103860
103861
103862
103864
103863
103748
103745
103744
103753
103767
103783
103802
103822
103839
103860
103874
103866
103848
103840
103838
103841
103836
103824
103812
103805
103802
103801
103801
103802
103804
103805
103808
103811
103814
103816
103725
103720
103715
103713
103721
103732
103749
103767
103786
103809
103824
103820
103801
103796
103798
103802
103791
103770
103750
103739
103736
103737
103740
103744
103747
103750
103754
103760
103764
103766
103695
103693
103688
103680
103677
103682
103693
103710
103730
103748
103757
103753
103747
103748
103756
103758
103739
103709
103682
103668
103664
103664
103672
103683
103688
103691
103697
103705
103712
103714
103645
103653
103651
103644
103635
103629
103634
103650
103669
103679
103680
103676
103687
103696
103711
103706
103678
103638
103604
103592
103595
103601
103610
103617
103625
103629
103634
103642
103649
103650
103574
103583
103591
103591
103585
103578
103577
103587
103596
103600
103602
103604
103623
103641
103658
103644
103605
103554
103525
103521
103530
103542
103551
103557
103560
103563
103567
103571
103575
103576
103493
103499
103507
103513
103517
103517
103517
103515
103514
103515
103524
103537
103558
103577
103590
103565
103521
103479
103469
103473
103483
103493
103499
103499
103495
103496
103497
103499
103500
103500
103407
103410
103416
103422
103429
103435
103438
103427
103420
103419
103443
103472
103491
103508
103509
103480
103444
103425
103426
103435
103441
103443
103439
103435
103430
103427
103427
103426
103426
103425
103320
103318
103322
103327
103333
103338
103336
103322
103301
103311
103358
103402
103421
103430
103417
103393
103372
103369
103376
103383
103382
103374
103367
103363
103360
103357
103356
103353
103351
103351
103235
103223
103221
103224
103235
103242
103233
103202
103192
103210
103264
103320
103340
103334
103314
103296
103283
103292
103305
103307
103299
103290
103286
103285
103285
103285
103284
103280
103277
103277
103157
103147
103145
103146
103150
103147
103136
103126
103130
103143
103172
103221
103236
103211
103186
103175
103164
103180
103204
103207
103202
103197
103200
103204
103210
103214
103212
103206
103202
103205
103106
103104
103102
103100
103097
103092
103086
103086
103093
103098
103101
103115
103117
103093
103071
103059
103056
103062
103090
103103
103101
103096
103108
103122
103135
103143
103140
103136
103130
103136
103077
103077
103075
103072
103068
103064
103061
103062
103063
103062
103056
103048
103040
103028
103017
103007
103003
103001
103006
103011
103008
103007
103019
103041
103062
103077
103079
103073
103073
103077
103056
103054
103053
103050
103047
103044
103042
103040
103037
103033
103026
103016
103007
103000
102993
102985
102979
102974
102968
102964
102962
102963
102966
102979
102997
103018
103027
103028
103030
103029
103035
103034
103032
103029
103026
103024
103022
103019
103013
103008
103002
102995
102987
102981
102975
102968
102963
102957
102950
102945
102944
102945
102946
102949
102960
102974
102986
102992
102994
102994
103012
103012
103011
103008
103005
103003
103001
102998
102991
102985
102979
102973
102967
102961
102956
102951
102947
102943
102937
102934
102933
102933
102935
102936
102939
102946
102955
102961
102964
102966
102977
102983
102983
102983
102982
102980
102978
102975
102969
102963
102958
102952
102946
102941
102936
102933
102930
102928
102923
102920
102920
102921
102923
102925
102925
102927
102931
102935
102937
102938
102928
102935
102943
102949
102951
102952
102952
102950
102947
102943
102937
102931
102925
102920
102916
102914
102912
102910
102905
102904
102905
102908
102910
102911
102910
102909
102909
102909
102910
102908
102869
102875
102886
102898
102909
102916
102920
102923
102925
102924
102917
102910
102903
102898
102894
102892
102891
102887
102885
102886
102890
102893
102894
102893
102890
102886
102882
102878
102874
102868
102803
102809
102820
102834
102850
102866
102878
102889
102898
102901
102896
102888
102881
102874
102870
102868
102867
102862
102863
102867
102872
102875
102873
102870
102863
102855
102844
102832
102822
102815
102731
102737
102749
102764
102783
102803
102824
102844
102861
102870
102871
102865
102857
102849
102844
102842
102840
102836
102839
102845
102851
102850
102845
102837
102823
102806
102788
102772
102759
102751
102658
102662
102674
102690
102710
102732
102757
102784
102808
102824
102834
102837
102830
102821
102815
102812
102810
102808
102812
102821
102823
102816
102804
102785
102764
102741
102719
102700
102686
102678
102583
102585
102595
102612
102633
102656
102682
102710
102736
102759
102779
102795
102796
102787
102779
102777
102775
102775
102781
102789
102784
102766
102744
102719
102693
102667
102642
102620
102604
102595
102507
102503
102514
102532
102554
102578
102604
102631
102658
102678
102702
102728
102744
102741
102733
102733
102733
102737
102744
102744
102726
102699
102671
102644
102615
102587
102558
102532
102513
102504
102443
102433
102440
102452
102476
102499
102523
102550
102576
102595
102616
102642
102667
102674
102673
102677
102684
102692
102695
102679
102651
102621
102593
102565
102535
102502
102469
102437
102412
102405
102400
102394
102392
102395
102406
102420
102442
102466
102491
102511
102527
102547
102567
102580
102593
102606
102624
102634
102627
102596
102564
102535
102509
102483
102453
102417
102376
102335
102299
102305
102372
102370
102366
102361
102358
102358
102365
102382
102401
102419
102430
102437
102444
102462
102489
102515
102543
102553
102534
102498
102465
102443
102423
102401
102372
102333
102286
102237
102208
102217
102348
102347
102343
102335
102324
102313
102306
102306
102309
102315
102315
102306
102296
102325
102364
102399
102430
102438
102419
102391
102363
102348
102336
102320
102296
102257
102210
102176
102166
102167
102304
102312
102309
102302
102289
102273
102256
102240
102224
102209
102191
102167
102160
102195
102235
102265
102285
102296
102291
102280
102264
102255
102250
102244
102227
102197
102166
102149
102147
102146
102232
102241
102244
102243
102237
102224
102204
102178
102147
102114
102083
102065
102077
102099
102127
102139
102140
102154
102166
102172
102169
102166
102168
102172
102168
102157
102142
102136
102133
102133
102147
102152
102155
102156
102158
102154
102138
102110
102075
102037
102012
102014
102028
102041
102052
102049
102037
102042
102059
102075
102082
102083
102089
102101
102113
102121
102121
102123
102119
102118
102060
102059
102062
102060
102069
102071
102062
102041
102012
101981
101974
101983
101994
102002
102004
101996
101985
101980
101986
101996
102001
102002
102011
102029
102051
102074
102091
102103
102101
102099
101978
101961
101966
101960
101972
101994
101994
101982
101962
101946
101950
101959
101967
101972
101972
101965
101957
101949
101944
101935
101920
101911
101927
101951
101979
102010
102039
102065
102073
102071
101902
101892
101892
101893
101899
101923
101937
101935
101929
101925
101931
101938
101945
101950
101950
101946
101938
101927
101910
101872
101827
101795
101825
101862
101900
101935
101967
101995
102020
102025
101849
101849
101849
101852
101854
101867
101888
101896
101902
101908
101914
101922
101928
101932
101932
101929
101915
101891
101847
101780
101717
101690
101702
101756
101813
101859
101888
101904
101931
101952
101816
101818
101821
101823
101823
101825
101835
101836
101853
101880
101894
101904
101910
101910
101902
101884
101849
101796
101726
101670
101643
101636
101636
101662
101722
101790
101819
101829
101842
101860
101790
101790
101795
101795
101790
101778
101759
101728
101750
101811
101845
101861
101865
101853
101817
101746
101692
101656
101631
101617
101615
101617
101615
101621
101661
101731
101758
101770
101776
101781
101761
101762
101765
101762
101748
101718
101672
101643
101648
101679
101718
101738
101735
101708
101665
101628
101613
101606
101602
101602
101604
101606
101605
101604
101620
101666
101704
101720
101726
101730
101722
101722
101721
101713
101691
101652
101612
101602
101601
101602
101609
101615
101613
101604
101595
101592
101593
101593
101594
101594
101595
101595
101595
101593
101596
101621
101662
101682
101689
101696
101670
101663
101659
101654
101628
101591
101578
101581
101582
101578
101576
101575
101575
101576
101579
101582
101584
101584
101584
101584
101585
101585
101585
101584
101582
101590
101622
101649
101659
101666
101615
101606
101601
101601
101575
101561
101563
101567
101569
101568
101567
101567
101567
101569
101571
101573
101573
101574
101574
101574
101575
101575
101574
101574
101573
101573
101588
101616
101629
101632
101577
101575
101571
101566
101553
101550
101553
101556
101558
101559
101559
101559
101560
101561
101562
101563
101563
101564
101564
101565
101565
101565
101565
101564
101564
101562
101565
101584
101596
101601
101554
101555
101553
101549
101544
101543
101545
101547
101548
101549
101549
101550
101550
101551
101552
101553
101553
101554
101554
101555
101555
101556
101556
101555
101555
101554
101552
101557
101568
101574
101538
101538
101538
101538
101537
101536
101537
101537
101538
101539
101539
101540
101541
101541
101542
101543
101544
101544
101545
101546
101546
101547
101547
101547
101547
101546
101544
101543
101547
101553
101526
101524
101526
101529
101529
101528
101528
101528
101528
101529
101530
101530
101531
101532
101532
101533
101534
101535
101536
101537
101538
101538
101538
101539
101539
101538
101536
101535
101535
101537
101516
101514
101516
101521
101520
101519
101519
101519
101519
101519
101520
101520
101521
101522
101523
101524
101525
101526
101527
101528
101529
101530
101531
101531
101531
101530
101529
101528
101527
101527
101508
101506
101507
101511
101511
101509
101509
101509
101509
101509
101510
101510
101511
101512
101513
101514
101515
101517
101519
101520
101522
101523
101524
101524
101524
101523
101522
101521
101521
101520
101499
101498
101498
101501
101500
101499
101499
101499
101499
101499
101500
101500
101501
101502
101503
101504
101506
101509
101511
101513
101515
101516
101517
101518
101517
101516
101516
101515
101515
101515
101489
101488
101487
101490
101489
101489
101489
101489
101489
101489
101490
101490
101491
101492
101493
101494
101496
101500
101504
101507
101509
101510
101511
101512
101511
101510
101509
101509
101509
101509
101479
101478
101478
101480
101479
101479
101479
101479
101479
101479
101479
101480
101480
101481
101482
101484
101486
101490
101495
101500
101503
101504
101505
101505
101504
101504
101503
101503
101503
101503
101468
101469
101468
101469
101468
101468
101468
101469
101469
101469
101469
101469
101470
101470
101471
101472
101474
101477
101484
101492
101496
101497
101498
101498
101498
101498
101498
101498
101498
101498
101459
101460
101459
101457
101457
101458
101458
101459
101459
101459
101459
101459
101459
101459
101460
101460
101461
101463
101470
101480
101487
101489
101490
101491
101491
101492
101492
101493
101494
101494
101454
101453
101452
101446
101447
101448
101448
101449
101449
101449
101448
101448
101448
101448
101448
101449
101449
101449
101453
101466
101477
101480
101482
101483
101484
101486
101487
101488
101489
101491
101452
101449
101443
101438
101438
101439
101439
101439
101439
101438
101438
101438
101438
101437
101437
101437
101436
101436
101436
101447
101463
101470
101472
101474
101477
101478
101480
101482
101484
101486
101444
101441
101432
101430
101430
101429
101429
101429
101429
101428
101428
101428
101427
101427
101426
101425
101425
101424
101421
101429
101447
101457
101461
101464
101466
101469
101471
101474
101478
101477
101427
101424
101422
101421
101421
101420
101420
101419
101419
101418
101418
101417
101417
101416
101415
101414
101414
101413
101411
101414
101429
101441
101447
101450
101453
101456
101460
101463
101463
101463
101413
101412
101412
101412
101412
101411
101410
101410
101409
101408
101408
101407
101406
101406
101405
101404
101403
101403
101402
101404
101414
101424
101430
101433
101436
101440
101444
101445
101445
101442
101402
101402
101402
101402
101402
101401
101400
101400
101399
101398
101398
101397
101396
101395
101395
101394
101393
101393
101394
101396
101401
101407
101411
101415
101419
101424
101427
101428
101424
101416
101392
101392
101392
101393
101392
101391
101391
101390
101389
101388
101388
101387
101386
101385
101385
101384
101383
101384
101384
101387
101390
101390
101393
101397
101404
101409
101412
101410
101401
101395
101381
101381
101382
101383
101383
101382
101381
101380
101379
101379
101378
101377
101376
101375
101375
101374
101374
101374
101375
101377
101379
101376
101378
101384
101391
101397
101398
101391
101385
101382
101371
101371
101372
101373
101373
101372
101371
101370
101369
101369
101368
101367
101366
101366
101365
101364
101364
101364
101365
101366
101368
101365
101367
101373
101382
101388
101384
101382
101376
101375
101361
101361
101362
101363
101364
101363
101361
101360
101359
101359
101358
101357
101356
101356
101355
101354
101354
101354
101354
101355
101358
101356
101358
101365
101375
101378
101377
101373
101372
101371
101351
101351
101352
101353
101354
101353
101351
101350
101349
101349
101348
101347
101346
101346
101345
101344
101344
101344
101344
101345
101348
101348
101351
101359
101369
101372
101371
101369
101369
101369
101341
101341
101342
101343
101344
101343
101341
101340
101339
101339
101338
101337
101336
101336
101335
101334
101334
101334
101334
101334
101338
101340
101345
101353
101361
101367
101368
101366
101366
101366
101332
101332
101332
101333
101334
101333
101331
101330
101329
101328
101328
101327
101327
101326
101325
101325
101324
101324
101324
101324
101329
101331
101339
101348
101357
101363
101364
101363
101362
101362
101322
101323
101323
101323
101323
101323
101321
101320
101319
101318
101318
101317
101317
101316
101315
101315
101315
101315
101315
101314
101318
101322
101332
101343
101353
101361
101360
101359
101358
101358
101311
101312
101312
101312
101313
101313
101311
101310
101309
101308
101308
101307
101307
101306
101306
101305
101305
101305
101305
101305
101307
101313
101325
101337
101347
101357
101355
101354
101354
101353
101297
101299
101300
101301
101302
101303
101301
101299
101299
101298
101298
101297
101297
101296
101296
101296
101296
101296
101296
101296
101297
101304
101317
101330
101340
101349
101349
101349
101348
101348
101279
101281
101285
101289
101292
101293
101291
101289
101288
101288
101287
101287
101287
101286
101286
101286
101286
101287
101287
101288
101289
101298
101309
101321
101332
101340
101342
101342
101342
101342
101255
101260
101267
101275
101280
101282
101280
101279
101278
101278
101277
101277
101277
101276
101276
101276
101277
101278
101279
101280
101281
101287
101299
101311
101321
101330
101333
101335
101335
101335
101221
101232
101245
101257
101268
101272
101270
101269
101268
101268
101267
101267
101266
101266
101266
101267
101267
101269
101270
101272
101274
101277
101287
101298
101308
101317
101322
101325
101326
101327
101174
101196
101218
101235
101252
101261
101261
101259
101258
101257
101257
101256
101256
101256
101256
101257
101258
101259
101261
101264
101265
101268
101275
101285
101294
101303
101309
101313
101315
101316
101150
101156
101185
101211
101233
101251
101252
101250
101248
101247
101246
101246
101246
101246
101246
101246
101247
101249
101252
101254
101256
101259
101264
101272
101280
101287
101293
101298
101301
101302
101142
101144
101153
101182
101213
101239
101243
101240
101238
101237
101236
101235
101235
101235
101235
101236
101237
101239
101242
101244
101246
101248
101252
101258
101264
101271
101276
101280
101283
101285
101140
101140
101142
101155
101189
101225
101233
101229
101227
101226
101225
101225
101224
101224
101224
101225
101226
101228
101230
101232
101234
101236
101239
101243
101248
101253
101257
101260
101263
101264
101139
101139
101139
101144
101166
101210
101221
101219
101217
101215
101214
101214
101214
101213
101213
101214
101215
101216
101218
101219
101220
101222
101224
101227
101230
101233
101236
101238
101239
101241
101138
101138
101138
101140
101152
101187
101207
101208
101206
101204
101203
101203
101203
101202
101202
101202
101203
101205
101206
101206
101206
101207
101208
101209
101210
101212
101214
101215
101215
101215
101136
101136
101137
101137
101143
101167
101193
101198
101195
101193
101192
101192
101191
101191
101191
101191
101192
101193
101193
101193
101192
101191
101191
101190
101190
101190
101190
101190
101190
101190
101135
101135
101135
101136
101138
101152
101179
101186
101184
101182
101181
101181
101180
101180
101180
101180
101181
101181
101181
101180
101178
101176
101173
101171
101168
101167
101166
101165
101165
101165
101133
101133
101133
101134
101136
101144
101167
101174
101173
101171
101170
101170
101169
101169
101168
101169
101169
101170
101170
101168
101164
101160
101155
101151
101148
101145
101143
101141
101141
101140
101131
101131
101131
101131
101133
101139
101156
101162
101162
101160
101159
101158
101158
101157
101157
101158
101158
101159
101159
101157
101151
101145
101139
101134
101129
101125
101121
101119
101118
101118
101128
101128
101128
101129
101130
101134
101145
101149
101151
101149
101148
101147
101147
101146
101146
101146
101148
101149
101150
101146
101139
101130
101123
101117
101111
101106
101102
101099
101096
101097
101124
101124
101124
101125
101126
101129
101135
101138
101140
101139
101137
101136
101135
101134
101134
101135
101138
101140
101139
101133
101123
101113
101105
101097
101091
101086
101082
101079
101077
101077
101119
101119
101119
101120
101120
101122
101125
101129
101131
101129
101126
101124
101123
101123
101123
101124
101127
101130
101127
101117
101105
101094
101084
101076
101069
101064
101060
101057
101055
101055
101113
101113
101113
101113
101112
101112
101115
101119
101121
101119
101115
101112
101111
101110
101110
101111
101115
101117
101110
101098
101085
101073
101063
101054
101046
101040
101035
101031
101030
101029
101106
101106
101106
101103
101101
101101
101103
101106
101109
101106
101102
101100
101098
101098
101097
101098
101101
101101
101091
101078
101065
101052
101041
101031
101022
101015
101009
101005
101002
101000
101098
101098
101096
101092
101089
101088
101088
101090
101091
101091
101088
101086
101085
101084
101084
101085
101086
101083
101072
101058
101044
101031
101018
101007
100997
100989
100982
100977
100973
100971
101088
101086
101082
101077
101074
101072
101072
101072
101071
101073
101073
101073
101072
101071
101071
101071
101069
101066
101055
101040
101024
101009
100995
100982
100971
100962
100954
100948
100944
100942
101071
101069
101062
101057
101053
101053
101054
101054
101053
101055
101059
101059
101059
101059
101058
101057
101054
101050
101040
101023
101005
100986
100969
100954
100942
100931
100923
100917
100913
100910
101046
101042
101035
101030
101028
101031
101035
101038
101039
101043
101046
101047
101048
101047
101046
101045
101042
101037
101028
101009
100986
100963
100942
100925
100910
100898
100890
100883
100879
100877
101009
101006
101002
101000
101002
101009
101019
101027
101031
101034
101036
101037
101038
101037
101036
101035
101033
101028
101018
100996
100967
100940
100915
100895
100878
100864
100854
100847
100843
100840
100967
100966
100966
100969
100976
100988
101004
101018
101025
101028
101029
101029
101029
101028
101028
101027
101025
101020
101007
100982
100948
100916
100889
100865
100846
100830
100818
100810
100804
100802
100925
100925
100928
100934
100945
100961
100984
101007
101019
101022
101023
101022
101021
101021
101020
101021
101019
101012
100996
100965
100927
100893
100863
100836
100813
100795
100781
100770
100764
100761
100881
100883
100888
100896
100909
100928
100957
100992
101011
101016
101016
101015
101014
101013
101013
101014
101012
101001
100977
100940
100900
100864
100831
100802
100777
100756
100740
100728
100720
100717
100837
100839
100846
100856
100872
100896
100928
100968
101003
101009
101009
101007
101006
101005
101006
101006
101001
100980
100945
100904
100864
100826
100792