/*--------------------------------*- C++ -*----------------------------------*\
| =========                 |                                                 |
| \\      /  F ield         | OpenFOAM: The Open Source CFD Toolbox           |
|  \\    /   O peration     | Version:  2.3.0                                 |
|   \\  /    A nd           | Web:      www.OpenFOAM.org                      |
|    \\/     M anipulation  |                                                 |
\*---------------------------------------------------------------------------*/
FoamFile
{
    version     2.0;
    format      ascii;
    class       volVectorField;
    location    "0.87";
    object      U;
}
// * * * * * * * * * * * * * * * * * * * * * * * * * * * * * * * * * * * * * //

dimensions      [0 1 -1 0 0 0 0];

internalField   nonuniform List<vector> 
6000
(
(-0.0447083 0.0493305 0)
(-0.0291609 0.0285364 0)
(0.0756398 0.0441953 0)
(0.153518 0.0551815 0)
(0.196432 0.0892676 0)
(0.197872 0.0711668 0)
(0.167939 0.0352218 0)
(0.122288 -0.00478559 0)
(0.0830166 -0.0352402 0)
(0.0461168 -0.0689651 0)
(0.0126375 -0.0826323 0)
(0.0285149 -0.060441 0)
(-0.00278304 0.0594912 0)
(-0.142377 0.175223 0)
(-0.249208 0.125647 0)
(-0.196586 0.0794946 0)
(-0.0774838 0.025284 0)
(0.033682 0.0294671 0)
(0.0501753 -0.0392244 0)
(0.0823019 -0.078902 0)
(0.114045 -0.0584455 0)
(0.183828 -0.0434777 0)
(0.274402 -0.0187235 0)
(0.380977 0.0259719 0)
(0.39384 0.031273 0)
(0.170164 0.117531 0)
(-0.0524961 -0.0448381 0)
(-0.00114276 -0.116771 0)
(-0.0586323 0.0276976 0)
(-0.0284686 0.0919019 0)
(0.011849 0.680371 0)
(0.0294946 0.478859 0)
(0.100175 0.464723 0)
(0.15805 0.483619 0)
(0.210842 0.573891 0)
(0.270064 0.662109 0)
(0.271844 0.670981 0)
(0.241724 0.716095 0)
(0.162871 0.738888 0)
(0.0626575 0.66044 0)
(-0.0166296 0.636125 0)
(-0.0376686 0.639442 0)
(-0.0835608 0.635841 0)
(-0.2155 0.761837 0)
(-0.332655 0.639894 0)
(-0.283965 0.390963 0)
(-0.180315 0.35053 0)
(-0.0632371 0.542978 0)
(0.0338709 0.584339 0)
(0.0944826 0.637227 0)
(0.16426 0.59963 0)
(0.241964 0.559873 0)
(0.320576 0.496177 0)
(0.359167 0.479004 0)
(0.300998 0.805091 0)
(0.182185 1.03306 0)
(0.101811 0.592667 0)
(-0.0348087 0.486829 0)
(-0.155034 0.65251 0)
(-0.0691975 0.364974 0)
(0.00949725 0.507721 0)
(0.0554243 0.305635 0)
(0.0889763 0.299723 0)
(0.10564 0.319274 0)
(0.13855 0.372343 0)
(0.191004 0.442805 0)
(0.219253 0.476961 0)
(0.18982 0.549033 0)
(0.132651 0.653607 0)
(0.0535847 0.574978 0)
(-0.0238681 0.509626 0)
(-0.0645196 0.468522 0)
(-0.14631 0.613679 0)
(-0.259257 0.93726 0)
(-0.280008 0.549629 0)
(-0.261838 0.202275 0)
(-0.210662 0.158445 0)
(-0.128405 0.276672 0)
(-0.0262679 0.300109 0)
(0.0468174 0.313788 0)
(0.128681 0.276584 0)
(0.226932 0.241356 0)
(0.279206 0.220999 0)
(0.203466 0.351932 0)
(0.0999475 0.861817 0)
(0.146476 0.903439 0)
(0.129946 0.761628 0)
(-0.0313166 0.679059 0)
(-0.122989 0.816348 0)
(-0.00759387 0.174139 0)
(0.0130332 0.508926 0)
(0.0494103 0.327103 0)
(0.0637845 0.327282 0)
(0.0796676 0.327508 0)
(0.0817933 0.334561 0)
(0.0702737 0.386704 0)
(0.0470458 0.488651 0)
(0.00204224 0.673914 0)
(-0.01495 0.803987 0)
(-0.0374397 0.758965 0)
(-0.0783002 0.683978 0)
(-0.15011 0.643911 0)
(-0.250283 0.833656 0)
(-0.2408 0.955563 0)
(-0.204042 0.728521 0)
(-0.18655 0.178987 0)
(-0.135781 0.111171 0)
(-0.0946046 0.23863 0)
(-0.0288106 0.30109 0)
(0.0439952 0.307203 0)
(0.101392 0.24288 0)
(0.120144 0.186638 0)
(0.0627956 0.308315 0)
(-0.0694421 0.666613 0)
(-0.0929011 0.763495 0)
(0.0110704 0.845946 0)
(0.0339884 0.72436 0)
(-0.0364177 0.677446 0)
(-0.0498525 0.745625 0)
(0.0329346 0.143548 0)
(0.0295934 0.461736 0)
(0.042443 0.28506 0)
(0.0427701 0.27703 0)
(0.0217419 0.266285 0)
(-0.0273028 0.400033 0)
(-0.100187 0.553225 0)
(-0.16156 0.680603 0)
(-0.18218 0.747158 0)
(-0.144642 0.771136 0)
(-0.117074 0.732978 0)
(-0.13233 0.725257 0)
(-0.186886 0.719223 0)
(-0.234174 0.781725 0)
(-0.191501 0.805174 0)
(-0.124585 0.736276 0)
(-0.0873241 0.141512 0)
(-0.0393815 0.056175 0)
(-0.0309117 0.196347 0)
(-0.0269975 0.218357 0)
(-0.00318436 0.161296 0)
(0.00412618 0.1592 0)
(-0.0360346 0.309483 0)
(-0.132359 0.536638 0)
(-0.157478 0.619285 0)
(-0.105346 0.701052 0)
(-0.0388915 0.75994 0)
(-0.00133612 0.751765 0)
(-0.0388068 0.684726 0)
(-0.0542881 0.752615 0)
(0.0151144 0.100007 0)
(0.0151308 0.322741 0)
(-0.0258329 0.236416 0)
(-0.0753184 0.270977 0)
(-0.143863 0.412714 0)
(-0.24513 0.547167 0)
(-0.264679 0.582039 0)
(-0.239411 0.612712 0)
(-0.202564 0.658636 0)
(-0.156026 0.683481 0)
(-0.132466 0.706761 0)
(-0.127477 0.70333 0)
(-0.14852 0.738533 0)
(-0.172341 0.753027 0)
(-0.179693 0.76842 0)
(-0.0742948 0.660809 0)
(-0.0047866 0.0668344 0)
(0.0375041 0.0674319 0)
(-0.0305625 0.170395 0)
(-0.0849151 0.234415 0)
(-0.0959844 0.262196 0)
(-0.131678 0.326007 0)
(-0.161932 0.398591 0)
(-0.141479 0.49834 0)
(-0.109797 0.599361 0)
(-0.0753707 0.64701 0)
(-0.0345853 0.727112 0)
(-0.00526743 0.727537 0)
(-0.0231255 0.731421 0)
(-0.039715 0.752435 0)
(0.0241291 0.0523289 0)
(-0.0301943 0.53867 0)
(-0.147045 0.458829 0)
(-0.272461 0.478271 0)
(-0.29759 0.5005 0)
(-0.293642 0.515284 0)
(-0.246344 0.521774 0)
(-0.210807 0.570561 0)
(-0.172124 0.615496 0)
(-0.138314 0.65812 0)
(-0.112702 0.678907 0)
(-0.107849 0.721415 0)
(-0.11 0.739705 0)
(-0.133418 0.781787 0)
(-0.158962 0.772139 0)
(-0.0398169 0.497055 0)
(0.00769933 0.0222987 0)
(-0.0153547 0.0724603 0)
(-0.0968898 0.315744 0)
(-0.201187 0.390919 0)
(-0.227293 0.29821 0)
(-0.183894 0.271544 0)
(-0.10538 0.337726 0)
(-0.0610749 0.461342 0)
(-0.0418946 0.552979 0)
(-0.0283039 0.640631 0)
(-0.00686837 0.677383 0)
(0.0108074 0.735366 0)
(0.00653398 0.715853 0)
(-0.00435385 0.772788 0)
(0.0375967 0.0302708 0)
(-0.0501063 0.657583 0)
(-0.169356 0.593803 0)
(-0.247851 0.527623 0)
(-0.241207 0.457275 0)
(-0.203711 0.447974 0)
(-0.18258 0.482209 0)
(-0.154799 0.532872 0)
(-0.129881 0.590688 0)
(-0.100878 0.621358 0)
(-0.0830412 0.678619 0)
(-0.0748852 0.703529 0)
(-0.0733271 0.759934 0)
(-0.0859364 0.778578 0)
(-0.101725 0.802614 0)
(-0.016321 0.31312 0)
(0.0222874 0.0294721 0)
(-0.0653347 0.185152 0)
(-0.219517 0.453745 0)
(-0.264917 0.382538 0)
(-0.256361 0.247539 0)
(-0.145591 0.133855 0)
(-0.0314693 0.256665 0)
(0.0172338 0.446001 0)
(0.0221962 0.55636 0)
(0.0235457 0.622695 0)
(0.0254035 0.684935 0)
(0.0302429 0.702331 0)
(0.0307823 0.736421 0)
(0.0235011 0.768055 0)
(0.0501289 0.047341 0)
(-0.032177 0.676184 0)
(-0.125441 0.621274 0)
(-0.142251 0.503922 0)
(-0.117895 0.439812 0)
(-0.0798672 0.409165 0)
(-0.0885165 0.477519 0)
(-0.0822689 0.519064 0)
(-0.0731639 0.567186 0)
(-0.0537885 0.615949 0)
(-0.0425347 0.655571 0)
(-0.0385514 0.712088 0)
(-0.0295388 0.743092 0)
(-0.0318115 0.794524 0)
(-0.0104379 0.81122 0)
(-0.0071022 0.219419 0)
(-0.027076 0.0545295 0)
(-0.107344 0.425186 0)
(-0.255719 0.487775 0)
(-0.262562 0.411352 0)
(-0.205128 0.119663 0)
(-0.103366 -0.00234626 0)
(-0.0163379 0.156604 0)
(0.0539056 0.435993 0)
(0.0737187 0.54666 0)
(0.0696227 0.636541 0)
(0.0617205 0.678323 0)
(0.0535727 0.715515 0)
(0.0528853 0.724374 0)
(0.039998 0.785122 0)
(0.0540153 0.0777309 0)
(-0.0213869 0.742299 0)
(-0.0790167 0.66018 0)
(-0.0562582 0.468092 0)
(-0.00304065 0.404028 0)
(0.0257421 0.399398 0)
(0.0172382 0.48101 0)
(-0.0017139 0.510746 0)
(-0.00845313 0.567567 0)
(-0.00181143 0.600711 0)
(-0.000222012 0.663323 0)
(0.0021531 0.70012 0)
(0.0102171 0.746302 0)
(0.0235054 0.766909 0)
(0.0750668 0.804531 0)
(0.020266 0.239258 0)
(-0.072621 0.12622 0)
(-0.153045 0.536844 0)
(-0.222054 0.524119 0)
(-0.204372 0.398579 0)
(-0.134261 0.00973234 0)
(-0.0911588 -0.071714 0)
(-0.0492375 0.0816906 0)
(0.0369989 0.345664 0)
(0.106653 0.546981 0)
(0.108538 0.632681 0)
(0.09749 0.704281 0)
(0.0803657 0.7122 0)
(0.0746706 0.746574 0)
(0.0636495 0.778109 0)
(0.0566725 0.120259 0)
(-0.0107203 0.788664 0)
(-0.0483475 0.676588 0)
(0.00814802 0.381748 0)
(0.0746947 0.348144 0)
(0.123507 0.389702 0)
(0.112686 0.500786 0)
(0.0841984 0.535335 0)
(0.0562202 0.571737 0)
(0.0497829 0.615468 0)
(0.0416115 0.654427 0)
(0.03815 0.708519 0)
(0.0419534 0.729818 0)
(0.0590591 0.754643 0)
(0.116842 0.769336 0)
(0.0388231 0.335062 0)
(-0.0897563 0.247627 0)
(-0.153893 0.57425 0)
(-0.145415 0.549189 0)
(-0.121491 0.339708 0)
(-0.0827525 -0.031924 0)
(-0.0866307 -0.0802801 0)
(-0.079107 0.0532081 0)
(-0.0134143 0.220293 0)
(0.101102 0.514434 0)
(0.1468 0.64156 0)
(0.13188 0.706359 0)
(0.108925 0.744121 0)
(0.0969746 0.737403 0)
(0.0871787 0.795885 0)
(0.047172 0.17909 0)
(-0.00432419 0.818304 0)
(-0.00317142 0.671626 0)
(0.0668235 0.306638 0)
(0.122433 0.277617 0)
(0.183168 0.354997 0)
(0.182144 0.527919 0)
(0.16027 0.566177 0)
(0.117177 0.598316 0)
(0.0950955 0.625133 0)
(0.0786525 0.674127 0)
(0.0634928 0.702846 0)
(0.0566946 0.738247 0)
(0.0593218 0.739128 0)
(0.0958902 0.753982 0)
(0.0156542 0.480877 0)
(-0.113321 0.357922 0)
(-0.123896 0.535318 0)
(-0.0508587 0.549872 0)
(-0.0304937 0.3142 0)
(-0.0532408 -0.0229447 0)
(-0.0818723 -0.067498 0)
(-0.0839214 0.0365699 0)
(-0.0508961 0.138188 0)
(0.0405565 0.374701 0)
(0.152254 0.633508 0)
(0.153609 0.741611 0)
(0.114511 0.774353 0)
(0.0814732 0.777633 0)
(0.0575306 0.823814 0)
(0.0184355 0.245371 0)
(0.00820132 0.839956 0)
(0.0573257 0.595911 0)
(0.123164 0.262585 0)
(0.152593 0.223136 0)
(0.195627 0.303205 0)
(0.216556 0.545453 0)
(0.216599 0.606087 0)
(0.161467 0.616823 0)
(0.126739 0.656743 0)
(0.10502 0.687657 0)
(0.0791491 0.728392 0)
(0.060028 0.740729 0)
(0.0390815 0.749273 0)
(0.0380055 0.737296 0)
(-0.0332437 0.622869 0)
(-0.112237 0.418168 0)
(-0.0634019 0.461918 0)
(0.0228987 0.520676 0)
(0.0584217 0.322369 0)
(-0.0204779 0.0356686 0)
(-0.0644347 -0.0450152 0)
(-0.067365 0.0282273 0)
(-0.0573583 0.109642 0)
(-0.0291151 0.252973 0)
(0.0706467 0.556649 0)
(0.125371 0.786146 0)
(0.0784879 0.850972 0)
(-0.00417814 0.848208 0)
(-0.0191154 0.838348 0)
(0.00695271 0.274952 0)
(0.0443369 0.817811 0)
(0.118714 0.502824 0)
(0.16255 0.244502 0)
(0.164194 0.201857 0)
(0.179264 0.27123 0)
(0.217012 0.501316 0)
(0.23948 0.649903 0)
(0.20752 0.671067 0)
(0.15251 0.688162 0)
(0.122661 0.725472 0)
(0.088188 0.748371 0)
(0.0593315 0.779381 0)
(0.0191003 0.76976 0)
(-0.0309467 0.76955 0)
(-0.0981008 0.7266 0)
(-0.107659 0.398293 0)
(-0.0536039 0.335766 0)
(0.0591454 0.441503 0)
(0.104789 0.364998 0)
(0.0253593 0.123497 0)
(-0.0390999 -0.0252961 0)
(-0.0390761 0.0295082 0)
(-0.0457548 0.122699 0)
(-0.0677037 0.241371 0)
(-0.0536215 0.44861 0)
(-0.00172754 0.785703 0)
(-0.00626811 0.971388 0)
(-0.0831066 0.993138 0)
(-0.0462342 0.743272 0)
(0.0169795 0.291719 0)
(0.0753524 0.718253 0)
(0.149819 0.42194 0)
(0.170406 0.245946 0)
(0.150473 0.211438 0)
(0.138945 0.257421 0)
(0.176438 0.428102 0)
(0.21051 0.66355 0)
(0.211036 0.696754 0)
(0.171251 0.732379 0)
(0.138024 0.755368 0)
(0.0999567 0.790805 0)
(0.06136 0.806799 0)
(0.0107506 0.835972 0)
(-0.0646366 0.831689 0)
(-0.119874 0.773991 0)
(-0.11216 0.327604 0)
(-0.0675864 0.254643 0)
(0.0320511 0.327695 0)
(0.0978975 0.368581 0)
(0.0615595 0.209506 0)
(-0.0161004 0.000440656 0)
(-0.0277318 0.0453963 0)
(-0.0539673 0.150147 0)
(-0.0993702 0.277225 0)
(-0.13957 0.437279 0)
(-0.152463 0.706871 0)
(-0.125107 0.97323 0)
(-0.0849879 1.01228 0)
(-0.0177451 0.616014 0)
(0.0214129 0.310102 0)
(0.0758138 0.583259 0)
(0.139216 0.365871 0)
(0.14786 0.260812 0)
(0.116373 0.245157 0)
(0.0825219 0.268163 0)
(0.0939289 0.368543 0)
(0.161058 0.632727 0)
(0.20172 0.72195 0)
(0.1853 0.752855 0)
(0.15845 0.794895 0)
(0.123637 0.826084 0)
(0.0735559 0.863023 0)
(0.0255654 0.883503 0)
(-0.0458444 0.920168 0)
(-0.0953051 0.783099 0)
(-0.106538 0.283578 0)
(-0.0627583 0.204894 0)
(-0.00982274 0.241378 0)
(0.0621285 0.32494 0)
(0.0863813 0.271189 0)
(0.0238577 0.0427466 0)
(-0.00685364 0.0685942 0)
(-0.047175 0.199706 0)
(-0.12346 0.355009 0)
(-0.1872 0.490302 0)
(-0.212724 0.665208 0)
(-0.176428 0.884523 0)
(-0.0664972 0.924541 0)
(-0.0104493 0.542067 0)
(0.00593815 0.321162 0)
(0.0654122 0.483416 0)
(0.115008 0.328041 0)
(0.112703 0.283391 0)
(0.0809619 0.291334 0)
(0.0414719 0.307901 0)
(0.018023 0.345869 0)
(0.0546879 0.524285 0)
(0.166045 0.717835 0)
(0.197928 0.779433 0)
(0.175492 0.82233 0)
(0.149433 0.866815 0)
(0.105435 0.911234 0)
(0.065354 0.939723 0)
(0.0144162 0.969502 0)
(-0.0111088 0.807951 0)
(-0.0645168 0.26128 0)
(-0.0346967 0.189319 0)
(-0.0176147 0.189202 0)
(0.0344561 0.252617 0)
(0.103889 0.282218 0)
(0.090045 0.0764277 0)
(0.0401535 0.0994077 0)
(-0.0201951 0.262104 0)
(-0.138005 0.432888 0)
(-0.200785 0.534236 0)
(-0.187865 0.641049 0)
(-0.120032 0.700694 0)
(-0.0431806 0.729621 0)
(-0.0349292 0.386359 0)
(-0.0322297 0.218127 0)
(0.0617854 0.390727 0)
(0.0828947 0.31038 0)
(0.0702334 0.306204 0)
(0.0411305 0.324345 0)
(0.00679944 0.342673 0)
(-0.0219483 0.364224 0)
(-0.0241186 0.43946 0)
(0.0303045 0.606645 0)
(0.150282 0.767981 0)
(0.178214 0.859482 0)
(0.161102 0.900577 0)
(0.144283 0.942954 0)
(0.111548 0.986939 0)
(0.0771533 1.01802 0)
(0.0749495 0.845549 0)
(0.00447877 0.281606 0)
(0.00347406 0.197411 0)
(-0.00160484 0.170822 0)
(0.0190581 0.190353 0)
(0.098462 0.224361 0)
(0.161576 0.0988517 0)
(0.0879519 0.0793316 0)
(0.0153288 0.304921 0)
(-0.0675358 0.469022 0)
(-0.143897 0.453387 0)
(-0.141181 0.516207 0)
(-0.111673 0.666177 0)
(-0.0495162 0.736364 0)
(-0.0317869 0.560799 0)
(-0.0188775 0.184441 0)
(0.0434529 0.331744 0)
(0.0466833 0.315081 0)
(0.028409 0.330418 0)
(0.000608142 0.35338 0)
(-0.0317096 0.374841 0)
(-0.0641759 0.393989 0)
(-0.0788461 0.426502 0)
(-0.0645523 0.506074 0)
(-0.0023441 0.663967 0)
(0.102062 0.836307 0)
(0.125801 0.92966 0)
(0.147432 0.955639 0)
(0.14792 1.03586 0)
(0.125223 1.03788 0)
(0.141961 0.863074 0)
(0.0586221 0.311853 0)
(0.0318726 0.229487 0)
(0.0115219 0.177369 0)
(0.00350211 0.155614 0)
(0.0576564 0.140174 0)
(0.133877 0.0502674 0)
(0.156255 0.174009 0)
(0.136965 0.61914 0)
(0.012609 0.764584 0)
(-0.0775525 0.73048 0)
(-0.124907 0.777829 0)
(-0.136425 0.864938 0)
(-0.107718 0.885641 0)
(-0.0664325 0.692882 0)
(-0.010019 0.283975 0)
(0.0168161 0.30398 0)
(0.0102043 0.326579 0)
(-0.0105815 0.35484 0)
(-0.0390487 0.383196 0)
(-0.0715168 0.406741 0)
(-0.102891 0.423865 0)
(-0.126827 0.441656 0)
(-0.125314 0.473633 0)
(-0.103872 0.573655 0)
(-0.0470309 0.760112 0)
(0.0179877 0.899034 0)
(0.0673211 0.909772 0)
(0.129588 1.0131 0)
(0.145042 1.10278 0)
(0.200122 0.859933 0)
(0.0873176 0.356945 0)
(0.040508 0.279023 0)
(-0.00500133 0.208549 0)
(-0.0338748 0.150221 0)
(-0.0252404 0.0919556 0)
(-0.00109209 -0.00223327 0)
(0.0137181 0.230836 0)
(-0.00848258 0.638764 0)
(-0.0483069 0.707431 0)
(-0.0817571 0.681347 0)
(-0.100055 0.685523 0)
(-0.106761 0.716064 0)
(-0.0899956 0.729319 0)
(-0.0545977 0.530762 0)
(-0.00506018 0.141554 0)
(-0.000472605 0.300519 0)
(-0.0198333 0.345619 0)
(-0.045266 0.382961 0)
(-0.0771676 0.415912 0)
(-0.112067 0.439883 0)
(-0.141845 0.451933 0)
(-0.161695 0.4594 0)
(-0.170133 0.473421 0)
(-0.15541 0.530213 0)
(-0.148816 0.702797 0)
(-0.0885712 0.840624 0)
(-0.0468291 0.836375 0)
(0.0334105 0.898626 0)
(0.103592 1.13367 0)
(0.22751 0.84358 0)
(0.0691798 0.463803 0)
(0.0114352 0.356913 0)
(-0.0614477 0.26212 0)
(-0.106088 0.172466 0)
(-0.129967 0.0896986 0)
(-0.145414 -0.000864247 0)
(-0.177607 0.219458 0)
(-0.166438 0.605989 0)
(-0.124498 0.684423 0)
(-0.112527 0.657753 0)
(-0.0922402 0.67548 0)
(-0.0761652 0.683721 0)
(-0.0479589 0.678054 0)
(-0.00384787 0.490026 0)
(0.0158921 0.118635 0)
(-0.0129126 0.32052 0)
(-0.044975 0.374334 0)
(-0.0783988 0.413416 0)
(-0.116764 0.4518 0)
(-0.155264 0.472646 0)
(-0.179155 0.474362 0)
(-0.188672 0.47178 0)
(-0.190709 0.477288 0)
(-0.187586 0.519757 0)
(-0.187838 0.666317 0)
(-0.133965 0.789245 0)
(-0.0969298 0.789194 0)
(-0.0228037 0.800903 0)
(0.0527663 1.01741 0)
(0.111973 0.800184 0)
(0.0227416 0.587339 0)
(-0.049864 0.462466 0)
(-0.126772 0.336525 0)
(-0.179553 0.221345 0)
(-0.223676 0.126822 0)
(-0.249282 0.045965 0)
(-0.301604 0.211492 0)
(-0.275176 0.555951 0)
(-0.190692 0.641815 0)
(-0.15084 0.626443 0)
(-0.101668 0.651254 0)
(-0.0567607 0.657528 0)
(-0.00727232 0.637576 0)
(0.0372681 0.435789 0)
(0.0299615 0.151144 0)
(-0.0255931 0.361683 0)
(-0.076204 0.412368 0)
(-0.121458 0.450966 0)
(-0.169259 0.494462 0)
(-0.204609 0.501914 0)
(-0.210987 0.484419 0)
(-0.203358 0.471255 0)
(-0.195144 0.475524 0)
(-0.192181 0.519625 0)
(-0.187081 0.636827 0)
(-0.114798 0.728905 0)
(-0.0506795 0.740316 0)
(0.0196164 0.758012 0)
(0.0715781 0.871172 0)
(0.0762536 0.777175 0)
(0.0212314 0.661527 0)
(-0.0581732 0.53299 0)
(-0.137018 0.395685 0)
(-0.201368 0.270256 0)
(-0.25785 0.171965 0)
(-0.301684 0.114653 0)
(-0.353874 0.205126 0)
(-0.333389 0.48163 0)
(-0.236861 0.564284 0)
(-0.18032 0.556582 0)
(-0.116439 0.574773 0)
(-0.0518957 0.582918 0)
(0.0141453 0.566451 0)
(0.052136 0.418495 0)
(0.031489 0.199056 0)
(-0.0634651 0.407722 0)
(-0.146071 0.460603 0)
(-0.201512 0.501453 0)
(-0.245136 0.541433 0)
(-0.251013 0.512503 0)
(-0.227085 0.470817 0)
(-0.200572 0.455043 0)
(-0.180742 0.46193 0)
(-0.16965 0.508938 0)
(-0.137106 0.59518 0)
(-0.0589782 0.650598 0)
(0.0177101 0.680615 0)
(0.0656276 0.740044 0)
(0.0931684 0.824331 0)
(0.0876189 0.827393 0)
(0.0299454 0.745027 0)
(-0.0552117 0.62271 0)
(-0.144515 0.471553 0)
(-0.225026 0.337146 0)
(-0.290993 0.227366 0)
(-0.347225 0.159414 0)
(-0.374267 0.208325 0)
(-0.360769 0.413251 0)
(-0.27007 0.491637 0)
(-0.201528 0.49203 0)
(-0.132012 0.503245 0)
(-0.0600781 0.512205 0)
(0.00931389 0.505356 0)
(0.0456602 0.410068 0)
(0.0274567 0.245028 0)
(-0.173525 0.576021 0)
(-0.273642 0.58282 0)
(-0.335524 0.554645 0)
(-0.32024 0.547783 0)
(-0.265077 0.482532 0)
(-0.219644 0.43068 0)
(-0.179576 0.422637 0)
(-0.148921 0.436586 0)
(-0.125641 0.482747 0)
(-0.0788105 0.548679 0)
(-0.0135863 0.579647 0)
(0.0461421 0.625931 0)
(0.0903481 0.706698 0)
(0.115564 0.814648 0)
(0.0983825 0.866371 0)
(0.0456909 0.813672 0)
(-0.0484987 0.713654 0)
(-0.166826 0.566172 0)
(-0.25988 0.419146 0)
(-0.330723 0.289327 0)
(-0.378002 0.199293 0)
(-0.396835 0.207642 0)
(-0.379102 0.345109 0)
(-0.293136 0.417277 0)
(-0.219795 0.420005 0)
(-0.147852 0.430911 0)
(-0.0756671 0.442752 0)
(-0.00822818 0.444991 0)
(0.0298478 0.398592 0)
(0.021247 0.281474 0)
(-0.0824869 0.823505 0)
(-0.212355 0.620812 0)
(-0.327629 0.488539 0)
(-0.311572 0.526183 0)
(-0.244743 0.433672 0)
(-0.190408 0.377396 0)
(-0.143936 0.381523 0)
(-0.105554 0.40363 0)
(-0.0800413 0.456746 0)
(-0.0419156 0.505722 0)
(0.00353063 0.522367 0)
(0.0563438 0.574056 0)
(0.116868 0.66452 0)
(0.143608 0.795544 0)
(0.119898 0.913061 0)
(0.0965145 0.873908 0)
(5.48883e-05 0.823178 0)
(-0.185794 0.632189 0)
(-0.318379 0.486103 0)
(-0.387398 0.337908 0)
(-0.411781 0.230329 0)
(-0.41898 0.199754 0)
(-0.391151 0.272242 0)
(-0.308481 0.339432 0)
(-0.234405 0.347063 0)
(-0.162608 0.359396 0)
(-0.0939458 0.374461 0)
(-0.0315946 0.387186 0)
(0.00861585 0.380947 0)
(0.0133658 0.304154 0)
(0.0375878 1.02283 0)
(0.00446173 1.00033 0)
(-0.177962 0.717881 0)
(-0.25071 0.372596 0)
(-0.242887 0.38226 0)
(-0.147373 0.31212 0)
(-0.0972941 0.338387 0)
(-0.060016 0.373534 0)
(-0.0456973 0.441542 0)
(-0.0277676 0.47684 0)
(0.00526094 0.473799 0)
(0.0693531 0.512585 0)
(0.144194 0.586675 0)
(0.166191 0.791036 0)
(0.144317 0.960133 0)
(0.0422093 0.899883 0)
(-0.0809153 0.998922 0)
(-0.191768 0.85332 0)
(-0.347113 0.57364 0)
(-0.424444 0.346733 0)
(-0.448288 0.229261 0)
(-0.432988 0.184072 0)
(-0.393185 0.217961 0)
(-0.315627 0.257916 0)
(-0.242201 0.2721 0)
(-0.173792 0.289872 0)
(-0.111733 0.311161 0)
(-0.057074 0.334868 0)
(-0.0151443 0.353788 0)
(0.0047007 0.310955 0)
(0.06689 0.775939 0)
(0.163524 0.920996 0)
(0.0852055 0.963053 0)
(-0.12798 0.733779 0)
(-0.189821 0.307205 0)
(-0.125267 0.20558 0)
(-0.0483823 0.292043 0)
(-0.0199454 0.35199 0)
(-0.0208275 0.441608 0)
(-0.0306223 0.465141 0)
(-0.00547491 0.418813 0)
(0.0678923 0.415805 0)
(0.191477 0.491592 0)
(0.179311 0.854215 0)
(0.088813 1.18182 0)
(-0.0610163 1.16524 0)
(-0.158281 1.14358 0)
(-0.194428 1.04962 0)
(-0.336863 0.885227 0)
(-0.437082 0.416555 0)
(-0.477145 0.20355 0)
(-0.451559 0.138516 0)
(-0.385708 0.160697 0)
(-0.308804 0.186735 0)
(-0.239117 0.205202 0)
(-0.177109 0.229002 0)
(-0.123195 0.257015 0)
(-0.0760201 0.287922 0)
(-0.0344193 0.317936 0)
(-0.00344268 0.302145 0)
(0.0434648 0.578966 0)
(0.172007 0.839214 0)
(0.21643 0.925844 0)
(0.200918 0.797348 0)
(0.128535 0.416904 0)
(-0.0291921 0.19966 0)
(0.0331553 0.264878 0)
(0.0190679 0.350689 0)
(0.00458392 0.48509 0)
(-0.0583046 0.50303 0)
(-0.044587 0.357021 0)
(0.0253206 0.316065 0)
(0.127283 0.428979 0)
(0.00473914 1.0845 0)
(-0.0506225 1.17958 0)
(-0.103858 1.17131 0)
(-0.150167 1.06862 0)
(-0.16834 1.00127 0)
(-0.212992 0.928209 0)
(-0.421586 0.690281 0)
(-0.453307 0.160776 0)
(-0.433871 0.0617435 0)
(-0.358907 0.0919593 0)
(-0.284717 0.11789 0)
(-0.223076 0.145956 0)
(-0.169804 0.178728 0)
(-0.124107 0.213652 0)
(-0.0830975 0.247484 0)
(-0.0440351 0.279749 0)
(-0.00856803 0.281567 0)
(0.0268506 0.460242 0)
(0.16695 0.737611 0)
(0.287124 0.800371 0)
(0.452305 0.705961 0)
(0.518246 0.464387 0)
(0.458444 0.143752 0)
(0.172001 0.344041 0)
(0.223497 0.385532 0)
(0.146381 0.510635 0)
(0.00534601 0.541704 0)
(-0.104038 0.345017 0)
(-0.0601303 0.24184 0)
(-0.0789872 0.472736 0)
(-0.167675 1.12118 0)
(-0.114051 1.17936 0)
(-0.115855 1.17119 0)
(-0.135346 1.12355 0)
(-0.167412 1.01382 0)
(-0.180977 0.964258 0)
(-0.317369 0.837176 0)
(-0.345686 0.224321 0)
(-0.335537 -0.0063535 0)
(-0.294192 0.0243011 0)
(-0.238949 0.0623886 0)
(-0.192576 0.0963357 0)
(-0.15187 0.136103 0)
(-0.115251 0.176403 0)
(-0.0801034 0.211521 0)
(-0.0453125 0.244024 0)
(-0.0104941 0.2556 0)
(0.0217785 0.346415 0)
(0.182396 0.639663 0)
(0.337731 0.638541 0)
(0.530029 0.494001 0)
(0.643287 0.356878 0)
(0.682063 0.365199 0)
(0.598385 0.440346 0)
(0.445106 0.607709 0)
(0.247999 0.720838 0)
(0.111765 0.808524 0)
(-0.0623817 0.414108 0)
(-0.216117 0.249991 0)
(-0.325948 0.529361 0)
(-0.29347 1.07488 0)
(-0.185479 1.14341 0)
(-0.144156 1.16925 0)
(-0.143117 1.12316 0)
(-0.165826 1.04177 0)
(-0.16746 0.992389 0)
(-0.213419 0.891516 0)
(-0.194624 0.261674 0)
(-0.20497 -0.0378287 0)
(-0.209383 -0.0109233 0)
(-0.183333 0.0275263 0)
(-0.156114 0.0621043 0)
(-0.129703 0.10464 0)
(-0.102666 0.145587 0)
(-0.072925 0.179181 0)
(-0.0427824 0.212185 0)
(-0.0106322 0.228667 0)
(0.0158731 0.242441 0)
(0.182735 0.490035 0)
(0.341463 0.452582 0)
(0.497373 0.343935 0)
(0.575473 0.281652 0)
(0.611338 0.393788 0)
(0.57866 0.653766 0)
(0.406196 0.697258 0)
(0.295624 0.788029 0)
(0.188867 0.845707 0)
(0.0064149 0.78611 0)
(-0.255126 0.410623 0)
(-0.421087 0.553289 0)
(-0.360912 0.94396 0)
(-0.249904 1.09665 0)
(-0.184253 1.12114 0)
(-0.183731 1.12604 0)
(-0.199285 1.06049 0)
(-0.191368 1.01566 0)
(-0.160694 0.877801 0)
(-0.0842512 0.262658 0)
(-0.103641 -0.0259909 0)
(-0.137133 -0.0145569 0)
(-0.135244 0.0116735 0)
(-0.124789 0.0414823 0)
(-0.11008 0.0832089 0)
(-0.0904811 0.120143 0)
(-0.0651162 0.150232 0)
(-0.0395193 0.184563 0)
(-0.0101281 0.2022 0)
(0.00434511 0.149914 0)
(0.143836 0.33954 0)
(0.281686 0.305652 0)
(0.390656 0.246367 0)
(0.433695 0.232247 0)
(0.469369 0.400891 0)
(0.479507 0.697396 0)
(0.397844 0.803047 0)
(0.310436 0.88063 0)
(0.203344 0.955543 0)
(0.0766274 0.914544 0)
(-0.201816 0.760894 0)
(-0.383493 0.583458 0)
(-0.370024 0.816254 0)
(-0.296886 1.05877 0)
(-0.247622 1.11201 0)
(-0.238478 1.11191 0)
(-0.253719 1.06815 0)
(-0.227234 0.966104 0)
(-0.117635 0.740531 0)
(-0.0104284 0.242653 0)
(-0.0362575 0.00793849 0)
(-0.0837941 -0.00189464 0)
(-0.0963265 0.00839177 0)
(-0.100561 0.0311722 0)
(-0.0946096 0.0689089 0)
(-0.0790148 0.0985024 0)
(-0.0570197 0.12433 0)
(-0.0360818 0.161227 0)
(-0.00907795 0.176633 0)
(-0.010187 0.107169 0)
(0.0879062 0.224819 0)
(0.181752 0.18665 0)
(0.26529 0.171745 0)
(0.310602 0.215701 0)
(0.342968 0.381118 0)
(0.418789 0.697033 0)
(0.403725 0.872701 0)
(0.343184 0.980675 0)
(0.224137 1.07387 0)
(0.0871922 1.10219 0)
(-0.144257 1.03435 0)
(-0.309532 0.674185 0)
(-0.372575 0.749615 0)
(-0.337603 1.03786 0)
(-0.302958 1.10338 0)
(-0.295927 1.11471 0)
(-0.300307 1.04289 0)
(-0.240893 0.892021 0)
(-0.0653954 0.570785 0)
(0.0370771 0.212282 0)
(0.0104574 0.0654976 0)
(-0.035922 0.0251796 0)
(-0.0662611 0.0188293 0)
(-0.0806144 0.0337172 0)
(-0.0772248 0.0601547 0)
(-0.0649982 0.0812037 0)
(-0.047933 0.103085 0)
(-0.0323758 0.143829 0)
(-0.0064799 0.153447 0)
(-0.0204046 0.0920202 0)
(0.0405448 0.144614 0)
(0.0899345 0.114298 0)
(0.133735 0.124746 0)
(0.180069 0.189181 0)
(0.230298 0.312524 0)
(0.336481 0.588224 0)
(0.417564 0.917043 0)
(0.388958 1.06349 0)
(0.260967 1.21619 0)
(0.110904 1.26009 0)
(-0.101135 1.24124 0)
(-0.297729 0.827394 0)
(-0.401107 0.738134 0)
(-0.377162 0.997111 0)
(-0.333871 1.11103 0)
(-0.317237 1.1057 0)
(-0.307412 1.01674 0)
(-0.179071 0.751967 0)
(-0.0059414 0.402282 0)
(0.0587948 0.189237 0)
(0.0388316 0.112838 0)
(-0.00155237 0.0785073 0)
(-0.0360019 0.0511937 0)
(-0.0516625 0.0426128 0)
(-0.0524121 0.0554479 0)
(-0.0458722 0.0700666 0)
(-0.0360282 0.0889314 0)
(-0.026789 0.127139 0)
(-0.0021232 0.134214 0)
(-0.0168079 0.0992085 0)
(0.00848049 0.106773 0)
(0.0225554 0.0829334 0)
(0.0387186 0.0888167 0)
(0.0673817 0.134643 0)
(0.13209 0.221358 0)
(0.223371 0.439604 0)
(0.385894 0.850457 0)
(0.436831 1.1563 0)
(0.327456 1.33042 0)
(0.168827 1.46911 0)
(-0.0361228 1.4351 0)
(-0.303614 1.02454 0)
(-0.443591 0.753868 0)
(-0.424239 0.935124 0)
(-0.34971 1.11137 0)
(-0.305613 1.10942 0)
(-0.242815 0.933164 0)
(-0.0770915 0.574319 0)
(0.0324914 0.296052 0)
(0.0581853 0.18499 0)
(0.0432954 0.14165 0)
(0.0197015 0.108399 0)
(-0.0025064 0.0711667 0)
(-0.017219 0.0517384 0)
(-0.0246598 0.0558314 0)
(-0.0253837 0.0658159 0)
(-0.0227257 0.0821461 0)
(-0.0202971 0.116076 0)
(0.00216669 0.120732 0)
(-0.00977159 0.106872 0)
(-0.00664229 0.0984556 0)
(-0.00848848 0.0816455 0)
(-0.00940133 0.0748058 0)
(0.00532558 0.0936744 0)
(0.0481011 0.147455 0)
(0.121132 0.316905 0)
(0.292064 0.656828 0)
(0.451287 1.17161 0)
(0.413679 1.47061 0)
(0.260616 1.63499 0)
(0.0527299 1.68643 0)
(-0.282648 1.31554 0)
(-0.46969 0.787919 0)
(-0.465318 0.842049 0)
(-0.352636 1.05803 0)
(-0.241639 1.06948 0)
(-0.119956 0.777895 0)
(0.00486969 0.44605 0)
(0.0471314 0.257229 0)
(0.0489788 0.191226 0)
(0.0399394 0.15971 0)
(0.0299528 0.123403 0)
(0.018806 0.0839177 0)
(0.00612929 0.0631283 0)
(-0.00440471 0.0614076 0)
(-0.0100362 0.0672812 0)
(-0.0126254 0.0812781 0)
(-0.0137614 0.109532 0)
(0.00497791 0.113291 0)
(-0.006244 0.114519 0)
(-0.0120085 0.101203 0)
(-0.0183495 0.0881917 0)
(-0.0246151 0.0780089 0)
(-0.0249643 0.0768661 0)
(-0.00927163 0.105651 0)
(0.051494 0.216484 0)
(0.172372 0.448301 0)
(0.40455 1.02059 0)
(0.48001 1.57091 0)
(0.350094 1.8416 0)
(0.17475 1.88125 0)
(-0.181377 1.7416 0)
(-0.411479 0.864234 0)
(-0.452217 0.739768 0)
(-0.335771 0.902817 0)
(-0.149956 0.932725 0)
(-0.0208192 0.636305 0)
(0.0442781 0.393813 0)
(0.0488056 0.254893 0)
(0.0415286 0.198812 0)
(0.0366349 0.164498 0)
(0.0331025 0.126012 0)
(0.0259099 0.09222 0)
(0.0150195 0.0743988 0)
(0.00503582 0.0689666 0)
(-0.00199407 0.0717738 0)
(-0.00669465 0.0835875 0)
(-0.00737112 0.103585 0)
(0.00477905 0.110538 0)
(-0.00488623 0.123209 0)
(-0.013828 0.107928 0)
(-0.0218418 0.0952661 0)
(-0.0292843 0.0849276 0)
(-0.0348922 0.0778514 0)
(-0.033783 0.0837098 0)
(-0.00318406 0.137106 0)
(0.0822583 0.282706 0)
(0.298885 0.757934 0)
(0.492639 1.64162 0)
(0.421128 1.94485 0)
(0.305823 2.09743 0)
(0.0872256 2.03009 0)
(-0.21469 1.01402 0)
(-0.382059 0.687689 0)
(-0.304718 0.732481 0)
(-0.0959015 0.751647 0)
(0.0179578 0.550528 0)
(0.0530877 0.380382 0)
(0.0483644 0.263863 0)
(0.0404621 0.204791 0)
(0.0359591 0.165554 0)
(0.0315549 0.129438 0)
(0.0241674 0.101433 0)
(0.0150687 0.084596 0)
(0.00711491 0.0766789 0)
(0.000779629 0.0773725 0)
(-0.00316825 0.0864643 0)
(-0.00256338 0.0994694 0)
(0.00319701 0.109831 0)
(-0.00482532 0.133027 0)
(-0.0157939 0.11686 0)
(-0.0250163 0.102889 0)
(-0.0324156 0.0915743 0)
(-0.0382502 0.0827726 0)
(-0.0401696 0.079762 0)
(-0.0284293 0.0955524 0)
(0.0228296 0.168564 0)
(0.167637 0.49062 0)
(0.417501 1.56634 0)
(0.450896 2.05129 0)
(0.400384 2.15327 0)
(0.350539 2.20426 0)
(0.00951137 1.45894 0)
(-0.235614 0.708647 0)
(-0.240441 0.603579 0)
(-0.0910956 0.596351 0)
(0.0147419 0.496724 0)
(0.046289 0.373078 0)
(0.0466304 0.270432 0)
(0.0405786 0.210162 0)
(0.0346658 0.169944 0)
(0.0282298 0.136327 0)
(0.0206065 0.110239 0)
(0.0130642 0.0928027 0)
(0.00678593 0.0833952 0)
(0.00166701 0.0823918 0)
(-0.00068338 0.0879407 0)
(9.36602e-05 0.0972105 0)
(0.00186134 0.11018 0)
(-0.00571285 0.144964 0)
(-0.0194408 0.128326 0)
(-0.0305038 0.111174 0)
(-0.0376298 0.0976441 0)
(-0.0422445 0.0866756 0)
(-0.0437843 0.0790197 0)
(-0.0383731 0.0791656 0)
(-0.013567 0.10258 0)
(0.0697491 0.277094 0)
(0.296498 1.3796 0)
(0.418481 2.01763 0)
(0.42934 2.22725 0)
(0.451978 2.21471 0)
(0.260707 2.00705 0)
(-0.0348687 0.82893 0)
(-0.171439 0.554385 0)
(-0.0963379 0.49649 0)
(-0.0117576 0.443433 0)
(0.0304406 0.355134 0)
(0.039443 0.27074 0)
(0.0364398 0.215203 0)
(0.031354 0.176199 0)
(0.0251797 0.143532 0)
(0.0185874 0.117576 0)
(0.012468 0.0993687 0)
(0.00725151 0.0889374 0)
(0.00310061 0.0860829 0)
(0.00159401 0.0886496 0)
(0.00154673 0.0966771 0)
(0.00103139 0.111064 0)
(-0.00710091 0.158448 0)
(-0.0258261 0.143464 0)
(-0.0406128 0.120183 0)
(-0.0467846 0.102963 0)
(-0.0497742 0.0892581 0)
(-0.0499203 0.0776216 0)
(-0.0452655 0.0704535 0)
(-0.0312404 0.074005 0)
(0.0129972 0.151969 0)
(0.171857 1.17855 0)
(0.3627 1.97205 0)
(0.420536 2.16509 0)
(0.47094 2.21663 0)
(0.468522 2.08971 0)
(0.166051 1.20196 0)
(-0.105735 0.552095 0)
(-0.0815636 0.44025 0)
(-0.0284947 0.389545 0)
(0.0156428 0.327774 0)
(0.0301794 0.265657 0)
(0.0311929 0.218132 0)
(0.0286266 0.180888 0)
(0.0245825 0.149261 0)
(0.0197907 0.123445 0)
(0.0149002 0.104841 0)
(0.0102507 0.093693 0)
(0.00625914 0.0892908 0)
(0.0044671 0.0898106 0)
(0.00285034 0.0977357 0)
(0.000673567 0.112373 0)
(-0.00793757 0.173057 0)
(-0.0372051 0.165457 0)
(-0.0577679 0.126508 0)
(-0.0614947 0.1061 0)