/*--------------------------------*- C++ -*----------------------------------*\
| =========                 |                                                 |
| \\      /  F ield         | OpenFOAM: The Open Source CFD Toolbox           |
|  \\    /   O peration     | Version:  2.3.0                                 |
|   \\  /    A nd           | Web:      www.OpenFOAM.org                      |
|    \\/     M anipulation  |                                                 |
\*---------------------------------------------------------------------------*/
FoamFile
{
    version     2.0;
    format      ascii;
    class       volScalarField;
    location    "89";
    object      nut.water;
}
// * * * * * * * * * * * * * * * * * * * * * * * * * * * * * * * * * * * * * //

dimensions      [0 2 -1 0 0 0 0];

internalField   nonuniform List<scalar> 
1875
(
0.00104021
0.00109262
0.00118009
0.00126197
0.00133636
0.00140139
0.0014576
0.0015062
0.00154791
0.00158416
0.00161593
0.00164302
0.00166482
0.00168179
0.00168637
0.00168446
0.00166979
0.00163433
0.00158016
0.00150747
0.00141727
0.00130879
0.00117577
0.00100746
0.00080659
0.00108823
0.00125771
0.00139845
0.00149823
0.00156864
0.00161661
0.00164879
0.00166943
0.00168263
0.00168799
0.00169353
0.00169908
0.00170301
0.00170719
0.00171047
0.00171419
0.00170824
0.00169008
0.00165459
0.00158972
0.00149906
0.00137823
0.00121826
0.00100958
0.000771139
0.00138178
0.00158239
0.00173288
0.00182768
0.00188316
0.00190892
0.0019154
0.00190901
0.00189407
0.00187396
0.00185352
0.00183391
0.00181363
0.0017942
0.00177612
0.00175526
0.00173401
0.00170699
0.00167298
0.00161265
0.00153152
0.00142271
0.00128457
0.00112705
0.000984598
0.00177504
0.00199104
0.0020988
0.00214102
0.00214552
0.00212802
0.00209943
0.00206378
0.00202561
0.00198727
0.00194975
0.00191335
0.00187783
0.0018443
0.00181311
0.00178234
0.00175065
0.00171351
0.00166932
0.00160781
0.00152688
0.00142744
0.00131019
0.00118149
0.00106048
0.00226944
0.00234655
0.00234719
0.00231909
0.00227551
0.00222319
0.00216798
0.00211348
0.00206183
0.00201344
0.00196774
0.00192468
0.00188401
0.00184576
0.00180979
0.00177367
0.00173355
0.00169028
0.00164057
0.00158027
0.00150551
0.00141605
0.00131305
0.00120507
0.00110226
0.00258772
0.00257727
0.00251276
0.00242972
0.0023401
0.00225173
0.00216986
0.00209709
0.00203342
0.0019788
0.00193128
0.00188872
0.00184885
0.00180972
0.0017698
0.00172808
0.00168651
0.00164437
0.00159416
0.00153607
0.00146869
0.00139058
0.00130533
0.00121711
0.00113136
0.00274359
0.00269298
0.00258072
0.00245868
0.00233773
0.00222457
0.00212354
0.00203664
0.00196531
0.00190702
0.00185863
0.00181651
0.00177782
0.00174064
0.00170423
0.00166787
0.00163042
0.00159074
0.00154414
0.00149204
0.00143353
0.00136747
0.00129715
0.00122507
0.00115616
0.00291491
0.00278917
0.00262262
0.00246236
0.00231352
0.00217535
0.00205571
0.00195773
0.00187768
0.00181711
0.00176976
0.00173117
0.00169695
0.00166529
0.00163583
0.00160689
0.0015772
0.00154061
0.00149914
0.00145264
0.00140088
0.00134328
0.00128256
0.00121895
0.00115122
0.00299458
0.0028273
0.00262651
0.00244179
0.0022711
0.00211498
0.00198231
0.00187513
0.00178888
0.00173102
0.00168741
0.00165414
0.0016265
0.00160211
0.00158048
0.00155826
0.00152966
0.00149618
0.00145898
0.00141763
0.00137126
0.00131928
0.00126345
0.0012024
0.00113416
0.00303439
0.00283706
0.00261598
0.00241628
0.00222854
0.0020578
0.00191462
0.00179892
0.00171565
0.00166151
0.00162693
0.00160281
0.00158165
0.00156329
0.00154494
0.00152311
0.00149841
0.00147045
0.0014376
0.00139921
0.00135487
0.00130478
0.00124869
0.00118474
0.00111186
0.00308752
0.00284581
0.00260497
0.00239326
0.00219638
0.00202032
0.00187509
0.00176381
0.00168436
0.00163504
0.00160447
0.00158455
0.00157004
0.00155839
0.00154501
0.00152847
0.00150718
0.00148014
0.00144702
0.0014075
0.00136092
0.0013077
0.00124638
0.00117494
0.00109159
0.00311036
0.00283998
0.0025889
0.00237457
0.00217983
0.00200912
0.00187135
0.00176836
0.00169914
0.00165798
0.00163516
0.00162256
0.00161469
0.00160727
0.00159713
0.00158226
0.00156095
0.00153249
0.00149637
0.00145201
0.00139894
0.00133666
0.00126353
0.00117612
0.00107186
0.00298021
0.00275871
0.00254132
0.00234906
0.00217226
0.00201632
0.00188991
0.0017987
0.00174154
0.00171134
0.00169916
0.00169668
0.00169726
0.00169614
0.00168965
0.00167691
0.00165607
0.00162605
0.00158616
0.00153576
0.0014744
0.00140202
0.0013185
0.0012202
0.00110971
0.00274888
0.00262271
0.00247
0.00231747
0.00217017
0.00203771
0.00193218
0.00185829
0.00181521
0.00179655
0.00179375
0.00179883
0.0018057
0.0018095
0.00180721
0.00179815
0.00177968
0.00175055
0.00170967
0.00165622
0.00158964
0.00150913
0.00141529
0.00130651
0.00119469
0.00257083
0.00250291
0.0024027
0.00229098
0.00217676
0.00207149
0.00198692
0.00192941
0.00189884
0.00188958
0.00189412
0.00190539
0.00191805
0.0019279
0.00193175
0.00192904
0.00191679
0.00189337
0.00185712
0.00180621
0.00173884
0.00165437
0.0015496
0.00142379
0.00128951
0.00249522
0.00244055
0.00236464
0.00228014
0.00219237
0.00211086
0.00204509
0.00200162
0.00198057
0.00197774
0.00198716
0.00200321
0.00202143
0.00203798
0.0020497
0.00205588
0.00205386
0.00204149
0.00201668
0.00197664
0.00191851
0.0018384
0.00173166
0.001593
0.00142423
0.00244524
0.002404
0.0023481
0.00228515
0.00221728
0.00215428
0.00210313
0.00206979
0.00205543
0.00205661
0.00206884
0.00208784
0.00210996
0.00213197
0.00215152
0.00216681
0.00217655
0.0021785
0.00217016
0.0021495
0.00211324
0.00205661
0.00197241
0.00184966
0.001669
0.00242593
0.00239289
0.00235013
0.00230114
0.00224984
0.00220088
0.00216059
0.00213416
0.00212304
0.00212562
0.00213868
0.00215879
0.00218282
0.00220828
0.0022332
0.00225579
0.00227455
0.00228814
0.00229581
0.00229601
0.00228632
0.00226367
0.00222327
0.00215987
0.00205019
0.00244029
0.00240548
0.00236948
0.00233195
0.0022921
0.00225223
0.00221862
0.00219515
0.00218406
0.00218525
0.00219694
0.00221633
0.00224075
0.00226792
0.00229575
0.00232297
0.00234792
0.00236932
0.00238632
0.00239822
0.00240412
0.00240216
0.00239019
0.00237051
0.00234058
0.00243865
0.00240995
0.00238273
0.00235415
0.00232613
0.00229553
0.00226837
0.00224722
0.00223571
0.0022351
0.00224436
0.00226209
0.00228588
0.00231353
0.00234292
0.00237302
0.00240206
0.00242883
0.00245235
0.00247162
0.0024848
0.00248985
0.00248407
0.00246789
0.00243215
0.00237146
0.00236225
0.00235266
0.00233805
0.00232341
0.00230891
0.00229152
0.00227748
0.00226855
0.00226813
0.00227702
0.00229374
0.00231732
0.00234539
0.00237672
0.00240934
0.00244177
0.00247268
0.00250085
0.00252488
0.00254304
0.00255322
0.00255208
0.00254096
0.00251886
0.00221218
0.00223267
0.0022526
0.00226668
0.00227342
0.00227432
0.00227227
0.00227015
0.00227066
0.00227488
0.00228661
0.00230614
0.00233069
0.00236179
0.00239646
0.00243291
0.00246953
0.00250485
0.00253744
0.00256562
0.00258724
0.00259988
0.00260012
0.00258727
0.00256297
0.00192652
0.00200572
0.00206871
0.00212167
0.0021633
0.00219489
0.00221569
0.00222701
0.00223927
0.00225312
0.00227122
0.0022949
0.00232476
0.00236112
0.00240164
0.00244417
0.00248683
0.00252801
0.00256616
0.00259954
0.00262585
0.00264224
0.00264539
0.00263349
0.00260627
0.00165357
0.00177652
0.00187835
0.00196098
0.00202936
0.00208287
0.00212683
0.00216198
0.00218889
0.00221317
0.00223687
0.00226572
0.00230258
0.00234652
0.00239491
0.00244523
0.00249566
0.00254454
0.00258994
0.00263025
0.00266346
0.0026869
0.00269729
0.0026938
0.00267619
0.00147439
0.00162932
0.00175697
0.0018602
0.0019426
0.00200789
0.00205926
0.00210163
0.002139
0.00217212
0.00220613
0.00224234
0.00228329
0.00233091
0.00238562
0.00244354
0.00250166
0.00255803
0.00261164
0.00265997
0.00270151
0.00273379
0.00275443
0.00276369
0.00276181
0.00142646
0.00159421
0.00173494
0.00185034
0.00193882
0.00200656
0.00205637
0.0020955
0.00212881
0.00216081
0.00219466
0.00223274
0.00227532
0.00232521
0.00238249
0.00244526
0.00251052
0.00257362
0.00263489
0.00269138
0.00274156
0.00278317
0.0028148
0.00283788
0.00285286
0.00147016
0.00164428
0.0017939
0.0019143
0.00200694
0.00207327
0.00211826
0.00214862
0.00217152
0.00219263
0.00221703
0.00224864
0.00228898
0.00233864
0.00239547
0.00245945
0.00252796
0.00259651
0.00266364
0.00272725
0.00278517
0.00283539
0.00287745
0.00291373
0.00294451
0.00157635
0.00176116
0.00191764
0.00204064
0.00213165
0.00219262
0.00222939
0.00224671
0.00225473
0.00226139
0.00227319
0.00229479
0.00232784
0.00237253
0.00242737
0.00249045
0.00255931
0.00263023
0.00270102
0.00276962
0.00283355
0.00289098
0.002942
0.00299005
0.00303514
0.0017401
0.00193144
0.00209124
0.00221146
0.00229607
0.00234775
0.00237295
0.00237796
0.00237214
0.00236412
0.00236165
0.00237113
0.00239419
0.00243081
0.00247958
0.00253831
0.00260439
0.00267452
0.00274647
0.00281752
0.00288513
0.00294773
0.00300563
0.00306358
0.00312168
0.00198937
0.00216821
0.00230984
0.00241607
0.00248649
0.00252303
0.00253283
0.00252311
0.002503
0.00248133
0.00246602
0.00246406
0.00247707
0.00250515
0.00254693
0.00260016
0.00266188
0.00272873
0.00279841
0.00286838
0.00293623
0.00300041
0.00306141
0.00312506
0.00319102
0.00232104
0.00246438
0.00256985
0.00264505
0.00268998
0.0027047
0.00269565
0.00267012
0.0026363
0.00260255
0.00257687
0.00256541
0.00256983
0.00259016
0.00262488
0.00267151
0.00272692
0.00278807
0.00285223
0.00291703
0.00298031
0.00304075
0.00310038
0.0031673
0.00324236
0.00271919
0.00279832
0.00284943
0.00288087
0.00289101
0.00288017
0.00285123
0.00281003
0.00276369
0.00272044
0.00268694
0.0026683
0.00266559
0.00267877
0.00270626
0.00274542
0.00279295
0.00284578
0.00290097
0.0029562
0.00300899
0.00305761
0.00310434
0.0031571
0.00321419
0.00310452
0.0031038
0.00309954
0.00309118
0.00307228
0.00303881
0.00299252
0.00293787
0.00288195
0.0028316
0.00279224
0.00276794
0.00275936
0.00276591
0.00278619
0.00281703
0.00285531
0.00289777
0.00294156
0.00298409
0.00302254
0.00305496
0.0030825
0.00311237
0.00314021
0.00331976
0.00330836
0.00328748
0.00326182
0.00322524
0.00317634
0.00311713
0.00305309
0.0029904
0.00293525
0.00289182
0.00286305
0.00284971
0.00285006
0.00286269
0.00288475
0.0029131
0.00294435
0.00297596
0.00300475
0.00302782
0.00304321
0.00305235
0.00306222
0.00306785
0.00349389
0.00347648
0.00344615
0.00340872
0.00335933
0.00329842
0.00322972
0.00315872
0.00309183
0.00303363
0.00298744
0.00295456
0.00293635
0.00293111
0.00293663
0.00295038
0.00296911
0.00299009
0.00301011
0.00302591
0.00303414
0.00303284
0.00302276
0.00300894
0.0029831
0.00367311
0.00364179
0.00359785
0.0035468
0.00348459
0.00341276
0.00333585
0.00325965
0.00318952
0.00312916
0.00308044
0.00304483
0.00302245
0.00301223
0.00301169
0.00301831
0.00302934
0.00304182
0.00305263
0.0030583
0.00305524
0.00304159
0.00301802
0.00298785
0.0029383
0.00385892
0.0038096
0.00374891
0.00368255
0.00360697
0.00352458
0.00344064
0.00336009
0.00328714
0.00322467
0.00317438
0.00313722
0.00311196
0.00309767
0.00309245
0.0030939
0.00309939
0.00310612
0.00311094
0.00311026
0.00310118
0.00308179
0.00305348
0.00301889
0.00296375
0.00405235
0.00398031
0.00390029
0.00381808
0.00372948
0.00363787
0.00354816
0.00346457
0.00338974
0.00332587
0.00327458
0.00323564
0.00320816
0.00319118
0.00318283
0.00318092
0.00318302
0.00318643
0.00318802
0.00318439
0.0031734
0.0031536
0.00312685
0.00309606
0.00305028
0.00423915
0.00414632
0.00404869
0.00395272
0.0038537
0.00375538
0.0036622
0.00357668
0.00350103
0.00343664
0.00338372
0.00334295
0.00331392
0.00329513
0.00328479
0.00328087
0.00328105
0.00328264
0.00328259
0.00327788
0.00326679
0.00324812
0.00322321
0.00319397
0.00315017
0.00441583
0.00430607
0.00419343
0.00408678
0.00398081
0.00387849
0.00378297
0.00369622
0.0036198
0.00355482
0.00350164
0.00346025
0.00343008
0.00341
0.00339831
0.00339302
0.00339184
0.00339209
0.00339085
0.00338554
0.00337488
0.00335838
0.00333789
0.00331626
0.00329098
0.00458524
0.00446166
0.00433634
0.00422129
0.00411116
0.00400672
0.00391015
0.00382295
0.00374639
0.00368126
0.00362793
0.00358634
0.00355562
0.00353465
0.00352181
0.00351519
0.00351245
0.00351086
0.00350757
0.00350034
0.00348809
0.00347
0.00344862
0.0034277
0.00341049
0.00474103
0.00460971
0.00447731
0.00435727
0.0042448
0.00413962
0.00404302
0.00395617
0.00388009
0.00381538
0.00376226
0.00372057
0.00368943
0.00366762
0.00365359
0.00364541
0.00364065
0.00363651
0.00363011
0.00361935
0.00360283
0.00357966
0.00355088
0.00351641
0.00347532
0.00488959
0.00475392
0.00461798
0.00449537
0.00438186
0.00427682
0.00418093
0.00409505
0.00401994
0.00395603
0.00390336
0.00386165
0.00383013
0.0038075
0.00379225
0.00378241
0.00377552
0.00376879
0.00375956
0.00374548
0.0037252
0.00369966
0.00366905
0.00363605
0.00360221
0.00503707
0.00489827
0.00476021
0.00463607
0.0045223
0.00441792
0.00432313
0.0042385
0.00416458
0.00410164
0.00404962
0.00400813
0.00397634
0.00395297
0.00393651
0.00392497
0.00391581
0.00390631
0.00389389
0.00387669
0.0038535
0.00382375
0.00378951
0.00375372
0.0037198
0.00518369
0.00504263
0.00490342
0.00477875
0.00466533
0.00456202
0.00446865
0.00438555
0.00431302
0.0042512
0.00419996
0.0041588
0.00412689
0.00410292
0.00408543
0.00407241
0.00406133
0.00404899
0.00403327
0.00401297
0.00398658
0.00395207
0.00391186
0.00386491
0.00381248
0.00532717
0.00518539
0.00504623
0.00492192
0.00480955
0.00470778
0.00461619
0.00453489
0.00446406
0.0044037
0.00435328
0.00431258
0.00428071
0.00425638
0.00423811
0.00422394
0.00421137
0.00419771
0.00418087
0.00415867
0.0041297
0.00409439
0.00405329
0.00400686
0.00395749
0.00546562
0.00532449
0.00518665
0.00506383
0.00495332
0.00485379
0.00476441
0.00468515
0.00461638
0.00455758
0.00450822
0.0044683
0.00443684
0.00441255
0.004394
0.00437879
0.00436497
0.00435091
0.00433322
0.00431011
0.00428032
0.0042439
0.00420187
0.00415553
0.00410606
0.00559692
0.00545799
0.00532281
0.00520264
0.00509481
0.00499797
0.00491128
0.00483459
0.00476779
0.0047105
0.00466351
0.00462504
0.00459419
0.00457026
0.0045518
0.00453672
0.00452265
0.00450741
0.00448866
0.00446516
0.00443539
0.00439832
0.00435651
0.00430934
0.00425839
0.00571973
0.00558426
0.0054526
0.00533558
0.00523086
0.00513687
0.00505354
0.00498052
0.00491656
0.00486268
0.00481777
0.00478108
0.00475188
0.00472876
0.00471021
0.00469578
0.00468229
0.00466716
0.00464933
0.00462637
0.00459682
0.00456041
0.00451895
0.00447227
0.00442273
0.00583297
0.00570107
0.00557379
0.00546082
0.00536072
0.00527192
0.00519282
0.00512313
0.00506337
0.00501246
0.00496941
0.00493491
0.00490802
0.00488673
0.00486991
0.00485585
0.00484342
0.00483025
0.00481376
0.00479206
0.00476368
0.00472845
0.00468822
0.004643
0.00459751
0.0059276
0.00580149
0.00568182
0.00557696
0.00548368
0.00540078
0.00532707
0.00526223
0.00520645
0.00515863
0.00511972
0.00508817
0.00506305
0.00504409
0.00503012
0.00501844
0.00500773
0.00499616
0.00498139
0.00496155
0.00493533
0.00490257
0.00486493
0.00482198
0.00477556
0.00599022
0.0058828
0.0057771
0.00568252
0.00559764
0.00552138
0.00545424
0.00539596
0.00534497
0.0053028
0.00526811
0.00524025
0.00521845
0.00520217
0.00519005
0.00518119
0.00517298
0.00516375
0.00515168
0.00513476
0.00511171
0.00508221
0.00504811
0.00500811
0.00496265
0.00606083
0.00596151
0.00586549
0.0057795
0.00570356
0.00563662
0.00557687
0.00552427
0.00548009
0.0054429
0.00541205
0.00538847
0.00537144
0.00535886
0.00534982
0.0053435
0.00533867
0.00533288
0.00532435
0.00531128
0.00529222
0.00526685
0.00523731
0.00520313
0.00516776
0.00609882
0.00602247
0.00594322
0.00587114
0.00580568
0.00574712
0.00569503
0.00564961
0.00561117
0.005579
0.00555434
0.00553548
0.00552171
0.0055131
0.00550853
0.00550657
0.00550544
0.00550368
0.00549936
0.00549081
0.00547659
0.00545637
0.00543198
0.00540255
0.00536891
0.00618921
0.00610741
0.0060307
0.00596375
0.00590474
0.00585252
0.00580776
0.00577012
0.00573796
0.00571299
0.00569395
0.00568041
0.0056719
0.00566794
0.00566756
0.00566951
0.00567258
0.00567536
0.00567595
0.00567275
0.00566431
0.00565026
0.00563213
0.00560866
0.00557958
0.0062566
0.00617634
0.00610659
0.00604722
0.00599699
0.00595444
0.00591766
0.00588651
0.00586215
0.00584329
0.00582939
0.00582147
0.00581902
0.0058202
0.00582451
0.00583088
0.00583902
0.00584702
0.00585333
0.00585621
0.00585442
0.00584766
0.00583735
0.00582281
0.00580489
0.00623557
0.0062016
0.00615975
0.00611985
0.00608322
0.00605096
0.00602319
0.00600023
0.00598247
0.00596948
0.00596261
0.0059603
0.005962
0.00596815
0.00597785
0.00599038
0.00600389
0.00601762
0.00603006
0.00603964
0.00604529
0.00604676
0.00604533
0.00604023
0.00603057
0.00632582
0.0062777
0.00623516
0.0061997
0.00616973
0.00614426
0.00612417
0.0061094
0.00609852
0.0060933
0.0060926
0.00609614
0.00610373
0.00611522
0.00612996
0.00614722
0.00616597
0.00618543
0.00620433
0.00622116
0.00623486
0.00624522
0.00625336
0.00625834
0.00625812
0.00637471
0.0063323
0.0062989
0.00627205
0.00625133
0.00623569
0.00622369
0.00621539
0.00621206
0.00621266
0.00621689
0.00622602
0.0062398
0.0062566
0.00627613
0.00629781
0.00632217
0.00634774
0.00637331
0.00639775
0.00642019
0.00644051
0.00645984
0.00647779
0.00649153
0.00634563
0.00635054
0.00634514
0.00633738
0.00632962
0.00632351
0.00631964
0.0063186
0.00632098
0.00632651
0.00633664
0.00635062
0.00636764
0.00638847
0.00641271
0.00644016
0.00646955
0.0065007
0.00653288
0.00656508
0.00659666
0.00662767
0.00665918
0.00669129
0.00671957
0.00644476
0.00643181
0.00642194
0.00641526
0.00641115
0.00640921
0.00641069
0.00641578
0.00642327
0.00643486
0.00644965
0.00646753
0.00648843
0.00651266
0.00653999
0.00657035
0.00660329
0.00663901
0.00667706
0.00671679
0.00675774
0.00680004
0.00684444
0.0068905
0.00693151
0.00651584
0.00650153
0.00649292
0.00648785
0.00648701
0.00648988
0.00649572
0.00650453
0.00651694
0.00653241
0.00655015
0.00657016
0.00659395
0.00662006
0.00664864
0.00667979
0.00671498
0.00675385
0.00679666
0.00684355
0.00689468
0.0069505
0.00701144
0.00707612
0.00713313
0.00653485
0.0065463
0.00654748
0.00654782
0.00655041
0.00655665
0.0065663
0.006579
0.006595
0.00661289
0.0066334
0.00665564
0.00667926
0.00670464
0.00673208
0.00676224
0.00679567
0.00683355
0.00687748
0.0069292
0.00699066
0.00706416
0.00715182
0.00725314
0.00735082
0.00667685
0.00663767
0.00660729
0.00659077
0.00658716
0.00659383
0.00660803
0.00662741
0.00664948
0.00667298
0.00669698
0.0067211
0.00674405
0.00676628
0.00678808
0.00681036
0.0068342
0.00686225
0.00689767
0.00694491
0.00700955
0.00709877
0.00722127
0.0073837
0.00756506
0.00679436
0.00666039
0.00658233
0.00654986
0.00654872
0.0065673
0.00659719
0.00663248
0.00666906
0.00670431
0.0067361
0.0067633
0.00678538
0.00680195
0.00681315
0.00681968
0.00682325
0.0068267
0.0068345
0.00685356
0.00689404
0.00697141
0.00710836
0.00733417
0.00764684
0.00656737
0.00637886
0.00631789
0.0063319
0.00638387
0.00645252
0.00652579
0.00659661
0.00666099
0.0067166
0.00676196
0.00679612
0.00681814
0.00682781
0.00682478
0.00680905
0.00678098
0.00674208
0.00669541
0.00664686
0.00660708
0.00659478
0.0066428
0.00681172
0.00717047
0.00543661
0.00553412
0.00572376
0.00592836
0.00612082
0.006292
0.00643955
0.00656404
0.00666675
0.00674888
0.0068112
0.0068543
0.00687834
0.00688248
0.00686592
0.00682725
0.00676485
0.00667652
0.00655997
0.00641329
0.00623599
0.00603063
0.00580918
0.00560654
0.0055199
0.00352888
0.00443425
0.00510775
0.00558822
0.00594439
0.00621731
0.00643097
0.00659997
0.00673322
0.00683629
0.00691256
0.00696405
0.00699184
0.0069947
0.00697143
0.00691964
0.00683552
0.00671348
0.00654553
0.00632021
0.00602045
0.00562063
0.00508154
0.00434204
0.00339954
0.00585978
0.00575215
0.00587872
0.00607391
0.00629115
0.00650171
0.00669032
0.00685156
0.00698468
0.00709079
0.00717126
0.00722705
0.00725906
0.00726597
0.00724647
0.00719856
0.00711887
0.00700278
0.00684497
0.00664088
0.0063906
0.00610746
0.00583062
0.00562853
0.00566721
0.0135769
0.00844834
0.00715003
0.00674516
0.00670575
0.00680374
0.00694832
0.00709441
0.00722325
0.00732953
0.00741236
0.00747163
0.00750886
0.0075227
0.00751074
0.00747316
0.00740905
0.00731293
0.00718
0.00701057
0.00682693
0.00671947
0.0069235
0.00819495
0.0143338
0.0472264
0.0162824
0.00930104
0.00755859
0.00714927
0.00714562
0.00726449
0.00738547
0.00749457
0.0075919
0.0076725
0.00773535
0.00778355
0.00781715
0.00783169
0.00782658
0.00778696
0.00771002
0.00758108
0.0073779
0.00712458
0.00703018
0.00760881
0.0109629
0.0254869
0.0625202
0.0239192
0.0115066
0.00840312
0.00750453
0.00729531
0.00719418
0.00717454
0.0072055
0.00728018
0.00737458
0.00745903
0.00751903
0.00754654
0.0075471
0.00754268
0.00754739
0.00757999
0.0076692
0.00776544
0.00763571
0.00744714
0.00836936
0.0138139
0.0323049
0.0271915
0.0172363
0.0101442
0.00630332
0.00506353
0.00452712
0.0043427
0.00432534
0.00445693
0.00468866
0.00492086
0.00503316
0.00503637
0.00487965
0.00466008
0.00448198
0.00440711
0.00448602
0.00477981
0.00545197
0.00666454
0.00722191
0.0088237
0.0132161
0.0206279
0.013885
0.0109078
0.00498001
0.00202952
0.00098261
0.000631631
0.000551349
0.00060544
0.000797524
0.00106572
0.00133049
0.00143393
0.00142553
0.00118373
0.000913194
0.000699747
0.000558884
0.000532921
0.000674614
0.00116029
0.00229881
0.00470841
0.00743618
0.0115229
0.0143939
0.00614899
0.0058973
0.00245275
0.000506519
3.78815e-05
2.45562e-06
1.58192e-06
2.59044e-06
2.40467e-05
6.90385e-05
0.000128824
0.000162351
0.000165793
0.000109375
5.6253e-05
2.10015e-05
2.13925e-06
1.3519e-06
1.78874e-06
1.32129e-05
0.000271507
0.00148319
0.00436513
0.00757473
0.00778674
)
;

boundaryField
{
    inlet
    {
        type            calculated;
        value           uniform 8.4375e-07;
    }
    outlet
    {
        type            calculated;
        value           nonuniform List<scalar> 
25
(
0.00614899
0.0058973
0.00245275
0.000506519
8.4375e-07
8.4375e-07
8.4375e-07
8.4375e-07
2.40467e-05
6.90385e-05
0.000128824
0.000162351
0.000165793
0.000109375
5.6253e-05
2.10015e-05
8.4375e-07
8.4375e-07
8.4375e-07
8.4375e-07
0.000271507
0.00148319
0.00436513
0.00757473
0.00778674
)
;
    }
    walls
    {
        type            nutkWallFunction;
        Cmu             0.09;
        kappa           0.41;
        E               9.8;
        value           nonuniform List<scalar> 
150
(
1.68731e-05
1.92081e-05
1.99075e-05
2.01444e-05
2.03288e-05
2.06891e-05
2.10452e-05
2.13612e-05
2.15607e-05
2.16863e-05
2.17253e-05
2.16583e-05
2.15724e-05
2.1488e-05
2.13993e-05
2.13107e-05
2.12563e-05
2.12334e-05
2.12203e-05
2.11901e-05
2.10898e-05
2.08554e-05
2.04988e-05
2.00995e-05
1.98235e-05
1.97698e-05
1.99629e-05
2.03239e-05
2.07305e-05
2.11391e-05
2.15408e-05
2.19126e-05
2.22311e-05
2.24902e-05
2.27113e-05
2.29165e-05
2.31151e-05
2.33075e-05
2.34844e-05
2.36337e-05
2.37584e-05
2.3875e-05
2.39936e-05
2.41169e-05
2.42453e-05
2.43775e-05
2.45124e-05
2.46483e-05
2.47841e-05
2.4919e-05
2.50515e-05
2.51784e-05
2.53027e-05
2.5422e-05
2.55366e-05
2.56535e-05
2.57681e-05
2.58826e-05
2.60078e-05
2.61429e-05
2.62948e-05
2.64801e-05
2.67061e-05
2.69896e-05
2.73595e-05
2.78648e-05
2.85929e-05
2.963e-05
2.97239e-05
2.92427e-05
2.75214e-05
2.60796e-05
2.49846e-05
2.37192e-05
2.23898e-05
1.41678e-05
1.67944e-05
1.77199e-05
1.81706e-05
1.8364e-05
1.84439e-05
1.84343e-05
1.83883e-05
1.82867e-05
1.81979e-05
1.82146e-05
1.83785e-05
1.87322e-05
1.92064e-05
1.96689e-05
2.00265e-05
2.03794e-05
2.07191e-05
2.09908e-05
2.11688e-05
2.12893e-05
2.13923e-05
2.14863e-05
2.15737e-05
2.16557e-05
2.17316e-05
2.18041e-05
2.1877e-05
2.19495e-05
2.20192e-05
2.20787e-05
2.21162e-05
2.21262e-05
2.21288e-05
2.21492e-05
2.21987e-05
2.22954e-05
2.24391e-05
2.2613e-05
2.27756e-05
2.2925e-05
2.30849e-05
2.32574e-05
2.34414e-05
2.36254e-05
2.38156e-05
2.40139e-05
2.42099e-05
2.44067e-05
2.46046e-05
2.48022e-05
2.49974e-05
2.51895e-05
2.53803e-05
2.55688e-05
2.57551e-05
2.59412e-05
2.61286e-05
2.63198e-05
2.65197e-05
2.67347e-05
2.69741e-05
2.72487e-05
2.75761e-05
2.79898e-05
2.85547e-05
2.93975e-05
3.06161e-05
3.08115e-05
3.04374e-05
2.91698e-05
2.76422e-05
2.67508e-05
2.62169e-05
2.49396e-05
)
;
    }
    defaultFaces
    {
        type            empty;
    }
}


// ************************************************************************* //
