/*--------------------------------*- C++ -*----------------------------------*\
| =========                 |                                                 |
| \\      /  F ield         | OpenFOAM: The Open Source CFD Toolbox           |
|  \\    /   O peration     | Version:  2.3.0                                 |
|   \\  /    A nd           | Web:      www.OpenFOAM.org                      |
|    \\/     M anipulation  |                                                 |
\*---------------------------------------------------------------------------*/
FoamFile
{
    version     2.0;
    format      ascii;
    class       volScalarField;
    location    "89";
    object      rhom;
}
// * * * * * * * * * * * * * * * * * * * * * * * * * * * * * * * * * * * * * //

dimensions      [1 -3 0 0 0 0 0];

internalField   nonuniform List<scalar> 
1875
(
877.66
900.739
912.164
911.417
909.428
906.825
903.827
900.562
897.229
894.03
891.126
889.119
888.21
887.816
888.092
889.624
892.888
897.066
901.686
906.858
910.602
907.692
893.094
872.661
880.375
895.595
911.23
926.081
931.371
933.652
933.288
932.11
930.076
927.177
923.446
918.787
913.01
907.271
902.006
897.821
893.815
893.537
895.573
899.789
905.338
910.601
918.322
918.797
908.018
921.061
927.747
934.905
942.319
944.612
945.356
944.995
944.129
942.865
941.025
938.558
935.612
931.559
925.309
917.199
908.819
900.517
894.816
892.79
895.824
902.006
909.251
917.512
918.796
915.926
927.35
971.245
967.03
960.053
956.258
954.425
952.332
949.689
946.76
943.586
940.059
935.872
931.346
926.079
919.848
912.255
903.341
894.634
890.487
892.316
898.841
907.766
916.628
918.624
916.697
927.35
1000.16
985.791
967.057
962.547
959.641
956.06
951.595
946.438
942.183
938.211
933.856
928.92
923.539
917.151
909.449
900.645
892.874
890.463
892.917
900.035
909.076
917.294
919.111
917.656
927.35
1008.86
987.201
963.507
963.509
959.628
953.862
948.204
942.358
937.098
932.451
927.578
922.123
916.159
909.231
901.644
894.859
891.302
891.209
895.79
903.719
912.246
918.644
920.298
919.309
926.254
1008.86
979.601
956.701
961.355
954.026
945.409
938.603
932.291
926.469
921.066
915.476
909.647
903.675
897.962
893.831
892.368
892.2
895.083
901.768
909.443
916.223
920.524
922.125
921.391
923.47
1008.86
964.349
947.048
952.011
939.786
930.456
923.218
916.578
910.651
905.266
900.513
896.751
894.702
893.941
893.914
893.899
897.049
902.647
909.396
915.383
919.926
922.776
924.439
923.237
919.81
1004
946.717
934.73
936.63
921.971
913.693
906.891
901.555
897.758
895.443
894.484
894.359
894.359
895.167
896.958
900.19
905.634
911.326
916.366
920.235
923.037
925.125
926.786
924.359
915.837
994.118
930.329
921.858
921.226
907.723
901.396
896.493
893.847
893.192
893.602
894.066
895.284
897.391
900.552
904.545
909.547
914.514
918.553
921.606
923.835
925.578
927.231
928.69
924.606
912.67
983.863
917.143
911.582
910.826
900.436
896.215
893.662
892.914
892.877
894.288
896.617
900.108
904.323
909.116
913.85
918.184
921.479
923.817
925.456
926.675
927.809
929.161
930.306
924.47
909.481
975.733
907.92
904.927
905.626
897.573
894.686
893.19
892.906
894.174
897.649
902.327
907.684
913
917.847
921.827
924.786
926.8
928.148
929.021
929.64
930.278
931.269
932.124
923.678
899.108
970.245
902.085
900.524
902.691
896.307
894.193
893.289
893.729
897.542
903.178
909.468
915.565
920.792
924.839
927.695
929.569
930.752
931.492
931.94
932.159
932.207
932.197
932.235
919.304
883.819
967.001
898.38
897.306
900.72
895.586
894.047
893.544
895.898
902.058
909.12
916.041
921.853
926.244
929.209
930.963
931.841
932.182
932.212
932.197
932.229
932.197
932.262
930.441
909.678
883.819
964.949
895.898
894.741
899.327
895.122
894.057
893.915
898.716
906.291
913.99
920.667
925.203
928.098
929.888
931.046
931.804
932.153
932.196
932.257
932.196
932.273
931.792
923.77
903.001
883.819
964.569
894.291
892.094
898.483
894.779
893.997
893.916
900.835
908.62
915.541
920.91
925.013
927.726
929.435
930.556
931.269
931.721
932.03
931.858
931.015
929.291
926.221
920.863
910.882
897.627
964.659
894.832
892.09
898.244
894.835
893.955
893.918
900.218
907.893
914.753
920.089
924.033
926.617
928.308
929.454
930.16
930.465
930.183
928.741
926.656
924.329
922.018
921.85
931.246
934.081
963.763
898.486
892.662
897.597
895.265
894.095
893.919
898.261
905.461
912.461
918.017
922.103
924.791
926.587
927.846
928.532
928.605
927.327
925.148
923.905
923.429
921.851
919.656
945.357
969.165
960.28
906.605
894.694
896.814
895.871
894.573
893.976
895.913
901.313
908.183
914.357
919.09
922.314
924.443
925.914
926.713
926.721
925.406
923.913
923.908
924.029
924.58
918.992
941.385
983.77
954.656
917.837
899.569
897.208
896.338
895.304
894.272
894.559
897.076
902.29
908.607
914.437
918.833
921.817
923.793
924.977
925.289
924.73
924.023
924.038
924.771
927.318
918.98
931.62
983.787
947.691
929.022
909.05
899.571
897.043
895.979
894.85
894.56
894.808
897.083
901.783
907.755
913.486
917.987
921.15
923.189
924.262
924.482
924.404
924.505
925.202
927.888
919.406
922.738
983.787
939.251
937.468
922.507
906.736
899.452
896.978
895.572
894.67
894.646
895.039
896.952
899.722
905.258
911.423
916.699
920.498
922.915
924.167
924.816
925.271
925.725
927.886
920.516
917.683
980.298
930.453
943.399
935.773
919.119
906.224
899.871
896.971
895.164
894.645
894.387
893.136
893.16
894.966
901.461
908.959
915.415
920.141
923.172
924.77
925.994
926.439
927.936
921.226
914.909
975.265
921.357
943.938
943.99
932.476
917.811
906.871
900.563
896.786
894.978
893.921
893.16
892.631
893.16
894.549
899.955
907.507
914.79
920.449
924.008
926.209
927.16
928.204
921.278
912.93
971.441
909.067
944.047
943.938
940.752
930.245
917.827
907.774
900.776
896.462
894.171
892.907
893.159
892.848
893.159
894.903
899.999
907.599
915.472
921.672
925.682
927.618
928.409
921.233
910.922
969.113
898.444
943.284
944.305
943.938
938.971
929.018
917.59
907.527
899.979
895.128
893.159
892.71
893.159
893.07
893.653
895.966
901.433
909.441
917.665
924.051
927.432
928.403
921.114
908.994
967.611
898.444
938.946
943.938
943.997
942.605
936.684
926.745
915.447
905.236
897.383
893.056
893.159
892.962
893.159
893.47
894.586
897.879
904.386
913.043
921.34
926.708
928.421
920.931
908.995
966.616
898.444
928.903
944.305
943.937
943.553
940.354
932.887
922.226
910.946
900.754
893.158
892.926
893.158
893.122
893.484
894.584
896.6
901.264
909.111
918.235
925.388
928.402
920.732
908.996
966.073
903.979
918.761
938.124
941.702
943.552
942.107
936.319
926.608
915.388
903.886
893.082
893.158
893.085
893.158
893.522
894.671
896.662
899.906
906.42
915.439
923.634
928.291
920.509
908.997
966.081
919.661
918.251
918.27
932.221
942.898
942.667
937.469
927.484
915.215
903.604
893.158
893.108
893.158
893.155
893.63
894.891
896.886
899.958
904.952
913.395
921.956
927.905
919.704
909.229
966.277
942.41
918.387
907.9
923.574
941.033
942.152
936.803
926.355
913.659
901.942
893.138
893.157
893.15
893.223
893.862
895.26
897.275
900.197
904.987
912.583
922.011
927.145
914.951
910.84
966.818
964.297
916.42
907.9
924.124
939.054
940.791
934.772
923.196
910.089
899.123
893.177
893.199
893.209
893.418
894.24
895.765
897.797
900.641
905.321
912.904
922.336
925.665
900.82
914.281
966.252
977.388
912.578
907.899
927.108
938.112
938.663
930.696
917.649
905.076
896.5
893.36
893.347
893.355
893.741
894.741
896.356
898.394
901.25
906.067
913.791
922.13
922.877
897.715
918.941
964.122
979.802
909.773
908.847
931.338
937.385
935.002
923.984
910.559
900.355
895.024
893.646
893.593
893.589
894.172
895.332
896.984
899.017
902.027
907.258
915.085
921.53
918.895
898.471
924.574
960.591
979.802
909.776
912.512
933.852
935.629
928.679
915.399
904.04
897.378
894.687
893.982
893.9
893.925
894.714
895.975
897.609
899.682
903.049
908.884
916.457
920.571
914.288
897.458
930.457
956.507
979.661
910.415
917.402
933.581
931.314
919.816
907.531
899.879
896.163
894.839
894.314
894.169
894.371
895.319
896.615
898.218
900.453
904.382
910.757
917.444
919.257
909.675
898.47
935.24
952.681
979.48
911.679
920.391
932.018
923.666
911.002
902.518
898.159
896.082
895.082
894.601
894.483
894.885
895.943
897.213
898.832
901.393
905.969
912.437
917.359
917.789
906.465
897.192
937.082
950.53
979.587
911.076
919.87
928.188
914.687
904.982
900.121
897.467
895.992
895.184
894.976
894.939
895.421
896.536
897.754
899.489
902.501
907.582
913.616
917.064
916.657
906.602
898.47
934.604
951.36
979.407
904.756
917.387
922.308
908.031
902.118
899.117
897.158
896.022
895.401
895.314
895.327
895.977
897.059
898.264
900.223
903.721
909.035
914.336
916.765
916.132
907.502
897.055
923.099
953.963
978.452
896.403
910.849
915.922
904.886
901.186
898.77
897.147
896.153
895.749
895.663
895.707
896.515
897.516
898.768
901.037
904.965
910.256
914.818
916.602
915.78
908.238
898.469
900.284
956.484
976.775
895.672
898.761
910.506
903.363
900.813
898.627
897.192
896.388
896.104
895.999
896.11
896.978
897.906
899.269
901.884
906.126
911.197
915.074
916.409
915.342
907.892
897.004
898.469
957.537
974.785
896.402
895.956
906.655
902.182
900.488
898.516
897.281
896.644
896.398
896.278
896.487
897.344
898.226
899.751
902.7
907.122
911.853
915.006
916.088
914.935
906.944
898.468
897.828
957.941
972.987
895.723
896.402
904.067
901.235
900.173
898.417
897.39
896.874
896.623
896.505
896.813
897.616
898.481
900.206
903.446
907.929
912.272
914.906
915.809
914.346
905.908
897.069
898.468
958.166
971.526
896.401
896.038
902.316
900.533
899.905
898.348
897.5
897.063
896.808
896.704
897.076
897.811
898.691
900.639
904.127
908.5
912.478
914.916
915.752
913.528
905.16
898.467
897.872
958.573
970.393
895.916
896.401
901.091
900.025
899.699
898.306
897.598
897.2
896.937
896.892
897.275
897.957
898.884
901.04
904.694
908.829
912.451
914.83
915.605
913.009
904.272
897.128
898.467
959.165
969.475
896.401
896.149
900.191
899.648
899.517
898.27
897.692
897.275
897.028
897.064
897.427
898.089
899.09
901.329
905.013
908.947
912.285
914.645
915.37
912.615
903.345
898.467
897.926
959.924
968.706
896.075
896.4
899.481
899.332
899.358
898.245
897.75
897.338
897.176
897.09
897.547
898.229
899.281
901.535
904.962
908.852
912.099
914.576
915.29
912.061
902.654
897.209
898.466
960.92
968.031
896.4
896.246
898.949
899.073
899.327
898.264
897.74
897.486
897.282
897.149
897.687
898.348
899.398
901.714
904.81
908.584
912.036
914.475
915.271
911.604
901.909
898.466
897.995
962.124
967.425
896.206
896.399
898.625
898.934
899.259
898.294
897.824
897.577
897.299
897.379
897.854
898.457
899.534
901.644
904.686
908.292
911.835
914.302
915.176
911.259
900.966
897.29
898.466
963.499
966.852
896.399
896.302
898.309
898.801
899.091
898.277
897.943
897.555
897.445
897.535
898.034
898.703
899.741
901.424
904.478
907.972
911.456
914.133
915.018
910.897
900
898.465
898.067
965.015
966.35
896.294
896.398
897.934
898.619
899.09
898.242
897.851
897.634
897.544
897.56
898.14
898.981
899.911
901.398
904.089
907.53
911.028
913.858
914.777
910.53
899.212
897.399
898.465
966.602
965.872
896.398
896.348
897.704
898.461
899.046
898.246
897.895
897.703
897.545
897.679
898.243
898.963
899.906
901.414
903.774
906.987
910.537
913.422
914.415
910.216
898.822
898.465
898.135
968.248
965.39
896.363
896.397
897.434
898.335
898.936
898.21
897.997
897.669
897.651
897.769
898.374
899.051
899.969
901.369
903.489
906.451
909.951
912.852
913.948
910.049
898.822
897.524
898.464
969.937
964.728
896.397
896.381
897.124
898.133
898.874
898.201
897.902
897.732
897.652
897.835
898.441
899.198
900.082
901.307
903.187
905.93
909.265
912.209
913.422
909.966
898.87
898.464
898.202
971.677
963.869
896.41
896.393
897.12
897.97
898.746
898.185
897.95
897.699
897.652
897.988
898.538
899.158
900.078
901.21
902.957
905.355
908.535
911.533
912.881
909.889
899.03
897.673
898.464
973.478
963.03
896.479
896.388
897.062
897.882
898.536
898.115
898.037
897.699
897.708
898.014
898.65
899.226
900.087
901.204
902.674
904.789
907.794
910.862
912.343
909.794
899.368
898.463
898.271
975.337
961.934
896.712
896.391
896.743
897.744
898.418
898.056
897.92
897.729
897.692
897.987
898.635
899.317
900.122
901.19
902.386
904.278
907.045
910.185
911.782
909.665
899.913
897.831
898.463
977.169
960.447
897.328
896.386
896.39
897.655
898.273
898.01
897.93
897.692
897.695
898.038
898.607
899.23
900.1
901.088
902.221
903.718
906.299
909.475
911.174
909.484
900.644
898.463
898.336
978.925
958.865
898.167
896.457
896.345
897.614
898.074
897.926
897.923
897.694
897.711
898.018
898.576
899.252
900.061
900.976
901.93
903.219
905.579
908.726
910.535
909.245
901.474
898.004
898.462
980.594
957.01
899.204
896.616
896.39
897.504
898.075
897.932
897.74
897.727
897.697
897.906
898.471
899.245
900.021
900.881
901.59
902.861
904.913
907.955
909.89
908.953
902.316
898.462
898.384
982.129
954.854
900.555
896.767
896.356
897.429
898.074
897.978
897.68
897.721
897.694
897.78
898.323
899.038
899.909
900.733
901.503
902.517
904.357
907.178
909.24
908.627
903.134
898.176
898.462
983.165
952.663
901.988
897.186
896.389
897.446
897.995
897.911
897.681
897.664
897.701
897.702
898.087
898.804
899.711
900.503
901.302
902.226
903.856
906.3
908.415
908.159
903.827
898.461
898.423
983.165
949.997
903.283
897.743
896.361
897.299
897.782
897.71
897.487
897.571
897.701
897.699
897.638
898.444
899.247
900.03
900.779
901.766
903.063
904.94
906.928
907.236
904.168
898.339
898.461
983.165
946.877
904.174
897.683
896.388
897.01
897.475
897.478
897.481
897.498
897.54
897.59
897.591
897.862
898.457
899.254
900.017
900.953
901.982
903.278
904.996
906.034
904.376
898.461
898.455
983.152
946.978
904.682
897.877
896.774
897.365
897.851
897.94
898.024
898.034
898.045
898.061
898.135
898.319
898.8
899.519
900.338
901.31
902.36
903.617
905.283
906.653
906.069
899.7
900.047
982.685
948.813
906.268
900.404
900.005
900.276
900.761
901.091
901.374
901.444
901.48
901.523
901.697
901.826
902.201
902.849
903.773
904.957
906.083
907.37
908.99
910.684
911.584
906.222
906.652
982.551
946.729
905.838
904.823
904.72
903.637
903.808
904.329
904.88
905.126
905.134
905.133
905.232
905.252
905.422
905.833
906.545
907.438
908.619
909.855
911.157
911.959
911.959
911.959
910.791
975.675
884.954
865.898
869.442
865.958
862.197
861.667
862.343
863.296
863.746
863.578
863.14
862.604
861.776
860.913
860.112
859.425
858.735
858.093
857.33
856.473
855.602
856.03
858.303
856.276
885.725
638.313
665.467
674.225
670.675
667.53
667.91
669.328
670.811
671.595
671.437
670.808
669.626
667.678
665.356
662.615
659.442
655.812
651.749
647.311
642.638
638.202
635.338
635.138
630.11
606.802
521.897
527.395
530.641
531.167
531.261
531.507
531.809
532.071
532.22
532.221
532.124
531.895
531.516
531.042
530.467
529.794
529.039
528.218
527.379
526.572
525.846
525.279
524.757
522.555
518.618
514.561
514.666
514.906
515.012
515.016
515.01
515.007
515.007
515.009
515.008
515.005
514.998
514.986
514.971
514.954
514.933
514.911
514.889
514.869
514.852
514.84
514.832
514.791
514.64
514.561
514.542
514.542
514.543
514.546
514.547
514.548
514.549
514.549
514.549
514.549
514.549
514.548
514.548
514.548
514.548
514.549
514.548
514.548
514.547
514.546
514.545
514.544
514.543
514.541
514.541
514.543
514.544
514.548
514.557
514.569
514.578
514.582
514.583
514.581
514.577
514.573
514.572
514.572
514.575
514.579
514.582
514.584
514.582
514.577
514.567
514.556
514.548
514.543
514.542
514.541
514.547
514.555
514.579
514.638
514.675
514.689
514.692
514.691
514.685
514.676
514.667
514.664
514.664
514.672
514.681
514.689
514.693
514.694
514.689
514.671
514.635
514.58
514.555
514.546
514.543
514.558
514.582
514.636
514.693
514.711
514.714
514.714
514.714
514.713
514.711
514.709
514.708
514.708
514.71
514.712
514.713
514.714
514.714
514.714
514.713
514.703
514.666
514.598
514.563
514.549
)
;

boundaryField
{
    inlet
    {
        type            calculated;
        value           nonuniform List<scalar> 
25
(
770.947
770.947
770.947
770.947
770.947
770.947
770.947
770.947
770.947
770.947
770.947
770.947
770.947
770.947
770.947
770.947
770.947
770.947
770.947
770.947
770.947
770.947
770.947
770.947
770.947
)
;
    }
    outlet
    {
        type            calculated;
        value           nonuniform List<scalar> 
25
(
514.557
514.581
514.635
514.693
514.714
514.714
514.714
514.714
514.713
514.711
514.709
514.708
514.708
514.71
514.712
514.713
514.714
514.714
514.714
514.714
514.703
514.666
514.598
514.563
514.549
)
;
    }
    walls
    {
        type            calculated;
        value           nonuniform List<scalar> 
150
(
877.66
895.595
927.747
971.245
1000.16
1008.86
1008.86
1008.86
1004
994.118
983.863
975.733
970.245
967.001
964.949
964.569
964.659
963.763
960.28
954.656
947.691
939.251
930.453
921.357
909.067
898.444
898.444
898.444
903.979
919.661
942.41
964.297
977.388
979.802
979.802
979.661
979.48
979.587
979.407
978.452
976.775
974.785
972.987
971.526
970.393
969.475
968.706
968.031
967.425
966.852
966.35
965.872
965.39
964.728
963.869
963.03
961.934
960.447
958.865
957.01
954.854
952.663
949.997
946.877
946.978
948.813
946.729
884.954
638.313
521.897
514.561
514.542
514.543
514.547
514.558
880.375
921.061
927.35
927.35
927.35
926.254
923.47
919.81
915.837
912.67
909.481
899.108
883.819
883.819
883.819
897.627
934.081
969.165
983.77
983.787
983.787
980.298
975.265
971.441
969.113
967.611
966.616
966.073
966.081
966.277
966.818
966.252
964.122
960.591
956.507
952.681
950.53
951.36
953.963
956.484
957.537
957.941
958.166
958.573
959.165
959.924
960.92
962.124
963.499
965.015
966.602
968.248
969.937
971.677
973.478
975.337
977.169
978.925
980.594
982.129
983.165
983.165
983.165
983.152
982.685
982.551
975.675
885.725
606.802
518.618
514.561
514.541
514.541
514.543
514.549
)
;
    }
    defaultFaces
    {
        type            empty;
    }
}


// ************************************************************************* //
