/*--------------------------------*- C++ -*----------------------------------*\
| =========                 |                                                 |
| \\      /  F ield         | OpenFOAM: The Open Source CFD Toolbox           |
|  \\    /   O peration     | Version:  2.3.0                                 |
|   \\  /    A nd           | Web:      www.OpenFOAM.org                      |
|    \\/     M anipulation  |                                                 |
\*---------------------------------------------------------------------------*/
FoamFile
{
    version     2.0;
    format      ascii;
    class       volScalarField;
    location    "1.22";
    object      nut.particles;
}
// * * * * * * * * * * * * * * * * * * * * * * * * * * * * * * * * * * * * * //

dimensions      [0 2 -1 0 0 0 0];

internalField   nonuniform List<scalar> 
6000
(
1.28374e-05
1.12956e-05
1.2383e-05
1.31811e-05
1.41415e-05
1.43409e-05
1.53666e-05
1.69565e-05
2.15015e-05
2.18294e-05
1.99201e-05
1.88176e-05
1.72255e-05
1.5646e-05
1.45171e-05
1.27557e-05
1.12184e-05
1.07549e-05
9.95308e-06
9.42535e-06
8.12275e-06
8.25069e-06
1.27654e-05
1.54562e-05
1.18436e-05
1.1162e-05
1.21246e-05
1.31749e-05
1.56576e-05
1.75344e-05
1.49209e-06
1.64496e-06
1.1408e-06
9.08645e-07
1.22387e-06
1.8024e-06
2.84461e-06
4.32685e-06
3.44159e-06
2.84911e-06
2.33331e-06
1.61393e-06
1.16004e-06
9.99761e-07
1.0424e-06
1.08627e-06
1.05849e-06
9.70192e-07
8.56591e-07
7.89676e-07
8.85988e-07
9.98542e-07
1.07061e-06
1.03296e-06
1.62579e-06
1.62107e-06
1.47626e-06
1.65664e-06
1.6271e-06
1.45159e-06
3.53618e-06
2.64648e-06
9.8493e-07
5.84117e-07
9.10508e-07
1.97117e-06
4.02989e-06
5.521e-06
1.62082e-06
9.37951e-07
9.42418e-07
6.06013e-07
3.85433e-07
1.77893e-07
1.33418e-07
9.72987e-08
1.38249e-07
1.51931e-07
1.29569e-07
1.11475e-07
1.28114e-07
7.60324e-08
8.65915e-08
4.63263e-07
1.3295e-06
1.99332e-06
1.52865e-06
1.44259e-06
6.21742e-07
1.53523e-06
1.15162e-06
1.00613e-06
5.85788e-07
4.85208e-07
7.33662e-07
6.1211e-07
2.47644e-06
2.14254e-06
1.09544e-06
4.92139e-07
3.42253e-07
3.07612e-07
2.96458e-07
2.55718e-07
2.4986e-07
2.45016e-07
2.7127e-07
2.70292e-07
2.93519e-07
3.34911e-07
3.87538e-07
3.84077e-07
3.60837e-07
3.20599e-07
2.6135e-07
2.5969e-07
2.06386e-07
2.86721e-07
3.64332e-07
8.54347e-07
2.88031e-06
2.07447e-06
1.15804e-06
1.01459e-06
2.74553e-06
2.70735e-06
1.84632e-06
1.12848e-06
7.11376e-07
5.7704e-07
4.15207e-07
3.496e-07
3.38778e-07
3.41636e-07
3.16334e-07
2.61394e-07
2.83792e-07
3.55493e-07
4.61253e-07
4.33839e-07
4.14362e-07
4.49216e-07
4.08814e-07
3.35405e-07
3.06339e-07
2.84463e-07
2.83858e-07
3.06548e-07
3.08701e-07
7.0892e-07
3.8436e-06
1.4287e-06
8.75536e-07
7.88532e-07
4.57876e-06
5.10658e-06
1.01162e-06
5.5812e-07
4.4333e-07
5.95985e-07
5.25981e-07
4.04158e-07
3.81454e-07
3.90338e-07
3.66042e-07
3.9906e-07
6.01388e-07
8.74419e-07
1.11865e-06
6.85593e-07
3.79205e-07
3.5933e-07
3.67104e-07
3.55164e-07
3.63189e-07
4.7406e-07
6.2731e-07
5.2768e-07
4.19774e-07
6.48927e-07
3.08953e-06
1.20838e-06
5.89006e-07
6.05302e-07
5.18608e-06
6.1851e-06
6.52704e-07
3.05803e-07
3.58662e-07
5.98357e-07
6.94165e-07
5.38075e-07
4.91938e-07
4.8626e-07
5.0803e-07
9.72248e-07
1.72718e-06
1.85452e-06
1.94351e-06
1.28261e-06
4.69252e-07
3.28424e-07
3.50078e-07
4.35235e-07
6.04373e-07
7.63102e-07
1.32755e-06
1.38213e-06
5.82299e-07
8.31593e-07
4.07809e-06
2.38467e-06
8.23015e-07
1.04163e-06
3.71949e-06
4.01757e-06
4.35479e-07
4.0486e-07
4.57776e-07
5.88885e-07
9.75318e-07
8.38681e-07
7.84921e-07
7.35936e-07
8.12917e-07
2.38376e-06
0.00029478
0.000324463
0.000319238
0.000201349
1.29355e-06
6.5878e-07
9.20572e-07
1.51041e-06
2.18938e-06
0.000276403
0.000311136
3.30529e-06
1.21274e-06
1.5004e-06
9.77895e-06
6.69263e-05
2.77203e-06
1.37955e-06
2.41245e-06
1.37351e-06
4.39402e-07
5.30326e-07
5.27873e-07
6.24467e-07
1.23207e-06
9.88532e-07
7.72022e-07
4.98387e-06
0.000217108
0.000320966
0.000341548
0.00032269
0.000357246
0.000323366
0.000328996
0.000169312
0.000120653
0.000322296
0.000342718
0.000324143
0.000357864
0.000324402
1.63317e-05
4.55632e-06
7.41516e-05
8.00399e-05
1.25777e-05
9.65523e-07
7.96517e-07
9.52796e-07
4.48441e-07
4.41118e-07
6.11239e-07
7.15559e-07
1.35929e-06
0.000228927
0.000319407
0.000338597
0.000324146
0.000381434
0.000326852
0.000429046
0.000329647
0.000413655
0.000332316
0.000377801
0.000334573
0.000373089
0.000331871
0.00037739
0.000334659
0.000387498
0.000198267
2.95288e-05
8.24899e-05
7.95869e-05
9.73952e-05
3.44148e-05
1.36195e-05
2.95589e-06
6.42631e-07
4.15062e-07
7.0641e-07
1.39749e-06
0.000237333
0.000323741
0.000375035
0.00033215
0.000460293
0.000338395
0.000471849
0.000340319
0.00047189
0.000339441
0.000465539
2.64039e-05
1.88592e-05
1.44874e-05
1.25302e-05
1.01543e-05
7.49162e-06
6.99642e-06
9.28149e-06
1.2246e-05
8.54196e-05
8.96061e-05
9.96179e-05
9.08685e-05
3.91049e-05
1.70663e-05
8.18337e-06
8.87272e-06
1.28765e-05
0.000219826
0.000334307
0.000438518
0.000346378
0.000475464
0.000350205
5.51138e-05
2.39667e-05
1.84449e-05
1.87297e-05
1.29407e-05
5.22004e-06
2.04797e-06
1.19984e-06
1.0329e-06
6.9089e-07
2.73837e-07
4.99988e-08
7.29689e-08
7.92847e-08
1.2914e-06
5.06871e-05
9.48351e-06
5.0716e-06
8.24112e-06
8.80686e-06
8.62727e-06
8.366e-06
1.38117e-05
2.6013e-05
2.97641e-05
3.01763e-05
2.40249e-05
1.58087e-05
8.52928e-06
4.47475e-06
2.23361e-06
1.27684e-06
7.05976e-07
9.56364e-07
1.01937e-06
2.68772e-07
1.31526e-07
1.16307e-07
3.57371e-07
5.48838e-07
3.2256e-07
1.43962e-07
9.80828e-08
1.20967e-07
6.5922e-07
2.61768e-05
3.22835e-06
4.62501e-07
5.4045e-07
7.48373e-07
1.21138e-06
2.25535e-06
3.45886e-06
4.55777e-06
4.26095e-06
2.86374e-06
1.71712e-06
8.23883e-07
3.17136e-07
4.87406e-08
3.10622e-08
4.53409e-08
5.11061e-08
1.30703e-07
5.8047e-07
3.81505e-07
1.91565e-07
2.4125e-07
6.03635e-07
8.73476e-07
5.00587e-07
2.24739e-07
1.30982e-07
1.20599e-07
5.46342e-07
7.2816e-05
3.14504e-06
2.5106e-07
6.07003e-08
2.3658e-08
4.36162e-08
4.20045e-07
7.41812e-07
6.73784e-07
3.62997e-07
6.41958e-08
3.9914e-08
4.48733e-08
5.34593e-08
5.15698e-08
5.64969e-08
6.16904e-08
5.85092e-08
9.56823e-08
6.74733e-07
8.69132e-07
3.64324e-07
4.01526e-07
8.85211e-07
1.22809e-06
7.26844e-07
3.51388e-07
1.9928e-07
1.55011e-07
4.4488e-07
7.43944e-05
2.67802e-06
1.78227e-07
2.7415e-08
2.97856e-08
3.32858e-08
5.36953e-08
6.62718e-08
9.04254e-08
9.73822e-08
7.76827e-08
6.98817e-08
6.92018e-08
5.81089e-08
5.1452e-08
5.38099e-08
5.91681e-08
5.36273e-08
7.40925e-08
6.69906e-07
1.48624e-06
7.6487e-07
6.72954e-07
1.12427e-06
1.41857e-06
9.72316e-07
5.35762e-07
3.3187e-07
2.49434e-07
4.79169e-07
7.71148e-05
1.84178e-06
1.08566e-07
2.76372e-08
3.39587e-08
4.48544e-08
6.32453e-08
7.5121e-08
1.04828e-07
1.00942e-07
7.68413e-08
7.29876e-08
6.30619e-08
4.90539e-08
4.38404e-08
5.05824e-08
6.33599e-08
5.56254e-08
6.68231e-08
5.64646e-07
1.89379e-06
1.39764e-06
1.07354e-06
1.3384e-06
1.50391e-06
1.18611e-06
7.47603e-07
5.09299e-07
4.29789e-07
6.45605e-07
1.23461e-05
7.53961e-07
4.66423e-08
5.28124e-08
4.3857e-08
5.50109e-08
6.44545e-08
8.26822e-08
1.12195e-07
9.72404e-08
9.17269e-08
8.34077e-08
6.74642e-08
5.42982e-08
5.66993e-08
5.81863e-08
6.58959e-08
5.4155e-08
8.01125e-08
5.36721e-07
2.0236e-06
2.06773e-06
1.57259e-06
1.53254e-06
1.48194e-06
1.25747e-06
9.21578e-07
6.7283e-07
6.06703e-07
8.11722e-07
2.64293e-06
1.58601e-07
6.47283e-08
8.1322e-08
6.47006e-08
7.82449e-08
7.0479e-08
9.75087e-08
1.09051e-07
1.0468e-07
9.71013e-08
8.31536e-08
6.86619e-08
8.13845e-08
8.099e-08
6.52227e-08
6.43339e-08
6.05538e-08
1.32191e-07
6.85641e-07
2.10273e-06
2.42293e-06
1.99225e-06
1.69157e-06
1.47389e-06
1.23511e-06
9.60474e-07
7.13968e-07
6.45319e-07
8.10553e-07
8.62575e-07
1.27615e-07
1.14463e-07
1.16532e-07
1.16057e-07
9.65384e-08
6.76589e-08
9.64543e-08
1.13251e-07
9.13593e-08
1.00912e-07
7.93052e-08
6.94067e-08
1.04974e-07
1.23307e-07
9.1574e-08
8.25177e-08
9.55864e-08
2.85688e-07
1.12965e-06
2.44467e-06
2.7021e-06
2.05863e-06
1.60552e-06
1.3471e-06
2.59612e-06
6.73621e-06
7.49814e-06
3.57181e-06
1.93071e-05
4.6746e-07
8.32767e-08
9.49003e-08
1.1408e-07
1.20073e-07
9.58754e-08
6.51411e-08
9.96472e-08
9.79746e-08
8.39424e-08
9.6528e-08
7.82387e-08
6.86295e-08
1.04519e-07
1.78255e-07
1.36218e-07
1.36577e-07
2.10508e-07
7.99824e-07
2.24229e-06
3.13167e-06
0.000140956
0.000440525
0.000717509
0.000883887
0.000904357
0.000804756
0.000593993
0.000413706
0.000456773
3.84805e-07
3.78575e-08
6.4123e-08
8.53606e-08
7.43107e-08
8.10502e-08
8.47015e-08
9.62942e-08
9.1235e-08
9.02977e-08
9.38598e-08
7.57969e-08
6.48375e-08
8.47774e-08
1.77567e-07
2.16309e-07
2.9989e-07
8.16985e-07
2.68031e-06
2.40234e-05
0.00182332
0.00518095
0.00843207
0.0104913
0.0108505
0.00981335
0.00786694
0.00557096
0.0035206
0.00276956
3.0087e-07
6.54154e-08
1.02708e-07
1.23113e-07
9.31102e-08
5.66494e-08
8.31037e-08
9.2925e-08
8.53588e-08
9.31634e-08
8.70743e-08
7.65278e-08
6.06121e-08
6.98338e-08
1.52717e-07
3.2704e-07
1.09593e-06
3.99343e-06
0.000192582
0.00590857
0.0183973
0.0303718
0.0380351
0.041278
0.04091
0.0378772
0.0318343
0.0245326
0.0173696
0.0126447
2.0226e-07
1.14568e-07
1.48334e-07
1.45489e-07
1.27756e-07
5.44679e-08
6.58057e-08
8.13023e-08
9.05332e-08
9.77537e-08
8.65818e-08
7.47876e-08
6.20225e-08
7.86363e-08
1.7713e-07
1.04198e-06
4.96158e-06
0.000537082
0.011665
0.0352895
0.0577483
0.0707812
0.0712225
0.071462
0.0716241
0.0717527
0.0667869
0.0583953
0.0490999
0.0405349
1.13958e-07
1.81419e-07
2.98569e-07
2.58719e-07
1.74673e-07
7.5858e-08
7.98096e-08
9.24242e-08
1.026e-07
9.78646e-08
8.72533e-08
8.7076e-08
8.86447e-08
1.3526e-07
5.79864e-07
3.85393e-06
0.00037047
0.01459
0.0462193
0.0675692
0.0679127
0.0679817
0.0633437
0.066786
0.0701569
0.0718649
0.0750174
0.0751858
0.0752038
0.0735174
1.06876e-07
2.21712e-07
4.83708e-07
5.88185e-07
3.25966e-07
9.91968e-08
1.0349e-07
1.012e-07
1.07182e-07
1.17642e-07
1.22415e-07
1.31166e-07
1.6004e-07
2.92814e-07
2.43523e-06
4.32811e-05
0.011553
0.0464675
0.0668329
0.0664347
0.0220916
0.00881478
0.00903865
0.0146521
0.0227949
0.0315816
0.0449286
0.0624573
0.0752561
0.0764755
2.06503e-07
3.37214e-07
8.26061e-07
1.14425e-06
4.48104e-07
1.39836e-07
1.15324e-07
1.19294e-07
1.34134e-07
1.3813e-07
1.57263e-07
1.91258e-07
2.60209e-07
1.35085e-06
7.47085e-06
0.0061464
0.0382292
0.0609323
0.06054
0.0116137
0.00123263
0.00113092
0.00121872
0.00119454
0.00197539
0.00586641
0.0157355
0.0365455
0.0673772
0.0764753
4.23397e-07
9.5955e-07
1.30776e-06
1.55377e-06
5.89808e-07
2.41518e-07
1.69984e-07
1.69054e-07
2.69396e-07
5.03622e-07
4.03033e-07
3.57079e-07
3.62491e-07
3.96211e-06
0.00218384
0.0251617
0.0579579
0.0600095
0.0199682
0.0012312
0.00112602
0.00121415
0.0011801
0.00126319
0.00278839
0.00732853
0.0176321
0.0400228
0.0752828
0.0764998
8.47402e-07
2.37069e-06
6.99771e-07
1.2547e-06
1.06912e-06
4.95076e-07
2.53018e-07
2.73854e-07
6.94187e-07
1.17738e-06
9.56971e-07
9.23263e-07
7.87673e-07
0.000118318
0.0107881
0.0441325
0.0581259
0.0409082
0.00614561
0.00113001
0.00121435
0.00179538
0.0052035
0.0112238
0.0196862
0.0293602
0.0425372
0.0629228
0.07624
0.0763655
1.21754e-06
2.04595e-06
1.02394e-06
2.05311e-06
1.74504e-06
1.08054e-06
5.14286e-07
6.49175e-07
1.61469e-06
2.17842e-06
1.72736e-06
1.84494e-06
2.83313e-06
0.000510796
0.0182459
0.058194
0.0574765
0.0285916
0.00425074
0.00121624
0.00164533
0.0077369
0.0235784
0.0336704
0.0341769
0.0345721
0.034968
0.0341645
0.0263343
0.0318178
1.13572e-06
1.40386e-06
2.07463e-06
3.01623e-06
2.91455e-06
2.46727e-06
2.17031e-06
3.69126e-06
1.31418e-05
0.00040493
0.00083119
0.000203826
3.55632e-05
0.000936972
0.0235586
0.0608032
0.0562667
0.0250795
0.00461862
0.00121267
0.00502385
0.0211126
0.0263528
0.0266067
0.0180906
0.00660409
0.00214426
0.00120129
9.11449e-05
2.03678e-05
1.79188e-06
1.69077e-06
2.56667e-06
4.02529e-06
4.50308e-05
0.000387637
0.00102989
0.00215073
0.00192002
0.000796077
0.00269664
0.00266158
0.000555957
0.00195996
0.0259145
0.0610011
0.0570587
0.0251582
0.00525318
0.00236655
0.010518
0.02012
0.0156379
0.00640756
0.00112331
6.86191e-06
3.43571e-06
2.15838e-06
1.03274e-05
7.2436e-06
4.18443e-06
1.11254e-05
0.000521703
0.00195951
0.00384684
0.00394403
0.00396619
0.00393246
0.00228804
0.00079861
0.00244909
0.00592099
0.00357187
0.00538135
0.0276008
0.0615403
0.0565584
0.0255136
0.0061995
0.00461935
0.010414
0.0105375
0.00440149
0.000504878
2.70815e-06
2.28866e-06
7.83387e-06
1.21482e-05
3.64557e-06
2.21799e-06
8.10086e-06
0.00171657
0.00394134
0.00405365
0.00395868
0.00405127
0.00371581
0.00337217
0.00283459
0.000950094
0.00104968
0.00593703
0.0107033
0.0167116
0.0382413
0.0616578
0.0546339
0.0252898
0.00720893
0.00555087
0.00731951
0.00460421
0.00136831
0.000134298
7.13708e-05
2.70065e-05
1.44975e-05
3.36954e-06
2.57776e-06
1.13945e-06
3.32064e-05
0.00391973
0.00406432
0.00393155
0.00401896
0.00390476
0.00223248
0.00206025
0.00248692
0.00209096
0.00238018
0.00240189
0.00720681
0.0340374
0.0609807
0.0625479
0.0545257
0.0242099
0.00775695
0.00590436
0.00443247
0.00172474
0.00143052
0.00137636
4.33051e-05
9.5352e-06
2.80575e-06
1.9204e-06
4.21813e-08
5.08128e-07
3.22695e-05
0.00404842
0.00386593
4.01777e-05
2.51778e-05
4.3113e-05
0.000367598
0.0016757
0.00194002
8.49588e-05
3.29567e-05
2.41386e-05
3.71775e-05
0.02561
0.0627472
0.0621442
0.0594249
0.0213271
0.00706422
0.00398167
0.00422663
0.000352929
4.70672e-05
1.66171e-05
4.33263e-06
2.12649e-06
1.62821e-07
2.91557e-08
3.22306e-08
3.94622e-07
1.56336e-05
0.00380775
2.08595e-05
4.44619e-06
2.57406e-06
5.79625e-06
1.18796e-05
1.59675e-05
1.59055e-05
8.29559e-06
3.30907e-06
3.93781e-06
5.5786e-06
0.00854706
0.0612017
0.0647115
0.0613727
0.0161166
0.00394184
5.35844e-05
2.18427e-05
8.94561e-06
4.18892e-06
1.96545e-06
3.36859e-07
4.01616e-08
4.48058e-08
4.09792e-08
2.92404e-08
3.15575e-07
1.55689e-05
1.70365e-05
2.54985e-06
3.70467e-08
3.1516e-08
1.19274e-07
6.14955e-07
1.1318e-06
1.18161e-06
2.53038e-07
4.10549e-08
6.56452e-07
4.16899e-06
0.0089071
0.0636612
0.0622207
0.0625517
0.00485602
3.18018e-05
6.90497e-06
2.3187e-06
6.69798e-07
9.27271e-08
1.05585e-08
4.18134e-08
6.0328e-08
4.60519e-08
3.02728e-08
2.43826e-08
2.28536e-07
1.80811e-05
5.93878e-06
4.59469e-07
2.19879e-08
2.76097e-08
1.82186e-08
2.84961e-08
2.86646e-08
2.57291e-08
3.45629e-08
2.82989e-08
7.97236e-07
5.29309e-06
0.0155538
0.0614455
0.0649439
0.0111119
3.08673e-05
4.96304e-06
6.54176e-07
2.17636e-08
1.84895e-08
2.01058e-08
2.45368e-08
4.22632e-08
6.03984e-08
5.67961e-08
3.44442e-08
1.82689e-08
1.50451e-07
1.79561e-05
4.96093e-06
3.65025e-07
2.35654e-08
2.81984e-08
2.13362e-08
3.21725e-08
2.98348e-08
3.31308e-08
3.90323e-08
2.34045e-08
1.02128e-06
6.80426e-06
0.0298834
0.0645242
0.0583653
0.000116633
7.27878e-06
8.78455e-07
1.98727e-08
2.06467e-08
2.07554e-08
1.97042e-08
2.63108e-08
4.46472e-08
5.56372e-08
5.35513e-08
3.43766e-08
1.70265e-08
9.8854e-08
1.6526e-05
4.59081e-06
3.28754e-07
2.62603e-08
2.85119e-08
2.35564e-08
3.42707e-08
3.11623e-08
3.44516e-08
4.06132e-08
4.13471e-08
1.21335e-06
2.66657e-05
0.04685
0.0604939
0.0152242
1.96863e-05
2.3167e-06
1.15469e-07
1.89056e-08
2.1469e-08
2.1497e-08
1.99231e-08
2.58471e-08
4.63912e-08
6.0695e-08
5.88093e-08
3.56325e-08
1.60082e-08
5.56068e-08
1.50888e-05
3.07163e-06
2.40229e-07
3.05912e-08
2.70132e-08
2.72947e-08
3.2846e-08
3.03482e-08
3.6897e-08
3.95326e-08
1.15379e-07
1.43686e-06
0.000327332
0.0582586
0.0623065
0.00713189
1.17459e-05
1.16991e-06
1.55984e-08
2.01431e-08
2.21498e-08
2.30925e-08
2.25949e-08
2.86577e-08
4.30804e-08
5.60571e-08
6.09396e-08
4.07435e-08
1.73676e-08
2.81643e-08
1.38597e-05
1.86504e-06
1.62214e-07
3.2424e-08
2.51827e-08
3.2751e-08
3.5483e-08
3.19664e-08
3.27455e-08
3.91574e-08
1.75312e-07
1.86363e-06
0.00148502
0.0584191
0.0587273
0.00282192
6.47523e-06
4.57345e-07
1.88893e-08
2.12863e-08
2.42264e-08
2.40247e-08
2.11058e-08
2.63428e-08
4.15559e-08
5.49271e-08
6.22107e-08
4.57198e-08
1.99818e-08
1.35399e-08
1.30367e-05
1.19668e-06
8.3815e-08
3.65959e-08
2.72183e-08
3.3101e-08
3.30353e-08
3.34259e-08
3.1975e-08
3.40378e-08
2.7892e-07
3.0067e-06
0.00321132
0.0544424
0.0360956
0.0014982
4.24181e-06
2.20726e-07
2.13324e-08
2.30364e-08
2.47751e-08
2.44374e-08
2.22435e-08
2.66773e-08
3.93437e-08
5.1516e-08
6.11241e-08
5.2853e-08
2.32801e-08
6.69406e-09
1.59023e-05
9.24321e-07
3.48583e-08
3.64432e-08
2.73014e-08
3.91615e-08
3.29735e-08
3.0866e-08
3.22073e-08
3.48358e-08
3.92717e-07
4.85996e-06
0.00460721
0.0305874
0.0190593
0.000373596
2.98281e-06
7.21949e-08
2.45626e-08
2.57451e-08
2.82476e-08
2.73845e-08
2.32317e-08
2.46582e-08
3.51153e-08
5.03438e-08
5.98377e-08
5.61398e-08
2.79539e-08
7.30412e-09
2.03681e-05
8.81916e-07
1.9095e-08
3.75841e-08
3.3271e-08
3.60834e-08
3.14164e-08
3.05854e-08
3.43777e-08
4.08326e-08
4.38907e-07
6.02809e-06
0.00526359
0.0144595
0.00972334
2.80894e-05
2.15269e-06
3.99176e-08
3.01384e-08
2.89668e-08
2.98268e-08
2.75954e-08
2.26682e-08
2.35172e-08
3.16608e-08
4.73023e-08
6.09517e-08
5.96062e-08
3.56775e-08
1.16775e-08
7.03087e-06
1.85946e-07
4.86492e-08
4.06593e-08
3.47508e-08
3.36465e-08
3.2466e-08
3.19293e-08
3.87881e-08
5.22245e-08
1.95132e-07
4.62091e-06
0.00239372
0.0046812
0.00622319
1.99898e-05
1.56606e-06
4.13805e-08
3.58918e-08
3.38849e-08
3.32179e-08
2.898e-08
2.28001e-08
2.25981e-08
2.89934e-08
4.1964e-08
5.76205e-08
6.10375e-08
4.35161e-08
1.676e-08
1.86006e-06
6.21242e-08
5.66281e-08
3.48658e-08
3.47526e-08
3.42998e-08
3.31181e-08
3.58909e-08
4.84303e-08
7.71484e-08
1.92097e-07
2.52937e-06
0.000253155
0.000966146
0.00333367
1.14103e-05
7.27548e-07
5.61169e-08
4.53323e-08
4.06654e-08
3.65034e-08
2.95664e-08
2.24962e-08
2.18143e-08
2.72075e-08
3.85022e-08
5.22238e-08
5.68528e-08
4.68161e-08
2.35461e-08
8.53654e-07
3.81769e-08
3.62787e-08
3.84429e-08
3.59754e-08
3.57536e-08
3.60008e-08
4.41111e-08
6.85522e-08
1.19215e-07
2.81051e-07
2.20767e-06
4.84586e-05
0.000411495
0.000417032
5.68902e-06
3.63085e-07
8.22875e-08
5.92495e-08
4.98306e-08
4.0008e-08
2.96547e-08
2.2869e-08
2.16566e-08
2.51448e-08
3.50538e-08
4.99504e-08
5.34016e-08
4.41837e-08
3.0849e-08
5.63023e-07
4.04317e-08
4.26567e-08
3.61964e-08
3.89284e-08
3.78452e-08
4.30548e-08
6.23494e-08
1.05319e-07
1.9062e-07
4.55765e-07
2.27644e-06
1.07253e-05
0.00036264
8.9636e-05
3.51106e-06
3.67386e-07
1.27439e-07
8.44029e-08
6.22601e-08
4.49352e-08
3.05343e-08
2.35886e-08
2.16162e-08
2.38294e-08
3.16095e-08
4.57298e-08
5.20891e-08
4.26207e-08
3.71354e-08
3.85664e-07
4.69824e-08
3.71668e-08
3.76975e-08
4.00569e-08
4.47695e-08
5.94095e-08
9.514e-08
1.64995e-07
3.18789e-07
8.1645e-07
2.49516e-06
5.39897e-06
0.000154816
1.42761e-05
2.65363e-06
5.36023e-07
2.03004e-07
1.26618e-07
8.203e-08
5.13362e-08
3.25883e-08
2.43676e-08
2.14707e-08
2.2816e-08
2.98226e-08
4.20298e-08
4.86358e-08
3.96901e-08
4.09867e-08
2.8228e-07
3.7593e-08
3.23734e-08
4.07217e-08
4.7997e-08
6.09654e-08
9.0113e-08
1.48584e-07
2.63869e-07
5.47551e-07
1.33417e-06
2.8108e-06
4.81967e-06
1.88214e-05
6.28722e-06
2.84439e-06
8.55177e-07
3.41335e-07
1.96924e-07
1.12561e-07
6.08969e-08
3.60039e-08
2.59041e-08
2.18576e-08
2.25096e-08
2.77647e-08
3.80512e-08
4.53748e-08
3.46889e-08
4.27673e-08
2.20401e-07
3.40651e-08
3.83832e-08
4.8833e-08
6.68127e-08
9.3837e-08
1.41909e-07
2.32152e-07
4.27821e-07
9.19683e-07
1.95752e-06
3.04846e-06
4.20115e-06
5.78349e-06
5.04991e-06
3.22489e-06
1.32805e-06
5.79783e-07
3.15514e-07
1.60993e-07
7.54304e-08
4.19157e-08
2.8534e-08
2.28208e-08
2.30179e-08
2.64881e-08
3.46993e-08
4.23142e-08
3.01759e-08
4.3156e-08
1.50702e-07
3.80052e-08
4.60135e-08
6.91396e-08
1.05767e-07
1.54032e-07
2.30272e-07
3.77214e-07
7.0261e-07
1.43954e-06
2.47748e-06
3.03632e-06
3.62181e-06
4.59791e-06
4.20906e-06
3.5715e-06
2.02275e-06
9.88963e-07
5.15831e-07
2.4154e-07
1.00816e-07
5.20865e-08
3.32432e-08
2.52783e-08
2.39221e-08
2.57593e-08
3.11284e-08
3.81889e-08
2.74039e-08
4.53853e-08
1.03273e-07
4.66586e-08
6.64756e-08
1.08823e-07
1.79566e-07
2.72525e-07
4.08044e-07
6.51254e-07
1.14664e-06
1.9753e-06
2.6525e-06
2.82018e-06
3.09943e-06
3.67157e-06
3.68714e-06
3.66232e-06
2.8622e-06
1.67409e-06
8.74132e-07
3.96512e-07
1.52249e-07
7.01447e-08
4.16128e-08
2.93214e-08
2.55287e-08
2.6357e-08
2.97033e-08
3.32831e-08
2.56848e-08
5.23103e-08
7.74808e-08
6.00286e-08
9.9801e-08
1.78319e-07
3.26181e-07
5.25764e-07
7.60537e-07
1.1293e-06
1.70843e-06
2.29454e-06
2.57491e-06
2.64802e-06
2.84332e-06
3.22536e-06
3.44299e-06
3.72973e-06
3.67604e-06
2.83341e-06
1.61168e-06
7.2872e-07
2.70657e-07
1.05705e-07
5.51748e-08
3.61212e-08
2.89791e-08
2.7426e-08
3.04462e-08
3.02883e-08
2.28006e-08
5.84176e-08
8.01132e-08
7.72571e-08
1.69245e-07
3.47713e-07
6.9119e-07
1.02859e-06
1.35598e-06
1.74258e-06
2.09962e-06
2.48881e-06
3.74444e-06
4.66983e-06
6.1617e-06
7.99888e-06
1.23357e-05
1.61361e-05
1.65346e-05
4.92767e-06
3.41627e-06
1.63818e-06
5.75217e-07
1.90164e-07
8.13314e-08
4.61029e-08
3.43615e-08
3.0363e-08
2.96377e-08
2.84765e-08
1.75042e-08
6.01967e-08
1.40352e-07
1.22902e-07
3.63408e-07
8.13907e-07
1.39414e-06
1.69441e-06
1.44962e-05
0.00011424
0.00024461
0.000344578
0.000414102
0.000470906
0.000513582
0.000527972
0.000533664
0.000488028
0.000399794
0.000260907
7.75927e-05
4.19379e-06
1.595e-06
4.21126e-07
1.44677e-07
6.60078e-08
4.13493e-08
3.5629e-08
2.9149e-08
2.74265e-08
1.43886e-08
6.11259e-08
2.9773e-07
3.12922e-07
8.43139e-07
1.70269e-06
2.86033e-05
0.000296495
0.000680509
0.0010858
0.0014741
0.00182715
0.00213945
0.00239288
0.00255961
0.00260517
0.0024975
0.00221253
0.00177823
0.00125669
0.000730596
0.000202307
4.42653e-06
1.26424e-06
2.98167e-07
1.13489e-07
5.54121e-08
4.17742e-08
3.36591e-08
2.73506e-08
1.56799e-08
7.19967e-08
8.408e-07
6.68994e-07
1.92776e-06
0.000304915
0.000921006
0.00152717
0.00212967
0.00272699
0.00330699
0.00384385
0.00429647
0.00461673
0.00476654
0.00471227
0.00442265
0.00391588
0.00323286
0.00244593
0.00165069
0.000929211
0.000171821
3.5863e-06
7.86088e-07
2.19528e-07
9.16941e-08
5.17397e-08
4.29213e-08
2.92649e-08
1.9612e-08
9.17797e-08
2.20863e-06
1.06929e-06
0.000659017
0.00174455
0.00248518
0.00317313
0.00387008
0.00455209
0.00517324
0.00568051
0.0060205
0.00615358
0.0060602
0.00573524
0.00520039
0.00450907
0.00372292
0.00290494
0.00210447
0.00137674
0.000729445
2.95891e-05
2.28599e-06
4.83382e-07
1.78941e-07
8.21391e-08
5.403e-08
3.8225e-08
2.5043e-08
1.49531e-07
1.0222e-05
0.000342114
0.00156368
0.00301675
0.00416021
0.00506308
0.00587057
0.00659129
0.0071636
0.00752722
0.00764285
0.00750049
0.0071024
0.00647914
0.00568846
0.00480187
0.00389229
0.00302165
0.00222814
0.00153199
0.000957621
0.000393899
4.94174e-06
1.44303e-06
3.68253e-07
1.53691e-07
8.37431e-08
4.69048e-08
3.00842e-08
1.73992e-07
0.000188958
0.000427758
0.00185718
0.00418304
0.00613799
0.00743966
0.00837645
0.00908355
0.00954646
0.00972646
0.00961313
0.00921588
0.00855815
0.00769281
0.00668976
0.00562592
0.0045774
0.0036056
0.00274633
0.00200624
0.00138837
0.000882808
0.000249671
3.97448e-06
1.23854e-06
3.4903e-07
1.43822e-07
8.08765e-08
5.27611e-08
2.36894e-07
0.000218622
0.000462504
0.00251678
0.00608247
0.0090152
0.010667
0.0115898
0.0121604
0.012454
0.0124568
0.0121802
0.0116322
0.0108551
0.00990297
0.00883854
0.00772559
0.00662351
0.00557822
0.00461768
0.00374486
0.00294168
0.00220887
0.0014437
0.000378085
3.72037e-06
1.45659e-06
3.75131e-07
1.56838e-07
9.03639e-08
3.74314e-07
0.000237568
0.000774381
0.00436542
0.00973767
0.0133138
0.0148185
0.0154108
0.0157142
0.0158306
0.0157319
0.0154118
0.0148872
0.0142018
0.0134035
0.0125389
0.0116463
0.0107503
0.00985867
0.00896314
0.00803545
0.00701175
0.00582395
0.00449887
0.0029159
0.00104886
1.39846e-05
1.79382e-06
3.75999e-07
1.55755e-07
5.95747e-07
0.000282142
0.002184
0.00870658
0.0155479
0.0186743
0.0193481
0.0194098
0.019476
0.0195212
0.0194533
0.019244
0.0189155
0.0185077
0.0180576
0.0175895
0.0171078
0.0165937
0.0160076
0.0152953
0.0143926
0.0132185
0.0116705
0.00978095
0.00784611
0.00586046
0.00317799
0.000209394
1.48527e-06
2.09555e-07
1.22856e-06
0.000585956
0.00584651
0.0159534
0.0224
0.023809
0.023462
0.0231945
0.0232582
0.0234206
0.0235333
0.0235606
0.0235266
0.0234556
0.0233526
0.0231906
0.0229172
0.0224671
0.0217777
0.0208031
0.0195226
0.0179278
0.0159883
0.0138379
0.0117404
0.00975345
0.00741927
0.00435477
0.000531136
2.97945e-06
3.77343e-06
0.00168693
0.0117848
0.0241124
0.0282168
0.0277142
0.0268756
0.0267693
0.0271337
0.0276045
0.0280205
0.0283617
0.0286385
0.0288265
0.028861
0.028629
0.0280263
0.026994
0.0255338
0.0236992
0.0215726
0.0191983
0.0165593
0.0139746
0.0114229
0.00860973
0.00489336
0.00189946
0.00185676
0.000319166
1.10587e-05
0.00450732
0.0186718
0.0304817
0.0319245
0.0305448
0.0300208
0.0305301
0.031444
0.0323747
0.0332174
0.0339623
0.0345448
0.0348324
0.0346201
0.0337658
0.0322485
0.0301587
0.0276584
0.0249232
0.0220763
0.0191603
0.0161607
0.0129673
0.0092706
0.00526329
0.0013009
1.60812e-05
0.00144193
0.00297058
0.000173068
0.00960339
0.0251252
0.0343608
0.034247
0.0331747
0.0336211
0.0350374
0.0366674
0.0382218
0.0396801
0.0409621
0.0418156
0.0419335
0.0408226
0.0386028
0.0356518
0.0323833
0.0290982
0.0259204
0.0227556
0.0195567
0.0162236
0.0121664
0.00740033
0.00308097
0.000403052
2.06957e-06
6.663e-06
0.00294644
0.0020238
0.0161215
0.0302388
0.036682
0.0364303
0.0365473
0.0383275
0.0407787
0.0431926
0.045487
0.0476314
0.0491699
0.0498117
0.0488738
0.0461098
0.0420692
0.0375993
0.0334522
0.0299359
0.0269397
0.0240716
0.0210319
0.017497
0.012991
0.00752381
0.00252893
0.000268769
6.66887e-07
3.70674e-06
0.000824633
0.00471891
0.0224879
0.0339586
0.0387644
0.0395269
0.0413708
0.0445182
0.0477543
0.0506613
0.0530758
0.0550035
0.0549866
0.0540402
0.0501948
0.0456061
0.0407761
0.0361289
0.0322505
0.0292684
0.0269942
0.0253074
0.0233317
0.0205035
0.0158761
0.00915262
0.00282604
0.000246898
5.86089e-06
3.95657e-06
5.85686e-06
0.00266865
0.0278157
0.0371377
0.041836
0.044399
0.0479191
0.0517482
0.0548008
0.0568907
0.0568937
0.0566937
0.0536403
0.047216
0.0400033
0.0338321
0.0294678
0.0268902
0.0254465
0.0250947
0.0249409
0.0248225
0.0246956
0.0240373
0.0209002
0.0130189
0.00351968
0.000217847
0.000172176
2.19015e-05
3.29167e-06
0.000573949
0.0324828
0.0411428
0.0470269
0.0514126
0.0555848
0.0585878
0.0597681
0.0590117
0.0561103
0.0483516
0.0372267
0.0254437
0.0169083
0.0119657
0.00974446
0.0102042
0.011574
0.0155136
0.0190971
0.0219002
0.0240515
0.0257752
0.0259407
0.0189175
0.00497283
0.000161352
0.000188329
0.00018892
4.42724e-06
1.40615e-05
0.0378431
0.0474442
0.055001
0.0601018
0.0632361
0.0640363
0.0622525
0.0573408
0.0481278
0.033719
0.0191759
0.00949529
0.00468683
0.00256487
0.00158224
0.00148629
0.00173742
0.00490746
0.0108963
0.0165126
0.0213671
0.0253222
0.0279538
0.0252145
0.00822527
0.000150162
6.85103e-06
0.00019312
4.7106e-06
5.57378e-06
0.045654
0.0570306
0.0652341
0.0691988
0.0704348
0.0695906
0.0663682
0.0596728
0.0487046
0.0330636
0.0186835
0.0099703
0.00544891
0.00309132
0.0017739
0.000634085
0.000500143
0.000504279
0.00413108
0.0106798
0.0173146
0.0235098
0.0279918
0.0278569
0.0142826
0.000404554
3.186e-06
4.35297e-06
1.34911e-06
2.80813e-06
0.0570797
0.0688204
0.0747245
0.0751652
0.0752459
0.0751877
0.0749537
0.0721471
0.0652664
0.0505174
0.0337413
0.0231793
0.0164612
0.0107691
0.0057081
0.00194827
0.000508313
0.000393738
0.000837532
0.00604363
0.013255
0.0205845
0.0271883
0.0280267
0.0223827
0.00230083
2.89321e-06
1.09853e-06
4.96306e-07
2.39969e-06
0.0700931
0.0754829
0.0758471
0.0758859
0.0758995
0.0758665
0.0758904
0.0757905
0.0757137
0.0717417
0.0559067
0.0436314
0.037345
0.030332
0.0184565
0.00675635
0.00108557
0.000391433
0.000394872
0.00318997
0.00994814
0.0172511
0.0243385
0.0279221
0.0276128
0.00969884
4.13826e-05
1.0513e-06
6.20428e-07
2.37736e-06
0.0757555
0.0760016
0.0759765
0.07598
0.0759305
0.0759845
0.075868
0.0756624
0.0588258
0.0385087
0.0379101
0.0305996
0.0297017
0.0305419
0.0301088
0.0161883
0.00321758
0.000395832
0.000373032
0.00194452
0.00774154
0.014488
0.020706
0.0259441
0.0263761
0.0186885
0.00313461
1.78232e-06
8.21986e-07
2.46855e-06
0.0760615
0.0760269
0.0760665
0.0759802
0.0760462
0.0758851
0.0755095
0.0235017
0.00256193
0.0023078
0.00642573
0.00733107
0.00930797
0.0176832
0.0256989
0.0245179
0.00697045
0.000544809
0.000395482
0.0013895
0.00646168
0.0127341
0.0178721
0.0213421
0.0222779
0.0192439
0.0110616
0.0013151
1.36503e-06
2.79189e-06
0.0760795
0.0761094
0.0760292
0.0760995
0.075864
0.0659993
0.0138396
3.32509e-05
1.29234e-05
1.80153e-05
5.37097e-05
0.00108078
0.00142912
0.00527694
0.0154274
0.0232417
0.0105538
0.00099808
0.000377256
0.00116958
0.00575872
0.0116005
0.0161212
0.0186243
0.0189684
0.016659
0.012179
0.0065504
0.0004622
4.38811e-06
0.0761322
0.0760826
0.0761304
0.075827
0.0557326
0.0135272
8.73945e-05
6.89283e-06
2.1908e-06
3.59517e-06
1.41249e-05
3.86129e-05
0.000834208
0.00230203
0.00841642
0.0180524
0.0126961
0.00165113
0.000396067
0.00116991
0.00539496
0.010655
0.014706
0.0171057
0.0174543
0.0144001
0.0102858
0.00655574
0.00252456
5.27693e-05
0.0761336
0.0761602
0.0757874
0.0419273
0.0122427
0.00104786
8.25548e-06
7.68359e-07
4.65021e-08
3.81501e-07
2.61423e-06
1.45823e-05
9.10262e-05
0.00186628
0.00511398
0.0119678
0.0125421
0.00231343
0.000394443
0.00129935
0.00520762
0.00970221
0.0131782
0.0156977
0.0168223
0.0143009
0.00877916
0.00477004
0.00236914
0.000792599
0.0761338
0.0754444
0.0325436
0.00497082
0.00200129
1.24896e-05
7.53603e-07
8.44686e-08
9.63922e-08
7.57248e-08
1.2758e-07
2.30605e-06
1.31997e-05
4.57014e-05
0.00274318
0.00595719
0.0115768
0.00314123
0.00049716
0.0015667
0.00499878
0.00866551
0.0115427
0.0139354
0.0157089
0.0148721
0.00958812
0.00408398
0.00178301
0.000824483
0.0660047
0.0208179
0.00479406
0.00119441
1.86078e-05
1.95674e-06
9.17997e-08
9.79264e-08
1.00623e-07
1.12165e-07
9.27554e-08
7.96865e-08
1.64512e-06
8.48327e-06
2.99112e-05
0.000633844
0.00561367
0.00352692
0.000859591
0.00192128
0.00461228
0.00756782
0.00997175
0.0119275
0.0137813
0.014547
0.0113973
0.00519019
0.00173578
0.000839219
0.016859
0.00417581
0.00187229
0.000310688
3.34458e-06
1.54253e-07
1.43952e-07
1.26366e-07
1.12901e-07
9.94939e-08
1.10821e-07
9.07079e-08
5.771e-08
7.52262e-07
3.89313e-06
1.31513e-05
3.67175e-05
0.00201694
0.00154583
0.00222578
0.00404937