/*--------------------------------*- C++ -*----------------------------------*\
| =========                 |                                                 |
| \\      /  F ield         | OpenFOAM: The Open Source CFD Toolbox           |
|  \\    /   O peration     | Version:  2.3.0                                 |
|   \\  /    A nd           | Web:      www.OpenFOAM.org                      |
|    \\/     M anipulation  |                                                 |
\*---------------------------------------------------------------------------*/
FoamFile
{
    version     2.0;
    format      ascii;
    class       volScalarField;
    location    "1.22";
    object      p;
}
// * * * * * * * * * * * * * * * * * * * * * * * * * * * * * * * * * * * * * //

dimensions      [1 -1 -2 0 0 0 0];

internalField   nonuniform List<scalar> 
6000
(
107823
107821
107817
107815
107815
107815
107818
107821
107815
107806
107793
107778
107766
107760
107758
107758
107759
107761
107762
107763
107765
107768
107774
107782
107796
107806
107809
107809
107807
107807
107756
107752
107748
107745
107744
107742
107738
107730
107718
107711
107707
107705
107705
107706
107709
107712
107715
107718
107721
107724
107726
107728
107728
107729
107733
107738
107739
107737
107734
107733
107714
107710
107706
107704
107704
107701
107693
107678
107671
107668
107669
107671
107675
107679
107683
107687
107691
107695
107698
107700
107701
107702
107702
107702
107700
107699
107698
107697
107697
107696
107668
107665
107663
107662
107664
107657
107644
107637
107636
107637
107639
107643
107648
107653
107658
107663
107669
107675
107678
107678
107678
107677
107677
107677
107675
107673
107673
107670
107669
107669
107625
107622
107620
107619
107620
107612
107599
107599
107602
107605
107610
107616
107622
107628
107634
107643
107651
107657
107661
107660
107657
107655
107654
107654
107654
107654
107653
107649
107644
107643
107582
107582
107578
107573
107572
107565
107557
107561
107565
107572
107581
107590
107598
107605
107613
107622
107631
107638
107642
107642
107639
107636
107634
107634
107635
107635
107632
107626
107619
107617
107542
107543
107534
107526
107521
107517
107517
107521
107527
107537
107551
107564
107575
107583
107591
107597
107603
107607
107611
107616
107617
107615
107614
107613
107613
107608
107601
107597
107593
107589
107504
107502
107488
107477
107471
107469
107474
107479
107488
107501
107517
107533
107545
107555
107560
107559
107556
107557
107562
107571
107581
107584
107584
107581
107573
107559
107550
107552
107557
107555
107459
107453
107443
107433
107428
107426
107432
107438
107449
107463
107477
107490
107499
107505
107504
107498
107493
107493
107497
107503
107512
107519
107519
107513
107499
107485
107476
107478
107489
107496
107397
107397
107395
107392
107385
107383
107389
107398
107409
107420
107426
107425
107428
107428
107424
107418
107413
107411
107415
107417
107418
107415
107412
107408
107401
107388
107372
107364
107371
107385
107325
107329
107328
107330
107322
107322
107331
107345
107358
107361
107350
107342
107339
107335
107327
107317
107304
107301
107306
107306
107296
107290
107293
107299
107300
107292
107281
107276
107277
107281
107246
107237
107214
107213
107214
107227
107242
107258
107270
107262
107248
107239
107228
107211
107193
107181
107175
107177
107189
107204
107214
107223
107232
107243
107249
107250
107247
107245
107245
107246
107174
107154
107136
107134
107136
107144
107154
107159
107158
107151
107144
107138
107133
107129
107128
107129
107133
107138
107147
107163
107180
107194
107205
107216
107226
107230
107231
107231
107231
107230
107125
107114
107107
107106
107107
107110
107113
107113
107110
107107
107105
107104
107104
107105
107108
107113
107118
107123
107131
107144
107162
107175
107186
107196
107206
107214
107217
107218
107218
107218
107098
107093
107091
107091
107091
107092
107093
107093
107091
107090
107090
107091
107092
107095
107098
107101
107106
107110
107116
107127
107143
107157
107167
107176
107185
107195
107201
107205
107205
107205
107078
107074
107075
107075
107075
107076
107077
107077
107076
107076
107077
107079
107081
107084
107087
107090
107094
107098
107102
107110
107123
107137
107146
107153
107162
107172
107181
107188
107190
107192
107058
107056
107058
107059
107060
107060
107061
107061
107062
107063
107065
107067
107069
107072
107076
107079
107082
107085
107089
107094
107103
107115
107122
107128
107135
107145
107155
107164
107169
107172
107036
107039
107042
107043
107044
107045
107046
107047
107048
107050
107052
107054
107057
107061
107065
107068
107071
107074
107077
107080
107085
107091
107096
107099
107104
107112
107121
107131
107138
107141
107022
107025
107027
107029
107030
107031
107032
107033
107034
107036
107039
107042
107045
107049
107054
107058
107061
107064
107066
107068
107068
107068
107068
107068
107070
107074
107081
107088
107094
107097
107011
107013
107014
107016
107017
107018
107019
107020
107021
107024
107026
107029
107032
107036
107042
107047
107051
107054
107056
107055
107050
107043
107037
107033
107031
107031
107034
107037
107040
107041
107002
107003
107004
107004
107005
107005
107006
107007
107009
107011
107013
107016
107019
107022
107028
107034
107040
107043
107044
107039
107028
107012
107000
106991
106984
106980
106977
106977
106976
106976
106992
106993
106994
106995
106995
106994
106994
106995
106996
106998
107001
107003
107006
107009
107013
107020
107027
107030
107028
107015
106990
106966
106946
106931
106920
106912
106907
106904
106903
106901
106981
106982
106985
106986
106985
106983
106983
106983
106984
106986
106988
106991
106993
106996
107000
107006
107012
107012
106999
106966
106931
106900
106874
106854
106840
106829
106822
106818
106816
106815
106969
106971
106974
106976
106975
106972
106971
106971
106972
106974
106976
106979
106982
106984
106988
106992
106993
106978
106940
106897
106855
106819
106789
106766
106748
106735
106727
106721
106719
106718
106956
106959
106962
106964
106963
106959
106958
106958
106960
106963
106965
106968
106971
106974
106977
106977
106960
106917
106866
106815
106769
106728
106695
106669
106649
106634
106624
106617
106613
106612
106942
106945
106947
106948
106947
106945
106944
106946
106948
106951
106954
106957
106960
106963
106964
106950
106901
106842
106782
106725
106676
106636
106601
106572
106549
106532
106519
106509
106504
106501
106926
106928
106928
106928
106928
106929
106930
106933
106937
106941
106944
106946
106947
106948
106937
106891
106826
106759
106693
106635
106588
106549
106514
106484
106458
106436
106417
106402
106391
106386
106903
106903
106900
106901
106907
106913
106916
106920
106925
106929
106930
106927
106923
106915
106877
106812
106741
106670
106604
106551
106507
106471
106440
106410
106378
106346
106317
106292
106275
106267
106868
106864
106860
106866
106881
106895
106902
106906
106910
106909
106900
106887
106872
106847
106793
106724
106652
106582
106521
106473
106435
106404
106370
106332
106291
106248
106208
106174
106148
106134
106813
106808
106808
106820
106844
106868
106881
106886
106881
106864
106841
106817
106791
106755
106700
106632
106562
106496
106441
106397
106364
106329
106284
106234
106183
106132
106085
106045
106009
105982
106747
106744
106746
106762
106790
106819
106837
106837
106812
106774
106745
106718
106688
106652
106601
106537
106472
106411
106360
106321
106288
106241
106186
106127
106068
106013
105966
105926
105890
105863
106678
106676
106675
106686
106705
106721
106727
106713
106681
106647
106622
106599
106574
106542
106497
106441
106382
106326
106279
106243
106203
106149
106089
106027
105970
105921
105882
105848
105826
105818
106598
106594
106582
106575
106571
106569
106563
106549
106529
106507
106488
106470
106453
106429
106392
106345
106292
106241
106198
106160
106116
106060
106003
105948
105902
105866
105835
105813
105805
105804
106495
106481
106457
106431
106411
106401
106395
106389
106381
106367
106350
106335
106328
106316
106290
106252
106205
106158
106116
106077
106032
105981
105934
105892
105855
105825
105807
105800
105799
105800
106371
106355
106316
106263
106227
106228
106236
106241
106238
106225
106210
106199
106205
106210
106195
106165
106123
106078
106035
105995
105955
105911
105874
105841
105817
105803
105798
105797
105798
105798
106248
106230
106162
106104
106086
106090
106102
106109
106107
106098
106089
106093
106106
106121
106115
106087
106046
106001
105957
105916
105878
105853
105830
105811
105801
105797
105796
105796
105797
105797
106141
106112
106056
106035
106030
106028
106028
106029
106030
106031
106033
106038
106046
106056
106050
106021
105976
105929
105883
105852
105831
105818
105808
105801
105798
105796
105795
105795
105795
105795
106063
106040
106016
106010
106008
106005
106002
106001
106002
106005
106010
106013
106016
106015
105999
105964
105913
105865
105836
105820
105813
105808
105803
105799
105796
105794
105794
105793
105793
105793
106018
106006
105996
105994
105993
105991
105990
105989
105990
105992
105995
105998
105996
105985
105959
105916
105864
105833
105817
105812
105808
105804
105800
105796
105794
105792
105792
105791
105791
105791
105990
105985
105981
105980
105979
105978
105977
105977
105978
105979
105981
105982
105978
105959
105926
105877
105837
105817
105810
105807
105804
105801
105797
105794
105791
105790
105790
105789
105789
105789
105969
105968
105966
105966
105965
105965
105965
105965
105966
105967
105967
105967
105961
105937
105901
105852
105823
105810
105806
105804
105801
105797
105794
105791
105789
105788
105787
105787
105787
105787
105952
105951
105952
105952
105952
105952
105953
105953
105954
105955
105955
105954
105947
105920
105881
105835
105815
105805
105803
105800
105797
105794
105791
105788
105787
105786
105785
105785
105785
105785
105937
105937
105938
105938
105939
105940
105940
105941
105942
105943
105944
105943
105934
105905
105866
105826
105809
105801
105799
105796
105794
105791
105788
105785
105784
105783
105783
105783
105783
105783
105924
105924
105925
105926
105927
105928
105929
105930
105931
105932
105933
105933
105922
105893
105858
105822
105804
105798
105795
105793
105790
105787
105785
105783
105782
105781
105781
105781
105781
105781
105912
105911
105912
105914
105915
105916
105918
105919
105921
105922
105923
105924
105911
105884
105851
105819
105800
105794
105792
105789
105787
105784
105782
105780
105779
105779
105778
105778
105778
105778
105898
105899
105900
105902
105904
105905
105907
105909
105910
105912
105913
105914
105903
105876
105843
105814
105796
105791
105788
105786
105783
105781
105779
105777
105777
105776
105776
105776
105776
105776
105884
105887
105889
105891
105893
105895
105897
105899
105901
105902
105903
105903
105895
105869
105835
105807
105792
105787
105785
105782
105780
105777
105776
105775
105774
105774
105774
105773
105773
105773
105874
105876
105879
105881
105883
105885
105887
105889
105891
105892
105892
105890
105881
105858
105828
105800
105787
105783
105781
105778
105776
105774
105773
105772
105771
105771
105771
105771
105771
105771
105867
105868
105870
105872
105874
105876
105878
105880
105881
105882
105881
105877
105865
105843
105816
105793
105783
105779
105777
105774
105772
105770
105769
105769
105769
105768
105768
105768
105768
105768
105859
105860
105861
105863
105865
105867
105869
105870
105872
105872
105869
105863
105851
105829
105805
105787
105778
105775
105772
105770
105768
105767
105766
105766
105766
105766
105766
105766
105766
105766
105851
105852
105853
105855
105857
105858
105860
105861
105861
105860
105856
105848
105835
105817
105796
105781
105774
105770
105768
105766
105764
105763
105763
105763
105763
105763
105763
105763
105763
105763
105843
105844
105845
105847
105848
105850
105851
105851
105850
105847
105840
105830
105817
105802
105786
105774
105768
105765
105763
105761
105760
105760
105759
105759
105759
105759
105760
105760
105760
105760
105835
105835
105837
105838
105840
105841
105841
105840
105837
105831
105822
105810
105798
105785
105773
105765
105761
105759
105758
105757
105756
105756
105756
105756
105756
105756
105756
105757
105757
105757
105826
105827
105828
105830
105831
105831
105830
105827
105821
105812
105800
105787
105776
105765
105757
105752
105751
105751
105752
105752
105752
105752
105752
105752
105753
105753
105753
105753
105753
105753
105817
105818
105819
105821
105821
105820
105817
105811
105802
105789
105775
105762
105751
105743
105737
105735
105737
105741
105744
105747
105748
105748
105749
105749
105749
105749
105750
105750
105750
105750
105808
105809
105810
105811
105810
105807
105801
105790
105777
105761
105746
105734
105724
105717
105714
105715
105719
105726
105734
105740
105743
105744
105745
105745
105746
105746
105746
105746
105746
105747
105799
105800
105801
105800
105796
105788
105776
105761
105744
105728
105713
105702
105694
105689
105688
105690
105696
105707
105720
105730
105737
105740
105741
105741
105742
105742
105742
105743
105743
105743
105789
105789
105788
105783
105773
105758
105739
105720
105702
105686
105674
105664
105658
105655
105655
105660
105668
105681
105698
105715
105728
105734
105736
105737
105738
105738
105738
105739
105739
105739
105774
105773
105768
105754
105733
105710
105688
105668
105650
105636
105625
105617
105613
105612
105614
105621
105632
105647
105667
105690
105712
105725
105730
105732
105733
105734
105734
105734
105735
105735
105750
105744
105729
105702
105674
105649
105627
105608
105591
105579
105569
105563
105560
105561
105566
105575
105588
105606
105628
105655
105685
105710
105722
105726
105728
105729
105730
105730
105730
105730
105700
105687
105660
105630
105603
105580
105559
105542
105527
105516
105508
105503
105502
105505
105511
105522
105537
105557
105582
105611
105646
105682
105707
105718
105722
105724
105725
105725
105726
105726
105612
105596
105573
105549
105526
105505
105487
105471
105458
105449
105442
105439
105440
105444
105452
105465
105482
105503
105530
105561
105598
105639
105679
105703
105714
105718
105720
105720
105720
105720
105505
105496
105482
105463
105444
105426
105409
105396
105385
105377
105372
105371
105373
105379
105389
105403
105422
105445
105472
105505
105542
105585
105632
105674
105699
105709
105713
105715
105715
105714
105403
105400
105390
105375
105358
105342
105328
105316
105307
105302
105299
105299
105303
105310
105322
105337
105357
105380
105409
105442
105479
105522
105569
105620
105665
105692
105703
105707
105708
105707
105307
105306
105297
105283
105269
105255
105243
105233
105226
105222
105221
105223
105228
105237
105249
105265
105285
105309
105338
105370
105407
105448
105493
105544
105598
105649
105681
105694
105697
105696
105212
105211
105202
105189
105175
105164
105154
105146
105141
105139
105139
105142
105149
105158
105171
105187
105208
105231
105258
105289
105324
105363
105406
105453
105506
105564
105623
105663
105677
105678
105116
105112
105102
105090
105079
105070
105062
105056
105053
105052
105053
105058
105065
105075
105088
105104
105124
105147
105173
105202
105235
105271
105310
105353
105399
105451
105511
105581
105629
105640
105014
105009
105000
104990
104981
104973
104968
104964
104962
104962
104964
104969
104976
104987
105000
105016
105035
105057
105082
105110
105141
105174
105209
105246
105285
105325
105369
105439
105512
105549
104909
104903
104896
104888
104881
104875
104871
104868
104867
104868
104871
104876
104884
104894
104907
104923
104942
104964
104988
105015
105044
105075
105106
105138
105168
105198
105224
105269
105334
105380
104802
104797
104791
104785
104780
104776
104773
104771
104770
104772
104775
104780
104788
104798
104811
104827
104845
104867
104891
104917
104945
104974
105003
105031
105056
105077
105092
105114
105151
105185
104694
104691
104686
104682
104678
104675
104672
104671
104670
104672
104675
104680
104688
104698
104711
104727
104745
104767
104791
104818
104846
104874
104902
104927
104949
104964
104973
104976
104986
105009
104588
104585
104582
104579
104575
104572
104569
104568
104568
104569
104572
104577
104584
104594
104607
104623
104642
104665
104690
104716
104745
104773
104800
104825
104844
104856
104863
104857
104846
104856
104482
104481
104478
104475
104471
104468
104465
104463
104462
104463
104466
104471
104479
104489
104502
104517
104537
104560
104586
104614
104643
104672
104699
104724
104742
104751
104757
104751
104733
104728
104379
104377
104375
104371
104367
104362
104358
104355
104354
104355
104359
104365
104374
104385
104398
104414
104432
104454
104481
104510
104540
104570
104599
104624
104643
104650
104651
104650
104633
104618
104276
104275
104271
104267
104261
104255
104249
104246
104244
104247
104253
104262
104275
104290
104305
104319
104335
104354
104379
104409
104440
104471
104500
104527
104548
104555
104550
104547
104539
104530
104176
104173
104169
104162
104154
104146
104139
104133
104132
104136
104145
104160
104179
104199
104219
104236
104248
104263
104283
104311
104342
104374
104404
104433
104458
104472
104468
104459
104461
104460
104076
104073
104067
104058
104048
104036
104025
104017
104014
104019
104032
104052
104077
104104
104131
104154
104167
104179
104195
104218
104248
104279
104311
104342
104371
104395
104403
104397
104398
104398
103979
103975
103967
103956
103941
103925
103908
103894
103885
103889
103906
103931
103961
103995
104030
104062
104084
104095
104110
104130
104158
104188
104220
104253
104285
104317
104340
104344
104341
104338
103885
103880
103870
103855
103836
103813
103787
103760
103741
103746
103769
103801
103837
103878
103921
103962
103994
104010
104025
104044
104070
104100
104131
104164
104197
104232
104266
104285
104285
104279
103794
103789
103777
103759
103734
103701
103661
103618
103590
103598
103633
103674
103716
103761
103810
103858
103900
103924
103939
103959
103984
104013
104044
104076
104109
104143
104177
104208
104221
104218
103709
103703
103689
103667
103637
103595
103547
103506
103492
103497
103522
103565
103609
103654
103704
103757
103805
103836
103854
103875
103899
103928
103958
103990
104021
104053
104084
104113
104138
104147
103630
103623
103608
103583
103549
103507
103465
103448
103448
103451
103457
103480
103519
103561
103608
103659
103711
103748
103768
103791
103816
103844
103874
103904
103934
103963
103990
104015
104037
104053
103557
103549
103533
103509
103479
103441
103420
103419
103422
103423
103423
103428
103447
103479
103521
103568
103619
103661
103685
103708
103734
103762
103790
103820
103848
103875
103899
103918
103934
103944
103489
103481
103468
103450
103422
103400
103395
103397
103398
103399
103399
103397
103400
103414
103439
103480
103528
103574
103603
103628
103654
103681
103709
103737
103764
103789
103811
103827
103836
103842
103427
103423
103415
103402
103386
103376
103377
103377
103377
103376
103375
103374
103371
103372
103379
103400
103439
103488
103523
103549
103576
103604
103631
103657
103681
103704
103724
103739
103746
103748
103374
103373
103372
103368
103362
103361
103361
103360
103358
103356
103354
103351
103349
103346
103344
103348
103365
103402
103443
103474
103502
103530
103556
103580
103602
103622
103640
103653
103661
103661
103324
103328
103334
103338
103343
103348
103348
103345
103341
103337
103334
103331
103328
103325
103322
103320
103322
103335
103368
103403
103433
103460
103485
103507
103526
103543
103558
103570
103578
103579
103279
103284
103294
103308
103322
103331
103334
103331
103326
103321
103316
103312
103308
103305
103302
103299
103297
103297
103311
103341
103370
103396
103418
103437
103454
103467
103479
103488
103495
103499
103233
103241
103254
103271
103290
103304
103313
103315
103311
103305
103299
103294
103290
103286
103282
103279
103276
103273
103273
103290
103316
103338
103357
103372
103385
103395
103402
103409
103414
103418
103185
103193
103206
103222
103240
103259
103277
103289
103293
103290
103284
103278
103273
103269
103264
103260
103256
103253
103250
103252
103268
103287
103300
103310
103318
103325
103329
103332
103335
103338
103130
103136
103147
103160
103178
103199
103223
103248
103265
103271
103268
103263
103258
103253
103248
103243
103238
103234
103230
103227
103235
103244
103249
103252
103254
103256
103257
103258
103258
103259
103066
103071
103079
103092
103108
103130
103156
103187
103218
103241
103248
103247
103243
103238
103233
103227
103222
103217
103212
103210
103210
103210
103203
103196
103190
103187
103185
103184
103183
103181
102994
102998
103005
103016
103030
103050
103075
103106
103144
103184
103213
103225
103226
103223
103219
103213
103207
103201
103196
103194
103189
103179
103157
103138
103124
103115
103111
103108
103106
103104
102918
102920
102924
102930
102940
102955
102978
103008
103046
103091
103139
103177
103194
103198
103198
103194
103190
103184
103180
103176
103166
103141
103106
103077
103055
103040
103031
103028
103027
103025
102836
102834
102832
102831
102836
102847
102867
102896
102933
102976
103026
103077
103120
103145
103157
103162
103163
103160
103156
103149
103128
103086
103043
103008
102981
102961
102948
102943
102942
102943
102746
102740
102732
102724
102723
102730
102749
102778
102813
102855
102902
102952
102999
103039
103070
103094
103108
103113
103109
103092
103055
103009
102968
102933
102904
102882
102866
102856
102852
102854
102649
102641
102628
102617
102616
102623
102638
102664
102697
102736
102780
102827
102872
102913
102949
102980
103004
103018
103014
102988
102951
102914
102882
102853
102826
102802
102783
102770
102763
102761
102552
102542
102531
102531
102535
102541
102550
102568
102596
102630
102669
102711
102752
102790
102822
102850
102872
102884
102881
102862
102836
102810
102786
102764
102743
102722
102702
102686
102676
102670
102464
102456
102454
102460
102468
102474
102481
102492
102513
102540
102573
102608
102642
102673
102700
102723
102739
102748
102747
102736
102718
102699
102681
102666
102651
102637
102619
102603
102590
102586
102391
102389
102392
102398
102404
102409
102416
102425
102440
102461
102486
102513
102539
102563
102584
102600
102613
102619
102619
102612
102601
102587
102573
102561
102551
102542
102532
102519
102506
102500
102332
102334
102336
102338
102342
102346
102352
102360
102372
102387
102405
102423
102440
102457
102471
102483
102491
102496
102496
102491
102483
102473
102462
102453
102446
102441
102436
102430
102420
102411
102281
102285
102284
102281
102281
102283
102288
102295
102304
102314
102324
102333
102342
102351
102360
102368
102373
102375
102375
102372
102366
102359
102351
102344
102338
102335
102333
102331
102328
102320
102227
102239
102234
102224
102220
102220
102223
102229
102234
102236
102236
102238
102241
102246
102250
102254
102257
102258
102257
102254
102250
102245
102239
102234
102230
102227
102227
102227
102228
102226
102158
102176
102178
102164
102158
102156
102159
102160
102153
102145
102139
102137
102136
102137
102139
102141
102142
102142
102141
102138
102135
102130
102126
102122
102120
102118
102118
102120
102122
102125
102069
102086
102101
102097
102092
102091
102088
102071
102052
102040
102032
102027
102026
102026
102027
102028
102028
102028
102026
102024
102020
102017
102013
102011
102009
102008
102009
102010
102013
102016
101964
101977
101999
102013
102015
102004
101979
101953
101934
101922
101915
101912
101911
101912
101913
101914
101915
101915
101913
101910
101907
101903
101900
101898
101898
101898
101899
101900
101902
101904
101843
101854
101880
101897
101888
101864
101838
101817
101803
101796
101793
101792
101793
101795
101797
101800
101802
101802
101801
101799
101795
101791
101788
101786
101786
101787
101788
101789
101791
101792
101712
101727
101741
101740
101726
101704
101683
101671
101667
101667
101669
101670
101672
101675
101680
101685
101689
101691
101691
101689
101685
101681
101677
101675
101674
101675
101677
101678
101679
101680
101583
101593
101590
101577
101556
101534
101521
101523
101531
101539
101545
101549
101550
101555
101562
101570
101576
101580
101582
101581
101578
101574
101569
101566
101563
101563
101565
101567
101568
101568
101453
101448
101434
101410
101381
101361
101364
101382
101401
101417
101428
101432
101431
101436
101444
101455
101465
101471
101474
101475
101473
101469
101464
101460
101456
101453
101454
101456
101456
101457
101309
101296
101274
101240
101207
101204
101226
101256
101283
101305
101319
101325
101324
101328
101337
101346
101356
101364
101368
101370
101369
101366
101361
101356
101351
101346
101343
101344
101345
101345
101157
101143
101113
101072
101062
101081
101113
101147
101179
101203
101220
101230
101235
101243
101249
101252
101253
101258
101263
101265
101266
101263
101258
101253
101248
101241
101234
101233
101233
101233
101013
100995
100960
100945
100959
100987
101020
101053
101084
101108
101129
101145
101159
101173
101175
101165
101156
101156
101159
101160
101162
101160
101155
101149
101144
101138
101129
101124
101121
101120
100883
100859
100845
100856
100880
100907
100937
100967
100993
101017
101039
101060
101082
101094
101089
101078
101063
101055
101054
101056
101056
101055
101050
101042
101038
101033
101025
101016
101009
101005
100771
100759
100764
100787
100809
100834
100861
100884
100906
100926
100948
100971
100994
100996
100992
100985
100972
100958
100951
100950
100949
100948
100943
100934
100929
100924
100919
100907
100895
100886
100687
100690
100704
100723
100745
100767
100785
100802
100817
100833
100854
100875
100891
100892
100890
100885
100878
100858
100848
100843
100842
100839
100834
100823
100815
100809
100804
100793
100777
100759
100625
100636
100649
100665
100685
100698
100707
100716
100726
100739
100757
100777
100783
100782
100778
100774
100768
100756
100744
100736
100734
100729
100723
100710
100698
100688
100682
100674
100655
100631
100575
100584
100596
100610
100620
100620
100623
100627
100632
100642
100656
100670
100669
100661
100651
100649
100650
100648
100637
100629
100626
100621
100612
100596
100577
100561
100555
100551
100536
100511
100526
100529
100539
100548
100539
100535
100536
100537
100538
100543
100550
100553
100544
100525
100498
100504
100519
100528
100525
100522
100521
100516
100505
100484
100457
100434
100422
100423
100412
100410
100453
100457
100466
100454
100445
100445
100447
100447
100445
100441
100439
100432
100417
100393
100372
100367
100383
100400
100409
100416
100422
100422
100408
100378
100339
100314
100297
100293
100301
100318
100315
100332
100345
100343
100349
100356
100364
100360
100352
100339
100325
100311
100307
100301
100289
100272
100269
100269
100295
100317
100334
100344
100331
100296
100267
100253
100247
100247
100249
100256
100218
100219
100231
100244
100258
100265
100290
100280
100261
100240
100212
100201
100214
100231
100225
100206
100183
100173
100194
100229
100262
100284
100272
100248
100237
100233
100232
100231
100231
100232
100185
100183
100184
100188
100196
100214
100229
100205
100176
100161
100143
100139
100144
100156
100161
100150
100137
100133
100139
100164
100207
100245
100242
100230
100227
100226
100224
100224
100223
100222
100170
100168
100167
100167
100170
100176
100180
100172
100142
100122
100117
100117
100116
100117
100119
100119
100119
100121
100121
100132
100167
100212
100225
100219
100219
100218
100217
100216
100216
100216
100157
100156
100156
100156
100157
100155
100147
100134
100118
100111
100110
100110
100108
100106
100106
100108
100112
100115
100116
100122
100144
100180
100199
100205
100208
100209
100209
100209
100209
100209
100145
100144
100144
100144
100143
100139
100128
100115
100107
100106
100106
100105
100104
100103
100103
100104
100107
100109
100111
100115
100130
100158
100180
100191
100197
100200
100201
100202
100202
100203
100133
100132
100132
100131
100130
100124
100113
100103
100100
100100
100100
100100
100100
100099
100100
100101
100102
100103
100104
100107
100118
100142
100165
100178
100185
100189
100192
100194
100195
100196
100122
100121
100120
100120
100118
100111
100100
100094
100093
100094
100094
100094
100094
100095
100095
100096
100097
100097
100098
100098
100106
100127
100150
100165
100173
100178
100182
100185
100187
100189
100112
100111
100110
100109
100107
100100
100090
100086
100087
100088
100088
100088
100089
100089
100090
100090
100091
100091
100091
100091
100095
100112
100136
100152
100160
100166
100171
100175
100178
100181
100103
100102
100101
100100
100097
100089
100081
100080
100081
100082
100082
100082
100082
100083
100083
100084
100084
100084
100084
100083
100084
100097
100119
100136
100146
100153
100159
100165
100169
100173
100094
100093
100093
100091
100087
100079
100072
100073
100074
100075
100075
100075
100076
100076
100076
100077
100077
100077
100076
100075
100073
100081
100101
100119
100129
100137
100144
100151
100158
100165
100086
100085
100085
100083
100078
100069
100065
100066
100067
100068
100068
100069
100069
100069
100069
100069
100069
100069
100068
100067
100064
100065
100081
100099
100110
100117
100125
100134
100145
100147
100078
100077
100077
100075
100068
100060
100058
100059
100060
100061
100061
100062
100062
100062
100062
100062
100062
100061
100060
100058
100055
100053
100059
100077
100089
100095
100102
100113
100122
100126
100071
100071
100070
100066
100058
100051
100052
100052
100053
100053
100054
100054
100055
100055
100055
100055
100054
100053
100051
100050
100047
100044
100043
100055
100067
100072
100078
100089
100100
100098
100064
100064
100063
100058
100049
100044
100045
100045
100045
100046
100047
100047
100048
100048
100048
100047
100046
100045
100044
100042
100039
100037
100035
100037
100047
100051
100057
100070
100083
100077
100057
100057
100055
100048
100040
100037
100038
100038
100038
100038
100039
100040
100040
100040
100040
100040
100039
100038
100036
100034
100033
100031
100029
100027
100031
100036
100041
100056
100069
100061
100048
100048
100045
100039
100032
100031
100031
100031
100031
100031
100032
100032
100033
100033
100033
100032
100032
100030
100029
100027
100027
100026
100024
100022
100022
100027
100030
100040
100049
100044
100036
100037
100034
100030
100024
100024
100024
100024
100024
100024
100024
100025
100026
100026
100026
100025
100024
100023
100022
100021
100021
100021
100020
100019
100018
100018
100025
100030
100034
100029
100023
100025
100023
100020
100018
100018
100019
100018
100018
100018
100018
100018
100018
100019
100019
100018
100018
100017
100016
100016
100017
100017
100016