/*--------------------------------*- C++ -*----------------------------------*\
| =========                 |                                                 |
| \\      /  F ield         | OpenFOAM: The Open Source CFD Toolbox           |
|  \\    /   O peration     | Version:  2.3.0                                 |
|   \\  /    A nd           | Web:      www.OpenFOAM.org                      |
|    \\/     M anipulation  |                                                 |
\*---------------------------------------------------------------------------*/
FoamFile
{
    version     2.0;
    format      ascii;
    class       volScalarField;
    location    "1.22";
    object      rho;
}
// * * * * * * * * * * * * * * * * * * * * * * * * * * * * * * * * * * * * * //

dimensions      [1 -3 0 0 0 0 0];

internalField   nonuniform List<scalar> 
6000
(
1124.38
1124.38
1123.53
1116.1
1114.59
1114.12
1113.64
1113.16
1112.66
1112.16
1111.66
1111.15
1081.01
1027.53
984.474
932.41
883.917
880.33
879.446
879.442
815.088
756.041
886.712
1027.11
1027.13
1027.13
1027.13
1027.13
1027.12
1027.12
982.786
953.505
934.123
922.016
922.305
923.826
976.409
1059.95
1014.07
994.746
959.588
882.893
800.753
756.535
757.437
753.782
757.424
753.89
757.123
755.907
756.888
751.762
756.893
761.302
946.784
1021.8
1007.57
988.246
920.671
955.215
1042.93
981.43
917.496
917.511
937.716
972.451
984.248
968.208
798.824
787.612
780.937
757.609
754.826
757.425
753.768
757.417
753.882
756.919
754.853
756.891
752.633
756.885
751.76
756.885
790.708
905.715
875.304
841.937
756.425
779.513
1042.98
950.308
917.51
921.631
1012.12
1009.17
984.8
794.412
758.504
754.827
758.055
755.337
757.598
754.074
757.417
753.907
757.417
755.932
756.918
755.777
756.885
752.16
756.885
752.06
756.919
767.212
764.188
756.723
756.786
756.632
1043.01
941.515
917.495
926.148
1138.74
1088.56
896.339
758.506
752.854
758.504
756.315
758.055
755.791
757.598
754.886
757.417
780.557
823.132
832.769
781.249
755.518
756.885
753.642
756.919
756.187
774.901
820.854
758.622
756.632
756.843
1043.05
934.591
919.315
915.952
1155.48
1137.86
784.321
753.619
758.505
754.723
758.503
757.688
758.055
756.816
757.598
832.019
956.403
1035.53
1048.07
920.32
781.296
755.777
756.919
756.233
780.14
918.327
1008.93
861.783
757.319
756.842
1016.46
1022.25
942.024
918.882
1154.6
1136.96
756.131
758.914
753.007
758.504
783.435
821.43
823.697
824.459
873.887
1042.56
1191.61
1243.08
1249.03
1149.59
947.807
835.44
817.9
854.723
986.29
1161.77
1215.07
1063.05
820.629
765.848
1064.27
1209.71
987.842
917.488
1085.71
1043.02
759.302
753.658
758.913
757.202
872.781
985.331
1013.8
1037.17
1118.55
1250.98
1307.68
1309.45
1309.14
1301.02
1192.1
1076.83
1050.97
1113.57
1242.03
1306.65
1308.73
1241.75
1037.56
884.254
1211.5
1283.71
1086.19
919.361
1035.04
936.397
758.058
759.3
756.981
794.425
1025.08
1185.59
1226.64
1261.15
1302.38
1309.14
1310.21
1309.15
1311.05
1309.15
1309.55
1297.96
1292.44
1309.09
1310.18
1309.09
1310.94
1309.07
1267.11
1109.82
1283.3
1285.48
1257.28
1028.74
1098.48
964.843
802.847
790.262
810.289
927.826
1198.99
1303.32
1309.13
1310.08
1309.15
1312.19
1309.15
1314.36
1309.15
1313.49
1309.15
1311.59
1309.12
1311.31
1309.1
1311.63
1309.05
1311.59
1298.12
1256.04
1284.71
1284.3
1285.9
1272.1
1259.99
1072.88
921.868
930.307
1001.39
1141.54
1303.77
1309.14
1311.75
1309.15
1315.43
1309.14
1315.71
1309.12
1315.72
1309.12
1315.42
1255.42
1211.69
1200.3
1216.69
1180.12
1056.17
964.082
951.844
984.608
1284.85
1285.95
1284.23
1281.19
1259.46
1098.22
986.138
1073.03
1234.95
1301.79
1309.09
1314.12
1309.08
1315.45
1309.02
1270.88
1171.69
1144.46
1177.45
1123.92
960.911
824.47
817.226
870.724
897.948
834.272
664.034
559.648
547.325
568.679
1275.69
1135.45
830.233
845.515
850.114
817.904
808.404
941.128
1117.97
1157.42
1150.26
1110.24
1034.54
907.151
767.442
641.845
558.515
541.691
623.243
681.004
661.584
660.159
690.852
828.526
902.166
828.823
646.892
542.125
542.124
542.125
1263.6
876.635
457.036
426.414
428.595
436.003
465.799
528.559
595.361
588.591
550.218
500.292
455.281
431.714
422.972
420.84
423.017
419.597
488.707
649.345
704.785
697.441
763.511
910.076
981.564
904.161
726.536
575.299
542.126
542.125
1282.13
840.113
421.301
422.801
416.359
422.694
412.16
422.588
412.185
422.589
415.526
422.693
416.505
422.799
420.132
422.905
419.741
423.017
479.321
696.285
819.994
813.865
874.474
996.321
1045.15
984.395
842.233
680.655
579.305
565.52
1282.13
758.214
422.802
417.672
422.694
415.338
422.587
411.735
422.425
413.226
422.586
415.898
422.692
419.873
422.799
421.206
422.905
420.204
472.475
721.536
918.07
940.969
983.461
1060.6
1092.01
1055.41
953.572
820.568
711.628
685.59
1282.09
641.672
420.149
422.799
416.803
422.692
413.178
422.586
411.946
422.586
415.366
422.692
416.916
422.799
422.304
422.905
421.391
423.017
470.26
726.691
982.8
1043.86
1075.84
1116.57
1132.75
1116.78
1057.86
966.761
889.619
871.12
1056.05
535.785
422.905
418.054
422.799
416.698
422.692
412.245
422.586
414.01
422.692
416.469
422.799
427.1
441.758
422.918
423.016
422.515
494.804
749.591
1022.96
1119.07
1144.28
1159.48
1166.03
1163.7
1142.98
1097.16
1056.41
1055
639.376
446.089
419.54
422.905
418.163
422.799
414.481
422.692
413.131
422.692
416.282
422.799
417.661
461.321
500.183
458.527
427.496
440.81
563.416
809.577
1059.45
1164.06
1185.64
1192
1197.67
1203.83
1205.84
1195.16
1180.95
1193
470.2
422.005
423.016
419.943
422.905
418.894
422.799
413.782
422.692
415.62
422.799
417.207
422.905
488.009
569.638
529.19
478.561
509.395
666.794
906.638
1120.93
1214.23
1234.89
1242.84
1250.04
1256.87
1262.76
1263.69
1259.53
1270.96
424.798
423.132
422.239
423.016
421.291
422.905
415.89
422.799
415.224
422.799
417.559
422.905
418.571
493.134
606.62
602.83
574.374
630.691
815.33
1070.53
1238.81
1295.18
1315.27
1324.98
1329.29
1329.78
1327.35
1321.18
1314.12
1316.02
425.197
435.001
427.618
422.904
423.016
421.698
422.905
415.962
422.799
417.445
422.905
418.612
423.016
479.857
605.647
658.729
692.61
815.601
1057.52
1271.54
1344.85
1368.2
1379.13
1384
1384.75
1382.52
1377.58
1369.83
1359.51
1354.14
425.228
466.049
484.609
479.575
445.312
423.016
417.503
422.905
417.415
422.905
419.034
423.016
420.733
464.317
588.333
701.004
852.872
1094.44
1300.05
1371.16
1396.33
1407.02
1411.7
1413.38
1413.2
1411.62
1408.01
1402.51
1395.08
1388.13
425.507
506.557
591.616
619.277
531.847
423.749
423.016
418.005
422.904
419.219
423.016
420.74
423.132
458.514
579.235
797.128
1106.97
1319.04
1386.35
1410.15
1420.17
1424.18
1424.31
1424.37
1424.42
1424.45
1423.05
1420.39
1416.92
1413.01
426.11
554.134
731.289
826.991
679.246
448.852
418.715
423.016
419.346
423.016
421.171
423.132
424.53
482.446
669.177
1027.81
1311.8
1391.28
1415.69
1423.27
1423.37
1423.39
1422
1423.05
1424.01
1424.48
1425.5
1425.69
1425.71
1424.92
436.41
640.774
910.956
1036.34
837.378
485.512
423.132
420.05
423.016
421.804
423.132
446.516
489.265
610.392
925.962
1277.18
1386.14
1415.8
1423.06
1422.94
1400.27
1380.12
1380.68
1391.37
1400.94
1407.84
1415.11
1421.72
1425.77
1427.19
494.807
786.761
1095.11
1174.99
922.931
514.098
421.267
423.132
422.004
457.654
517.238
583.125
663.339
883.719
1225.47
1372.04
1411.81
1421.24
1421.11
1386.25
1336.29
1334.45
1336.05
1335.62
1346.59
1370.99
1392.93
1410.88
1423.22
1427.19
628.929
970.321
1210.65
1205.44
914.083
551.865
423.252
425.087
489.671
643.337
758.382
814.901
904.549
1164.79
1348.84
1403.05
1420.24
1420.93
1398.1
1336.28
1334.35
1335.96
1335.34
1336.8
1354.25
1375.99
1395.41
1412.75
1425.81
1427.22
805.916
1095.31
1211.38
1171.01
916.897
639.164
500.866
531.046
707.004
943.601
1025.26
1034.47
1101.11
1292.17
1384.62
1414.75
1420.3
1413.2
1372.04
1334.44
1335.97
1344.47
1368.28
1385.49
1397.79
1406.31
1414
1421.87
1426.92
1427.06
926.144
1120.87
1210.63
1123.33
962.675
828.692
751.739
817.632
1022.36
1196.28
1225.12
1197.33
1217.69
1318.05
1396.15
1420.32
1420.07
1405.75
1363.74
1336.01
1342.55
1377.2
1401.66
1409.17
1409.48
1409.72
1409.96
1409.48
1404.01
1407.99
967.064
1109.82
1163.97
1130.96
1098.77
1107.01
1114.43
1175.19
1266.29
1313.61
1327.99
1301.19
1275.59
1330.44
1401.64
1421.19
1419.65
1402.98
1365.61
1335.94
1367.49
1399.3
1404.03
1404.23
1395.96
1373.65
1348.39
1335.66
1286.66
1193.99
1013.02
1145.15
1213.25
1237.99
1278.73
1312.77
1332.5
1348.5
1345.99
1327.06
1353.51
1353.23
1319.73
1346.41
1403.67
1421.26
1419.93
1403.04
1368.51
1350.6
1384.05
1398.26
1392.79
1372.98
1334.32
1259.69
1203.19
1176.15
992.621
653.632
1108.2
1265.77
1318.54
1346.42
1361.49
1362.05
1362.19
1361.99
1349.86
1327.1
1351.34
1371.19
1359.82
1369.04
1405.01
1421.43
1419.75
1403.34
1372.23
1365.6
1383.83
1384.1
1364.52
1317.9
1247.6
1218.87
1199.01
963.27
454.488
180.258
1222.87
1343.52
1362.03
1362.65
1362.12
1362.66
1360.72
1358.54
1354.63
1330.7
1332.8
1371.25
1384.44
1394.24
1411.81
1421.47
1419.06
1403.16
1375.62
1369.74
1375.96
1365.54
1338.58
1294.41
1284.9
1238.81
906.72
362.976
102.69
54.5366
1272.62
1361.89
1362.68
1361.93
1362.38
1361.8
1349.31
1347.52
1351.69
1347.8
1350.55
1350.85
1375.61
1409.4
1421.25
1421.75
1419.02
1402.23
1377.26
1371.14
1364.67
1343.63
1339.52
1338.3
1167.86
659.49
216.712
72.4825
47.9976
43.4742
1270.73
1362.56
1361.5
1214.94
1058.45
1205.21
1309.36
1342.49
1345.78
1275.71
1127.28
1139.83
1274.85
1403.42
1421.81
1421.62
1420.74
1399.51
1375.17
1362.27
1363.51
1308.05
1151.99
785.306
346.559
125.566
63.0904
48.9185
45.7364
43.4601
1239.78
1361.11
1079.52
645.772
525.803
653.679
822.018
906.831
900.569
730.912
607.712
725.062
1080.51
1379.42
1421.32
1422.42
1421.38
1393.45
1362.01
1235.02
899.596
608.561
388.819
227.594
137.434
85.2846
58.3045
48.5863
45.4841
43.4349
1206.27
1128.62
639.21
380.304
365.268
384.388
405.844
427.023
425.968
392.229
447.835
596.926
1046.85
1380.35
1422.1
1421.65
1421.75
1366.72
1081.76
546.101
306.861
251.902
227.527
192.927
137.713
85.961
57.6257
48.0874
45.1565
43.4277
1220.81
1054.94
509.098
356.998
358.877
365.355
357.733
358.611
359.469
362.047
466.775
689.609
1144.63
1392.67
1421.4
1422.49
1385.27
1125.05
479.279
256.008
244.702
244.599
235.242
197.77
136.861
84.3728
57.0885
47.8317
44.9266
43.4271
1226.2
1071.7
477.673
355.518
358.357
363.76
357.432
360.29
359.532
361.623
498.432
792.725
1227.26
1406.68
1422.36
1420.38
1289.01
660.226
273.377
246.507
248.965
252.802
241.602
199.294
134.961
82.7069
56.7313
47.7389
44.8086
43.4271
1213.26
1048.97
464.79
353.657
357.487
360.628
357.132
360.131
359.227
362.746
520.318
858.305
1271.23
1415.96
1421.09
1392.2
1093.78
432.58
248.455
246.523
256.139
261.652
247.301
199.644
133.032
82.1258
56.9013
47.8146
44.7579
43.3968
1195.37
941.614
455.627
352.826
357.034
357.121
356.831
358.338
357.923
366.991
531.88
918.29
1309.34
1420.34
1421.67
1375.36
896.833
341.146
248.3
255.601
267.022
270.404
252.276
199.105
131.257
82.1986
57.7239
48.2083
44.7787
43.3902
1181.4
819.845
441.469
352.735
356.675
354.359
356.325
357.277
357.586
374.21
542.053
996.409
1340.29
1420.4
1420.5
1354.43
773.122
317.227
262.821
270.898
279.407
280.695
257.262
198.074
130.48
83.4212
59.4473
49.054
44.9205
43.4892
1183.31
727.528
418.752
352.383
354.847
353.081
354.261
356.004
358.332
386.671
559.82
1064.46
1357.41
1418.99
1410.62
1340.26
716.535
320.287
282.401
288.137
293.49
291.522
260.861
196.099
130.353
86.1338
61.9826
50.4145
45.4055
43.5425
1239.77
660.532
394.314
352.013
352.458
352.735
353.445
355.141
360.857
405.907
586.299
1094.91
1365.54
1407.17
1397.09
1310.77
671.662
331.566
303.336
306.491
309.542
302.517
262.232
193.943
131.579
90.1635
65.2815
52.3873
46.4193
43.5425
1245.41
594.603
373.145
351.563
352.013
352.37
353.26
355.824
369.827
436.619
619.197
1085.38
1368.54
1391.07
1382.3
1254.01
631.537
353.944
328.036
327.75
327.814
312.855
262.878
193.23
134.822
95.3101
69.4516
55.005
47.9731
43.5526
890.902
495.353
358.733
351.164
351.603
352.016
352.735
360.201
392.291
484.035
663.645
1059.95
1350.81
1365.89
1372.3
1180.3
602.813
389.181
358.736
352.15
345.681
320.672
263.021
194.389
139.877
101.436
74.5106
58.2473
50.0095
43.627
547.754
405.88
351.912
350.973
351.164
351.649
354.599
375.05
434.428
548.77
731.399
1054.74
1304.66
1331.09
1358.22
1099.17
597.689
435.521
396.062
380.163
363.403
327.203
264.135
197.897
146.406
108.545
80.5665
62.2036
52.5728
43.8862
414.37
366.042
350.244
350.608
350.973
351.589
364.119
407.84
496.365
628.868
807.816
1074.73
1279.21
1313.86
1313.81
1050.92
641.265
492.444
440.977
412.007
381.301
332.926
266.688
203.42
153.953
116.53
87.7201
67.1547
55.7722
44.8784
357.982
351.592
349.839
350.262
350.642
358.179
389.632
461.297
573.735
719.474
892.522
1098.68
1261.26
1311.35
1287.26
1038.81
713.122
561.873
493.837
448.045
399.082
338.013
270.59
210.302
162.358
125.172
95.8396
73.2961
59.7145
47.043
348.347
349.215
349.431
351.173
358.954
381.231
436.345
532.017
661.673
816.005
980.389
1127.75
1234.64
1296.11
1263.05
1058.2
804.3
644.585
555.709
488.718
417.868
343.821
275.633
218.022
171.173
134.249
104.717
80.5031
64.3951
50.5232
348.601
349.808
353.376
364.144
386.761
427.988
502.863
614.694
755.38
912.686
1056.61
1151.12
1216.56
1267.46
1235.16
1107.79
904.638
739.169
627.741
534.136
439.666
352.516
282.472
226.419
180.126
143.534
114.015
88.4773
69.802
55.1056
348.601
349.931
363.672
397.319
440.197
497.952
585.285
705.751
851.784
1002.33
1114.93
1165.88
1201.84
1244.71
1217.71
1154
1005.21
844.653
710.906
587.8
468.178
366.861
292.484
235.704
189.391
153.041
123.433
96.8937
75.973
60.5075
348.601
350.211
383.876
448.736
515.379
587.782
682.899
806.097
947.814
1076.43
1151.86
1173.9
1192.61
1221.89
1206.74
1188.61
1098.81
959.558
809.491
656.608
511.276
391.886
307.8
246.959
199.6
162.914
132.933
105.587
83.0018
66.6176
348.694
355.796
417.28
516.069
610.265
700.26
802.545
922.193
1043.22
1132.9
1172.56
1180.17
1189.55
1207.17
1206.73
1206.59
1171.48
1074.91
928.367
752.982
580.167
435.533
333.294
263.155
212.042
173.716
142.934
114.627
90.9314
73.4945
349.56
381.783
478.736
610.803
736.067
849.492
958.607
1061.4
1142.52
1187.22
1201.32
1203.12
1206.87
1215.54
1219.25
1225.39
1220.7
1176.12
1063.34
885.254
685.715
508.845
377.701
289.599
229.225
186.512
153.972
124.36
99.6367
81.2705
354.281
453.322
592.415
758.163
912.648
1041.94
1138.37
1202.63
1238.17
1252.63
1256.49
1258
1259.89
1261.67
1265.22
1267.54
1267.59
1254.37
1198.04
1051.01
835.285
621.08
450.529
334.08
256.267
203.611
166.736
135.038
108.627
90.2077
412.215
586.857
778.734
968.599
1125.07
1220.44
1267.88
1291.99
1304.42
1310.61
1314.07
1316.54
1318.23
1318.76
1318.96
1317.19
1313.31
1305.39
1285.86
1214.2
1027.1
778.862
558.854
403.044
299.433
229.598
182.933
146.792
117.532
100.799
571.953
786.07
1022.48
1191.57
1274.37
1307.88
1323.9
1333.63
1340.2
1344.89
1348.38
1350.86
1352.36
1352.75
1351.81
1349.11
1344.28
1336.71
1325.27
1300.87
1207
976.546
709.481
500.297
361.861
268.748
205.613
160.274
126.685
113.69
827.977
1036.11
1235.1
1308.37
1330.16
1340.98
1348.28
1353.78
1358.1
1361.48
1363.98
1365.6
1366.32
1366.06
1364.63
1361.89
1357.58
1351.34
1342.64
1330.28
1298.09
1163.17
894.781
630.234
445.354
322.888
238.044
177.938
137.565
129.147
1098.02
1238
1323.24
1343.88
1351.71
1357.18
1361.63
1365.28
1368.16
1370.27
1371.57
1372.07
1371.72
1370.48
1368.28
1365.06
1360.75
1355.18
1347.99
1338.68
1325.23
1273.3
1081.25
797.864
559.894
398.062
285.02
204.097
152.74
147.744
1263.13
1310.55
1341.48
1356.04
1363.26
1367.68
1371.01
1373.61
1375.48
1376.59
1376.93
1376.51
1375.29
1373.22
1370.3
1366.48
1361.75
1356.06
1349.26
1341.01
1330.91
1312.99
1229.4
1004.83
735.803
520.289
363.489
251.291
177.278
169.605
1299.75
1314.73
1345.25
1363.38
1372.01
1376.33
1378.98
1380.79
1381.9
1382.32
1382.05
1381.11
1379.46
1377.08
1373.94
1370.05
1365.4
1360.03
1353.93
1346.94
1338.87
1329.21
1304.6
1206
989.484
733.261
511.003
342.948
224.241
199.278
1302.24
1316.19
1351.98
1371.81
1380.62
1384.37
1386.21
1387.27
1387.8
1387.8
1387.3
1386.29
1384.75
1382.72
1380.18
1377.17
1373.72
1369.86
1365.6
1360.88
1355.46
1349.07
1339.73
1312.27
1224.6
1028.35
762.707
513.352
326.272
249.039
1303.68
1326.5
1364.34
1382.34
1389.27
1391.62
1392.47
1392.9
1393.06
1392.92
1392.47
1391.72
1390.68
1389.41
1387.94
1386.31
1384.54
1382.61
1380.49
1378.05
1375
1370.83
1365.01
1355.27
1332.87
1266.33
1082.26
786.678
523.459
348.267
1306.76
1348.82
1379.84
1392.67
1396.65
1397.42
1397.49
1397.56
1397.61
1397.53
1397.3
1396.93
1396.46
1395.92
1395.35
1394.75
1394.09
1393.3
1392.31
1390.98
1389.11
1386.36
1382.44
1377.52
1370.97
1357.2
1301.57
1115.02
817.032
540.872
1320.78
1370.91
1393.23
1400.57
1401.87
1401.56
1401.31
1401.37
1401.52
1401.62
1401.64
1401.61
1401.55
1401.45
1401.31
1401.05
1400.63
1399.96
1398.98
1397.61
1395.77
1393.28
1390.11
1386.49
1382.38
1376.26
1364.27
1318.87
1126.53
839.879
1343.11
1386.57
1402.14
1405.47
1405.09
1404.44
1404.36
1404.64
1405.01
1405.32
1405.58
1405.78
1405.92
1405.95
1405.78
1405.33
1404.53
1403.36
1401.77
1399.76
1397.25
1394.04
1390.33
1385.88
1379.59
1366.9
1345.7
1345.19
1309
1141.08
1365.05
1396.65
1407.09
1408.06
1407.14
1406.77
1407.13
1407.74
1408.35
1408.89
1409.35
1409.71
1409.88
1409.75
1409.23
1408.27
1406.87
1405.05
1402.84
1400.25
1397.21
1393.51
1388.68
1381.24
1368.55
1337.43
1267.54
1339.7
1355.66
1297.43
1382.03
1403.01
1409.59
1409.53
1408.86
1409.14
1410
1410.94
1411.8
1412.57
1413.22
1413.64
1413.7
1413.15
1412
1410.36
1408.36
1406.12
1403.67
1400.9
1397.65
1393.59
1387.28
1376.21
1356.5
1313.38
1240.95
1258.78
1355.48
1347.08
1393.45
1406.92
1410.95
1410.81
1410.87
1411.86
1413.13
1414.31
1415.36
1416.3
1416.94
1417.2
1416.82
1415.64
1413.77
1411.46
1409.04
1406.71
1404.49
1402.1
1399.21
1395.24
1388.73
1376.58
1352.08
1305.84
1240.66
1240.96
1327.73
1366.07
1400.65
1409.35
1412.09
1412.49
1413.43
1414.92
1416.35
1417.54
1418.48
1419.19
1419.19
1418.84
1417.35
1415.41
1413.13
1410.63
1408.27
1406.24
1404.53
1403.17
1401.44
1398.67
1393.12
1380.96
1354.56
1304.36
1259.06
1240.65
1241.84
1353.25
1405.17
1411.2
1413.65
1414.87
1416.42
1417.97
1419.12
1419.87
1419.87
1419.8
1418.69
1416.12
1412.74
1409.27
1406.38
1404.45
1403.28
1402.99
1402.86
1402.75
1402.65
1402.07
1399.08
1388.77
1359.49
1302.19
1297.99
1269.8
1163.23
1320.1
1408.42
1413.31
1416.04
1417.84
1419.4
1420.45
1420.85
1420.59
1419.59
1416.6
1411.25
1403.28
1394.49
1386.91
1382.35
1383.38
1386.17
1392.62
1397.13
1400.08
1402.08
1403.55
1403.69
1396.93
1367.27
1297.15
1299.34
1299.11
1162.1
1224.12
1411.59
1416.22
1419.19
1420.96
1421.96
1422.21
1421.65
1420.02
1416.5
1409.2
1397.22
1381.77
1365.93
1352.39
1341.71
1340.36
1343.77
1366.97
1384.84
1393.98
1399.55
1403.18
1405.27
1403.09
1378.57
1296.02
1248.67
1299.31
1118.67
1066.91
1415.43
1419.91
1422.58
1423.74
1424.08
1423.85
1422.92
1420.81
1416.75
1408.79
1396.66
1382.86
1369.32
1356.57
1344.21
1322.38
1317.71
1317.88
1363.09
1384.39
1395.01
1401.6
1405.3
1405.2
1390.81
1313.54
1168.33
1158.04
1036.05
1003.4
1419.93
1423.63
1425.23
1425.66
1425.76
1425.69
1425.42
1424.55
1422.59
1417.48
1409.21
1401.29
1393.91
1384.57
1370.37
1346.26
1317.97
1313.12
1328.15
1371.66
1389.17
1398.75
1404.68
1405.33
1400.55
1349.97
1187.19
1022.9
1004.25
1003.84
1423.99
1426.03
1426.46
1426.5
1426.52
1426.48
1426.51
1426.39
1426.3
1424.44
1419.52
1414.51
1411.32
1406.99
1396.39
1374.16
1333.55
1312.96
1313.16
1357.28
1382.81
1394.93
1402.33
1405.25
1405.01
1382.25
1277.83
1062.59
1004.68
1004.27
1426.35
1426.63
1426.61
1426.61
1426.55
1426.61
1426.48
1426.24
1420.53
1411.95
1411.63
1407.17
1406.55
1407.13
1406.83
1393.54
1357.46
1313.16
1312.07
1346.26
1377.21
1391.12
1398.87
1403.69
1404.04
1396.66
1356.89
1213.94
1056.62
1004.7
1426.7
1426.66
1426.71
1426.61
1426.69
1426.5
1426.06
1401.59
1352.21
1349.93
1373.03
1375.99
1381.33
1395.46
1403.49
1402.49
1374.85
1319.35
1313.16
1338.91
1373.16
1388.28
1395.7
1399.52
1400.45
1397.3
1385.17
1337.72
1200.04
1030.15
1426.72
1426.76
1426.67
1426.75
1426.47
1422.8
1390.11
1263.61
982.135
1049.08
1274.68
1333.52
1339.52
1368.6
1392.49
1401.35
1384.12
1331.76
1312.26
1335.2
1370.57
1386.22
1393.45
1396.59
1396.98
1394.17
1387.3
1373.47
1316.18
1148.46
1426.79
1426.73
1426.78
1426.43
1419.45
1389.61
1283.85
820.555
567.988
594.817
898.476
1263.69
1328.09
1350
1379.08
1395.91
1388.21
1342.61
1313.18
1335.2
1369.1
1384.34
1391.44
1394.74
1395.18
1390.98
1383.55
1373.48
1352.04
1280.23
1426.79
1426.82
1426.39
1413.7
1387.41
1332.51
897.192
560.292
550.914
560.282
554.622
878.303
1281.67
1345.35
1367.9
1386.91
1387.94
1350.07
1313.1
1337.46
1368.31
1382.26
1389.04
1392.87
1394.38
1390.83
1380.02
1366.33
1350.62
1326.91
1426.79
1425.99
1408.46
1367.24
1346.82
1047.32
565.175
553.94
560.281
550.263
560.281
554.462
841.038
1249.55
1353.84
1371.33
1386.17
1356.91
1317.58
1341.51
1367.38
1379.73
1386.11
1390.26
1392.89
1391.69
1381.99
1362.83
1344.32
1327.74
1422.81
1398.99
1366.44
1335.62
1191.43
680.204
557.568
560.281
553.306
560.281
549.795
560.281
553.531
730.344
1110.13
1321.59
1369.98
1359.51
1328.68
1345.99
1365.57
1376.7
1382.86
1386.84
1390.02
1391.21
1385.83
1368.22
1343.73
1328.13
1394.42
1363.33
1345.41
1307.85
864.762
573.522
560.281
556.758
560.281
552.632
560.281
549.748
560.281
551.887
602.281
886.671
1236.19
1347
1341.22
1349.25
1362.64
1373.33
1379.61
1383.11
1386.02
1388.36
1387.14
1376.67
1351.18
1328.51
1348.27
1323.32
1298.81
1096.89
828.582
669.438
587.845
560.281
556.544
560.281
552.454
560.281
550.287
560.281
551.035
560.3
724.762
1194.47
1338.34
1349.9
1358.62
1369.71
1376.48
1379.56
1381.58
1383.57
1384.83
1381.78
1365.69
1334.1
1223.57
1221.99
1187.12
1087.39
977.928
908.107
773.616
624.043
560.281
556.763
560.281
552.743
560.281
551.84
560.281
551.137
560.287
721.01
1259.27
1339.62
1351.74
1365.71
1373.3
1376.2
1377.53
1378.16
1379.21
1380.42
1376.27
1354.05
1202.39
1202.39
1202.72
1183.43
1180.98
1148.95
1027.58
829.765
644.877
560.281
557.719
560.281
553.822
560.281
552.83
560.281
551.148
560.331
852.047
1325.21
1340.93
1362.32
1369.91
1372.69
1374.12
1373.55
1372.01
1373.54
1376.23
1371.13
1202.39
1241.17
1266.36
1280.41
1286.16
1271.15
1212.9
1070.44
852.766
656.022
563.558
557.98
560.281
555.755
560.281
552.875
560.281
552.204
560.526
1056.3
1337.45
1358.56
1364.47
1368.35
1371.2
1370.88
1366.84
1363.45
1368.28
1371.41
1236.31
1294.65
1312.94
1319.38
1316.25
1305.97
1288.23
1237.05
1094.38
870.677
667.817
569.457
558.559
560.281
557.818
560.281
554.512
560.281
554.364
676.118
1266.2
1347.46
1353.79
1362.17
1368.03
1370.12
1367.03
1358.23
1355.4
1365.88
1277.44
1320.29
1333.26
1336.6
1335.56
1333.68
1330.49
1317.88
1269.97
1128.71
895.13
695.15
607.299
579.347
560.287
558.362
560.281
555.843
560.281
559.978
990.953
1333.27
1338.08
1353.72
1362.92
1369.4
1370.11
1362.54
1350.84
1350.87
1287.75
1334.75
1352.22
1359.49
1364.34
1367.78
1368.01
1363.65
1350.75
1308.05
1177.95
964.421
798.195
718.702
666.706
613.527
571.478
560.281
558.696
591.283
916.238
1261.16
1327.64
1342.55
1355.1
1366.9
1373.53
1371.77
1357.46
1350.62
1300.92
1356.81
1377.94
1387.62
1393.28
1394.42
1392.09
1388.27
1383.67
1374.79
1344.18
1254.89
1110.5
991.373
903.051
799.783
697.717
627.412
608.282
717.385
1011.23
1266.63
1323.36
1333.94
1345.82
1360.27
1373.52
1379.52
1371.9
1351.31
1330.05
1384
1401.97
1408.89
1408.85
1403.49
1397.17
1392.13
1389.65
1389.07
1387.26
1372.14
1328.89
1261.31
1181.02
1074.49
945.403
831.2
800.734
958.194
1200.75
1311.47
1326.95
1329.83
1333.6
1343.77
1362.06
1379.5
1383.05
1366.89
1370.42
1405.59
1413.43
1412.92
1401.26
1387.41
1385.81
1382.25
1380.88
1382.38
1385.56
1385.57
1384.22
1367.19
1335.79
1285.28
1201.94
1104.59
1083.89
1206.55
1319.77
1345.09
1341.2
1331.97
1321.24
1315.21
1325.21
1356.2
1382.93
1383.13
1402.42
1413.82
1413.29
1382.03
1335.47
1300.9
1341.5
1351.3
1354.78
1361.32
1371.77
1381.38
1384.65
1384.54
1376.61
1360.11
1331.59
1293.88
1283.68
1316.46
1345.48
1361.75
1362.1
1348.8
1326.61
1315.31
1314.84
1315.03
1345.98
1383
1415.55
1413.63
1376.09
1246.16
1188.36
1185.45
1233.45
1297.54
1313.05
1328.45
1349.01
1368.48
1379.94
1384.12
1383.58
1377.74
1367.05
1354.07
1345.7
1344.6
1352.6
1368.07
1377.29
1373.29
1353.5
1324.48
1315.05
1314.72
1314.85
1360.97
1411.47
1369.63
1245.25
1188.31
1185.08
1188.31
1185.44
1237.6
1269.9
1297.67
1329.33
1357.39
1375.39
1383.78
1385.82
1383.67
1378.11
1370.79
1364.06
1359.37
1360.05
1370.1
1382.28
1387.47
1380.69
1357.32
1325.11
1314.78
1314.5
1314.47
1379
1234.67
1188.31
1185.43
1188.31
1184.74
1188.31
1203.46
1249.99
1290.5
1329.06
1357.98
1376.05
1384.99
1388.04
1387.51
1384.21
1379.47
1374.61
1370.44
1368.41
1372.51
1382.07
1391.04
1393.72
1385.06
1359.81
1327.05
1314.76
1314.53
1325.99
1188.35
1187.69
1188.31
1186.11
1188.31
1186.24
1203.8
1254.72
1297.36
1336.64
1364.04
1379.78
1387.74
1390.7
1390.7
1388.49
1385.19
1381.69
1378.42
1375.96
1376.41
1381.97
1390.02
1396.54
1397.45
1387.39
1361.1
1324.23
1314.79
1281.13
1187.84
1188.31
1187.32
1188.31
1186.05
1188.31
1206.38
1270
1322.17
1356.71
1375.69
1386.07
1391.53
1393.66
1393.59
1391.81
1389.16
1386.36
1383.73
1381.56
1380.74
1383.05
1388.7
1395.41
1399.75
1399.71
1387.87
1355
1314.88
1302.68
1256.18
1194.42
1188.31
1187.31
1188.31
1187.56
1231.03
1317.79
1361.1
1379.29
1388.06
1392.95
1395.72
1396.79
1396.4
1394.66
1392.17
1389.52
1387.09
1385.16
1384.22
1385.03
1388.47
1393.8
1399.77
1402.69
1400.53
1382.05
1327.38
1339.37
1358.64
1244.94
1188.27
1188.31
1187.48
1206.03
1317.03
1374.35
1391.06
1396.13
1398.11
1399.25
1399.96
1400.05
1399.23
1397.33
1394.69
1391.84
1389.18
1387.1
1386.06
1386.51
1388.81
1392.89
1398.14
1402.75
1403.86
1395.15
1355.94
1353.15
1361.73
1308.25
1203.07
1188.19
1233.25
1327.87
1391.49
1406.02
1407.42
1406.4
1405.33
1404.65
1404.17
1403.5
1402.21
1400
1397.03
1393.72
1390.48
1387.75
1386.18
1386.58
1388.99
1392.74
1397.18
1401.78
1403.92
1399.78
1377.23
1333.27
1361.87
1312.68
1253.83
1302.84
1367.7
1408.45
1419.04
1416.89
1413.33
1411.08
1409.73
1409.01
1408.35
1407.31
1405.56
1402.89
1399.41
1395.42
1391.29
1387.51
1385.27
1385.48
1388.27
1392.59
1397.15
1401.19
1403.96
1401.32
1387.83
1333.84
1362.04
1349.36
1368.52
1403.19
1420.93
1421.49
1421.04
1415.7
1412.46
1411.07
1411.11
1411.7
1412.11
1411.65
1409.7
1406.46
1402.2
1397.27
1391.92
1386.64
1382.88
1382.34
1385.57
1391.43
1397.39
1401.49
1404
1402.26
1393.59
1333.85
1362.51
1398.9
1420.86
1421.64
1422.17
1421.34
1415.5
1410.05
1408.84
1409.14
1410.09
1411.64
1414.13
1415.61
1414.5
1411.23
1406.07
1399.83
1392.86
1385.42
1379.18
1377.13
1379.93
1387.38
1396.91
1402.45
1404.18
1403.29
1397.47
1334.6
1395.55
1422
1421.94
1422.37
1421.51
1411.9
1400.4
1400.11
1402.6
1404.85
1406.17
1406.89
1411.27
1416.35
1418.04
1416.37
1411.44
1403.99
1394.98
1384.83
1375.02
1371.01
1372.11
1377.81
1392.11
1403.25
1404.51
1404.32
1400.61
1360.53
1421.81
1422.06
1422.9
1421.48
1399.78
1375.6
1377.35
1388.66
1396.52
1399.45
1396.94
1385.3
1392.95
1407.41
1417.99
1419.23
1416.85
1410.05
1399.44
1386.18
1372.06
1366.16
1366.85
1364.53
1372.19
1400.84
1404.49
1404.53
1402.92
1402.37
1422.17
1423.02
1421.56
1391.37
1315.2
1324.02
1356.39
1382.34
1394.65
1394.29
1378.78
1318.85
1334.42
1364.07
1401.84
1419.18
1419.48
1416.14
1406.45
1390.83
1372.06
1363.55
1368.26
1358.98
1351.26
1390.82
1404.44
1404.53
1404.17
1421.98
1423.02
1422
1396.7
1242.85
1219
1294.07
1355.65
1385.31
1396.99
1391.05
1357.72
1243.83
1252.58
1289.29
1344.59
1406.5
1419.41
1419.48
1414
1399
1375.15
1360.59
1371.84
1364.35
1350.85
1365.54
1402.88
1404.57
1404.54
1422.89
1422.49
1410.61
1202.94
1123.7
1212.82
1303.13
1364
1392.77
1399.75
1387.04
1327.01
1243.51
1277.42
1329.28
1329.23
1375.01
1414.42
1419.66
1419.32
1408.36
1382.42
1359.69
1373.53
1373.25
1354.28
1337.48
1387.51
1404.42
1404.56
1422.56
1409.63
1271.8
1066.61
1122.95
1223.56
1323.65
1380.13
1399.85
1399.84
1379.9
1302.27
1275.08
1353.51
1373.43
1350.36
1307.48
1395.66
1419.39
1419.78
1415.81
1392.63
1359.87
1373.57
1377.43
1368.69
1337.55
1371.23
1400.83
1404.44
1415.4
1262.66
1058.48
1066.1
1129.31
1250.49
1355.2
1395.81
1400.13
1398.83
1372.23
1301.74
1333.41
1386.63
1389.28
1379.14
1306.87
1353.62
1409.05
1419.63
1419.64
1402.73
1363.41
1370.18
1378.25
1378.08
1355.45
1370.55
1395.19
1404.08
1357.55
1031.21
971.542
1067.66
1152.47
1304.08
1386.76
1400.16
1400.5
1393.91
1366.93
1307.43
1373.63
1389.56
1389
1389.68
1354.72
1307.96
1390.25
1419.69
1419.65
1410.69
1370.52
1365.1
1378.46
1379.18
1374.34
1378.92
1394.13
1394
1142.48
960.841
960.83
1059.88
1228.62
1367.3
1400.02
1400.76
1400.17
1385.67
1354.69
1336.7
1389.21
1389.01
1390.86
1388.99
1386.04
1307.88
1371.21
1415.01
1420.06
1416.32
1378.64
1364.77
1377.45
1379.49
1381.59
1388.09
1389.04
1331.97
968.286
960.829
960.84
1116.14
1335.07
1397.49
1400.72
1400.27
1397.65
1376.85
1354.51
1372.21
1388.93
1391.06
1388.96
1391.11
1388.79
1336.43
1354.1
1405.52
1419.6
1418.9
1385.58
1364.83
1375.38
1374.14
1381.49
1387.15
1347.17
1109.53
1021.42
969.567
1030.22
1277.59
1383.19
1398.24
1400.26
1400.77
1391.82
1376.56
1366.89
1388.75
1391.06
1388.84
1377.19
1388.67
1390.84
1368.07
1354.57
1398.71
1419.99
1418.58
1389.17
1369.1
1371.95
1353.89
1371.28
1386.2
1373.48
975.548
1208.56
1097.89
1233.52
1361.59
1378.19
1389.88
1399.91
1400.22
1391.04
1383.82
1387.52
1390.02
1388.78
1357.66
1189.27
1302.42
1374.88
1369.11
1359.44
1395.01
1419.41
1417.58
1386.72
1369.42
1362.88
1333.59
1316.98
1351.39
1157.99
932.755
1221.12
1279.93
1351.82
1351.55
1349.85
1382.07
1393.64
1400.64
1393.19
1386.78
1387.94
1387.96
1383.99
1223.68
1050.21
1071.65
1300.01
1345.36
1348.91
1389.7
1415.85
1416.86
1380.82
1312.98
955.441
702.743
610.899
714.949
542.698
729.878
784.921
843.373
1217.31
1307.29
1348.22
1380.21
1392.01
1400.06
1393.74
1367.81
1362.39
1286.28
1374.43
1185.74
1046.83
1012.87
1088.68
988.685
1299.6
1376.31
1404.3
1410.6
1368.04
826.627
351.684
253.025
237.242
263.187
236.375
403.036
406.057
327.756
544.688
635.684
699.886
970.538
1391.31
1394.06
1377.81
1310.3
927.566
725.404
980.464
1057.29
1035.74
948.799
648.252
366.661
782.386
1304.45
1378.16
1398.61
1377.4
518.362
248.535
229.732
228.8
229.591
228.767
250.027
367.528
270.993
305.813
280.296
317.7