/*--------------------------------*- C++ -*----------------------------------*\
| =========                 |                                                 |
| \\      /  F ield         | OpenFOAM: The Open Source CFD Toolbox           |
|  \\    /   O peration     | Version:  2.3.0                                 |
|   \\  /    A nd           | Web:      www.OpenFOAM.org                      |
|    \\/     M anipulation  |                                                 |
\*---------------------------------------------------------------------------*/
FoamFile
{
    version     2.0;
    format      ascii;
    class       volVectorField;
    location    "1.22";
    object      U.air;
}
// * * * * * * * * * * * * * * * * * * * * * * * * * * * * * * * * * * * * * //

dimensions      [0 1 -1 0 0 0 0];

internalField   nonuniform List<vector> 
6000
(
(0.0259256 0.200004 0)
(0.0557782 0.158709 0)
(0.0617929 0.221468 0)
(0.0707154 0.235032 0)
(0.0719931 0.203835 0)
(0.0595494 0.162974 0)
(0.0407807 0.143727 0)
(0.0829875 0.1501 0)
(0.138285 0.218079 0)
(0.12808 0.224688 0)
(0.113365 0.195643 0)
(0.0902508 0.175309 0)
(0.036492 0.166929 0)
(-0.0426779 0.154092 0)
(-0.095647 0.125242 0)
(-0.125874 0.109934 0)
(-0.142357 0.121164 0)
(-0.151416 0.113208 0)
(-0.143785 0.126941 0)
(-0.1302 0.134888 0)
(-0.140194 0.168294 0)
(-0.211275 0.220187 0)
(-0.270365 0.130711 0)
(-0.307311 0.111941 0)
(-0.282985 0.149127 0)
(-0.175857 0.170412 0)
(-0.0553686 0.181737 0)
(0.0250723 0.172659 0)
(0.0357654 0.157638 0)
(0.00830813 0.225 0)
(0.0537664 0.90399 0)
(0.0860927 1.0109 0)
(0.07966 0.989913 0)
(0.0960847 0.972947 0)
(0.140097 0.983902 0)
(0.191513 1.05912 0)
(0.22065 1.06341 0)
(0.190939 1.00786 0)
(0.122731 1.0817 0)
(0.0215278 1.07891 0)
(-0.0484567 1.06775 0)
(-0.117704 1.07254 0)
(-0.183803 1.08827 0)
(-0.237903 1.07385 0)
(-0.274222 1.02393 0)
(-0.300548 1.00332 0)
(-0.293984 0.971841 0)
(-0.264237 0.947064 0)
(-0.224994 0.920599 0)
(-0.193133 0.919688 0)
(-0.169997 0.9649 0)
(-0.114007 0.994016 0)
(-0.0871085 0.989336 0)
(-0.12068 1.05207 0)
(-0.154491 0.896561 0)
(-0.130077 0.820743 0)
(-0.0431539 0.8715 0)
(0.0173913 0.935305 0)
(0.00635178 1.07949 0)
(-0.0222666 0.991696 0)
(0.0203004 0.635292 0)
(0.0914077 0.743563 0)
(0.0837899 0.794903 0)
(0.0748655 0.763388 0)
(0.130148 0.688487 0)
(0.250784 0.733435 0)
(0.326028 0.827008 0)
(0.229707 0.880468 0)
(0.0598732 1.06863 0)
(-0.0816495 1.03072 0)
(-0.204 0.967301 0)
(-0.282804 0.947186 0)
(-0.332648 0.920676 0)
(-0.350327 0.883062 0)
(-0.361356 0.836869 0)
(-0.364474 0.784716 0)
(-0.338855 0.729243 0)
(-0.281327 0.675474 0)
(-0.218313 0.657038 0)
(-0.16121 0.678943 0)
(-0.121133 0.732443 0)
(-0.0842695 0.777726 0)
(-0.066739 0.806328 0)
(-0.0385036 0.825643 0)
(-0.0393081 0.748796 0)
(-0.0600291 0.584155 0)
(-0.0223009 0.616886 0)
(0.0163502 0.700085 0)
(0.0301684 0.871492 0)
(0.0239569 0.823111 0)
(0.0131023 0.63606 0)
(0.0825878 0.793898 0)
(0.116264 0.836307 0)
(0.099317 0.811454 0)
(0.162598 0.604539 0)
(0.293748 0.695989 0)
(0.29922 0.886561 0)
(0.108493 1.12212 0)
(-0.0972014 1.14688 0)
(-0.194057 1.08063 0)
(-0.287088 1.0064 0)
(-0.346281 0.958965 0)
(-0.38266 0.919309 0)
(-0.402639 0.881236 0)
(-0.416992 0.825305 0)
(-0.415033 0.756876 0)
(-0.367477 0.666707 0)
(-0.291158 0.607647 0)
(-0.193801 0.589822 0)
(-0.116748 0.642695 0)
(-0.0892224 0.709767 0)
(-0.0895596 0.753747 0)
(-0.0958635 0.772327 0)
(-0.0827337 0.78871 0)
(-0.0620892 0.732053 0)
(-0.03155 0.588876 0)
(0.0162863 0.567981 0)
(0.0622873 0.677568 0)
(0.0759097 0.831714 0)
(0.0465013 0.854001 0)
(0.00962854 0.57196 0)
(0.115403 0.698278 0)
(0.186868 0.778205 0)
(0.176644 0.813771 0)
(0.208451 0.485044 0)
(0.273834 0.614966 0)
(0.185043 1.0588 0)
(-0.0642228 1.29398 0)
(-0.185547 1.25032 0)
(-0.283738 1.1598 0)
(-0.363478 1.06728 0)
(-0.408045 0.977331 0)
(-0.428853 0.92636 0)
(-0.445696 0.876976 0)
(-0.472993 0.826183 0)
(-0.466712 0.721491 0)
(-0.40533 0.594176 0)
(-0.304877 0.497081 0)
(-0.193873 0.471796 0)
(-0.109864 0.576194 0)
(-0.0840673 0.697529 0)
(-0.10939 0.750082 0)
(-0.140917 0.768605 0)
(-0.151454 0.744786 0)
(-0.123801 0.657286 0)
(-0.0465349 0.491553 0)
(0.0607747 0.420067 0)
(0.156 0.618841 0)
(0.150053 0.831129 0)
(0.0665494 0.892671 0)
(-0.0108405 0.497786 0)
(0.163897 0.566296 0)
(0.260783 0.742043 0)
(0.264937 0.86701 0)
(0.237015 0.489651 0)
(0.190044 0.614463 0)
(0.0593174 1.32482 0)
(-0.166568 1.41366 0)
(-0.254395 1.34832 0)
(-0.369371 1.26508 0)
(-0.456585 1.11869 0)
(-0.481467 0.993078 0)
(-0.464477 0.925175 0)
(-0.458515 0.886528 0)
(-0.461911 0.833629 0)
(-0.405106 0.655905 0)
(-0.31614 0.489901 0)
(-0.248446 0.416869 0)
(-0.203335 0.405829 0)
(-0.156631 0.514785 0)
(-0.103672 0.703839 0)
(-0.108122 0.781742 0)
(-0.139324 0.783702 0)
(-0.148113 0.741368 0)
(-0.0927406 0.613384 0)
(0.00855249 0.385547 0)
(0.0844152 0.309076 0)
(0.168217 0.540582 0)
(0.186 0.896647 0)
(0.0968514 1.00396 0)
(0.0103459 0.432617 0)
(0.190718 0.364462 0)
(0.320778 0.683731 0)
(0.334817 0.9141 0)
(0.249735 0.558433 0)
(0.0875848 0.696386 0)
(-0.070793 1.51954 0)
(-0.217822 1.49788 0)
(-0.319981 1.44493 0)
(-0.438087 1.36833 0)
(-0.52303 1.15955 0)
(-0.491213 0.961575 0)
(-0.420775 0.892682 0)
(-0.363445 0.864567 0)
(-0.291788 0.782767 0)
(-0.215002 0.581319 0)
(-0.186509 0.462443 0)
(-0.190992 0.432134 0)
(-0.214124 0.430383 0)
(-0.221549 0.499076 0)
(-0.183731 0.668003 0)
(-0.143241 0.792655 0)
(-0.119294 0.800312 0)
(-0.0782179 0.708016 0)
(0.00985153 0.514965 0)
(0.0658693 0.340724 0)
(0.0617536 0.304744 0)
(0.0578739 0.486772 0)
(0.0997196 0.931495 0)
(0.0760847 1.16773 0)
(0.0521918 0.367808 0)
(0.180271 0.166637 0)
(0.288486 0.591189 0)
(0.326885 0.915271 0)
(0.218263 0.667035 0)
(-0.0348542 0.883982 0)
(-0.191515 1.62519 0)
(-0.259261 1.57429 0)
(-0.356162 1.51507 0)
(-0.451323 1.4685 0)
(-0.453931 1.12921 0)
(-0.357398 0.88437 0)
(-0.261553 0.827483 0)
(-0.175412 0.805387 0)
(-0.0898466 0.72943 0)
(-0.0633554 0.59435 0)
(-0.103383 0.515648 0)
(-0.154902 0.494866 0)
(-0.203907 0.498559 0)
(-0.241116 0.541851 0)
(-0.234652 0.664014 0)
(-0.174433 0.771926 0)
(-0.0900538 0.765758 0)
(0.00960712 0.654814 0)
(0.0833684 0.49438 0)
(0.0841371 0.390876 0)
(0.0184559 0.387269 0)
(-0.0593739 0.530645 0)
(-0.0444498 0.89345 0)
(-0.00614353 1.24333 0)
(0.0573251 0.293807 0)
(0.129721 0.0866083 0)
(0.137606 0.507519 0)
(0.19915 0.974989 0)
(0.104179 0.829062 0)
(-0.107453 1.11819 0)
(-0.229168 1.69469 0)
(-0.266287 1.63782 0)
(-0.34426 1.58726 0)
(-0.354322 1.48696 0)
(-0.248023 1.0419 0)
(-0.157298 0.830983 0)
(-0.0942421 0.800498 0)
(-0.0360267 0.7836 0)
(0.00970805 0.737457 0)
(-0.000899305 0.669612 0)
(-0.0654986 0.614098 0)
(-0.129294 0.582811 0)
(-0.167066 0.578381 0)
(-0.189878 0.613041 0)
(-0.183817 0.699473 0)
(-0.134561 0.771224 0)
(-0.0531321 0.758595 0)
(0.0288888 0.65764 0)
(0.0767261 0.542626 0)
(0.0700842 0.480708 0)
(0.00445478 0.530248 0)
(-0.0956736 0.680933 0)
(-0.134456 0.941024 0)
(-0.0704135 1.26215 0)
(0.0338036 0.249939 0)
(0.0469297 0.129255 0)
(-0.0221665 0.496723 0)
(0.0131619 0.968437 0)
(0.0287989 0.919212 0)
(-0.0864874 1.28464 0)
(-0.181469 1.7626 0)
(-0.242812 1.72614 0)
(-0.255116 1.62364 0)
(-0.150213 1.40006 0)
(-0.0284386 0.980252 0)
(-0.00225543 0.837192 0)
(0.00303336 0.812271 0)
(0.0292816 0.804953 0)
(0.0480036 0.78841 0)
(0.0297064 0.770097 0)
(-0.030987 0.749221 0)
(-0.0990981 0.703556 0)
(-0.125318 0.665581 0)
(-0.113002 0.683813 0)
(-0.0826536 0.760861 0)
(-0.0518876 0.83814 0)
(-0.0299677 0.814823 0)
(-0.00304059 0.689989 0)
(0.0363052 0.56441 0)
(0.0719906 0.531472 0)
(0.0444946 0.640875 0)
(-0.0670018 0.808181 0)
(-0.158284 1.03004 0)
(-0.0857284 1.25546 0)
(0.0300476 0.250756 0)
(-0.00137691 0.239448 0)
(-0.0966843 0.663497 0)
(-0.0921355 0.977862 0)
(-0.0172557 1.00195 0)
(-0.0653255 1.42161 0)
(-0.161122 1.859 0)
(-0.213361 1.78363 0)
(-0.13326 1.56385 0)
(0.0419673 1.31408 0)
(0.101291 1.00631 0)
(0.0722558 0.902264 0)
(0.0602517 0.869499 0)
(0.0756106 0.878688 0)
(0.0906352 0.896255 0)
(0.0895317 0.927418 0)
(0.0306905 0.935017 0)
(-0.06486 0.868806 0)
(-0.0968552 0.74129 0)
(-0.0542243 0.7065 0)
(-0.0240662 0.737222 0)
(-0.055415 0.800605 0)
(-0.096943 0.744915 0)
(-0.0853313 0.613569 0)
(-0.0239892 0.476246 0)
(0.0411544 0.452534 0)
(0.0453907 0.596419 0)
(-0.0373573 0.758929 0)
(-0.0960602 0.854962 0)
(-0.0602958 0.95033 0)
(0.0784097 0.219614 0)
(0.100962 0.30947 0)
(-0.00621784 0.790027 0)
(-0.131686 0.966243 0)
(-0.159637 1.00892 0)
(-0.169668 1.50565 0)
(-0.202209 1.95988 0)
(-0.181461 1.82338 0)
(-0.0579523 1.49639 0)
(0.0891674 1.30015 0)
(0.118382 1.10738 0)
(0.113789 0.993321 0)
(0.136441 0.934861 0)
(0.143786 0.89873 0)
(0.118648 0.880143 0)
(0.0745464 0.856862 0)
(0.00754113 0.87292 0)
(-0.0987539 0.787345 0)
(-0.189658 0.647051 0)
(-0.234394 0.601009 0)
(-0.262019 0.710063 0)
(-0.308012 0.831272 0)
(-0.330281 0.765802 0)
(-0.275762 0.56197 0)
(-0.158166 0.400962 0)
(-0.049886 0.402394 0)
(0.00919016 0.660853 0)
(-0.0120005 0.913289 0)
(-0.0441074 0.988568 0)
(-0.0220795 0.991231 0)
(0.135613 0.100631 0)
(0.186624 0.27825 0)
(0.0919496 0.904405 0)
(-0.138014 0.908739 0)
(-0.317922 0.933981 0)
(-0.374095 1.36051 0)
(-0.263455 1.80522 0)
(-0.114752 1.67743 0)
(-0.0243596 1.34422 0)
(0.0580097 1.19333 0)
(0.0975486 1.00113 0)
(0.106429 0.850279 0)
(0.0784014 0.767379 0)
(0.0389836 0.788499 0)
(-0.0271112 0.856067 0)
(-0.133733 0.958216 0)
(-0.269126 1.05507 0)
(-0.456025 1.03916 0)
(-0.645247 0.834176 0)
(-0.754151 0.700522 0)
(-0.735792 0.725874 0)
(-0.61995 0.751218 0)
(-0.502304 0.653014 0)
(-0.363011 0.375414 0)
(-0.263401 0.220602 0)
(-0.186709 0.246665 0)
(-0.112598 0.497662 0)
(-0.0458474 0.744541 0)
(-0.0191628 0.779431 0)
(-0.00073693 0.783901 0)
(0.104619 -0.0607287 0)
(0.140319 0.231565 0)
(0.0934401 1.19582 0)
(-0.145691 1.22597 0)
(-0.343488 1.25187 0)
(-0.410779 1.45661 0)
(-0.262759 1.67728 0)
(-0.0462393 1.60685 0)
(0.057486 1.31638 0)
(0.0926487 1.17535 0)
(0.0958037 1.08038 0)
(0.0251778 1.02126 0)
(-0.0932656 1.00507 0)
(-0.216106 0.98642 0)
(-0.321603 0.972986 0)
(-0.403839 0.966904 0)
(-0.467877 0.973774 0)
(-0.573356 0.985978 0)
(-0.725508 0.842572 0)
(-0.762771 0.568771 0)
(-0.69421 0.493474 0)
(-0.551426 0.537 0)
(-0.398607 0.450056 0)
(-0.290838 0.244209 0)
(-0.255429 0.148956 0)
(-0.240278 0.191353 0)
(-0.192548 0.393895 0)
(-0.0892639 0.662364 0)
(-0.0196241 0.744615 0)
(-0.00737819 0.733525 0)
(0.0708113 -0.15269 0)
(-0.00209427 0.18798 0)
(-0.0776452 1.16002 0)
(-0.184918 1.12476 0)
(-0.27005 1.1284 0)
(-0.282378 1.18581 0)
(-0.18233 1.30419 0)
(-0.0323236 1.28319 0)
(0.0320213 1.18487 0)
(0.0193685 1.05938 0)
(-0.0266066 0.992283 0)
(-0.108938 0.920741 0)
(-0.198802 0.885886 0)
(-0.267715 0.851686 0)
(-0.328264 0.862228 0)
(-0.373881 0.888399 0)
(-0.414703 0.937853 0)
(-0.468208 0.978713 0)
(-0.565201 0.863033 0)
(-0.548673 0.483994 0)
(-0.491209 0.342542 0)
(-0.374935 0.390048 0)
(-0.252875 0.336696 0)
(-0.205067 0.204393 0)
(-0.222983 0.156728 0)
(-0.250478 0.200564 0)
(-0.240165 0.340112 0)
(-0.170459 0.557076 0)
(-0.080216 0.721567 0)
(-0.0172135 0.72481 0)
(0.0709461 -0.175671 0)
(-0.0900692 0.322556 0)
(-0.213848 1.18168 0)
(-0.212679 1.16704 0)
(-0.233064 1.12425 0)
(-0.219693 1.13421 0)
(-0.169742 1.13778 0)
(-0.0901127 1.13687 0)
(-0.0528561 1.05055 0)
(-0.0586656 1.01598 0)
(-0.101144 0.969171 0)
(-0.163683 0.948342 0)
(-0.222958 0.914665 0)
(-0.272748 0.890531 0)
(-0.302063 0.881754 0)
(-0.31832 0.911907 0)
(-0.328708 0.948248 0)
(-0.34312 0.992563 0)
(-0.377599 0.875587 0)
(-0.341622 0.440369 0)
(-0.305642 0.251755 0)
(-0.229945 0.293981 0)
(-0.152873 0.280649 0)
(-0.144094 0.215855 0)
(-0.185399 0.198667 0)
(-0.232733 0.23776 0)
(-0.250163 0.339287 0)
(-0.219921 0.492788 0)
(-0.140194 0.63228 0)
(-0.0382324 0.648362 0)
(0.0353319 -0.121649 0)
(-0.178721 0.557088 0)
(-0.313611 1.18499 0)
(-0.243642 1.14691 0)
(-0.225223 1.13349 0)
(-0.193721 1.09467 0)
(-0.160279 1.10199 0)
(-0.123942 1.06878 0)
(-0.101591 1.05471 0)
(-0.110011 1.02186 0)
(-0.146447 1.01637 0)
(-0.194377 0.989222 0)
(-0.249134 0.970255 0)
(-0.287206 0.915917 0)
(-0.290844 0.885811 0)
(-0.272421 0.901075 0)
(-0.259473 0.938923 0)
(-0.244596 0.966236 0)
(-0.225513 0.84092 0)
(-0.166557 0.400778 0)
(-0.148037 0.193744 0)
(-0.117915 0.236632 0)
(-0.0813403 0.25815 0)
(-0.09235 0.243186 0)
(-0.139345 0.248546 0)
(-0.191559 0.283048 0)
(-0.220649 0.356703 0)
(-0.209311 0.468007 0)
(-0.1449 0.566505 0)
(-0.0436715 0.573175 0)
(-0.0909739 -0.0202157 0)
(-0.343328 0.769505 0)
(-0.374767 1.11145 0)
(-0.263987 1.09945 0)
(-0.220873 1.08506 0)
(-0.183345 1.06513 0)
(-0.149914 1.04887 0)
(-0.135196 1.0522 0)
(-0.1205 1.03378 0)
(-0.134868 1.05006 0)
(-0.162334 1.03725 0)
(-0.214225 1.04654 0)
(-0.272161 1.01933 0)
(-0.314615 0.940663 0)
(-0.289362 0.86073 0)
(-0.244828 0.885547 0)
(-0.204726 0.913111 0)
(-0.1702 0.924153 0)
(-0.0936116 0.754618 0)
(-0.00850872 0.352568 0)
(-0.00941086 0.17336 0)
(-0.0183234 0.214505 0)
(-0.0200998 0.258907 0)
(-0.045919 0.276675 0)
(-0.0912199 0.295795 0)
(-0.138336 0.325816 0)
(-0.167502 0.376745 0)
(-0.162203 0.453785 0)
(-0.113684 0.521831 0)
(-0.0352855 0.524367 0)
(-0.182636 0.311351 0)
(-0.408014 0.864413 0)
(-0.350023 1.00175 0)
(-0.243275 1.01393 0)
(-0.196762 1.03318 0)
(-0.15392 1.0059 0)
(-0.136015 1.02565 0)
(-0.11871 1.01213 0)
(-0.119228 1.0446 0)
(-0.128032 1.04871 0)
(-0.159064 1.07512 0)
(-0.203773 1.08344 0)
(-0.268804 1.08437 0)
(-0.310395 0.942822 0)
(-0.282965 0.812723 0)
(-0.230497 0.834567 0)
(-0.169664 0.879784 0)
(-0.0966389 0.8505 0)
(0.0309013 0.637853 0)
(0.124602 0.305546 0)
(0.104288 0.191162 0)
(0.0669282 0.22762 0)
(0.0336661 0.278563 0)
(-0.00360915 0.310189 0)
(-0.0441957 0.334131 0)
(-0.0813648 0.358738 0)
(-0.105396 0.392262 0)
(-0.103728 0.440792 0)
(-0.0722765 0.486562 0)
(-0.021361 0.486767 0)
(-0.147954 0.61966 0)
(-0.273472 0.869357 0)
(-0.235118 0.898963 0)
(-0.170078 0.935832 0)
(-0.13662 0.976814 0)
(-0.0960698 0.984975 0)
(-0.0948307 0.983818 0)
(-0.0880722 1.00919 0)
(-0.092145 1.02823 0)
(-0.105728 1.06563 0)
(-0.132802 1.09102 0)
(-0.170683 1.13097 0)
(-0.222962 1.13177 0)
(-0.26904 0.957808 0)
(-0.263662 0.775848 0)
(-0.228376 0.791356 0)
(-0.141348 0.81068 0)
(-0.0159704 0.757196 0)
(0.149318 0.498033 0)
(0.213909 0.28256 0)
(0.179947 0.239387 0)
(0.124135 0.278167 0)
(0.0754065 0.321342 0)
(0.036314 0.349516 0)
(0.00272675 0.369387 0)
(-0.0253574 0.387049 0)
(-0.044365 0.407391 0)
(-0.0482793 0.435114 0)
(-0.0340507 0.463369 0)
(-0.0083105 0.464889 0)
(-0.0772771 0.785994 0)
(-0.152122 0.868457 0)
(-0.11375 0.870005 0)
(-0.0656586 0.883967 0)
(-0.0210737 0.938908 0)
(-0.00744235 0.963896 0)
(-0.0255494 0.979425 0)
(-0.0350194 0.994227 0)
(-0.0499865 1.04149 0)
(-0.0686078 1.06529 0)
(-0.0978557 1.11599 0)
(-0.120693 1.14954 0)
(-0.153084 1.17195 0)
(-0.194114 0.9882 0)
(-0.217052 0.762704 0)
(-0.199194 0.725045 0)
(-0.100163 0.71655 0)
(0.0793488 0.597944 0)
(0.224847 0.398284 0)
(0.238071 0.317422 0)
(0.199624 0.322379 0)
(0.153078 0.344646 0)
(0.110175 0.369863 0)
(0.0763467 0.389604 0)
(0.0483236 0.404484 0)
(0.0247561 0.417064 0)
(0.00642639 0.429235 0)
(-0.0046824 0.443686 0)
(-0.00597873 0.458443 0)
(-0.000142137 0.461443 0)
(-0.0618428 0.863487 0)
(-0.140006 0.855327 0)
(-0.0696689 0.808461 0)
(0.0324995 0.823785 0)
(0.126144 0.906016 0)
(0.129222 0.980398 0)
(0.0779577 0.983876 0)
(0.0313531 1.01815 0)
(0.000453047 1.04543 0)
(-0.0339608 1.08997 0)
(-0.0592409 1.12437 0)
(-0.0752009 1.16479 0)
(-0.0802814 1.17331 0)
(-0.109605 1.01902 0)
(-0.144632 0.776609 0)
(-0.133132 0.661527 0)
(-0.00696935 0.57925 0)
(0.169756 0.460124 0)
(0.231509 0.399424 0)
(0.232292 0.379259 0)
(0.217016 0.38788 0)
(0.177819 0.405004 0)
(0.139097 0.422921 0)
(0.105304 0.437303 0)
(0.0760038 0.447582 0)
(0.0510013 0.454701 0)
(0.0305909 0.460067 0)
(0.0157264 0.465457 0)
(0.00700724 0.471203 0)
(0.00245491 0.472952 0)
(-0.0943093 1.0173 0)
(-0.180565 0.832258 0)
(-0.0938045 0.681165 0)
(0.0829009 0.662223 0)
(0.249666 0.830693 0)
(0.278431 1.01763 0)
(0.186013 1.05724 0)
(0.103748 1.06071 0)
(0.0430121 1.08815 0)
(-0.00179724 1.10605 0)
(-0.0301764 1.13779 0)
(-0.0385089 1.15569 0)
(-0.0325287 1.16164 0)
(-0.0371108 1.02691 0)
(-0.0541707 0.780982 0)
(-0.0050566 0.580224 0)
(0.141137 0.450364 0)
(0.209272 0.433131 0)
(0.254441 0.436138 0)
(0.271445 0.443091 0)
(0.24182 0.448836 0)
(0.203504 0.460208 0)
(0.165227 0.472289 0)
(0.129171 0.481555 0)
(0.0966008 0.487493 0)
(0.0681107 0.490373 0)
(0.0440845 0.491345 0)
(0.0247962 0.491434 0)
(0.0110105 0.491385 0)
(0.00223581 0.490724 0)
(-0.0963769 1.16061 0)
(-0.216997 0.850684 0)
(-0.108107 0.53591 0)
(0.0862862 0.446401 0)
(0.305732 0.711871 0)
(0.375922 1.08263 0)
(0.259216 1.13553 0)
(0.151571 1.13645 0)
(0.070827 1.12733 0)
(0.0140408 1.13651 0)
(-0.0162773 1.14263 0)
(-0.0218637 1.14701 0)
(-0.0118672 1.13146 0)
(0.00979192 1.00112 0)
(0.0610832 0.74521 0)
(0.188602 0.476217 0)
(0.229202 0.423296 0)
(0.284785 0.462958 0)
(0.318828 0.482782 0)
(0.303443 0.486967 0)
(0.270968 0.495222 0)
(0.231683 0.5072 0)
(0.19044 0.517782 0)
(0.150868 0.523697 0)
(0.114884 0.52555 0)
(0.0827334 0.523862 0)
(0.0549561 0.520692 0)
(0.0321012 0.516661 0)
(0.0144027 0.51214 0)
(0.0025185 0.507729 0)
(-0.0843224 1.33352 0)
(-0.182129 0.843007 0)
(-0.0243159 0.383531 0)
(0.109402 0.244796 0)
(0.271159 0.525986 0)
(0.364578 1.13399 0)
(0.259711 1.24642 0)
(0.138543 1.21341 0)
(0.0465727 1.18929 0)
(-0.00480477 1.15965 0)
(-0.0255737 1.15014 0)
(-0.0179869 1.13607 0)
(0.00500476 1.10784 0)
(0.0759441 0.943225 0)
(0.231982 0.642627 0)
(0.299676 0.439506 0)
(0.342266 0.465494 0)
(0.379983 0.497281 0)
(0.369633 0.510165 0)
(0.346475 0.523816 0)
(0.311744 0.539365 0)
(0.265334 0.550334 0)
(0.215926 0.558201 0)
(0.170857 0.561227 0)
(0.130771 0.56036 0)
(0.095334 0.55548 0)
(0.0646953 0.548669 0)
(0.0393544 0.54109 0)
(0.0193419 0.532073 0)
(0.00446839 0.52266 0)
(-0.0525658 1.47507 0)
(-0.0633032 0.767406 0)
(0.0758464 0.260759 0)
(0.133231 0.155461 0)
(0.19716 0.413447 0)
(0.250188 1.15847 0)
(0.174719 1.3399 0)
(0.0626444 1.30497 0)
(-0.0272242 1.23662 0)
(-0.0504889 1.16864 0)
(-0.0222674 1.14609 0)
(0.0298339 1.12873 0)
(0.0866906 1.07483 0)
(0.223401 0.863346 0)
(0.359941 0.551794 0)
(0.396142 0.490965 0)
(0.453983 0.510012 0)
(0.444484 0.520676 0)
(0.427762 0.536084 0)
(0.400077 0.554136 0)
(0.359713 0.581145 0)
(0.309406 0.593749 0)
(0.25779 0.597041 0)
(0.205852 0.593213 0)
(0.155304 0.586653 0)
(0.111852 0.579386 0)
(0.0770708 0.571952 0)
(0.0486581 0.562881 0)
(0.0258401 0.551631 0)
(0.00721749 0.538735 0)
(0.0257052 1.55089 0)
(0.0721602 0.66417 0)
(0.152028 0.219593 0)
(0.132492 0.14377 0)
(0.0983963 0.393594 0)
(0.0703661 1.19959 0)
(0.0397788 1.42682 0)
(-0.0597591 1.37425 0)
(-0.116942 1.28558 0)
(-0.0603938 1.16326 0)
(0.061628 1.13199 0)
(0.176403 1.11421 0)
(0.247196 1.05202 0)
(0.36675 0.771577 0)
(0.42104 0.57134 0)
(0.50755 0.546846 0)
(0.512392 0.537015 0)
(0.50126 0.541098 0)
(0.483832 0.552632 0)
(0.457725 0.580691 0)
(0.424289 0.615893 0)
(0.372494 0.627244 0)
(0.318279 0.618985 0)
(0.25967 0.609825 0)
(0.201207 0.605886 0)
(0.149783 0.601543 0)
(0.107292 0.595878 0)
(0.0717744 0.586238 0)
(0.0413075 0.574289 0)
(0.0128017 0.560777 0)
(0.111806 1.5035 0)
(0.166013 0.605445 0)
(0.172905 0.256139 0)
(0.0831977 0.218454 0)
(-0.0415782 0.496143 0)
(-0.133328 1.20509 0)
(-0.110522 1.48738 0)
(-0.13912 1.45879 0)
(-0.102306 1.2877 0)
(0.0378145 1.03513 0)
(0.200981 0.9711 0)
(0.295205 1.04674 0)
(0.378539 1.04743 0)
(0.427129 0.762955 0)
(0.521183 0.616904 0)
(0.554595 0.570511 0)
(0.551989 0.552045 0)
(0.544905 0.549521 0)
(0.529628 0.558784 0)
(0.510208 0.599205 0)
(0.478089 0.639042 0)
(0.422408 0.649499 0)
(0.373775 0.663507 0)
(0.321413 0.680241 0)
(0.269706 0.676255 0)
(0.22022 0.659734 0)
(0.170607 0.64295 0)
(0.123264 0.626839 0)
(0.0753266 0.6144 0)
(0.0243834 0.604197 0)
(0.140886 1.37734 0)
(0.187496 0.612776 0)
(0.135049 0.354932 0)
(-0.0129671 0.371207 0)
(-0.202674 0.688596 0)
(-0.323928 1.24534 0)
(-0.226545 1.55979 0)
(-0.0831043 1.48809 0)
(0.0816852 1.18385 0)
(0.189217 0.932007 0)
(0.282049 0.942057 0)
(0.350851 1.05914 0)
(0.455096 1.08489 0)
(0.502191 0.794432 0)
(0.561419 0.635382 0)
(0.576642 0.578031 0)
(0.578991 0.556383 0)
(0.572005 0.547418 0)
(0.554235 0.562194 0)
(0.532868 0.606615 0)
(0.485237 0.645221 0)
(0.430694 0.679358 0)
(0.400525 0.699833 0)
(0.377527 0.718756 0)
(0.348936 0.722219 0)
(0.307905 0.713812 0)
(0.255787 0.69929 0)
(0.199105 0.681973 0)
(0.131341 0.680628 0)
(0.0470106 0.689638 0)
(0.108802 1.27228 0)
(0.143135 0.659575 0)
(0.0676131 0.466513 0)
(-0.105135 0.570251 0)
(-0.280516 0.89091 0)
(-0.296726 1.21143 0)
(-0.0929725 1.39102 0)
(0.154177 1.34073 0)
(0.286054 1.15715 0)
(0.306164 1.00748 0)
(0.301952 0.978948 0)
(0.351313 1.0371 0)
(0.467687 1.06591 0)
(0.535866 0.816015 0)
(0.570902 0.641475 0)
(0.585736 0.577962 0)
(0.589535 0.553059 0)
(0.580829 0.542999 0)
(0.562606 0.565979 0)
(0.532528 0.618346 0)
(0.48681 0.686667 0)
(0.470677 0.718104 0)
(0.469435 0.742074 0)
(0.458554 0.76514 0)
(0.439685 0.775611 0)
(0.40375 0.772673 0)
(0.349155 0.75776 0)
(0.294085 0.733395 0)
(0.229752 0.749945 0)
(0.100587 0.799403 0)
(0.0684158 1.18431 0)
(0.115169 0.68332 0)
(0.0605273 0.568437 0)
(-0.0602087 0.726347 0)
(-0.127186 0.98196 0)
(-0.0605728 1.17548 0)
(0.113553 1.30797 0)
(0.302017 1.33055 0)
(0.386169 1.2541 0)
(0.352681 1.13064 0)
(0.294086 1.01799 0)
(0.314804 0.986108 0)
(0.42513 0.984465 0)
(0.524588 0.808398 0)
(0.558515 0.641457 0)
(0.579304 0.574409 0)
(0.585783 0.546111 0)
(0.576853 0.539762 0)
(0.557559 0.571558 0)
(0.533521 0.647778 0)
(0.520425 0.711861 0)
(0.540161 0.736478 0)
(0.55185 0.762183 0)
(0.552207 0.781329 0)
(0.54137 0.790551 0)
(0.512907 0.795478 0)
(0.458233 0.778404 0)
(0.408979 0.736925 0)
(0.362039 0.788256 0)
(0.198379 0.932426 0)
(0.0725172 1.09775 0)
(0.154149 0.660837 0)
(0.151761 0.627076 0)
(0.104638 0.81538 0)
(0.0882154 1.02625 0)
(0.128125 1.20005 0)
(0.210351 1.3356 0)
(0.308863 1.36659 0)
(0.357677 1.31927 0)
(0.334505 1.23583 0)
(0.289669 1.05413 0)
(0.291775 0.94307 0)
(0.365966 0.888344 0)
(0.481071 0.765945 0)
(0.526264 0.629692 0)
(0.555752 0.564877 0)
(0.568492 0.536549 0)
(0.56313 0.536116 0)
(0.545991 0.576695 0)
(0.546353 0.663703 0)
(0.565812 0.709945 0)
(0.598919 0.731507 0)
(0.620564 0.749829 0)
(0.634294 0.759378 0)
(0.641683 0.759401 0)
(0.655142 0.757199 0)
(0.693253 0.752221 0)
(0.741733 0.717822 0)
(0.692969 0.764651 0)
(0.358292 1.10259 0)
(0.121942 0.960567 0)
(0.201417 0.616878 0)
(0.223213 0.682632 0)
(0.193907 0.874141 0)
(0.1704 1.06913 0)
(0.168998 1.229 0)
(0.195255 1.33478 0)
(0.235495 1.3514 0)
(0.270939 1.31989 0)
(0.287138 1.27475 0)
(0.290887 1.08456 0)
(0.282696 0.92364 0)
(0.321396 0.818023 0)
(0.412907 0.702196 0)
(0.477969 0.599824 0)
(0.519574 0.544159 0)
(0.542161 0.521141 0)
(0.545148 0.528705 0)
(0.538882 0.576842 0)
(0.557984 0.650907 0)
(0.592746 0.689567 0)
(0.628874 0.707816 0)
(0.657231 0.707294 0)
(0.690444 0.70201 0)
(0.726321 0.687919 0)
(0.766462 0.665477 0)
(0.804541 0.618087 0)
(0.79135 0.573282 0)
(0.664104 0.880541 0)
(0.313178 1.70581 0)
(0.121156 0.824504 0)
(0.211457 0.599098 0)
(0.246777 0.717558 0)
(0.221879 0.948153 0)
(0.156647 1.15005 0)
(0.114326 1.2544 0)
(0.114098 1.31195 0)
(0.138356 1.31106 0)
(0.180624 1.27743 0)
(0.226567 1.24615 0)
(0.286465 1.08419 0)
(0.276124 0.924491 0)
(0.275592 0.770452 0)
(0.339276 0.632239 0)
(0.419325 0.547727 0)
(0.478048 0.507957 0)
(0.514195 0.495918 0)
(0.528334 0.514351 0)
(0.533986 0.567222 0)
(0.557569 0.626704 0)
(0.590781 0.658301 0)
(0.617802 0.673851 0)
(0.636446 0.652786 0)
(0.665963 0.620746 0)
(0.698872 0.608334 0)
(0.73801 0.60103 0)
(0.750195 0.503669 0)
(0.668663 0.68577 0)
(0.363801 1.25509 0)
(0.0429695 1.96757 0)
(0.0967216 0.715439 0)
(0.213631 0.548257 0)
(0.302502 0.746205 0)
(0.267308 1.06201 0)
(0.0847779 1.2966 0)
(-0.0463933 1.26768 0)
(-0.028091 1.25986 0)
(0.0507453 1.24281 0)
(0.140738 1.20446 0)
(0.215093 1.18436 0)
(0.244837 1.13303 0)
(0.230395 0.966582 0)
(0.207758 0.730081 0)
(0.266786 0.546066 0)
(0.363304 0.47484 0)
(0.440979 0.456028 0)
(0.491903 0.460415 0)
(0.515286 0.493569 0)
(0.527305 0.551951 0)
(0.540504 0.605821 0)
(0.559134 0.631628 0)
(0.57844 0.640448 0)
(0.57476 0.624826 0)
(0.583671 0.645092 0)
(0.675176 0.553933 0)
(0.75261 0.471799 0)
(0.699607 0.677592 0)
(0.391256 0.976079 0)
(0.0723728 1.32579 0)
(-0.0444847 1.7795 0)
(0.0978562 0.598662 0)
(0.275353 0.457879 0)
(0.386077 0.745651 0)
(0.248299 1.17771 0)
(-0.0258416 1.34688 0)
(-0.1838 1.27611 0)
(-0.121694 1.25253 0)
(0.00351408 1.22214 0)
(0.111775 1.186 0)
(0.178016 1.19439 0)
(0.117022 1.03595 0)
(0.074873 0.955807 0)
(0.130843 0.674528 0)
(0.210013 0.433522 0)
(0.327764 0.386498 0)
(0.422417 0.393651 0)
(0.480856 0.417797 0)
(0.508689 0.468302 0)
(0.525445 0.535696 0)
(0.527741 0.595488 0)
(0.472516 0.67786 0)
(0.472469 0.760659 0)
(0.591294 0.653704 0)
(0.727758 0.435685 0)
(0.877591 0.438027 0)
(0.831546 0.604207 0)
(0.594874 0.7974 0)
(0.323594 1.0792 0)
(0.0912758 1.39394 0)
(-0.0110311 1.72984 0)
(0.1415 0.429991 0)
(0.358882 0.295016 0)
(0.446695 0.666137 0)
(0.326065 1.2232 0)
(0.0965648 1.49636 0)
(-0.0490955 1.15517 0)
(-0.0957604 0.928741 0)
(-0.0644065 0.910878 0)
(-0.0113833 0.917101 0)
(-0.0599112 1.04724 0)
(-0.144452 1.11998 0)
(-0.160887 0.796691 0)
(0.056312 0.507406 0)
(0.198897 0.287868 0)
(0.322734 0.290246 0)
(0.421626 0.327562 0)
(0.480716 0.374006 0)
(0.51014 0.439462 0)
(0.516801 0.523752 0)
(0.534277 0.68603 0)
(0.567885 0.626147 0)
(0.688152 0.508237 0)
(0.84998 0.435164 0)
(0.965278 0.377441 0)
(0.945591 0.377826 0)
(0.823807 0.569769 0)
(0.61338 0.911224 0)
(0.385608 1.26336 0)
(0.182268 1.55862 0)
(0.0335607 1.79327 0)
(0.1672 0.191882 0)
(0.394022 0.025228 0)
(0.467016 0.72541 0)
(0.254533 1.37714 0)
(0.168462 1.42578 0)
(0.164343 1.27865 0)
(0.0658383 1.14967 0)
(-0.0568182 1.0852 0)
(-0.183312 1.10904 0)
(-0.303763 1.21952 0)
(-0.272027 1.00903 0)
(-0.129309 0.63275 0)
(0.131111 0.273052 0)
(0.249387 0.147266 0)
(0.344701 0.201015 0)
(0.435422 0.263935 0)
(0.486695 0.323417 0)
(0.510776 0.378497 0)
(0.603666 0.485603 0)
(0.698279 0.549263 0)
(0.79332 0.583975 0)
(0.855422 0.424783 0)
(0.911476 0.23899 0)
(0.932505 0.18808 0)
(0.894336 0.339501 0)
(0.781296 0.684106 0)
(0.604755 1.10698 0)
(0.410343 1.47429 0)
(0.228071 1.74736 0)
(0.0740284 1.92945 0)
(0.113365 -0.0440241 0)
(0.195786 -0.179039 0)
(0.230679 0.811516 0)
(0.104231 1.25681 0)
(0.103291 1.23414 0)
(0.108811 1.1352 0)
(0.0494857 1.06603 0)
(-0.0504901 1.0315 0)
(-0.167377 1.04598 0)
(-0.242952 1.07741 0)
(-0.174751 0.752402 0)
(-0.0049942 0.301354 0)
(0.210941 0.103841 0)
(0.288206 0.0614046 0)
(0.365185 0.128042 0)
(0.443697 0.198118 0)
(0.48143 0.246973 0)
(0.605566 0.332892 0)
(0.711704 0.379768 0)
(0.717326 0.432894 0)
(0.735564 0.316812 0)
(0.801212 0.188626 0)
(0.842075 0.122308 0)
(0.83927 0.179431 0)
(0.793942 0.41422 0)
(0.690617 0.822026 0)
(0.544013 1.27397 0)
(0.382958 1.64896 0)
(0.224797 1.9149 0)
(0.0808341 2.07835 0)
(0.0673157 -0.160922 0)
(0.065539 -0.250358 0)
(0.0571422 0.797576 0)
(0.0138941 1.22327 0)
(0.0262516 1.19655 0)
(0.0196357 1.12156 0)
(-0.00889038 1.08034 0)
(-0.0556359 1.04875 0)
(-0.106495 1.05215 0)
(-0.124189 1.03436 0)
(-0.0474788 0.618485 0)
(0.0731867 0.0990142 0)
(0.238527 0.0162801 0)
(0.295602 0.00435419 0)
(0.368117 0.0645367 0)
(0.425236 0.126039 0)
(0.503475 0.155036 0)
(0.607955 0.136449 0)
(0.669353 0.284289 0)
(0.621429 0.265865 0)
(0.666204 0.204051 0)
(0.718432 0.132559 0)
(0.740085 0.110304 0)
(0.725106 0.206645 0)
(0.675234 0.487792 0)
(0.584709 0.931082 0)
(0.464945 1.40363 0)
(0.335422 1.78983 0)
(0.202576 2.05862 0)
(0.0756226 2.21636 0)
(0.0512853 -0.213159 0)
(0.00955371 -0.235529 0)
(-0.0479412 0.828238 0)
(-0.0531239 1.21749 0)
(-0.0372802 1.1867 0)
(-0.0426485 1.13329 0)
(-0.0501521 1.10066 0)
(-0.0615438 1.06921 0)
(-0.068402 1.06655 0)
(-0.047853 1.00261 0)
(0.0428401 0.546111 0)
(0.108056 -0.027971 0)
(0.240996 -0.0412198 0)
(0.290839 -0.0439168 0)
(0.35544 0.00331278 0)
(0.404007 0.0481709 0)
(0.520124 0.0503203 0)
(0.628031 0.0817354 0)
(0.580298 0.208649 0)
(0.561199 0.212646 0)
(0.602669 0.162759 0)
(0.633725 0.106805 0)
(0.638369 0.107113 0)
(0.614623 0.231665 0)
(0.562118 0.546676 0)
(0.482386 1.01515 0)
(0.387115 1.50498 0)
(0.285719 1.90525 0)
(0.176744 2.18239 0)
(0.066185 2.33859 0)
(0.0475122 -0.241208 0)
(-0.0282928 -0.142992 0)
(-0.132248 0.84835 0)
(-0.114049 1.19612 0)
(-0.0917702 1.16895 0)
(-0.0898917 1.13113 0)
(-0.0788981 1.10201 0)
(-0.0749389 1.06815 0)
(-0.0595102 1.04331 0)
(-0.0140804 0.940064 0)
(0.0867467 0.465408 0)
(0.119689 -0.111296 0)
(0.238061 -0.0881028 0)
(0.285775 -0.0846548 0)
(0.339609 -0.0540239 0)
(0.381107 -0.0504903 0)
(0.487201 -0.0883262 0)
(0.591133 0.0426612 0)
(0.51103 0.177287 0)
(0.506609 0.18011 0)
(0.536831 0.133874 0)
(0.553247 0.0930983 0)
(0.545173 0.112818 0)
(0.51276 0.263938 0)
(0.45816 0.603962 0)
(0.388711 1.08427 0)
(0.315619 1.58296 0)
(0.239849 1.99676 0)
(0.153459 2.28669 0)
(0.0569657 2.44607 0)
(0.0380343 -0.257713 0)
(-0.0516767 -0.008781 0)
(-0.185873 0.874253 0)
(-0.16729 1.16949 0)
(-0.140395 1.14287 0)
(-0.128523 1.11147 0)
(-0.106876 1.07767 0)
(-0.092404 1.04712 0)
(-0.0676537 1.0036 0)
(-0.0126875 0.866216 0)
(0.0934004 0.39432 0)
(0.112656 -0.166532 0)
(0.227667 -0.133339 0)
(0.27419 -0.119013 0)
(0.316618 -0.102605 0)
(0.368637 -0.115558 0)
(0.421728 -0.187713 0)
(0.504875 0.0368289 0)
(0.435108 0.157235 0)
(0.443753 0.157821 0)
(0.46765 0.117748 0)
(0.472732 0.0886755 0)
(0.455858 0.126498 0)
(0.41784 0.301091 0)
(0.3622 0.655487 0)
(0.303553 1.13807 0)
(0.251538 1.64004 0)
(0.198724 2.06608 0)
(0.133883 2.37307 0)
(0.0493354 2.54049 0)
(0.0237497 -0.256415 0)
(-0.0660013 0.139541 0)
(-0.218168 0.918109 0)
(-0.206794 1.13867 0)
(-0.180972 1.11273 0)
(-0.158084 1.09078 0)
(-0.136496 1.04905 0)
(-0.114967 1.01481 0)
(-0.0859624 0.959551 0)
(-0.0244059 0.786963 0)
(0.0777039 0.325975 0)
(0.0926876 -0.209115 0)