/*--------------------------------*- C++ -*----------------------------------*\
| =========                 |                                                 |
| \\      /  F ield         | OpenFOAM: The Open Source CFD Toolbox           |
|  \\    /   O peration     | Version:  2.3.0                                 |
|   \\  /    A nd           | Web:      www.OpenFOAM.org                      |
|    \\/     M anipulation  |                                                 |
\*---------------------------------------------------------------------------*/
FoamFile
{
    version     2.0;
    format      ascii;
    class       volScalarField;
    location    "0.322";
    object      alpha.water;
}
// * * * * * * * * * * * * * * * * * * * * * * * * * * * * * * * * * * * * * //

dimensions      [0 0 0 0 0 0 0];

internalField   nonuniform List<scalar> 
545
(
1
1
1
1
1
1
1
1
1
1
1
1
1
1
1
1
1
1
1
1
1
1
1
1
1
1
1
1
1
1
1
1
1
1
1
1
1
1
1
1
1
1
1
1
1
1
1
1
1
1
1
1
1
1
1
1
1
1
1
1
1
1
1
1
1
1
1
1
1
1
1
1
1
1
1
1
1
1
1
1
1
1
1
1
1
1
1
1
1
1
1
1
1
1
1
1
1
1
1
1
1
1
1
1
1
1
1
1
1
1
1
1
1
1
1
1
1
1
1
0.999999
0.999999
0.999999
0.999999
0.999999
0.999999
0.999999
0.999999
0.999999
0.999999
0.999999
0.999999
0.999999
0.999999
0.999999
0.999999
0.999999
0.999999
0.999999
0.999999
0.999999
0.999999
0.999999
0.999999
0.999999
0.999999
0.999999
0.999999
0.999999
0.999999
0.999999
0.999999
0.999999
0.999999
0.999999
0.999999
0.999999
0.999999
0.999999
0.999999
0.999999
1
1
0.999986
0.999959
0.999947
0.999945
0.999945
0.999944
0.999942
0.99994
0.999938
0.999937
0.999937
0.999937
0.999938
0.999938
0.999938
0.999938
0.999938
0.999938
0.999938
0.999938
0.999938
0.999938
0.999938
0.999938
0.999938
0.999938
0.999938
0.999938
0.999938
0.999938
0.999938
0.999938
0.999938
0.999938
0.999938
0.999938
0.999938
0.999938
0.999938
0.999938
0.999938
0.999938
0.999938
1
1
0.998193
0.996013
0.995104
0.995743
0.996167
0.996174
0.995946
0.995652
0.995412
0.995267
0.995221
0.995241
0.995293
0.995346
0.995384
0.9954
0.995402
0.99539
0.995376
0.995362
0.995352
0.995344
0.995342
0.99534
0.995343
0.995343
0.995342
0.995336
0.995331
0.995323
0.995319
0.995315
0.995316
0.995316
0.995317
0.995314
0.995308
0.995297
0.995292
0.995284
0.995282
0.99528
0.995282
0.25668
0.52815
0.390678
0.39104
0.391576
0.648831
0.996333
0.953769
0.549014
0.511504
0.507223
0.507217
0.507221
0.65014
0.979162
0.835829
0.501543
0.504345
0.501185
0.522
0.493239
0.534491
0.846791
0.666797
0.640597
0.640591
0.640617
0.848359
0.995433
0.75713
0.41935
0.429507
0.503127
0.480501
0.480696
0.608886
0.967697
0.995439
0.808936
0.447732
0.447704
0.442843
0.447517
0.453432
0.615039
1
1
1
1
1
1
1
1
1
1
1
1
1
1
1
1
1
1
1
1
1
1
1
1
1
1
1
0.998189
0.996007
0.995108
0.995756
0.996181
0.996189
0.995954
0.99566
0.995412
0.995266
0.995215
0.995235
0.995285
0.995337
0.995372
0.995392
0.995391
0.995383
0.995367
0.995357
0.995346
0.99534
0.995335
0.995336
0.995335
0.995337
0.995334
0.995327
0.995317
0.99531
0.995301
0.995299
0.995296
0.9953
0.9953
0.995298
0.995289
0.995281
0.99527
0.995264
0.995257
0.995258
0.995255
1
1
0.999986
0.999959
0.999947
0.999945
0.999945
0.999944
0.999942
0.99994
0.999938
0.999937
0.999937
0.999937
0.999937
0.999938
0.999938
0.999938
0.999938
0.999938
0.999938
0.999938
0.999938
0.999938
0.999938
0.999938
0.999938
0.999938
0.999938
0.999938
0.999938
0.999938
0.999938
0.999938
0.999938
0.999938
0.999938
0.999938
0.999938
0.999938
0.999938
0.999938
0.999938
0.999938
0.999938
1
1
1
1
0.999999
0.999999
0.999999
0.999999
0.999999
0.999999
0.999999
0.999999
0.999999
0.999999
0.999999
0.999999
0.999999
0.999999
0.999999
0.999999
0.999999
0.999999
0.999999
0.999999
0.999999
0.999999
0.999999
0.999999
0.999999
0.999999
0.999999
0.999999
0.999999
0.999999
0.999999
0.999999
0.999999
0.999999
0.999999
0.999999
0.999999
0.999999
0.999999
0.999999
0.999999
1
1
1
1
1
1
1
1
1
1
1
1
1
1
1
1
1
1
1
1
1
1
1
1
1
1
1
1
1
1
1
1
1
1
1
1
1
1
1
1
1
1
1
1
1
1
1
1
1
1
1
1
1
1
1
1
1
1
1
1
1
1
1
1
1
1
1
1
1
1
1
1
1
1
1
1
1
1
1
1
1
1
1
1
1
1
1
1
1
1
)
;

boundaryField
{
    AirInlet
    {
        type            fixedValue;
        value           uniform 0;
    }
    WaterInlet
    {
        type            fixedValue;
        value           uniform 1;
    }
    ChannelWall
    {
        type            zeroGradient;
    }
    Outlet
    {
        type            inletOutlet;
        inletValue      uniform 0;
        value           nonuniform List<scalar> 
11
(
1
1
0.999999
0.999938
0.995282
0.615039
0.995255
0.999938
0.999999
1
1
)
;
    }
    FrontAndBack
    {
        type            empty;
    }
}


// ************************************************************************* //
