/*--------------------------------*- C++ -*----------------------------------*\
| =========                 |                                                 |
| \\      /  F ield         | OpenFOAM: The Open Source CFD Toolbox           |
|  \\    /   O peration     | Version:  2.3.0                                 |
|   \\  /    A nd           | Web:      www.OpenFOAM.org                      |
|    \\/     M anipulation  |                                                 |
\*---------------------------------------------------------------------------*/
FoamFile
{
    version     2.0;
    format      ascii;
    class       volVectorField;
    location    "3.89999";
    object      U;
}
// * * * * * * * * * * * * * * * * * * * * * * * * * * * * * * * * * * * * * //

dimensions      [0 1 -1 0 0 0 0];

internalField   nonuniform List<vector> 
10000
(
(-0.216454 -1.03799 -0.571271)
(0.0361441 -0.963624 -0.623854)
(0.0980989 -0.879336 -0.553429)
(0.153917 -0.583314 -0.33281)
(0.179966 -0.352756 -0.175918)
(0.224084 -0.260793 -0.352502)
(0.236195 -0.178729 -0.295063)
(0.0802853 -0.130611 -0.31156)
(0.0125151 -0.128369 -0.349569)
(0.000498044 -0.0821431 -0.358825)
(0.0302653 -0.122172 -0.380274)
(-0.0358207 -0.198606 -0.277944)
(-0.137494 -0.268154 -0.189345)
(-0.198212 -0.187125 -0.168462)
(-0.237134 -0.228513 -0.280802)
(-0.309794 -0.388124 -0.397544)
(-0.158693 -0.741081 -0.39945)
(-0.164364 -1.00727 -0.643181)
(-0.037388 -1.49671 -0.792222)
(0.288972 -1.26964 -0.693492)
(0.0160637 -1.22379 -0.0606486)
(0.014635 -0.914739 -0.0668417)
(-0.00556866 -0.856206 -0.0702734)
(0.00127308 -0.482756 -0.00965784)
(0.00754621 -0.230697 -0.128295)
(0.123018 -0.0348357 -0.919927)
(0.0225746 -0.0543796 -0.472546)
(-0.00256461 -0.0857166 -0.397083)
(0.00363336 -0.1233 -0.351069)
(-0.00203452 0.0104509 -0.356277)
(0.0981115 -0.15854 -0.435993)
(0.0196167 -0.0641488 -0.513854)
(0.00433053 -0.069387 -0.250692)
(-0.00400174 -0.0833633 -0.205431)
(-0.0348381 -0.0568034 -0.517659)
(-0.0840684 -0.0826931 -0.716325)
(0.0251122 -0.719142 -0.047689)
(-0.0160448 -0.991282 -0.0672164)
(-0.00324339 -1.74852 -0.111482)
(-0.00509091 -1.45408 -0.102534)
(0.00917276 -1.32218 -0.0358126)
(0.0268087 -0.883239 -0.00626584)
(-0.00169974 -0.524727 0.0287353)
(-0.01182 -0.473911 -0.00937327)
(0.00290385 -0.252692 -0.104732)
(0.003094 -0.133975 -0.204264)
(0.00137786 -0.110491 -0.217057)
(0.00146821 -0.100793 -0.240266)
(-0.0017211 -0.106317 -0.226594)
(0.00333509 -0.141717 -0.172456)
(0.00222905 -0.103777 -0.222898)
(-0.0031242 -0.10775 -0.199644)
(0.00068206 -0.112262 -0.200859)
(-0.0010048 -0.0870945 -0.203479)
(-0.00733237 -0.15294 -0.178831)
(-0.0055682 -0.239934 -0.1294)
(0.0226458 -0.677524 -0.0339455)
(-0.0233199 -1.00653 -0.0163737)
(-0.00660062 -1.85272 -0.0257422)
(0.0136604 -1.53448 -0.0368766)
(0.00952833 -1.33186 -0.0699901)
(0.0187075 -0.790237 0.00204096)
(0.000418869 -0.166058 0.09356)
(-0.0160762 -0.329983 0.00348777)
(-0.00211346 -0.248496 -0.106089)
(-0.00192305 -0.108443 -0.22411)
(-0.000166182 -0.0986143 -0.243114)
(-0.000150878 -0.101015 -0.243887)
(0.00101168 -0.110221 -0.223472)
(-0.00061495 -0.110107 -0.216661)
(-0.00146515 -0.0987419 -0.256381)
(0.000468381 -0.101004 -0.243617)
(-0.00015841 -0.099009 -0.260353)
(0.00135666 -0.096939 -0.256095)
(-0.00240481 -0.108205 -0.22198)
(0.00547276 -0.239322 -0.119978)
(0.00890718 -0.357306 0.0279003)
(-0.0281096 -0.863362 0.029021)
(0.00330392 -1.88126 -0.0197526)
(0.0255016 -1.52286 -0.0136256)
(-0.00278487 -1.27405 -0.0873571)
(-0.0164136 -0.989117 -0.00885753)
(0.00528447 -0.180681 0.0527572)
(-0.0133795 -0.350731 0.00407317)
(0.000748837 -0.242965 -0.104681)
(-0.00277179 -0.117623 -0.20798)
(-8.26058e-05 -0.104204 -0.234212)
(-0.000239404 -0.100463 -0.240714)
(-4.6446e-05 -0.109353 -0.224016)
(0.000218955 -0.113636 -0.21687)
(-2.71679e-05 -0.10596 -0.231253)
(-0.000218294 -0.106146 -0.228246)
(-4.44248e-05 -0.102784 -0.238105)
(0.00033825 -0.0952783 -0.255415)
(-5.1179e-05 -0.117206 -0.213202)
(0.00485416 -0.261614 -0.1045)
(-0.0100336 -0.300495 0.029681)
(-0.0167788 -0.972791 0.0266852)
(0.00627566 -1.87973 -0.037034)
(0.0193968 -1.47504 -0.0106333)
(-0.00123215 -0.985788 -0.0150258)
(-0.0419498 -1.05585 -0.0119408)
(0.00465874 -0.453825 -0.0149792)
(-0.00605235 -0.290196 0.0137539)
(-0.000752468 -0.231313 -0.109887)
(-0.00313646 -0.113826 -0.217053)
(0.000166164 -0.10284 -0.238874)
(-0.000364421 -0.101281 -0.241178)
(-0.000181977 -0.111162 -0.220273)
(8.65217e-05 -0.112072 -0.219482)
(-9.26366e-05 -0.102221 -0.239607)
(-5.54551e-05 -0.106356 -0.233675)
(6.66206e-05 -0.103254 -0.239284)
(0.000601828 -0.0975814 -0.25096)
(0.00266495 -0.110658 -0.219837)
(0.00437143 -0.261067 -0.100643)
(-0.0120362 -0.341771 0.0161611)
(0.0100597 -1.15734 -0.00413182)
(0.00187273 -1.7974 -0.0377135)
(-0.00548376 -1.37321 -0.00940709)
(0.000247785 -0.547131 0.0525363)
(-0.0367556 -1.07726 -0.00952882)
(-0.00708983 -0.931873 -0.0401866)
(0.00118843 -0.276903 0.0154927)
(0.0015433 -0.223675 -0.1109)
(-0.00397485 -0.117635 -0.208411)
(0.000352638 -0.103098 -0.236986)
(-0.000273605 -0.0998441 -0.241668)
(-0.000360265 -0.111701 -0.214511)
(-0.000200388 -0.113395 -0.211975)
(-7.34042e-05 -0.10403 -0.23062)
(7.24629e-05 -0.106164 -0.22114)
(0.000259392 -0.10302 -0.226283)
(0.000274649 -0.0977192 -0.241245)
(0.00385747 -0.113067 -0.21897)
(0.000669007 -0.259722 -0.0965312)
(-0.00705778 -0.384339 0.0142439)
(0.00928063 -1.13482 -0.0248149)
(-0.00694238 -1.63955 -0.000269156)
(-0.0115309 -1.28063 0.00207513)
(-0.00212636 -0.606082 0.0139189)
(-0.00605558 -1.07891 -0.0238652)
(-0.0130919 -1.11779 -0.00952778)
(0.000224576 -0.260297 0.0137054)
(0.00233389 -0.18954 -0.115286)
(-0.00135095 -0.113886 -0.195546)
(0.000458916 -0.102137 -0.222704)
(0.000154792 -0.0997137 -0.2302)
(-0.000447576 -0.111388 -0.202205)
(-0.000246899 -0.113697 -0.196817)
(0.00010099 -0.105919 -0.214494)
(0.000226123 -0.110364 -0.207993)
(0.00014592 -0.107441 -0.215939)
(-0.000504818 -0.101505 -0.230289)
(0.000149147 -0.110888 -0.208807)
(-0.00277272 -0.226836 -0.0880183)
(0.0073566 -0.315257 0.0251818)
(0.0262748 -0.980282 -0.0168572)
(-0.0161076 -1.61175 -0.00605164)
(-0.0174643 -1.29915 0.0203072)
(-0.00296978 -0.983529 -0.0285841)
(0.0195326 -1.04241 -0.0273771)
(-0.0148317 -1.14617 -0.0402193)
(0.00151758 -0.267231 0.00907943)
(0.00206937 -0.142149 -0.0770491)
(-0.000593595 -0.0862863 -0.141797)
(0.00106824 -0.0778909 -0.157725)
(3.24849e-05 -0.0722478 -0.164082)
(-0.001446 -0.0769975 -0.144592)
(0.000137 -0.0802811 -0.135278)
(0.000170105 -0.0764614 -0.150343)
(-1.29902e-05 -0.0767495 -0.147084)
(0.000655797 -0.074018 -0.157326)
(-0.000941126 -0.0714073 -0.173696)
(0.00025579 -0.0801269 -0.150274)
(-0.00129161 -0.157625 -0.0496521)
(0.00738277 -0.296312 0.0125994)
(0.0102282 -0.936259 -0.0117675)
(-0.00461138 -1.46752 0.0208303)
(-0.000699988 -1.49771 -0.00751473)
(0.00582896 -1.10024 -0.0241095)
(0.0114701 -0.95873 -0.0136145)
(-0.0162057 -1.13388 -0.0724155)
(0.0054689 -0.363415 -0.00345105)
(0.00134398 -0.0589982 0.00713827)
(0.000469228 -0.0338114 0.00460423)
(0.000478338 -0.0321585 0.00510887)
(0.000214073 -0.0206289 0.00522676)
(2.0696e-05 -0.0301908 0.00586944)
(-0.000297589 -0.0334921 0.00608499)
(0.000138499 -0.0317898 0.0046768)
(0.000431591 -0.0354312 0.00553899)
(5.70587e-05 -0.032823 0.00545652)
(-0.000384719 -0.0316724 0.00517684)
(-0.000796111 -0.0367662 0.00505217)
(-0.00242532 -0.0557805 0.0110434)
(0.0023037 -0.388438 -0.00815796)
(-0.0103469 -0.916206 -0.0177968)
(0.000823908 -1.46747 0.0320938)
(0.0174325 -1.49679 -0.0268111)
(0.0132356 -1.10918 -0.0246224)
(-0.00415422 -0.883326 -0.014543)
(-0.0117191 -1.11177 -0.0836066)
(0.00330638 -0.470318 -0.0158)
(0.000778743 -0.114168 -0.00162987)
(-0.000750668 -0.0596169 -0.00282403)
(-0.000105824 -0.0429901 -0.00300621)
(0.000102214 -0.0340813 -0.00163981)
(3.41213e-05 -0.0329312 -0.00110846)
(0.000361896 -0.0355888 -0.000642918)
(0.00017025 -0.0439599 1.33596e-05)
(-9.55845e-05 -0.0335564 0.000572494)
(6.7756e-05 -0.0306124 0.000874026)
(-0.000246896 -0.0304297 0.000789656)
(-0.000314984 -0.0431881 -0.0002326)
(-0.00175416 -0.104762 -0.00189132)
(0.0068254 -0.454468 -0.0160539)
(0.00937818 -0.804279 -9.28334e-05)
(-0.00635425 -1.71178 -0.0057387)
(0.01393 -1.4556 -0.0223297)
(0.015574 -1.08357 -0.0357253)
(-0.00716867 -0.835683 -0.00826274)
(-0.00169659 -1.0647 -0.0480953)
(0.00166288 -0.547922 -0.0124268)
(0.00159251 -0.0709309 0.000497068)
(-0.000520162 -0.0717471 -0.000357448)
(-0.000321342 -0.0720457 -0.00315901)
(-1.60028e-05 -0.0452909 -0.00135878)
(7.35259e-05 -0.0503521 -0.00216279)
(8.93375e-05 -0.0494992 -0.00171785)
(2.13586e-06 -0.0356394 0.000729632)
(-0.000112125 -0.0403593 -0.000604346)
(3.81297e-06 -0.0344542 -0.000370259)
(-0.000215884 -0.0342257 -0.000370181)
(3.51359e-05 -0.0485382 -0.00134161)
(-0.00108129 -0.114636 -0.000467302)
(0.010492 -0.504487 -0.0157311)
(0.0132615 -0.67906 0.0179919)
(-0.00655414 -1.64917 -0.0206429)
(0.0149041 -1.39197 -0.0172415)
(0.0073036 -1.00562 -0.0256477)
(-0.00338688 -0.698983 0.0140794)
(0.00977148 -0.907183 0.00129379)
(-0.000300183 -0.583712 -0.00486079)
(0.00239399 -0.0964042 -0.000239478)
(0.000535981 -0.0512404 0.00127332)
(-3.43024e-05 -0.0575089 0.000860603)
(-4.19881e-05 -0.0436408 -3.1979e-05)
(0.00024048 -0.044562 0.000325096)
(-0.000327822 -0.0428151 0.000481731)
(3.39354e-05 -0.0349782 0.00048806)
(-4.91779e-05 -0.0346252 0.000495074)
(-0.000398494 -0.0299955 0.000279887)
(-0.000132967 -0.0300242 8.41999e-05)
(0.00034048 -0.0496422 -0.000258191)
(-0.00116937 -0.0885458 0.00148875)
(0.00577346 -0.537988 -0.0157594)
(-0.0144577 -0.652055 0.0250703)
(0.00109655 -1.578 0.0141231)
(0.0391057 -1.34841 -0.0189192)
(-0.0013728 -0.771343 0.00994863)
(-0.0121325 -0.670638 0.0210986)
(0.00607376 -0.879885 0.00620311)
(0.0067476 -0.536974 0.000943263)
(0.00202124 -0.089776 -0.000708968)
(0.000337451 -0.0479578 0.000775136)
(2.88211e-05 -0.0541166 0.00136378)
(-3.697e-05 -0.0408593 0.000705676)
(4.21129e-05 -0.0422398 0.000844719)
(1.11112e-05 -0.0403824 0.000813633)
(-0.000362298 -0.031399 0.000734033)
(-0.000477541 -0.0323264 0.000415996)
(-0.000171959 -0.0315945 -1.70662e-05)
(0.000235539 -0.0340709 -0.000938722)
(0.000612951 -0.0499649 -0.000805287)
(0.0012194 -0.0903827 -4.54657e-05)
(0.00158349 -0.527379 -0.00528029)
(-0.0336462 -0.650585 0.0275627)
(0.0112352 -1.72524 0.0398545)
(0.0297126 -1.31731 -0.026395)
(-0.000646682 -0.688295 0.0226923)
(-0.0122134 -0.666641 0.0117104)
(0.00428618 -1.12082 -0.000399144)
(0.0173671 -0.587109 -0.00292201)
(0.00158003 -0.10135 -0.00209901)
(0.000390491 -0.0443543 0.000701245)
(-1.26561e-05 -0.0485334 0.00112095)
(-0.000498227 -0.0377462 0.000427054)
(-0.000394971 -0.0382976 0.000278142)
(0.000191266 -0.0363495 0.000269582)
(-7.77229e-05 -0.0274234 0.000596813)
(-3.87148e-05 -0.0338423 -0.000298643)
(8.67989e-05 -0.0331691 -0.00118241)
(0.000260194 -0.042333 -0.00286912)
(0.000721968 -0.0588936 -0.00229246)
(0.00356907 -0.101754 -0.000415768)
(-0.00105196 -0.370163 0.0119684)
(-0.0301141 -0.629625 0.0316113)
(0.0140851 -2.03095 0.00492242)
(0.0300839 -1.27888 -0.0219694)
(0.00100404 -0.700608 0.0157271)
(0.00401729 -0.65818 0.00371209)
(0.00449152 -1.15068 -0.0142183)
(0.0103389 -0.568002 -0.00696303)
(-0.00148704 -0.095745 -0.000149545)
(-3.16755e-05 -0.0414213 0.000743213)
(-5.38363e-05 -0.0459055 0.000526539)
(-0.000666558 -0.0368678 3.72903e-06)
(-0.00055761 -0.0447779 -0.00151027)
(0.000101968 -0.0422541 -0.00185198)
(0.000216183 -0.0272027 -0.000168141)
(0.000111079 -0.0379173 -0.001797)
(0.000465566 -0.0435308 -0.00250728)
(0.000959403 -0.0628119 -0.00213554)
(0.000296998 -0.075743 -0.0006681)
(0.00284492 -0.0915396 -4.74496e-05)
(-0.0017659 -0.292418 0.0271588)
(-0.00893801 -0.603257 0.0300163)
(0.0111957 -2.0876 -0.037468)
(0.0157301 -1.10292 -0.00186111)
(-0.00758895 -0.709287 0.00540205)
(0.0112655 -0.650422 0.00131972)
(0.000919667 -1.15913 -0.0224743)
(-0.00549388 -0.559003 -0.00635581)
(-0.000717504 -0.0789163 0.00371777)
(-0.00035331 -0.0404988 0.000396474)
(0.000234804 -0.0443209 0.000348141)
(-5.60658e-05 -0.0372445 8.24858e-05)
(0.000190613 -0.0571229 -0.00140674)
(-0.000490532 -0.0582022 -0.00195645)
(4.3348e-05 -0.0313884 -0.000722524)
(0.000473459 -0.0517166 -0.00131504)
(0.000414541 -0.058573 -0.00115218)
(0.000459721 -0.054328 0.000430076)
(-0.00043927 -0.0576136 0.00136088)
(0.00150219 -0.0951342 -0.000435363)
(-0.00544196 -0.295754 0.0219614)
(0.0164433 -0.720155 0.002466)
(0.00160341 -2.11009 -0.0465899)
(-0.0115263 -0.929779 0.0136599)
(-0.0114945 -0.63881 0.000976907)
(0.00698989 -0.541326 0.00797142)
(-0.00442435 -1.18776 -0.0160469)
(-0.0159228 -0.532565 0.00184145)
(0.00434076 -0.0595818 0.00539328)
(-0.000107677 -0.0437199 -0.000693282)
(7.62695e-05 -0.0431221 0.00156722)
(0.000228762 -0.0358916 0.000447597)
(0.000760627 -0.0500946 0.00157456)
(-0.00066447 -0.0521021 0.00152738)
(-0.000205779 -0.0364038 -0.000444524)
(0.000385819 -0.0454559 0.00147413)
(-0.000304872 -0.048388 0.00169178)
(-0.000492601 -0.0508582 0.00177742)
(-0.000193151 -0.0560515 0.00124898)
(0.000228711 -0.0965464 0.000402897)
(-0.00684767 -0.343617 0.0103388)
(0.0193898 -0.878989 -0.0288472)
(-0.00163347 -2.14925 -0.026433)
(-0.0163721 -0.745237 0.00935181)
(-0.0042598 -0.437204 0.00121829)
(0.00381178 -0.348264 0.00727679)
(-0.00275565 -1.20212 -0.00713779)
(-0.0159591 -0.638914 0.00340799)
(0.00420981 -0.0493698 0.00197928)
(-0.000420155 -0.0470472 -0.00129501)
(-0.000224644 -0.0358084 0.00111729)
(1.20187e-05 -0.037205 -0.000231)
(0.000197363 -0.041939 0.00121116)
(-0.000105187 -0.0431153 0.00162943)
(-0.000167957 -0.0378266 -0.00140264)
(-0.000195551 -0.0430387 -0.000795392)
(-5.86379e-05 -0.0477859 -0.00181075)
(-1.70838e-06 -0.0531115 -0.00284185)
(0.000657231 -0.0660941 -0.00476618)
(-0.0023714 -0.101716 0.000537323)
(0.00295913 -0.457806 -0.00168886)
(0.0109789 -0.807287 -0.0240068)
(0.000156246 -2.15526 -0.00838562)
(-0.00795097 -0.515709 0.00664932)
(-0.00218189 -0.297944 -0.0010474)
(0.00228996 -0.199374 0.00317966)
(0.000516736 -1.20384 -0.0018807)
(-0.00141313 -0.664767 -0.00472923)
(-0.0050755 -0.0502079 0.000316913)
(-7.21937e-05 -0.0462041 4.04978e-05)
(3.28299e-05 -0.0432655 -0.000341641)
(0.000143931 -0.0426667 -0.000512389)
(-9.2047e-05 -0.0530386 -0.000555308)
(0.000188096 -0.0516828 -0.000240012)
(0.000273815 -0.0521631 -0.00129098)
(0.000274879 -0.0683677 -0.00229604)
(0.000263413 -0.0844561 -0.00330328)
(0.000395988 -0.100431 -0.00417147)
(0.00106383 -0.129261 -0.00564677)
(-0.00129598 -0.119483 -0.000363886)
(0.0059178 -0.519344 -0.0155531)
(0.00286245 -0.742811 -0.00953374)
(-0.000519688 -2.15808 -0.00112517)
(-0.00534783 -0.286308 0.006393)
(-0.232944 -1.02797 -0.500869)
(0.0380256 -0.969482 -0.562222)
(0.106893 -0.875991 -0.486257)
(0.164194 -0.584629 -0.295801)
(0.189756 -0.352174 -0.156246)
(0.230147 -0.263042 -0.340836)
(0.246163 -0.175971 -0.275767)
(0.0801856 -0.126299 -0.292118)
(0.0163398 -0.124096 -0.33501)
(0.00108255 -0.0773462 -0.356033)
(0.0254594 -0.119515 -0.364856)
(-0.0372049 -0.195556 -0.259572)
(-0.135286 -0.266157 -0.181313)
(-0.19075 -0.186161 -0.15161)
(-0.233331 -0.222081 -0.263773)
(-0.316236 -0.386025 -0.382269)
(-0.171781 -0.7356 -0.353696)
(-0.176155 -1.0032 -0.573621)
(-0.0402256 -1.48115 -0.69128)
(0.307172 -1.2579 -0.614968)
(0.0146921 -1.21534 -0.0505297)
(0.0142906 -0.926549 -0.0684659)
(-0.00313604 -0.869199 -0.0784637)
(0.00297007 -0.496651 -0.0140007)
(0.00792499 -0.208129 -0.138262)
(0.121613 -0.030882 -0.926859)
(0.0200667 -0.0505366 -0.469593)
(-0.0029299 -0.0796565 -0.39777)
(0.00345814 -0.117251 -0.352339)
(-0.00201053 -0.000458469 -0.358456)
(0.0996961 -0.155425 -0.437575)
(0.0235425 -0.0569429 -0.515237)
(0.0063991 -0.0449991 -0.255034)
(-0.00548513 -0.0736622 -0.206573)
(-0.0460056 -0.0515146 -0.517352)
(-0.0879139 -0.0753902 -0.726425)
(0.0220296 -0.714956 -0.0520152)
(-0.0185971 -0.993208 -0.0653573)
(-0.00339781 -1.7445 -0.100239)
(-0.00287664 -1.44614 -0.093056)
(0.00873013 -1.32174 -0.0323213)
(0.0254386 -0.904562 -0.00539742)
(-0.00215101 -0.630568 0.00879573)
(-0.0101327 -0.503114 -0.0140028)
(0.00391949 -0.23977 -0.104709)
(0.00322469 -0.130749 -0.201095)
(0.00130563 -0.105312 -0.214806)
(0.00142831 -0.0943919 -0.239333)
(-0.000990944 -0.099356 -0.22736)
(0.00344052 -0.136477 -0.167025)
(0.00147041 -0.096639 -0.225541)
(-0.0030355 -0.100793 -0.197553)
(0.00069294 -0.105175 -0.199582)
(-0.00109454 -0.0788442 -0.202584)
(-0.00765076 -0.145587 -0.175801)
(-0.0062234 -0.232156 -0.124544)
(0.021366 -0.708249 -0.0454558)
(-0.023436 -1.02384 -0.0129954)
(-0.00746712 -1.85589 -0.0229193)
(0.0130288 -1.53734 -0.0353966)
(0.0101147 -1.33477 -0.0725002)
(0.0170515 -0.837276 0.00512771)
(0.00093314 -0.295331 0.0802287)
(-0.015603 -0.395784 0.000301781)
(-0.000992331 -0.235538 -0.107469)
(-0.00180552 -0.100986 -0.22508)
(-0.000158351 -0.0920055 -0.24351)
(-0.00019952 -0.0944941 -0.243962)
(0.00106793 -0.10313 -0.223302)
(-0.000655509 -0.103263 -0.217936)
(-0.00147974 -0.0923296 -0.256341)
(0.000475037 -0.0944565 -0.243745)
(-0.000173418 -0.0924195 -0.260898)
(0.00144416 -0.0907419 -0.255562)
(-0.00233952 -0.100623 -0.22396)
(0.00351475 -0.227677 -0.119824)
(0.0080788 -0.462198 0.0180251)
(-0.0291562 -0.932511 0.0336335)
(0.00250007 -1.88829 -0.0209517)
(0.0229974 -1.53005 -0.0164356)
(-0.00205779 -1.29414 -0.100504)
(-0.0150202 -0.999404 -0.00465702)
(0.00743939 -0.277481 0.0611445)
(-0.0126187 -0.407004 0.00285906)
(0.00114541 -0.232063 -0.106133)
(-0.00291168 -0.110165 -0.207654)
(-8.08531e-05 -0.0975518 -0.234129)
(-0.000249555 -0.0939534 -0.240702)
(-3.08981e-05 -0.102294 -0.223995)
(0.000229568 -0.106515 -0.216774)
(-3.25894e-05 -0.099223 -0.231053)
(-0.000223358 -0.099284 -0.227984)
(-3.42581e-05 -0.0961352 -0.237922)
(0.000363287 -0.0890493 -0.255382)
(0.000201811 -0.110067 -0.213337)
(0.00356214 -0.254287 -0.102887)
(-0.0160742 -0.396196 0.0301895)
(-0.0170083 -1.04105 0.0279353)
(0.00615713 -1.88884 -0.041423)
(0.0185651 -1.48879 -0.016286)
(-0.000972786 -1.04962 -0.0360514)
(-0.042058 -1.07546 -0.00832694)
(0.00472171 -0.478466 0.0101922)
(-0.00524818 -0.35623 0.0114736)
(-0.000660927 -0.220779 -0.111136)
(-0.0032062 -0.106421 -0.217086)
(0.000157481 -0.0961788 -0.23907)
(-0.000370162 -0.0947807 -0.241195)
(-0.000178745 -0.104044 -0.220185)
(8.66921e-05 -0.10485 -0.219504)
(-9.05891e-05 -0.0955894 -0.239696)
(-5.54941e-05 -0.0995904 -0.233685)
(7.27937e-05 -0.0967107 -0.239307)
(0.000583598 -0.0913478 -0.250974)
(0.00292959 -0.103396 -0.220243)
(0.00323234 -0.254931 -0.0998323)
(-0.0159295 -0.408653 0.0192219)
(0.00893687 -1.1703 -0.00665728)
(0.00324986 -1.81547 -0.0335647)
(-0.00775648 -1.40056 -0.00385284)
(0.000729599 -0.682109 0.044967)
(-0.0365396 -1.10237 -0.00839187)
(-0.00697123 -0.933677 -0.0162427)
(0.00258189 -0.34785 0.0141251)
(0.0012664 -0.214751 -0.112653)
(-0.00400868 -0.109907 -0.208349)
(0.000326441 -0.0962419 -0.237219)
(-0.000271082 -0.0931328 -0.241721)
(-0.000350893 -0.104283 -0.214517)
(-0.000204135 -0.105943 -0.211922)
(-7.41746e-05 -0.0971944 -0.230467)
(7.63922e-05 -0.0990871 -0.220976)
(0.000256543 -0.0960978 -0.226109)
(0.000246006 -0.0911909 -0.241245)
(0.00402125 -0.105713 -0.218971)
(0.000240239 -0.254452 -0.0974271)
(-0.00938964 -0.439859 0.0131723)
(0.00860246 -1.14705 -0.0314269)
(-0.00700537 -1.6881 -0.00471669)
(-0.0127497 -1.34054 0.0064877)
(-0.000827066 -0.679034 0.0236077)
(-0.00361739 -1.10475 -0.0248218)
(-0.0122328 -1.11238 -0.000383398)
(0.00154408 -0.330328 0.0127521)
(0.00244024 -0.182251 -0.118894)
(-0.00135335 -0.106456 -0.197161)
(0.000407942 -0.0954445 -0.224188)
(0.00015906 -0.093165 -0.231734)
(-0.000404249 -0.104188 -0.204178)
(-0.000254808 -0.10636 -0.198758)
(9.32282e-05 -0.0988741 -0.216156)
(0.000221544 -0.103177 -0.209729)
(0.000112548 -0.100399 -0.217613)
(-0.000536345 -0.0947381 -0.231858)
(-0.000121306 -0.103732 -0.210587)
(-0.00361948 -0.221961 -0.0927906)
(0.00772946 -0.383286 0.0208616)
(0.0286773 -0.995034 -0.023477)
(-0.0158639 -1.6324 -0.00437676)
(-0.0170872 -1.37476 0.0176477)
(-0.00272706 -0.99741 -0.0149314)
(0.0197531 -1.06321 -0.0314135)
(-0.0138191 -1.13579 -0.0392728)
(0.00227118 -0.328189 0.0106999)
(0.00263082 -0.13807 -0.0819441)
(-0.000583503 -0.0798099 -0.144512)
(0.00103099 -0.0719978 -0.160038)
(2.77821e-05 -0.0663766 -0.166793)
(-0.00144683 -0.0714312 -0.147256)
(0.000156704 -0.0746172 -0.13794)
(0.000170372 -0.0703078 -0.15282)
(-3.15538e-05 -0.0709268 -0.149527)
(0.000646038 -0.0682968 -0.159716)
(-0.000958702 -0.0657533 -0.175922)
(-0.000154779 -0.0740824 -0.152643)
(-0.00211694 -0.155307 -0.0565495)
(0.00792202 -0.3559 0.0127595)
(0.0113382 -0.95097 -0.0135014)
(-0.00486534 -1.53848 0.0234256)
(0.00397778 -1.53367 -0.0144806)
(0.00583626 -1.11997 -0.0195553)
(0.0104648 -0.973879 -0.0185176)
(-0.0151363 -1.11501 -0.0741501)
(0.00508368 -0.382388 0.0025557)
(0.00164514 -0.0744946 0.00627221)
(0.000524629 -0.0367314 0.00379425)
(0.000483841 -0.0358509 0.00407412)
(0.000198988 -0.0230483 0.00408917)
(4.12674e-06 -0.033564 0.00455292)
(-0.00028913 -0.0370613 0.00469972)
(0.000157585 -0.0349589 0.00378454)
(0.000447206 -0.0396578 0.00435815)
(6.86282e-05 -0.0369102 0.00430352)
(-0.000404024 -0.0359588 0.00411308)
(-0.000953254 -0.0410839 0.00397403)
(-0.00367021 -0.081738 0.00885128)
(0.00206693 -0.40597 -0.00342673)
(-0.0105274 -0.933981 -0.0186224)
(0.00121233 -1.57415 0.0228771)
(0.0210575 -1.53601 -0.0287155)
(0.0130694 -1.13361 -0.0243756)
(-0.00502454 -0.898754 -0.0179686)
(-0.0120333 -1.10919 -0.0857514)
(0.00368879 -0.473978 -0.00964988)
(0.000891993 -0.103623 -0.000993939)
(-0.000693657 -0.0547244 -0.00165531)
(-9.95544e-05 -0.0395106 -0.0018945)
(9.11457e-05 -0.0313451 -0.000967042)
(2.98332e-05 -0.0303198 -0.000610895)
(0.000334919 -0.0327684 -0.000264675)
(0.000147729 -0.0425583 0.000163862)
(-0.000114732 -0.032642 0.000552064)
(6.1383e-05 -0.0296203 0.000756259)
(-0.000214443 -0.029415 0.000709507)
(-0.000256372 -0.0397855 7.54824e-05)
(-0.00180494 -0.0955611 -0.00018988)
(0.00663092 -0.46324 -0.0124239)
(0.00927655 -0.862404 -0.00236285)
(-0.00655809 -1.72131 -0.00835304)
(0.0105347 -1.49093 -0.0274333)
(0.0153892 -1.11745 -0.0387403)
(-0.0072138 -0.853865 -0.0084842)
(-0.00229701 -1.08987 -0.0531534)
(0.00198261 -0.546919 -0.00840383)
(0.00186975 -0.0842205 -0.000137874)
(-0.000460015 -0.0660312 -0.000396274)
(-0.000291214 -0.0678419 -0.002467)
(-1.07269e-05 -0.0416437 -0.000903678)
(6.63579e-05 -0.047479 -0.00161918)
(7.75207e-05 -0.0466927 -0.00131442)
(-2.27343e-05 -0.0351199 0.000436862)
(-0.000105668 -0.0381161 -0.000540195)
(4.81869e-06 -0.0325506 -0.000350205)
(-0.000203341 -0.0323296 -0.000341871)
(3.29347e-05 -0.0457998 -0.00110553)
(-0.0011261 -0.1081 -0.00106175)
(0.0102549 -0.511284 -0.0132316)
(0.0143553 -0.744946 0.0152518)
(-0.00628913 -1.67064 -0.00986343)
(0.00780697 -1.42837 -0.0224792)
(0.00848108 -1.04409 -0.0298811)
(-0.00425751 -0.752098 0.0130423)
(0.0106037 -0.983715 -0.000417712)
(-0.00043828 -0.584861 -0.00198332)
(0.00208403 -0.091974 0.000276012)
(0.000542463 -0.0544385 0.000670385)
(-7.41925e-06 -0.0618107 0.00042915)
(-2.17811e-05 -0.0442575 -5.81069e-05)
(0.000239408 -0.0452704 0.000228322)
(-0.000339011 -0.0433155 0.000362325)
(3.77481e-05 -0.034454 0.000337354)
(-4.20424e-05 -0.0343356 0.000429139)
(-0.000387346 -0.0294066 0.000201048)
(-0.000119128 -0.0293474 6.00329e-05)
(0.000311316 -0.046863 -0.000179783)
(-0.00111357 -0.0963557 0.000512137)
(0.00523518 -0.544818 -0.0140682)
(-0.0167207 -0.720517 0.0241557)
(0.00233901 -1.63907 0.0246659)
(0.0363008 -1.38214 -0.0233229)
(-0.0013452 -0.841469 0.00488428)
(-0.0129154 -0.72878 0.0193634)
(0.00729004 -0.949968 0.00890788)
(0.0066508 -0.572801 0.00118936)
(0.00182153 -0.0864422 -0.000236794)
(0.000331499 -0.0497158 0.000598306)
(2.95919e-05 -0.057109 0.0010746)
(-2.7634e-05 -0.041068 0.000507802)
(4.37108e-05 -0.0425713 0.000665349)
(1.11151e-05 -0.0405187 0.000645393)
(-0.000357573 -0.0306429 0.000527361)
(-0.000462344 -0.0317828 0.000239126)
(-0.000162083 -0.0298361 -4.63597e-05)
(0.000230427 -0.0321584 -0.000714752)
(0.000580748 -0.04712 -0.000534277)
(0.00141635 -0.0956979 8.93777e-05)
(0.0016782 -0.539017 -0.00773162)
(-0.0381166 -0.72068 0.0267028)
(0.012565 -1.80052 0.036266)
(0.0318257 -1.34938 -0.0290033)
(-0.000463093 -0.755263 0.0215916)
(-0.0120697 -0.719199 0.0104911)
(0.00546465 -1.12436 0.00287782)
(0.0164547 -0.585088 -0.00351272)
(0.00145669 -0.0938323 -0.00125663)
(0.000371124 -0.0451385 0.000530094)
(-8.08755e-06 -0.0499505 0.000890134)
(-0.000491623 -0.0374231 0.000316309)
(-0.000395141 -0.0379822 0.000174677)
(0.000182127 -0.0359111 0.000164248)
(-6.81919e-05 -0.0263962 0.000357423)
(-3.11638e-05 -0.0319497 -0.000250925)
(9.05165e-05 -0.0312946 -0.000823884)
(0.000246215 -0.0398904 -0.0019895)
(0.000674368 -0.0554636 -0.00155552)
(0.00361442 -0.10035 -0.000301364)
(-0.00149677 -0.434223 0.00684997)
(-0.0327731 -0.701687 0.0298862)
(0.0140815 -2.02676 -0.00811451)
(0.0293565 -1.30588 -0.0186605)
(-9.92525e-05 -0.759206 0.0158231)
(0.00502075 -0.708561 0.00223549)
(0.00703674 -1.15036 -0.0123633)
(0.00987038 -0.567024 -0.00754237)
(-0.00171901 -0.0903976 -0.000261574)
(-4.34842e-05 -0.0415216 0.000576548)
(-4.47127e-05 -0.0467008 0.000416319)
(-0.000637735 -0.0363516 6.60212e-06)
(-0.000531763 -0.0422283 -0.00109065)
(9.66939e-05 -0.0398451 -0.00133587)
(0.000203721 -0.0250368 -0.000131805)
(0.000110944 -0.0357572 -0.00125053)
(0.000441589 -0.0410337 -0.00173844)
(0.000902221 -0.0592022 -0.0015379)
(0.000266594 -0.0713998 -0.000572838)
(0.00324331 -0.0997214 -0.00021361)
(-0.00266295 -0.358541 0.025054)
(-0.00832986 -0.675449 0.0314924)
(0.0118093 -2.07103 -0.0400015)
(0.013971 -1.16188 -0.00535728)
(-0.00937508 -0.766812 0.00157577)
(0.0126043 -0.706454 -0.00386117)
(0.00300513 -1.15834 -0.0202544)
(-0.00527888 -0.558619 -0.00449869)
(-0.00140755 -0.0820863 0.00247831)
(-0.000312412 -0.0397444 0.000285976)
(0.000242764 -0.044904 0.00024388)
(-2.32186e-05 -0.0368075 5.31093e-05)
(0.000185749 -0.0538653 -0.00104095)
(-0.000465116 -0.0548833 -0.00144224)
(4.22855e-05 -0.02885 -0.000462262)
(0.000448655 -0.0487979 -0.00091875)
(0.000384177 -0.0552785 -0.000818425)
(0.000434529 -0.0569333 0.000215135)
(-0.000457273 -0.0614578 0.000848834)
(0.00171553 -0.0974128 9.15229e-05)
(-0.00617572 -0.352763 0.0233873)
(0.0182332 -0.776544 0.00655721)
(-0.000288403 -2.09881 -0.0395548)
(-0.0118244 -1.0027 0.00170211)
(-0.0130573 -0.716329 -0.0107782)
(0.00823517 -0.632518 -0.00463581)
(-0.00336699 -1.18446 -0.0123515)
(-0.0160625 -0.54199 0.00326604)
(0.00476167 -0.0614791 0.00324618)
(-8.70492e-05 -0.0401792 -0.000460855)
(5.62716e-05 -0.0438719 0.00124736)
(0.000231714 -0.0353674 0.000267723)
(0.000793918 -0.0524917 0.00127258)
(-0.000676291 -0.0552169 0.00122123)
(-0.00019057 -0.0334739 -0.000275872)
(0.000359626 -0.0464009 0.00120315)
(-0.000326151 -0.0497395 0.00137819)
(-0.000506971 -0.0524465 0.00150453)
(-0.00014388 -0.0583566 0.00127022)
(0.000146306 -0.0994139 0.00129129)
(-0.0069844 -0.38494 0.0133519)
(0.0179207 -0.934749 -0.0313744)
(-0.00283048 -2.13472 -0.0225239)
(-0.0154927 -0.85031 -0.00859913)
(-0.00592565 -0.595327 -0.01464)
(0.00465705 -0.514392 -0.00820377)
(-0.00240772 -1.19579 -0.0055827)
(-0.0140612 -0.616371 -0.00295497)
(0.00451635 -0.0494566 0.00125853)
(-0.000392771 -0.0432898 -0.000914953)
(-0.000240403 -0.0352303 0.000912084)
(1.34643e-05 -0.034232 -0.000125117)
(0.000176258 -0.0420196 0.00109494)
(-6.34528e-05 -0.0435881 0.00139981)
(-0.000148605 -0.0347566 -0.000892696)
(-0.000176343 -0.0395524 -0.000182621)
(-4.93248e-05 -0.0438642 -0.000783962)
(5.12731e-06 -0.0486695 -0.00139078)
(0.000596146 -0.0603505 -0.0024401)
(-0.00247975 -0.100068 0.00109482)
(0.00293254 -0.470203 0.00233096)
(0.0107455 -0.954769 -0.0280132)
(-0.000593012 -2.14199 -0.00730146)
(-0.00617336 -0.689047 -0.0126833)
(-0.00301745 -0.554537 -0.00964696)
(0.00262763 -0.469495 -0.00451351)
(0.000530674 -1.19771 -0.00171555)
(-0.00185726 -0.643293 -0.00293002)
(-0.00529631 -0.0513493 4.21374e-05)
(-4.50521e-05 -0.0478079 -0.000219114)
(3.68705e-05 -0.0398031 -0.000225628)
(0.000133042 -0.0392013 -0.000330809)
(-8.93442e-05 -0.0487764 -0.00031799)
(0.000179368 -0.0475424 -7.82097e-05)
(0.00025526 -0.0478833 -0.000814938)
(0.000251683 -0.0626354 -0.00141332)
(0.00023949 -0.0771232 -0.00198667)
(0.000354034 -0.0912648 -0.00244356)
(0.000950684 -0.115629 -0.0031019)
(-0.00130041 -0.109347 -0.000105012)
(0.00601018 -0.520259 -0.0138626)
(-0.00141167 -0.958288 -0.0106365)
(-0.000826207 -2.14438 -0.000806717)
(-0.00345622 -0.573114 -0.00592625)
(-0.250111 -1.01767 -0.443663)
(0.0389372 -0.976722 -0.520231)
(0.113121 -0.873907 -0.44633)
(0.174598 -0.586359 -0.266303)
(0.202039 -0.352209 -0.141504)
(0.233634 -0.264438 -0.336535)
(0.254908 -0.174003 -0.269944)
(0.0921444 -0.120395 -0.285101)
(0.0225005 -0.122528 -0.326406)
(0.00147708 -0.0749129 -0.353534)
(0.0228536 -0.119431 -0.357713)
(-0.0367751 -0.193111 -0.24968)
(-0.13233 -0.270314 -0.165509)
(-0.186959 -0.185436 -0.14508)
(-0.229375 -0.214148 -0.254926)
(-0.321884 -0.383155 -0.369955)
(-0.187461 -0.729445 -0.31411)
(-0.186665 -1.00036 -0.520623)
(-0.0422907 -1.46647 -0.614201)
(0.327714 -1.24444 -0.544262)
(0.0124986 -1.20552 -0.0407949)
(0.0135738 -0.94992 -0.069721)
(-0.000920958 -0.885549 -0.0866187)
(0.00615871 -0.516512 -0.0158467)
(0.00609195 -0.18925 -0.142847)
(0.122286 -0.0294088 -0.929707)
(0.0184812 -0.0489777 -0.469012)
(-0.00287369 -0.0770928 -0.398294)
(0.00323521 -0.114429 -0.352776)
(-0.00188519 -0.00502634 -0.358891)
(0.096767 -0.151033 -0.438393)
(0.0262889 -0.0536662 -0.514594)
(0.00826299 -0.031024 -0.257792)
(-0.00683926 -0.0653422 -0.207557)
(-0.0529641 -0.047369 -0.515499)
(-0.0875831 -0.0724222 -0.731025)
(0.0166959 -0.712683 -0.0536694)
(-0.0215963 -1.00095 -0.0636602)
(-0.00351117 -1.74167 -0.0879309)
(-0.00104998 -1.43777 -0.0835374)
(0.00778316 -1.31976 -0.0291923)
(0.023707 -0.939256 -0.0102638)
(-0.00219037 -0.728547 -0.00816603)