/*--------------------------------*- C++ -*----------------------------------*\
| =========                 |                                                 |
| \\      /  F ield         | OpenFOAM: The Open Source CFD Toolbox           |
|  \\    /   O peration     | Version:  2.3.0                                 |
|   \\  /    A nd           | Web:      www.OpenFOAM.org                      |
|    \\/     M anipulation  |                                                 |
\*---------------------------------------------------------------------------*/
FoamFile
{
    version     2.0;
    format      ascii;
    class       volVectorField;
    location    "3.89999";
    object      U.water;
}
// * * * * * * * * * * * * * * * * * * * * * * * * * * * * * * * * * * * * * //

dimensions      [0 1 -1 0 0 0 0];

internalField   nonuniform List<vector> 
10000
(
(-0.216434 -1.03801 -0.570854)
(0.0361393 -0.963633 -0.623485)
(0.0980922 -0.879345 -0.553086)
(0.153905 -0.583326 -0.332535)
(0.17987 -0.352837 -0.174848)
(0.224041 -0.260901 -0.352285)
(0.236253 -0.178875 -0.294208)
(0.0772713 -0.130919 -0.301513)
(0.00591688 -0.128678 -0.313146)
(-4.09594e-05 -0.0863059 -0.344034)
(0.0318307 -0.118818 -0.3555)
(-0.0315035 -0.200483 -0.242739)
(-0.135499 -0.272096 -0.141277)
(-0.198259 -0.188965 -0.167048)
(-0.237051 -0.230837 -0.280347)
(-0.309711 -0.388144 -0.39735)
(-0.158677 -0.741096 -0.399109)
(-0.164351 -1.00728 -0.642778)
(-0.0373836 -1.49673 -0.791801)
(0.288946 -1.26965 -0.693038)
(0.0160637 -1.22379 -0.0606486)
(0.014635 -0.914739 -0.0668417)
(-0.00556866 -0.856206 -0.0702734)
(0.00127307 -0.482756 -0.00965783)
(0.00755595 -0.230737 -0.128088)
(0.122966 -0.0348495 -0.919004)
(0.0225495 -0.0544053 -0.472538)
(-0.00256374 -0.0858049 -0.396899)
(0.00363298 -0.122918 -0.350897)
(-0.00202779 0.00975055 -0.356437)
(0.0968104 -0.157108 -0.435576)
(0.0149011 -0.0655138 -0.490438)
(0.00194339 -0.0958002 -0.240478)
(-0.00264108 -0.0921672 -0.206768)
(-0.0259526 -0.0652584 -0.492426)
(-0.082975 -0.0826891 -0.716059)
(0.0251122 -0.719142 -0.047689)
(-0.0160448 -0.991282 -0.0672164)
(-0.00324339 -1.74852 -0.111482)
(-0.00509091 -1.45408 -0.102534)
(0.00917276 -1.32218 -0.0358126)
(0.0268087 -0.883239 -0.00626584)
(-0.00169974 -0.524727 0.0287353)
(-0.01182 -0.473911 -0.00937334)
(0.00290669 -0.252692 -0.104735)
(0.00309489 -0.13399 -0.20408)
(0.00137088 -0.110501 -0.216956)
(0.00146462 -0.1008 -0.24019)
(-0.00171965 -0.106322 -0.226632)
(0.00333218 -0.14172 -0.172512)
(0.00222724 -0.103784 -0.223066)
(-0.00312365 -0.107706 -0.199645)
(0.000676292 -0.112394 -0.201242)
(-0.00100178 -0.0871697 -0.203567)
(-0.00732324 -0.152806 -0.178793)
(-0.00556876 -0.239934 -0.129394)
(0.0226458 -0.677524 -0.0339455)
(-0.0233199 -1.00653 -0.0163737)
(-0.00660062 -1.85272 -0.0257422)
(0.0136604 -1.53448 -0.0368766)
(0.00952833 -1.33186 -0.0699901)
(0.0187075 -0.790237 0.00204096)
(0.000418869 -0.166058 0.09356)
(-0.0160762 -0.329983 0.00348765)
(-0.00211146 -0.248496 -0.106092)
(-0.00192228 -0.108452 -0.224101)
(-0.000165999 -0.098619 -0.243137)
(-0.000150392 -0.101017 -0.243883)
(0.00101017 -0.110221 -0.223462)
(-0.000614645 -0.11011 -0.216702)
(-0.00146369 -0.0987394 -0.256337)
(0.000467702 -0.101005 -0.243592)
(-0.000158407 -0.0990054 -0.260334)
(0.0013547 -0.0969386 -0.256076)
(-0.00240423 -0.108207 -0.222049)
(0.00547177 -0.239322 -0.119977)
(0.00890718 -0.357306 0.0279002)
(-0.0281096 -0.863362 0.029021)
(0.00330392 -1.88126 -0.0197526)
(0.0255016 -1.52286 -0.0136256)
(-0.00278487 -1.27405 -0.0873571)
(-0.0164136 -0.989117 -0.00885753)
(0.00528447 -0.180681 0.0527572)
(-0.0133795 -0.350731 0.00407314)
(0.000749212 -0.242965 -0.104684)
(-0.00277091 -0.117624 -0.207993)
(-8.24077e-05 -0.104205 -0.234219)
(-0.000239132 -0.100465 -0.240713)
(-4.64208e-05 -0.109354 -0.224007)
(0.000218815 -0.113636 -0.216873)
(-2.70229e-05 -0.105961 -0.231259)
(-0.000218107 -0.106147 -0.228244)
(-4.45509e-05 -0.102785 -0.238098)
(0.000337137 -0.0952795 -0.255416)
(-5.17601e-05 -0.117205 -0.213235)
(0.00485401 -0.261615 -0.104501)
(-0.0100336 -0.300495 0.029681)
(-0.0167788 -0.972791 0.0266852)
(0.00627566 -1.87973 -0.037034)
(0.0193968 -1.47504 -0.0106333)
(-0.00123215 -0.985788 -0.0150258)
(-0.0419498 -1.05585 -0.0119408)
(0.00465874 -0.453825 -0.0149792)
(-0.00605235 -0.290196 0.0137538)
(-0.000752058 -0.231313 -0.109889)
(-0.00313589 -0.113827 -0.217054)
(0.00016623 -0.10284 -0.238881)
(-0.000363784 -0.101281 -0.24118)
(-0.000181744 -0.111163 -0.220257)
(8.63401e-05 -0.112072 -0.219478)
(-9.2583e-05 -0.102221 -0.2396)
(-5.5425e-05 -0.106357 -0.233663)
(6.67326e-05 -0.103254 -0.239274)
(0.000600765 -0.0975821 -0.25094)
(0.00266429 -0.110658 -0.219854)
(0.00437139 -0.261067 -0.100643)
(-0.0120362 -0.341771 0.0161611)
(0.0100597 -1.15734 -0.00413182)
(0.00187273 -1.7974 -0.0377135)
(-0.00548376 -1.37321 -0.00940709)
(0.000247785 -0.547131 0.0525363)
(-0.0367556 -1.07726 -0.00952882)
(-0.00708983 -0.931873 -0.0401866)
(0.00118843 -0.276903 0.0154927)
(0.00154339 -0.223675 -0.110902)
(-0.00397329 -0.117636 -0.208386)
(0.000352332 -0.103099 -0.236974)
(-0.000273119 -0.0998453 -0.241643)
(-0.000359736 -0.111704 -0.214471)
(-0.00020012 -0.113397 -0.211927)
(-7.31726e-05 -0.104032 -0.230555)
(7.25077e-05 -0.106167 -0.22103)
(0.000258649 -0.103024 -0.226142)
(0.000273501 -0.0977227 -0.241156)
(0.00385523 -0.113068 -0.218951)
(0.000668967 -0.259722 -0.0965317)
(-0.00705778 -0.384339 0.0142439)
(0.00928063 -1.13482 -0.0248149)
(-0.00694238 -1.63955 -0.000269156)
(-0.0115309 -1.28063 0.00207513)
(-0.00212636 -0.606082 0.0139189)
(-0.00605558 -1.07891 -0.0238652)
(-0.0130919 -1.11779 -0.00952778)
(0.000224576 -0.260297 0.0137054)
(0.0023339 -0.18954 -0.115286)
(-0.00135019 -0.113886 -0.195534)
(0.000458741 -0.102137 -0.222691)
(0.000154469 -0.0997145 -0.230194)
(-0.000447604 -0.111391 -0.202201)
(-0.000246609 -0.1137 -0.196803)
(0.000100998 -0.10592 -0.214478)
(0.000225933 -0.110366 -0.207983)
(0.000145847 -0.107444 -0.215935)
(-0.000504782 -0.101506 -0.230283)
(0.000147619 -0.110889 -0.208791)
(-0.00277272 -0.226836 -0.0880183)
(0.0073566 -0.315257 0.0251818)
(0.0262748 -0.980282 -0.0168572)
(-0.0161076 -1.61175 -0.00605164)
(-0.0174643 -1.29915 0.0203072)
(-0.00296978 -0.983529 -0.0285841)
(0.0195326 -1.04241 -0.0273771)
(-0.0148317 -1.14617 -0.0402193)
(0.00151758 -0.267231 0.00907943)
(0.00206937 -0.142149 -0.0770491)
(-0.000593592 -0.0862863 -0.141796)
(0.00106824 -0.077891 -0.157724)
(3.248e-05 -0.0722478 -0.164081)
(-0.001446 -0.0769976 -0.144591)
(0.000137011 -0.0802811 -0.135278)
(0.00017011 -0.0764614 -0.150342)
(-1.29937e-05 -0.0767495 -0.147083)
(0.0006558 -0.074018 -0.157325)
(-0.000941124 -0.0714073 -0.173695)
(0.000255767 -0.0801269 -0.150273)
(-0.00129161 -0.157625 -0.0496521)
(0.00738277 -0.296312 0.0125994)
(0.0102282 -0.936259 -0.0117675)
(-0.00461138 -1.46752 0.0208303)
(-0.000699988 -1.49771 -0.00751473)
(0.00582896 -1.10024 -0.0241095)
(0.0114701 -0.95873 -0.0136145)
(-0.0162057 -1.13388 -0.0724155)
(0.0054689 -0.363415 -0.00345105)
(0.00134398 -0.0589982 0.00713827)
(0.000469228 -0.0338114 0.00460423)
(0.000478338 -0.0321585 0.00510887)
(0.000214073 -0.0206289 0.00522676)
(2.0696e-05 -0.0301908 0.00586944)
(-0.000297589 -0.0334921 0.00608499)
(0.000138499 -0.0317898 0.0046768)
(0.000431591 -0.0354312 0.00553899)
(5.70587e-05 -0.032823 0.00545652)
(-0.000384719 -0.0316724 0.00517684)
(-0.000796111 -0.0367662 0.00505217)
(-0.00242532 -0.0557805 0.0110434)
(0.0023037 -0.388438 -0.00815796)
(-0.0103469 -0.916206 -0.0177968)
(0.000823908 -1.46747 0.0320938)
(0.0174325 -1.49679 -0.0268111)
(0.0132356 -1.10918 -0.0246224)
(-0.00415422 -0.883326 -0.014543)
(-0.0117191 -1.11177 -0.0836066)
(0.00330638 -0.470318 -0.0158)
(0.000778743 -0.114168 -0.00162987)
(-0.000750668 -0.0596169 -0.00282403)
(-0.000105824 -0.0429901 -0.00300621)
(0.000102214 -0.0340813 -0.00163981)
(3.41213e-05 -0.0329312 -0.00110846)
(0.000361896 -0.0355888 -0.000642918)
(0.00017025 -0.0439599 1.33596e-05)
(-9.55845e-05 -0.0335564 0.000572494)
(6.7756e-05 -0.0306124 0.000874026)
(-0.000246896 -0.0304297 0.000789656)
(-0.000314984 -0.0431881 -0.0002326)
(-0.00175416 -0.104762 -0.00189132)
(0.0068254 -0.454468 -0.0160539)
(0.00937818 -0.804279 -9.28334e-05)
(-0.00635425 -1.71178 -0.0057387)
(0.01393 -1.4556 -0.0223297)
(0.015574 -1.08357 -0.0357253)
(-0.00716867 -0.835683 -0.00826274)
(-0.00169659 -1.0647 -0.0480953)
(0.00166288 -0.547922 -0.0124268)
(0.00159251 -0.0709309 0.000497068)
(-0.000520162 -0.0717471 -0.000357448)
(-0.000321342 -0.0720457 -0.00315901)
(-1.60028e-05 -0.0452909 -0.00135878)
(7.35259e-05 -0.0503521 -0.00216279)
(8.93375e-05 -0.0494992 -0.00171785)
(2.13586e-06 -0.0356394 0.000729632)
(-0.000112125 -0.0403593 -0.000604346)
(3.81297e-06 -0.0344542 -0.000370259)
(-0.000215884 -0.0342257 -0.000370181)
(3.51359e-05 -0.0485382 -0.00134161)
(-0.00108129 -0.114636 -0.000467302)
(0.010492 -0.504487 -0.0157311)
(0.0132615 -0.67906 0.0179919)
(-0.00655414 -1.64917 -0.0206429)
(0.0149041 -1.39197 -0.0172415)
(0.0073036 -1.00562 -0.0256477)
(-0.00338688 -0.698983 0.0140794)
(0.00977148 -0.907183 0.00129379)
(-0.000300183 -0.583712 -0.00486079)
(0.00239399 -0.0964042 -0.000239478)
(0.000535981 -0.0512404 0.00127332)
(-3.43024e-05 -0.0575089 0.000860603)
(-4.19881e-05 -0.0436408 -3.1979e-05)
(0.00024048 -0.044562 0.000325096)
(-0.000327822 -0.0428151 0.000481731)
(3.39354e-05 -0.0349782 0.00048806)
(-4.91779e-05 -0.0346252 0.000495074)
(-0.000398494 -0.0299955 0.000279887)
(-0.000132967 -0.0300242 8.41999e-05)
(0.00034048 -0.0496422 -0.000258191)
(-0.00116937 -0.0885458 0.00148875)
(0.00577346 -0.537988 -0.0157594)
(-0.0144577 -0.652055 0.0250703)
(0.00109655 -1.578 0.0141231)
(0.0391057 -1.34841 -0.0189192)
(-0.0013728 -0.771343 0.00994863)
(-0.0121325 -0.670638 0.0210986)
(0.00607376 -0.879885 0.00620311)
(0.0067476 -0.536974 0.000943263)
(0.00202124 -0.089776 -0.000708968)
(0.000337451 -0.0479578 0.000775136)
(2.88211e-05 -0.0541166 0.00136378)
(-3.697e-05 -0.0408593 0.000705676)
(4.21129e-05 -0.0422398 0.000844719)
(1.11112e-05 -0.0403824 0.000813633)
(-0.000362298 -0.031399 0.000734033)
(-0.000477541 -0.0323264 0.000415996)
(-0.000171959 -0.0315945 -1.70662e-05)
(0.000235539 -0.0340709 -0.000938722)
(0.000612951 -0.0499649 -0.000805287)
(0.0012194 -0.0903827 -4.54657e-05)
(0.00158349 -0.527379 -0.00528029)
(-0.0336462 -0.650585 0.0275627)
(0.0112352 -1.72524 0.0398545)
(0.0297126 -1.31731 -0.026395)
(-0.000646682 -0.688295 0.0226923)
(-0.0122134 -0.666641 0.0117104)
(0.00428618 -1.12082 -0.000399144)
(0.0173671 -0.587109 -0.00292201)
(0.00158003 -0.10135 -0.00209901)
(0.000390491 -0.0443543 0.000701245)
(-1.26561e-05 -0.0485334 0.00112095)
(-0.000498227 -0.0377462 0.000427054)
(-0.000394971 -0.0382976 0.000278142)
(0.000191266 -0.0363495 0.000269582)
(-7.77229e-05 -0.0274234 0.000596813)
(-3.87148e-05 -0.0338423 -0.000298643)
(8.67989e-05 -0.0331691 -0.00118241)
(0.000260194 -0.042333 -0.00286912)
(0.000721968 -0.0588936 -0.00229246)
(0.00356907 -0.101754 -0.000415768)
(-0.00105196 -0.370163 0.0119684)
(-0.0301141 -0.629625 0.0316113)
(0.0140851 -2.03095 0.00492242)
(0.0300839 -1.27888 -0.0219694)
(0.00100404 -0.700608 0.0157271)
(0.00401729 -0.65818 0.00371209)
(0.00449152 -1.15068 -0.0142183)
(0.0103389 -0.568002 -0.00696303)
(-0.00148704 -0.095745 -0.000149545)
(-3.16755e-05 -0.0414213 0.000743213)
(-5.38363e-05 -0.0459055 0.000526539)
(-0.000666558 -0.0368678 3.72903e-06)
(-0.00055761 -0.0447779 -0.00151027)
(0.000101968 -0.0422541 -0.00185198)
(0.000216183 -0.0272027 -0.000168141)
(0.000111079 -0.0379173 -0.001797)
(0.000465566 -0.0435308 -0.00250728)
(0.000959403 -0.0628119 -0.00213554)
(0.000296998 -0.075743 -0.0006681)
(0.00284492 -0.0915396 -4.74496e-05)
(-0.0017659 -0.292418 0.0271588)
(-0.00893801 -0.603257 0.0300163)
(0.0111957 -2.0876 -0.037468)
(0.0157301 -1.10292 -0.00186111)
(-0.00758895 -0.709287 0.00540205)
(0.0112655 -0.650422 0.00131972)
(0.000919667 -1.15913 -0.0224743)
(-0.00549388 -0.559003 -0.00635581)
(-0.000717504 -0.0789163 0.00371777)
(-0.00035331 -0.0404988 0.000396474)
(0.000234804 -0.0443209 0.000348141)
(-5.60658e-05 -0.0372445 8.24858e-05)
(0.000190613 -0.0571229 -0.00140674)
(-0.000490532 -0.0582022 -0.00195645)
(4.3348e-05 -0.0313884 -0.000722524)
(0.000473459 -0.0517166 -0.00131504)
(0.000414541 -0.058573 -0.00115218)
(0.000459721 -0.054328 0.000430076)
(-0.00043927 -0.0576136 0.00136088)
(0.00150219 -0.0951342 -0.000435363)
(-0.00544196 -0.295754 0.0219614)
(0.0164433 -0.720155 0.002466)
(0.00160341 -2.11009 -0.0465899)
(-0.0115263 -0.929779 0.0136599)
(-0.0114945 -0.63881 0.000976907)
(0.00698989 -0.541326 0.00797142)
(-0.00442435 -1.18776 -0.0160469)
(-0.0159228 -0.532565 0.00184145)
(0.00434076 -0.0595818 0.00539328)
(-0.000107677 -0.0437199 -0.000693282)
(7.62695e-05 -0.0431221 0.00156722)
(0.000228762 -0.0358916 0.000447597)
(0.000760627 -0.0500946 0.00157456)
(-0.00066447 -0.0521021 0.00152738)
(-0.000205779 -0.0364038 -0.000444524)
(0.000385819 -0.0454559 0.00147413)
(-0.000304872 -0.048388 0.00169178)
(-0.000492601 -0.0508582 0.00177742)
(-0.000193151 -0.0560515 0.00124898)
(0.000228711 -0.0965464 0.000402897)
(-0.00684767 -0.343617 0.0103388)
(0.0193898 -0.878989 -0.0288472)
(-0.00163347 -2.14925 -0.026433)
(-0.0163721 -0.745237 0.00935181)
(-0.0042598 -0.437204 0.00121829)
(0.00381178 -0.348264 0.00727679)
(-0.00275565 -1.20212 -0.00713779)
(-0.0159591 -0.638914 0.00340799)
(0.00420981 -0.0493698 0.00197928)
(-0.000420155 -0.0470472 -0.00129501)
(-0.000224644 -0.0358084 0.00111729)
(1.20187e-05 -0.037205 -0.000231)
(0.000197363 -0.041939 0.00121116)
(-0.000105187 -0.0431153 0.00162943)
(-0.000167957 -0.0378266 -0.00140264)
(-0.000195551 -0.0430387 -0.000795392)
(-5.86379e-05 -0.0477859 -0.00181075)
(-1.70838e-06 -0.0531115 -0.00284185)
(0.000657231 -0.0660941 -0.00476618)
(-0.0023714 -0.101716 0.000537323)
(0.00295913 -0.457806 -0.00168886)
(0.0109789 -0.807287 -0.0240068)
(0.000156246 -2.15526 -0.00838562)
(-0.00795097 -0.515709 0.00664932)
(-0.00218189 -0.297944 -0.0010474)
(0.00228996 -0.199374 0.00317966)
(0.000516736 -1.20384 -0.0018807)
(-0.00141313 -0.664767 -0.00472923)
(-0.0050755 -0.0502079 0.000316913)
(-7.21937e-05 -0.0462041 4.04978e-05)
(3.28299e-05 -0.0432655 -0.000341641)
(0.000143931 -0.0426667 -0.000512389)
(-9.2047e-05 -0.0530386 -0.000555308)
(0.000188096 -0.0516828 -0.000240012)
(0.000273815 -0.0521631 -0.00129098)
(0.000274879 -0.0683677 -0.00229604)
(0.000263413 -0.0844561 -0.00330328)
(0.000395988 -0.100431 -0.00417147)
(0.00106383 -0.129261 -0.00564677)
(-0.00129598 -0.119483 -0.000363886)
(0.0059178 -0.519344 -0.0155531)
(0.00286245 -0.742811 -0.00953374)
(-0.000519688 -2.15808 -0.00112517)
(-0.00534783 -0.286308 0.006393)
(-0.232898 -1.02799 -0.500602)
(0.0380167 -0.969496 -0.561947)
(0.106877 -0.876005 -0.485996)
(0.164165 -0.584649 -0.295624)
(0.189535 -0.35226 -0.156051)
(0.230118 -0.263129 -0.340765)
(0.245893 -0.176153 -0.275486)
(0.07302 -0.127545 -0.286256)
(0.00542014 -0.122553 -0.308992)
(1.01978e-05 -0.0831284 -0.343508)
(0.0270969 -0.110789 -0.349284)
(-0.0288298 -0.197619 -0.232867)
(-0.128354 -0.281699 -0.12474)
(-0.191237 -0.188444 -0.150914)
(-0.233237 -0.224035 -0.263799)
(-0.316059 -0.386038 -0.38235)
(-0.171742 -0.735626 -0.353492)
(-0.176124 -1.00321 -0.573342)
(-0.0402169 -1.48117 -0.690998)
(0.307109 -1.25792 -0.614697)
(0.0146921 -1.21534 -0.0505297)
(0.0142906 -0.926549 -0.0684659)
(-0.00313604 -0.869199 -0.0784637)
(0.00297006 -0.496651 -0.0140006)
(0.00795234 -0.208192 -0.137905)
(0.121587 -0.0308576 -0.926097)
(0.0200125 -0.0505601 -0.469623)
(-0.00291826 -0.0801361 -0.397602)
(0.00343939 -0.116291 -0.352199)
(-0.00199653 -0.00172103 -0.358558)
(0.0973107 -0.152536 -0.437344)
(0.0132248 -0.0589297 -0.496499)
(0.00196215 -0.0871959 -0.243674)
(-0.00280013 -0.0858907 -0.20615)
(-0.0250439 -0.0590358 -0.497844)
(-0.0853301 -0.0753696 -0.726201)
(0.0220296 -0.714956 -0.0520152)
(-0.0185971 -0.993208 -0.0653573)
(-0.00339781 -1.7445 -0.100239)
(-0.00287664 -1.44614 -0.093056)
(0.00873013 -1.32174 -0.0323213)
(0.0254386 -0.904562 -0.00539742)
(-0.00215101 -0.630568 0.00879573)
(-0.0101327 -0.503114 -0.0140028)
(0.00392309 -0.239772 -0.10471)
(0.00322667 -0.130796 -0.201067)
(0.00129956 -0.105312 -0.214756)
(0.00142347 -0.0944072 -0.239286)
(-0.00099871 -0.0993678 -0.227388)
(0.00343459 -0.136465 -0.167134)
(0.00147354 -0.0966575 -0.225665)
(-0.00303468 -0.10104 -0.197576)
(0.000683075 -0.105743 -0.199933)
(-0.00109009 -0.0792861 -0.202664)
(-0.00763304 -0.145575 -0.175784)
(-0.00622401 -0.232156 -0.124541)
(0.021366 -0.708249 -0.0454558)
(-0.023436 -1.02384 -0.0129954)
(-0.00746712 -1.85589 -0.0229193)
(0.0130288 -1.53734 -0.0353966)
(0.0101147 -1.33477 -0.0725002)
(0.0170515 -0.837276 0.00512771)
(0.00093314 -0.295331 0.0802287)
(-0.015603 -0.395784 0.000301784)
(-0.000990345 -0.235538 -0.107473)
(-0.0018028 -0.100995 -0.225061)
(-0.000159035 -0.0920103 -0.243525)
(-0.000198549 -0.0944968 -0.243958)
(0.00106537 -0.103128 -0.223295)
(-0.000654291 -0.103259 -0.217961)
(-0.00147694 -0.0923225 -0.256303)
(0.000473931 -0.0944558 -0.243717)
(-0.000173951 -0.0924062 -0.260875)
(0.00144003 -0.0907382 -0.255547)
(-0.00233972 -0.100624 -0.224001)
(0.00351373 -0.227677 -0.119824)
(0.0080788 -0.462198 0.0180251)
(-0.0291562 -0.932511 0.0336335)
(0.00250007 -1.88829 -0.0209517)
(0.0229974 -1.53005 -0.0164356)
(-0.00205779 -1.29414 -0.100504)
(-0.0150202 -0.999404 -0.00465702)
(0.00743939 -0.277481 0.0611445)
(-0.0126187 -0.407004 0.00285905)
(0.00114605 -0.232063 -0.106137)
(-0.00290782 -0.110165 -0.207669)
(-8.00099e-05 -0.097551 -0.234137)
(-0.000248598 -0.0939533 -0.240701)
(-3.10457e-05 -0.102293 -0.223987)
(0.000229002 -0.106513 -0.216777)
(-3.23436e-05 -0.0992246 -0.231061)
(-0.000222862 -0.0992844 -0.227985)
(-3.44164e-05 -0.0961357 -0.237918)
(0.000360641 -0.0890492 -0.255384)
(0.000198497 -0.110064 -0.213363)
(0.00356185 -0.254287 -0.102887)
(-0.0160742 -0.396196 0.0301895)
(-0.0170083 -1.04105 0.0279353)
(0.00615713 -1.88884 -0.041423)
(0.0185651 -1.48879 -0.016286)
(-0.000972786 -1.04962 -0.0360514)
(-0.042058 -1.07546 -0.00832694)
(0.00472171 -0.478466 0.0101922)
(-0.00524818 -0.35623 0.0114736)
(-0.000660273 -0.220779 -0.111138)
(-0.00320386 -0.106419 -0.217088)
(0.000157612 -0.0961775 -0.239075)
(-0.000368985 -0.0947788 -0.241197)
(-0.000178191 -0.104042 -0.220173)
(8.64585e-05 -0.104848 -0.219501)
(-9.05075e-05 -0.0955856 -0.239689)
(-5.55826e-05 -0.0995861 -0.233676)
(7.30276e-05 -0.0967056 -0.239301)
(0.000581854 -0.0913437 -0.250958)
(0.00292732 -0.103393 -0.220252)
(0.0032322 -0.254931 -0.0998325)
(-0.0159295 -0.408653 0.0192219)
(0.00893687 -1.1703 -0.00665728)
(0.00324986 -1.81547 -0.0335647)
(-0.00775648 -1.40056 -0.00385284)
(0.000729599 -0.682109 0.044967)
(-0.0365396 -1.10237 -0.00839187)
(-0.00697123 -0.933677 -0.0162427)
(0.00258189 -0.34785 0.0141251)
(0.00126656 -0.21475 -0.112655)
(-0.00400507 -0.109905 -0.208328)
(0.000325807 -0.09624 -0.237207)
(-0.000270222 -0.0931309 -0.2417)
(-0.000349665 -0.104282 -0.214484)
(-0.000203575 -0.105942 -0.211882)
(-7.36497e-05 -0.0971922 -0.230416)
(7.65919e-05 -0.0990847 -0.220885)
(0.000254935 -0.0960953 -0.22599)
(0.000243817 -0.0911891 -0.241171)
(0.0040167 -0.105711 -0.218952)
(0.000240182 -0.254452 -0.0974273)
(-0.00938964 -0.439859 0.0131723)
(0.00860246 -1.14705 -0.0314269)
(-0.00700537 -1.6881 -0.00471669)
(-0.0127497 -1.34054 0.0064877)
(-0.000827066 -0.679034 0.0236077)
(-0.00361739 -1.10475 -0.0248218)
(-0.0122328 -1.11238 -0.000383398)
(0.00154408 -0.330328 0.0127521)
(0.00244026 -0.182251 -0.118894)
(-0.00135205 -0.106449 -0.197144)
(0.000407513 -0.0954371 -0.224173)
(0.000158656 -0.0931581 -0.231724)
(-0.000403748 -0.104182 -0.204164)
(-0.000254407 -0.106353 -0.198735)
(9.29663e-05 -0.0988652 -0.216135)
(0.000221082 -0.10317 -0.209712)
(0.000112242 -0.100392 -0.217602)
(-0.000535812 -0.0947286 -0.231846)
(-0.000121727 -0.103722 -0.210559)
(-0.00361948 -0.221961 -0.0927905)
(0.00772946 -0.383286 0.0208616)
(0.0286773 -0.995034 -0.023477)
(-0.0158639 -1.6324 -0.00437676)
(-0.0170872 -1.37476 0.0176477)
(-0.00272706 -0.99741 -0.0149314)
(0.0197531 -1.06321 -0.0314135)
(-0.0138191 -1.13579 -0.0392728)
(0.00227118 -0.328189 0.0106999)
(0.00263082 -0.13807 -0.0819441)
(-0.000583507 -0.0798099 -0.144511)
(0.00103098 -0.0719978 -0.160037)
(2.77719e-05 -0.0663766 -0.166792)
(-0.00144684 -0.0714312 -0.147254)
(0.000156722 -0.0746172 -0.137938)
(0.000170381 -0.0703078 -0.152819)
(-3.15581e-05 -0.0709268 -0.149526)
(0.000646044 -0.0682968 -0.159715)
(-0.000958695 -0.0657533 -0.17592)
(-0.000154789 -0.0740824 -0.152641)
(-0.00211694 -0.155307 -0.0565495)
(0.00792202 -0.3559 0.0127595)
(0.0113382 -0.95097 -0.0135014)
(-0.00486534 -1.53848 0.0234256)
(0.00397778 -1.53367 -0.0144806)
(0.00583626 -1.11997 -0.0195553)
(0.0104648 -0.973879 -0.0185176)
(-0.0151363 -1.11501 -0.0741501)
(0.00508368 -0.382388 0.0025557)
(0.00164514 -0.0744946 0.00627221)
(0.000524629 -0.0367314 0.00379425)
(0.000483841 -0.0358509 0.00407412)
(0.000198988 -0.0230483 0.00408917)
(4.12674e-06 -0.033564 0.00455292)
(-0.00028913 -0.0370613 0.00469972)
(0.000157585 -0.0349589 0.00378454)
(0.000447206 -0.0396578 0.00435815)
(6.86282e-05 -0.0369102 0.00430352)
(-0.000404024 -0.0359588 0.00411308)
(-0.000953254 -0.0410839 0.00397403)
(-0.00367021 -0.081738 0.00885128)
(0.00206693 -0.40597 -0.00342673)
(-0.0105274 -0.933981 -0.0186224)
(0.00121233 -1.57415 0.0228771)
(0.0210575 -1.53601 -0.0287155)
(0.0130694 -1.13361 -0.0243756)
(-0.00502454 -0.898754 -0.0179686)
(-0.0120333 -1.10919 -0.0857514)
(0.00368879 -0.473978 -0.00964988)
(0.000891993 -0.103623 -0.000993939)
(-0.000693657 -0.0547244 -0.00165531)
(-9.95544e-05 -0.0395106 -0.0018945)
(9.11457e-05 -0.0313451 -0.000967042)
(2.98332e-05 -0.0303198 -0.000610895)
(0.000334919 -0.0327684 -0.000264675)
(0.000147729 -0.0425583 0.000163862)
(-0.000114732 -0.032642 0.000552064)
(6.1383e-05 -0.0296203 0.000756259)
(-0.000214443 -0.029415 0.000709507)
(-0.000256372 -0.0397855 7.54824e-05)
(-0.00180494 -0.0955611 -0.00018988)
(0.00663092 -0.46324 -0.0124239)
(0.00927655 -0.862404 -0.00236285)
(-0.00655809 -1.72131 -0.00835304)
(0.0105347 -1.49093 -0.0274333)
(0.0153892 -1.11745 -0.0387403)
(-0.0072138 -0.853865 -0.0084842)
(-0.00229701 -1.08987 -0.0531534)
(0.00198261 -0.546919 -0.00840383)
(0.00186975 -0.0842205 -0.000137874)
(-0.000460015 -0.0660312 -0.000396274)
(-0.000291214 -0.0678419 -0.002467)
(-1.07269e-05 -0.0416437 -0.000903678)
(6.63579e-05 -0.047479 -0.00161918)
(7.75207e-05 -0.0466927 -0.00131442)
(-2.27343e-05 -0.0351199 0.000436862)
(-0.000105668 -0.0381161 -0.000540195)
(4.81869e-06 -0.0325506 -0.000350205)
(-0.000203341 -0.0323296 -0.000341871)
(3.29347e-05 -0.0457998 -0.00110553)
(-0.0011261 -0.1081 -0.00106175)
(0.0102549 -0.511284 -0.0132316)
(0.0143553 -0.744946 0.0152518)
(-0.00628913 -1.67064 -0.00986343)
(0.00780697 -1.42837 -0.0224792)
(0.00848108 -1.04409 -0.0298811)
(-0.00425751 -0.752098 0.0130423)
(0.0106037 -0.983715 -0.000417712)
(-0.00043828 -0.584861 -0.00198332)
(0.00208403 -0.091974 0.000276012)
(0.000542463 -0.0544385 0.000670385)
(-7.41925e-06 -0.0618107 0.00042915)
(-2.17811e-05 -0.0442575 -5.81069e-05)
(0.000239408 -0.0452704 0.000228322)
(-0.000339011 -0.0433155 0.000362325)
(3.77481e-05 -0.034454 0.000337354)
(-4.20424e-05 -0.0343356 0.000429139)
(-0.000387346 -0.0294066 0.000201048)
(-0.000119128 -0.0293474 6.00329e-05)
(0.000311316 -0.046863 -0.000179783)
(-0.00111357 -0.0963557 0.000512137)
(0.00523518 -0.544818 -0.0140682)
(-0.0167207 -0.720517 0.0241557)
(0.00233901 -1.63907 0.0246659)
(0.0363008 -1.38214 -0.0233229)
(-0.0013452 -0.841469 0.00488428)
(-0.0129154 -0.72878 0.0193634)
(0.00729004 -0.949968 0.00890788)
(0.0066508 -0.572801 0.00118936)
(0.00182153 -0.0864422 -0.000236794)
(0.000331499 -0.0497158 0.000598306)
(2.95919e-05 -0.057109 0.0010746)
(-2.7634e-05 -0.041068 0.000507802)
(4.37108e-05 -0.0425713 0.000665349)
(1.11151e-05 -0.0405187 0.000645393)
(-0.000357573 -0.0306429 0.000527361)
(-0.000462344 -0.0317828 0.000239126)
(-0.000162083 -0.0298361 -4.63597e-05)
(0.000230427 -0.0321584 -0.000714752)
(0.000580748 -0.04712 -0.000534277)
(0.00141635 -0.0956979 8.93777e-05)
(0.0016782 -0.539017 -0.00773162)
(-0.0381166 -0.72068 0.0267028)
(0.012565 -1.80052 0.036266)
(0.0318257 -1.34938 -0.0290033)
(-0.000463093 -0.755263 0.0215916)
(-0.0120697 -0.719199 0.0104911)
(0.00546465 -1.12436 0.00287782)
(0.0164547 -0.585088 -0.00351272)
(0.00145669 -0.0938323 -0.00125663)
(0.000371124 -0.0451385 0.000530094)
(-8.08755e-06 -0.0499505 0.000890134)
(-0.000491623 -0.0374231 0.000316309)
(-0.000395141 -0.0379822 0.000174677)
(0.000182127 -0.0359111 0.000164248)
(-6.81919e-05 -0.0263962 0.000357423)
(-3.11638e-05 -0.0319497 -0.000250925)
(9.05165e-05 -0.0312946 -0.000823884)
(0.000246215 -0.0398904 -0.0019895)
(0.000674368 -0.0554636 -0.00155552)
(0.00361442 -0.10035 -0.000301364)
(-0.00149677 -0.434223 0.00684997)
(-0.0327731 -0.701687 0.0298862)
(0.0140815 -2.02676 -0.00811451)
(0.0293565 -1.30588 -0.0186605)
(-9.92525e-05 -0.759206 0.0158231)
(0.00502075 -0.708561 0.00223549)
(0.00703674 -1.15036 -0.0123633)
(0.00987038 -0.567024 -0.00754237)
(-0.00171901 -0.0903976 -0.000261574)
(-4.34842e-05 -0.0415216 0.000576548)
(-4.47127e-05 -0.0467008 0.000416319)
(-0.000637735 -0.0363516 6.60212e-06)
(-0.000531763 -0.0422283 -0.00109065)
(9.66939e-05 -0.0398451 -0.00133587)
(0.000203721 -0.0250368 -0.000131805)
(0.000110944 -0.0357572 -0.00125053)
(0.000441589 -0.0410337 -0.00173844)
(0.000902221 -0.0592022 -0.0015379)
(0.000266594 -0.0713998 -0.000572838)
(0.00324331 -0.0997214 -0.00021361)
(-0.00266295 -0.358541 0.025054)
(-0.00832986 -0.675449 0.0314924)
(0.0118093 -2.07103 -0.0400015)
(0.013971 -1.16188 -0.00535728)
(-0.00937508 -0.766812 0.00157577)
(0.0126043 -0.706454 -0.00386117)
(0.00300513 -1.15834 -0.0202544)
(-0.00527888 -0.558619 -0.00449869)
(-0.00140755 -0.0820863 0.00247831)
(-0.000312412 -0.0397444 0.000285976)
(0.000242764 -0.044904 0.00024388)
(-2.32186e-05 -0.0368075 5.31093e-05)
(0.000185749 -0.0538653 -0.00104095)
(-0.000465116 -0.0548833 -0.00144224)
(4.22855e-05 -0.02885 -0.000462262)
(0.000448655 -0.0487979 -0.00091875)
(0.000384177 -0.0552785 -0.000818425)
(0.000434529 -0.0569333 0.000215135)
(-0.000457273 -0.0614578 0.000848834)
(0.00171553 -0.0974128 9.15229e-05)
(-0.00617572 -0.352763 0.0233873)
(0.0182332 -0.776544 0.00655721)
(-0.000288403 -2.09881 -0.0395548)
(-0.0118244 -1.0027 0.00170211)
(-0.0130573 -0.716329 -0.0107782)
(0.00823517 -0.632518 -0.00463581)
(-0.00336699 -1.18446 -0.0123515)
(-0.0160625 -0.54199 0.00326604)
(0.00476167 -0.0614791 0.00324618)
(-8.70492e-05 -0.0401792 -0.000460855)
(5.62716e-05 -0.0438719 0.00124736)
(0.000231714 -0.0353674 0.000267723)
(0.000793918 -0.0524917 0.00127258)
(-0.000676291 -0.0552169 0.00122123)
(-0.00019057 -0.0334739 -0.000275872)
(0.000359626 -0.0464009 0.00120315)
(-0.000326151 -0.0497395 0.00137819)
(-0.000506971 -0.0524465 0.00150453)
(-0.00014388 -0.0583566 0.00127022)
(0.000146306 -0.0994139 0.00129129)
(-0.0069844 -0.38494 0.0133519)
(0.0179207 -0.934749 -0.0313744)
(-0.00283048 -2.13472 -0.0225239)
(-0.0154927 -0.85031 -0.00859913)
(-0.00592565 -0.595327 -0.01464)
(0.00465705 -0.514392 -0.00820377)
(-0.00240772 -1.19579 -0.0055827)
(-0.0140612 -0.616371 -0.00295497)
(0.00451635 -0.0494566 0.00125853)
(-0.000392771 -0.0432898 -0.000914953)
(-0.000240403 -0.0352303 0.000912084)
(1.34643e-05 -0.034232 -0.000125117)
(0.000176258 -0.0420196 0.00109494)
(-6.34528e-05 -0.0435881 0.00139981)
(-0.000148605 -0.0347566 -0.000892696)
(-0.000176343 -0.0395524 -0.000182621)
(-4.93248e-05 -0.0438642 -0.000783962)
(5.12731e-06 -0.0486695 -0.00139078)
(0.000596146 -0.0603505 -0.0024401)
(-0.00247975 -0.100068 0.00109482)
(0.00293254 -0.470203 0.00233096)
(0.0107455 -0.954769 -0.0280132)
(-0.000593012 -2.14199 -0.00730146)
(-0.00617336 -0.689047 -0.0126833)
(-0.00301745 -0.554537 -0.00964696)
(0.00262763 -0.469495 -0.00451351)
(0.000530674 -1.19771 -0.00171555)
(-0.00185726 -0.643293 -0.00293002)
(-0.00529631 -0.0513493 4.21374e-05)
(-4.50521e-05 -0.0478079 -0.000219114)
(3.68705e-05 -0.0398031 -0.000225628)
(0.000133042 -0.0392013 -0.000330809)
(-8.93442e-05 -0.0487764 -0.00031799)
(0.000179368 -0.0475424 -7.82097e-05)
(0.00025526 -0.0478833 -0.000814938)
(0.000251683 -0.0626354 -0.00141332)
(0.00023949 -0.0771232 -0.00198667)
(0.000354034 -0.0912648 -0.00244356)
(0.000950684 -0.115629 -0.0031019)
(-0.00130041 -0.109347 -0.000105012)
(0.00601018 -0.520259 -0.0138626)
(-0.00141167 -0.958288 -0.0106365)
(-0.000826207 -2.14438 -0.000806717)
(-0.00345622 -0.573114 -0.00592625)
(-0.250052 -1.0177 -0.443396)
(0.0389272 -0.97674 -0.519952)
(0.1131 -0.873925 -0.446072)
(0.174557 -0.586384 -0.266127)
(0.201736 -0.352294 -0.141345)
(0.233582 -0.264505 -0.336349)
(0.252406 -0.174169 -0.26948)
(0.0688556 -0.123805 -0.283548)
(0.0051211 -0.120002 -0.30733)
(3.13313e-05 -0.082273 -0.342667)
(0.025083 -0.107598 -0.346389)
(-0.0275224 -0.195481 -0.229124)
(-0.123578 -0.288307 -0.121105)
(-0.186697 -0.188767 -0.144331)
(-0.229272 -0.216624 -0.25486)
(-0.32166 -0.383163 -0.369992)
(-0.187409 -0.729477 -0.313907)
(-0.186626 -1.00038 -0.520338)
(-0.0422812 -1.46649 -0.613915)
(0.327637 -1.24446 -0.543986)
(0.0124986 -1.20552 -0.0407949)
(0.0135738 -0.94992 -0.069721)
(-0.000920958 -0.885549 -0.0866187)
(0.00615871 -0.516512 -0.0158467)
(0.0061301 -0.189327 -0.142503)
(0.122266 -0.0294341 -0.929135)
(0.018419 -0.0490237 -0.469002)
(-0.002857 -0.0778549 -0.398165)
(0.00321218 -0.113146 -0.352665)
(-0.00186633 -0.00666255 -0.358961)
(0.0934764 -0.147351 -0.438199)
(0.0121021 -0.0562529 -0.498983)
(0.00194607 -0.084013 -0.245216)
(-0.00294367 -0.083495 -0.20611)
(-0.024118 -0.0563647 -0.499503)
(-0.0841501 -0.072397 -0.730859)
(0.0166959 -0.712684 -0.0536694)
(-0.0215963 -1.00095 -0.0636602)
(-0.00351117 -1.74167 -0.0879309)
(-0.00104998 -1.43777 -0.0835374)
(0.00778316 -1.31976 -0.0291923)
(0.023707 -0.939256 -0.0102638)