/*--------------------------------*- C++ -*----------------------------------*\
| =========                 |                                                 |
| \\      /  F ield         | OpenFOAM: The Open Source CFD Toolbox           |
|  \\    /   O peration     | Version:  2.3.0                                 |
|   \\  /    A nd           | Web:      www.OpenFOAM.org                      |
|    \\/     M anipulation  |                                                 |
\*---------------------------------------------------------------------------*/
FoamFile
{
    version     2.0;
    format      ascii;
    class       volScalarField;
    location    "0.258";
    object      p;
}
// * * * * * * * * * * * * * * * * * * * * * * * * * * * * * * * * * * * * * //

dimensions      [1 -1 -2 0 0 0 0];

internalField   nonuniform List<scalar> 
545
(
-8.02991e+07
-1.47577e+07
-1.93857e+06
-2.5518e+06
-8.55827e+06
5.7864e+07
-2.96082e+06
-2.29788e+06
-2.45073e+06
-6.95063e+06
1.00579e+08
3.66451e+06
-315869
-369161
-7.29749e+06
5.83702e+07
-3.14299e+06
-1.82786e+06
-96102.6
-6.51857e+06
-9.24053e+07
-2.30251e+06
-408751
4.28059e+06
1.17685e+07
-7.03298e+06
-1.81016e+06
-740814
-63963.3
37043.9
50765.3
37609.6
27136
20258.3
16201.9
14451.3
12732.2
12100.3
10968.3
10775.7
9902.5
10048.4
9467.98
9798.88
9403.33
9988.03
9882.21
10808.7
10918.4
12144.5
12386.9
13570.9
13664.9
14637
14234.4
14753
13854.7
13786.1
12351.6
11839.1
10135.9
9492.63
7782.63
7187.17
5614.98
5260.67
3754.75
3563.09
2280.02
2379.94
-6.19376e+06
-1.12011e+06
-699244
-181503
-65584.5
-3993.99
13308.2
17937.1
17163.2
15605.3
14239.4
12993.4
12038.8
11218.5
10654.5
10150
9905.16
9701.23
9625.55
9656.42
9807.9
10140
10621.4
11204.9
11957.8
12686
13385.5
13972.9
14427.6
14558.7
14510
14185.8
13547
12678
11584.6
10437.3
9206.96
8081.85
6888.3
5916.71
4941.06
4038.56
3168.06
2229.64
614.707
-7.27067e+06
-536050
-416125
-50677.3
-32744.8
170.873
12466.3
16747.4
16641.1
15045.1
14360.5
12759.9
12306.4
11004.6
10922.8
9907.19
10163.1
9456.42
9883.22
9400.86
10077
9880.89
10915.1
10936.9
12267.7
12420.9
13703.8
13694.6
14753.2
14272.1
14820.2
13912.2
13859.5
12387.4
11897.6
10108.6
9516.14
7761.4
7185.38
5604.02
5263.89
3712.11
3407.18
1892.86
1757.78
-7.69591e+06
627365
157778
181654
41673.5
21770.7
19326.6
18203.5
16948.6
14633.7
14474
12552.7
12532.2
10820.3
11132.3
9704.09
10342.2
9287.65
10048.9
9232.25
10243.1
9726.21
11096
10768.5
12450.7
12264.6
13873
13533.3
14919.8
14108.2
14948.2
13791.7
13996.5
12248
12032.7
9935.67
9629.14
7659.46
7249.26
5493.34
5404.4
3595.73
3492.63
1296.11
432.89
-1.79083e+06
3.29187e+06
1.14045e+06
383128
83656.7
34493.6
22093.9
17246.2
16764.7
13708.9
14969.8
12012.1
13172.6
10235.6
11789.7
9053.17
10938.2
8731.34
10622.3
8664.4
10824.7
9139.92
11764.5
10096.3
13140.1
11625
14523.7
12846.2
15647
13347.5
15603.6
13147.9
14652.3
11601.3
12698.2
9222
10261.7
7076.48
7768.25
4888.16
6065.99
2998.84
4141.53
707.676
2231.64
-1.37351e+07
4.70834e+06
1.88566e+06
514069
97490
36168.9
21825.4
20549
18778.6
19209.6
17493.7
15251
12245.3
12033.6
14146.8
14638.9
13237.9
12832.4
12832.4
12676.7
10061.2
12445.8
13209.8
14782.5
14599.7
14229.2
13347.2
14775.1
18322.5
19752.8
17854.1
17743.5
16991.2
15417.5
11585
10535.5
9241.67
12000
12244.6
9675.26
8582.85
7835.6
6577
3327
-74.3671
-9.24096e+07
-2.30672e+06
-412741
4.27696e+06
1.17655e+07
5.8366e+07
-3.14717e+06
-1.83183e+06
-99721.2
-6.5216e+06
1.00574e+08
3.66034e+06
-319818
-372745
-7.3005e+06
5.78598e+07
-2.96496e+06
-2.30178e+06
-2.45424e+06
-6.9536e+06
-8.03033e+07
-1.47618e+07
-1.94242e+06
-2.55525e+06
-8.56121e+06
-1.7932e+06
3.29296e+06
1.1387e+06
384556
81862
36220.3
20349.9
18912.3
15115.4
15456.4
13333
13860.3
11341.9
12186.5
10066.6
10875.1
9145.05
10559.3
8790.66
10505.4
8841.69
11070.7
9879.07
12060.1
11238.1
13637.8
12448.4
14900.7
13743.8
15231.8
13630.3
15044.9
12671.3
13537.5
10517.3
11339.2
8098.6
9004.19
5827.51
6872.86
4131.95
5013.78
2231.74
3004.83
330.248
-7.69836e+06
627401
156459
182214
40506.1
22608.1
18325.3
19118.2
16086.4
15691.5
13692.8
13696.8
11649
11991.8
10271.2
10751.3
9367.28
10296.8
9030.37
10236.8
9156.67
10810.6
10113.1
11904.9
11458.4
13395.7
12750.8
14655.5
13860
15103.8
13791.6
14772
12833.7
13236.8
10770.6
11034.8
8409.82
8690.51
6182.25
6612.87
4384.87
4773.26
2536.16
2606.02
-628.1
-7.2729e+06
-536963
-417056
-50916.7
-33380.9
231.277
12069.3
17010.1
16464.5
15503.4
14322.2
13303.3
12232.3
11523.7
10796.3
10290
9902.47
9761.13
9575.25
9694.16
9769.06
10255
10707.4
11367.1
12054.2
12804.1
13382.7
14022.7
14400.9
14487
14368
14086.1
13396.5
12557.4
11413.3
10358
9093.94
8038.22
6874.3
5979.4
5020.69
4173.07
3232.17
2444.31
1605.02
-6.19599e+06
-1.12141e+06
-700172
-182101
-66115.4
-4260.25
13074.1
17962.3
17223.3
15878.5
14480.9
13367.5
12279.9
11541
10800.6
10322.8
9900.52
9772.26
9565.91
9718.24
9784.2
10288
10696.4
11412.1
12025
12826.2
13345.7
14017.1
14298.7
14487.2
14275.8
14054.9
13290.4
12545.3
11350.8
10378.7
9057.03
8099.95
6842.33
6036.05
4981.07
4242.02
3294.67
2489.98
654.204
-7.03519e+06
-1.81166e+06
-741791
-64732.3
36502.5
50364.4
37388.8
27088.3
20387
16434.1
14767.3
13076.7
12443
11251.1
11004.5
10038.9
10119.8
9485.9
9808.32
9412.94
10048.9
9978.71
10965.3
11079.4
12293.3
12470.5
13610.3
13635.5
14555.4
14077.9
14559
13629.3
13565.4
12126.5
11659
9983.27
9408.23
7743.41
7199.02
5683.27
5354.08
3923.85
3742.26
2516.42
2607.99
)
;

boundaryField
{
    AirInlet
    {
        type            calculated;
        value           uniform -1.37315e+07;
    }
    WaterInlet
    {
        type            calculated;
        value           nonuniform List<scalar> 10(-8.02991e+07 5.7864e+07 1.00579e+08 5.83702e+07 -9.24053e+07 -9.24096e+07 5.8366e+07 1.00574e+08 5.78598e+07 -8.03033e+07);
    }
    ChannelWall
    {
        type            calculated;
        value           nonuniform List<scalar> 
110
(
-9.24053e+07
-2.30251e+06
-408751
4.28059e+06
1.17685e+07
-9.24096e+07
-2.30672e+06
-412741
4.27696e+06
1.17655e+07
-8.03033e+07
-1.47618e+07
-1.94242e+06
-2.55525e+06
-8.56121e+06
-7.03519e+06
-1.81166e+06
-741791
-64732.3
36502.4
50364.3
37388.8
27088.2
20387
16434.1
14767.2
13076.6
12443
11251.1
11004.5
10038.8
10119.7
9485.86
9808.27
9412.9
10048.8
9978.67
10965.3
11079.3
12293.3
12470.4
13610.3
13635.5
14555.4
14077.8
14559
13629.2
13565.4
12126.4
11659
9983.23
9408.18
7743.36
7198.98
5683.22
5354.03
3923.81
3742.21
2516.38
2607.95
-8.02991e+07
-1.47577e+07
-1.93857e+06
-2.5518e+06
-8.55827e+06
-7.03298e+06
-1.81016e+06
-740814
-63963.2
37044
50765.3
37609.6
27136
20258.3
16201.9
14451.4
12732.2
12100.4
10968.4
10775.7
9902.54
10048.4
9468.03
9798.93
9403.37
9988.08
9882.25
10808.8
10918.4
12144.5
12386.9
13570.9
13664.9
14637.1
14234.4
14753
13854.7
13786.2
12351.6
11839.1
10136
9492.67
7782.68
7187.22
5615.02
5260.72
3754.8
3563.13
2280.07
2379.98
)
;
    }
    Outlet
    {
        type            calculated;
        value           nonuniform List<scalar> 
11
(
-0.044145
-0.132435
-0.220725
-0.308996
-0.395463
-0.453692
-0.580972
-0.671943
-0.760274
-0.848565
-0.936855
)
;
    }
    FrontAndBack
    {
        type            empty;
    }
}


// ************************************************************************* //
