/*--------------------------------*- C++ -*----------------------------------*\
| =========                 |                                                 |
| \\      /  F ield         | OpenFOAM: The Open Source CFD Toolbox           |
|  \\    /   O peration     | Version:  2.3.0                                 |
|   \\  /    A nd           | Web:      www.OpenFOAM.org                      |
|    \\/     M anipulation  |                                                 |
\*---------------------------------------------------------------------------*/
FoamFile
{
    version     2.0;
    format      ascii;
    class       volScalarField;
    location    "1.75";
    object      alpha.particlesMean;
}
// * * * * * * * * * * * * * * * * * * * * * * * * * * * * * * * * * * * * * //

dimensions      [0 0 0 0 0 0 0];

internalField   nonuniform List<scalar> 
6000
(
0.419148
0.427714
0.426525
0.423829
0.4209
0.412726
0.414511
0.412453
0.415212
0.41447
0.415515
0.419344
0.414207
0.413923
0.42094
0.424042
0.425108
0.422165
0.421929
0.42598
0.427621
0.424411
0.422599
0.427211
0.429518
0.429264
0.428147
0.421358
0.420091
0.417248
0.393835
0.394926
0.394835
0.38931
0.382092
0.380164
0.380845
0.379653
0.37929
0.384205
0.384791
0.383126
0.383096
0.380529
0.38471
0.394278
0.394362
0.389582
0.389735
0.389814
0.392284
0.393492
0.393545
0.395308
0.390712
0.391063
0.389697
0.388983
0.38934
0.397981
0.398695
0.401655
0.399369
0.388445
0.38613
0.388152
0.38695
0.380719
0.381998
0.390712
0.390462
0.384087
0.381882
0.379938
0.386284
0.394956
0.39573
0.391354
0.38873
0.39187
0.394676
0.394229
0.393681
0.388253
0.385476
0.394266
0.399266
0.396718
0.393006
0.400993
0.400203
0.399727
0.39267
0.383885
0.387556
0.389038
0.385124
0.380542
0.381961
0.391117
0.392877
0.380791
0.377106
0.376246
0.381699
0.387998
0.389815
0.386032
0.385622
0.389132
0.390455
0.389406
0.383053
0.373939
0.377822
0.387657
0.401101
0.39831
0.38811
0.399006
0.395514
0.395901
0.384749
0.382894
0.387853
0.387387
0.380696
0.378105
0.38079
0.389824
0.3905
0.375127
0.366009
0.360816
0.367764
0.379836
0.387098
0.3826
0.384916
0.387627
0.387936
0.385701
0.376371
0.370815
0.373315
0.382223
0.399873
0.39914
0.38251
0.392031
0.390838
0.390503
0.381909
0.383693
0.386996
0.383993
0.375789
0.374617
0.377746
0.383689
0.384411
0.36804
0.353804
0.351984
0.359234
0.37593
0.387118
0.383067
0.382837
0.384664
0.383399
0.37978
0.376013
0.369861
0.370906
0.378577
0.399735
0.397243
0.376788
0.385702
0.386822
0.385101
0.382033
0.380814
0.383296
0.38038
0.371152
0.370539
0.370901
0.377901
0.376665
0.361747
0.351003
0.354274
0.362421
0.377468
0.384546
0.376608
0.379776
0.38107
0.380959
0.379051
0.376258
0.370512
0.371121
0.379262
0.397076
0.395253
0.371084
0.380804
0.382643
0.38605
0.380637
0.376101
0.378049
0.377153
0.368552
0.364759
0.365172
0.371861
0.369291
0.357553
0.355423
0.358729
0.368503
0.380876
0.374468
0.370646
0.378175
0.384925
0.384732
0.380935
0.374671
0.372558
0.376628
0.381082
0.392438
0.387762
0.365621
0.377725
0.385507
0.388358
0.378937
0.371623
0.3751
0.375137
0.369226
0.362424
0.358984
0.362786
0.361519
0.357462
0.360458
0.364526
0.376581
0.382556
0.371267
0.370014
0.375197
0.388308
0.391426
0.385279
0.37544
0.3776
0.380601
0.385014
0.387534
0.379601
0.36273
0.377383
0.389627
0.388731
0.376371
0.368824
0.373487
0.375393
0.372464
0.361427
0.354753
0.353385
0.357292
0.360193
0.365927
0.370226
0.381247
0.381195
0.369894
0.369628
0.376889
0.38911
0.396258
0.389245
0.381582
0.382705
0.385723
0.386542
0.382434
0.373994
0.363107
0.377818
0.392817
0.387421
0.373697
0.368903
0.372079
0.375458
0.372803
0.363172
0.351842
0.346024
0.355791
0.36688
0.368283
0.373723
0.382668
0.377978
0.370863
0.371936
0.381748
0.392371
0.399145
0.392594
0.388618
0.390251
0.390622
0.387167
0.377779
0.372753
0.366815
0.380044
0.393787
0.384292
0.368627
0.368331
0.370446
0.372735
0.37211
0.366964
0.35157
0.338426
0.353475
0.368968
0.36874
0.372177
0.379107
0.376841
0.372993
0.376238
0.38401
0.394157
0.400815
0.395842
0.396203
0.397553
0.39615
0.386546
0.377149
0.37373
0.374112
0.387455
0.392778
0.379117
0.363811
0.364885
0.365852
0.368911
0.371527
0.373271
0.353449
0.338767
0.34715
0.366338
0.366747
0.368295
0.374346
0.376326
0.377073
0.379869
0.381908
0.394107
0.402035
0.402203
0.404076
0.405257
0.399479
0.389027
0.379408
0.378594
0.383796
0.399183
0.390878
0.373879
0.360919
0.359404
0.361164
0.364554
0.370148
0.373956
0.359495
0.345668
0.346802
0.360702
0.3651
0.365418
0.371091
0.37728
0.381444
0.379899
0.37953
0.394694
0.405595
0.409529
0.410638
0.408547
0.401119
0.391257
0.38533
0.388386
0.398066
0.416051
0.38935
0.370117
0.358553
0.35426
0.355866
0.359683
0.365086
0.372588
0.365693
0.356549
0.350433
0.356661
0.363019
0.361735
0.369753
0.377848
0.383647
0.378006
0.377846
0.395443
0.410308
0.415316
0.412239
0.404912
0.396243
0.390969
0.390072
0.399996
0.41213
0.433651
0.388098
0.365666
0.358165
0.351161
0.351635
0.352852
0.357275
0.366121
0.367549
0.362277
0.356257
0.35085
0.36017
0.359215
0.368577
0.378883
0.38262
0.37534
0.375874
0.395291
0.40997
0.411419
0.401798
0.386541
0.380458
0.382415
0.389633
0.40418
0.419425
0.443397
0.385122
0.360302
0.360132
0.353779
0.349295
0.348563
0.34694
0.357261
0.361017
0.360886
0.356014
0.349064
0.353475
0.359201
0.369754
0.379585
0.380963
0.374838
0.375364
0.394169
0.40859
0.407019
0.386289
0.368951
0.364994
0.375258
0.386453
0.40422
0.419049
0.443141
0.375806
0.356812
0.363329
0.359419
0.350677
0.348586
0.344289
0.349385
0.355853
0.351178
0.349321
0.344804
0.347656
0.360627
0.372614
0.38147
0.381697
0.378447
0.381211
0.395732
0.41025
0.404154
0.379402
0.3635
0.362557
0.374762
0.388842
0.404719
0.416985
0.444253
0.362667
0.355929
0.366039
0.366493
0.353403
0.350599
0.346947
0.34456
0.350672
0.347168
0.341037
0.340171
0.344074
0.361367
0.375938
0.383255
0.385946
0.387336
0.389727
0.39868
0.410126
0.401784
0.376663
0.361454
0.361428
0.373702
0.392398
0.405451
0.416919
0.449173
0.355934
0.356539
0.369448
0.370773
0.35336
0.349676
0.348068
0.344984
0.345749
0.346704
0.341084
0.337189
0.344643
0.360785
0.37586
0.382131
0.389597
0.397073
0.398156
0.400201
0.406471
0.397539
0.374293
0.358888
0.361771
0.370797
0.392248
0.404114
0.414939
0.450007
0.356529
0.359117
0.373014
0.375773
0.356556
0.350528
0.350711
0.350014
0.345574
0.347593
0.343628
0.337522
0.343715
0.359776
0.373161
0.378464
0.388906
0.404025
0.401128
0.404005
0.401911
0.391187
0.370578
0.356795
0.360595
0.367879
0.390429
0.401226
0.414764
0.446236
0.361098
0.364956
0.378653
0.382502
0.364258
0.355063
0.356297
0.354407
0.34766
0.347043
0.347073
0.339843
0.343443
0.356759
0.371877
0.374368
0.383963
0.403844
0.404902
0.405222
0.401449
0.387939
0.369709
0.354145
0.357762
0.365451
0.389481
0.402251
0.417729
0.446703
0.366496
0.371668
0.385513
0.390506
0.373684
0.361578
0.360895
0.356731
0.346991
0.346863
0.348351
0.34474
0.343951
0.354463
0.368182
0.367992
0.374928
0.402928
0.407034
0.405935
0.400212
0.389307
0.371775
0.355718
0.35475
0.365454
0.390688
0.40751
0.423617
0.449338
0.372118
0.37657
0.390877
0.400806
0.385112
0.368964
0.365044
0.357434
0.346611
0.345939
0.348122
0.349033
0.347553
0.35465
0.361602
0.358617
0.370369
0.400779
0.407157
0.404568
0.39954
0.387216
0.374081
0.358625
0.356
0.367335
0.391958
0.414288
0.43085
0.451374
0.377258
0.37907
0.396115
0.412466
0.397999
0.375664
0.366859
0.357911
0.346231
0.345497
0.34768
0.35173
0.352448
0.356136
0.356533
0.352163
0.369627
0.397371
0.405211
0.402817
0.395191
0.383096
0.369296
0.359738
0.358012
0.371883
0.394851
0.419177
0.436274
0.451855
0.381876
0.381627
0.401988
0.422715
0.410495
0.381272
0.367412
0.356475
0.346602
0.344272
0.3482
0.352824
0.356668
0.358037
0.353154
0.35236
0.368491
0.392454
0.399885
0.394137
0.386063
0.371717
0.359762
0.352271
0.357854
0.376286
0.399079
0.419918
0.43621
0.452407
0.387121
0.387255
0.409239
0.43087
0.420132
0.386319
0.367106
0.355396
0.345437
0.344276
0.348879
0.35478
0.358142
0.359396
0.353055
0.355631
0.364878
0.38488
0.385692
0.378612
0.371231
0.360163
0.349077
0.346406
0.352895
0.375728
0.398238
0.414787
0.426162
0.447721
0.3933
0.396462
0.417297
0.435805
0.426068
0.390008
0.367096
0.353068
0.345101
0.343524
0.349544
0.355449
0.358656
0.358547
0.355651
0.356639
0.360418
0.375507
0.375704
0.369289
0.363617
0.35386
0.34713
0.346666
0.350212
0.373965
0.395291
0.408313
0.414894
0.430447
0.401047
0.40539
0.423747
0.438635
0.429444
0.392042
0.365602
0.350674
0.342236
0.342707
0.348673
0.355018
0.35738
0.356159
0.357679
0.357051
0.357048
0.369268
0.372891
0.36611
0.35964
0.353854
0.349908
0.350829
0.351644
0.376669
0.394739
0.406867
0.412785
0.4224
0.411022
0.410585
0.426818
0.439968
0.431247
0.392966
0.363179
0.345883
0.339214
0.341087
0.347074
0.353876
0.355236
0.354509
0.357871
0.358739
0.35811
0.3705
0.375036
0.3664
0.360828
0.357227
0.356547
0.35335
0.355746
0.38199
0.396802
0.407835
0.413152
0.418615
0.423364
0.413742
0.428853
0.438949
0.430391
0.393966
0.358742
0.341321
0.335745
0.339787
0.344837
0.350822
0.352626
0.352269
0.356452
0.360318
0.362447
0.377449
0.379102
0.368773
0.363746
0.363405
0.361319
0.356757
0.36183
0.38852
0.399477
0.408928
0.412689
0.415717
0.435589
0.418866
0.431635
0.435761
0.4277
0.393793
0.355167
0.337132
0.33416
0.337919
0.343667
0.348017
0.34847
0.349706
0.355543
0.362873
0.368627
0.386379
0.386392
0.372618
0.367963
0.368327
0.365763
0.360287
0.368991
0.394044
0.401686
0.409439
0.410189
0.413146
0.444851
0.425557
0.434772
0.431985
0.42416
0.395029
0.352849
0.335099
0.332496
0.336825
0.342641
0.34656
0.346615
0.349099
0.356441
0.365936
0.376387
0.39612
0.392465
0.376923
0.372049
0.372535
0.368839
0.363514
0.374687
0.396769
0.402697
0.408404
0.406542
0.411127
0.448361
0.432135
0.437856
0.429937
0.420066
0.395375
0.351952
0.333551
0.332823
0.335926
0.342456
0.347072
0.348048
0.351905
0.358548
0.370347
0.383933
0.402596
0.395967
0.379812
0.376193
0.37607
0.371269
0.364709
0.378054
0.398085
0.402173
0.406017
0.401113
0.409565
0.448796
0.435051
0.438539
0.42875
0.415123
0.396354
0.351514
0.333266
0.333572
0.3368
0.342695
0.348206
0.353333
0.357344
0.363284
0.374507
0.391101
0.407066
0.398449
0.383023
0.380381
0.37949
0.371549
0.364314
0.382118
0.401091
0.404631
0.405251
0.39766
0.407183
0.448043
0.432864
0.435312
0.427328
0.412549
0.396779
0.355411
0.333905
0.334702
0.338106
0.342665
0.349926
0.358602
0.364522
0.369019
0.37957
0.39541
0.410099
0.400717
0.385706
0.384489
0.380638
0.370317
0.365745
0.389223
0.407509
0.406903
0.404371
0.395008
0.404373
0.444926
0.427768
0.430901
0.425971
0.410853
0.399364
0.359411
0.33777
0.335845
0.339274
0.342684
0.351419
0.363161
0.369013
0.375689
0.383887
0.397975
0.410623
0.402822
0.387625
0.386791
0.379901
0.369002
0.370356
0.398292
0.412417
0.407125
0.402174
0.391828
0.401762
0.440307
0.424936
0.425759
0.420746
0.410077
0.402294
0.365809
0.342542
0.337725
0.34009
0.342117
0.354275
0.365207
0.371394
0.379725
0.389173
0.398948
0.409992
0.403989
0.38852
0.385897
0.377978
0.371022
0.377669
0.407087
0.413876
0.405773
0.399326
0.388476
0.399643
0.43582
0.426567
0.421485
0.414513
0.408573
0.405397
0.373011
0.348326
0.33975
0.340476
0.34248
0.356021
0.367256
0.371334
0.381682
0.392285
0.401004
0.408028
0.404231
0.38866
0.382564
0.376641
0.376065
0.386629
0.412408
0.41264
0.403125
0.395042
0.386892
0.397628
0.436112
0.431182
0.420854
0.407893
0.406576
0.406251
0.380931
0.354189
0.342573
0.341292
0.343836
0.358903
0.36829
0.373238
0.381229
0.394185
0.402749
0.406019
0.403254
0.387069
0.378356
0.377574
0.383041
0.394546
0.413182
0.40919
0.398283
0.391544
0.386016
0.396261
0.438195
0.433228
0.418663
0.403763
0.403813
0.405965
0.388267
0.361507
0.345789
0.342166
0.3468
0.361756
0.370628
0.375509
0.384058
0.394803
0.404857
0.403951
0.400607
0.384406
0.376013
0.380665
0.390498
0.399957
0.411818
0.404703
0.395028
0.390156
0.385228
0.397373
0.44089
0.430168
0.414233
0.402086
0.400715
0.404086
0.394126
0.368611
0.349552
0.344185
0.349661
0.366412
0.373836
0.380257
0.387926
0.398242
0.405622
0.401756
0.394715
0.383446
0.375283
0.383855
0.396454
0.402842
0.411283
0.4025
0.393771
0.389571
0.38328
0.399761
0.443066
0.424644
0.408645
0.399611
0.397067
0.401929
0.39623
0.374305
0.353781
0.346206
0.353617
0.370922
0.379609
0.385316
0.393847
0.400832
0.40487
0.394782
0.390943
0.384122
0.37584
0.386034
0.399457
0.405755
0.412187
0.402409
0.395461
0.391347
0.384645
0.402323
0.443368
0.417351
0.402441
0.395636
0.393906
0.400664
0.398676
0.376333
0.356666
0.347126
0.356851
0.375129
0.383226
0.390232
0.396966
0.399727
0.398239
0.391894
0.390368
0.386457
0.378405
0.388299
0.400013
0.408478
0.412504
0.404222
0.398679
0.394327
0.388303
0.404213
0.437246
0.408203
0.396466
0.391902
0.393644
0.399467
0.399417
0.376515
0.357769
0.346572
0.358942
0.37775
0.385042
0.391125
0.397917
0.39734
0.398242
0.392693
0.391994
0.390251
0.385094
0.389662
0.398923
0.410286
0.412239
0.40548
0.402366
0.399297
0.393225
0.406496
0.429576
0.399435
0.391299
0.39143
0.394236
0.39763
0.397739
0.375402
0.358933
0.34727
0.359211
0.379488
0.384166
0.392254
0.398304
0.399248
0.398864
0.395115
0.39443
0.395711
0.391395
0.390123
0.397072
0.411509
0.413111
0.409624
0.408498
0.405804
0.398926
0.411787
0.422987
0.393993
0.389739
0.392858
0.394995
0.396323
0.395025
0.374713
0.361318
0.350839
0.360711
0.379579
0.384903
0.392224
0.401245
0.401167
0.400687
0.396989
0.397521
0.397476
0.395035
0.391111
0.397577
0.41535
0.417504
0.417054
0.416063
0.414013
0.4093
0.419167
0.41571
0.392948
0.391207
0.394238
0.397117
0.396476
0.394819
0.376341
0.365784
0.357226
0.363395
0.381318
0.387755
0.396551
0.402562
0.405403
0.403072
0.400053
0.397795
0.398114
0.397439
0.394582
0.40234
0.423239
0.426015
0.426431
0.426252
0.424781
0.419395
0.426636
0.412811
0.394
0.39356
0.395484
0.399447
0.399462
0.397079
0.380298
0.370963
0.362835
0.365544
0.382373
0.394661
0.401767
0.407937
0.41067
0.408031
0.402113
0.3995
0.400473
0.401545
0.39869
0.409859
0.433582
0.435341
0.436399
0.437017
0.432399
0.426219
0.433285
0.415295
0.399007
0.397053
0.39711
0.40175
0.403502
0.40137
0.384603
0.374606
0.367094
0.365698
0.381916
0.396975
0.40519
0.410464
0.415358
0.411924
0.406354
0.402806
0.405538
0.404967
0.403276
0.418156
0.442892
0.444027
0.445443
0.442667
0.438155
0.431364
0.437961
0.420736
0.407973
0.404805
0.404156
0.405043
0.408118
0.407613
0.388655
0.376212
0.368389
0.367458
0.378256
0.390282
0.4017
0.410823
0.41609
0.416673
0.411329
0.409021
0.411058
0.410155
0.407324
0.425317
0.449895
0.450834
0.449238
0.446937
0.444755
0.436792
0.439886
0.428461
0.411631
0.412871
0.412903
0.411277
0.413112
0.413337
0.392591
0.374224
0.365988
0.368256
0.374211
0.382267
0.397826
0.405549
0.414144
0.417072
0.416609
0.418201
0.418166
0.415769
0.41231
0.428618
0.452535
0.453288
0.452497
0.450949
0.449532
0.440837
0.440331
0.43581
0.412055
0.413213
0.417616
0.417386
0.418166
0.416806
0.393081
0.365833
0.35933
0.364789
0.368731
0.379862
0.391557
0.403842
0.412305
0.418196
0.422942
0.428032
0.425025
0.421477
0.41681
0.427634
0.45344
0.456554
0.455151
0.453955
0.452585
0.442551
0.439956
0.438413
0.411155
0.408673
0.412945
0.418458
0.421564
0.418069
0.387745
0.353041
0.349637
0.356299
0.365519
0.376043
0.386779
0.396705
0.408865
0.421466
0.432355
0.432393
0.431658
0.425483
0.420513
0.425256
0.45075
0.458494
0.457291
0.455981
0.453773
0.441329
0.439118
0.438451
0.404464
0.400562
0.405249
0.413025
0.420278
0.415364
0.375026
0.34378
0.342044
0.350743
0.358918
0.368944
0.375926
0.385873
0.400015
0.422398
0.437326
0.437564
0.435785
0.429785
0.421624
0.424301
0.443433
0.458148
0.459023
0.4579
0.453766
0.437662
0.4377
0.433966
0.393416
0.392542
0.398191
0.407458
0.415051
0.406326
0.362601
0.341511
0.342358
0.343965
0.346134
0.349835
0.356178
0.36946
0.39142
0.415873
0.433976
0.441188
0.440098
0.432517
0.422742
0.423573
0.436776
0.454085
0.460513
0.458982
0.452098
0.434772
0.437369
0.423236
0.386402
0.386824
0.39415
0.401823
0.410514
0.395307
0.357028
0.343284
0.343057
0.337882
0.331761
0.331605
0.334163
0.347051
0.374589
0.40432
0.422142
0.4401
0.442174
0.430841
0.417433
0.421039
0.431659
0.447641
0.460164
0.458678
0.449502
0.432116
0.437911
0.419236
0.382915
0.382717
0.390596
0.397535
0.405338
0.388431
0.357138
0.344774
0.338689
0.330309
0.325236
0.323973
0.329695
0.339938
0.358504
0.382723
0.403016
0.422608
0.432739
0.419202
0.410444
0.413484
0.426234
0.439886
0.457769
0.45778
0.446543
0.430501
0.436609
0.419847
0.380744
0.381296
0.388201
0.395517
0.403585
0.384688
0.359726
0.344607
0.33095
0.324713
0.321885
0.324116
0.327998
0.338445
0.350773
0.364601
0.381095
0.400005
0.422696
0.414748
0.404151
0.405335
0.417622
0.43188
0.452484
0.454169
0.441781
0.428492
0.434943
0.422469
0.382802
0.381559
0.38787
0.39485
0.400827
0.383215
0.36165
0.343623
0.324947
0.321196
0.32269
0.3236
0.327372
0.335374
0.345184
0.353189
0.370119
0.388305
0.414839
0.413727
0.400227
0.399281
0.411286
0.423678
0.443648
0.44827
0.433899
0.426598
0.434214
0.423271
0.387086
0.387349
0.388944
0.393483
0.397182
0.383233
0.361084
0.342596
0.321897
0.320291
0.320869
0.323021
0.325205
0.333081
0.340329
0.347379
0.363246
0.382675
0.407325
0.411781
0.399197
0.396468
0.407511
0.417861
0.43628
0.44053
0.425322
0.420753
0.435796
0.42176
0.392723
0.395362
0.392556
0.392108
0.394113
0.383023
0.361195
0.341757
0.322601
0.318036
0.320001
0.320904
0.323845
0.330141
0.337746
0.343673
0.356201
0.374464
0.402995
0.408645
0.399461
0.396719
0.406841
0.416656
0.433076
0.429883
0.413541
0.404533
0.433662
0.416338
0.395478
0.399315
0.395569
0.389804
0.390685
0.38269
0.361997
0.343835
0.325703
0.319477
0.319177
0.320259
0.321931
0.328574
0.335324
0.342003
0.350164
0.363326
0.391545
0.406266
0.401251
0.401352
0.410646
0.420181
0.432913
0.424129
0.413715
0.405217
0.424109
0.402903
0.392322
0.394856
0.393288
0.386987
0.389327
0.384671
0.364431
0.348389
0.333066
0.324141
0.324234
0.322237
0.322674
0.3269
0.334306
0.340809
0.348035
0.358756
0.377696
0.398132
0.406878
0.408051
0.418044
0.427362
0.437575
0.426776
0.419454
0.409293
0.420774
0.387841
0.382685
0.386053
0.389476
0.386994
0.390837
0.38849
0.367642
0.354455
0.342788
0.330777
0.328104
0.328705
0.326464
0.328048
0.333281
0.340675
0.346904
0.357574
0.37138
0.395031
0.40982
0.414785
0.424281
0.435452
0.441256
0.425535
0.42074
0.412505
0.420923
0.379502
0.372691
0.380177
0.388084
0.388047
0.39239
0.391564
0.370992
0.359425
0.350719
0.337676
0.332574
0.331088
0.333085
0.332611
0.33514
0.340637
0.346719
0.358068
0.377868
0.39917
0.414383
0.4162
0.423258
0.436511
0.434802
0.416409
0.413492
0.405297
0.417994
0.376862
0.368089
0.376887
0.386663
0.38968
0.39435
0.393472
0.372973
0.363586
0.354597
0.344946
0.337992
0.334341
0.335475
0.33806
0.339346
0.343881
0.349241
0.366182
0.390951
0.40774
0.417131
0.417154
0.418292
0.433178
0.426512
0.411422
0.40618
0.395513
0.409135
0.377612
0.366322
0.373251
0.384335
0.390281
0.397558
0.394644
0.374025
0.364981
0.35751
0.34914
0.343439
0.33799
0.337965
0.339914
0.343826
0.34745
0.353717
0.37361
0.404044
0.415127
0.420257
0.417791
0.41758
0.433204
0.425033
0.408941
0.403068
0.393581
0.406828
0.383622
0.367682
0.369837
0.379185
0.389595
0.400081
0.39582
0.374022
0.365851
0.358412
0.353032
0.346669
0.342619
0.340535
0.342435
0.346284
0.350461
0.357196
0.379509
0.411916
0.423013
0.422447
0.42157
0.420422
0.437124
0.426755
0.410874
0.40514
0.397808
0.415048
0.396152
0.373795
0.372039
0.375933
0.385206
0.399823
0.39549
0.373775
0.364326
0.359681
0.355493
0.350654
0.345696
0.344068
0.344714
0.348375
0.352259
0.361316
0.384191
0.414714
0.427482
0.426881
0.425596
0.425105
0.443653
0.431413
0.416537
0.412759
0.407555
0.417667
0.406548
0.386928
0.381803
0.380565
0.383174
0.395704
0.393063
0.373132
0.363849
0.360923
0.358375
0.354036
0.349358
0.345642
0.347801
0.350264
0.355615
0.364911
0.387902
0.415352
0.429479
0.431846
0.431134
0.430536
0.450665
0.436791
0.422504
0.416337
0.408336
0.417291
0.412322
0.401151
0.396323
0.391692
0.390106
0.395558
0.389218
0.373056
0.365315
0.363698
0.359378
0.354701
0.349307
0.34571
0.348716
0.352542
0.358817
0.368968
0.389356
0.416199
0.429213
0.43444
0.434156
0.43484
0.453792
0.438454
0.424034
0.415702
0.40573
0.417811
0.4163
0.410674
0.410284
0.40713
0.402622
0.40025
0.389133
0.373738
0.366232
0.362401
0.357688
0.35254
0.347137
0.342867
0.348112
0.352944
0.360005
0.372068
0.39134
0.414329
0.427593
0.433174
0.435096
0.437938
0.454808
0.438658
0.423957
0.413549
0.402457
0.418451
0.418374
0.417234
0.419451
0.419416
0.4153
0.40749
0.39338
0.376567
0.366127
0.357149
0.351762
0.349063
0.342684
0.340698
0.346272
0.353433
0.360276
0.3736
0.392959
0.41303
0.426882
0.431983
0.432479
0.437808
0.453513
0.440152
0.425388
0.412939
0.397307
0.418465
0.41792
0.420682
0.425015
0.425755
0.423967
0.416043
0.398278
0.379962
0.365525
0.349373
0.345399
0.341917
0.338707
0.339398
0.347253
0.354019
0.362631
0.376534
0.395702
0.412805
0.42704
0.428613
0.428663
0.43405
0.448862
0.440858
0.428676
0.416147
0.398921
0.421342
0.418114
0.422451
0.428781
0.429377
0.429368
0.421849
0.401388
0.3814
0.357736
0.342782
0.339037
0.337426
0.335062
0.339892
0.347578
0.355008
0.363455
0.378316
0.395903
0.412634
0.424205
0.422679
0.422494
0.430091
0.444153
0.439898
0.434223
0.429059
0.413674
0.423072
0.418577
0.423489
0.431719
0.432737
0.432574
0.422669
0.39869
0.372226
0.347421
0.33583
0.334338
0.332511
0.334071
0.339037
0.348355
0.35562
0.364766
0.37763
0.393489
0.410166
0.418642
0.414915
0.418606
0.43069
0.445684
0.443811
0.44444
0.44501
0.427819
0.425231
0.418357
0.41949
0.430849
0.431906
0.434299
0.421818
0.390548
0.361922
0.34129
0.331346
0.330074
0.331199
0.332964
0.339652
0.348398
0.35805
0.366594
0.379199
0.393
0.40849
0.412198
0.406181
0.413612
0.431872
0.449838
0.452411
0.456427
0.454505
0.436063
0.429795
0.417543
0.413819
0.427254
0.430935
0.432459
0.420108
0.385402
0.355728
0.335386
0.327974
0.329141
0.330943
0.335749
0.342049
0.351816
0.361699
0.370795
0.382819
0.397657
0.408054
0.405858
0.395978
0.405381
0.428827
0.450751
0.458766
0.460512
0.453131
0.4384
0.434822
0.410025
0.408953
0.426175
0.431063
0.431093
0.413154
0.38103
0.351845
0.332423
0.328812
0.330228
0.335393
0.340665
0.347877
0.356168
0.366209
0.375299
0.38987
0.403373
0.408146
0.402857
0.391754
0.395764
0.420251
0.446505
0.456307
0.454764
0.447108
0.434762
0.438326
0.40253
0.407964
0.42722
0.432892
0.430238
0.407816
0.37372
0.348519
0.337103
0.333322
0.335715
0.340897
0.347279
0.353098
0.360963
0.368109
0.380891
0.396763
0.409653
0.409659
0.399946
0.389386
0.389859
0.412063
0.442721
0.452087
0.449948
0.44235
0.432211
0.440407
0.405477
0.409
0.42698
0.4349
0.430967
0.404414
0.368985
0.34926
0.34171
0.341452
0.34291
0.347543
0.35144
0.357555
0.364131
0.370462
0.38448
0.401597
0.411412
0.407881
0.395498
0.388165
0.389412
0.406501
0.441951
0.453807
0.449452
0.440954
0.435142
0.440216
0.417587
0.410896
0.425485
0.435741
0.4336
0.402848
0.371369
0.351524
0.347063
0.346828
0.350619
0.353921
0.357243
0.361524
0.367872
0.373547
0.387836
0.403086
0.409205
0.402691
0.394388
0.390029
0.393498
0.403028
0.435985
0.454534
0.45074
0.442377
0.437414
0.440547
0.425717
0.415961
0.426408
0.436055
0.435015
0.405617
0.378113
0.358582
0.352583
0.352588
0.355239
0.359381
0.362784
0.368627
0.373537
0.379314
0.39191
0.402856
0.404135
0.401704
0.396662
0.393112
0.394869
0.399965
0.425019
0.448745
0.449372
0.442967
0.436729
0.445479
0.425334
0.421283
0.431232
0.438134
0.43451
0.407456
0.382845
0.367849
0.359999
0.357318
0.35985
0.363178
0.369296
0.37524
0.381033
0.385784
0.396448
0.401846
0.403073
0.403071
0.396659
0.391553
0.394981
0.397773
0.412652
0.440494
0.441587
0.441529
0.441524
0.446456
0.420281
0.421074
0.434383
0.443679
0.432733
0.407898
0.383717
0.37356
0.365873
0.36152
0.362643
0.367589
0.374334
0.38149
0.386268
0.392212
0.39901
0.404259
0.403543
0.401029
0.393062
0.388991
0.391668
0.393758
0.399606
0.429545
0.434527
0.435238
0.438093
0.443158
0.415153
0.420191
0.435866
0.447795
0.433039
0.405333
0.385096
0.37595
0.369422
0.362758
0.36478
0.370661
0.378734
0.384569
0.390528
0.395772
0.402314
0.40541
0.400891
0.395624
0.388518
0.383368
0.385508
0.387655
0.391137
0.412149
0.42643
0.424899
0.427101
0.435617
0.412769
0.419829
0.437647
0.449251
0.433621
0.402255
0.385891
0.378156
0.369339
0.363848
0.366096
0.373968
0.381147
0.38723
0.391866
0.398401
0.405656
0.402219
0.394379
0.388805
0.38153
0.376026
0.377828
0.382185
0.386096
0.399808
0.416705
0.414782
0.415182
0.426687
0.412863
0.420997
0.439927
0.45058
0.431099
0.399589
0.385842
0.377733
0.369754
0.36595
0.369877
0.376836
0.384401
0.389862
0.396397
0.404821
0.410806
0.400777
0.391233
0.384817
0.375573
0.370802
0.373767
0.377909
0.382374
0.391405
0.40137
0.401612
0.398896
0.413686
0.417115
0.423738
0.442135
0.452014
0.425834
0.39732
0.383994
0.37774
0.37018
0.369303
0.37286
0.379361
0.385045
0.393773
0.403466
0.413241
0.413437
0.400494
0.390751
0.379461
0.369213
0.364869
0.366528
0.372279
0.378182
0.387787
0.389534
0.38529
0.380547
0.399662
0.424842
0.42692
0.444553
0.451436
0.421573
0.394295
0.38315
0.377568
0.372511
0.371585
0.376143
0.382035
0.38974
0.398984
0.408655
0.410266
0.404416
0.393646
0.381622
0.370605
0.364849
0.360789
0.362038
0.367527
0.376163
0.386556
0.384992
0.376355
0.373376
0.392025
0.430248
0.437023
0.448062
0.445303
0.417525
0.393527
0.383032
0.378003
0.374842
0.375711
0.379907
0.387463
0.394378
0.401419
0.404034
0.403093
0.395502
0.384925
0.375251
0.368761
0.365401
0.362771
0.361523
0.367159
0.376427
0.385428
0.382126
0.372612
0.370106
0.390602
0.430886
0.443012
0.45142
0.438408
0.41185
0.394311
0.385018
0.379348
0.377954
0.378651
0.383679
0.39099
0.39745
0.399027
0.400737
0.398266
0.389521
0.381128
0.375453
0.371044
0.36805
0.36558
0.36397
0.368157
0.376206
0.383828
0.380181
0.371728
0.368559
0.391657
0.430675
0.44471
0.454533
0.433987
0.408259
0.396284
0.387586
0.38238
0.38033
0.381974
0.385252
0.39291
0.396055
0.398129
0.399231
0.396178
0.386941
0.38138
0.378262
0.374324
0.37128
0.368058
0.365267
0.368636
0.375726
0.382335
0.379287
0.372727
0.368567
0.396397
0.433381
0.44596
0.453138
0.428036
0.40562
0.397514
0.390378
0.385488
0.384085
0.384158
0.386565
0.391138
0.393731
0.397615
0.400569
0.393987
0.386575
0.383162
0.381091
0.377337
0.374737
0.370418
0.366987
0.368418
0.376118
0.3818
0.379257
0.374983
0.372065
0.408972
0.439249
0.447548
0.447865
0.420628
0.404255
0.398565
0.392097
0.388902
0.386186
0.386544
0.386679
0.3876
0.38972
0.396773
0.398818
0.392531
0.386344
0.385406
0.384214
0.381052
0.378354
0.373728
0.369187
0.368957
0.377683
0.38313
0.381816
0.38126
0.383067
0.424776
0.442013
0.444241
0.441986
0.416448
0.404875
0.399145
0.393756
0.390234
0.388229
0.38777
0.38649
0.381575
0.383465
0.391064
0.39291
0.387983
0.38725
0.388173
0.388166
0.385351
0.382224
0.377036
0.372524
0.371426
0.381466
0.388098
0.389458
0.392316
0.397894
0.443119
0.441936
0.44011
0.436867
0.415786
0.405701
0.399835
0.395217
0.392324
0.389351
0.389119
0.383514
0.377239
0.376661
0.382383
0.38199
0.381757
0.387388
0.391348
0.392284
0.389357
0.385219
0.379258
0.375468
0.375788
0.387619
0.397318
0.401009
0.404568
0.415543
0.460296
0.441727
0.434629
0.432584
0.417872
0.408437
0.400998
0.397531
0.394174
0.391875
0.389886
0.382499
0.375703
0.376227
0.375812
0.37347
0.376175
0.388381
0.396045
0.397136
0.394929
0.39091
0.385147
0.381848
0.383337
0.396678
0.409563
0.413643
0.418634
0.43075
0.462355
0.43928
0.427226
0.43222
0.421863
0.412289
0.401611
0.39816
0.39687
0.394075
0.390658
0.38565
0.381462
0.380175
0.376991
0.369953
0.372639
0.386747
0.400823
0.406427
0.405323
0.401386
0.394135
0.390832
0.394691
0.408954
0.422586
0.426482
0.424832
0.430723
0.458132
0.435927
0.426062
0.434089
0.424759
0.414928
0.4032
0.398703
0.397057
0.397141
0.396965
0.395161
0.388957
0.386989
0.379628
0.370968
0.36636
0.377308
0.395126
0.408814
0.415065
0.412196
0.404947
0.402138
0.408225
0.422219
0.434362
0.430478
0.422193
0.426748
0.451254
0.432784
0.426324
0.43461
0.427647
0.418018
0.407986
0.401469
0.398637
0.400193
0.40385
0.402741
0.396198
0.390328
0.38165
0.370297
0.36413
0.368439
0.388092
0.404961
0.417337
0.420444
0.415181
0.414216
0.421776
0.434457
0.438092
0.429502
0.417398
0.420708
0.438015
0.427497
0.424372
0.434896
0.432627
0.423174
0.41381
0.406402
0.402432
0.402894
0.404765
0.405983
0.399374
0.3924
0.382695
0.373088
0.365211
0.362425
0.376253
0.398699
0.415892
0.424348
0.424059
0.426009
0.433353
0.440438
0.438079
0.42667
0.410385
0.406469
0.419568
0.42193
0.422
0.433776
0.436121
0.428736
0.419134
0.413194
0.408495
0.40453
0.404799
0.403767
0.39959
0.392802
0.385703
0.375747
0.367067
0.359736
0.365141
0.390406
0.412208
0.425101
0.429937
0.436011
0.440611
0.441509
0.435976
0.420934
0.396697
0.385643
0.396442
0.417527
0.418059
0.431162
0.436623
0.432176
0.423808
0.420118
0.413641
0.407565
0.403728
0.401322
0.396835
0.392855
0.386941
0.379026
0.368847
0.361475
0.362024
0.382425
0.407854
0.424633
0.4317
0.441467
0.443309
0.438852
0.427926
0.406574
0.373259
0.35786
0.375742
0.412868
0.413167
0.427556
0.435257
0.433665
0.426074
0.422759
0.417821
0.410882
0.403539
0.398387
0.394559
0.391361
0.387414
0.380712
0.372822
0.364858
0.364753
0.377844
0.404163
0.422794
0.431403
0.440764
0.441797
0.43354
0.416818
0.388833
0.34868
0.346346
0.371742
0.408968
0.408871
0.424265
0.433638
0.434133
0.42559
0.422841
0.419101
0.413647
0.40439
0.398515
0.393953
0.391953
0.3873
0.382913
0.375372
0.368832
0.367922
0.376182
0.399848
0.419478
0.428532
0.434515
0.437584
0.42873
0.407792
0.3738
0.342885
0.345839
0.369
0.407733
0.406114
0.423828
0.433525
0.436229
0.427062
0.424384
0.422714
0.415297
0.407891
0.40128
0.396702
0.392069
0.386655
0.381962
0.376708
0.370503
0.369678
0.374971
0.3934
0.415058
0.423999
0.426761
0.429979
0.42545
0.405496
0.369448
0.345162
0.347744
0.367821
0.408125
0.40555
0.425953
0.436033
0.440612
0.431891
0.428991
0.426794
0.418583
0.410155
0.404568
0.398132
0.391058
0.384318
0.380831
0.375013
0.37052
0.36929
0.37224
0.384495
0.410983
0.421153
0.422569
0.422949
0.420366
0.406351
0.372653
0.350041
0.351449
0.368961
0.411666
0.408278
0.428948
0.439609
0.44567
0.437913
0.432602
0.429904
0.421215