/*--------------------------------*- C++ -*----------------------------------*\
| =========                 |                                                 |
| \\      /  F ield         | OpenFOAM: The Open Source CFD Toolbox           |
|  \\    /   O peration     | Version:  2.3.0                                 |
|   \\  /    A nd           | Web:      www.OpenFOAM.org                      |
|    \\/     M anipulation  |                                                 |
\*---------------------------------------------------------------------------*/
FoamFile
{
    version     2.0;
    format      ascii;
    class       volScalarField;
    location    "1.75";
    object      Theta.particles;
}
// * * * * * * * * * * * * * * * * * * * * * * * * * * * * * * * * * * * * * //

dimensions      [0 2 -2 0 0 0 0];

internalField   nonuniform List<scalar> 
6000
(
0.00060061
0.00065403
0.000968332
0.00146009
0.00142342
0.000984257
0.00105442
0.00193615
0.00132048
0.00134402
0.00111367
0.000400994
0.000144949
5.1196e-05
2.41716e-05
1.65145e-05
2.9487e-05
8.70446e-05
0.000162577
0.000105241
0.00010259
9.77173e-05
8.44382e-05
7.98115e-05
0.000123224
0.000251038
0.000368607
0.00034812
0.000390548
0.000855551
3.4635e-05
4.6801e-05
4.36272e-05
5.33363e-05
7.05413e-05
6.69885e-05
5.47758e-05
4.92922e-05
4.72514e-05
5.72455e-05
5.13846e-05
4.46465e-05
3.28297e-05
2.82584e-05
2.67924e-05
2.58285e-05
2.4781e-05
3.50759e-05
2.74665e-05
5.48251e-06
1.54767e-05
1.09883e-05
8.52586e-06
1.27464e-05
4.1025e-05
4.02737e-05
2.89038e-05
2.7286e-05
5.05409e-05
5.73833e-05
1.07545e-05
2.74112e-06
2.22384e-06
2.32903e-06
1.1193e-06
7.63925e-06
2.73195e-06
9.51989e-07
1.33455e-06
3.78e-06
4.13498e-06
1.37561e-05
2.84637e-05
2.78208e-05
4.24332e-05
8.75813e-05
0.000331333
0.000668414
0.00034338
0.000408865
0.000278147
0.000234572
0.00026949
0.000223937
8.2868e-05
6.90435e-06
3.39314e-06
2.50253e-06
3.70937e-05
8.84082e-05
2.40487e-05
7.18224e-06
5.83227e-06
5.17556e-06
3.64288e-06
2.16333e-06
2.05724e-06
1.95167e-06
1.32519e-06
1.49378e-06
3.22584e-06
3.27638e-06
8.88737e-06
1.66506e-05
4.61888e-05
0.00020057
0.000477293
0.000530637
0.000247839
3.25061e-05
4.08933e-05
0.000129208
0.000139978
0.000191463
0.000118423
4.26979e-06
1.7695e-06
1.16602e-06
2.10825e-06
9.4149e-05
5.94083e-05
1.08917e-05
4.50352e-06
4.59763e-06
4.85474e-06
4.27845e-06
3.31558e-06
2.88943e-06
1.5331e-06
1.73715e-06
3.13529e-06
1.59546e-06
1.55008e-06
1.58037e-05
7.52785e-05
0.000211269
0.000197444
2.20756e-05
3.90886e-05
1.43993e-05
1.72787e-05
2.32973e-05
8.66749e-05
0.000179002
0.000241912
8.40087e-05
8.75951e-06
6.51456e-07
2.00419e-06
9.24723e-05
0.000102359
1.4176e-05
2.19464e-06
1.56671e-06
3.33357e-06
5.27406e-06
4.53896e-06
3.70248e-06
2.39357e-06
2.47338e-06
4.48909e-06
1.41104e-06
2.45458e-08
2.20814e-05
0.000103575
0.000122198
1.36065e-05
3.04741e-06
3.82005e-06
1.85381e-05
2.6028e-05
3.96549e-06
2.28608e-05
7.86067e-05
0.000228538
0.000158078
3.40005e-05
5.70958e-07
4.74314e-06
8.06274e-05
0.000131169
6.06819e-05
4.46402e-05
7.04913e-06
2.7427e-07
2.19495e-06
4.08056e-06
3.75866e-06
2.62456e-06
2.48238e-06
5.80048e-06
5.82155e-06
6.53368e-06
1.71472e-05
7.16288e-05
7.09812e-05
1.3177e-05
1.10691e-05
1.31355e-05
2.95957e-05
2.24186e-05
4.5933e-06
1.51221e-05
4.14461e-05
9.0908e-05
0.000106543
3.52393e-05
1.06473e-06
8.79587e-06
8.09312e-05
0.000288267
0.000275646
0.000279941
0.000210022
8.42607e-05
7.20089e-06
4.60463e-07
1.71786e-06
2.35972e-06
2.51376e-06
7.95687e-06
2.00372e-05
2.43002e-05
2.33725e-05
5.00038e-05
5.20486e-05
1.61706e-05
9.75849e-06
1.23632e-05
8.28361e-06
8.52239e-06
1.07897e-05
7.25259e-05
9.09381e-05
1.37136e-05
4.59228e-06
3.17391e-05
3.91428e-06
8.47469e-06
8.70332e-05
0.000483935
0.000353249
0.000373096
0.000427654
0.000445757
0.000271649
6.42904e-05
2.90645e-06
3.65133e-06
1.3569e-05
2.54218e-05
2.42463e-05
1.97623e-05
1.96175e-05
3.01203e-05
3.61524e-05
3.11161e-05
1.00231e-05
2.45574e-06
1.38046e-06
1.78768e-05
5.27345e-05
0.000182173
4.04362e-05
1.12599e-05
2.6437e-06
1.94786e-05
3.27849e-06
7.01404e-06
8.49249e-05
0.000221031
5.9031e-05
7.31871e-05
0.000161089
0.000325348
0.000504974
0.000436269
0.000232456
8.94584e-05
7.15034e-05
6.24145e-05
3.42181e-05
1.39325e-05
3.86241e-06
1.27127e-06
5.8616e-06
2.08027e-05
6.06283e-06
4.45791e-08
1.35252e-05
4.14145e-05
0.000144842
0.000157864
3.414e-05
5.4031e-06
3.25848e-06
4.33811e-06
7.45288e-06
2.3979e-05
9.13171e-05
3.69988e-05
8.74714e-07
6.81202e-07
1.37818e-07
4.88397e-06
8.83904e-05
0.000311962
0.000451696
0.000377318
0.000268543
0.000115121
5.68505e-05
2.27196e-05
4.16255e-06
2.61736e-06
4.32243e-06
6.68517e-06
3.13449e-06
1.26999e-06
3.01451e-05
6.62351e-05
0.000157341
0.000152958
1.53212e-05
1.70266e-06
2.21507e-06
5.05011e-06
2.28348e-05
5.47669e-05
8.95873e-05
1.66542e-05
2.80363e-06
2.90497e-06
2.59217e-06
2.01632e-06
1.72241e-06
7.89814e-06
7.91975e-05
0.000184759
0.000174933
0.000173835
7.81872e-05
2.52698e-05
1.08803e-05
4.34583e-06
4.72674e-06
6.31188e-06
4.16005e-06
7.90153e-06
5.70906e-05
7.24579e-05
0.000208518
0.000129547
4.58049e-06
1.50129e-06
3.22943e-06
1.635e-05
2.74219e-05
3.1435e-05
5.40758e-05
7.62039e-06
4.48614e-06
5.84309e-06
6.43044e-06
6.07286e-06
4.40391e-06
4.44004e-06
3.80006e-06
2.27654e-06
1.45538e-06
2.84117e-06
4.97289e-05
3.21662e-05
1.67934e-05
5.75323e-06
3.13464e-06
5.0018e-06
5.27011e-06
2.81222e-05
9.93355e-05
8.56543e-05
0.000122451
7.37034e-05
2.92021e-06
1.42883e-06
9.48275e-06
2.79622e-05
5.83927e-06
3.96915e-06
2.09113e-05
4.19731e-06
5.74727e-06
8.82654e-06
1.2079e-05
1.00209e-05
6.58727e-06
5.13235e-06
2.88529e-06
4.19384e-06
6.49967e-06
6.61502e-06
1.16307e-05
4.26107e-05
3.84821e-05
4.2798e-05
3.55317e-05
1.84299e-05
9.78424e-07
6.0023e-05
0.000156042
8.77158e-05
1.85793e-05
4.5837e-05
1.40104e-05
2.15074e-06
1.64868e-05
1.3869e-05
1.53013e-06
2.22818e-06
8.60435e-06
3.70642e-06
4.23304e-06
7.57342e-06
1.31913e-05
1.48145e-05
8.83094e-06
6.66941e-06
4.7403e-06
5.2027e-06
6.46769e-06
4.06329e-06
6.15864e-06
4.17123e-05
6.11366e-05
0.000110231
0.00015524
0.000157845
4.25324e-05
0.000144369
0.000171097
2.60299e-05
1.53598e-06
2.63186e-05
5.82111e-05
7.27359e-06
1.36866e-05
5.71085e-06
2.95873e-06
3.22081e-06
5.2908e-06
2.56009e-06
1.95014e-06
2.97029e-06
7.58439e-06
1.48416e-05
9.77542e-06
8.17648e-06
7.28182e-06
9.27253e-06
9.01938e-06
3.09912e-06
2.28465e-06
5.98752e-05
0.000164105
0.000180613
0.00017958
0.000292988
0.000283618
0.000211662
9.79866e-05
4.2459e-06
3.20137e-06
5.08199e-06
6.0651e-05
2.04777e-05
5.89349e-06
5.79053e-06
4.08926e-06
4.46012e-06
4.87667e-06
2.53152e-06
1.97913e-06
2.0604e-06
2.68052e-06
7.02179e-06
3.47033e-06
9.5918e-06
1.33802e-05
1.19343e-05
1.94084e-05
1.86732e-05
0.000116568
0.000454554
0.000657177
0.000247477
0.000157437
0.000418821
0.000851124
0.000334501
7.32594e-05
3.50842e-06
5.87721e-06
3.32573e-06
2.38477e-05
1.57299e-05
3.75758e-06
4.20781e-06
4.19148e-06
4.56806e-06
5.82861e-06
1.05423e-05
3.51966e-06
2.17945e-06
1.58142e-06
7.38989e-07
1.87675e-06
1.38506e-05
4.08531e-05
6.35976e-05
0.000213861
0.000372152
0.000656
0.00074081
0.000226826
5.13906e-05
4.63171e-05
0.000160282
0.00122794
0.000727201
0.000165885
2.68335e-06
4.83427e-06
5.51514e-06
1.56847e-05
1.66211e-06
1.14134e-06
2.09084e-06
2.06834e-06
3.30958e-06
7.14892e-06
1.65766e-05
6.25334e-06
6.10308e-07
1.57277e-07
1.07338e-06
1.11943e-05
0.000116913
0.00037721
0.000483842
0.000472535
0.000524835
0.000268975
2.93332e-05
2.42574e-06
1.35867e-06
1.19768e-05
4.45963e-05
0.000380384
0.00100262
0.000635942
9.27246e-05
3.51438e-06
5.91485e-06
5.0474e-05
1.53317e-05
3.39123e-06
1.4895e-06
9.29771e-07
1.62927e-06
6.67948e-06
0.00110401
0.00122236
0.000949174
0.000918697
0.00103484
0.00124691
0.00118984
0.000845895
0.000333424
7.04249e-05
4.09821e-06
1.23613e-06
2.19755e-06
2.96445e-06
1.3186e-06
2.90399e-06
4.5253e-05
5.22401e-05
0.000331933
0.000974562
0.000579358
1.05798e-05
1.83186e-06
1.63639e-05
1.98633e-05
7.42561e-07
7.40979e-06
1.96211e-05
3.60685e-06
3.74188e-06
0.00227877
0.00226868
0.00245906
0.00238454
0.00232532
0.0018532
0.000656739
6.47401e-05
4.39152e-06
2.25978e-06
2.04325e-06
1.89132e-06
2.35586e-06
3.96515e-06
2.25667e-06
1.72973e-06
4.30182e-05
3.42006e-05
2.88935e-05
0.00015602
0.000945784
0.000593339
9.59673e-05
4.15687e-05
4.23465e-05
9.63637e-05
0.000223239
8.37379e-05
2.46089e-05
2.24637e-06
0.000938994
5.15493e-06
9.66745e-05
0.000120172
2.35157e-05
3.83215e-07
4.48103e-07
8.52901e-07
4.17698e-06
4.71974e-06
2.67856e-06
2.09327e-06
2.6788e-06
3.62767e-06
1.91668e-06
1.36398e-06
5.12476e-05
2.78001e-05
5.37349e-06
8.8568e-06
0.000148521
0.000745839
0.00106119
0.000448974
0.000379207
0.000465441
0.000209896
0.000233506
2.95006e-05
2.58039e-06
0.000291508
5.28768e-07
5.30793e-07
6.04887e-07
6.49503e-07
8.66756e-07
1.03456e-06
1.22022e-06
2.37408e-06
4.96335e-06
2.8299e-06
1.85731e-06
3.128e-06
3.63831e-06
1.49891e-06
4.62144e-06
7.27894e-05
4.35598e-05
4.68162e-06
9.2503e-06
3.65242e-06
6.16708e-05
0.000492698
0.00132763
0.00102979
0.000350584
8.88992e-05
0.000175209
2.3017e-05
3.02487e-06
0.00023325
5.15391e-07
6.80893e-07
7.95428e-07
9.23304e-07
1.0638e-06
1.08787e-06
1.62274e-06
2.97253e-06
5.11841e-06
3.1955e-06
2.14338e-06
3.03165e-06
2.15396e-06
6.5287e-07
2.64271e-05
8.62e-05
3.5789e-05
1.54496e-05
1.9097e-05
9.69585e-06
5.09556e-06
3.51871e-05
0.000265802
0.000275388
0.000135047
0.00021174
0.000105483
9.54021e-06
2.57491e-06
0.000193292
8.65114e-07
9.876e-07
1.01415e-06
1.18196e-06
1.24645e-06
1.32659e-06
1.43614e-06
2.51895e-06
5.56923e-06
3.49112e-06
1.65183e-06
1.83129e-06
8.707e-07
5.91933e-06
4.67029e-05
2.1971e-05
4.81899e-06
1.53199e-05
2.19152e-05
1.79403e-05
1.07983e-05
2.14247e-05
4.94429e-05
3.00231e-05
1.35543e-05
0.00025505
0.000147597
2.45928e-06
2.58308e-06
0.000136637
1.11448e-06
1.16882e-06
1.17488e-06
1.31564e-06
1.54041e-06
1.7568e-06
1.7143e-06
2.45844e-06
4.64749e-06
2.92256e-06
9.67847e-07
7.05238e-07
1.18017e-06
2.53059e-05
2.0726e-05
8.5208e-07
1.37263e-06
2.18325e-06
1.17562e-05
9.60039e-06
9.26543e-06
7.3661e-06
1.07164e-05
7.87512e-06
2.39942e-06
0.000285502
0.000228519
1.44383e-06
2.1583e-06
9.96177e-05
1.15655e-06
1.31466e-06
1.49641e-06
1.83307e-06
1.88395e-06
1.69018e-06
1.75457e-06
2.49618e-06
3.69807e-06
1.81005e-06
3.60164e-07
3.92765e-07
9.70228e-06
2.40094e-05
1.28188e-06
1.24928e-06
1.31785e-06
7.31754e-07
2.01812e-06
2.82193e-06
1.50953e-06
2.28078e-06
1.14337e-06
1.16119e-07
4.10526e-07
0.000170633
0.000428784
2.23278e-05
3.04056e-06
7.444e-05
1.66169e-06
1.96382e-06
1.91511e-06
2.16151e-06
2.21861e-06
1.87429e-06
1.76635e-06
2.6419e-06
4.28666e-06
2.30235e-06
7.03823e-07
2.45057e-06
1.44915e-05
6.49703e-06
8.47598e-07
1.61001e-06
1.4535e-06
1.46164e-06
1.2726e-06
8.96241e-07
3.49293e-07
3.91391e-07
3.33814e-07
2.41226e-07
4.30786e-07
2.94683e-07
0.000237251
0.000464023
0.000290749
4.43456e-05
2.20522e-06
2.34201e-06
2.34441e-06
2.43663e-06
2.30046e-06
1.90098e-06
1.86416e-06
3.40095e-06
4.22765e-06
2.25355e-06
1.91432e-06
6.12915e-06
8.96377e-06
1.81881e-06
1.20398e-06
1.76067e-06
1.94527e-06
1.90664e-06
1.0209e-06
9.60997e-07
3.45999e-07
2.73387e-07
4.45298e-07
5.4313e-07
3.97385e-07
3.90308e-06
0.000111444
0.00040719
0.000385738
2.55237e-05
2.56474e-06
2.69725e-06
2.77219e-06
2.69939e-06
2.18374e-06
1.74282e-06
2.2846e-06
4.59492e-06
4.26812e-06
3.13331e-06
3.35883e-06
5.36734e-06
4.92042e-06
1.4864e-06
1.37099e-06
1.93446e-06
2.02753e-06
1.43831e-06
1.43991e-06
1.99433e-06
1.41674e-06
1.10984e-06
8.85089e-07
7.30467e-07
1.33888e-06
3.1145e-05
0.000227845
0.000156339
2.3783e-05
1.38856e-05
2.9867e-06
3.13439e-06
2.99119e-06
2.60169e-06
1.92725e-06
1.97565e-06
3.94292e-06
4.95052e-06
3.94284e-06
3.12921e-06
3.25759e-06
3.80286e-06
3.04096e-06
1.35497e-06
1.16988e-06
1.76393e-06
1.91503e-06
9.8549e-07
2.01402e-06
2.63691e-06
1.90727e-06
1.70201e-06
1.38506e-06
1.45966e-06
8.96732e-06
8.51622e-05
0.000216445
3.84776e-05
1.12034e-05
6.71072e-06
2.97844e-06
2.96799e-06
2.69681e-06
2.11308e-06
1.872e-06
3.26515e-06
4.97986e-06
4.37523e-06
3.34192e-06
2.6924e-06
2.47398e-06
2.39261e-06
1.94125e-06
1.14618e-06
8.23704e-07
1.14153e-06
1.33922e-06
7.67648e-07
1.66762e-06
2.87859e-06
1.78558e-06
1.67871e-06
2.11285e-06
4.82587e-06
3.49088e-05
0.000119793
0.000148122
9.43748e-06
7.6275e-06
3.05981e-06
2.31674e-06
2.31324e-06
2.05847e-06
1.93126e-06
2.98602e-06
4.75187e-06
4.56906e-06
3.47952e-06
2.63024e-06
2.02625e-06
1.58751e-06
1.257e-06
1.01797e-06
8.40078e-07
6.3053e-07
5.20883e-07
5.18014e-07
6.04811e-07
1.32537e-06
3.38649e-06
2.91823e-06
2.44275e-06
3.27468e-06
1.23322e-05
6.17693e-05
0.000129675
9.76299e-05
2.11541e-06
7.32451e-06
1.30624e-06
1.45974e-06
1.60638e-06
1.85044e-06
2.8016e-06
4.24143e-06
4.33692e-06
3.47611e-06
2.66145e-06
2.00404e-06
1.42467e-06
9.15405e-07
5.45789e-07
4.0216e-07
4.82345e-07
6.03967e-07
4.4262e-07
2.29117e-07
3.76263e-07
1.19561e-06
3.45827e-06
3.25778e-06
2.4314e-06
4.45979e-06
2.01794e-05
8.00409e-05
0.000117257
6.76371e-05
9.85432e-07
8.34412e-06
5.85903e-07
1.04521e-06
1.55641e-06
2.43085e-06
3.34747e-06
3.48082e-06
3.02053e-06
2.50823e-06
2.04312e-06
1.55982e-06
1.03908e-06
5.53309e-07
2.22204e-07
1.03952e-07
1.9726e-07
5.45556e-07
1.15899e-06
1.46633e-06
4.48777e-07
1.2538e-06
3.27847e-06
2.69315e-06
1.5962e-06
3.24017e-06
2.48558e-05
9.93474e-05
0.000104793
4.7045e-05
1.21286e-06
9.16249e-06
4.96542e-07
1.22079e-06
1.84713e-06
2.27476e-06
2.25131e-06
2.04631e-06
1.88242e-06
1.73544e-06
1.52194e-06
1.19993e-06
7.93904e-07
4.07743e-07
1.43207e-07
3.1616e-08
5.47841e-08
4.09941e-07
2.30533e-06
4.28112e-06
1.41164e-06
1.76875e-06
3.47454e-06
3.12873e-06
1.1291e-06
2.86448e-06
3.80248e-05
0.000108079
8.281e-05
3.58504e-05
1.80342e-06
9.43445e-06
7.03329e-07
1.22593e-06
1.37655e-06
1.25091e-06
1.06366e-06
1.00508e-06
1.05525e-06
1.0994e-06
1.03064e-06
8.28086e-07
5.6059e-07
3.22777e-07
1.46104e-07
4.25207e-08
1.75762e-08
3.14222e-07
2.55211e-06
4.2754e-06
2.51881e-06
2.74317e-06
3.93425e-06
3.67044e-06
1.43723e-06
3.04438e-06
4.51406e-05
0.000118986
6.91503e-05
2.8543e-05
2.51953e-06
9.26226e-06
9.11141e-07
8.76292e-07
7.49817e-07
5.41332e-07
4.04634e-07
4.11414e-07
5.23294e-07
6.56551e-07
7.00134e-07
5.96743e-07
4.12253e-07
2.74413e-07
1.74086e-07
7.72815e-08
3.08208e-08
5.19379e-07
1.4842e-06
1.64505e-06
2.24743e-06
3.55284e-06
3.49726e-06
3.45235e-06
2.34937e-06
4.15295e-06
4.62871e-05
0.00010571
7.41556e-05
2.39211e-05
3.25654e-06
8.79771e-06
1.08966e-06
6.22984e-07
4.19447e-07
2.34123e-07
1.32839e-07
1.3764e-07
2.43138e-07
4.14231e-07
5.76219e-07
5.90116e-07
4.69221e-07
3.43734e-07
2.43893e-07
1.39169e-07
1.05568e-07
1.24268e-06
2.34624e-06
2.33775e-06
2.47255e-06
3.06785e-06
2.43121e-06
4.42609e-06
1.60613e-06
6.40203e-06
1.20977e-05
7.1759e-05
0.000105686
1.56352e-05
3.98475e-06
7.56684e-06
1.22339e-06
5.08042e-07
2.95821e-07
1.41748e-07
5.98412e-08
4.11824e-08
9.68475e-08
2.65064e-07
6.19126e-07
9.37437e-07
1.00479e-06
9.81217e-07
4.36072e-07
2.10113e-07
7.99935e-08
2.7993e-06
4.50193e-06
3.60582e-06
2.84258e-06
2.69164e-06
2.32631e-06
2.97288e-06
1.29022e-06
8.49929e-07
3.57622e-06
6.52106e-05
6.58694e-05
9.64726e-06
5.15036e-06
5.71105e-06
1.24301e-06
4.69976e-07
2.68488e-07
1.37074e-07
7.47411e-08
5.20959e-08
7.79866e-08
2.62847e-07
1.10938e-06
2.47036e-06
3.30004e-06
2.08524e-06
1.10134e-06
2.41057e-07
1.32956e-07
4.9024e-06
8.20502e-06
4.0327e-06
4.3791e-06
3.87952e-06
2.74987e-06
3.41247e-06
2.95523e-06
2.2102e-06
1.02706e-05
6.20445e-05
1.93799e-05
1.35157e-05
9.78857e-06
4.76348e-06
1.0886e-06
4.40321e-07
2.54572e-07
1.39718e-07
1.09419e-07
1.3899e-07
2.66682e-07
6.18933e-07
1.26188e-06
2.48542e-06
3.58491e-06
2.94059e-06
1.10213e-06
8.3741e-08
1.73694e-06
1.55027e-05
2.05777e-05
8.88002e-06
1.30273e-05
1.2231e-05
1.34578e-05
1.35669e-05
9.64546e-06
1.1028e-05
1.70261e-05
7.83881e-06
3.61973e-06
6.88951e-06
2.33844e-05
5.93015e-06
8.25016e-07
3.74008e-07
2.10996e-07
1.14755e-07
1.0723e-07
1.73221e-07
3.47014e-07
6.80293e-07
1.06717e-06
9.8866e-07
6.56347e-07
7.26804e-07
5.45873e-07
2.11591e-07
1.60687e-05
0.000181516
0.000320736
4.72323e-05
1.23157e-05
2.0293e-05
3.03795e-05
3.11606e-05
1.85723e-05
2.00786e-05
5.47897e-05
3.58937e-05
3.45808e-05
7.09554e-05
1.69708e-05
1.68093e-05
5.87089e-07
2.75536e-07
1.48661e-07
9.17195e-08
9.94455e-08
1.48649e-07
2.11949e-07
2.48142e-07
2.41925e-07
1.944e-07
1.58124e-07
2.30919e-07
4.79018e-07
4.53451e-07
5.55318e-05
0.001003
0.000572575
0.000172327
2.94788e-05
9.1253e-06
1.56552e-05
1.85834e-05
2.69436e-05
0.000159332
0.000274427
0.000181527
0.000218558
5.57796e-05
3.99507e-05
0.000110463
4.19238e-07
1.85454e-07
9.3943e-08
7.52297e-08
1.00124e-07
1.38845e-07
1.63438e-07
1.61867e-07
1.49307e-07
1.49515e-07
2.05378e-07
5.29233e-07
1.44911e-06
6.23853e-06
0.000453364
0.000913757
0.000219891
0.000533963
0.000206004
1.23537e-05
6.96114e-06
3.99979e-05
0.000319926
0.000586767
0.000410441
0.000403784
0.000447958
0.000328896
0.000266285
0.000297875
3.0609e-07
1.24244e-07
5.89774e-08
6.05043e-08
9.5502e-08
1.34697e-07
1.5998e-07
1.68544e-07
1.80221e-07
2.33076e-07
4.33377e-07
1.26504e-06
2.74113e-06
1.85929e-05
0.000461649
0.000353071
6.60837e-05
0.000939046
0.000861584
0.000389547
0.000351524
0.000768817
0.00142209
0.0012357
0.000800665
0.000798328
0.000797867
0.000967622
0.000935066
0.000829559
2.27248e-07
8.86183e-08
4.44625e-08
5.30763e-08
8.73724e-08
1.27121e-07
1.62552e-07
1.97891e-07
2.54902e-07
4.1031e-07
8.49221e-07
2.40407e-06
4.29948e-06
1.91061e-05
0.000304118
0.000232393
2.05507e-06
0.000488667
0.00205878
0.00137954
0.00105079
0.00124775
0.00107207
0.000532181
0.000364094
0.000181366
0.000144558
0.000171639
0.000242233
0.000195287
1.66035e-07
6.73132e-08
4.41605e-08
5.70395e-08
8.47441e-08
1.17881e-07
1.59827e-07
2.26463e-07
3.64149e-07
6.75314e-07
1.38456e-06
3.2857e-06
6.44677e-06
2.43963e-05
0.000132641
0.000105873
3.99766e-06
5.2851e-07
0.00112693
0.0017093
0.000897232
0.000341503
3.4111e-05
5.62714e-06
2.92453e-06
2.36592e-06
1.79435e-06
1.88784e-06
2.77731e-06
3.82838e-05
1.11594e-07
5.19605e-08
5.08671e-08
7.1277e-08
9.58023e-08
1.22199e-07
1.60775e-07
2.35085e-07
4.00225e-07
7.89466e-07
1.66899e-06
3.58153e-06
7.11308e-06
1.50932e-05
5.06514e-05
7.16857e-05
1.53228e-05
3.14438e-06
9.15359e-07
0.000257833
0.000127126
1.57267e-05
1.78476e-06
5.03209e-07
3.55489e-06
3.98052e-06
4.96451e-06
3.71638e-06
4.99909e-06
2.48643e-05
6.24503e-08
4.16337e-08
6.35524e-08
9.48615e-08
1.19646e-07
1.39627e-07
1.64375e-07
2.11287e-07
3.15087e-07
5.65553e-07
1.18221e-06
2.57969e-06
5.07274e-06
9.62661e-06
2.46968e-05
6.09467e-05
4.48725e-05
5.53699e-06
2.11813e-06
9.63516e-07
4.91647e-06
6.77534e-06
3.75185e-06
4.89465e-07
4.01208e-06
7.9875e-06
9.55734e-06
8.06751e-06
5.6234e-06
1.70709e-05
2.60011e-08
4.16796e-08
9.14045e-08
1.38476e-07
1.65736e-07
1.78595e-07
1.82404e-07
1.88623e-07
2.14675e-07
2.92835e-07
5.08749e-07
1.08704e-06
2.43645e-06
5.27942e-06
1.31332e-05
4.79411e-05
5.6628e-05
5.95001e-06
8.21836e-06
1.5054e-06
3.97964e-06
8.00383e-06
5.62618e-06
1.7422e-06
2.27686e-06
1.11735e-05
1.72255e-05
1.28563e-05
3.34708e-06
9.58802e-06
1.07864e-08
6.07763e-08
1.46506e-07
2.17192e-07
2.60538e-07
2.79248e-07
2.73076e-07
2.55131e-07
2.3557e-07
2.28569e-07
2.63664e-07
4.20914e-07
8.97673e-07
2.24598e-06
6.38509e-06
3.20244e-05
5.2969e-05
1.05682e-05
8.9588e-06
6.14522e-06
5.33677e-06
1.04105e-05
6.63135e-06
3.56898e-06
1.47625e-06
8.67976e-06
2.38669e-05
1.3229e-05
1.52341e-06
4.46072e-06
2.22521e-08
1.03712e-07
2.23563e-07
3.30462e-07
4.18442e-07
4.84762e-07
5.80995e-07
7.27088e-07
7.33626e-07
4.4656e-07
3.24225e-07
3.34526e-07
4.26723e-07
8.02448e-07
2.3409e-06
1.55568e-05
2.98888e-05
2.15924e-05
3.25313e-06
1.06247e-05
6.89455e-06
9.06366e-06
1.16699e-05
2.43617e-06
1.7005e-06
5.39185e-06
1.82176e-05
1.53278e-05
1.37461e-06
1.59503e-06
8.28864e-08
1.49719e-07
2.81538e-07
4.49094e-07
5.88974e-07
7.73266e-07
1.24175e-06
1.85958e-06
1.82661e-06
1.26802e-06
1.43801e-06
6.19747e-07
4.42732e-07
4.52695e-07
7.20151e-07
5.467e-06
1.41816e-05
1.04917e-05
1.46706e-06
8.0481e-06
9.54109e-06
7.39975e-06
1.21665e-05
2.536e-06
1.51273e-06
3.65063e-06
1.4222e-05
1.96633e-05
1.96967e-06
5.82902e-07
1.75651e-07
1.84947e-07
4.18407e-07
1.17286e-06
1.66255e-06
2.00676e-06
5.79039e-06
1.20454e-05
1.87657e-05
1.21212e-05
3.3412e-06
1.27418e-06
1.2803e-06
5.54388e-07
4.29596e-07
1.39e-06
8.492e-06
4.56352e-06
3.00389e-06
3.59151e-06
1.38045e-05
9.79622e-06
1.86119e-05
4.51922e-06
1.72955e-06
2.70819e-06
7.99112e-06
1.82248e-05
2.25354e-06
2.16729e-07
2.82559e-07
2.40513e-07
1.32223e-06
5.93568e-06
7.50822e-06
1.36974e-05
2.04071e-05
1.14394e-05
5.50578e-06
4.11522e-06
3.39856e-06
4.61967e-06
1.00817e-06
1.01681e-06
6.23228e-07
5.50718e-07
6.6996e-06
4.09652e-06
1.26168e-06
4.81169e-06
1.08377e-05
1.86812e-05
5.06831e-05
5.9047e-06
1.81477e-06
2.43037e-06
5.07898e-06
1.08424e-05
2.57691e-06
1.4032e-07
4.87514e-07
7.59009e-07
3.64243e-06
9.31643e-07
2.23578e-06
4.64927e-06
1.03298e-05
2.0936e-05
3.24535e-05
5.33773e-05
5.60941e-05
8.94871e-06
2.3969e-06
8.39671e-07
1.15227e-06
7.31856e-07
6.8581e-06
3.4486e-06
1.40676e-06
7.18657e-06
8.08981e-06
3.79014e-05
6.4935e-05
6.23e-06
1.54772e-06
1.0736e-06
1.8985e-06
5.22116e-06
2.01069e-06
7.08074e-07
1.50553e-06
9.81227e-07
8.23403e-07
1.72238e-06
2.63957e-06
4.56308e-06
6.99506e-06
6.24153e-06
5.80917e-06
7.8671e-06
3.09309e-05
0.00010544
4.5683e-05
1.37309e-06
8.04769e-07
3.00016e-06
2.04897e-06
1.39029e-05
2.46139e-06
7.34996e-06
9.79678e-06
5.14321e-05
6.24845e-05
7.66335e-06
1.26461e-06
1.82799e-07
5.64102e-07
8.14755e-07
1.82402e-06
2.5111e-06
1.27152e-06
5.19107e-07
8.25562e-07
1.33722e-06
2.01558e-06
2.35453e-06
2.0117e-06
1.75298e-06
2.70383e-06
5.00447e-06
1.16495e-05
0.000101355
0.000114725
1.57439e-05
1.01916e-06
1.42171e-06
2.38324e-06
2.21912e-05
7.5081e-06
1.1168e-05
1.53816e-05
5.34053e-05
7.19305e-05
1.24071e-05
2.36492e-06
1.05459e-06
6.64131e-07
3.44958e-07
1.44374e-06
4.59626e-06
4.07916e-07
4.71679e-07
8.63261e-07
1.06293e-06
1.2009e-06
1.89852e-06
3.448e-06
3.61186e-06
3.61572e-06
7.71085e-06
1.17791e-05
3.38021e-05
0.000185886
5.91241e-05
2.70459e-06
8.10871e-07
4.34636e-06
3.15246e-06
3.05627e-05
2.50568e-05
2.43437e-05
5.83252e-05
8.87749e-05
1.31856e-05
2.38842e-06
1.30557e-06
1.43363e-06
1.4617e-06
5.44302e-07
6.71261e-06
2.87857e-07
6.42498e-07
8.82913e-07
1.71251e-06
4.30147e-06
4.46733e-06
2.85433e-06
2.16324e-06
5.97062e-06
1.20091e-05
1.46908e-05
4.55806e-05
0.00034737
4.95605e-05
3.22341e-06
1.25676e-06
1.57164e-06
1.45563e-06
1.13701e-05
4.89058e-05
3.88295e-05
6.02286e-05
7.34604e-05
1.17425e-05
1.92029e-06
1.59139e-06
4.92296e-06
7.30676e-06
5.51348e-06
6.05253e-06
5.25001e-07
8.36439e-07
2.53507e-06
2.74916e-06
2.13126e-06
5.02953e-06
8.22083e-06
1.03939e-05
1.6922e-05
2.63381e-05
4.91625e-05
0.000343921
0.000244245
1.25609e-06
2.08445e-06
2.26439e-06
1.01631e-06
2.19664e-06
1.70604e-06
3.06637e-05
5.25416e-05
4.31607e-05
4.34699e-05
1.35495e-05
1.79514e-06
4.39621e-06
1.09739e-05
1.10945e-05
3.03326e-05
4.89712e-06
9.02282e-07
1.36062e-06
1.02891e-06
2.89932e-06
1.55811e-05
2.38903e-05
4.69217e-05
6.86037e-05
8.31748e-05
9.85449e-05
0.000177095
0.000107405
7.29058e-06
4.04811e-07
1.16779e-06
2.822e-06
1.1602e-06
1.77912e-06
1.00294e-06
8.80595e-06
4.39657e-05
2.39473e-05
2.74447e-05
1.48515e-05
2.2379e-06
8.80827e-06
1.41753e-05
1.52585e-05
2.51221e-05
2.71523e-05
9.76957e-07
1.27901e-06
4.85819e-06
2.02444e-05
6.64678e-05
0.000120933
9.23363e-05
4.81293e-05
2.56044e-05
1.88134e-05
1.06092e-05
1.86615e-06
4.83958e-07
5.92862e-07
6.14968e-07
2.44553e-06
1.38424e-06
1.31202e-06
1.6506e-06
2.87524e-06
2.40197e-05
2.28588e-05
2.07819e-05
1.9123e-05
5.35533e-06
1.05962e-05
2.15468e-05
3.3299e-05
6.81802e-05
8.05362e-06
1.70462e-06
5.84813e-06
3.99752e-05
0.000124282
0.000110715
5.33344e-05
1.65343e-05
6.21014e-06
2.26711e-06
1.02657e-06
1.40433e-06
1.19244e-06
7.93764e-07
5.78133e-07
3.16795e-07
1.83308e-06
1.75324e-06
1.00405e-06
2.93143e-06
1.56154e-06
1.4972e-05
3.74007e-05
5.77185e-05
0.000230306
4.17243e-05
5.4549e-05
4.73689e-05
0.000137784
0.000191352
7.22956e-05
3.94682e-06
3.93907e-05
0.000176629
0.000113226
2.55217e-05
7.23741e-06
4.35645e-06
5.18999e-06
5.94172e-06
4.83524e-06
6.1317e-06
2.55888e-06
4.87718e-07
3.95222e-07
1.09618e-06
2.48182e-06
3.45238e-06
8.49237e-07
3.4649e-06
2.26536e-06
1.55149e-05
4.55503e-05
0.000169901
0.000434515
0.000450871
0.000476002
0.000540108
0.000483604
0.000140194
0.000315381
1.1712e-05
0.00016926
0.000199788
3.12511e-05
7.11022e-06
4.77158e-06
7.73328e-06
1.60444e-05
2.23377e-05
2.29625e-05
1.31138e-05
8.66027e-06
2.64772e-05
2.35508e-06
3.90681e-06
5.85319e-06
4.34834e-06
6.9666e-07
3.07855e-06
6.10935e-06
9.56431e-06
4.29101e-05
9.65897e-05
4.16841e-05
0.000198846
0.000158077
7.12859e-05
3.21255e-05
1.53445e-05
0.000340525
0.000103757
0.000160348
8.89188e-05
1.30625e-05
8.30179e-06
1.10598e-05
1.75896e-05
2.59389e-05
3.44575e-05
5.33279e-05
0.000242947
0.000499274
0.00032178
0.000174662
0.00010102
1.77471e-05
4.79671e-06
9.84015e-07
1.57485e-06
9.27366e-06
4.18165e-06
5.00422e-05
3.39356e-05
2.12641e-05
5.37907e-06
3.04694e-06
4.04771e-06
3.45493e-06
6.40253e-06
0.000162904
0.000518576
8.52289e-05
1.78199e-05
1.27714e-05
1.30452e-05
1.93125e-05
2.50629e-05
4.32386e-05
8.64948e-05
0.000333065
0.00215696
0.0038345
0.00219282
0.00209459
0.00211592
0.00107329
3.54445e-05
2.05411e-06
6.24463e-07
8.56729e-06
1.13451e-05
2.58576e-05
1.79838e-05
1.50882e-05
6.88769e-06
4.25468e-06
3.35568e-06
4.59576e-06
1.23808e-05
6.67966e-05
0.00227907
0.000185076
8.95858e-05
0.000111013
0.000183107
0.000270029
0.000297256
0.00042138
0.000851702
0.00250187
0.00631782
0.0113501
0.00944639
0.0087424
0.00928334
0.00912485
0.00279042
0.000100625
1.52821e-06
8.14507e-06
1.32829e-05
2.08807e-06
1.40795e-05
9.09748e-06
6.56509e-06
2.69552e-06
3.21827e-06
8.02347e-06
1.45398e-05
2.3185e-05
0.00705118
0.00247907
0.00145512
0.00137032
0.00191195
0.0023408
0.00239607
0.00296632
0.00498832
0.0113553
0.0233204
0.0250606
0.0290334
0.0170911
0.0121774
0.0224371
0.0185333
0.00466079
0.000126478
9.2766e-06
2.01984e-05
5.44543e-06
8.92472e-07
3.90072e-06
5.99587e-06
3.34882e-06
2.84616e-06
6.69651e-06
9.40774e-06
4.91488e-06
0.0228172
0.0151379
0.00868865
0.00745255
0.00814889
0.0098566
0.0125446
0.019735
0.0347786
0.0213228
0.00067665
2.80508e-06
6.53376e-06
1.04443e-06
1.89112e-06
1.48137e-06
0.0144308
0.0235709
0.00493399
2.89323e-05
2.66563e-05
1.09248e-05
6.76664e-07
9.95944e-07
3.9867e-06
3.79807e-06
2.10886e-06
2.46835e-06
3.56776e-06
6.45527e-06
0.00327108
0.0112722
0.0216522
0.0246206
0.0188212
0.0147167
0.0157785
0.00864238
0.000302483
5.84498e-07
2.44759e-07
4.3066e-07
4.80802e-07
4.66651e-07
1.29772e-06
3.65379e-07
1.29559e-07
0.00905461
0.0106443
0.00117698
5.40251e-06
1.53476e-05
1.4674e-06
8.45242e-07
2.87573e-06
2.74465e-06
1.18707e-06
3.19254e-06
4.40468e-06
6.82614e-06
0.0015921
6.3497e-06
1.98219e-07
1.28155e-07
1.34424e-07
4.45124e-08
1.99612e-08
2.85549e-08
5.92867e-08
1.79143e-07
1.83595e-07
4.05753e-07
3.70638e-07
3.8422e-07
1.05418e-06
2.5445e-07
5.5106e-07
0.000404471
0.00584565
0.00154678
1.7857e-05
1.48679e-05
3.2186e-06
1.3068e-06
2.91398e-06
3.45848e-06
3.53729e-06
1.77646e-05
4.40965e-05
1.20636e-05
0.00137685
9.88322e-06
3.64853e-07
3.60104e-07
3.56915e-07
1.3858e-07
1.10608e-07
7.41995e-08
1.81388e-07
1.16639e-07
1.05832e-07
3.03675e-07
2.62263e-07
3.25182e-07
3.18358e-07
2.91869e-07
5.83513e-07
0.00012114
0.00479999
0.0015158
1.59042e-05
1.11468e-05
3.12215e-06
2.6481e-06
3.41109e-05
5.63431e-05
0.00011646
0.000264747
0.000431488
8.87514e-05
0.00132808
7.15646e-06
1.87489e-07
3.10734e-07
3.66625e-07
2.01841e-07
1.30357e-07
9.81956e-08
1.84079e-07
6.0624e-08
1.08963e-07
2.34696e-07
1.60376e-07
2.18474e-07
1.67591e-07
4.05149e-07
6.36645e-07
3.55598e-05
0.0044265
0.00156324
1.10483e-05
1.16301e-05
2.17652e-06
6.66102e-05
0.000120281
0.000155277
0.000214053
0.000136343
0.000266095
0.000519079
0.00111232
3.43527e-06
1.49363e-07
1.97708e-07
3.82182e-07
1.82961e-07
1.25886e-07
1.05206e-07
1.15013e-07
5.38675e-08
1.04967e-07
2.08465e-07
1.29291e-07
1.21197e-07
1.45997e-07
4.69455e-07
6.80722e-07
2.29183e-08
0.00361728
0.00264176
3.10379e-05
1.69671e-05
4.88854e-05
0.000132035
9.80229e-06
5.90346e-06
4.72914e-06
2.01437e-06
2.26279e-06
0.000390699
0.000965809
2.89097e-06
6.2682e-08
1.06722e-07
3.39101e-07
2.28182e-07
1.48583e-07
1.2182e-07
8.9994e-08
6.28399e-08
1.27248e-07
1.34213e-07
1.07418e-07
7.25146e-08
1.6795e-07
5.42695e-07
5.71884e-07
6.53386e-08
0.00113689
0.00484555
0.00025342
3.47697e-05
0.000129443
8.74159e-06
1.43908e-06
9.76826e-07
1.08041e-06
1.44761e-06
2.39088e-06
0.000185199
0.000941279
1.78234e-06
2.24339e-08
5.1829e-08
2.32896e-07
2.95912e-07
1.31868e-07
1.2328e-07
8.89224e-08
8.92041e-08
1.2953e-07
1.36713e-07
9.04886e-08
8.85908e-08
2.02879e-07
5.25714e-07
3.60633e-07
1.30341e-07
2.24978e-05
0.0017253
0.0015731
6.07891e-05
2.78468e-05
2.23986e-06
3.26022e-06
2.50633e-06
1.90584e-06
2.21822e-06
2.32901e-06
0.000148996
0.000718309
8.0691e-07
1.28204e-08
2.17274e-08
1.26627e-07
2.70911e-07
1.29986e-07
1.13553e-07
9.21201e-08
1.54476e-07
1.41323e-07
1.45563e-07
7.65448e-08
1.31342e-07
2.73472e-07
4.29188e-07
1.56203e-07
1.27829e-06
3.5948e-05
7.67947e-05
0.000283979
0.000175557
1.92316e-06
4.10403e-06
3.5982e-06
4.04073e-06
4.45524e-06
4.43284e-06
5.00173e-06
0.000116769
0.000635741
9.08764e-07
1.05313e-08
1.07898e-08
5.64177e-08
2.02028e-07
1.31548e-07
1.23701e-07
1.03001e-07
2.52921e-07
2.22342e-07
1.32724e-07
7.91862e-08
1.70185e-07
3.64184e-07
2.63013e-07
1.39547e-07
1.01881e-05
5.15709e-05
6.23471e-05
2.3592e-05
9.71774e-06
4.04113e-06
3.40709e-06
2.8125e-06
2.96743e-06
5.21522e-06
8.54084e-06
1.3107e-05
6.34631e-05
0.000663965
6.63863e-07
2.02708e-08
2.86642e-08
2.55251e-08
9.82135e-08
1.1977e-07
1.29667e-07
1.57897e-07
3.29422e-07
3.3985e-07
1.06839e-07
1.03415e-07
2.43911e-07
3.9111e-07
1.39107e-07
2.22571e-06
3.46755e-05
6.40423e-05
3.96324e-05
1.0704e-05
4.26348e-06
2.21286e-06
2.53e-06
3.85869e-06
5.46119e-06
8.62889e-06
1.5052e-05
1.81042e-05
2.52179e-05
0.000621626