/*--------------------------------*- C++ -*----------------------------------*\
| =========                 |                                                 |
| \\      /  F ield         | OpenFOAM: The Open Source CFD Toolbox           |
|  \\    /   O peration     | Version:  2.3.0                                 |
|   \\  /    A nd           | Web:      www.OpenFOAM.org                      |
|    \\/     M anipulation  |                                                 |
\*---------------------------------------------------------------------------*/
FoamFile
{
    version     2.0;
    format      ascii;
    class       volScalarField;
    location    "1.76";
    object      alpha.particlesMean;
}
// * * * * * * * * * * * * * * * * * * * * * * * * * * * * * * * * * * * * * //

dimensions      [0 0 0 0 0 0 0];

internalField   nonuniform List<scalar> 
6000
(
0.419087
0.427464
0.426063
0.423308
0.420601
0.412508
0.414267
0.412181
0.415063
0.414325
0.415312
0.419261
0.414251
0.414046
0.421109
0.424247
0.425365
0.422406
0.422011
0.426047
0.427823
0.424657
0.422827
0.427346
0.429444
0.429025
0.427937
0.421405
0.420188
0.417362
0.393491
0.394566
0.394479
0.38898
0.381808
0.379945
0.380571
0.379377
0.379094
0.384007
0.384496
0.382843
0.382965
0.380548
0.384841
0.394453
0.394632
0.389752
0.389556
0.38967
0.39255
0.393872
0.393816
0.395434
0.390647
0.390996
0.389638
0.388928
0.389477
0.398204
0.398499
0.4013
0.398983
0.388125
0.385818
0.387835
0.386635
0.380445
0.381711
0.390383
0.390127
0.383837
0.38198
0.380337
0.386855
0.395593
0.396399
0.391434
0.388119
0.391263
0.394547
0.394854
0.394347
0.388947
0.385946
0.394464
0.399254
0.396631
0.393075
0.4012
0.400292
0.399542
0.392328
0.383586
0.387242
0.388712
0.384825
0.380263
0.381681
0.390779
0.392536
0.38054
0.377435
0.376993
0.382475
0.388742
0.390518
0.385735
0.385043
0.388495
0.389849
0.389861
0.383777
0.374721
0.378576
0.388242
0.401314
0.398233
0.388098
0.399224
0.396039
0.396116
0.38461
0.382618
0.387535
0.387075
0.380419
0.377847
0.380513
0.389501
0.390168
0.374939
0.366555
0.361711
0.368624
0.380623
0.387528
0.382047
0.38431
0.387036
0.387307
0.385529
0.377145
0.371608
0.374105
0.382952
0.400428
0.399207
0.382528
0.392241
0.391596
0.391147
0.382238
0.383661
0.386806
0.383766
0.375554
0.374377
0.377491
0.383399
0.384119
0.36805
0.35452
0.352932
0.360139
0.376745
0.386964
0.382479
0.382274
0.384058
0.382832
0.379279
0.376639
0.370674
0.371699
0.379337
0.400364
0.397539
0.376848
0.385741
0.387604
0.38589
0.382781
0.381315
0.383553
0.38049
0.371098
0.37039
0.370767
0.377738
0.376588
0.362136
0.351878
0.355208
0.363314
0.37816
0.384083
0.376079
0.379211
0.380516
0.380394
0.37862
0.376597
0.371308
0.37188
0.379994
0.397726
0.395769
0.371198
0.380604
0.383449
0.386837
0.381452
0.376936
0.378802
0.377748
0.368917
0.364958
0.365378
0.372067
0.369702
0.35833
0.356347
0.359641
0.369357
0.3813
0.37397
0.37014
0.377638
0.384343
0.384191
0.380902
0.37522
0.373208
0.376738
0.38149
0.393109
0.388426
0.365767
0.377372
0.386298
0.389131
0.379764
0.372489
0.375947
0.375979
0.370012
0.363102
0.359658
0.363483
0.362349
0.358377
0.361359
0.365404
0.377379
0.382488
0.370764
0.369523
0.374672
0.387766
0.391297
0.385853
0.376096
0.377643
0.380416
0.384932
0.388221
0.380319
0.362877
0.376932
0.390004
0.389095
0.376831
0.369486
0.374284
0.376233
0.373321
0.362346
0.355704
0.354346
0.35823
0.361114
0.366807
0.371037
0.381443
0.380704
0.369404
0.36913
0.376364
0.388815
0.396692
0.389988
0.382168
0.382544
0.385516
0.386358
0.383026
0.374737
0.363243
0.377298
0.392153
0.386846
0.373268
0.368665
0.372098
0.375709
0.373337
0.364018
0.352813
0.347027
0.356738
0.367762
0.369157
0.374318
0.382508
0.377443
0.370362
0.371435
0.381232
0.392427
0.399797
0.39332
0.389058
0.390037
0.390383
0.387039
0.378264
0.373408
0.366844
0.379451
0.392964
0.38353
0.368014
0.367734
0.369843
0.372143
0.371682
0.366932
0.351917
0.338948
0.354266
0.369838
0.369608
0.372777
0.379126
0.376453
0.372498
0.375712
0.383625
0.39452
0.401492
0.396541
0.396407
0.397307
0.395889
0.386575
0.377598
0.374037
0.373853
0.386752
0.391968
0.378557
0.363453
0.364456
0.365241
0.368242
0.370837
0.372582
0.352907
0.338331
0.346951
0.366706
0.367519
0.369052
0.374813
0.376436
0.37688
0.379471
0.381865
0.394704
0.402706
0.40261
0.404058
0.405103
0.399351
0.389235
0.379711
0.37839
0.383205
0.398398
0.39028
0.373754
0.361026
0.359371
0.360734
0.363907
0.369473
0.373252
0.35888
0.345127
0.34626
0.360505
0.36575
0.366302
0.371942
0.377994
0.381875
0.380026
0.379974
0.395401
0.406195
0.409351
0.410568
0.408693
0.401334
0.391515
0.385303
0.387823
0.397289
0.415171
0.389234
0.370522
0.359158
0.354695
0.355755
0.359095
0.364435
0.371899
0.365041
0.355966
0.350007
0.356647
0.363802
0.362647
0.370613
0.378666
0.384426
0.378732
0.378646
0.396161
0.410603
0.414941
0.412132
0.405366
0.396794
0.391187
0.389778
0.399302
0.411274
0.432671
0.388543
0.366507
0.359084
0.352002
0.351968
0.352504
0.356699
0.365508
0.367097
0.362034
0.356351
0.351398
0.361085
0.360134
0.369458
0.379691
0.383416
0.376169
0.376707
0.396006
0.409889
0.411058
0.401658
0.387099
0.381148
0.382608
0.389344
0.40354
0.418577
0.442379
0.385934
0.361323
0.361142
0.354784
0.35007
0.348692
0.346695
0.357016
0.361166
0.361345
0.356763
0.350038
0.354428
0.36013
0.370564
0.380393
0.38176
0.375684
0.376193
0.394896
0.408334
0.40669
0.38615
0.369523
0.365802
0.375645
0.386416
0.403865
0.418456
0.442311
0.376755
0.357867
0.364322
0.360417
0.351656
0.34923
0.344641
0.349827
0.356632
0.352143
0.350297
0.345793
0.348437
0.360958
0.372702
0.381962
0.382404
0.379257
0.382022
0.396375
0.410063
0.403851
0.379366
0.364138
0.363457
0.37548
0.389281
0.40487
0.416866
0.443815
0.363688
0.356952
0.36699
0.36743
0.354389
0.351499
0.34781
0.345539
0.351619
0.348099
0.341713
0.340355
0.343758
0.36071
0.375209
0.383031
0.386299
0.387899
0.390275
0.398961
0.410084
0.401655
0.376868
0.362305
0.362428
0.374623
0.393165
0.406044
0.417282
0.449161
0.356886
0.357384
0.370303
0.371649
0.354329
0.350586
0.34878
0.345573
0.346128
0.346802
0.340832
0.336614
0.343964
0.360009
0.375021
0.381611
0.389522
0.397055
0.397896
0.399703
0.406467
0.397737
0.374875
0.359896
0.362775
0.371747
0.393076
0.404868
0.415574
0.450318
0.356239
0.358698
0.372765
0.375639
0.356525
0.350397
0.350354
0.349581
0.345287
0.347359
0.343237
0.336886
0.343038
0.359011
0.372346
0.377934
0.388735
0.403536
0.400246
0.403077
0.401548
0.391492
0.371427
0.357827
0.361603
0.368846
0.391264
0.402005
0.415462
0.446705
0.35965
0.363459
0.377151
0.381056
0.362971
0.353877
0.355218
0.353617
0.347347
0.347003
0.346888
0.339315
0.342771
0.35601
0.371164
0.37399
0.383786
0.403197
0.403967
0.404248
0.400539
0.387647
0.370312
0.355188
0.358792
0.366291
0.390141
0.40301
0.418414
0.447196
0.364851
0.369993
0.383766
0.388775
0.37213
0.36022
0.359752
0.355966
0.346786
0.346993
0.348366
0.344405
0.343394
0.353879
0.367752
0.367877
0.374757
0.402103
0.406057
0.404994
0.399266
0.38847
0.371406
0.356304
0.355509
0.365743
0.390933
0.408105
0.424266
0.449816
0.370484
0.374907
0.38914
0.39906
0.38355
0.367645
0.363983
0.356779
0.346521
0.346202
0.348309
0.34892
0.347284
0.354427
0.361581
0.358726
0.370155
0.399853
0.406209
0.403598
0.398635
0.386345
0.373321
0.35817
0.355813
0.366929
0.391858
0.414814
0.431451
0.451841
0.375678
0.377465
0.39442
0.410731
0.396454
0.374422
0.365925
0.357396
0.346262
0.345894
0.348034
0.35186
0.352524
0.356307
0.35686
0.352357
0.369169
0.396479
0.404248
0.401893
0.394271
0.382284
0.368533
0.359059
0.357357
0.371162
0.394538
0.419753
0.436833
0.452324
0.380358
0.38009
0.40034
0.421005
0.40897
0.380106
0.366618
0.356143
0.346787
0.344807
0.348718
0.353211
0.357047
0.358522
0.353631
0.35241
0.367786
0.391571
0.398978
0.393229
0.385235
0.370931
0.359083
0.351612
0.357186
0.375513
0.398591
0.420463
0.436782
0.452885
0.385664
0.385774
0.407635
0.429201
0.418648
0.385245
0.366482
0.355271
0.345813
0.344938
0.349535
0.355373
0.358751
0.360059
0.353521
0.355407
0.364163
0.384058
0.384843
0.377826
0.370447
0.359482
0.348423
0.345803
0.352245
0.374958
0.397598
0.415137
0.426794
0.448227
0.391916
0.395026
0.415745
0.434212
0.424677
0.389073
0.36667
0.353175
0.345666
0.344307
0.350307
0.356176
0.359399
0.35926
0.355987
0.356268
0.359735
0.374726
0.374935
0.368525
0.362916
0.353174
0.346523
0.346035
0.349588
0.373205
0.394567
0.408256
0.415579
0.430985
0.399748
0.404027
0.422288
0.437167
0.428202
0.391306
0.365429
0.351039
0.342988
0.343569
0.3495
0.355816
0.358185
0.356873
0.357939
0.356698
0.356382
0.368535
0.372121
0.365394
0.358922
0.353208
0.349247
0.350201
0.350999
0.375896
0.394029
0.406557
0.412919
0.422245
0.40983
0.409357
0.425512
0.438681
0.430215
0.392486
0.363297
0.346505
0.340093
0.341989
0.347938
0.354705
0.356053
0.355215
0.358195
0.358566
0.357569
0.369757
0.374271
0.365658
0.360143
0.35652
0.355886
0.352679
0.355089
0.381211
0.396173
0.407484
0.412597
0.417546
0.422315
0.412709
0.427758
0.437914
0.429647
0.393791
0.35917
0.342139
0.336683
0.340704
0.345721
0.351671
0.35345
0.353008
0.356943
0.360456
0.362226
0.376839
0.378311
0.368043
0.363006
0.362705
0.360593
0.356095
0.361129
0.387755
0.398941
0.408555
0.411875
0.414302
0.434741
0.418076
0.430812
0.435059
0.427313
0.393946
0.355845
0.338052
0.335111
0.338848
0.344558
0.348878
0.349314
0.350496
0.356195
0.363298
0.368786
0.386118
0.385731
0.371855
0.367238
0.367558
0.36505
0.359577
0.36826
0.393306
0.401205
0.40901
0.409266
0.411699
0.444274
0.42506
0.434277
0.43167
0.424147
0.395444
0.35366
0.336046
0.333456
0.337755
0.343533
0.347424
0.347467
0.349917
0.357182
0.366557
0.376838
0.396248
0.392108
0.376157
0.371269
0.371784
0.368073
0.362814
0.373913
0.396057
0.40222
0.407899
0.405526
0.409692
0.44811
0.431956
0.437709
0.429986
0.420355
0.395937
0.352804
0.334509
0.33378
0.336859
0.343347
0.34793
0.348893
0.352721
0.359321
0.371051
0.384538
0.402988
0.395928
0.379122
0.375421
0.375262
0.370525
0.363977
0.377271
0.397377
0.401695
0.405442
0.400021
0.40814
0.448842
0.435166
0.438691
0.429054
0.415587
0.396961
0.352383
0.334238
0.33454
0.337743
0.343596
0.349065
0.354155
0.358141
0.36405
0.375222
0.391727
0.407539
0.398591
0.382487
0.379567
0.3787
0.370773
0.36361
0.381299
0.400355
0.404125
0.404576
0.39653
0.405772
0.448281
0.433185
0.435652
0.427749
0.413075
0.397405
0.35628
0.334905
0.335701
0.339082
0.343604
0.350804
0.359413
0.36529
0.36976
0.38026
0.396011
0.410534
0.400874
0.385314
0.383671
0.379813
0.369578
0.365008
0.388378
0.406697
0.406353
0.40359
0.393887
0.40298
0.445264
0.428196
0.431323
0.426432
0.41141
0.399998
0.360288
0.338785
0.336881
0.340292
0.343674
0.352338
0.363983
0.369775
0.376401
0.384551
0.398501
0.410903
0.4029
0.387288
0.385951
0.379108
0.368242
0.369618
0.39738
0.411521
0.406496
0.401346
0.39075
0.400426
0.440702
0.425403
0.426228
0.421253
0.410657
0.402936
0.366677
0.34356
0.338784
0.341144
0.343154
0.355225
0.366062
0.372173
0.380429
0.389777
0.399293
0.410017
0.403899
0.388143
0.385085
0.377171
0.37028
0.376865
0.406141
0.412918
0.405054
0.398503
0.387498
0.398449
0.436258
0.427036
0.42199
0.415069
0.409178
0.406038
0.373854
0.349326
0.340815
0.341549
0.343546
0.357
0.368143
0.37215
0.382394
0.392836
0.401194
0.407889
0.403998
0.388212
0.381761
0.375867
0.375266
0.385799
0.411414
0.411664
0.402314
0.39424
0.386058
0.396663
0.436565
0.431635
0.421373
0.408497
0.407202
0.406893
0.381731
0.355155
0.343621
0.342363
0.344903
0.359883
0.369202
0.374085
0.381973
0.394724
0.402917
0.405901
0.402977
0.386528
0.377574
0.376769
0.382231
0.393648
0.412201
0.408224
0.397389
0.390741
0.385368
0.395598
0.438658
0.43368
0.419203
0.404396
0.404455
0.406603
0.389011
0.362408
0.346789
0.343205
0.347829
0.36271
0.371532
0.376371
0.384826
0.395406
0.405175
0.404001
0.400305
0.383745
0.375225
0.379868
0.38962
0.399051
0.410831
0.403771
0.394146
0.38934
0.384843
0.3971
0.441366
0.430656
0.414811
0.402736
0.401375
0.404726
0.394816
0.369441
0.35049
0.345167
0.350636
0.367307
0.374709
0.381105
0.388729
0.398966
0.406229
0.402035
0.394367
0.382689
0.374518
0.383015
0.395568
0.401905
0.410313
0.401578
0.392901
0.388868
0.38338
0.399981
0.443565
0.425197
0.409277
0.400291
0.39776
0.402594
0.396925
0.375124
0.354723
0.347203
0.354588
0.371794
0.380441
0.386138
0.394619
0.401564
0.405547
0.395112
0.39053
0.383337
0.375055
0.385207
0.39854
0.404819
0.411337
0.401675
0.394801
0.391164
0.385258
0.402953
0.443897
0.417984
0.403139
0.396367
0.394647
0.40137
0.399399
0.377191
0.357644
0.348165
0.357833
0.375998
0.384041
0.391025
0.397721
0.400238
0.398559
0.392088
0.389964
0.385681
0.377624
0.387459
0.399237
0.407955
0.412281
0.404157
0.398743
0.394871
0.38911
0.404929
0.437837
0.408924
0.397232
0.392688
0.39442
0.400215
0.400173
0.377407
0.35877
0.347633
0.359923
0.378611
0.385847
0.391911
0.398591
0.396859
0.397716
0.392552
0.391626
0.389598
0.384402
0.389106
0.398764
0.41062
0.412835
0.40615
0.403076
0.400041
0.394003
0.407199
0.430234
0.400234
0.392124
0.392246
0.395035
0.398412
0.398523
0.376313
0.359932
0.348326
0.360188
0.380336
0.384965
0.393033
0.398433
0.397998
0.397658
0.394512
0.394029
0.395237
0.390926
0.390054
0.397615
0.41217
0.413775
0.410293
0.409136
0.406418
0.399473
0.412201
0.423702
0.394847
0.390598
0.393688
0.395809
0.397127
0.395831
0.375627
0.362297
0.351865
0.361666
0.380414
0.385673
0.392994
0.401172
0.399759
0.399149
0.395877
0.396881
0.396964
0.394525
0.390896
0.397726
0.415499
0.417619
0.417037
0.415891
0.413651
0.408668
0.418299
0.416486
0.393831
0.39208
0.395082
0.397936
0.397289
0.395629
0.377241
0.366725
0.358196
0.36431
0.382114
0.388478
0.397214
0.402455
0.404027
0.401434
0.39856
0.396649
0.397122
0.396407
0.393538
0.40137
0.422369
0.425276
0.425694
0.425442
0.42375
0.418118
0.42512
0.413622
0.3949
0.394446
0.396345
0.400274
0.400275
0.397887
0.381179
0.37187
0.363761
0.366431
0.383144
0.395344
0.402338
0.407932
0.4095
0.406366
0.400469
0.39794
0.398915
0.399943
0.397052
0.408265
0.432324
0.434517
0.435727
0.436314
0.431498
0.425085
0.431897
0.416111
0.399902
0.397946
0.397993
0.402597
0.404326
0.402188
0.385492
0.375522
0.368021
0.366604
0.382707
0.397661
0.405781
0.410693
0.414565
0.41031
0.404687
0.401143
0.403876
0.403285
0.401627
0.416425
0.441541
0.443275
0.444951
0.442193
0.437566
0.430661
0.43702
0.42154
0.40884
0.405682
0.405031
0.405908
0.408959
0.408448
0.389582
0.377187
0.369378
0.368418
0.37912
0.391045
0.402356
0.411244
0.415728
0.415235
0.409629
0.407339
0.409342
0.408467
0.405631
0.423547
0.448494
0.450055
0.448817
0.446642
0.444489
0.436594
0.439519
0.429236
0.412495
0.413723
0.413754
0.412137
0.41396
0.414182
0.393548
0.375275
0.367065
0.369289
0.375169
0.38313
0.398545
0.406102
0.414121
0.415946
0.414898
0.416454
0.416433
0.414025
0.41061
0.426837
0.451139
0.452462
0.452036
0.450774
0.449605
0.441094
0.440502
0.436551
0.412924
0.414073
0.418451
0.418222
0.418999
0.417648
0.394058
0.366964
0.360492
0.3659
0.369786
0.380804
0.392366
0.404472
0.412504
0.417415
0.421293
0.426242
0.423235
0.419724
0.41507
0.425895
0.452124
0.455743
0.454673
0.453835
0.452921
0.443031
0.440411
0.439137
0.412024
0.409551
0.413795
0.419274
0.42236
0.418882
0.38873
0.354229
0.350853
0.357477
0.366634
0.377065
0.387684
0.397449
0.409237
0.420967
0.430865
0.430578
0.429847
0.423689
0.418766
0.423606
0.449586
0.457775
0.456853
0.455905
0.454184
0.44186
0.439658
0.43916
0.405347
0.40145
0.406093
0.413809
0.421006
0.416078
0.375926
0.344849
0.343198
0.351912
0.360067
0.370033
0.376947
0.386762
0.400582
0.422148
0.436075
0.43576
0.433943
0.427985
0.419865
0.4228
0.442474
0.457551
0.458663
0.457837
0.454137
0.438214
0.438253
0.43467
0.394314
0.393404
0.398971
0.408147
0.415671
0.406901
0.363269
0.342261
0.343103
0.34497
0.347291
0.351016
0.357327
0.370506
0.392182
0.415922
0.43301
0.439479
0.43824
0.430693
0.420983
0.422319
0.436078
0.453672
0.460262
0.458949
0.452422
0.435321
0.437909
0.423959
0.387272
0.387623
0.39478
0.402343
0.410962
0.395838
0.357776
0.344153
0.344011
0.338953
0.332906
0.332841
0.335432
0.34825
0.37556
0.404717
0.421531
0.438583
0.440321
0.429036
0.415772
0.420155
0.431288
0.447495
0.460105
0.458816
0.449918
0.432673
0.438444
0.419923
0.383702
0.383415
0.391227
0.398138
0.405956
0.389205
0.358151
0.345911
0.339896
0.331558
0.326486
0.32524
0.330975
0.341185
0.35963
0.383491
0.402882
0.421455
0.431036
0.41749
0.409054
0.413063
0.426257
0.44005
0.457953
0.45814
0.447053
0.431079
0.437164
0.420452
0.381507
0.382057
0.388983
0.396334
0.404417
0.385666
0.360872
0.345845
0.332261
0.326044
0.323213
0.325388
0.329256
0.339687
0.351963
0.365636
0.381518
0.399376
0.421289
0.413205
0.403164
0.405317
0.417995
0.432281
0.452857
0.454626
0.442327
0.429056
0.435507
0.423051
0.383633
0.382475
0.38881
0.39579
0.401745
0.384234
0.362791
0.344868
0.326294
0.322553
0.324018
0.324867
0.328569
0.336593
0.346402
0.354359
0.370953
0.388273
0.413895
0.412501
0.399592
0.399471
0.411841
0.424221
0.444135
0.448779
0.434489
0.427127
0.434765
0.423919
0.388022
0.388329
0.389931
0.394443
0.398123
0.384252
0.36223
0.343843
0.323257
0.321648
0.322199
0.324267
0.326312
0.334229
0.341551
0.348595
0.364305
0.383185
0.406971
0.410985
0.39877
0.39664
0.408127
0.41849
0.436845
0.441093
0.425971
0.421304
0.436291
0.422524
0.393687
0.396312
0.393522
0.393074
0.395044
0.383988
0.362274
0.342937
0.323885
0.319354
0.3213
0.32209
0.324826
0.33117
0.338935
0.344907
0.357366
0.375339
0.403184
0.408278
0.399131
0.396757
0.407454
0.417324
0.43368
0.430507
0.414259
0.405155
0.434164
0.41717
0.396429
0.400241
0.39649
0.390627
0.391331
0.383277
0.362715
0.344686
0.32668
0.320551
0.320279
0.321258
0.322792
0.329508
0.336474
0.343237
0.351381
0.364401
0.392138
0.406238
0.400965
0.401231
0.411222
0.420848
0.43352
0.424789
0.41443
0.405818
0.424585
0.403811
0.393276
0.395732
0.393978
0.387323
0.389598
0.384959
0.364841
0.34888
0.333654
0.324786
0.32495
0.322978
0.323453
0.327794
0.33542
0.342033
0.349266
0.359909
0.378544
0.398375
0.406626
0.40786
0.418585
0.428
0.438158
0.427417
0.420142
0.409916
0.421031
0.388803
0.383582
0.386709
0.389813
0.387276
0.391088
0.388763
0.368023
0.354922
0.343308
0.331378
0.328713
0.329324
0.327198
0.328893
0.334354
0.341882
0.348142
0.358754
0.372366
0.395451
0.409637
0.414575
0.424772
0.436048
0.441815
0.426189
0.421416
0.413074
0.421247
0.380376
0.37338
0.380607
0.388359
0.388314
0.392641
0.391812
0.371364
0.359852
0.351206
0.338228
0.333182
0.331785
0.333824
0.333398
0.336122
0.341821
0.347956
0.359251
0.378885
0.399712
0.414245
0.415886
0.423198
0.437016
0.435375
0.416963
0.413964
0.405378
0.418442
0.377627
0.36864
0.377293
0.386942
0.389947
0.394582
0.393717
0.373327
0.364
0.355057
0.345503
0.338784
0.335262
0.336332
0.338851
0.340222
0.345002
0.350457
0.367318
0.391935
0.408398
0.417057
0.416585
0.417641
0.432681
0.426111
0.410943
0.405695
0.394993
0.409375
0.378473
0.366903
0.373698
0.384631
0.390539
0.39778
0.394878
0.37438
0.365385
0.357989
0.349951
0.344429
0.339017
0.338962
0.340789
0.34466
0.34848
0.354891
0.374706
0.404965
0.415883
0.420391
0.417195
0.416925
0.432468
0.424338
0.408342
0.402499
0.39307
0.406687
0.384451
0.368319
0.37032
0.379529
0.389868
0.400296
0.396075
0.374424
0.366315
0.359007
0.353891
0.347618
0.343578
0.341338
0.34318
0.347113
0.351441
0.358323
0.380569
0.412794
0.423809
0.42295
0.421271
0.419761
0.436362
0.426056
0.410266
0.404582
0.397279
0.415047
0.396851
0.374351
0.372533
0.376393
0.385612
0.400165
0.395867
0.374276
0.364817
0.360015
0.355589
0.350848
0.345743
0.343748
0.34447
0.348641
0.353072
0.362359
0.385224
0.415575
0.428271
0.427604
0.425913
0.424788
0.443045
0.430931
0.416188
0.412457
0.407403
0.41818
0.406478
0.386978
0.382054
0.38088
0.383464
0.395904
0.3932
0.373203
0.363598
0.360104
0.357069
0.352783
0.347991
0.344133
0.346323
0.349116
0.355371
0.365626
0.38886
0.416211
0.430256
0.432601
0.43176
0.43077
0.450443
0.436638
0.422541
0.41654
0.408898
0.417998
0.410854
0.399947
0.395436
0.390906
0.389234
0.394541
0.388094
0.37179
0.363795
0.361924
0.357501
0.352847
0.347468
0.343891
0.346905
0.350761
0.357281
0.368411
0.389955
0.417026
0.429992
0.435188
0.434857
0.435345
0.453912
0.438575
0.42441
0.416319
0.406516
0.418487
0.41414
0.4086
0.408286
0.405165
0.400637
0.398236
0.387147
0.371794
0.364287
0.360458
0.355767
0.350649
0.345275
0.341044
0.346281
0.351101
0.358152
0.370472
0.390887
0.414946
0.428379
0.43393
0.435821
0.43851
0.455102
0.439008
0.424565
0.414291
0.403261
0.419077
0.416112
0.414984
0.41719
0.417154
0.413058
0.405288
0.391258
0.374538
0.36416
0.35523
0.349876
0.34719
0.34085
0.338883
0.344449
0.351581
0.358401
0.371799
0.391977
0.413404
0.427651
0.432745
0.433226
0.438404
0.453901
0.440656
0.426063
0.413686
0.398054
0.419084
0.415657
0.418407
0.422713
0.423449
0.42167
0.413792
0.396126
0.377916
0.363558
0.3475
0.343547
0.340087
0.336891
0.337587
0.345414
0.352158
0.36074
0.374692
0.394608
0.413128
0.427792
0.429395
0.42943
0.434662
0.449322
0.441397
0.429303
0.416819
0.399148
0.421972
0.41585
0.420166
0.426458
0.42705
0.42704
0.419564
0.39922
0.379343
0.355816
0.340945
0.337223
0.335618
0.333271
0.33807
0.345729
0.353132
0.36156
0.376464
0.394779
0.412963
0.424965
0.423493
0.423282
0.430655
0.444355
0.440082
0.434272
0.428952
0.413321
0.423571
0.41631
0.421198
0.429379
0.43039
0.430228
0.42038
0.396536
0.370223
0.345558
0.334034
0.332549
0.330734
0.332281
0.337223
0.34649
0.353736
0.362867
0.375789
0.392337
0.41052
0.419438
0.415774
0.419331
0.431003
0.445582
0.443582
0.444012
0.444481
0.427382
0.425118
0.416091
0.417221
0.428514
0.429564
0.431944
0.419533
0.388442
0.359977
0.339463
0.329574
0.328311
0.329426
0.331184
0.33783
0.346533
0.356144
0.364692
0.377374
0.391791
0.408765
0.413028
0.40706
0.414227
0.431965
0.449705
0.452137
0.45599
0.453953
0.435564
0.429456
0.415282
0.41158
0.42494
0.428598
0.430114
0.417833
0.383323
0.353819
0.333591
0.326223
0.327381
0.329176
0.333949
0.340218
0.349925
0.359769
0.368884
0.381044
0.396423
0.408116
0.406664
0.396807
0.405829
0.428925
0.450651
0.458526
0.460127
0.452592
0.437901
0.434425
0.407807
0.406741
0.423867
0.428726
0.428756
0.410918
0.378977
0.349957
0.330647
0.327055
0.328464
0.333597
0.338842
0.346008
0.354257
0.36425
0.373388
0.388194
0.402325
0.408056
0.403446
0.392426
0.396158
0.420409
0.446422
0.456074
0.454382
0.44658
0.434274
0.437871
0.400355
0.405758
0.424906
0.430544
0.427906
0.405611
0.371708
0.346651
0.335299
0.33154
0.333918
0.339072
0.345414
0.351204
0.359021
0.366142
0.378995
0.39528
0.408994
0.409717
0.400381
0.389916
0.390274
0.412267
0.442665
0.451827
0.449491
0.44183
0.431748
0.440143
0.403285
0.406788
0.424667
0.432541
0.42863
0.402228
0.367001
0.347387
0.339881
0.339623
0.341074
0.345677
0.349555
0.355632
0.362175
0.368491
0.382661
0.400441
0.411196
0.408224
0.396017
0.388691
0.389847
0.406739
0.441889
0.453504
0.448944
0.440452
0.434805
0.440657
0.415326
0.408673
0.423179
0.433377
0.431248
0.400671
0.369371
0.349639
0.345202
0.34497
0.348737
0.352023
0.355321
0.359582
0.365892
0.371583
0.386182
0.402372
0.409411
0.403223
0.394969
0.390603
0.393972
0.403321
0.435941
0.454258
0.450462
0.442467
0.437953
0.441243
0.423411
0.413711
0.424098
0.433691
0.432655
0.403425
0.376077
0.356656
0.350692
0.350696
0.353333
0.357448
0.360835
0.366641
0.371527
0.377367
0.390521
0.402649
0.40464
0.402306
0.397274
0.393695
0.395398
0.400416
0.425256
0.448895
0.44975
0.443573
0.437454
0.446165
0.42304
0.419012
0.428903
0.435764
0.432157
0.405254
0.380782
0.365871
0.358065
0.3554
0.357916
0.361227
0.367305
0.37322
0.37898
0.38388
0.395428
0.402131
0.403702
0.403723
0.397342
0.392258
0.395669
0.398462
0.413302
0.441072
0.44225
0.442236
0.442232
0.447136
0.418053
0.418848
0.432076
0.441305
0.430403
0.405696
0.381649
0.37155
0.363906
0.359578
0.360695
0.365609
0.37232
0.379432
0.384191
0.390373
0.398448
0.404836
0.404235
0.401762
0.393863
0.389836
0.392521
0.394632
0.400487
0.430296
0.435274
0.435982
0.438821
0.443857
0.413037
0.418068
0.433642
0.445464
0.430744
0.403162
0.383025
0.373927
0.367435
0.36081
0.362819
0.368668
0.37669
0.382496
0.388439
0.393999
0.402176
0.406068
0.401645
0.396454
0.389421
0.384327
0.386476
0.388632
0.392114
0.41302
0.427224
0.425701
0.427891
0.436354
0.410779
0.417833
0.435532
0.447009
0.43139
0.400143
0.383837
0.376128
0.367354
0.361893
0.364129
0.371952
0.379094
0.38514
0.389785
0.396648
0.405671
0.40295
0.39522
0.389728
0.382525
0.377069
0.378872
0.383214
0.387109
0.400748
0.417553
0.415641
0.416022
0.427332
0.410979
0.419097
0.437896
0.448424
0.428972
0.397564
0.383833
0.375728
0.367772
0.363984
0.367887
0.374807
0.382325
0.38776
0.394314
0.403032
0.410648
0.401546
0.392125
0.38579
0.37662
0.371886
0.374835
0.378955
0.383396
0.392378
0.402287
0.40251
0.399724
0.414222
0.415303
0.421891
0.440153
0.449925
0.423827
0.395395
0.382061
0.375773
0.368212
0.367319
0.370854
0.377314
0.38297
0.391649
0.401381
0.411392
0.412613
0.40112
0.391625
0.380412
0.370236
0.365927
0.367585
0.373311
0.37919
0.388747
0.390467
0.386166
0.381182
0.400196
0.423083
0.425105
0.442601
0.449411
0.419667
0.392467
0.38129
0.375651
0.370553
0.369595
0.374118
0.379977
0.387634
0.396837
0.406604
0.408602
0.403397
0.393628
0.382247
0.37136
0.365673
0.361685
0.362991
0.3685
0.37711
0.387437
0.385811
0.377001
0.374015
0.392664
0.428563
0.435198
0.446143
0.443379
0.415707
0.391761
0.381225
0.376127
0.3729
0.373709
0.377861
0.385371
0.39225
0.399265
0.402104
0.401789
0.39485
0.384806
0.375586
0.369257
0.365937
0.363371
0.362196
0.367903
0.377169
0.386067
0.382698
0.37324
0.370771
0.391395
0.42933
0.441218
0.449567
0.436605
0.410123
0.392579
0.383235
0.377499
0.376024
0.376646
0.381612
0.388881
0.395301
0.396895
0.398943
0.397422
0.389603
0.381687
0.376187
0.371821
0.368783
0.366183
0.364561
0.368723
0.376727
0.384318
0.380737
0.372466
0.369495
0.392561
0.429296
0.443003
0.452793
0.432306
0.406611
0.394575
0.385815
0.380539
0.378409
0.379964
0.383178
0.390787
0.393918
0.396007
0.397548
0.39585
0.3875
0.382166
0.379134
0.375242
0.37221
0.368981
0.366158
0.369454
0.376489
0.383092
0.380134
0.373699
0.36962
0.397314
0.432192
0.444364
0.45158
0.426501
0.404061
0.395841
0.388615
0.383646
0.382157
0.382144
0.384483
0.389029
0.391603
0.395498
0.398913
0.393925
0.387259
0.383999
0.381987
0.378279
0.375706
0.371417
0.368003
0.36942
0.377079
0.382745
0.380243
0.376017
0.373121
0.409818
0.43822
0.446056
0.446527
0.419255
0.402801
0.396948
0.390349
0.387051
0.38425
0.384519
0.384597
0.385507
0.387618
0.394657
0.397094
0.392314
0.387061
0.386258
0.385087
0.381952
0.379292
0.374716
0.370218
0.370001
0.378689
0.384115
0.382816
0.382264
0.384061
0.425533
0.441108
0.442861
0.440838
0.415226
0.403529
0.3976
0.392026
0.388379
0.38628
0.385737
0.384408
0.37952
0.381397
0.388972
0.39104
0.387069
0.387608
0.388873
0.388868
0.386122
0.38307
0.377954
0.373512
0.372451
0.382453
0.389058
0.390414
0.393257
0.398804
0.443772
0.441116
0.438827
0.435843
0.414699
0.404461
0.398373
0.393513
0.390462
0.387392
0.387074
0.381448
0.375207
0.374634
0.380333
0.38006
0.380257
0.386729
0.391438
0.392726
0.389949
0.385904
0.3801
0.376399
0.376763
0.388548
0.398204
0.401877
0.405412
0.416319
0.460808
0.440975
0.433459
0.431641
0.41689
0.407299
0.399639
0.395875
0.392316
0.389901
0.387833
0.380438
0.373681
0.374201
0.373798
0.371547
0.374506
0.38725
0.395839
0.397689
0.395429
0.391378
0.385648
0.382485
0.384175
0.397473
0.410318
0.414386
0.41934
0.431378
0.462792
0.438676
0.42625
0.431348
0.420966
0.411285
0.400393
0.396617
0.39504
0.392096
0.388601
0.383572
0.379407
0.378128
0.37497
0.36804
0.37095
0.385554
0.40059
0.40705
0.406059
0.402114
0.394648
0.391294
0.395131
0.409422
0.423114
0.427065
0.425436
0.431308
0.458581
0.435683
0.425374
0.433363
0.423989
0.414093
0.402155
0.397326
0.395326
0.395181
0.394882
0.393033
0.38686
0.384903
0.377593
0.369048
0.364737
0.376268
0.394987
0.409366
0.415774
0.412956
0.405747
0.402885
0.40872
0.422608
0.434683
0.43085
0.422753
0.427341
0.451743
0.433122
0.426135
0.434194
0.427087
0.41737
0.407137
0.400295
0.397081
0.398304
0.40176
0.400583
0.394062
0.388226
0.37961
0.368392
0.362818
0.368232
0.388519
0.405518
0.417861
0.42108
0.415924
0.414982
0.422459
0.434899
0.438391
0.42985
0.417937
0.421332
0.438588
0.428124
0.424834
0.435043
0.43245
0.422793
0.41324
0.405526
0.401167
0.401183
0.402754
0.40384
0.397234
0.390299
0.380661
0.37121
0.364374
0.362754
0.376923
0.399375
0.416425
0.424848
0.424667
0.426708
0.434028
0.441018
0.438513
0.427073
0.410971
0.407183
0.420263
0.422666
0.422695
0.434322
0.436492
0.428824
0.418951
0.412718
0.407642
0.40318
0.402979
0.401716
0.397485
0.390721
0.383671
0.373935
0.366432
0.360286
0.365996
0.391221
0.412905
0.425672
0.430504
0.436621
0.441246
0.44214
0.436584
0.421525
0.397424
0.386504
0.397294
0.418289
0.418817
0.43183
0.437209
0.432674
0.424096
0.420066
0.413242
0.406723
0.402282
0.399461
0.39482
0.390805
0.384929
0.377347
0.368543
0.362248
0.362969
0.383319
0.408645
0.42532
0.432326
0.442062
0.443932
0.439517
0.42864
0.407367
0.374207
0.358924
0.376743
0.413551
0.41393
0.428246
0.4359
0.43428
0.426642
0.423132
0.41784
0.410529
0.402626
0.39686
0.392684
0.389359
0.385447
0.379323
0.372998
0.365772
0.365739
0.378792
0.405002
0.423545
0.432101
0.441409
0.44245
0.434253
0.417625
0.389784
0.349836
0.347522
0.372799
0.409533
0.409495
0.424921
0.43427
0.434762
0.426238
0.423418
0.41948
0.41371
0.404011
0.397404
0.392247
0.390005
0.385442
0.382013
0.375931
0.369791
0.368942
0.377184
0.400744
0.420282
0.429293
0.435242
0.438297
0.429498
0.408679
0.374874
0.344124
0.347062
0.370107
0.408312
0.406693
0.424329
0.434094
0.436822
0.427707
0.425007
0.423247
0.415659
0.407931
0.400542
0.395161
0.390221
0.385051
0.381707
0.377489
0.371507
0.370737
0.376027
0.394371
0.415921
0.42482
0.427569
0.43077
0.426266
0.406424
0.370578
0.346426
0.348994
0.368967
0.408712
0.406132
0.42642
0.43653
0.441155
0.432501
0.429594
0.427358
0.419123
0.410465
0.404032
0.396769
0.3894
0.38321
0.381143
0.375945
0.371585
0.370398
0.373353
0.385554
0.411903
0.422021
0.423433
0.423811
0.42124
0.407302
0.373792
0.351306
0.352709
0.37013
0.412281
0.408846
0.429406
0.440112
0.446196
0.438496