/*--------------------------------*- C++ -*----------------------------------*\
| =========                 |                                                 |
| \\      /  F ield         | OpenFOAM: The Open Source CFD Toolbox           |
|  \\    /   O peration     | Version:  2.3.0                                 |
|   \\  /    A nd           | Web:      www.OpenFOAM.org                      |
|    \\/     M anipulation  |                                                 |
\*---------------------------------------------------------------------------*/
FoamFile
{
    version     2.0;
    format      ascii;
    class       surfaceScalarField;
    location    "1.01";
    object      phi;
}
// * * * * * * * * * * * * * * * * * * * * * * * * * * * * * * * * * * * * * //

dimensions      [0 3 -1 0 0 0 0];

internalField   nonuniform List<scalar> 
11770
(
3.8236e-06
4.45411e-05
8.10486e-06
4.42951e-05
1.39258e-05
4.28017e-05
2.14406e-05
4.11594e-05
2.4856e-05
4.53743e-05
7.74803e-06
6.60892e-05
-7.69719e-07
5.72214e-05
-1.18131e-05
5.95326e-05
-2.20047e-05
5.86897e-05
-1.66237e-05
4.28176e-05
-8.28678e-06
3.98633e-05
-9.46916e-06
4.97414e-05
-2.77304e-05
6.71386e-05
-3.82856e-05
5.92936e-05
-2.36842e-05
3.39968e-05
-3.45924e-06
2.82062e-05
2.52922e-06
4.26773e-05
-3.26911e-06
5.47034e-05
-7.37964e-06
5.2868e-05
-1.16349e-05
5.29193e-05
-1.04587e-05
4.74773e-05
-5.80436e-06
4.39895e-05
-1.19469e-06
4.39964e-05
4.85563e-06
4.24317e-05
3.35978e-06
5.00247e-05
2.21552e-06
4.95488e-05
6.35393e-06
4.41241e-05
1.12958e-05
4.34329e-05
3.4744e-06
5.66532e-05
5.22605e-05
3.127e-06
4.26594e-05
5.14154e-06
4.35e-05
8.93281e-06
4.01423e-05
1.14265e-05
3.97311e-05
3.35063e-06
5.45957e-05
-4.3335e-06
7.53118e-05
-1.07939e-05
6.50042e-05
-9.56819e-06
5.97022e-05
-1.83329e-05
6.89359e-05
-2.11377e-05
4.68245e-05
-2.1294e-05
4.11827e-05
-3.07108e-05
6.05364e-05
-2.35415e-05
6.15829e-05
-2.38475e-05
6.09123e-05
-2.35753e-05
3.46441e-05
-1.58433e-05
2.1322e-05
-1.3366e-05
4.13648e-05
-1.12838e-05
5.40278e-05
-1.10823e-05
5.40145e-05
-8.70319e-06
5.18505e-05
-6.9416e-06
4.69122e-05
-4.41199e-06
4.2599e-05
-1.3873e-06
4.21294e-05
3.90337e-06
3.82967e-05
9.71304e-06
4.55867e-05
1.11463e-05
4.94462e-05
7.88867e-06
4.85824e-05
-3.4928e-06
5.60078e-05
-1.6168e-06
5.62125e-05
5.21073e-05
1.75252e-06
4.09921e-05
4.94185e-06
4.03537e-05
2.87835e-06
4.2247e-05
-3.37254e-06
4.60259e-05
-1.14135e-05
6.26978e-05
-7.30425e-06
7.13259e-05
-1.10085e-05
6.88636e-05
-1.56202e-05
6.44945e-05
-1.84265e-05
7.19322e-05
-1.85403e-05
4.70271e-05
-1.91671e-05
4.18584e-05
-2.35836e-05
6.50752e-05
-2.30232e-05
6.1138e-05
-1.97679e-05
5.77215e-05
-2.675e-05
4.16674e-05
-2.71114e-05
2.17174e-05
-2.10948e-05
3.54101e-05
-1.70286e-05
5.00586e-05
-1.49768e-05
5.20788e-05
-1.0756e-05
4.77186e-05
-4.76571e-06
4.09826e-05
-1.59994e-06
3.94885e-05
2.44574e-06
3.81436e-05
7.44954e-06
3.33535e-05
1.09724e-05
4.21418e-05
1.07468e-05
4.97516e-05
8.8362e-06
5.05907e-05
2.374e-07
6.47409e-05
-2.17732e-06
5.87015e-05
4.99584e-05
1.03427e-06
3.99856e-05
-3.41269e-06
4.48105e-05
-1.01696e-05
4.90109e-05
-1.73667e-05
5.32301e-05
-1.49004e-05
6.02425e-05
-9.67297e-06
6.61254e-05
-1.04124e-05
6.97015e-05
-1.41035e-05
6.83338e-05
-1.54535e-05
7.34384e-05
-1.60221e-05
4.76368e-05
-1.58988e-05
4.17023e-05
-1.95087e-05
6.86863e-05
-2.12063e-05
6.28596e-05
-2.16608e-05
5.81813e-05
-2.72324e-05
4.72408e-05
-2.62731e-05
2.07583e-05
-1.81311e-05
2.72761e-05
-1.54783e-05
4.74189e-05
-1.25155e-05
4.91327e-05
-8.67449e-06
4.38856e-05
-2.2155e-06
3.45278e-05
3.55256e-06
3.3723e-05
6.88107e-06
3.48184e-05
5.15386e-06
3.50812e-05
6.58242e-06
4.0714e-05
8.54671e-06
4.77967e-05
6.76969e-06
5.24002e-05
2.16333e-06
6.93653e-05
-6.06927e-07
6.14817e-05
4.93579e-05
-4.35852e-06
4.43576e-05
-1.81827e-05
5.86415e-05
-2.22643e-05
5.30969e-05
-1.84564e-05
4.9426e-05
-1.44458e-05
5.62374e-05
-1.08684e-05
6.25586e-05
-9.70884e-06
6.85891e-05
-1.1038e-05
6.97715e-05
-1.17695e-05
7.43164e-05
-1.27757e-05
4.86889e-05
-1.17455e-05
4.06463e-05
-1.52933e-05
7.22004e-05
-1.88449e-05
6.64138e-05
-2.25058e-05
6.18453e-05
-2.51513e-05
4.98875e-05
-2.01043e-05
1.57067e-05
-1.37471e-05
2.09188e-05
-1.02941e-05
4.39695e-05
-6.52217e-06
4.53632e-05
-1.14367e-06
3.85073e-05
5.16262e-06
2.82203e-05
1.02187e-05
2.86648e-05
1.06014e-05
3.44299e-05
5.25349e-06
4.04214e-05
1.05192e-06
4.49119e-05
6.11936e-07
4.82478e-05
1.51517e-06
5.15314e-05
9.63129e-07
6.99164e-05
-1.14679e-06
6.35941e-05
4.82125e-05
-2.13975e-05
6.5766e-05
-3.53926e-05
7.26453e-05
-3.11394e-05
4.88498e-05
-2.01702e-05
3.846e-05
-1.40505e-05
5.01221e-05
-1.11969e-05
5.97105e-05
-9.51566e-06
6.69253e-05
-8.68951e-06
6.90033e-05
-8.94036e-06
7.46622e-05
-1.09621e-05
5.07536e-05
-9.63291e-06
3.93056e-05
-1.0274e-05
7.27649e-05
-1.39648e-05
7.00918e-05
-1.68071e-05
6.46903e-05
-1.51252e-05
4.82083e-05
-1.24916e-05
1.30677e-05
-1.09066e-05
1.93315e-05
-3.59049e-06
3.66555e-05
5.03844e-06
3.67352e-05
1.24336e-05
3.11121e-05
1.49345e-05
2.57182e-05
1.33229e-05
3.02741e-05
8.81872e-06
3.8927e-05
3.9716e-06
4.52616e-05
-1.2452e-06
5.0135e-05
-5.06756e-06
5.20941e-05
-5.15328e-06
5.16613e-05
-9.47251e-07
6.57234e-05
-9.76972e-07
6.363e-05
4.72353e-05
-3.78244e-05
0.000103615
-4.38834e-05
7.87213e-05
-3.63298e-05
4.13052e-05
-2.65139e-05
2.86474e-05
-1.67875e-05
4.04e-05
-1.28667e-05
5.57942e-05
-9.45007e-06
6.35138e-05
-8.56764e-06
6.81428e-05
-7.45748e-06
7.35976e-05
-1.06172e-05
5.39544e-05
-8.89207e-06
3.75916e-05
-4.85147e-06
6.86472e-05
-5.19022e-06
7.03894e-05
-5.69292e-06
6.51831e-05
1.84975e-07
4.23292e-05
-1.0813e-06
1.43286e-05
-9.51543e-07
1.92e-05
6.85299e-06
2.88558e-05
1.33941e-05
3.02009e-05
1.64293e-05
2.80834e-05
1.38983e-05
2.82512e-05
1.06469e-05
3.35249e-05
7.1134e-06
4.24606e-05
1.23723e-06
5.11436e-05
-4.6389e-06
5.60286e-05
-9.83075e-06
5.73145e-05
-1.33439e-05
5.52102e-05
-6.2848e-06
5.86965e-05
-1.10402e-06
5.846e-05
4.61355e-05
-3.85328e-05
0.000142194
-4.24708e-05
8.26844e-05
-3.82295e-05
3.70758e-05
-3.55039e-05
2.59271e-05
-2.69834e-05
3.18845e-05
-1.73794e-05
4.61959e-05
-1.16676e-05
5.78056e-05
-9.87608e-06
6.63569e-05
-8.17722e-06
7.19204e-05
-1.04549e-05
5.62736e-05
-8.48816e-06
3.56523e-05
1.54499e-06
5.85896e-05
5.37485e-06
6.65212e-05
9.97942e-06
6.05656e-05
1.69974e-05
3.531e-05
1.388e-05
1.74436e-05
1.27255e-05
2.03556e-05
1.50958e-05
2.64943e-05
1.60547e-05
2.92544e-05
1.45538e-05
2.95957e-05
1.11732e-05
3.16394e-05
7.36754e-06
3.73358e-05
3.05525e-06
4.67793e-05
-2.563e-06
5.67743e-05
-7.51334e-06
6.10035e-05
-1.18007e-05
6.16353e-05
-1.59646e-05
5.94099e-05
-1.22934e-05
5.50614e-05
-3.82636e-06
5.0009e-05
4.23186e-05
-2.50607e-05
0.000167312
-3.52258e-05
9.28799e-05
-3.7904e-05
3.97673e-05
-4.08108e-05
2.88432e-05
-3.79521e-05
2.90349e-05
-2.7299e-05
3.55519e-05
-1.71836e-05
4.76995e-05
-1.17733e-05
6.09561e-05
-8.96115e-06
6.91282e-05
-7.97465e-06
5.53343e-05
-5.99959e-06
3.37137e-05
7.75897e-06
4.48619e-05
1.71718e-05
5.71205e-05
2.60118e-05
5.17421e-05
2.91957e-05
3.21402e-05
2.45186e-05
2.21291e-05
2.12286e-05
2.36534e-05
1.94902e-05
2.82453e-05
1.72501e-05
3.15097e-05
1.31389e-05
3.37219e-05
8.19167e-06
3.66001e-05
3.38128e-06
4.21585e-05
-1.08123e-06
5.12571e-05
-6.91843e-06
6.26286e-05
-9.48154e-06
6.35969e-05
-1.11226e-05
6.33134e-05
-1.32627e-05
6.15917e-05
-1.22955e-05
5.413e-05
-5.61942e-06
4.33528e-05
3.67109e-05
-1.11066e-05
0.000178484
-2.72304e-05
0.000109038
-3.41788e-05
4.67293e-05
-3.83832e-05
3.3059e-05
-3.89061e-05
2.95702e-05
-3.38288e-05
3.04878e-05
-2.37015e-05
3.75876e-05
-1.33142e-05
5.05904e-05
-6.54911e-06
6.2397e-05
-6.16851e-07
4.94589e-05
6.08158e-07
3.25325e-05
9.93616e-06
3.55969e-05
2.33077e-05
4.38085e-05
3.38071e-05
4.12886e-05
3.44934e-05
3.14851e-05
3.04585e-05
2.61826e-05
2.66744e-05
2.74537e-05
2.36496e-05
3.12876e-05
2.05693e-05
3.46063e-05
1.4221e-05
4.00853e-05
6.66532e-06
4.41635e-05
4.50683e-08
4.87794e-05
-7.03854e-06
5.83451e-05
-1.21383e-05
6.77524e-05
-1.14712e-05
6.29555e-05
-7.80771e-06
5.96828e-05
-1.00768e-05
6.39025e-05
-1.17718e-05
5.58599e-05
-5.58455e-06
3.71826e-05
3.11364e-05
-3.5866e-06
0.000182136
-1.71587e-05
0.000122646
-2.41508e-05
5.37335e-05
-2.77628e-05
3.66803e-05
-2.90119e-05
3.08307e-05
-2.80446e-05
2.95351e-05
-2.33808e-05
3.29436e-05
-1.38201e-05
4.10583e-05
-1.28122e-06
4.99002e-05
7.33391e-06
4.08999e-05
7.59413e-06
3.23201e-05
1.14649e-05
3.17873e-05
2.25906e-05
3.27458e-05
3.26213e-05
3.13037e-05
3.49876e-05
2.91521e-05
3.26536e-05
2.85418e-05
3.03011e-05
2.98278e-05
2.55682e-05
3.60391e-05
2.03812e-05
3.98093e-05
1.07453e-05
4.97342e-05
2.17462e-06
5.27427e-05
-1.23039e-06
5.21884e-05
-5.90842e-06
6.3029e-05
-1.1268e-05
7.31341e-05
-1.05634e-05
6.2264e-05
-3.74347e-06
5.28802e-05
-5.49972e-06
6.56886e-05
-1.35495e-05
6.3938e-05
-7.01011e-06
3.06485e-05
2.41304e-05
4.25244e-06
0.000177947
-1.62502e-06
0.000128559
-8.57351e-06
6.06925e-05
-1.21098e-05
4.02224e-05
-1.5178e-05
3.39076e-05
-1.7617e-05
3.1989e-05
-1.70937e-05
3.24418e-05
-1.06192e-05
3.46127e-05
2.08897e-06
3.72299e-05
8.97818e-06
3.40503e-05
1.1029e-05
3.03051e-05
1.52119e-05
2.76422e-05
2.25997e-05
2.53948e-05
2.98166e-05
2.41174e-05
3.36918e-05
2.53048e-05
3.20913e-05
3.01648e-05
2.69129e-05
3.50228e-05
1.612e-05
4.68423e-05
6.61465e-06
4.93194e-05
9.73421e-07
5.53774e-05
-3.74574e-06
5.74634e-05
-3.7939e-06
5.22383e-05
-2.98522e-06
6.22255e-05
-4.71574e-07
7.06285e-05
-1.80518e-06
6.36069e-05
-4.52458e-06
5.56111e-05
-6.31762e-06
6.75038e-05
-1.15128e-05
6.91524e-05
-7.90313e-06
2.70393e-05
1.62231e-05
1.51402e-05
0.000162869
1.90262e-05
0.000124713
1.22534e-05
6.74799e-05
5.69951e-06
4.67846e-05
-1.88047e-06
4.14976e-05
-8.70199e-06
3.88276e-05
-1.05179e-05
3.42808e-05
-6.92248e-06
3.10439e-05
5.07772e-07
2.98292e-05
6.04836e-06
2.85387e-05
1.08384e-05
2.55393e-05
1.65213e-05
2.19808e-05
2.29041e-05
1.90322e-05
2.90407e-05
1.80001e-05
3.06848e-05
2.3677e-05
1.96782e-05
4.1184e-05
5.31647e-06
4.93882e-05
-5.05516e-06
5.72125e-05
-1.17221e-05
5.59829e-05
-9.92283e-06
5.35748e-05
-6.25575e-06
5.37933e-05
-1.61286e-06
4.75924e-05
1.96934e-06
5.86426e-05
7.47914e-06
6.51194e-05
7.64925e-06
6.34384e-05
5.41857e-07
6.27203e-05
1.4832e-06
6.65667e-05
2.06334e-06
6.85766e-05
-1.18283e-05
4.09287e-05
4.38477e-06
2.30074e-05
0.000139926
3.33306e-05
0.000114438
3.28053e-05
6.80289e-05
2.41303e-05
5.54719e-05
1.05602e-05
5.50776e-05
-1.46812e-06
5.0869e-05
-6.69987e-06
3.9529e-05
-5.00036e-06
2.93624e-05
6.14976e-07
2.42335e-05
5.04797e-06
2.41256e-05
9.65596e-06
2.09463e-05
1.52631e-05
1.63844e-05
2.12156e-05
1.30886e-05
2.54182e-05
1.3803e-05
1.21223e-05
3.6978e-05
-8.10287e-06
6.14094e-05
-2.24073e-05
6.36893e-05
-2.18911e-05
5.66919e-05
-1.73877e-05
5.14738e-05
-1.15317e-05
4.77124e-05
-1.80436e-06
4.40598e-05
4.69792e-06
4.10843e-05
7.40558e-06
5.59318e-05
9.16954e-06
6.3354e-05
8.26939e-06
6.43376e-05
5.416e-06
6.55722e-05
5.56994e-06
6.64115e-05
8.53349e-06
6.56115e-05
-4.5392e-06
5.39981e-05
-1.65351e-07
2.48286e-05
0.000115151
4.30459e-05
9.62616e-05
3.80833e-05
7.30111e-05
2.91798e-05
6.43822e-05
1.94887e-05
6.47704e-05
1.12081e-05
5.91505e-05
6.35116e-06
4.4387e-05
5.1947e-06
3.05231e-05
7.13493e-06
2.22986e-05
6.60455e-06
2.46624e-05
8.28616e-06
1.92684e-05
1.20491e-05
1.26212e-05
1.41222e-05
1.10123e-05
2.27017e-06
2.56523e-05
-2.5626e-05
6.48727e-05
-3.54131e-05
7.11948e-05
-3.50011e-05
6.32739e-05
-2.97157e-05
5.1401e-05
-2.21777e-05
4.39288e-05
-1.04586e-05
3.59851e-05
4.08491e-06
2.95078e-05
1.15369e-05
3.36248e-05
1.25211e-05
5.49433e-05
1.17217e-05
6.41509e-05
9.38955e-06
6.66673e-05
6.73551e-06
6.82238e-05
4.55006e-06
6.85941e-05
2.28225e-06
6.78767e-05
-4.96514e-06
6.12424e-05
-5.14135e-06
2.07704e-05
9.44077e-05
3.87523e-05
7.82954e-05
3.44854e-05
7.72796e-05
2.57515e-05
7.31114e-05
2.66471e-05
6.38683e-05
3.3305e-05
5.24855e-05
3.70222e-05
4.06625e-05
3.32912e-05
3.42476e-05
2.53802e-05
3.02038e-05
1.74302e-05
3.2609e-05
1.17444e-05
2.49506e-05
5.99536e-06
1.83652e-05
-7.40382e-06
2.44055e-05
-3.44272e-05
5.26693e-05
-4.50976e-05
7.55403e-05
-4.7665e-05
7.37604e-05
-4.58177e-05
6.14237e-05
-3.64868e-05
4.20641e-05
-2.24382e-05
2.98719e-05
-5.77491e-06
1.93119e-05
8.86009e-06
1.48625e-05
1.73721e-05
2.51039e-05
1.8078e-05
5.42323e-05
1.45394e-05
6.76862e-05
1.01461e-05
7.10575e-05
6.04576e-06
7.23211e-05
2.66426e-06
7.1973e-05
-4.95315e-07
7.10336e-05
-6.6275e-06
6.73723e-05
-1.17804e-05
8.97438e-06
8.54319e-05
8.80172e-06
7.84626e-05
1.32944e-05
7.27804e-05
2.13139e-05
6.50832e-05
3.29331e-05
5.22396e-05
4.77622e-05
3.76467e-05
6.04947e-05
2.79213e-05
6.54348e-05
2.93004e-05
5.72585e-05
3.83739e-05
4.32829e-05
4.6578e-05
2.42075e-05
4.40174e-05
1.45552e-06
4.11081e-05
-2.29558e-05
4.88115e-05
-4.06659e-05
7.03741e-05
-4.63123e-05
8.11825e-05
-5.37435e-05
8.11902e-05
-5.11673e-05
5.88453e-05
-3.33944e-05
2.42847e-05
-1.51523e-05
1.16204e-05
-9.59564e-07
5.10819e-06
9.76517e-06
4.12669e-06
1.95138e-05
1.53456e-05
2.29017e-05
5.08391e-05
1.70189e-05
7.35662e-05
1.0732e-05
7.73418e-05
5.43579e-06
7.76151e-05
1.47502e-06
7.59316e-05
-1.22225e-06
7.37286e-05
-5.85919e-06
7.20069e-05
-1.76518e-05
4.54295e-07
8.49686e-05
4.0819e-06
7.48257e-05
1.33525e-05
6.35003e-05
2.58887e-05
5.25372e-05
3.8554e-05
3.95642e-05
5.07302e-05
2.54606e-05
6.17432e-05
1.68993e-05
6.85764e-05
2.246e-05
6.38536e-05
4.30915e-05
4.84918e-05
6.19347e-05
2.92889e-05
6.32135e-05
7.26415e-06
6.31255e-05
-1.39154e-05
6.99877e-05
-2.66358e-05
8.30918e-05
-3.69952e-05
9.15375e-05
-4.82152e-05
9.24094e-05
-4.07701e-05
5.13987e-05
-2.06244e-05
4.13148e-06
-7.50881e-06
-1.50529e-06
9.25831e-07
-3.33756e-06
7.37053e-06
-2.3292e-06
1.63665e-05
6.33957e-06
2.42805e-05
4.29193e-05
1.81395e-05
7.97055e-05
1.10071e-05
8.44725e-05
4.85731e-06
8.37633e-05
1.09457e-07
8.06777e-05
-2.0231e-06
7.58587e-05
-2.85863e-06
7.28392e-05
-2.0523e-05
4.76205e-06
8.01972e-05
1.17279e-05
6.78502e-05
2.0651e-05
5.45674e-05
3.10504e-05
4.21278e-05
4.08223e-05
2.97821e-05
5.04062e-05
1.58668e-05
5.886e-05
8.43693e-06
6.46331e-05
1.66807e-05
6.21283e-05
4.55936e-05
4.67759e-05
7.72857e-05
3.04663e-05
7.95198e-05
1.38302e-05
7.97577e-05
-4.69269e-07
8.42863e-05
-1.11834e-05
9.38089e-05
-2.10625e-05
0.000101415
-3.02199e-05
0.000101567
-2.44653e-05
4.5642e-05
-1.07687e-05
-9.57386e-06
-3.18319e-06
-9.10104e-06
1.21726e-06
-7.74875e-06
3.79598e-06
-4.91863e-06
9.09447e-06
1.03091e-06
2.03303e-05
3.16768e-05
1.77032e-05
8.23312e-05
1.08966e-05
9.12781e-05
3.6679e-06
9.09911e-05
-2.66371e-06
8.70076e-05
-5.33422e-06
7.85256e-05
3.26455e-07
6.71729e-05
-2.0209e-05
8.57355e-06
7.16149e-05
1.67496e-05
5.96648e-05
2.50484e-05
4.62589e-05
3.30938e-05
3.40724e-05
4.1566e-05
2.13e-05
4.95531e-05
7.8704e-06
5.56883e-05
2.29423e-06
5.9773e-05
1.25914e-05
5.62106e-05
4.9156e-05
4.30423e-05
9.0456e-05
3.0104e-05
9.24585e-05
1.82502e-05
9.16112e-05
8.28878e-06
9.42492e-05
1.26159e-06
0.000100844
-4.26607e-06
0.000106948
-8.84166e-06
0.000106146
-1.09288e-05
4.77266e-05
-5.05885e-06
-1.54538e-05
-5.358e-07
-1.36345e-05
1.52995e-06
-9.8248e-06
1.22425e-06
-4.62282e-06
1.20668e-06
1.03885e-06
1.16062e-05
2.12692e-05
1.66422e-05
7.7293e-05
9.71319e-06
9.8207e-05
1.09961e-06
9.96045e-05
-6.28593e-06
9.43914e-05
-1.21688e-05
8.44039e-05
3.5285e-06
5.14675e-05
-1.66925e-05
9.49547e-06
6.21112e-05
1.76437e-05
5.15076e-05
2.5045e-05
3.8848e-05
3.29196e-05
2.61881e-05
4.1105e-05
1.31052e-05
4.69866e-05
1.98051e-06
5.13133e-05
-2.03861e-06
5.40777e-05
9.8239e-06
4.64877e-05
5.67484e-05
3.67749e-05
0.000100173
2.80419e-05
0.000101195
2.00372e-05
9.96184e-05
1.37584e-05
0.000100531
1.00692e-05
0.000104542
7.86035e-06
0.000109167
6.7629e-06
0.000107252
-3.58693e-07
5.48461e-05
3.14561e-07
-1.6138e-05
2.45412e-06
-1.57848e-05
2.49641e-06
-9.87714e-06
2.72611e-07
-2.40822e-06
-3.83435e-06
5.13719e-06
-1.20063e-06
1.86276e-05
1.07729e-05
6.53171e-05
7.08505e-06
0.000101897
-1.64756e-06
0.00010834
-8.21382e-06
0.000100958
-9.15002e-06
8.53371e-05
7.77251e-06
3.4537e-05
-8.93131e-06
8.54453e-06
5.35589e-05
1.64466e-05
4.35973e-05
2.41104e-05
3.11752e-05
3.21872e-05
1.81021e-05
3.8663e-05
6.6207e-06
4.28098e-05
-2.17342e-06
4.58839e-05
-5.11764e-06
4.70578e-05
8.64775e-06
3.42605e-05
6.95501e-05
2.91341e-05
0.000105305
2.44298e-05
0.000105904
1.98909e-05
0.000104161
1.63045e-05
0.000104122
1.43495e-05
0.000106504
1.41018e-05
0.000109425
1.4195e-05
0.000107169
6.95836e-06
6.20821e-05
3.93649e-06
-1.31271e-05
3.50082e-06
-1.53597e-05
2.12105e-06
-8.50734e-06
-1.1873e-06
8.91443e-07
-6.49259e-06
1.04355e-05
-1.06455e-05
2.27754e-05
-1.13274e-06
5.58062e-05
4.02543e-06
9.67485e-05
-1.61177e-07
0.00011254
-2.79747e-06
0.000103606
3.21364e-06
7.93323e-05
1.01153e-05
2.76315e-05
1.17359e-06
8.04207e-06
4.55098e-05
1.5604e-05
3.6028e-05
2.34131e-05
2.33577e-05
2.99014e-05
1.16054e-05
3.45272e-05
1.98699e-06
3.75034e-05
-5.15598e-06
3.99439e-05
-7.56255e-06
3.98643e-05
8.72472e-06
2.39117e-05
8.55074e-05
2.21394e-05
0.000107084
2.02126e-05
0.000107837
1.79851e-05
0.000106394
1.6011e-05
0.000106101
1.49398e-05
0.000107582
1.53052e-05
0.000109069
1.56997e-05
0.000106785
1.25907e-05
6.51916e-05
7.15126e-06
-7.69814e-06
5.09856e-06
-1.33171e-05
2.26388e-06
-5.68221e-06
-2.70842e-06
5.85638e-06
-8.78155e-06
1.65047e-05
-1.30866e-05
2.70802e-05
-6.862e-06
4.95912e-05
3.2284e-06
8.66833e-05
4.1665e-06
0.000111636
4.13309e-06
0.000103673
8.66607e-06
7.48243e-05
8.45426e-06
2.78447e-05
9.62094e-06
8.05964e-06
3.7444e-05
1.53952e-05
2.86856e-05
2.1752e-05
1.69932e-05
2.63671e-05
6.98256e-06
2.91893e-05
-8.42461e-07
3.09923e-05
-6.96511e-06
3.27297e-05
-9.30507e-06
3.05809e-05
1.08694e-05
1.85798e-05
9.7513e-05
1.69553e-05
0.000108714
1.59587e-05
0.000108839
1.50761e-05
0.000107282
1.43709e-05
0.000106812
1.44194e-05
0.00010754
1.53102e-05
0.000108187
1.7417e-05
0.000104686
2.08021e-05
6.18071e-05
1.32689e-05
-1.73448e-07
8.60606e-06
-8.66273e-06
3.97063e-06
-1.05539e-06
-3.48259e-06
1.33033e-05
-9.69075e-06
2.271e-05
-1.16069e-05
2.89987e-05
-7.90968e-06
4.59045e-05
-6.47644e-07
7.94499e-05
7.43038e-06
0.000103598
1.43305e-05
9.68089e-05
1.54551e-05
7.37255e-05
6.12494e-06
3.71791e-05
1.57385e-05
7.63306e-06
2.98056e-05
1.41575e-05
2.2155e-05
1.90625e-05
1.20812e-05
2.20586e-05
3.97921e-06
2.34773e-05
-2.26827e-06
2.40444e-05
-7.5387e-06
2.46119e-05
-9.87885e-06
1.98369e-05
1.56395e-05
1.37547e-05
0.0001036
1.19156e-05
0.000110559
1.18737e-05
0.000108887
1.19514e-05
0.000107209
1.20238e-05
0.000106745
1.27188e-05
0.000106851
1.4908e-05
0.000106005
2.47425e-05
9.48582e-05
3.56828e-05
5.08686e-05
2.49098e-05
1.05984e-05
1.20047e-05
4.23923e-06
1.37524e-06
9.56787e-06
-5.73409e-06
2.04058e-05
-9.35538e-06
2.63252e-05
-1.30425e-05
3.26819e-05
-1.4434e-05
4.72989e-05
-7.3831e-06
7.24136e-05
8.52118e-06
8.77146e-05
2.19109e-05
8.34367e-05
2.64223e-05
6.92238e-05
1.33683e-05
5.02308e-05
2.90978e-05
6.86092e-06
2.294e-05
1.2209e-05
1.68014e-05
1.57271e-05
8.55647e-06
1.74828e-05
2.21638e-06
1.80543e-05
-2.8471e-06
1.77555e-05
-7.24699e-06
1.72345e-05
-9.36486e-06
9.82582e-06
2.30437e-05
6.45213e-06
0.00010698
6.04649e-06
0.000110971
7.00026e-06
0.000107939
7.1284e-06
0.000107086
7.79734e-06
0.00010608
9.86591e-06
0.000104787
1.62232e-05
9.9653e-05
3.70911e-05
7.39941e-05
5.09322e-05
3.70338e-05
4.17306e-05
1.98076e-05
2.76302e-05
1.8339e-05
1.4394e-05
2.27953e-05
6.16981e-06
2.86195e-05
-8.48956e-07
3.33331e-05
-8.45669e-06
4.02793e-05
-1.21365e-05
5.09711e-05
-4.71956e-06
6.49934e-05
9.92783e-06
7.30667e-05
2.09432e-05
7.24202e-05
2.36285e-05
6.65346e-05
1.5591e-05
5.82609e-05
4.46787e-05
5.77845e-06
1.71568e-05
9.81365e-06
1.27606e-05
1.21134e-05
6.24999e-06
1.3003e-05
1.31928e-06
1.31083e-05
-2.9601e-06
1.25703e-05
-6.71662e-06
1.08824e-05
-7.68423e-06
-1.49553e-06
3.54184e-05
-2.15973e-06
0.00010765
-7.50384e-07
0.000109567
1.0795e-07
0.000107085
1.04129e-06
0.000106157
3.25534e-06
0.00010387
7.2486e-06
0.000100798
2.03941e-05
8.65101e-05
4.47973e-05
4.95936e-05
5.53257e-05
2.65135e-05
4.98132e-05
2.53259e-05
3.31552e-05
3.49919e-05
1.96196e-05
3.63203e-05
1.11266e-05
3.71012e-05
4.7736e-06
3.96743e-05
2.37215e-07
4.48042e-05
-1.14364e-06
5.23416e-05
2.7263e-06
6.11143e-05
9.32279e-06
6.64625e-05
1.44559e-05
6.728e-05
1.50974e-05
6.58851e-05
9.84137e-06
6.35078e-05
5.45098e-05
4.45855e-06
1.26926e-05
7.19457e-06
1.00183e-05
8.52769e-06
4.90952e-06
8.8085e-06
1.03049e-06
8.4648e-06
-2.62463e-06
8.02084e-06
-6.28074e-06
4.51757e-06
-4.18842e-06
-1.35397e-05
5.34732e-05
-1.10417e-05
0.000105158
-8.63607e-06
0.000107166
-7.02459e-06
0.000105478
-4.58474e-06
0.000103721
-5.61883e-07
9.98504e-05
5.76389e-06
9.44749e-05
2.44411e-05
6.78332e-05
4.11613e-05
3.28749e-05
4.56315e-05
2.20466e-05
3.6539e-05
3.44162e-05
2.65185e-05
4.50035e-05
1.88225e-05
4.40054e-05
1.30969e-05
4.28152e-05
9.14621e-06
4.36132e-05
6.86794e-06
4.7071e-05
6.24896e-06
5.29494e-05
8.09556e-06
5.92573e-05
1.02853e-05
6.42636e-05
1.17167e-05
6.58395e-05
1.07164e-05
6.68758e-05
7.00428e-06
6.721e-05
6.1504e-05
3.04155e-06
9.64428e-06
4.63078e-06
8.42196e-06
5.18704e-06
4.34519e-06
4.9162e-06
1.29279e-06
3.91292e-06
-1.63001e-06
3.10135e-06
-5.47758e-06
-4.3627e-06
3.26792e-06
-2.16047e-05
7.07133e-05
-1.90462e-05
0.000102603
-1.62029e-05
0.000104327
-1.34843e-05
0.000102763
-9.28617e-06
9.95252e-05
-3.99577e-06
9.45613e-05
6.82376e-06
8.36554e-05
2.53138e-05
4.93417e-05
3.37695e-05
2.44185e-05
3.23741e-05
2.34396e-05
2.52597e-05
4.1523e-05
2.05913e-05
4.96617e-05
1.66876e-05
4.78979e-05
1.35981e-05
4.5893e-05
1.17566e-05
4.54428e-05
1.11249e-05
4.76909e-05
1.11828e-05
5.288e-05
1.17298e-05
5.86999e-05
1.19608e-05
6.40228e-05
1.11213e-05
6.66688e-05
9.19623e-06
6.8791e-05
6.22232e-06
7.01742e-05
6.77162e-05
1.62283e-06
8.01357e-06
2.36338e-06
7.67336e-06
2.27622e-06
4.42363e-06
1.43604e-06
2.12403e-06
-1.53045e-07
-4.9847e-08
-2.05804e-06
-3.58114e-06
-1.31981e-05
1.44004e-05
-2.55733e-05
8.30877e-05
-2.53188e-05
0.000102352
-2.32473e-05
0.000102258
-1.95198e-05
9.90375e-05
-1.41957e-05
9.42018e-05
-7.13584e-06
8.75008e-05
8.94147e-06
6.75758e-05
2.18452e-05
3.64345e-05
2.43918e-05
2.18679e-05
1.94503e-05
2.83741e-05
1.63233e-05
4.464e-05
1.54918e-05
5.04824e-05
1.39648e-05
4.94136e-05
1.24174e-05
4.74286e-05
1.18782e-05
4.597e-05
1.2993e-05
4.65642e-05
1.44755e-05
5.1386e-05
1.49079e-05
5.82566e-05
1.40063e-05
6.49139e-05
1.1661e-05
6.90037e-05
8.86712e-06
7.15746e-05
5.52884e-06
7.35023e-05
7.32347e-05
3.62952e-07
7.64194e-06
5.84502e-07
7.443e-06
-2.99389e-08
5.0289e-06
-1.34581e-06
3.4307e-06
-3.11758e-06
1.71284e-06
-5.82912e-06
-8.78159e-07
-1.98946e-05
2.84593e-05
-2.94202e-05
9.26143e-05
-3.12507e-05
0.000104185
-2.99221e-05
0.000100931
-2.60298e-05
9.51459e-05
-1.9764e-05
8.79351e-05
-8.1812e-06
7.59153e-05
8.7483e-06
5.0642e-05
1.53442e-05
2.98332e-05
1.38786e-05
2.33266e-05
9.69796e-06
3.25452e-05
9.37577e-06
4.49513e-05
1.03891e-05
4.9458e-05
1.04554e-05
4.9336e-05
9.57279e-06
4.82997e-05
8.78786e-06
4.67432e-05
1.02963e-05
4.50439e-05
1.36966e-05
4.79739e-05
1.63876e-05
5.55542e-05
1.57029e-05
6.55878e-05
1.27177e-05
7.19785e-05
9.11329e-06
7.51684e-05
4.92774e-06
7.76771e-05
7.81519e-05
-5.86499e-07
8.21927e-06
-7.26488e-07
7.57365e-06
-1.81822e-06
6.11112e-06
-3.61561e-06
5.21873e-06
-5.61665e-06
3.70476e-06
-9.86135e-06
3.35828e-06
-2.64747e-05
4.50676e-05
-3.57414e-05
0.000101883
-3.82817e-05
0.000106728
-3.70565e-05
9.97076e-05
-3.26976e-05
9.07867e-05
-2.31477e-05
7.83827e-05
-6.36009e-06
5.91233e-05
5.10725e-06
3.91687e-05
6.81589e-06
2.81175e-05
3.56558e-06
2.6568e-05
1.88019e-06
3.422e-05
4.67125e-06
4.21491e-05
7.06592e-06
4.70522e-05
7.30372e-06
4.90871e-05
6.46983e-06
4.91224e-05
5.55055e-06
4.76511e-05
5.95305e-06
4.46298e-05
9.16336e-06
4.4752e-05
1.33711e-05
5.1335e-05
1.53789e-05
6.35689e-05
1.36627e-05
7.36842e-05
9.83096e-06
7.89897e-05
5.09598e-06
8.24017e-05
8.32371e-05
-9.54654e-07
9.16437e-06
-1.64168e-06
8.25095e-06
-3.15979e-06
7.61947e-06
-5.30343e-06
7.35291e-06
-8.20007e-06
6.59246e-06
-1.71096e-05
1.22602e-05
-3.5503e-05
6.3458e-05
-4.39017e-05
0.000110286
-4.56676e-05
0.000108497
-4.3255e-05
9.72964e-05
-3.47557e-05
8.22864e-05
-1.90059e-05
6.26293e-05
-4.37227e-06
4.44841e-05
9.46498e-08
3.46953e-05
-1.7733e-06
2.99777e-05
-5.63331e-06
3.04186e-05
-5.82502e-06
3.4401e-05
-1.8295e-06
3.81425e-05
2.37746e-06
4.28343e-05
3.9813e-06
4.74724e-05
3.35378e-06
4.97391e-05
1.99206e-06
4.90017e-05
7.97309e-07
4.58132e-05
2.29971e-06
4.3238e-05
6.37764e-06
4.72455e-05
1.07059e-05
5.92293e-05
1.27057e-05
7.16734e-05
1.07818e-05
8.09031e-05
5.6913e-06
8.74821e-05
8.89181e-05
-1.04848e-06
1.02028e-05
-2.35624e-06
9.54854e-06
-4.26085e-06
9.51402e-06
-6.74249e-06
9.82495e-06
-1.07553e-05
1.05966e-05
-2.68051e-05
2.83039e-05
-4.56498e-05
8.23033e-05
-5.15419e-05
0.000116183
-4.99108e-05
0.00010687
-4.12837e-05
8.86704e-05
-2.449e-05
6.54906e-05
-9.15814e-06
4.72932e-05
-3.01108e-06
3.83319e-05
-3.52517e-06
3.52036e-05
-7.26662e-06
3.37123e-05
-1.11859e-05
3.43295e-05
-1.17887e-05
3.49945e-05
-9.3034e-06
3.56471e-05
-5.2578e-06
3.87781e-05
-1.60708e-06
4.3811e-05
-1.19237e-07
4.82406e-05
-1.04621e-06
4.99181e-05
-3.49038e-06
4.82465e-05
-5.13304e-06
4.48693e-05
-3.07302e-06
4.51739e-05
2.01433e-06
5.41304e-05
7.68145e-06
6.59948e-05
1.04848e-05
7.80887e-05
6.58844e-06
9.13683e-05
9.54969e-05
-1.34574e-06
1.1538e-05
-3.23989e-06
1.14322e-05
-5.67253e-06
1.19365e-05
-9.09627e-06
1.32394e-05
-1.7591e-05
1.90837e-05
-4.02704e-05
5.09812e-05
-5.62073e-05
9.82466e-05
-5.44887e-05
0.000114473
-4.32863e-05
9.56717e-05
-2.4279e-05
6.96632e-05
-8.20433e-06
4.94133e-05
-1.99107e-06
4.10771e-05
-1.83389e-06
3.81718e-05
-3.99004e-06
3.73561e-05
-7.25097e-06
3.69686e-05
-1.02077e-05
3.72809e-05
-1.23989e-05
3.71793e-05
-1.35937e-05
3.68342e-05
-1.22199e-05
3.73951e-05
-8.5299e-06
4.01109e-05
-5.19033e-06
4.48907e-05
-4.52944e-06
4.92469e-05
-7.15063e-06
5.08573e-05
-1.11786e-05
4.88865e-05
-1.27424e-05
4.67263e-05
-8.82949e-06
5.02059e-05
-9.63708e-07
5.81173e-05
6.47206e-06
7.06416e-05
6.78397e-06
9.10459e-05
0.000102271
-1.80429e-06
1.33314e-05
-4.3106e-06
1.39277e-05
-7.5613e-06
1.5177e-05
-1.33842e-05
1.90537e-05
-3.19675e-05
3.76631e-05
-5.49812e-05
7.40013e-05
-5.97431e-05
0.000103023
-4.3768e-05
9.85093e-05
-2.19844e-05
7.38921e-05
-5.30605e-06
5.29849e-05
4.67093e-07
4.36403e-05
4.63502e-07
4.10803e-05
-1.44272e-06
4.00771e-05
-3.67073e-06
3.95823e-05
-6.03777e-06
3.9333e-05
-8.1102e-06
3.93502e-05
-1.0209e-05
3.92742e-05
-1.25082e-05
3.91286e-05
-1.42677e-05
3.91486e-05
-1.39636e-05
3.9799e-05
-1.10385e-05
4.19563e-05
-8.61418e-06
4.68129e-05
-1.01073e-05
5.23407e-05
-1.51255e-05
5.38949e-05
-1.92592e-05
5.08496e-05
-1.84024e-05
4.93382e-05
-1.16413e-05
5.13449e-05
-1.88993e-06
6.08789e-05
3.62292e-06
8.55228e-05
0.000105885
-2.22692e-06
1.55472e-05
-5.29084e-06
1.69809e-05
-1.04715e-05
2.03478e-05
-2.51757e-05
3.37523e-05
-4.74023e-05
5.98941e-05
-5.82183e-05
8.48344e-05
-4.57903e-05
9.06138e-05
-2.07373e-05
7.3467e-05
-3.295e-06
5.64544e-05
2.78875e-06
4.6905e-05
2.48637e-06
4.39458e-05
7.86741e-07
4.27822e-05
-1.24778e-06
4.21124e-05
-3.33566e-06
4.16698e-05
-5.37566e-06
4.13718e-05
-7.22993e-06
4.12028e-05
-9.04093e-06
4.10832e-05
-1.09424e-05
4.10276e-05
-1.29344e-05
4.11373e-05
-1.46367e-05
4.14967e-05
-1.49914e-05
4.23045e-05
-1.31706e-05
4.49837e-05
-1.26745e-05
5.18359e-05
-1.67698e-05
5.79819e-05
-2.16778e-05
5.5749e-05
-2.26896e-05
5.03408e-05
-1.98098e-05
4.84552e-05
-1.16212e-05
5.26796e-05
-2.88335e-06
7.67754e-05
0.000102994
-2.80557e-06
1.83419e-05
-6.39624e-06
2.05614e-05
-1.78899e-05
3.18341e-05
-3.6801e-05
5.26638e-05
-4.81128e-05
7.12191e-05
-4.22974e-05
7.90398e-05
-2.07141e-05
6.90468e-05
-3.33538e-06
5.60978e-05
3.66055e-06
4.94658e-05
3.97508e-06
4.65973e-05
2.62787e-06
4.52985e-05
8.3181e-07
4.45819e-05
-1.13975e-06
4.40859e-05
-3.15188e-06
4.36826e-05
-5.11646e-06
4.33362e-05
-6.95977e-06
4.30454e-05
-8.6981e-06
4.28205e-05
-1.03761e-05
4.27044e-05
-1.20222e-05
4.27821e-05
-1.36675e-05
4.31401e-05
-1.52715e-05
4.39052e-05
-1.5813e-05
4.552e-05
-1.48593e-05
5.08756e-05
-1.64508e-05
5.95674e-05
-2.00828e-05
5.93749e-05
-2.14578e-05
5.1709e-05
-2.14766e-05
4.84666e-05
-1.82034e-05
4.93983e-05
-9.14894e-06
6.7714e-05
9.38412e-05
-5.26628e-06
2.35976e-05
-1.11219e-05
2.64087e-05
-2.56915e-05
4.64018e-05
-3.55306e-05
6.25095e-05
-3.43754e-05
7.0079e-05
-1.93305e-05
6.40101e-05
-3.84128e-06
5.35678e-05
2.79164e-06
4.94725e-05
4.35522e-06
4.79108e-05
3.86549e-06
4.70947e-05
2.54342e-06
4.66264e-05
8.26763e-07
4.63026e-05
-1.09433e-06
4.60096e-05
-3.09972e-06
4.56895e-05
-5.08751e-06
4.53246e-05
-6.97474e-06
4.49327e-05
-8.71872e-06
4.45642e-05
-1.03126e-05
4.42978e-05
-1.17712e-05
4.42403e-05
-1.31588e-05
4.45273e-05
-1.4574e-05
4.53199e-05
-1.59581e-05
4.69023e-05
-1.58477e-05
5.07624e-05
-1.51237e-05
5.88407e-05
-1.58046e-05
6.00531e-05
-1.65424e-05
5.24428e-05
-1.7693e-05
4.96132e-05
-1.84902e-05
5.01919e-05
-1.3454e-05
6.26769e-05
8.03904e-05
-1.20002e-05
3.55896e-05
-2.04778e-05
3.48804e-05
-2.65785e-05
5.25053e-05
-2.63885e-05
6.23285e-05
-1.69848e-05
6.06856e-05
-3.95473e-06
5.09874e-05
2.01969e-06
4.75991e-05
4.13714e-06
4.73622e-05
4.51633e-06
4.75393e-05
3.88502e-06
4.7733e-05
2.62891e-06
4.78882e-05
9.53542e-07
4.79825e-05
-9.89789e-07
4.79563e-05
-3.07675e-06
4.77789e-05
-5.1772e-06
4.74266e-05
-7.17821e-06
4.69345e-05
-8.99173e-06
4.63779e-05
-1.05652e-05
4.58713e-05
-1.18965e-05
4.55715e-05
-1.30264e-05
4.56575e-05
-1.40696e-05
4.63637e-05
-1.51613e-05
4.79949e-05
-1.56589e-05
5.1261e-05
-1.38575e-05
5.7041e-05
-1.1462e-05
5.76588e-05
-1.12117e-05
5.21916e-05
-1.24597e-05
5.08605e-05
-1.52478e-05
5.29813e-05
-1.37001e-05
6.11369e-05
6.67034e-05
-1.19385e-05
4.75211e-05
-2.13996e-05
4.43376e-05
-2.10633e-05
5.21717e-05
-1.47226e-05
5.59936e-05
-3.37312e-06
4.93401e-05
2.26482e-06
4.53517e-05
4.30345e-06
4.55643e-05
5.08702e-06
4.65842e-05
5.04899e-06
4.75836e-05
4.34798e-06
4.84402e-05
3.08647e-06
4.91554e-05
1.3675e-06
4.97065e-05
-7.09045e-07
5.00372e-05
-2.99475e-06
5.0068e-05
-5.34219e-06
4.97766e-05
-7.55031e-06
4.91444e-05
-9.50531e-06
4.8334e-05
-1.11216e-05
4.74881e-05
-1.23612e-05