/*--------------------------------*- C++ -*----------------------------------*\
| =========                 |                                                 |
| \\      /  F ield         | OpenFOAM: The Open Source CFD Toolbox           |
|  \\    /   O peration     | Version:  2.3.0                                 |
|   \\  /    A nd           | Web:      www.OpenFOAM.org                      |
|    \\/     M anipulation  |                                                 |
\*---------------------------------------------------------------------------*/
FoamFile
{
    version     2.0;
    format      ascii;
    class       volVectorField;
    location    "1.01";
    object      U.airMean;
}
// * * * * * * * * * * * * * * * * * * * * * * * * * * * * * * * * * * * * * //

dimensions      [0 1 -1 0 0 0 0];

internalField   nonuniform List<vector> 
6000
(
(-0.00481827 0.254578 0)
(0.0204283 0.223645 0)
(0.0523977 0.232739 0)
(0.0730896 0.231401 0)
(0.0763119 0.23303 0)
(0.0565638 0.23193 0)
(0.0370903 0.216154 0)
(0.0225257 0.210544 0)
(0.0047437 0.200835 0)
(-0.00696545 0.195378 0)
(-0.00757893 0.192878 0)
(-0.00320897 0.191765 0)
(-0.0168949 0.21699 0)
(-0.0501092 0.233164 0)
(-0.0683835 0.225789 0)
(-0.0372564 0.210307 0)
(0.00568252 0.201654 0)
(0.021766 0.209792 0)
(0.00910889 0.208171 0)
(0.00567132 0.199345 0)
(0.00926605 0.198633 0)
(0.0213075 0.209861 0)
(0.0383634 0.210684 0)
(0.0501809 0.21435 0)
(0.0311331 0.231292 0)
(-0.0138531 0.236334 0)
(-0.0337069 0.222621 0)
(-0.0237013 0.232023 0)
(-0.0335375 0.237866 0)
(-0.0114267 0.259461 0)
(0.0195863 0.948283 0)
(0.0408 0.943199 0)
(0.0644027 0.946116 0)
(0.0709232 0.962006 0)
(0.0736603 0.991052 0)
(0.082924 1.01427 0)
(0.0824633 1.01232 0)
(0.0541539 1.02959 0)
(0.0148819 1.04087 0)
(-0.0138405 1.01128 0)
(-0.0166271 1.00012 0)
(-0.0186814 1.01916 0)
(-0.0308593 1.02034 0)
(-0.0463244 1.03203 0)
(-0.0540365 0.982855 0)
(-0.0389329 0.926769 0)
(-0.0188674 0.947014 0)
(-0.00698382 1.00094 0)
(0.000857451 0.997899 0)
(0.0069963 1.00085 0)
(0.0207018 0.993646 0)
(0.032739 0.980172 0)
(0.0449075 0.98513 0)
(0.0305 1.01386 0)
(-0.0115306 1.05857 0)
(-0.0511432 1.04497 0)
(-0.0623197 1.0038 0)
(-0.061483 0.982047 0)
(-0.0573819 0.997996 0)
(-0.0306227 0.900867 0)
(-0.00152907 0.794981 0)
(0.0218984 0.760572 0)
(0.0342586 0.776957 0)
(0.0365647 0.803034 0)
(0.0491655 0.815748 0)
(0.0695013 0.841477 0)
(0.0744923 0.864535 0)
(0.0446957 0.900227 0)
(0.00994896 0.902963 0)
(-0.00760851 0.84124 0)
(-0.00272773 0.82042 0)
(0.00420767 0.850392 0)
(-0.00554569 0.870972 0)
(-0.0238301 0.890056 0)
(-0.0368075 0.830579 0)
(-0.0462615 0.762838 0)
(-0.0491536 0.777923 0)
(-0.0380248 0.816082 0)
(-0.0255499 0.819957 0)
(-0.01309 0.798493 0)
(0.0120814 0.781398 0)
(0.0327559 0.791077 0)
(0.0314761 0.806839 0)
(-0.00179781 0.876996 0)
(-0.0426265 0.926245 0)
(-0.0489599 0.890767 0)
(-0.0374045 0.845519 0)
(-0.0340462 0.826199 0)
(-0.0389844 0.842532 0)
(-0.00849599 0.733985 0)
(-0.0079347 0.807889 0)
(-0.0024504 0.779063 0)
(-0.00457699 0.800146 0)
(0.0111382 0.813052 0)
(0.0320054 0.815675 0)
(0.0524743 0.840095 0)
(0.0522277 0.888323 0)
(0.0311503 0.934916 0)
(0.00977901 0.936357 0)
(0.00109262 0.864814 0)
(0.00436868 0.832257 0)
(0.0132444 0.871671 0)
(0.00708545 0.897988 0)
(-0.00990292 0.909116 0)
(-0.0309298 0.851816 0)
(-0.0491713 0.785008 0)
(-0.0496818 0.789236 0)
(-0.0419405 0.830272 0)
(-0.0332317 0.837666 0)
(-0.0148812 0.814254 0)
(0.00268074 0.80713 0)
(0.00772858 0.816867 0)
(-0.0144841 0.848595 0)
(-0.0525576 0.940952 0)
(-0.0620275 0.934863 0)
(-0.0425305 0.895158 0)
(-0.0220233 0.852765 0)
(-0.0107837 0.843371 0)
(-0.0211591 0.868168 0)
(-0.00368641 0.723387 0)
(-0.00640622 0.81572 0)
(-0.0236707 0.773189 0)
(-0.0190371 0.78025 0)
(0.00387411 0.783739 0)
(0.0229061 0.792177 0)
(0.0325931 0.831517 0)
(0.0258811 0.898016 0)
(0.0108255 0.950989 0)
(0.000752112 0.943404 0)
(-0.00162124 0.863488 0)
(-0.00034341 0.828082 0)
(0.00725046 0.862635 0)
(-0.00610775 0.903127 0)
(-0.0252278 0.917668 0)
(-0.0391101 0.864391 0)
(-0.038194 0.790944 0)
(-0.0273776 0.781479 0)
(-0.0264762 0.836198 0)
(-0.027276 0.825755 0)
(-0.0132895 0.791479 0)
(-0.00673057 0.791622 0)
(-0.0186594 0.817704 0)
(-0.0495801 0.875576 0)
(-0.071625 0.943217 0)
(-0.0635354 0.919288 0)
(-0.0469691 0.872107 0)
(-0.0273614 0.836231 0)
(-0.0137803 0.828124 0)
(-0.016394 0.869593 0)
(-0.00053543 0.700656 0)
(-0.00488539 0.823828 0)
(-0.0188232 0.773837 0)
(-0.0193495 0.762206 0)
(0.00447026 0.758743 0)
(0.00927656 0.777669 0)
(0.0096078 0.827844 0)
(0.00190117 0.901424 0)
(-0.00585695 0.953582 0)
(-0.00913267 0.942999 0)
(-0.00971213 0.868766 0)
(-0.0124775 0.828592 0)
(-0.0213697 0.868099 0)
(-0.0434239 0.926706 0)
(-0.0512288 0.922084 0)
(-0.0374308 0.852616 0)
(-0.0101359 0.772498 0)
(0.00670309 0.788225 0)
(-0.00319146 0.852276 0)
(-0.0172591 0.827725 0)
(-0.0205951 0.790424 0)
(-0.0287093 0.802209 0)
(-0.0484173 0.844276 0)
(-0.0685835 0.891892 0)
(-0.0753902 0.939182 0)
(-0.0654545 0.900579 0)
(-0.0567933 0.852982 0)
(-0.0455104 0.812568 0)
(-0.0349546 0.814483 0)
(-0.0276087 0.855879 0)
(-0.00337274 0.678615 0)
(-0.00148254 0.820575 0)
(-0.00657747 0.770115 0)
(-0.00221879 0.738876 0)
(0.00472123 0.744962 0)
(0.00381867 0.770538 0)
(-0.00544086 0.826201 0)
(-0.00887719 0.901661 0)
(-0.0109892 0.952722 0)
(-0.0163056 0.941526 0)
(-0.022047 0.867222 0)
(-0.0359179 0.835587 0)
(-0.0592286 0.881375 0)
(-0.0748492 0.927576 0)
(-0.0532288 0.899337 0)
(-0.0222646 0.824006 0)
(0.00600193 0.752493 0)
(0.0112193 0.789738 0)
(-0.00514387 0.873003 0)
(-0.0216085 0.838288 0)
(-0.03532 0.798723 0)
(-0.0478853 0.812693 0)
(-0.064959 0.853581 0)
(-0.0784844 0.89285 0)
(-0.0814177 0.920234 0)
(-0.0716855 0.883208 0)
(-0.0696596 0.83029 0)
(-0.0678249 0.791687 0)
(-0.0647599 0.788772 0)
(-0.0502477 0.82373 0)
(-0.00982705 0.644141 0)
(0.00737624 0.805525 0)
(0.0126977 0.756427 0)
(0.0135075 0.723868 0)
(0.00974501 0.738879 0)
(-0.00484565 0.772295 0)
(-0.0110395 0.825545 0)
(-0.0125456 0.893212 0)
(-0.00642774 0.950094 0)
(-0.0129661 0.943646 0)
(-0.0340292 0.87588 0)
(-0.0607814 0.850331 0)
(-0.0810893 0.89355 0)
(-0.0752186 0.905385 0)
(-0.0384517 0.87086 0)
(-0.0053196 0.799725 0)
(0.0157054 0.74522 0)
(-0.000819623 0.817142 0)
(-0.0284388 0.884148 0)
(-0.0410816 0.844968 0)
(-0.0547711 0.802897 0)
(-0.0654867 0.817981 0)
(-0.0827058 0.859833 0)
(-0.0930779 0.892522 0)
(-0.0917131 0.902086 0)
(-0.0824717 0.862332 0)
(-0.0822506 0.814944 0)
(-0.0872248 0.776035 0)
(-0.0883551 0.767807 0)
(-0.0663825 0.779436 0)
(-0.0159964 0.598632 0)
(0.0124471 0.777568 0)
(0.0250223 0.736294 0)
(0.0240436 0.706637 0)
(0.00873243 0.743193 0)
(-0.0072329 0.77495 0)
(-0.0194655 0.830098 0)
(-0.013182 0.886102 0)
(-0.00470002 0.942646 0)
(-0.00598235 0.95609 0)
(-0.042049 0.898632 0)
(-0.0738516 0.864092 0)
(-0.0739096 0.885357 0)
(-0.0541968 0.874037 0)
(-0.0181452 0.842518 0)
(0.00510281 0.776022 0)
(0.00900803 0.751808 0)
(-0.0208823 0.848188 0)
(-0.0500303 0.891627 0)
(-0.0596908 0.846564 0)
(-0.0749596 0.802979 0)
(-0.0943405 0.822729 0)
(-0.109518 0.864425 0)
(-0.110775 0.885931 0)
(-0.105042 0.880874 0)
(-0.0926081 0.847383 0)
(-0.0916137 0.798531 0)
(-0.0987688 0.766878 0)
(-0.0965847 0.736402 0)
(-0.0718583 0.732258 0)
(-0.0176863 0.546506 0)
(0.0147296 0.745451 0)
(0.0331644 0.71711 0)
(0.0302447 0.699173 0)
(0.0121191 0.746385 0)
(-0.00627096 0.778447 0)
(-0.0138439 0.831766 0)
(-0.00822526 0.878483 0)
(-0.00293541 0.932448 0)
(0.000269748 0.971715 0)
(-0.0377381 0.932663 0)
(-0.0629844 0.866217 0)
(-0.0491064 0.864001 0)
(-0.0253004 0.847192 0)
(-0.00178911 0.824733 0)
(0.00429699 0.772104 0)
(-0.0131816 0.775915 0)
(-0.048597 0.873863 0)
(-0.0671249 0.896931 0)
(-0.0778134 0.847235 0)
(-0.100524 0.815451 0)
(-0.130294 0.832934 0)
(-0.138646 0.861002 0)
(-0.131036 0.872325 0)
(-0.116501 0.864356 0)
(-0.101181 0.827646 0)
(-0.0959523 0.789322 0)
(-0.100933 0.755622 0)
(-0.0946104 0.709918 0)
(-0.0705326 0.688094 0)
(-0.0171743 0.498905 0)
(0.0153412 0.71039 0)
(0.0387501 0.696291 0)
(0.0374563 0.690745 0)
(0.0213263 0.749013 0)
(0.0027587 0.783809 0)
(-0.00562979 0.835139 0)
(-0.00173203 0.887834 0)
(0.00476264 0.924148 0)
(0.0144823 0.988991 0)
(-0.0120288 0.962386 0)
(-0.0364076 0.866111 0)
(-0.0246118 0.835836 0)
(-0.00541853 0.830742 0)
(0.00255544 0.818508 0)
(-0.0100168 0.782257 0)
(-0.044277 0.811019 0)
(-0.0790042 0.885103 0)
(-0.0852282 0.898334 0)
(-0.0986678 0.851232 0)
(-0.1276 0.839349 0)
(-0.157089 0.83984 0)
(-0.159451 0.852405 0)
(-0.140846 0.856574 0)
(-0.121571 0.841956 0)
(-0.10501 0.81277 0)
(-0.0989941 0.777295 0)
(-0.101967 0.744677 0)
(-0.0935591 0.682346 0)
(-0.0686849 0.645859 0)
(-0.0163343 0.457264 0)
(0.0154588 0.673661 0)
(0.0432127 0.67422 0)
(0.0454828 0.682959 0)
(0.0366629 0.747936 0)
(0.0176502 0.785699 0)
(0.00884436 0.836636 0)
(0.008191 0.889538 0)
(0.019918 0.915359 0)
(0.0315406 0.992139 0)
(0.0252974 0.99414 0)
(-0.00573063 0.875184 0)
(-0.0107767 0.820157 0)
(-0.00139003 0.825797 0)
(-0.00573456 0.82336 0)
(-0.0346335 0.810598 0)
(-0.0784629 0.844632 0)
(-0.105133 0.892456 0)
(-0.10286 0.892417 0)
(-0.115357 0.867868 0)
(-0.146653 0.864719 0)
(-0.164626 0.843566 0)
(-0.154051 0.837116 0)
(-0.135446 0.834552 0)
(-0.122747 0.824182 0)
(-0.110656 0.79683 0)
(-0.106817 0.772748 0)
(-0.110242 0.732433 0)
(-0.0955841 0.660592 0)
(-0.0665684 0.59986 0)
(-0.0133599 0.419328 0)
(0.0142833 0.636709 0)
(0.0447576 0.652168 0)
(0.0539939 0.666996 0)
(0.05669 0.745338 0)
(0.0385938 0.78769 0)
(0.0273671 0.838058 0)
(0.0262539 0.88828 0)
(0.0328813 0.911236 0)
(0.0411906 0.983951 0)
(0.0543066 1.0119 0)
(0.0238556 0.907654 0)
(-0.0061475 0.818296 0)
(-0.0122904 0.829048 0)
(-0.0257013 0.838746 0)
(-0.063976 0.84962 0)
(-0.107692 0.877336 0)
(-0.12136 0.892567 0)
(-0.116876 0.887716 0)
(-0.124527 0.89053 0)
(-0.150745 0.879288 0)
(-0.150629 0.838066 0)
(-0.133768 0.81681 0)
(-0.123689 0.822292 0)
(-0.122852 0.812963 0)
(-0.12193 0.792 0)
(-0.124312 0.767451 0)
(-0.126972 0.722766 0)
(-0.102142 0.631247 0)
(-0.0683773 0.554852 0)
(-0.010003 0.385691 0)
(0.0117146 0.602784 0)
(0.0442053 0.627618 0)
(0.0610437 0.644954 0)
(0.0737957 0.736542 0)
(0.0624306 0.790334 0)
(0.0499481 0.837348 0)
(0.0476085 0.886177 0)
(0.0457266 0.916369 0)
(0.0531922 0.968043 0)
(0.0689883 1.01824 0)
(0.0482879 0.945827 0)
(-0.00170654 0.845222 0)
(-0.0285479 0.839706 0)
(-0.0547528 0.861678 0)
(-0.0963913 0.893474 0)
(-0.127941 0.897377 0)
(-0.132549 0.886621 0)
(-0.121388 0.884257 0)
(-0.127166 0.908524 0)
(-0.13626 0.884839 0)
(-0.126943 0.825222 0)
(-0.112101 0.801457 0)
(-0.11263 0.82191 0)
(-0.126991 0.816397 0)
(-0.139085 0.79343 0)
(-0.149797 0.769971 0)
(-0.145349 0.70772 0)
(-0.107563 0.599414 0)
(-0.0676319 0.509129 0)
(-0.0110982 0.353674 0)
(0.00899843 0.574698 0)
(0.0372436 0.597389 0)
(0.0621937 0.616199 0)
(0.0860033 0.720445 0)
(0.0884717 0.788567 0)
(0.0753966 0.838447 0)
(0.0685945 0.886685 0)
(0.059317 0.918348 0)
(0.0678188 0.961363 0)
(0.0750879 1.01182 0)
(0.0667841 0.979119 0)
(0.0100033 0.891099 0)
(-0.0396789 0.86283 0)
(-0.0771035 0.897279 0)
(-0.117194 0.928592 0)
(-0.136999 0.907988 0)
(-0.13346 0.877491 0)
(-0.121782 0.883382 0)
(-0.120788 0.911338 0)
(-0.11518 0.88198 0)
(-0.100851 0.809555 0)
(-0.0940267 0.794146 0)
(-0.106539 0.829348 0)
(-0.132704 0.828992 0)
(-0.159418 0.806818 0)
(-0.171593 0.768201 0)
(-0.15193 0.681602 0)
(-0.102198 0.55877 0)
(-0.058936 0.469061 0)
(-0.00911769 0.325146 0)
(0.00610596 0.557194 0)
(0.0264802 0.568554 0)
(0.0566665 0.584499 0)
(0.0919513 0.689201 0)
(0.110228 0.784578 0)
(0.0991109 0.840314 0)
(0.0894669 0.892273 0)
(0.078515 0.9253 0)
(0.0783969 0.959825 0)
(0.0850127 1.01265 0)
(0.0771214 1.00005 0)
(0.0264806 0.958264 0)
(-0.0339963 0.901055 0)
(-0.0823588 0.939069 0)
(-0.117238 0.959906 0)
(-0.136557 0.912656 0)
(-0.129563 0.871861 0)
(-0.119879 0.880362 0)
(-0.10909 0.906008 0)
(-0.0909086 0.866151 0)
(-0.0747497 0.797611 0)
(-0.0790566 0.797155 0)
(-0.100939 0.846369 0)
(-0.134053 0.854375 0)
(-0.169487 0.824595 0)
(-0.172228 0.75362 0)
(-0.135467 0.639508 0)
(-0.0830796 0.518554 0)
(-0.0453384 0.435435 0)
(-0.00625875 0.306534 0)
(0.00164746 0.54647 0)
(0.0168735 0.543357 0)
(0.0477091 0.544917 0)
(0.0904846 0.64544 0)
(0.121473 0.775408 0)
(0.112556 0.841005 0)
(0.104593 0.896612 0)
(0.0952099 0.932237 0)
(0.0847832 0.965335 0)
(0.0871848 1.00817 0)
(0.0840905 1.02214 0)
(0.0423776 1.00853 0)
(-0.00842658 0.954789 0)
(-0.0652765 0.980178 0)
(-0.0983694 0.991083 0)
(-0.123776 0.92368 0)
(-0.119616 0.866632 0)
(-0.106824 0.872237 0)
(-0.0865101 0.886923 0)
(-0.0636579 0.843829 0)
(-0.0520191 0.79354 0)
(-0.065982 0.808812 0)
(-0.0950297 0.866512 0)
(-0.129098 0.88107 0)
(-0.158047 0.842531 0)
(-0.146191 0.72155 0)
(-0.106094 0.596954 0)
(-0.0614608 0.484073 0)
(-0.0324388 0.413883 0)
(-0.00791663 0.29229 0)
(-0.00171013 0.541604 0)
(0.0127883 0.522086 0)
(0.03949 0.508579 0)
(0.0829959 0.598104 0)
(0.119452 0.764865 0)
(0.118399 0.840148 0)
(0.114279 0.895708 0)
(0.10609 0.945727 0)
(0.087327 0.975391 0)
(0.0849483 1.00819 0)
(0.0800551 1.03669 0)
(0.0592848 1.04091 0)
(0.0153214 1.00842 0)
(-0.0337379 1.02033 0)
(-0.0666521 1.02663 0)
(-0.0970782 0.939932 0)
(-0.0983559 0.860538 0)
(-0.0817299 0.855568 0)
(-0.0574762 0.864485 0)
(-0.039995 0.826719 0)
(-0.0340019 0.796622 0)
(-0.0548678 0.825908 0)
(-0.0856818 0.89141 0)
(-0.117521 0.905571 0)
(-0.127357 0.835191 0)
(-0.113024 0.696361 0)
(-0.0765151 0.555221 0)
(-0.0423538 0.460782 0)
(-0.0228127 0.399896 0)
(-0.00722605 0.278519 0)
(-0.00150175 0.539041 0)
(0.0116327 0.505579 0)
(0.0332535 0.478577 0)
(0.0734707 0.553274 0)
(0.110145 0.745838 0)
(0.118039 0.836334 0)
(0.117447 0.891206 0)
(0.112585 0.959437 0)
(0.0962119 0.989881 0)
(0.0807582 1.01421 0)
(0.0767177 1.05005 0)
(0.0659338 1.0692 0)
(0.0298948 1.05498 0)
(-0.00204739 1.05549 0)
(-0.0279288 1.05928 0)
(-0.0592634 0.962427 0)
(-0.0678254 0.858222 0)
(-0.055496 0.834648 0)
(-0.031063 0.84972 0)
(-0.0211131 0.816405 0)
(-0.0226855 0.804019 0)
(-0.0439686 0.845366 0)
(-0.0748241 0.911346 0)
(-0.0984693 0.920102 0)
(-0.0947907 0.817066 0)
(-0.0827751 0.679594 0)
(-0.0531544 0.518312 0)
(-0.0275378 0.442179 0)
(-0.0143991 0.390272 0)
(-0.00327934 0.269443 0)
(0.00112379 0.5383 0)
(0.0118271 0.494763 0)
(0.0305657 0.453106 0)
(0.0661483 0.513557 0)
(0.101559 0.722476 0)
(0.116487 0.830013 0)
(0.112819 0.885092 0)
(0.11518 0.96154 0)
(0.097722 1.01112 0)
(0.0795419 1.02664 0)
(0.0715655 1.0559 0)
(0.0705151 1.09187 0)
(0.0440491 1.08339 0)
(0.0223055 1.08177 0)
(0.01485 1.08184 0)
(-0.0154783 0.990778 0)
(-0.038123 0.866461 0)
(-0.0345979 0.815739 0)
(-0.0125978 0.838516 0)
(-0.00723944 0.813512 0)
(-0.0147525 0.811504 0)
(-0.0353847 0.8635 0)
(-0.0614632 0.92635 0)
(-0.074273 0.927521 0)
(-0.0693532 0.794855 0)
(-0.0583203 0.669408 0)
(-0.0372157 0.489429 0)
(-0.0180329 0.426612 0)
(-0.00736638 0.380553 0)
(0.005232 0.262385 0)
(0.00465411 0.53377 0)
(0.0172935 0.485834 0)
(0.0339199 0.430842 0)
(0.0631068 0.482413 0)
(0.0954193 0.690769 0)
(0.11342 0.825534 0)
(0.107946 0.878997 0)
(0.110656 0.957887 0)
(0.101372 1.03042 0)
(0.0804494 1.04085 0)
(0.069277 1.05918 0)
(0.0721643 1.1056 0)
(0.0624034 1.11194 0)
(0.0413416 1.09017 0)
(0.0465069 1.09536 0)
(0.0257337 1.02421 0)
(-0.00974691 0.890386 0)
(-0.0183255 0.802122 0)
(-0.0012818 0.828687 0)
(0.00217439 0.812661 0)
(-0.00996326 0.820443 0)
(-0.0272878 0.878117 0)
(-0.0475043 0.934024 0)
(-0.0497442 0.925679 0)
(-0.0544056 0.782652 0)
(-0.0447238 0.659612 0)
(-0.028312 0.469099 0)
(-0.012599 0.411477 0)
(-0.00119756 0.366967 0)
(0.0130281 0.265529 0)
(0.00906643 0.522698 0)
(0.0264171 0.475473 0)
(0.0382205 0.414103 0)
(0.0625617 0.4563 0)
(0.0908993 0.65774 0)
(0.109208 0.824168 0)
(0.102319 0.873572 0)
(0.107501 0.950522 0)
(0.10388 1.04045 0)
(0.084794 1.06266 0)
(0.0676723 1.06464 0)
(0.0704434 1.10432 0)
(0.0784915 1.12971 0)
(0.0613006 1.10643 0)
(0.0636604 1.09491 0)
(0.0516864 1.05531 0)
(0.0161365 0.925343 0)
(-0.00223281 0.797469 0)
(0.00458953 0.818675 0)
(0.00760318 0.815292 0)
(-0.00542415 0.829307 0)
(-0.0203602 0.885979 0)
(-0.0321595 0.936753 0)
(-0.0318171 0.924287 0)
(-0.0491376 0.779123 0)
(-0.0412596 0.643955 0)
(-0.0286495 0.453627 0)
(-0.0124982 0.393202 0)
(0.00357358 0.354594 0)
(0.0138077 0.273541 0)
(0.0129706 0.501416 0)
(0.0325015 0.466171 0)
(0.0385934 0.402448 0)
(0.0572334 0.435611 0)
(0.0846122 0.626587 0)
(0.105653 0.820001 0)
(0.0997406 0.871354 0)
(0.105849 0.939707 0)
(0.110218 1.04514 0)
(0.0942295 1.08273 0)
(0.0704599 1.07808 0)
(0.0678856 1.09494 0)
(0.0838321 1.13326 0)
(0.0867739 1.12433 0)
(0.0757239 1.10003 0)
(0.0662637 1.07851 0)
(0.0388963 0.960166 0)
(0.0143541 0.807294 0)
(0.00896047 0.814022 0)
(0.0123982 0.818927 0)
(-0.00144349 0.836341 0)
(-0.0132486 0.888451 0)
(-0.0217113 0.9359 0)
(-0.0207995 0.925944 0)
(-0.0464808 0.786455 0)
(-0.0417504 0.625494 0)
(-0.0335848 0.43937 0)
(-0.0164433 0.370653 0)
(0.00295723 0.33708 0)
(0.0112781 0.281535 0)
(0.0119067 0.476351 0)
(0.0333596 0.458114 0)
(0.0320282 0.397402 0)
(0.0466758 0.414212 0)
(0.0757567 0.593977 0)
(0.103401 0.811677 0)
(0.103413 0.86627 0)
(0.105828 0.928143 0)
(0.114787 1.04466 0)
(0.104215 1.10145 0)
(0.0780695 1.09983 0)
(0.0687263 1.08599 0)
(0.0828956 1.12407 0)
(0.0986632 1.12712 0)
(0.0954346 1.1225 0)
(0.0779216 1.0953 0)
(0.0582164 0.990135 0)
(0.0293377 0.827988 0)
(0.0143748 0.814 0)
(0.0141746 0.822895 0)
(0.00193671 0.839791 0)
(-0.00956519 0.891636 0)
(-0.0185225 0.933976 0)
(-0.0197496 0.926384 0)
(-0.0423237 0.795011 0)
(-0.0382897 0.607623 0)
(-0.0311278 0.427844 0)
(-0.0133722 0.348223 0)
(0.00202674 0.324456 0)
(0.00715772 0.286217 0)
(0.00922548 0.452368 0)
(0.0300801 0.453755 0)
(0.0239378 0.397021 0)
(0.0324388 0.396735 0)
(0.0621168 0.555197 0)
(0.101321 0.796346 0)
(0.110888 0.862855 0)
(0.110727 0.919812 0)
(0.118276 1.04051 0)
(0.109493 1.11742 0)
(0.0879237 1.12025 0)
(0.0712585 1.09178 0)
(0.0791457 1.1067 0)
(0.0986182 1.12259 0)
(0.105195 1.1336 0)
(0.0928158 1.11448 0)
(0.0718818 1.01887 0)
(0.0418856 0.853077 0)
(0.0209713 0.821294 0)
(0.0120693 0.823565 0)
(0.000264158 0.845457 0)
(-0.00842823 0.89586 0)
(-0.0216109 0.93907 0)
(-0.0218392 0.92659 0)
(-0.034666 0.800986 0)
(-0.0272645 0.594709 0)
(-0.0200647 0.417556 0)
(-0.00562114 0.33445 0)
(0.00226143 0.317637 0)
(0.00542505 0.292141 0)
(0.00502515 0.431846 0)
(0.0264268 0.449958 0)
(0.0174498 0.400217 0)
(0.0199913 0.385628 0)
(0.047438 0.512805 0)
(0.0944804 0.768448 0)
(0.120564 0.857897 0)
(0.119713 0.917189 0)
(0.118714 1.04055 0)
(0.108508 1.1313 0)
(0.0925223 1.13781 0)
(0.0767384 1.10642 0)
(0.0776739 1.09383 0)
(0.0910942 1.11195 0)
(0.103381 1.13682 0)
(0.104151 1.1322 0)
(0.077864 1.04999 0)
(0.0478374 0.879191 0)
(0.0267897 0.835346 0)
(0.00684917 0.834261 0)
(-0.00914948 0.84914 0)
(-0.0184482 0.904189 0)
(-0.0296435 0.94441 0)
(-0.0219783 0.920729 0)
(-0.0241831 0.799144 0)
(-0.0138139 0.576033 0)
(-0.00649502 0.407213 0)
(0.00224184 0.325449 0)
(0.00163381 0.313902 0)
(0.00401584 0.294667 0)
(0.00010077 0.417908 0)
(0.0220458 0.446542 0)
(0.0144373 0.404206 0)
(0.011923 0.379623 0)
(0.0328078 0.474945 0)
(0.0834999 0.72756 0)
(0.122357 0.84467 0)
(0.123738 0.921035 0)
(0.110951 1.04802 0)
(0.100986 1.14187 0)
(0.0916105 1.14891 0)
(0.0831278 1.11723 0)
(0.0766797 1.09363 0)
(0.0796775 1.10384 0)
(0.0913565 1.13161 0)
(0.0995626 1.13974 0)
(0.0721482 1.08793 0)
(0.0425854 0.903845 0)
(0.0235401 0.853963 0)
(-0.00475232 0.846215 0)
(-0.0248026 0.860611 0)
(-0.0378811 0.910858 0)
(-0.04232 0.946037 0)
(-0.0189466 0.906194 0)
(-0.0122156 0.798501 0)
(-0.00255592 0.560821 0)
(0.00525364 0.401697 0)
(0.00812967 0.326653 0)
(0.0021123 0.314895 0)
(0.00319684 0.297572 0)
(-0.00310238 0.406168 0)
(0.0196726 0.438707 0)
(0.0122302 0.410658 0)
(0.0077955 0.379592 0)
(0.0216892 0.443287 0)
(0.0716068 0.680049 0)
(0.113827 0.828713 0)
(0.115768 0.930636 0)
(0.0946334 1.06056 0)
(0.0865898 1.14708 0)
(0.0858665 1.15545 0)
(0.0860777 1.12387 0)
(0.0758742 1.10491 0)
(0.0686327 1.1028 0)
(0.0717994 1.12406 0)
(0.078166 1.14661 0)
(0.0553045 1.12036 0)
(0.0295405 0.928887 0)
(0.0138229 0.873847 0)
(-0.015083 0.869877 0)
(-0.0412497 0.87916 0)
(-0.0592677 0.924208 0)
(-0.0513217 0.933626 0)
(-0.0220402 0.882648 0)
(-0.00690695 0.79856 0)
(0.00475328 0.546682 0)
(0.0138624 0.400111 0)
(0.0137292 0.332147 0)
(0.00281287 0.31993 0)
(0.00449177 0.300863 0)
(-0.000454894 0.393952 0)
(0.0198761 0.43447 0)
(0.00938628 0.414224 0)
(0.00707877 0.383702 0)
(0.0169641 0.416791 0)
(0.0636187 0.634634 0)
(0.101903 0.813699 0)
(0.0987044 0.944784 0)
(0.0748854 1.07395 0)
(0.0685053 1.14386 0)
(0.0757847 1.15238 0)
(0.0811235 1.12984 0)
(0.0719766 1.11669 0)
(0.056438 1.11494 0)
(0.0489006 1.11878 0)
(0.0465077 1.15615 0)
(0.0327655 1.14618 0)
(0.0146478 0.951912 0)
(0.00370139 0.895607 0)
(-0.0230386 0.895385 0)
(-0.0524024 0.907527 0)
(-0.0668806 0.929252 0)
(-0.0505054 0.913693 0)
(-0.0321332 0.864541 0)
(-0.0128922 0.787458 0)
(0.00743011 0.52826 0)
(0.019089 0.398159 0)
(0.018631 0.340623 0)
(0.00594493 0.324592 0)
(0.00728459 0.305942 0)
(0.00244242 0.377508 0)
(0.0234507 0.438947 0)
(0.00947053 0.418074 0)
(0.0117836 0.38781 0)
(0.0192752 0.394916 0)
(0.0603111 0.591394 0)
(0.0935492 0.805062 0)
(0.0838821 0.963013 0)
(0.0584569 1.08455 0)
(0.0543179 1.13738 0)
(0.0644037 1.14618 0)
(0.0699047 1.13095 0)
(0.0638409 1.12993 0)
(0.04621 1.13275 0)
(0.0302177 1.12663 0)
(0.0181773 1.16302 0)
(0.010008 1.16101 0)
(0.00377122 0.969411 0)
(-0.00089953 0.913289 0)
(-0.0258533 0.923866 0)
(-0.0533873 0.928899 0)
(-0.0616147 0.929915 0)
(-0.0499634 0.895027 0)
(-0.0426804 0.860132 0)
(-0.025894 0.766205 0)
(0.00596296 0.503557 0)
(0.0201119 0.396382 0)
(0.022357 0.347357 0)
(0.00921886 0.331824 0)
(0.00833819 0.314874 0)
(-0.00143579 0.358259 0)
(0.0241246 0.446539 0)
(0.012638 0.415928 0)
(0.0195427 0.388691 0)
(0.0244472 0.380502 0)
(0.0583645 0.545752 0)
(0.0920444 0.799482 0)
(0.0772513 0.981896 0)
(0.0517788 1.09336 0)
(0.049494 1.13016 0)
(0.0574904 1.14047 0)
(0.0586276 1.13675 0)
(0.0531479 1.14022 0)
(0.0344395 1.15017 0)
(0.0141876 1.1424 0)
(-0.00712645 1.1735 0)
(-0.0135688 1.16989 0)
(-0.00815467 0.974768 0)
(-0.00576838 0.931038 0)
(-0.022201 0.950054 0)
(-0.0470965 0.949826 0)
(-0.0527256 0.926146 0)
(-0.0539386 0.888807 0)
(-0.0542017 0.860695 0)
(-0.0367536 0.733062 0)
(-0.000208708 0.476922 0)
(0.0173593 0.391322 0)
(0.0230633 0.351529 0)
(0.0107502 0.340389 0)
(0.00780504 0.323595 0)
(-0.00552137 0.34429 0)
(0.0184203 0.447807 0)
(0.0124881 0.406151 0)
(0.0257521 0.385614 0)
(0.0294245 0.371124 0)
(0.0580892 0.502546 0)
(0.0901885 0.795946 0)
(0.0758744 1.00021 0)
(0.0551378 1.0955 0)
(0.0536043 1.12562 0)
(0.056943 1.13819 0)
(0.0556719 1.14051 0)
(0.0474678 1.1532 0)
(0.030306 1.16742 0)
(0.00403783 1.16694 0)
(-0.0248268 1.18592 0)
(-0.0300363 1.1739 0)
(-0.0160452 0.976706 0)
(-0.0123866 0.941102 0)
(-0.0230984 0.975144 0)
(-0.0423264 0.963194 0)
(-0.0488522 0.928258 0)
(-0.0585069 0.888936 0)
(-0.0651506 0.862683 0)
(-0.0429345 0.695286 0)
(-0.00787955 0.451831 0)
(0.0128152 0.383142 0)
(0.02192 0.354867 0)
(0.0101242 0.352615 0)
(0.0070599 0.332615 0)
(-0.00869833 0.336295 0)
(0.00784543 0.446611 0)
(0.00826871 0.394594 0)
(0.0247138 0.379535 0)
(0.0299849 0.363129 0)
(0.0521291 0.462851 0)
(0.0795882 0.787313 0)
(0.0750616 1.01017 0)
(0.0641248 1.09452 0)
(0.0640441 1.12432 0)
(0.0639084 1.13963 0)
(0.0593989 1.14909 0)
(0.0485758 1.1636 0)
(0.0304466 1.18774 0)
(0.000476863 1.1942 0)
(-0.0339926 1.20581 0)
(-0.0367403 1.17162 0)
(-0.0214643 0.971689 0)
(-0.0249444 0.950906 0)
(-0.0324919 0.990793 0)
(-0.0492303 0.971604 0)
(-0.053109 0.929138 0)
(-0.0631946 0.89538 0)
(-0.071041 0.862147 0)
(-0.0448041 0.653521 0)
(-0.01195 0.431433 0)
(0.00986768 0.370745 0)
(0.0194907 0.356688 0)
(0.00767045 0.364727 0)
(0.00579882 0.339315 0)
(-0.0109466 0.339631 0)
(-0.00279187 0.441982 0)
(0.000608577 0.38006 0)
(0.0169573 0.369109 0)
(0.0262988 0.357816 0)
(0.0399635 0.432857 0)
(0.0666653 0.77374 0)
(0.0753879 1.01135 0)
(0.075645 1.08745 0)
(0.0787729 1.12406 0)
(0.0755303 1.14685 0)
(0.0662712 1.15834 0)
(0.0510699 1.18143 0)
(0.0321642 1.20845 0)
(-0.00060237 1.22767 0)
(-0.0337573 1.22379 0)
(-0.0354984 1.16908 0)
(-0.0269149 0.97659 0)
(-0.0365679 0.961291 0)
(-0.0449731 1.01081 0)
(-0.0606449 0.976667 0)
(-0.0615767 0.932359 0)
(-0.0660675 0.901011 0)
(-0.0704821 0.859502 0)
(-0.0418686 0.613337 0)
(-0.00829438 0.413743 0)
(0.0120521 0.360626 0)
(0.0173541 0.358141 0)
(0.00361859 0.380117 0)
(0.00383246 0.344601 0)
(-0.00985084 0.348504 0)
(-0.00730982 0.441702 0)
(-0.0077886 0.371785 0)
(0.0056414 0.357452 0)
(0.0169825 0.354708 0)
(0.0280293 0.410599 0)
(0.0536569 0.747849 0)
(0.0802663 1.001 0)
(0.0884891 1.07597 0)
(0.0935023 1.12401 0)
(0.0873505 1.15733 0)
(0.0726424 1.17536 0)
(0.0543952 1.19696 0)
(0.0335702 1.23407 0)
(0.00295829 1.2566 0)
(-0.02684 1.24592 0)
(-0.0321392 1.17006 0)
(-0.0316524 0.987181 0)
(-0.0480711 0.974537 0)
(-0.0601156 1.02754 0)
(-0.0734733 0.979875 0)
(-0.0741289 0.929392 0)
(-0.0711651 0.903567 0)
(-0.0684725 0.850417 0)
(-0.032614 0.57362 0)
(0.00379946 0.39419 0)
(0.0194251 0.356347 0)
(0.0169484 0.363836 0)
(0.00128329 0.393981 0)
(0.00317621 0.345701 0)
(-0.00865929 0.355768 0)
(-0.00693161 0.445518 0)
(-0.0130849 0.369391 0)
(-0.00265535 0.347828 0)
(0.00742447 0.351312 0)
(0.0195315 0.392825 0)
(0.0445371 0.711754 0)
(0.0846489 0.981222 0)
(0.101427 1.06658 0)
(0.102154 1.12228 0)
(0.0945274 1.17591 0)
(0.0767749 1.19155 0)
(0.0575014 1.21848 0)
(0.0361766 1.25593 0)
(0.00721928 1.28483 0)
(-0.015854 1.26126 0)
(-0.0269172 1.18006 0)
(-0.0347075 1.00347 0)
(-0.056442 0.990085 0)
(-0.0702119 1.04513 0)
(-0.0826838 0.979984 0)
(-0.0849069 0.928334 0)
(-0.0822819 0.899973 0)
(-0.0624367 0.828675 0)
(-0.0137922 0.531443 0)
(0.0226102 0.377586 0)
(0.0278962 0.359829 0)
(0.0190258 0.372193 0)
(0.00253309 0.40846 0)
(0.00674901 0.348246 0)
(-0.0105242 0.3595 0)
(-0.00478694 0.446322 0)
(-0.00842742 0.366274 0)
(-0.00645517 0.343405 0)
(-0.000197646 0.347301 0)
(0.0141992 0.377729 0)
(0.0392062 0.674044 0)
(0.0885739 0.947192 0)
(0.110281 1.05998 0)
(0.107368 1.12572 0)
(0.0961162 1.19087 0)
(0.078649 1.21116 0)
(0.0607496 1.23468 0)
(0.0392628 1.28235 0)
(0.012689 1.30572 0)
(-0.00574869 1.2766 0)
(-0.018981 1.19567 0)
(-0.0345825 1.02646 0)
(-0.0609064 1.00659 0)
(-0.0738384 1.06461 0)
(-0.0882056 0.986807 0)
(-0.0948654 0.93031 0)
(-0.0890715 0.888963 0)
(-0.0467635 0.789496 0)
(0.0140186 0.486135 0)
(0.0411402 0.371202 0)
(0.0340438 0.369402 0)
(0.0218469 0.383165 0)
(0.00651016 0.41604 0)
(0.0107808 0.352884 0)
(-0.0161489 0.364366 0)
(-0.00495314 0.438795 0)
(-0.00408711 0.368869 0)
(-0.00800116 0.344231 0)
(-0.0066321 0.342857 0)
(0.00810559 0.363801 0)
(0.0351737 0.634169 0)
(0.0882587 0.909239 0)
(0.116071 1.0547 0)
(0.110187 1.13169 0)
(0.094167 1.20851 0)
(0.0779902 1.22368 0)
(0.0617644 1.25348 0)
(0.0417448 1.30167 0)
(0.0180841 1.32935 0)
(0.00273976 1.2849 0)
(-0.0110136 1.21677 0)
(-0.0304491 1.05605 0)
(-0.0615476 1.02482 0)
(-0.0751586 1.08236 0)
(-0.0917491 1.0003 0)
(-0.101604 0.931246 0)
(-0.0843237 0.864989 0)
(-0.0185666 0.73179 0)
(0.0416919 0.447359 0)
(0.0519463 0.377989 0)
(0.0367175 0.382745 0)
(0.0240048 0.391824 0)
(0.00671663 0.421362 0)
(0.013871 0.358555 0)
(-0.0205733 0.374438 0)
(-0.00952593 0.42346 0)
(-0.00253849 0.367317 0)
(-0.00594413 0.350307 0)
(-0.0112301 0.340844 0)
(-0.00256169 0.351907 0)
(0.0231437 0.59032 0)
(0.0823196 0.865365 0)
(0.11675 1.04255 0)
(0.111548 1.14343 0)
(0.0914867 1.22229 0)
(0.076286 1.2403 0)
(0.0598767 1.26619 0)
(0.0422258 1.32266 0)
(0.0234376 1.34299 0)
(0.00948821 1.29822 0)
(-0.0029745 1.23084 0)
(-0.0269902 1.09187 0)
(-0.0606852 1.04584 0)
(-0.0782704 1.097 0)
(-0.0935715 1.01942 0)
(-0.102625 0.925002 0)
(-0.0661811 0.822384 0)
(0.0123352 0.665435 0)
(0.0579524 0.426531 0)
(0.0538503 0.392391 0)
(0.0352753 0.395764 0)
(0.0197292 0.402547 0)
(0.000490568 0.420555 0)
(0.0148493 0.362903 0)
(-0.0183798 0.388127 0)
(-0.00746189 0.408328 0)
(-0.00294605 0.358713 0)
(-0.00324513 0.356453 0)
(-0.0130269 0.34499 0)
(-0.0148777 0.347918 0)
(0.0058315 0.542862 0)
(0.069269 0.816992 0)
(0.111555 1.02624 0)
(0.107435 1.15173 0)
(0.0889101 1.24008 0)
(0.0724094 1.25054 0)
(0.0579522 1.28333 0)
(0.0407458 1.33383 0)
(0.0267934 1.35951 0)
(0.0140757 1.30767 0)
(0.00179455 1.24754 0)
(-0.0258122 1.13096 0)
(-0.0629682 1.0711 0)
(-0.0825217 1.10887 0)
(-0.0920451 1.03913 0)
(-0.0917869 0.907105 0)
(-0.0394824 0.762896 0)
(0.0313467 0.60849 0)
(0.0594441 0.420723 0)
(0.0482022 0.408441 0)
(0.0271753 0.410958 0)
(0.0107615 0.410633 0)
(-0.00765741 0.418637 0)
(0.0124288 0.360491 0)
(-0.00867758 0.39383 0)
(0.00514923 0.403088 0)
(-0.00237439 0.352861 0)
(-0.00318387 0.362537 0)
(-0.0153229 0.355256 0)
(-0.0243717 0.351858 0)
(-0.0092355 0.496969 0)
(0.0501877 0.760604 0)
(0.099347 1.00294 0)
(0.101306 1.16103 0)
(0.0853135 1.24922 0)
(0.0705603 1.26478 0)
(0.0568409 1.29507 0)
(0.0389598 1.34822 0)
(0.0261089 1.3674 0)
(0.0128618 1.32553 0)
(-0.000277021 1.25898 0)
(-0.0319316 1.17627 0)
(-0.0681563 1.09799 0)
(-0.0852097 1.11501 0)
(-0.0830817 1.0483 0)
(-0.0708108 0.875501 0)
(-0.0200435 0.707786 0)
(0.0331802 0.567864 0)
(0.0494714 0.422693 0)
(0.0359207 0.425331 0)
(0.0125074 0.425938 0)
(-0.000404362 0.415137 0)
(-0.0160821 0.413482 0)
(0.0103696 0.350588 0)
(0.000668336 0.386362 0)
(0.0195666 0.40641 0)
(0.00362838 0.356892 0)
(-0.0055827 0.368451 0)
(-0.0173768 0.36912 0)
(-0.0281762 0.358545 0)
(-0.0147538 0.458709 0)
(0.0315817 0.707078 0)
(0.0815061 0.975225 0)
(0.0917843 1.16321 0)
(0.0818197 1.2602 0)
(0.072896 1.2718 0)
(0.0586396 1.31355 0)
(0.039099 1.35733 0)
(0.0213317 1.38415 0)
(0.00594192 1.33813 0)
(-0.00999817 1.27986 0)
(-0.0408739 1.21565 0)
(-0.071218 1.12365 0)
(-0.0834376 1.10883 0)
(-0.0692271 1.04543 0)
(-0.0511908 0.843927 0)
(-0.0165725 0.668383 0)
(0.020389 0.538341 0)
(0.0316388 0.427165 0)
(0.0157576 0.443117 0)
(-0.00368594 0.438378 0)
(-0.013123 0.413869 0)