/*--------------------------------*- C++ -*----------------------------------*\
| =========                 |                                                 |
| \\      /  F ield         | OpenFOAM: The Open Source CFD Toolbox           |
|  \\    /   O peration     | Version:  2.3.0                                 |
|   \\  /    A nd           | Web:      www.OpenFOAM.org                      |
|    \\/     M anipulation  |                                                 |
\*---------------------------------------------------------------------------*/
FoamFile
{
    version     2.0;
    format      ascii;
    class       surfaceScalarField;
    location    "15";
    object      phi.air;
}
// * * * * * * * * * * * * * * * * * * * * * * * * * * * * * * * * * * * * * //

dimensions      [0 3 -1 0 0 0 0];

internalField   nonuniform List<scalar> 
3650
(
0.000225533
6.33108e-06
0.00039738
4.50197e-05
0.000505977
8.17071e-05
0.000544281
0.000108931
0.000520401
0.000152302
0.000437972
0.000193657
0.000331043
0.000218824
0.000231308
0.000231197
0.000148251
0.00024076
8.81085e-05
0.00024208
1.51865e-05
0.000269473
-5.724e-05
0.000274579
-0.000128653
0.000268682
-0.000191923
0.000248271
-0.000281363
0.000255418
-0.000385818
0.000246091
-0.000505711
0.000240468
-0.000624738
0.000228202
-0.000709155
0.000206638
-0.000744098
0.000170367
-0.00074152
0.000136551
-0.000688079
0.000111789
-0.000558441
8.01396e-05
-0.000318034
1.79426e-05
-3.3634e-05
0.000179163
-8.87788e-05
0.000293192
-3.12602e-05
0.000358319
1.45107e-05
0.000352144
5.13546e-05
0.00027561
0.00012721
0.000179331
0.000202928
9.49217e-05
0.000246811
2.01681e-05
0.000272053
-2.70329e-05
0.000290399
-3.6844e-05
0.00029226
-2.07518e-05
0.000313421
-9.94257e-06
0.000340901
1.99025e-06
0.000324259
-8.76298e-06
0.00030173
-5.57579e-05
0.000304814
-0.000125136
0.00029701
-0.000203657
0.000278239
-0.000305894
0.000252494
-0.000416243
0.000210169
-0.00049428
0.00014686
-0.000500204
7.78927e-05
-0.000449894
4.87526e-05
-0.000356254
2.19784e-05
-0.000230888
-7.21419e-05
-0.000185857
4.34561e-05
-0.000106363
2.68709e-05
-2.0179e-05
-2.17514e-05
2.96439e-05
-8.19066e-05
7.40606e-05
-0.000127619
0.00013452
-0.000155287
0.000195564
-0.000150255
0.00022872
-0.000117634
0.000242824
-7.70771e-05
0.000251352
-3.5689e-05
0.000251687
1.91136e-05
0.00026949
5.0515e-05
0.000312594
6.99209e-05
0.000301265
9.92421e-05
0.000276055
0.00015192
0.000266734
0.000199783
0.000262972
0.000222227
0.000252174
0.00021594
0.000236262
0.000155642
0.000211284
7.38157e-05
0.000158116
-4.2764e-06
0.000102426
-4.79694e-05
6.96447e-05
-7.60384e-05
3.77353e-05
-8.91921e-05
-7.91403e-05
-0.000283088
-3.86991e-05
-4.61423e-05
-9.02137e-05
5.16152e-05
-0.000157246
9.97898e-05
-0.000223502
0.000131801
-0.000258546
0.000155298
-0.000246752
0.000180677
-0.000204588
0.000193371
-0.00014048
0.000192249
-7.3439e-05
0.000197142
-8.13523e-06
0.000196508
5.49929e-05
0.000216989
0.000105325
0.000265784
0.000136841
0.000267374
0.000165404
0.000248988
0.000219272
0.000219735
0.000294722
0.000205155
0.000369773
0.000196679
0.000431219
0.000191943
0.000452204
0.000191253
0.000415729
0.000181348
0.000305668
0.000178187
0.00017043
0.000168301
7.13633e-05
0.000134623
3.00952e-06
1.30135e-05
-0.000259266
-3.36255e-05
-1.01349e-05
-3.58299e-05
8.73489e-05
-9.65233e-05
0.000172488
-0.00013696
0.000170263
-0.000151434
0.000174257
-0.000147227
0.000184495
-0.000120305
0.00018107
-8.47922e-05
0.000174303
-4.8062e-05
0.000174073
-5.22834e-06
0.000166802
4.41555e-05
0.00017988
0.000115955
0.00020831
0.000175359
0.000221614
0.000224591
0.000207818
0.0002741
0.000180181
0.000320866
0.000169191
0.000362051
0.000169995
0.000391766
0.000177836
0.000399577
0.000189821
0.000364508
0.000207921
0.000288469
0.000245496
0.000194483
0.000265433
0.000115125
0.000238881
4.44294e-05
9.86591e-05
-0.000211599
-1.86195e-05
8.38375e-06
2.2346e-05
7.70191e-05
2.93837e-05
0.000207258
-3.40767e-05
0.000255483
-8.92345e-05
0.000238005
-0.000107221
0.000207633
-0.000105899
0.000191255
-0.000101069
0.000178876
-8.52193e-05
0.000160028
-5.08766e-05
0.000138436
1.22537e-05
0.000127169
0.000108078
0.000137519
0.00020352
0.000150636
0.000285882
0.000146134
0.000339351
0.000141629
0.000358261
0.000154758
0.000357207
0.000176875
0.000345038
0.000195477
0.000321578
0.000209929
0.000271119
0.000243875
0.000192687
0.000312346
0.000116219
0.000346527
5.4509e-05
0.000314894
8.20148e-06
0.000148719
-0.00019114
3.04437e-05
-3.18871e-05
6.94561e-05
4.78622e-05
0.000153293
0.000155692
0.000124491
0.000310186
3.47762e-05
0.000337145
-2.90043e-05
0.000276223
-5.91238e-05
0.000219274
-7.37719e-05
0.000183471
-6.91445e-05
0.000145607
-2.72729e-05
9.44797e-05
4.33906e-05
6.87552e-05
0.000129975
7.10497e-05
0.000219248
8.36107e-05
0.00028271
9.9571e-05
0.000311086
0.000125066
0.000311578
0.000156814
0.000286256
0.000194817
0.000245004
0.000222762
0.00020029
0.000239385
0.00013934
0.000280936
6.86537e-05
0.000367991
2.37867e-05
0.000393228
1.20535e-05
0.000335531
7.04132e-06
0.000165308
-0.000176726
8.4142e-05
-0.000109455
0.00010567
1.4822e-05
0.0001338
0.000110909
0.000142123
0.000296445
0.000100366
0.00038263
3.72221e-05
0.000348083
2.02903e-06
0.000257618
8.86392e-07
0.000181658
3.2129e-05
0.000117552
8.83545e-05
5.03605e-05
0.000147295
2.25766e-05
0.000203946
2.24211e-05
0.000246497
3.93611e-05
0.000258955
7.37669e-05
0.000245622
0.00012249
0.000218852
0.000167119
0.000183459
0.000212539
0.000140419
0.0002485
8.87348e-05
0.000270672
3.51329e-05
0.000313472
-1.61951e-05
0.000406209
-4.97239e-05
0.000425798
-1.78189e-05
0.000324376
-5.71814e-07
0.000158604
-0.000174995
5.35647e-05
-0.000158493
6.17498e-05
-7.71971e-06
5.39639e-05
8.96682e-05
5.78821e-05
0.000271063
2.70174e-05
0.000400263
-1.07874e-06
0.000385121
-1.11712e-05
0.000287729
2.56526e-05
0.000174509
9.54292e-05
8.24535e-05
0.000152469
2.20535e-05
0.000190822
1.19475e-06
0.000208502
3.88234e-06
0.000191798
2.95321e-05
0.000143829
8.12534e-05
8.68851e-05
0.000136709
3.51723e-05
0.000178418
1.58263e-06
0.000218254
-2.03398e-05
0.000256337
-3.79678e-05
0.000275209
-6.48687e-05
0.000322224
-9.11859e-05
0.000422885
-9.27934e-05
0.000432585
-2.42439e-05
0.000277682
-8.71196e-06
0.000145322
-0.000179171
1.47672e-05
-0.000170749
-5.60329e-06
-8.70663e-07
-2.86727e-05
9.22055e-05
-2.80466e-05
0.000255365
-5.991e-05
0.000421632
-8.01675e-05
0.000414166
-6.83913e-05
0.000306955
-3.59644e-05
0.000187749
-2.42132e-06
0.000101466
2.5915e-05
4.59823e-05
2.46515e-05
2.49978e-05
-9.69059e-06
1.60159e-05
-6.01336e-05
2.72384e-05
-9.7885e-05
6.9647e-05
-0.000120853
0.000126237
-0.000127498
0.000159713
-0.000117305
0.000190075
-0.00010394
0.000233573
-0.000103375
0.000264457
-0.000119949
0.000328871
-0.000131664
0.000427313
-0.000109628
0.000418725
-3.32848e-05
0.000214126
-6.74596e-06
0.000121941
-0.000185496
-8.07648e-06
-0.000161593
-2.70403e-05
1.78888e-05
-4.58658e-05
0.000109436
-2.16413e-05
0.000231363
-1.85752e-05
0.000427629
-6.32916e-05
0.000464355
-9.91588e-05
0.000367636
-0.000118836
0.000245134
-0.000134146
0.000164179
-0.000171883
0.000107542
-0.000222218
6.94605e-05
-0.000257707
4.08285e-05
-0.000271465
2.83162e-05
-0.000250675
3.6066e-05
-0.00020198
6.87295e-05
-0.000175113
0.000117333
-0.000164287
0.000165767
-0.000150541
0.000208232
-0.000159309
0.000257752
-0.000168198
0.00033132
-0.00014316
0.000400552
-0.000101487
0.000379573
-4.2293e-05
0.000154932
-3.33914e-06
8.11985e-05
-0.000192075
-5.95997e-06
-0.000156984
-4.73544e-06
1.94923e-05
-1.56852e-05
0.000114428
3.18815e-05
0.00020109
0.000100648
0.000386929
8.09667e-05
0.000496847
-1.06006e-05
0.000459187
-0.000120852
0.000362623
-0.000227955
0.000270191
-0.000340531
0.000188626
-0.000416825
0.000123901
-0.000437938
6.26841e-05
-0.000436354
3.66888e-05
-0.000420074
2.3611e-05
-0.000379894
1.73616e-05
-0.000327488
5.22629e-05
-0.000289325
0.000123348
-0.000265952
0.000179877
-0.00023911
0.000231457
-0.00019379
0.000294233
-0.000122709
0.000335756
-4.8712e-05
0.000302733
-2.89223e-05
0.000120752
-4.3604e-07
4.57115e-05
-0.000190924
9.51013e-06
-0.00016646
2.63629e-05
2.30192e-06
4.06417e-05
9.23213e-05
8.85956e-05
0.000160003
0.000228737
0.00027932
0.000322002
0.000430129
0.000286853
0.000482402
0.000145483
0.000458734
-3.94261e-05
0.000393447
-0.000211992
0.000314529
-0.000348949
0.00023563
-0.000486667
0.000137651
-0.000605686
7.36021e-05
-0.000648295
1.78148e-05
-0.000599059
-1.32633e-05
-0.000502489
-1.54276e-06
-0.000418184
5.08329e-05
-0.00034019
0.00011525
-0.000236571
0.000160981
-0.000127509
0.000224888
-1.41361e-05
0.000247156
5.84727e-05
0.000225248
2.44882e-05
0.000139149
1.12282e-05
5.68512e-05
-0.000160949
1.78619e-05
-0.000179913
2.84441e-05
-9.99334e-06
5.5586e-05
6.04881e-05
0.000102982
0.000104124
0.00022737
0.000162656
0.000392165
0.00028484
0.000476705
0.000401154
0.000482029
0.000432125
0.000414025
0.000416376
0.000272722
0.000379223
7.35156e-05
0.000320421
-0.000151016
0.000245419
-0.000337234
0.000185128
-0.000437679
0.000119496
-0.000492139
6.92259e-05
-0.000529208
4.33559e-05
-0.000504765
4.02401e-05
-0.00039024
4.96023e-05
-0.000252705
6.99896e-05
-0.000104784
0.000121684
2.5093e-05
0.000145501
6.58918e-05
0.000184992
3.06991e-05
0.000177067
3.42425e-05
8.2251e-05
-0.000116228
1.58841e-05
-0.000185259
6.93089e-06
-4.11172e-06
1.67631e-05
5.13085e-05
5.57195e-05
6.74314e-05
0.000127648
8.77158e-05
0.000268354
0.000145434
0.000404895
0.000268535
0.000474082
0.000354918
0.000490726
0.00038295
0.000466437
0.000374204
0.000402688
0.000344727
0.000315866
0.000300804
0.000215954
0.000253965
7.49839e-05
0.000207791
-0.000110558
0.000169813
-0.000253735
0.000137615
-0.000288971
0.000118115
-0.000273612
9.18701e-05
-0.000244579
7.46771e-05
-0.000166662
7.18645e-05
-7.95488e-05
8.64125e-05
-5.718e-05
0.000176199
-6.89407e-05
0.000202094
1.87443e-05
4.23871e-05
-0.000104497
-9.50563e-06
-0.000179107
-2.40375e-05
1.20629e-05
-3.75738e-05
6.60152e-05
-3.21428e-05
6.62014e-05
1.01564e-05
5.7871e-05
9.04377e-05
8.2481e-05
0.000211892
0.000157901
0.000331459
0.000243645
0.000419866
0.000300593
0.000463772
0.000331308
0.000467115
0.000337159
0.000444101
0.000316368
0.000394336
0.000287778
0.000321135
0.000258332
0.000233434
0.000231755
0.000130637
0.000206597
1.46781e-05
0.000187554
-9.59885e-05
0.000165882
-0.000149649
0.000143997
-0.00013424
0.000117251
-9.09092e-05
0.000106621
-7.3096e-05
0.000189338
-7.51406e-05
0.000211694
-1.27622e-05
-9.26364e-06
-0.000114763
-1.20393e-05
-0.000173342
-1.20334e-05
1.44437e-05
-1.13866e-05
6.81052e-05
-3.47922e-06
6.02022e-05
1.8742e-05
4.7462e-05
5.31341e-05
6.9008e-05
0.000115375
0.000119319
0.000198154
0.000179305
0.000287645
0.000224939
0.000364713
0.000265316
0.000409885
0.000294687
0.000425022
0.000302072
0.00042308
0.000291879
0.000401851
0.000276531
0.000364361
0.000262646
0.000308475
0.000248831
0.000227573
0.000240047
0.000129585
0.000227733
4.34179e-05
0.000214922
-3.52274e-06
0.000180542
-1.57574e-05
0.000176849
-2.17819e-05
0.000251027
-9.58604e-06
0.000215738
-1.27202e-05
-2.06024e-05
-0.000133496
-9.36007e-06
-0.000167451
-3.7182e-06
1.18852e-05
2.86594e-05
5.25877e-05
8.08818e-05
3.32036e-05
0.000115684
2.68971e-05
0.000118296
6.24988e-05
0.000127677
0.000104295
0.00015875
0.000148512
0.000201369
0.000188168
0.000255269
0.000217812
0.000313752
0.000242979
0.000354315
0.000265698
0.000372732
0.00027475
0.000372582
0.000275734
0.000355733
0.000276664
0.00032232
0.000277565
0.000275314
0.000279771
0.000208609
0.000285889
0.000135823
0.000281322
7.48528e-05
0.000258591
1.43855e-05
0.000277877
-2.03509e-05
0.000318079
7.55551e-06
0.000196015
-4.80338e-06
-2.46817e-05
-0.000142655
-7.8567e-06
-0.000157544
-9.52275e-06
1.86159e-05
9.88399e-06
5.43928e-05
4.40908e-05
3.82305e-05
5.89379e-05
3.60415e-05
4.96673e-05
6.84868e-05
3.43909e-05
9.71244e-05
3.11366e-05
0.000126177
4.75874e-05
0.000155095
8.19665e-05
0.000177837
0.000120369
0.000201148
0.000160839
0.000222274
0.000191659
0.000241438
0.000205914
0.000256821
0.000199622
0.000273458
0.000171916
0.000292369
0.000130036
0.000309838
8.74486e-05
0.000325649
5.21633e-05
0.000327286
8.74998e-06
0.000327601
-4.22604e-05
0.000341284
-5.21166e-05
0.000328841
-1.42827e-05
0.000151241
-3.58408e-06
-3.66788e-05
-0.000147031
-1.30317e-05
-0.000144512
-1.55485e-05
3.32198e-05
-2.09619e-05
9.38999e-05
-4.51622e-05
9.04685e-05
-7.97389e-05
8.20299e-05
-0.000112145
9.8553e-05
-0.000147296
0.000120325
-0.000172327
0.000140446
-0.000185249
0.000159215
-0.000191916
0.000174141
-0.000191834
0.0001904
-0.000184771
0.000203974
-0.00017344
0.000219248
-0.000160924
0.000234894
-0.00014946
0.000253413
-0.000139122
0.000275963
-0.0001283
0.000298752
-0.000109216
0.000315734
-9.31881e-05
0.000325764
-9.7518e-05
0.000337039
-9.74905e-05
0.000340415
-6.54623e-05
0.000290511
-3.09884e-05
0.000118204
-6.08991e-06
-4.72287e-05
-0.000143903
-6.75177e-06
-0.000139037
1.18385e-06
3.47809e-05
-2.44206e-05
0.000131991
-6.34074e-05
0.00015533
-0.000117817
0.000160912
-0.000183598
0.00017527
-0.000243712
0.000181338
-0.000288502
0.000184227
-0.000326796
0.000192945
-0.000357799
0.000198323
-0.000374279
0.000201256
-0.000376005
0.000202409
-0.000357448
0.00020194
-0.000319398
0.000203237
-0.000269365
0.000213378
-0.000215428
0.000234029
-0.000166414
0.000261672
-0.000132495
0.000290117
-0.000122595
0.000316386
-0.000127099
0.000332569
-0.000126387
0.000331935
-8.22846e-05
0.000256181
-2.46399e-05
9.19234e-05
2.54351e-07
-5.4417e-05
-0.000137158
1.00932e-05
-0.000147459
4.41418e-05
1.58558e-05
2.60674e-05
0.000151826
-1.11533e-05
0.000194633
-5.45739e-05
0.000221232
-0.00011179
0.000250978
-0.000175879
0.000257566
-0.000236782
0.000246891
-0.00028688
0.000238207
-0.000326053
0.000230074
-0.000351718
0.000220292
-0.000363176
0.000209477
-0.000357579
0.000197178
-0.000333188
0.000186038
-0.000292171
0.00018394
-0.000234978
0.000192025
-0.000165349
0.00021075
-0.000113438
0.000247359
-0.000106749
0.000311791
-0.00012166
0.000340707
-0.000132442
0.000338162
-0.000111579
0.000246095
-7.54314e-05
6.64609e-05
-4.73857e-05
-7.68262e-05
-0.000187472
3.51596e-05
-0.000177352
7.9995e-05
-2.4902e-05
8.18492e-05
0.000152321
6.18426e-05
0.000210133
5.60802e-05
0.000235101
5.03875e-05
0.000268099
2.10254e-05
0.000290536
-2.59712e-05
0.000288193
-7.27472e-05
0.000275016
-0.000113672
0.000258472
-0.00014902
0.000240951
-0.000179313
0.000224151
-0.000204543
0.000209401
-0.000216361
0.000197849
-0.000207735
0.00019087
-0.00017815
0.000187226
-0.000134403
0.000190668
-8.183e-05
0.000213176
-5.47965e-05
0.000292073
-6.89929e-05
0.000351285
-8.01578e-05
0.000340301
-7.87318e-05
0.000232875
-8.73194e-05
5.04818e-05
-8.0614e-05
-0.000107618
-0.00026851
4.03614e-05
-0.000214194
6.82243e-05
-6.03001e-05
8.75716e-05
0.000132838
7.59603e-05
0.000218271
6.99404e-05
0.000244629
7.3446e-05
0.000269716
7.35543e-05
0.000292609
6.67339e-05
0.000293601
5.78137e-05
0.000280281
5.11012e-05
0.00025985
4.63497e-05
0.000238561
4.01296e-05
0.000221872
2.63463e-05
0.000212185
4.29843e-06
0.000209041
-2.12921e-05
0.000209203
-4.1261e-05
0.000209448
-4.54427e-05
0.00021077
-2.09359e-05
0.000218431
3.56022e-05
0.000260138
6.69017e-05
0.000332771
6.77041e-05
0.000334878
9.45135e-06
0.000236957
-3.41117e-05
5.68199e-05
-4.67171e-05
-0.000113796
-0.000315954
2.26057e-05
-0.000236584
3.64726e-05
-7.73399e-05
8.57374e-05
8.47878e-05
8.79858e-05
0.000215511
7.38362e-05
0.000257811
7.10243e-05
0.000278762
7.12126e-05
0.000296572
6.59242e-05
0.00029843
6.00807e-05
0.000280741
6.72289e-05
0.000247435
8.91665e-05
0.000214446
0.000117166
0.000194703
0.000139535
0.000190414
0.00014723
0.000198962
0.000132677
0.000218614
0.000106397
0.000232804
8.22423e-05
0.000240058
7.52574e-05
0.000245027
0.000109839
0.000256729
0.000164116
0.00030092
0.000163516
0.000330273
0.000104662
0.000267189
4.4024e-05
9.19737e-05
3.52614e-06
-7.94723e-05
-0.00030739
1.55973e-05
-0.0002539
3.70728e-05
-9.45699e-05
8.77676e-05
2.96065e-05
0.000120037
0.000179753
0.000112733
0.000258038
0.000105962
0.000285376
0.000109303
0.000299145
0.000108008
0.000298547
9.77706e-05
0.000279768
9.38039e-05
0.000233097
0.00011003
0.000186577
0.000133945
0.000166771
0.000159333
0.000165806
0.00018675
0.000178099
0.000194568
0.000216617
0.000177479
0.000248662
0.00014681
0.000270268
0.000116025
0.000281182
0.000103953
0.00028276
0.000119556
0.000304684
0.000104996
0.000356347
8.56315e-05
0.000285955
6.11499e-05
0.000128678
3.61827e-05
-4.32408e-05
-0.000271308
3.03279e-05
-0.000275258
5.66378e-05
-0.000114823
8.47186e-05
1.11539e-06
0.000131523
0.000122977
0.000152718
0.000223448
0.000170592
0.000262331
0.000196567
0.000274381
0.000221172
0.000273458
0.000239033
0.00024963
0.00024925
0.000199249
0.00024393
0.000166376
0.000237978
0.000160871
0.000236342
0.000165482
0.000227424
0.000189846
0.000210926
0.000238292
0.000185331
0.00027732
0.000147909
0.000304151
0.000109413
0.000316982
7.49854e-05
0.000320578
3.11304e-05
0.000349746
-1.68126e-05
0.000407526
2.88083e-05
0.000277921
2.67825e-05
0.00015019
2.1186e-05
-2.98201e-05
-0.000248118
2.26603e-05
-0.00029574
3.48383e-05
-0.000128887
3.84095e-05
-3.11046e-06
7.22744e-05
8.55742e-05
0.000122539
0.000165275
0.000170013
0.000207483
0.000230078
0.000213648
0.000299523
0.000208063
0.00037641
0.000179968
0.000420231
0.000151126
0.000425764
0.000147298
0.000399722
0.000171839
0.00033719
0.000204791
0.000261249
0.000251973
0.000202965
0.000292479
0.000159857
0.000320309
0.000120627
0.000342018
7.61056e-05
0.000358964
1.1879e-05
0.000383861
-6.59557e-05
0.00042532
-8.77885e-05
0.000439027
-4.5894e-05
0.000253519
-3.47494e-05
0.000143855
-9.77226e-06
-5.5475e-05
-0.000257586
1.08725e-05
-0.000315052
9.40675e-06
-0.000137609
3.4931e-06
-1.65108e-06
2.94771e-05
6.36645e-05
0.000102852
0.000104387
0.000195531
0.000127153
0.000296936
0.000126049
0.000394777
0.000116424
0.000433635
0.000127469
0.000401603
0.000154995
0.000360028
0.000173568
0.000306075
0.000218567
0.000228144
0.000265029
0.000151121
0.000305673
0.00010327
0.000327587
6.78084e-05
0.000348907
3.28984e-05
0.000375823
-1.1596e-05
0.00040428
-6.69932e-05
0.000436202
-0.000100594
0.000458294
-8.24991e-05
0.000415982
-7.93291e-05
0.000240635
-6.85058e-05
0.000118172
-3.43335e-05
-8.72785e-05
-0.000282607
1.7819e-06
-0.000324271
-1.14437e-05
-0.000136631
-8.31088e-06
-1.01428e-05
3.8362e-05
3.23274e-05
0.000114896
4.90264e-05
0.000193112
5.91138e-05
0.000225838
9.05638e-05
0.000231652
0.00012145
0.0002081
0.000154032
0.000146366
0.000193472
7.05123e-05
0.000210526
8.11255e-06
0.000241644
-2.25104e-05
0.000272521
-2.64848e-05
0.000298819
-2.78406e-05
0.000322562
-4.46904e-05
0.000356978
-6.99008e-05
0.000394823
-8.90469e-05
0.000422945
-0.000101991
0.000442904
-9.92917e-05
0.000448295
-5.98566e-05
0.000362785
-7.20369e-05
0.000238311
-6.11284e-05
9.40761e-05
-2.89407e-05
-0.000108652
-0.000299507
-1.13881e-05
-0.000314364
-3.57752e-05
-0.00012276
-2.81411e-05
-1.98514e-05
5.66725e-06
9.0992e-06
4.26044e-05
2.86386e-05
5.24955e-05
6.76908e-05
8.80772e-06
0.000127907
-7.51997e-05
0.000164723
-0.000124935
0.000175178
-0.000127641
0.000189473
-0.000124516
0.000199489
-0.000114005
0.000220352
-0.000103554
0.000250592
-9.9133e-05
0.000285439
-0.000106104
0.000319577
-0.000113647
0.000355699
-0.000113795
0.000391081
-0.00010216
0.000412025
-9.11552e-05
0.000424884
-7.43058e-05
0.000409924
-4.90255e-05
0.000324131
-6.17558e-05
0.000245373
-5.49695e-05
8.39565e-05
-2.20029e-05
-0.000120377
-0.000311041
-3.05796e-05
-0.000282001
-5.48786e-05
-9.90288e-05
-5.88832e-05
-1.23357e-05
-5.09507e-05
1.85116e-05
-7.09746e-05
5.56345e-05
-0.000153567
0.000127197
-0.000220051
0.000174783
-0.000247098
0.000186095
-0.000257654
0.000184682
-0.000255044
0.00018667
-0.00024845
0.000191419
-0.000236592
0.000204456
-0.000221685
0.000229744
-0.000210028
0.000265607
-0.000202649
0.000301432
-0.000188619
0.000333544
-0.000161095
0.000359986
-0.00011951
0.000372657
-6.74133e-05
0.000374574
-5.06671e-06
0.000340758
-1.45724e-05
0.00031854
-3.19896e-05
0.000261445
-2.56778e-05
9.07436e-05
-1.12001e-05
-0.00012981
-0.000328022
-3.25233e-05
-0.00024382
-5.73402e-05
-6.78355e-05
-8.19529e-05
1.7696e-05
-0.000108028
5.49245e-05
-0.000162589
0.000107075
-0.000226204
0.000185692
-0.000270011
0.000212772
-0.000296834
0.000215422
-0.000317168
0.000206121
-0.000330262
0.000199835
-0.00033844
0.000200213
-0.000338465
0.000203693
-0.000325488
0.000214375
-0.00029766
0.000234713
-0.000261102
0.00026276
-0.000215469
0.000289416
-0.000154781
0.00030259
-7.82772e-05
0.000303581
-4.37657e-06
0.000305481
4.48573e-05
0.00029496
2.77584e-05
0.00033523
6.84132e-06
0.000281718
1.09985e-05
9.7549e-05
-6.90448e-06
-0.000132067
-0.000345879
-2.56622e-05
-0.000212581
-5.50836e-05
-3.26085e-05
-9.36677e-05
6.13751e-05
-0.000132927
0.000105122
-0.000179132
0.000160569
-0.000220529
0.000228174
-0.000253953
0.000246792
-0.000285119
0.00024874
-0.000311281
0.000233451
-0.000326785
0.000217679
-0.000335753
0.000210534
-0.000335167
0.000205587
-0.000320418
0.000203689
-0.000286892
0.000208377
-0.000236871
0.00022159
-0.000173461
0.000235873
-0.000103915
0.00024321
-4.03824e-05
0.000246886
6.71998e-06
0.000261035
2.10109e-05
0.000281178
2.59431e-05
0.000328209
5.16891e-05
0.000259216
5.07426e-05
8.93642e-05
2.27948e-06
-0.000114564
-0.000349581
-1.6054e-05
-0.000190552
-4.41319e-05
-8.77764e-07
-8.58329e-05
0.000104331
-0.000124592
0.000153074
-0.000150198
0.000205203
-0.00018404
0.000270625
-0.000221507
0.000286287
-0.000255791
0.000284395
-0.000289272
0.000266241
-0.000312645
0.000243223
-0.000326365
0.000228773
-0.000331937
0.000216998
-0.000324887
0.000204164
-0.000303865
0.000197176
-0.000266877
0.000197201
-0.000217471
0.000197735
-0.000166515
0.000200034
-0.00012293
0.000207439
-8.2461e-05
0.000224749
-4.2532e-05
0.000246146
1.73503e-05
0.000270726
7.58606e-05
0.000208597
7.13407e-05
8.66843e-05
2.48038e-05
-8.26672e-05
-0.000316795
-7.21648e-06
-0.000177866
-2.94003e-05
2.33636e-05
-6.62399e-05
0.000137169
-0.000100427
0.000191163
-0.000110632
0.00023373
-0.000119316
0.00029768
-0.000152513
0.000328781
-0.000202498
0.000332927
-0.00025538
0.000314699
-0.000299867
0.000285901
-0.000330495
0.000261277
-0.000353677
0.000244752
-0.000374668
0.000227698
-0.000391201
0.000211443
-0.000391339
0.000195196
-0.000362529
0.000172184
-0.000314574
0.000159321
-0.000254054
0.000157655
-0.000176277
0.000165423
-8.17122e-05
0.000178521
1.66148e-05
0.000194133
6.73076e-05
0.000172052
5.68902e-05
0.000102023
4.9555e-05
-5.27031e-05
-0.000259769
-1.5457e-06
-0.000173147
-1.37019e-05
3.83119e-05
-3.62775e-05
0.000155845
-6.78508e-05
0.000220139
-6.61936e-05
0.000243613
-3.54995e-05
0.000285898
-2.74044e-05
0.000337742
-5.60031e-05
0.000369954
-0.000118539
0.000371478
-0.00019221
0.000343359
-0.000254815
0.000309552
-0.000301999
0.000279842
-0.000342094
0.000253964
-0.00037436
0.000228679
-0.000396238
0.000202295
-0.000401097
0.000164649
-0.000383373
0.000136996
-0.000339611
0.000121429
-0.00026345
0.000111311
-0.000169357
0.000115314
-8.87214e-05
0.000139484
-4.68977e-05
0.000149394
-2.55731e-05
0.000100586
2.90855e-05
-7.37661e-05
-0.000227956
3.36093e-06
-0.000173514
-1.70483e-06
4.56899e-05
-4.99829e-06
0.000160453
-3.83385e-05
0.000239287
-3.62871e-05
0.000245265
1.23662e-05
0.000258362
7.7087e-05
0.000295793
0.000124739
0.000339748
0.000125281
0.000373987
7.7508e-05
0.000376385
2.0756e-06
0.000358508
-7.31862e-05
0.000324562
-0.000131775
0.000284484
-0.000178234
0.000246312
-0.000222029
0.000213831
-0.000259005
0.000175003
-0.000275667
0.000145465
-0.000266452
0.000127668
-0.000242553
0.000111019
-0.000221949
0.000112256
-0.000204913
0.000138618
-0.000184086
0.000145741
-0.000105892
6.37404e-05
-3.47362e-06
-0.000138645
-0.000225365
9.14972e-06
-0.000179673
4.64105e-06
4.82911e-05
1.59213e-05
0.000152627
-2.83791e-06
0.000244365
-9.76963e-06
0.000246101
2.55143e-05
0.000235117
8.964e-05
0.000250918
0.00015185
0.000293679
0.000178135
0.000352126
0.000164948
0.000385988
0.000130516
0.000381003
7.89858e-05
0.000358807
2.90025e-05
0.000317526
-1.11252e-05
0.000271581
-4.48057e-05
0.000233129
-7.74672e-05
0.000193455
-0.00010996
0.000166708
-0.000139818
0.00015311
-0.0001672
0.000146686
-0.000208749
0.000161848
-0.000238421
0.000174734
-0.000214521
0.000137887
-0.000115654
-8.50469e-06
-4.92263e-05
-0.000188399
-0.000261981
1.33674e-05
-0.000189303
7.36422e-06
4.97492e-05
2.46481e-05
0.000138815
3.18753e-05
0.00023454
2.78643e-05
0.000240129
5.12324e-05
0.000215535
8.8457e-05
0.000223406
0.000122038
0.000264551
0.000134665
0.000335534
0.000124129
0.000388091
0.000107623
0.000392899
8.68978e-05
0.000376824
6.9154e-05
0.000334625
5.41889e-05
0.000287332
3.77203e-05
0.000251493
1.0317e-05
0.000223406
-3.04735e-05
0.000209338
-7.24464e-05
0.000202582
-0.000127691
0.000205304
-0.000178371
0.000211934
-0.000196908
0.00018876
-0.000160554
9.68133e-05
-0.000105444
-7.76987e-05
-8.17754e-05
-0.000225057
-0.000342887
1.08748e-05
-0.000197346
4.46792e-06
5.08566e-05
1.86343e-05
0.00012776
3.91969e-05
0.000215863
4.6459e-05
0.000230668
6.05987e-05
0.000205203
6.83048e-05
0.000215948
5.30928e-05
0.000265763
3.19265e-05
0.00033473
2.83702e-05
0.000379921
3.39946e-05
0.000389458
4.42927e-05
0.000376258
4.85124e-05
0.000340417
4.10554e-05
0.000305597
2.37618e-05
0.000286592
-3.06196e-06
0.000273868
-4.28322e-05
0.000265428
-9.14074e-05
0.000252427
-0.000129295
0.000235912
-0.000132496
0.00020483
-0.000104034
0.000146343
-5.90473e-05
3.73996e-05
-5.37153e-05
-0.000109007
-5.73997e-05
-0.000248421
-0.000410244
5.04989e-06
-0.000200965
-1.1321e-07
5.21794e-05
3.8819e-06
0.000125426
2.51806e-05
0.000200549
3.3058e-05
0.000229641
3.09558e-05
0.000212686
5.55744e-06
0.000232933
-4.54493e-05
0.000293396
-7.98796e-05
0.000349114
-8.45139e-05
0.000378128
-7.8769e-05
0.000385806
-6.7926e-05
0.000376763
-6.29752e-05
0.000354846
-7.45591e-05
0.000337559
-9.69891e-05
0.000322274
-0.000117647
0.00030193
-0.000129666
0.000280166
-0.000135096
0.000254166
-0.000120644
0.000211936
-7.40031e-05
0.00014826
-1.30798e-05
7.48654e-05
2.31646e-05
-1.53234e-05
3.95103e-06
-0.000123746
-1.93077e-05
-0.000242171
-0.000427514
4.1085e-07
-0.000201514
-1.08542e-07
5.15959e-05
-5.32935e-06
0.000130335
1.09043e-05
0.00019344
7.30328e-06
0.000240155
-1.51983e-05
0.000237489
-4.42442e-05
0.000257446
-7.44626e-05
0.000314817
-8.72872e-05
0.000356773
-8.52878e-05
0.000376305
-7.5793e-05
0.000382532
-6.58526e-05
0.00037798
-6.80277e-05
0.000367753
-8.06088e-05
0.000357798
-9.5196e-05
0.000337109
-0.000107964
0.000306747
-0.000117426
0.000271504
-0.000130853
0.000234792
-0.000115543
0.000157578
-6.8821e-05
6.75856e-05
-1.20313e-05
-9.07232e-07
1.64228e-05
-6.32122e-05
1.93575e-05
-0.000141298
6.45452e-07
-0.000229305
-0.000419944
-1.68766e-06
-0.000200767
5.03457e-06
4.46946e-05
-1.04869e-05
0.000139843
-9.75765e-07
0.000189433
-9.73595e-06
0.000250086
-3.58245e-05
0.0002651
-5.39294e-05
0.000282229
-5.89577e-05
0.000323909
-5.88734e-05
0.000358805
-5.47793e-05
0.000373953
-4.44428e-05
0.000375767
-2.76811e-05
0.000368284
-7.33687e-06
0.000355482
1.15775e-05
0.000341805
1.87719e-05
0.0003197
1.85087e-05
0.00028352
1.49944e-05
0.000240806
2.52301e-06
0.000193872
-1.13422e-05
0.000113281
-1.5551e-05
3.70446e-05
-4.30251e-06
-2.88581e-05
5.58308e-06
-8.46946e-05
1.02111e-05
-0.000148088
8.56877e-06
-0.00021569
-0.000392878
-9.82284e-07
-0.000198962
8.74627e-06
3.331e-05
-2.96084e-06
0.000141677
1.53428e-08
0.000185901
5.022e-06
0.000245734
-7.61007e-06
0.000276187
-1.56206e-05
0.000299114
-5.31509e-06
0.000327366
1.16539e-05
0.000352851
2.6432e-05
0.000365509
4.03702e-05
0.000363311
5.59125e-05
0.000350088
7.96652e-05
0.000327766
0.000114464
0.000300624
0.000158415
0.000265731
0.000195811
0.000231376
0.000214003
0.000201102
0.000221694
0.000164874
0.000196773
0.000117451
0.000147639
6.74761e-05
0.000101164
-8.60917e-07
6.53309e-05
-5.85693e-05
3.84634e-05
-0.00011412
1.85099e-05
-0.000177215
-0.00036209
-1.77028e-06
-0.000196815
6.60305e-06
2.3266e-05
1.46478e-05
0.000128057
1.22538e-05
0.00017925
2.00345e-05
0.000233055
2.14553e-05
0.000273301
2.38479e-05
0.0003
3.78965e-05
0.000323895
6.06104e-05
0.000339774
8.6666e-05
0.000345516
0.000111559
0.000340286
0.000133111
0.000325873
0.000152743
0.000302999
0.000172561
0.000274291
0.000202201
0.000232344
0.000233796
0.000197193
0.000252849
0.000180272
0.000253285
0.000160986
0.000227705
0.000141054
0.000191707
0.000105748
0.000155599
3.68647e-05
0.000114446
-1.47921e-05
7.06521e-05
-6.38135e-05
2.37221e-05
-0.000125462
-0.000333578
-4.25334e-06
-0.000192945
3.10473e-06
1.42662e-05
1.84522e-05
0.00011085
2.25898e-05
0.000166094
2.35411e-05
0.000219772
2.17533e-05
0.000264812
2.5779e-05
0.00029254
3.81602e-05
0.000315426
6.06303e-05
0.000323139
8.90623e-05
0.000322955
0.00011987
0.000314331
0.000149259
0.000299347
0.000175094
0.000278243
0.000189975
0.000258829
0.000199715
0.000224782
0.000211844
0.000190613
0.000218599
0.000179685
0.00020599
0.00017542
0.00017798
0.000171799
0.000160362
0.000130405
0.000147555
6.1404e-05
0.000118374
2.38039e-05
7.70565e-05
-1.76881e-05
2.85221e-05
-7.59199e-05
-0.000297783
-4.56479e-06
-0.000186403
1.30571e-06
7.99302e-06
9.3309e-06
0.000101106
1.45268e-05
0.000156894
1.40543e-05
0.000210893
5.49059e-06
0.000257482
5.76481e-06
0.000283794
1.55818e-05
0.000303364
3.49877e-05
0.000307244
6.27503e-05
0.000302695
9.48336e-05
0.000290782
0.000126099
0.000275071
0.000152692
0.0002574
0.000169185
0.000246201
0.000172472
0.000223262
0.0001626
0.000202565
0.000143398
0.000200609
0.000105718
0.000215853
9.07111e-05
0.000194709
0.000117194
0.000123306
0.000123334
7.29311e-05
0.000103007
5.05947e-05
6.42459e-05
2.11706e-05
2.34455e-05
-3.3454e-05
-0.000269922
-1.14105e-05
-0.000172843
-6.39477e-06
6.94979e-06
-9.20689e-06
0.00010575
-1.85612e-05
0.000163423
-3.34807e-05
0.000218492
-5.08108e-05
0.000261425
-5.43289e-05
0.000276549
-3.81237e-05
0.000286298
-9.74426e-06
0.000285163
2.55382e-05
0.000276318
6.06748e-05
0.000265062
9.12813e-05
0.00025251
0.000113522
0.000241577
0.000128491
0.000235591
0.000127203
0.000226396
0.00010682
0.00022444
6.2477e-05
0.000243872