/*--------------------------------*- C++ -*----------------------------------*\
| =========                 |                                                 |
| \\      /  F ield         | OpenFOAM: The Open Source CFD Toolbox           |
|  \\    /   O peration     | Version:  2.3.0                                 |
|   \\  /    A nd           | Web:      www.OpenFOAM.org                      |
|    \\/     M anipulation  |                                                 |
\*---------------------------------------------------------------------------*/
FoamFile
{
    version     2.0;
    format      ascii;
    class       volScalarField;
    location    "15";
    object      rho;
}
// * * * * * * * * * * * * * * * * * * * * * * * * * * * * * * * * * * * * * //

dimensions      [1 -3 0 0 0 0 0];

internalField   nonuniform List<scalar> 
1875
(
876.455
871.223
860.58
844.225
827.21
805.185
779.687
768.812
773.506
762.798
740.464
726.241
738.023
758.378
773.61
766.744
763.954
788.497
806.593
824.729
850.091
872.466
889.468
899.297
902.237
908.741
908.741
896.643
854.893
793.951
728.691
713.577
725.103
773.776
829.763
840.137
856.771
856.334
852.004
784.76
745.295
745.19
746.168
819.813
882.189
909.003
921.467
922.145
911.314
896.125
908.741
873.229
780.223
712.488
703.106
703.526
703.106
739.25
787.082
839.808
857.527
857.208
855.878
856.832
820.198
772.529
749.986
720.203
721.342
737.754
780.089
845.938
880.906
880.336
845.419
908.74
811.268
717.495
703.105
703.526
711.224
734.545
778.291
817.912
856.188
871.197
856.291
855.846
856.918
847.078
823.196
796.824
765.55
741.951
723.085
699.117
699.759
767.352
848.616
830.209
908.599
823.613
723.081
706.918
725.52
746.689
783.964
824.231
853.131
875.757
882.455
864.194
859.551
859.542
860.185
855.971
846.083
829.107
801.467
761.268
712.263
701.285
742.12
800.135
824.269
876.773
865.228
776.182
733.676
762.571
795.129
834.049
861.981
876.714
887.676
891.667
885.523
877.663
876.175
877.383
875.423
872.136
865.403
844.651
797.215
717.394
701.603
738.798
753.674
826.125
853.026
865.205
845.301
781.87
780.853
821.458
852.796
865.085
878.284
893.927
906.041
912.315
910.079
907.297
905.168
900.466
889.289
867.925
838.372
783.351
694.685
698.127
736.617
742.695
826.35
853.962
852.576
845.68
817.01
794.138
819.085
853.268
866.831
883.375
909.561
924.413
929.478
926.383
918.254
909.382
900.916
886.515
860.241
818.862
754.292
678.82
692.473
743.709
752.826
829.484
854.866
812.246
814.697
810.105
790.08
815.459
859.766
883.025
908.326
930.471
935.131
934.284
917.175
890.734
874.096
878.047
866.064
837.147
792.883
723.132
678.978
698.869
751.386
751.886
836.905
862.248
778.063
784.198
795.349
779.7
820.95
878.016
914.698
935.09
935.131
935.09
914.869
868.723
847.545
847.196
846.874
841.101
816.816
779.218
716.77
678.819
712.133
750.885
737.445
841.638
873.644
777.89
792.061
797.798
779.056
818.475
889.491
931.236
935.131
935.09
920.28
884.79
864.616
854.732
850.168
844.228
833.487
807.753
766.554
712.023
681.617
710.494
729.8
700.65
847.853
882.917
779.243
787.093
800.508
786.43
802.004
869.067
924.856
935.09
912.645
896.117
894.214
893.064
885.784
870.193
853.174
834.008
805.247
764.784
717.46
692.303
700.372
692.828
692.488
859.824
888.138
791.793
758.217
800.711
801.735
803.427
824.604
870.749
904.627
886.005
889.451
894.613
903.133
913.589
914.529
889.397
852.789
823.235
792.503
754.686
721.618
696.039
691.186
695.275
869.702
889.026
800.764
735.983
757.147
787.32
799.348
802.347
814.124
840.977
835.833
823.147
808.744
870.258
930.616
930.275
922.255
900.44
881.034
848.969
813.546
775.763
716.686
695.692
733.934
873.254
889.026
790.464
732.388
732.554
736.355
760.148
774.309
773.747
778.084
775.972
762.816
732.663
736.341
749.236
792.843
897.59
940.228
939.274
910.104
876.929
832.372
750.798
717.687
825.417
875.398
884.23
778.69
734.402
734.407
749.963
764.849
764.69
761.74
758.167
752.468
743.215
727.874
714.27
714.03
714.27
740.593
824.704
910.369
940.45
940.535
899.653
794.966
760.083
864.086
864.014
864.174
786.18
745.183
757.946
796.15
802.104
787.943
774.268
764.59
756.621
746.458
733.087
722.176
716.862
714.772
717.032
733.837
796.747
888.262
935.573
935.506
865.075
809.422
843.477
846.751
850.32
806.796
787.486
823.053
864.444
854.363
826.893
800.784
787.733
777.844
767.408
755.588
745.256
738.265
736.259
735.722
741.5
759.87
811.923
897.645
935.371
873.122
816.241
826.471
841.288
844.891
827.568
847.343
898.906
915.079
897.271
856.775
818.99
806.112
806.036
801.258
794.133
784.856
774.804
761.946
748.967
749.302
763.636
815.6
906.156
933.648
855.885
797.783
831.499
841.302
842.863
839.883
901.068
931.542
914.749
881.02
843.795
820.915
811.803
805.713
799.06
790.877
782.262
774.519
767.536
762.44
767.952
795.647
856.076
910.189
913.577
818.367
797.207
841.965
842.486
843.843
839.148
901.382
933.322
905.268
857.274
827.577
814.924
807.573
803.057
799.881
796.553
794.916
795.382
798.036
802.108
814.632
847.946
890.36
905.275
866.478
817.307
831.429
842.486
842.486
848.67
844.467
880.603
933.399
905.76
848.16
822.63
812.893
808.319
810.959
817.255
826.766
836.572
844.6
851.711
858.878
868.061
881.063
889.239
880.812
831.626
825.549
842.486
842.486
842.486
851.243
848.774
854.761
917.806
915.082
861.494
824.683
810.149
808.8
809.326
818.175
833.395
852.169
876.015
888.748
889.186
889.095
882.789
868.384
846.412
820.094
829.308
834.16
828.628
838.723
851.491
842.398
838.898
891.397
915.417
877.93
830.482
811.948
810.794
811.061
817.867
829.101
841.679
860.653
881.307
889.13
889.221
889.13
865.586
832.086
810.287
806.329
796.539
783.926
837.658
852.203
831.126
829.214
865.938
914.355
896.017
841.843
817.1
816.569
819.472
824.737
833.833
842.452
849.628
859.078
880.159
889.13
889.185
879.322
844.459
810.96
783.261
769.232
770.011
839.415
859.673
826.329
812.329
836.287
898.418
895.447
864.2
828.096
814.83
816.658
831.954
847.598
855.772
858.223
859.119
863.978
881.587
889.129
888.993
867.316
819.889
789.19
792.935
771.704
838.98
866.522
828.845
808.065
799.951
847.052
879.927
866.153
840.37
808.474
797.134
806.61
811.741
817.793
845.659
857.162
857.207
863.163
881.823
886.312
866.199
814.635
812.142
810.4
771.186
849.463
866.564
833.255
812.591
781.365
787.97
819.345
835.99
827.628
809.905
796.02
765.002
747.622
751.779
772.04
826.642
847.546
852.547
865.162
879.834
855.48
809.835
810.726
784.597
775.857
858.424
858.529
836.796
810.187
781.897
784.186
792.264
807.02
812.316
804.851
769.521
744.624
751.779
744.659
751.779
792.26
836.079
846.07
858.581
871.628
839.14
797.985
773.945
687.072
803.113
860.556
844.367
834.854
810.698
813.278
825.064
829.219
827.515
828.579
805.416
745.878
751.779
744.972
751.779
752.479
800.251
829.906
840.333
853.531
856.949
816.617
766.782
677.771
660.887
831.185
860.556
836.693
825.667
811.264
861.444
880.422
879.886
836.398
771.103
751.589
751.778
749.931
751.778
750.649
767.338
802.454
823.989
836.287
846.597
832.112
772.165
696.397
610.067
664.258
853.85
860.555
834.737
822.26
828.103
889.007
885.228
834.991
776.11
753.585
753.649
756.95
757.064
756.312
758.123
773.056
797.221
816.77
829.789
835.412
804.226
731.328
621.84
608.637
714.326
844.536
856.265
835.884
822.71
843.058
889.773
853.807
778.948
755.215
758.379
765.977
769.263
768.731
766.09
765.862
774.143
790.886
808.508
819.621
822.885
786.165
723.765
613.581
610.011
777.034
793.324
836.663
840.345
822.688
848.581
889.113
825.155
765.291
755.634
769.643
783.802
786.951
783.983
779.565
779.089
784.026
795.364
804.634
808.421
803.5
764.734
702.608
613.227
637.949
783.632
786.511
832.613
846.91
819.828
842.184
886.192
830.551
769.75
758.363
779.518
806.297
812.463
812.639
810.596
810.844
812.428
811.078
806.461
799.502
780.641
745.983
696.284
635.289
701.395
786.367
786.535
834.452
851.324
815.98
821.845
880.566
846.306
783.373
766.213
774.468
811.368
835.812
843.209
844.099
842.284
832.341
821.094
812.335
802.28
787.488
768.155
746.092
726.966
770.676
787.986
794.515
836.758
852.194
813.306
791.053
867.257
871.263
810.092
780.685
773.425
793.653
827.095
839.981
842.308
838.654
831.221
828.775
829.742
829.294
830.686
832.568
830.756
819.04
807.005
795.847
825.272
850.758
852.213
810.572
785.571
826.837
877.367
855.63
812.201
787.889
789.394
796.039
813.674
820.774
817.628
807.85
802.828
820.332
848.325
869.657
872.32
870.047
844.754
822.109
827.126
861.601
863.179
852.631
803.795
785.845
759.224
877.131
890.464
860.384
829.002
800.068
792.08
788.791
790.391
786.77
777.937
776.555
780.717
812.644
853.605
872.165
870.41
847.699
839.172
859.519
867.754
867.754
852.786
793.025
790.497
749.328
841.158
891.975
891.462
869.243
826.422
795.119
784.446
780.029
779.562
777.43
776.683
778.589
793.865
836.385
869.522
861.776
846.814
850.431
860.014
856.972
858.792
852.681
778.639
799.652
749.675
798.142
887.311
891.589
866.195
820.767
790.17
785.466
783.82
785.055
786.2
793.249
799.893
806.26
832.348
852.183
849.105
840.427
843.131
827.979
804.669
832.495
852.681
763.33
806.554
760.289
799.423
878.353
876.667
839.169
801.711
789.628
789.013
793.842
803.239
813.185
820.334
822.514
823.706
833.258
840.284
837.905
833.021
828.992
794.64
784.214
821.213
849.674
753.196
806.701
789.818
809.062
865.533
847.319
810.199
794.192
792.428
800.275
811.434
820.412
821.295
820.953
818.188
814.633
812.07
811.578
812.839
817.652
814.546
787.915
784.261
819.796
843.212
748.731
795.091
805.94
807.605
859.045
841.159
809.06
796.929
797.615
811.913
821.278
821.294
821.334
809.61
787.391
759.36
702.893
728.388
758.08
776.784
792.333
791.317
789.939
820.71
839.891
745.563
751.571
805.699
803.877
851.528
845.587
816.631
805.122
803.556
812.088
818.672
820.752
819.011
799.7
767.617
710.098
690.029
690.093
692.121
710.829
755.399
788.208
792.653
821.048
837.701
744.278
710.622
781.431
794.024
840.404
845.628
831.808
816.118
809.554
812.513
814.796
815.294
811.665
799.994
774.88
726.943
693.773
690.029
692.697
702.299
743.939
782.34
782.332
821.452
836.804
743.733
709.304
723.118
756.821
815.148
843.438
838.671
827.417
818.107
816.629
816.986
816.287
812.221
804.345
788.524
756.489
714.678
696.218
700.208
722.666
766.266
782.227
770.37
822.915
836.963
747.462
709.585
708.903
709.586
762.57
830.112
836.053
834.322
829.934
827.783
826.036
823.418
817.971
809.789
796.153
774.221
730.453
710.088
730.025
769.918
791.892
782.535
760.241
825.564
836.253
754.611
718.474
709.585
708.982
718.018
802.79
830.816
840.879
845.025
846.223
843.19
837.482
828.215
816.893
802.439
773.379
729.235
738.027
790.346
810.974
802.982
777.427
750.518
829.504
836.148
762.296
736.48
712.599
709.585
716.176
785.549
829.569
848.405
857.032
857.239
856.531
852.071
841.402
828.314
811.552
772.122
730.319
770.729
820.683
820.644
804.012
770.832
743.258
832.542
837.748
777.411
742.239
724.863
712.871
714.058
774.427
827.327
850.567
857.239
857.53
857.239
857.266
852.519
842.236
822.043
769.977
731.366
770.854
820.206
820.683
803.041
760.436
738.765
833.409
839.733
796.647
741.095
735.503
722.93
713.688
748.728
812.517
845.942
857.956
857.239
857.772
857.239
854.346
844.589
820.305
759.592
733.826
764.022
808.981
821.211
803.774
743.581
734.145
831.872
839.194
810.631
740.766
735.296
731.991
715.764
719.263
772.506
824.131
857.238
858.643
857.238
857.629
852.488
837.999
804.998
746.69
740.836
765.04
801.295
815.312
794.879
721.573
729.748
829.805
837.155
819.721
748.992
734.005
731.443
719.385
716.914
736.295
787.077
842.461
857.238
858.672
855.799
838.459
813.454
774.402
747.989
754.631
774.68
802.035
807.672
766.649
714.037
728.16
828.547
837.021
825.696
770.676
735.178
728.072
720.447
716.874
727.411
764.37
816.986
858.929
857.238
840.982
810.021
784.216
766.184
759.743
775.925
794.21
804.805
797.145
727.888
714.394
728.895
828.346
838.876
827.561
783.168
737.537
723.555
719.99
718.135
728.994
757.798
796.558
852.81
853.378
810.618
773.281
762.077
770.25
784.06
803.415
810.633
806.651
773.351
714.394
713.878
730.834
829.199
840.171
822.405
784.815
744.056
723.492
719.887
720.597
731.89
755.03
778.869
818.79
822.787
780.01
757.453
757.312
776.218
801.906
810.769
810.855
802.633
739.767
713.922
714.394
734.014
830.413
840.235
816.874
789.891
755.497
726.434
720.354
721.848
731.598
750.543
765.7
778.069
781.578
763.573
757.312
757.169
771.157
799.825
810.888
810.348
790.349
721.243
714.393
714.289
737.956
831.11
840.268
815.535
797.324
777.713
743.692
726.738
723.928
728.368
741.985
755.174
762.312
764.94
761.037
757.215
757.025
759.682
789.263
810.768
805.6
767.144
717.277
714.76
714.542
740.069
830.076
841.023
815.729
804.955
803.583
786.324
754.772
737.717
731.306
731.856
739.113
752.046
760.736
759.871
758.53
756.878
755.304
772.598
806.881
793.35
739.887
715.724
715.735
714.28
738.534
828.788
844.094
824.314
813.658
815.042
815.857
805.79
778.952
752.825
736.424
736.439
736.523
748.6
759.24
761.649
759.212
755.302
757.081
784.694
781.715
729.107
715.714
714.543
714.392
739.744
830.415
846.435
836.858
828.069
818.811
815.509
814.636
812.258
792.896
762.32
740.109
737.329
740.125
752.451
762.188
764.348
760.836
757.221
759.621
757.61
737.457
721.651
714.392
714.199
744.303
831.205
850.313
847.354
835.481
806.645
766.435
776.548
800.757
801.182
792.317
762.911
737.552
737.884
746.907
761.202
771.436
770.428
762.862
753.168
740.779
732.29
724.053
717.782
719.462
750.602
829.144
851.505
851.535
825.2
756.897
739.778
740.032
773.053
792.558
787.964
763.166
737.884
738.064
746.683
763.333
776.273
775.347
765.978
747.542
733.001
732.57
729.751
725.14
728.069
754.198
827.485
851.831
851.901
791.184
739.777
739.448
739.777
744.958
758.323
760.308
746.378
738.116
739.474
753.41
771.74
776.434
774.463
762.371
740.896
735.187
738.51
738.466
735.245
735.537
756.959
830.494
852.186
852.217
781.982
744.83
739.125
740.125
745.308
746.06
741.307
740.496
740.576
747.908
761.084
767.821
769.304
759.606
749.205
741.965
745.675
754.791
753.702
748.334
745.989
762.405
829.715
852.533
846.869
712.96
679.511
706.22
730.312
746.633
753.161
753.251
753.358
758.577
765.57
767.967
768.397
768.867
768.397
766.082
764.866
765.56
765.806
766.025
766.291
766.528
777.579
821.418
582.437
529.731
402.63
350.603
335.623
362.954
412.801
467.917
520.644
562.487
605.948
632.989
653.862
664.133
669.678
666.313
667.266
662.822
663.742
651.522
628.549
601.646
586.705
572.291
552.498
81.9164
95.4508
84.2205
63.9899
42.0511
31.0868
23.5962
19.2702
20.7439
27.7719
35.5635
44.1121
55.0785
63.3361
73.8429
78.8625
85.659
84.1828
82.801
78.5304
75.8286
72.2631
70.2275
67.8249
67.3883
4.21803
5.00159
5.12297
4.27245
2.63883
1.79035
1.29036
1.10311
1.07171
1.07515
1.08847
1.12176
1.16695
1.22654
1.31213
1.40272
1.5001
1.55928
1.58352
1.58925
1.61598
1.68022
1.7249
1.66315
1.5851
1.03293
1.04086
1.04612
1.04381
1.01977
1.00805
1.01101
1.02338
1.04482
1.06984
1.0999
1.13642
1.15289
1.15372
1.15405
1.1543
1.15436
1.15433
1.15425
1.15407
1.1538
1.15306
1.15215
1.14723
1.11313
0.994421
0.9949
0.996842
1.00184
1.01406
1.0397
1.0807
1.1024
1.13094
1.14916
1.15666
1.15807
1.15844
1.15854
1.15856
1.15857
1.15857
1.15856
1.15854
1.15845
1.15797
1.15508
1.15213
1.14613
1.10956
0.994271
0.995385
1.00138
1.02178
1.07625
1.12716
1.147
1.15475
1.15799
1.15845
1.15856
1.1586
1.15861
1.15862
1.15862
1.15863
1.15863
1.15863
1.15862
1.15859
1.15816
1.15486
1.14189
1.14051
1.10486
0.99472
0.998145
1.01475
1.05652
1.1135
1.14289
1.15395
1.15784
1.15852
1.15861
1.15862
1.15862
1.15862
1.15863
1.15863
1.15863
1.15863
1.15863
1.15862
1.15861
1.15841
1.1546
1.13039
1.12953
1.09446
0.996003
1.00318
1.02492
1.06471
1.10968
1.14187
1.15691
1.15856
1.15862
1.15862
1.15862
1.15862
1.15862
1.15862
1.15862
1.15862
1.15862
1.15862
1.15862
1.15862
1.1586
1.15769
1.13133
1.10003
1.06085
)
;

boundaryField
{
    inlet
    {
        type            calculated;
        value           nonuniform List<scalar> 
25
(
514.172
514.171
514.171
514.171
514.171
514.171
514.171
514.171
514.171
514.171
514.171
514.171
514.171
514.171
514.171
514.171
514.171
514.171
514.171
514.171
514.171
514.171
514.171
514.172
514.172
)
;
    }
    outlet
    {
        type            calculated;
        value           nonuniform List<scalar> 
25
(
0.996009
1.0029
1.02384
1.06238
1.10681
1.15862
1.15862
1.15862
1.15862
1.15862
1.15862
1.15862
1.15862
1.15862
1.15862
1.15862
1.15862
1.15862
1.15862
1.15862
1.15862
1.15862
1.13067
1.09796
1.05756
)
;
    }
    walls
    {
        type            calculated;
        value           nonuniform List<scalar> 
150
(
876.455
908.741
908.741
908.74
908.599
876.773
853.026
853.962
854.866
862.248
873.644
882.917
888.138
889.026
889.026
884.23
864.174
850.32
844.891
842.863
843.843
848.67
851.243
851.491
852.203
859.673
866.522
866.564
858.529
844.367
836.693
834.737
835.884
840.345
846.91
851.324
852.194
852.213
852.631
852.786
852.681
852.681
849.674
843.212
839.891
837.701
836.804
836.963
836.253
836.148
837.748
839.733
839.194
837.155
837.021
838.876
840.171
840.235
840.268
841.023
844.094
846.435
850.313
851.505
851.831
852.186
852.533
582.437
81.9164
4.21803
1.03293
0.994421
0.994271
0.99472
0.996003
902.237
896.125
845.419
830.209
824.269
826.125
826.35
829.484
836.905
841.638
847.853
859.824
869.702
873.254
875.398
864.014
846.751
841.288
841.302
842.486
842.486
842.486
838.723
837.658
839.415
838.98
849.463
858.424
860.556
860.556
860.555
856.265
836.663
832.613
834.452
836.758
850.758
863.179
867.754
858.792
832.495
821.213
819.796
820.71
821.048
821.452
822.915
825.564
829.504
832.542
833.409
831.872
829.805
828.547
828.346
829.199
830.413
831.11
830.076
828.788
830.415
831.205
829.144
827.485
830.494
829.715
821.418
552.498
67.3883
1.5851
1.11313
1.10956
1.10486
1.09446
1.06085
)
;
    }
    defaultFaces
    {
        type            empty;
    }
}


// ************************************************************************* //
