/*--------------------------------*- C++ -*----------------------------------*\
| =========                 |                                                 |
| \\      /  F ield         | OpenFOAM: The Open Source CFD Toolbox           |
|  \\    /   O peration     | Version:  2.3.0                                 |
|   \\  /    A nd           | Web:      www.OpenFOAM.org                      |
|    \\/     M anipulation  |                                                 |
\*---------------------------------------------------------------------------*/
FoamFile
{
    version     2.0;
    format      ascii;
    class       volScalarField;
    location    "0.172";
    object      alpha.water;
}
// * * * * * * * * * * * * * * * * * * * * * * * * * * * * * * * * * * * * * //

dimensions      [0 0 0 0 0 0 0];

internalField   nonuniform List<scalar> 
545
(
1
1
1
1
1
1
1
1
1
1
1
1
1
1
1
1
1
1
1
1
1
1
1
1
1
1
1
1
1
1
1
1
1
1
1
1
1
1
1
1
1
1
1
1
1
1
1
1
1
1
1
1
1
1
1
1
1
1
1
1
1
1
1
1
1
1
1
1
1
1
1
1
1
1
1
1
1
1
1
1
1
1
1
1
1
1
1
1
1
1
1
1
1
1
1
1
1
1
1
1
1
1
1
1
1
1
1
1
1
1
1
1
1
1
1
1
1
1
1
1
0.999999
0.999999
0.999999
0.999999
0.999999
0.999999
0.999999
0.999999
0.999999
0.999999
0.999999
0.999999
0.999999
0.999999
0.999999
0.999999
0.999999
0.999999
0.999999
0.999999
0.999999
0.999999
0.999999
0.999999
0.999999
0.999999
0.999999
0.999999
0.999999
0.999999
0.999999
0.999999
0.999999
0.999999
0.999999
0.999999
0.999999
0.999999
0.999999
0.999999
1
1
0.999986
0.999963
0.999955
0.999951
0.999946
0.999941
0.999938
0.999936
0.999936
0.999936
0.999937
0.999938
0.999938
0.999939
0.999939
0.999939
0.999938
0.999938
0.999938
0.999938
0.999938
0.999938
0.999938
0.999938
0.999938
0.999938
0.999938
0.999938
0.999938
0.999938
0.999938
0.999938
0.999938
0.999938
0.999938
0.999938
0.999938
0.999938
0.999938
0.999938
0.999938
0.999938
0.999938
1
1
0.998432
0.996462
0.996356
0.996697
0.99655
0.995905
0.995412
0.995168
0.9951
0.995145
0.995241
0.995341
0.995415
0.995455
0.995463
0.995451
0.995431
0.995411
0.995397
0.99539
0.995389
0.995392
0.995395
0.995399
0.9954
0.9954
0.995399
0.995397
0.995395
0.995394
0.995394
0.995394
0.995394
0.995394
0.995394
0.995393
0.995393
0.995392
0.995392
0.995392
0.995392
0.995393
0.995392
0.278466
0.377354
0.391627
0.404286
0.634834
0.996847
0.878943
0.497867
0.494283
0.491224
0.492161
0.50324
0.839816
0.965057
0.744996
0.444839
0.470886
0.541219
0.515219
0.515235
0.662596
0.81375
0.629593
0.627081
0.628284
0.655306
0.939345
0.966302
0.558926
0.430784
0.478571
0.477084
0.477567
0.477166
0.798043
0.995614
0.990316
0.683387
0.381661
0.402829
0.468644
0.447536
0.447545
0.544884
0.885695
1
1
1
1
1
1
1
1
1
1
1
1
1
1
1
1
1
1
1
1
1
1
1
1
1
1
1
0.998436
0.99645
0.996374
0.99672
0.996567
0.995915
0.995417
0.995169
0.995099
0.995143
0.995239
0.995338
0.995411
0.995448
0.995456
0.995442
0.995421
0.9954
0.995386
0.995378
0.995376
0.995377
0.99538
0.995383
0.995385
0.995383
0.99538
0.995376
0.995373
0.99537
0.995369
0.995369
0.995371
0.995371
0.99537
0.995366
0.995364
0.99536
0.995359
0.995357
0.995358
0.995359
0.995358
1
1
0.999986
0.999963
0.999955
0.999951
0.999946
0.999941
0.999938
0.999936
0.999936
0.999936
0.999937
0.999938
0.999938
0.999939
0.999939
0.999938
0.999938
0.999938
0.999938
0.999938
0.999938
0.999938
0.999938
0.999938
0.999938
0.999938
0.999938
0.999938
0.999938
0.999938
0.999938
0.999938
0.999938
0.999938
0.999938
0.999938
0.999938
0.999938
0.999938
0.999938
0.999938
0.999938
0.999938
1
1
1
1
1
0.999999
0.999999
0.999999
0.999999
0.999999
0.999999
0.999999
0.999999
0.999999
0.999999
0.999999
0.999999
0.999999
0.999999
0.999999
0.999999
0.999999
0.999999
0.999999
0.999999
0.999999
0.999999
0.999999
0.999999
0.999999
0.999999
0.999999
0.999999
0.999999
0.999999
0.999999
0.999999
0.999999
0.999999
0.999999
0.999999
0.999999
0.999999
0.999999
0.999999
1
1
1
1
1
1
1
1
1
1
1
1
1
1
1
1
1
1
1
1
1
1
1
1
1
1
1
1
1
1
1
1
1
1
1
1
1
1
1
1
1
1
1
1
1
1
1
1
1
1
1
1
1
1
1
1
1
1
1
1
1
1
1
1
1
1
1
1
1
1
1
1
1
1
1
1
1
1
1
1
1
1
1
1
1
1
1
1
1
1
)
;

boundaryField
{
    AirInlet
    {
        type            fixedValue;
        value           uniform 0;
    }
    WaterInlet
    {
        type            fixedValue;
        value           uniform 1;
    }
    ChannelWall
    {
        type            zeroGradient;
    }
    Outlet
    {
        type            inletOutlet;
        inletValue      uniform 0;
        value           nonuniform List<scalar> 
11
(
1
1
0.999999
0.999938
0.995392
0.885695
0.995358
0.999938
0.999999
1
1
)
;
    }
    FrontAndBack
    {
        type            empty;
    }
}


// ************************************************************************* //
