/*--------------------------------*- C++ -*----------------------------------*\
| =========                 |                                                 |
| \\      /  F ield         | OpenFOAM: The Open Source CFD Toolbox           |
|  \\    /   O peration     | Version:  2.3.0                                 |
|   \\  /    A nd           | Web:      www.OpenFOAM.org                      |
|    \\/     M anipulation  |                                                 |
\*---------------------------------------------------------------------------*/
FoamFile
{
    version     2.0;
    format      ascii;
    class       volScalarField;
    location    "0.86";
    object      alpha.air;
}
// * * * * * * * * * * * * * * * * * * * * * * * * * * * * * * * * * * * * * //

dimensions      [0 0 0 0 0 0 0];

internalField   nonuniform List<scalar> 
6000
(
0.5829
0.537661
0.537661
0.537661
0.542128
0.537188
0.537188
0.53717
0.537179
0.537177
0.537168
0.53715
0.537136
0.53715
0.537165
0.537181
0.537198
0.573254
0.577723
0.5761
0.54716
0.540589
0.540589
0.540589
0.548802
0.609552
0.568769
0.568751
0.568748
0.568741
0.582904
0.55985
0.55412
0.546753
0.546711
0.538054
0.537169
0.537173
0.537161
0.537168
0.537151
0.537137
0.53712
0.592212
0.566383
0.537197
0.54056
0.577503
0.577722
0.577503
0.577501
0.563551
0.541051
0.549351
0.644381
0.711585
0.672197
0.631448
0.676328
0.568742
0.545571
0.540034
0.539398
0.539112
0.53882
0.538535
0.550036
0.576577
0.62481
0.637572
0.625584
0.609609
0.666468
0.719839
0.649673
0.545031
0.537015
0.537704
0.537411
0.537704
0.536527
0.537706
0.536873
0.615898
0.711183
0.708522
0.713406
0.708522
0.711472
0.603098
0.540271
0.539978
0.53969
0.539399
0.578447
0.641199
0.679105
0.717885
0.724206
0.72783
0.724151
0.727077
0.724097
0.728034
0.723958
0.600284
0.537704
0.536948
0.537703
0.536297
0.537705
0.549319
0.640865
0.710707
0.708487
0.713624
0.708576
0.713957
0.708522
0.617191
0.540562
0.540272
0.541353
0.607817
0.687484
0.723606
0.726131
0.724262
0.728644
0.724207
0.729083
0.724152
0.729113
0.724097
0.724676
0.623942
0.536558
0.537703
0.536287
0.557781
0.614809
0.682788
0.710028
0.708522
0.713333
0.708557
0.714332
0.708576
0.711376
0.590104
0.632664
0.608144
0.644339
0.700943
0.723513
0.72504
0.724318
0.727661
0.724262
0.729116
0.724207
0.729253
0.724152
0.727578
0.724097
0.583543
0.537704
0.536287
0.636656
0.696898
0.708467
0.709043
0.708522
0.711519
0.708576
0.714103
0.70863
0.714259
0.708576
0.548407
0.773888
0.746027
0.744813
0.731716
0.724403
0.724373
0.726412
0.724318
0.728633
0.724262
0.729262
0.724207
0.729352
0.724152
0.696936
0.537705
0.536461
0.653198
0.709562
0.708467
0.708737
0.708522
0.709385
0.708576
0.712496
0.70863
0.714274
0.70863
0.711503
0.534888
0.797105
0.787414
0.765709
0.738669
0.722371
0.725011
0.724318
0.727358
0.724262
0.728704
0.724207
0.729309
0.724152
0.727198
0.639678
0.537293
0.591531
0.709872
0.708412
0.704088
0.677601
0.680525
0.708576
0.710429
0.70863
0.71324
0.708676
0.714156
0.708629
0.534852
0.79705
0.787853
0.764055
0.74267
0.721828
0.724318
0.726172
0.724262
0.727861
0.724207
0.728616
0.724152
0.72934
0.724097
0.598572
0.537706
0.674328
0.708359
0.708821
0.652531
0.608392
0.62998
0.691562
0.708576
0.711328
0.70863
0.713706
0.70863
0.711318
0.534663
0.796904
0.785735
0.749687
0.735865
0.72187
0.724896
0.724262
0.72674
0.724207
0.727718
0.724152
0.728475
0.724097
0.727196
0.606347
0.554931
0.707494
0.709811
0.695884
0.591633
0.555194
0.596955
0.64812
0.709007
0.708576
0.712031
0.70863
0.713057
0.708575
0.534735
0.796884
0.779042
0.720569
0.716116
0.717515
0.724262
0.726087
0.724207
0.727183
0.724152
0.727631
0.724097
0.728258
0.724043
0.648529
0.616925
0.707656
0.708304
0.666071
0.564982
0.540798
0.579745
0.605854
0.673551
0.709427
0.708576
0.712104
0.708576
0.710181
0.554425
0.796749
0.764278
0.688436
0.683733
0.697669
0.724579
0.724207
0.726316
0.724152
0.727087
0.724097
0.727451
0.724043
0.72735
0.697878
0.66633
0.706468
0.708557
0.643804
0.563542
0.540954
0.561118
0.567808
0.602733
0.688129
0.709633
0.708576
0.710849
0.708522
0.589904
0.794243
0.737757
0.658573
0.642583
0.66369
0.720785
0.725453
0.724152
0.726403
0.724097
0.726849
0.724043
0.72729
0.723989
0.724
0.682552
0.678114
0.691193
0.646546
0.575613
0.536322
0.529582
0.523749
0.530739
0.60478
0.68924
0.709243
0.708522
0.702942
0.582707
0.765506
0.696753
0.623026
0.599342
0.622112
0.698313
0.724152
0.725531
0.724097
0.726077
0.724043
0.726583
0.723989
0.727024
0.723935
0.658304
0.604801
0.63946
0.64034
0.590403
0.518478
0.490151
0.483604
0.483412
0.511072
0.601746
0.67092
0.684924
0.633581
0.53142
0.702614
0.636931
0.576051
0.555836
0.574674
0.652468
0.720509
0.724097
0.725237
0.724043
0.725787
0.723989
0.726632
0.723935
0.716508
0.603262
0.524854
0.570535
0.610941
0.590474
0.505463
0.467935
0.465999
0.466115
0.466432
0.502391
0.569813
0.593347
0.5139
0.507474
0.621295
0.562765
0.519467
0.509508
0.520612
0.582296
0.68627
0.722546
0.724043
0.724628
0.723989
0.725451
0.723935
0.726561
0.701765
0.548532
0.490107
0.508678
0.55839
0.578991
0.506724
0.466003
0.466124
0.466035
0.466163
0.470333
0.497449
0.516391
0.507486
0.507476
0.542948
0.49429
0.474861
0.473066
0.477605
0.502666
0.602416
0.680481
0.706149
0.718734
0.724399
0.723935
0.725645
0.723881
0.699868
0.513922
0.482555
0.480033
0.505294
0.544291
0.508279
0.466192
0.50302
0.582334
0.587075
0.589513
0.610152
0.620705
0.614736
0.545688
0.485764
0.459062
0.453574
0.453827
0.455878
0.462367
0.498977
0.588676
0.648817
0.681856
0.707638
0.720586
0.723881
0.72569
0.700731
0.506652
0.482507
0.474806
0.477615
0.502626
0.514582
0.558348
0.716255
0.790731
0.791847
0.790375
0.793896
0.792657
0.780835
0.726333
0.456294
0.446652
0.446021
0.447189
0.44851
0.449968
0.456975
0.493059
0.565859
0.619878
0.658151
0.681815
0.717745
0.723827
0.69393
0.502166
0.479865
0.474843
0.470212
0.482481
0.511495
0.652857
0.807981
0.834854
0.834914
0.834854
0.834914
0.834854
0.813769
0.750414
0.444883
0.444577
0.444591
0.446819
0.448682
0.449869
0.450248
0.457474
0.4954
0.555695
0.592098
0.608663
0.665821
0.722647
0.667634
0.4963
0.473707
0.473545
0.468034
0.472652
0.502587
0.657642
0.795073
0.82266
0.82464
0.82827
0.82842
0.826424
0.796022
0.717333
0.444549
0.444554
0.444867
0.448197
0.450588
0.452591
0.45278
0.453464
0.468108
0.509876
0.535967
0.542031
0.568479
0.672024
0.608327
0.483589
0.468457
0.465723
0.462012
0.462244
0.490788
0.634958
0.757135
0.786542
0.791797
0.799054
0.799874
0.796416
0.760255
0.685019
0.444538
0.444576
0.447838
0.451524
0.45283
0.455571
0.457052
0.456032
0.465786
0.488473
0.499679
0.496278
0.490842
0.561173
0.522291
0.467246
0.460705
0.460412
0.460551
0.460348
0.478444
0.593325
0.704585
0.736584
0.745017
0.753335
0.75534
0.752036
0.718178
0.657388
0.444761
0.446875
0.454081
0.457252
0.455651
0.457577
0.459906
0.459602
0.464936
0.474632
0.473743
0.466353
0.459963
0.47342
0.466055
0.460568
0.460025
0.460546
0.459283
0.460553
0.465798
0.544204
0.644887
0.6782
0.690085
0.699459
0.703113
0.701166
0.674222
0.625368
0.527983
0.48856
0.464201
0.467093
0.459662
0.459641
0.460052
0.458645
0.45952
0.461663
0.456899
0.45113
0.451742
0.458682
0.462295
0.460016
0.460615
0.45892
0.460542
0.458907
0.460585
0.503774
0.579597
0.611445
0.627909
0.639214
0.64519
0.645359
0.627583
0.5897
0.779212
0.707206
0.558183
0.47413
0.460295
0.458993
0.457929
0.453661
0.452798
0.453947
0.450862
0.450916
0.460027
0.485718
0.483611
0.495156
0.547988
0.485218
0.458919
0.460543
0.459899
0.479731
0.52035
0.545078
0.563545
0.576594
0.585123
0.588314
0.581916
0.555235
0.88464
0.869224
0.804104
0.667053
0.517646
0.460167
0.450702
0.45065
0.450673
0.453357
0.450909
0.456321
0.521139
0.606649
0.61762
0.662686
0.739479
0.699826
0.56917
0.459094
0.460577
0.47323
0.488695
0.499937
0.513275
0.524541
0.533773
0.540633
0.544541
0.527875
0.88429
0.883398
0.878378
0.844406
0.727217
0.518031
0.450773
0.450666
0.450679
0.458497
0.453453
0.469993
0.586485
0.726717
0.758835
0.762323
0.760201
0.764416
0.757538
0.590563
0.474286
0.475711
0.481754
0.486991
0.492492
0.498272
0.504975
0.512724
0.52002
0.510448
0.857745
0.864959
0.864363
0.844724
0.796541
0.655601
0.451418
0.453085
0.457067
0.474938
0.459475
0.467768
0.591384
0.759144
0.763265
0.760201
0.764097
0.760201
0.764503
0.72038
0.537557
0.48028
0.484006
0.48808
0.491209
0.494046
0.498073
0.503176
0.507642
0.500843
0.810296
0.830637
0.830703
0.80498
0.751998
0.688669
0.567894
0.536267
0.60554
0.627577
0.473869
0.467716
0.603565
0.760276
0.760201
0.76349
0.760201
0.764004
0.760201
0.761552
0.596477
0.492726
0.487551
0.490308
0.491919
0.494511
0.49818
0.501242
0.502364
0.495759
0.756797
0.792106
0.787564
0.747257
0.689937
0.679454
0.693557
0.734266
0.787161
0.7893
0.646464
0.486844
0.628845
0.755129
0.762055
0.760201
0.763337
0.760201
0.763208
0.760201
0.634603
0.505887
0.487518
0.489444
0.490889
0.493921
0.497695
0.500038
0.499483
0.492837
0.701857
0.748937
0.737679
0.69641
0.663513
0.679702
0.749639
0.7918
0.789308
0.792115
0.789299
0.625356
0.638404
0.73537
0.760201
0.762986
0.760201
0.762582
0.760201
0.760896
0.63993
0.498081
0.486282
0.486364
0.487719
0.49259
0.496756
0.498582
0.497576
0.49096
0.638858
0.695789
0.684634
0.661363
0.663627
0.708245
0.780387
0.789308
0.791596
0.789308
0.793756
0.755539
0.661242
0.715784
0.760496
0.760201
0.76277
0.760201
0.760892
0.75278
0.627507
0.488621
0.486364
0.486258
0.486364
0.492587
0.496717
0.497825
0.496935
0.48974
0.570935
0.636775
0.636013
0.638685
0.669196
0.730552
0.787284
0.790669
0.789308
0.791781
0.789308
0.793027
0.701939
0.697669
0.749507
0.761525
0.760201
0.760851
0.75473
0.71472
0.60083
0.508233
0.486258
0.486365
0.489776
0.496306
0.498467
0.498425
0.497598
0.488788
0.517926
0.577369
0.591815
0.623099
0.671532
0.722847
0.770805
0.789308
0.790529
0.789308
0.794451
0.789308
0.739908
0.687751
0.727148
0.760201
0.761324
0.75905
0.727166
0.656376
0.576562
0.543724
0.523411
0.50901
0.503503
0.503344
0.501842
0.500043
0.498892
0.487334
0.484988
0.523473
0.548206
0.595445
0.647716
0.690126
0.731714
0.779216
0.789308
0.791175
0.789308
0.795558
0.764971
0.674952
0.692063
0.753628
0.760201
0.738124
0.673443
0.59555
0.559756
0.556276
0.554082
0.535028
0.514459
0.508192
0.504369
0.501549
0.499347
0.484191
0.46513
0.485836
0.507784
0.545438
0.59325
0.637064
0.685685
0.742718
0.782854
0.789308
0.794562
0.789308
0.790525
0.646411
0.638552
0.717253
0.738701
0.689247
0.607412
0.550456
0.545674
0.552448
0.549369
0.530961
0.513378
0.507099
0.503455
0.500622
0.496061
0.478279
0.453357
0.464422
0.47863
0.498995
0.532151
0.577708
0.642661
0.688723
0.751333
0.79028
0.789308
0.796426
0.789305
0.621392
0.575659
0.650809
0.677483
0.623628
0.557696
0.5262
0.529455
0.536312
0.52887
0.513463
0.50388
0.499867
0.497484
0.494903
0.487041
0.470209
0.446869
0.45263
0.460969
0.472147
0.488573
0.523256
0.588072
0.632502
0.701837
0.781709
0.794601
0.789308
0.79509
0.658407
0.528333
0.569901
0.602192
0.568123
0.534388
0.515654
0.51286
0.511453
0.502983
0.494938
0.49117
0.489034
0.487551
0.484333
0.475016
0.461888
0.443608
0.446128
0.450859
0.457698
0.466887
0.482888
0.522583
0.580118
0.642853
0.75468
0.789308
0.796199
0.789308
0.758852
0.518717
0.496333
0.542287
0.536698
0.523886
0.508051
0.499183
0.493002
0.487063
0.482949
0.48036
0.478267
0.476352
0.472042
0.463694
0.454723
0.442999
0.443131
0.445348
0.449562
0.455477
0.463993
0.480784
0.5238
0.579436
0.722613
0.794025
0.789308
0.79572
0.789304
0.58294
0.489099
0.496312
0.511876
0.511027
0.498071
0.48878
0.48283
0.47827
0.474503
0.471378
0.468588
0.465728
0.460976
0.454617
0.449172
0.443024
0.443004
0.443048
0.445302
0.449292
0.454778
0.463701
0.482114
0.529466
0.701314
0.789308
0.794726
0.789308
0.793872
0.713765
0.488659
0.465115
0.484536
0.490463
0.484401
0.478307
0.474118
0.470638
0.467057
0.463603
0.460352
0.456915
0.452227
0.448147
0.445636
0.449296
0.444235
0.443061
0.443838
0.446543
0.450226
0.456107
0.466787
0.495433
0.678265
0.79151
0.789308
0.794084
0.789308
0.787474
0.586607
0.465065
0.465832
0.47071
0.469954
0.467117
0.464776
0.462595
0.460037
0.457117
0.45404
0.450695
0.446873
0.44491
0.444691
0.467854
0.459228
0.447425
0.44601
0.446997
0.448744
0.452238
0.459546
0.480511
0.646046
0.789308
0.791315
0.789308
0.793386
0.789308
0.690201
0.470581
0.459245
0.459741
0.459372
0.457714
0.456305
0.455202
0.453929
0.452412
0.450422
0.448103
0.446558
0.446531
0.444717
0.605848
0.598179
0.462969
0.452219
0.450651
0.44989
0.450786
0.457017
0.485725
0.627775
0.751573
0.789308
0.791523
0.789308
0.790639
0.709396
0.494948
0.459164
0.454964
0.453789
0.452052
0.450531
0.449921
0.449633
0.44957
0.44993
0.449917
0.447279
0.467421
0.449861
0.696656
0.711875
0.59061
0.464844
0.455615
0.452391
0.451044
0.461383
0.520823
0.608361
0.652506
0.750467
0.789308
0.792052
0.789308
0.687729
0.506346
0.458668
0.452415
0.451796
0.450201
0.448315
0.447984
0.448057
0.448059
0.450782
0.457013
0.459503
0.558446
0.503158
0.657915
0.711946
0.706628
0.580566
0.459802
0.455382
0.452202
0.47755
0.545662
0.570746
0.5443
0.659647
0.785318
0.789308
0.789732
0.643851
0.514083
0.459863
0.452425
0.452407
0.451095
0.451417
0.448064
0.447942
0.448058
0.449823
0.460893
0.483459
0.559757
0.538131
0.564254
0.675231
0.690696
0.675621
0.557088
0.463628
0.455033
0.497529
0.535241
0.515213
0.484216
0.5779
0.778178
0.790206
0.780492
0.618049
0.528844
0.468145
0.455884
0.457205
0.456011
0.458823
0.448182
0.448107
0.447943
0.448085
0.45603
0.504451
0.548415
0.500011
0.493512
0.572102
0.613674
0.638604
0.627214
0.56436
0.497184
0.497917
0.494562
0.472377
0.470295
0.577334
0.772893
0.789308
0.736029
0.587225
0.516488
0.473262
0.459913
0.46364
0.489287
0.590294
0.564801
0.471533
0.448154
0.44798
0.453748
0.490642
0.489999
0.464744
0.469819
0.485944
0.516318
0.552359
0.584556
0.584319
0.573564
0.497505
0.464047
0.460639
0.470109
0.615699
0.759434
0.770009
0.652147
0.532361
0.484898
0.485771
0.540382
0.591744
0.624375
0.627628
0.627222
0.533156
0.464859
0.452645
0.456805
0.466702
0.458976
0.453534
0.477158
0.465944
0.472001
0.485601
0.50927
0.547951
0.573878
0.492696
0.460641
0.459896
0.473325
0.649695
0.735314
0.724432
0.561339
0.491237
0.480107
0.562283
0.678666
0.679104
0.670733
0.618234
0.56325
0.520833
0.479062
0.460653
0.458277
0.455222
0.452685
0.453349
0.478727
0.465948
0.461783
0.464069
0.470707
0.491141
0.534462
0.47611
0.459896
0.460672
0.498778
0.636023
0.695931
0.660427
0.497074
0.474318
0.48018
0.634506
0.679106
0.666998
0.615538
0.539971
0.495219
0.482287
0.470371
0.45866
0.454499
0.45218
0.452681
0.457192
0.478728
0.466749
0.459335
0.458844
0.460044
0.466656
0.485626
0.463529
0.460699
0.496852
0.566137
0.606978
0.642381
0.603653
0.474336
0.474388
0.498216
0.619147
0.644687
0.595451
0.530426
0.485913
0.47265
0.465734
0.459363
0.454008
0.45171
0.452091
0.455118
0.461867
0.47873
0.468903
0.460227
0.458851
0.458717
0.458849
0.464674
0.469393
0.527388
0.683403
0.67216
0.598336
0.597652
0.595819
0.476868
0.474326
0.510466
0.562669
0.565085
0.515987
0.481464
0.469177
0.464004
0.458764
0.453906
0.451168
0.450716
0.452626
0.458586
0.461891
0.477591
0.518428
0.492879
0.47631
0.46147
0.458815
0.458903
0.504065
0.711726
0.78912
0.773674
0.644226
0.598472
0.639233
0.587737
0.512228
0.532105
0.516695
0.505201
0.478952
0.465628
0.46143
0.458398
0.454063
0.451004
0.450652
0.450725
0.454205
0.461643
0.461895
0.489421
0.624529
0.596036
0.587739
0.553155
0.492114
0.482544
0.650464
0.784411
0.792306
0.792181
0.75591
0.68303
0.734918
0.737286
0.676525
0.605274
0.522031
0.481066
0.465406
0.458502
0.458108
0.455561
0.451367
0.450668
0.450715
0.45269
0.46484
0.470556
0.461895
0.58075
0.653047
0.652275
0.650174
0.631302
0.606517
0.633272
0.75705
0.777747
0.788771
0.793443
0.792181
0.785124
0.791214
0.790396
0.773081
0.70357
0.602955
0.476348
0.459067
0.45903
0.465707
0.458452
0.451224
0.450717
0.450821
0.513902
0.560746
0.555183
0.462506
0.612256
0.653216
0.653386
0.653558
0.650148
0.657124
0.706494
0.764096
0.764057
0.78226
0.792181
0.794115
0.792181
0.793126
0.792181
0.78824
0.770243
0.712469
0.526259
0.469832
0.508403
0.575149
0.496501
0.461592
0.452741
0.485659
0.59495
0.621515
0.624076
0.515527
0.589231
0.653386
0.653558
0.653729
0.653901
0.660484
0.701179
0.761999
0.757295
0.778924
0.793163
0.792181
0.794097
0.792181
0.792131
0.788858
0.788808
0.760404
0.690906
0.677881
0.727652
0.767644
0.706844
0.578067
0.50677
0.552502
0.600082
0.609751
0.623883
0.573824
0.534012
0.636144
0.634585
0.648496
0.652212
0.659071
0.682262
0.733387
0.752069
0.785766
0.792181
0.793375
0.792181
0.793139
0.789861
0.786823
0.788749
0.779581
0.780834
0.792824
0.792181
0.793043
0.79218
0.739318
0.638294
0.594659
0.594532
0.601768
0.624079
0.570881
0.480515
0.550803
0.583372
0.616897
0.630852
0.64314
0.659823
0.685403
0.74608
0.792181
0.792945
0.792181
0.793581
0.792181
0.788186
0.783003
0.787014
0.774712
0.792817
0.792181
0.793035
0.792181
0.792483
0.768415
0.691943
0.622134
0.596244
0.602016
0.621721
0.546755
0.453885
0.475653
0.507441
0.552404
0.58972
0.61561
0.628832
0.635702
0.73527
0.792566
0.792181
0.792847
0.792181
0.793095
0.788045
0.779499
0.778178
0.763976
0.792181
0.792799
0.792181
0.792372
0.772268
0.733857
0.68932
0.636592
0.603502
0.587889
0.581214
0.507879
0.444561
0.45115
0.463828
0.4858
0.522311
0.565704
0.582943
0.589874
0.710521
0.790905
0.792434
0.792181
0.793037
0.792181
0.787929
0.776636
0.763813
0.763787
0.793363
0.792181
0.792324
0.768464
0.724745
0.687089
0.650672
0.608869
0.576597
0.544968
0.513154
0.474105
0.44416
0.44453
0.449234
0.458238
0.473522
0.498369
0.528115
0.555969
0.656648
0.750323
0.790848
0.792475
0.792181
0.792779
0.787044
0.77405
0.752515
0.77937
0.792181
0.792377
0.770185
0.714379
0.66623
0.631356
0.59281
0.554329
0.519474
0.490462
0.469674
0.454342
0.445981
0.444501
0.445343
0.449193
0.455855
0.467548
0.488682
0.520757
0.59476
0.66087
0.754221
0.790459
0.792452
0.792181
0.785656
0.770586
0.751935
0.792175
0.79293
0.784989
0.720261
0.648752
0.60489
0.564773
0.524199
0.493883
0.474467
0.461025
0.451625
0.444838
0.451718
0.445399
0.445319
0.44705
0.450073
0.455705
0.467408
0.493146
0.538494
0.57938
0.6713
0.760385
0.788771
0.792288
0.784272
0.765599
0.751061
0.792943
0.792181
0.753718
0.651238
0.577802
0.533972
0.497457
0.475868
0.463766
0.455244
0.448621
0.443832
0.440881
0.457339
0.449936
0.445928
0.447415
0.448983
0.451571
0.457338
0.469768
0.491136
0.535622
0.586749
0.684193
0.762253
0.786954
0.781591
0.759967
0.751601
0.792181
0.783535
0.691881
0.56521
0.511473
0.482593
0.46618
0.457956
0.452321
0.447244
0.44309
0.440714
0.440097
0.457419
0.462664
0.448415
0.448658
0.449831
0.451126
0.453516
0.459989
0.477232
0.517118
0.543087
0.582069
0.694307
0.764756
0.776403
0.752862
0.750749
0.791536
0.752442
0.605844
0.497738
0.476736
0.463362
0.456601
0.45253
0.448023
0.443544
0.440715
0.440098
0.440088
0.457622
0.529974
0.461237
0.452087
0.452081
0.452673
0.452932
0.4564
0.478734
0.527026
0.542806
0.527203
0.601139
0.717563
0.768041
0.746888
0.751281
0.776679
0.694089
0.537773
0.472441
0.462497
0.456919
0.455611
0.452121
0.446156
0.441717
0.440285
0.440313
0.440114
0.575456
0.705648
0.576156
0.470796
0.458755
0.455848
0.454369
0.455319
0.4765
0.541597
0.542766
0.521409
0.541691
0.664458
0.756541
0.745642
0.746071
0.727284
0.615367
0.522052
0.463985
0.455716
0.455161
0.458736
0.453021
0.444844
0.441234
0.44126
0.452319
0.444352
0.660853
0.717939
0.717384
0.640558
0.520322
0.467474
0.457821
0.45633
0.473539
0.533369
0.527564
0.503192
0.520535
0.643032
0.745022
0.741958
0.71503
0.640183
0.546345
0.52221
0.465843
0.453619
0.454454
0.462149
0.453883
0.444275
0.443718
0.455333
0.506783
0.45098
0.590169
0.71168
0.718045
0.718027
0.667932
0.580707
0.476734
0.460444
0.472614
0.500934
0.491089
0.482796
0.52873
0.656467
0.738685
0.733333
0.659476
0.55353
0.505408
0.515256
0.478319
0.453534
0.453401
0.462024
0.455799
0.447536
0.455802
0.522147
0.709097
0.597704
0.505527
0.622983
0.638407
0.665573
0.674237
0.674017
0.584374
0.48958
0.472657
0.476218
0.476129
0.482747
0.584578
0.69098
0.740036
0.727871
0.615532
0.501431
0.490064
0.498996
0.492168
0.455827
0.449621
0.461588
0.462184
0.456535
0.49111
0.702227
0.837338
0.746288
0.465001
0.501449
0.535586
0.568201
0.610153
0.639645
0.620999
0.543008
0.486229
0.477067
0.477418
0.53583
0.687053
0.733522
0.744703
0.73541
0.612624
0.489575
0.483533
0.483745
0.492064
0.461822
0.447545
0.451394
0.476562
0.502916
0.636533
0.803826
0.837905
0.755658
0.460605
0.46084
0.472646
0.483025
0.51386
0.553816
0.559684
0.532801
0.503112
0.499454
0.511534
0.64903
0.769409
0.766928
0.753859
0.761551
0.644508
0.500369
0.485249
0.476957
0.479816
0.464097
0.447439
0.445345
0.471062
0.59944
0.683307
0.790168
0.837791
0.739976
0.465941
0.459969
0.460237
0.460447
0.468586
0.486515
0.49985
0.498393
0.499183
0.515241
0.593243
0.742358
0.789639
0.787533
0.766293
0.790804
0.716419
0.555465
0.503702
0.476757
0.463676
0.456556
0.447188
0.443867
0.459255
0.534857
0.590285
0.727614
0.81411
0.717155
0.480419
0.460257
0.459961
0.460264
0.46002
0.464355
0.472855
0.479355
0.488085
0.534046
0.699115
0.780838
0.789687
0.789639
0.776324
0.790652
0.76258
0.621312
0.514878
0.469648
0.451648
0.44643
0.443618
0.443584
0.447063
0.467529
0.510061
0.632502
0.759726
0.680852
0.491836
0.476071
0.460387
0.507837
0.460344
0.459873
0.460726
0.467438
0.483423
0.606384
0.748391
0.788647
0.789639
0.789687
0.775225
0.789373
0.755922
0.614388
0.491418
0.456244
0.454682
0.448792
0.443633
0.443285
0.443619
0.451468
0.471078
0.555733
0.678967
0.628866
0.509409
0.647141
0.609277
0.682625
0.549688
0.46026
0.45961
0.460188
0.473744
0.637205
0.741951
0.775472
0.777435
0.767171
0.733467
0.716408
0.674914
0.564297
0.46857
0.45854
0.520348
0.500792
0.453171
0.443647
0.443415
0.4463
0.467337
0.536056
0.602246
0.57046
0.54767
0.698266
0.696233
0.697374
0.684381
0.491461
0.460221
0.4597
0.506349
0.60469
0.681621
0.704926
0.702398
0.678988
0.62211
0.574841
0.542143
0.520752
0.518743
0.620413
0.768337
0.747058
0.561591
0.452796
0.443765
0.448691
0.528563
0.593123
0.576188
0.516545
0.618123
0.696234
0.69674
0.696235
0.696678
0.622079
0.49075
0.533318
0.620673
0.571031
0.571436
0.57924
0.57361
0.567827
0.568454
0.56786
0.589293
0.645742
0.755349
0.85732
0.894216
0.888636
0.792592
0.572205
0.47054
0.497615
0.613707
0.643549
0.630854
0.493745
0.643024
0.696961
0.696205
0.696439
0.694215
0.653785
0.623863
0.711958
0.794491
0.618714
0.567883
0.568489
0.567844
0.56848
0.606389
0.719445
0.800646
0.858013
0.895577
0.903237
0.902993
0.903127
0.887284
0.742066
0.606005
0.598079
0.643549
0.644696
0.643545
0.519235
0.604265
0.69481
0.65146
0.659091
0.638724
0.588006
0.627193
0.791454
0.882257
0.811898
0.714078
0.681866
0.687884
0.729206
0.816982
0.887635
0.902075
0.903184
0.903793
0.90309
0.903162
0.902993
0.903306
0.840272
0.677015
0.608977
0.636352
0.64355
0.645272
0.593569
0.545748
0.611443
0.567083
0.574071
0.565472
0.529748
0.610611
0.83666
0.899391
0.893406
0.873562
0.862683
0.866132
0.884701
0.903137
0.905454
0.90327
0.904217
0.903184
0.903538
0.90309
0.903175
0.902993
0.884399
0.71581
0.583488
0.59484
0.643671
0.64355
0.604751
0.506516
0.530593
0.501499
0.506456
0.511557
0.513186
0.656341
0.877856
0.901397
0.900699
0.899753
0.899618
0.901549
0.903265
0.904754
0.903355
0.904807
0.90327
0.904026
0.903184
0.903369
0.90304
0.903599
0.902962
0.812009
0.583879
0.544229
0.612503
0.635841
0.514215
0.484479
0.516981
0.484048
0.483963
0.486286
0.524825
0.795048
0.894532
0.901404
0.900683
0.900318
0.900571
0.902793
0.904005
0.903355
0.905884
0.903355
0.904268
0.90327
0.903717
0.903184
0.903369
0.90309
0.903241
0.879612
0.682552
0.533652
0.534564
0.527478
0.479009
0.530539
0.657996
0.545125
0.484049
0.503999
0.710375
0.871297
0.900908
0.901603
0.90071
0.900431
0.900669
0.903361
0.903352
0.905442
0.903443
0.90497
0.903355
0.904124
0.90327
0.903547
0.903184
0.903794
0.90309
0.891785
0.814328
0.534238
0.482385
0.484416
0.473804
0.589599
0.719056
0.694077
0.521103
0.656951
0.856286
0.897105
0.902693
0.902145
0.900901
0.900477
0.900886
0.90335
0.904652
0.903443
0.90626
0.903443
0.904233
0.903355
0.903859
0.90327
0.903495
0.903184
0.903442
0.892986
0.862508
0.69893
0.482468
0.480291
0.480211
0.617812
0.71681
0.718627
0.651181
0.789029
0.888458
0.901565
0.902992
0.902766
0.901246
0.900552
0.90144
0.903902
0.90344
0.906008
0.903536
0.905077
0.903443
0.904113
0.903355
0.903677
0.90327
0.903851
0.903184
0.891819
0.865246
0.817019
0.63066
0.49083
0.468232
0.629803
0.718759
0.716521
0.704429
0.81993
0.895483
0.902118
0.903308
0.903018
0.901685
0.900846
0.902413
0.903441
0.905301
0.903536
0.906598
0.903536
0.904081
0.903443
0.903928
0.903355
0.903568
0.90327
0.903531
0.888238
0.85718
0.839235
0.793566
0.689528
0.557889
0.611656
0.71652
0.717472
0.702737
0.823659
0.897854
0.902285
0.90327
0.903428
0.902192
0.901375
0.903441
0.90443
0.903536
0.906476
0.903643
0.905073
0.903536
0.903948
0.903443
0.903749
0.903355
0.903735
0.90327
0.884116
0.848151
0.838165
0.827671
0.827583
0.704719
0.523723
0.716586
0.713399
0.644294
0.821125
0.898647
0.902628
0.903603
0.903355
0.902727
0.902148
0.903744
0.903536
0.905852
0.903643
0.907119
0.903643
0.903768
0.903536
0.903857
0.903443
0.903634
0.903355
0.903479
0.879115
0.84231
0.83561
0.826055
0.827416
0.754807
0.472446
0.567844
0.638845
0.601123
0.822335
0.898685
0.902996
0.903355
0.903697
0.903203
0.90311
0.903536
0.904898
0.903643
0.907128
0.903717
0.905146
0.900417
0.903548
0.903443
0.903625
0.903355
0.90357
0.90327
0.870843
0.83789
0.835161
0.823908
0.827827
0.75818
0.454447
0.484604
0.578437
0.591939
0.828807
0.898411
0.903087
0.903892
0.903443
0.903599
0.903536
0.904087
0.903643
0.90648
0.903717
0.907748
0.903717
0.891475
0.89821
0.90345
0.903355
0.903417
0.90327
0.900599
0.859214
0.835047
0.832601
0.824095
0.827162
0.757691
0.454399
0.459353
0.505485
0.611814
0.841809
0.89813
0.903374
0.903443
0.90398
0.903536
0.903779
0.903643
0.905382
0.903717
0.907646
0.90382
0.905473
0.879152
0.880931
0.896228
0.903128
0.90327
0.901046
0.882461
0.845019
0.832837
0.832336
0.823239
0.827358
0.766965
0.45782
0.45836
0.474549
0.648091
0.860993
0.898428
0.903443
0.904177
0.903536
0.903906
0.903643
0.904486
0.903717
0.906831
0.90382
0.908352
0.90382
0.863528
0.849289
0.869232
0.888326
0.894079
0.882181
0.853423
0.832104
0.827233
0.831575
0.823403
0.82691
0.778565
0.459598
0.459618
0.467796
0.711522
0.881444
0.899246
0.903644
0.903536
0.904279
0.903643
0.904177
0.903717
0.905536
0.90382
0.908079
0.903906
0.907178
0.850318
0.809906
0.822141
0.848178
0.863026
0.850331
0.824998
0.821083
0.819171
0.821841
0.812544
0.826903
0.78444
0.457509
0.457528
0.499014
0.800773
0.894778
0.899769
0.903536
0.90449
0.903643
0.904282
0.903717
0.904629
0.90382
0.907057
0.903906
0.908291
0.903906
0.851039
0.773386
0.757405
0.785885
0.817191
0.816501
0.800312
0.804256
0.799072
0.804257
0.794362
0.801214
0.702357
0.485301
0.46193
0.651913
0.852254
0.898592
0.900776
0.903988
0.903642
0.90461
0.903716
0.904405
0.90382
0.905719
0.903906
0.90801
0.904022
0.908099
0.882615
0.755641
0.69115
0.707288
0.764042
0.784405
0.774246
0.772695
0.760543
0.756336
0.736036
0.684905
0.497994
0.560206
0.638086
0.747764
0.857519
0.899008
0.902208
0.903595
0.904754
0.903682
0.904555
0.903765
0.904811
0.90385
0.907138
0.903945
0.908239
0.903945
0.906365
0.782651
0.654048
0.625376
0.70398
0.748348
0.738437
0.719828
0.697106
0.666977
0.590564
0.478722
0.438426
0.620468
0.702922
0.736658
0.846079
0.898023
0.903256
0.904255
0.903595
0.904795
0.903678
0.904566
0.903766
0.905729
0.90385
0.908044
0.903945
0.907722
0.90385
0.854428
0.657049
0.578485
0.646899
0.70058
0.684451
0.648373
0.603088
0.526174
0.460019
0.437645
0.43405
0.630833
0.710383
0.724219
0.829406
0.89373
0.903553
0.903516
0.904937
0.903595
0.904683
0.903679
0.904795
0.903766
0.907031
0.90385
0.908075
0.90385
0.906113
0.902921
0.730543
0.573658
0.60082
0.640564
0.611878
0.561917
0.495259
0.452614
0.435731
0.434033
0.433981
0.639598
0.716901
0.717094
0.812473
0.88557
0.903434
0.904425
0.903516
0.90492
0.903589
0.904661
0.903684
0.905546
0.903766
0.907804
0.90385
0.907087
0.903766
0.904307
0.802726
0.573674
0.563421
0.576111
0.537365
0.485528
0.450605
0.436474
0.434072
0.433986
0.434117
0.645974
0.716673
0.713978
0.794333
0.875453
0.903504
0.903434
0.905146
0.903516
0.9048
0.903593
0.904784
0.903684
0.906756
0.903766
0.90764
0.903766
0.905247
0.903684
0.823506
0.57733
0.536962
0.523384
0.484419
0.45273
0.437878
0.434129
0.433996
0.434385
0.461982
0.651735
0.716835
0.711572
0.775514
0.864389
0.903353
0.904386
0.903434
0.905043
0.903509
0.904748
0.903598
0.905351
0.903684
0.907494
0.903766
0.906401
0.903684
0.904031
0.813352
0.549127
0.522779
0.490925
0.458553
0.440303
0.434217
0.434044
0.434508
0.464038
0.556178
0.656343
0.716293
0.708969
0.758117
0.850597
0.903305
0.903353
0.905442
0.903434
0.904898
0.903512
0.904789
0.903598
0.906492
0.903684
0.90732
0.903684
0.904919
0.903598
0.802353
0.523738
0.513042
0.470002
0.445746
0.434933
0.434149
0.434686
0.478445
0.728472
0.865868
0.658454
0.716807
0.706483
0.741589
0.831354
0.899754
0.904157
0.903353
0.905175
0.903425
0.904818
0.903515
0.905236
0.903598
0.907242
0.903684
0.905924
0.903598
0.904063
0.802039
0.518208
0.495655
0.457248
0.438189
0.434464
0.434629
0.488723
0.772582
0.890232
0.910495
0.655412
0.716087
0.703524
0.726655
0.80458
0.88967
0.903268
0.905605
0.903353
0.905011
0.903429
0.904802
0.903519
0.906343
0.903598
0.906972
0.903598
0.904743
0.903519
0.809535
0.526074
0.480498
0.449385
0.435282
0.434751
0.449391
0.637025
0.861157
0.910495
0.910495
0.642159
0.716133
0.695297
0.712842
0.773697
0.873501
0.903683
0.903268
0.905304
0.903346
0.904888
0.903434
0.905156
0.903519
0.907124
0.903598
0.905652
0.903519
0.903987
0.820166
0.544445
0.472136
0.444994
0.435636
0.436657
0.463602
0.71116
0.870516
0.896696
0.908236
0.60805
0.715762
0.679663
0.698475
0.745232
0.854982
0.903181
0.905501
0.903268
0.905114
0.90335
0.904804
0.903437
0.906266
0.903519
0.906733
0.903519
0.904581
0.903437
0.833726
0.564244
0.466232
0.443262
0.438412
0.447897
0.481742
0.731857
0.850661
0.882537
0.894223
0.528907
0.65519
0.65345
0.67776
0.721824