/*--------------------------------*- C++ -*----------------------------------*\
| =========                 |                                                 |
| \\      /  F ield         | OpenFOAM: The Open Source CFD Toolbox           |
|  \\    /   O peration     | Version:  2.3.0                                 |
|   \\  /    A nd           | Web:      www.OpenFOAM.org                      |
|    \\/     M anipulation  |                                                 |
\*---------------------------------------------------------------------------*/
FoamFile
{
    version     2.0;
    format      ascii;
    class       volVectorField;
    location    "0.86";
    object      U.air;
}
// * * * * * * * * * * * * * * * * * * * * * * * * * * * * * * * * * * * * * //

dimensions      [0 1 -1 0 0 0 0];

internalField   nonuniform List<vector> 
6000
(
(-0.0509569 0.279774 0)
(-0.0322594 0.250964 0)
(0.0968791 0.275872 0)
(0.186705 0.294726 0)
(0.224772 0.333196 0)
(0.21692 0.324196 0)
(0.182083 0.310953 0)
(0.134085 0.294185 0)
(0.0835512 0.299593 0)
(0.0448187 0.297914 0)
(0.0287555 0.28201 0)
(0.0694857 0.275144 0)
(0.0874356 0.3597 0)
(-0.103584 0.510022 0)
(-0.334245 0.411662 0)
(-0.315068 0.316662 0)
(-0.142984 0.243829 0)
(0.0029418 0.253179 0)
(0.032568 0.183954 0)
(0.0813857 0.1523 0)
(0.135499 0.162219 0)
(0.230072 0.175849 0)
(0.364313 0.193675 0)
(0.516722 0.241977 0)
(0.51184 0.277708 0)
(0.191553 0.393906 0)
(-0.0676301 0.221964 0)
(0.0205515 0.164298 0)
(-0.0768949 0.31143 0)
(-0.076137 0.29715 0)
(0.0214546 1.04149 0)
(0.0549991 0.852423 0)
(0.144842 0.855297 0)
(0.220114 0.888947 0)
(0.279384 1.01191 0)
(0.322924 1.09488 0)
(0.321097 1.15714 0)
(0.297473 1.23799 0)
(0.205546 1.30403 0)
(0.0706232 1.26004 0)
(-0.0291954 1.22044 0)
(-0.0357226 1.17404 0)
(-0.0760218 1.14928 0)
(-0.269215 1.34094 0)
(-0.472039 1.1441 0)
(-0.441257 0.7883 0)
(-0.28011 0.693483 0)
(-0.104418 0.878204 0)
(0.0266813 0.919789 0)
(0.1079 0.970756 0)
(0.199199 0.943327 0)
(0.296292 0.923818 0)
(0.4006 0.86795 0)
(0.452033 0.884416 0)
(0.329664 1.21324 0)
(0.171667 1.40675 0)
(0.0870523 1.14448 0)
(-0.0381346 1.00097 0)
(-0.173045 1.26289 0)
(-0.0870505 0.683621 0)
(0.0200415 0.840488 0)
(0.0911852 0.674159 0)
(0.151977 0.674972 0)
(0.205965 0.725927 0)
(0.256266 0.834392 0)
(0.26356 0.903092 0)
(0.229919 0.922305 0)
(0.160665 0.984781 0)
(0.093862 1.14654 0)
(0.0164799 1.15145 0)
(-0.0559469 1.06445 0)
(-0.107719 0.960548 0)
(-0.212991 1.12267 0)
(-0.31944 1.44027 0)
(-0.394386 1.05681 0)
(-0.41816 0.550291 0)
(-0.330651 0.452129 0)
(-0.176098 0.577271 0)
(-0.0318324 0.622013 0)
(0.0722693 0.656518 0)
(0.189654 0.649779 0)
(0.320122 0.634257 0)
(0.352788 0.615737 0)
(0.203851 0.753288 0)
(0.0489778 1.18882 0)
(0.0779071 1.25149 0)
(0.0824172 1.13004 0)
(-0.0490191 1.02655 0)
(-0.118707 1.19389 0)
(-0.00588185 0.469968 0)
(0.0165659 0.900556 0)
(0.077517 0.711004 0)
(0.145812 0.695227 0)
(0.179542 0.734764 0)
(0.145122 0.828443 0)
(0.0731341 0.947826 0)
(-0.00879091 1.00905 0)
(-0.096571 1.13693 0)
(-0.124706 1.17857 0)
(-0.122402 1.16608 0)
(-0.142054 1.11626 0)
(-0.221045 1.09994 0)
(-0.298457 1.13898 0)
(-0.253839 1.25653 0)
(-0.240626 1.16057 0)
(-0.277586 0.50745 0)
(-0.218084 0.370518 0)
(-0.111801 0.535439 0)
(0.0060649 0.651217 0)
(0.106796 0.703078 0)
(0.167631 0.66587 0)
(0.161457 0.617606 0)
(0.0505581 0.76562 0)
(-0.119439 1.01227 0)
(-0.141001 1.11571 0)
(-0.0379606 1.19226 0)
(0.00454935 1.09746 0)
(-0.0584966 1.03902 0)
(-0.08298 1.10617 0)
(0.0160066 0.394362 0)
(0.0135525 0.862041 0)
(0.033912 0.65199 0)
(0.0591371 0.624487 0)
(0.00147745 0.723974 0)
(-0.116363 0.907263 0)
(-0.198534 1.0041 0)
(-0.223876 0.999749 0)
(-0.220926 1.03047 0)
(-0.186507 1.06747 0)
(-0.161059 1.05197 0)
(-0.162807 1.06193 0)
(-0.185089 1.05803 0)
(-0.219651 1.10457 0)
(-0.201734 1.12742 0)
(-0.139599 1.07714 0)
(-0.100616 0.434021 0)
(-0.0353014 0.285205 0)
(0.015152 0.480922 0)
(0.0488323 0.585075 0)
(0.0358548 0.585626 0)
(0.00600384 0.617308 0)
(-0.0735059 0.730734 0)
(-0.172891 0.861389 0)
(-0.18413 0.954498 0)
(-0.133287 1.0476 0)
(-0.0651721 1.10914 0)
(-0.0239438 1.11822 0)
(-0.0510298 1.05912 0)
(-0.0934114 1.12002 0)
(-0.0086828 0.313444 0)
(-0.00938904 0.760356 0)
(-0.081602 0.575058 0)
(-0.172209 0.630812 0)
(-0.287005 0.814901 0)
(-0.338345 0.887654 0)
(-0.291833 0.890231 0)
(-0.240342 0.915506 0)
(-0.210487 0.976541 0)
(-0.173093 1.00838 0)
(-0.154972 1.05048 0)
(-0.146122 1.05366 0)
(-0.156298 1.09616 0)
(-0.169314 1.09609 0)
(-0.191626 1.10911 0)
(-0.0971 1.01774 0)
(0.0207966 0.322384 0)
(0.105695 0.291767 0)
(0.0369063 0.468012 0)
(-0.0548361 0.630282 0)
(-0.12536 0.688172 0)
(-0.179198 0.652862 0)
(-0.180396 0.681435 0)
(-0.140324 0.793115 0)
(-0.10986 0.917174 0)
(-0.0819776 0.993913 0)
(-0.0471321 1.07754 0)
(-0.0164732 1.0935 0)
(-0.0338294 1.10228 0)
(-0.0637981 1.12149 0)
(0.00512269 0.254611 0)
(-0.0490385 0.893939 0)
(-0.209163 0.698222 0)
(-0.369913 0.735849 0)
(-0.367192 0.778067 0)
(-0.324768 0.802434 0)
(-0.24746 0.822539 0)
(-0.203343 0.883346 0)
(-0.168027 0.935243 0)
(-0.141096 0.988689 0)
(-0.12244 1.01832 0)
(-0.120431 1.07083 0)
(-0.12291 1.09138 0)
(-0.145523 1.13214 0)
(-0.186461 1.11189 0)
(-0.056884 0.883136 0)
(0.0556053 0.251709 0)
(0.0711016 0.311291 0)
(-0.0795792 0.603481 0)
(-0.260949 0.697324 0)
(-0.286171 0.593264 0)
(-0.212023 0.533983 0)
(-0.0995904 0.585228 0)
(-0.0274272 0.73257 0)
(-0.0134832 0.859954 0)
(-0.0105576 0.971253 0)
(-0.0053627 1.02971 0)
(0.00302857 1.09641 0)
(-0.00321804 1.08929 0)
(-0.0235269 1.1414 0)
(0.0219373 0.235756 0)
(-0.0419691 0.872101 0)
(-0.17591 0.788502 0)
(-0.270884 0.725067 0)
(-0.248082 0.691814 0)
(-0.207586 0.716975 0)
(-0.167813 0.772093 0)
(-0.135298 0.837265 0)
(-0.112233 0.908911 0)
(-0.0907995 0.949169 0)
(-0.0810786 1.01584 0)
(-0.0813158 1.05048 0)
(-0.0857949 1.11395 0)
(-0.104148 1.13248 0)
(-0.137859 1.15906 0)
(-0.0190176 0.707692 0)
(0.0882733 0.253952 0)
(-0.0148864 0.424604 0)
(-0.241329 0.766181 0)
(-0.348242 0.694192 0)
(-0.331863 0.522268 0)
(-0.184794 0.369994 0)
(-0.0226641 0.441845 0)
(0.0731077 0.693137 0)
(0.0833048 0.850703 0)
(0.0652616 0.948511 0)
(0.0469657 1.0352 0)
(0.0319549 1.06507 0)
(0.0215019 1.10668 0)
(0.000487961 1.14157 0)
(0.0355716 0.254584 0)
(-0.0345966 0.904751 0)
(-0.128987 0.824647 0)
(-0.135188 0.677876 0)
(-0.097785 0.653454 0)
(-0.0588965 0.668239 0)
(-0.0616735 0.754307 0)
(-0.0480193 0.818761 0)
(-0.0421193 0.879484 0)
(-0.0306101 0.940636 0)
(-0.0296075 0.991176 0)
(-0.0356296 1.05851 0)
(-0.0368156 1.09459 0)
(-0.0457958 1.15524 0)
(-0.0340449 1.17291 0)
(0.00500242 0.612981 0)
(0.0347042 0.277752 0)
(-0.0921039 0.66034 0)
(-0.30839 0.81991 0)
(-0.344513 0.714781 0)
(-0.2723 0.376848 0)
(-0.129082 0.212226 0)
(-0.0158092 0.319458 0)
(0.0930362 0.611281 0)
(0.149476 0.82713 0)
(0.132461 0.946465 0)
(0.103263 1.02197 0)
(0.0709724 1.07646 0)
(0.0495224 1.09704 0)
(0.0207321 1.1555 0)
(0.0422249 0.29094 0)
(-0.0294364 0.96458 0)
(-0.0894342 0.852728 0)
(-0.0413911 0.615343 0)
(0.0329205 0.601379 0)
(0.0710413 0.647843 0)
(0.062498 0.757141 0)
(0.0452531 0.804055 0)
(0.0351584 0.874632 0)
(0.0325426 0.919447 0)
(0.0237093 0.992206 0)
(0.0155415 1.03958 0)
(0.0126344 1.09522 0)
(0.0187487 1.12243 0)
(0.0709552 1.17106 0)
(0.0430387 0.635282 0)
(-0.0518551 0.335949 0)
(-0.168817 0.822255 0)
(-0.280711 0.854034 0)
(-0.265113 0.679308 0)
(-0.170715 0.24635 0)
(-0.102456 0.129313 0)
(-0.0553497 0.253726 0)
(0.031837 0.470807 0)
(0.160672 0.790669 0)
(0.19265 0.929323 0)
(0.161576 1.03205 0)
(0.11515 1.07196 0)
(0.0832122 1.10718 0)
(0.0573489 1.14499 0)
(0.0504353 0.344343 0)
(-0.0262463 1.01321 0)
(-0.054002 0.839427 0)
(0.0302866 0.509921 0)
(0.11699 0.53233 0)
(0.182919 0.625451 0)
(0.176971 0.777165 0)
(0.14068 0.82489 0)
(0.109025 0.872949 0)
(0.0939879 0.927951 0)
(0.0741471 0.977773 0)
(0.0597941 1.04017 0)
(0.0523704 1.07092 0)
(0.0600523 1.1033 0)
(0.119904 1.12281 0)
(0.0599057 0.737034 0)
(-0.101704 0.474446 0)
(-0.189142 0.85775 0)
(-0.182311 0.862603 0)
(-0.146038 0.584976 0)
(-0.0890566 0.187035 0)
(-0.0927415 0.109543 0)
(-0.0915285 0.231667 0)
(-0.046705 0.360071 0)
(0.0930431 0.637794 0)
(0.221976 0.904432 0)
(0.212541 1.02055 0)
(0.158543 1.08945 0)
(0.109198 1.09134 0)
(0.0821397 1.1476 0)
(0.0426545 0.415646 0)
(-0.0166125 1.04046 0)
(0.00510412 0.78039 0)
(0.0924755 0.427318 0)
(0.158607 0.453818 0)
(0.243687 0.5724 0)
(0.255812 0.803995 0)
(0.224184 0.8519 0)
(0.175726 0.893423 0)
(0.146236 0.931139 0)
(0.11839 0.990634 0)
(0.089935 1.02843 0)
(0.0709668 1.07059 0)
(0.059143 1.07863 0)
(0.0845763 1.0951 0)
(0.0103655 0.880579 0)
(-0.145917 0.607845 0)
(-0.160237 0.791009 0)
(-0.0458873 0.835297 0)
(-0.0137257 0.537755 0)
(-0.0368965 0.193855 0)
(-0.0823117 0.120978 0)
(-0.0983125 0.218381 0)
(-0.0833023 0.302317 0)
(-0.00940584 0.466586 0)
(0.153226 0.804663 0)
(0.223205 1.03053 0)
(0.163082 1.11336 0)
(0.0753982 1.12641 0)
(0.0346995 1.14674 0)
(0.0132707 0.473273 0)
(0.0225111 1.05968 0)
(0.0866373 0.693139 0)
(0.146904 0.387757 0)
(0.176322 0.394263 0)
(0.237375 0.50118 0)
(0.282846 0.811237 0)
(0.287405 0.885376 0)
(0.223833 0.906915 0)
(0.183607 0.953727 0)
(0.151149 0.997335 0)
(0.111888 1.04808 0)
(0.0779312 1.07121 0)
(0.0382444 1.08688 0)
(0.0105922 1.07303 0)
(-0.0701691 0.9981 0)
(-0.158087 0.678362 0)
(-0.0815445 0.663915 0)
(0.0711607 0.751268 0)
(0.121624 0.548558 0)
(0.0168833 0.261011 0)
(-0.0520486 0.145395 0)
(-0.0694185 0.207128 0)
(-0.0725786 0.294137 0)
(-0.0789179 0.412418 0)
(-0.006759 0.651593 0)
(0.110404 1.0117 0)
(0.100288 1.19887 0)
(-0.0218375 1.2153 0)
(-0.0333838 1.11936 0)
(0.0131605 0.496089 0)
(0.0749484 0.991185 0)
(0.157379 0.616836 0)
(0.182082 0.387674 0)
(0.170202 0.37584 0)
(0.186673 0.452823 0)
(0.253451 0.735427 0)
(0.306878 0.915251 0)
(0.273087 0.946451 0)
(0.213474 0.974601 0)
(0.177743 1.02229 0)
(0.131574 1.06164 0)
(0.0864309 1.10767 0)
(0.025896 1.11456 0)
(-0.0522789 1.12107 0)
(-0.14337 1.08213 0)
(-0.147008 0.66213 0)
(-0.0523593 0.506164 0)
(0.112691 0.628206 0)
(0.188641 0.595478 0)
(0.0850332 0.372109 0)
(-0.00727084 0.178454 0)
(-0.0249874 0.210485 0)
(-0.0546989 0.326322 0)
(-0.115908 0.460976 0)
(-0.141416 0.6387 0)
(-0.0978835 0.94806 0)
(-0.0567348 1.26721 0)
(-0.0973807 1.34465 0)
(-0.029168 1.00609 0)
(0.0374819 0.553334 0)
(0.0928415 0.867692 0)
(0.174152 0.571537 0)
(0.177802 0.415167 0)
(0.135339 0.39603 0)
(0.108936 0.434775 0)
(0.161916 0.620977 0)
(0.249726 0.892074 0)
(0.277006 0.959863 0)
(0.239208 0.997833 0)
(0.206292 1.03752 0)
(0.161186 1.0931 0)
(0.104515 1.13264 0)
(0.0336128 1.18429 0)
(-0.0662529 1.1959 0)
(-0.154817 1.156 0)
(-0.130215 0.587343 0)
(-0.0512803 0.425451 0)
(0.0711917 0.50301 0)
(0.170191 0.587467 0)
(0.139858 0.480604 0)
(0.0470455 0.230147 0)
(0.018853 0.232646 0)
(-0.0241382 0.385837 0)
(-0.116102 0.573625 0)
(-0.22244 0.738377 0)
(-0.257775 0.99168 0)
(-0.204636 1.30179 0)
(-0.0960917 1.40936 0)
(0.00558729 0.988908 0)
(0.0354209 0.683951 0)
(0.0819048 0.780496 0)
(0.147907 0.554167 0)
(0.140321 0.461895 0)
(0.0847265 0.452232 0)
(0.0294153 0.464746 0)
(0.0373949 0.549551 0)
(0.125543 0.794621 0)
(0.235403 0.955273 0)
(0.255997 1.00578 0)
(0.242083 1.05961 0)
(0.205852 1.11656 0)
(0.142807 1.18248 0)
(0.0718868 1.23384 0)
(-0.0254604 1.29324 0)
(-0.0986459 1.20447 0)
(-0.0983473 0.532038 0)
(-0.0285007 0.387064 0)
(0.0230816 0.413379 0)
(0.113875 0.51151 0)
(0.17026 0.537466 0)
(0.127923 0.305531 0)
(0.0946655 0.285243 0)
(0.0579202 0.494019 0)
(-0.0685029 0.743691 0)
(-0.223845 0.891165 0)
(-0.286077 1.08833 0)
(-0.213833 1.3241 0)
(-0.0642111 1.39888 0)
(-0.0267924 1.01917 0)
(-0.0377314 0.738508 0)
(0.069406 0.714009 0)
(0.112951 0.561443 0)
(0.0917064 0.519764 0)
(0.034145 0.52209 0)
(-0.0304326 0.530926 0)
(-0.0603134 0.563782 0)
(-0.0237037 0.688472 0)
(0.097347 0.861893 0)
(0.201451 0.976559 0)
(0.237673 1.06962 0)
(0.239211 1.14969 0)
(0.204516 1.2172 0)
(0.144174 1.29549 0)
(0.0541126 1.35882 0)
(0.00904862 1.2615 0)
(-0.0249109 0.501061 0)
(0.0206901 0.378 0)
(0.0279865 0.366652 0)
(0.0764998 0.417582 0)
(0.178987 0.500092 0)
(0.233052 0.348502 0)
(0.210016 0.32767 0)
(0.124227 0.548444 0)
(-0.0414511 0.779932 0)
(-0.173687 0.830459 0)
(-0.195821 0.916564 0)
(-0.156655 1.06035 0)
(-0.077548 1.13837 0)
(-0.049909 0.927729 0)
(-0.0340047 0.582113 0)
(0.0580611 0.660159 0)
(0.0699636 0.588004 0)
(0.0363022 0.578055 0)
(-0.018704 0.589219 0)
(-0.0814986 0.604078 0)
(-0.137925 0.625456 0)
(-0.129796 0.682299 0)
(-0.0729315 0.773347 0)
(0.0388595 0.894449 0)
(0.123756 1.01899 0)
(0.181407 1.13853 0)
(0.234461 1.22553 0)
(0.222271 1.34789 0)
(0.13956 1.42988 0)
(0.110457 1.30415 0)
(0.0686043 0.514232 0)
(0.0780855 0.401184 0)
(0.0607374 0.357657 0)
(0.0678329 0.347991 0)
(0.154256 0.383291 0)
(0.289937 0.306313 0)
(0.32154 0.295032 0)
(0.249892 0.657364 0)
(0.0821232 0.958954 0)
(-0.0693269 0.963024 0)
(-0.134138 1.0136 0)
(-0.155441 1.13801 0)
(-0.128028 1.17954 0)
(-0.0926072 1.01158 0)
(-0.028905 0.568183 0)
(0.0279629 0.631746 0)
(0.0196294 0.619915 0)
(-0.01898 0.631778 0)
(-0.0705248 0.651699 0)
(-0.128481 0.671343 0)
(-0.185948 0.692076 0)
(-0.219704 0.724403 0)
(-0.18812 0.770848 0)
(-0.12658 0.844918 0)
(-0.0487481 0.965957 0)
(0.0189971 1.07492 0)
(0.136592 1.13696 0)
(0.242456 1.35994 0)
(0.205904 1.49929 0)
(0.192915 1.32405 0)
(0.13684 0.556801 0)
(0.119607 0.459053 0)
(0.0734903 0.381884 0)
(0.0471376 0.31602 0)
(0.0791412 0.273757 0)
(0.169274 0.175674 0)
(0.179613 0.26467 0)
(0.122429 0.761957 0)
(-0.000569735 0.91511 0)
(-0.0594221 0.895502 0)
(-0.100591 0.90374 0)
(-0.124582 0.937411 0)
(-0.118833 0.956382 0)
(-0.0917789 0.791032 0)
(-0.0231782 0.381142 0)
(1.97529e-05 0.628808 0)
(-0.0275224 0.658216 0)
(-0.0704506 0.684945 0)
(-0.12243 0.712132 0)
(-0.177003 0.733094 0)
(-0.228161 0.750654 0)
(-0.266459 0.766779 0)
(-0.273119 0.787898 0)
(-0.23322 0.843753 0)
(-0.182757 0.954836 0)
(-0.126131 1.03451 0)
(-0.0387288 1.02708 0)
(0.126449 1.22861 0)
(0.22021 1.6174 0)
(0.273215 1.33979 0)
(0.183742 0.661885 0)
(0.131779 0.550855 0)
(0.0426036 0.444875 0)
(-0.0118837 0.325108 0)
(-0.0339971 0.224554 0)
(-0.023893 0.105089 0)
(-0.061514 0.23517 0)
(-0.0853848 0.750384 0)
(-0.0908307 0.87839 0)
(-0.0970064 0.865842 0)
(-0.0950831 0.868997 0)
(-0.0961865 0.876115 0)
(-0.0858018 0.871407 0)
(-0.0512255 0.720683 0)
(-0.00108407 0.278154 0)
(-0.0197516 0.667169 0)
(-0.0685332 0.71385 0)
(-0.123203 0.742814 0)
(-0.180748 0.77124 0)
(-0.231874 0.786827 0)
(-0.27131 0.798575 0)
(-0.297808 0.803385 0)
(-0.306606 0.805227 0)
(-0.288809 0.846701 0)
(-0.248681 0.954126 0)
(-0.185916 1.01862 0)
(-0.142228 0.993246 0)
(-0.00897503 1.07276 0)
(0.150179 1.60824 0)
(0.319918 1.37003 0)
(0.220978 0.850112 0)
(0.121098 0.682522 0)
(-0.00603656 0.528706 0)
(-0.0901193 0.371274 0)
(-0.148343 0.237647 0)
(-0.186778 0.127744 0)
(-0.238981 0.268378 0)
(-0.256697 0.732367 0)
(-0.191687 0.880351 0)
(-0.156385 0.875568 0)
(-0.115454 0.894516 0)
(-0.0795514 0.895641 0)
(-0.0401929 0.880461 0)
(0.0151664 0.662844 0)
(0.0274117 0.28798 0)
(-0.0400878 0.757129 0)
(-0.119703 0.791688 0)
(-0.192434 0.806222 0)
(-0.257375 0.827326 0)
(-0.301317 0.826661 0)
(-0.319567 0.826696 0)
(-0.318864 0.822729 0)
(-0.303164 0.812203 0)
(-0.279064 0.839731 0)
(-0.230991 0.92186 0)
(-0.157476 0.974367 0)
(-0.112924 0.983604 0)
(-0.0609986 1.05959 0)
(0.0839119 1.51942 0)
(0.297224 1.42635 0)
(0.240214 1.06098 0)
(0.0867134 0.851593 0)
(-0.0654217 0.651533 0)
(-0.176573 0.46431 0)
(-0.256267 0.308407 0)
(-0.3262 0.203448 0)
(-0.363763 0.332337 0)
(-0.373554 0.714227 0)
(-0.283335 0.829973 0)
(-0.216545 0.828079 0)
(-0.143495 0.840293 0)
(-0.0727764 0.840046 0)
(0.000730245 0.825439 0)
(0.0557204 0.639172 0)
(0.0393711 0.342232 0)
(-0.0970778 0.858334 0)
(-0.233174 0.865976 0)
(-0.311548 0.866342 0)
(-0.359768 0.874605 0)
(-0.379368 0.842741 0)
(-0.366142 0.823459 0)
(-0.324835 0.806741 0)
(-0.268875 0.786636 0)
(-0.218217 0.802599 0)
(-0.159143 0.864503 0)
(-0.0888269 0.913535 0)
(-0.0360995 0.969791 0)
(-0.0239728 1.10619 0)
(0.0915549 1.46682 0)
(0.244051 1.4925 0)
(0.197872 1.262 0)
(0.0276009 1.07035 0)
(-0.152664 0.829621 0)
(-0.277175 0.604846 0)
(-0.368592 0.426021 0)
(-0.442652 0.301362 0)
(-0.467895 0.400116 0)
(-0.449658 0.703646 0)
(-0.348254 0.782351 0)
(-0.25825 0.781524 0)
(-0.167609 0.788597 0)
(-0.0787036 0.789515 0)
(0.00877057 0.778968 0)
(0.0609883 0.640683 0)
(0.0383019 0.407669 0)
(-0.214543 1.03116 0)
(-0.380058 1.00343 0)
(-0.471517 0.914752 0)
(-0.473038 0.87729 0)
(-0.438742 0.817102 0)
(-0.387559 0.777865 0)
(-0.298801 0.742918 0)
(-0.210845 0.725907 0)
(-0.14595 0.748232 0)
(-0.0875823 0.804201 0)
(-0.024323 0.85181 0)
(0.0382679 0.931895 0)
(0.0782434 1.11464 0)
(0.138187 1.43842 0)
(0.198347 1.5177 0)
(0.173883 1.39841 0)
(-0.0284999 1.32965 0)
(-0.271694 1.04847 0)
(-0.410062 0.788873 0)
(-0.489058 0.556494 0)
(-0.546712 0.406868 0)
(-0.567649 0.455824 0)
(-0.503504 0.678974 0)
(-0.393404 0.721322 0)
(-0.286456 0.725204 0)
(-0.187907 0.732635 0)
(-0.092725 0.737017 0)
(-0.00245401 0.731394 0)
(0.0497002 0.644075 0)
(0.0323269 0.468896 0)
(-0.129158 1.18967 0)
(-0.322009 0.93666 0)
(-0.464471 0.844853 0)
(-0.461529 0.900084 0)
(-0.429009 0.77075 0)
(-0.36434 0.69572 0)
(-0.244647 0.647288 0)
(-0.15023 0.657526 0)
(-0.0872647 0.693495 0)
(-0.0361044 0.748116 0)
(0.0276485 0.786269 0)
(0.115285 0.868166 0)
(0.184603 1.08526 0)
(0.206106 1.41694 0)
(0.182922 1.50542 0)
(0.180886 1.4486 0)
(-0.0110476 1.49931 0)
(-0.312803 1.20132 0)
(-0.555927 0.932966 0)
(-0.638867 0.659882 0)
(-0.635688 0.488102 0)
(-0.623756 0.488817 0)
(-0.535184 0.624678 0)
(-0.418131 0.655595 0)
(-0.306281 0.66432 0)
(-0.205772 0.672026 0)
(-0.111068 0.679901 0)
(-0.0238833 0.681949 0)
(0.0287672 0.642361 0)
(0.0235206 0.518066 0)
(0.0246759 1.31755 0)
(-0.0710271 1.20678 0)
(-0.27817 0.927313 0)
(-0.406053 0.715281 0)
(-0.418372 0.729208 0)
(-0.311533 0.588998 0)
(-0.189903 0.54258 0)
(-0.0954262 0.592078 0)
(-0.0387398 0.647278 0)
(0.000251956 0.700897 0)
(0.0683356 0.704945 0)
(0.181096 0.740036 0)
(0.341252 0.971588 0)
(0.320787 1.35907 0)
(0.162592 1.41421 0)
(0.0177669 1.44542 0)
(-0.102272 1.69327 0)
(-0.250183 1.43232 0)
(-0.520752 1.02505 0)
(-0.703255 0.670673 0)
(-0.715268 0.498227 0)
(-0.651153 0.476602 0)
(-0.545307 0.548239 0)
(-0.430113 0.576861 0)
(-0.320632 0.596253 0)
(-0.222338 0.609499 0)
(-0.132638 0.622503 0)
(-0.0533864 0.633828 0)
(0.000203876 0.630658 0)
(0.0126286 0.547533 0)
(0.0732417 1.08549 0)
(0.145981 1.10154 0)
(0.0542964 1.09134 0)
(-0.179912 0.971978 0)
(-0.297067 0.644158 0)
(-0.3101 0.501533 0)
(-0.11228 0.418952 0)
(-0.0209216 0.549331 0)
(0.00382209 0.62979 0)
(0.0035229 0.676222 0)
(0.0447046 0.608421 0)
(0.149062 0.566583 0)
(0.325079 0.82583 0)
(0.265015 1.50792 0)
(0.0771153 1.62645 0)
(-0.100625 1.59475 0)
(-0.149232 1.55384 0)
(-0.136682 1.45046 0)
(-0.358833 1.30125 0)
(-0.626911 0.714994 0)
(-0.760502 0.431065 0)
(-0.662303 0.409107 0)
(-0.542106 0.453571 0)
(-0.429848 0.490727 0)
(-0.327238 0.518778 0)
(-0.234795 0.540299 0)
(-0.153206 0.561476 0)
(-0.0837236 0.583159 0)
(-0.0295765 0.601137 0)
(0.000747385 0.553362 0)
(0.0798716 0.907002 0)
(0.200797 1.03675 0)
(0.215955 1.0709 0)
(0.17885 0.977653 0)
(0.089614 0.832162 0)
(0.0441078 0.502535 0)
(0.0392233 0.375253 0)
(0.105357 0.516929 0)
(0.0441137 0.648078 0)
(-0.056344 0.726986 0)
(-0.0500992 0.527608 0)
(0.0256554 0.423818 0)
(0.135953 0.719232 0)
(0.0422106 1.5511 0)
(-0.0155681 1.59808 0)
(-0.086829 1.57517 0)
(-0.131414 1.49922 0)
(-0.138906 1.37759 0)
(-0.19114 1.29695 0)
(-0.48467 0.965177 0)
(-0.658209 0.357561 0)
(-0.637488 0.290352 0)
(-0.518694 0.347447 0)
(-0.412201 0.398453 0)
(-0.317837 0.436738 0)
(-0.234202 0.46929 0)
(-0.162768 0.501114 0)
(-0.102266 0.531642 0)
(-0.0497978 0.557859 0)
(-0.00854657 0.536197 0)
(0.0701476 0.756376 0)
(0.217551 0.972663 0)
(0.292778 1.0325 0)
(0.406764 0.92167 0)
(0.536971 0.747709 0)
(0.595722 0.631691 0)
(0.460328 0.442568 0)
(0.303009 0.617719 0)
(0.203897 0.705701 0)
(0.00456649 0.739993 0)
(-0.163269 0.532699 0)
(-0.110832 0.368531 0)
(-0.0891467 0.732572 0)
(-0.144025 1.55897 0)
(-0.0877938 1.5986 0)
(-0.102709 1.60225 0)
(-0.119965 1.50758 0)
(-0.153777 1.3998 0)
(-0.172779 1.31701 0)
(-0.351374 1.13155 0)
(-0.477475 0.36248 0)
(-0.531331 0.185697 0)
(-0.457799 0.250476 0)
(-0.367095 0.310277 0)
(-0.286724 0.35748 0)
(-0.215948 0.401957 0)
(-0.156114 0.444532 0)
(-0.104248 0.481439 0)
(-0.0564633 0.51022 0)
(-0.0128822 0.505222 0)
(0.0530387 0.630242 0)
(0.229618 0.940199 0)
(0.365273 0.976588 0)
(0.556264 0.806287 0)
(0.725735 0.614146 0)
(0.869835 0.654102 0)
(0.817864 0.684566 0)
(0.604752 0.745249 0)
(0.357193 0.932356 0)
(0.0939156 1.02328 0)
(-0.152787 0.612315 0)
(-0.321385 0.424556 0)
(-0.397459 0.803229 0)
(-0.3213 1.49464 0)
(-0.19193 1.57052 0)
(-0.151573 1.56254 0)
(-0.145178 1.52148 0)
(-0.170155 1.39461 0)
(-0.180818 1.32792 0)
(-0.260396 1.16514 0)
(-0.331706 0.413846 0)
(-0.385994 0.12334 0)
(-0.355657 0.17758 0)
(-0.294298 0.242872 0)
(-0.236885 0.294508 0)
(-0.184718 0.347248 0)
(-0.138524 0.395826 0)
(-0.0954948 0.435161 0)
(-0.0540447 0.464638 0)
(-0.0135693 0.469785 0)
(0.0352719 0.503613 0)
(0.228636 0.826713 0)
(0.415385 0.826152 0)
(0.621413 0.671796 0)
(0.73602 0.527403 0)
(0.785695 0.57076 0)
(0.722608 0.795515 0)
(0.506414 0.950882 0)
(0.30704 1.01356 0)
(0.162378 1.08169 0)
(-0.0922597 0.990145 0)
(-0.398894 0.633629 0)
(-0.582131 0.837172 0)
(-0.463804 1.32608 0)
(-0.297184 1.48387 0)
(-0.214885 1.50857 0)
(-0.192234 1.48162 0)
(-0.198465 1.38827 0)
(-0.193247 1.31413 0)
(-0.194181 1.15962 0)
(-0.183389 0.447029 0)
(-0.229512 0.0991815 0)
(-0.237677 0.145243 0)
(-0.212365 0.204915 0)
(-0.181586 0.254143 0)
(-0.150023 0.309431 0)
(-0.118053 0.357518 0)
(-0.0836056 0.394524 0)
(-0.0488583 0.423827 0)
(-0.012896 0.433894 0)
(0.0253523 0.401706 0)
(0.221877 0.684558 0)
(0.415018 0.659308 0)
(0.59912 0.555314 0)
(0.668855 0.479722 0)
(0.65065 0.570928 0)
(0.578175 0.894261 0)
(0.419911 1.02945 0)
(0.293927 1.12678 0)
(0.150886 1.18864 0)
(-0.0258222 1.17251 0)
(-0.386651 1.03961 0)
(-0.612756 0.896588 0)
(-0.548637 1.16201 0)
(-0.388645 1.38385 0)
(-0.288136 1.43122 0)
(-0.264913 1.44874 0)
(-0.272065 1.37532 0)
(-0.243241 1.27969 0)
(-0.147767 1.07162 0)
(-0.0507292 0.438015 0)
(-0.0986358 0.125262 0)
(-0.143945 0.155462 0)
(-0.146758 0.194971 0)
(-0.137166 0.234287 0)
(-0.122028 0.286028 0)
(-0.100494 0.327405 0)
(-0.0725396 0.358957 0)
(-0.043918 0.388047 0)
(-0.0118857 0.39894 0)
(0.0095119 0.308483 0)
(0.171003 0.526071 0)
(0.344637 0.508563 0)
(0.481703 0.461576 0)
(0.518782 0.443617 0)
(0.506316 0.590277 0)
(0.493573 0.934572 0)
(0.422989 1.10776 0)
(0.321845 1.22934 0)
(0.179737 1.33245 0)
(0.0116326 1.35843 0)
(-0.26876 1.33321 0)
(-0.505685 1.03585 0)
(-0.560882 1.04887 0)
(-0.446132 1.26953 0)
(-0.362434 1.39 0)
(-0.33876 1.40999 0)
(-0.344566 1.34394 0)
(-0.274478 1.18073 0)
(-0.0786429 0.87632 0)
(0.0437273 0.408078 0)
(-0.00837519 0.189343 0)
(-0.0763758 0.185783 0)
(-0.101346 0.20094 0)
(-0.108624 0.227302 0)
(-0.102451 0.27003 0)
(-0.0856407 0.301357 0)
(-0.0622018 0.327201 0)
(-0.0392576 0.35648 0)
(-0.0103911 0.365045 0)
(-0.0109314 0.26557 0)
(0.0963588 0.392425 0)
(0.21637 0.373947 0)
(0.317556 0.374127 0)
(0.353338 0.4166 0)
(0.358879 0.556777 0)
(0.430589 0.882037 0)
(0.460746 1.16143 0)
(0.392321 1.32933 0)
(0.243746 1.47694 0)
(0.061485 1.57137 0)
(-0.162249 1.54236 0)
(-0.459257 1.29259 0)
(-0.589083 1.03753 0)
(-0.50837 1.16043 0)
(-0.413361 1.35556 0)
(-0.387152 1.38921 0)
(-0.368633 1.29209 0)
(-0.222854 1.02953 0)
(-0.000979598 0.687574 0)
(0.0970558 0.391885 0)
(0.0530047 0.265806 0)
(-0.0194755 0.231437 0)
(-0.0660251 0.219433 0)
(-0.0846921 0.228579 0)
(-0.0807969 0.255981 0)
(-0.0676401 0.278071 0)
(-0.0498027 0.299391 0)
(-0.0337007 0.328451 0)
(-0.00779561 0.332596 0)
(-0.0159862 0.251537 0)
(0.0349707 0.3011 0)
(0.0907122 0.284053 0)
(0.140131 0.304358 0)
(0.189596 0.375222 0)
(0.234479 0.491654 0)
(0.339067 0.755653 0)
(0.463568 1.14617 0)
(0.477431 1.4098 0)
(0.337092 1.63435 0)
(0.146009 1.7579 0)
(-0.0940051 1.79347 0)
(-0.455275 1.61551 0)
(-0.62569 1.07769 0)
(-0.556078 1.05301 0)
(-0.442474 1.31932 0)
(-0.36997 1.37226 0)
(-0.28999 1.18628 0)
(-0.10207 0.842963 0)
(0.0603768 0.547081 0)
(0.111273 0.388087 0)
(0.0792969 0.319737 0)
(0.0250256 0.283013 0)
(-0.0214807 0.247101 0)
(-0.0442982 0.231333 0)
(-0.0481289 0.244914 0)
(-0.0433108 0.260065 0)
(-0.0344845 0.27756 0)
(-0.0263628 0.303924 0)
(-0.00408981 0.303718 0)
(-0.0119801 0.252348 0)
(-0.00158598 0.262933 0)
(0.00804383 0.248602 0)
(0.0218222 0.258258 0)
(0.0588882 0.313127 0)
(0.133434 0.412649 0)
(0.224249 0.625061 0)
(0.394815 1.01195 0)
(0.535808 1.44592 0)
(0.455495 1.76756 0)
(0.260339 1.9963 0)
(-0.00191929 2.03687 0)
(-0.39818 1.99075 0)
(-0.586152 1.14454 0)
(-0.562853 0.961925 0)
(-0.437974 1.23015 0)
(-0.291764 1.30921 0)
(-0.145868 1.03816 0)
(0.00608671 0.697523 0)
(0.0834953 0.481313 0)
(0.0948036 0.394211 0)
(0.0720408 0.350493 0)
(0.0436836 0.309068 0)
(0.0181906 0.262592 0)
(-0.0016138 0.23727 0)
(-0.0142773 0.240906 0)
(-0.0188417 0.249803 0)
(-0.0193525 0.263107 0)
(-0.0179636 0.283286 0)
(-0.000493467 0.281182 0)
(-0.00986739 0.260368 0)
(-0.0182146 0.256129 0)
(-0.0261379 0.2472 0)
(-0.0301028 0.247908 0)
(-0.013627 0.272364 0)
(0.0425679 0.339932 0)
(0.120617 0.523044 0)
(0.289394 0.812105 0)
(0.509484 1.34463 0)
(0.567203 1.88939 0)
(0.397986 2.19459 0)
(0.15261 2.33073 0)
(-0.160408 2.28301 0)
(-0.44298 1.30326 0)
(-0.541954 0.925418 0)
(-0.412226 1.09678 0)
(-0.198064 1.17066 0)
(-0.0307534 0.905428 0)
(0.0604559 0.630874 0)
(0.0766328 0.468291 0)
(0.0681086 0.403069 0)
(0.0571898 0.36588 0)
(0.048421 0.320229 0)
(0.0375039 0.273813 0)
(0.0219851 0.248407 0)
(0.00720432 0.243524 0)
(-0.00221108 0.246187 0)
(-0.0082625 0.25484 0)
(-0.00993475 0.267064 0)
(0.0014855 0.266151 0)
(-0.00964714 0.274711 0)
(-0.0258092 0.263987 0)
(-0.0395475 0.256022 0)
(-0.0503898 0.253062 0)
(-0.0501853 0.259031 0)
(-0.0275311 0.294748 0)
(0.0481503 0.427054 0)
(0.179615 0.6304 0)
(0.414203 1.11951 0)
(0.616397 1.92316 0)
(0.528355 2.38108 0)
(0.352581 2.51015 0)
(0.176026 2.53713 0)
(-0.224536 1.64389 0)
(-0.503025 0.942135 0)
(-0.382591 0.953924 0)
(-0.146221 1.01018 0)
(0.00917043 0.812927 0)
(0.0648767 0.610856 0)
(0.0596466 0.474568 0)
(0.0493026 0.409501 0)
(0.0465538 0.368399 0)
(0.0463117 0.323113 0)
(0.0399709 0.283194 0)
(0.0274437 0.259239 0)
(0.0148221 0.248286 0)
(0.00492934 0.245919 0)
(-0.0021555 0.24996 0)
(-0.00374371 0.255366 0)
(0.00199009 0.257527 0)
(-0.0104604 0.293465 0)
(-0.0310361 0.27897 0)
(-0.0478704 0.268608 0)
(-0.0610959 0.26281 0)
(-0.0695007 0.261844 0)
(-0.0643222 0.27445 0)
(-0.0127514 0.343911 0)
(0.0899896 0.486117 0)
(0.292811 0.854217 0)
(0.557397 1.81324 0)
(0.578472 2.46447 0)
(0.471594 2.65732 0)
(0.402716 2.65218 0)
(0.0336602 2.19975 0)
(-0.307444 1.02338 0)
(-0.33326 0.841263 0)
(-0.13787 0.856348 0)
(-0.00284071 0.734346 0)
(0.0460834 0.593793 0)
(0.0478072 0.477829 0)
(0.0440622 0.411984 0)
(0.0432714 0.367779 0)
(0.0417829 0.326353 0)
(0.0351962 0.29123 0)
(0.0250976 0.266953 0)
(0.0152049 0.252324 0)
(0.00664182 0.246267 0)
(0.00114025 0.245734 0)
(9.80951e-05 0.247623 0)
(0.00176185 0.253221 0)
(-0.0122896 0.318385 0)
(-0.0374574 0.299064 0)
(-0.0574 0.283583 0)
(-0.0712154 0.273532 0)
(-0.0796428 0.268044 0)
(-0.0799588 0.270466 0)
(-0.053901 0.296699 0)
(0.0233856 0.374969 0)
(0.171842 0.610207 0)
(0.415066 1.62101 0)
(0.526738 2.5013 0)
(0.485864 2.66803 0)
(0.487396 2.70844 0)
(0.351068 2.48314 0)
(-0.0178661 1.27315 0)
(-0.276804 0.821606 0)
(-0.14003 0.732168 0)
(-0.0258679 0.65676 0)
(0.0279505 0.563976 0)
(0.0424519 0.472304 0)
(0.044428 0.411956 0)
(0.0428727 0.368459 0)
(0.0386602 0.330025 0)
(0.0315398 0.296857 0)
(0.023053 0.271841 0)
(0.0148565 0.255064 0)
(0.00770538 0.246062 0)
(0.00375189 0.241978 0)
(0.00238117 0.242991 0)
(0.00130585 0.251158 0)
(-0.0170706 0.351035 0)
(-0.0496568 0.327861 0)
(-0.0719734 0.301299 0)
(-0.0854296 0.28393 0)
(-0.0919185 0.272497 0)
(-0.0909473 0.265977 0)
(-0.076319 0.269938 0)
(-0.0265469 0.298067 0)
(0.0735108 0.425962 0)
(0.265742 1.40913 0)
(0.432123 2.4086 0)
(0.467573 2.65687 0)
(0.503229 2.64356 0)
(0.544957 2.55505 0)
(0.214609 1.7733 0)
(-0.162105 0.862437 0)
(-0.1224 0.646093 0)
(-0.0363746 0.588604 0)
(0.0192411 0.527351 0)
(0.0415457 0.462341 0)
(0.0460562 0.411197 0)
(0.0440549 0.370175 0)
(0.0388686 0.333588 0)
(0.0318719 0.301363 0)
(0.0243389 0.2757 0)
(0.0169208 0.257457 0)
(0.0105744 0.246105 0)
(0.00707606 0.239515 0)
(0.00418244 0.241205 0)
(0.000998306 0.250395 0)
(-0.0212877 0.388271 0)
(-0.068491 0.36769 0)
(-0.098765 0.319757 0)
(-0.10788 0.29222 0)
(-0.110625 0.274246 0)
(-0.107171 0.259858 0)
(-0.0949132 0.250174 0)
(-0.0665468 0.250734 0)
(-0.00716035 0.311232 0)
(0.127467 1.19086 0)
(0.338015 2.27541 0)
(0.447211 2.52464 0)
(0.495702 2.5894 0)
(0.540477 2.51787 0)
(0.370085 2.16372 0)
(-0.0196965 1.06894 0)
(-0.0991111 0.584589 0)
(-0.0202073 0.528725 0)
(0.0280332 0.494633 0)
(0.0488671 0.453203 0)
(0.0519256 0.411641 0)
(0.0483852 0.373092 0)
(0.0426075 0.337261 0)
(0.0360597 0.305465 0)
(0.0291878 0.2795 0)
(0.0222978 0.260498 0)
(0.0162927 0.247665 0)
(0.012371 0.238487 0)
(0.00596388 0.24418 0)
(0.000491883 0.252201 0)
(-0.012592 0.515028 0)
(-0.0910435 0.478962 0)
(-0.145937 0.332831 0)
(-0.141979 0.294519 0)
(-0.136063 0.271824 0)
(-0.129145 0.252781 0)
(-0.119399 0.235333 0)
(-0.105707 0.225203 0)
(-0.0820268 0.265198 0)
(-0.0241583 0.984321 0)
(0.245239 2.07907 0)
(0.474656 2.39965 0)
(0.49994 2.53568 0)
(0.474177 2.51871 0)
(0.368843 2.30254 0)
(0.108735 1.39914 0)
(-0.0145196 0.553908 0)
(0.0382913 0.488809 0)
(0.0622873 0.473419 0)
(0.0695284 0.449392 0)
(0.0647906 0.41583 0)
(0.0562938 0.378494 0)
(0.0484725 0.341701 0)
(0.0419952 0.309501 0)
(0.0362552 0.283452 0)
(0.0306794 0.264603 0)
(0.0241043 0.251573 0)
(0.0228821 0.242395 0)
(0.0110333 0.257246 0)
(-0.000510958 0.255984 0)
(-0.041703 0.443364 0)