/*--------------------------------*- C++ -*----------------------------------*\
| =========                 |                                                 |
| \\      /  F ield         | OpenFOAM: The Open Source CFD Toolbox           |
|  \\    /   O peration     | Version:  2.3.0                                 |
|   \\  /    A nd           | Web:      www.OpenFOAM.org                      |
|    \\/     M anipulation  |                                                 |
\*---------------------------------------------------------------------------*/
FoamFile
{
    version     2.0;
    format      ascii;
    class       volVectorField;
    location    "59";
    object      U.water;
}
// * * * * * * * * * * * * * * * * * * * * * * * * * * * * * * * * * * * * * //

dimensions      [0 1 -1 0 0 0 0];

internalField   nonuniform List<vector> 
1875
(
(0.0212439 -0.100043 0)
(0.0388996 -0.106732 0)
(0.0710241 -0.108906 0)
(0.103631 -0.107554 0)
(0.134979 -0.103795 0)
(0.163862 -0.0986327 0)
(0.189515 -0.092751 0)
(0.211494 -0.0865449 0)
(0.229472 -0.0801863 0)
(0.243187 -0.0736857 0)
(0.252414 -0.066954 0)
(0.256967 -0.0600022 0)
(0.256352 -0.0529176 0)
(0.25007 -0.0458981 0)
(0.238035 -0.0389175 0)
(0.220572 -0.032304 0)
(0.198613 -0.0271707 0)
(0.173605 -0.0243602 0)
(0.147256 -0.0244041 0)
(0.121548 -0.0275178 0)
(0.0982161 -0.0329018 0)
(0.0777946 -0.0382831 0)
(0.0587596 -0.0413312 0)
(0.0357907 -0.0427175 0)
(0.0209213 -0.046421 0)
(0.0286239 -0.0602692 0)
(0.0498917 -0.0670886 0)
(0.0779935 -0.0711864 0)
(0.10342 -0.0693876 0)
(0.126766 -0.0633313 0)
(0.147855 -0.0542007 0)
(0.166513 -0.0432002 0)
(0.182616 -0.031011 0)
(0.196016 -0.0179841 0)
(0.206443 -0.00424635 0)
(0.213492 0.0103128 0)
(0.216435 0.0257363 0)
(0.215363 0.0413078 0)
(0.210894 0.0565168 0)
(0.202747 0.0710478 0)
(0.190533 0.0843352 0)
(0.173831 0.0944913 0)
(0.153515 0.100775 0)
(0.130941 0.102857 0)
(0.107708 0.101412 0)
(0.0848744 0.0979799 0)
(0.0635059 0.0948893 0)
(0.0443162 0.0960875 0)
(0.0255735 0.10194 0)
(0.0118826 0.101654 0)
(0.0222637 -0.179463 0)
(0.0484609 -0.174402 0)
(0.0736933 -0.165124 0)
(0.0935266 -0.152742 0)
(0.109985 -0.138279 0)
(0.123702 -0.122201 0)
(0.13491 -0.10502 0)
(0.143669 -0.0870588 0)
(0.150086 -0.0684669 0)
(0.154396 -0.0492049 0)
(0.156978 -0.0291554 0)
(0.158309 -0.00806157 0)
(0.157727 0.0143888 0)
(0.154239 0.0377287 0)
(0.147699 0.0608295 0)
(0.137835 0.0823152 0)
(0.124883 0.0997326 0)
(0.109182 0.111041 0)
(0.0916749 0.11498 0)
(0.0736355 0.112397 0)
(0.0562876 0.105926 0)
(0.0405111 0.0993267 0)
(0.0266612 0.0967761 0)
(0.0151568 0.0971215 0)
(0.00729003 0.0936614 0)
(0.00874575 -0.215946 0)
(0.0335809 -0.205302 0)
(0.0500771 -0.188889 0)
(0.0627649 -0.17055 0)
(0.0732716 -0.150785 0)
(0.0817282 -0.129599 0)
(0.0880485 -0.107229 0)
(0.0922106 -0.084012 0)
(0.0943161 -0.0602366 0)
(0.0945332 -0.0360622 0)
(0.0929953 -0.0113797 0)
(0.0897801 0.0140219 0)
(0.0853162 0.040128 0)
(0.0798924 0.0669447 0)
(0.0733745 0.0937282 0)
(0.0656735 0.11885 0)
(0.0568205 0.13939 0)
(0.0473972 0.152176 0)
(0.0378935 0.156557 0)
(0.0287169 0.152883 0)
(0.0205331 0.143843 0)
(0.0137658 0.133589 0)
(0.00839407 0.126677 0)
(0.00452055 0.121976 0)
(0.00121307 0.115899 0)
(-0.000335963 -0.2389 0)
(0.0151802 -0.228492 0)
(0.0210289 -0.210375 0)
(0.0257096 -0.189721 0)
(0.0296308 -0.166988 0)
(0.0319941 -0.142364 0)
(0.0326038 -0.116341 0)
(0.0316 -0.0895008 0)
(0.0291763 -0.0622848 0)
(0.0255356 -0.0348994 0)
(0.0209 -0.00729823 0)
(0.015449 0.0207992 0)
(0.00939458 0.0495997 0)
(0.00303958 0.0787659 0)
(-0.00320976 0.107205 0)
(-0.0087439 0.132945 0)
(-0.0128794 0.152849 0)
(-0.015266 0.163463 0)
(-0.0160594 0.16515 0)
(-0.0153398 0.158546 0)
(-0.0134776 0.147033 0)
(-0.0110631 0.135143 0)
(-0.00825332 0.126774 0)
(-0.00474834 0.120905 0)
(-0.003115 0.114552 0)
(-0.00476437 -0.242763 0)
(-0.000352582 -0.231676 0)
(-0.00454252 -0.212118 0)
(-0.00795556 -0.190092 0)
(-0.0115884 -0.165081 0)
(-0.0165222 -0.137597 0)
(-0.0226072 -0.108713 0)
(-0.0294848 -0.079238 0)
(-0.036891 -0.0497777 0)
(-0.0445813 -0.0206254 0)
(-0.0523533 0.00824046 0)
(-0.0599271 0.0370101 0)
(-0.0668813 0.0656688 0)
(-0.0726121 0.0936066 0)
(-0.0762957 0.119292 0)
(-0.0770619 0.140393 0)
(-0.0743833 0.153993 0)
(-0.0686 0.15903 0)
(-0.0604666 0.155888 0)
(-0.0506789 0.145993 0)
(-0.0404307 0.13302 0)
(-0.0306551 0.120946 0)
(-0.0213685 0.112347 0)
(-0.0118318 0.1066 0)
(-0.00715737 0.101343 0)
(-0.0119634 -0.231917 0)
(-0.0138402 -0.219656 0)
(-0.0259723 -0.199382 0)
(-0.037048 -0.176581 0)
(-0.0484065 -0.149925 0)
(-0.0607329 -0.120668 0)
(-0.0733613 -0.0904485 0)
(-0.0858175 -0.0602757 0)
(-0.0977161 -0.0307911 0)
(-0.108677 -0.0022606 0)
(-0.118294 0.0253168 0)
(-0.12606 0.0518849 0)
(-0.131294 0.076971 0)
(-0.1332 0.0994986 0)
(-0.131111 0.117853 0)
(-0.124813 0.130409 0)
(-0.114624 0.136158 0)
(-0.10131 0.134798 0)
(-0.0859209 0.127352 0)
(-0.0698239 0.115947 0)
(-0.05441 0.103778 0)
(-0.0403317 0.0934542 0)
(-0.0273769 0.0862024 0)
(-0.0149524 0.0816696 0)
(-0.00893681 0.0783876 0)
(-0.0181196 -0.205935 0)
(-0.0240097 -0.192181 0)
(-0.0426562 -0.171562 0)
(-0.0602228 -0.14825 0)
(-0.0781779 -0.12057 0)
(-0.0964296 -0.0908782 0)
(-0.113981 -0.0611087 0)
(-0.130264 -0.0323911 0)
(-0.144627 -0.00544132 0)
(-0.156376 0.0193724 0)
(-0.164877 0.041757 0)
(-0.169559 0.0616337 0)
(-0.169944 0.0784651 0)
(-0.165796 0.0917109 0)
(-0.157131 0.100537 0)
(-0.144377 0.104462 0)
(-0.128295 0.103052 0)
(-0.109988 0.0970344 0)
(-0.0908506 0.0878975 0)
(-0.0722994 0.0776229 0)
(-0.0553005 0.0682562 0)
(-0.04008 0.0611474 0)
(-0.026406 0.0569025 0)
(-0.0140374 0.0557302 0)
(-0.00810006 0.0557968 0)
(-0.0221464 -0.168326 0)
(-0.0308489 -0.153448 0)
(-0.0536238 -0.1327 0)
(-0.0753975 -0.109206 0)
(-0.097309 -0.0815748 0)
(-0.118622 -0.0531345 0)
(-0.138195 -0.0259768 0)
(-0.15523 -0.00149186 0)
(-0.168873 0.0194975 0)
(-0.178461 0.0366098 0)
(-0.1835 0.0501058 0)
(-0.183714 0.0603163 0)
(-0.179089 0.0675255 0)
(-0.16983 0.0712424 0)
(-0.156446 0.0712669 0)
(-0.13981 0.0680411 0)
(-0.120972 0.061978 0)
(-0.101274 0.0542241 0)
(-0.0819904 0.0460348 0)
(-0.0641015 0.0386577 0)
(-0.0480872 0.0330792 0)
(-0.0339786 0.0298751 0)
(-0.0216905 0.0294499 0)
(-0.011132 0.0323428 0)
(-0.00632942 0.0361961 0)
(-0.0243431 -0.123521 0)
(-0.0338278 -0.107802 0)
(-0.0581291 -0.0871025 0)
(-0.0813288 -0.0640463 0)
(-0.104188 -0.0377817 0)
(-0.125632 -0.0123186 0)
(-0.144469 0.0101074 0)
(-0.1598 0.028034 0)
(-0.170914 0.0408944 0)
(-0.17709 0.0487168 0)
(-0.178508 0.0523191 0)
(-0.175102 0.0527127 0)
(-0.167029 0.0494007 0)
(-0.15505 0.0437088 0)
(-0.140016 0.0366461 0)
(-0.122783 0.0287703 0)
(-0.104537 0.0207291 0)
(-0.0863806 0.013386 0)
(-0.0691229 0.00745335 0)
(-0.0532814 0.00351103 0)
(-0.0390978 0.00193183 0)
(-0.026678 0.00295227 0)
(-0.0161894 0.00692947 0)
(-0.00779785 0.0145132 0)
(-0.00420163 0.0224425 0)
(-0.023824 -0.0765555 0)
(-0.0329158 -0.0602734 0)
(-0.0562878 -0.0398324 0)
(-0.0784312 -0.0179292 0)
(-0.0997989 0.00571737 0)
(-0.119256 0.0268124 0)
(-0.135771 0.0429606 0)
(-0.14866 0.052771 0)
(-0.156766 0.0560813 0)
(-0.160726 0.0541343 0)
(-0.159868 0.0476215 0)
(-0.154686 0.0380489 0)
(-0.145919 0.0268684 0)
(-0.134226 0.0152022 0)
(-0.120506 0.00377946 0)
(-0.105632 -0.00660645 0)
(-0.0903671 -0.0153151 0)
(-0.0752817 -0.0218678 0)
(-0.0607387 -0.025925 0)
(-0.0469766 -0.0272074 0)
(-0.0341876 -0.0254904 0)
(-0.0226361 -0.0205274 0)
(-0.0127873 -0.0118947 0)
(-0.00523714 0.000949382 0)
(-0.00216188 0.0135271 0)
(-0.0211609 -0.0324322 0)
(-0.0290945 -0.0156086 0)
(-0.0496786 0.00440209 0)
(-0.069011 0.0246232 0)
(-0.08734 0.0450298 0)
(-0.103691 0.0614159 0)
(-0.117329 0.0714703 0)
(-0.127746 0.0740443 0)
(-0.13447 0.0692393 0)
(-0.137241 0.058177 0)
(-0.136108 0.0430174 0)
(-0.131621 0.0260377 0)
(-0.124505 0.00884633 0)
(-0.115484 -0.0074424 0)
(-0.105244 -0.0219275 0)
(-0.0943135 -0.0340923 0)
(-0.0830085 -0.0436573 0)
(-0.0714827 -0.0504272 0)
(-0.0598016 -0.0541965 0)
(-0.0480168 -0.0546919 0)
(-0.0362436 -0.0515254 0)
(-0.0247735 -0.0441309 0)
(-0.0142571 -0.0316963 0)
(-0.00566898 -0.0134139 0)
(-0.00211136 0.00559173 0)
(-0.0176031 0.00535973 0)
(-0.0238554 0.0228682 0)
(-0.040688 0.0423906 0)
(-0.0563488 0.060724 0)
(-0.0709997 0.0778995 0)
(-0.0839742 0.0900481 0)
(-0.0948309 0.0949927 0)
(-0.103205 0.091644 0)
(-0.108648 0.0801403 0)
(-0.111004 0.0623143 0)
(-0.110636 0.0409721 0)
(-0.1081 0.018721 0)
(-0.103976 -0.002577 0)
(-0.0987728 -0.0218176 0)
(-0.092837 -0.0384666 0)
(-0.0863361 -0.0523316 0)
(-0.0793093 -0.0633626 0)
(-0.0717175 -0.0715118 0)
(-0.0634872 -0.0766056 0)
(-0.0545157 -0.0782234 0)
(-0.0447735 -0.075827 0)
(-0.0343834 -0.0683668 0)
(-0.0238195 -0.0543691 0)
(-0.0138271 -0.0324204 0)
(-0.00849342 -0.00744364 0)
(-0.0135191 0.0352622 0)
(-0.0178749 0.0535358 0)
(-0.030322 0.0725246 0)
(-0.0417605 0.0889463 0)
(-0.0523824 0.103351 0)
(-0.0618101 0.112286 0)
(-0.0698162 0.113621 0)
(-0.0761371 0.106131 0)
(-0.0804576 0.0900236 0)
(-0.0828472 0.0678411 0)
(-0.0837521 0.0427463 0)
(-0.0835994 0.0174336 0)
(-0.0827141 -0.00631642 0)
(-0.0812763 -0.0275705 0)
(-0.079335 -0.0459819 0)
(-0.0768661 -0.0615087 0)
(-0.0738151 -0.0742206 0)
(-0.0701074 -0.0841726 0)
(-0.0656252 -0.0913066 0)
(-0.0602159 -0.0953745 0)
(-0.053677 -0.0956732 0)
(-0.0457591 -0.0909619 0)
(-0.0363307 -0.0798339 0)
(-0.0246194 -0.0609211 0)
(-0.0166613 -0.0411139 0)
(-0.0083955 0.0562322 0)
(-0.0108342 0.0749451 0)
(-0.0182602 0.0933907 0)
(-0.0250669 0.108291 0)
(-0.031479 0.120772 0)
(-0.0371868 0.127608 0)
(-0.0422986 0.126921 0)
(-0.0466417 0.117207 0)
(-0.0501889 0.0988455 0)
(-0.0530792 0.0747453 0)
(-0.055518 0.0480448 0)
(-0.0576323 0.0213289 0)
(-0.0594602 -0.00375081 0)
(-0.0609533 -0.0263652 0)
(-0.0620285 -0.0462096 0)
(-0.0626208 -0.0632497 0)
(-0.0626967 -0.0775821 0)
(-0.0622239 -0.089341 0)
(-0.0610983 -0.0986428 0)
(-0.0591282 -0.105447 0)
(-0.0560146 -0.109378 0)
(-0.0511905 -0.109774 0)
(-0.0436565 -0.105482 0)
(-0.031027 -0.0957403 0)
(-0.0196243 -0.0849566 0)
(-0.00298728 0.066337 0)
(-0.0033473 0.0851736 0)
(-0.00547236 0.103481 0)
(-0.00758044 0.117841 0)
(-0.00969478 0.129531 0)
(-0.0117061 0.135819 0)
(-0.0138414 0.134919 0)
(-0.0162366 0.125258 0)
(-0.0190663 0.107162 0)
(-0.0223561 0.0832197 0)
(-0.0259916 0.0563902 0)
(-0.0298018 0.0291985 0)
(-0.0335871 0.00331433 0)
(-0.0371488 -0.0203593 0)
(-0.0403433 -0.04141 0)
(-0.0431114 -0.0597214 0)
(-0.04545 -0.0753837 0)
(-0.0473594 -0.0886201 0)
(-0.0487383 -0.0997739 0)
(-0.0493292 -0.10908 0)
(-0.0487368 -0.116677 0)
(-0.0463607 -0.122731 0)
(-0.0411346 -0.127248 0)
(-0.0302934 -0.129994 0)
(-0.0157777 -0.130522 0)
(0.00158172 0.0659496 0)
(0.00346594 0.0847071 0)
(0.00651063 0.10308 0)
(0.0089019 0.117701 0)
(0.0109003 0.12961 0)
(0.0125177 0.136708 0)
(0.0133768 0.137196 0)
(0.0131153 0.129665 0)
(0.0114254 0.113841 0)
(0.00833852 0.0918168 0)
(0.00417086 0.0662733 0)
(-0.000674712 0.0396351 0)
(-0.00580963 0.0136348 0)
(-0.0109063 -0.0106724 0)
(-0.0157326 -0.0326819 0)
(-0.0201612 -0.0521244 0)
(-0.0241436 -0.0690269 0)
(-0.0276251 -0.0837098 0)
(-0.0303908 -0.0967305 0)
(-0.0320884 -0.108486 0)
(-0.0323856 -0.119374 0)
(-0.0310689 -0.129917 0)
(-0.0279319 -0.140883 0)
(-0.0211723 -0.152997 0)
(-0.00719964 -0.16174 0)
(0.00519088 0.0564075 0)
(0.00925266 0.0739975 0)
(0.017132 0.0926105 0)
(0.0236638 0.108347 0)
(0.0293684 0.121431 0)
(0.0342777 0.130406 0)
(0.0380213 0.133673 0)
(0.0400279 0.129773 0)
(0.0399302 0.118128 0)
(0.0375682 0.0997514 0)
(0.0333634 0.0768827 0)
(0.027901 0.0518244 0)
(0.0217757 0.0264046 0)
(0.0154617 0.00188463 0)
(0.00931085 -0.0208967 0)
(0.00356274 -0.041477 0)
(-0.00161807 -0.0597825 0)
(-0.00607675 -0.0761858 0)
(-0.00958894 -0.0913901 0)
(-0.0119373 -0.105794 0)
(-0.0129363 -0.119596 0)
(-0.0125322 -0.133021 0)
(-0.0112696 -0.146913 0)
(-0.00943226 -0.162906 0)
(-0.000619787 -0.17502 0)
(0.00787928 0.0385988 0)
(0.013465 0.053932 0)
(0.0250671 0.0731319 0)
(0.0352791 0.0907979 0)
(0.0442002 0.105982 0)
(0.0519293 0.117618 0)
(0.0582 0.124466 0)
(0.0625902 0.125116 0)
(0.0643824 0.118982 0)
(0.0633853 0.105724 0)
(0.0597546 0.0869941 0)
(0.0541617 0.0647178 0)
(0.0473678 0.0407804 0)
(0.040061 0.0166506 0)
(0.0327662 -0.00659106 0)
(0.0258683 -0.0282584 0)
(0.0196387 -0.0481347 0)
(0.0142801 -0.0664913 0)
(0.00990692 -0.0839025 0)
(0.00651624 -0.100593 0)
(0.00412044 -0.116742 0)
(0.00274444 -0.132217 0)
(0.00187159 -0.147182 0)
(-0.000267214 -0.164027 0)
(0.00229463 -0.177801 0)
(0.00915056 0.0166224 0)
(0.0154238 0.0289876 0)
(0.0293338 0.0474398 0)
(0.0425928 0.0668711 0)
(0.0543149 0.084644 0)
(0.0644301 0.0994406 0)
(0.0728408 0.110257 0)
(0.079178 0.115874 0)
(0.0830316 0.115465 0)
(0.0838493 0.108843 0)
(0.081523 0.0955981 0)
(0.0764342 0.0774833 0)
(0.069403 0.0561182 0)
(0.0613281 0.0331351 0)
(0.0529932 0.00987591 0)
(0.0449766 -0.0126881 0)
(0.0376465 -0.0340603 0)
(0.0311907 -0.0542765 0)
(0.0256171 -0.0736053 0)
(0.0208232 -0.0921673 0)
(0.0166812 -0.109989 0)
(0.0131006 -0.126724 0)
(0.00979884 -0.142003 0)
(0.00549446 -0.158667 0)
(0.00517408 -0.173681 0)
(0.00943247 -0.00717983 0)
(0.0153278 0.00142285 0)
(0.0300129 0.0178019 0)
(0.0453072 0.038197 0)
(0.0593763 0.0586521 0)
(0.0715701 0.0769843 0)
(0.0817744 0.0920531 0)
(0.089756 0.102821 0)
(0.0951863 0.108225 0)
(0.0977664 0.107751 0)
(0.0971619 0.101573 0)
(0.0931874 0.0890865 0)
(0.086413 0.0716542 0)
(0.0778973 0.0508167 0)
(0.0686884 0.028174 0)
(0.0596026 0.00507088 0)
(0.0511538 -0.0175768 0)
(0.0435479 -0.0393976 0)
(0.0367563 -0.0603238 0)
(0.0306347 -0.0802864 0)
(0.0249586 -0.0991756 0)
(0.0195647 -0.116651 0)
(0.0143868 -0.132185 0)
(0.00866251 -0.148537 0)
(0.00722752 -0.164117 0)
(0.00876707 -0.0299046 0)
(0.0133582 -0.0257462 0)
(0.0269582 -0.0129164 0)
(0.0427794 0.00683828 0)
(0.0585204 0.0292812 0)
(0.0726594 0.0511387 0)
(0.0846098 0.0706136 0)
(0.0941406 0.0865824 0)
(0.100964 0.0979188 0)
(0.104819 0.103813 0)
(0.105467 0.103834 0)
(0.102933 0.0984278 0)
(0.0969775 0.0863444 0)
(0.0885949 0.0687488 0)
(0.0789468 0.0475132 0)
(0.0690532 0.0243854 0)
(0.0596571 0.000788714 0)
(0.0510976 -0.0223781 0)
(0.0433758 -0.0446636 0)
(0.0363293 -0.0657515 0)
(0.0297051 -0.0853921 0)
(0.0232878 -0.103296 0)
(0.0170256 -0.118988 0)
(0.0104185 -0.135036 0)
(0.00810869 -0.150329 0)
(0.00704526 -0.0488431 0)
(0.0101503 -0.0498062 0)
(0.0213686 -0.0419527 0)
(0.0356427 -0.0250607 0)
(0.051554 -0.00239754 0)
(0.0670054 0.0223261 0)
(0.0805364 0.0462995 0)
(0.0914658 0.067747 0)
(0.099467 0.0853256 0)
(0.104339 0.0980868 0)
(0.105902 0.105256 0)
(0.104394 0.105765 0)
(0.100255 0.0997359 0)
(0.0929961 0.0863224 0)
(0.0836911 0.067279 0)
(0.0734843 0.0446378 0)
(0.0634301 0.0203588 0)
(0.0541658 -0.0040449 0)
(0.0458322 -0.027628 0)
(0.0382865 -0.0498032 0)
(0.0312639 -0.0701442 0)
(0.0244945 -0.0884022 0)
(0.0178689 -0.104234 0)
(0.0109457 -0.120062 0)
(0.00839442 -0.134863 0)
(0.00463087 -0.0627524 0)
(0.00694083 -0.0698225 0)
(0.0159058 -0.0667368 0)
(0.0275476 -0.0542018 0)
(0.0416376 -0.0335825 0)
(0.0566537 -0.00776104 0)
(0.0707346 0.0200187 0)
(0.0825541 0.0469886 0)
(0.0913831 0.0709621 0)
(0.0969966 0.0903369 0)
(0.0995029 0.103655 0)
(0.0988927 0.110098 0)
(0.0959688 0.109504 0)
(0.0903787 0.101772 0)
(0.0821744 0.0862316 0)
(0.0725018 0.0649906 0)
(0.0624435 0.0404385 0)
(0.0529464 0.0148585 0)
(0.044421 -0.0101083 0)
(0.0368155 -0.0335045 0)
(0.0298677 -0.0546638 0)
(0.023287 -0.0733601 0)
(0.0169009 -0.0893731 0)
(0.0102915 -0.10507 0)
(0.00786676 -0.119392 0)
(0.00389086 -0.0724941 0)
(0.00616053 -0.0857425 0)
(0.0132384 -0.0870726 0)
(0.0220928 -0.0784935 0)
(0.0329097 -0.0606878 0)
(0.0452904 -0.035513 0)
(0.0579468 -0.00562158 0)
(0.0693252 0.0258801 0)
(0.0782416 0.0558803 0)
(0.0841032 0.0816727 0)
(0.0868186 0.101607 0)
(0.0867369 0.114079 0)
(0.08422 0.118505 0)
(0.0799271 0.115021 0)
(0.0734453 0.103271 0)
(0.0652654 0.0840033 0)
(0.0562688 0.0596814 0)
(0.0474191 0.033105 0)
(0.0393948 0.00670839 0)
(0.0323257 -0.0179949 0)
(0.0259958 -0.0401233 0)
(0.0201195 -0.0593795 0)
(0.0145009 -0.0756807 0)
(0.00876945 -0.0913912 0)
(0.00660313 -0.105384 0)
(0.00535491 -0.0840906 0)
(0.00811611 -0.0992534 0)
(0.0132314 -0.102975 0)
(0.0195131 -0.0964226 0)
(0.0268202 -0.0807331 0)
(0.0353145 -0.0569825 0)
(0.044692 -0.0267221 0)
(0.0538724 0.00748663 0)
(0.0615733 0.0422561 0)
(0.0668275 0.0739961 0)
(0.069226 0.099818 0)
(0.0691767 0.117117 0)
(0.0672273 0.125593 0)
(0.0637232 0.125337 0)
(0.0589395 0.116764 0)
(0.0526954 0.0996922 0)
(0.0455749 0.0761601 0)
(0.0382576 0.0490287 0)
(0.0314744 0.0213718 0)
(0.0255514 -0.00461512 0)
(0.0203547 -0.027729 0)
(0.015617 -0.0476055 0)
(0.0111915 -0.064285 0)
(0.00675712 -0.0801008 0)
(0.00489949 -0.0939473 0)
(0.00691888 -0.0996981 0)
(0.0108297 -0.11118 0)
(0.0143183 -0.114845 0)
(0.0180631 -0.108539 0)
(0.0221859 -0.0934875 0)
(0.0268218 -0.0705497 0)
(0.032179 -0.0405844 0)
(0.0379106 -0.00527905 0)
(0.0431089 0.0323741 0)
(0.0467898 0.0683719 0)
(0.0483687 0.0988589 0)
(0.0481368 0.11984 0)
(0.0466022 0.131263 0)
(0.0439704 0.133373 0)
(0.0406501 0.126775 0)
(0.0364772 0.111331 0)
(0.0316728 0.0886118 0)
(0.026542 0.0612865 0)
(0.021638 0.0326827 0)
(0.0173581 0.00560789 0)
(0.0136729 -0.0183696 0)
(0.0103877 -0.0388581 0)
(0.00742926 -0.0559734 0)
(0.0045641 -0.0719303 0)
(0.00301068 -0.0857281 0)
(0.00687623 -0.117991 0)
(0.0133265 -0.121927 0)
(0.0152227 -0.122168 0)
(0.0159023 -0.11465 0)
(0.0170766 -0.0994018 0)
(0.0185769 -0.0766457 0)
(0.020332 -0.046931 0)
(0.0223256 -0.0113831 0)
(0.0241807 0.0275855 0)
(0.0253837 0.0660107 0)
(0.0256681 0.0993574 0)
(0.0251661 0.122547 0)
(0.024088 0.135539 0)
(0.0225368 0.138794 0)
(0.0207225 0.132894 0)
(0.0186327 0.118244 0)
(0.0162696 0.096168 0)
(0.0136935 0.0689432 0)
(0.011124 0.0398186 0)
(0.00880569 0.012021 0)
(0.00682805 -0.0125776 0)
(0.0051181 -0.0335501 0)
(0.00371061 -0.0510959 0)
(0.00254971 -0.0672368 0)
(0.00133081 -0.0809196 0)
(0.00397387 -0.135815 0)
(0.0122582 -0.131104 0)
(0.0126725 -0.124596 0)
(0.0110838 -0.115362 0)
(0.0100731 -0.0997891 0)
(0.0092199 -0.0767797 0)
(0.00820788 -0.0467953 0)
(0.00706661 -0.0109051 0)
(0.00581281 0.0286063 0)
(0.00451577 0.0676554 0)
(0.00347842 0.101419 0)
(0.0027777 0.124816 0)
(0.00224306 0.137903 0)
(0.0018399 0.141156 0)
(0.00158899 0.135099 0)
(0.00146729 0.120457 0)
(0.00139923 0.0985267 0)
(0.00131216 0.0714397 0)
(0.0011394 0.0423489 0)
(0.000879118 0.0143724 0)
(0.000609171 -0.0104578 0)
(0.000408811 -0.031693 0)
(0.000497796 -0.0496211 0)
(0.00103911 -0.0658675 0)
(0.000173861 -0.078999 0)
(-0.00016268 -0.144851 0)
(0.00709822 -0.13475 0)
(0.00618418 -0.123297 0)
(0.00424889 -0.112237 0)
(0.00202986 -0.095907 0)
(-0.000672462 -0.0722244 0)
(-0.00387113 -0.0416997 0)
(-0.00743523 -0.00553006 0)
(-0.0110606 0.0338438 0)
(-0.0142019 0.0721702 0)
(-0.0161465 0.10443 0)
(-0.0168866 0.126462 0)
(-0.0168284 0.138211 0)
(-0.0161232 0.14042 0)
(-0.0148596 0.133506 0)
(-0.0131561 0.1183 0)
(-0.0111773 0.0961766 0)
(-0.00912885 0.0692174 0)
(-0.00723009 0.040445 0)
(-0.0056385 0.0128339 0)
(-0.00437836 -0.0117423 0)
(-0.00329922 -0.0329561 0)
(-0.00201763 -0.0510303 0)
(-0.000131793 -0.0669246 0)
(-0.000572983 -0.0789855 0)
(-0.00296389 -0.146268 0)
(0.0012736 -0.133717 0)
(-0.0010538 -0.119926 0)
(-0.00319007 -0.106931 0)
(-0.00627736 -0.0889276 0)
(-0.0103969 -0.0639491 0)
(-0.0153556 -0.0325438 0)
(-0.0208565 0.0038602 0)
(-0.0261931 0.0424394 0)
(-0.0303417 0.0786572 0)
(-0.0325283 0.107786 0)
(-0.0329344 0.127105 0)
(-0.0320968 0.136524 0)
(-0.0302148 0.136913 0)
(-0.0275125 0.128462 0)
(-0.0241752 0.112264 0)
(-0.0204334 0.0897258 0)
(-0.016597 0.062944 0)
(-0.0130159 0.0347998 0)
(-0.00993642 0.00801826 0)
(-0.00740557 -0.0157793 0)
(-0.00537739 -0.0364545 0)
(-0.00365815 -0.0545137 0)
(-0.00133982 -0.0701955 0)
(-0.00110159 -0.0808672 0)
(-0.00508533 -0.142221 0)
(-0.00344078 -0.128578 0)
(-0.00677403 -0.113516 0)
(-0.00992604 -0.0991842 0)
(-0.0140489 -0.0794869 0)
(-0.0194352 -0.0530392 0)
(-0.025874 -0.0206961 0)
(-0.0327416 0.0156208 0)
(-0.038844 0.0524531 0)
(-0.0429825 0.085199 0)
(-0.0447211 0.110179 0)
(-0.0444626 0.125853 0)
(-0.0427871 0.132312 0)
(-0.0398001 0.130362 0)
(-0.0358214 0.120201 0)
(-0.0310843 0.102866 0)
(-0.0258872 0.0798754 0)
(-0.0206243 0.0533894 0)
(-0.0157235 0.026139 0)
(-0.0114637 0.000551754 0)
(-0.00790654 -0.0220011 0)
(-0.00521753 -0.0414486 0)
(-0.00399354 -0.0587673 0)
(-0.00248075 -0.0748903 0)
(-0.00165629 -0.0843026 0)
(-0.00646785 -0.134565 0)
(-0.00636238 -0.120334 0)
(-0.01056 -0.104976 0)
(-0.0147467 -0.0893361 0)
(-0.020142 -0.0679409 0)
(-0.0268948 -0.0400297 0)
(-0.0345683 -0.00700182 0)
(-0.0420367 0.0284261 0)
(-0.0478911 0.0622587 0)
(-0.0512732 0.090541 0)
(-0.0522316 0.110944 0)
(-0.0512199 0.122842 0)
(-0.0487384 0.126274 0)
(-0.0448376 0.12165 0)
(-0.0398605 0.109445 0)
(-0.0340715 0.0908176 0)
(-0.0278381 0.0673643 0)
(-0.0216162 0.0412796 0)
(-0.0158544 0.0151048 0)
(-0.0108269 -0.00901436 0)
(-0.00666426 -0.029816 0)
(-0.0036454 -0.0470732 0)
(-0.00294342 -0.0621817 0)
(-0.0025903 -0.0793711 0)
(-0.00177887 -0.0884798 0)
(-0.00749671 -0.123808 0)
(-0.00793625 -0.109618 0)
(-0.0129721 -0.0941639 0)
(-0.0181867 -0.0772107 0)
(-0.0247987 -0.0543067 0)
(-0.032682 -0.0253021 0)
(-0.0408597 0.0075531 0)
(-0.0478943 0.0407404 0)
(-0.0527239 0.0704337 0)
(-0.0551057 0.0938657 0)
(-0.0553621 0.109867 0)
(-0.0538213 0.117804 0)
(-0.0506171 0.11828 0)
(-0.0460704 0.111026 0)
(-0.040434 0.0968531 0)
(-0.034052 0.0770361 0)
(-0.0273347 0.0532815 0)
(-0.0207597 0.027785 0)
(-0.0147461 0.00288315 0)
(-0.00954378 -0.019497 0)
(-0.00532093 -0.0381073 0)
(-0.0022654 -0.0525239 0)
(-0.00106543 -0.0645288 0)
(-0.00114163 -0.0822399 0)
(-0.000877015 -0.0917239 0)
(-0.0079669 -0.111122 0)
(-0.00882903 -0.0971796 0)
(-0.0146619 -0.0816 0)
(-0.0208225 -0.0635394 0)
(-0.0283345 -0.0393539 0)
(-0.0366744 -0.00995586 0)
(-0.044369 0.0214582 0)
(-0.0502298 0.0512685 0)
(-0.0538091 0.0765992 0)
(-0.0552319 0.0958414 0)
(-0.0548028 0.108049 0)
(-0.0527325 0.112274 0)
(-0.0491014 0.109392 0)
(-0.0442213 0.0995135 0)
(-0.0383512 0.0835164 0)
(-0.0318625 0.0627291 0)
(-0.0251756 0.0389167 0)
(-0.0187364 0.0142062 0)
(-0.0128935 -0.00928861 0)
(-0.00785171 -0.0298382 0)
(-0.00376103 -0.0462813 0)
(-0.000720415 -0.0582602 0)
(0.00115093 -0.0674531 0)
(0.000541649 -0.0832673 0)
(-0.000198609 -0.0931802 0)
(-0.00816261 -0.0975096 0)
(-0.00933214 -0.0837876 0)
(-0.0157334 -0.0678313 0)
(-0.0225967 -0.0489041 0)
(-0.0304783 -0.0239471 0)
(-0.0384004 0.00473119 0)
(-0.0449266 0.0335136 0)
(-0.0494704 0.0594349 0)
(-0.0519878 0.0805467 0)
(-0.0526225 0.0957334 0)
(-0.0514768 0.10386 0)
(-0.048958 0.105242 0)
(-0.045181 0.0998073 0)
(-0.0402898 0.0877786 0)
(-0.0345795 0.0703006 0)
(-0.028401 0.0488098 0)
(-0.0221427 0.0251103 0)
(-0.0161748 0.00122087 0)
(-0.0107585 -0.0209428 0)
(-0.00605427 -0.0397893 0)
(-0.00220716 -0.0542108 0)
(0.000645104 -0.0638657 0)
(0.00245006 -0.0700063 0)
(0.00124781 -0.0828046 0)
(-2.47976e-05 -0.0936482 0)
(-0.00808864 -0.0835552 0)
(-0.00948336 -0.0700004 0)
(-0.0161369 -0.0536324 0)
(-0.0232261 -0.0341316 0)
(-0.0307461 -0.00923999 0)
(-0.0375297 0.0176155 0)
(-0.0426499 0.0432132 0)
(-0.0459822 0.0654165 0)
(-0.0476086 0.082798 0)
(-0.0476441 0.0943456 0)
(-0.0463246 0.0994437 0)
(-0.0437442 0.0984197 0)
(-0.0400628 0.090565 0)
(-0.0354511 0.0766943 0)
(-0.03022 0.0580466 0)
(-0.0246919 0.0361018 0)
(-0.0192005 0.0126461 0)
(-0.0140346 -0.0104295 0)
(-0.00939474 -0.0313622 0)
(-0.0054296 -0.0486468 0)
(-0.00228765 -0.0612109 0)
(-0.000163852 -0.0687519 0)
(0.00118046 -0.0722309 0)
(0.000762376 -0.0817651 0)
(0.000240215 -0.0939471 0)
(-0.00774755 -0.0697897 0)
(-0.00928693 -0.0563399 0)
(-0.0158793 -0.0396491 0)
(-0.0226852 -0.0200812 0)
(-0.0292743 0.00373692 0)
(-0.034683 0.028094 0)
(-0.0385365 0.0505333 0)
(-0.0408954 0.0694933 0)
(-0.041865 0.083804 0)
(-0.0415618 0.0924972 0)
(-0.040183 0.0951913 0)
(-0.0377132 0.0916822 0)
(-0.0343011 0.0819359 0)
(-0.0301777 0.0667131 0)
(-0.0256297 0.0473022 0)
(-0.0209265 0.0252003 0)
(-0.0163298 0.00215407 0)
(-0.0120546 -0.0200488 0)
(-0.0082702 -0.0397438 0)
(-0.00513872 -0.0555049 0)
(-0.00280521 -0.0663761 0)
(-0.00146569 -0.0722489 0)
(-0.000687918 -0.074567 0)
(-0.000208051 -0.08216 0)
(6.1613e-06 -0.0942132 0)
(-0.00719451 -0.0566805 0)
(-0.00880156 -0.0433088 0)
(-0.0150033 -0.0265403 0)
(-0.021077 -0.00749907 0)
(-0.0264951 0.0145181 0)
(-0.0306406 0.0362344 0)
(-0.0334702 0.0558508 0)
(-0.0350787 0.0720755 0)
(-0.0355539 0.0838544 0)
(-0.035002 0.0902344 0)
(-0.0335678 0.0909596 0)
(-0.0312728 0.0856357 0)
(-0.0282692 0.0743854 0)
(-0.024757 0.0581827 0)
(-0.0209713 0.0382938 0)
(-0.0171122 0.016198 0)
(-0.0133638 -0.00640344 0)
(-0.00988094 -0.027782 0)
(-0.00681896 -0.0463126 0)
(-0.00437084 -0.0606262 0)
(-0.00265859 -0.0698972 0)
(-0.00189864 -0.0741926 0)
(-0.00145146 -0.0757748 0)
(-0.000716552 -0.0829939 0)
(-0.000274294 -0.0947388 0)
(-0.00647997 -0.0445556 0)
(-0.00810351 -0.0312519 0)
(-0.0136945 -0.0147708 0)
(-0.0187725 0.00320611 0)
(-0.0230042 0.0231101 0)
(-0.0260754 0.0423511 0)
(-0.028064 0.0595545 0)
(-0.0290547 0.0735223 0)
(-0.0291257 0.0832246 0)
(-0.0284043 0.0877785 0)
(-0.0269697 0.086924 0)
(-0.0249151 0.0802554 0)
(-0.0223581 0.0679878 0)
(-0.0194866 0.0511653 0)
(-0.0164652 0.0310183 0)
(-0.0134216 0.00900503 0)
(-0.010475 -0.0131991 0)
(-0.00774521 -0.0338818 0)
(-0.00537949 -0.0514229 0)
(-0.00356297 -0.0645372 0)
(-0.00243983 -0.0726327 0)
(-0.00215936 -0.075917 0)
(-0.00185608 -0.0778885 0)
(-0.000954036 -0.0849722 0)
(-0.000183991 -0.0964189 0)
(-0.00561419 -0.0339616 0)
(-0.00724918 -0.0207091 0)
(-0.0121923 -0.00485565 0)
(-0.0162237 0.0117259 0)
(-0.0193524 0.0295596 0)
(-0.0214855 0.0466491 0)
(-0.0227345 0.0618264 0)
(-0.0231729 0.0739439 0)
(-0.0228895 0.0820128 0)
(-0.0220199 0.0852677 0)
(-0.0206412 0.0832726 0)
(-0.0188397 0.0756659 0)
(-0.0167325 0.0627828 0)
(-0.0144823 0.0456533 0)
(-0.0121965 0.0254418 0)
(-0.00994649 0.00358383 0)
(-0.00780749 -0.0182512 0)
(-0.00588377 -0.0383485 0)
(-0.00430734 -0.0551195 0)
(-0.00316648 -0.0672897 0)
(-0.00258541 -0.0743887 0)
(-0.00253842 -0.0770957 0)
(-0.00218508 -0.0797056 0)
(-0.00123184 -0.0871137 0)
(-0.000242177 -0.0983112 0)
(-0.00463765 -0.0251617 0)
(-0.00604081 -0.0117851 0)
(-0.0101394 0.00310997 0)
(-0.0132792 0.0180733 0)
(-0.0155122 0.0340015 0)
(-0.0168884 0.0492746 0)
(-0.017528 0.0627982 0)
(-0.0175129 0.0734613 0)
(-0.0169456 0.0803102 0)
(-0.0159529 0.0826235 0)
(-0.0146202 0.0798893 0)
(-0.0130535 0.0717776 0)
(-0.0113767 0.0586685 0)
(-0.00971847 0.0415388 0)
(-0.00814757 0.0214803 0)
(-0.00670538 -9.1025e-05 0)
(-0.00543077 -0.0214958 0)
(-0.00440029 -0.0410198 0)
(-0.00370419 -0.0571696 0)
(-0.00329989 -0.0688624 0)
(-0.00312868 -0.0755468 0)
(-0.00296871 -0.0783581 0)
(-0.00242711 -0.0818343 0)
(-0.00150656 -0.089362 0)
(-0.000268062 -0.100423 0)
(-0.00358896 -0.0181703 0)
(-0.00452224 -0.00488651 0)
(-0.00742101 0.0092772 0)
(-0.00972071 0.0227234 0)
(-0.0112833 0.0369539 0)
(-0.0121354 0.0506685 0)
(-0.0123596 0.0628134 0)
(-0.0120398 0.0723135 0)
(-0.0112879 0.0782598 0)
(-0.0102303 0.0799445 0)
(-0.00897111 0.0768191 0)
(-0.00763603 0.0685687 0)
(-0.00634999 0.0555847 0)
(-0.00521742 0.0387482 0)
(-0.00429469 0.0190905 0)
(-0.00360956 -0.00201848 0)
(-0.00316641 -0.0229157 0)
(-0.00297801 -0.041895 0)
(-0.00306755 -0.0575368 0)
(-0.00332837 -0.0690667 0)
(-0.00343704 -0.0760378 0)
(-0.0031358 -0.0794441 0)
(-0.00250873 -0.0834206 0)
(-0.00170239 -0.0914 0)
(-0.0001182 -0.10251 0)
(-0.00251822 -0.0128053 0)
(-0.00307062 0.000148186 0)
(-0.00479933 0.0136529 0)
(-0.00621504 0.0259764 0)
(-0.00718928 0.038863 0)
(-0.00762049 0.0512767 0)
(-0.00753614 0.062254 0)
(-0.00700232 0.0707956 0)
(-0.00612569 0.0760527 0)
(-0.00503037 0.0773284 0)
(-0.00383838 0.0740697 0)
(-0.00269116 0.065964 0)
(-0.00171309 0.053361 0)
(-0.000996768 0.0370646 0)
(-0.000600891 0.0180283 0)
(-0.000544696 -0.00245006 0)
(-0.000804203 -0.0227706 0)
(-0.00132386 -0.0412801 0)
(-0.00204183 -0.0566594 0)
(-0.00279831 -0.0683033 0)
(-0.00315153 -0.0759469 0)
(-0.00283644 -0.0802426 0)
(-0.00227088 -0.0848441 0)
(-0.00170545 -0.0931788 0)
(0.000127306 -0.104527 0)
(-0.00153204 -0.00917925 0)
(-0.00182602 0.00335205 0)
(-0.00275077 0.0162347 0)
(-0.00346359 0.0278507 0)
(-0.00386915 0.0397767 0)
(-0.00387084 0.0511719 0)
(-0.00348146 0.0612015 0)
(-0.00273405 0.0689672 0)
(-0.00171974 0.073699 0)
(-0.000554274 0.0747286 0)
(0.0006315 0.0715257 0)
(0.00168934 0.0637773 0)
(0.0024877 0.0517684 0)
(0.00293563 0.0362227 0)
(0.00297008 0.0180088 0)
(0.00256984 -0.00168038 0)
(0.00177991 -0.0213474 0)
(0.00070792 -0.0394402 0)
(-0.000496834 -0.0547657 0)
(-0.00161768 -0.0667961 0)
(-0.00222214 -0.0753157 0)
(-0.00203044 -0.0804907 0)
(-0.00162776 -0.0852351 0)
(-0.00143439 -0.0939747 0)
(0.000439469 -0.105678 0)
(-0.000769623 -0.00717903 0)
(-0.000893703 0.00505874 0)
(-0.00127197 0.0175967 0)
(-0.00143761 0.0285166 0)
(-0.00137414 0.0396097 0)
(-0.00102367 0.0502658 0)
(-0.000352383 0.0595718 0)
(0.000605987 0.0667388 0)
(0.00177489 0.0710873 0)
(0.00304963 0.0719988 0)
(0.00429707 0.0689844 0)
(0.00536918 0.0617272 0)
(0.00612357 0.0504516 0)
(0.00647028 0.0358026 0)
(0.00633973 0.0185702 0)
(0.00569808 -0.000178308 0)
(0.00459405 -0.0190937 0)
(0.00316843 -0.0367454 0)
(0.00163808 -0.0520209 0)
(0.000260838 -0.0645231 0)
(-0.000651989 -0.0740448 0)
(-0.000856529 -0.0801865 0)
(-0.000793108 -0.0851421 0)
(-0.000932105 -0.0939077 0)
(0.000924195 -0.105963 0)
(-0.000265893 -0.00620974 0)
(-0.000237817 0.00580899 0)
(-0.000177684 0.0177689 0)
(3.65975e-05 0.0282324 0)
(0.000410936 0.0389354 0)
(0.00103212 0.0488587 0)
(0.00192321 0.0575133 0)
(0.00304612 0.0641685 0)
(0.00434454 0.0682023 0)
(0.0057275 0.0690518 0)
(0.00706543 0.0662783 0)
(0.00821375 0.059577 0)
(0.00902067 0.0491069 0)
(0.00939905 0.0354292 0)
(0.00928058 0.019274 0)
(0.00860591 0.00156896 0)
(0.00740567 -0.0164951 0)
(0.00582763 -0.0336495 0)
(0.00412142 -0.0488815 0)