/*--------------------------------*- C++ -*----------------------------------*\
| =========                 |                                                 |
| \\      /  F ield         | OpenFOAM: The Open Source CFD Toolbox           |
|  \\    /   O peration     | Version:  2.3.0                                 |
|   \\  /    A nd           | Web:      www.OpenFOAM.org                      |
|    \\/     M anipulation  |                                                 |
\*---------------------------------------------------------------------------*/
FoamFile
{
    version     2.0;
    format      ascii;
    class       volScalarField;
    location    "0.48";
    object      p;
}
// * * * * * * * * * * * * * * * * * * * * * * * * * * * * * * * * * * * * * //

dimensions      [1 -1 -2 0 0 0 0];

internalField   nonuniform List<scalar> 
545
(
-5.89715e+07
-1.08808e+07
-1.47529e+06
-1.92853e+06
-6.33621e+06
4.24094e+07
-2.22435e+06
-1.74008e+06
-1.85449e+06
-5.15714e+06
7.3752e+07
2.63601e+06
-286087
-328208
-5.41227e+06
4.27795e+07
-2.3596e+06
-1.39636e+06
-127950
-4.8415e+06
-6.78572e+07
-1.74394e+06
-354718
3.08335e+06
8.57925e+06
-5.21774e+06
-1.38132e+06
-594431
-99471
-22823
-7486.5
-14095.6
-19279.7
-21498.2
-21303.3
-20248.9
-18796.3
-17871.9
-17565.3
-17813.7
-18278.7
-18957.1
-19565.6
-20763.3
-22479.7
-25262.2
-28963.6
-33182.5
-36745.7
-39438.4
-40960.9
-41521.2
-41105.7
-40370.5
-38711
-36375.4
-33180.4
-29592.5
-25475.1
-21608.8
-17446
-12736.6
-8008.11
-4086.41
-155.941
2956.08
4944.09
4795.83
4639.26
2169.77
-4.60166e+06
-874493
-564201
-185381
-99017.6
-47958
-32496.4
-25715.2
-23812.9
-21410.1
-20332.8
-18225.6
-17878.4
-17101.2
-17838.9
-17757.1
-19012.6
-19170.2
-20983.7
-22295
-25755.6
-28920.1
-33732.6
-36616.7
-39691.6
-40610.9
-41674.1
-40688.7
-40522.5
-38320.6
-36576.2
-32736.8
-29826.6
-25149.9
-21805.4
-17295.6
-13165.9
-7699.69
-4253.79
61.7497
2734.4
5322.72
4805.3
4799.16
1795.16
-5.39341e+06
-444222
-357053
-89297.9
-77283.9
-43485.9
-33724.1
-25218.8
-25355.5
-20426.5
-21310.1
-16872.7
-18959.5
-15709.5
-18728.2
-16296.2
-19958.9
-17953.5
-22451.4
-21533.3
-27570.8
-28182.8
-35463.5
-35453.4
-40814.2
-39155.9
-42649.1
-39115.8
-41538
-36805.3
-37696.1
-31174.2
-31172.6
-23793.8
-23040.5
-16173.3
-14788.6
-6527.93
-5578.84
1256.81
1128.37
6869.84
3282.16
6647.34
1201.31
-5.70759e+06
414023
62080.3
83827
-26734.5
-23211.4
-31366.3
-20568.3
-28443.8
-17221.7
-24448
-13384.8
-22315.6
-12006.2
-21674.5
-12622.5
-23116.2
-14583.1
-26454.3
-18792.9
-31907.1
-25174.1
-39655.2
-31849.4
-44112.2
-35352.2
-45799.9
-35042.8
-44783.6
-32805.5
-41185.3
-27045.6
-35028.9
-19994.7
-26617.8
-12694.7
-18802
-3165.35
-9400.71
4807.97
-3083.64
10578
-351.877
10553.2
-2750.09
-1.36937e+06
2.3756e+06
782034
239620
4814.19
-8803.43
-33629.5
-17291.1
-32764.7
-13632
-28277.1
-9350.85
-26398.9
-7446.57
-25110
-8389.18
-26915.2
-10629.3
-31367.6
-15539.7
-37041.3
-21440.4
-44613.3
-27378.1
-47950.7
-30910.6
-49518.6
-30134
-48720.1
-28055.6
-45480.9
-22038.5
-39717
-15346.9
-30836.4
-8565.48
-23391.2
806.649
-14072.3
8953.05
-8444.04
15067.7
-5302.76
15930.1
-6394.22
-1.01125e+07
3.40978e+06
1.3421e+06
332480
27432.5
-15909.7
-23746.5
-22611.1
-20248.7
-18747.2
-16689.4
-17642.5
-16731.4
-14163
-12805.7
-11594.5
-14742.2
-18405.6
-18739
-22336.9
-25994.3
-31657.1
-34764
-36593.9
-34864.5
-34622.2
-36455.2
-36971.9
-34107.1
-33530.8
-33796.9
-32311.1
-29008.8
-24884
-17548.7
-12706.4
-10497.7
-5743.22
-1256.75
1190.23
1705.48
3725.85
6303.14
5803.18
3806.96
-6.78418e+07
-1.72778e+06
-337114
3.10221e+06
8.59781e+06
4.27946e+07
-2.34384e+06
-1.37889e+06
-109360
-4.82338e+06
7.37669e+07
2.65127e+06
-269225
-310556
-5.39576e+06
4.2424e+07
-2.20978e+06
-1.72408e+06
-1.83802e+06
-5.14223e+06
-5.8957e+07
-1.08664e+07
-1.45996e+06
-1.9129e+06
-6.32214e+06
-1.3505e+06
2.36255e+06
797660
224402
22231.7
-25636.9
-16829.4
-33562.4
-16504.5
-30504.9
-11730.3
-27440.3
-7300.3
-24480.9
-6579.35
-25144.3
-9226.18
-29385
-14625.9
-35304.7
-20204
-42374.1
-25059.9
-47044.2
-29167.1
-48658.2
-30013.6
-47976.3
-29137.9
-46135.5
-25050
-42521.1
-18533
-35933.5
-12196
-27629.8
-4268.3
-18953.2
4702.95
-11438.4
11633
-7796.39
12806
-10433.2
7267.09
-5.69111e+06
408955
71880.2
75963.4
-16397.2
-31673.4
-21692.7
-29525.9
-19747.5
-26879.5
-15581.3
-23289.4
-11263.6
-20046.7
-10100.7
-20987.3
-13309.2
-25915.8
-19173.8
-32115.2
-25044.3
-38361
-29769.4
-42515.2
-33125.8
-44078.4
-33758.9
-43591.4
-32706.4
-41636
-29153.3
-37646.5
-23153.5
-31363.1
-16724.9
-23395.1
-8659.94
-14913.5
154.916
-7251.39
6407.35
-3749.15
7454.19
-5418.83
4602.01
-5.38128e+06
-441771
-352573
-90514.8
-73025.2
-44992
-30239.3
-27948.9
-23175.6
-23772.8
-18942.9
-19706
-14620.5
-16307.2
-13260
-17515.4
-16978.4
-22860.3
-23197.7
-29221.8
-29164.6
-34848
-33654.5
-38584.3
-36447
-40079.8
-37072
-39657.6
-35975.3
-37687.2
-32796.9
-33508.1
-26999.3
-27285.5
-20465
-19721.2
-12544.6
-11423.1
-3960.01
-3727.63
2014.2
-279.683
3220.29
-1777.59
220.625
-4.59057e+06
-869310
-560976
-184173
-96590.6
-47066.7
-31161
-26372.1
-23892.8
-22630.4
-20015.2
-18457.1
-15686.2
-15039.6
-14370.6
-16483.1
-18370.5
-22067.5
-24743.2
-28477.2
-30662
-33749.2
-34932.2
-37173.1
-37411.4
-38618.3
-38003.6
-38245
-36900.9
-36282.5
-33883.4
-32086.4
-28197.4
-25763.4
-21593.3
-18537
-13873.6
-10476.1
-5607.29
-2780.63
341.136
789.951
1305.75
-242.854
-74.6392
-5.20741e+06
-1.37483e+06
-591519
-97285.9
-21033.7
-5913.02
-13431.1
-19349.8
-22192
-21872.3
-20422.1
-18118.1
-16200.8
-14805.5
-14985.8
-16356.6
-19017.5
-21954.9
-25398.2
-28298.8
-31229.7
-33381.6
-35381.6
-36661
-37708.6
-38076.3
-38267.3
-37733.6
-37188.2
-35740.3
-34224.4
-31568.6
-28636.1
-25185.5
-21927.7
-18135.1
-14353.6
-10283.7
-6382.05
-2672.8
-414.232
790.82
672.988
-717.194
-1694.1
)
;

boundaryField
{
    AirInlet
    {
        type            calculated;
        value           uniform -1.01089e+07;
    }
    WaterInlet
    {
        type            calculated;
        value           nonuniform List<scalar> 10(-5.89715e+07 4.24094e+07 7.3752e+07 4.27795e+07 -6.78572e+07 -6.78418e+07 4.27946e+07 7.37669e+07 4.2424e+07 -5.8957e+07);
    }
    ChannelWall
    {
        type            calculated;
        value           nonuniform List<scalar> 
110
(
-6.78572e+07
-1.74395e+06
-354718
3.08335e+06
8.57925e+06
-6.78418e+07
-1.72778e+06
-337113
3.10221e+06
8.59781e+06
-5.8957e+07
-1.08664e+07
-1.45996e+06
-1.9129e+06
-6.32214e+06
-5.20741e+06
-1.37483e+06
-591519
-97285.9
-21033.7
-5913.06
-13431.2
-19349.8
-22192
-21872.3
-20422.1
-18118.2
-16200.9
-14805.5
-14985.9
-16356.6
-19017.5
-21955
-25398.3
-28298.8
-31229.8
-33381.6
-35381.6
-36661.1
-37708.7
-38076.4
-38267.3
-37733.6
-37188.3
-35740.4
-34224.4
-31568.7
-28636.1
-25185.5
-21927.8
-18135.1
-14353.6
-10283.7
-6382.09
-2672.85
-414.276
790.776
672.944
-717.239
-1694.14
-5.89715e+07
-1.08808e+07
-1.47529e+06
-1.92853e+06
-6.33621e+06
-5.21774e+06
-1.38132e+06
-594431
-99471
-22823
-7486.46
-14095.5
-19279.7
-21498.1
-21303.3
-20248.9
-18796.2
-17871.8
-17565.3
-17813.6
-18278.7
-18957.1
-19565.5
-20763.3
-22479.6
-25262.1
-28963.5
-33182.4
-36745.7
-39438.3
-40960.9
-41521.1
-41105.6
-40370.4
-38711
-36375.3
-33180.3
-29592.5
-25475.1
-21608.7
-17446
-12736.6
-8008.06
-4086.37
-155.897
2956.13
4944.13
4795.88
4639.31
2169.82
)
;
    }
    Outlet
    {
        type            calculated;
        value           nonuniform List<scalar> 
11
(
-0.044145
-0.132435
-0.220725
-0.308995
-0.395137
-0.27036
-0.580512
-0.67194
-0.760274
-0.848565
-0.936855
)
;
    }
    FrontAndBack
    {
        type            empty;
    }
}


// ************************************************************************* //
