/*--------------------------------*- C++ -*----------------------------------*\
| =========                 |                                                 |
| \\      /  F ield         | OpenFOAM: The Open Source CFD Toolbox           |
|  \\    /   O peration     | Version:  2.3.0                                 |
|   \\  /    A nd           | Web:      www.OpenFOAM.org                      |
|    \\/     M anipulation  |                                                 |
\*---------------------------------------------------------------------------*/
FoamFile
{
    version     2.0;
    format      ascii;
    class       volScalarField;
    location    "0.024";
    object      epsilon;
}
// * * * * * * * * * * * * * * * * * * * * * * * * * * * * * * * * * * * * * //

dimensions      [0 2 -3 0 0 0 0];

internalField   nonuniform List<scalar> 
545
(
7.74161e+06
7.37259e+06
6.78386e+06
6.27571e+06
5.92763e+06
7.89097e+06
7.38951e+06
6.76583e+06
6.2447e+06
5.86958e+06
8.14786e+06
7.40332e+06
6.72272e+06
6.18045e+06
5.7658e+06
8.53636e+06
7.39225e+06
6.65354e+06
6.08851e+06
5.60714e+06
9.11224e+06
7.32923e+06
6.57399e+06
5.99003e+06
5.3836e+06
5.7493e+06
5.65153e+06
5.61989e+06
5.6094e+06
5.60559e+06
5.60388e+06
5.60283e+06
5.60201e+06
5.60127e+06
5.60056e+06
5.59989e+06
5.59924e+06
5.59861e+06
5.598e+06
5.59741e+06
5.59684e+06
5.59629e+06
5.59577e+06
5.59526e+06
5.59477e+06
5.5943e+06
5.59385e+06
5.59343e+06
5.59302e+06
5.59263e+06
5.59226e+06
5.59191e+06
5.59157e+06
5.59126e+06
5.59097e+06
5.59069e+06
5.59044e+06
5.5902e+06
5.58998e+06
5.58978e+06
5.5896e+06
5.58944e+06
5.58929e+06
5.58917e+06
5.58906e+06
5.58897e+06
5.5889e+06
5.58885e+06
5.58882e+06
5.5888e+06
5.70486e+06
5.6379e+06
5.61556e+06
5.60802e+06
5.60513e+06
5.60371e+06
5.60275e+06
5.60196e+06
5.60122e+06
5.60053e+06
5.59985e+06
5.5992e+06
5.59857e+06
5.59796e+06
5.59737e+06
5.59681e+06
5.59626e+06
5.59573e+06
5.59522e+06
5.59473e+06
5.59427e+06
5.59382e+06
5.59339e+06
5.59298e+06
5.59259e+06
5.59222e+06
5.59187e+06
5.59154e+06
5.59122e+06
5.59093e+06
5.59065e+06
5.5904e+06
5.59016e+06
5.58994e+06
5.58974e+06
5.58956e+06
5.5894e+06
5.58926e+06
5.58913e+06
5.58902e+06
5.58893e+06
5.58886e+06
5.58881e+06
5.58878e+06
5.58876e+06
5.64021e+06
5.6151e+06
5.60823e+06
5.60571e+06
5.6044e+06
5.60346e+06
5.60266e+06
5.60191e+06
5.60119e+06
5.6005e+06
5.59983e+06
5.59918e+06
5.59855e+06
5.59794e+06
5.59735e+06
5.59678e+06
5.59623e+06
5.59571e+06
5.5952e+06
5.59471e+06
5.59424e+06
5.59379e+06
5.59337e+06
5.59296e+06
5.59257e+06
5.5922e+06
5.59184e+06
5.59151e+06
5.5912e+06
5.59091e+06
5.59063e+06
5.59038e+06
5.59014e+06
5.58992e+06
5.58972e+06
5.58954e+06
5.58938e+06
5.58923e+06
5.58911e+06
5.589e+06
5.58891e+06
5.58884e+06
5.58879e+06
5.58876e+06
5.58874e+06
5.55613e+06
5.58849e+06
5.60002e+06
5.60316e+06
5.6036e+06
5.6032e+06
5.60257e+06
5.60187e+06
5.60117e+06
5.60048e+06
5.59981e+06
5.59916e+06
5.59853e+06
5.59792e+06
5.59733e+06
5.59677e+06
5.59622e+06
5.59569e+06
5.59518e+06
5.59469e+06
5.59423e+06
5.59378e+06
5.59335e+06
5.59294e+06
5.59255e+06
5.59218e+06
5.59183e+06
5.5915e+06
5.59118e+06
5.59089e+06
5.59061e+06
5.59036e+06
5.59012e+06
5.5899e+06
5.5897e+06
5.58952e+06
5.58936e+06
5.58922e+06
5.58909e+06
5.58898e+06
5.58889e+06
5.58882e+06
5.58877e+06
5.58874e+06
5.58872e+06
5.45808e+06
5.56599e+06
5.59351e+06
5.60116e+06
5.60297e+06
5.60301e+06
5.6025e+06
5.60184e+06
5.60116e+06
5.60047e+06
5.5998e+06
5.59915e+06
5.59852e+06
5.59791e+06
5.59732e+06
5.59676e+06
5.59621e+06
5.59568e+06
5.59517e+06
5.59468e+06
5.59422e+06
5.59377e+06
5.59334e+06
5.59293e+06
5.59254e+06
5.59217e+06
5.59182e+06
5.59149e+06
5.59117e+06
5.59088e+06
5.5906e+06
5.59035e+06
5.59011e+06
5.58989e+06
5.58969e+06
5.58951e+06
5.58935e+06
5.58921e+06
5.58908e+06
5.58897e+06
5.58888e+06
5.58881e+06
5.58876e+06
5.58873e+06
5.58871e+06
5.4689e+06
5.55914e+06
5.59087e+06
5.60032e+06
5.60271e+06
5.60292e+06
5.60247e+06
5.60183e+06
5.60115e+06
5.60047e+06
5.5998e+06
5.59915e+06
5.59852e+06
5.59791e+06
5.59732e+06
5.59675e+06
5.5962e+06
5.59568e+06
5.59517e+06
5.59468e+06
5.59421e+06
5.59376e+06
5.59334e+06
5.59293e+06
5.59254e+06
5.59217e+06
5.59182e+06
5.59148e+06
5.59117e+06
5.59088e+06
5.5906e+06
5.59035e+06
5.59011e+06
5.58989e+06
5.58969e+06
5.58951e+06
5.58935e+06
5.5892e+06
5.58908e+06
5.58897e+06
5.58888e+06
5.58881e+06
5.58876e+06
5.58873e+06
5.58871e+06
9.11224e+06
7.32924e+06
6.574e+06
5.99003e+06
5.3836e+06
8.53636e+06
7.39225e+06
6.65354e+06
6.08851e+06
5.60713e+06
8.14786e+06
7.40332e+06
6.72271e+06
6.18044e+06
5.76579e+06
7.89096e+06
7.38951e+06
6.76583e+06
6.2447e+06
5.86958e+06
7.74159e+06
7.37258e+06
6.78385e+06
6.2757e+06
5.92762e+06
5.45808e+06
5.56599e+06
5.59351e+06
5.60116e+06
5.60297e+06
5.60301e+06
5.6025e+06
5.60184e+06
5.60116e+06
5.60047e+06
5.5998e+06
5.59915e+06
5.59852e+06
5.59791e+06
5.59732e+06
5.59676e+06
5.59621e+06
5.59568e+06
5.59517e+06
5.59468e+06
5.59422e+06
5.59377e+06
5.59334e+06
5.59293e+06
5.59254e+06
5.59217e+06
5.59182e+06
5.59149e+06
5.59117e+06
5.59088e+06
5.5906e+06
5.59035e+06
5.59011e+06
5.58989e+06
5.58969e+06
5.58951e+06
5.58935e+06
5.58921e+06
5.58908e+06
5.58897e+06
5.58888e+06
5.58881e+06
5.58876e+06
5.58873e+06
5.58872e+06
5.55613e+06
5.58849e+06
5.60002e+06
5.60316e+06
5.6036e+06
5.6032e+06
5.60257e+06
5.60187e+06
5.60117e+06
5.60048e+06
5.59981e+06
5.59916e+06
5.59853e+06
5.59792e+06
5.59733e+06
5.59677e+06
5.59622e+06
5.59569e+06
5.59518e+06
5.59469e+06
5.59423e+06
5.59378e+06
5.59335e+06
5.59294e+06
5.59255e+06
5.59218e+06
5.59183e+06
5.5915e+06
5.59118e+06
5.59089e+06
5.59061e+06
5.59036e+06
5.59012e+06
5.5899e+06
5.5897e+06
5.58952e+06
5.58936e+06
5.58922e+06
5.58909e+06
5.58898e+06
5.58889e+06
5.58882e+06
5.58877e+06
5.58874e+06
5.58872e+06
5.64021e+06
5.6151e+06
5.60823e+06
5.60571e+06
5.6044e+06
5.60346e+06
5.60266e+06
5.60191e+06
5.60119e+06
5.6005e+06
5.59983e+06
5.59918e+06
5.59855e+06
5.59794e+06
5.59735e+06
5.59678e+06
5.59623e+06
5.59571e+06
5.5952e+06
5.59471e+06
5.59424e+06
5.59379e+06
5.59337e+06
5.59296e+06
5.59257e+06
5.5922e+06
5.59184e+06
5.59151e+06
5.5912e+06
5.59091e+06
5.59063e+06
5.59038e+06
5.59014e+06
5.58992e+06
5.58972e+06
5.58954e+06
5.58938e+06
5.58923e+06
5.58911e+06
5.589e+06
5.58891e+06
5.58884e+06
5.58879e+06
5.58876e+06
5.58874e+06
5.70486e+06
5.6379e+06
5.61556e+06
5.60802e+06
5.60513e+06
5.60371e+06
5.60275e+06
5.60196e+06
5.60122e+06
5.60053e+06
5.59985e+06
5.5992e+06
5.59857e+06
5.59796e+06
5.59737e+06
5.59681e+06
5.59626e+06
5.59573e+06
5.59522e+06
5.59473e+06
5.59427e+06
5.59382e+06
5.59339e+06
5.59298e+06
5.59259e+06
5.59222e+06
5.59187e+06
5.59154e+06
5.59122e+06
5.59093e+06
5.59065e+06
5.5904e+06
5.59016e+06
5.58994e+06
5.58974e+06
5.58956e+06
5.5894e+06
5.58926e+06
5.58913e+06
5.58902e+06
5.58893e+06
5.58886e+06
5.58881e+06
5.58878e+06
5.58877e+06
5.74929e+06
5.65152e+06
5.61989e+06
5.6094e+06
5.60558e+06
5.60387e+06
5.60282e+06
5.602e+06
5.60126e+06
5.60056e+06
5.59988e+06
5.59923e+06
5.5986e+06
5.59799e+06
5.5974e+06
5.59684e+06
5.59629e+06
5.59576e+06
5.59525e+06
5.59476e+06
5.5943e+06
5.59385e+06
5.59342e+06
5.59301e+06
5.59262e+06
5.59225e+06
5.5919e+06
5.59157e+06
5.59125e+06
5.59096e+06
5.59069e+06
5.59043e+06
5.59019e+06
5.58997e+06
5.58977e+06
5.58959e+06
5.58943e+06
5.58929e+06
5.58916e+06
5.58905e+06
5.58896e+06
5.58889e+06
5.58884e+06
5.58881e+06
5.5888e+06
)
;

boundaryField
{
    AirInlet
    {
        type            fixedValue;
        value           uniform 0.1;
    }
    WaterInlet
    {
        type            fixedValue;
        value           uniform 0.1;
    }
    ChannelWall
    {
        type            fixedValue;
        value           uniform 0.1;
    }
    Outlet
    {
        type            inletOutlet;
        inletValue      uniform 0.1;
        value           nonuniform List<scalar> 
11
(
5.5888e+06
5.58876e+06
5.58874e+06
5.58872e+06
5.58871e+06
5.58871e+06
5.58872e+06
5.58872e+06
5.58874e+06
5.58877e+06
5.5888e+06
)
;
    }
    FrontAndBack
    {
        type            empty;
    }
}


// ************************************************************************* //
