/*--------------------------------*- C++ -*----------------------------------*\
| =========                 |                                                 |
| \\      /  F ield         | OpenFOAM: The Open Source CFD Toolbox           |
|  \\    /   O peration     | Version:  2.3.0                                 |
|   \\  /    A nd           | Web:      www.OpenFOAM.org                      |
|    \\/     M anipulation  |                                                 |
\*---------------------------------------------------------------------------*/
FoamFile
{
    version     2.0;
    format      ascii;
    class       volVectorField;
    location    "0.024";
    object      U;
}
// * * * * * * * * * * * * * * * * * * * * * * * * * * * * * * * * * * * * * //

dimensions      [0 1 -1 0 0 0 0];

internalField   nonuniform List<vector> 
545
(
(0.454416 0.0865241 4.22636e-29)
(0.404176 0.00697699 3.80699e-30)
(0.362093 0.00340689 -1.91782e-31)
(0.333081 0.00328167 0)
(0.301386 0.00858934 -8.50666e-31)
(0.460561 0.0265834 8.52691e-29)
(0.416095 0.0219927 1.06405e-29)
(0.362684 0.0213111 1.05923e-30)
(0.329717 0.0187622 0)
(0.298221 0.0211676 -1.23424e-30)
(0.465916 0.0432472 1.32117e-30)
(0.415082 0.0382875 5.73494e-31)
(0.35788 0.0341094 4.35794e-31)
(0.324718 0.0288729 0)
(0.291694 0.031708 -4.04167e-31)
(0.464269 0.0608333 -1.65548e-28)
(0.398981 0.0527299 -3.40702e-30)
(0.35002 0.0465062 -2.88236e-31)
(0.315616 0.0387746 0)
(0.282661 0.0401915 -2.40893e-29)
(0.468893 0.0037475 -3.25207e-28)
(0.371866 0.0752847 1.25684e-30)
(0.339478 0.0632347 2.1492e-30)
(0.302176 0.0562028 7.86413e-30)
(0.263592 0.0766038 -4.00961e-29)
(0.271698 0.007043 0)
(0.257325 0.00166907 0)
(0.257999 -1.45086e-05 0)
(0.258283 -0.000447042 0)
(0.25961 -0.000283623 0)
(0.259538 -0.000141338 0)
(0.26016 -5.49256e-05 0)
(0.259772 -1.68708e-05 0)
(0.260212 -5.02499e-06 0)
(0.259796 7.75602e-08 0)
(0.260201 -1.26739e-06 0)
(0.259806 1.14766e-06 0)
(0.260188 -1.70885e-06 0)
(0.259818 1.37947e-06 0)
(0.260175 -2.03445e-06 0)
(0.259829 1.60612e-06 0)
(0.260163 -2.2262e-06 0)
(0.259841 1.82415e-06 0)
(0.260151 -2.37231e-06 0)
(0.259852 2.01975e-06 0)
(0.26014 -2.53079e-06 0)
(0.259862 2.10789e-06 0)
(0.260129 -2.64298e-06 0)
(0.259873 2.25661e-06 0)
(0.260119 -2.8249e-06 0)
(0.259883 2.45754e-06 0)
(0.260108 -2.85715e-06 0)
(0.259893 2.55869e-06 0)
(0.260099 -2.92244e-06 0)
(0.259902 2.7606e-06 0)
(0.260089 -3.06675e-06 0)
(0.259911 2.93016e-06 0)
(0.260079 -3.20202e-06 0)
(0.259921 3.05031e-06 0)
(0.26007 -3.32511e-06 0)
(0.25993 3.24342e-06 0)
(0.26006 -3.49381e-06 0)
(0.259939 3.46083e-06 0)
(0.26005 -3.73059e-06 0)
(0.259949 3.80546e-06 0)
(0.26004 -4.16856e-06 0)
(0.259959 4.65512e-06 0)
(0.26003 -5.40376e-06 0)
(0.25997 7.12511e-06 0)
(0.260017 -1.25396e-05 0)
(0.269274 0.0148609 0)
(0.257735 0.00342557 0)
(0.258085 3.48637e-05 0)
(0.259135 -0.000534178 0)
(0.25929 -0.000356155 0)
(0.260039 -0.000174045 0)
(0.259721 -6.80388e-05 0)
(0.260204 -1.95764e-05 0)
(0.259787 -5.04325e-06 0)
(0.260206 1.40852e-07 0)
(0.259801 1.70035e-07 0)
(0.260194 3.46174e-07 0)
(0.259812 3.16482e-07 0)
(0.260182 -1.42239e-07 0)
(0.259825 5.02433e-07 0)
(0.26017 -4.86993e-07 0)
(0.259837 7.63654e-07 0)
(0.260159 -7.28881e-07 0)
(0.259848 1.00942e-06 0)
(0.260148 -9.30098e-07 0)
(0.25986 1.15414e-06 0)
(0.260137 -1.18418e-06 0)
(0.25987 1.27472e-06 0)
(0.260126 -1.30259e-06 0)
(0.259881 1.32255e-06 0)
(0.260116 -1.40111e-06 0)
(0.259891 1.60543e-06 0)
(0.260107 -1.64276e-06 0)
(0.259901 1.84072e-06 0)
(0.260097 -1.75824e-06 0)
(0.25991 1.96363e-06 0)
(0.260088 -1.94124e-06 0)
(0.25992 2.09263e-06 0)
(0.260078 -2.16961e-06 0)
(0.259929 2.25524e-06 0)
(0.260069 -2.29607e-06 0)
(0.259939 2.41654e-06 0)
(0.26006 -2.48605e-06 0)
(0.259949 2.63585e-06 0)
(0.26005 -2.75483e-06 0)
(0.259959 3.02738e-06 0)
(0.26004 -3.40158e-06 0)
(0.259969 4.21921e-06 0)
(0.260029 -5.87338e-06 0)
(0.259977 8.17398e-06 0)
(0.266593 0.0237487 0)
(0.256701 0.00483972 0)
(0.259473 -0.000182 0)
(0.259314 -0.000811843 0)
(0.260086 -0.000504502 0)
(0.259703 -0.000250102 0)
(0.260205 -9.49501e-05 0)
(0.259778 -3.10105e-05 0)
(0.260211 -5.41101e-06 0)
(0.259794 -1.7291e-06 0)
(0.2602 1.34835e-06 0)
(0.259806 -4.01699e-07 0)
(0.260188 7.71575e-07 0)
(0.259818 -3.16462e-07 0)
(0.260176 3.56479e-07 0)
(0.25983 -1.58635e-07 0)
(0.260164 8.85865e-08 0)
(0.259842 1.19648e-07 0)
(0.260153 -9.00943e-08 0)
(0.259853 3.88311e-07 0)
(0.260142 -3.58291e-07 0)
(0.259864 4.52646e-07 0)
(0.260131 -6.08915e-07 0)
(0.259875 7.41308e-07 0)
(0.260121 -9.77016e-07 0)
(0.259885 1.0073e-06 0)
(0.260111 -9.76085e-07 0)
(0.259895 1.06334e-06 0)
(0.260101 -1.03654e-06 0)
(0.259905 1.31787e-06 0)
(0.260092 -1.27514e-06 0)
(0.259914 1.43042e-06 0)
(0.260082 -1.45461e-06 0)
(0.259924 1.44039e-06 0)
(0.260073 -1.55812e-06 0)
(0.259933 1.6763e-06 0)
(0.260063 -1.77453e-06 0)
(0.259943 1.86117e-06 0)
(0.260054 -1.9481e-06 0)
(0.259952 2.15449e-06 0)
(0.260044 -2.34832e-06 0)
(0.259962 2.73189e-06 0)
(0.260034 -3.29999e-06 0)
(0.259973 4.20914e-06 0)
(0.260024 -6.15302e-06 0)
(0.262031 0.0305108 0)
(0.257154 0.00491794 0)
(0.260365 -0.000584905 0)
(0.260674 -0.000893067 0)
(0.260024 -0.000513691 0)
(0.260318 -0.000240737 0)
(0.259808 -9.6471e-05 0)
(0.260225 -2.58052e-05 0)
(0.25979 -8.69359e-06 0)
(0.260205 1.60636e-06 0)
(0.2598 -1.64591e-06 0)
(0.260194 2.14843e-06 0)
(0.259812 -1.55836e-06 0)
(0.260182 1.6536e-06 0)
(0.259824 -1.33285e-06 0)
(0.26017 1.19083e-06 0)
(0.259836 -1.03537e-06 0)
(0.260159 9.25382e-07 0)
(0.259848 -6.62753e-07 0)
(0.260147 7.35963e-07 0)
(0.259859 -5.14619e-07 0)
(0.260136 3.19322e-07 0)
(0.25987 -3.85731e-07 0)
(0.260126 3.24972e-07 0)
(0.25988 -4.32525e-07 0)
(0.260116 1.8399e-07 0)
(0.25989 5.83177e-08 0)
(0.260106 -2.33664e-07 0)
(0.2599 4.70932e-07 0)
(0.260096 -3.21472e-07 0)
(0.259909 5.26204e-07 0)
(0.260087 -5.50447e-07 0)
(0.259919 6.33133e-07 0)
(0.260078 -9.15693e-07 0)
(0.259929 9.01884e-07 0)
(0.260068 -9.02468e-07 0)
(0.259938 9.3294e-07 0)
(0.260059 -1.06535e-06 0)
(0.259948 1.18959e-06 0)
(0.260049 -1.15105e-06 0)
(0.259957 1.32351e-06 0)
(0.260039 -1.65684e-06 0)
(0.259968 2.09176e-06 0)
(0.260028 -2.87044e-06 0)
(0.259976 3.83719e-06 0)
(0.259985 0.0501923 0)
(0.259158 0.00489281 0)
(0.262749 -0.000647644 0)
(0.261093 -0.000708262 0)
(0.260872 -0.000340895 0)
(0.259988 -0.000177753 0)
(0.260289 -6.42793e-05 0)
(0.259798 -2.28892e-05 0)
(0.260213 -9.58479e-07 0)
(0.259793 -3.24323e-06 0)
(0.260199 3.05055e-06 0)
(0.259806 -2.48274e-06 0)
(0.260188 2.60316e-06 0)
(0.259818 -2.32742e-06 0)
(0.260176 2.27725e-06 0)
(0.25983 -2.19616e-06 0)
(0.260164 1.98031e-06 0)
(0.259842 -1.80833e-06 0)
(0.260153 1.75055e-06 0)
(0.259853 -1.41715e-06 0)
(0.260142 1.35052e-06 0)
(0.259864 -1.43887e-06 0)
(0.260131 1.0642e-06 0)
(0.259875 -8.53231e-07 0)
(0.260121 4.78972e-07 0)
(0.259885 -5.48002e-07 0)
(0.260111 5.86386e-07 0)
(0.259895 -5.4435e-07 0)
(0.260101 5.81085e-07 0)
(0.259905 -1.94773e-07 0)
(0.260091 1.94029e-07 0)
(0.259914 -1.14535e-07 0)
(0.260082 4.5788e-09 0)
(0.259924 -3.14503e-07 0)
(0.260073 8.56437e-08 0)
(0.259933 8.89996e-08 0)
(0.260063 -2.23063e-07 0)
(0.259943 2.44745e-07 0)
(0.260053 -2.40588e-07 0)
(0.259952 6.05307e-07 0)
(0.260044 -6.973e-07 0)
(0.259962 6.66981e-07 0)
(0.260034 -9.89497e-07 0)
(0.259973 1.36704e-06 0)
(0.260026 -6.20026e-07 0)
(0.269138 -5.233e-06 0)
(0.260625 4.69194e-06 0)
(0.264025 -4.79035e-06 0)
(0.262098 4.66002e-06 0)
(0.260587 -4.63646e-06 0)
(0.26052 4.54748e-06 0)
(0.259849 -4.38191e-06 0)
(0.26023 4.33464e-06 0)
(0.259788 -4.15042e-06 0)
(0.260204 4.0138e-06 0)
(0.259799 -3.87335e-06 0)
(0.260194 3.72387e-06 0)
(0.259812 -3.57877e-06 0)
(0.260181 3.38107e-06 0)
(0.259824 -3.24807e-06 0)
(0.260169 3.04816e-06 0)
(0.259835 -2.91804e-06 0)
(0.260157 2.71128e-06 0)
(0.259847 -2.57216e-06 0)
(0.260147 2.40731e-06 0)
(0.259858 -2.26488e-06 0)
(0.260135 2.0972e-06 0)
(0.259868 -1.95615e-06 0)
(0.260124 1.79037e-06 0)
(0.259878 -1.67039e-06 0)
(0.260113 1.52149e-06 0)
(0.259888 -1.4127e-06 0)
(0.260103 1.26846e-06 0)
(0.259899 -1.17414e-06 0)
(0.260096 1.06403e-06 0)
(0.259909 -9.76715e-07 0)
(0.260086 8.77545e-07 0)
(0.259918 -8.03056e-07 0)
(0.260075 7.03132e-07 0)
(0.259926 -6.51561e-07 0)
(0.260066 5.69714e-07 0)
(0.259935 -5.28471e-07 0)
(0.260056 4.55223e-07 0)
(0.259945 -4.33435e-07 0)
(0.260048 3.83451e-07 0)
(0.259956 -3.51391e-07 0)
(0.260037 3.25052e-07 0)
(0.259965 -3.09626e-07 0)
(0.260026 3.00379e-07 0)
(0.259975 -2.91186e-07 0)
(0.468893 -0.00375716 0)
(0.371867 -0.0752749 2.58257e-31)
(0.339478 -0.0632444 -2.00352e-30)
(0.302176 -0.0561931 -7.86321e-30)
(0.263593 -0.0766134 0)
(0.464269 -0.0608236 0)
(0.398981 -0.0527394 0)
(0.35002 -0.0464967 0)
(0.315616 -0.038784 -2.44885e-30)
(0.28266 -0.040182 0)
(0.465916 -0.0432569 0)
(0.415082 -0.0382778 0)
(0.35788 -0.0341191 0)
(0.324718 -0.0288631 -1.37753e-30)
(0.291693 -0.0317176 0)
(0.460561 -0.0265738 0)
(0.416095 -0.0220022 0)
(0.362685 -0.0213016 0)
(0.329717 -0.0187715 5.91304e-31)
(0.298221 -0.0211582 0)
(0.454416 -0.0865338 0)
(0.404176 -0.00696724 0)
(0.362093 -0.00341649 0)
(0.333081 -0.00327162 9.26759e-32)
(0.301386 -0.00859878 0)
(0.259985 -0.0501826 0)
(0.259158 -0.00490206 0)
(0.262749 0.000657209 0)
(0.261093 0.00069911 0)
(0.260872 0.000349937 0)
(0.259988 0.00016887 0)
(0.260289 7.28679e-05 0)
(0.259797 1.45008e-05 0)
(0.260213 9.08175e-06 0)
(0.259793 -4.64112e-06 0)
(0.260199 4.54479e-06 0)
(0.259806 -4.81462e-06 0)
(0.260188 4.38012e-06 0)
(0.259818 -4.31331e-06 0)
(0.260176 4.07197e-06 0)
(0.25983 -3.78654e-06 0)
(0.260164 3.71708e-06 0)
(0.259842 -3.52997e-06 0)
(0.260153 3.30224e-06 0)
(0.259853 -3.31039e-06 0)
(0.260142 3.078e-06 0)
(0.259864 -2.67178e-06 0)
(0.260131 2.75152e-06 0)
(0.259875 -2.67934e-06 0)
(0.260121 2.77874e-06 0)
(0.259885 -2.44613e-06 0)
(0.260111 2.16676e-06 0)
(0.259895 -1.96771e-06 0)
(0.260101 1.72581e-06 0)
(0.259905 -1.90355e-06 0)
(0.260091 1.71645e-06 0)
(0.259914 -1.61176e-06 0)
(0.260082 1.56573e-06 0)
(0.259924 -1.08452e-06 0)
(0.260073 1.18302e-06 0)
(0.259933 -1.21932e-06 0)
(0.260063 1.24377e-06 0)
(0.259943 -1.16573e-06 0)
(0.260053 1.07624e-06 0)
(0.259952 -1.35267e-06 0)
(0.260044 1.40566e-06 0)
(0.259962 -1.32877e-06 0)
(0.260034 1.5303e-06 0)
(0.259973 -1.90008e-06 0)
(0.260026 1.1766e-06 0)
(0.262031 -0.0305202 0)
(0.257154 -0.00490852 0)
(0.260365 0.000575722 0)
(0.260674 0.000902136 0)
(0.260024 0.000504705 0)
(0.260318 0.000249498 0)
(0.259808 8.79092e-05 0)
(0.260225 3.41799e-05 0)
(0.25979 6.08945e-07 0)
(0.260205 6.19532e-06 0)
(0.2598 -5.88032e-06 0)
(0.260194 5.08878e-06 0)
(0.259812 -5.34916e-06 0)
(0.260182 4.96422e-06 0)
(0.259824 -4.93079e-06 0)
(0.26017 4.78394e-06 0)
(0.259836 -4.58509e-06 0)
(0.260159 4.39698e-06 0)
(0.259848 -4.32657e-06 0)
(0.260147 3.95271e-06 0)
(0.259859 -3.86213e-06 0)
(0.260136 3.76323e-06 0)
(0.25987 -3.39708e-06 0)
(0.260126 3.17786e-06 0)
(0.25988 -2.79756e-06 0)
(0.260116 2.80007e-06 0)
(0.25989 -2.78057e-06 0)
(0.260106 2.74006e-06 0)
(0.2599 -2.74813e-06 0)
(0.260096 2.4064e-06 0)
(0.259909 -2.41284e-06 0)
(0.260087 2.26902e-06 0)
(0.259919 -2.17105e-06 0)
(0.260078 2.31482e-06 0)
(0.259929 -2.14557e-06 0)
(0.260068 2.03551e-06 0)
(0.259938 -1.94584e-06 0)
(0.260059 1.97648e-06 0)
(0.259948 -2.02071e-06 0)
(0.260049 1.90975e-06 0)
(0.259957 -2.00418e-06 0)
(0.260039 2.29533e-06 0)
(0.259968 -2.69459e-06 0)
(0.260028 3.47571e-06 0)
(0.259976 -4.4406e-06 0)
(0.266593 -0.0237392 0)
(0.256702 -0.00484906 0)
(0.259473 0.000191294 0)
(0.259314 0.00080257 0)
(0.260086 0.000513521 0)
(0.259703 0.000241247 0)
(0.260205 0.00010357 0)
(0.259778 2.26777e-05 0)
(0.260211 1.35141e-05 0)
(0.259794 -6.12696e-06 0)
(0.2602 6.20549e-06 0)
(0.259806 -6.85686e-06 0)
(0.260188 6.1817e-06 0)
(0.259818 -6.29915e-06 0)
(0.260176 5.95826e-06 0)
(0.25983 -5.81109e-06 0)
(0.260164 5.57916e-06 0)
(0.259842 -5.44675e-06 0)
(0.260153 5.11365e-06 0)
(0.259853 -5.08833e-06 0)
(0.260142 4.75699e-06 0)
(0.259864 -4.5437e-06 0)
(0.260131 4.40462e-06 0)
(0.259875 -4.25983e-06 0)
(0.260121 4.2195e-06 0)
(0.259885 -3.99162e-06 0)
(0.260111 3.71863e-06 0)
(0.259895 -3.57182e-06 0)
(0.260101 3.33049e-06 0)
(0.259905 -3.4056e-06 0)
(0.260092 3.17278e-06 0)
(0.259914 -3.14379e-06 0)
(0.260082 3.00697e-06 0)
(0.259924 -2.83318e-06 0)
(0.260073 2.8158e-06 0)
(0.259933 -2.80521e-06 0)
(0.260063 2.78895e-06 0)
(0.259943 -2.78393e-06 0)
(0.260054 2.77134e-06 0)
(0.259952 -2.91176e-06 0)
(0.260044 3.04464e-06 0)
(0.259962 -3.36401e-06 0)
(0.260034 3.89895e-06 0)
(0.259973 -4.77343e-06 0)
(0.260024 6.61407e-06 0)
(0.269274 -0.0148703 0)
(0.257736 -0.00341608 0)
(0.258085 -4.42265e-05 0)
(0.259135 0.000543201 0)
(0.25929 0.000347145 0)
(0.260039 0.000182752 0)
(0.259721 5.94633e-05 0)
(0.260204 2.79696e-05 0)
(0.259787 -3.05521e-06 0)
(0.260206 7.67817e-06 0)
(0.259801 -7.71633e-06 0)
(0.260194 6.90246e-06 0)
(0.259812 -7.24136e-06 0)
(0.260182 6.77592e-06 0)
(0.259825 -6.7817e-06 0)
(0.26017 6.47699e-06 0)
(0.259837 -6.39624e-06 0)
(0.260159 6.07186e-06 0)
(0.259848 -6.01028e-06 0)
(0.260148 5.63724e-06 0)
(0.259859 -5.53736e-06 0)
(0.260137 5.27503e-06 0)
(0.25987 -5.0691e-06 0)
(0.260126 4.8174e-06 0)
(0.259881 -4.56554e-06 0)
(0.260116 4.39334e-06 0)
(0.259891 -4.3403e-06 0)
(0.260107 4.16132e-06 0)
(0.259901 -4.12629e-06 0)
(0.260097 3.85747e-06 0)
(0.25991 -3.85287e-06 0)
(0.260088 3.67113e-06 0)
(0.25992 -3.63595e-06 0)
(0.260078 3.57653e-06 0)
(0.259929 -3.50661e-06 0)
(0.260069 3.43723e-06 0)
(0.259939 -3.42971e-06 0)
(0.26006 3.41375e-06 0)
(0.259949 -3.47132e-06 0)
(0.26005 3.51349e-06 0)
(0.259959 -3.72241e-06 0)
(0.26004 4.08131e-06 0)
(0.259969 -4.77169e-06 0)
(0.260028 6.42517e-06 0)
(0.259977 -8.85419e-06 0)
(0.271698 -0.00703354 0)
(0.257325 -0.00167836 0)
(0.257999 2.36465e-05 0)
(0.258283 0.000437654 0)
(0.25961 0.000292538 0)
(0.259538 0.000132431 0)
(0.26016 6.35044e-05 0)
(0.259771 8.56222e-06 0)
(0.260212 1.31054e-05 0)
(0.259796 -7.9308e-06 0)
(0.260201 8.78984e-06 0)
(0.259806 -8.38168e-06 0)
(0.260188 8.6583e-06 0)
(0.259818 -7.95146e-06 0)
(0.260175 8.36905e-06 0)
(0.259829 -7.52289e-06 0)
(0.260163 7.92145e-06 0)
(0.259841 -7.10072e-06 0)
(0.260151 7.41543e-06 0)
(0.259852 -6.67975e-06 0)
(0.26014 6.93366e-06 0)
(0.259862 -6.17507e-06 0)
(0.260129 6.43851e-06 0)
(0.259873 -5.75812e-06 0)
(0.260119 6.06798e-06 0)
(0.259883 -5.42486e-06 0)
(0.260108 5.60843e-06 0)
(0.259893 -5.04581e-06 0)
(0.260099 5.23187e-06 0)
(0.259902 -4.82139e-06 0)
(0.260089 4.98102e-06 0)
(0.259911 -4.61556e-06 0)
(0.260079 4.76829e-06 0)
(0.259921 -4.42016e-06 0)
(0.26007 4.59795e-06 0)
(0.25993 -4.34914e-06 0)
(0.26006 4.53167e-06 0)
(0.259939 -4.35859e-06 0)
(0.26005 4.56503e-06 0)
(0.259949 -4.55645e-06 0)
(0.26004 4.89315e-06 0)
(0.259959 -5.21667e-06 0)
(0.26003 6.08533e-06 0)
(0.25997 -7.74982e-06 0)
(0.260017 1.28602e-05 0)
)
;

boundaryField
{
    AirInlet
    {
        type            fixedValue;
        value           uniform (0.1 0 0);
    }
    WaterInlet
    {
        type            fixedValue;
        value           uniform (0.5 0 0);
    }
    ChannelWall
    {
        type            fixedValue;
        value           uniform (0 0 0);
    }
    Outlet
    {
        type            pressureInletOutletVelocity;
        value           nonuniform List<vector> 
11
(
(0.260017 -1.25396e-05 0)
(0.259977 8.17398e-06 0)
(0.260024 -6.15302e-06 0)
(0.259976 3.83719e-06 0)
(0.260026 -6.20026e-07 0)
(0.259975 -2.91186e-07 0)
(0.260026 1.1766e-06 0)
(0.259976 -4.4406e-06 0)
(0.260024 6.61407e-06 0)
(0.259977 -8.85419e-06 0)
(0.260017 1.28602e-05 0)
)
;
    }
    FrontAndBack
    {
        type            empty;
    }
}


// ************************************************************************* //
