/*--------------------------------*- C++ -*----------------------------------*\
| =========                 |                                                 |
| \\      /  F ield         | OpenFOAM: The Open Source CFD Toolbox           |
|  \\    /   O peration     | Version:  2.3.0                                 |
|   \\  /    A nd           | Web:      www.OpenFOAM.org                      |
|    \\/     M anipulation  |                                                 |
\*---------------------------------------------------------------------------*/
FoamFile
{
    version     2.0;
    format      ascii;
    class       volScalarField;
    location    "2.0021";
    object      alpha.air;
}
// * * * * * * * * * * * * * * * * * * * * * * * * * * * * * * * * * * * * * //

dimensions      [0 0 0 0 0 0 0];

internalField   nonuniform List<scalar> 
1000
(
0.111358
0.0909678
0.0855602
0.0967227
0.124632
0.179993
0.24929
0.248547
0.213182
0.163187
0.210727
0.266182
0.250649
0.183711
0.140582
0.118695
0.109596
0.118074
0.144381
0.161478
0.000522052
0.000349119
0.000802286
0.00124341
0.00443221
0.0177744
0.0516818
0.0475632
0.0607207
0.045404
0.054033
0.0644387
0.0371068
0.0139777
0.00363311
0.000952299
0.000663808
0.000730755
0.00125878
0.00175687
8.48345e-08
1.06801e-05
0.00221757
0.00339083
0.00335032
0.00483922
0.0172394
0.0494437
0.0734599
0.0390429
0.0185228
0.0158992
0.00403084
0.000408389
0.000157485
8.11778e-05
1.68226e-05
1.43404e-07
1.57594e-07
3.16868e-07
6.26136e-09
8.56273e-06
0.00360396
0.00837579
0.00659313
0.00661284
0.0175974
0.0569731
0.0887558
0.048218
0.0190998
0.0093928
0.00137846
0.000800623
0.000887647
0.000655554
0.000112637
2.13358e-08
7.90057e-11
8.60889e-11
1.67213e-09
2.96494e-06
0.00517437
0.0151777
0.0117393
0.00998661
0.0198658
0.0640519
0.103169
0.064525
0.0232665
0.0110035
0.00209854
0.0022705
0.00308955
0.00308251
0.0003298
2.01479e-08
9.56606e-12
4.58416e-13
4.95564e-10
1.04669e-06
0.00639992
0.0305301
0.02483
0.0154716
0.0243346
0.0739105
0.116149
0.090724
0.0317251
0.0146619
0.0033505
0.00479353
0.00898392
0.0104096
0.000537055
2.1308e-08
2.86421e-12
8.30273e-15
1.4429e-10
3.78031e-07
0.00663251
0.0577098
0.0299134
0.020421
0.03601
0.0880053
0.126332
0.117352
0.0534971
0.0219349
0.00494933
0.00714689
0.0190985
0.0245697
0.000587427
1.71354e-08
7.35508e-13
5.49472e-16
3.38967e-11
9.65811e-08
0.00378101
0.0579591
0.0309202
0.0274387
0.0540381
0.10429
0.135477
0.138913
0.0894961
0.0360073
0.00866842
0.00798018
0.0211278
0.0358836
0.000282176
1.56447e-09
1.35725e-13
3.59427e-17
4.57531e-12
4.33557e-09
0.00194015
0.0607873
0.0327291
0.0341992
0.0673614
0.110092
0.146467
0.148824
0.128789
0.0584068
0.0160964
0.00963554
0.0193052
0.0344894
0.000214594
2.67748e-11
1.60365e-14
1.69063e-18
4.07825e-14
8.33456e-11
0.000471758
0.0661006
0.0395003
0.0419198
0.0757345
0.108018
0.124211
0.132992
0.131274
0.0876487
0.0374418
0.0202003
0.0253961
0.038176
0.000231148
9.29882e-13
9.09243e-16
3.58575e-20
0.0600649
0.0522005
0.0514416
0.0603376
0.078924
0.13482
0.274895
0.332583
0.283442
0.212203
0.260979
0.321084
0.215492
0.109987
0.0795685
0.0632544
0.058064
0.0654847
0.0783694
0.0865076
9.26159e-05
7.37858e-05
0.000977475
0.0016546
0.0022521
0.00987114
0.0977842
0.170284
0.106833
0.0818426
0.120559
0.132163
0.0250365
0.00272002
0.000718762
0.000323466
0.00017319
0.000121369
0.000200299
0.000270131
3.43006e-09
3.80046e-06
0.00211395
0.00544121
0.00482087
0.00559616
0.0449559
0.153311
0.118126
0.0923913
0.103495
0.0632441
0.00378021
0.00116116
0.00106141
0.000681328
0.000117931
3.95914e-07
8.2227e-10
6.25653e-09
1.05867e-09
2.26003e-06
0.00372878
0.0106416
0.00956675
0.00811275
0.0343097
0.148723
0.139542
0.106963
0.105935
0.0406121
0.00362965
0.00281564
0.00348726
0.00275689
0.000592334
2.0052e-07
2.31008e-11
4.38931e-13
3.47825e-10
1.03521e-06
0.00560614
0.0184953
0.0162856
0.012762
0.0351928
0.147669
0.158895
0.122948
0.11486
0.0421422
0.00545768
0.006589
0.00864132
0.00823121
0.00153331
1.90647e-07
7.5852e-12
2.77484e-15
1.19223e-10
5.48845e-07
0.00678977
0.0336934
0.0294613
0.0198936
0.0393568
0.154636
0.173721
0.144753
0.129313
0.0499475
0.00835859
0.0114508
0.0185305
0.0195472
0.00274794
2.1239e-07
2.0704e-12
1.06018e-16
3.5476e-11
2.99891e-07
0.00696887
0.0624172
0.0378718
0.0267901
0.0615725
0.170458
0.188544
0.170311
0.145453
0.0687988
0.0111527
0.0155385
0.0331316
0.0372534
0.00347587
1.5946e-07
4.29769e-13
6.24831e-18
7.69134e-12
6.9696e-08
0.00418001
0.0663542
0.0445974
0.0399783
0.0965383
0.188259
0.201953
0.192354
0.163502
0.0948496
0.0200657
0.0153757
0.0333733
0.0474649
0.00212325
5.30866e-08
5.85663e-14
3.89245e-19
8.97154e-13
3.35887e-09
0.00227385
0.0696851
0.051346
0.0623217
0.132179
0.206333
0.222852
0.217152
0.182821
0.119068
0.0360927
0.0168069
0.0284198
0.0444075
0.000451537
2.39924e-10
3.79409e-15
1.94435e-20
1.17854e-14
9.53558e-10
0.000596779
0.0849384
0.0631787
0.0977552
0.169752
0.224423
0.216076
0.220451
0.201068
0.149454
0.0714825
0.0313215
0.0347762
0.0487265
0.000168048
1.72481e-12
5.37144e-18
5.62412e-22
0.0407995
0.039624
0.0408932
0.0498691
0.0674488
0.122341
0.320392
0.435891
0.411004
0.341218
0.399192
0.410713
0.209649
0.089433
0.0644951
0.0504602
0.0461882
0.0502903
0.0557294
0.0571626
2.98086e-05
3.30218e-05
0.00114687
0.00287294
0.00317923
0.0100353
0.14095
0.347825
0.272842
0.218334
0.298758
0.247692
0.0273688
0.00167389
0.000949345
0.0007435
0.000203199
5.76287e-05
6.63128e-05
7.46953e-05
1.38068e-09
3.58573e-06
0.00240689
0.00746628
0.00721856
0.00833613
0.0746702
0.289834
0.275082
0.226352
0.268598
0.142262
0.0065465
0.00360315
0.00408804
0.00362598
0.000809356
2.8145e-06
8.86338e-11
2.34106e-12
6.8751e-10
2.20769e-06
0.00445989
0.0132801
0.012806
0.0118104
0.0583273
0.253652
0.27329
0.228417
0.24383
0.0902034
0.00884454
0.00861309
0.0109233
0.0109396
0.00335745
2.46259e-06
4.39012e-11
5.28486e-14
2.56961e-10
1.1205e-06
0.00657397
0.0218295
0.020264
0.0176068
0.0533457
0.225216
0.272008
0.22649
0.245105
0.0744991
0.0121202
0.0165443
0.0229024
0.0240057
0.00947977
2.31032e-06
1.81596e-11
5.25437e-16
9.37447e-11
6.16034e-07
0.00776526
0.0368411
0.0335389
0.0254129
0.0580037
0.229543
0.272263
0.228977
0.252197
0.0832988
0.0160942
0.023751
0.0377496
0.0413203
0.0180312
1.86375e-06
5.88503e-12
2.13592e-17
2.8379e-11
3.28596e-07
0.00789934
0.061412
0.0429763
0.033417
0.0863464
0.244646
0.272719
0.235027
0.252341
0.109974
0.0193692
0.0266289
0.0482517
0.0557806
0.0235288
7.46018e-07
1.37792e-12
1.18697e-18
6.11052e-12
8.41449e-08
0.00474081
0.0692615
0.0501326
0.0502713
0.130785
0.261609
0.273587
0.243072
0.250408
0.148825
0.0322101
0.0250809
0.0454547
0.0561823
0.021993
3.04717e-07
2.09084e-13
6.70706e-20
7.03569e-13
5.05474e-09
0.00257971
0.0753023
0.0573785
0.0755195
0.170245
0.277408
0.278826
0.259472
0.251582
0.182261
0.0562528
0.0261826
0.0370536
0.0506312
0.00426806
4.00196e-08
1.4965e-14
2.87943e-21
1.08505e-14
7.4414e-10
0.000672207
0.0953536
0.0748562
0.120207
0.2141
0.294359
0.269387
0.269669
0.257903
0.21727
0.105025
0.0437684
0.0417409
0.0537733
0.000257269
3.99853e-11
3.39055e-19
6.86945e-23
0.0600663
0.0521826
0.0514294
0.0603362
0.0789204
0.135187
0.277255
0.33128
0.278543
0.219477
0.273278
0.326269
0.211698
0.109956
0.0795002
0.0632297
0.0580181
0.0654691
0.0783853
0.0865274
9.25204e-05
7.36798e-05
0.000980722
0.00165694
0.00225385
0.0100293
0.0988433
0.173863
0.105189
0.084087
0.124213
0.130444
0.0238223
0.00268778
0.000708778
0.000323476
0.000173006
0.000120971
0.000200147
0.000270043
3.41853e-09
3.79214e-06
0.00211559
0.00544149
0.00482249
0.00560801
0.0449172
0.154597
0.119873
0.0919795
0.0985127
0.0602299
0.00362087
0.0011623
0.00106387
0.000681619
0.000118552
4.00114e-07
8.22288e-10
6.25153e-09
1.05498e-09
2.25326e-06
0.00372545
0.0106367
0.00956698
0.00811851
0.0342608
0.148861
0.141926
0.106404
0.101947
0.0396597
0.00361332
0.00281918
0.00349758
0.00276731
0.000594249
2.00742e-07
2.32117e-11
4.8715e-13
3.46881e-10
1.03175e-06
0.0056
0.0184859
0.0162834
0.0127597
0.0352214
0.147732
0.160918
0.122938
0.111847
0.0413046
0.00542548
0.00660175
0.00866629
0.00825811
0.00153946
1.90257e-07
7.61067e-12
2.78332e-15
1.18905e-10
5.47137e-07
0.00678221
0.0336843
0.0294618
0.0198837
0.0394421
0.154691
0.175245
0.14541
0.127049
0.049124
0.00829046
0.0114536
0.0185587
0.0195839
0.00275983
2.12303e-07
2.07757e-12
1.06607e-16
3.53748e-11
2.99138e-07
0.00696115
0.0624127
0.0378734
0.0267774
0.0615356
0.170412
0.189632
0.171305
0.144503
0.0679017
0.0110576
0.0155163
0.0331169
0.0372757
0.00348996
1.60625e-07
4.3141e-13
6.30016e-18
7.66444e-12
6.94295e-08
0.00417612
0.0663564
0.0445872
0.0399586
0.0964011
0.188109
0.202518
0.193023
0.163584
0.0940934
0.0198838
0.0153248
0.0333323
0.047459
0.00212746
5.32776e-08
5.86825e-14
3.93485e-19
8.92043e-13
3.35672e-09
0.00227326
0.0696889
0.0513405
0.0623981
0.132288
0.206347
0.222478
0.216968
0.183108
0.118722
0.0358753
0.0167276
0.0283293
0.0443726
0.000451982
2.40943e-10
3.78698e-15
1.97064e-20
1.12838e-14
9.54259e-10
0.000596867
0.0849635
0.063215
0.097823
0.169507
0.223682
0.215235
0.220059
0.20107
0.149502
0.0713117
0.0311733
0.0346563
0.0486558
0.000169036
1.73403e-12
4.34348e-18
5.71903e-22
0.111265
0.0908615
0.0854584
0.096644
0.124588
0.18032
0.249805
0.247813
0.213226
0.165405
0.212366
0.268023
0.250739
0.183709
0.140404
0.11851
0.109407
0.117644
0.14418
0.161424
0.000520369
0.00034787
0.00080133
0.00124288
0.00443016
0.0179373
0.0525651
0.0477784
0.0605001
0.0450111
0.0530082
0.0636343
0.0364575
0.0139337
0.00360025
0.000945186
0.000659694
0.000723216
0.00125354
0.00175215
8.41199e-08
1.06118e-05
0.00221328
0.0033888
0.0033522
0.0048657
0.0172202
0.0496994
0.0733687
0.0385152
0.0172179
0.0144689
0.0038246
0.000406818
0.000157195
8.09473e-05
1.67671e-05
1.42644e-07
1.56311e-07
3.152e-07
6.21687e-09
8.48905e-06
0.00359255
0.00836627
0.00659486
0.00663167
0.0175644
0.0569997
0.0886723
0.0478725
0.0180414
0.00885316
0.00133734
0.000798077
0.000887768
0.000654731
0.000112576
2.13584e-08
7.88957e-11
8.58583e-11
1.66286e-09
2.93542e-06
0.005157
0.0151576
0.0117336
0.0100027
0.0198446
0.0638667
0.10307
0.0645317
0.0223589
0.0104209
0.00204734
0.00227104
0.00308918
0.00308298
0.000330318
2.01563e-08
9.56625e-12
4.58078e-13
4.93937e-10
1.03831e-06
0.00637843
0.0304975
0.0248151
0.0154744
0.0243235
0.0735826
0.116025
0.0911881
0.0310293
0.0140184
0.00327617
0.00479674
0.00897826
0.0104061
0.000538835
2.1352e-08
2.85996e-12
8.3128e-15
1.44189e-10
3.7647e-07
0.00661083
0.0577027
0.0299058
0.0204121
0.0359552
0.0876029
0.125936
0.117911
0.0533548
0.0213263
0.00484249
0.00715472
0.0191069
0.0245603
0.000589962
1.71989e-08
7.33335e-13
5.50506e-16
3.39575e-11
9.62245e-08
0.00377376
0.0579884
0.03093
0.0274436
0.0539091
0.103535
0.134171
0.139167
0.0896775
0.0355983
0.00850877
0.00796786
0.0211098
0.0358784
0.000283984
1.58383e-09
1.35259e-13
3.60274e-17
4.59272e-12
4.32724e-09
0.00193984
0.0608564
0.0327486
0.0342268
0.067141
0.109075
0.144492
0.148213
0.128607
0.0582059
0.0159166
0.00959965
0.0192498
0.0344654
0.000215796
2.66821e-11
1.59694e-14
1.69548e-18
4.07761e-14
8.23912e-11
0.0004711
0.0660445
0.0395203
0.041924
0.0753143
0.106894
0.122601
0.132123
0.130915
0.0875393
0.0372945
0.0200866
0.0252754
0.0381167
0.000232389
9.27816e-13
9.04297e-16
3.60515e-20
)
;

boundaryField
{
    aeration
    {
        type            fixedValue;
        value           uniform 0.5;
    }
    xsides
    {
        type            zeroGradient;
    }
    zsides
    {
        type            zeroGradient;
    }
    outlet
    {
        type            inletOutlet;
        phi             phi.air;
        inletValue      uniform 0;
        value           nonuniform List<scalar> 
100
(
0
0
0
0
0
0
0
0
0
0
0
0
0
0
0
0.0661006
0.0849384
0.0953536
0.0849635
0.0660445
0.0395003
0.0631787
0.0748562
0.063215
0.0395203
0.0419198
0.0977552
0.120207
0.097823
0.041924
0.0757345
0.169752
0.2141
0.169507
0.0753143
0.108018
0.224423
0.294359
0.223682
0.106894
0.124211
0.216076
0.269387
0.215235
0.122601
0.132992
0.220451
0.269669
0.220059
0.132123
0.131274
0.201068
0.257903
0.20107
0.130915
0.0876487
0.149454
0.21727
0.149502
0.0875393
0.0374418
0.0714825
0.105025
0.0713117
0.0372945
0.0202003
0.0313215
0.0437684
0.0311733
0.0200866
0.0253961
0.0347762
0.0417409
0.0346563
0.0252754
0.038176
0.0487265
0.0537733
0.0486558
0.0381167
0
0
0
0
0
0
0
0
0
0
0
0
0
0
0
0
0
0
0
0
)
;
    }
}


// ************************************************************************* //
