/*--------------------------------*- C++ -*----------------------------------*\
| =========                 |                                                 |
| \\      /  F ield         | OpenFOAM: The Open Source CFD Toolbox           |
|  \\    /   O peration     | Version:  2.3.0                                 |
|   \\  /    A nd           | Web:      www.OpenFOAM.org                      |
|    \\/     M anipulation  |                                                 |
\*---------------------------------------------------------------------------*/
FoamFile
{
    version     2.0;
    format      ascii;
    class       volScalarField;
    location    "2.0021";
    object      Ct2;
}
// * * * * * * * * * * * * * * * * * * * * * * * * * * * * * * * * * * * * * //

dimensions      [0 0 0 0 0 0 0];

internalField   nonuniform List<scalar> 
1000
(
1
1.0001
1.00094
1.00001
1
1
1
1
1
1
1
1
1
1
1
1
1
1
1
1
7.60965
8.12781
7.25671
6.54318
3.66764
1.5328
1.31703
1.35786
1.18743
1.37344
1.28736
1.13191
1.40715
1.84892
4.13147
7.02294
7.51229
7.35362
6.33295
5.13509
8.95922
8.9333
5.29237
4.21584
4.23846
3.35463
1.516
1.20546
1.0208
1.36863
1.61996
1.73129
4.15618
8.05662
8.59186
8.76686
8.91884
8.95909
8.95904
8.95853
8.95944
8.9389
4.09661
2.22662
2.62682
2.63846
1.46826
1.13203
1.00032
1.24428
1.60104
2.3641
6.42477
7.29412
7.14656
7.57008
8.69657
8.9594
8.95945
8.95945
8.95946
8.95242
3.24171
1.5142
1.72473
1.95524
1.39977
1.07469
1
1.07237
1.45744
2.02809
5.44744
5.22583
4.47522
4.51236
8.22552
8.95942
8.95946
8.95946
8.95948
8.957
2.7871
1.20362
1.26199
1.51357
1.33017
1.01867
1
1.00016
1.31624
1.64911
4.28584
3.33775
2.08368
1.92241
7.80658
8.95943
8.95947
8.95947
8.95949
8.9586
2.71751
1.04342
1.21355
1.37111
1.26254
1.00046
1
1
1.16943
1.40447
3.33795
2.45776
1.33659
1.21772
7.70782
8.95945
8.95949
8.95949
8.9595
8.95927
3.9959
1.05582
1.21134
1.28208
1.16196
1
1
1
1.00026
1.28085
2.26898
2.27221
1.23312
1.10239
8.32056
8.9595
8.9595
8.9595
8.95951
8.9595
5.63988
1.05877
1.20599
1.24149
1.04787
1
1
1
1
1.13493
1.56703
2.03621
1.28362
1.0727
8.47304
8.95951
8.95951
8.95951
8.95952
8.95952
7.9054
1.03674
1.18807
1.20806
1.01107
1
1
1
1
1.00053
1.26273
1.38553
1.23486
1.11032
8.40889
8.95952
8.95952
8.95952
1.05355
1.11066
1.13186
1.0853
1.00471
1
1
1
1
1
1
1
1
1
1.00398
1.06395
1.09742
1.04074
1.00382
1.00031
8.72045
8.77013
6.86784
5.80392
5.14648
1.95421
1.00001
1
1
1.0052
1
1
1.26957
4.74646
7.36698
8.1829
8.53088
8.65232
8.45323
8.26915
8.95943
8.94965
5.29642
2.94838
3.19004
2.8791
1.1582
1
1
1.00009
1
1.06362
3.85279
6.59786
6.75702
7.45354
8.67071
8.95844
8.95944
8.95942
8.95945
8.9537
3.892
1.80604
1.90167
2.14757
1.18267
1
1
1
1
1.19898
3.92008
4.58119
4.05008
4.66932
7.65603
8.95896
8.95945
8.95945
8.95946
8.95686
2.94527
1.34343
1.391
1.5824
1.17665
1
1
1
1
1.18246
2.9458
2.56298
2.10654
2.20153
6.09105
8.95899
8.95946
8.95946
8.95948
8.9581
2.52325
1.15701
1.17837
1.29947
1.16836
1
1
1
1
1.14116
2.14229
1.70681
1.33823
1.32171
4.6913
8.95895
8.95947
8.95947
8.95949
8.95873
2.42485
1.02953
1.14035
1.21794
1.06516
1
1
1
1
1.02832
1.75886
1.4276
1.1524
1.12227
4.02841
8.95909
8.95949
8.95949
8.9595
8.95932
3.48556
1.02127
1.12063
1.1696
1.00001
1
1
1
1
1.00002
1.34255
1.43682
1.13031
1.07248
5.15817
8.95936
8.9595
8.9595
8.95951
8.9595
4.94616
1.01617
1.0964
1.05583
1
1
1
1
1
1
1.2065
1.40651
1.16109
1.06894
7.81668
8.95951
8.95951
8.95951
8.95952
8.95952
7.43326
1.00053
1.04258
1
1
1
1
1
1
1
1.02029
1.21198
1.15408
1.08272
8.45303
8.95952
8.95952
8.95952
1.12277
1.15023
1.15672
1.133
1.03195
1
1
1
1
1
1
1
1
1.00015
1.04578
1.1296
1.14199
1.11261
1.08027
1.06165
8.87941
8.86607
6.49084
4.31209
4.09782
1.83754
1
1
1
1
1
1
1.21278
5.74403
6.854
7.24731
8.43964
8.80465
8.78022
8.76091
8.95944
8.94916
4.85589
2.23373
2.27183
2.0478
1.00802
1
1
1
1
1
2.48305
3.82956
3.51932
3.84354
7.15191
8.95197
8.95944
8.95944
8.95945
8.95312
3.32626
1.52993
1.53903
1.6084
1.06369
1
1
1
1
1.00011
1.98013
2.0317
1.73843
1.74956
4.06046
8.9529
8.95945
8.95945
8.95946
8.95628
2.49414
1.24816
1.26098
1.32089
1.08231
1
1
1
1
1.00867
1.60955
1.38397
1.24598
1.23565
1.93043
8.95319
8.95946
8.95946
8.95948
8.9577
2.16159
1.13188
1.14081
1.19269
1.06194
1
1
1
1
1.00099
1.39125
1.22064
1.13668
1.12598
1.34234
8.95427
8.95947
8.95947
8.95949
8.95852
2.09753
1.03276
1.10901
1.15011
1.00036
1
1
1
1
1
1.29803
1.18543
1.09118
1.05575
1.23042
8.95728
8.95949
8.95949
8.9595
8.95923
3.04029
1.01354
1.08679
1.10262
1
1
1
1
1
1
1.1702
1.19917
1.09016
1.04603
1.22831
8.95854
8.9595
8.9595
8.95951
8.95949
4.47389
1.00543
1.05899
1.0064
1
1
1
1
1
1
1.07934
1.20087
1.11762
1.05808
3.19994
8.95937
8.95951
8.95951
8.95952
8.95952
7.20021
1.00001
1.00635
1
1
1
1
1
1
1
1
1.13856
1.12022
1.06429
8.19355
8.95952
8.95952
8.95952
1.05355
1.11074
1.1319
1.0853
1.00471
1
1
1
1
1
1
1
1
1
1.00404
1.06412
1.09773
1.04078
1.0038
1.00031
8.72066
8.77039
6.8619
5.80044
5.14467
1.93321
1
1
1
1.00283
1
1
1.2836
4.78004
7.38579
8.1829
8.53131
8.65331
8.45356
8.26928
8.95943
8.94967
5.29471
2.94828
3.18925
2.87504
1.15845
1
1
1.00011
1
1.08499
3.95977
6.5964
6.75262
7.45301
8.66921
8.95843
8.95944
8.95942
8.95945
8.95371
3.894
1.80664
1.90158
2.14688
1.18285
1
1
1
1
1.20245
3.93074
4.578
4.04257
4.65975
7.65229
8.95895
8.95945
8.95945
8.95946
8.95687
2.94777
1.34369
1.391
1.5827
1.1764
1
1
1
1
1.18575
2.95806
2.55931
2.10216
2.19614
6.08233
8.959
8.95946
8.95946
8.95948
8.95811
2.52556
1.15702
1.1783
1.29972
1.16792
1
1
1
1
1.14562
2.15516
1.7066
1.33754
1.32092
4.68021
8.95895
8.95947
8.95947
8.95949
8.95874
2.42714
1.02954
1.14032
1.21805
1.06536
1
1
1
1
1.03213
1.76846
1.42867
1.15247
1.12217
4.01769
8.95909
8.95949
8.95949
8.9595
8.95932
3.48785
1.02126
1.12067
1.1697
1.00001
1
1
1
1
1.00003
1.34614
1.439
1.13039
1.07242
5.15281
8.95936
8.9595
8.9595
8.95951
8.9595
4.94665
1.01617
1.09641
1.05538
1
1
1
1
1
1
1.20691
1.40902
1.16148
1.06889
7.81511
8.95951
8.95951
8.95951
8.95952
8.95952
7.43173
1.00053
1.04243
1
1
1
1
1
1
1
1.02084
1.21257
1.15434
1.08284
8.44992
8.95952
8.95952
8.95952
1
1.00011
1.00097
1.00001
1
1
1
1
1
1
1
1
1
1
1
1
1
1
1
1
7.61365
8.13061
7.25852
6.54393
3.66841
1.52719
1.30638
1.3561
1.19085
1.37588
1.30081
1.14343
1.40899
1.85209
4.15389
7.03498
7.52024
7.36865
6.34178
5.14061
8.95922
8.93347
5.297
4.21749
4.23678
3.3426
1.51679
1.20359
1.0212
1.37811
1.66956
1.81514
4.28571
8.06038
8.59252
8.76741
8.91897
8.95909
8.95904
8.95853
8.95944
8.93907
4.10442
2.22847
2.62619
2.63336
1.46912
1.13185
1.00033
1.24971
1.6371
2.46117
6.47943
7.29873
7.14637
7.5716
8.6967
8.9594
8.95945
8.95945
8.95946
8.95249
3.24923
1.51514
1.72515
1.95332
1.40012
1.07617
1
1.07242
1.47703
2.10141
5.50293
5.22526
4.47558
4.51185
8.22441
8.95942
8.95946
8.95946
8.95948
8.95702
2.79372
1.20374
1.26211
1.51348
1.33033
1.01983
1
1.00013
1.32187
1.68842
4.34123
3.33616
2.08459
1.92263
7.80305
8.95943
8.95947
8.95947
8.95949
8.95861
2.72392
1.04342
1.21357
1.3713
1.26272
1.00053
1
1
1.17081
1.41647
3.38829
2.45567
1.3364
1.21766
7.70271
8.95945
8.95949
8.95949
8.9595
8.95928
4.00068
1.05567
1.2113
1.28205
1.163
1
1
1
1.00024
1.28247
2.29873
2.27444
1.23313
1.10223
8.31648
8.9595
8.9595
8.9595
8.95951
8.9595
5.64024
1.05838
1.2059
1.24139
1.04927
1
1
1
1
1.13692
1.57521
2.04094
1.2842
1.07271
8.47031
8.95951
8.95951
8.95951
8.95952
8.95952
7.90667
1.03697
1.18801
1.20803
1.01206
1
1
1
1
1.00055
1.26321
1.38778
1.23559
1.11021
8.40614
8.95952
8.95952
8.95952
)
;

boundaryField
{
    aeration
    {
        type            calculated;
        value           uniform 1;
    }
    xsides
    {
        type            calculated;
        value           nonuniform List<scalar> 
100
(
1
7.78842
8.95923
8.95944
8.95946
8.95948
8.95949
8.9595
8.95951
8.95952
1.02862
8.63281
8.95943
8.95945
8.95946
8.95948
8.95949
8.9595
8.95951
8.95952
1.07207
8.84222
8.95943
8.95945
8.95946
8.95948
8.95949
8.9595
8.95951
8.95952
1.02863
8.63321
8.95943
8.95945
8.95946
8.95948
8.95949
8.9595
8.95951
8.95952
1
7.79188
8.95924
8.95944
8.95946
8.95948
8.95949
8.9595
8.95951
8.95952
1
5.70295
8.95866
8.95945
8.95946
8.95947
8.95949
8.9595
8.95951
8.95952
1.00016
7.99642
8.95941
8.95945
8.95946
8.95947
8.95949
8.9595
8.95951
8.95952
1.03505
8.65842
8.95944
8.95945
8.95946
8.95947
8.95949
8.9595
8.95951
8.95952
1.00016
7.99683
8.95941
8.95945
8.95946
8.95947
8.95949
8.9595
8.95951
8.95952
1
5.70934
8.95866
8.95945
8.95946
8.95947
8.95949
8.9595
8.95951
8.95952
)
;
    }
    zsides
    {
        type            calculated;
        value           nonuniform List<scalar> 
400
(
1
7.78842
8.95923
8.95944
8.95946
8.95948
8.95949
8.9595
8.95951
8.95952
1.00016
8.20526
8.93514
8.94005
8.95276
8.95711
8.95863
8.95928
8.9595
8.95952
1.00115
7.37263
5.48496
4.29969
3.42227
2.94398
2.85169
4.13085
5.72012
7.92957
1.00002
6.69161
4.44311
2.43044
1.67045
1.32982
1.14304
1.14664
1.12319
1.07186
1
3.76398
4.46928
2.87493
1.92715
1.38431
1.33401
1.33061
1.32609
1.3051
1
1.52891
3.56192
2.87087
2.14558
1.65238
1.47513
1.37402
1.33477
1.30581
1
1
1.55328
1.56078
1.49275
1.40912
1.33353
1.22152
1.06938
1.01705
1
1
1.21875
1.1734
1.09891
1.02479
1.00064
1
1
1
1
1
1.01995
1.00043
1
1
1
1
1
1
1
1
1.20127
1.21334
1.08545
1.00022
1
1
1
1
1
1
1
1.00001
1.31502
1.30744
1.21681
1.00037
1
1
1
1
1
1.00001
1.9076
1.6701
1.44117
1.33822
1.17367
1.00074
1
1
1.10299
6.46011
5.59205
4.46969
3.52074
2.38906
1.65287
1.34002
1
1.00111
8.10446
7.39781
5.43791
3.5984
2.72237
2.51916
2.21865
1.50178
1
4.26458
8.61593
7.25436
4.68907
2.31328
1.50226
1.44469
1.49677
1.39094
1
7.13999
8.77993
7.65025
4.69628
2.09045
1.37967
1.2943
1.30311
1.2987
1
7.62611
8.92171
8.71165
8.262
7.86247
7.76516
8.34966
8.47785
8.42105
1
7.49232
8.95911
8.9594
8.95942
8.95943
8.95945
8.9595
8.95951
8.95952
1
6.6232
8.95908
8.95945
8.95946
8.95947
8.95949
8.9595
8.95951
8.95952
1
5.70295
8.95866
8.95945
8.95946
8.95947
8.95949
8.9595
8.95951
8.95952
1
7.79188
8.95924
8.95944
8.95946
8.95948
8.95949
8.9595
8.95951
8.95952
1.00016
8.20782
8.9353
8.94022
8.95282
8.95713
8.95863
8.95928
8.9595
8.95952
1.00118
7.37424
5.4895
4.30764
3.43012
2.95115
2.85851
4.13581
5.72074
7.93069
1.00002
6.69244
4.44452
2.43236
1.67156
1.33007
1.14317
1.1464
1.1225
1.07234
1
3.76531
4.46793
2.87438
1.9277
1.3845
1.33407
1.33056
1.32605
1.30508
1
1.52286
3.54895
2.86505
2.14323
1.65221
1.47535
1.37395
1.33458
1.30575
1
1
1.55385
1.56198
1.49326
1.40924
1.3337
1.22288
1.07135
1.01854
1
1
1.21694
1.17302
1.10083
1.02633
1.00074
1
1
1
1
1
1.0203
1.00044
1
1
1
1
1
1
1
1
1.19981
1.21521
1.08549
1.00019
1
1
1
1
1
1
1
1
1.32535
1.31074
1.21828
1.00034
1
1
1
1
1.00001
1.00001
1.9764
1.71014
1.45332
1.33971
1.17614
1.00077
1
1
1.10157
6.5223
5.65084
4.52638
3.57252
2.42044
1.66178
1.34054
1
1.00379
8.10747
7.40205
5.43725
3.59681
2.72035
2.52205
2.22442
1.50479
1
4.28728
8.61653
7.25414
4.68934
2.31438
1.50207
1.44519
1.49851
1.39251
1
7.1514
8.78043
7.6517
4.69593
2.09104
1.37992
1.29445
1.30339
1.29907
1
7.63337
8.92184
8.71179
8.26098
7.85924
7.76064
8.34606
8.47545
8.41824
1
7.50541
8.95911
8.9594
8.95942
8.95943
8.95945
8.9595
8.95951
8.95952
1
6.63113
8.95908
8.95945
8.95946
8.95947
8.95949
8.9595
8.95951
8.95952
1
5.70934
8.95866
8.95945
8.95946
8.95947
8.95949
8.9595
8.95951
8.95952
)
;
    }
    outlet
    {
        type            calculated;
        value           nonuniform List<scalar> 
100
(
8.95953
8.95953
8.95953
8.95953
8.95953
8.95953
8.95953
8.95953
8.95953
8.95953
8.95953
8.95953
8.95953
8.95953
8.95953
1.03674
1.00053
1.00001
1.00053
1.03697
1.18808
1.04259
1.00635
1.04243
1.18802
1.20807
1
1
1
1.20803
1.01107
1
1
1
1.01206
1
1
1
1
1
1
1
1
1
1
1
1
1
1
1
1
1
1
1
1
1.00053
1
1
1
1.00055
1.26274
1.02029
1
1.02084
1.26322
1.38554
1.21199
1.13857
1.21258
1.38779
1.23487
1.15409
1.12023
1.15434
1.2356
1.11032
1.08272
1.06429
1.08285
1.11021
8.95953
8.95953
8.95953
8.95953
8.95953
8.95953
8.95953
8.95953
8.95953
8.95953
8.95953
8.95953
8.95953
8.95953
8.95953
8.95953
8.95953
8.95953
8.95953
8.95953
)
;
    }
}


// ************************************************************************* //
