/*--------------------------------*- C++ -*----------------------------------*\
| =========                 |                                                 |
| \\      /  F ield         | OpenFOAM: The Open Source CFD Toolbox           |
|  \\    /   O peration     | Version:  2.3.0                                 |
|   \\  /    A nd           | Web:      www.OpenFOAM.org                      |
|    \\/     M anipulation  |                                                 |
\*---------------------------------------------------------------------------*/
FoamFile
{
    version     2.0;
    format      ascii;
    class       volScalarField;
    location    "2.0021";
    object      epsilonm;
}
// * * * * * * * * * * * * * * * * * * * * * * * * * * * * * * * * * * * * * //

dimensions      [0 2 -3 0 0 0 0];

internalField   nonuniform List<scalar> 
1000
(
0.00678905
0.017486
0.0448013
0.106942
0.0890706
0.0766649
0.0765728
0.0425659
0.0142852
0.0200415
0.0292144
0.0424286
0.0541826
0.0511607
0.0607851
0.0830024
0.084686
0.0354856
0.0189024
0.00702501
0.00188731
0.00559519
0.0103439
0.0156407
0.0212091
0.0247346
0.0213146
0.0177011
0.0156157
0.0140041
0.016419
0.0186605
0.0238629
0.0285961
0.0223735
0.0181343
0.01371
0.00741745
0.00386796
0.000795978
0.00472706
0.0103924
0.0184213
0.0176715
0.0164979
0.0163245
0.0165543
0.0211696
0.0220919
0.0116452
0.0161359
0.0162749
0.0193452
0.0221946
0.0238343
0.0232168
0.019376
0.0131779
0.00814314
0.00207465
0.00654436
0.0146653
0.0214521
0.0178101
0.0142493
0.0151135
0.022428
0.0504874
0.0580142
0.0176672
0.0154521
0.0147349
0.0165785
0.0236352
0.0252485
0.0262574
0.0243122
0.0188963
0.0126597
0.00429614
0.00745746
0.0181763
0.0234973
0.015798
0.0124115
0.0152699
0.0263516
0.0817999
0.129862
0.0364868
0.0127461
0.013503
0.0174098
0.0211919
0.0231175
0.0261888
0.0272461
0.0228993
0.0178858
0.00580898
0.00740167
0.0194881
0.0209789
0.0121193
0.0133274
0.0162998
0.0356549
0.140086
0.19544
0.0879782
0.0228586
0.0183319
0.019596
0.0178103
0.0152703
0.0178995
0.0245955
0.0246818
0.0203299
0.006435
0.00629504
0.0191854
0.016515
0.00476743
0.0129883
0.0219532
0.0674834
0.189269
0.210544
0.145085
0.0596188
0.0355237
0.0217462
0.014911
0.0107873
0.00758561
0.0195448
0.0231545
0.0212135
0.00588472
0.00433841
0.0157989
0.0120706
0.00845639
0.0146487
0.0345682
0.104638
0.199673
0.166402
0.155187
0.128629
0.0853509
0.0344135
0.0157491
0.00611875
0.00463839
0.0129165
0.0180347
0.0180839
0.00423428
0.00220785
0.0103495
0.00787059
0.0168433
0.0178904
0.0438707
0.114735
0.180127
0.137327
0.152022
0.188692
0.152722
0.0583317
0.0235014
0.00766306
0.0030591
0.00728554
0.0100408
0.0116266
0.00217109
0.000386962
0.00233136
0.00329423
0.0230904
0.0257754
0.0502994
0.0999463
0.134683
0.0594686
0.100793
0.203062
0.218653
0.109834
0.0412893
0.0155569
0.0076743
0.00230557
0.00211911
0.00211059
0.000414257
0.00362617
0.00681518
0.0109181
0.0222628
0.0175667
0.0113965
0.00752864
0.00588989
0.00492013
0.00478047
0.00509433
0.00591095
0.00760029
0.0111531
0.0141797
0.018751
0.0200909
0.0101612
0.00726149
0.00394515
0.00176665
0.00353671
0.00518131
0.00547216
0.00611304
0.00586858
0.0068503
0.00419407
0.00241584
0.00191824
0.00328677
0.00649797
0.00509109
0.00673582
0.00747288
0.00776641
0.00766746
0.00525773
0.00386883
0.00108969
0.00227922
0.00384951
0.00740682
0.00687688
0.00609713
0.00605255
0.00668425
0.00590287
0.00365543
0.00327118
0.0122745
0.0125351
0.00543072
0.00827051
0.00888256
0.00957558
0.00965162
0.00845184
0.00683822
0.00172223
0.00224903
0.0038428
0.00768785
0.00733667
0.00595142
0.00603135
0.00724033
0.0114399
0.00827066
0.00427202
0.0105262
0.0114659
0.00625752
0.00869307
0.00900979
0.00965061
0.00924139
0.00790026
0.00730396
0.00195227
0.00175095
0.00379827
0.00735591
0.00735171
0.00586213
0.00599575
0.00820919
0.018057
0.0192034
0.00722442
0.0076763
0.0106342
0.0068769
0.00839066
0.00864979
0.00912962
0.00817152
0.00616531
0.00609281
0.00174776
0.00122704
0.00344375
0.00560693
0.00641869
0.00592954
0.00624277
0.0101736
0.0284216
0.0372098
0.0173191
0.00662524
0.0111648
0.00696042
0.00763012
0.00751832
0.00775263
0.00730012
0.00493283
0.00499751
0.0012393
0.000766437
0.00277833
0.00404907
0.00474211
0.00602948
0.00773244
0.0170927
0.0440352
0.0495991
0.0357378
0.0108877
0.0131327
0.00731038
0.00690431
0.00606874
0.00537501
0.00566809
0.00348801
0.00404004
0.000761195
0.000432105
0.00193164
0.00283746
0.00687211
0.0069159
0.0122921
0.0303359
0.0529989
0.0490365
0.04366
0.0285422
0.0194163
0.00998981
0.00734746
0.00488481
0.00469619
0.00329393
0.00239009
0.00291006
0.000406083
0.000189679
0.00090004
0.00158739
0.0107818
0.00877001
0.0169527
0.0379815
0.0538471
0.0441805
0.0444916
0.0474287
0.034138
0.0160796
0.00973089
0.00573428
0.00433643
0.00108829
0.00104475
0.00141493
0.000204179
0.000165592
0.000270584
0.000670162
0.0134954
0.0126119
0.0212688
0.0368317
0.0467769
0.0240624
0.0333306
0.0579853
0.0580195
0.0345702
0.0183979
0.00993097
0.00789357
0.000340282
0.00028836
0.000372218
0.000166967
0.00254967
0.00420071
0.00595062
0.0108686
0.0113211
0.00929917
0.0084886
0.0178864
0.0126392
0.00603449
0.0104831
0.0151865
0.00733365
0.0104063
0.0114902
0.0115163
0.00989816
0.00587018
0.00474964
0.00291892
0.00101729
0.00119948
0.00253955
0.00292872
0.00309035
0.00380734
0.00620419
0.0130062
0.00818169
0.00461861
0.00770947
0.00965901
0.00444087
0.00408471
0.00428427
0.00441314
0.00393853
0.00271181
0.00204893
0.000842088
0.000993887
0.00114601
0.00316931
0.00382006
0.00359105
0.00367503
0.00474644
0.00711723
0.00566768
0.00415134
0.00527237
0.00612237
0.00411862
0.00468631
0.00485958
0.00481269
0.00376048
0.00313359
0.00246291
0.000900637
0.000642159
0.000855921
0.00309458
0.00438444
0.00389504
0.00385264
0.00476671
0.00576042
0.00518827
0.00415663
0.00492
0.00574596
0.00437881
0.00482834
0.00485436
0.00474165
0.00298017
0.00177845
0.00167737
0.000710257
0.000464251
0.000719642
0.00306697
0.0049763
0.00418503
0.00396306
0.00509754
0.00658774
0.00549449
0.00448251
0.00490037
0.00579575
0.00468983
0.00513369
0.00525009
0.00527513
0.00328625
0.00117681
0.00110529
0.000485721
0.000297868
0.000604802
0.00281604
0.00489368
0.00428341
0.00416446
0.0059463
0.00927292
0.00839709
0.00687148
0.00486579
0.00602263
0.00458747
0.00511387
0.00538719
0.00543463
0.00379627
0.000869153
0.000835728
0.000305554
0.000230973
0.000473344
0.00256774
0.0046266
0.00436976
0.0048766
0.00850476
0.0160389
0.0171579
0.0147438
0.00583413
0.00654993
0.0047479
0.00487883
0.00479244
0.00476011
0.00384252
0.000604706
0.000618421
0.000231457
0.000162282
0.000325135
0.00189565
0.00641911
0.0050172
0.00707488
0.0145078
0.0229399
0.0239927
0.0219173
0.0120886
0.00786973
0.0056058
0.00523793
0.00431282
0.00468323
0.00285883
0.000433246
0.00043638
0.000164248
0.000162438
0.000199418
0.00118411
0.00938499
0.00646429
0.0103364
0.020739
0.0274412
0.0242385
0.0236733
0.0212773
0.0114399
0.00750425
0.00647439
0.00493172
0.00477383
0.00102064
0.000230065
0.000235191
0.000163216
0.000155274
0.000155372
0.000545009
0.0114285
0.00943484
0.0141132
0.0221304
0.0266547
0.0163031
0.0196605
0.0285282
0.0226877
0.0159086
0.0118105
0.00801694
0.00768776
0.000334948
0.000158114
0.000157826
0.000155441
0.00362789
0.00681708
0.0109142
0.0222709
0.0175852
0.0114187
0.00754912
0.0058419
0.0049064
0.00479697
0.00509089
0.00605918
0.00747399
0.0112172
0.014155
0.0187085
0.020052
0.010131
0.00726197
0.00394647
0.00176694
0.00353259
0.00517529
0.0054711
0.006123
0.00588911
0.00684834
0.0042367
0.00237315
0.00196713
0.00321899
0.00639419
0.00505362
0.00676579
0.00745012
0.00775645
0.0076492
0.00523515
0.00386527
0.0010896
0.0022792
0.00384853
0.00740412
0.00686912
0.00609917
0.00605775
0.00668641
0.00591783
0.00365371
0.0031465
0.0116894
0.0123797
0.00541397
0.00827068
0.00886766
0.00956991
0.00964683
0.00843385
0.00683203
0.00172252
0.0022487
0.00384277
0.00768917
0.00733544
0.00594701
0.00603636
0.00724442
0.0114478
0.00830365
0.004184
0.0102266
0.0114275
0.00626941
0.00868393
0.00900424
0.00965298
0.00926271
0.0079097
0.00730929
0.00195221
0.00175102
0.00379749
0.00736224
0.00735245
0.00585875
0.00599816
0.00820542
0.0180371
0.0192283
0.00721698
0.00760093
0.0106338
0.00691012
0.00838603
0.00864831
0.00913935
0.00819484
0.0061774
0.00610838
0.00174762
0.00122702
0.00344117
0.0056136
0.00642137
0.00592893
0.00624338
0.0101614
0.0283448
0.0371107
0.0174927
0.00651772
0.0111701
0.00698985
0.00763506
0.00752692
0.00776873
0.00732739
0.00493834
0.00500585
0.00123932
0.00076638
0.00277437
0.0040499
0.00474621
0.00602929
0.00772956
0.0170711
0.0437127
0.0491538
0.0357198
0.0107775
0.0131003
0.00733987
0.00691663
0.0060777
0.00538271
0.0056895
0.003484
0.00402286
0.000760756
0.00043184
0.00192536
0.00283983
0.00688009
0.00691704
0.0122831
0.030237
0.0524532
0.0483959
0.0433512
0.028532
0.0193038
0.010007
0.00736461
0.00488991
0.00469814
0.00332191
0.0023881
0.00287157
0.000404662
0.000189707
0.000894413
0.00158599
0.0108047
0.00877736
0.0169292
0.0377524
0.0531676
0.0434396
0.0439853
0.0472263
0.0339534
0.016096
0.00976565
0.00574124
0.0043371
0.00109626
0.00104321
0.00136317
0.00020525
0.000165571
0.000269574
0.00066696
0.0134806
0.0126291
0.0212371
0.0365368
0.0460778
0.0235783
0.0328275
0.057564
0.0578064
0.0345908
0.018447
0.00993893
0.00789596
0.000341028
0.000288388
0.000360335
0.000166897
0.00679184
0.0174577
0.0447613
0.106897
0.0890951
0.0766359
0.0769178
0.041132
0.0157657
0.0191246
0.0275101
0.0486946
0.0487062
0.0537374
0.0606969
0.0826417
0.0844755
0.0353091
0.0188464
0.00702766
0.00188947
0.00560275
0.0103423
0.0156464
0.0212152
0.0247902
0.0213386
0.0176672
0.0162596
0.0168189
0.0169165
0.0190084
0.0230858
0.0298088
0.022328
0.018105
0.0136892
0.00740917
0.0038822
0.000795515
0.00472812
0.0103951
0.0184208
0.0176679
0.0164878
0.0163588
0.0164961
0.0213241
0.0221617
0.0120217
0.0164288
0.0162073
0.0190909
0.022282
0.0238082
0.0232097
0.0193749
0.0131676
0.00814187
0.00207615
0.00654433
0.0146598
0.0214556
0.017807
0.0142381
0.0151428
0.0223511
0.05045
0.057912
0.0176868
0.0155521
0.0146632
0.0166618
0.0236106
0.0252383
0.0262599
0.0243369
0.0188894
0.0126588
0.00429662
0.00745706
0.0181702
0.0235055
0.0157929
0.0124024
0.0152868
0.026263
0.0813185
0.12953
0.0365834
0.0126671
0.0134014
0.0175424
0.0211713
0.0231267
0.026202
0.0272858
0.0228937
0.0178884
0.00580906
0.0074017
0.0194812
0.0209952
0.0121216
0.013321
0.0163008
0.0356019
0.139186
0.194832
0.0886693
0.0224484
0.0180412
0.0196408
0.0178087
0.0152944
0.0179283
0.024664
0.0246765
0.0203321
0.00643492
0.00629541
0.0191794
0.0165303
0.00477422
0.012987
0.0219472
0.067358
0.18778
0.208885
0.14558
0.05931
0.0348117
0.021771
0.0149286
0.0108066
0.0075953
0.0195907
0.0231406
0.0212074
0.00588446
0.00433795
0.0157941
0.0120908
0.00846984
0.0146559
0.0345631
0.104191
0.197198
0.164103
0.154685
0.128733
0.0842205
0.0342648
0.0157579
0.0061212
0.00463985
0.0129749
0.0180278
0.0180571
0.00423355
0.00220715
0.0103465
0.00788569
0.0168843
0.0179122
0.0438035
0.113922
0.177573
0.134682
0.150639
0.188125
0.15201
0.0580467
0.0234874
0.00765371
0.00306405
0.00730767
0.0100419
0.0115989
0.00217215
0.000386663
0.00233405
0.00327797
0.023025
0.0258191
0.0502039
0.0989371
0.132323
0.0580051
0.0992879
0.201881
0.218081
0.1095
0.0411898
0.0155159
0.00767008
0.00230153
0.00211875
0.00210367
0.000413821
)
;

boundaryField
{
    aeration
    {
        type            fixedValue;
        value           nonuniform List<scalar> 
100
(
0.00015
0.00015
0.00015
0.00015
0.00015
0.00015
0.00015
0.00015
0.00015
0.00015
0.00015
0.00015
0.00015
0.00015
0.00015
0.00015
0.00015
0.00015
0.00015
0.00015
0.00015
0.00015
0.00015
0.00015
0.00015
0.00015
0.00015
0.00015
0.00015
0.00015
0.00015
0.00015
0.00015
0.00015
0.00015
0.00015
0.00015
0.00015
0.00015
0.00015
0.00015
0.00015
0.00015
0.00015
0.00015
0.00015
0.00015
0.00015
0.00015
0.00015
0.00015
0.00015
0.00015
0.00015
0.00015
0.00015
0.00015
0.00015
0.00015
0.00015
0.00015
0.00015
0.00015
0.00015
0.00015
0.00015
0.00015
0.00015
0.00015
0.00015
0.00015
0.00015
0.00015
0.00015
0.00015
0.00015
0.00015
0.00015
0.00015
0.00015
0.00015
0.00015
0.00015
0.00015
0.00015
0.00015
0.00015
0.00015
0.00015
0.00015
0.00015
0.00015
0.00015
0.00015
0.00015
0.00015
0.00015
0.00015
0.00015
0.00015
)
;
    }
    xsides
    {
        type            fixedValue;
        value           nonuniform List<scalar> 
100
(
0.00898953
0.00410415
0.00815325
0.00987499
0.0104062
0.00919873
0.00755316
0.00490116
0.00253622
0.000628543
0.00150946
0.000550294
0.000738125
0.000693778
0.000541171
0.000373049
0.00026045
0.000146922
0.000102769
6.99657e-05
0.00114069
0.00029399
0.000328322
0.00025644
0.000184206
0.000150023
0.000109385
9.16963e-05
7.58491e-05
6.87049e-05
0.00151041
0.000551118
0.000738685
0.000694047
0.000541322
0.000373162
0.00026044
0.000146916
0.000102734
6.99676e-05
0.00899931
0.0041085
0.00815393
0.00987412
0.0104049
0.00919835
0.0075537
0.00490098
0.0025357
0.000628354
0.00932976
0.00202068
0.00453753
0.00731099
0.00857536
0.00870203
0.00701191
0.0048838
0.0024821
0.000647214
0.0016741
0.0003358
0.000574881
0.000638118
0.000537005
0.000394134
0.000246864
0.000157329
9.72301e-05
7.031e-05
0.00132091
0.000223525
0.000290008
0.000275256
0.00018928
0.00015259
0.000108727
9.21565e-05
7.57863e-05
6.92079e-05
0.00167497
0.000336087
0.000574432
0.000637448
0.000536192
0.000393965
0.000246889
0.000157237
9.67884e-05
7.02686e-05
0.00933879
0.00202341
0.00454003
0.00731184
0.00857554
0.00870243
0.00701173
0.00488296
0.0024828
0.000647103
)
;
    }
    zsides
    {
        type            fixedValue;
        value           nonuniform List<scalar> 
400
(
0.00898953
0.00410415
0.00815325
0.00987499
0.0104062
0.00919873
0.00755316
0.00490116
0.00253622
0.000628543
0.0322452
0.0138799
0.022603
0.0291729
0.0340708
0.0350122
0.0298622
0.0216805
0.0120687
0.00299163
0.0632884
0.0239164
0.046752
0.0543438
0.0562574
0.0460595
0.0313758
0.0207409
0.0108547
0.00399539
0.188238
0.0389479
0.0465783
0.0508427
0.0492463
0.0414351
0.0310393
0.0437731
0.0672879
0.0825956
2.7657e-18
0.0332719
0.0432849
0.0419562
0.0402803
0.0416983
0.0420972
0.0478094
0.060517
0.0880728
5.28064e-20
0.0224223
0.0395515
0.0427168
0.0437605
0.0461081
0.0577134
0.093838
0.123779
0.149846
5.28064e-20
5.28648e-20
0.0221473
0.0503767
0.0640109
0.0834548
0.155925
0.258579
0.297639
0.272806
5.28064e-20
5.28729e-20
0.0236739
0.0987855
0.166664
0.292617
0.424297
0.464882
0.441458
0.34952
5.28064e-20
5.29014e-20
0.0190072
0.10601
0.246945
0.41021
0.474275
0.415124
0.345381
0.151264
5.28064e-20
5.28698e-20
0.00099443
0.0113643
0.0524414
0.180346
0.333383
0.372075
0.362626
0.232625
5.28064e-20
5.28475e-20
5.28762e-20
1.25851e-19
0.00206508
0.0194534
0.11612
0.291149
0.428942
0.465506
5.28064e-20
5.27347e-20
5.28895e-20
5.54148e-20
0.00517912
0.0207121
0.0518136
0.174121
0.3309
0.506482
5.28064e-20
5.28438e-20
1.13231e-09
0.0197402
0.0342135
0.0443196
0.0509854
0.0746879
0.142892
0.291774
5.28064e-20
6.16215e-13
0.0478647
0.0617816
0.0596721
0.0538149
0.0496939
0.0526354
0.0710742
0.137848
5.28064e-20
0.0417943
0.0597486
0.0649392
0.0624367
0.04949
0.0404783
0.033816
0.040092
0.0702161
3.05326e-18
0.0440578
0.0591351
0.0647388
0.0643838
0.0481367
0.0315866
0.0331987
0.0366245
0.0544135
0.152645
0.038085
0.0489306
0.0554319
0.0587543
0.052374
0.0386169
0.0231294
0.00775752
0.00266605
0.0582894
0.019614
0.0341094
0.0408406
0.0444525
0.0425767
0.0347085
0.0239589
0.012155
0.00173038
0.0351009
0.0118449
0.0228306
0.0310101
0.0364098
0.0378176
0.0326773
0.0245393
0.0135282
0.00311067
0.00932976
0.00202068
0.00453753
0.00731099
0.00857536
0.00870203
0.00701191
0.0048838
0.0024821
0.000647214
0.00899931
0.0041085
0.00815393
0.00987412
0.0104049
0.00919835
0.0075537
0.00490098
0.0025357
0.000628354
0.0322292
0.0139043
0.0226048
0.0291409
0.0340359
0.0349781
0.0298445
0.0216708
0.0120632
0.00299297
0.0632479
0.0238973
0.0467568
0.0543927
0.056336
0.0461829
0.0314497
0.0207971
0.0108914
0.00397001
0.18824
0.0389932
0.0465199
0.0508143
0.0492377
0.0414901
0.0311389
0.0439276
0.0675788
0.0823833
2.78374e-18
0.0333765
0.0433086
0.0419365
0.0402578
0.041693
0.0421035
0.0478305
0.0606357
0.0882859
5.28064e-20
0.0223626
0.0395298
0.0427361
0.0437638
0.0460874
0.0576965
0.0937721
0.123436
0.149487
5.28064e-20
5.28558e-20
0.022016
0.0502822
0.063827
0.0832618
0.155611
0.25731
0.294967
0.269594
5.28064e-20
5.28743e-20
0.0238887
0.0984642
0.165532
0.290822
0.420264
0.458305
0.434449
0.34269
5.28064e-20
5.29025e-20
0.0190006
0.105783
0.246152
0.408439
0.468928
0.408039
0.338169
0.146943
5.28064e-20
5.28694e-20
0.000743812
0.0108845
0.0526064
0.181809
0.33358
0.369251
0.358176
0.228006
5.28064e-20
5.28586e-20
5.2882e-20
5.28691e-20
0.00182945
0.0185658
0.115235
0.290745
0.426871
0.461587
5.28064e-20
5.2738e-20
5.29004e-20
5.74086e-20
0.00513311
0.0203937
0.0505884
0.171721
0.329086
0.504591
5.28064e-20
5.2844e-20
8.62225e-10
0.020948
0.0353247
0.0447823
0.0512463
0.0745567
0.142434
0.291147
5.28064e-20
2.12385e-11
0.0476789
0.0616213
0.0595678
0.0538138
0.04981
0.0527801
0.0712836
0.138074
5.28064e-20
0.0417727
0.0596308
0.0648849
0.0624355
0.0496064
0.0405766
0.0339399
0.0402639
0.0704011
2.02179e-18
0.0439682
0.0590703
0.0647491
0.0644589
0.048313
0.0317118
0.0333332
0.0367889
0.0546571
0.152189
0.0379656
0.0489218
0.0555232
0.0589081
0.0526408
0.0388848
0.0233902
0.00784192
0.00265677
0.0580133
0.0194866
0.0340229
0.0408072
0.0444228
0.0425703
0.0346788
0.0239329
0.0121544
0.00172977
0.0350203
0.0118933
0.0228025
0.0309926
0.0364033
0.0378041
0.032641
0.0244777
0.0134735
0.00308778
0.00933879
0.00202341
0.00454003
0.00731184
0.00857554
0.00870243
0.00701173
0.00488296
0.0024828
0.000647103
)
;
    }
    outlet
    {
        type            inletOutlet;
        inletValue      uniform 0.00015;
        value           nonuniform List<scalar> 
100
(
0.00015
0.00015
0.00015
0.00015
0.00015
0.00015
0.00015
0.00015
0.00015
0.00015
0.00015
0.00015
0.00015
0.00015
0.00015
0.0230904
0.0134954
0.0114285
0.0134806
0.023025
0.0257754
0.0126119
0.00943484
0.0126291
0.0258191
0.0502994
0.0212688
0.0141132
0.0212371
0.0502039
0.0999463
0.0368317
0.0221304
0.0365368
0.0989371
0.134683
0.0467769
0.0266547
0.0460778
0.132323
0.0594686
0.0240624
0.0163031
0.0235783
0.0580051
0.100793
0.0333306
0.0196605
0.0328275
0.0992879
0.203062
0.0579853
0.0285282
0.057564
0.201881
0.218653
0.0580195
0.0226877
0.0578064
0.218081
0.109834
0.0345702
0.0159086
0.0345908
0.1095
0.0412893
0.0183979
0.0118105
0.018447
0.0411898
0.0155569
0.00993097
0.00801694
0.00993893
0.0155159
0.0076743
0.00789357
0.00768776
0.00789596
0.00767008
0.00015
0.00015
0.00015
0.00015
0.00015
0.00015
0.00015
0.00015
0.00015
0.00015
0.00015
0.00015
0.00015
0.00015
0.00015
0.00015
0.00015
0.00015
0.00015
0.00015
)
;
    }
}


// ************************************************************************* //
