/*--------------------------------*- C++ -*----------------------------------*\
| =========                 |                                                 |
| \\      /  F ield         | OpenFOAM: The Open Source CFD Toolbox           |
|  \\    /   O peration     | Version:  2.3.0                                 |
|   \\  /    A nd           | Web:      www.OpenFOAM.org                      |
|    \\/     M anipulation  |                                                 |
\*---------------------------------------------------------------------------*/
FoamFile
{
    version     2.0;
    format      ascii;
    class       volScalarField;
    location    "0.39";
    object      epsilon.air;
}
// * * * * * * * * * * * * * * * * * * * * * * * * * * * * * * * * * * * * * //

dimensions      [0 2 -3 0 0 0 0];

internalField   nonuniform List<scalar> 
6000
(
118.583
19.6592
11.7231
11.0407
11.0159
10.5062
10.5228
10.8549
10.8082
10.3622
10.0331
9.88097
9.78098
9.62192
9.47403
9.50119
9.66032
9.76128
9.86053
10.0761
10.5383
11.0821
10.6285
10.2299
10.2809
10.7115
10.895
11.6072
19.5486
118.722
60.3715
25.8281
17.4044
15.0017
13.6905
14.1896
14.8211
15.0936
14.4561
12.5543
11.7773
11.8659
12.1338
12.2707
12.1946
12.2191
12.1897
11.9948
11.7667
11.8672
13.0103
14.6134
14.4493
13.7821
13.2809
13.2717
14.5409
17.0001
25.6181
60.3166
35.622
22.034
16.1378
14.1067
13.2038
13.1873
13.5312
13.7595
13.4235
12.7211
12.7871
13.1772
12.9978
12.4453
12.1944
12.2514
12.615
13.059
12.9417
12.5111
12.7156
13.2848
13.2652
12.7883
12.487
12.694
13.6634
15.796
21.7689
34.939
32.2965
18.0123
14.2745
12.8558
12.2105
12.1292
12.3844
12.6753
12.7443
12.8556
13.0927
13.7322
13.7994
13.4041
12.9923
13.088
13.4337
13.6889
13.3322
12.7641
12.6778
12.4726
12.2642
11.8231
11.5767
11.745
12.4546
13.9337
17.6302
31.3741
32.3109
15.7541
12.8335
11.7466
11.2997
11.3181
11.6426
12.1104
12.6743
13.2565
13.4757
14.2386
14.7885
14.2197
13.8281
13.9303
14.3915
14.3892
13.7622
13.1806
12.9379
12.2251
11.6773
11.1669
10.867
10.912
11.4105
12.5266
15.3993
31.3798
29.4084
14.2212
11.6201
10.7913
10.5453
10.7267
11.2369
12.0254
13.1322
14.0233
14.0328
14.9553
15.2865
14.1873
13.7815
13.9008
14.6314
15.439
14.3728
13.7899
13.6901
12.475
11.4918
10.7749
10.333
10.2263
10.5101
11.3499
13.8962
28.5901
23.2741
12.6919
10.5668
9.98665
9.96793
10.3571
11.1476
12.319
14.1277
14.8403
14.8177
16.0197
15.0848
13.9063
13.4421
13.5915
14.3926
15.8902
15.3248
14.4716
14.6827
13.1378
11.6143
10.6117
9.95897
9.66833
9.73689
10.3073
12.3944
22.6728
18.2587
11.3534
9.67609
9.36143
9.57384
10.2054
11.301
12.8674
15.0876
15.2306
15.6716
16.5794
14.8721
13.6965
13.2181
13.3726
14.1696
15.6349
16.4282
15.1926
15.2285
13.8882
11.9377
10.645
9.75078
9.25277
9.10514
9.42601
11.087
17.6835
14.8992
10.1901
8.9886
8.93483
9.35956
10.2176
11.4799
13.2125
15.2926
15.3995
16.4425
16.3897
14.7584
13.6257
13.1553
13.3212
14.1432
15.6463
17.3035
16.0459
15.2469
14.2878
12.2044
10.7873
9.71162
9.00534
8.6614
8.74907
9.96267
14.4419
14.0308
9.68156
8.6598
8.75582
9.32984
10.2942
11.5799
13.3118
15.0717
15.7531
17.1639
16.571
14.8832
13.7422
13.265
13.4468
14.3077
15.8825
17.7058
16.975
15.3593
14.3375
12.3251
10.925
9.78494
8.96024
8.47912
8.43956
9.51653
13.7595
14.5879
9.81856
8.7393
8.82954
9.44288
10.4598
11.7346
13.5994
15.1279
16.3187
17.8919
17.1292
15.3089
14.105
13.6065
13.8083
14.7281
16.3532
18.197
17.8351
15.8311
14.4537
12.6591
11.1269
9.98496
9.0998
8.58623
8.55526
9.74053
14.4888
16.8249
10.5053
9.19083
9.13833
9.72214
10.7378
12.0945
13.9485
15.389
16.9846
18.6933
17.8096
15.9874
14.7526
14.2299
14.4453
15.3941
16.9524
18.721
18.5822
16.554
14.7581
13.2368
11.5481
10.3753
9.4814
8.9917
9.12498
10.5817
16.9279
20.0752
11.4355
10.1909
9.78994
10.265
11.2841
12.7791
14.4966
16.1116
18.0977
19.7212
18.6141
16.9163
15.7042
15.154
15.3903
16.3658
17.809
19.676
19.7724
17.8238
15.6196
13.9403
12.251
10.9985
10.1541
9.78737
10.3318
11.3105
20.1215
22.9586
12.2119
11.3459
10.7379
11.1148
12.153
13.7733
15.5805
17.8686
20.2547
21.5939
19.8828
18.3628
17.1002
16.4804
16.7483
17.8231
19.2252
21.3162
22.1759
20.3619
17.7217
15.2028
13.3144
11.8804
11.0737
10.8923
11.4761
11.9886
23.0659
25.4968
13.2249
12.4342
12.1089
12.463
13.5958
15.332
18.0084
21.4293
24.1289
24.5976
21.5665
20.2236
18.7561
18.0347
18.3146
19.5163
21.1287
23.2104
25.9493
24.8915
21.8734
18.0671
15.1383
13.44
12.589
12.509
12.3928
13.1887
25.6785
27.873
14.6404
13.9211
14.2222
14.8406
16.0113
18.3406
22.675
27.3806
29.8203
27.4235
23.2661
21.6992
19.976
19.0662
19.3389
20.7021
22.6053
24.6566
29.645
31.5289
28.6996
23.4626
18.7272
16.3194
15.3727
14.8272
14.1461
14.7676
28.2101
30.3121
16.2257
15.8593
17.0452
18.1351
19.6888
23.3505
29.7358
35.3335
34.23
27.9054
24.4273
22.3019
20.0457
18.9233
19.1813
20.7587
23.245
25.5085
29.8709
36.4073
37.4747
31.4794
24.5858
20.77
19.253
17.9253
16.3486
16.2565
28.9307
31.8278
17.7234
17.9346
20.0391
21.9489
24.6531
29.9979
37.8102
39.6257
33.3537
27.7295
24.7966
21.876
19.5199
18.4278
18.6302
20.1204
22.8042
25.8167
29.1641
35.2792
41.7575
40.3178
32.3598
26.6829
23.7126
21.2342
18.6579
17.9094
29.5902
33.1748
19.3284
20.115
23.1334
26.4141
30.5338
36.5968
40.8245
37.7638
31.4808
27.1765
23.8755
20.9509
18.942
18.0112
18.1562
19.3846
21.6748
24.803
28.3219
33.0303
39.6767
43.3695
40.4333
33.9138
29.0339
24.7777
21.0458
19.6558
30.6911
34.7212
21.0971
22.5487
26.9238
32.2026
37.7161
40.1214
39.6243
35.9973
30.6577
26.3771
23.1164
20.5505
18.7564
17.8886
18.0118
19.0968
21.1387
23.938
27.5862
32.353
38.1236
42.1361
44.1433
42.9559
36.0728
29.0863
23.6479
21.4564
31.9965
35.9303
23.185
25.4443
31.801
40.8847
47.6548
42.0054
40.0986
36.331
31.2145
27.3933
23.8714
21.0896
19.2503
18.4041
18.5161
19.6158
21.7095
24.8376
28.8434
33.0181
38.7813
42.7376
45.8252
54.4293
45.2265
34.2082
26.3882
23.141
33.0331
37.219
24.3023
28.223
36.6215
48.2343
53.1075
44.1909
40.5539
36.4892
32.572
29.289
25.9558
23.1113
21.1628
20.2449
20.3605
21.5342
23.6784
26.8033
30.2827
33.9167
38.427
42.5295
46.449
56.3107
52.2826
38.5303
28.4724
23.8288
33.0533
40.2247
25.3473
29.8278
37.6417
49.9554
50.6007
43.7667
39.0108
35.4447
32.1791
28.9954
25.949
23.6528
22.1106
21.2875
21.3809
22.2906
23.973
26.4295
29.7072
33.0269
36.3595
39.8488
44.9073
52.5628
53.5929
39.5996
29.1067
23.5957
34.2515
41.4833
25.9564
29.8716
36.5022
47.6521
46.2432
40.6018
35.9326
32.5868
30.0346
27.3107
24.6498
22.5079
21.0482
20.3272
20.3702
21.1742
22.709
24.907
27.6175
30.3435
32.9168
36.3475
41.0216
47.325
50.7576
38.9846
28.4607
24.0582
36.8907
41.4935
26.1717
29.684
35.0906
44.8811
43.143
37.2309
32.6766
29.3909
26.876
24.5896
22.5084
20.8035
19.6197
19.0196
19.049
19.6906
20.917
22.6322
24.7207
26.9905
29.493
32.7138
37.0894
42.8142
46.2972
37.1582
27.9643
24.6368
38.8896
41.3164
25.4123
28.2821
33.4488
42.253
41.1802
34.7957
30.0829
26.7316
24.2164
22.1481
20.3966
19.0068
18.0409
17.5542
17.5654
18.0743
19.0466
20.431
22.1556
24.1829
26.6172
29.8113
34.138
40.1011
43.7978
35.0105
27.3576
24.3865
40.1227
41.0758
24.4109
26.7229
31.8163
39.4238
40.2487
33.3324
28.1819
24.6134
22.0434
20.0602
18.4919
17.2938
16.4802
16.0679
16.0701
16.481
17.2848
18.4532
19.971
21.8596
24.2749
27.5236
32.053
38.5349
42.326
33.2317
26.1724
23.5887
39.9629
40.3156
23.4834
25.2783
30.2868
37.1402
40.4353
32.9567
26.9964
23.0394
20.3052
18.3195
16.8317
15.7462
15.0254
14.6629
14.6563
15.0025
15.693
16.728
18.123
19.9556
22.4025
25.8239
30.7563
38.0379
41.1019
31.7067
25.0519
22.7481
39.1128
38.66
22.4896
23.9506
28.8365
35.2661
41.2531
33.4319
26.4632
21.9534
18.961
16.886
15.4127
14.3768
13.7096
13.375
13.362
13.6636
14.284
15.238
16.5782
18.4111
20.9697
24.6582
30.1542
38.2266
39.9359
30.3846
24.0343
21.8994
37.6097
35.6627
21.3611
22.6312
27.276
33.563
41.3803
34.461
26.4065
21.269
17.9431
15.7235
14.2068
13.1825
12.5359
12.2164
12.1952
12.4699
13.047
13.9651
15.2955
17.1934
19.9371
24.0235
30.2548
39.1582
38.7707
29.2183
23.1066
21.0359
35.9811
32.4998
20.3686
21.3385
25.6053
31.8715
40.7127
35.5847
26.5805
20.8543
17.1809
14.7805
13.1898
12.1441
11.5009
11.1823
11.1557
11.412
11.9706
12.8794
14.2432
16.2536
19.2612
23.8486
30.9072
40.6439
37.6024
28.0562
22.1731
20.156
34.2217
31.4686
19.4536
20.0295
23.9746
30.2003
39.4
36.9782
26.977
20.6357
16.6001
14.0124
12.3291
11.2467
10.5904
10.2674
10.2337
10.4816
11.0342
11.9568
13.3764
15.5278
18.8175
23.93
31.9017
42.0302
35.9618
26.7446
21.1735
19.2452
32.429
31.6442
18.0774
18.6135
22.4224
28.6685
38.0669
37.98
27.2921
20.4527
16.1293
13.3708
11.5985
10.4714
9.79589
9.46305
9.42353
9.66695
10.2234
11.1686
12.6522
14.9353
18.4779
23.9999
32.5934
41.9404
33.983
25.3443
20.1162
18.2903
30.4587
28.9423
16.4195
17.3289
21.0426
27.3854
37.0589
39.019
27.5118
20.283
15.7227
12.8256
10.9724
9.80297
9.10474
8.76119
8.7152
8.95777
9.52104
10.4922
12.0324
14.4269
18.1511
23.9678
32.9584
41.2057
32.1201
24.0004
19.0804
17.3749
28.8245
25.1014
14.758
16.1499
20.0079
26.3559
36.1065
39.2421
27.55
20.0819
15.3603
12.3531
10.4339
9.22543
8.50634
8.15093
8.09991
8.34193
8.91436
9.90864
11.4992
13.9815
17.8593
23.9378
33.431
40.165
30.4831
22.749
18.0863
16.5492
27.659
21.6965
13.1726
14.9059
19.0404
25.3462
35.0503
38.8996
27.381
19.8266
15.0129
11.9342
9.96539
8.72658
7.98886
7.62363
7.56768
7.81097
8.39174
9.40805
11.0401
13.5972
17.596
23.8817
33.7125
39.0805
29.0498
21.5708
17.0958
15.7861
27.0173
19.342
11.8388
13.638
17.8908
24.2033
33.7409
37.6317
26.8296
19.4307
14.6435
11.5452
9.5524
8.29351
7.54297
7.16955
7.11082
7.35563
7.94554
8.98113
10.65
13.2678
17.3691
23.8158
33.9093
37.7765
27.6453
20.408
16.1243
14.9686
26.4492
17.4515
10.7476
12.5301
16.7345
23.0355
32.4258
35.8481
25.8505
18.8703
14.2276
11.1711
9.18177
7.91679
7.15886
6.78108
6.72076
6.96878
7.56749
8.62155
10.3205
12.9866
17.1509
23.665
33.7244
36.2337
26.1894
19.2295
15.1564
14.118
25.2536
15.8554
9.85271
11.6169
15.7532
22.0886
31.2829
33.8416
24.7561
18.2298
13.7907
10.8131
8.84959
7.58887
6.82962
6.44999
6.39049
6.64248
7.25079
8.32107
10.0444
12.7407
16.9235
23.4033
33.3022
34.431
24.6189
17.9823
14.1307
13.1344
23.283
14.476
9.10192
10.8285
14.889
21.2836
30.2199
32.1417
23.7536
17.6379
13.3859
10.4917
8.55878
7.30699
6.54921
6.17016
6.11264
6.37006
6.98778
8.0724
9.8123
12.5188
16.6667
23.006
32.4726
32.3832
22.9132
16.6441
13.0125
11.9002
20.7395
13.3028
8.43381
10.0564
13.9474
20.2469
28.6665
30.5368
22.9701
17.1721
13.061
10.2268
8.31534
7.06996
6.3135
5.93571
5.88097
6.1443
6.77101
7.86713
9.61505
12.3084
16.3831
22.4928
31.3781
30.1108
21.0684
15.2205
11.7793
10.5233
18.0984
12.2515
7.7964
9.23504
12.8155
18.796
26.7465
29.2055
22.4259
16.8577
12.831
10.025
8.1207
6.87571
6.11834
5.74082
5.68918
5.9579
6.5922
7.69415
9.43899
12.097
16.0582
21.8696
29.8844
27.5829
19.0987
13.7117
10.4411
9.17451
15.7346
11.2351
7.1956
8.39234
11.5324
16.8422
24.198
27.62
21.9609
16.6215
12.665
9.87135
7.96654
6.718
5.95803
5.57981
5.52994
5.80296
6.44128
7.54212
9.26818
11.8629
15.6667
21.1378
28.0906
24.6565
16.9876
12.1049
9.0952
7.96792
13.7405
11.0178
6.85853
7.67815
10.2083
14.4664
21.3051
25.9762
21.3632
16.335
12.4846
9.72746
7.83315
6.58491
5.82361
5.44505
5.39617
5.67056
6.3086
7.39893
9.08885
11.5858
15.1753
20.2334
25.787
21.5075
14.787
10.4669
7.8494
6.93057
12.1264
11.9667
6.57515
7.02797
9.05331
12.7537
18.5979
23.8764
20.5368
15.8609
12.2139
9.55299
7.69613
6.46181
5.70402
5.32698
5.27842
5.55182
6.18283
7.25259
8.88672
11.2566
14.5764
19.1289
23.0309
18.2319
12.5692
8.92868
6.76134
6.05116
10.7982
12.2765
6.49484
6.67877
8.40635
11.5024
16.2475
21.6231
19.628
15.2564
11.86
9.33145
7.54051
6.33376
5.58818
5.21439
5.1661
5.43395
6.05117
7.08554
8.64386
10.8501
13.8422
17.7171
19.7467
14.9718
10.4762
7.57479
5.86255
5.33201
9.58507
11.6775
6.16997
6.25297
7.69105
10.2671
14.2829
19.3361
18.9032
14.73
11.4711
9.06819
7.35351
6.18932
5.46256
5.09647
5.04615
5.30406
5.89407
6.87358
8.31846
10.3095
12.8959
15.8612
16.1693
12.0659
8.68943
6.46131
5.17358
4.8262
8.5516
10.9578
5.72733
5.74978
6.95575
9.1233
12.4858
16.8847
17.8975
14.0858
10.9936
8.73697
7.12056
6.01184
5.31444
4.95802
4.90521
5.14373
5.69035
6.57992
7.85462
9.52383
11.6105
13.699
12.7678
9.78282
7.32206
5.65107
4.61708
4.41139
8.1384
10.3064
5.34365
5.29836
6.3038
8.11828
10.8592
14.4713
16.1254
13.0801
10.3121
8.28723
6.80765
5.77875
5.11898
4.77632
4.71745
4.92725
5.40307
6.16079
7.20394
8.51227
10.1008
11.0834
10.2953
8.31085
6.4508
5.11541
4.40795
4.44888
8.44545
9.86956
5.04191
4.92607
5.76939
7.28565
9.5122
12.3467
13.7912
11.7676
9.4126
7.65788
6.35996
5.44039
4.83962
4.51973
4.45502
4.62327
5.0121
5.62974
6.47253
7.51563
8.46143
9.14763
9.03735
7.57632
5.97925
4.80632
4.18119
4.37384
8.60083
9.55896
4.79862
4.62357
5.33257
6.6295
8.51517
10.835
11.875
10.3002
8.44139
6.96253
5.84842
5.04824
4.51939
4.23227
4.16393
4.29218
4.60758
5.11722
5.80823
6.56251
7.2438
8.23896
8.71922
7.3527
5.71699
4.572
3.94741
4.11248
8.16006
9.29503
4.57924
4.35673
4.97208
6.11861
7.82222
9.90311
10.6947
9.15691
7.57192
6.33677
5.38754
4.69871
4.23817
3.98294
3.9135
4.01074
4.26646
4.68463
5.23922
5.81931
6.54379
7.8433
8.6869
7.32825
5.55497
4.3851
3.75355
3.88021
7.78298
9.01812
4.37052
4.10449
4.65221
5.70612
7.29555
9.29082
9.98742
8.38926
6.91555
5.84721
5.03097
4.43667
4.03514
3.80749
3.74199
3.81935
4.02632
4.36602
4.80829
5.30873
6.0898
7.39842
8.45435
7.25187
5.40308
4.22024
3.59226
3.71718
7.51501
8.70671
4.15728
3.86455
4.35685
5.33287
6.825
8.75983
9.40687
7.7956
6.40171
5.4569
4.75627
4.24567
3.89977
3.70463
3.64541
3.70454
3.86573
4.12635
4.46458
4.91174
5.64141
6.72035
7.86386
6.98393
5.20665
4.04211
3.43039
3.55307
7.24511
8.32367
3.93107
3.62854
4.06923
4.96149
6.33502
8.16464
8.76554
7.20556
5.92253
5.08511
4.49802
4.07403
3.78867
3.6307
3.57427
3.60826
3.71706
3.89279
4.1382
4.51958
5.11298
5.98865
7.0565
6.51194
4.92906
3.8321
3.25551
3.37084
6.92685
7.87235
3.69851
3.3951
3.78421
4.58471
5.81295
7.46385
8.01264
6.56948
5.42939
4.69351
4.20985
3.87166
3.64648
3.51902
3.46495
3.47025
3.52531
3.62757
3.80154
4.10781
4.58757
5.30707
6.20561
5.8778
4.58472
3.60247
3.07909
3.19453
6.61357
7.39933
3.47081
3.169
3.50655
4.21235
5.28519
6.71769
7.2112
5.91687
4.92335
4.2844
3.88093
3.6119
3.43491
3.33141
3.27918
3.26388
3.28514
3.34209
3.46799
3.71927
4.12061
4.7
5.37189
5.15909
4.22288
3.38401
2.92053
3.04079
6.32489
6.96518
3.26106
2.95861
3.24456
3.85876
4.78324
5.99392
6.41444
5.26811
4.41745
3.86655
3.52205
3.29931
3.15426
3.0672
3.01834
2.99987
3.01233
3.05114
3.15064
3.36571
3.70987
4.17827
4.64446
4.44754
3.86558
3.19896
2.79374
2.90409
6.08907
6.60548
3.08332
2.77154
3.00272
3.52747
4.32015
5.33973
5.66603
4.65665
3.93494
3.45835
3.15658
2.96324
2.83737
2.761
2.71907
2.70843
2.72477
2.76192
2.85101
3.04183
3.34963
3.7531
4.02204
3.80752
3.45938
3.03567
2.71102
2.77905
5.82681
6.32941
2.9452
2.61372
2.78208
3.21158
3.87498
4.72121
4.9655
4.11846
3.50217
3.08603
2.81916
2.64842
2.53745
2.46955
2.43408
2.42788
2.44536
2.48527
2.57536
2.75758
3.05169
3.39821
3.48655
3.27654
3.03074
2.83827
2.67221
2.69228
5.48683
6.14642
2.85582
2.49157
2.58688
2.90954
3.42709
4.08063
4.27225
3.64565
3.12603
2.76526
2.53162
2.3817
2.28476
2.22409
2.19197
2.18471
2.19979
2.24286
2.33713
2.51692
2.79976
3.05734
3.02442
2.83403
2.65579
2.57304
2.59801
2.59912
5.09518
6.10923
2.81964
2.41052
2.42627
2.63663
2.99616
3.4399
3.61011
3.21831
2.79346
2.48805
2.28663
2.15765
2.07435
2.02113
1.99194
1.9836
1.9966
2.0411
2.1362
2.3064
2.55515
2.70254
2.61142
2.45828
2.35023
2.33532
2.40581
2.52867
4.86178
6.15739
2.8415
2.3693
2.30627
2.41068
2.62383
2.88919
3.04738
2.83412
2.49651
2.24131
2.07064
1.9618
1.89256
1.84798
1.82294
1.81447
1.8263
1.86882
1.95652
2.10436
2.29047
2.33622
2.24104
2.15044
2.11617
2.13869
2.16767
2.32156
4.48337
6.03919
2.86744
2.36648
2.21983
2.22745
2.31627
2.44782
2.56277
2.47067
2.22423
2.01696
1.87492
1.7846
1.72755
1.69131
1.67133
1.66443
1.67516
1.71278
1.78628
1.90047
2.01011
1.99742
1.9379
1.92252
1.93681
1.91922
1.91607
2.06033
4.19539
5.34674
2.85516
2.449
2.17355
2.0712
2.05448
2.09198
2.14003
2.10511
1.96018
1.80623
1.69249
1.61765
1.56986
1.54013
1.5246
1.52048
1.53064
1.56225
1.61955
1.69712
1.74395
1.72334
1.71749
1.75969
1.75928
1.69444
1.6735
1.82636
3.85683
4.49489
2.80386
2.64257
2.18133
1.93498
1.83846
1.81875
1.8166
1.78273
1.70347
1.60342
1.5181
1.45602
1.4144
1.38859
1.37562
1.37354
1.38419
1.41149
1.45443
1.49999
1.51809
1.5212
1.55427
1.59266
1.56029
1.49423
1.46715
1.62586
3.46226
4.10226
2.71022
2.74234
2.21295
1.82934
1.6771
1.62032
1.59193
1.5465
1.48246
1.41668
1.35485
1.30281
1.26499
1.24074
1.22809
1.22645
1.23762
1.26226
1.29467
1.32282
1.34116
1.36941
1.40706
1.41205
1.38258
1.33252
1.30763
1.46037
3.101
4.09671
2.64015
2.58429
2.21041
1.74884
1.56471
1.48569
1.43887
1.38017
1.31505
1.25968
1.21137
1.16693
1.13163
1.10758
1.09412
1.09176
1.10207
1.12375
1.15039
1.17623
1.2044
1.24855
1.26522
1.26327
1.24416
1.20776
1.18479
1.33262
2.88893
4.52848
2.65736
2.2712
2.11243
1.67369
1.48058
1.39437
1.33993
1.26478
1.19004
1.13408
1.09019
1.05054
1.01778
0.99395
0.979751
0.976208
0.984292
1.00235
1.02642
1.0553
1.0982
1.15239
1.15994
1.16188
1.13784
1.10998
1.09111
1.25231
2.86732
5.01118
2.723
2.09321
1.97517
1.61624
1.40966
1.32205
1.27486
1.19654
1.10906
1.03884
0.989839
0.950033
0.917891
0.894062
0.879357
0.874722
0.880687
0.896352
0.920487
0.956682
1.01964
1.06963
1.09665
1.08756
1.05097
1.02894
1.02398
1.22671
3.05543
4.86523
2.70671
2.04293
1.9283
1.58728
1.34818
1.25922
1.22183
1.15478
1.06462
0.978583
0.914223
0.868089
0.833494
0.808123
0.792352
0.786751
0.791827
0.807634
0.835295
0.884657
0.956887
1.00784
1.05173
1.02126
0.978733
0.96315
0.974846
1.21617
3.36279
4.49705
2.58115
1.97313
1.92317
1.58708
1.29553
1.20243
1.16744
1.11495
1.03012
0.941052
0.866506
0.810303
0.769924
0.741535
0.72394
0.717438
0.722647
0.740226
0.773966
0.832414
0.893388
0.968345
1.00461
0.962732
0.925428
0.915967
0.937551
1.21209
3.38525
4.60073
2.32556
1.82795
1.85241
1.61467
1.26165
1.15756
1.11144
1.07101
0.996633
0.907373
0.831704
0.772372
0.727151
0.695627
0.676225
0.668993
0.674551
0.693807
0.730751
0.780991
0.842871
0.93251
0.954665
0.915019
0.893868
0.893954
0.93478
1.2718
3.11506
4.73393
2.14307
1.73651
1.6737
1.63098
1.2698
1.14212
1.07715
1.03397
0.97021
0.881954
0.800973
0.739839
0.694427
0.661774
0.64138
0.633422
0.638377
0.656974
0.689248
0.731484
0.797182
0.88787
0.910089
0.885836
0.881685
0.884447
0.955618
1.34783
2.6513
4.5247
1.99957
1.66337
1.54308
1.57204
1.32962
1.17688
1.08912
1.02413
0.960499
0.872231
0.782773
0.714132
0.665053
0.630792
0.609274
0.600104
0.60326
0.619568
0.647367
0.68749
0.751589
0.837793
0.876363
0.876786
0.874859
0.864696
0.953846
1.26028
2.34222
4.01303
1.82833
1.5621
1.47219
1.45873
1.38573
1.29722
1.17496
1.0573
0.970708
0.878589
0.780444
0.700867
0.644393
0.60594
0.581917
0.570769
0.571824
0.585554
0.609996
0.648214
0.710727
0.79247
0.85605
0.879935
0.866168
0.838597
0.916453
1.09789
2.18861
3.58639
1.67864
1.47739
1.44542
1.43559
1.40944
1.49794
1.39032
1.17235
1.01836
0.904546
0.790451
0.698946
0.632661
0.588265
0.5606
0.546825
0.545604
0.556757
0.578485
0.615135
0.675162
0.757084
0.849009
0.889473
0.856127
0.816099
0.878625
1.02003
2.1374
3.39989
1.59994
1.44118
1.45006
1.4494
1.44734
1.62042
1.63303
1.39643
1.12747
0.955979
0.815458
0.704194
0.627258
0.575982
0.544071
0.527409
0.523992
0.533066
0.553014
0.588624
0.645878
0.734239
0.85032
0.89921
0.843983
0.793999
0.83348
0.964357
2.04958
3.32224
1.54839
1.41696
1.43801
1.42978
1.44676
1.64672
1.73616
1.65431
1.29187
1.02581
0.848485
0.715623
0.626028
0.567426
0.531179
0.511706
0.506248
0.513448
0.532436
0.567537
0.623993
0.724416
0.85503
0.90445
0.83276
0.775413
0.781247
0.90624
1.82437
3.133
1.4623
1.34378
1.349
1.34372
1.40334
1.6318
1.732
1.73153
1.47142
1.11351
0.884755
0.728404
0.626318
0.560994
0.520796
0.498779
0.491471
0.496583
0.51419
0.548828
0.607057
0.714067
0.854845
0.901807
0.824498
0.763338
0.750774
0.864721
1.56895
2.62999
1.29821
1.16052
1.15748
1.19533
1.31293
1.58432
1.6847
1.67146
1.58824
1.22301
0.927228
0.742621
0.627317
0.555827
0.512174
0.487913
0.479016
0.482101
0.497925
0.531952
0.59292
0.696198
0.844688
0.890539
0.813215
0.75119
0.734519
0.840162
1.47561
1.98153
1.10142
0.968115
0.986096
1.06472
1.21958
1.50359
1.59349
1.55198
1.54678
1.32184
0.978108
0.758897
0.629476
0.551863
0.505168
0.479036
0.468733
0.470759
0.486032
0.519074
0.582331
0.673498
0.816177
0.864114
0.793644
0.732588
0.71926
0.822088
1.47657
1.59836
0.945622
0.840405
0.873816
0.972456
1.13917
1.40541
1.48363
1.43118
1.40846
1.29757
1.00976
0.772967
0.631941
0.548961
0.499695
0.472074
0.461084
0.461483
0.476694
0.510625
0.569065
0.644621
0.769992
0.822556
0.765947
0.712798
0.70524
0.816288
1.51899
1.46954
0.857807
0.77043
0.808764
0.908851
1.06627
1.2933
1.36771
1.31468
1.26901
1.18417
0.990408
0.774111
0.632065
0.546349
0.495205
0.466925
0.455013
0.453895
0.468018
0.501275
0.549649
0.613445
0.717881
0.770758
0.730831
0.693836
0.69778
0.820231
1.59404
1.46913
0.824332
0.738002
0.772629
0.861472
0.992506
1.16425
1.25013
1.20717
1.15216
1.06511
0.925943
0.756056
0.62648
0.542631
0.491628
0.463951
0.449774
0.448345
0.460918
0.489306
0.531185
0.584754
0.668443
0.714069
0.690537
0.674927
0.698384
0.835422
1.68588
1.54683
0.825023
0.72922
0.753162
0.824321
0.922427
1.03846
1.12742
1.10655
1.05607
0.969868
0.848517
0.715111
0.609816
0.536
0.4888
0.461233
0.445633
0.444398
0.456202
0.481236
0.517361
0.56106
0.621824
0.655933
0.649496
0.65897
0.70632
0.86955
1.8271
1.70673
0.841551
0.731414
0.743037
0.796913
0.868105
0.936156
0.997994
1.00626
0.968531
0.887238
0.77959
0.669431
0.584835
0.525586
0.484681
0.456455
0.441514
0.440982
0.452935
0.476623
0.508831
0.543574
0.579536
0.602308
0.614825
0.650935
0.729906
0.944296
2.06631
1.85794
0.869259
0.740044
0.736722
0.775617
0.828593
0.860846
0.880395
0.903763
0.880198
0.80923
0.714557
0.622351
0.554567
0.509326
0.476192
0.449451
0.435337
0.434719
0.446461
0.469043
0.499098
0.527746
0.545603
0.560589
0.59083
0.651506
0.764211
1.03757
2.36806
1.99223
0.898617
0.748812
0.728104
0.752845
0.790236
0.796675
0.793801
0.80372
0.786174
0.728845
0.650489
0.576741
0.522693
0.486998
0.460957
0.43809
0.424721
0.42315
0.433375
0.454223
0.482169
0.508176
0.521566
0.535221
0.575247
0.655819
0.799429
1.12125
2.64225
2.13863
0.943186
0.766631
0.720473
0.72034
0.741906
0.732482
0.720714
0.715098
0.693354
0.64915
0.589824
0.535275
0.493809
0.464636
0.443226
0.425355
0.413905
0.411452
0.419969
0.438902
0.46522
0.492646
0.516719
0.530137
0.571545
0.66532
0.841341
1.21394
2.94376
2.42811
1.03853
0.81296
0.727357
0.697979
0.699717
0.677327
0.654328
0.637928
0.614796
0.582155
0.540517
0.502652
0.473396
0.452322
0.436158
0.421581
0.410595
0.407199
0.414233
0.431994
0.459183
0.494311
0.530852
0.544905
0.583367
0.680694
0.880944
1.35391
3.63283
3.23422
1.26407
0.902608
0.761949
0.710403
0.704467
0.661292
0.618125
0.592184
0.567762
0.540139
0.509732
0.48263
0.46365
0.451748
0.439795
0.425772
0.41427
0.410947
0.417313
0.434973
0.466137
0.515545
0.573998
0.591928
0.624682
0.712379
0.915496
1.44986
4.58901
4.58303
1.46001
0.975635
0.809412
0.750882
0.742261
0.685199
0.621626
0.580814
0.549011
0.519575
0.493854
0.472168
0.458555
0.453038
0.446707
0.434835
0.425364
0.424701
0.433372
0.454705
0.496409
0.57299
0.642232
0.659836
0.704362
0.803302
1.02756
1.7223
6.62114
6.73352
1.81733
1.09303
0.884034
0.804466
0.791562
0.755642
0.655464
0.591435
0.548588
0.512654
0.486198
0.466421
0.452511
0.449545
0.446696
0.440539
0.44089
0.45049
0.468776
0.502599
0.566508
0.667448
0.723941
0.767118
0.845021
1.03422
1.44142
2.49848
6.84684
6.88206
2.57459
1.45362
1.04754
0.911281
0.8762
0.859135
0.741691
0.634106
0.564643
0.518376
0.486718
0.463582
0.446951
0.441378
0.441911
0.443991
0.456982
0.482276
0.518782
0.58065
0.68543
0.800893
0.8589
0.934876
1.08606
1.35895
1.8609
2.60938
6.23927
6.22934
2.58908
1.79619
1.29006
1.09223
1.02603
1.00054
0.875086
0.721108
0.608834
0.538272
0.494131
0.465617
0.445855
0.437528
0.439175
0.449644
0.476438
0.516297
0.577708
0.687272
0.84456
0.974282
1.02833
1.08154
1.1782
1.37078
1.77172
2.43552
5.34436
5.36926
2.35791
1.66211
1.29137
1.16794
1.14563
1.12909
0.997123
0.811457
0.666171
0.569794
0.510186
0.472759
0.448875
0.440117
0.443288
0.460638
0.496813
0.549464
0.634381
0.780894
0.966636
1.09698
1.12125
1.12289
1.1686
1.30259
1.5931
2.17249
4.86199
4.88314
2.06052
1.48879
1.22252
1.13959
1.15191
1.15471
1.04009
0.857394
0.704142
0.596064
0.526725
0.483853
0.458374
0.44977
0.455731
0.476129
0.516685
0.577134
0.670452
0.816632
0.987488
1.0953
1.09995
1.08574
1.13277
1.26864
1.49177
1.97205
4.59162
4.61652
1.85406
1.43732
1.15743
1.04664
1.06622
1.0891
1.00551
0.848092
0.705426
0.60415
0.536801
0.495371
0.473226
0.467082
0.474455
0.494224
0.532589
0.589126
0.673906
0.799914
0.937947
1.00986
0.997233
0.987697
1.05723
1.22723
1.48946
1.82551
4.47211
4.41954
1.7894
1.38619
1.05636
0.920688
0.91766
0.942129
0.902435
0.796084
0.683842
0.597646
0.537801
0.50312
0.488649
0.487591
0.494627
0.510019
0.538699
0.586336
0.657004
0.747387
0.834527
0.872165
0.861978
0.868081
0.94632
1.13301
1.47265
1.81622
4.33996
4.02266
1.80457
1.26235
0.924481
0.797231
0.782695
0.796416
0.779403
0.718955
0.645099
0.582582
0.535684
0.508149
0.500378
0.505195
0.510934
0.518813
0.538238
0.575107
0.625612
0.684191
0.733529
0.75157
0.747671
0.759717
0.828325
1.00216
1.37724
1.87767
4.03235
3.26943
1.76389
1.09625
0.787719
0.68912
0.677441
0.684972
0.67924
0.649432
0.606718
0.566962
0.535947
0.518442
0.51629
0.522904
0.525115
0.527967
0.539054
0.562286
0.593725
0.627592
0.652757
0.660512
0.658478
0.666262
0.712489
0.853532
1.20253
1.86027
3.37761
2.51596
1.54142
0.893328
0.659126
0.603023
0.601237
0.608443
0.608394
0.595209
0.5728
0.551824
0.538223
0.536274
0.545967
0.554666
0.551879
0.545918
0.543367
0.550191
0.564337
0.581295
0.5931
0.595317
0.591485
0.591228
0.611204
0.698998
0.978119
1.65625
2.63374
1.92576
1.1583
0.702202
0.565795
0.545495
0.550907
0.559379
0.561642
0.556215
0.545818
0.538436
0.53992
0.553559
0.580748
0.590393
0.58604
0.567103
0.547537
0.538767
0.539654
0.545964
0.550904
0.55054
0.545105
0.539385
0.540823
0.578419
0.750846
1.24447
2.04063
1.4845
0.872717
0.574975
0.514717
0.516369
0.525901
0.532598
0.534172
0.531713
0.528038
0.529563
0.540931
0.564633
0.593768
0.59693
0.596641
0.576969
0.547636
0.529818
0.522448
0.522304
0.524058
0.523487
0.51958
0.512508
0.5049
0.509095
0.592292
0.926063
1.57621
1.22669
0.694256
0.521106
0.504958
0.513829
0.523151
0.526342
0.524892
0.52212
0.52161
0.527967
0.544764
0.567709
0.589869
0.585569
0.586131
0.574716
0.548545
0.527114
0.514943
0.511644
0.512609
0.514327
0.514353
0.509939
0.50011
0.491722
0.515391
0.716995
1.27077
1.16126
0.633831
0.522865
0.516178
0.526535
0.534179
0.534189
0.529484
0.524805
0.524369
0.532663
0.552495
0.57274
0.579831
0.585337
0.580151
0.570765
0.551749
0.53126
0.516422
0.512491
0.514468
0.519062
0.522716
0.521246
0.51209
0.501111
0.510112
0.630282
1.16396
1.21703
0.646788
0.554198
0.554093
0.564371
0.567971
0.561834
0.550275
0.539939
0.535372
0.543953
0.564708
0.573518
0.581802
0.590778
0.585429
0.571516
0.559255
0.542545
0.526055
0.522583
0.529109
0.540061
0.550927
0.555347
0.549222
0.536569
0.536037
0.633487
1.19383
1.49035
0.716375
0.630855
0.622239
0.623876
0.620636
0.607791
0.587587
0.566959
0.550528
0.562655
0.573387
0.581665
0.593869
0.600807
0.597637
0.584501
0.570131
0.558628
0.543712
0.54155
0.558012
0.577762
0.596186
0.606996
0.60815
0.604176
0.608246
0.690221
1.41271
1.91041
0.871166
0.744801
0.707966
0.691672
0.677008
0.654827
0.624623
0.591861
0.567128
0.58067
0.592876
0.607274
0.616132
0.618436
0.61673
0.611034
0.598376
0.58129
0.56761
0.560806
0.586696
0.615286
0.641927
0.661126
0.674316
0.689912
0.723302
0.836158
1.83202
2.59225
1.14491
0.89658
0.801822
0.755459
0.725328
0.693745
0.655312
0.615594
0.592518
0.607682
0.628463
0.639729
0.640474
0.636515
0.636019
0.638496
0.634889
0.619309
0.596967
0.586806
0.61234
0.64732
0.680263
0.707652
0.736917
0.785621
0.881946
1.11883
2.51532
4.26116
1.55561
1.05357
0.884572
0.807963
0.764194
0.72656
0.684969
0.648626
0.634717
0.653237
0.667489
0.664161
0.654861
0.646214
0.646499
0.65494
0.662014
0.661625
0.643686
0.628778
0.645347
0.679094
0.714384
0.748029
0.792476
0.875114
1.05398
1.55483
4.16895
6.91213
1.94716
1.21981
0.997292
0.887862
0.821327
0.773054
0.731406
0.704745
0.700754
0.716984
0.70941
0.680766
0.660578
0.649802
0.650431
0.661856
0.681227
0.70771
0.71093
0.695688
0.701659
0.727141
0.763443
0.808064
0.874892
0.98834
1.21994
1.96473
6.884
9.8638
2.65556
1.6277
1.2836
1.07507
0.94587
0.86599
0.816142
0.792423
0.791666
0.795581
0.756
0.704636
0.672515
0.657871
0.659206
0.676158
0.709288
0.759915
0.796067
0.790809
0.791956
0.814571
0.86037
0.934542
1.05182
1.22742
1.55336
2.66858
10.5921
9.50371
4.17937
2.83427
2.11406
1.57943
1.24006
1.05312
0.961703
0.918799
0.901428
0.871845
0.801855
0.73401
0.690997
0.671409
0.673957
0.698381
0.745085
0.814899
0.884433
0.911926
0.927322
0.968392
1.05568
1.2277
1.48742
1.83918
2.34598
4.05259
10.4329
7.90433
4.33419
3.81828
3.72304
2.90232
1.93174
1.42235
1.19026
1.08968
1.02276
0.942808
0.843656
0.760166
0.706027
0.681481
0.685676
0.718843
0.78137
0.872247
0.976592
1.0573
1.12161
1.22164
1.45405
1.90509
2.5398
2.83572
3.03696
4.16875
8.87274
5.59142
3.94813
3.6987
4.03704
4.03735
3.22693
2.06827
1.50995
1.29345
1.15564
1.01915
0.887
0.783417
0.716801
0.68739
0.693807
0.737195
0.819718
0.940097
1.08653
1.23076
1.36869
1.61193
2.23473
2.98594
3.33104
3.13879
2.98159
3.81785
6.62052
3.72973
2.87432
3.13862
3.55866
3.77847
3.53994
2.68862
1.82087
1.49672
1.30763
1.11713
0.943422
0.812131
0.730038
0.695212
0.704664
0.760918
0.869531
1.03134
1.23083
1.43103
1.6284
2.12218
2.93716
3.2644
3.23712
2.9148
2.75722
3.15326
5.20654
2.42291
1.83773
2.46499
2.8556
3.04613
2.99481
2.53278
1.97743
1.6638
1.4788
1.23993
1.01342
0.846961
0.746293
0.705499
0.71854
0.789753
0.930692
1.14863
1.41972
1.64779
1.84143
2.28079