/*--------------------------------*- C++ -*----------------------------------*\
| =========                 |                                                 |
| \\      /  F ield         | OpenFOAM: The Open Source CFD Toolbox           |
|  \\    /   O peration     | Version:  2.3.0                                 |
|   \\  /    A nd           | Web:      www.OpenFOAM.org                      |
|    \\/     M anipulation  |                                                 |
\*---------------------------------------------------------------------------*/
FoamFile
{
    version     2.0;
    format      ascii;
    class       volScalarField;
    location    "0.39";
    object      rho;
}
// * * * * * * * * * * * * * * * * * * * * * * * * * * * * * * * * * * * * * //

dimensions      [1 -3 0 0 0 0 0];

internalField   nonuniform List<scalar> 
6000
(
1070.46
1070.29
1070.21
982.719
805.846
990.33
1020.33
1020.26
1116.29
1155.58
1177.16
1185.21
1185.29
1185.49
1185.59
1185.49
1185.29
1185.19
1181.04
1158.72
1111.41
1014.69
961.538
958.589
952.275
846.199
1004.41
1071.72
1071.86
1071.93
1070.51
1057.35
929.665
786.242
776.37
786.392
783.285
786.564
893.606
992.509
1024.79
1042.99
1075.02
1136.86
1185.77
1169.92
1091.4
1050.89
1017.1
1001.14
935.12
795.292
782.926
794.089
780.287
787.398
784.188
964.761
1061.74
1072.04
1070.68
898.435
786.288
777.585
786.201
777.213
786.375
779.781
794.886
1002.6
1103.54
1149.52
1185.59
1185.79
1185.84
1185.77
1185.57
1173.04
1112.85
1069.34
937.022
784.731
787.713
780.582
787.395
778.729
787.098
783.921
909.481
1072.12
1070.75
785.898
777.964
786.04
776.124
786.2
777.598
786.374
783.072
947.621
1134.21
1185.59
1185.79
1185.84
1186.03
1185.84
1185.77
1185.57
1176.69
1084.13
887.553
787.712
781.05
787.394
778.283
787
778.283
786.675
782.974
1072.25
881.998
780.845
785.854
776.283
786.027
776.303
786.2
779.279
786.374
909.524
1140.36
1185.5
1143.03
948.222
1026.58
982.803
1069.06
1185.48
1185.28
1086.16
852.401
784.322
787.394
779.691
787
778.019
786.69
779.274
786.291
879.245
785.51
785.681
778.049
785.854
776.283
786.027
778.397
786.2
784.501
916.495
1148.12
1185.31
872.62
795.625
790.263
795.625
792.219
1098.18
1185.17
1096.82
849.426
787.394
781.183
787.011
778.085
786.688
778.389
786.279
780.692
785.959
786.036
781.9
785.853
777.412
786.026
777.503
786.2
781.641
786.374
997.927
1158.01
1088.31
795.631
787.517
795.624
787.496
795.624
832.05
1184.96
1146.01
905.602
786.409
787.391
781.326
786.992
778.254
786.675
780.043
786.279
785.98
821.075
785.853
780.078
786.026
777.5
786.2
781.338
786.374
868.977
1159.31
1158.06
860.33
787.809
795.624
787.519
795.624
787.52
795.625
1078.85
1173.95
1077.07
801.817
784.354
787.39
779.509
786.992
780.193
786.675
783.421
822.255
893.043
784.542
786.026
779.413
786.2
779.149
786.374
785.717
1053.52
1222.04
1047.99
793.079
795.624
787.556
795.624
787.521
795.624
788.772
876.155
1174.43
1256.98
905.79
787.704
784.132
787.39
780.021
786.992
781.882
786.675
902.396
972.189
786.026
781.998
786.199
779.436
786.373
784.324
814.117
1174.47
1222.44
922.609
795.623
788.007
795.623
788.018
795.623
787.766
795.623
795.608
1093.44
1257.39
1013.23
787.733
787.704
781.471
787.39
781.743
786.992
786.149
988.158
1059.16
817.634
786.199
781.176
786.373
781.331
786.548
870.15
1145.88
1222.84
945.163
794.252
795.623
788.291
795.623
788.426
795.623
789.25
811.075
1124.4
1252.43
1010.28
814.15
786.564
787.704
782.083
787.39
784.454
804.797
1074.82
1154.5
915.873
785.159
786.373
781.755
786.548
786.216
920.407
1114.15
1264.53
1059.52
799.222
788.929
795.623
789.501
795.623
788.917
795.623
881.126
1213.55
1229.87
1048
868.988
788.106
783.604
787.704
784.527
787.39
905.378
1194.09
1251.49
1047.72
819.347
784.426
786.547
783.769
797.133
980.66
1169.16
1294.8
1174.17
825.78
795.623
790.496
795.623
790.82
795.623
790.997
944.446
1293.37
1266.75
1161.32
952.523
792.235
788.105
784.915
787.704
833.681
1101.73
1309.23
1318.59
1195.56
946.11
786.547
785.352
786.722
874.32
1105.7
1269.58
1324.88
1204.49
825.213
792.182
795.623
792.997
795.623
792.516
795.624
926.047
1317.23
1316.88
1282.81
1112.59
872.549
787.286
788.105
806.119
1034.4
1294.66
1364.78
1355.62
1302.86
1115.09
836.182
800.027
843.049
1046.87
1258.62
1326.82
1326.87
1136.9
799.912
795.623
794.518
795.623
794.703
795.623
794.387
854.938
1256.46
1331.98
1332.01
1274.96
1063.95
868.142
828.238
930.535
1280.71
1365.61
1366.23
1363.79
1351.42
1235.56
962.502
925.906
1032.55
1233.64
1326.92
1326.96
1302.29
965.112
799.629
808.436
855.824
886.291
879.317
844.637
802.504
809.38
1029.85
1305.06
1330.5
1330.6
1254.08
1073.99
983.942
1133.77
1344.27
1379.6
1342.61
1364.01
1368.08
1305.04
1112.51
1124.17
1234.52
1321.94
1321.64
1270.59
1078.79
861.894
831.585
928.671
1044.17
1096.86
1087.54
1022.63
906.525
833.473
875.225
1086.15
1266.63
1324.49
1328
1262.16
1181.7
1263.24
1365.94
1379.99
1268.43
1352.79
1368.09
1339.85
1243.58
1273.52
1327.51
1322.24
1223.92
1074.47
932.838
893.702
986.156
1146.85
1243.31
1275.01
1270.39
1230.37
1122
971.106
898.502
941.286
1072.63
1217.63
1328.08
1338.84
1308.07
1319.56
1374.02
1379.87
1263.47
1347.2
1368.86
1359.91
1329.53
1341.03
1342.22
1238.71
1073.16
1000.82
998.525
1068.79
1214.98
1305.74
1313.67
1314.34
1313.68
1314.01
1299.46
1199.92
1066.78
1000.61
1001.72
1073.19
1208.93
1344.98
1356.7
1360.1
1380.25
1380.39
1263.47
1348.81
1368.19
1368.59
1368.17
1368.2
1350.4
1112.18
1076.72
1041.29
1168.8
1304.63
1315.36
1313.69
1316.46
1313.69
1316.92
1313.69
1315.91
1313.66
1303.9
1147.87
1025.89
1055.93
1061.5
1315.41
1369.21
1380.23
1380.73
1380.08
1263.47
1363.8
1369.02
1368.24
1370.12
1365.14
1134.78
1128.72
1124.68
1129.29
1136.18
1231.92
1313.51
1316.93
1313.63
1316.96
1313.63
1316.94
1313.58
1307.12
1178.25
1085.75
1080.17
1074.37
1073.45
1007.06
1328.57
1380.58
1380.34
1380.43
1267.67
1314.16
1204.81
1369.93
1367.77
1134.73
690.439
1056.96
1124.01
1036.37
774.181
759.688
900.671
1043.32
1121.34
1142.65
1137.19
1089.6
991.785
803.694
678.049
720.513
1003.98
1073.4
993.642
591.52
1108.4
1366.88
1380.71
1354.07
1191.62
1072.55
833.742
1363.35
1287.46
785.087
492.524
606.412
734.984
595.762
491.234
484.005
491.139
508.942
537.433
546.825
544.542
522.178
497.918
484.543
490.78
481.927
595.225
752.948
576.196
483.936
742.801
1309.19
1379.64
1217.1
1107.93
932.263
818.914
1016.04
1055.41
690.674
489.143
491.323
480.744
491.226
480.512
491.124
481.471
491.039
483.417
490.943
483.919
490.865
482.199
490.777
479.939
490.705
479.53
490.639
477.484
490.705
572.693
1014.82
1329.41
990.834
1075.51
926.113
809.209
818.911
999.764
740.502
491.334
483.242
491.239
479.613
491.14
480.99
491.042
482.388
490.947
483.808
490.869
483.034
490.783
481.225
490.709
479.398
490.629
476.598
490.629
484.688
573.556
869.134
1068.72
943.332
1065.03
928.914
818.568
813.601
996.7
829.999
490.873
491.32
478.061
491.224
480.788
491.123
481.795
491.038
483.185
490.943
483.655
490.864
482.288
490.777
480.69
490.705
478.613
490.629
477.36
490.705
626.429
913.589
942.865
937.481
1063.39
925.703
809.335
818.566
960.739
889.53
494.423
486.313
491.32
479.597
491.224
481.461
491.123
482.577
491.038
483.745
490.943
483.14
490.864
481.709
490.777
479.783
490.705
476.637
490.705
487.377
696.602
963.368
942.048
943.329
1055.82
907.203
818.233
812.319
914.446
898.855
539.684
491.363
477.926
491.272
481.041
491.175
482.07
491.096
483.245
491.004
483.672
490.931
482.571
490.845
481.089
490.777
478.89
490.7
478.905
490.777
767.5
990.904
943.326
937.011
1043.46
877.814
809.96
818.232
870.367
902.291
633.413
489.655
491.304
479.49
491.23
481.718
491.151
482.793
491.074
483.844
490.993
483.348
490.915
482.028
490.837
480.137
490.76
476.829
490.76
489.47
844.352
1010.83
941.489
943.105
1030.7
855.968
818.232
812.775
823.554
947.721
742.718
491.385
477.623
491.304
481.301
491.23
482.407
491.151
483.477
491.074
483.877
490.993
482.877
490.915
481.458
490.837
479.236
490.76
481.005
490.837
925.952
1024.59
943.353
937.284
1020.84
873.786
813.481
818.745
814.523
990.427
857.178
508.775
491.309
479.512
491.304
482.145
491.23
483.18
491.151
484.135
491.074
483.659
490.993
482.42
490.915
480.512
490.837
477.074
490.837
524.676
1004.97
1038.89
940.942
943.338
1014.87
1004.84
818.745
815.936
819.029
1010.27
983.353
535.881
477.538
491.309
481.818
491.304
482.899
491.23
483.847
491.15
484.194
491.074
483.277
490.993
481.895
490.915
479.624
490.837
482.938
615.012
1078.85
1055.92
943.565
937.382
1011.36
1218.34
825.001
819.029
816.934
1014.38
1110.76
547.055
491.224
479.91
491.309
482.809
491.304
483.675
491.229
484.511
491.15
484.058
491.074
482.905
490.993
480.991
490.915
477.505
490.915
717.857
1135.06
1068.95
941.398
943.567
1015.36
1327.97
1137.82
910.906
819.527
998.068
1208.17
541.41
477.918
491.224
482.495
491.309
483.543
491.304
484.312
491.229
484.603
491.15
483.783
491.074
482.489
490.993
480.264
490.915
485.174
799.185
1173.61
1072.15
943.827
939.178
1036.77
1369.93
1316.94
1156.94
936.559
988.736
1248.42
533.701
491.223
480.92
491.309
483.558
491.384
484.265
491.304
484.866
491.229
484.567
491.15
483.524
491.074
481.674
490.993
478.794
490.993
855.5
1194.5
1068.04
942.919
943.828
1071.57
1375.22
1363.78
1302.23
1128.91
1014.88
1258.92
533.254
479.474
491.309
483.478
491.396
484.256
491.384
484.818
491.304
485.122
491.229
484.396
491.15
483.246
491.073
481.064
490.993
487.378
893.106
1202.2
1061.7
944.234
942.059
1112.77
1374.09
1372.1
1343.91
1258.72
1096.96
1266.77
539.956
491.308
482.058
491.396
484.374
491.472
484.869
491.384
485.221
491.304
485.174
491.229
484.247
491.15
482.488
491.073
480.43
491.074
932.256
1203.59
1059.4
987.519
944.277
1157.55
1373.78
1373.14
1354.68
1297.32
1178.24
1266.77
545.69
481.614
491.396
484.381
491.486
484.942
491.472
485.374
491.384
485.723
491.304
485.102
491.229
484.092
491.15
482.041
491.073
489.186
977.69
1203.42
1061.51
1029.49
1023.52
1213.57
1374.37
1374.81
1359.31
1308.87
1220.98
1183.87
534.853
491.396
483.187
491.486
485.11
491.572
485.506
491.472
485.794
491.384
485.689
491.303
485.064
491.229
483.379
491.15
482.224
491.15
1026.24
1194.12
1070.87
1067.97
1125.22
1275.51
1376.09
1377.9
1364.89
1317.67
1247.06
1064.19
511.178
484.173
491.486
485.036
491.585
485.649
491.572
486.046
491.472
486.238
491.384
485.858
491.303
484.979
491.229
483.149
491.15
490.68
1074.02
1191.19
1085.88
1119.79
1229.59
1327.3
1379.47
1381.75
1373.03
1335.07
1283.59
989.628
496.928
491.486
484.225
491.585
485.798
491.679
486.239
491.572
486.539
491.472
486.37
491.384
485.974
491.303
484.425
491.229
484.182
491.512
1116.42
1192.71
1112.94
1197.9
1306.73
1360.1
1384.54
1387.73
1383.64
1360.75
1322.03
959.349
501.376
486.236
491.585
485.592
491.692
486.465
491.679
486.863
491.572
487
491.471
486.646
491.384
485.944
491.303
484.457
491.229
510.479
1153.55
1202.71
1162.26
1275.51
1349.37
1374.19
1388.88
1388.87
1389.08
1385.02
1352.14
995.783
518.579
491.585
485.05
491.692
486.649
491.779
487.165
491.679
487.497
491.572
487.302
491.471
487.003
491.384
485.66
491.303
486.23
548.777
1186.37
1221.23
1233.72
1326.61
1368.44
1376.13
1327.36
1388.62
1388.66
1385.74
1352.57
1081.67
595.34
488.939
491.692
486.492
491.789
487.53
491.779
487.928
491.679
488.066
491.572
487.585
491.471
487.13
491.383
486.244
491.303
594.617
1219.56
1259.11
1299.76
1355.24
1375.09
1376.15
1217.99
1288.08
1335.51
1332.72
1277.47
1163.59
744.882
491.692
486.581
491.789
487.898
491.881
488.396
491.779
488.706
491.679
488.479
491.571
488.263
491.471
487.204
491.383
489.01
649.898
1259.01
1304.62
1341.56
1369.62
1376.1
1376.12
1168.95
1194.83
1247.38
1260.2
1252.54
1212.55
875.679
491.966
491.789
488.125
491.881
488.984
491.913
489.277
491.778
489.361
491.679
488.957
491.571
488.713
491.471
488.75
491.383
729.314
1301.34
1341.18
1364.24
1376.03
1376.1
1370.21
1169.99
1195.5
1267.18
1273.63
1270.07
1235.64
944.858
517.798
489.363
491.881
489.576
491.967
489.953
491.913
490.134
491.778
489.951
491.679
489.966
491.571
489.41
491.471
525.844
860.248
1327.14
1362
1370.7
1370.97
1370.38
1368.55
1177.29
1231.34
1293.1
1292.28
1284.51
1255.55
1004.98
581.179
491.881
490.477
491.967
490.786
492.018
490.902
491.913
490.941
491.778
490.717
491.679
490.91
491.571
506.191
647.951
1042.61
1319.2
1356.56
1362.45
1284.56
1184.39
1331.95
1190.82
1244.06
1301.71
1301.83
1293.85
1277.05
1090.15
675.953
503.967
491.967
491.535
492.054
491.677
492.018
491.685
491.913
491.564
491.778
492.135
495.249
510.255
595.284
821.301
1188.01
1312.6
1297.01
1257.6
1073.63
978.332
1126.49
1203.75
1220.23
1294.12
1301.83
1297.92
1294.67
1172.57
794.031
578.202
527.205
512.166
510.254
508.469
509.901
513.333
515.02
515.562
520.246
529.161
544.576
597.864
744.99
958.167
1210.78
1311.54
1276.89
1208.53
1051.09
977.899
1022.41
1213.9
1214.02
1258.69
1285.48
1292.4
1296.49
1216.65
899.503
700.663
618.25
579.641
570.428
564.605
566.454
571.553
573.911
576.796
590.175
611.129
646.909
737.642
869.364
990.74
1157.29
1304.81
1270.9
1210.27
1136.02
988.761
1089.75
1218.59
1213.96
1234.02
1255.78
1277.16
1296.46
1212.52
942.293
792.579
719.215
667.328
649.292
639.296
638.417
640.132
641.935
648.255
668.746
699.87
753.158
842.358
908.669
938.556
1032.07
1292.21
1275.88
1218.62
1197.45
1091
1171.57
1221.35
1214.32
1228.11
1247.56
1258.69
1278.93
1181.78
922.571
813.753
771.371
725.893
704.826
693.009
688.251
684.64
688.178
697.173
717.741
750.706
806.414
865.156
875.176
819.924
909.026
1267.24
1282.89
1222.07
1226.25
1179.07
1237.27
1227.79
1214.26
1231.71
1248.35
1253.09
1269.48
1152.26
862.714
789.474
772.526
742.03
722.711
711.221
704.158
697.273
704.054
714.117
731.178
760.201
803.457
834.673
796.647
735.907
845.645
1204.78
1285.67
1243.35
1248.48
1239.59
1287.59
1242.98
1223.58
1246.41
1259.14
1260.54
1273.74
1153.13
810.8
741.882
753.635
736.018
719.655
708.819
701.416
697.634
703.268
713.072
727.495
751.069
773.736
770.833
734.826
730.413
813.562
1139.66
1299.58
1279.87
1277.89
1289.65
1325.52
1267.99
1252.05
1269.04
1278.36
1277.97
1286.37
1171.03
801.723
723.442
728.128
724.219
712.779
703.029
698.361
697.988
700.489
709.422
720.434
734.23
737.856
732.156
729.662
730.123
789.298
1084.12
1312.02
1313.83
1310.49
1326.75
1347.72
1298.95
1286.67
1295.71
1300.68
1298.56
1302.08
1199.53
814.249
722.943
722.444
721.676
714.043
705.252
701.289
701.631
705.81
712.671
720.263
727.885
728.335
728.787
729.245
729.703
777.565
1056.79
1304.88
1334.27
1334.93
1347.27
1356.45
1329.81
1320.95
1322.08
1322.07
1317.12
1316.44
1231.36
855.85
735.285
743.598
745.207
743.134
735.979
733.901
735.395
740.287
741.331
742.427
745.011
739.671
730.559
729.703
730.163
803.502
1076.91
1260.4
1342.99
1353.86
1356.45
1356.48
1356.82
1349.75
1345.57
1340.7
1332.9
1327.61
1259.03
926.23
790.048
814.339
820.548
823.216
816.586
815.887
817.692
819.083
812.915
810.086
807.224
789.772
760.836
748.117
769.113
894.572
1134.06
1255.86
1332.07
1356.4
1356.49
1356.48
1376.47
1371.11
1364.56
1356.63
1346.47
1335.98
1271.54
998.911
878.759
921.824
932.135
935.401
927.797
925.615
926.009
922.885
914.032
913.331
909.887
885.084
839.105
823.307
877.788
1036.5
1215.27
1275.37
1296.74
1327.34
1356.4
1356.41
1384.65
1382.99
1377.36
1368.72
1358.12
1342.59
1266.83
1043.35
954.592
1004.43
1018.51
1019.88
1012.76
1006.85
1005.76
1002.58
1001.09
1005.14
1004.66
987.257
942.888
940.771
1021.31
1170.98
1270.06
1294.11
1294.56
1174.23
1321.9
1270.09
1384.69
1384.67
1381.6
1373.95
1365.15
1345.88
1249.47
1062.23
995.251
1022.84
1039.97
1040.2
1035.73
1027.25
1026.42
1026.41
1036.41
1043.26
1044.5
1041.69
1021.68
1040.43
1135.51
1249.06
1288.19
1293.95
1274.2
1096.73
1131.07
1145.66
1384.71
1384.59
1375.46
1370.11
1362.52
1337.97
1234.65
1088.62
1022.23
1022.96
1033.43
1037.71
1029.43
1027.12
1026.71
1026.76
1033.57
1041.37
1044.91
1045.62
1050.44
1093.34
1196.06
1277.04
1293.62
1293.79
1199.98
1096.66
1114.29
1189.99
1384.43
1367.86
1356.02
1355.51
1345.07
1308.84
1245.27
1150.7
1062.3
1023.4
1026.02
1027.13
1027.45
1027.36
1027.13
1027.03
1027.35
1032.02
1036.04
1039.99
1057.44
1123.05
1231.62
1285.92
1293.44
1253.67
1135.7
1118.96
1177.49
1261.27
1276.02
1303.23
1346.68
1341.75
1320.68
1303.33
1279.34
1233.56
1141.22
1054.81
1030.03
1027.45
1027.81
1027.59
1027.37
1027.35
1027.62
1028.72
1030.84
1038.17
1072.56
1157.3
1261.97
1285.88
1246.3
1182.17
1155.34
1203.91
1250.8
1301.17
1226.9
1215.7
1314.97
1336.03
1312.77
1311.86
1307.36
1292.64
1237.9
1145.01
1078.51
1054.63
1049.58
1046.87
1045.64
1047.76
1050.69
1050.9
1052
1064.95
1121.01
1210.32
1282.28
1268.74
1168.52
1176.6
1222.81
1281.87
1298.9
1322.93
1243.11
1160.82
1155.16
1306.23
1312.75
1312.93
1312.72
1312.69
1300.13
1250.49
1183.51
1142.81
1128.78
1121.56
1118.24
1121.72
1126.1
1124.52
1126.26
1146.95
1204.18
1268.96
1285.91
1221.88
1168.23
1199.24
1277.66
1309.54
1323.02
1331.99
1243.11
1130.45
1047.28
1201.54
1313.33
1312.72
1313.35
1312.7
1312.87
1307.06
1278.07
1248.34
1232.72
1224.03
1219.49
1221.09
1223.79
1223.13
1227.67
1245.91
1275.9
1304.24
1287.32
1194.62
1171.28
1233.31
1291.63
1319.77
1331.98
1332.12
1243.11
1069.6
1035.3
1122.64
1311.22
1313.4
1312.69
1312.03
1312.67
1312.87
1312.12
1305.23
1298.53
1292.69
1288.91
1288.18
1288.82
1289.96
1294.38
1301.87
1308.13
1308.28
1257.65
1195.12
1206.92
1250.24
1285.53
1325.64
1332.12
1332.35
1167.47
988.319
1024.81
1108.16
1275.25
1312.69
1296.2
1236.86
1243.18
1295.22
1312.33
1312.24
1312.36
1312.24
1312.17
1311.47
1311.37
1311.76
1312.28
1312.23
1312.29
1302.82
1204.2
1218.77
1262.62
1262.6
1269.16
1321.87
1332.59
1332.33
1117.35
943.993
990.488
1095.25
1261.09
1312.53
1276.42
1198.78
1179.05
1208.56
1290.94
1312.36
1312.25
1312.37
1312.25
1312.35
1312.24
1312.32
1312.24
1312.31
1312.21
1235.38
1190.06
1261.03
1300.47
1280.22
1269.23
1313.98
1332.09
1307.36
1118.48
943.405
937.769
1048.25
1251.3
1311.75
1287.79
1218.77
1178.68
1178.93
1200.79
1283.53
1312.38
1312.24
1312.36
1312.24
1312.34
1312.23
1312.32
1312.22
1267.59
1171.24
1190.19
1292.91
1316.1
1297.21
1269.31
1314.22
1332.83
1122.39
1086.21
945.65
896.055
960.628
1202.52
1311.38
1306.54
1267.13
1191.21
1178.63
1178.91
1195.88
1255.42
1292.4
1302.37
1305.04
1305.74
1302.56
1300.03
1267.84
1177.71
1165.35
1196.07
1308.62
1318.56
1307.33
1271.01
1311.39
1258.98
986.986
943.901
924.116
868.197
875.674
1078.11
1310.72
1310.38
1302.7
1234.58
1178.91
1178.61
1178.9
1185.92
1211.4
1225.3
1229.51
1230.23
1223.79
1216.4
1179.42
1165
1165.66
1209.71
1310.58
1319.04
1313.13
1287.65
1245.25
1074.84
973.843
834.265
870.034
841.101
836.647
928.306
1217.65
1309.7
1308.5
1279.78
1203.15
1178.9
1178.61
1178.89
1180.08
1183.46
1184.31
1183.73
1180.71
1175.69
1165.37
1165.66
1165.45
1227.24
1304.95
1318.56
1316.45
1288.96
1122.63
975.65
973.547
833.86
834.574
834.699
835.255
867.945
1027.74
1284.44
1308.03
1302.28
1252.98
1183.95
1178.89
1178.71
1178.88
1179.36
1179.34
1178.65
1178.43
1174.66
1165.66
1164.98
1165.66
1241.04
1292.56
1319.06
1314.85
1269.98
1057.05
975.072
973.842
833.657
834.72
835.271
835.86
864.03
974.903
1134.69
1268.86
1302.17
1289.62
1215.11
1178.78
1178.88
1178.83
1178.95
1178.96
1178.65
1179.23
1174.98
1165.33
1165.66
1167.76
1250.25
1283.61
1318.55
1312.49
1257.04
1066.07
975.339
975.102
833.86
835.265
835.845
838.922
887.639
999.008
1052.79
1139.48
1295.55
1292.86
1260
1187.83
1178.82
1178.87
1178.87
1178.86
1178.66
1179.38
1172.98
1165.66
1165.28
1181.38
1250.84
1276.11
1318.74
1313.9
1265.53
1126.68
1001.15
975.374
835.36
837.165
859.088
891.301
961.608
1067.58
1069.57
1080.88
1211.13
1292.6
1290.41
1216.34
1179.44
1178.86
1178.93
1178.84
1178.66
1179.37
1168.94
1165.53
1165.66
1198.67
1225.86
1257.5
1315.79
1317.18
1283.91
1211.14
1082.97
1005.36
835.907
887.022
949.219
1006.15
1071.36
1152.89
1128.28
1081.15
1090.6
1285.82
1291.07
1247.18
1186.62
1179.29
1179.66
1179.09
1178.86
1179.51
1170.27
1167.93
1175.15
1201.76
1172.84
1223.69
1306.94
1320.44
1294.63
1263.55
1177.12
1087.58
891.567
997.14
1084.15
1140.99
1184.3
1232.45
1196.78
1083.7
1069.32
1200.51
1291.01
1260.39
1200.34
1183.24
1181.38
1179.72
1180.49
1181.72
1178.21
1183.58
1196.44
1201.72
1157.6
1197.41
1307.08
1329.33
1303.52
1284.85
1235.13
1163.57
1013.6
1127.26
1206.98
1247.99
1271.84
1297.39
1248.18
1084.71
1071.11
1081.63
1239.6
1250.59
1209.35
1188.46
1182.89
1180.31
1183.48
1183.51
1177.09
1187.09
1200.21
1200.24
1157.99
1195.12
1318.93
1344.42
1324.19
1303.59
1267.22
1202.59
1140.09
1233.73
1286.91
1309.67
1321.73
1332.94
1279
1088.63
1068.17
1071.11
1101.12
1200.1
1201.44
1187.24
1182.4
1180.63
1184.23
1182.44
1157.19
1161.41
1198.06
1165.45
1156.98
1199.24
1327.79
1354.84
1348.1
1330.66
1299.05
1233.38
1228.75
1300.11
1330.71
1341.47
1345.77
1345.26
1294.08
1092.49
1071.11
1068.21
1071.13
1127.95
1168.59
1174.41
1178.08
1181.16
1184.24
1159.46
1157.99
1156.93
1157.99
1156.55
1157.99
1202.61
1328.17
1359.5
1362.72
1355.11
1332.85
1275.71
1285.25
1337.73
1355.49
1359.13
1358.19
1350.88
1311.03
1096.6
1069.01
1071.11
1068.99
1080.44
1126.61
1151.77
1169
1180.9
1180.27
1157.99
1156.82
1157.99
1156.52
1157.99
1156.64
1199.11
1331.46
1363.71
1370.61
1370.56
1359.37
1322.06
1325.57
1361.35
1370.75
1370.63
1367.23
1357.6
1332.6
1113.47
1071.11
1069.13
1071.11
1070.75
1108.88
1137.91
1160.72
1176.59
1161.75
1157.12
1157.98
1156.64
1157.98
1156.52
1157.98
1190.79
1339.94
1370.12
1377.14
1380.12
1377.02
1357.95
1357.03
1377.24
1380.55
1379.08
1374.33
1363.18
1340.38
1175.22
1076.53
1071.11
1070.6
1086.14
1119.43
1141.81
1159.48
1168.59
1157.65
1157.98
1157.17
1157.98
1156.94
1157.98
1157.28
1193.51
1347.14
1376.44
1383.53
1387.08
1388.32
1381.35
1378.83
1386.6
1386.48
1384.57
1378.1
1363.54
1345.02
1262.96
1142.36
1115.72
1123.19
1149.18
1164.94
1165.9
1164.23
1164.04
1157.98
1157.76
1157.98
1157.68
1157.98
1157.62
1157.98
1215.26
1350.89
1379.97
1388.4
1392.21
1394.44
1393.79
1389.38
1389.85
1389.36
1386.09
1376.42
1356.31
1343.71
1317.95
1254.56
1228.04
1233.8
1240.89
1231.5
1205.54
1177.92
1165.27
1163.82
1173.18
1186.5
1196.18
1193.82
1190.88
1196.42
1266.19
1356.41
1381.43
1389.98
1394.61
1395.1
1395.1
1389.89
1389.89
1389.81
1383.74
1368.11
1340.67
1338.95
1337.7
1323.48
1313.42
1311.74
1297.32
1268.95
1230.07
1194.44
1174.07
1184.95
1212.9
1246.65
1267.9
1269.45
1267.13
1274.01
1317.11
1361.74
1381.42
1388.02
1392.44
1395.08
1395.12
1389.92
1389.88
1387.51
1378.35
1352.96
1315.32
1332.61
1337.72
1333.72
1326.2
1318.4
1295.7
1265.5
1229.14
1202.37
1189.37
1206.26
1242.68
1282.05
1310.6
1318.71
1318.68
1318.82
1338.51
1366.54
1380.68
1380.49
1380.4
1394.88
1395
1389.79
1389.75
1379.33
1376.59
1352.54
1282.02
1261.91
1295.58
1282.05
1275.22
1276.56
1256.13
1236.44
1218.24
1202.6
1199.55
1214.98
1245.04
1276.44
1306.7
1319.69
1319.72
1319.04
1342.79
1371.6
1377.21
1365.44
1349.36
1358.61
1360.98
1345.07
1354.15
1356.21
1370.07
1361.26
1280.54
1179.2
1190.41
1178.39
1175.03
1196.89
1198.69
1193.94
1203.62
1203.5
1204.72
1218.11
1235.75
1247.75
1262.83
1285.72
1296.56
1282.95
1334.81
1371.13
1369
1353.02
1323.27
1170.22
961.564
937.029
1162.26
1332.67
1356.49
1360.99
1298.01
1175.82
1148.22
1147.53
1148.26
1159.09
1176.72
1171.23
1192.41
1206.59
1209.18
1216.46
1214.35
1212.2
1202.15
1192.76
1204.82
1230.77
1314.6
1363.56
1324.11
1191.93
986.462
717.422
548.685
559.022
722.388
1020.76
1241.05
1328.25
1297.46
1207.94
1150.47
1146.15
1145.58
1149.83
1172.06
1169.88
1180.43
1208.34
1209.11
1204.28
1192.86
1190.24
1165.92
1138.88
1154.82
1209.92
1244.78
1167.98
949.868
726.881
574.232
498.603
482.528
515.658
525.846
615.682
818.274
1049.15
1199.7
1208.02
1158.9
1144.87
1144.06
1147.97
1166.95
1167.57
1171.11
1201.52
1209.04
1184.77
1174.67
1175.82
1149.07
1129.75
1139.84
1162.66
1066.45
834.243
638.698
542.066
496.404
483.092
483.105
516.186
516.478
540.061
619.331
777.415
1010.03
1160.49
1153.6
1143.78
1143.92
1147.4
1159.61
1161.32
1166
1181.76
1195.32
1167.41
1164.29
1166.63
1144.38
1125.27
1124.77
1090.66
928.413
734.857
628.592
559.311
505.12
483.346
483.105
516.185
517.271
560.718
645.478
759.908
922.521
1089.52
1142.48
1142.76
1146.03
1155.12
1158.22
1158.34
1159.55
1162.18
1168.04
1159.54
1159.39
1161.36
1147.88
1129.74
1116.19
1051.54
907.831
771.214
692.357
620.371
534.883
484.334
483.105
517.271
529.475
620.84
733.808
829.677
945.389
1076.73
1145.55
1160.15
1171.28
1177.35
1163.26
1158.45
1158.57
1158.68
1158.8
1158.92
1159.03
1167.08
1167.42
1154.83
1127.65
1061.24
953.685
873.278
806.311
711.802
592.442
498.306
483.62
517.341
576.337
718.926
860.185
961.344
1036.72
1115.26
1178.58
1206.37
1220.14
1217.7
1192.61
1174.05
1161.35
1158.8
1158.92
1163.06
1173.3
1195.04
1207.9
1202.59
1173.3
1120.9
1061.14
1008.32
935.169
823.794
682.586
546.398
484.762
542.513
672.892
850.506
1003.32
1104.97
1162.94
1203.56
1241.47
1263.06
1271.02
1266.56
1247.12
1225.81
1206.42
1180.6
1180.81
1202.27
1220.77
1245.71
1258.22
1257.77
1241.06
1213.32
1183
1142.28
1071.75
959.893
809.3
643.011
515.339
648.254
824.077
1013.82
1152.02
1227.82
1264.19
1284.16
1299.24
1308.07
1310.21
1307.46
1299.92
1290.76
1285.26
1262.05
1263.46
1271.59
1282.33
1295.21
1301.52
1302.57
1297.28
1286.86
1272.24
1247.86
1201.36
1114.45
973.882
794.086
626.893
839.321
1019.72
1183.05
1266.96
1302.64
1319.01
1327.68
1332.47
1334.47
1334.23
1333.05
1332.27
1333.08
1338.4
1332.12
1335.68
1326.17
1325.21
1326.88
1328.75
1329.66
1328.87
1325.65
1319.5
1308.7
1288.52
1245.9
1153.1
991.506
817.427
1054.59
1204.26
1294.61
1326.02
1338.75
1344.36
1346.66
1347.16
1346.71
1345.78
1345.32
1345.79
1346.47
1346.4
1325.64
1342.85
1342.98
1342.9
1341.72
1341.89
1342.44
1342.86
1342.52
1341.17
1338.07
1331.41
1316.75
1280.82
1183.71
1031.84
1213.89
1306.77
1343.61
1353.93
1356.72
1356.6
1355.07
1352.97
1351
1349.93
1349.83
1349.67
1346.55
1333.01
1240.77
1293.96
1342.11
1346.47
1347.27
1347.07
1347.18
1348.03
1349.61
1351.46
1352.75
1352.56
1349.23
1337.85
1297.32
1197.59
1288.23
1348.38
1367.5
1369.42
1367.53
1364.14
1359.85
1355.25
1351.05
1350.1
1350.14
1347.4
1338.49
1232.5
1129.75
1157.53
1304.57
1345.69
1347.73
1347.77
1347.59
1348.93
1353.16
1357.83
1362
1365.13
1366.73
1364.39
1343.96
1279.82
1328.68
1371.89
1381.64
1379.35
1374.98
1370.12
1364.15
1356.89
1349.26
1347.64
1350.08
1335.95
1243.87
1126.97
1123.31
1125.23
1169.69
1307.27
1346.37
1347.73
1346.02
1348.53
1356.44
1363.57
1369.09
1373.49
1377.59
1379.68
1369.08
1322.97
1364.23
1387.56
1389.58
1384.67
1379.26
1374.62
1369.17
1360.25
1347.17
1340.42
1342.81
1231.77
1129.15
1123.38
1125.23
1123.32
1125.23
1171.95
1292.75
1347.68
1340.71
1349.11
1361.55
1369.33
1373.86
1377.93
1383.14
1388.06
1385.61
1359.93
1388.26
1394.71
1392.12
1384.99
1379.03
1375.54
1373.35
1366.6
1349.55
1327.81
1252.05
1126.49
1123.73
1125.23
1123.57
1125.23
1123.57
1125.23
1155.85
1293.1
1334.31
1354.01
1368.05
1373.03
1374.43
1377.64
1383.44
1390.72
1393.5
1385.72
1394.82
1394.83
1390.3
1380.56
1373.68
1371.67
1372.94
1372.6
1357.71
1306.43
1152.22
1124.13
1125.23
1124.01
1125.23
1124.06
1125.23
1124.23
1125.23
1181.53
1326.24
1361.97
1371.99
1372.05
1370.68
1372.86
1379.5
1389.02
1393.71
1393.7
1394.87
1394.78
1382.14
1369.38
1361.84
1360.39
1367.16
1372.59
1366.03
1305.2
1143.21
1125.23
1124.82
1125.23
1124.78
1125.23
1124.79
1125.23
1124.82
1156.75
1320.55
1368.05
1371.94
1366.45
1360.98
1363.08
1369.94
1380.78
1393.65
1393.75
1394.55
1394.01
1367.75
1356.66
1349.23
1345.41
1356.34
1368.6
1368.45
1314.8
1174.31
1149.24
1158.94
1146.21
1138.01
1138.99
1150.05
1164.94
1151.88
1182.33
1322.24
1368.04
1368.13
1357.36
1349.32
1353.28
1358.79
1364.74
1390.48
1393.44
1291.73
1355.48
1348.63
1344.11
1341.81
1339.5
1346.98
1361.78
1366.48
1326.6
1234.73
1220.23
1239.67
1224.7
1209.49
1211.78
1231.17
1246.14
1223.36
1235.52
1326.39
1365.66
1361.82
1350.07
1346.18
1347.79
1346.67
1348.02
1348.98
1298.56
810.825
1178.08
1346.29
1341.48
1339.75
1339.45
1344.62
1355.06
1358.93
1326.7
1279.22
1286.58
1302.73
1300.08
1293.64
1294.94
1302.96
1305.07
1287.56
1275.66
1323.93
1356.52
1355.04
1348.13
1346.22
1346.44
1345.42
1345.57
1170.14
802.485
496.372
695.834
1094.41
1295.4
1339.64
1338.27
1343.94
1348.35
1348.28
1326.17
1306.95
1321.6
1330.87
1331.6
1330.99
1331.25
1332.3
1331.77
1322.03
1303.62
1320.4
1343.66
1347.88
1345.44
1343.81
1346.27
1330.32
1126.2
673.039
424.485
495.606
498.065
600.819
839.717
1122.21
1300.27
1339.6
1343.34
1341.7
1332.89
1331.26
1340.85
1344.36
1344.17
1343.99
1344.1
1344.53
1345.09
1341.6
1329.59
1325.39
1334.39
1340.53
1340.49
1288.57
1137.64
901.413
619.43
441.081
419.456
495.606
513.069
513.313
515.967
625.873
896.719
1205.34
1333.67
1345.8
1347.84
1349.6
1350.74
1350.74
1350.69
1350.54
1350.57
1350.75
1350.78
1350.76
1348.8
1339.72
1331.72
1323.93
1148.28
858.573
654.846
554.361
507.33
443.542
419.456
512.905
593.75
540.716
511.126
510.185
533.406
770.241
1184.7
1349.41
1350.74
1350.75
1350.74
1350.74
1350.73
1350.76
1350.74
1350.77
1350.76
1350.78
1350.78
1350.75
1332.94
1061.13
694.905
551.392
550.96
551.951
555.225
484.302
419.456
606.665
728.705
632.434
512.354
511.126
510.415
582.306
862.914
1257.4
1350.56
1347.65
1340.48
1335.7
1334.46
1335.29
1335.48
1333.73
1335.17
1344.96
1350.68
1350.54
1159.42
727.121
555.997
550.96
566.661
627.599
652.58
561.13
440.388
749.247
888.82
767.991
557.868
518.449
538.82
634.748
828.89
1049.73
1202.15
1181.66
1167.9
1166.31
1170.91
1176.45
1177.01
1168.76
1162.89
1176.08
1217.63
1224.24
979.527
728.936
601.245
582.474
649.89
748.582
774.327
670.827
534.107
901.586
1045.57
939.462
661.368
598.588
656.388
791.584
923.456
1000.77
1021.96
1014.61
1011.2
1009.34
1010.01
1010.61
1011.17
1009.21
1009.04
1013.25
1031.99
1052.94
1006.99
865.831
749.167
706.761
783.551
889.258
917.754
816.894
687.187
1050.32
1171.28
1118.94
835.355
771.697
854.341
976.395
1004.19
1001.26
1000.08
1001.64
1000.8
1002.01
1001.33
1002.32
1001.72
1002.68
1002.06
1003.05
1002.18
1003.55
1049.56
1056.83
976.726
909.711
947.502
1043
1073.48
989.18
866.59
1179.51
1255.67
1243.53
1061.82
998.457
1046.86
1048.69
1008.82
999.905
1001.64
1000.1
1002.01
1000.96
1002.32
1001.59
1002.68
1001.91
1003.05
1002.44
1003.55
1002.37
1022.31
1136.88
1174.86
1129.18
1119.88
1183.3
1207.13
1154.32
1045.93
1268.15
1302.93
1295.67