/*--------------------------------*- C++ -*----------------------------------*\
| =========                 |                                                 |
| \\      /  F ield         | OpenFOAM: The Open Source CFD Toolbox           |
|  \\    /   O peration     | Version:  2.3.0                                 |
|   \\  /    A nd           | Web:      www.OpenFOAM.org                      |
|    \\/     M anipulation  |                                                 |
\*---------------------------------------------------------------------------*/
FoamFile
{
    version     2.0;
    format      ascii;
    class       volVectorField;
    location    "0.39";
    object      U.air;
}
// * * * * * * * * * * * * * * * * * * * * * * * * * * * * * * * * * * * * * //

dimensions      [0 1 -1 0 0 0 0];

internalField   nonuniform List<vector> 
6000
(
(0.0817941 0.250654 0)
(0.231144 0.223887 0)
(0.285079 0.21173 0)
(0.229522 0.220114 0)
(0.0211769 0.332499 0)
(-0.103842 0.131286 0)
(-0.131859 0.108595 0)
(-0.236789 0.192438 0)
(-0.344374 0.213311 0)
(-0.366956 0.207983 0)
(-0.307679 0.216079 0)
(-0.261437 0.19898 0)
(-0.239336 0.168463 0)
(-0.197431 0.144184 0)
(-0.0589291 0.11421 0)
(0.113746 0.122278 0)
(0.202553 0.15627 0)
(0.223312 0.164957 0)
(0.258745 0.20041 0)
(0.330598 0.194804 0)
(0.376476 0.192134 0)
(0.287448 0.221024 0)
(0.137557 0.191249 0)
(0.0871944 0.14137 0)
(0.0490945 0.168292 0)
(-0.0619828 0.308984 0)
(-0.248926 0.228455 0)
(-0.294375 0.217804 0)
(-0.223202 0.224646 0)
(-0.0783641 0.253261 0)
(0.103607 0.731348 0)
(0.199349 0.881924 0)
(0.125095 1.02849 0)
(0.0145836 1.17509 0)
(0.0168509 1.16365 0)
(0.0230136 1.1256 0)
(-0.0667691 1.15007 0)
(-0.164529 1.19627 0)
(-0.296984 1.11748 0)
(-0.385423 0.961431 0)
(-0.324627 0.91293 0)
(-0.205496 0.979645 0)
(-0.108625 1.04762 0)
(-0.044605 1.04374 0)
(-0.0171003 0.963336 0)
(-0.00884444 0.996241 0)
(0.0404919 1.05972 0)
(0.116439 1.02315 0)
(0.224677 0.934194 0)
(0.323599 0.890835 0)
(0.336951 0.990373 0)
(0.236615 1.2278 0)
(0.119864 1.13515 0)
(0.0463332 1.10237 0)
(-0.0140595 1.11799 0)
(-0.0156289 1.13824 0)
(-0.0360343 1.16779 0)
(-0.136992 0.980495 0)
(-0.205255 0.884158 0)
(-0.105796 0.739003 0)
(0.0537781 0.485531 0)
(0.070833 0.798149 0)
(-0.0594333 0.951612 0)
(-0.0589768 1.01542 0)
(-0.00972552 1.00587 0)
(-0.00420361 0.98198 0)
(-0.0262073 0.987788 0)
(-0.0610304 1.06896 0)
(-0.15579 1.06712 0)
(-0.222466 0.738014 0)
(-0.17373 0.600528 0)
(-0.0444998 0.615124 0)
(0.0639878 0.734637 0)
(0.0723422 0.86592 0)
(0.00223344 0.843664 0)
(-0.0883774 0.855184 0)
(-0.115071 0.811983 0)
(-0.0628447 0.654126 0)
(0.0651503 0.598337 0)
(0.163355 0.611553 0)
(0.166797 0.822839 0)
(0.111964 1.11177 0)
(0.052274 1.04685 0)
(0.0055075 0.991998 0)
(-0.0104156 0.971454 0)
(0.0066861 1.00018 0)
(0.0610631 0.989357 0)
(0.0554048 0.935823 0)
(-0.0854564 0.786837 0)
(-0.0611929 0.481925 0)
(-0.0581567 0.45035 0)
(-0.103478 0.922919 0)
(-0.131168 0.947615 0)
(-0.0628738 0.948115 0)
(-0.0254668 0.962484 0)
(-0.000823254 0.958134 0)
(0.00294583 0.99909 0)
(0.0212899 1.05766 0)
(0.0141883 1.12523 0)
(-0.0213376 0.785342 0)
(0.00954108 0.546446 0)
(0.108563 0.59721 0)
(0.167156 0.794468 0)
(0.109567 1.01721 0)
(-0.00323483 0.985882 0)
(-0.100348 1.01466 0)
(-0.190397 0.92341 0)
(-0.179715 0.692741 0)
(-0.104274 0.557949 0)
(-0.01442 0.587473 0)
(-0.0100965 0.90728 0)
(-0.0438599 1.12925 0)
(-0.026623 1.04568 0)
(-0.0155946 0.969393 0)
(-0.00907265 0.950532 0)
(0.0211722 0.937956 0)
(0.0644434 0.942528 0)
(0.123101 0.928559 0)
(0.0967413 0.91975 0)
(0.0529612 0.440514 0)
(-0.120863 0.564351 0)
(-0.158255 0.890841 0)
(-0.11053 0.886106 0)
(-0.0480631 0.90986 0)
(-0.0175366 0.928657 0)
(0.00207136 0.960602 0)
(0.0271081 0.97073 0)
(0.048192 1.04372 0)
(0.0727812 1.10059 0)
(0.102126 0.773515 0)
(0.159764 0.459348 0)
(0.250701 0.523861 0)
(0.221625 0.813015 0)
(0.110764 1.13977 0)
(0.00612996 1.03023 0)
(-0.0851568 1.1011 0)
(-0.21964 0.990107 0)
(-0.28825 0.66514 0)
(-0.241233 0.483414 0)
(-0.157741 0.512047 0)
(-0.111667 0.91127 0)
(-0.0941546 1.09849 0)
(-0.0622277 1.00875 0)
(-0.0368814 0.958576 0)
(-0.0131644 0.92849 0)
(0.0085881 0.919646 0)
(0.0415904 0.891624 0)
(0.0956538 0.885358 0)
(0.153243 0.870544 0)
(0.117658 0.552544 0)
(-0.0769959 0.689352 0)
(-0.0809439 0.830236 0)
(-0.0625528 0.841544 0)
(-0.0209926 0.860603 0)
(-0.000614963 0.906773 0)
(0.0132705 0.923129 0)
(0.0309928 0.9562 0)
(0.0353081 1.01779 0)
(0.0681997 1.04576 0)
(0.182067 0.69248 0)
(0.280107 0.411137 0)
(0.287565 0.506352 0)
(0.16984 0.995668 0)
(0.0508855 1.19009 0)
(0.00851807 1.1424 0)
(-0.0522519 1.16881 0)
(-0.121578 1.16376 0)
(-0.262137 0.719113 0)
(-0.350783 0.446935 0)
(-0.277683 0.444865 0)
(-0.168688 0.841273 0)
(-0.0797696 1.05326 0)
(-0.0580809 0.991871 0)
(-0.0482028 0.925752 0)
(-0.0286758 0.909085 0)
(-0.0167158 0.875721 0)
(0.0126597 0.861475 0)
(0.047687 0.820837 0)
(0.0794271 0.8159 0)
(0.081591 0.670909 0)
(-0.00917625 0.699395 0)
(0.0196924 0.801582 0)
(0.00113266 0.803712 0)
(0.00915313 0.841945 0)
(0.0207636 0.874693 0)
(0.0217011 0.910138 0)
(0.019451 0.937583 0)
(-0.0160533 1.00595 0)
(0.040725 0.950441 0)
(0.234095 0.534655 0)
(0.334912 0.413537 0)
(0.19158 0.603912 0)
(0.022746 1.08961 0)
(-0.00598108 1.14217 0)
(-0.0073975 1.10916 0)
(-0.0278844 1.12568 0)
(-0.0175305 1.12476 0)
(-0.166268 0.955995 0)
(-0.325319 0.462694 0)
(-0.346805 0.398069 0)
(-0.198076 0.674175 0)
(-0.0407111 0.994825 0)
(-0.032534 0.971642 0)
(-0.046771 0.917066 0)
(-0.0447597 0.883632 0)
(-0.0435247 0.863978 0)
(-0.0235687 0.821542 0)
(-0.00443912 0.790308 0)
(-0.022713 0.769728 0)
(0.0194484 0.686277 0)
(0.0422699 0.638632 0)
(0.0905882 0.808034 0)
(0.0604805 0.805568 0)
(0.0374368 0.821824 0)
(0.0456388 0.865794 0)
(0.0341684 0.893448 0)
(0.00505484 0.951224 0)
(-0.0763007 1.02483 0)
(0.0304604 0.779813 0)
(0.243164 0.397572 0)
(0.269783 0.454266 0)
(0.104876 0.85399 0)
(-0.0370771 1.1088 0)
(-0.0139819 1.1234 0)
(-0.0128943 1.12608 0)
(-0.0189374 1.12022 0)
(-0.0127118 1.12724 0)
(-0.0478396 1.05702 0)
(-0.202933 0.578939 0)
(-0.334177 0.406811 0)
(-0.208105 0.468295 0)
(-0.010965 0.933257 0)
(0.00566148 0.983478 0)
(-0.0513889 0.907305 0)
(-0.0637315 0.877624 0)
(-0.0689594 0.836004 0)
(-0.0521908 0.80178 0)
(-0.0591465 0.767045 0)
(-0.0949013 0.785591 0)
(-0.037133 0.623678 0)
(0.0511316 0.520649 0)
(0.136089 0.813345 0)
(0.105218 0.804005 0)
(0.0734392 0.828192 0)
(0.0607664 0.85748 0)
(0.0331518 0.917581 0)
(-0.0209436 1.01118 0)
(-0.0910195 1.06243 0)
(0.0495719 0.56227 0)
(0.188524 0.32444 0)
(0.158105 0.52732 0)
(0.045704 0.983739 0)
(-0.0119242 1.09092 0)
(-0.00534522 1.12074 0)
(-0.0112372 1.1205 0)
(-0.0196276 1.12774 0)
(-0.0213355 1.1117 0)
(-0.00835469 1.07782 0)
(-0.137577 0.788734 0)
(-0.2367 0.394356 0)
(-0.185432 0.328848 0)
(-0.02893 0.802211 0)
(0.0278717 1.03507 0)
(-0.0529398 0.937108 0)
(-0.0840353 0.860788 0)
(-0.086188 0.823992 0)
(-0.0857953 0.783406 0)
(-0.105546 0.767691 0)
(-0.140947 0.790109 0)
(-0.0461767 0.499956 0)
(0.0364017 0.398031 0)
(0.156453 0.792258 0)
(0.142246 0.818338 0)
(0.111858 0.82922 0)
(0.0740303 0.866367 0)
(0.0682581 0.91929 0)
(0.0058747 1.03099 0)
(-1.89542e-05 1.02693 0)
(0.107755 0.459872 0)
(0.125486 0.287105 0)
(0.120784 0.612493 0)
(0.0711177 1.01561 0)
(0.0342861 1.09435 0)
(0.0138634 1.11375 0)
(-0.00678567 1.13018 0)
(-0.0275441 1.12419 0)
(-0.0487327 1.11635 0)
(-0.0670056 1.06889 0)
(-0.147618 0.910544 0)
(-0.169271 0.379614 0)
(-0.18064 0.287051 0)
(-0.116886 0.691147 0)
(-0.02368 1.06028 0)
(-0.0805556 0.95763 0)
(-0.10621 0.863967 0)
(-0.107114 0.807279 0)
(-0.127931 0.780799 0)
(-0.140411 0.761094 0)
(-0.158363 0.771715 0)
(-0.0351127 0.372248 0)
(0.00739044 0.297359 0)
(0.152986 0.704728 0)
(0.189194 0.828342 0)
(0.151993 0.847786 0)
(0.10908 0.875234 0)
(0.0748718 0.956216 0)
(0.0418267 1.09131 0)
(0.10795 0.930829 0)
(0.182974 0.451994 0)
(0.162436 0.293611 0)
(0.129026 0.607982 0)
(0.150717 1.05325 0)
(0.0809579 1.11329 0)
(0.0348177 1.13892 0)
(-0.00132902 1.13644 0)
(-0.0365085 1.14617 0)
(-0.0822766 1.13404 0)
(-0.153207 1.11061 0)
(-0.20016 0.943923 0)
(-0.182227 0.371711 0)
(-0.258074 0.314314 0)
(-0.230779 0.630126 0)
(-0.125496 1.00275 0)
(-0.0832012 1.00803 0)
(-0.112152 0.875602 0)
(-0.147278 0.815642 0)
(-0.170989 0.772006 0)
(-0.198564 0.761549 0)
(-0.16352 0.688117 0)
(-0.00474839 0.25993 0)
(-0.0173845 0.237843 0)
(0.112067 0.54049 0)
(0.208618 0.8355 0)
(0.188309 0.869935 0)
(0.139134 0.902968 0)
(0.0993352 0.956374 0)
(0.110181 1.03966 0)
(0.208077 0.803047 0)
(0.261991 0.469481 0)
(0.242019 0.36041 0)
(0.182619 0.575185 0)
(0.199571 1.12377 0)
(0.114803 1.17352 0)
(0.0461364 1.15955 0)
(0.0038022 1.16159 0)
(-0.033827 1.1611 0)
(-0.0892656 1.18773 0)
(-0.18725 1.19232 0)
(-0.222459 0.961695 0)
(-0.270552 0.407504 0)
(-0.324805 0.394339 0)
(-0.335295 0.567978 0)
(-0.225892 0.860281 0)
(-0.126683 0.978526 0)
(-0.145925 0.887494 0)
(-0.183909 0.824733 0)
(-0.236042 0.787978 0)
(-0.239762 0.754096 0)
(-0.131122 0.505697 0)
(0.0462579 0.200656 0)
(-0.0375909 0.230941 0)
(0.0478711 0.392456 0)
(0.180613 0.758958 0)
(0.221276 0.898983 0)
(0.162657 0.919068 0)
(0.127398 0.962678 0)
(0.162535 0.973495 0)
(0.287763 0.684474 0)
(0.3223 0.495173 0)
(0.288692 0.439235 0)
(0.250623 0.594246 0)
(0.164496 1.20745 0)
(0.0935432 1.23326 0)
(0.0306941 1.19137 0)
(0.00457252 1.16253 0)
(-0.0124923 1.17979 0)
(-0.047653 1.22129 0)
(-0.127137 1.29124 0)
(-0.187755 1.02897 0)
(-0.317429 0.48392 0)
(-0.361259 0.486141 0)
(-0.38999 0.545598 0)
(-0.314652 0.722296 0)
(-0.186133 0.939602 0)
(-0.180553 0.898402 0)
(-0.231334 0.860109 0)
(-0.299249 0.808278 0)
(-0.21741 0.652906 0)
(-0.0425882 0.322952 0)
(0.0547181 0.222324 0)
(-0.0308918 0.254665 0)
(-0.00948776 0.305739 0)
(0.104889 0.595109 0)
(0.208312 0.920052 0)
(0.17218 0.94201 0)
(0.157387 0.961936 0)
(0.241789 0.853951 0)
(0.361602 0.617791 0)
(0.361202 0.544342 0)
(0.312196 0.52145 0)
(0.2312 0.701662 0)
(0.0520118 1.32788 0)
(0.000327489 1.28288 0)
(-0.024107 1.17819 0)
(-0.00389654 1.13175 0)
(0.0285673 1.14548 0)
(0.0429302 1.22773 0)
(0.0161878 1.34983 0)
(-0.0681011 1.18156 0)
(-0.29584 0.607408 0)
(-0.356016 0.581751 0)
(-0.410388 0.579189 0)
(-0.398497 0.644317 0)
(-0.283283 0.846056 0)
(-0.218729 0.935672 0)
(-0.257569 0.903066 0)
(-0.272065 0.808773 0)
(-0.109949 0.435024 0)
(0.0531437 0.246337 0)
(0.0377371 0.275342 0)
(-0.0253302 0.289323 0)
(-0.0451506 0.282433 0)
(0.0185581 0.457704 0)
(0.121946 0.887652 0)
(0.170608 0.960332 0)
(0.238676 0.920817 0)
(0.362172 0.739307 0)
(0.417335 0.630392 0)
(0.365789 0.626934 0)
(0.285169 0.623493 0)
(0.0855182 0.924869 0)
(-0.146031 1.45464 0)
(-0.156181 1.28969 0)
(-0.122951 1.13107 0)
(-0.0258815 1.05385 0)
(0.0888326 1.07325 0)
(0.179892 1.18268 0)
(0.21347 1.36527 0)
(0.162049 1.38369 0)
(-0.146729 0.831814 0)
(-0.309488 0.677311 0)
(-0.403351 0.664896 0)
(-0.459971 0.658699 0)
(-0.411369 0.752122 0)
(-0.298373 0.906928 0)
(-0.239604 0.937271 0)
(-0.138766 0.704892 0)
(0.0159304 0.288695 0)
(0.0765537 0.242177 0)
(0.0281061 0.340589 0)
(-0.0224674 0.335707 0)
(-0.0595988 0.294083 0)
(-0.0491434 0.397552 0)
(0.0415733 0.794011 0)
(0.186431 0.881113 0)
(0.356052 0.805576 0)
(0.457042 0.707507 0)
(0.436577 0.706128 0)
(0.324029 0.748975 0)
(0.134455 0.827701 0)
(-0.254007 1.24577 0)
(-0.387278 1.50503 0)
(-0.324894 1.25623 0)
(-0.198197 1.0201 0)
(-0.0412577 0.912957 0)
(0.120286 0.935618 0)
(0.279559 1.07613 0)
(0.40777 1.32953 0)
(0.446649 1.51479 0)
(0.246398 1.17376 0)
(-0.152013 0.869356 0)
(-0.346493 0.791935 0)
(-0.470013 0.743155 0)
(-0.491812 0.733969 0)
(-0.390737 0.810711 0)
(-0.215168 0.856684 0)
(-0.0335296 0.571368 0)
(0.0522887 0.263796 0)
(0.0546268 0.251994 0)
(0.00900912 0.397928 0)
(-0.0180809 0.383852 0)
(-0.0538392 0.322219 0)
(-0.0635092 0.375989 0)
(0.0369275 0.679711 0)
(0.241473 0.743108 0)
(0.421004 0.71764 0)
(0.475803 0.736095 0)
(0.397375 0.834648 0)
(0.152426 0.960988 0)
(-0.281103 1.20434 0)
(-0.545181 1.4924 0)
(-0.513881 1.44177 0)
(-0.316812 1.10754 0)
(-0.142649 0.877302 0)
(-0.0241143 0.799479 0)
(0.0790839 0.814093 0)
(0.212419 0.919472 0)
(0.405268 1.17644 0)
(0.597636 1.47861 0)
(0.587612 1.47793 0)
(0.291595 1.24076 0)
(-0.138159 1.01798 0)
(-0.408203 0.877359 0)
(-0.491784 0.768532 0)
(-0.430354 0.730298 0)
(-0.235898 0.716977 0)
(-0.0395259 0.483988 0)
(0.00634249 0.268509 0)
(0.0106663 0.248667 0)
(-0.0241726 0.421644 0)
(-0.00841488 0.418653 0)
(-0.0259242 0.343261 0)
(-0.0246529 0.358023 0)
(0.0786514 0.53906 0)
(0.281162 0.602103 0)
(0.397123 0.655107 0)
(0.402222 0.786353 0)
(0.220295 1.04364 0)
(-0.262947 1.3686 0)
(-0.562674 1.51921 0)
(-0.574585 1.49327 0)
(-0.360792 1.23947 0)
(-0.137494 0.949303 0)
(-0.0312063 0.822002 0)
(0.00367463 0.786033 0)
(0.0259112 0.793361 0)
(0.0742456 0.842243 0)
(0.205621 0.994564 0)
(0.445112 1.2857 0)
(0.641722 1.51146 0)
(0.605116 1.55674 0)
(0.302507 1.42825 0)
(-0.184014 1.10598 0)
(-0.399841 0.828016 0)
(-0.398611 0.659319 0)
(-0.269373 0.569318 0)
(-0.115402 0.405975 0)
(-0.0634942 0.258186 0)
(-0.0398992 0.229008 0)
(-0.045012 0.400097 0)
(-0.000190515 0.432864 0)
(0.00720169 0.344956 0)
(0.0305774 0.324156 0)
(0.127006 0.409091 0)
(0.256887 0.487228 0)
(0.323669 0.609314 0)
(0.241937 0.892842 0)
(-0.110775 1.42788 0)
(-0.437691 1.66857 0)
(-0.479136 1.57264 0)
(-0.306124 1.34131 0)
(-0.100311 1.07732 0)
(0.000579659 0.906299 0)
(0.0184689 0.845141 0)
(0.0148949 0.825659 0)
(0.0101973 0.828982 0)
(0.0113141 0.856206 0)
(0.0431667 0.928457 0)
(0.163092 1.11462 0)
(0.373375 1.3783 0)
(0.541073 1.62271 0)
(0.485101 1.71901 0)
(0.182246 1.48952 0)
(-0.226252 0.95094 0)
(-0.336278 0.607147 0)
(-0.277053 0.458756 0)
(-0.185122 0.325435 0)
(-0.120908 0.223366 0)
(-0.0749795 0.192432 0)
(-0.0612877 0.353922 0)
(0.00214012 0.424627 0)
(0.0238835 0.335625 0)
(0.0650829 0.268681 0)
(0.156514 0.31019 0)
(0.233292 0.427891 0)
(0.172221 0.683225 0)
(-0.0390428 1.16983 0)
(-0.212487 1.59812 0)
(-0.243721 1.76181 0)
(-0.117764 1.53472 0)
(-0.0445507 1.28637 0)
(0.00916088 1.10325 0)
(0.0204734 0.978723 0)
(0.0138172 0.917499 0)
(0.0134812 0.895355 0)
(0.0155452 0.896868 0)
(0.0177303 0.928261 0)
(0.0161326 0.995884 0)
(0.0386457 1.13468 0)
(0.0985669 1.3251 0)
(0.163676 1.5842 0)
(0.290955 1.7992 0)
(0.265169 1.63585 0)
(0.0989754 1.29765 0)
(-0.192486 0.69611 0)
(-0.283427 0.394406 0)
(-0.232645 0.254909 0)
(-0.160405 0.173309 0)
(-0.0971485 0.143445 0)
(-0.0668872 0.28085 0)
(0.0367292 0.40669 0)
(0.0304742 0.356617 0)
(0.0714959 0.200911 0)
(0.221101 0.230379 0)
(0.279539 0.403996 0)
(0.00539044 0.90006 0)
(-0.261743 1.30489 0)
(-0.102528 1.59032 0)
(0.14055 1.69143 0)
(0.267015 1.52072 0)
(0.10366 1.34666 0)
(0.00163584 1.17695 0)
(-0.0232206 1.07016 0)
(-0.00910101 1.01919 0)
(0.00907045 0.99752 0)
(0.0251457 0.999669 0)
(0.0446207 1.01721 0)
(0.0571373 1.07064 0)
(0.0245446 1.16997 0)
(-0.101264 1.34198 0)
(-0.270761 1.5316 0)
(-0.105934 1.69765 0)
(0.149652 1.60458 0)
(0.318124 1.36606 0)
(-0.0388044 0.96863 0)
(-0.332064 0.369425 0)
(-0.278289 0.181472 0)
(-0.183393 0.107383 0)
(-0.103671 0.0913197 0)
(-0.0596664 0.223463 0)
(0.119676 0.356496 0)
(0.0437667 0.467354 0)
(0.0756673 0.0991608 0)
(0.267453 0.108427 0)
(0.352241 0.421736 0)
(0.112647 1.26556 0)
(-0.158646 1.10373 0)
(0.0389793 1.35917 0)
(0.28658 1.37352 0)
(0.379324 1.51977 0)
(0.284804 1.38721 0)
(0.17849 1.09755 0)
(0.0948445 0.932297 0)
(0.0462484 0.862206 0)
(0.0184361 0.85244 0)
(-0.00629228 0.84437 0)
(-0.0413 0.868459 0)
(-0.0949461 0.932865 0)
(-0.188204 1.16101 0)
(-0.307508 1.47063 0)
(-0.388566 1.542 0)
(-0.273539 1.34853 0)
(0.000799161 1.37414 0)
(0.202034 1.24676 0)
(-0.0520535 1.42972 0)
(-0.338109 0.387699 0)
(-0.308535 0.0630339 0)
(-0.191594 0.00949878 0)
(-0.0985656 0.0498233 0)
(-0.0346273 0.146677 0)
(0.0177572 0.208606 0)
(0.0582081 0.567408 0)
(0.0573326 0.00127049 0)
(0.21541 -0.0376967 0)
(0.323657 0.413206 0)
(0.281945 1.44097 0)
(0.158761 1.22807 0)
(0.146857 1.1471 0)
(0.228788 1.355 0)
(0.30535 1.52658 0)
(0.38494 1.44945 0)
(0.391478 1.29512 0)
(0.304516 1.20177 0)
(0.177621 1.10447 0)
(0.0554841 1.0752 0)
(-0.0652402 1.07497 0)
(-0.195447 1.12882 0)
(-0.323512 1.18001 0)
(-0.40247 1.30456 0)
(-0.367244 1.41679 0)
(-0.279488 1.51282 0)
(-0.210401 1.31206 0)
(-0.134427 1.11738 0)
(-0.116084 1.34407 0)
(-0.129663 1.45984 0)
(-0.251751 0.495892 0)
(-0.286127 -0.0246814 0)
(-0.151165 -0.102096 0)
(-0.0706526 0.0530964 0)
(-0.0240633 0.110607 0)
(-0.0203818 0.257082 0)
(0.0992785 0.470513 0)
(0.105519 0.0266408 0)
(0.117119 -0.245312 0)
(0.197844 0.398733 0)
(0.274957 1.27555 0)
(0.267836 1.22625 0)
(0.203811 1.20713 0)
(0.158312 1.20929 0)
(0.211452 1.25645 0)
(0.28175 1.19442 0)
(0.297837 1.12687 0)
(0.250015 1.03748 0)
(0.163885 1.00123 0)
(0.0513112 0.967524 0)
(-0.0659247 0.981738 0)
(-0.172285 0.9959 0)
(-0.258029 1.05845 0)
(-0.296863 1.12478 0)
(-0.275148 1.22117 0)
(-0.194503 1.2376 0)
(-0.145404 1.2209 0)
(-0.199807 1.19136 0)
(-0.238335 1.29036 0)
(-0.150589 1.28344 0)
(-0.20235 0.664482 0)
(-0.228164 -0.188912 0)
(-0.148903 -0.146717 0)
(-0.090259 0.0351345 0)
(-0.0312244 0.0611282 0)
(-0.00871403 0.210577 0)
(0.0974297 0.369617 0)
(0.0943205 0.138367 0)
(0.0231249 -0.222681 0)
(0.0900045 0.244623 0)
(0.217604 1.17095 0)
(0.218904 1.19075 0)
(0.195073 1.13366 0)
(0.174163 1.16125 0)
(0.18648 1.1669 0)
(0.210098 1.17018 0)
(0.205663 1.11303 0)
(0.17564 1.08803 0)
(0.114174 1.04129 0)
(0.0377299 1.03879 0)
(-0.0437175 1.02963 0)
(-0.11843 1.0632 0)
(-0.173276 1.08097 0)
(-0.205308 1.14016 0)
(-0.203076 1.15946 0)
(-0.182018 1.18937 0)
(-0.167824 1.14865 0)
(-0.195896 1.16295 0)
(-0.204033 1.20152 0)
(-0.187164 1.19145 0)
(-0.161246 0.633848 0)
(-0.131709 -0.136438 0)
(-0.131501 -0.228686 0)
(-0.107947 0.0281407 0)
(-0.0209796 -0.00519607 0)
(-0.0213153 0.181453 0)
(0.0412644 0.298011 0)
(0.0263506 0.171499 0)
(-0.0214456 -0.203634 0)
(0.0144672 0.0832534 0)
(0.151762 1.12172 0)
(0.177662 1.15604 0)
(0.179464 1.16541 0)
(0.164847 1.14744 0)
(0.166371 1.17712 0)
(0.162975 1.15304 0)
(0.152756 1.15345 0)
(0.123299 1.11523 0)
(0.081009 1.1146 0)
(0.0277441 1.09329 0)
(-0.0278048 1.10929 0)
(-0.0788044 1.10603 0)
(-0.120871 1.13952 0)
(-0.1466 1.14385 0)
(-0.159403 1.17833 0)
(-0.159687 1.16359 0)
(-0.165167 1.17772 0)
(-0.180978 1.15554 0)
(-0.192378 1.22245 0)
(-0.209076 1.16903 0)
(-0.129621 0.508926 0)
(-0.0306185 -0.165722 0)
(-0.0476945 -0.16354 0)
(-0.0644386 -0.021336 0)
(-0.00625015 -0.0526742 0)
(-0.0397053 0.176358 0)
(0.00796724 0.281536 0)
(-0.00929027 0.180991 0)
(-0.0515701 -0.147657 0)
(-0.0599146 -0.0265978 0)
(0.0758402 1.03091 0)
(0.16628 1.16335 0)
(0.16125 1.14484 0)
(0.152333 1.17331 0)
(0.143809 1.15854 0)
(0.135405 1.17759 0)
(0.118353 1.15525 0)
(0.0943922 1.16309 0)
(0.0606642 1.14308 0)
(0.0224547 1.15499 0)
(-0.0175114 1.14294 0)
(-0.0553912 1.16215 0)
(-0.0868152 1.15464 0)
(-0.111529 1.17925 0)
(-0.126149 1.16824 0)
(-0.13926 1.18748 0)
(-0.147008 1.16269 0)
(-0.165942 1.19336 0)
(-0.172455 1.19941 0)
(-0.197111 1.17641 0)
(-0.0810142 0.352764 0)
(0.0190259 -0.201116 0)
(0.0107137 -0.139247 0)
(-0.0141811 -0.0497802 0)
(0.0106339 -0.0681843 0)
(-0.0548482 0.188876 0)
(-0.0157694 0.253223 0)
(-0.0367747 0.185701 0)
(-0.0833868 -0.0801784 0)
(-0.126696 -0.0787267 0)
(0.0234471 0.868871 0)
(0.187846 1.14377 0)
(0.160538 1.17096 0)
(0.141823 1.1573 0)
(0.131172 1.18849 0)
(0.115629 1.17307 0)
(0.0988847 1.18846 0)
(0.0756469 1.17297 0)
(0.0492584 1.18697 0)
(0.0193785 1.17381 0)
(-0.0109056 1.18829 0)
(-0.0396661 1.17679 0)
(-0.0658669 1.19289 0)
(-0.0863743 1.17996 0)
(-0.10395 1.19644 0)
(-0.117009 1.17447 0)
(-0.128992 1.19075 0)
(-0.14209 1.17117 0)
(-0.156098 1.22069 0)
(-0.161277 1.14794 0)
(-0.0338444 0.189623 0)
(0.050663 -0.222306 0)
(0.0464923 -0.119152 0)
(0.0130541 -0.0450862 0)
(0.0221994 -0.0614661 0)
(-0.0620784 0.208407 0)
(-0.0188317 0.249297 0)
(-0.0543382 0.17723 0)
(-0.114053 -0.00451333 0)
(-0.16436 -0.099041 0)
(0.000659879 0.587065 0)
(0.215139 1.15438 0)
(0.15958 1.16253 0)
(0.138578 1.1882 0)
(0.120974 1.18051 0)
(0.104783 1.20719 0)
(0.0847458 1.19052 0)
(0.064736 1.20721 0)
(0.0415804 1.19689 0)
(0.0178564 1.21021 0)
(-0.00609776 1.19981 0)
(-0.02949 1.21232 0)
(-0.0506394 1.19837 0)
(-0.070306 1.2109 0)
(-0.0856753 1.19133 0)
(-0.10163 1.20632 0)
(-0.111368 1.17742 0)
(-0.126438 1.2002 0)
(-0.138879 1.19795 0)
(-0.122156 1.10486 0)
(0.00839143 0.0328351 0)
(0.07286 -0.235718 0)
(0.0667348 -0.101488 0)
(0.0278108 -0.0353756 0)
(0.0285398 -0.0419273 0)
(-0.0546748 0.215184 0)
(0.00166778 0.235825 0)
(-0.0615462 0.185675 0)
(-0.121107 0.0753519 0)
(-0.152912 -0.125998 0)
(-0.00333973 0.307613 0)
(0.208154 1.15834 0)
(0.162236 1.20548 0)
(0.133637 1.18726 0)
(0.114434 1.21421 0)
(0.0944843 1.20294 0)
(0.0756865 1.22405 0)
(0.0559863 1.2101 0)
(0.0367599 1.22781 0)
(0.0167879 1.21638 0)
(-0.00288599 1.23046 0)
(-0.0218339 1.21661 0)
(-0.0404987 1.22826 0)
(-0.0570989 1.20939 0)
(-0.0740675 1.22468 0)
(-0.0886807 1.19683 0)
(-0.103458 1.20697 0)
(-0.119814 1.1812 0)
(-0.144072 1.21438 0)
(-0.0893863 1.03212 0)
(0.0485414 -0.102255 0)
(0.0904692 -0.239929 0)
(0.0797524 -0.0816377 0)
(0.0327789 -0.0102891 0)
(0.0324559 -0.018212 0)
(-0.0370654 0.190779 0)
(0.042972 0.248413 0)
(-0.0500574 0.19031 0)
(-0.0918616 0.117193 0)
(-0.112673 -0.153633 0)
(-0.0068304 0.0778178 0)
(0.178237 1.15045 0)
(0.158283 1.20732 0)
(0.127002 1.22435 0)
(0.103553 1.21136 0)
(0.0854308 1.23533 0)
(0.0662469 1.22196 0)
(0.0494286 1.24288 0)
(0.0322465 1.2297 0)
(0.0158417 1.24753 0)
(-0.0003454 1.23306 0)
(-0.0164399 1.24769 0)
(-0.0317295 1.22772 0)
(-0.0477982 1.24167 0)
(-0.0631453 1.21804 0)
(-0.0805265 1.22831 0)
(-0.0976978 1.1991 0)
(-0.127566 1.22128 0)
(-0.17216 1.2077 0)
(-0.0678487 0.916879 0)
(0.0872421 -0.199307 0)
(0.107309 -0.237965 0)
(0.0901374 -0.056464 0)
(0.0351059 0.00897805 0)
(0.0346921 0.00435277 0)
(-0.0438113 0.121077 0)
(0.069773 0.247154 0)
(-0.0144423 0.195399 0)
(-0.041375 0.131278 0)
(-0.067292 -0.165908 0)
(-0.00251103 -0.102047 0)
(0.134021 1.08808 0)
(0.139303 1.27006 0)
(0.10765 1.22399 0)
(0.0892007 1.2449 0)
(0.072734 1.231 0)
(0.0573188 1.25071 0)
(0.0423078 1.23959 0)
(0.0284583 1.2589 0)
(0.0146839 1.24668 0)
(0.00137882 1.26062 0)
(-0.0116005 1.24543 0)
(-0.0250246 1.257 0)
(-0.0383504 1.23614 0)
(-0.0535733 1.24707 0)
(-0.0689371 1.22284 0)
(-0.0900001 1.23726 0)
(-0.121976 1.22015 0)
(-0.186636 1.25287 0)
(-0.0407837 0.684048 0)
(0.109031 -0.263592 0)
(0.114552 -0.233854 0)
(0.0922883 -0.029492 0)
(0.0323677 0.0399259 0)
(0.0334301 0.0243249 0)
(-0.0579545 0.0888721 0)
(0.0618477 0.22556 0)
(0.0504011 0.194081 0)
(0.0259174 0.14374 0)
(-0.0194204 -0.159557 0)
(0.01008 -0.226818 0)
(0.0859511 1.04932 0)
(0.0926622 1.24616 0)
(0.0809172 1.26122 0)
(0.0694694 1.23525 0)
(0.0592036 1.25726 0)
(0.0469571 1.24429 0)
(0.0356826 1.26252 0)
(0.0243153 1.25318 0)
(0.0134904 1.26699 0)
(0.00300952 1.25546 0)
(-0.00758039 1.26627 0)
(-0.0181725 1.25004 0)
(-0.0296508 1.26038 0)
(-0.0416503 1.24096 0)
(-0.0553496 1.25498 0)
(-0.0709449 1.23216 0)
(-0.10231 1.2685 0)
(-0.144618 1.26138 0)
(-0.00332446 0.462919 0)
(0.112396 -0.293505 0)
(0.108726 -0.224125 0)
(0.082054 -0.00400567 0)
(0.0219931 0.0637784 0)
(0.0297127 0.0358941 0)
(-0.034246 0.0832465 0)
(0.0165136 0.110298 0)
(0.0681246 0.154208 0)
(0.0845068 0.155222 0)
(0.0342667 -0.13159 0)
(0.0252617 -0.298284 0)
(0.0427662 1.04564 0)
(0.0487728 1.26388 0)
(0.0514206 1.23578 0)
(0.0499391 1.25295 0)
(0.0450026 1.24678 0)
(0.0374323 1.26486 0)
(0.0288706 1.25481 0)
(0.0206228 1.27205 0)
(0.0123459 1.26115 0)
(0.00420319 1.27336 0)
(-0.0037194 1.25972 0)
(-0.0120306 1.26962 0)
(-0.0203036 1.25215 0)
(-0.0297605 1.26426 0)
(-0.0377426 1.24344 0)
(-0.0470227 1.26497 0)
(-0.0689702 1.24737 0)
(-0.0802697 1.26956 0)
(0.031066 0.298534 0)
(0.107103 -0.308677 0)
(0.100517 -0.207912 0)
(0.0730684 0.017302 0)
(0.0138302 0.0897271 0)
(0.0259845 0.0370174 0)
(-0.0114654 0.0867826 0)
(-0.010649 0.0701452 0)
(0.0307114 0.0818342 0)
(0.0841224 0.115565 0)
(0.0701139 -0.0894632 0)
(0.043548 -0.316934 0)
(0.0138509 1.05048 0)
(0.0333841 1.22649 0)
(0.0347196 1.24377 0)
(0.0362411 1.2373 0)
(0.0340335 1.26246 0)
(0.0290052 1.25317 0)
(0.0234551 1.27168 0)
(0.0173207 1.26334 0)
(0.0112527 1.27686 0)
(0.00534221 1.2655 0)
(-0.000558539 1.27558 0)
(-0.00629598 1.26007 0)
(-0.0121594 1.2697 0)
(-0.0177988 1.25179 0)
(-0.0212782 1.26312 0)
(-0.0222882 1.24284 0)
(-0.0357286 1.26956 0)
(-0.026072 1.24253 0)
(0.056575 0.178564 0)
(0.0984484 -0.313539 0)
(0.0863087 -0.191558 0)
(0.0607272 0.0299403 0)
(0.0107041 0.109057 0)
(0.0260812 0.0315472 0)
(0.000505827 0.0827087 0)
(-0.00129239 0.0413819 0)
(0.00952864 0.0308134 0)
(0.0584858 0.0451609 0)
(0.0692724 -0.0680346 0)
(0.0593784 -0.300458 0)
(0.00319226 1.04454 0)
(0.0362482 1.23235 0)
(0.0242178 1.22069 0)
(0.027386 1.24537 0)
(0.0258545 1.24645 0)
(0.0230412 1.26686 0)
(0.0190568 1.26034 0)
(0.0148342 1.27703 0)
(0.0104633 1.26762 0)
(0.00606691 1.27835 0)
(0.00202099 1.26535 0)
(-0.00194499 1.2735 0)
(-0.00531225 1.25638 0)
(-0.00852987 1.26554 0)
(-0.00746333 1.24329 0)
(-0.00421773 1.25431 0)
(-0.00964037 1.23543 0)
(0.00799314 1.22132 0)
(0.0701041 0.0989567 0)
(0.0903267 -0.306486 0)
(0.071329 -0.170247 0)
(0.0531295 0.0325758 0)
(0.0168029 0.123174 0)
(0.0311032 0.0261049 0)
(0.00492053 0.0746179 0)
(0.0115561 0.0240217 0)
(0.0168011 -0.00475652 0)
(0.0360695 -0.0125686 0)
(0.0558212 -0.0752933 0)
(0.0635321 -0.266144 0)
(-0.00726786 1.03236 0)
(0.0377368 1.20507 0)
(0.0171054 1.22876 0)
(0.0212202 1.22614 0)
(0.0204638 1.25667 0)
(0.018764 1.25306 0)
(0.0161673 1.27194 0)
(0.0129614 1.26581 0)
(0.00978053 1.27856 0)
(0.00655573 1.26779 0)
(0.00347928 1.27616 0)
(0.00095461 1.26057 0)
(-0.0011241 1.26697 0)
(-0.00183534 1.24751 0)
(0.000940594 1.25145 0)
(0.00661924 1.23065 0)
(0.00267702 1.24205 0)
(0.0247063 1.18778 0)
(0.0752222 0.0371885 0)
(0.0825057 -0.290455 0)
(0.056842 -0.146993 0)
(0.0383139 0.0174555 0)
(0.0212333 0.128167 0)
(0.0411924 0.0278763 0)
(0.00684212 0.0579837 0)
(0.0205324 0.00529824 0)
(0.0299055 -0.0288581 0)
(0.0386204 -0.0510248 0)
(0.0565227 -0.103804 0)
(0.0616142 -0.225358 0)
(-0.0299596 1.01217 0)
(0.0230466 1.21234 0)
(0.01098 1.1958 0)
(0.0167913 1.23215 0)
(0.0166124 1.24033 0)
(0.0168808 1.26262 0)
(0.0145917 1.25923 0)
(0.0121381 1.27558 0)
(0.0092562 1.26754 0)
(0.00645745 1.27673 0)
(0.00382356 1.26426 0)
(0.00179828 1.26935 0)
(0.000471137 1.25115 0)
(0.00108733 1.25428 0)
(0.00442623 1.22658 0)
(0.0106841 1.23484 0)
(0.00740682 1.20794 0)
(0.0336558 1.16251 0)
(0.0766916 -0.013846 0)
(0.0752071 -0.266976 0)
(0.048782 -0.122916 0)
(0.0273799 0.00798184 0)
(0.0178924 0.100046 0)
(0.048505 0.038484 0)
(0.00795192 0.037152 0)
(0.0260453 -0.0177468 0)
(0.039626 -0.0531854 0)
(0.0477073 -0.0785328 0)
(0.0609645 -0.127031 0)
(0.0532303 -0.15302 0)
(-0.0612837 1.01061 0)
(0.00394114 1.16694 0)
(0.00882985 1.19506 0)
(0.0140975 1.2134 0)
(0.0167171 1.24758 0)
(0.0173589 1.24822 0)
(0.0152164 1.26807 0)
(0.0121427 1.26409 0)
(0.00901313 1.27603 0)
(0.00568452 1.26587 0)
(0.00268503 1.27187 0)
(0.000684603 1.25573 0)
(-0.00106111 1.25755 0)
(0.00066211 1.23511 0)
(0.00208942 1.23116 0)
(0.0106552 1.20041 0)
(0.00620423 1.20618 0)
(0.0399336 1.1304 0)
(0.0758564 -0.0553595 0)
(0.0700813 -0.239288 0)
(0.0458387 -0.105534 0)
(0.0260359 0.00139583 0)
(0.014165 0.0639508 0)
(0.0409781 0.0534717 0)
(0.00841468 0.0158493 0)
(0.0304158 -0.043003 0)
(0.0464917 -0.0793265 0)
(0.054475 -0.103682 0)
(0.0641125 -0.137987 0)
(0.0484076 -0.0659371 0)
(-0.0503992 1.01997 0)
(0.0154274 1.14256 0)
(0.0199969 1.16654 0)
(0.0217021 1.21641 0)
(0.022553 1.23228 0)
(0.0220819 1.25647 0)
(0.0178473 1.25765 0)
(0.0133884 1.27283 0)
(0.00877059 1.26601 0)
(0.00424642 1.27354 0)
(0.00017748 1.26085 0)
(-0.00302761 1.2632 0)
(-0.00536604 1.2426 0)
(-0.00423133 1.24091 0)
(-0.00454359 1.20624 0)
(0.00363711 1.19909 0)
(0.000432021 1.17486 0)
(0.0435818 1.0944 0)
(0.07199 -0.0857938 0)
(0.0651337 -0.21294 0)
(0.0429463 -0.0943652 0)
(0.0220944 -0.0096965 0)
(0.0119474 0.0365303 0)
(0.0214572 0.0580751 0)
(0.00895697 -0.00528245 0)
(0.0356384 -0.0698303 0)
(0.0539655 -0.106508 0)
(0.0599651 -0.128069 0)
(0.063454 -0.139806 0)
(0.0595277 0.00255512 0)
(-0.00387405 0.975501 0)
(0.0526683 1.10286 0)
(0.0514319 1.16161 0)
(0.0411476 1.19686 0)
(0.0362969 1.23575 0)
(0.0302774 1.24768 0)
(0.0229488 1.26529 0)
(0.0153207 1.26697 0)
(0.00851276 1.27506 0)
(0.00190572 1.2654 0)
(-0.00392028 1.26901 0)
(-0.0088128 1.25252 0)
(-0.0132234 1.24951 0)
(-0.01316 1.22114 0)
(-0.0172269 1.2076 0)
(-0.0101931 1.17291 0)
(-0.0167837 1.15984 0)
(0.0396401 1.04837 0)
(0.0680763 -0.104302 0)
(0.0599019 -0.189154 0)
(0.0354625 -0.0882003 0)
(0.0131142 -0.0199052 0)
(0.00876958 0.0162994 0)
(0.00770304 0.0534102 0)
(0.0132611 -0.0314791 0)
(0.0449311 -0.0992587 0)
(0.0654394 -0.131862 0)
(0.0682842 -0.147515 0)
(0.0672578 -0.145189 0)
(0.0927049 0.0292507 0)
(0.0892542 0.961053 0)
(0.12163 1.10155 0)
(0.0978751 1.15451 0)
(0.0713849 1.20745 0)
(0.0552349 1.23064 0)
(0.0414168 1.25617 0)
(0.0290596 1.26226 0)
(0.0176291 1.27258 0)
(0.00768877 1.27184 0)
(-0.00144036 1.27464 0)
(-0.0096684 1.26285 0)
(-0.0172963 1.25582 0)
(-0.0236692 1.2367 0)
(-0.0281931 1.22237 0)
(-0.0346902 1.18958 0)
(-0.0372751 1.169 0)
(-0.0499242 1.132 0)
(0.0253091 0.999926 0)
(0.0661873 -0.111045 0)
(0.0541223 -0.16564 0)
(0.0230405 -0.0849295 0)
(0.00791434 -0.0315317 0)
(0.00435536 0.00321022 0)
(0.001715 0.0499831 0)
(0.0297773 -0.0557023 0)
(0.0610516 -0.118987 0)
(0.0807237 -0.14848 0)
(0.0772085 -0.16241 0)
(0.0769786 -0.163657 0)
(0.115077 0.0203923 0)
(0.196284 0.91036 0)
(0.218372 1.12572 0)
(0.149589 1.1917 0)
(0.1032 1.21546 0)
(0.0738721 1.2526 0)
(0.0518822 1.25807 0)
(0.0346449 1.27466 0)
(0.0191915 1.27282 0)
(0.00613846 1.27861 0)
(-0.00596846 1.27256 0)
(-0.0171243 1.26854 0)
(-0.028063 1.2511 0)
(-0.0374768 1.24153 0)
(-0.046524 1.21386 0)
(-0.0571207 1.19504 0)
(-0.0673895 1.15398 0)
(-0.0879844 1.12617 0)
(0.0109071 0.883969 0)