/*--------------------------------*- C++ -*----------------------------------*\
| =========                 |                                                 |
| \\      /  F ield         | OpenFOAM: The Open Source CFD Toolbox           |
|  \\    /   O peration     | Version:  2.3.0                                 |
|   \\  /    A nd           | Web:      www.OpenFOAM.org                      |
|    \\/     M anipulation  |                                                 |
\*---------------------------------------------------------------------------*/
FoamFile
{
    version     2.0;
    format      ascii;
    class       volScalarField;
    location    "0.89";
    object      pMean;
}
// * * * * * * * * * * * * * * * * * * * * * * * * * * * * * * * * * * * * * //

dimensions      [1 -1 -2 0 0 0 0];

internalField   nonuniform List<scalar> 
6000
(
106365
106364
106362
106359
106357
106357
106356
106355
106355
106355
106356
106356
106357
106357
106358
106361
106363
106361
106360
106359
106358
106357
106356
106354
106350
106348
106349
106350
106350
106352
106295
106294
106292
106289
106288
106287
106285
106284
106283
106285
106286
106286
106287
106287
106288
106290
106291
106291
106290
106289
106287
106286
106285
106282
106280
106280
106281
106282
106282
106284
106243
106242
106240
106239
106238
106237
106236
106235
106235
106237
106238
106239
106239
106238
106238
106240
106243
106243
106242
106241
106239
106237
106235
106234
106233
106234
106233
106233
106232
106233
106187
106186
106185
106185
106185
106184
106184
106184
106185
106186
106188
106189
106188
106187
106188
106189
106192
106192
106191
106189
106187
106185
106184
106183
106183
106182
106181
106180
106179
106180
106131
106131
106131
106131
106131
106132
106133
106134
106135
106136
106137
106138
106137
106138
106140
106142
106142
106141
106139
106137
106136
106135
106133
106132
106131
106129
106127
106126
106126
106127
106078
106078
106078
106078
106078
106080
106082
106084
106085
106086
106086
106087
106088
106092
106094
106095
106094
106091
106089
106087
106086
106085
106083
106081
106078
106075
106073
106073
106074
106076
106028
106027
106027
106027
106028
106030
106032
106034
106034
106034
106035
106038
106042
106046
106048
106048
106045
106042
106040
106038
106037
106036
106033
106029
106026
106022
106022
106023
106025
106028
105979
105978
105977
105978
105979
105982
105984
105984
105983
105983
105986
105990
105995
105998
106000
105999
105995
105993
105990
105988
105987
105985
105983
105980
105978
105976
105975
105977
105980
105983
105931
105929
105928
105929
105932
105935
105937
105937
105935
105935
105938
105942
105946
105949
105950
105948
105946
105943
105941
105939
105937
105937
105936
105935
105933
105932
105932
105934
105937
105940
105882
105880
105879
105880
105883
105888
105891
105891
105889
105889
105891
105895
105898
105900
105900
105899
105898
105896
105894
105891
105890
105891
105891
105890
105889
105888
105889
105891
105895
105897
105834
105832
105831
105832
105836
105840
105845
105846
105844
105843
105845
105848
105851
105852
105852
105851
105851
105850
105848
105845
105844
105845
105845
105845
105845
105845
105846
105849
105853
105855
105786
105784
105783
105784
105788
105792
105797
105800
105799
105797
105798
105800
105802
105804
105804
105805
105805
105804
105801
105799
105799
105798
105798
105799
105800
105802
105804
105807
105811
105813
105738
105737
105736
105737
105739
105744
105748
105753
105753
105751
105750
105751
105754
105756
105757
105758
105759
105758
105755
105753
105752
105750
105749
105751
105754
105757
105762
105766
105769
105771
105691
105690
105689
105689
105691
105695
105699
105704
105707
105705
105703
105702
105705
105708
105710
105712
105712
105711
105708
105706
105703
105701
105700
105701
105706
105712
105718
105724
105727
105728
105643
105642
105642
105641
105642
105646
105650
105655
105659
105659
105656
105654
105657
105661
105663
105665
105665
105662
105660
105657
105653
105651
105649
105651
105657
105665
105672
105679
105682
105682
105595
105594
105594
105593
105594
105596
105600
105605
105610
105611
105609
105607
105609
105613
105615
105617
105616
105614
105611
105607
105603
105600
105599
105601
105607
105615
105624
105630
105633
105633
105546
105546
105546
105546
105545
105547
105550
105555
105560
105563
105562
105561
105562
105565
105568
105569
105568
105565
105562
105557
105553
105550
105549
105551
105557
105565
105573
105578
105581
105581
105498
105498
105499
105499
105498
105498
105501
105505
105510
105515
105515
105515
105515
105518
105520
105521
105519
105516
105512
105508
105503
105500
105500
105502
105507
105513
105520
105525
105527
105528
105450
105451
105452
105452
105451
105451
105453
105456
105461
105466
105469
105470
105470
105471
105472
105472
105470
105467
105463
105459
105454
105452
105451
105453
105458
105463
105468
105472
105474
105475
105402
105403
105405
105405
105404
105404
105406
105408
105412
105417
105421
105423
105423
105423
105424
105423
105421
105418
105414
105410
105406
105405
105405
105406
105409
105413
105417
105420
105422
105423
105354
105355
105357
105358
105357
105357
105359
105361
105364
105368
105373
105375
105376
105376
105375
105373
105371
105370
105366
105362
105360
105359
105358
105358
105360
105363
105367
105370
105372
105373
105307
105308
105310
105311
105311
105311
105312
105315
105317
105320
105324
105327
105328
105328
105326
105324
105322
105321
105318
105315
105313
105313
105312
105312
105313
105316
105319
105323
105324
105325
105260
105261
105262
105264
105265
105265
105266
105268
105270
105272
105274
105278
105279
105279
105277
105274
105273
105272
105271
105268
105267
105267
105266
105266
105267
105269
105272
105275
105277
105277
105214
105214
105215
105218
105219
105220
105221
105222
105223
105224
105225
105228
105229
105229
105228
105225
105224
105224
105223
105221
105220
105220
105220
105220
105221
105222
105224
105228
105229
105228
105168
105168
105170
105173
105175
105175
105175
105176
105176
105176
105177
105179
105180
105180
105179
105177
105176
105176
105176
105174
105173
105174
105174
105175
105175
105175
105177
105179
105180
105180
105124
105124
105125
105128
105131
105131
105131
105130
105129
105129
105130
105130
105130
105131
105131
105131
105130
105130
105129
105127
105126
105127
105128
105128
105128
105129
105130
105130
105130
105130
105081
105080
105081
105083
105086
105087
105086
105083
105082
105082
105082
105083
105082
105083
105084
105084
105084
105084
105083
105080
105079
105080
105081
105082
105081
105081
105082
105081
105081
105081
105038
105037
105038
105039
105042
105042
105040
105036
105035
105034
105035
105036
105036
105035
105037
105039
105040
105040
105038
105035
105033
105033
105034
105035
105034
105034
105034
105033
105032
105032
104994
104993
104994
104995
104996
104996
104992
104989
104987
104987
104988
104989
104989
104989
104991
104994
104996
104997
104994
104990
104987
104987
104988
104988
104987
104987
104986
104985
104984
104984
104949
104947
104948
104949
104950
104948
104945
104942
104940
104941
104942
104943
104944
104944
104946
104949
104952
104953
104951
104946
104942
104941
104942
104941
104940
104941
104939
104938
104937
104937
104903
104901
104902
104902
104903
104902
104898
104896
104895
104895
104896
104898
104899
104900
104901
104904
104908
104910
104907
104901
104897
104896
104896
104894
104895
104895
104893
104891
104890
104889
104856
104854
104855
104856
104856
104855
104853
104850
104850
104851
104852
104853
104854
104856
104857
104860
104863
104865
104863
104857
104853
104851
104850
104849
104849
104849
104847
104844
104843
104842
104808
104808
104809
104809
104810
104810
104808
104806
104806
104806
104807
104809
104810
104811
104812
104815
104818
104820
104817
104812
104809
104807
104806
104804
104805
104804
104800
104797
104795
104795
104760
104760
104762
104763
104764
104764
104763
104762
104761
104762
104763
104764
104765
104767
104768
104770
104773
104774
104771
104767
104766
104764
104762
104761
104761
104758
104754
104750
104748
104747
104710
104711
104714
104717
104718
104719
104718
104717
104717
104717
104718
104719
104721
104722
104723
104725
104728
104728
104725
104723
104722
104721
104719
104717
104716
104712
104707
104703
104700
104700
104660
104662
104665
104669
104671
104673
104673
104672
104672
104672
104673
104674
104675
104677
104678
104680
104682
104682
104680
104678
104678
104676
104675
104674
104672
104666
104661
104656
104652
104652
104610
104612
104615
104619
104623
104626
104627
104627
104626
104626
104627
104628
104630
104631
104633
104635
104636
104636
104635
104633
104632
104631
104630
104629
104626
104620
104613
104608
104605
104604
104561
104563
104566
104570
104575
104579
104581
104581
104580
104580
104581
104582
104583
104585
104587
104589
104590
104589
104589
104588
104586
104585
104585
104584
104579
104572
104566
104561
104558
104557
104514
104516
104518
104521
104526
104531
104534
104534
104533
104533
104534
104536
104537
104539
104541
104543
104544
104543
104543
104542
104540
104539
104539
104537
104531
104524
104518
104514
104512
104512
104469
104470
104471
104473
104477
104483
104487
104488
104487
104487
104488
104490
104491
104493
104495
104497
104498
104497
104497
104496
104493
104493
104492
104489
104484
104477
104472
104469
104468
104467
104423
104423
104424
104426
104430
104435
104440
104441
104441
104441
104443
104444
104446
104447
104449
104451
104452
104451
104450
104449
104447
104446
104445
104442
104436
104431
104427
104425
104424
104424
104377
104376
104377
104380
104383
104388
104393
104395
104396
104396
104398
104399
104400
104402
104403
104404
104405
104404
104404
104403
104401
104399
104397
104394
104390
104386
104383
104382
104381
104382
104331
104330
104331
104334
104337
104342
104347
104349
104351
104352
104354
104354
104355
104356
104357
104358
104358
104358
104357
104356
104354
104352
104350
104348
104345
104342
104340
104339
104339
104339
104285
104284
104286
104288
104292
104296
104300
104303
104305
104307
104309
104310
104310
104310
104311
104311
104311
104311
104310
104310
104308
104306
104304
104302
104301
104299
104297
104296
104296
104297
104240
104240
104241
104244
104247
104251
104254
104257
104259
104261
104263
104264
104264
104264
104265
104265
104264
104264
104263
104264
104263
104260
104258
104257
104256
104255
104254
104254
104253
104253
104197
104197
104198
104200
104202
104205
104207
104210
104212
104215
104216
104217
104217
104217
104218
104217
104217
104216
104216
104217
104217
104215
104213
104212
104212
104211
104210
104210
104209
104209
104153
104153
104154
104156
104158
104159
104161
104163
104165
104167
104168
104169
104169
104169
104170
104169
104169
104169
104169
104169
104170
104169
104167
104167
104167
104166
104165
104164
104164
104164
104108
104109
104110
104111
104113
104114
104115
104116
104117
104117
104117
104118
104119
104119
104121
104121
104121
104121
104121
104122
104122
104122
104121
104121
104120
104119
104118
104117
104117
104117
104062
104062
104064
104065
104067
104068
104068
104068
104067
104065
104065
104066
104068
104069
104071
104073
104073
104073
104073
104074
104074
104074
104073
104073
104071
104070
104069
104069
104068
104068
104014
104015
104016
104018
104019
104020
104020
104018
104014
104012
104012
104014
104016
104019
104022
104024
104025
104025
104027
104028
104026
104024
104023
104022
104021
104019
104019
104019
104019
104018
103965
103965
103967
103968
103969
103970
103969
103965
103960
103958
103959
103962
103966
103969
103973
103975
103976
103978
103980
103980
103977
103974
103971
103970
103969
103968
103968
103969
103969
103968
103914
103914
103915
103916
103917
103918
103916
103911
103906
103906
103909
103913
103917
103921
103924
103926
103928
103930
103933
103932
103927
103922
103918
103917
103916
103916
103917
103918
103918
103917
103861
103860
103859
103861
103862
103864
103863
103858
103855
103857
103861
103865
103869
103872
103875
103877
103879
103882
103884
103881
103875
103869
103865
103864
103865
103865
103866
103867
103867
103866
103806
103804
103804
103806
103808
103810
103810
103808
103808
103811
103815
103818
103822
103824
103826
103828
103830
103833
103831
103828
103822
103816
103813
103812
103813
103814
103815
103817
103816
103815
103753
103751
103752
103754
103757
103759
103760
103760
103762
103765
103769
103772
103775
103777
103778
103779
103781
103780
103778
103774
103768
103763
103761
103761
103762
103764
103766
103766
103766
103765
103702
103703
103704
103706
103708
103711
103713
103714
103717
103720
103723
103726
103728
103730
103730
103731
103730
103726
103724
103720
103714
103711
103710
103711
103713
103715
103716
103716
103716
103716
103656
103656
103658
103660
103663
103666
103669
103671
103672
103675
103678
103681
103682
103683
103683
103682
103679
103674
103671
103667
103663
103661
103661
103663
103665
103667
103667
103667
103667
103667
103612
103612
103614
103616
103619
103623
103626
103628
103629
103630
103633
103635
103636
103637
103637
103635
103631
103627
103623
103620
103617
103615
103615
103616
103618
103619
103619
103618
103619
103619
103569
103568
103570
103572
103575
103580
103583
103585
103586
103587
103589
103590
103591
103591
103591
103589
103586
103583
103580
103577
103574
103572
103572
103572
103572
103572
103571
103570
103570
103571
103525
103525
103526
103528
103532
103537
103541
103543
103544
103545
103546
103546
103547
103547
103546
103545
103543
103541
103538
103536
103533
103531
103530
103529
103528
103526
103524
103522
103522
103523
103480
103480
103482
103484
103488
103493
103497
103500
103502
103502
103503
103503
103503
103503
103502
103501
103500
103499
103497
103495
103492
103489
103488
103487
103485
103482
103478
103475
103474
103475
103434
103435
103436
103439
103443
103448
103454
103457
103459
103460
103460
103460
103460
103460
103459
103458
103457
103456
103454
103452
103449
103447
103445
103444
103442
103438
103433
103429
103427
103426
103386
103387
103389
103392
103397
103403
103409
103413
103416
103417
103417
103417
103416
103416
103416
103415
103414
103413
103411
103409
103406
103404
103402
103401
103398
103393
103388
103384
103381
103379
103337
103338
103341
103345
103350
103356
103363
103368
103373
103375
103374
103373
103373
103372
103372
103371
103370
103369
103367
103365
103362
103361
103359
103357
103353
103348
103342
103339
103335
103333
103288
103289
103292
103296
103302
103308
103316
103322
103327
103330
103330
103330
103329
103328
103327
103326
103325
103324
103323
103320
103318
103316
103314
103311
103307
103302
103296
103292
103288
103286
103240
103241
103244
103248
103254
103261
103268
103274
103279
103283
103285
103285
103284
103282
103281
103280
103279
103278
103277
103274
103272
103270
103268
103264
103260
103254
103248
103244
103240
103238
103194
103194
103196
103200
103206
103213
103220
103225
103230
103234
103237
103238
103238
103236
103235
103234
103233
103232
103230
103228
103225
103223
103220
103216
103212
103206
103200
103195
103192
103190
103148
103148
103150
103153
103159
103165
103172
103177
103180
103184
103188
103190
103190
103189
103187
103186
103185
103184
103182
103180
103177
103175
103172
103168
103163
103157
103152
103147
103144
103143
103104
103103
103105
103107
103112
103118
103124
103128
103131
103134
103138
103140
103140
103140
103139
103138
103137
103136
103134
103131
103128
103126
103123
103120
103115
103109
103104
103099
103096
103095
103061
103060
103061
103063
103066
103071
103076
103079
103081
103084
103086
103088
103089
103089
103089
103089
103089
103088
103085
103081
103079
103078
103075
103072
103068
103063
103058
103053
103050
103050
103017
103018
103018
103019
103021
103024
103028
103030
103031
103032
103034
103035
103036
103038
103039
103039
103039
103038
103034
103031
103030
103029
103028
103026
103022
103017
103012
103009
103006
103005
102972
102973
102974
102974
102976
102978
102981
102982
102981
102980
102981
102982
102983
102986
102987
102988
102988
102986
102983
102981
102980
102980
102981
102980
102977
102973
102969
102965
102963
102963
102923
102925
102927
102928
102930
102932
102933
102933
102931
102929
102929
102930
102932
102934
102936
102937
102936
102935
102933
102931
102931
102932
102933
102934
102933
102929
102926
102923
102921
102921
102871
102874
102876
102879
102881
102883
102885
102884
102881
102879
102879
102881
102883
102885
102887
102887
102886
102884
102882
102881
102882
102883
102886
102888
102888
102886
102883
102881
102879
102879
102819
102821
102824
102826
102830
102833
102835
102834
102832
102831
102832
102834
102836
102837
102838
102838
102836
102835
102833
102832
102832
102834
102838
102841
102842
102841
102840
102838
102836
102836
102766
102768
102770
102773
102777
102781
102783
102784
102783
102784
102786
102788
102790
102791
102791
102791
102789
102786
102784
102783
102783
102785
102789
102792
102794
102795
102794
102793
102792
102791
102714
102715
102717
102720
102724
102729
102732
102734
102735
102737
102740
102742
102744
102745
102745
102744
102742
102740
102737
102736
102735
102735
102738
102742
102745
102745
102746
102745
102744
102743
102663
102664
102667
102669
102673
102679
102683
102685
102688
102691
102694
102696
102698
102698
102698
102697
102696
102693
102691
102690
102688
102686
102687
102691
102693
102695
102694
102694
102694
102692
102615
102616
102618
102621
102624
102629
102634
102638
102641
102645
102648
102650
102651
102652
102651
102650
102649
102647
102645
102644
102641
102639
102638
102639
102642
102643
102643
102641
102641
102640
102568
102569
102571
102574
102577
102582
102586
102591
102595
102599
102602
102604
102605
102605
102605
102604
102602
102601
102599
102598
102596
102593
102591
102590
102591
102593
102591
102590
102589
102588
102522
102522
102524
102527
102531
102535
102539
102544
102549
102553
102556
102557
102558
102558
102558
102556
102555
102554
102553
102552
102550
102548
102546
102543
102542
102543
102541
102539
102537
102536
102476
102475
102477
102481
102485
102488
102492
102497
102502
102506
102509
102510
102511
102511
102510
102509
102508
102508
102507
102506
102505
102503
102501
102498
102495
102494
102492
102489
102486
102485
102429
102429
102431
102434
102438
102441
102445
102450
102455
102459
102461
102463
102464
102464
102463
102463
102462
102462
102462
102461
102460
102459
102456
102453
102449
102446
102443
102440
102437
102437
102382
102382
102384
102388
102392
102395
102399
102405
102409
102412
102414
102415
102416
102417
102417
102417
102417
102417
102417
102416
102415
102414
102411
102408
102403
102399
102396
102392
102389
102390
102335
102336
102339
102342
102346
102350
102354
102359
102364
102366
102368
102369
102370
102371
102372
102372
102372
102372
102372
102371
102370
102368
102366
102362
102357
102353
102349
102345
102343
102342
102288
102290
102293
102296
102300
102304
102309
102314
102318
102321
102322
102324
102325
102326
102326
102327
102327
102326
102326
102325
102324
102322
102320
102317
102312
102307
102303
102299
102296
102295
102241
102244
102246
102250
102254
102259
102264
102269
102272
102275
102277
102278
102279
102280
102281
102281
102281
102281
102280
102279
102278
102276
102274
102270
102266
102261
102256
102252
102249
102247
102194
102197
102199
102203
102208
102213
102218
102223
102227
102229
102231
102232
102233
102234
102235
102235
102235
102235
102234
102233
102232
102230
102228
102224
102219
102214
102209
102204
102201
102199
102146
102148
102151
102156
102161
102167
102172
102177
102181
102183
102185
102186
102187
102188
102188
102188
102188
102188
102188
102187
102185
102183
102181
102177
102172
102166
102160
102155
102152
102150
102097
102099
102103
102108
102114
102120
102126
102131
102135
102137
102139
102140
102141
102141
102142
102142
102142
102141
102141
102140
102138
102136
102134
102130
102125
102118
102111
102106
102102
102100
102049
102050
102054
102060
102067
102074
102079
102085
102088
102091
102092
102093
102094
102094
102094
102095
102095
102094
102093
102093
102091
102089
102086
102082
102076
102069
102062
102056
102052
102050
102000
102002
102005
102011
102019
102026
102032
102037
102041
102044
102045
102046
102046
102046
102047
102047
102047
102047
102046
102045
102044
102042
102038
102033
102027
102020
102012
102006
102002
102001
101952
101953
101956
101962
101970
101978
101984
101989
101993
101996
101997
101998
101998
101998
101999
101999
101999
101999
101998
101997
101996
101994
101990
101985
101978
101970
101963
101957
101953
101952
101904
101905
101908
101913
101920
101929
101936
101941
101945
101948
101949
101949
101950
101950
101950
101951
101951
101951
101950
101949
101948
101945
101941
101935
101928
101921
101914
101909
101905
101904
101856
101857
101859
101864
101871
101880
101887
101892
101896
101899
101900
101901
101901
101901
101902
101902
101902
101902
101902
101901
101899
101896
101892
101886
101879
101872
101865
101860
101857
101856
101808
101809
101811
101816
101822
101830
101837
101843
101847
101850
101851
101852
101852
101852
101852
101852
101853
101853
101853
101852
101850
101847
101842
101837
101831
101824
101817
101812
101809
101808
101760
101761
101763
101768
101774
101781
101788
101793
101797
101800
101802
101802
101802
101802
101802
101802
101802
101803
101803
101802
101800
101797
101792
101787
101782
101775
101768
101763
101761
101759
101712
101713
101715
101720
101726
101733
101739
101744
101748
101750
101752
101753
101753
101752
101752
101752
101752
101752
101752
101751
101750
101746
101742
101737
101732
101726
101719
101714
101711
101710
101664
101665
101667
101672
101678
101684
101690
101695
101698
101701
101703
101703
101703
101703
101702
101701
101701
101701
101702
101701
101699
101696
101692
101687
101682
101676
101669
101664
101661
101660
101618
101619
101622
101627
101633
101638
101644
101648
101652
101654
101656
101656
101656
101655
101654
101653
101652
101652
101653
101653
101651
101648
101644
101640
101635
101629
101621
101615
101612
101611
101575
101577
101580
101585
101591
101596
101601
101606
101609
101611
101613
101613
101613
101612
101611
101609
101608
101607
101608
101608
101607
101604
101600
101596
101591
101584
101575
101569
101565
101563
101535
101536
101539
101544
101550
101555
101560
101565
101568
101570
101572
101572
101572
101571
101569
101567
101565
101564
101564
101565
101564
101561
101557
101553
101547
101539
101530
101524
101520
101517
101494
101496
101499
101504
101510
101515
101520
101525
101528
101530
101532
101532
101531
101530
101529
101527
101524
101522
101521
101522
101521
101518
101515
101510
101503
101494
101485
101479
101476
101473
101455
101457
101460
101465
101470
101475
101481
101485
101489
101491
101492
101492
101492
101490
101489
101486
101484
101481
101479
101479
101478
101475
101472
101466
101458
101449
101441
101436
101434
101432
101416
101417
101420
101425
101431
101436
101441
101446
101450
101452
101453
101453
101452
101451
101449
101447
101444
101441
101439
101437
101435
101432
101428
101422
101414
101405
101399
101395
101394
101393
101376
101378
101381
101386
101391
101396
101402
101407
101411
101413
101414
101414
101414
101412
101410
101408
101405
101402
101399
101396
101393
101390
101384
101378
101370
101363
101359
101356
101355
101354
101337
101339
101342
101347
101352
101357
101362
101368
101372
101374
101376
101376
101375
101374
101372
101369
101366
101363
101360
101356
101352
101348
101342
101335
101328
101323
101320
101318
101317
101316
101298
101299
101303
101307
101313
101318
101323
101328
101333
101336
101337
101337
101336
101335
101333
101330
101327
101324
101320
101316
101311
101306
101300
101294
101288
101284
101281
101280
101278
101277
101259
101260
101264
101268
101273
101278
101283
101289
101294
101297
101298
101298
101298
101296
101294
101291
101288
101285
101281
101276
101271
101265
101259
101254
101249
101245
101243
101241
101239
101238
101219
101221
101224
101229
101234
101239
101244
101249
101254
101257
101259
101259
101259
101257
101255
101252
101249
101245
101241
101236
101231
101225
101219
101214
101210
101206
101204
101202
101200
101200
101180
101181
101184
101189
101194
101200
101204
101210
101214
101218
101219
101220
101219
101218
101216
101213
101210
101206
101201
101196
101190
101184
101179
101174
101170
101167
101164
101162
101161
101160
101140
101142
101144
101148
101154
101160
101165
101170
101174
101178
101179
101180
101179
101178
101176
101173
101170
101166
101161
101155
101150
101144
101138
101134
101130
101127
101124
101122
101121
101121
101101
101102
101104
101108
101114
101120
101125
101130
101135
101138
101139
101140
101140
101138
101137
101134
101130
101126
101121
101115
101109
101103
101098
101093
101089
101086
101084
101082
101081
101080
101061
101062
101064
101069
101074
101081
101086
101090
101095
101098
101099
101100
101099
101099
101097
101094
101091
101086
101081
101075
101068
101062
101057
101052
101049
101046
101043
101042
101040
101040
101021
101022
101025
101029
101034
101041
101046
101050
101054
101057
101059
101059
101059
101058
101057
101054
101050
101045
101040
101034
101028
101022
101016
101012
101008
101005
101003
101001
101000
100999
100982
100983
100985
100989
100994
101000
101005
101010
101014
101017
101018
101018
101018
101018
101016
101013
101009
101004
100999
100993
100987
100981
100975
100971
100967
100964
100962
100960
100958
100957
100942
100942
100944
100947
100952
100958
100964
100968
100972
100975
100976
100977
100977
100976
100975
100972
100967
100962
100957
100951
100945
100939
100933
100929
100925
100922
100919
100917
100915
100913
100900
100901
100902
100904
100909
100915
100921
100925
100929
100932
100933
100934
100934
100933
100932
100929
100924
100919
100913
100907
100901
100895
100890
100885
100881
100878
100874
100871
100869
100867
100857
100857
100858
100860
100864
100870
100876
100881
100885
100888
100889
100890
100890
100889
100887
100884
100880
100874
100868
100862
100856
100850
100844
100839
100835
100831
100827
100824
100821
100820
100814
100813
100814
100815
100818
100824
100830
100835
100840
100843
100844
100844
100844
100844
100842
100838
100834
100829
100822
100816
100810
100804
100797
100792
100787
100783
100779
100776
100773
100772
100770
100769
100769
100770
100772
100777
100784
100789
100793
100796
100798
100798
100798
100798
100795
100792
100788
100782
100776
100769
100763
100756
100750
100744
100739
100734
100731
100727
100725
100724
100726
100725
100725
100725
100727
100731
100737
100743
100747
100750
100751
100752
100752
100751
100749
100746
100741
100735
100729
100722
100716
100709
100702
100696
100691
100687
100683
100680
100678
100677
100684
100682
100682
100681
100682
100685
100691
100697
100701
100704
100705
100706
100706
100705
100703
100699
100695
100689
100682
100676
100669
100663
100656
100650
100645
100641
100638
100634
100632
100632
100641
100640
100639
100639
100639
100641
100647
100652
100657
100660
100661
100661
100661
100660
100657
100654
100649
100644
100638
100631
100625
100619
100612
100606
100601
100598
100594
100591
100589
100588
100600
100599
100598
100597
100597
100599
100604
100609
100614
100617
100618
100618
100618
100617
100614
100611
100606
100601
100595
100589
100583
100577
100571
100565
100560
100556
100553
100550
100548
100547
100559
100558
100556
100556
100556
100558
100562
100568
100572
100576
100577
100577
100577
100575
100573
100570
100566
100561
100555
100549
100543
100537
100531
100525
100520
100516
100513
100510
100508
100508
100519
100517
100516
100515
100515
100518
100522
100527
100532
100536
100538
100538
100537
100536
100534
100531
100527
100522
100516
100510
100504
100498
100492
100485
100480
100477
100474
100471
100470
100470
100479
100477
100476
100474
100475
100478
100483
100489
100494
100498
100500
100500
100499
100498
100496
100493
100490
100485
100479
100473
100467
100460
100454
100447
100441
100438
100435
100433
100432
100432
100440
100438
100436
100436
100437
100440
100446
100452
100458
100462
100464
100466
100464
100463
100461
100459
100455
100450
100444
100438
100431
100424
100418
100410
100404
100401
100398
100397
100396
100396
100402
100401
100400
100400
100402
100405
100410
100417
100424
100428
100431
100432
100431
100430
100428
100426
100422
100417
100411
100404
100397
100390
100383
100376
100370
100367
100365
100363
100362
100361
100366
100366
100366
100367
100369
100372
100377
100384
100390
100396
100398
100400
100400
100398
100397
100394
100391
100385
100379
100372
100365
100358
100351
100345
100340
100337
100335
100332
100330
100328
100333
100334
100334
100335
100337
100340
100345
100351
100358
100364
100367
100369
100369
100368
100366
100364
100360
100355
100348
100341
100334
100328
100321
100315
100311
100308
100306
100303
100300
100299
100303
100303
100303
100304
100305
100308
100313
100320
100327
100333
100338
100340
100340
100339
100337
100335
100331
100325
100319
100312
100305
100298
100292
100287
100283
100280
100278
100275
100273
100272
100272
100271
100271
100272
100275
100278
100283
100290
100298
100304
100309
100311
100312
100311
100310
100308
100303
100297
100290
100283
100276
100269
100263
100259
100255
100252
100249
100248
100246
100245
100240
100239
100240
100242
100245
100249
100255
100262
100270
100276
100281
100284
100285
100284
100283
100281
100276
100270
100263
100256
100248
100241
100235
100231
100227
100223
100221
100220
100220
100220
100210
100209
100210
100213
100217
100222
100228
100235
100243
100249
100253
100257
100258
100258
100257
100255
100250
100244
100237
100229
100222
100214
100209
100204
100200
100196
100194
100194
100194
100194
100183
100183
100185
100188
100192
100197
100203
100210
100217
100223
100228
100231
100233
100233
100232
100229
100225
100219
100212
100205
100197
100190
100184
100179
100175
100171
100168
100168
100168
100168
100160
100160
100162
100165
100170
100175
100181
100188
100195
100200
100205
100208
100210
100210
100208
100206
100202
100196
100190
100183
100175
100168
100163
100157
100152
100148
100145
100144
100143
100143
100140
100140
100143
100146
100149
100154
100160
100166
100173
100179
100183
100186
100188
100188
100186
100183
100180
100175
100169
100162
100155
100148