/*--------------------------------*- C++ -*----------------------------------*\
| =========                 |                                                 |
| \\      /  F ield         | OpenFOAM: The Open Source CFD Toolbox           |
|  \\    /   O peration     | Version:  2.3.0                                 |
|   \\  /    A nd           | Web:      www.OpenFOAM.org                      |
|    \\/     M anipulation  |                                                 |
\*---------------------------------------------------------------------------*/
FoamFile
{
    version     2.0;
    format      ascii;
    class       volVectorField;
    location    "0.89";
    object      U.air;
}
// * * * * * * * * * * * * * * * * * * * * * * * * * * * * * * * * * * * * * //

dimensions      [0 1 -1 0 0 0 0];

internalField   nonuniform List<vector> 
6000
(
(-0.0921949 0.298546 0)
(-0.123901 0.251899 0)
(-0.0296693 0.261969 0)
(0.079265 0.257173 0)
(0.150527 0.28729 0)
(0.125864 0.310322 0)
(0.044515 0.284556 0)
(-0.0284969 0.261677 0)
(-0.0844082 0.253275 0)
(-0.0779374 0.214368 0)
(-0.0259875 0.212093 0)
(0.0477637 0.250445 0)
(0.0498585 0.363055 0)
(-0.0086819 0.405379 0)
(-0.0730869 0.365386 0)
(-0.00643883 0.308686 0)
(0.142532 0.255093 0)
(0.22195 0.283948 0)
(0.163184 0.20765 0)
(0.17491 0.159653 0)
(0.211748 0.177421 0)
(0.308386 0.196588 0)
(0.416752 0.222309 0)
(0.516728 0.289627 0)
(0.399592 0.38003 0)
(0.000990287 0.466328 0)
(-0.249725 0.268636 0)
(-0.0546845 0.199162 0)
(-0.0489496 0.326343 0)
(-0.024768 0.35391 0)
(-0.0326965 1.10468 0)
(-0.0497855 0.861897 0)
(0.0139763 0.829465 0)
(0.0742207 0.810571 0)
(0.132451 0.916094 0)
(0.217057 1.03523 0)
(0.242695 1.1114 0)
(0.185633 1.15875 0)
(0.0981895 1.17616 0)
(0.029748 1.09495 0)
(-0.021699 1.09246 0)
(-0.0267218 1.11319 0)
(-0.0554465 1.11322 0)
(-0.136257 1.19545 0)
(-0.217296 1.07191 0)
(-0.150853 0.816185 0)
(-0.0513517 0.754525 0)
(0.0486298 0.971757 0)
(0.132718 0.973457 0)
(0.212172 0.972999 0)
(0.312007 0.914013 0)
(0.433899 0.872915 0)
(0.5589 0.868166 0)
(0.590512 0.9507 0)
(0.414867 1.33164 0)
(0.13439 1.54537 0)
(-0.0227399 1.02575 0)
(-0.105609 1.03543 0)
(-0.194579 1.16268 0)
(-0.121663 0.845771 0)
(-0.0192193 1.01757 0)
(0.0105641 0.687719 0)
(0.0567293 0.681578 0)
(0.0641523 0.671609 0)
(0.0892512 0.730284 0)
(0.153622 0.837738 0)
(0.211094 0.962459 0)
(0.200572 1.1068 0)
(0.119539 1.13717 0)
(0.0516037 1.03399 0)
(0.00552561 0.986098 0)
(0.0446414 1.00611 0)
(0.0302498 1.09426 0)
(-0.147352 1.2527 0)
(-0.278459 0.932175 0)
(-0.266135 0.63973 0)
(-0.186548 0.582407 0)
(-0.102583 0.716269 0)
(0.0206177 0.697644 0)
(0.126104 0.64011 0)
(0.258483 0.594139 0)
(0.413251 0.573766 0)
(0.514567 0.601124 0)
(0.394036 0.844914 0)
(0.219701 1.41599 0)
(0.19874 1.45421 0)
(0.138636 1.13738 0)
(-0.0564884 0.8994 0)
(-0.187129 1.13196 0)
(-0.077455 0.525883 0)
(0.0329004 1.03796 0)
(0.0766255 0.739205 0)
(0.0795374 0.755763 0)
(0.0902711 0.767058 0)
(0.120517 0.80922 0)
(0.167865 0.898826 0)
(0.170086 1.01649 0)
(0.0849031 1.19141 0)
(-0.0274773 1.23067 0)
(-0.0673073 1.13083 0)
(-0.00614374 1.04504 0)
(0.0780309 1.00697 0)
(0.00616712 1.12986 0)
(-0.213744 1.37809 0)
(-0.341465 0.993529 0)
(-0.316512 0.564858 0)
(-0.191237 0.568697 0)
(-0.114376 0.689099 0)
(-0.000446019 0.71218 0)
(0.126983 0.688581 0)
(0.246866 0.621605 0)
(0.327648 0.591393 0)
(0.200842 0.697262 0)
(-0.0446119 1.15043 0)
(-0.0778433 1.31059 0)
(0.0850527 1.35204 0)
(0.122624 1.17598 0)
(-0.00321987 1.06885 0)
(-0.0880072 1.16814 0)
(-0.000944901 0.386781 0)
(0.0594386 1.04527 0)
(0.0961359 0.82433 0)
(0.0883484 0.812312 0)
(0.132408 0.782515 0)
(0.147772 0.776002 0)
(0.108275 0.844638 0)
(0.0322161 0.988375 0)
(-0.0451294 1.21134 0)
(-0.0764419 1.21992 0)
(-0.0773962 0.997086 0)
(-0.0809655 0.912225 0)
(-0.137558 0.94233 0)
(-0.282691 1.29596 0)
(-0.383912 1.46208 0)
(-0.351169 0.946952 0)
(-0.270304 0.412132 0)
(-0.143957 0.49977 0)
(-0.0644851 0.661492 0)
(-0.00984125 0.659383 0)
(0.0897729 0.583182 0)
(0.14424 0.5198 0)
(0.0646897 0.587726 0)
(-0.144117 0.972803 0)
(-0.246324 1.09883 0)
(-0.163924 1.19413 0)
(-0.0467494 1.24079 0)
(0.0125537 1.17546 0)
(-0.0285834 1.06804 0)
(-0.0512146 1.1266 0)
(0.00910336 0.315662 0)
(0.0725172 0.965509 0)
(0.069752 0.809236 0)
(0.000915566 0.752216 0)
(-0.0179959 0.698287 0)
(-0.0734571 0.773126 0)
(-0.149197 0.917467 0)
(-0.222588 1.05984 0)
(-0.221455 1.21767 0)
(-0.1529 1.20256 0)
(-0.159882 1.13164 0)
(-0.254802 1.09152 0)
(-0.395382 1.16222 0)
(-0.456713 1.2884 0)
(-0.405251 1.33702 0)
(-0.243335 0.782607 0)
(-0.119888 0.287116 0)
(0.00720087 0.423628 0)
(0.0073553 0.631383 0)
(-0.0618212 0.58283 0)
(-0.0713125 0.500693 0)
(-0.107102 0.534818 0)
(-0.228263 0.783763 0)
(-0.28046 0.950245 0)
(-0.232076 1.05545 0)
(-0.169375 1.09896 0)
(-0.0944588 1.18667 0)
(-0.0303136 1.14517 0)
(-0.0553104 1.11586 0)
(-0.0716544 1.13131 0)
(-0.0057731 0.251604 0)
(0.0129613 0.746903 0)
(-0.0644726 0.789587 0)
(-0.199388 0.779108 0)
(-0.313505 0.746935 0)
(-0.395202 0.816262 0)
(-0.402409 0.878847 0)
(-0.363264 0.960108 0)
(-0.288225 1.01529 0)
(-0.213369 1.03306 0)
(-0.197134 1.00942 0)
(-0.244358 1.03891 0)
(-0.306232 1.09674 0)
(-0.348266 1.21288 0)
(-0.309754 1.21846 0)
(-0.12731 0.55445 0)
(0.023314 0.197382 0)
(0.00882716 0.362023 0)
(-0.0729371 0.732684 0)
(-0.181025 0.715533 0)
(-0.259435 0.550586 0)
(-0.274208 0.558035 0)
(-0.238699 0.732997 0)
(-0.207085 0.886212 0)
(-0.166181 0.977043 0)
(-0.134967 1.06405 0)
(-0.0841767 1.1086 0)
(-0.0428655 1.1514 0)
(-0.0435774 1.10879 0)
(-0.0581542 1.14626 0)
(-0.000696167 0.193154 0)
(-0.0854598 0.944712 0)
(-0.272998 0.944628 0)
(-0.403981 0.880259 0)
(-0.462768 0.760796 0)
(-0.438679 0.721721 0)
(-0.390555 0.765922 0)
(-0.322122 0.863499 0)
(-0.25839 0.934435 0)
(-0.200862 0.9671 0)
(-0.183034 1.01912 0)
(-0.190914 1.05017 0)
(-0.210154 1.13298 0)
(-0.233729 1.19406 0)
(-0.186821 1.1455 0)
(-0.0385018 0.355591 0)
(0.0828893 0.170601 0)
(-0.0534917 0.512531 0)
(-0.252201 0.756028 0)
(-0.297763 0.674352 0)
(-0.317987 0.474175 0)
(-0.202346 0.401172 0)
(-0.113509 0.681059 0)
(-0.0977814 0.843263 0)
(-0.088605 0.957404 0)
(-0.0790302 1.01583 0)
(-0.0573102 1.08853 0)
(-0.0296559 1.10484 0)
(-0.0228401 1.11997 0)
(-0.0251506 1.13862 0)
(0.0195827 0.175217 0)
(-0.0806652 0.945678 0)
(-0.248887 0.927468 0)
(-0.308806 0.777762 0)
(-0.319631 0.688849 0)
(-0.283138 0.637543 0)
(-0.251454 0.701983 0)
(-0.225054 0.811946 0)
(-0.184383 0.880627 0)
(-0.148152 0.944892 0)
(-0.13114 0.994694 0)
(-0.127776 1.06678 0)
(-0.120139 1.12498 0)
(-0.121996 1.19921 0)
(-0.0653364 1.08341 0)
(-0.00624788 0.25868 0)
(-0.000560742 0.200885 0)
(-0.138593 0.73351 0)
(-0.282505 0.751555 0)
(-0.320775 0.699485 0)
(-0.278487 0.346765 0)
(-0.143018 0.244848 0)
(-0.0375963 0.631425 0)
(-0.00772244 0.82816 0)
(-0.0173437 0.921945 0)
(-0.0206891 1.00839 0)
(-0.0188 1.042 0)
(-0.00993359 1.09651 0)
(-0.000915665 1.09212 0)
(-0.00361289 1.14318 0)
(0.0263145 0.185169 0)
(-0.0506026 1.00985 0)
(-0.150942 0.958748 0)
(-0.172471 0.744765 0)
(-0.151673 0.633651 0)
(-0.111156 0.593109 0)
(-0.103157 0.679222 0)
(-0.103947 0.780402 0)
(-0.0932796 0.858235 0)
(-0.0732226 0.91101 0)
(-0.0655758 0.990707 0)
(-0.0585054 1.04517 0)
(-0.0438173 1.11761 0)
(-0.0167666 1.15405 0)
(0.0259561 1.07276 0)
(0.0219265 0.250548 0)
(-0.0643872 0.318227 0)
(-0.18436 0.793492 0)
(-0.240172 0.769609 0)
(-0.264605 0.705963 0)
(-0.211042 0.230428 0)
(-0.138572 0.157374 0)
(-0.0450716 0.527702 0)
(0.0372046 0.797037 0)
(0.0411425 0.90855 0)
(0.0368019 0.980306 0)
(0.0252266 1.04679 0)
(0.0169664 1.05773 0)
(0.0180377 1.09709 0)
(0.015788 1.12937 0)
(0.0289387 0.213423 0)
(-0.0287591 1.0815 0)
(-0.0940899 0.993877 0)
(-0.0762448 0.733742 0)
(-0.0212535 0.571744 0)
(0.0450463 0.565234 0)
(0.0430045 0.690013 0)
(0.0299108 0.784658 0)
(0.00981683 0.844989 0)
(0.00842893 0.911544 0)
(0.00386037 0.96822 0)
(0.00440696 1.0411 0)
(0.0159428 1.07745 0)
(0.0499528 1.11499 0)
(0.104113 1.06623 0)
(0.0274035 0.31096 0)
(-0.107201 0.471505 0)
(-0.181216 0.809438 0)
(-0.174639 0.7762 0)
(-0.181359 0.68283 0)
(-0.157395 0.170036 0)
(-0.144843 0.129408 0)
(-0.0849636 0.419406 0)
(0.0408097 0.738316 0)
(0.0976699 0.873679 0)
(0.0950479 0.97216 0)
(0.0750762 1.02407 0)
(0.0512972 1.05908 0)
(0.0461158 1.06501 0)
(0.0481609 1.1216 0)
(0.0305001 0.258502 0)
(-0.0147547 1.12525 0)
(-0.0361146 0.991248 0)
(0.0175018 0.67528 0)
(0.0879081 0.486364 0)
(0.159639 0.521502 0)
(0.169615 0.700614 0)
(0.155904 0.802495 0)
(0.114108 0.865277 0)
(0.0879184 0.911737 0)
(0.0675726 0.977567 0)
(0.0526432 1.02028 0)
(0.0480343 1.06637 0)
(0.0641198 1.07002 0)
(0.119215 1.05192 0)
(0.00158802 0.488413 0)
(-0.14286 0.555132 0)
(-0.144584 0.755709 0)
(-0.101947 0.761226 0)
(-0.0933146 0.662271 0)
(-0.121302 0.161443 0)
(-0.146287 0.118891 0)
(-0.111643 0.321803 0)
(0.0230012 0.581278 0)
(0.142546 0.833186 0)
(0.151164 0.948538 0)
(0.121717 1.02521 0)
(0.0808849 1.04507 0)
(0.0632621 1.0578 0)
(0.0635541 1.10333 0)
(0.0222657 0.320716 0)
(-0.00186848 1.133 0)
(0.024464 0.946052 0)
(0.111646 0.610696 0)
(0.174466 0.412609 0)
(0.23537 0.473338 0)
(0.265185 0.694508 0)
(0.261674 0.84144 0)
(0.201515 0.884245 0)
(0.15232 0.94238 0)
(0.118221 0.983963 0)
(0.0842525 1.03858 0)
(0.0583655 1.05621 0)
(0.0388428 1.06096 0)
(0.0516397 1.02674 0)
(-0.049197 0.671534 0)
(-0.139067 0.577962 0)
(-0.0902231 0.693825 0)
(-0.0396837 0.717479 0)
(-0.0175711 0.645278 0)
(-0.0828487 0.210128 0)
(-0.131667 0.11539 0)
(-0.10938 0.260762 0)
(-0.0184667 0.413493 0)
(0.134646 0.742485 0)
(0.197425 0.940938 0)
(0.148564 1.02906 0)
(0.0811535 1.06842 0)
(0.0161746 1.05458 0)
(-0.000921917 1.09314 0)
(0.00699374 0.359016 0)
(0.0278109 1.12371 0)
(0.096565 0.861415 0)
(0.195454 0.539712 0)
(0.245443 0.36333 0)
(0.288173 0.434865 0)
(0.330783 0.65193 0)
(0.33382 0.88594 0)
(0.280756 0.944033 0)
(0.211187 0.975936 0)
(0.158579 1.02687 0)
(0.105679 1.05752 0)
(0.0581387 1.09336 0)
(0.00449986 1.07562 0)
(-0.0568794 1.05244 0)
(-0.136522 0.784892 0)
(-0.155503 0.54639 0)
(-0.0720777 0.609981 0)
(0.0194777 0.689775 0)
(0.0382966 0.652873 0)
(-0.0261023 0.287684 0)
(-0.0929618 0.108731 0)
(-0.0816406 0.226806 0)
(-0.0563601 0.321908 0)
(0.0442848 0.569333 0)
(0.181329 0.926594 0)
(0.154758 1.07702 0)
(0.0399994 1.118 0)
(-0.102438 1.11806 0)
(-0.0933242 1.01452 0)
(0.00944728 0.353014 0)
(0.0582498 1.05417 0)
(0.163678 0.787476 0)
(0.25741 0.472965 0)
(0.291298 0.336595 0)
(0.312956 0.401252 0)
(0.359761 0.601086 0)
(0.360264 0.914573 0)
(0.320544 0.976037 0)
(0.255626 1.0326 0)
(0.191881 1.06493 0)
(0.125958 1.11162 0)
(0.0617556 1.12927 0)
(-0.0158907 1.14932 0)
(-0.125465 1.13392 0)
(-0.194141 0.831998 0)
(-0.179779 0.491182 0)
(-0.0863531 0.497111 0)
(0.0334404 0.619849 0)
(0.0802583 0.645099 0)
(0.0438292 0.365862 0)
(-0.0265172 0.11268 0)
(-0.0298956 0.223729 0)
(-0.0568226 0.325168 0)
(-0.0543476 0.4861 0)
(0.0382733 0.828241 0)
(0.0941246 1.16373 0)
(-0.014693 1.2666 0)
(-0.155977 1.25269 0)
(-0.0791546 0.85014 0)
(0.0283609 0.362269 0)
(0.0827377 0.986422 0)
(0.200998 0.671303 0)
(0.280078 0.429952 0)
(0.294093 0.334519 0)
(0.295034 0.376888 0)
(0.334107 0.54823 0)
(0.384101 0.928194 0)
(0.358534 1.02135 0)
(0.294376 1.06981 0)
(0.230216 1.1248 0)
(0.158151 1.15894 0)
(0.0782936 1.20161 0)
(-0.00434339 1.22477 0)
(-0.119379 1.25077 0)
(-0.185241 0.857065 0)
(-0.172595 0.440877 0)
(-0.0913148 0.405893 0)
(0.000919078 0.526749 0)
(0.0852148 0.626804 0)
(0.103177 0.42098 0)
(0.0494743 0.151065 0)
(0.0156555 0.259771 0)
(-0.0533536 0.388678 0)
(-0.126843 0.532982 0)
(-0.120125 0.77628 0)
(-0.0607374 1.18662 0)
(-0.0578853 1.39886 0)
(-0.0639749 1.30938 0)
(0.0130167 0.759935 0)
(0.0439774 0.450602 0)
(0.0888958 0.857949 0)
(0.200361 0.585712 0)
(0.255229 0.415894 0)
(0.248142 0.360324 0)
(0.226667 0.37739 0)
(0.243363 0.483318 0)
(0.348579 0.858536 0)
(0.392262 1.05101 0)
(0.339124 1.12135 0)
(0.266414 1.16881 0)
(0.200869 1.22549 0)
(0.117416 1.26498 0)
(0.0461231 1.30055 0)
(-0.0287594 1.32471 0)
(-0.0941672 0.893518 0)
(-0.119007 0.392818 0)
(-0.0675052 0.364851 0)
(-0.0185906 0.443139 0)
(0.0765624 0.582469 0)
(0.142444 0.440336 0)
(0.12095 0.219124 0)
(0.0654019 0.336171 0)
(-0.0333623 0.505936 0)
(-0.153873 0.659485 0)
(-0.221805 0.839458 0)
(-0.177717 1.18956 0)
(-0.0583556 1.4654 0)
(0.0459286 1.36375 0)
(0.0651447 0.85027 0)
(0.0254381 0.586225 0)
(0.0845708 0.767875 0)
(0.168639 0.53778 0)
(0.195604 0.43271 0)
(0.17057 0.407148 0)
(0.133698 0.40883 0)
(0.125083 0.446577 0)
(0.220243 0.699511 0)
(0.374469 1.04824 0)
(0.378082 1.15422 0)
(0.306738 1.22884 0)
(0.235339 1.27096 0)
(0.16932 1.327 0)
(0.110722 1.34169 0)
(0.0749894 1.36976 0)
(0.0355167 0.964798 0)
(-0.0247809 0.380842 0)
(-0.00852549 0.348584 0)
(0.0106401 0.390006 0)
(0.0895765 0.520459 0)
(0.188034 0.437184 0)
(0.189599 0.313712 0)
(0.133899 0.465423 0)
(0.0067228 0.682318 0)
(-0.138115 0.812272 0)
(-0.216384 0.932813 0)
(-0.165351 1.19878 0)
(0.00890082 1.38507 0)
(0.115836 1.30888 0)
(0.0244786 0.868883 0)
(-0.0420081 0.592112 0)
(0.0781076 0.701102 0)
(0.136931 0.528958 0)
(0.143682 0.472513 0)
(0.109554 0.459847 0)
(0.0640613 0.457593 0)
(0.0269016 0.464926 0)
(0.0722874 0.570738 0)
(0.234609 0.899049 0)
(0.371841 1.18059 0)
(0.338959 1.27287 0)
(0.25393 1.32784 0)
(0.199727 1.35429 0)
(0.154259 1.38399 0)
(0.144266 1.35308 0)
(0.153132 1.00828 0)
(0.0928709 0.406934 0)
(0.0783515 0.351079 0)
(0.0774076 0.366572 0)
(0.133427 0.451564 0)
(0.248611 0.41015 0)
(0.267219 0.3872 0)
(0.152692 0.531392 0)
(-0.0140107 0.728335 0)
(-0.129876 0.771163 0)
(-0.17117 0.809723 0)
(-0.129368 0.920849 0)
(-0.046403 1.12639 0)
(0.0452519 1.16066 0)
(0.0146157 0.955332 0)
(-0.0180425 0.465251 0)
(0.0666167 0.641499 0)
(0.104961 0.542959 0)
(0.0913803 0.512088 0)
(0.053793 0.505587 0)
(0.00774889 0.506461 0)
(-0.0414898 0.511814 0)
(-0.054227 0.550181 0)
(0.0505237 0.71216 0)
(0.249197 1.09122 0)
(0.330088 1.33136 0)
(0.246273 1.37953 0)
(0.18137 1.38555 0)
(0.149919 1.38699 0)
(0.17197 1.31286 0)
(0.253771 0.98253 0)
(0.225208 0.454843 0)
(0.190589 0.385653 0)
(0.150359 0.378183 0)
(0.177564 0.394679 0)
(0.26347 0.342322 0)
(0.28345 0.358778 0)
(0.216053 0.635646 0)
(0.0643391 0.888347 0)
(-0.0476579 0.900472 0)
(-0.12658 0.897714 0)
(-0.157607 1.00442 0)
(-0.145653 1.14215 0)
(-0.0999538 1.17107 0)
(-0.0508446 0.961012 0)
(-0.0034457 0.475792 0)
(0.037584 0.595692 0)
(0.0547971 0.554253 0)
(0.0348553 0.542392 0)
(-0.00110604 0.54434 0)
(-0.0459077 0.550664 0)
(-0.0950835 0.55978 0)
(-0.136136 0.579502 0)
(-0.106711 0.643642 0)
(0.0472348 0.89031 0)
(0.214869 1.3338 0)
(0.200805 1.45573 0)
(0.100681 1.41833 0)
(0.0733331 1.35824 0)
(0.125867 1.2416 0)
(0.331811 0.897025 0)
(0.350815 0.512598 0)
(0.299246 0.458513 0)
(0.199274 0.41783 0)
(0.163357 0.3579 0)
(0.160206 0.247474 0)
(0.154006 0.362283 0)
(0.0911843 0.696702 0)
(-0.0103387 0.828807 0)
(-0.0531458 0.816266 0)
(-0.103146 0.810733 0)
(-0.131676 0.8563 0)
(-0.136082 0.915546 0)
(-0.10774 0.940458 0)
(-0.0550554 0.746731 0)
(-0.00402399 0.317496 0)
(0.012622 0.56658 0)
(0.00823012 0.565226 0)
(-0.0166435 0.571434 0)
(-0.0544147 0.583384 0)
(-0.0996514 0.594299 0)
(-0.146761 0.604345 0)
(-0.190764 0.618245 0)
(-0.211216 0.649111 0)
(-0.133092 0.769041 0)
(0.00274201 1.24613 0)
(0.0659152 1.53963 0)
(-0.0405096 1.49761 0)
(-0.0776004 1.34146 0)
(0.0496908 1.1359 0)
(0.263575 0.748397 0)
(0.253713 0.60831 0)
(0.243267 0.55222 0)
(0.16102 0.469063 0)
(0.095023 0.359164 0)
(0.00629471 0.24498 0)
(-0.0677413 0.329857 0)
(-0.0787626 0.639154 0)
(-0.0719607 0.793158 0)
(-0.0731437 0.794499 0)
(-0.0874205 0.780258 0)
(-0.0828484 0.818841 0)
(-0.0747582 0.860849 0)
(-0.0490716 0.86978 0)
(-0.00162816 0.697996 0)
(0.017998 0.297711 0)
(-0.00564051 0.567513 0)
(-0.0295064 0.588616 0)
(-0.0637285 0.606981 0)
(-0.108047 0.626893 0)
(-0.155714 0.638405 0)
(-0.199355 0.646253 0)
(-0.239139 0.655885 0)
(-0.273181 0.67778 0)
(-0.266239 0.758166 0)
(-0.207289 1.17095 0)
(-0.155405 1.59748 0)
(-0.195203 1.57927 0)
(-0.13138 1.30253 0)
(0.0250483 0.966462 0)
(0.110429 0.77246 0)
(0.123821 0.693757 0)
(0.0724039 0.616153 0)
(0.00848828 0.518891 0)
(-0.070739 0.399076 0)
(-0.175392 0.297118 0)
(-0.249855 0.332507 0)
(-0.226564 0.565935 0)
(-0.139777 0.794253 0)
(-0.0975229 0.798132 0)
(-0.0840071 0.794284 0)
(-0.0515469 0.820231 0)
(-0.0246961 0.850894 0)
(0.0153925 0.866999 0)
(0.0559753 0.657868 0)
(0.0374319 0.341911 0)
(-0.0204514 0.603661 0)
(-0.065551 0.63243 0)
(-0.113896 0.65447 0)
(-0.167678 0.67745 0)
(-0.215102 0.681042 0)
(-0.249133 0.681702 0)
(-0.278864 0.688237 0)
(-0.311465 0.713627 0)
(-0.338664 0.805771 0)
(-0.364405 1.20418 0)
(-0.350015 1.61919 0)
(-0.229602 1.5587 0)
(-0.0400596 1.21725 0)
(0.0701624 0.971049 0)
(0.119621 0.862124 0)
(0.0490094 0.771992 0)
(-0.0309345 0.680791 0)
(-0.107856 0.579138 0)
(-0.189218 0.48122 0)
(-0.282261 0.396044 0)
(-0.344673 0.350535 0)
(-0.324363 0.485226 0)
(-0.223663 0.719193 0)
(-0.12955 0.791557 0)
(-0.0957568 0.756339 0)
(-0.0435862 0.804091 0)
(0.00337587 0.833864 0)
(0.0598499 0.823322 0)
(0.0865037 0.667065 0)
(0.0433524 0.412616 0)
(-0.0396647 0.681345 0)
(-0.12051 0.699888 0)
(-0.186212 0.714085 0)
(-0.241871 0.732447 0)
(-0.273157 0.714465 0)
(-0.286763 0.703023 0)
(-0.30131 0.710743 0)
(-0.327841 0.750868 0)
(-0.37081 0.886764 0)
(-0.451327 1.29829 0)
(-0.400956 1.58003 0)
(-0.140442 1.43031 0)
(0.0822577 1.16602 0)
(0.167115 1.03123 0)
(0.1171 0.955445 0)
(0.0251115 0.876542 0)
(-0.0729603 0.781809 0)
(-0.1657 0.675886 0)
(-0.251968 0.56927 0)
(-0.329478 0.485183 0)
(-0.382769 0.431569 0)
(-0.376402 0.445255 0)
(-0.30271 0.637045 0)
(-0.171511 0.750912 0)
(-0.117708 0.726839 0)
(-0.0582299 0.765642 0)
(0.0074326 0.79704 0)
(0.0701461 0.797227 0)
(0.0891727 0.696646 0)
(0.0426197 0.491776 0)
(-0.0903974 0.769043 0)
(-0.233498 0.790611 0)
(-0.316844 0.773366 0)
(-0.330081 0.76525 0)
(-0.317072 0.719806 0)
(-0.303638 0.704268 0)
(-0.302263 0.722192 0)
(-0.320742 0.78642 0)
(-0.369042 0.981177 0)
(-0.433635 1.35495 0)
(-0.27982 1.43976 0)
(0.0035716 1.27605 0)
(0.168375 1.14864 0)
(0.181232 1.09596 0)
(0.113985 1.06136 0)
(0.0102218 1.00164 0)
(-0.101107 0.910568 0)
(-0.202703 0.795897 0)
(-0.29237 0.676624 0)
(-0.367745 0.572681 0)
(-0.422354 0.499032 0)
(-0.420392 0.47844 0)
(-0.357246 0.563465 0)
(-0.227065 0.692747 0)
(-0.14927 0.705694 0)
(-0.087322 0.727135 0)
(-0.0129459 0.75871 0)
(0.051867 0.773359 0)
(0.0750132 0.725634 0)
(0.0381203 0.567016 0)
(-0.170533 0.983923 0)
(-0.355443 0.973555 0)
(-0.452227 0.795138 0)
(-0.398772 0.733757 0)
(-0.336146 0.686163 0)
(-0.299428 0.685265 0)
(-0.285104 0.724492 0)
(-0.296624 0.818756 0)
(-0.342376 1.05384 0)
(-0.317271 1.31369 0)
(-0.105492 1.23869 0)
(0.092088 1.15664 0)
(0.182892 1.13866 0)
(0.193286 1.15483 0)
(0.127903 1.17467 0)
(0.00539014 1.14835 0)
(-0.127503 1.05484 0)
(-0.240048 0.930683 0)
(-0.332651 0.796573 0)
(-0.403168 0.668034 0)
(-0.44871 0.564006 0)
(-0.463005 0.51097 0)
(-0.400518 0.529295 0)
(-0.292898 0.630778 0)
(-0.192076 0.682326 0)
(-0.12767 0.68365 0)
(-0.0506873 0.717796 0)
(0.0144807 0.747601 0)
(0.047766 0.744461 0)
(0.0292405 0.630561 0)
(-0.0851337 1.05955 0)
(-0.284604 0.989133 0)
(-0.460208 0.746921 0)
(-0.422031 0.632016 0)
(-0.332131 0.619636 0)
(-0.274262 0.649935 0)
(-0.248383 0.720117 0)
(-0.257104 0.847733 0)
(-0.285469 1.06946 0)
(-0.178859 1.1749 0)
(-0.00990338 1.07805 0)
(0.117059 1.06733 0)
(0.207279 1.10468 0)
(0.253065 1.17467 0)
(0.191309 1.26593 0)
(0.0246568 1.2711 0)
(-0.149497 1.1776 0)
(-0.283651 1.06549 0)
(-0.389712 0.934571 0)
(-0.454278 0.757591 0)
(-0.47816 0.621865 0)
(-0.474675 0.533298 0)
(-0.434475 0.511954 0)
(-0.350576 0.573512 0)
(-0.23956 0.64509 0)
(-0.17106 0.640932 0)
(-0.0982248 0.678067 0)
(-0.0346367 0.719146 0)
(0.0104363 0.745182 0)
(0.0160817 0.673416 0)
(0.0106106 1.15234 0)
(-0.0654466 1.26473 0)
(-0.298397 0.833954 0)
(-0.429796 0.519792 0)
(-0.284518 0.514483 0)
(-0.21209 0.595807 0)
(-0.182076 0.715141 0)
(-0.19841 0.882311 0)
(-0.202538 1.06147 0)
(-0.111617 1.04466 0)
(0.00168959 0.968016 0)
(0.114455 0.971586 0)
(0.245923 1.01433 0)
(0.324509 1.12025 0)
(0.270351 1.34647 0)
(0.0853868 1.37114 0)
(-0.0782834 1.2792 0)
(-0.261747 1.17582 0)
(-0.453301 1.02941 0)
(-0.551583 0.822638 0)
(-0.532547 0.651478 0)
(-0.490881 0.536644 0)
(-0.437904 0.483128 0)
(-0.369798 0.528051 0)
(-0.272038 0.587553 0)
(-0.203924 0.594734 0)
(-0.14111 0.636274 0)
(-0.0818493 0.683409 0)
(-0.028163 0.724186 0)
(0.00102928 0.689322 0)
(0.0503767 0.976215 0)
(0.126476 1.21481 0)
(-0.0460511 1.13826 0)
(-0.26996 0.576708 0)
(-0.147896 0.396433 0)
(-0.0792144 0.543776 0)
(-0.0520326 0.71057 0)
(-0.0890688 0.979118 0)
(-0.152633 1.11435 0)
(-0.13806 0.951625 0)
(-0.0506372 0.870642 0)
(0.0811456 0.845048 0)
(0.239878 0.86887 0)
(0.327266 1.04976 0)
(0.262841 1.39859 0)
(0.0510804 1.45668 0)
(-0.100429 1.35638 0)
(-0.259895 1.26874 0)
(-0.446011 1.11101 0)
(-0.601695 0.829514 0)
(-0.605995 0.632755 0)
(-0.521559 0.507052 0)
(-0.440741 0.44291 0)
(-0.367206 0.477135 0)
(-0.278092 0.524263 0)
(-0.218768 0.54842 0)
(-0.164 0.594269 0)
(-0.109446 0.640579 0)
(-0.0555482 0.686989 0)
(-0.0119803 0.677946 0)
(0.0607525 0.838268 0)
(0.233304 1.2229 0)
(0.284565 1.24314 0)
(0.199939 0.699959 0)
(0.0492479 0.434212 0)
(0.109065 0.515521 0)
(0.116944 0.70715 0)
(0.137324 0.923577 0)
(-0.0813138 1.05334 0)
(-0.240306 0.948131 0)
(-0.136551 0.755193 0)
(0.0136105 0.688492 0)
(0.190366 0.685191 0)
(0.198974 1.01535 0)
(0.0655342 1.53149 0)
(-0.0508187 1.52999 0)
(-0.116471 1.41685 0)
(-0.214605 1.35878 0)
(-0.392207 1.25929 0)
(-0.580086 0.841261 0)
(-0.636803 0.548089 0)
(-0.544218 0.442667 0)
(-0.439143 0.393167 0)
(-0.353571 0.421631 0)
(-0.274382 0.460835 0)
(-0.219279 0.502526 0)
(-0.16832 0.551608 0)
(-0.116026 0.594596 0)
(-0.0671652 0.645276 0)
(-0.0191923 0.645473 0)
(0.0530777 0.687723 0)
(0.279134 1.05381 0)
(0.53767 1.10941 0)
(0.703856 0.917726 0)
(0.623255 0.52884 0)
(0.4944 0.5799 0)
(0.491609 0.560899 0)
(0.297597 1.12845 0)
(0.102836 1.36182 0)
(-0.091921 0.968571 0)
(-0.198125 0.687863 0)
(-0.0793157 0.533018 0)
(0.102118 0.59041 0)
(0.00855038 1.16882 0)
(-0.111508 1.47694 0)
(-0.119795 1.46679 0)
(-0.14493 1.39815 0)
(-0.197369 1.32163 0)
(-0.273441 1.27546 0)
(-0.471913 0.99766 0)
(-0.569865 0.453964 0)
(-0.524485 0.332758 0)
(-0.423601 0.332832 0)
(-0.331861 0.367032 0)
(-0.266859 0.406574 0)
(-0.214688 0.4585 0)
(-0.164372 0.506045 0)
(-0.111029 0.546239 0)
(-0.0686264 0.608246 0)
(-0.0229128 0.601306 0)
(0.0444201 0.562512 0)
(0.265393 0.858607 0)
(0.544829 0.854051 0)
(0.837648 0.810926 0)
(0.962705 0.696348 0)
(0.890646 0.617221 0)
(0.699461 0.863026 0)
(0.421552 1.12922 0)
(0.345218 1.27786 0)
(0.207319 1.25757 0)
(-0.117067 0.79803 0)
(-0.149825 0.419473 0)
(-0.103075 0.556456 0)
(-0.124258 1.28079 0)
(-0.172336 1.4504 0)
(-0.175396 1.47649 0)
(-0.197334 1.41798 0)
(-0.242451 1.36328 0)
(-0.264231 1.27564 0)
(-0.341564 1.04533 0)
(-0.378459 0.455811 0)
(-0.417199 0.238449 0)
(-0.36331 0.273102 0)
(-0.30214 0.315339 0)
(-0.253078 0.362279 0)
(-0.207444 0.416489 0)
(-0.158445 0.458112 0)
(-0.103857 0.494661 0)
(-0.0677641 0.576455 0)
(-0.0252928 0.549595 0)
(0.0343826 0.456756 0)
(0.225627 0.693654 0)
(0.432758 0.630667 0)
(0.645211 0.588336 0)
(0.776239 0.586892 0)
(0.787606 0.716403 0)
(0.688792 0.989594 0)
(0.529633 1.17978 0)
(0.454819 1.30005 0)
(0.356048 1.33208 0)
(0.0857211 1.17573 0)
(-0.113566 0.466676 0)
(-0.220583 0.621342 0)
(-0.212502 1.28777 0)
(-0.2138 1.46039 0)
(-0.228967 1.4684 0)
(-0.269099 1.45009 0)
(-0.298471 1.37137 0)
(-0.311847 1.26441 0)
(-0.277538 1.00833 0)
(-0.22388 0.452453 0)
(-0.249991 0.221283 0)
(-0.274688 0.235534 0)
(-0.262538 0.280726 0)
(-0.235116 0.327092 0)
(-0.195785 0.376034 0)
(-0.152164 0.410795 0)
(-0.105314 0.444864 0)
(-0.068089 0.544459 0)
(-0.0199467 0.495573 0)
(0.0173355 0.361031 0)
(0.166228 0.542999 0)
(0.308737 0.470957 0)
(0.431032 0.442718 0)
(0.514787 0.488203 0)
(0.582674 0.673605 0)
(0.637774 1.0184 0)
(0.59796 1.25531 0)
(0.505194 1.36633 0)
(0.377021 1.4515 0)
(0.193474 1.35174 0)
(-0.0610847 0.778297 0)
(-0.287022 0.710105 0)
(-0.270552 1.26796 0)
(-0.262056 1.46694 0)
(-0.287869 1.49417 0)
(-0.326916 1.45974 0)
(-0.355197 1.38446 0)
(-0.352084 1.24147 0)
(-0.236794 0.875682 0)
(-0.117212 0.395448 0)
(-0.140001 0.245817 0)
(-0.196043 0.250218 0)
(-0.220556 0.265979 0)
(-0.20707 0.294031 0)
(-0.173849 0.334937 0)
(-0.136812 0.368573 0)
(-0.102567 0.403762 0)
(-0.0650597 0.494657 0)
(-0.0112874 0.449085 0)
(-0.0057812 0.304215 0)
(0.0971715 0.423723 0)
(0.179933 0.365263 0)
(0.246636 0.351968 0)
(0.299482 0.404011 0)
(0.388905 0.563728 0)
(0.528986 0.921123 0)
(0.622183 1.29831 0)
(0.545538 1.48766 0)
(0.393139 1.58238 0)
(0.20759 1.56341 0)
(-0.0713243 1.10313 0)
(-0.309406 0.807359 0)
(-0.305267 1.25485 0)
(-0.299138 1.48806 0)
(-0.325119 1.49736 0)
(-0.362314 1.4769 0)
(-0.394602 1.381 0)
(-0.345365 1.18106 0)
(-0.161209 0.682653 0)
(-0.0519481 0.344438 0)
(-0.071814 0.273269 0)
(-0.119726 0.274147 0)
(-0.14741 0.260912 0)
(-0.146862 0.26596 0)
(-0.128596 0.298658 0)
(-0.104895 0.334169 0)
(-0.0825555 0.372527 0)
(-0.0572477 0.441565 0)
(-0.00746623 0.407889 0)
(-0.0157178 0.287447 0)
(0.0376222 0.343193 0)
(0.07632 0.308082 0)
(0.104214 0.301859 0)
(0.145205 0.335106 0)
(0.220868 0.444965 0)
(0.371507 0.74963 0)
(0.570834 1.23782 0)
(0.578422 1.58672 0)
(0.428775 1.75434 0)
(0.217305 1.76682 0)
(-0.105731 1.42262 0)
(-0.35464 0.921338 0)
(-0.352325 1.23739 0)
(-0.32404 1.49017 0)
(-0.338396 1.52201 0)
(-0.37215 1.48305 0)
(-0.388484 1.36882 0)
(-0.256549 1.01848 0)
(-0.0720182 0.520776 0)
(-0.0157877 0.325987 0)
(-0.0343975 0.301271 0)
(-0.0561899 0.286635 0)
(-0.0668549 0.254659 0)
(-0.0731995 0.249972 0)
(-0.0730604 0.276153 0)
(-0.0656199 0.310527 0)
(-0.0544273 0.348401 0)
(-0.0458486 0.399905 0)
(-0.00470399 0.368404 0)
(-0.0126437 0.291509 0)
(0.00130508 0.308492 0)
(0.013219 0.29054 0)
(0.0207552 0.279573 0)
(0.0424016 0.287607 0)
(0.0925034 0.358639 0)
(0.215799 0.572173 0)
(0.435913 1.05418 0)
(0.596094 1.64532 0)
(0.476976 1.93383 0)
(0.238749 2.03721 0)
(-0.144715 1.80126 0)
(-0.430795 1.0621 0)
(-0.433596 1.20077 0)
(-0.362757 1.47807 0)
(-0.336869 1.50848 0)
(-0.35486 1.48515 0)
(-0.308113 1.28956 0)
(-0.120528 0.824578 0)
(-0.00493694 0.435288 0)
(0.0052758 0.328198 0)
(-0.00583231 0.313099 0)
(-0.00789555 0.286689 0)
(-0.0107288 0.25474 0)
(-0.0214353 0.250821 0)
(-0.0312282 0.270009 0)
(-0.0346221 0.29839 0)
(-0.032735 0.331838 0)
(-0.0348833 0.370814 0)
(5.57672e-05 0.333104 0)
(-0.00886761 0.301525 0)
(-0.0129901 0.300626 0)
(-0.0135655 0.290104 0)
(-0.0147267 0.278766 0)
(-0.0123782 0.272958 0)
(0.00925939 0.302575 0)
(0.0860815 0.430831 0)
(0.279577 0.81476 0)
(0.554571 1.56586 0)
(0.520872 2.13535 0)
(0.269965 2.29071 0)
(-0.136033 2.22455 0)
(-0.470233 1.28206 0)
(-0.540737 1.16328 0)
(-0.440929 1.42906 0)
(-0.337428 1.48079 0)
(-0.287812 1.44819 0)
(-0.162304 1.13014 0)
(-0.000725333 0.687453 0)
(0.0411642 0.414079 0)
(0.0292554 0.3371 0)
(0.0234956 0.313848 0)
(0.0246795 0.284912 0)
(0.0183534 0.262054 0)
(0.00393082 0.260289 0)
(-0.00956667 0.272942 0)
(-0.0186846 0.294717 0)
(-0.022596 0.321852 0)
(-0.0220974 0.346438 0)
(0.00566627 0.310987 0)
(-0.00719591 0.313464 0)
(-0.0177063 0.303419 0)
(-0.0238414 0.29304 0)
(-0.0285724 0.282875 0)
(-0.0325515 0.274944 0)
(-0.0277595 0.28359 0)
(0.0089026 0.344208 0)
(0.143704 0.589931 0)
(0.439392 1.34542 0)
(0.540512 2.28395 0)
(0.34032 2.55832 0)
(0.0345225 2.55647 0)
(-0.373341 1.5906 0)
(-0.636999 1.19914 0)
(-0.551649 1.31002 0)
(-0.34561 1.4023 0)
(-0.166719 1.34852 0)
(-0.0114439 0.977005 0)
(0.0773276 0.630052 0)
(0.0770971 0.423764 0)
(0.0594752 0.348696 0)
(0.0500255 0.318202 0)
(0.0419456 0.292582 0)
(0.0284743 0.276016 0)
(0.0123033 0.273021 0)
(-0.00147722 0.279803 0)
(-0.0116636 0.295494 0)
(-0.0152679 0.314401 0)
(-0.00791246 0.324021 0)
(0.00725997 0.303954 0)
(-0.00701744 0.326081 0)
(-0.0207754 0.311312 0)
(-0.0302064 0.29776 0)
(-0.0361529 0.28611 0)
(-0.0400398 0.27744 0)
(-0.0396197 0.277538 0)
(-0.0233613 0.301926 0)
(0.0491663 0.428038 0)
(0.297637 1.05178 0)
(0.518437 2.33884 0)
(0.42529 2.69942 0)
(0.28282 2.80623 0)
(-0.197639 2.10993 0)
(-0.643785 1.37212 0)
(-0.591064 1.16159 0)
(-0.344464 1.21313 0)
(-0.0736872 1.17921 0)
(0.0768136 0.889402 0)
(0.112221 0.622623 0)
(0.100808 0.444087 0)
(0.0814828 0.367358 0)
(0.0644129 0.33356 0)
(0.0471065 0.308291 0)
(0.029884 0.291392 0)
(0.0144397 0.28479 0)
(0.0023839 0.286777 0)
(-0.00557814 0.297103 0)
(-0.00566769 0.307939 0)
(0.00132159 0.310099 0)
(0.00540776 0.305166 0)
(-0.00749009 0.339715 0)
(-0.0246858 0.323378 0)
(-0.0379655 0.30444 0)
(-0.0446199 0.288999 0)
(-0.0469671 0.277295 0)
(-0.0450402 0.271654 0)
(-0.0348374 0.279403 0)
(-2.97586e-05 0.336767 0)
(0.172295 0.7582 0)
(0.441345 2.26238 0)
(0.478132 2.78134 0)
(0.428069 2.90477 0)
(0.0884809 2.70362 0)
(-0.372484 1.58766 0)
(-0.524837 1.09119 0)
(-0.336049 1.03867 0)
(-0.083438 1.00314 0)
(0.068934 0.833885 0)
(0.104521 0.626127 0)
(0.0992145 0.465108 0)
(0.0825319 0.391992 0)
(0.0630813 0.35467 0)
(0.044408 0.325652 0)
(0.0282279 0.305163 0)
(0.0150654 0.294387 0)
(0.00548077 0.292179 0)
(0.000416163 0.297032 0)
(0.0018086 0.301205 0)
(0.00513717 0.303299 0)
(0.00366533 0.30876 0)
(-0.00738436 0.353933 0)
(-0.0297478 0.341923 0)
(-0.0499457 0.313646 0)
(-0.0570302 0.291526 0)
(-0.0578044 0.275094 0)
(-0.0539379 0.264063 0)
(-0.0446062 0.261885 0)
(-0.0240073 0.284868 0)
(0.07889 0.517303 0)
(0.329527 2.05688 0)
(0.4696 2.72372 0)
(0.49547 2.92055 0)
(0.436508 2.88149 0)
(-0.000442489 2.02372 0)
(-0.398531 1.13652 0)
(-0.329047 0.931426 0)
(-0.153524 0.864242 0)
(-0.00280556 0.767583 0)
(0.0642714 0.612836 0)
(0.0738551 0.480693 0)
(0.0649156 0.412934 0)
(0.0510371 0.37169 0)
(0.0378331 0.339607 0)
(0.0257679 0.316017 0)
(0.0157261 0.301609 0)
(0.00856512 0.295454 0)
(0.00535676 0.295201 0)
(0.00590126 0.296181 0)
(0.00600397 0.300647 0)
(0.00252574 0.31209 0)
(-0.00490452 0.369025 0)
(-0.0355709 0.373012 0)