/*--------------------------------*- C++ -*----------------------------------*\
| =========                 |                                                 |
| \\      /  F ield         | OpenFOAM: The Open Source CFD Toolbox           |
|  \\    /   O peration     | Version:  2.3.0                                 |
|   \\  /    A nd           | Web:      www.OpenFOAM.org                      |
|    \\/     M anipulation  |                                                 |
\*---------------------------------------------------------------------------*/
FoamFile
{
    version     2.0;
    format      ascii;
    class       volVectorField;
    location    "0.89";
    object      U.particlesMean;
}
// * * * * * * * * * * * * * * * * * * * * * * * * * * * * * * * * * * * * * //

dimensions      [0 1 -1 0 0 0 0];

internalField   nonuniform List<vector> 
6000
(
(0.00133256 -0.307405 0)
(0.0161778 -0.332928 0)
(0.0342805 -0.336235 0)
(0.0461596 -0.347878 0)
(0.0541066 -0.370846 0)
(0.0504282 -0.400598 0)
(0.0357715 -0.41647 0)
(0.0256413 -0.42497 0)
(0.0232836 -0.426824 0)
(0.0156669 -0.432995 0)
(0.00664396 -0.441482 0)
(0.00539833 -0.451586 0)
(-0.00155458 -0.449262 0)
(-0.0209154 -0.428809 0)
(-0.0282018 -0.409592 0)
(-0.023591 -0.413092 0)
(-0.020693 -0.420332 0)
(-0.0123026 -0.416071 0)
(-0.0144494 -0.407219 0)
(-0.0190227 -0.399338 0)
(-0.0166238 -0.391319 0)
(-0.0133591 -0.386103 0)
(-0.00938589 -0.400177 0)
(-0.00807518 -0.41057 0)
(-0.00963272 -0.40504 0)
(-0.015427 -0.389306 0)
(-0.0197713 -0.379809 0)
(-0.0247745 -0.369179 0)
(-0.0249147 -0.347228 0)
(-0.00342701 -0.299721 0)
(0.0161874 -0.00836723 0)
(0.0278098 0.00307207 0)
(0.0441874 0.00209506 0)
(0.0520307 0.00256144 0)
(0.0591474 0.00101282 0)
(0.065052 -0.00960144 0)
(0.0593519 -0.00889888 0)
(0.0428793 0.00963484 0)
(0.0318622 0.00874547 0)
(0.017625 -0.00843568 0)
(0.0127272 -0.0152226 0)
(0.0110253 -0.00624811 0)
(-0.000248471 -0.0157146 0)
(-0.00829238 -0.0195734 0)
(-0.00985406 -0.00712742 0)
(-0.0162002 -0.00456643 0)
(-0.024448 0.00137001 0)
(-0.0304011 0.0165278 0)
(-0.0298249 -0.00312836 0)
(-0.0322387 0.0187354 0)
(-0.0274591 0.0381938 0)
(-0.0284159 0.0289587 0)
(-0.0283459 0.0199777 0)
(-0.0355477 0.0150948 0)
(-0.0435049 0.0181629 0)
(-0.0460394 0.00284073 0)
(-0.0390497 -0.0233658 0)
(-0.0399663 -0.0384837 0)
(-0.0248121 -0.0118824 0)
(-0.00947029 -0.0260639 0)
(-0.00186787 -0.0699161 0)
(0.0175581 -0.0934008 0)
(0.0320127 -0.0940136 0)
(0.0408039 -0.0851644 0)
(0.05152 -0.0779638 0)
(0.0574583 -0.0681973 0)
(0.0545313 -0.058921 0)
(0.0393386 -0.0462246 0)
(0.0311652 -0.0472628 0)
(0.0216194 -0.0633471 0)
(0.0205577 -0.0682559 0)
(0.0199439 -0.0649437 0)
(0.017329 -0.064188 0)
(0.00971703 -0.051347 0)
(0.00485516 -0.0501396 0)
(-0.00823734 -0.045017 0)
(-0.0313502 -0.046223 0)
(-0.0426839 -0.0489203 0)
(-0.0428594 -0.0592083 0)
(-0.0412916 -0.0606982 0)
(-0.0381685 -0.0629568 0)
(-0.0403119 -0.0513802 0)
(-0.0493279 -0.0523959 0)
(-0.0573505 -0.0568921 0)
(-0.0559255 -0.0605508 0)
(-0.0450838 -0.0765391 0)
(-0.0298743 -0.100377 0)
(-0.0233163 -0.116084 0)
(-0.0117361 -0.0949583 0)
(0.00882019 -0.0837783 0)
(-0.00245859 -0.0861656 0)
(0.00823502 -0.10811 0)
(0.0122119 -0.107985 0)
(0.0304674 -0.102159 0)
(0.0438845 -0.0931748 0)
(0.0516272 -0.0786479 0)
(0.0496722 -0.0571824 0)
(0.0391897 -0.0415107 0)
(0.0341955 -0.0406805 0)
(0.0289551 -0.0536426 0)
(0.0273321 -0.0583907 0)
(0.0247974 -0.0561886 0)
(0.0231552 -0.0549302 0)
(0.0183962 -0.043621 0)
(0.0118278 -0.0388706 0)
(-0.00398495 -0.0300288 0)
(-0.0284286 -0.0362468 0)
(-0.0464727 -0.0443976 0)
(-0.0499376 -0.0526311 0)
(-0.0462018 -0.0532221 0)
(-0.0493856 -0.0535414 0)
(-0.0575217 -0.0490647 0)
(-0.0673614 -0.0586284 0)
(-0.0697355 -0.0693561 0)
(-0.060312 -0.0833688 0)
(-0.0425354 -0.0998271 0)
(-0.024337 -0.118276 0)
(-0.0125654 -0.126256 0)
(-0.00898949 -0.110895 0)
(0.00668983 -0.0991316 0)
(0.0118982 -0.115097 0)
(0.00754089 -0.132083 0)
(0.00925552 -0.135599 0)
(0.0230243 -0.12908 0)
(0.0308793 -0.113742 0)
(0.037992 -0.0907027 0)
(0.0374607 -0.0613732 0)
(0.0308633 -0.041162 0)
(0.0248802 -0.0455049 0)
(0.0201858 -0.0628894 0)
(0.0189546 -0.070064 0)
(0.0200727 -0.0741558 0)
(0.0190384 -0.0688064 0)
(0.0179776 -0.0516452 0)
(0.0131004 -0.0366019 0)
(-0.00388862 -0.0268452 0)
(-0.0227278 -0.0357998 0)
(-0.0418698 -0.0504004 0)
(-0.0462548 -0.0649639 0)
(-0.0393614 -0.0752064 0)
(-0.0415914 -0.0723852 0)
(-0.0516465 -0.0621776 0)
(-0.0634877 -0.0699728 0)
(-0.067031 -0.0856635 0)
(-0.058116 -0.107467 0)
(-0.0434394 -0.130568 0)
(-0.0288437 -0.146654 0)
(-0.0184144 -0.151554 0)
(-0.00892197 -0.133891 0)
(0.00561362 -0.122439 0)
(0.0159995 -0.136445 0)
(0.0232583 -0.139804 0)
(0.0170945 -0.140476 0)
(0.0265357 -0.135309 0)
(0.0223295 -0.117354 0)
(0.0220416 -0.0933384 0)
(0.0215595 -0.0658699 0)
(0.015827 -0.0493345 0)
(0.00898688 -0.0508188 0)
(0.0040139 -0.0667624 0)
(0.00344589 -0.0766467 0)
(0.00408622 -0.0783786 0)
(0.00498446 -0.0715746 0)
(0.0106751 -0.0516931 0)
(0.00769089 -0.0330743 0)
(-0.00555854 -0.0232683 0)
(-0.0159698 -0.0271211 0)
(-0.0301684 -0.0441032 0)
(-0.0318492 -0.0693372 0)
(-0.0294636 -0.0799495 0)
(-0.0344003 -0.0741511 0)
(-0.0464728 -0.0647034 0)
(-0.0572264 -0.0703615 0)
(-0.0627425 -0.0855802 0)
(-0.0578952 -0.11306 0)
(-0.0490257 -0.140182 0)
(-0.0424167 -0.157006 0)
(-0.0269493 -0.162571 0)
(-0.0107878 -0.142998 0)
(0.004584 -0.132548 0)
(0.0115276 -0.145089 0)
(0.0272516 -0.143624 0)
(0.03541 -0.139074 0)
(0.0326362 -0.125996 0)
(0.029159 -0.110299 0)
(0.0186339 -0.0833834 0)
(0.0108791 -0.0556535 0)
(0.00197423 -0.0398273 0)
(-0.0087036 -0.0473081 0)
(-0.0151535 -0.0650037 0)
(-0.0161562 -0.0744912 0)
(-0.0149436 -0.0751231 0)
(-0.0115096 -0.0697441 0)
(0.00107185 -0.046916 0)
(-0.00298142 -0.0260587 0)
(-0.018851 -0.0269491 0)
(-0.0206108 -0.0313228 0)
(-0.0197509 -0.0475856 0)
(-0.0182926 -0.0682168 0)
(-0.0226402 -0.0741131 0)
(-0.0300037 -0.0651946 0)
(-0.0437244 -0.0573589 0)
(-0.0550861 -0.0630999 0)
(-0.0613937 -0.0803203 0)
(-0.0587977 -0.108952 0)
(-0.0586993 -0.137906 0)
(-0.0525009 -0.155906 0)
(-0.0356422 -0.163981 0)
(-0.0166376 -0.147068 0)
(0.00397012 -0.135924 0)
(0.0140383 -0.14656 0)
(0.0311752 -0.141317 0)
(0.0419703 -0.133167 0)
(0.0462526 -0.115382 0)
(0.0333132 -0.09398 0)
(0.0235199 -0.0642069 0)
(0.00678041 -0.0354366 0)
(-0.00993821 -0.0217232 0)
(-0.0222569 -0.0346695 0)
(-0.0310007 -0.0549724 0)
(-0.0340175 -0.0646608 0)
(-0.0287566 -0.0695149 0)
(-0.0223935 -0.0624589 0)
(-0.0101972 -0.0421164 0)
(-0.0146372 -0.0218482 0)
(-0.0230894 -0.0275665 0)
(-0.0247776 -0.0370693 0)
(-0.0163809 -0.0465739 0)
(-0.0128336 -0.0594429 0)
(-0.0209784 -0.0633686 0)
(-0.0269901 -0.0546287 0)
(-0.0391999 -0.0474018 0)
(-0.0509444 -0.0515583 0)
(-0.0611943 -0.0679266 0)
(-0.0644387 -0.0975731 0)
(-0.0660607 -0.131705 0)
(-0.0581934 -0.149122 0)
(-0.0418803 -0.158269 0)
(-0.020137 -0.147403 0)
(0.00280892 -0.137583 0)
(0.0133824 -0.144774 0)
(0.0322727 -0.138291 0)
(0.0451873 -0.126835 0)
(0.0499627 -0.106734 0)
(0.0437017 -0.0759358 0)
(0.0210652 -0.0365148 0)
(0.00552416 -0.00891913 0)
(-0.022529 0.000457464 0)
(-0.0320586 -0.0210743 0)
(-0.0413109 -0.0464397 0)
(-0.0455282 -0.0586537 0)
(-0.0355061 -0.0620862 0)
(-0.0286814 -0.0586226 0)
(-0.017001 -0.0438359 0)
(-0.0194425 -0.0248004 0)
(-0.0232115 -0.0312256 0)
(-0.026738 -0.0349777 0)
(-0.022059 -0.0406837 0)
(-0.0140301 -0.0524448 0)
(-0.0205047 -0.0567731 0)
(-0.0250664 -0.0466106 0)
(-0.0335448 -0.0352581 0)
(-0.049212 -0.035371 0)
(-0.0657804 -0.0553049 0)
(-0.0670825 -0.0866441 0)
(-0.0701121 -0.125196 0)
(-0.0611263 -0.143967 0)
(-0.0464986 -0.154791 0)
(-0.0245533 -0.150711 0)
(0.00302682 -0.14009 0)
(0.0111549 -0.141181 0)
(0.0318907 -0.133887 0)
(0.0442177 -0.117445 0)
(0.0498615 -0.0956106 0)
(0.0469172 -0.0610647 0)
(0.0320239 -0.017571 0)
(0.0148249 0.00734932 0)
(-0.0217447 0.0134747 0)
(-0.03214 -0.00735164 0)
(-0.0401168 -0.0335168 0)
(-0.0456336 -0.0508239 0)
(-0.038283 -0.0536249 0)
(-0.0317656 -0.0534841 0)
(-0.0219094 -0.0433982 0)
(-0.0222408 -0.026301 0)
(-0.0261129 -0.0290552 0)
(-0.0307219 -0.0303032 0)
(-0.0242162 -0.0360936 0)
(-0.0195144 -0.0498874 0)
(-0.025552 -0.050955 0)
(-0.0303015 -0.0392356 0)
(-0.0420584 -0.0253478 0)
(-0.055681 -0.0274988 0)
(-0.0660933 -0.0431244 0)
(-0.0700541 -0.0727996 0)
(-0.069619 -0.113064 0)
(-0.0614686 -0.136677 0)
(-0.0457541 -0.150021 0)
(-0.0254544 -0.153371 0)
(0.00263091 -0.144702 0)
(0.0076279 -0.138467 0)
(0.0286655 -0.133329 0)
(0.0405144 -0.112445 0)
(0.0486227 -0.0863989 0)
(0.0503607 -0.0481374 0)
(0.0369748 -0.00309118 0)
(0.0245463 0.0268198 0)
(-0.00303293 0.0299535 0)
(-0.0184426 0.0123147 0)
(-0.0252391 -0.0154707 0)
(-0.037328 -0.0378805 0)
(-0.0391169 -0.0451819 0)
(-0.0343552 -0.0465722 0)
(-0.027318 -0.0397136 0)
(-0.0264603 -0.0242342 0)
(-0.029703 -0.0246387 0)
(-0.0330223 -0.0249751 0)
(-0.0253322 -0.0290107 0)
(-0.0296857 -0.0416164 0)
(-0.0381281 -0.0397432 0)
(-0.0510912 -0.0275655 0)
(-0.0640272 -0.0217457 0)
(-0.0635181 -0.0251467 0)
(-0.0670655 -0.0356696 0)
(-0.0688349 -0.0622873 0)
(-0.0679301 -0.101223 0)
(-0.0599005 -0.130008 0)
(-0.0432434 -0.147414 0)
(-0.0255233 -0.153422 0)
(0.00228134 -0.148076 0)
(0.00529676 -0.137853 0)
(0.0247922 -0.136634 0)
(0.0350116 -0.109771 0)
(0.0458218 -0.0789429 0)
(0.0515705 -0.0429516 0)
(0.0436881 0.000319612 0)
(0.0363779 0.0313061 0)
(0.0230033 0.0386978 0)
(-0.00203126 0.0309052 0)
(-0.00795298 0.00526829 0)
(-0.0233693 -0.0228841 0)
(-0.036551 -0.033608 0)
(-0.0362635 -0.0359642 0)
(-0.0327 -0.0323953 0)
(-0.032034 -0.0213405 0)
(-0.0331252 -0.0199281 0)
(-0.0338783 -0.0197333 0)
(-0.0308303 -0.0192149 0)
(-0.0364348 -0.0278407 0)
(-0.053506 -0.024664 0)
(-0.0705016 -0.0197871 0)
(-0.0720635 -0.0263512 0)
(-0.0718028 -0.0295329 0)
(-0.0734792 -0.036388 0)
(-0.0709607 -0.0591141 0)
(-0.0653351 -0.0927583 0)
(-0.0578924 -0.121387 0)
(-0.0402282 -0.141471 0)
(-0.0252655 -0.153465 0)
(0.00335874 -0.150985 0)
(0.00296811 -0.137345 0)
(0.0212067 -0.141035 0)
(0.0298424 -0.111527 0)
(0.0431789 -0.0773806 0)
(0.0498776 -0.0427414 0)
(0.0497698 -0.000438157 0)
(0.0443007 0.0303311 0)
(0.0369185 0.0451448 0)
(0.00877167 0.0455859 0)
(0.00222847 0.0208045 0)
(-0.0086298 -0.0104486 0)
(-0.0333116 -0.022547 0)
(-0.0380197 -0.0261281 0)
(-0.0361591 -0.0252447 0)
(-0.0358096 -0.0186981 0)
(-0.0338676 -0.0149472 0)
(-0.0340415 -0.00754337 0)
(-0.037224 -0.00821278 0)
(-0.0434353 -0.0138398 0)
(-0.0674404 -0.0167617 0)
(-0.0716514 -0.0237567 0)
(-0.0751628 -0.0312874 0)
(-0.0780153 -0.0331557 0)
(-0.0783806 -0.0386029 0)
(-0.072105 -0.0584903 0)
(-0.0635036 -0.087171 0)
(-0.0548376 -0.114132 0)
(-0.0374293 -0.135401 0)
(-0.0237364 -0.154336 0)
(0.00444149 -0.150679 0)
(0.00209764 -0.136477 0)
(0.0185773 -0.143423 0)
(0.0248647 -0.114903 0)
(0.0386986 -0.0799119 0)
(0.048593 -0.0443029 0)
(0.0549614 -0.00513931 0)
(0.0491908 0.0306107 0)
(0.0426625 0.0510959 0)
(0.0272373 0.0529791 0)
(0.00923434 0.0381393 0)
(0.00144188 0.00261393 0)
(-0.0301135 -0.00937953 0)
(-0.039074 -0.015546 0)
(-0.039452 -0.0177238 0)
(-0.0392301 -0.0133851 0)
(-0.0365245 -0.00643829 0)
(-0.0402426 0.000291498 0)
(-0.03998 0.00235101 0)
(-0.055762 -0.00217366 0)
(-0.0679618 -0.0143806 0)
(-0.0694982 -0.025881 0)
(-0.0751508 -0.0312513 0)
(-0.0792039 -0.0318641 0)
(-0.0812488 -0.0400687 0)
(-0.0718885 -0.0593265 0)
(-0.0615543 -0.0865811 0)
(-0.0501675 -0.111568 0)
(-0.0312777 -0.133228 0)
(-0.0179865 -0.156189 0)
(0.00220309 -0.150964 0)
(0.00258336 -0.135984 0)
(0.0148394 -0.144558 0)
(0.0202428 -0.118497 0)
(0.0336429 -0.0844437 0)
(0.0484588 -0.0476758 0)
(0.0581796 -0.00919903 0)
(0.0539422 0.0276105 0)
(0.0422138 0.0507509 0)
(0.0386345 0.0600112 0)
(0.0168918 0.0491247 0)
(0.00640573 0.0135827 0)
(-0.0204289 0.000757441 0)
(-0.0370202 -0.00514132 0)
(-0.0403948 -0.00876617 0)
(-0.0398171 -0.00573944 0)
(-0.0415231 0.00238671 0)
(-0.0408293 0.00711973 0)
(-0.0413924 0.0103876 0)
(-0.0610917 0.00155895 0)
(-0.065167 -0.0134723 0)
(-0.0679937 -0.0244496 0)
(-0.073117 -0.0301281 0)
(-0.0799415 -0.0309026 0)
(-0.0827536 -0.042388 0)
(-0.0714331 -0.0646049 0)
(-0.0577675 -0.0902806 0)
(-0.0449951 -0.113994 0)
(-0.0233943 -0.137268 0)
(-0.01179 -0.159317 0)
(0.00401019 -0.153533 0)
(0.00273412 -0.134567 0)
(0.0109987 -0.145193 0)
(0.0162079 -0.120782 0)
(0.0279532 -0.0888815 0)
(0.0463107 -0.0473587 0)
(0.0589198 -0.0123742 0)
(0.060239 0.0279677 0)
(0.0442852 0.0524272 0)
(0.0415304 0.0607669 0)
(0.0315265 0.0614873 0)
(0.0164393 0.0253605 0)
(-0.00182617 0.00774583 0)
(-0.028911 0.003817 0)
(-0.0382841 0.00154101 0)
(-0.0367271 0.00513318 0)
(-0.0447773 0.011542 0)
(-0.0409399 0.0125958 0)
(-0.0481843 0.0147198 0)
(-0.0597828 0.00319559 0)
(-0.0624218 -0.0118068 0)
(-0.0654188 -0.0227197 0)
(-0.0708869 -0.0283034 0)
(-0.0791712 -0.0283515 0)
(-0.0820532 -0.0416496 0)
(-0.0681615 -0.070561 0)
(-0.0530272 -0.0951062 0)
(-0.0365071 -0.120046 0)
(-0.0171936 -0.142205 0)
(-0.010126 -0.163781 0)
(0.00244923 -0.153522 0)
(-0.000577972 -0.135523 0)
(0.00785349 -0.145265 0)
(0.0131669 -0.124403 0)
(0.0221464 -0.0937659 0)
(0.0425873 -0.0507972 0)
(0.0562152 -0.0167092 0)
(0.0645191 0.0280636 0)
(0.0528171 0.0538006 0)
(0.0430518 0.0620821 0)
(0.0387062 0.0636485 0)
(0.0343396 0.0424412 0)
(0.0125584 0.0166498 0)
(-0.0130201 0.0153111 0)
(-0.0345839 0.0137001 0)
(-0.0319403 0.0198342 0)
(-0.0407407 0.0227587 0)
(-0.0399458 0.0180185 0)
(-0.0481183 0.0160949 0)
(-0.0560201 0.0063051 0)
(-0.0579696 -0.00904802 0)
(-0.0613612 -0.021576 0)
(-0.0695241 -0.0274159 0)
(-0.0805679 -0.0283789 0)
(-0.0760005 -0.0413178 0)
(-0.0609038 -0.0766804 0)
(-0.0455316 -0.099323 0)
(-0.0274629 -0.127455 0)
(-0.0128529 -0.149136 0)
(-0.0100532 -0.168581 0)
(-0.00366813 -0.155733 0)
(-0.00491209 -0.132955 0)
(0.0056664 -0.143656 0)
(0.0108673 -0.128233 0)
(0.01835 -0.100024 0)
(0.03615 -0.0580338 0)
(0.0538765 -0.0226313 0)
(0.0674099 0.0242006 0)
(0.0640677 0.0534711 0)
(0.0491165 0.0626394 0)
(0.0454846 0.0631043 0)
(0.0410085 0.0538171 0)
(0.0329876 0.0306725 0)
(0.00192379 0.0304822 0)
(-0.0262754 0.030815 0)
(-0.0265225 0.0374572 0)
(-0.0341418 0.0343137 0)
(-0.0358116 0.0233153 0)
(-0.0435003 0.0209788 0)
(-0.0490838 0.00978701 0)
(-0.0530519 -0.00641483 0)
(-0.0574022 -0.0202102 0)
(-0.0686587 -0.0253669 0)
(-0.0783362 -0.0269675 0)
(-0.0660762 -0.0421696 0)
(-0.049112 -0.0840721 0)
(-0.0348957 -0.104757 0)
(-0.0190895 -0.133629 0)
(-0.00966347 -0.154994 0)
(-0.00931979 -0.171972 0)
(-0.00392559 -0.160569 0)
(-0.00556333 -0.12939 0)
(0.00459878 -0.142242 0)
(0.00925606 -0.132776 0)
(0.0155811 -0.108678 0)
(0.0289643 -0.0662141 0)
(0.051571 -0.0309187 0)
(0.0675623 0.0158505 0)
(0.0750159 0.0502184 0)
(0.0661426 0.0600488 0)
(0.0556472 0.0642482 0)
(0.0480084 0.0638225 0)
(0.0415843 0.0481415 0)
(0.0113956 0.0444882 0)
(-0.0182714 0.0498328 0)
(-0.0215422 0.0533768 0)
(-0.0273394 0.0427621 0)
(-0.027627 0.0316771 0)
(-0.0349276 0.0243467 0)
(-0.0414507 0.0154421 0)
(-0.0483679 -0.00400714 0)
(-0.0552248 -0.0182529 0)
(-0.0660131 -0.0211062 0)
(-0.0718928 -0.0237862 0)
(-0.0530121 -0.0431023 0)
(-0.0358232 -0.0936595 0)
(-0.0239152 -0.113411 0)
(-0.0133686 -0.136198 0)
(-0.00855986 -0.156639 0)
(-0.00725716 -0.173197 0)
(0.000269968 -0.162107 0)
(-0.00228336 -0.125199 0)
(0.00489501 -0.139931 0)
(0.0095512 -0.137843 0)
(0.0154314 -0.119628 0)
(0.024408 -0.0757982 0)
(0.0502259 -0.0398957 0)
(0.0647448 0.00631179 0)
(0.0786541 0.0443937 0)
(0.0766798 0.0578095 0)
(0.0675292 0.0627542 0)
(0.0567534 0.068079 0)
(0.0504161 0.0628862 0)
(0.0257748 0.0518955 0)
(-0.0120707 0.0699994 0)
(-0.0143127 0.0682851 0)
(-0.0208837 0.0524116 0)
(-0.0207612 0.0378931 0)
(-0.0247949 0.0284542 0)
(-0.0337469 0.0206349 0)
(-0.0428635 0.000222441 0)
(-0.0520769 -0.0143941 0)
(-0.0609537 -0.0139977 0)
(-0.0611519 -0.0189242 0)
(-0.0356257 -0.041473 0)
(-0.0256742 -0.0975905 0)
(-0.0154831 -0.120238 0)
(-0.0101023 -0.142418 0)
(-0.00719192 -0.156577 0)
(-0.00562267 -0.17116 0)
(0.00782326 -0.163893 0)
(0.00186982 -0.125921 0)
(0.0102517 -0.141322 0)
(0.0142549 -0.144289 0)
(0.0184778 -0.12872 0)
(0.022053 -0.0846726 0)
(0.0453667 -0.0484431 0)
(0.0643168 -0.0029087 0)
(0.0772739 0.0378942 0)
(0.0817721 0.0556385 0)
(0.0784465 0.0593519 0)
(0.0674916 0.0689723 0)
(0.0573448 0.0752872 0)
(0.0404054 0.0656034 0)
(0.00241157 0.081422 0)
(-0.00917818 0.084886 0)
(-0.0141306 0.0653113 0)
(-0.0149551 0.0470015 0)
(-0.016765 0.0322164 0)
(-0.0263675 0.025778 0)
(-0.0352848 0.00734355 0)
(-0.0453885 -0.00690413 0)
(-0.0513958 -0.00544159 0)
(-0.0497344 -0.0121365 0)
(-0.0200163 -0.0437822 0)
(-0.0194253 -0.105155 0)
(-0.0109152 -0.126744 0)
(-0.00831609 -0.14962 0)
(-0.00601297 -0.160516 0)
(-0.0022567 -0.166867 0)
(0.0149747 -0.158873 0)
(0.00503855 -0.130384 0)
(0.0163538 -0.14886 0)
(0.0177901 -0.149996 0)
(0.0227508 -0.138059 0)
(0.0221267 -0.0939238 0)
(0.0401694 -0.0509962 0)
(0.0610002 -0.015556 0)
(0.080316 0.0336071 0)
(0.0819504 0.052686 0)
(0.0839515 0.0583621 0)
(0.0736331 0.0701594 0)
(0.0620367 0.0823676 0)
(0.053008 0.0809944 0)
(0.0210982 0.0881851 0)
(0.00093527 0.0937478 0)
(-0.00929655 0.079099 0)
(-0.00940617 0.0536076 0)
(-0.0100911 0.0365351 0)
(-0.0183857 0.0311677 0)
(-0.0258736 0.0166436 0)
(-0.0367839 0.00271784 0)
(-0.0401539 0.00409072 0)
(-0.0374203 -0.00578818 0)
(-0.011611 -0.0455742 0)
(-0.0188448 -0.111928 0)
(-0.00848405 -0.13278 0)
(-0.00785559 -0.154048 0)
(-0.00496354 -0.161415 0)
(0.000586945 -0.157931 0)
(0.0128725 -0.150889 0)
(0.00583012 -0.140395 0)
(0.0177378 -0.159826 0)
(0.0191049 -0.156811 0)
(0.0234386 -0.142232 0)
(0.022344 -0.100685 0)
(0.0372003 -0.0550424 0)
(0.057221 -0.0223587 0)
(0.0808005 0.0232255 0)
(0.0885607 0.0503026 0)
(0.0905601 0.0582009 0)
(0.0816678 0.0721351 0)
(0.0700087 0.0860905 0)
(0.0592968 0.0927997 0)
(0.0416524 0.0905928 0)
(0.0109334 0.096508 0)
(-0.000137214 0.0885959 0)
(-0.00288296 0.0610735 0)
(-0.00255114 0.0400167 0)
(-0.00828851 0.0364923 0)
(-0.0125213 0.0280259 0)
(-0.0257429 0.0138377 0)
(-0.0306121 0.0134133 0)
(-0.0259606 2.86667e-05 0)
(-0.00639446 -0.0405694 0)
(-0.0164439 -0.108898 0)
(-0.00636045 -0.137786 0)
(-0.00985785 -0.156499 0)
(-0.00786177 -0.158848 0)
(-0.00283603 -0.159125 0)
(0.00740044 -0.142854 0)
(0.00230396 -0.151042 0)
(0.0177908 -0.174681 0)
(0.0181563 -0.165588 0)
(0.0238386 -0.146519 0)
(0.0215316 -0.106389 0)
(0.032521 -0.057784 0)
(0.0557191 -0.0343699 0)
(0.0772699 0.0118805 0)
(0.0912933 0.0442002 0)
(0.0957394 0.0572891 0)
(0.0914131 0.0711281 0)
(0.0808917 0.0871308 0)
(0.0629551 0.0997862 0)
(0.0517158 0.0994902 0)
(0.0341345 0.0968338 0)
(0.0127056 0.0950817 0)
(0.005141 0.06906 0)
(0.00391909 0.0416256 0)
(0.00151695 0.0368266 0)
(0.000161753 0.0353865 0)
(-0.0119543 0.0250859 0)
(-0.0200401 0.0269394 0)
(-0.0180018 0.00683059 0)
(-0.00398165 -0.0331308 0)
(-0.0107957 -0.101617 0)
(-0.00366573 -0.139126 0)
(-0.00812966 -0.154617 0)
(-0.00642985 -0.158057 0)
(-0.00650721 -0.160853 0)
(0.00085988 -0.138703 0)
(0.000931325 -0.161819 0)
(0.0185477 -0.18662 0)
(0.0176166 -0.176753 0)
(0.0226625 -0.148976 0)
(0.0184863 -0.111866 0)
(0.0271141 -0.0629824 0)
(0.0536345 -0.0390762 0)
(0.0734533 0.0014336 0)
(0.0918277 0.0351677 0)
(0.0991331 0.0546121 0)
(0.0998383 0.0708513 0)
(0.0895727 0.0874349 0)
(0.0704938 0.102333 0)
(0.0624442 0.105451 0)
(0.0512591 0.103228 0)
(0.0298402 0.0952935 0)
(0.0148753 0.0771756 0)
(0.0110571 0.0425655 0)
(0.00955333 0.036737 0)
(0.00761783 0.0366228 0)
(0.000828354 0.0348954 0)
(-0.00492004 0.044013 0)
(-0.0109953 0.0215331 0)
(-0.00171529 -0.0279297 0)
(-0.00460939 -0.0941757 0)
(0.00178938 -0.135705 0)
(-0.00344763 -0.155269 0)
(-0.00320344 -0.162843 0)
(-0.00671841 -0.168139 0)
(-0.000699581 -0.139646 0)
(-0.000665997 -0.16953 0)
(0.0219155 -0.195007 0)
(0.019175 -0.179381 0)
(0.0207148 -0.152946 0)
(0.0178543 -0.117566 0)
(0.0230617 -0.0690297 0)
(0.0529844 -0.0400139 0)
(0.0713579 -0.0046758 0)
(0.0887585 0.0256883 0)
(0.099998 0.0508065 0)
(0.104128 0.0692931 0)
(0.0950522 0.0866342 0)
(0.0808787 0.101518 0)
(0.0713989 0.107816 0)
(0.0643274 0.110186 0)
(0.0516404 0.101064 0)
(0.0267544 0.0830712 0)
(0.0191485 0.0478123 0)
(0.0168227 0.0379981 0)
(0.0118502 0.0383772 0)
(0.00864559 0.0393464 0)
(0.00575184 0.0537543 0)
(-0.00382969 0.0350041 0)
(0.0012294 -0.021595 0)
(0.000332124 -0.0881963 0)
(0.00591013 -0.131798 0)
(0.000546021 -0.153094 0)
(0.000350418 -0.1702 0)
(-0.00583812 -0.173313 0)
(-7.69125e-05 -0.141196 0)
(-0.00374359 -0.17324 0)
(0.0213888 -0.195874 0)
(0.020723 -0.174696 0)
(0.019759 -0.153253 0)
(0.0169271 -0.120619 0)
(0.0216869 -0.0746759 0)
(0.048122 -0.0405718 0)
(0.0683682 -0.0104019 0)
(0.0819751 0.0203447 0)
(0.0971684 0.0468156 0)
(0.103312 0.0677304 0)
(0.0986113 0.0839133 0)
(0.0882618 0.100636 0)
(0.0749322 0.109276 0)
(0.0725521 0.115577 0)
(0.0642069 0.112181 0)
(0.0386964 0.0908325 0)
(0.0255905 0.0528872 0)
(0.0225082 0.0414521 0)
(0.0143295 0.0414549 0)
(0.0119091 0.0432715 0)
(0.00942015 0.0569981 0)
(-0.00125809 0.0392447 0)
(0.00477345 -0.0149214 0)
(0.0082689 -0.0826778 0)
(0.00947264 -0.129542 0)
(0.00422836 -0.151273 0)
(0.000943918 -0.171385 0)
(-0.00607146 -0.181291 0)
(-5.4898e-05 -0.14389 0)
(-0.00724192 -0.174552 0)
(0.0188262 -0.191845 0)
(0.0196723 -0.164877 0)
(0.0189778 -0.149242 0)
(0.0149428 -0.12105 0)
(0.0182205 -0.0800044 0)
(0.038726 -0.0431662 0)
(0.0621995 -0.017341 0)
(0.074914 0.0166602 0)
(0.0908648 0.0422906 0)
(0.0990914 0.0660199 0)
(0.100179 0.0819726 0)
(0.0901764 0.0981113 0)
(0.0775583 0.110405 0)
(0.0737032 0.117712 0)
(0.0708001 0.120579 0)
(0.0542559 0.100904 0)
(0.0310044 0.0593931 0)
(0.0262173 0.0469199 0)
(0.0164699 0.0458557 0)
(0.00979358 0.046962 0)
(0.00409506 0.0561157 0)
(-0.00332789 0.0325979 0)
(0.000836782 -0.022083 0)
(0.013674 -0.0805271 0)
(0.0132388 -0.127814 0)
(0.0085427 -0.147452 0)
(0.00373624 -0.169343 0)
(-0.00633855 -0.184747 0)
(0.00148261 -0.14811 0)
(-0.00858839 -0.172338 0)
(0.0145509 -0.188363 0)
(0.0157833 -0.158848 0)
(0.018074 -0.145099 0)
(0.0117151 -0.122675 0)
(0.0132634 -0.0869692 0)
(0.0295906 -0.0475378 0)
(0.0518484 -0.0253859 0)
(0.0678451 0.00694462 0)
(0.0816129 0.0347419 0)
(0.0922869 0.0625479 0)
(0.0974375 0.0798636 0)
(0.087863 0.0968691 0)
(0.0774072 0.108836 0)
(0.0704168 0.118698 0)
(0.0688612 0.126324 0)
(0.0592464 0.117934 0)
(0.033205 0.0655126 0)
(0.027515 0.0541905 0)
(0.0152891 0.0513432 0)
(0.00472147 0.0512411 0)
(0.000716648 0.0502882 0)
(-0.00525827 0.0184487 0)
(-0.00598483 -0.0339017 0)
(0.0159101 -0.0822241 0)
(0.0174733 -0.128099 0)
(0.0140005 -0.143797 0)
(0.00799645 -0.161794 0)
(-0.00422258 -0.183718 0)
(0.00426766 -0.151499 0)
(-0.0115941 -0.165556 0)
(0.0106981 -0.182308 0)
(0.0121033 -0.152839 0)
(0.0180478 -0.140986 0)
(0.0113052 -0.127459 0)
(0.0084098 -0.0963516 0)
(0.0187332 -0.0531125 0)
(0.0412858 -0.0325143 0)
(0.0593672 -0.00763722 0)
(0.0708234 0.0312194 0)
(0.082383 0.0593276 0)
(0.0887376 0.079787 0)
(0.0843673 0.0958893 0)
(0.0762876 0.108674 0)
(0.0701641 0.120239 0)
(0.0675924 0.132437 0)
(0.059195 0.130664 0)
(0.0367216 0.0769211 0)
(0.028144 0.0635836 0)
(0.0106062 0.0610456 0)
(0.000634553 0.053864 0)
(-0.00199917 0.0422778 0)
(-0.0092555 0.00567604 0)
(-0.00153837 -0.0402892 0)
(0.01744 -0.0853519 0)
(0.0214997 -0.126816 0)
(0.0185015 -0.138499 0)
(0.0120283 -0.155502 0)
(-0.00237467 -0.179797 0)
(0.00500932 -0.151891 0)
(-0.0188107 -0.157747 0)
(0.00501849 -0.172998 0)
(0.00816552 -0.145329 0)
(0.0156907 -0.137586 0)
(0.00885586 -0.132156 0)
(0.00276862 -0.107138 0)
(0.0105288 -0.0637855 0)
(0.0342589 -0.041962 0)
(0.0507982 -0.012967 0)
(0.0612395 0.0271236 0)
(0.0732405 0.0603521 0)
(0.0777516 0.0809618 0)
(0.0759085 0.0974229 0)
(0.0687928 0.10577 0)
(0.0660085 0.12151 0)
(0.0595027 0.138606 0)
(0.0524607 0.142172 0)
(0.0353559 0.0858253 0)
(0.0232958 0.0785138 0)
(0.0118474 0.072309 0)
(0.000355651 0.0570583 0)
(-0.00297473 0.0354354 0)
(-0.0109828 -0.00288336 0)
(0.00800696 -0.0426226 0)
(0.0227754 -0.0877084 0)
(0.0237479 -0.125305 0)
(0.0204584 -0.134465 0)
(0.0126281 -0.150416 0)
(-0.00167143 -0.176575 0)
(0.00461523 -0.152657 0)
(-0.0190612 -0.14342 0)
(0.000306367 -0.157977 0)
(0.00137098 -0.138226 0)
(0.00994544 -0.130749 0)
(0.00465693 -0.132345 0)
(-0.00131625 -0.115239 0)
(0.00296206 -0.0696287 0)
(0.0281655 -0.038097 0)
(0.0438631 -0.010682 0)
(0.0542943 0.0273563 0)
(0.0653162 0.0587157 0)
(0.0697169 0.0829436 0)
(0.0688723 0.0974011 0)
(0.0664467 0.10818 0)
(0.0613351 0.124473 0)
(0.0495398 0.146616 0)
(0.0456422 0.152433 0)
(0.0334446 0.0959935 0)
(0.0172155 0.0880876 0)
(0.00649144 0.0841983 0)
(-0.000920795 0.0589903 0)
(-0.0040679 0.0333833 0)
(-0.00911753 -0.00630185 0)
(0.0131184 -0.0414176 0)
(0.0276026 -0.0883718 0)
(0.0244577 -0.121994 0)
(0.0201612 -0.128818 0)
(0.0119962 -0.144301 0)
(-0.00125415 -0.173179 0)
(0.00492732 -0.151813 0)
(-0.0149948 -0.133143 0)
(-0.002665 -0.139408 0)
(-0.00459235 -0.126322 0)
(0.00141419 -0.119198 0)
(-0.00208065 -0.126413 0)
(-0.00656282 -0.117088 0)
(-0.00493223 -0.0690878 0)
(0.0192504 -0.0316367 0)
(0.0377903 -0.00405973 0)
(0.0474384 0.0322944 0)
(0.0596405 0.0626256 0)
(0.0652541 0.0830306 0)
(0.0649661 0.101245 0)
(0.0651473 0.11073 0)
(0.0562846 0.130987 0)
(0.0421478 0.155441 0)
(0.0381497 0.158744 0)
(0.0259509 0.097991 0)
(0.00247647 0.0909302 0)
(-0.00397063 0.0844104 0)
(-0.00653113 0.0588452 0)
(-0.00614555 0.0334028 0)
(-0.00564431 -0.00359732 0)
(0.0167755 -0.0398231 0)
(0.0287113 -0.0862598 0)
(0.0237981 -0.117843 0)
(0.0189442 -0.122907 0)
(0.0107082 -0.139249 0)
(-0.000512853 -0.169643 0)
(0.00595758 -0.15091 0)
(-0.0118643 -0.125672 0)
(-0.00389321 -0.124202 0)
(-0.00707769 -0.117432 0)
(-0.00568366 -0.108383 0)
(-0.00600473 -0.118363 0)
(-0.01166 -0.114643 0)
(-0.0118614 -0.0684696 0)
(0.0106321 -0.0261831 0)
(0.0315792 -0.000168457 0)
(0.0413559 0.0396839 0)
(0.0535815 0.0685071 0)
(0.0619075 0.0885078 0)
(0.0608808 0.106845 0)
(0.0596225 0.119934 0)
(0.0483358 0.13879 0)
(0.0365087 0.163781 0)
(0.0316904 0.159977 0)
(0.0154557 0.103405 0)
(-0.00636572 0.0943082 0)
(-0.00864883 0.0882945 0)
(-0.00901566 0.0636191 0)
(-0.00625759 0.0409684 0)
(0.00273944 0.00158892 0)
(0.0237527 -0.0330457 0)
(0.0306518 -0.082078 0)
(0.0237375 -0.110879 0)
(0.017862 -0.1177 0)
(0.0101957 -0.134589 0)
(2.59923e-05 -0.165684 0)
(0.00646928 -0.148713 0)
(-0.0086619 -0.120464 0)
(-0.00331821 -0.113394 0)
(-0.00810441 -0.10925 0)
(-0.00848004 -0.103338 0)
(-0.00725589 -0.110517 0)
(-0.0117726 -0.111765 0)
(-0.0182766 -0.0693747 0)
(0.00464346 -0.0248577 0)
(0.027098 0.0046132 0)
(0.0361226 0.0443644 0)
(0.0474599 0.0774725 0)
(0.0578886 0.0939306 0)
(0.0570224 0.114756 0)
(0.0538775 0.127579 0)
(0.0437842 0.148701 0)
(0.0335884 0.17343 0)
(0.0268325 0.159296 0)
(0.0111123 0.111008 0)
(-0.0106364 0.102268 0)
(-0.0130181 0.0955252 0)
(-0.0148797 0.0713747 0)
(-0.0103752 0.0369296 0)
(0.0105271 0.00435246 0)
(0.0300818 -0.0273897 0)
(0.032172 -0.0768772 0)
(0.0234191 -0.101339 0)
(0.017581 -0.112716 0)
(0.00979714 -0.13072 0)
(0.00103528 -0.161521 0)
(0.00741795 -0.150637 0)
(-0.00681276 -0.12001 0)
(-0.000878246 -0.112082 0)
(-0.00805844 -0.107326 0)
(-0.00659503 -0.104082 0)
(-0.00564826 -0.108429 0)
(-0.00847957 -0.110228 0)
(-0.0205459 -0.0722055 0)
(-0.00231707 -0.0225508 0)
(0.0219575 0.00837855 0)
(0.0319507 0.0470485 0)
(0.04088 0.0852362 0)
(0.0519511 0.104757 0)
(0.0530309 0.122183 0)
(0.050595 0.136118 0)
(0.042068 0.156795 0)
(0.0324542 0.182576 0)
(0.0253435 0.154741 0)
(0.011269 0.122395 0)
(-0.0125893 0.11127 0)
(-0.018189 0.103611 0)
(-0.0197953 0.0690011 0)
(-0.010092 0.0304062 0)
(0.0119557 0.00378133 0)
(0.0340605 -0.0223241 0)
(0.0325306 -0.070805 0)
(0.0240319 -0.093175 0)
(0.0171109 -0.109664 0)
(0.00965555 -0.127871 0)
(0.0026044 -0.157849 0)
(0.0115602 -0.1522 0)
(-0.00710275 -0.122255 0)
(0.00396824 -0.117796 0)
(0.000750937 -0.114721 0)
(-0.00150853 -0.107257 0)
(-0.00256598 -0.109538 0)
(-0.00550569 -0.110667 0)
(-0.0219722 -0.0710731 0)
(-0.00591503 -0.0232485 0)
(0.0149091 0.0116929 0)
(0.0279929 0.0466515 0)
(0.0359973 0.0910074 0)
(0.0459671 0.11127 0)
(0.0493329 0.132049 0)
(0.0478688 0.144643 0)
(0.0419294 0.166991 0)
(0.032762 0.18748 0)
(0.0274713 0.155875 0)
(0.0151907 0.132712 0)
(-0.0130159 0.122494 0)
(-0.0207305 0.114217 0)
(-0.0184711 0.0694859 0)
(-0.0029009 0.0290914 0)
(0.0160573 0.00354605 0)
(0.0363787 -0.019631 0)
(0.0324657 -0.0643317 0)
(0.0245329 -0.0899635 0)
(0.0155895 -0.106814 0)
(0.00899815 -0.125795 0)
(0.00408309 -0.160387 0)
(0.0147733 -0.152713 0)
(-0.00916478 -0.122049 0)
(0.00771781 -0.121016 0)
(0.00438617 -0.118036 0)
(-0.000482668 -0.111489 0)
(-0.00323732 -0.110836 0)
(-0.00494469 -0.109218 0)
(-0.0227892 -0.0670454 0)
(-0.0117838 -0.022181 0)
(0.00744401 0.0137442 0)
(0.0222469 0.0487579 0)
(0.0284754 0.0947949 0)
(0.0406303 0.119578 0)
(0.0450253 0.138227 0)
(0.0459429 0.154497 0)
(0.042512 0.176963 0)
(0.0337377 0.191783 0)
(0.0306563 0.158186 0)
(0.023076 0.144474 0)
(-0.00879284 0.133981 0)
(-0.0198681 0.124523 0)
(-0.0127075 0.0681417 0)
(0.00491497 0.0300718 0)
(0.0210958 0.00562556 0)
(0.0385116 -0.0176343 0)
(0.0342879 -0.0608916 0)
(0.0234299 -0.0852641 0)
(0.0125888 -0.101991 0)
(0.00871139 -0.127967 0)
(0.00183163 -0.163843 0)
(0.0165607 -0.151706 0)
(-0.0127336 -0.118395 0)
(0.00485601 -0.121417 0)
(0.00267987 -0.116388 0)
(-0.00208502 -0.11002 0)
(-0.0053683 -0.106688 0)
(-0.00798534 -0.101739 0)
(-0.0277028 -0.0610061 0)
(-0.0196575 -0.0200572 0)
(0.000464018 0.0159995 0)
(0.0149865 0.0502028 0)
(0.0209667 0.0987944 0)
(0.0357275 0.126016 0)
(0.0404521 0.146939 0)
(0.0428448 0.161698 0)
(0.0429471 0.185609 0)
(0.0361416 0.192714 0)
(0.0343134 0.162935 0)
(0.02942 0.153779 0)
(-0.00172621 0.14635 0)
(-0.0178069 0.133625 0)
(-0.00442687 0.0679817 0)
(0.0093251 0.0277699 0)
(0.0235183 0.00756556 0)
(0.040389 -0.0151341 0)
(0.0336166 -0.0560195 0)
(0.0195061 -0.0773688 0)
(0.0101295 -0.0981712 0)
(0.00565119 -0.129715 0)
(-0.00306502 -0.161733 0)
(0.0183419 -0.147618 0)
(-0.0152435 -0.106926 0)