/*--------------------------------*- C++ -*----------------------------------*\
| =========                 |                                                 |
| \\      /  F ield         | OpenFOAM: The Open Source CFD Toolbox           |
|  \\    /   O peration     | Version:  2.3.0                                 |
|   \\  /    A nd           | Web:      www.OpenFOAM.org                      |
|    \\/     M anipulation  |                                                 |
\*---------------------------------------------------------------------------*/
FoamFile
{
    version     2.0;
    format      ascii;
    class       surfaceScalarField;
    location    "1.4";
    object      phi;
}
// * * * * * * * * * * * * * * * * * * * * * * * * * * * * * * * * * * * * * //

dimensions      [0 3 -1 0 0 0 0];

internalField   nonuniform List<scalar> 
11770
(
2.94502e-06
4.52154e-05
3.60055e-06
4.76754e-05
3.30534e-06
4.87575e-05
5.20361e-06
4.66088e-05
8.50112e-06
4.51541e-05
1.13011e-05
4.56608e-05
1.07255e-05
4.90738e-05
3.2026e-06
5.59876e-05
-3.82866e-06
5.54822e-05
-6.96049e-06
5.15079e-05
-8.63921e-06
5.01526e-05
-9.98813e-06
4.98709e-05
-1.38502e-05
5.24443e-05
-1.82126e-05
5.29503e-05
-2.03815e-05
5.0713e-05
-2.17109e-05
4.98764e-05
-2.06644e-05
4.74192e-05
-1.76724e-05
4.54104e-05
-1.31654e-05
4.38019e-05
-8.90713e-06
4.4085e-05
-1.051e-05
5.0045e-05
-1.72549e-05
5.51004e-05
-2.33998e-05
5.47997e-05
-1.27193e-05
3.77133e-05
8.58044e-06
2.69081e-05
2.63338e-05
3.06914e-05
3.13338e-05
4.37505e-05
1.97408e-05
6.06058e-05
8.76692e-06
5.99197e-05
5.76304e-05
1.16539e-06
4.54676e-05
5.67576e-06
4.45783e-05
1.11024e-05
4.47679e-05
1.48763e-05
4.42453e-05
1.93009e-05
4.20781e-05
1.92413e-05
4.70418e-05
1.11533e-05
5.85394e-05
5.96998e-06
6.26457e-05
1.69608e-06
6.11928e-05
-4.68758e-06
5.91825e-05
-1.1555e-05
5.82985e-05
-1.85159e-05
5.81078e-05
-2.40455e-05
5.93275e-05
-2.72502e-05
5.75881e-05
-2.82385e-05
5.31213e-05
-2.67386e-05
4.9774e-05
-2.52832e-05
4.7286e-05
-2.43484e-05
4.57663e-05
-2.32775e-05
4.39667e-05
-2.41688e-05
4.62312e-05
-2.1106e-05
4.83918e-05
-1.58087e-05
5.13689e-05
-1.04052e-05
5.09635e-05
7.70065e-07
2.77128e-05
1.56221e-05
1.29731e-05
3.02802e-05
1.69738e-05
3.96794e-05
3.55167e-05
3.34798e-05
6.83627e-05
1.42954e-05
8.06852e-05
7.34856e-05
2.87902e-06
4.27333e-05
8.0201e-06
3.95321e-05
1.19188e-05
4.0965e-05
1.40955e-05
4.21708e-05
1.93511e-05
3.69322e-05
2.15599e-05
4.49398e-05
1.55077e-05
6.47437e-05
9.2774e-06
6.91021e-05
2.29876e-06
6.84236e-05
-5.46814e-06
6.71897e-05
-1.45215e-05
6.75704e-05
-2.41004e-05
6.78756e-05
-3.00293e-05
6.54532e-05
-3.19128e-05
5.96798e-05
-3.15522e-05
5.29573e-05
-3.00018e-05
4.84161e-05
-2.83552e-05
4.5829e-05
-2.50466e-05
4.26417e-05
-2.15917e-05
4.06793e-05
-1.76642e-05
4.24591e-05
-1.30654e-05
4.39375e-05
-7.10156e-06
4.55315e-05
3.21156e-06
4.07602e-05
1.21608e-05
1.88403e-05
1.73974e-05
7.79298e-06
2.45117e-05
9.91966e-06
3.6302e-05
2.38031e-05
3.82747e-05
6.65273e-05
2.13671e-05
9.77913e-05
9.50794e-05
7.27588e-06
3.54998e-05
1.29042e-05
3.39339e-05
1.66711e-05
3.72282e-05
2.03292e-05
3.85395e-05
2.40292e-05
3.3263e-05
2.26763e-05
4.63425e-05
1.4144e-05
7.33683e-05
8.45818e-06
7.49047e-05
7.66754e-07
7.62477e-05
-8.65351e-06
7.67475e-05
-1.84254e-05
7.74724e-05
-2.81292e-05
7.76908e-05
-3.56492e-05
7.30722e-05
-3.90691e-05
6.31643e-05
-3.82963e-05
5.22447e-05
-3.60708e-05
4.62489e-05
-3.21543e-05
4.19731e-05
-2.61756e-05
3.67312e-05
-1.88994e-05
3.34744e-05
-9.57966e-06
3.32085e-05
-2.58351e-07
3.46827e-05
8.96942e-06
3.636e-05
1.93281e-05
3.04552e-05
2.2421e-05
1.57887e-05
2.00511e-05
1.01965e-05
1.90174e-05
1.09876e-05
2.45963e-05
1.82639e-05
3.52639e-05
5.59308e-05
2.06682e-05
0.000112523
0.000115871
4.63146e-06
3.08903e-05
1.011e-05
2.84747e-05
1.36585e-05
3.36991e-05
1.7212e-05
3.50006e-05
1.78598e-05
3.26392e-05
1.71957e-05
4.70462e-05
1.23344e-05
7.82711e-05
7.09228e-06
8.02223e-05
-5.48662e-07
8.39901e-05
-1.04424e-05
8.67564e-05
-2.11166e-05
8.82527e-05
-3.25378e-05
8.92108e-05
-4.33267e-05
8.39305e-05
-4.50651e-05
6.49337e-05
-4.08232e-05
4.80409e-05
-3.53323e-05
4.07944e-05
-2.89906e-05
3.56703e-05
-2.26652e-05
3.04529e-05
-1.53178e-05
2.61873e-05
-5.88593e-06
2.38477e-05
5.15415e-06
2.37218e-05
1.71553e-05
2.44336e-05
2.65194e-05
2.11493e-05
2.64963e-05
1.58541e-05
2.26033e-05
1.41273e-05
1.84241e-05
1.52043e-05
1.63975e-05
2.033e-05
2.67617e-05
4.56258e-05
1.94372e-05
0.000119986
0.000135426
-2.96514e-07
3.12066e-05
-1.62885e-06
2.98237e-05
-1.79541e-06
3.38829e-05
1.30775e-06
3.19151e-05
4.53232e-06
2.94395e-05
1.03327e-05
4.12712e-05
1.15178e-05
7.71041e-05
6.64359e-06
8.51593e-05
-9.45715e-07
9.16757e-05
-1.08961e-05
9.68265e-05
-2.25147e-05
9.99723e-05
-3.59585e-05
0.000102756
-4.46294e-05
9.26709e-05
-3.84637e-05
5.87977e-05
-3.17729e-05
4.13833e-05
-2.69418e-05
3.59977e-05
-2.19734e-05
3.0742e-05
-1.58265e-05
2.4355e-05
-8.65078e-06
1.90668e-05
-7.41579e-07
1.59965e-05
8.2999e-06
1.47382e-05
1.83205e-05
1.44693e-05
2.5064e-05
1.44564e-05
2.57206e-05
1.52431e-05
2.30619e-05
1.68286e-05
1.81504e-05
2.01581e-05
1.15377e-05
2.69874e-05
1.22229e-05
4.49964e-05
1.511e-05
0.000117227
0.000150661
-8.81e-07
3.21203e-05
-3.72523e-06
3.27021e-05
-4.05596e-06
3.42497e-05
-4.69065e-06
3.25832e-05
-5.48603e-06
3.02625e-05
5.51316e-07
3.52555e-05
1.01359e-05
6.75434e-05
7.48568e-06
8.7872e-05
7.24313e-07
9.85599e-05
-8.9458e-06
0.000106617
-2.15218e-05
0.000112648
-3.60172e-05
0.000117358
-3.47813e-05
9.15097e-05
-2.66066e-05
5.0656e-05
-2.44038e-05
3.92129e-05
-2.23225e-05
3.39569e-05
-1.83637e-05
2.68279e-05
-1.24724e-05
1.85069e-05
-4.9322e-06
1.15683e-05
3.52075e-06
7.5856e-06
1.202e-05
6.28235e-06
1.95107e-05
7.02417e-06
2.38484e-05
1.01657e-05
2.43006e-05
1.48372e-05
2.16427e-05
1.95307e-05
1.5921e-05
2.59259e-05
6.26926e-06
3.66921e-05
-2.1113e-06
5.34391e-05
2.94899e-06
0.000112285
0.00015375
-2.76072e-06
3.49249e-05
-6.55665e-06
3.65425e-05
-9.04962e-06
3.67883e-05
-1.14755e-05
3.50516e-05
-1.39802e-05
3.28053e-05
-1.26866e-05
3.40026e-05
2.07587e-06
5.28423e-05
8.39445e-06
8.16647e-05
5.41133e-06
0.000101693
-4.0447e-06
0.000116183
-1.89141e-05
0.000127616
-3.1892e-05
0.000130442
-2.29003e-05
8.25883e-05
-2.12586e-05
4.905e-05
-2.2446e-05
4.04395e-05
-2.12924e-05
3.2846e-05
-1.71085e-05
2.26834e-05
-1.07392e-05
1.21718e-05
-3.01099e-06
3.87221e-06
5.13e-06
-5.23491e-07
1.32036e-05
-1.75754e-06
1.96682e-05
5.96702e-07
2.38214e-05
6.05503e-06
2.28462e-05
1.58567e-05
1.88691e-05
2.35517e-05
1.01636e-05
3.46813e-05
-4.85991e-06
5.17824e-05
-1.92405e-05
6.78999e-05
-1.40002e-05
0.000107168
0.000139905
-5.39806e-06
4.03745e-05
-1.05331e-05
4.17307e-05
-1.44878e-05
4.07964e-05
-1.76523e-05
3.82676e-05
-2.03382e-05
3.55399e-05
-2.1052e-05
3.47666e-05
-1.12888e-05
4.31529e-05
4.13294e-06
6.63651e-05
1.24878e-05
9.34583e-05
3.895e-06
0.000124873
-1.59957e-05
0.000147607
-2.22192e-05
0.000136767
-1.5625e-05
7.60582e-05
-1.95369e-05
5.30045e-05
-2.1917e-05
4.28624e-05
-2.08421e-05
3.18107e-05
-1.65497e-05
1.84233e-05
-1.01186e-05
5.76696e-06
-2.93944e-06
-3.28371e-06
4.81042e-06
-8.25064e-06
1.2383e-05
-9.30564e-06
1.98245e-05
-6.81568e-06
2.31573e-05
2.75889e-06
2.59459e-05
1.31139e-05
2.21779e-05
2.73739e-05
6.41355e-06
5.05048e-05
-1.93127e-05
7.75806e-05
-3.28579e-05
8.15315e-05
-2.27495e-05
9.71815e-05
0.000117306
-9.65183e-06
5.00865e-05
-1.64766e-05
4.86198e-05
-2.08492e-05
4.52317e-05
-2.34534e-05
4.09325e-05
-2.53575e-05
3.75012e-05
-2.62788e-05
3.57424e-05
-2.2612e-05
3.95392e-05
-8.16649e-06
5.19849e-05
1.17039e-05
7.36616e-05
1.12499e-05
0.00012542
-1.05246e-05
0.0001695
-1.17969e-05
0.000138146
-1.31187e-05
7.74457e-05
-1.87959e-05
5.87324e-05
-2.12064e-05
4.53172e-05
-2.06784e-05
3.13172e-05
-1.67422e-05
1.45118e-05
-1.10887e-05
1.30892e-07
-4.55344e-06
-9.80497e-06
2.41884e-06
-1.52092e-05
1.05895e-05
-1.74604e-05
1.84973e-05
-1.47005e-05
2.92045e-05
-7.91241e-06
4.17114e-05
6.57528e-07
4.29988e-05
2.61477e-05
1.79299e-05
7.56371e-05
-1.47773e-05
0.000110354
-2.84595e-05
9.52842e-05
-1.99375e-05
8.87446e-05
9.74733e-05
-1.81774e-05
6.83394e-05
-2.65305e-05
5.70479e-05
-2.86994e-05
4.74698e-05
-2.91699e-05
4.14699e-05
-2.90599e-05
3.74541e-05
-2.87179e-05
3.54578e-05
-2.61632e-05
3.70332e-05
-1.69095e-05
4.27664e-05
-7.01115e-07
5.75043e-05
1.18739e-05
0.000112946
7.15638e-07
0.00018082
-3.3522e-06
0.00014235
-1.32481e-05
8.74253e-05
-1.82882e-05
6.38317e-05
-2.06909e-05
4.77633e-05
-2.10391e-05
3.16954e-05
-1.84886e-05
1.19777e-05
-1.34327e-05
-4.91776e-06
-7.68451e-06
-1.55479e-05
-1.18306e-06
-2.17046e-05
6.21292e-06
-2.48479e-05
1.10587e-05
-1.95257e-05
1.92891e-05
-1.61122e-05
3.2157e-05
-1.21719e-05
4.45304e-05
1.38226e-05
3.6229e-05
8.39942e-05
1.51073e-05
0.000131534
-8.90754e-06
0.000119359
-1.12277e-05
9.11256e-05
8.63143e-05
-1.90903e-05
8.75065e-05
-3.14023e-05
6.94289e-05
-3.43234e-05
5.04631e-05
-3.35353e-05
4.07446e-05
-3.12803e-05
3.52612e-05
-2.87795e-05
3.30132e-05
-2.45558e-05
3.28547e-05
-1.71994e-05
3.54434e-05
-7.27605e-06
4.76243e-05
5.44701e-06
0.000100335
1.03117e-05
0.000176159
3.37121e-06
0.000149459
-1.62672e-05
0.000107162
-1.94688e-05
6.70827e-05
-2.17403e-05
5.00604e-05
-2.50265e-05
3.49944e-05
-2.32241e-05
1.01751e-05
-1.73125e-05
-1.08339e-05
-1.20797e-05
-2.07824e-05
-7.13076e-06
-2.66521e-05
-4.51821e-06
-2.74518e-05
-1.22154e-06
-2.28038e-05
1.5657e-06
-1.88771e-05
5.17221e-06
-1.57522e-05
1.44092e-05
4.62207e-06
2.41369e-05
7.4317e-05
2.94943e-05
0.000126237
2.01848e-05
0.000128735
5.1236e-06
0.000106249
9.15004e-05
-5.18632e-06
9.27648e-05
-1.71104e-05
8.14254e-05
-3.09657e-05
6.43914e-05
-3.55095e-05
4.53522e-05
-3.20197e-05
3.18259e-05
-2.76086e-05
2.86518e-05
-2.17609e-05
2.70453e-05
-1.40424e-05
2.77537e-05
-6.4288e-06
4.00477e-05
-8.03457e-06
0.000102048
7.97566e-06
0.000160329
4.84057e-06
0.000152746
-2.11645e-05
0.00013327
-3.33308e-05
7.93092e-05
-3.64951e-05
5.32711e-05
-3.32179e-05
3.17502e-05
-2.54201e-05
2.3926e-06
-2.1391e-05
-1.48572e-05
-1.67099e-05
-2.54658e-05
-1.29398e-05
-3.04197e-05
-1.10345e-05
-2.93449e-05
-1.03657e-05
-2.34557e-05
-1.24623e-05
-1.67605e-05
-1.78774e-05
-1.03141e-05
-1.85918e-05
5.36962e-06
-2.80864e-06
5.85854e-05
1.17199e-05
0.000111777
1.34912e-05
0.000127037
5.51874e-06
0.000114292
9.70853e-05
8.92351e-06
8.39072e-05
7.83715e-06
8.25781e-05
-8.47457e-06
8.07724e-05
-2.72742e-05
6.42202e-05
-3.2424e-05
3.70329e-05
-2.63286e-05
2.25987e-05
-1.96764e-05
2.04251e-05
-1.02523e-05
1.83529e-05
-1.07114e-05
4.05432e-05
-2.19251e-05
0.000113356
-1.02142e-05
0.000148743
-9.86673e-06
0.00015251
-2.91113e-05
0.000152605
-5.77712e-05
0.000108041
-5.19818e-05
4.75428e-05
-3.35226e-05
1.33381e-05
-2.3618e-05
-7.48069e-06
-2.07831e-05
-1.76703e-05
-1.9621e-05
-2.66168e-05
-1.59987e-05
-3.40357e-05
-1.46122e-05
-3.07178e-05
-1.68886e-05
-2.11603e-05
-2.3162e-05
-1.04635e-05
-3.14699e-05
-1.97846e-06
-3.63974e-05
1.03334e-05
-2.50989e-05
4.73419e-05
-1.28203e-05
9.95712e-05
-5.66196e-06
0.000119956
-4.68208e-06
0.000113385
9.24687e-05
1.02431e-05
7.37274e-05
2.13619e-05
7.15227e-05
2.47461e-05
7.74526e-05
8.32849e-06
8.07043e-05
-1.74593e-05
6.28811e-05
-2.48199e-05
3.00114e-05
-1.82938e-05
1.39303e-05
-8.86467e-06
8.94464e-06
-1.19087e-05
4.36273e-05
-2.48929e-05
0.000126419
-2.75291e-05
0.000151471
-3.08867e-05
0.000155957
-3.29179e-05
0.000154718
-5.28637e-05
0.000128063
-3.98242e-05
3.45563e-05
-2.63728e-05
-7.67811e-08
-2.01259e-05
-1.36999e-05
-1.66515e-05
-2.11203e-05
-1.673e-05
-2.65162e-05
-1.54696e-05
-3.5281e-05
-1.38993e-05
-3.22701e-05
-1.93428e-05
-1.56944e-05
-2.85573e-05
-1.22157e-06
-3.57596e-05
5.25585e-06
-4.08703e-05
1.54858e-05
-3.74366e-05
4.39726e-05
-2.74531e-05
8.96743e-05
-1.78361e-05
0.00011043
-1.1381e-05
0.000107016
8.11601e-05
1.15285e-05
6.22604e-05
2.73726e-05
5.57394e-05
4.10612e-05
6.38257e-05
4.50796e-05
7.67467e-05
2.30462e-05
8.49696e-05
-7.20865e-06
6.03199e-05
-1.64288e-05
2.31909e-05
-1.47384e-05
7.27454e-06
-1.59212e-05
4.48471e-05
-2.25137e-05
0.000133081
-2.75234e-05
0.000156562
-3.025e-05
0.000158766
-3.28616e-05
0.000157412
-3.95107e-05
0.000134789
-2.94636e-05
2.4554e-05
-2.29188e-05
-6.59069e-06
-2.00193e-05
-1.65733e-05
-1.70911e-05
-2.40241e-05
-1.41353e-05
-2.9448e-05
-1.30614e-05
-3.63339e-05
-1.13009e-05
-3.40091e-05
-1.63053e-05
-1.06611e-05
-2.71663e-05
9.67303e-06
-3.47962e-05
1.29207e-05
-4.30228e-05
2.37554e-05
-4.697e-05
4.79839e-05
-3.60021e-05
7.87941e-05
-2.27604e-05
9.72836e-05
-1.21282e-05
9.64761e-05
6.91095e-05
1.24351e-05
4.98848e-05
2.99536e-05
3.8278e-05
4.67242e-05
4.71136e-05
5.71991e-05
6.63275e-05
5.50614e-05
8.71588e-05
2.64912e-05
8.89405e-05
-7.00774e-06
5.6743e-05
-1.91184e-05
1.94067e-05
-1.85349e-05
4.4281e-05
-1.44649e-05
0.000129074
-2.08696e-05
0.000163047
-2.52552e-05
0.000163234
-2.80955e-05
0.000160333
-2.99943e-05
0.000136764
-2.4958e-05
1.95569e-05
-2.2422e-05
-9.09859e-06
-2.19659e-05
-1.70035e-05
-2.11614e-05
-2.48041e-05
-1.91317e-05
-3.14541e-05
-1.72623e-05
-3.81805e-05
-1.60319e-05
-3.52142e-05
-1.64737e-05
-1.01865e-05
-2.33953e-05
1.66325e-05
-3.56325e-05
2.51972e-05
-4.63872e-05
3.45529e-05
-4.69817e-05
4.86299e-05
-3.44303e-05
6.63068e-05
-1.92095e-05
8.21358e-05
-6.57501e-06
8.39161e-05
6.25996e-05
1.09067e-05
3.9034e-05
2.33459e-05
2.5891e-05
3.74992e-05
3.30145e-05
5.17347e-05
5.21493e-05
5.76086e-05
8.13569e-05
4.95951e-05
9.70438e-05
1.77675e-05
8.86806e-05
-1.20609e-05
4.92871e-05
-2.16071e-05
5.38347e-05
-1.18232e-05
0.000119332
-1.51326e-05
0.000166434
-2.08783e-05
0.000169061
-2.39799e-05
0.000163514
-2.45701e-05
0.000137426
-2.26184e-05
1.76413e-05
-2.29521e-05
-8.73817e-06
-2.44176e-05
-1.55117e-05
-2.53867e-05
-2.38099e-05
-2.63481e-05
-3.04685e-05
-2.82245e-05
-3.62803e-05
-2.80011e-05
-3.54109e-05
-2.19869e-05
-1.61677e-05
-1.96456e-05
1.43294e-05
-2.48323e-05
3.04236e-05
-3.01065e-05
3.98686e-05
-3.21227e-05
5.06907e-05
-2.72938e-05
6.15271e-05
-1.52702e-05
7.01658e-05
-2.56703e-06
7.12678e-05
6.00837e-05
8.42334e-06
3.06615e-05
1.36845e-05
2.06753e-05
2.22611e-05
2.44864e-05
3.6147e-05
3.83225e-05
5.03654e-05
6.72263e-05
5.41748e-05
9.33545e-05
4.2022e-05
0.000100957
2.94242e-06
8.84796e-05
-2.44184e-05
8.12343e-05
-1.75492e-05
0.000112466
-1.31382e-05
0.000162094
-1.80967e-05
0.000174101
-2.17829e-05
0.000167281
-2.14351e-05
0.000137149
-2.11892e-05
1.74294e-05
-2.37167e-05
-6.18434e-06
-2.60398e-05
-1.31616e-05
-2.74186e-05
-2.24054e-05
-2.8492e-05
-2.93705e-05
-3.0119e-05
-3.46295e-05
-3.02593e-05
-3.52453e-05
-2.4148e-05
-2.22486e-05
-1.6949e-05
7.1669e-06
-1.68701e-05
3.03847e-05
-1.82227e-05
4.12629e-05
-1.90441e-05
5.15557e-05
-1.6345e-05
5.88736e-05
-9.61157e-06
6.34795e-05
-2.10415e-06
6.38079e-05
5.8026e-05
4.85729e-06
2.58488e-05
4.61079e-06
2.09606e-05
7.21303e-06
2.19246e-05
1.73733e-05
2.82115e-05
3.53159e-05
4.93527e-05
4.97475e-05
7.90136e-05
4.89379e-05
0.000101866
2.00186e-05
0.000117513
-1.90967e-05
0.000120435
-2.04038e-05
0.000113785
-1.35662e-05
0.000155313
-1.7115e-05
0.000177732
-2.04141e-05
0.000170661
-1.95286e-05
0.000136336
-2.07253e-05
1.8659e-05
-2.40216e-05
-2.86147e-06
-2.6212e-05
-1.0944e-05
-2.7727e-05
-2.08649e-05
-2.93658e-05
-2.77073e-05
-3.16739e-05
-3.22976e-05
-3.30391e-05
-3.38555e-05
-2.8863e-05
-2.63962e-05
-1.83855e-05
-3.2763e-06
-1.14797e-05
2.35181e-05
-1.04664e-05
4.02914e-05
-1.17118e-05
5.28449e-05
-1.18718e-05
5.90786e-05
-9.75819e-06
6.14117e-05
-7.12422e-06
6.12198e-05
5.09463e-05
1.91591e-06
2.39724e-05
-5.63513e-07
2.34761e-05
-2.13284e-06
2.35302e-05
1.15894e-06
2.49597e-05
1.56437e-05
3.49206e-05
3.51638e-05
5.95617e-05
4.23656e-05
9.47408e-05
2.60575e-05
0.000133899
-2.01134e-06
0.00014862
-1.64745e-05
0.0001283
-1.58632e-05
0.000154741
-1.68889e-05
0.000178837
-1.89147e-05
0.00017277
-1.82853e-05
0.00013578
-2.06709e-05
2.10773e-05
-2.38692e-05
3.63933e-07
-2.56042e-05
-9.18166e-06
-2.69422e-05
-1.95016e-05
-2.81556e-05
-2.64697e-05
-2.98975e-05
-3.05321e-05
-3.15893e-05
-3.21401e-05
-2.9255e-05
-2.87044e-05
-2.15659e-05
-1.0934e-05
-1.39039e-05
1.58932e-05
-9.29061e-06
3.57191e-05
-8.48515e-06
5.20834e-05
-9.39243e-06
6.0031e-05
-9.54227e-06
6.16069e-05
-9.40842e-06
6.11312e-05
4.15806e-05
-9.04435e-07
2.49143e-05
-4.41639e-06
2.70251e-05
-7.71283e-06
2.68632e-05
-8.71361e-06
2.59972e-05
-1.76085e-06
2.80097e-05
1.57808e-05
4.20741e-05
3.35077e-05
7.7081e-05
2.3021e-05
0.000144465
1.20077e-05
0.000159751
-1.21269e-05
0.000152506
-1.84969e-05
0.000161133
-1.65857e-05
0.00017699
-1.60396e-05
0.000172303
-1.73873e-05
0.000137202
-2.03283e-05
2.4051e-05
-2.34207e-05
3.48407e-06
-2.48355e-05
-7.73979e-06
-2.56988e-05
-1.86134e-05
-2.6323e-05
-2.5822e-05
-2.71086e-05
-2.97238e-05
-2.80668e-05
-3.11591e-05
-2.76555e-05
-2.90923e-05
-2.42766e-05
-1.42842e-05
-1.92498e-05
1.09018e-05
-1.43522e-05
3.08612e-05
-1.05165e-05
4.82908e-05
-1.02913e-05
5.98508e-05
-1.01572e-05
6.15179e-05
-1.00158e-05
6.10348e-05
3.16052e-05
-3.09767e-06
2.80488e-05
-8.29289e-06
3.22596e-05
-1.24465e-05
3.1056e-05
-1.52367e-05
2.88261e-05
-1.35027e-05
2.63138e-05
-1.48005e-06
3.00953e-05
2.0469e-05
5.51892e-05
1.56117e-05
0.0001494
9.77721e-06
0.000165678
-8.78164e-06
0.000171141
-1.76799e-05
0.000170051
-1.54465e-05
0.000174791
-1.36948e-05
0.000170615
-1.73458e-05
0.000140921
-1.9914e-05
2.66517e-05
-2.26059e-05
6.20389e-06
-2.35289e-05
-6.79019e-06
-2.38587e-05
-1.82596e-05
-2.41694e-05
-2.54888e-05
-2.47096e-05
-2.91616e-05
-2.554e-05
-3.0307e-05
-2.66569e-05
-2.79536e-05
-2.74542e-05
-1.34604e-05
-2.63773e-05
9.85901e-06
-2.37759e-05
2.82987e-05
-1.83728e-05
4.29298e-05
-1.36573e-05
5.51795e-05
-1.0527e-05
5.8432e-05
-8.64528e-06
5.91976e-05
2.29978e-05
-4.33224e-06
3.24162e-05
-1.27049e-05
4.0675e-05
-1.68151e-05
3.52099e-05
-1.98002e-05
3.18537e-05
-2.07269e-05
2.72812e-05
-1.54936e-05
2.49008e-05
1.11211e-06
3.86305e-05
2.48578e-06
0.000148085
-1.92766e-06
0.000170151
-7.90822e-06
0.000177192
-1.39227e-05
0.000176103
-1.33949e-05
0.000174282
-1.25605e-05
0.000169822
-1.66678e-05
0.000145083
-1.87163e-05
2.87316e-05
-2.08767e-05
8.3912e-06
-2.12836e-05
-6.35806e-06
-2.13889e-05
-1.81314e-05
-2.1546e-05
-2.53101e-05
-2.20465e-05
-2.86402e-05
-2.31442e-05
-2.91889e-05
-2.60783e-05
-2.49984e-05
-3.08101e-05
-8.70236e-06
-3.32243e-05
1.23076e-05
-3.2128e-05
2.72414e-05
-2.75992e-05
3.84424e-05
-1.94894e-05
4.71127e-05
-1.21577e-05
5.11436e-05
-6.60876e-06
5.36919e-05
1.64246e-05
-8.01287e-06
4.04717e-05
-1.66467e-05
4.93565e-05
-2.18272e-05
4.0437e-05
-2.41098e-05
3.41812e-05
-2.61466e-05
2.93631e-05
-2.69428e-05
2.57389e-05
-2.22502e-05
3.39863e-05
-1.41198e-05
0.000140002
-1.72162e-05
0.000173293
-1.4878e-05
0.000174934
-1.12569e-05
0.000172546
-8.09987e-06
0.000171164
-9.34929e-06
0.000171114
-9.24494e-06
0.000145033
-1.33707e-05
3.2888e-05
-1.56076e-05
1.0653e-05
-1.67936e-05
-5.14902e-06
-1.7547e-05
-1.73563e-05
-1.82408e-05
-2.45956e-05
-1.91676e-05
-2.76936e-05
-2.10577e-05
-2.72796e-05
-2.76545e-05
-1.83806e-05
-3.55796e-05
-7.48866e-07
-3.88747e-05
1.56389e-05
-3.75415e-05
2.59479e-05
-3.30385e-05
3.39807e-05
-2.50666e-05
3.91826e-05
-1.48174e-05
4.09357e-05
-5.37937e-06
4.42951e-05
1.10782e-05
-2.36545e-06
4.2887e-05
-1.44807e-05
6.15282e-05
-2.24443e-05
4.84481e-05
-2.35734e-05
3.53527e-05
-3.00642e-05
3.58979e-05
-4.04997e-05
3.6228e-05
-5.21717e-05
4.5737e-05
-4.30903e-05
0.000131028
-3.65218e-05
0.000166832
-2.31144e-05
0.000161662
-8.54615e-06
0.000158092
1.89124e-06
0.000160819
5.68343e-06
0.000167412
8.46871e-06
0.000142334
-2.7174e-06
4.4112e-05
-8.3064e-06
1.62674e-05
-1.17466e-05
-1.68702e-06
-1.37968e-05
-1.52858e-05
-1.5221e-05
-2.31518e-05
-1.66474e-05
-2.62486e-05
-2.15299e-05
-2.23786e-05
-3.22373e-05
-7.64951e-06
-3.96846e-05
6.7304e-06
-4.06442e-05
1.66361e-05
-3.86624e-05
2.40061e-05
-3.40889e-05
2.94481e-05
-2.65937e-05
3.17279e-05
-1.59535e-05
3.03343e-05
-3.87078e-06
3.22509e-05
7.23687e-06
-6.23711e-07
4.3568e-05
-7.87762e-06
6.88421e-05
-1.96585e-05
6.02871e-05
-2.93872e-05
4.51342e-05
-3.71141e-05
4.36741e-05
-5.53409e-05
5.45189e-05
-7.86277e-05
6.91368e-05
-6.31622e-05
0.000115755
-4.08996e-05
0.000144785
-1.93641e-05
0.000140322
-2.37065e-06
0.000141273
1.24773e-05
0.000146134
2.49025e-05
0.000155152
2.97846e-05
0.000137596
8.15582e-06
6.58012e-05
-3.20151e-06
2.76523e-05
-9.56336e-06
4.69482e-06
-1.23866e-05
-1.24444e-05
-1.40697e-05
-2.14509e-05
-1.63751e-05
-2.39256e-05
-2.56356e-05
-1.30977e-05
-3.56994e-05
2.44241e-06
-3.9189e-05
1.0254e-05
-3.86873e-05
1.61717e-05
-3.57875e-05
2.11454e-05
-3.03042e-05
2.4004e-05
-2.25872e-05
2.40489e-05
-1.28471e-05
2.06297e-05
6.10575e-08
1.93769e-05
7.32281e-06
-1.67e-06
4.52941e-05
-4.82873e-06
7.20595e-05
-1.44447e-05
6.99615e-05
-3.53271e-05
6.60754e-05
-5.72148e-05
6.56217e-05
-7.35909e-05
7.09639e-05
-8.61579e-05
8.18051e-05
-7.14876e-05
0.000101251
-4.16068e-05
0.000115114
-1.80275e-05
0.000116944
9.44925e-07
0.000122494
1.76176e-05
0.000129651
3.28474e-05
0.000140111
4.1848e-05
0.000128755
1.50673e-05
9.26598e-05
-5.74167e-06
4.84995e-05
-1.38786e-05
1.28473e-05
-1.51829e-05
-1.11238e-05
-1.63353e-05
-2.02818e-05
-2.17687e-05
-1.84744e-05
-3.15768e-05
-3.26478e-06
-3.55187e-05
6.4152e-06
-3.59303e-05
1.06992e-05
-3.41028e-05
1.43798e-05
-2.96497e-05
1.67286e-05
-2.2703e-05
1.70929e-05
-1.40931e-05
1.54725e-05
-6.18347e-06
1.27505e-05
1.70459e-06
1.15167e-05
9.04935e-06
-1.61708e-06
4.69673e-05
-7.87818e-06
7.83796e-05
-1.64676e-05
7.86099e-05
-2.96978e-05
7.93645e-05
-4.67726e-05
8.27565e-05
-6.22489e-05
8.65032e-05
-7.11518e-05
9.07793e-05
-6.18496e-05
9.20414e-05
-4.08377e-05
9.42214e-05
-2.45625e-05
0.000100796
-7.99368e-06
0.000106057
5.82306e-06
0.00011597
1.73938e-05
0.000128675
2.18074e-05
0.000124456
-1.69321e-06
0.000116241
-2.41567e-05
7.1021e-05
-2.43492e-05
1.30756e-05
-2.2266e-05
-1.31883e-05
-2.34467e-05
-1.90821e-05
-2.99541e-05
-1.19443e-05
-3.28942e-05
-2.96383e-07
-3.1707e-05
5.25881e-06
-2.96502e-05
8.67428e-06
-2.59522e-05
1.0714e-05
-2.01184e-05
1.09266e-05
-1.30009e-05
1.00054e-05
-6.1635e-06
8.66248e-06
-1.36224e-06
7.97378e-06
1.34825e-06
8.82889e-06
1.04186e-05
-1.84352e-06
4.8867e-05
-9.17755e-06
8.57735e-05
-1.72158e-05
8.6708e-05
-2.63362e-05
8.8545e-05
-3.57972e-05
9.22781e-05
-4.27629e-05
9.35302e-05
-4.60436e-05
9.41229e-05
-4.77304e-05
9.37949e-05
-4.44318e-05
9.09951e-05
-3.7593e-05
9.40352e-05
-3.06727e-05
9.9219e-05
-2.53913e-05
0.000110773
-2.13278e-05
0.000124698
-2.65811e-05
0.000129791
-3.75788e-05
0.000127313
-5.11085e-05
8.46166e-05
-5.18383e-05
1.38614e-05
-3.91714e-05
-2.58161e-05
-3.38654e-05
-2.43598e-05
-3.24418e-05
-1.33401e-05
-2.8807e-05
-3.90245e-06
-2.55184e-05
1.99908e-06
-2.18651e-05
5.04962e-06
-1.711e-05
5.98684e-06
-1.17152e-05
5.55805e-06
-6.53522e-06
4.84965e-06
-2.67803e-06
4.8274e-06
-5.31371e-07
5.84803e-06
4.71976e-07
7.84614e-06
1.09113e-05
-2.04249e-06
5.09657e-05
-8.8092e-06
9.26007e-05
-1.57832e-05
9.37426e-05
-2.27306e-05
9.55534e-05
-2.90997e-05
9.87086e-05
-3.4113e-05
9.86055e-05
-3.67488e-05
9.68206e-05
-3.98808e-05
9.69896e-05
-4.48161e-05
9.59943e-05
-4.87122e-05
9.79975e-05
-5.26217e-05
0.000103196
-5.44945e-05
0.000112716
-5.36486e-05
0.000123923
-5.40654e-05
0.000130279
-5.19941e-05
0.000125312
-4.91835e-05
8.18706e-05
-4.02074e-05
4.93788e-06
-3.32379e-05
-3.27463e-05
-2.92405e-05
-2.83261e-05
-2.63242e-05
-1.62286e-05
-2.32141e-05
-6.9861e-06
-1.97276e-05
-1.46147e-06
-1.56017e-05
9.4885e-07
-1.11157e-05
1.5245e-06
-7.01289e-06
1.477e-06
-3.9847e-06
1.84159e-06
-2.04624e-06
2.90824e-06
-7.72115e-07
4.59304e-06
-1.32638e-08
7.10678e-06
1.09184e-05
-1.96858e-06
5.29905e-05
-7.86885e-06
9.85621e-05
-1.41431e-05
0.000100078
-2.00519e-05
0.000101524
-2.55509e-05
0.000104269
-3.12335e-05
0.00010435
-3.51475e-05
0.000100797
-3.90903e-05
0.000100995
-4.42262e-05
0.000101193
-4.966e-05
0.000103495
-5.43075e-05
0.000107908
-5.63956e-05
0.00011487
-5.51552e-05
0.00012275
-5.26073e-05
0.000127799
-4.77681e-05
0.00012054
-3.56524e-05
6.98172e-05
-2.17222e-05
-8.94558e-06
-1.95053e-05
-3.49298e-05
-2.04199e-05
-2.73842e-05
-1.98796e-05
-1.67438e-05
-1.78039e-05
-9.03757e-06
-1.46566e-05
-4.58527e-06
-1.09666e-05
-2.71923e-06
-7.50978e-06
-1.91206e-06
-4.95158e-06
-1.0624e-06
-3.2479e-06
1.55997e-07
-2.01582e-06
1.6941e-06
-1.05894e-06
3.65432e-06
-2.8041e-07
6.34699e-06
1.0658e-05
-2.0254e-06
5.50723e-05
-7.30633e-06
0.000103905
-1.30563e-05
0.00010589
-1.85905e-05
0.00010712
-2.37075e-05
0.000109449
-2.93725e-05
0.000110077
-3.37066e-05
0.000105193
-3.76607e-05
0.000105012
-4.16978e-05
0.000105294
-4.53984e-05
0.00010726
-4.81067e-05
0.000110681
-4.89017e-05
0.00011573
-4.69493e-05
0.000120864
-4.30663e-05
0.000123983
-3.6204e-05
0.000113744
-2.08844e-05
5.45564e-05
-9.43135e-06
-2.03576e-05
-1.10712e-05
-3.32603e-05
-1.36827e-05
-2.47475e-05
-1.40203e-05
-1.63825e-05
-1.2589e-05
-1.04462e-05
-9.99801e-06
-7.15514e-06
-7.34981e-06
-5.34801e-06
-5.30841e-06
-3.93541e-06
-3.87305e-06
-2.48041e-06
-2.82287e-06
-8.77034e-07
-1.97129e-06
8.59791e-07
-1.17687e-06
2.87753e-06
-7.60529e-07
5.94896e-06
9.91709e-06
-2.88596e-06
5.80148e-05
-7.4427e-06
0.000108524
-1.26794e-05
0.000111189
-1.79626e-05
0.000112465
-2.30318e-05
0.00011458
-2.79422e-05
0.00011505
-3.20721e-05
0.000109385
-3.55776e-05
0.00010858
-3.84712e-05
0.000108251
-4.03778e-05
0.00010923
-4.14405e-05
0.000111807
-4.07264e-05
0.00011508
-3.75419e-05
0.000117744
-3.14015e-05
0.000117907
-2.28461e-05
0.000105253
-8.85917e-06
4.06239e-05
-1.55547e-06
-2.76252e-05
-4.669e-06
-3.01193e-05
-7.34837e-06
-2.20438e-05
-8.18536e-06
-1.55228e-05
-7.43825e-06
-1.11723e-05
-6.0656e-06
-8.50851e-06
-4.81018e-06
-6.58548e-06
-3.81396e-06
-4.91447e-06
-3.02441e-06
-3.25318e-06
-2.35672e-06
-1.52797e-06
-1.79728e-06
3.17306e-07
-1.36241e-06
2.46004e-06
-9.39933e-07
5.54453e-06
8.99627e-06
-5.03608e-06
6.31078e-05
-7.52681e-06
0.000111077
-1.26572e-05
0.000116382
-1.76642e-05
0.000117535
-2.23758e-05
0.000119355
-2.68608e-05
0.000119599
-3.08718e-05
0.000113459
-3.41167e-05
0.000111888
-3.62814e-05
0.000110478
-3.72399e-05
0.000110252
-3.6876e-05
0.000111506
-3.41621e-05
0.000112429
-2.91743e-05
0.000112819
-2.07816e-05
0.000109578
-1.09595e-05
9.54925e-05
-1.39037e-07
2.9853e-05
2.83028e-06
-3.05625e-05
-5.03767e-07
-2.67591e-05
-2.81595e-06
-1.97078e-05
-3.77491e-06
-1.45419e-05
-3.76927e-06
-1.11578e-05
-3.42537e-06
-8.83376e-06
-3.01212e-06
-6.98108e-06
-2.60769e-06
-5.30189e-06
-2.21845e-06
-3.62573e-06
-1.8082e-06
-1.92158e-06
-1.39699e-06
-7.70705e-08
-1.18359e-06
2.26393e-06
-7.62452e-07
5.14141e-06
8.25253e-06
-7.20517e-06
7.03704e-05
-7.32112e-06
0.000111256
-1.24999e-05
0.000121624
-1.75902e-05
0.000122689
-2.23583e-05
0.000124187
-2.68336e-05
0.000124137
-3.07061e-05
0.000117395
-3.40224e-05
0.000115267
-3.62651e-05
0.000112784
-3.6866e-05
0.000110916
-3.48382e-05
0.000109541
-2.98653e-05
0.000107519
-2.25569e-05
0.000105573
-1.29253e-05
0.000100008
-2.06715e-06
8.46953e-05
5.22194e-06
2.26143e-05
4.87442e-06
-3.01846e-05
2.06368e-06
-2.39228e-05
5.58533e-08
-1.76764e-05
-9.66756e-07
-1.34976e-05
-1.38431e-06
-1.07201e-05
-1.52762e-06
-8.6716e-06
-1.54336e-06
-6.94749e-06
-1.49155e-06
-5.33651e-06
-1.36338e-06
-3.73707e-06
-1.18455e-06
-2.08371e-06
-1.01047e-06
-2.34297e-07
-8.16086e-07
2.08684e-06
-8.10887e-07
5.15401e-06
7.45979e-06
-9.13472e-06
7.95634e-05
-7.70182e-06
0.000109885
-1.22485e-05
0.000126235
-1.73185e-05
0.000127823
-2.23417e-05
0.000129274
-2.72443e-05
0.000129104
-3.14986e-05
0.000121712
-3.55535e-05
0.000119386
-3.85396e-05
0.000115833
-3.87535e-05
0.000111192
-3.43493e-05
0.000105199
-2.68334e-05
0.000100064
-1.79198e-05
9.67203e-05
-7.9362e-06
9.0085e-05
3.04475e-06
7.37744e-05
7.82936e-06
1.7882e-05
5.87131e-06
-2.81949e-05
3.54423e-06
-2.15699e-05
1.91827e-06
-1.60266e-05
9.77975e-07
-1.25352e-05
4.33117e-07
-1.01548e-05
8.24879e-08
-8.3018e-06
-1.6471e-07
-6.68217e-06
-3.32848e-07
-5.15096e-06
-4.11795e-07
-3.64123e-06
-4.04761e-07
-2.07396e-06
-3.62173e-07
-2.59985e-07
-5.12142e-07
2.25401e-06
-4.86272e-07
5.14558e-06
6.99065e-06
-1.07191e-05
9.03418e-05
-8.68068e-06
0.000107909
-1.21128e-05
0.000129731
-1.70311e-05
0.000132806
-2.25043e-05
0.000134812
-2.82547e-05
0.000134919
-3.30558e-05
0.000126577
-3.87091e-05
0.000125103
-4.35324e-05
0.00012072
-4.30239e-05
0.000110747
-3.66739e-05
9.89109e-05
-2.66075e-05
9.00578e-05
-1.59273e-05
8.60995e-05
-5.64903e-06
7.98655e-05
5.86782e-06
6.23154e-05
1.0019e-05
1.37816e-05
7.22769e-06
-2.5372e-05
4.9967e-06
-1.93128e-05
3.57807e-06
-1.45839e-05
2.71475e-06
-1.16496e-05
2.11983e-06
-9.53921e-06
1.63204e-06
-7.79473e-06
1.19501e-06
-6.22692e-06
8.21753e-07
-4.76028e-06
5.39817e-07
-3.34239e-06
3.10815e-07
-1.82835e-06
-4.65347e-09
7.19802e-08
-3.16316e-07
2.58219e-06
-9.887e-08
4.94445e-06
6.90772e-06
-9.60602e-06
0.000100008
-7.85898e-06
0.000106224
-1.05546e-05
0.000132491
-1.56249e-05
0.000137941
-2.16506e-05
0.000140902
-2.84577e-05
0.000141792
-3.38696e-05
0.000132054
-4.14673e-05
0.000132765
-4.80008e-05
0.000127319
-4.73381e-05
0.000110148
-4.14865e-05
9.31213e-05
-3.09883e-05
7.96195e-05
-1.83412e-05
7.3511e-05
-6.86899e-06
6.84509e-05
6.46224e-06
4.90405e-05
1.2921e-05
7.37275e-06
9.53028e-06
-2.19495e-05
6.90094e-06
-1.66572e-05
5.43431e-06
-1.30931e-05
4.49644e-06
-1.06896e-05
3.73658e-06
-8.7589e-06
3.0032e-06
-7.04226e-06
2.26148e-06
-5.46719e-06
1.54633e-06
-4.02798e-06
8.93126e-07
-2.67271e-06
3.06378e-07
-1.22569e-06
-1.73025e-07
5.66864e-07
-2.62989e-07
2.68723e-06
-5.31398e-08
4.7493e-06
6.86908e-06
-7.42366e-06
0.000107494
-6.01168e-06
0.000104873
-7.1234e-06
0.000133667
-1.24344e-05
0.000143317
-1.91101e-05
0.000147644
-2.68121e-05
0.00014956
-3.21649e-05
0.000137472
-4.00619e-05
0.000140729
-4.63867e-05
0.00013371
-4.78321e-05
0.000111658
-4.52088e-05
9.05612e-05
-3.7693e-05
7.21641e-05
-2.46502e-05
6.05265e-05
-1.04371e-05
5.4295e-05
6.38456e-06
3.22737e-05
1.60227e-05
-2.21754e-06
1.16234e-05
-1.75191e-05
8.82948e-06
-1.38368e-05
7.23127e-06
-1.1471e-05
6.07661e-06
-9.51316e-06
5.00156e-06
-7.66383e-06
3.89223e-06
-5.91426e-06
2.75974e-06
-4.31712e-06
1.68998e-06
-2.94162e-06
7.64089e-07
-1.73111e-06
5.00044e-08
-4.96746e-07
-3.37128e-07
9.68083e-07