/*--------------------------------*- C++ -*----------------------------------*\
| =========                 |                                                 |
| \\      /  F ield         | OpenFOAM: The Open Source CFD Toolbox           |
|  \\    /   O peration     | Version:  2.3.0                                 |
|   \\  /    A nd           | Web:      www.OpenFOAM.org                      |
|    \\/     M anipulation  |                                                 |
\*---------------------------------------------------------------------------*/
FoamFile
{
    version     2.0;
    format      ascii;
    class       volScalarField;
    location    "0.088";
    object      alpha.water;
}
// * * * * * * * * * * * * * * * * * * * * * * * * * * * * * * * * * * * * * //

dimensions      [0 0 0 0 0 0 0];

internalField   nonuniform List<scalar> 
545
(
1
1
1
1
1
1
1
1
1
1
1
1
1
1
1
1
1
1
1
1
1
1
1
1
1
1
1
1
1
1
1
1
1
1
1
1
1
1
1
1
1
1
1
1
1
1
1
1
1
1
1
1
1
1
1
1
1
1
1
1
1
1
1
1
1
1
1
1
1
1
1
1
1
1
1
1
1
1
1
1
1
1
1
1
1
1
1
1
1
1
1
1
1
1
1
1
1
1
1
1
1
1
1
1
1
1
1
1
1
1
1
1
1
1
1
1
1
1
1
1
0.999999
0.999999
0.999999
0.999999
0.999999
0.999999
0.999999
0.999999
0.999999
0.999999
0.999999
0.999999
0.999999
0.999999
0.999999
0.999999
0.999999
0.999999
0.999999
0.999999
0.999999
0.999999
0.999999
0.999999
0.999999
0.999999
0.999999
0.999999
0.999999
0.999999
0.999999
0.999999
0.999999
0.999999
0.999999
0.999999
0.999999
0.999999
0.999999
0.999999
1
1
0.999986
0.999965
0.999958
0.999951
0.999945
0.999939
0.999937
0.999936
0.999936
0.999937
0.999938
0.999938
0.999939
0.999939
0.999939
0.999939
0.999938
0.999938
0.999938
0.999938
0.999938
0.999938
0.999938
0.999938
0.999938
0.999938
0.999938
0.999938
0.999938
0.999938
0.999938
0.999938
0.999938
0.999938
0.999938
0.999938
0.999938
0.999938
0.999938
0.999938
0.999938
0.999938
0.999938
1
1
0.998347
0.996676
0.996797
0.996929
0.996512
0.995586
0.995157
0.995037
0.995062
0.995166
0.99529
0.995391
0.995452
0.995472
0.995463
0.995439
0.995414
0.995394
0.995381
0.995377
0.995378
0.995381
0.995385
0.995389
0.995391
0.995391
0.995389
0.995386
0.995384
0.995382
0.995382
0.99538
0.995381
0.995382
0.995382
0.995381
0.995378
0.995374
0.995371
0.995366
0.995365
0.995364
0.99536
0.277921
0.376471
0.391283
0.425326
0.730496
0.99707
0.708559
0.496599
0.488388
0.487531
0.487944
0.614923
0.947795
0.709561
0.574414
0.569545
0.569538
0.56955
0.755029
0.973029
0.553735
0.525179
0.521944
0.553981
0.497268
0.516656
0.855013
0.995497
0.877593
0.442212
0.429471
0.50336
0.478222
0.482774
0.482815
0.739523
0.994604
0.995578
0.983589
0.516817
0.297449
0.28112
0.277125
0.278977
0.365029
1
1
1
1
1
1
1
1
1
1
1
1
1
1
1
1
1
1
1
1
1
1
1
1
1
1
1
0.998347
0.996676
0.996797
0.996929
0.996512
0.995586
0.995157
0.995036
0.995061
0.995165
0.995288
0.995389
0.995449
0.995468
0.995459
0.995435
0.99541
0.995389
0.995376
0.995371
0.995371
0.995374
0.995379
0.995382
0.995385
0.995385
0.995383
0.995379
0.995377
0.995374
0.995373
0.995372
0.995372
0.995373
0.995372
0.99537
0.995366
0.99536
0.995355
0.995349
0.995346
0.995345
0.99534
1
1
0.999986
0.999965
0.999958
0.999951
0.999944
0.999939
0.999936
0.999935
0.999936
0.999936
0.999937
0.999938
0.999939
0.999939
0.999939
0.999938
0.999938
0.999938
0.999938
0.999938
0.999938
0.999938
0.999938
0.999938
0.999938
0.999938
0.999938
0.999938
0.999938
0.999938
0.999938
0.999938
0.999938
0.999938
0.999938
0.999938
0.999938
0.999938
0.999938
0.999938
0.999938
0.999938
0.999938
1
1
1
1
1
0.999999
0.999999
0.999999
0.999999
0.999999
0.999999
0.999999
0.999999
0.999999
0.999999
0.999999
0.999999
0.999999
0.999999
0.999999
0.999999
0.999999
0.999999
0.999999
0.999999
0.999999
0.999999
0.999999
0.999999
0.999999
0.999999
0.999999
0.999999
0.999999
0.999999
0.999999
0.999999
0.999999
0.999999
0.999999
0.999999
0.999999
0.999999
0.999999
0.999999
1
1
1
1
1
1
1
1
1
1
1
1
1
1
1
1
1
1
1
1
1
1
1
1
1
1
1
1
1
1
1
1
1
1
1
1
1
1
1
1
1
1
1
1
1
1
1
1
1
1
1
1
1
1
1
1
1
1
1
1
1
1
1
1
1
1
1
1
1
1
1
1
1
1
1
1
1
1
1
1
1
1
1
1
1
1
1
1
1
1
)
;

boundaryField
{
    AirInlet
    {
        type            fixedValue;
        value           uniform 0;
    }
    WaterInlet
    {
        type            fixedValue;
        value           uniform 1;
    }
    ChannelWall
    {
        type            zeroGradient;
    }
    Outlet
    {
        type            inletOutlet;
        inletValue      uniform 0;
        value           nonuniform List<scalar> 
11
(
1
1
0.999999
0.999938
0.99536
0.365029
0.99534
0.999938
0.999999
1
1
)
;
    }
    FrontAndBack
    {
        type            empty;
    }
}


// ************************************************************************* //
