/*--------------------------------*- C++ -*----------------------------------*\
| =========                 |                                                 |
| \\      /  F ield         | OpenFOAM: The Open Source CFD Toolbox           |
|  \\    /   O peration     | Version:  2.3.0                                 |
|   \\  /    A nd           | Web:      www.OpenFOAM.org                      |
|    \\/     M anipulation  |                                                 |
\*---------------------------------------------------------------------------*/
FoamFile
{
    version     2.0;
    format      ascii;
    class       volScalarField;
    location    "1.61";
    object      nut.particles;
}
// * * * * * * * * * * * * * * * * * * * * * * * * * * * * * * * * * * * * * //

dimensions      [0 2 -1 0 0 0 0];

internalField   nonuniform List<scalar> 
6000
(
1.4089e-05
1.50903e-05
1.48702e-05
1.51515e-05
1.63271e-05
2.00465e-05
2.22232e-05
2.08696e-05
1.17254e-05
9.56323e-06
1.67916e-05
2.82862e-05
1.31863e-05
9.06161e-06
8.53856e-06
7.78067e-06
7.49552e-06
7.30518e-06
7.22471e-06
7.05549e-06
7.18131e-06
7.35009e-06
8.60218e-06
9.299e-06
8.83761e-06
8.05952e-06
9.55241e-06
1.48767e-05
1.40202e-05
1.74334e-05
1.06431e-06
1.5683e-06
1.77574e-06
2.10064e-06
2.06101e-06
1.61107e-06
1.24057e-06
1.77346e-06
4.08728e-06
4.02326e-06
3.69906e-06
2.59155e-06
1.53507e-06
1.42881e-06
1.04494e-06
9.92288e-07
8.77292e-07
9.35486e-07
8.93158e-07
8.93751e-07
8.50819e-07
9.0401e-07
1.18626e-06
1.36952e-06
1.62534e-06
1.92468e-06
1.92588e-06
2.1532e-06
4.04844e-06
5.60174e-06
9.06456e-07
7.04334e-07
7.32868e-07
1.29856e-06
1.62222e-06
9.80509e-07
3.46239e-07
9.59539e-07
1.0388e-05
1.11317e-05
3.12463e-06
8.78322e-07
6.27784e-07
3.23666e-07
7.25382e-07
8.88006e-07
1.18198e-06
1.31824e-06
8.62919e-07
7.23989e-07
4.71058e-07
3.7771e-07
5.67098e-07
7.16315e-07
8.43382e-07
6.40218e-07
6.06372e-07
2.57085e-06
1.34274e-05
0.0027184
8.36176e-07
3.06563e-07
3.86402e-07
2.38781e-07
2.18399e-07
1.43976e-07
1.49459e-07
3.969e-07
5.5534e-06
1.151e-05
3.40529e-06
5.70083e-07
2.43094e-07
4.92412e-07
2.14566e-06
2.90192e-06
2.76979e-06
6.4186e-06
2.88922e-06
2.21473e-06
1.21348e-06
7.20085e-07
7.4871e-07
6.99474e-07
5.81473e-07
4.75601e-07
5.09142e-07
3.03532e-06
4.72287e-05
0.00814869
5.70622e-07
5.28245e-07
5.60646e-07
4.39559e-07
3.31518e-07
3.10357e-07
2.37664e-07
1.48445e-07
1.9567e-06
1.22788e-05
7.20298e-06
6.65226e-07
3.87276e-07
1.04203e-06
3.95074e-06
1.77857e-05
0.000125994
0.000105516
0.000120996
0.000104266
0.000109672
9.83094e-05
5.71793e-06
1.33598e-06
1.1332e-06
6.51977e-07
6.00095e-07
5.69817e-06
0.00255534
0.00825105
5.50355e-07
7.29507e-07
8.8144e-07
8.74778e-07
5.73783e-07
3.75688e-07
2.58976e-07
3.29913e-07
3.25505e-07
9.27598e-06
1.06326e-05
6.90658e-07
5.81242e-07
9.63155e-07
8.50588e-07
4.1441e-06
1.70124e-05
0.000148178
0.000106285
0.000146775
0.000106469
0.000114114
9.92438e-05
9.66205e-05
2.40611e-06
1.05857e-06
1.52616e-06
1.02736e-05
0.00592149
0.00826998
8.40754e-07
1.32507e-05
1.87167e-05
1.03587e-06
7.90808e-07
5.55062e-07
2.4578e-07
3.58215e-07
4.47355e-07
2.57969e-06
8.60173e-06
9.70526e-07
5.24816e-07
1.08113e-06
5.25202e-07
2.3465e-07
8.61616e-07
7.72013e-06
0.000145177
0.000104154
0.000145228
0.000103907
0.000115167
9.85906e-05
3.46576e-06
1.55358e-06
1.1283e-06
4.28968e-05
0.00366575
0.00822727
0.000825585
0.00209147
0.00158655
0.000403879
1.16848e-06
6.76282e-07
4.58719e-07
2.19799e-07
5.00671e-07
2.86082e-07
2.66541e-06
8.33025e-07
9.22961e-07
9.20973e-07
3.27697e-07
3.45905e-07
2.72837e-07
3.80875e-07
2.03863e-06
3.76298e-06
3.43339e-06
4.40024e-06
7.22528e-05
0.000101211
3.86758e-06
1.64635e-06
4.50167e-07
4.18872e-05
4.15655e-05
0.00156198
0.007289
0.00742104
0.00578416
0.00380735
0.000597991
1.45531e-06
6.46744e-07
1.93232e-07
5.59437e-07
4.10986e-07
2.09577e-07
8.32122e-07
1.50803e-06
6.28523e-07
3.48756e-07
4.26892e-07
3.16629e-07
1.70103e-07
8.2014e-07
1.76522e-06
1.37422e-06
1.15771e-06
3.8681e-06
5.14438e-05
6.69344e-06
3.52374e-05
4.81988e-05
1.65824e-05
4.83835e-06
5.88206e-06
0.00833839
0.0083255
0.00770104
0.00675129
0.00514448
0.000402205
1.35739e-06
4.24558e-07
6.19888e-07
6.33714e-07
4.72063e-07
1.76253e-06
1.82507e-06
3.73684e-07
4.41373e-07
4.62521e-07
3.66539e-07
1.7456e-07
8.58658e-07
3.50928e-06
3.75439e-06
3.46776e-06
6.82003e-06
3.91586e-05
8.61205e-05
5.96594e-05
1.03635e-05
2.47342e-06
9.89808e-07
1.0087e-06
0.00806866
0.00596958
0.00589548
0.00527809
0.00526165
0.00506315
0.000153523
1.21632e-06
4.78127e-07
8.73137e-07
1.34905e-06
2.44102e-06
1.02986e-06
3.55882e-07
4.93912e-07
6.55348e-07
4.38427e-07
1.61981e-07
5.96826e-07
3.70735e-06
2.16171e-05
0.000104583
5.78954e-05
7.71636e-05
9.14272e-05
7.37778e-06
9.0164e-07
2.88962e-07
2.62962e-07
3.37706e-07
0.000130311
0.00102304
0.00180603
0.00240378
0.00326823
0.0047816
0.00341375
1.97349e-05
1.09725e-06
1.10296e-06
9.71881e-07
1.44539e-06
2.82914e-07
3.89587e-07
8.39463e-07
9.36174e-07
3.53923e-07
1.29617e-07
2.95659e-07
2.15278e-06
1.59018e-05
0.000121545
9.79746e-05
7.91609e-05
6.50498e-06
9.69017e-07
2.84185e-07
3.28321e-07
2.78149e-07
3.03047e-07
5.42988e-06
1.15022e-05
3.38183e-05
0.00147992
0.000952755
0.0024133
0.00342824
0.00134835
2.98312e-06
1.6575e-06
2.55183e-07
2.86486e-07
3.50606e-07
5.43753e-07
1.25738e-06
6.66638e-07
1.87699e-07
1.51642e-07
2.80645e-07
1.87144e-06
7.89405e-06
0.000115081
0.000101114
1.13756e-05
1.4764e-06
2.9858e-07
3.38299e-07
4.129e-07
4.33513e-07
3.72349e-07
7.33093e-07
8.70037e-07
4.28758e-06
1.82962e-05
0.000296481
0.00181318
0.00163167
0.00137349
0.000229942
2.95252e-06
6.94504e-07
2.34399e-07
2.97546e-07
7.12964e-07
9.46284e-07
3.88894e-07
1.81502e-07
2.24977e-07
3.04385e-07
8.77522e-07
3.78826e-06
0.000143013
0.000102141
7.73983e-06
7.05471e-07
3.41539e-07
3.65567e-07
3.90987e-07
4.56335e-07
4.11718e-07
3.74497e-07
1.75834e-08
7.91417e-08
1.22457e-06
6.70588e-06
1.70895e-05
2.50845e-05
0.000388226
0.000374786
3.78687e-06
1.48041e-06
3.86297e-07
2.68864e-07
6.30864e-07
7.11636e-07
3.37493e-07
3.44933e-07
2.67545e-07
2.13209e-07
3.72562e-07
1.93786e-06
1.56971e-05
0.000128345
8.42331e-05
9.39954e-07
5.14957e-07
4.89072e-07
4.37929e-07
3.99159e-07
4.06105e-07
3.44753e-07
2.4169e-08
2.6139e-08
2.83808e-08
2.20359e-08
1.12324e-06
2.21615e-06
5.02544e-06
1.38799e-05
8.76613e-06
2.79427e-06
5.45584e-07
3.019e-07
6.52668e-07
7.21932e-07
5.55437e-07
7.58451e-07
3.07466e-07
1.96937e-07
1.58061e-07
3.43621e-07
3.09548e-06
2.847e-05
0.000103696
7.65875e-06
5.83363e-07
7.74815e-07
6.63178e-07
5.06974e-07
4.56795e-07
3.03107e-07
2.58479e-08
3.51078e-08
5.89111e-08
9.78384e-08
8.41192e-08
9.83774e-08
5.51286e-08
7.81701e-07
7.31251e-06
5.14543e-06
4.80938e-07
3.95976e-07
9.48337e-07
1.05892e-06
1.47203e-06
8.72332e-07
1.84067e-07
1.62203e-07
1.57537e-07
1.24329e-07
5.04316e-07
3.17788e-06
1.12928e-05
1.96842e-05
7.99134e-06
6.36524e-07
1.04387e-06
8.23923e-07
6.76305e-07
2.4341e-07
3.25451e-08
5.61532e-08
1.1786e-07
1.97559e-07
1.13193e-07
9.16477e-08
8.74727e-08
1.23336e-07
9.25638e-07
4.09004e-06
5.95383e-07
6.28262e-07
1.62131e-06
2.14327e-06
1.86401e-06
4.6114e-07
1.62752e-07
1.92866e-07
1.75919e-07
1.44625e-07
9.97491e-08
4.18499e-07
1.48181e-06
4.55943e-06
1.31069e-05
1.08557e-05
4.68768e-07
1.20304e-06
1.03907e-06
1.68682e-07
4.88642e-08
9.2589e-08
1.49835e-07
2.9867e-07
2.27186e-07
1.3698e-07
1.33546e-07
1.62754e-07
4.5527e-07
1.87945e-06
5.10517e-07
1.1728e-06
3.18189e-06
2.95669e-06
1.08586e-06
2.3449e-07
1.74466e-07
1.96001e-07
2.26658e-07
1.75707e-07
1.33843e-07
1.03627e-07
2.2108e-07
5.96751e-07
2.19765e-06
1.2855e-05
3.61734e-05
3.03154e-05
3.62863e-05
1.05513e-07
6.8057e-08
1.16199e-07
2.20084e-07
4.35254e-07
4.86562e-07
3.57861e-07
3.22154e-07
3.6874e-07
6.41895e-07
1.41949e-06
4.95345e-07
4.26871e-06
5.76819e-06
2.11396e-06
5.22925e-07
2.34315e-07
1.75893e-07
2.04231e-07
2.3328e-07
2.4507e-07
1.4698e-07
1.13419e-07
9.34633e-08
1.13336e-07
2.38609e-07
1.98182e-06
7.92703e-06
3.72064e-05
5.93378e-06
9.51221e-08
8.56615e-08
1.85219e-07
3.52054e-07
6.16269e-07
7.36679e-07
5.80297e-07
4.93294e-07
5.5071e-07
9.06837e-07
1.99347e-06
2.23839e-06
8.43696e-05
6.08503e-06
1.16868e-06
4.22318e-07
3.30619e-07
2.45591e-07
1.8373e-07
2.52843e-07
2.80655e-07
2.40347e-07
1.22199e-07
1.35558e-07
9.78558e-08
9.53603e-08
4.9503e-07
1.8555e-06
5.31693e-06
1.05319e-06
1.26864e-07
1.46157e-07
2.78212e-07
4.699e-07
8.40537e-07
1.06945e-06
8.63181e-07
7.08127e-07
8.39433e-07
1.34068e-06
2.96157e-06
6.17129e-05
8.47474e-05
3.87339e-06
7.91596e-07
4.97353e-07
5.43319e-07
4.91035e-07
2.64571e-07
2.0495e-07
3.24547e-07
3.35167e-07
2.52553e-07
1.87593e-07
1.22222e-07
1.8686e-07
3.33327e-07
6.03804e-07
1.15495e-06
6.63849e-07
2.37059e-07
2.6838e-07
4.66908e-07
6.88188e-07
9.68175e-07
1.09677e-06
9.12385e-07
8.9985e-07
1.4491e-06
2.77436e-06
2.8728e-05
0.000244374
8.41572e-05
2.5601e-06
9.77103e-07
8.93212e-07
1.03373e-06
1.10772e-06
7.29008e-07
2.05906e-07
2.53707e-07
3.99939e-07
3.48911e-07
2.8562e-07
2.96864e-07
3.00403e-07
2.49836e-07
3.68201e-07
1.08141e-06
4.51911e-07
5.43554e-07
5.16048e-07
7.83659e-07
9.3595e-07
9.66321e-06
7.84946e-05
0.000204479
0.000382744
0.000514149
0.000507753
0.000495163
0.000464643
6.49922e-05
2.79538e-06
1.7481e-06
1.77292e-06
2.02011e-06
2.24271e-06
2.39079e-06
7.85371e-07
1.77523e-07
3.22951e-07
3.71839e-07
3.09621e-07
3.50362e-07
2.80778e-07
2.14556e-07
4.45477e-07
1.72943e-06
5.0698e-07
1.28368e-06
1.22442e-06
6.32262e-06
0.000123872
0.000342103
0.000766056
0.00147274
0.00235849
0.00318324
0.00343894
0.00304422
0.00220137
0.00101419
0.000143386
0.000138049
0.000212472
0.000317758
0.000323987
0.000145265
3.8228e-06
4.9042e-07
2.60868e-07
3.65648e-07
3.32953e-07
2.59575e-07
2.58414e-07
2.13684e-07
8.82838e-07
3.50703e-06
1.15604e-06
2.15173e-05
0.000110747
0.000293657
0.000552736
0.000992466
0.00178429
0.00294412
0.00428913
0.00553825
0.00620183
0.00620613
0.00584528
0.00521836
0.00409593
0.00345878
0.00288762
0.00236682
0.00167064
0.000966653
0.000107334
3.14386e-06
3.05324e-07
3.62779e-07
3.47705e-07
2.61398e-07
2.64137e-07
2.68545e-07
2.16717e-06
5.62156e-05
3.0388e-06
0.000625339
0.000591848
0.000744848
0.0011148
0.00177179
0.0028091
0.00410009
0.00533674
0.00621531
0.00652162
0.00652945
0.00654206
0.00652462
0.00653636
0.00645532
0.00588889
0.00497912
0.00380155
0.00259415
0.0014148
9.78221e-06
1.87269e-06
3.53533e-07
3.54168e-07
3.44468e-07
3.58648e-07
5.48016e-07
4.22905e-06
0.000673534
0.000507852
0.00155964
0.00126113
0.00141427
0.00190176
0.00272582
0.00384579
0.00500713
0.00591702
0.00641046
0.00653327
0.00655765
0.0065324
0.00659485
0.00653136
0.00657025
0.00652695
0.00652589
0.00621293
0.00538829
0.00403377
0.00192993
8.14789e-06
1.72036e-06
1.08262e-06
5.8529e-07
6.36753e-07
2.17912e-06
0.000397785
0.000945881
0.000949544
0.00337091
0.00254228
0.00259932
0.00316954
0.00403186
0.0050002
0.00580061
0.00631085
0.00653569
0.0065494
0.00653451
0.00662268
0.00653351
0.00667988
0.00653295
0.00666862
0.00653095
0.0066032
0.00651189
0.00449703
0.00279499
0.00155992
3.02754e-05
2.40669e-05
2.42864e-05
3.827e-05
0.000654289
0.00094728
0.000951309
0.000956259
0.00761064
0.0058608
0.00553193
0.0059354
0.00636489
0.00662761
0.00664952
0.00654059
0.00654536
0.00653774
0.00662739
0.0065357
0.00672788
0.00653511
0.00679277
0.00653521
0.00678408
0.00550437
0.00586635
0.00323104
0.00018934
3.16907e-05
2.03558e-05
1.91613e-05
2.71812e-05
3.28623e-05
3.606e-05
4.94179e-05
0.000411036
0.000962315
0.018744
0.0159165
0.0146293
0.013965
0.0125708
0.0105061
0.00842174
0.00676082
0.00631743
0.00659432
0.0065359
0.0067229
0.00653473
0.00679317
0.00653539
0.0067241
0.00487184
3.95783e-05
2.50654e-05
1.58182e-05
9.21553e-06
3.60456e-06
1.68145e-06
1.81736e-06
2.89095e-06
4.61151e-06
6.38223e-06
6.2639e-06
5.6211e-06
8.33229e-06
0.0433374
0.0389033
0.0361774
0.0338882
0.0297993
0.0228608
0.0149724
0.008731
0.00546203
0.00505059
0.00670377
0.00653505
0.00679266
0.00652794
0.00662858
3.63341e-05
1.39962e-05
5.99155e-06
2.99785e-06
1.22693e-06
2.88779e-07
5.36886e-08
5.24277e-08
5.09543e-08
4.44595e-08
5.66948e-08
1.47824e-07
1.27325e-07
1.62478e-07
7.25649e-07
0.0681494
0.0552234
0.0519097
0.0496292
0.0495803
0.0462854
0.032943
0.019276
0.00839306
0.00505095
0.00544003
0.0067707
0.00652202
0.0049251
2.35646e-05
6.04991e-06
6.86845e-07
1.09214e-07
9.82638e-08
8.69986e-08
7.23913e-08
7.31285e-08
7.19525e-08
7.14224e-08
7.12286e-08
7.07134e-08
7.15758e-08
8.13926e-08
1.12769e-07
2.94208e-07
0.0529469
0.028243
0.0268883
0.0222742
0.0237202
0.0389594
0.0393152
0.0389951
0.0223999
0.00866765
0.00550823
0.0065209
0.00531301
2.93567e-05
4.95436e-06
1.95552e-07
1.91822e-07
1.95382e-07
1.65775e-07
1.39835e-07
1.13325e-07
9.288e-08
7.94584e-08
7.55745e-08
7.71687e-08
7.93675e-08
7.99071e-08
9.21248e-08
1.12109e-07
1.65087e-07
0.0144479
0.00126094
0.00173382
0.000483944
0.000170355
0.00377471
0.0232295
0.0391015
0.0390253
0.0214874
0.00782027
0.00589584
4.70771e-05
8.33065e-06
3.0943e-07
3.4925e-07
3.2876e-07
3.39951e-07
2.9281e-07
2.50349e-07
2.03654e-07
1.56675e-07
1.21087e-07
9.48577e-08
8.126e-08
8.44887e-08
8.61667e-08
9.72199e-08
1.09881e-07
8.42505e-08
0.00110255
3.32678e-06
1.13516e-05
4.87621e-06
1.54471e-06
1.2912e-06
0.00124495
0.0176132
0.0391362
0.037165
0.0149659
0.00413784
1.31043e-05
5.78145e-07
5.22443e-07
5.90505e-07
5.31349e-07
5.09069e-07
4.59922e-07
3.93055e-07
3.32412e-07
2.69308e-07
2.09214e-07
1.547e-07
1.11036e-07
9.47697e-08
9.8673e-08
9.68705e-08
9.83324e-08
7.56336e-08
9.30748e-06
3.94666e-06
9.12951e-06
3.21893e-06
1.40304e-06
7.61044e-07
2.30026e-05
0.00372216
0.0294072
0.0423968
0.0235584
0.00258059
7.56831e-06
5.66716e-07
7.04376e-07
8.86753e-07
7.62635e-07
6.65231e-07
6.322e-07
5.85204e-07
5.2678e-07
4.46377e-07
3.62448e-07
2.72956e-07
1.83362e-07
1.22116e-07
1.01041e-07
9.13332e-08
9.15095e-08
1.09657e-07
9.87358e-06
2.96823e-06
0.000101553
0.00179042
0.00129825
0.00298638
0.00495283
0.0187522
0.0448254
0.0531644
0.0314218
0.00342197
8.83951e-06
1.82965e-06
4.98018e-07
1.01832e-06
9.95318e-07
7.28087e-07
7.02905e-07
7.4149e-07
7.33401e-07
6.80947e-07
6.00381e-07
4.83931e-07
3.0902e-07
1.68512e-07
1.08609e-07
9.50166e-08
9.41957e-08
1.59644e-07
1.04629e-05
0.000164698
0.0198945
0.0562304
0.0681637
0.0793398
0.0798344
0.0792008
0.0782161
0.0752356
0.0421248
0.00610227
1.46169e-05
4.90071e-06
1.26628e-06
1.75067e-05
1.36867e-06
8.40133e-07
8.47075e-07
9.90646e-07
1.04544e-06
9.90346e-07
8.64355e-07
7.49678e-07
4.76091e-07
2.49124e-07
1.40717e-07
1.07778e-07
1.11246e-07
2.43486e-07
0.000654701
0.0594578
0.103637
0.106541
0.105796
0.105648
0.102362
0.0960474
0.0888287
0.0826067
0.0717619
0.020779
0.00130952
7.18353e-06
2.63856e-06
5.47358e-05
9.23363e-05
6.20418e-05
8.18217e-05
0.000128049
0.00020018
0.000247008
0.000178539
9.90173e-07
6.44819e-07
3.6785e-07
1.97962e-07
1.35326e-07
1.51782e-07
4.27693e-07
0.0840624
0.114581
0.115706
0.115147
0.115167
0.11149
0.105658
0.104067
0.0964
0.0896607
0.0839201
0.0645484
0.0107692
6.00698e-05
5.12596e-06
2.76484e-06
0.000215336
0.000279884
0.000408018
0.00068773
0.00110329
0.00152735
0.00103458
5.17434e-05
1.12666e-06
4.88776e-07
3.10584e-07
2.12945e-07
2.44442e-07
8.82271e-07
0.115511
0.1161
0.115579
0.115783
0.112493
0.0758093
0.0557095
0.090606
0.095149
0.0930729
0.0899215
0.0849706
0.0467754
0.00239848
6.03696e-06
4.71965e-06
0.000163907
0.00066169
0.0010858
0.00152948
0.00162602
0.00160103
0.000465967
1.16886e-05
2.76191e-06
8.824e-07
5.66135e-07
4.23266e-07
4.6736e-07
2.27438e-06
0.116124
0.115865
0.116155
0.108226
0.00303611
7.4745e-06
5.81346e-06
0.00185817
0.0566556
0.0871383
0.0903452
0.090325
0.0832221
0.0189997
0.000143234
4.2692e-06
1.29854e-05
0.000875473
0.00160041
0.00163708
0.00160338
0.000921115
1.02762e-05
4.21512e-06
4.97148e-06
2.70157e-06
1.5414e-06
1.05904e-06
1.36611e-06
6.40376e-06
0.116087
0.116354
0.10871
0.000871609
4.5311e-06
5.44713e-06
5.68392e-06
3.84709e-06
0.000432549
0.0385398
0.0850807
0.0899355
0.0897812
0.068403
0.00261745
4.34705e-06
4.48224e-06
0.000753666
0.00164404
0.00160379
0.00168157
5.17752e-05
3.50383e-06
4.86007e-06
7.46435e-06
5.43946e-05
4.6292e-05
5.76671e-06
7.10061e-06
3.09537e-05
0.11168
0.101959
0.00873669
4.62661e-06
9.76585e-06
9.74951e-06
7.40399e-06
4.64112e-06
2.83379e-06
0.00105733
0.0504153
0.0859583
0.0898611
0.0852148
0.016539
6.35283e-05
3.62982e-06
0.000231011
0.00160094
0.00170865
0.00115116
5.621e-06
1.93519e-06
3.71406e-06
7.09703e-06
7.45794e-05
0.000938674
0.000957931
0.000977239
0.000650847
0.0868592
0.0206814
3.79528e-06
9.70499e-06
1.18062e-05
8.6262e-06
5.64894e-06
3.94057e-06
2.93203e-06
3.30444e-06
0.00966215
0.0760868
0.0866384
0.0865446
0.0488475
0.00125596
3.85594e-06
4.48127e-06
0.00168119
0.00159966
2.41547e-05
1.7613e-06
2.01894e-06
2.87508e-06
4.80606e-06
1.07291e-05
0.000125021
0.000538713
0.00102503
0.00146082
0.0371441
0.000984577
8.32391e-06
1.13646e-05
6.92477e-06
5.13146e-06
3.76078e-06
2.90571e-06
2.25013e-06
3.12797e-06
0.00316134
0.038757
0.0806989
0.0861458
0.0772046
0.00534935
4.50724e-06
3.50699e-06
9.8916e-06
9.94362e-05
4.79998e-06
2.32114e-06
2.88531e-06
3.58574e-06
3.98369e-06
5.4427e-06
8.25513e-06
1.09737e-05
0.000503069
0.00325912
0.0120398
0.000614681
9.80935e-06
6.00863e-06
2.89597e-06
2.16851e-06
3.33309e-06
3.801e-06
2.65043e-05
0.000461466
0.00489078
0.0286415
0.0752135
0.0820107
0.0809365
0.0188969
6.75383e-05
3.21562e-06
1.83448e-06
2.24154e-06
1.56369e-06
2.63452e-06
3.2281e-06
3.40603e-06
3.28355e-06
3.18899e-06
4.15534e-06
6.68191e-06
0.00219571
0.00458749
0.00333025
2.69251e-05
7.0279e-06
2.87325e-06
3.07859e-06
1.94129e-06
3.40094e-06
0.000164156
0.00275719
0.00649212
0.0132354
0.0314042
0.0662675
0.0793363
0.080906
0.0376281
0.00100187
3.29276e-06
1.84319e-06
3.56219e-07
8.37264e-07
1.68573e-06
2.40396e-06
2.22619e-06
2.55875e-06
2.90066e-06
4.16806e-06
0.00109314
0.00609318
0.00458128
1.44814e-05
2.02721e-05
2.8257e-05
4.67732e-05
0.000333712
0.000376402
0.000364417
5.90625e-05
7.82638e-05
0.00290527
0.0106102
0.0267235
0.0568413
0.077097
0.0798079
0.055066
0.00423498
3.97653e-06
2.33156e-06
5.45808e-07
7.60366e-07
1.21782e-06
1.76962e-06
1.91891e-06
2.62967e-06
3.61779e-06
0.000907244
0.00806945
0.00611467
7.71808e-05
1.88473e-06
4.11048e-06
2.8717e-05
3.93036e-05
5.67306e-05
0.000146578
3.40364e-05
1.70396e-05
9.50567e-06
1.88258e-05
0.000170748
0.010551
0.0389779
0.0669216
0.0774096
0.0747879
0.0142007
3.14851e-05
2.47957e-06
7.1526e-07
7.92176e-07
1.54527e-06
1.44356e-06
2.3982e-06
5.14431e-06
0.00102421
0.00637409
0.00929326
0.00188451
5.51773e-07
1.42588e-06
5.37276e-07
3.53505e-06
6.55946e-06
9.76914e-06
1.01418e-05
6.78919e-06
3.32046e-06
1.26368e-06
2.7318e-06
1.84221e-05
0.00408674
0.0218815
0.0391857
0.0656032
0.0742368
0.0434037
0.00104885
2.52238e-06
1.12591e-06
8.07108e-07
1.61209e-06
1.89348e-06
1.8165e-05
0.000907882
0.00477766
0.0109851
0.00934102
0.000735753
1.14892e-06
1.62113e-06
1.4754e-07
3.35328e-07
1.04396e-06
1.46216e-06
1.57247e-06
1.55828e-06
1.07168e-06
4.37054e-08
1.59931e-06
1.38277e-05
0.00608416
0.0150077
0.0122454
0.0324348
0.0712951
0.070022
0.0183576
2.02707e-05
1.49949e-06
9.96765e-07
1.69143e-06
6.1391e-06
0.000609533
0.00336139
0.00920001
0.0117767
0.00690766
0.000143814
5.88964e-06
2.08834e-06
1.8495e-07
6.52179e-08
4.22202e-08
3.58242e-08
1.71636e-07
1.81291e-07
3.14924e-08
6.81998e-08
1.22907e-06
1.66566e-05
0.0056421
0.00217901
0.000934599
0.00769287
0.0350981
0.0686052
0.0663199
0.00931962
2.82617e-06
1.65909e-06
2.08128e-06
0.000166311
0.00195103
0.00705804
0.0117836
0.0118437
0.00292907
7.47415e-06
9.95583e-06
2.98599e-06
1.5762e-07
9.13456e-08
5.67604e-08
4.07735e-08
2.56599e-08
1.27235e-08
4.77786e-08
9.28011e-08
6.46903e-08
4.04778e-06
2.57746e-05
3.20034e-05
3.13449e-05
0.000543957
0.00630928
0.0319936
0.0617519
0.0505597
0.00572754
1.77293e-05
2.61355e-06
0.000475968
0.00418464
0.0106374
0.012116
0.0116415
0.0002578
4.29602e-06
1.14845e-05
3.61777e-06
1.46214e-07
6.15023e-08
7.60019e-08
2.97419e-08
1.06276e-08
2.54079e-08
8.3686e-08
8.62905e-08
2.05189e-07
5.97765e-07
2.36982e-06
3.93185e-06
5.42333e-06
1.9557e-05
4.40647e-05
0.00397521
0.0306317
0.0500424
0.0283849
0.00252847
0.000136198
0.00110388
0.00632603
0.0118619
0.0117829
0.00291169
7.00329e-06
1.34584e-06
1.35442e-05
3.33819e-06
1.96499e-07
3.17348e-08
1.42619e-08
1.85294e-08
2.68735e-08
6.66551e-08
9.18203e-08
1.13671e-07
7.40771e-07
8.34998e-07
2.96538e-07
5.37895e-07
4.31506e-07
3.02075e-06
1.12303e-05
3.66039e-05
0.0038533
0.0338498
0.033507
0.011461
0.00196323
0.00262222
0.00730102
0.0117956
0.0119464
0.000219761
1.69048e-06
1.05102e-06
8.48198e-06
2.39405e-06
3.039e-07
7.43493e-08
3.0648e-08
4.10562e-08
7.79857e-08
1.02628e-07
1.46362e-07
7.23636e-07
1.22249e-06
7.94561e-07
2.48713e-07
1.97276e-08
1.3451e-08
6.10805e-09
2.31476e-06
7.08086e-06
3.45174e-05
0.00505652
0.0318931
0.0259781
0.00801824
0.00502119
0.00688534
0.00881558
0.002863
7.074e-06
8.27747e-07
8.4143e-07
4.79982e-06
2.06113e-06
3.38905e-07
7.70508e-07
5.15304e-07
3.26078e-07
3.82741e-07
5.7401e-07
1.08539e-06
1.62115e-06
1.19737e-06
5.01412e-07
3.75579e-08
1.55577e-08
1.314e-08
1.40278e-08
4.63415e-09
1.72247e-06
6.3713e-06
4.2198e-05
0.0111022
0.0255264
0.0160169
0.00641656
0.00309409
0.00158164
1.38873e-05
1.6822e-06
1.95682e-06
7.98318e-07
4.28744e-06
2.17854e-06
5.17487e-07
1.67253e-06
1.52684e-06
1.41425e-06
1.43385e-06
1.58826e-06
1.81391e-06
1.2613e-06
4.35806e-07
3.2055e-08
1.20921e-08
1.29521e-08
9.06753e-09
1.22259e-08
1.41587e-08
3.90061e-09
1.35821e-06
1.06309e-05
0.00142829
0.0245486
0.0104079
0.000434045
1.37043e-05
1.17419e-05
3.59801e-06
2.12502e-06
2.01389e-06
9.2737e-07
4.20807e-06
2.04399e-06
1.46134e-06
9.13015e-07
1.08995e-06
1.1734e-06
1.16283e-06
1.15335e-06
8.16288e-07
2.81488e-07
2.57662e-08
1.35048e-08
1.59668e-08
1.51611e-08
1.16694e-08
1.26942e-08
1.20639e-08
1.03624e-08
8.56928e-09
2.19005e-06
3.40517e-05
0.00867612
0.000158924
7.10621e-06
4.67457e-06
2.25822e-06
1.24931e-06
1.45784e-06
1.83374e-06
1.37967e-06
4.19884e-06
1.3615e-06
1.2366e-06
1.64805e-07
2.25041e-07
2.71505e-07
2.51991e-07
1.7966e-07
4.72072e-08
1.32242e-08
1.72415e-08
1.71419e-08
2.29469e-08
1.87263e-08
1.15998e-08
1.60938e-08
1.25887e-08
9.26666e-09
1.00501e-08
7.69407e-07
1.18517e-05
3.30836e-05
6.32927e-06
1.05187e-06
1.19938e-06
1.44763e-06
1.62647e-06
1.60043e-06
2.16114e-06
2.11214e-06
9.04786e-06
1.02684e-06
5.99864e-07
1.13538e-08
4.74446e-09
6.93089e-09
7.63269e-09
5.26026e-09
7.12056e-09
1.36002e-08
1.75272e-08
1.50745e-08
2.27224e-08
1.80056e-08
1.60717e-08
1.81015e-08
1.38347e-08
1.14787e-08
9.43364e-09
6.97397e-07
5.37318e-06
1.40197e-05
1.79534e-06
1.70538e-06
1.56932e-05
8.80217e-05
0.000128089
0.000105091
0.000249067
0.000246586
0.00199079
8.74415e-07
6.68805e-08
2.30519e-08
1.05336e-08
8.59427e-09
7.57914e-09
7.95715e-09
9.81328e-09
1.11937e-08
1.14695e-08
1.19145e-08
1.68569e-08
1.86753e-08
1.814e-08
1.86447e-08
1.72594e-08
1.13911e-08
1.35026e-08
4.65783e-07
3.25726e-06
1.4965e-05
0.000101862
0.000716117
0.00140159
0.00198724
0.00237711
0.00274707
0.00274446
0.00241011
0.000437811
7.04315e-07
2.99061e-08
1.97629e-08
1.04156e-08
8.5809e-09
7.4428e-09
6.98709e-09
6.36307e-09
8.0284e-09
1.09588e-08
1.25871e-08
1.6469e-08
1.5283e-08
1.91295e-08
2.20665e-08
1.89631e-08
1.1696e-08
1.35619e-08
1.15375e-08
1.63729e-06
1.94829e-05
0.000567785
0.00293926
0.00433218
0.00433676
0.00433258
0.00397294
0.00178273
0.000155743
5.7271e-06
7.48298e-07
1.89687e-08
8.4314e-09
6.79827e-09
5.88979e-09
5.46433e-09
6.25474e-09
7.09615e-09
9.19098e-09
1.15557e-08
1.22056e-08
1.31566e-08
1.33173e-08
2.0023e-08
2.26358e-08
1.95391e-08
1.40819e-08
1.46818e-08
1.37666e-08
8.50049e-07
5.8345e-06
9.81782e-05
0.00341826
0.00343465
0.00230215
0.0013574
0.000595398
2.76952e-05
2.7241e-06
6.67985e-06
6.9702e-07
1.28223e-08
1.07617e-08
8.34473e-09
6.85982e-09
6.92477e-09
7.45877e-09
7.25414e-09
9.32066e-09
9.51466e-09
1.21662e-08
1.27162e-08
1.25814e-08
1.70497e-08
2.10303e-08
1.9625e-08
1.31566e-08
1.5819e-08
1.85035e-08
8.0886e-09
1.20865e-06
7.95966e-06
2.24197e-05
1.41596e-05
1.05005e-05
8.13985e-06
5.85152e-06
3.91701e-06
1.8512e-06
4.88975e-06
5.69836e-07
1.35906e-08
9.96283e-09
8.1547e-09
7.04793e-09
6.65189e-09
7.04294e-09
7.74757e-09
9.94803e-09
1.01584e-08
1.10423e-08
1.38001e-08
1.18731e-08
1.59742e-08
1.99433e-08
1.70075e-08
1.19599e-08
2.05998e-08
2.13633e-08
1.95064e-08
9.19801e-08
7.05207e-07
2.68223e-06
4.0389e-06
4.00698e-06
3.14461e-06
2.83023e-06
1.91048e-06
1.61527e-06
5.2895e-06
6.10384e-07
1.10287e-08
7.04082e-09
7.26016e-09
6.62978e-09
6.40431e-09
8.20668e-09
9.67131e-09
9.618e-09
1.06144e-08
1.06269e-08
1.23202e-08
1.44975e-08
1.48826e-08
1.93145e-08
1.39281e-08
1.43825e-08
2.46811e-08
1.47539e-08
5.81685e-08
2.23647e-07
5.1093e-07
1.02737e-06
2.00469e-06
1.8553e-06
1.44947e-06
1.46248e-06
1.77213e-06
2.6036e-06
0.000980945
5.48656e-07
8.11792e-09
7.86791e-09
7.32717e-09
8.10641e-09
6.85932e-09
8.02244e-09
1.04615e-08
9.69797e-09
9.46235e-09
1.15199e-08
1.2117e-08
1.43508e-08
1.56624e-08
1.79519e-08
1.29423e-08
1.81242e-08
2.54574e-08
1.48719e-08
2.76789e-07
1.12726e-06
1.86338e-06
1.64134e-06
1.57938e-06
1.33467e-06
1.26495e-06
1.82895e-06
9.47785e-06
0.00223356
0.0155451
4.925e-07
8.32153e-09
7.95537e-09
7.47862e-09
9.20727e-09
7.17331e-09
8.43456e-09
1.25437e-08
1.02015e-08
9.46756e-09
1.22035e-08
1.23142e-08
1.44563e-08
1.63362e-08
1.73338e-08
1.46192e-08
2.20069e-08
2.39994e-08
1.10447e-07
9.52696e-07
3.33898e-06
3.19819e-06
1.87907e-06
1.66303e-06
2.50896e-06
0.00014625
0.00129372
0.00804782
0.0192099
0.0247826
4.83101e-07
6.67689e-09
7.87303e-09
8.20907e-09
9.66516e-09
8.92568e-09
8.46568e-09
1.22497e-08
1.16227e-08
1.01728e-08
1.16072e-08
1.20513e-08
1.49084e-08
1.79058e-08
1.69255e-08
1.57958e-08
2.44954e-08
2.31942e-08
7.04781e-07
3.12942e-06
5.88365e-06
0.000140493
0.000675116
0.00158556
0.00375606
0.00853552
0.0157462
0.0234023
0.0247897
0.0248464
4.19405e-07
6.94823e-09
7.25046e-09
8.1787e-09
9.45092e-09
9.17049e-09
9.14138e-09
1.34565e-08
1.34899e-08
1.02558e-08
1.08462e-08
1.32815e-08
1.6147e-08
1.78106e-08
1.60862e-08
1.67383e-08
2.58277e-08
2.60102e-07
1.92751e-06
9.37321e-06
0.000558678
0.00321873
0.00694762
0.0106611
0.0148848
0.0196083
0.0209028
0.0209312
0.0186901
0.0173414
4.13669e-07
6.80787e-09
8.86262e-09
9.00917e-09
1.0487e-08
9.78278e-09
1.16209e-08
1.3162e-08
1.16971e-08
1.12769e-08
1.07099e-08
1.40592e-08
1.71126e-08
1.81099e-08
1.6e-08
1.86135e-08
2.9154e-08
1.19501e-06
5.79339e-06
0.000370779
0.00496174
0.0108791
0.0148111
0.0148984
0.0149699
0.0149149
0.0129233
0.0102509
0.00769372
0.00554411
3.65442e-07
6.65708e-09
8.22806e-09
9.15544e-09
1.10046e-08
1.06983e-08
1.12519e-08
1.60548e-08
1.25179e-08
1.0407e-08
1.13397e-08
1.51461e-08
1.82257e-08
1.96952e-08
1.7392e-08
2.19714e-08
2.91096e-08
1.689e-06
1.51829e-05
0.00290158
0.0103288
0.0103983
0.00666439
0.00580189
0.00521805
0.00390875
0.00332025
0.00285926
0.00238035
0.00351128
3.35668e-07
7.34983e-09
8.56948e-09
9.28472e-09
1.11946e-08
1.23129e-08
1.28191e-08
1.70801e-08
1.38438e-08
1.07705e-08
1.36574e-08
1.60748e-08
1.6557e-08
2.16211e-08
2.12869e-08
2.50287e-08
2.69107e-08
1.469e-06
2.40834e-05
0.00438428
0.00454321
0.000444223
0.000138036
0.000213952
0.000317891
0.000365683
0.000533818
0.000914875
0.00224689
0.00995561
2.98753e-07
7.28739e-09
9.21408e-09
9.65103e-09
1.1507e-08
1.24897e-08
1.6115e-08
1.68454e-08
1.30358e-08
1.36266e-08
1.52727e-08
1.63498e-08
1.74492e-08
2.31268e-08
2.58688e-08
2.77602e-08
4.13494e-08
2.45945e-07
9.40157e-06
0.000677331
5.67263e-06
3.73461e-06
3.98629e-06
7.27467e-06
7.78085e-05
0.00037464
0.00115877
0.00317352
0.00940701
0.029823
2.78843e-07
7.17438e-09
9.72356e-09
1.02725e-08
1.13069e-08
1.53381e-08
1.6401e-08
1.68188e-08
1.38946e-08
1.45622e-08
1.76018e-08
1.80768e-08
1.84979e-08
2.39021e-08
3.00987e-08
4.14784e-08
4.99772e-08
1.59736e-07
2.053e-06
9.68133e-06
8.62395e-06
2.14503e-05
8.95489e-05
0.000295567
0.000856244
0.00244233
0.00620328
0.0144811
0.0329545
0.0639082
2.53039e-07
7.47064e-09
9.38501e-09
1.05167e-08
1.10729e-08
1.79305e-08
1.94827e-08
1.6725e-08
1.4506e-08
1.70953e-08
1.96266e-08
1.98565e-08
2.13806e-08
2.55844e-08
4.19091e-08
4.79344e-08
1.26783e-07
1.56583e-06
6.15949e-06
8.83447e-06
0.000199174
0.000729306
0.00170877
0.00382356
0.00788786
0.0151936
0.0274334
0.0462426
0.0735395
0.080737
2.05995e-07
8.2025e-09
1.01149e-08
1.13792e-08
1.15618e-08
1.87335e-08
2.2924e-08
1.53749e-08
1.74589e-08
1.97755e-08
2.28168e-08
2.21596e-08
2.26403e-08
3.94283e-08
5.13841e-08
6.57003e-08
1.19365e-06
6.5546e-06
1.6865e-05
0.000951812
0.00310697
0.00627351
0.0114836
0.0203817
0.0336864
0.0503077
0.0694476
0.0784058
0.0830619
0.0874299
1.7041e-07
9.09002e-09
1.06918e-08
1.12031e-08
1.33277e-08
2.17044e-08
2.26302e-08
1.65796e-08
1.83239e-08
2.7095e-08
2.62105e-08
2.4273e-08
3.10762e-08
5.45509e-08
5.7594e-08
4.75042e-07
4.50551e-06
1.54118e-05
0.00157156
0.00637441
0.0146337
0.0266522
0.0421381
0.0611855
0.0765375
0.0804005
0.0830716
0.0855542
0.0890978
0.0933528
1.45841e-07
9.78158e-09
1.10803e-08
1.24663e-08
1.38931e-08
2.26908e-08
2.35671e-08
1.90894e-08
2.59695e-08
3.10271e-08
3.13728e-08
3.19464e-08
5.17501e-08
6.97951e-08
1.18986e-07
2.39425e-06
1.02419e-05
0.00110601
0.00987996
0.0248058
0.0449366
0.0699563
0.0798913
0.0847262
0.087725
0.0894925
0.0904565
0.0909018
0.0931628
0.096856
1.13768e-07
1.0581e-08
1.19846e-08
1.32336e-08
1.79663e-08
2.27108e-08
2.42312e-08
2.47222e-08
3.038e-08
3.85578e-08
4.50308e-08
5.09082e-08
7.37024e-08
9.00305e-08
1.15394e-06
5.09622e-06
8.51692e-05
0.0119456
0.0383811
0.0656872
0.0793169
0.0856932
0.0910723
0.0948862
0.0960213
0.0960986
0.0959973
0.093855
0.0938871
0.0968633
8.39955e-08
1.18084e-08
1.35485e-08
1.44521e-08
2.08237e-08
2.61537e-08
2.74097e-08
3.08035e-08
3.50718e-08
5.24715e-08
6.20354e-08
8.58601e-08
1.20165e-07
2.86861e-07
2.88004e-06
1.3437e-05
0.0103668
0.0561999
0.0779648
0.0827951
0.0883017
0.0943941
0.0960891
0.0959222
0.095821
0.0956737
0.0921843
0.0881126
0.0879631
0.0933045
5.84576e-08
1.31906e-08
1.57945e-08
1.77065e-08
2.41078e-08
2.94272e-08
3.40346e-08