/*--------------------------------*- C++ -*----------------------------------*\
| =========                 |                                                 |
| \\      /  F ield         | OpenFOAM: The Open Source CFD Toolbox           |
|  \\    /   O peration     | Version:  2.3.0                                 |
|   \\  /    A nd           | Web:      www.OpenFOAM.org                      |
|    \\/     M anipulation  |                                                 |
\*---------------------------------------------------------------------------*/
FoamFile
{
    version     2.0;
    format      ascii;
    class       volScalarField;
    location    "1.59997";
    object      alpha.air;
}
// * * * * * * * * * * * * * * * * * * * * * * * * * * * * * * * * * * * * * //

dimensions      [0 0 0 0 0 0 0];

internalField   nonuniform List<scalar> 
10000
(
0.00545226
0.00762363
0.0121671
0.0103273
0.0211229
0.0696207
0.308543
0.225238
0.334984
0.294312
0.311137
0.425619
0.341195
0.205899
0.0709168
0.0101921
0.00592033
0.00447028
0.00429962
0.00429113
2.85019e-08
1.45339e-07
5.97019e-07
3.17766e-07
0.00191394
0.0709132
0.415122
0.177358
0.345495
0.287995
0.276291
0.391205
0.385286
0.362386
0.185937
6.58159e-06
7.13481e-08
1.54668e-08
2.63992e-08
2.83752e-08
1.54237e-18
2.35503e-16
1.6472e-14
4.3955e-13
1.34529e-05
0.0152067
0.30694
0.243382
0.27101
0.273765
0.285192
0.271158
0.27433
0.187355
0.00437668
2.68573e-07
1.27302e-10
6.37246e-13
1.29184e-18
9.10688e-21
4.32381e-19
2.61778e-16
2.61367e-14
5.49222e-13
1.13092e-07
0.01284
0.413075
0.266433
0.250769
0.263979
0.24664
0.245437
0.257045
0.192709
0.00119643
1.57159e-08
1.71599e-10
1.54578e-12
2.9256e-17
3.27792e-21
2.16305e-19
3.13948e-16
3.61757e-14
5.56417e-13
8.33174e-11
0.00230658
0.410876
0.373109
0.234614
0.280419
0.224861
0.227545
0.248394
0.154445
0.000187115
1.30971e-09
2.78139e-11
5.38203e-13
9.35333e-20
2.48164e-21
3.54409e-19
2.96356e-16
4.1602e-14
4.84046e-13
5.87103e-11
0.00142928
0.321551
0.359162
0.235435
0.154015
0.203935
0.173212
0.227046
0.0734148
7.10552e-05
5.45832e-10
9.39069e-12
8.81148e-14
5.47596e-20
2.12616e-21
3.74858e-20
6.70528e-17
2.1977e-14
2.73963e-13
2.48621e-11
0.000113195
0.0873565
0.115653
0.0110542
0.000593657
0.00346185
0.00770165
0.0705396
0.00363312
7.41018e-07
1.41638e-10
7.68583e-13
7.06193e-15
4.56379e-20
1.54085e-21
1.29286e-20
4.62471e-18
3.1334e-15
7.83851e-14
5.3198e-12
6.52129e-08
0.000118639
0.000106047
1.76883e-06
5.06335e-10
1.53481e-07
7.16597e-07
0.000118995
6.52358e-06
3.95206e-09
5.5395e-12
2.04146e-14
2.28974e-17
2.0724e-20
6.16014e-22
0
0
0
0
0
0
0
0
0
0
0
0
0
0
0
0
0
0
0
0
0
0
0
0
0
0
0
0
0
0
0
0
0
0
0
0
0
0
0
0
0
0
0
0
0
0
0
0
0
0
0
0
0
0
0
0
0
0
0
0
0
0
0
0
0
0
0
0
0
0
0
0
0
0
0
0
0
0
0
0
0
0
0
0
0
0
0
0
0
0
0
0
0
0
0
0
0
0
0
0
0
0
0
0
0
0
0
0
0
0
0
0
0
0
0
0
0
0
0
0
0
0
0
0
0
0
0
0
0
0
0
0
0
0
0
0
0
0
0
0
0
0
0
0
0
0
0
0
0
0
0
0
0
0
0
0
0
0
0
0
0
0
0
0
0
0
0
0
0
0
0
0
0
0
0
0
0
0
0
0
0
0
0
0
0
0
0
0
0
0
0
0
0
0
0
0
0
0
0
0
0
0
0
0
0
0
0
0
0
0
0
0
0
0
0
0
0
0
0
0
0
0
0
0
0
0
0
0
0
0
0
0
0
0
0
0
0
0
0
0
0.00561396
0.00775767
0.0119053
0.0104793
0.0231059
0.0716068
0.311293
0.225838
0.337467
0.297379
0.313052
0.429175
0.344137
0.209612
0.0768471
0.0104782
0.00599459
0.00457545
0.00431894
0.00436153
4.36373e-08
1.59933e-07
8.13546e-07
4.02433e-07
0.00301446
0.0742294
0.421097
0.174899
0.348309
0.294262
0.276004
0.400003
0.392809
0.373611
0.213415
6.14364e-06
9.50441e-08
2.37077e-08
3.18537e-08
3.94756e-08
1.61864e-18
3.30522e-16
1.78611e-14
4.25549e-13
2.17224e-05
0.015978
0.301224
0.242415
0.272673
0.274842
0.286987
0.273915
0.276315
0.190385
0.00521361
4.31599e-07
1.27043e-10
6.27492e-13
1.18825e-18
7.06549e-21
5.2463e-19
4.15999e-16
2.68618e-14
5.44411e-13
1.64556e-07
0.0148073
0.415236
0.26145
0.252434
0.264734
0.2509
0.246422
0.257817
0.199313
0.0014292
1.64794e-08
1.5938e-10
1.47925e-12
3.34707e-17
2.70446e-21
4.43618e-19
4.24963e-16
3.67095e-14
5.46331e-13
9.62837e-11
0.00253202
0.413678
0.375994
0.23557
0.289052
0.231117
0.230842
0.250973
0.164257
0.000227985
1.42092e-09
2.65676e-11
4.70317e-13
7.31449e-20
1.84391e-21
7.98814e-19
3.34542e-16
4.0611e-14
4.62528e-13
6.91646e-11
0.00161857
0.333713
0.36866
0.250176
0.169828
0.218147
0.18962
0.240716
0.0826591
7.9404e-05
6.36743e-10
8.98017e-12
7.15654e-14
3.79876e-20
1.4474e-21
6.32633e-20
7.42508e-17
2.03115e-14
2.46475e-13
3.05398e-11
0.000121908
0.097573
0.128316
0.0129032
0.000695071
0.0040313
0.0089914
0.0803882
0.00423235
8.67942e-07
6.99282e-11
5.51001e-13
5.46593e-15
3.12118e-20
1.0424e-21
1.39321e-20
4.74784e-18
2.68544e-15
6.22914e-14
6.00387e-12
7.12163e-08
0.000136809
0.00012285
2.04499e-06
2.04971e-10
1.81205e-07
8.43262e-07
0.000139036
7.60103e-06
4.27837e-09
5.32069e-12
1.76798e-14
2.00154e-17
1.47206e-20
4.75475e-22
0
0
0
0
0
0
0
0
0
0
0
0
0
0
0
0
0
0
0
0
0
0
0
0
0
0
0
0
0
0
0
0
0
0
0
0
0
0
0
0
0
0
0
0
0
0
0
0
0
0
0
0
0
0
0
0
0
0
0
0
0
0
0
0
0
0
0
0
0
0
0
0
0
0
0
0
0
0
0
0
0
0
0
0
0
0
0
0
0
0
0
0
0
0
0
0
0
0
0
0
0
0
0
0
0
0
0
0
0
0
0
0
0
0
0
0
0
0
0
0
0
0
0
0
0
0
0
0
0
0
0
0
0
0
0
0
0
0
0
0
0
0
0
0
0
0
0
0
0
0
0
0
0
0
0
0
0
0
0
0
0
0
0
0
0
0
0
0
0
0
0
0
0
0
0
0
0
0
0
0
0
0
0
0
0
0
0
0
0
0
0
0
0
0
0
0
0
0
0
0
0
0
0
0
0
0
0
0
0
0
0
0
0
0
0
0
0
0
0
0
0
0
0
0
0
0
0
0
0
0
0
0
0
0
0
0
0
0
0
0
0.00568372
0.00782561
0.0117396
0.0105484
0.0242616
0.0727246
0.312254
0.22631
0.338536
0.298879
0.313935
0.430008
0.345219
0.211618
0.0800398
0.0106492
0.00602099
0.00461291
0.00432166
0.00438387
4.64685e-08
1.76402e-07
6.78799e-07
3.98939e-07
0.00386772
0.0762124
0.424482
0.173594
0.349815
0.297874
0.275813
0.404794
0.397059
0.379772
0.228184
6.34106e-06
8.36558e-08
2.58741e-08
3.10457e-08
4.00129e-08
1.70429e-18
3.7595e-16
2.03012e-14
3.65226e-13
2.86336e-05
0.0163595
0.297898
0.241985
0.273538
0.275348
0.287806
0.275589
0.277606
0.191773
0.00568043
5.69897e-07
1.23404e-10
6.09572e-13
3.75652e-19
4.61857e-21
8.78565e-19
5.40706e-16
2.8025e-14
5.22176e-13
2.09904e-07
0.0159774
0.416501
0.258593
0.253314
0.264848
0.253093
0.246895
0.258255
0.202961
0.00157668
1.84406e-08
1.53023e-10
1.39354e-12
3.63851e-19
1.99084e-21
1.15014e-18
6.26895e-16
3.767e-14
5.22902e-13
1.12624e-10
0.00264912
0.415099
0.377579
0.235702
0.293594
0.234531
0.232275
0.252205
0.169645
0.000250328
1.50727e-09
2.47658e-11
3.88244e-13
4.81215e-20
1.19123e-21
1.85728e-18
4.6093e-16
3.97507e-14
4.29625e-13
8.30023e-11
0.00168319
0.340074
0.373413
0.25847
0.178983
0.226107
0.198725
0.24772
0.0882379
8.27676e-05
7.42486e-10
8.25028e-12
5.16593e-14
2.16614e-20
7.89981e-22
1.79656e-19
9.52939e-17
1.86072e-14
2.16229e-13
3.98741e-11
0.000123422
0.103677
0.135802
0.0140822
0.000760066
0.00439593
0.00981177
0.0864005
0.00461504
9.47287e-07
4.39431e-11
3.95001e-13
3.22457e-15
1.59916e-20
5.10544e-22
1.88469e-20
5.23077e-18
2.29283e-15
4.80088e-14
1.00573e-11
7.28912e-08
0.000148462
0.000133612
2.18326e-06
2.71044e-10
1.97319e-07
9.20493e-07
0.000151887
8.29176e-06
4.77392e-09
5.35758e-12
1.32214e-14
1.5296e-17
7.17413e-21
2.55176e-22
0
0
0
0
0
0
0
0
0
0
0
0
0
0
0
0
0
0
0
0
0
0
0
0
0
0
0
0
0
0
0
0
0
0
0
0
0
0
0
0
0
0
0
0
0
0
0
0
0
0
0
0
0
0
0
0
0
0
0
0
0
0
0
0
0
0
0
0
0
0
0
0
0
0
0
0
0
0
0
0
0
0
0
0
0
0
0
0
0
0
0
0
0
0
0
0
0
0
0
0
0
0
0
0
0
0
0
0
0
0
0
0
0
0
0
0
0
0
0
0
0
0
0
0
0
0
0
0
0
0
0
0
0
0
0
0
0
0
0
0
0
0
0
0
0
0
0
0
0
0
0
0
0
0
0
0
0
0
0
0
0
0
0
0
0
0
0
0
0
0
0
0
0
0
0
0
0
0
0
0
0
0
0
0
0
0
0
0
0
0
0
0
0
0
0
0
0
0
0
0
0
0
0
0
0
0
0
0
0
0
0
0
0
0
0
0
0
0
0
0
0
0
0
0
0
0
0
0
0
0
0
0
0
0
0
0
0
0
0
0
0.00566558
0.0077702
0.0114408
0.0104327
0.0250591
0.0733578
0.312481
0.226003
0.339154
0.299895
0.314287
0.430583
0.3457
0.212775
0.0827987
0.0106702
0.00593595
0.00457156
0.00423216
0.00431352
5.75562e-08
2.16169e-07
6.58415e-07
4.69764e-07
0.00497962
0.0784861
0.42851
0.172109
0.351476
0.301706
0.275575
0.409945
0.401758
0.386481
0.24365
6.03324e-06
8.5277e-08
3.3074e-08
3.35501e-08
4.26003e-08
1.9359e-18
3.68069e-16
2.30547e-14
2.80515e-13
3.81109e-05
0.0167072
0.294085
0.24152
0.274398
0.275835
0.288569
0.277502
0.27907
0.19304
0.00618942
7.65917e-07
1.18759e-10
5.72871e-13
2.36685e-19
2.9364e-21
1.49901e-18
5.8452e-16
2.95694e-14
4.66333e-13
2.68687e-07
0.0173161
0.417918
0.255419
0.254314
0.264856
0.255472
0.247458
0.258826
0.207118
0.00175206
2.82183e-08
1.24563e-10
1.23806e-12
7.44358e-20
1.3433e-21
2.19107e-18
7.82158e-16
3.84524e-14
4.77351e-13
1.34368e-10
0.00278143
0.416614
0.379328
0.235529
0.298513
0.238307
0.233722
0.253478
0.175617
0.000274106
1.54425e-09
2.21747e-11
3.01363e-13
2.65985e-20
6.72655e-22
3.15915e-18
5.87174e-16
3.86295e-14
3.83764e-13
1.01965e-10
0.00172399
0.346889
0.37836
0.267758
0.189372
0.235012
0.208772
0.255142
0.0947324
8.65514e-05
8.63647e-10
7.27556e-12
3.60472e-14
9.16889e-21
3.23085e-22
3.21142e-19
1.10003e-16
1.67312e-14
1.8298e-13
5.29061e-11
0.000123878
0.110749
0.144393
0.0155011
0.000838451
0.00483588
0.010797
0.0934354
0.00507569
1.04361e-06
5.32299e-11
3.02379e-13
1.63306e-15
4.73273e-21
1.6534e-22
2.52736e-20
5.44706e-18
1.94775e-15
3.72722e-14
1.68889e-11
7.52618e-08
0.000162496
0.000146636
2.34642e-06
4.07668e-10
2.17796e-07
1.02435e-06
0.000167406
9.12851e-06
5.31301e-09
7.01212e-12
1.07981e-14
1.02129e-17
1.59141e-21
8.56784e-23
0
0
0
0
0
0
0
0
0
0
0
0
0
0
0
0
0
0
0
0
0
0
0
0
0
0
0
0
0
0
0
0
0
0
0
0
0
0
0
0
0
0
0
0
0
0
0
0
0
0
0
0
0
0
0
0
0
0
0
0
0
0
0
0
0
0
0
0
0
0
0
0
0
0
0
0
0
0
0
0
0
0
0
0
0
0
0
0
0
0
0
0
0
0
0
0
0
0
0
0
0
0
0
0
0
0
0
0
0
0
0
0
0
0
0
0
0
0
0
0
0
0
0
0
0
0
0
0
0
0
0
0
0
0
0
0
0
0
0
0
0
0
0
0
0
0
0
0
0
0
0
0
0
0
0
0
0
0
0
0
0
0
0
0
0
0
0
0
0
0
0
0
0
0
0
0
0
0
0
0
0
0
0
0
0
0
0
0
0
0
0
0
0
0
0
0
0
0
0
0
0
0
0
0
0
0
0
0
0
0
0
0
0
0
0
0
0
0
0
0
0
0
0
0
0
0
0
0
0
0
0
0
0
0
0
0
0
0
0
0
0.00566073
0.00775373
0.0112213
0.0103753
0.0258897
0.0741321
0.313258
0.226098
0.340241
0.301581
0.315167
0.431513
0.346726
0.214493
0.0854817
0.0107071
0.00590068
0.00455611
0.00418771
0.00428066
6.77808e-08
2.54701e-07
6.55834e-07
5.4104e-07
0.00626272
0.0807207
0.432643
0.170639
0.353007
0.305326
0.275324
0.414616
0.406181
0.392604
0.25722
6.69663e-06
9.08461e-08
3.91527e-08
3.52479e-08
4.38962e-08
2.2104e-18
3.25919e-16
2.53014e-14
1.98786e-13
4.96379e-05
0.0170043
0.290445
0.241178
0.275195
0.276285
0.289205
0.279419
0.28053
0.194118
0.00667504
1.00307e-06
1.12408e-10
4.5136e-13
1.71083e-19
1.99021e-21
2.01906e-18
5.60349e-16
3.11147e-14
3.77347e-13
3.35463e-07
0.0186385
0.419236
0.252402
0.255213
0.264407
0.257581
0.247942
0.259364
0.211083
0.00193093
4.596e-08
9.42667e-11
8.98373e-13
3.91944e-20
9.10287e-22
3.0309e-18
8.37111e-16
3.86046e-14
4.06365e-13
1.64778e-10
0.00289652
0.417972
0.380941
0.234758
0.303008
0.241827
0.234907
0.254413
0.181208
0.000292575
1.68661e-09
1.89659e-11
2.14445e-13
1.43098e-20
4.29462e-22
4.08982e-18
6.52064e-16
3.68994e-14
3.24575e-13
1.30593e-10
0.00173612
0.352984
0.38264
0.276496
0.199314
0.243395
0.218074
0.261797
0.101146
9.04452e-05
1.0009e-09
6.03158e-12
2.39161e-14
3.85534e-21
1.76705e-22
4.34537e-19
1.1343e-16
1.47401e-14
1.47855e-13
7.02836e-11
0.000122422
0.117725
0.152752
0.016962
0.000919529
0.00529076
0.0118086
0.100418
0.00555054
1.14099e-06
6.45072e-11
2.28917e-13
8.09651e-16
1.11019e-21
6.32581e-23
3.06632e-20
5.2682e-18
1.64044e-15
2.81853e-14
2.66717e-11
7.7185e-08
0.000176995
0.000160083
2.51689e-06
6.72666e-10
2.41172e-07
1.13214e-06
0.000183282
9.99296e-06
5.88927e-09
1.07502e-11
8.33457e-15
6.09114e-18
1.91731e-22
2.16672e-23
0
0
0
0
0
0
0
0
0
0
0
0
0
0
0
0
0
0
0
0
0
0
0
0
0
0
0
0
0
0
0
0
0
0
0
0
0
0
0
0
0
0
0
0
0
0
0
0
0
0
0
0
0
0
0
0
0
0
0
0
0
0
0
0
0
0
0
0
0
0
0
0
0
0
0
0
0
0
0
0
0
0
0
0
0
0
0
0
0
0
0
0
0
0
0
0
0
0
0
0
0
0
0
0
0
0
0
0
0
0
0
0
0
0
0
0
0
0
0
0
0
0
0
0
0
0
0
0
0
0
0
0
0
0
0
0
0
0
0
0
0
0
0
0
0
0
0
0
0
0
0
0
0
0
0
0
0
0
0
0
0
0
0
0
0
0
0
0
0
0
0
0
0
0
0
0
0
0
0
0
0
0
0
0
0
0
0
0
0
0
0
0
0
0
0
0
0
0
0
0
0
0
0
0
0
0
0
0
0
0
0
0
0
0
0
0
0
0
0
0
0
0
0
0
0
0
0
0
0
0
0
0
0
0
0
0
0
0
0
0
0.00565345
0.00773304
0.0110132
0.0103222
0.0267229
0.0749009
0.313781
0.225982
0.341115
0.303034
0.315792
0.432347
0.347469
0.215966
0.0879322
0.0107522
0.00586635
0.00453263
0.0041308
0.00423812
7.9316e-08
2.94666e-07
6.57896e-07
6.06321e-07
0.00777736
0.0829629
0.437065
0.169118
0.354504
0.309012
0.275055
0.41905
0.410519
0.398506
0.269526
8.14371e-06
9.77684e-08
4.57264e-08
3.69306e-08
4.45263e-08
2.33836e-18
2.67223e-16
2.63893e-14
1.31422e-13
6.38735e-05
0.017225
0.286718
0.240882
0.275908
0.276717
0.289722
0.281376
0.281986
0.194976
0.00714264
1.28205e-06
9.09554e-11
4.00395e-13
1.39426e-19
1.56768e-21
2.2352e-18
4.91478e-16
3.1943e-14
2.74254e-13
4.1129e-07
0.020023
0.420528
0.249463
0.256131
0.263854
0.259551
0.248465
0.259812
0.215081
0.00212372
6.75416e-08
9.07828e-11
7.86381e-13
2.58066e-20
6.62871e-22
3.42289e-18
8.03026e-16
3.78094e-14
3.16796e-13
2.11432e-10
0.00299964
0.419267
0.382414
0.233902
0.307335
0.245244
0.235961
0.255036
0.186717
0.000307
1.90532e-09
1.52357e-11
1.33936e-13
9.44293e-21
3.61457e-22
4.42036e-18
6.47163e-16
3.43831e-14
2.55567e-13
1.79318e-10
0.00173682
0.35872
0.386569
0.285137
0.209292
0.251759
0.227112
0.268288
0.10776
9.58709e-05
1.15675e-09
4.4494e-12
1.42951e-14
2.54461e-21
1.72067e-22
4.97314e-19
1.07611e-16
1.28905e-14
1.12803e-13
9.24161e-11
0.000118723
0.124914
0.16125
0.0185305
0.00100697
0.0057811
0.0128926
0.107653
0.00606122
1.24384e-06
7.7732e-11
1.56209e-13
4.07164e-16
5.86668e-22
5.491e-23
3.31756e-20
4.78135e-18
1.3654e-15
2.04857e-14
3.90189e-11
7.88362e-08
0.000192601
0.000174562
2.69157e-06
1.14592e-09
2.6644e-07
1.24968e-06
0.000200177
1.09243e-05
6.50664e-09
1.55529e-11
3.80427e-15
3.31812e-18
7.66914e-23
9.55602e-24
0
0
0
0
0
0
0
0
0
0
0
0
0
0
0
0
0
0
0
0
0
0
0
0
0
0
0
0
0
0
0
0
0
0
0
0
0
0
0
0
0
0
0
0
0
0
0
0
0
0
0
0
0
0
0
0
0
0
0
0
0
0
0
0
0
0
0
0
0
0
0
0
0
0
0
0
0
0
0
0
0
0
0
0
0
0
0
0
0
0
0
0
0
0
0
0
0
0
0
0
0
0
0
0
0
0
0
0
0
0
0
0
0
0
0
0
0
0
0
0
0
0
0
0
0
0
0
0
0
0
0
0
0
0
0
0
0
0
0
0
0
0
0
0
0
0
0
0
0
0
0
0
0
0
0
0
0
0
0
0
0
0
0
0
0
0
0
0
0
0
0
0
0
0
0
0
0
0
0
0
0
0
0
0
0
0
0
0
0
0
0
0
0
0
0
0
0
0
0
0
0
0
0
0
0
0
0
0
0
0
0
0
0
0
0
0
0
0
0
0
0
0
0
0
0
0
0
0
0
0
0
0
0
0
0
0
0
0
0
0
0.00565098
0.00771756
0.0108256
0.010275
0.0275371
0.0757057
0.314459
0.225975
0.34212
0.304685
0.316601
0.433232
0.348401
0.217585
0.0902451
0.0108044
0.00583862
0.00451214
0.00407828
0.00419785
9.23229e-08
3.33804e-07
6.64552e-07
6.59014e-07
0.00954827
0.0851742
0.441582
0.167627
0.355922
0.312731
0.274783
0.423164
0.414693
0.404069
0.280395
1.02196e-05
1.05857e-07
5.22256e-08
3.83081e-08
4.45634e-08
2.21553e-18
2.05314e-16
2.59814e-14
8.14646e-14
8.1259e-05
0.0173759
0.283023
0.240655
0.276557
0.277172
0.290143
0.283343
0.283436
0.195659
0.0075784
1.5952e-06
6.99823e-11
3.50556e-13
1.19365e-19
1.41265e-21
2.22663e-18
3.99938e-16
3.13708e-14
1.79467e-13
4.93363e-07
0.0214402
0.421745
0.246666
0.25701
0.263173
0.261266
0.24902
0.260152
0.219052
0.00232853
9.32852e-08
9.2499e-11
6.90937e-13
1.94742e-20
5.03054e-22
3.62214e-18
7.06685e-16
3.58261e-14
2.23243e-13
2.89721e-10
0.00307376
0.420497
0.383754
0.232701
0.311442
0.248521
0.236842
0.255365
0.192048
0.000316246
2.14895e-09
1.06277e-11
6.83425e-14
7.76426e-21
3.21608e-22
4.18978e-18
5.89036e-16
3.10789e-14
1.84431e-13
2.7121e-10
0.00169924
0.363962
0.390071
0.293449
0.21904
0.259947
0.235677
0.274453
0.114416
0.000102353
1.33493e-09
2.4823e-12
7.20906e-15
2.39895e-21
1.61894e-22
4.92902e-19
9.56037e-17
1.11166e-14
8.02498e-14
1.19189e-10
0.000115728
0.132153
0.169674
0.0201795
0.00109931
0.00629892
0.0140296
0.114966
0.00659899
1.34286e-06
9.2694e-11
8.1036e-14
1.90722e-16
5.94222e-22
4.83146e-23
3.25677e-20
4.1247e-18
1.12853e-15
1.41035e-14
5.25198e-11
8.03052e-08
0.00020906
0.000189791
2.83901e-06
1.92163e-09
2.90403e-07
1.3738e-06
0.000217693
1.19041e-05
7.1566e-09
2.11811e-11
5.89705e-16
1.65808e-18
2.67446e-22
7.22342e-24
0
0
0
0
0
0
0
0
0
0
0
0
0
0
0
0
0
0
0
0
0
0
0
0
0
0
0
0
0
0
0
0
0
0
0
0
0
0
0
0
0
0
0
0
0
0
0
0
0
0
0
0
0
0
0
0
0
0
0
0
0
0
0
0
0
0
0
0
0
0
0
0
0
0
0
0
0
0
0
0
0
0
0
0
0
0
0
0
0
0
0
0
0
0
0
0
0
0
0
0
0
0
0
0
0
0
0
0
0
0
0
0
0
0
0
0
0
0
0
0
0
0
0
0
0
0
0
0
0
0
0
0
0
0
0
0
0
0
0
0
0
0
0
0
0
0
0
0
0
0
0
0
0
0
0
0
0
0
0
0
0
0
0
0
0
0
0
0
0
0
0
0
0
0
0
0
0
0
0
0
0
0
0
0
0
0
0
0
0
0
0
0
0
0
0
0
0
0
0
0
0
0
0
0
0
0
0
0
0
0
0
0
0
0
0
0
0
0
0
0
0
0
0
0
0
0
0
0
0
0
0
0
0
0
0
0
0
0
0
0
0.00565463
0.00770243
0.0106518
0.0102266
0.0283097
0.0765273
0.315076
0.225785
0.343
0.306206
0.317314
0.434139
0.349275
0.219164
0.092363
0.0108589
0.0058151
0.00449019
0.00402435
0.00415399
1.04801e-07
3.70981e-07
6.68995e-07
7.11604e-07
0.0116059
0.087343
0.44614
0.16618
0.357277
0.316473
0.274512
0.427013
0.418731
0.409376
0.290098
1.28056e-05
1.12529e-07
5.86643e-08
3.94185e-08
4.41624e-08
1.9516e-18
1.48944e-16
2.40995e-14
4.82451e-14
0.000102349
0.0174519
0.279284
0.240476
0.277125
0.27765
0.290471
0.2853
0.284884
0.196147
0.00797262
1.93562e-06
6.91301e-11
2.81145e-13
1.04217e-19
1.38588e-21
2.07179e-18
3.04066e-16
2.91529e-14
1.06034e-13
5.849e-07
0.0229179
0.422887
0.243979
0.257884
0.262314
0.262775
0.249672
0.260436
0.223026
0.00254749
1.17649e-07
9.22733e-11
5.6254e-13
1.48654e-20
3.76865e-22
3.46375e-18
5.77655e-16
3.25828e-14
1.4086e-13
4.26377e-10
0.00311545
0.42168
0.384985
0.231231
0.315383
0.25169
0.237508
0.255474
0.197256
0.00032214
2.4126e-09
5.97893e-12
2.63917e-14
6.68113e-21
2.63783e-22
3.61393e-18
5.00031e-16
2.71647e-14
1.20386e-13
4.54228e-10
0.00164669
0.368801
0.393234
0.301533
0.228658
0.26804
0.243926
0.280354
0.121153
0.000109362
1.53878e-09
1.23105e-12
2.79576e-15
2.34134e-21
1.31259e-22
4.33495e-19
8.04823e-17
9.40872e-15
5.25749e-14
1.50036e-10
0.000112729
0.139485
0.178091
0.0219257
0.00119759
0.00684946
0.0152312
0.122403
0.00716946
1.43344e-06
1.08903e-10
1.71629e-14
7.20028e-17
6.67158e-22
3.71132e-23
2.96638e-20
3.41558e-18
9.36917e-16
9.06237e-15
6.48943e-11
8.14575e-08
0.000226462
0.000205844
2.96268e-06
3.1207e-09
3.12797e-07
1.50389e-06
0.000235955
1.29395e-05
7.8383e-09
2.71925e-11
1.41807e-16
7.50841e-19
5.17986e-22
5.67545e-24
0
0
0
0
0
0
0
0
0
0
0
0
0
0
0
0
0
0
0
0
0
0
0
0
0
0
0
0
0
0
0
0
0
0
0
0
0
0
0
0
0
0
0
0
0
0
0
0
0
0
0
0
0
0
0
0
0
0
0
0
0
0
0
0
0
0
0
0
0
0
0
0
0
0
0
0
0
0
0
0
0
0
0
0
0
0
0
0
0
0
0
0
0
0
0
0
0
0
0
0
0
0
0
0
0
0
0
0
0
0
0
0
0
0
0
0
0
0
0
0
0
0
0
0
0
0
0
0
0
0
0
0
0
0
0
0
0
0
0
0
0
0
0
0
0
0
0
0
0
0
0
0
0
0
0
0
0
0
0
0
0
0
0
0
0
0
0
0
0
0
0
0
0
0
0
0
0
0
0
0
0
0
0
0
0
0
0
0
0
0
0
0
0
0
0
0
0
0
0
0
0
0
0
0
0
0
0
0
0
0
0
0
0
0
0
0
0
0
0
0
0
0
0
0
0
0
0
0
0
0
0
0
0
0
0
0
0
0
0
0
0.0056627
0.00768903
0.0104899
0.0101779
0.0290257
0.07738
0.315726
0.225687
0.343933
0.307862
0.31817
0.435115
0.350243
0.220827
0.0943672
0.0109166
0.00579644
0.00446859
0.00396994
0.00410904
1.16429e-07
4.05293e-07
6.7255e-07
7.62026e-07
0.0139804
0.0894418
0.450612
0.164809
0.358549
0.320215
0.274248
0.430586
0.422606
0.414385
0.298798
1.65727e-05
1.18388e-07
6.49119e-08
4.03437e-08
4.29773e-08
1.62754e-18
1.02802e-16
2.10795e-14
2.92322e-14
0.000127682
0.0174715
0.275576
0.24035
0.27762
0.278181
0.290722
0.287214
0.286323
0.196456
0.00829898
2.29984e-06
6.26396e-11
1.94201e-13
9.23638e-20
1.43814e-21
1.79238e-18
2.17325e-16
2.55038e-14
5.65074e-14
6.85487e-07
0.024444
0.42396
0.241429
0.258727
0.261339
0.26407
0.250283
0.260662
0.226984
0.0027763
1.37805e-07
8.85642e-11
4.03729e-13
1.10946e-20
2.70375e-22
2.97375e-18
4.41786e-16
2.82679e-14
7.89793e-14
6.69267e-10
0.00313245
0.422823
0.38613
0.229471
0.319157
0.254756
0.23788
0.255407
0.202311
0.000325333
2.69514e-09
2.95469e-12
6.60597e-15
5.40794e-21
1.95968e-22
2.91596e-18
4.00003e-16
2.29157e-14
7.03305e-14
8.17918e-10
0.00160372
0.373195
0.396034
0.309276
0.238009
0.275929
0.251956
0.28596
0.127883
0.00011508
1.77288e-09
6.89298e-13
7.28926e-16
2.07795e-21
9.50975e-23
3.50119e-19
6.4721e-17
7.7947e-15
3.1359e-14
1.84001e-10
0.000106421
0.146803
0.186385
0.023752
0.00130088
0.00742754
0.0164857
0.129861
0.00776703
1.50542e-06
1.25665e-10
8.48828e-15
1.89163e-17
5.92428e-22
2.55535e-23
2.54604e-20
2.733e-18
7.66832e-16
5.3617e-15
7.37059e-11
8.23405e-08
0.000244608
0.000222515
3.06027e-06
4.89105e-09
3.33562e-07
1.63209e-06
0.000254753
1.4018e-05
8.54464e-09
3.30824e-11
1.27672e-15
3.03759e-19
4.16395e-22
3.79923e-24
0
0
0
0
0
0
0
0
0
0
0
0
0
0
0
0
0
0
0
0
0
0
0
0
0
0
0
0
0
0
0
0
0
0
0
0
0
0
0
0
0
0
0
0
0
0
0
0
0
0
0
0
0
0
0
0
0
0
0
0
0
0
0
0
0
0
0
0
0
0
0
0
0
0
0
0
0
0
0
0
0
0
0
0
0
0
0
0
0
0
0
0
0
0
0
0
0
0
0
0
0
0
0
0
0
0
0
0
0
0
0
0
0
0
0
0
0
0
0
0
0
0
0
0
0
0
0
0
0
0
0
0
0
0
0
0
0
0
0
0
0
0
0
0
0
0
0
0
0
0
0
0
0
0
0
0
0
0
0
0
0
0
0
0
0
0
0
0
0
0
0
0
0
0
0
0
0
0
0
0
0
0
0
0
0
0
0
0
0
0
0
0
0
0
0
0
0
0
0
0
0
0
0
0
0
0
0
0
0
0
0
0
0
0
0
0
0
0
0
0
0
0
0
0
0
0
0
0
0
0
0
0
0
0
0
0
0
0
0
0
0.00567546
0.00767822
0.0103358
0.0101289
0.029669
0.0782629
0.316288
0.225501
0.344724
0.309435
0.318983
0.436174
0.351231
0.222514
0.09621
0.010978
0.00578134
0.0044482
0.00391403
0.00406538
1.26487e-07
4.35444e-07
6.73612e-07
8.14101e-07
0.0167131
0.0914498
0.455034
0.163503
0.35975
0.323948
0.273991
0.433915
0.426332
0.41915
0.306828
2.18814e-05
1.23013e-07
7.06962e-08
4.11627e-08
4.2535e-08
1.3054e-18
6.81713e-17
1.7436e-14
2.15038e-14
0.00015784
0.01736
0.271881
0.240274
0.278036
0.278768
0.290903
0.289076
0.287744
0.196601
0.00853886
2.69653e-06
4.62186e-11
9.63333e-14
8.3706e-20
1.56535e-21
1.42049e-18
1.47283e-16
2.0982e-14
2.71201e-14
7.95173e-07
0.0260189
0.424996
0.238991
0.259563
0.260261
0.265178
0.250817
0.260852
0.230926
0.00301549
1.54208e-07
7.65216e-11
2.17704e-13
9.00506e-21
1.90724e-22
2.32007e-18
3.17667e-16
2.33073e-14
3.91091e-14
1.09871e-09
0.00313746
0.423931
0.387208
0.227478
0.322792
0.257733
0.238009
0.254894
0.207233
0.000327752
2.99276e-09
1.03688e-12
8.63714e-16
4.17669e-21
1.41605e-22
2.23806e-18
3.03446e-16
1.86315e-14
3.6473e-14
1.50589e-09
0.00156655
0.377206
0.398517
0.316726
0.247139
0.283655
0.259842
0.291308
0.134609
0.000118997
2.04106e-09
2.88774e-13
9.5041e-17
1.67577e-21
6.69166e-23
2.67128e-19
5.00046e-17
6.30688e-15
1.68675e-14
2.20108e-10
9.34115e-05
0.154111
0.194582
0.0256635
0.00140956
0.00803498
0.0177965
0.137344
0.00839366
1.55677e-06
1.42268e-10
8.09825e-15
3.4678e-18
4.33502e-22
1.63484e-23
2.07838e-20
2.12285e-18
6.16169e-16
2.88764e-15
7.73084e-11
8.32181e-08
0.000263508
0.00023981
3.14239e-06
7.0652e-09
3.52649e-07
1.75079e-06
0.000274143
1.51413e-05
9.27308e-09
3.84457e-11
1.07035e-14
1.08746e-19
2.24697e-22
2.15712e-24
0
0
0
0
0
0
0
0
0
0
0
0
0
0
0
0
0
0
0
0
0
0
0
0
0
0
0
0
0
0
0
0
0
0
0
0
0
0
0
0
0
0
0
0
0
0
0
0
0
0
0
0
0
0
0
0
0
0
0
0
0
0
0
0
0
0
0
0
0
0
0
0
0
0
0
0
0
0
0
0
0
0
0
0
0
0
0
0
0
0
0
0
0
0
0
0
0
0
0
0
0
0
0
0
0
0
0
0
0
0
0
0
0
0
0
0
0
0
0
0
0
0
0
0
0
0
0
0
0
0
0
0
0
0
0
0
0
0
0
0
0
0
0
0
0
0
0
0
0
0
0
0
0
0
0
0
0
0
0
0
0
0
0
0
0
0
0
0
0
0
0
0
0
0
0
0
0
0
0
0
0
0
0
0
0
0
0
0
0
0
0
0
0
0
0
0
0
0
0
0
0
0
0
0
0
0
0
0
0
0
0
0
0
0
0
0
0
0
0
0
0
0
0
0
0
0
0
0
0
0
0
0
0
0
0
0
0
0
0
0
0.00569357
0.00767178
0.0101862
0.0100784
0.0302221
0.0791944
0.316792
0.225343
0.345506
0.311116
0.319907
0.437345
0.352298
0.224319
0.0979801
0.0110435
0.00576998
0.00443162
0.00385663
0.00402592
1.34242e-07
4.59695e-07
6.71655e-07
8.67453e-07
0.0198505
0.0933483
0.459393
0.162293
0.36087
0.327653
0.273741
0.437007
0.429899
0.423653
0.314338
2.89661e-05
1.26031e-07
7.54134e-08
4.19631e-08
4.18181e-08
1.029e-18
4.40336e-17
1.36934e-14
2.29822e-14
0.000193375
0.0171948
0.268269
0.240241
0.278378
0.279406
0.291022
0.290874
0.289126
0.196635
0.00868609
3.14169e-06
6.56205e-12
6.92106e-15
7.45352e-20
1.72723e-21
1.04091e-18
9.53016e-17
1.6262e-14
1.17855e-14
9.07107e-07
0.0276301
0.426011
0.236657
0.260396
0.259099
0.266109
0.251298
0.261023
0.234837
0.00326309
1.69943e-07
1.63653e-11
2.06597e-14
7.16567e-21
1.35715e-22
1.66829e-18
2.15695e-16
1.82222e-14
1.70584e-14
1.82284e-09
0.00311916
0.424998
0.388242
0.225469
0.326292
0.260628
0.237984
0.254339
0.212004
0.000329271
3.29448e-09
2.64847e-13
5.67577e-17
3.14343e-21
1.0195e-22
1.6528e-18
2.19175e-16
1.45826e-14
1.66957e-14
2.69881e-09
0.00152197
0.380825
0.400689
0.323807
0.255963
0.291141
0.267491
0.296386
0.14126
0.000120535
2.34538e-09
8.98007e-14
6.00008e-18
1.26745e-21
4.55674e-23
2.00943e-19
3.72825e-17
4.97306e-15
8.12527e-15
2.57432e-10
7.60682e-05
0.161324
0.202593
0.0276417
0.0015227
0.00866662
0.0191515
0.14477
0.00904377
1.58713e-06
1.58141e-10
1.16154e-14
4.40548e-19
2.87013e-22
9.77123e-24
1.61575e-20
1.60561e-18
4.84951e-16
1.40371e-15
7.52399e-11
8.62745e-08
0.000283044
0.000257611
3.20729e-06
8.85464e-09
3.69166e-07
1.85656e-06
0.000293998
1.62972e-05
1.00157e-08
4.23859e-11
2.02797e-14
3.42887e-20
9.7068e-23
1.10022e-24
0
0
0
0
0
0
0
0
0
0
0
0
0
0
0
0
0
0
0
0
0
0
0
0
0
0
0
0
0
0
0
0
0
0
0
0
0
0
0
0
0
0
0
0
0
0
0
0
0
0
0
0
0
0
0
0
0
0
0
0
0
0
0
0
0
0
0
0
0
0
0
0
0
0
0
0
0
0
0
0
0
0
0
0
0
0
0
0
0
0
0
0
0
0
0
0
0
0
0
0
0
0
0
0
0
0
0
0
0
0
0
0
0
0
0
0
0
0
0
0
0
0
0
0
0
0
0
0
0
0
0
0
0
0
0
0
0
0
0
0
0
0
0
0
0
0
0
0
0
0
0
0
0
0
0
0
0
0
0
0
0
0
0
0
0
0
0
0
0
0
0
0
0
0
0
0
0
0
0
0
0
0
0
0
0
0
0
0
0
0
0
0
0
0
0
0
0
0
0
0
0
0
0
0
0
0
0
0
0
0
0
0
0
0
0
0
0
0
0
0
0
0
0
0
0
0
0
0
0
0
0
0
0
0
0
0
0
0
0
0
0.00571777
0.00767095
0.0100387
0.0100269
0.0306693
0.0801874
0.317123
0.225156
0.346137
0.312764
0.320804
0.4386
0.353416
0.226186
0.0996568
0.0111134
0.00576309
0.00442262
0.00379888
0.00399283
1.39118e-07
4.75365e-07
6.68475e-07
9.20699e-07
0.0233792
0.095136
0.463785
0.161187
0.361919
0.331318
0.273501
0.439899
0.433317
0.42795
0.321498
3.76788e-05
1.2727e-07
7.81441e-08
4.27575e-08
4.08778e-08
8.24647e-19
2.82841e-17
1.02576e-14
3.34302e-14
0.000234438
0.0169444
0.264746
0.240235
0.278649
0.280083
0.291084
0.292601
0.290463
0.196433
0.00876339
3.65877e-06
3.13597e-13
9.91757e-17
6.61169e-20
1.89009e-21
7.29098e-19
5.92631e-17
1.19155e-14
4.74521e-15
1.00432e-06
0.0292658
0.427012
0.234411
0.261247
0.257876
0.26688
0.251734
0.261179
0.238708
0.00352045
1.92582e-07
1.21675e-12
2.83909e-16
5.59621e-21
9.84266e-23
1.12546e-18
1.39121e-16
1.35156e-14
6.587e-15
2.95503e-09
0.00306109
0.426026
0.389246
0.223718
0.329674
0.26345
0.237509
0.25363
0.216633
0.00033038
3.58679e-09
5.1393e-14
1.04664e-18
2.31107e-21
7.17855e-23
1.17594e-18
1.51084e-16
1.09759e-14
6.73623e-15
4.525e-09
0.00146487
0.384101
0.402596
0.330545
0.264505
0.298406
0.274926
0.301221
0.147826
0.000120574
2.68606e-09
2.37915e-14
1.27541e-19
9.19871e-22
2.93319e-23
1.5625e-19
2.69162e-17
3.81317e-15
3.49505e-15
2.95e-10
6.03251e-05
0.168442
0.210429
0.0296859
0.00164031
0.00932266
0.0205495
0.15213
0.00971762
1.60049e-06
1.73178e-10
1.2231e-14
3.92558e-20
1.80616e-22
5.39609e-24
1.19139e-20
1.18489e-18
3.73046e-16
6.13355e-16
6.91104e-11
8.92002e-08
0.000303348
0.00027603
3.25459e-06
1.09285e-08
3.80876e-07
1.93648e-06
0.000314453
1.74829e-05
1.07754e-08
4.27279e-11
1.89165e-14
9.49867e-21
3.6727e-23
5.23342e-25
0
0
0
0
0
0
0
0
0
0
0
0
0
0
0
0
0
0
0
0
0
0
0
0
0
0
0
0
0
0
0
0
0
0
0
0
0
0
0
0
0
0
0
0
0
0
0
0
0
0
0
0
0
0
0
0
0
0
0
0
0
0
0
0
0
0
0
0
0
0
0
0
0
0
0
0
0
0
0
0
0
0
0
0
0
0
0
0
0
0
0
0
0
0
0
0
0
0
0
0
0
0
0
0
0
0
0
0
0
0
0
0
0
0
0
0
0
0
0
0
0
0
0
0
0
0
0
0
0
0
0
0
0
0
0
0
0
0
0
0
0
0
0
0
0
0
0
0
0
0
0
0
0
0
0
0
0
0
0
0
0
0
0
0
0
0
0
0
0
0
0
0
0
0
0
0
0
0
0
0
0
0
0
0
0
0
0
0
0
0
0
0
0
0
0
0
0
0
0
0
0
0
0
0
0
0
0
0
0
0
0
0
0
0
0
0
0
0
0
0
0
0
0
0
0
0
0
0
0
0
0
0
0
0
0
0
0
0
0
0
0.00574863
0.00767764
0.00989111
0.00997425
0.0310186
0.0812741
0.317297
0.224994
0.346701
0.314543
0.321779
0.439845
0.35461
0.228144
0.101336
0.011188
0.00576068
0.00442259
0.00374379
0.00396728
1.40995e-07
4.78999e-07
6.61765e-07
9.7222e-07
0.0271296
0.0968164
0.468212
0.160205
0.36289
0.334923
0.273273
0.442643
0.436585
0.432041
0.328309
4.76023e-05
1.26757e-07
7.85857e-08
4.32638e-08
3.97998e-08
6.91258e-19
1.85977e-17
7.36326e-15
5.53059e-14
0.000280298
0.0166269
0.261361
0.240269
0.278852
0.280783
0.291102
0.294238
0.291739
0.195901
0.00879015
4.2837e-06
5.08814e-14
2.70494e-17
5.85792e-20
2.05324e-21
5.06019e-19
3.58296e-17
8.28849e-15
1.86793e-15
1.08372e-06
0.0309018
0.427996
0.232271
0.262109
0.256614
0.267451
0.252135
0.26132
0.242528
0.00378236
2.38119e-07
5.28745e-14
1.50748e-18
4.21295e-21
7.25004e-23
7.28526e-19
8.58364e-17
9.52959e-15
2.30569e-15
4.56975e-09
0.00300542
0.427016
0.390238
0.22246
0.332949
0.266223
0.236986
0.252778
0.221112
0.000330169
3.86147e-09
7.63034e-15
8.93409e-21
1.6203e-21
4.64842e-23
8.05127e-19
9.95684e-17
7.93776e-15
2.41446e-15
6.86605e-09
0.00139332
0.387039
0.404245
0.336887
0.272703
0.305394
0.282095
0.305812
0.154257
0.000115406
3.06115e-09
4.77185e-15
2.18934e-21
6.39572e-22
1.69201e-23
1.28711e-19
1.88488e-17
2.83734e-15
1.34848e-15
3.3183e-10
4.97632e-05
0.175405
0.218029
0.031778
0.00176149
0.00999859
0.0219791
0.159359
0.0104104
1.60219e-06
1.88096e-10
3.59595e-15
3.24393e-21
1.08759e-22
2.76649e-24
8.38844e-21
8.54333e-19
2.79905e-16
2.41651e-16
6.12821e-11
9.15551e-08
0.000324557
0.000295181
3.25585e-06
1.21226e-08
3.83827e-07
1.96292e-06
0.00033562
1.86818e-05
1.15559e-08
4.07889e-11
4.62493e-15
2.30401e-21
1.27928e-23
2.33458e-25
0
0
0
0
0
0
0
0
0
0
0
0
0
0
0
0
0
0
0
0
0
0
0
0
0
0
0
0
0
0
0
0
0
0
0
0
0
0
0
0
0
0
0
0
0
0
0
0
0
0
0
0
0
0
0
0
0
0
0
0
0
0
0
0
0
0
0
0
0
0
0
0
0
0
0
0
0
0
0
0
0
0
0
0
0
0
0
0
0
0
0
0
0
0
0
0
0
0
0
0
0
0
0
0
0
0
0
0
0
0
0
0
0
0
0
0
0
0
0
0
0
0
0
0
0
0
0
0
0
0
0
0
0
0
0
0
0
0
0
0
0
0
0
0
0
0
0
0
0
0
0
0
0
0
0
0
0
0
0
0
0
0
0
0
0
0
0
0
0
0
0
0
0
0
0
0
0
0
0
0
0
0
0
0
0
0
0
0
0
0
0
0
0
0
0
0
0
0
0
0
0
0
0
0
0
0
0
0
0
0
0
0
0
0
0
0
0
0
0
0
0
0
0
0
0
0
0
0
0
0
0
0
0
0
0
0
0
0
0
0
0.0057863
0.00769133
0.0097441
0.00992087
0.0313674
0.0824784
0.317178
0.22486
0.347105
0.316389
0.322758
0.441043
0.355863
0.23014
0.102971
0.0112683
0.00576403
0.00443296
0.00369404
0.0039495
1.40165e-07
4.71979e-07
6.49596e-07
1.04688e-06
0.0307758
0.0983952
0.47273
0.159338
0.363791
0.338452
0.273062
0.445262
0.439717
0.435959
0.334814
5.82431e-05
1.24115e-07
7.58931e-08
4.22574e-08
3.85422e-08
6.15852e-19
1.29702e-17
5.08783e-15
9.48711e-14
0.000328827
0.0162412
0.258116
0.240324
0.278993
0.281492
0.291106
0.295776
0.292946
0.195326
0.00879025
5.08655e-06
4.68106e-14
3.15132e-17
5.45215e-20
2.25974e-21
3.63672e-19