/*--------------------------------*- C++ -*----------------------------------*\
| =========                 |                                                 |
| \\      /  F ield         | OpenFOAM: The Open Source CFD Toolbox           |
|  \\    /   O peration     | Version:  2.3.0                                 |
|   \\  /    A nd           | Web:      www.OpenFOAM.org                      |
|    \\/     M anipulation  |                                                 |
\*---------------------------------------------------------------------------*/
FoamFile
{
    version     2.0;
    format      ascii;
    class       volScalarField;
    location    "1.59997";
    object      k.water;
}
// * * * * * * * * * * * * * * * * * * * * * * * * * * * * * * * * * * * * * //

dimensions      [0 2 -2 0 0 0 0];

internalField   nonuniform List<scalar> 
10000
(
0.0799529
0.0441171
0.0319702
0.0293896
0.0176905
0.00842248
0.00360302
0.000847922
0.000179357
0.000189155
0.000236704
0.000648808
0.00212836
0.00563951
0.0125088
0.0273683
0.0648658
0.0793842
0.0914498
0.13284
0.0750626
0.0329832
0.0455505
0.0114865
0.00423754
0.000432813
4.49847e-05
4.68619e-05
7.81042e-05
8.10782e-05
7.60038e-05
0.000128671
0.000129675
0.000177456
0.000285741
0.0031753
0.0459912
0.0238944
0.0814158
0.175707
0.245397
0.142033
0.0148075
0.0134369
0.00409248
0.000415854
6.64681e-05
8.56797e-05
0.000119891
0.000106854
0.000103675
0.000113291
0.000111171
0.000141066
0.000215055
0.00306758
0.164564
0.0310602
0.316223
0.43584
0.783615
0.507072
0.00201245
0.00166232
0.00500572
0.000196614
4.78386e-05
5.00771e-05
5.90871e-05
6.0454e-05
5.87894e-05
6.73942e-05
7.02648e-05
6.21743e-05
5.93182e-05
0.00338689
0.168196
0.0572971
1.10699
1.43245
0.57695
0.454266
0.00159092
0.00248417
0.00556488
0.000211953
5.19732e-05
5.29654e-05
6.27351e-05
6.17706e-05
5.82869e-05
6.70026e-05
6.88002e-05
6.33293e-05
6.97289e-05
0.00400855
0.0520919
0.155022
1.19247
1.3737
0.161173
0.163313
0.0018114
0.00603966
0.00618842
0.000232408
5.26774e-05
5.32268e-05
6.20569e-05
6.02914e-05
5.47119e-05
6.07289e-05
6.13384e-05
5.70362e-05
9.7137e-05
0.00463515
0.0803279
0.540765
1.1909
1.1095
0.213236
0.0298495
0.00833604
0.0150185
0.00767263
0.000441766
7.56876e-05
8.51365e-05
0.000100908
8.73885e-05
6.574e-05
7.26109e-05
7.51826e-05
6.44828e-05
0.000133248
0.00662587
0.300229
0.535981
0.634196
1.11391
0.0454764
0.0214866
0.0391603
0.0211238
0.00980306
0.00135282
0.000343816
0.00040319
0.000547857
0.00042609
0.000250776
0.000266969
0.000256408
0.000195939
0.000317127
0.00727252
0.302526
0.690418
0.122241
1.358
0.0246559
0.105861
0.1351
0.0824676
0.0211939
0.00420935
0.00250329
0.00256997
0.00313323
0.00264669
0.00172156
0.00183268
0.00175438
0.00140874
0.00176275
0.00594183
0.347795
0.809094
0.252162
1.47846
0.0617103
0.222325
0.0693404
0.0870771
0.00715005
0.00639185
0.00801697
0.00633885
0.0080824
0.00801073
0.00630308
0.00813288
0.00822308
0.0082773
0.00871608
0.00352702
0.392339
0.754843
0.276853
1.52187
0.292422
0.156591
0.0748147
0.0838638
0.0116494
0.0104391
0.0112182
0.0104586
0.0108625
0.0105071
0.0096699
0.0105905
0.0106913
0.0108793
0.0101119
0.00609017
0.372226
0.660735
1.05159
0.0751972
0.0514577
0.0691715
0.105058
0.0734284
0.0106964
0.0105416
0.0124233
0.01095
0.0121161
0.0119034
0.0101297
0.011218
0.01156
0.0116026
0.0109061
0.00814266
0.356528
0.639874
0.0974614
0.0619863
0.00696713
0.0286598
0.0401769
0.0692815
0.0115388
0.0107562
0.0135414
0.0112351
0.0136176
0.0133837
0.0104301
0.0130533
0.0133028
0.0134573
0.0112568
0.0143372
0.277639
0.200156
0.0793136
0.203417
0.00195277
0.0569317
0.0288891
0.0668928
0.0128091
0.0112242
0.0142114
0.0116952
0.0142102
0.0138791
0.0107179
0.0121706
0.0137469
0.0138944
0.0154835
0.0369382
0.0495969
0.0393342
0.30432
0.655661
0.00148695
0.228684
0.0242195
0.0644308
0.0145684
0.0116038
0.0144613
0.0120918
0.0144309
0.0140849
0.0108834
0.0122315
0.0136378
0.0138583
0.0161615
0.0395581
0.0579532
0.0357587
1.07994
0.156685
0.00137359
0.219408
0.0153528
0.0646009
0.0173696
0.0125943
0.0149231
0.0124711
0.0147246
0.0143302
0.0110997
0.0125116
0.0118665
0.0121825
0.0153867
0.0474806
0.0574101
0.199189
1.10312
0.0924191
0.000928593
0.0748279
0.00675529
0.0589013
0.0190599
0.0135019
0.015173
0.0127337
0.014788
0.0143611
0.0112501
0.0131289
0.0115255
0.011994
0.0161634
0.0499822
0.0416028
0.25384
1.13351
0.115088
0.000765984
0.0260625
0.0244488
0.0402487
0.0193885
0.0145817
0.0149517
0.0128594
0.0141927
0.0136896
0.011231
0.0127563
0.0114182
0.0133799
0.0163063
0.04866
0.0144691
0.0214004
0.853293
0.0422394
0.00135863
0.0677545
0.0134812
0.0237278
0.0180558
0.0147481
0.0131741
0.0127001
0.0119898
0.0113612
0.0108077
0.0101215
0.00879481
0.00972433
0.0144908
0.0433173
0.00183132
0.00201036
0.324428
0.0292446
0.00136809
0.00817708
6.06085e-05
0.00694727
0.0146993
0.0131199
0.0135551
0.0134107
0.012213
0.0112485
0.0102064
0.00828357
0.00656284
0.00596571
0.00206475
0.012033
0.000121184
8.63076e-05
0.0464671
0.00638202
0.0806497
0.0457249
0.0322446
0.0302222
0.0178584
0.00843546
0.00352985
0.000792759
0.000168285
0.000177183
0.000226638
0.000624536
0.00214106
0.00568243
0.012707
0.0279285
0.0657408
0.0813449
0.0919853
0.132476
0.0723408
0.0313071
0.0282333
0.0119613
0.00418507
0.000406485
3.87426e-05
4.37767e-05
7.21975e-05
7.57719e-05
7.13686e-05
0.000123483
0.000124289
0.000171995
0.0002728
0.00322092
0.0393764
0.0247237
0.078255
0.168611
0.218496
0.11784
0.0187806
0.0182005
0.00409099
0.000431961
6.64072e-05
8.54262e-05
0.000119522
0.000106916
0.000103449
0.000113386
0.000110494
0.000141853
0.000221313
0.00308264
0.108053
0.0319577
0.282474
0.385873
0.516524
0.329031
0.00833235
0.00813395
0.00503808
0.000178425
4.67233e-05
4.91541e-05
5.74394e-05
5.8673e-05
5.72205e-05
6.51209e-05
6.78788e-05
6.00826e-05
5.64956e-05
0.00335656
0.108601
0.0541706
0.752178
0.920318
0.349067
0.313172
0.00253962
0.00800347
0.00555485
0.000187349
5.10218e-05
5.21457e-05
6.14409e-05
6.04716e-05
5.72427e-05
6.53926e-05
6.71755e-05
6.2004e-05
7.05891e-05
0.00409784
0.0502666
0.129635
0.775188
0.831864
0.153535
0.151282
0.0028192
0.00943635
0.00614571
0.000194131
5.12171e-05
5.16086e-05
5.97752e-05
5.81842e-05
5.33769e-05
5.88854e-05
5.9306e-05
5.57414e-05
9.74444e-05
0.00474309
0.0674134
0.363351
0.664629
0.611954
0.200173
0.0286933
0.0106421
0.0151739
0.00758828
0.000354192
6.9309e-05
7.6288e-05
8.79463e-05
7.77847e-05
6.09191e-05
6.68083e-05
6.88734e-05
6.0625e-05
0.000118414
0.00662147
0.200019
0.381022
0.265493
0.665057
0.0431021
0.0185765
0.0337225
0.0191085
0.00951083
0.00117107
0.000297093
0.000349293
0.000470647
0.000367648
0.000220223
0.000232186
0.000220234
0.000170407
0.000269601
0.00761018
0.215546
0.480587
0.102489
0.937395
0.0254945
0.0447671
0.0914382
0.0536993
0.0160146
0.00406716
0.00238333
0.00247022
0.0030164
0.00253457
0.00163985
0.00172168
0.0016228
0.0012658
0.00152902
0.00690393
0.242346
0.56161
0.0960322
0.994405
0.0471852
0.125931
0.0611775
0.0639842
0.00793374
0.00675817
0.00822788
0.00673916
0.00818755
0.00808902
0.00668906
0.00826037
0.00837527
0.00843974
0.00870468
0.0052153
0.265847
0.535048
0.206433
0.880521
0.131009
0.104805
0.0613201
0.0656957
0.0116271
0.0102214
0.0110974
0.0103177
0.0106904
0.0102719
0.00938888
0.0103796
0.0105252
0.0107017
0.0102266
0.00718118
0.253271
0.469317
0.534518
0.0704771
0.0504085
0.0629235
0.0771745
0.0611637
0.0109214
0.0104233
0.0124692
0.0109137
0.0121679
0.0119602
0.00999769
0.0112729
0.0116082
0.0116543
0.0110244
0.00943204
0.229107
0.438307
0.0796118
0.0619574
0.00709862
0.0275383
0.039742
0.0587696
0.0114943
0.010665
0.0133424
0.0112395
0.013438
0.0131569
0.0103526
0.0127228
0.0130273
0.0131164
0.0113649
0.0152452
0.136464
0.18537
0.0737368
0.16816
0.00180627
0.0427879
0.0287468
0.0578761
0.012831
0.0111686
0.014028
0.0117281
0.0140514
0.0136807
0.0106723
0.0118283
0.013481
0.0135588
0.0149426
0.037035
0.0503394
0.0369228
0.259317
0.414526
0.00113392
0.134108
0.0238304
0.056217
0.014731
0.0115923
0.014324
0.0121477
0.0143217
0.0139396
0.0108587
0.0118613
0.0134107
0.0135771
0.0156151
0.0397333
0.0586568
0.0278022
0.715211
0.16009
0.00107091
0.136439
0.0148754
0.0557785
0.0176374
0.0126534
0.0148114
0.0125438
0.0146384
0.0142097
0.0110923
0.0121334
0.0119027
0.0122233
0.0154325
0.0460096
0.0582547
0.0646835
0.736645
0.0991537
0.000989352
0.0694349
0.00493688
0.0515758
0.0193901
0.0136234
0.0150822
0.0128185
0.0147144
0.014253
0.0112597
0.0127967
0.0115748
0.0120428
0.0162089
0.049012
0.0434523
0.113307
0.729321
0.102126
0.00102771
0.0207908
0.00464118
0.0362747
0.0197037
0.0147451
0.0149008
0.0129522
0.0141395
0.0136024
0.0112533
0.0124699
0.0113929
0.0129468
0.016358
0.0481628
0.0186637
0.0183695
0.499139
0.041701
0.00184504
0.0205128
0.00474771
0.0213741
0.0183042
0.0149073
0.0132974
0.0127991
0.0120793
0.0114251
0.0108225
0.0100573
0.00889013
0.00981692
0.0146775
0.0433258
0.0041539
0.00155847
0.158408
0.0140316
0.00189094
0.000954189
8.96873e-05
0.00544659
0.0148944
0.0132632
0.0135985
0.0134409
0.0122444
0.0112824
0.0102441
0.00835094
0.00672785
0.00619244
0.0030823
0.0125183
0.000170041
8.05071e-05
0.0128894
0.00231894
0.0802515
0.0464018
0.0325257
0.030663
0.0178245
0.00836967
0.00341872
0.000764596
0.000164255
0.000172076
0.000222268
0.000615268
0.00213383
0.00568254
0.0127847
0.0281659
0.0659893
0.0818619
0.0910747
0.129434
0.0684081
0.0294532
0.0202864
0.0120896
0.00404206
0.000394334
3.60811e-05
4.27679e-05
6.94229e-05
7.28676e-05
6.88673e-05
0.000118998
0.00012018
0.000169072
0.000266272
0.00317645
0.032901
0.0257668
0.0736923
0.157668
0.186575
0.0909645
0.0203863
0.0188387
0.00405762
0.000436266
6.57279e-05
8.29988e-05
0.00011624
0.000103915
0.000100383
0.000109469
0.000106006
0.000137594
0.000222141
0.00304769
0.075755
0.0331493
0.240464
0.32698
0.347825
0.218874
0.0131678
0.012162
0.00505331
0.000171876
4.61078e-05
4.81684e-05
5.57213e-05
5.6729e-05
5.5462e-05
6.25957e-05
6.50907e-05
5.79516e-05
5.55573e-05
0.00327122
0.0772527
0.0514308
0.519945
0.600911
0.223569
0.222169
0.00453994
0.0114933
0.00552591
0.000177694
5.02525e-05
5.12249e-05
5.97624e-05
5.89337e-05
5.57811e-05
6.3207e-05
6.48717e-05
6.01749e-05
7.11197e-05
0.00411557
0.0475747
0.103426
0.514734
0.491466
0.14061
0.130187
0.00359506
0.0120138
0.00606126
0.000179933
5.04441e-05
5.07711e-05
5.85627e-05
5.68293e-05
5.23114e-05
5.737e-05
5.77204e-05
5.44061e-05
9.52838e-05
0.00477577
0.055851
0.251978
0.34769
0.326261
0.176991
0.0273222
0.0127861
0.0154539
0.00743505
0.000316851
6.68314e-05
7.28746e-05
8.29908e-05
7.40393e-05
5.89585e-05
6.44027e-05
6.627e-05
5.89952e-05
0.0001118
0.00643442
0.137801
0.28042
0.111418
0.41326
0.0393838
0.0169915
0.0287801
0.0184253
0.00918972
0.00104153
0.000277494
0.000326049
0.000436011
0.000342156
0.000207574
0.000217503
0.000205136
0.000160355
0.000251174
0.00773125
0.158204
0.34482
0.0784103
0.65732
0.0268661
0.0264146
0.0613432
0.0371456
0.0130022
0.0038314
0.00223432
0.00233411
0.0028477
0.0023815
0.00155603
0.00160035
0.0014837
0.00114733
0.00135273
0.00787091
0.173581
0.39945
0.0646545
0.683802
0.0412948
0.0706118
0.0541711
0.0501576
0.00868247
0.00717943
0.00850407
0.00715212
0.00840274
0.0083066
0.00713027
0.0085076
0.00862767
0.00869843
0.0088901
0.00634263
0.184884
0.387223
0.130921
0.514064
0.0674248
0.0742385
0.0530833
0.053851
0.0118944
0.0101839
0.0110785
0.0102928
0.0106462
0.0102082
0.00931615
0.01032
0.0104828
0.0106533
0.0104254
0.00849958
0.175542
0.341306
0.256572
0.065761
0.0468463
0.0537149
0.0595081
0.0529045
0.0113272
0.0104328
0.0125546
0.0109416
0.0122643
0.0120668
0.00998479
0.0113754
0.0116976
0.0117504
0.0112342
0.0108765
0.147939
0.310045
0.0556681
0.0632252
0.00721119
0.0262092
0.0390875
0.0519114
0.011789
0.0106871
0.0132463
0.0112876
0.0133505
0.0130408
0.0103592
0.0125478
0.0128759
0.0129284
0.0115613
0.0164738
0.0759485
0.158971
0.0672192
0.137357
0.00176664
0.0312199
0.0285322
0.051842
0.013101
0.0112103
0.013941
0.0117906
0.0139745
0.0135783
0.0106924
0.0117453
0.0133349
0.0133712
0.0146351
0.0372365
0.0518247
0.0338472
0.207539
0.257349
0.000954359
0.081123
0.0232775
0.0507944
0.0150217
0.0116635
0.014267
0.0122227
0.0142768
0.0138705
0.0108872
0.0116782
0.0132846
0.013419
0.0152897
0.0400721
0.0599713
0.0230632
0.483674
0.158415
0.000910367
0.0900879
0.014204
0.0500433
0.0179391
0.0127652
0.0147715
0.0126281
0.0146085
0.0141568
0.011129
0.011922
0.0119695
0.0122981
0.0155178
0.0451903
0.0598519
0.0313172
0.502784
0.105376
0.000950321
0.0599994
0.00447139
0.0466612
0.0197119
0.0137712
0.0150586
0.01291
0.0146935
0.0142089
0.0113065
0.0126119
0.0116654
0.0121339
0.0162907
0.0484655
0.0464232
0.0523601
0.475484
0.0914539
0.00121121
0.0171718
0.00201322
0.0338451
0.0200033
0.0149142
0.0149103
0.0130491
0.0141372
0.0135775
0.0113069
0.0123236
0.0113739
0.0127122
0.01645
0.047912
0.0241327
0.0146967
0.283995
0.0415399
0.00234829
0.00699636
0.000885829
0.0201928
0.0185542
0.0150717
0.0134227
0.0128964
0.0121721
0.011502
0.0108645
0.0100715
0.00905752
0.00997727
0.014953
0.0433693
0.00744036
0.00141763
0.0699342
0.0124143
0.00260512
0.00160512
0.000117628
0.00477697
0.0151288
0.0134341
0.0136745
0.0134938
0.0122995
0.0113419
0.0103101
0.00846909
0.00701622
0.00658577
0.00468819
0.0133478
0.000242996
0.000154771
0.000962716
0.00109854
0.0798064
0.0472075
0.0331346
0.0310809
0.0177455
0.00832167
0.00334431
0.000726633
0.000158277
0.000164914
0.000216952
0.000605907
0.00214155
0.00570615
0.0128794
0.028338
0.0663829
0.0824264
0.090259
0.12615
0.0641651
0.028149
0.0177076
0.0120161
0.00385194
0.000374729
3.1309e-05
4.16493e-05
6.58746e-05
6.98513e-05
6.62409e-05
0.000116804
0.000118049
0.00016566
0.000253494
0.00309753
0.0285944
0.0268295
0.0685876
0.145061
0.156372
0.0699007
0.0208836
0.0179704
0.0040238
0.000442822
6.56146e-05
8.22298e-05
0.000115218
0.000103034
9.94536e-05
0.000108312
0.000104539
0.000136373
0.000223236
0.00302699
0.0576279
0.0341989
0.199733
0.270507
0.239482
0.15089
0.0163914
0.0146252
0.00504214
0.000160006
4.54806e-05
4.77139e-05
5.49127e-05
5.58241e-05
5.46561e-05
6.14287e-05
6.38184e-05
5.694e-05
5.45639e-05
0.00319942
0.0604144
0.0495984
0.367669
0.396623
0.157136
0.162148
0.00786832
0.0137904
0.00547033
0.000161644
4.97921e-05
5.0804e-05
5.9022e-05
5.8272e-05
5.51603e-05
6.22633e-05
6.38885e-05
5.93928e-05
7.1364e-05
0.00409787
0.0446707
0.0843917
0.348815
0.27611
0.125127
0.107257
0.00568592
0.0138689
0.00593839
0.000158285
4.95813e-05
4.98548e-05
5.72444e-05
5.57033e-05
5.17144e-05
5.65006e-05
5.6748e-05
5.37712e-05
9.08476e-05
0.00476033
0.048264
0.182525
0.169572
0.171934
0.148503
0.0261175
0.0148426
0.0158341
0.00722667
0.000262781
6.30641e-05
6.76471e-05
7.56734e-05
6.85447e-05
5.61413e-05
6.10238e-05
6.26582e-05
5.67806e-05
9.7506e-05
0.00616406
0.0994335
0.214447
0.0511829
0.279592
0.0358175
0.0165574
0.0256054
0.0185635
0.00890591
0.000914722
0.000249183
0.000292762
0.00038851
0.000306278
0.000188765
0.000196666
0.000184218
0.000146106
0.000224263
0.00775333
0.119601
0.255727
0.0510474
0.470112
0.0282668
0.0197959
0.0452342
0.0296636
0.0115731
0.00354628
0.00207797
0.00219667
0.00265925
0.002218
0.00146684
0.00147531
0.00134088
0.00101465
0.00116357
0.0086836
0.128018
0.291802
0.0439953
0.481913
0.0396214
0.0439005
0.0486076
0.0421951
0.00939561
0.00759432
0.00881066
0.0075296
0.00868291
0.00860979
0.00756496
0.00882659
0.0089373
0.00901237
0.00919842
0.00790883
0.132343
0.286804
0.0699346
0.304404
0.0488381
0.0553651
0.0478021
0.0466337
0.0122992
0.0102554
0.0111235
0.0103398
0.0106847
0.0102539
0.00937256
0.0103576
0.0105206
0.0106877
0.0106525
0.00988361
0.12462
0.255242
0.108758
0.0620661
0.0415747
0.045452
0.0498157
0.0476214
0.0118029
0.0105159
0.0126645
0.0110049
0.0123878
0.0122056
0.0100445
0.0115069
0.0118118
0.0118731
0.0114917
0.0122554
0.0979534
0.226879
0.0377685
0.0660685
0.00748781
0.0248618
0.0382121
0.0476654
0.0122193
0.010773
0.0132277
0.0113566
0.013333
0.0130092
0.0104162
0.0124902
0.0128201
0.012857
0.0118063
0.0175957
0.0575857
0.129169
0.0608034
0.119534
0.00182702
0.0253674
0.0283033
0.0480376
0.0134712
0.0113041
0.0139267
0.0118637
0.01396
0.0135496
0.0107501
0.0118187
0.0132821
0.0132977
0.0144983
0.0375327
0.0538638
0.0301554
0.161311
0.173195
0.000839025
0.0525272
0.0225921
0.0474358
0.0153487
0.0117742
0.0142696
0.0123003
0.01428
0.0138595
0.010945
0.0116302
0.0132378
0.0133565
0.015125
0.0405197
0.0617478
0.0181865
0.334737
0.153278
0.000731358
0.0633236
0.0131908
0.0465389
0.0182252
0.0128937
0.0147841
0.0127095
0.0146202
0.0141548
0.0111885
0.0118373
0.0120543
0.0123919
0.0156208
0.0448728
0.0619466
0.0184799
0.350853
0.109645
0.000827284
0.0486623
0.00414479
0.0436249
0.0199923
0.0139158
0.0150831
0.0129948
0.0147112
0.0142127
0.0113707
0.0125407
0.0117805
0.0122498
0.0163865
0.0482614
0.04994
0.0226869
0.311617
0.0844249
0.00130132
0.0145422
0.00165759
0.0326287
0.0202585
0.0150655
0.0149602
0.0131367
0.0141706
0.0135978
0.0113735
0.0122835
0.0113901
0.0126253
0.0165568
0.0478661
0.0294416
0.00595867
0.148953
0.0392511
0.00277305
0.0068595
0.000584644
0.0199065
0.0187748
0.0152184
0.0135341
0.012981
0.0122558
0.0115778
0.0109179
0.0101312
0.0092507
0.0101586
0.0152401
0.0434523
0.011038
0.00087751
0.0206182
0.0102459
0.00330855
0.00639219
0.000122538
0.00479657
0.0153579
0.0136009
0.0137616
0.0135544
0.0123627
0.0114101
0.0103857
0.00860462
0.00734628
0.00703402
0.00627295
0.0142722
0.000523924
0.000242949
0.000100273
0.000379588
0.0795023
0.0480396
0.033894
0.031513
0.0176824
0.0082767
0.00324732
0.000689005
0.000155216
0.000158571
0.000211394
0.000596848
0.00214219
0.00571466
0.0129585
0.0284886
0.0669405
0.0831222
0.0893556
0.122628
0.0601868
0.02736
0.0171661
0.011899
0.0036424
0.000361815
2.92278e-05
4.11004e-05
6.33493e-05
6.71072e-05
6.38418e-05
0.000113116
0.000114576
0.000162701
0.000244437
0.00295174
0.0263224
0.0278554
0.0634001
0.132311
0.12994
0.0562855
0.0209366
0.016608
0.0039931
0.000445255
6.53406e-05
8.03789e-05
0.000112628
0.00010066
9.7132e-05
0.000105391
0.00010121
0.000132857
0.000222143
0.00298543
0.0469014
0.0349706
0.164387
0.218934
0.170722
0.108488
0.0184508
0.0160658
0.00499485
0.000151256
4.48193e-05
4.68084e-05
5.33048e-05
5.40354e-05
5.30422e-05
5.91201e-05
6.12911e-05
5.49717e-05
5.40056e-05
0.00311149
0.0504683
0.0483237
0.265336
0.260882
0.121428
0.121546
0.0113014
0.0152526
0.00537958
0.000150616
4.8991e-05
4.9926e-05
5.74874e-05
5.68756e-05
5.38584e-05
6.03176e-05
6.18485e-05
5.77538e-05
7.13153e-05
0.00405248
0.0419239
0.0724976
0.239238
0.146124
0.109627
0.0874579
0.00959637
0.0151422
0.00577279
0.000145221
4.87776e-05
4.90046e-05
5.59471e-05
5.43294e-05
5.06642e-05
5.4964e-05
5.51299e-05
5.24902e-05
8.50326e-05
0.00468339
0.0436133
0.138891
0.0818247
0.0987719
0.119979
0.0250962
0.0165527
0.0162665
0.0069585
0.00022978
6.11559e-05
6.50403e-05
7.20352e-05
6.57273e-05
5.45379e-05
5.89783e-05
6.04807e-05
5.53455e-05
8.95629e-05
0.00588801
0.0755815
0.169363
0.0278532
0.206696
0.03355
0.0166128
0.0243177
0.0190434
0.00862668
0.000803715
0.000233293
0.000272706
0.000358153
0.000284317
0.000178259
0.000184474
0.000172324
0.000139025
0.00021082
0.00752874
0.092957
0.195789
0.0291382
0.342139
0.0295024
0.0182023
0.0373308
0.0271187
0.0110555
0.00323688
0.00191893
0.0020643
0.00246307
0.00204933
0.00137332
0.0013454
0.00119437
0.000882944
0.000984033
0.00929497
0.097214
0.218884
0.0278715
0.345938
0.038896
0.031898
0.044086
0.0378711
0.00991719
0.0078909
0.00909316
0.00778531
0.00896201
0.0089206
0.00787732
0.00914453
0.00923875
0.00931612
0.00952941
0.00938637
0.0980302
0.217095
0.0341458
0.182528
0.0430631
0.0436515
0.044059
0.0423285
0.0126391
0.0103485
0.0111814
0.0104013
0.0107457
0.0103298
0.00946261
0.0104237
0.0105802
0.0107457
0.0108249
0.0109382
0.0914887
0.195631
0.0439047
0.0586821
0.0372064
0.0392309
0.0442727
0.0443304
0.0121792
0.0106032
0.0127757
0.0110635
0.0125113
0.0123475
0.0101154
0.0116374
0.0119245
0.0119942
0.0117388
0.0134136
0.0704917
0.170892
0.030184
0.069989
0.00799529
0.0233639
0.0370785
0.0450965
0.0125769
0.0108586
0.0132567
0.0114137
0.0133586
0.0130307
0.0104767
0.0125061
0.012826
0.0128607
0.0120425
0.0184793
0.0533401
0.102678
0.0529733
0.110354
0.00204042
0.0224002
0.0280745
0.045701
0.0137738
0.0113907
0.013957
0.0119197
0.0139838
0.0135673
0.0108058
0.0119497
0.01329
0.0132982
0.0144616
0.0378796
0.0562642
0.0263463
0.124106
0.136727
0.000811182
0.0368171
0.0217874
0.0454218
0.0155964
0.0118676
0.0143069
0.0123563
0.0143111
0.0138839
0.0109974
0.0116586
0.0132434
0.0133564
0.0150559
0.040986
0.063783
0.0127708
0.236016
0.144082
0.000610143
0.0465169
0.0120121
0.0444923
0.018423
0.0129908
0.0148259
0.0127659
0.0146551
0.014183
0.0112397
0.0118331
0.0121376
0.0124824
0.0157058
0.0448796
0.064276
0.00922526
0.248423
0.112284
0.000676472
0.0376901
0.00377711
0.0418661
0.020176
0.0140162
0.0151326
0.0130519
0.0147496
0.0142443
0.011423
0.0125439
0.011894
0.012363
0.016462
0.0482958
0.0535555
0.00701704
0.200996
0.0782884
0.00128919
0.0114143
0.00147671
0.0322304
0.0204221
0.0151651
0.0150267
0.0131949
0.0142207
0.0136418
0.0114257
0.0123095
0.0114424
0.0126303
0.0166405
0.0479628
0.0341792
0.00229875
0.0636689
0.0334598
0.00300903
0.00573147
0.000522534
0.0201841
0.0189193
0.0153144
0.0136073
0.0130353
0.0123114
0.0116311
0.01096
0.0101914
0.00939898
0.0102937
0.0154423
0.0435384
0.0144441
0.00147967
0.00257546
0.00658422
0.00377532
0.00484194
0.000118349
0.00524772
0.015518
0.0137171
0.0138275
0.0136001
0.0124104
0.0114617
0.0104428
0.00870693
0.00759571
0.00737234
0.007433
0.014965
0.00155907
0.00106182
8.60758e-05
0.000142066
0.0792852
0.0488171
0.0346967
0.0319404
0.0176339
0.00822895
0.00315138
0.000653165
0.000151941
0.000152492
0.00020763
0.000592541
0.0021453
0.00571856
0.0130218
0.028606
0.0675514
0.0838861
0.0883576
0.118733
0.0568687
0.0269056
0.0172723
0.0118109
0.00344232
0.000343262
2.64639e-05
4.03132e-05
6.05867e-05
6.47554e-05
6.18415e-05
0.000111361
0.000112923
0.000159804
0.00023124
0.00276713
0.0252586
0.0288399
0.0583206
0.119615
0.107414
0.0478841
0.0208543
0.0156124
0.00395966
0.000447207
6.52514e-05
7.95095e-05
0.000111389
9.95258e-05
9.60448e-05
0.000104013
9.96385e-05
0.000131198
0.000220104
0.00292713
0.0402311
0.0354575
0.135069
0.173936
0.128594
0.0817029
0.0197497
0.0167544
0.00491187
0.000139647
4.43569e-05
4.63784e-05
5.25356e-05
5.31846e-05
5.22716e-05
5.8013e-05
6.00786e-05
5.40271e-05
5.33642e-05
0.00301311
0.0440529
0.0472326
0.195094
0.167309
0.100919
0.0937249
0.0142464
0.0161422
0.00524614
0.000135208
4.85971e-05
4.95067e-05
5.67511e-05
5.61993e-05
5.32377e-05
5.93908e-05
6.08774e-05
5.69712e-05
7.06459e-05
0.00398631
0.0395216
0.0652393
0.16632
0.079833
0.0959848
0.0721508
0.0130947
0.0159736
0.00555692
0.000126829
4.80773e-05
4.82869e-05
5.48623e-05
5.34844e-05
5.01525e-05
5.42119e-05
5.43314e-05
5.18757e-05
7.84192e-05
0.00455958
0.0405303
0.110777
0.0437492
0.0672151
0.0955773
0.0242294
0.0179537
0.0167153
0.00661837
0.000187012
5.80608e-05
6.08174e-05
6.6372e-05
6.13773e-05
5.22829e-05
5.63147e-05
5.76408e-05
5.35524e-05
7.58427e-05
0.00554298
0.0607991
0.137284
0.0174971
0.161377
0.0326709
0.0168481
0.0240618
0.019679
0.00829393
0.000706086
0.000212419
0.000247494
0.00032374
0.000258073
0.00016389
0.000169339
0.000157666
0.000129274
0.000190201
0.00709748
0.0745065
0.154383
0.0173906
0.253117
0.030528
0.0177852
0.0332291
0.0266748
0.0109573
0.00292833
0.00176584
0.00194058
0.00226997
0.00188423
0.0012895
0.00122286
0.0010618
0.000782916
0.000861642
0.00959483
0.0766196
0.168452
0.0182189
0.25042
0.0378012
0.0266128
0.0405931
0.0358157
0.0283448
4.61336e-06
0.00924382
4.61336e-06
0.00912147
0.00910165
4.61336e-06
0.00932315
0.0094049
0.00948099
0.00972717
0.0103998
0.0761337
0.167786
0.019759
0.112788
0.0406097
0.0363409
0.0412446
0.0398269
0.030325
4.61336e-06
4.61336e-06
4.61336e-06
4.61336e-06
4.61336e-06
4.61336e-06
4.61336e-06
4.61336e-06
4.61336e-06
4.61336e-06
0.0302109
0.0710447
0.153145
0.0249045
0.0563386
0.0339048
0.0345498
0.0407796
0.0423838
0.0308481
4.61336e-06
0.0128568
4.61336e-06
0.0125986
0.0124508
4.61336e-06
0.0117277
0.0120017
0.012077
0.0119035
0.0141854
0.0583501
0.131938
0.0266205
0.0740417
0.00882423
0.0216804
0.035868
0.0436183
0.0308733
4.61336e-06
0.0132977
4.61336e-06
0.0133943
0.0130671
4.61336e-06
0.0125466
0.0128535
0.0128917
0.012194
0.0189832
0.0532526
0.081571
0.0444614
0.106105
0.00267103
0.0198345
0.0278059
0.0443439
0.0321994
4.61336e-06
0.0139985
4.61336e-06
0.0140168
0.0135987
4.61336e-06
0.0120522
0.0133193
0.0133251
0.0144445
0.0381826
0.0587725
0.0222054
0.095171
0.120243
0.00106815
0.0274516
0.0208976
0.0442935
0.0341636
4.61336e-06
0.0143489
4.61336e-06
0.0143449
0.0139158
4.61336e-06
0.0117017
0.013269
0.0133793
0.0150088
0.0413434
0.0658602
0.00864571
0.168049
0.13371
0.000561163
0.0346223
0.0108037
0.0434012
0.0410831
4.61336e-06
0.014869
4.61336e-06
0.01469
0.0142159
4.61336e-06
0.0118579
0.0121932
0.0125401
0.0157248
0.0450219
0.0665779
0.00496897
0.176242
0.112482
0.000525104
0.0274714
0.00345652
0.0409684
0.0483507
4.61336e-06
0.0151793
4.61336e-06
0.0147863
0.014279
4.61336e-06
0.0125762
0.0119709
0.0124361
0.0164715
0.0484425
0.0569241
0.00265912
0.121212
0.0708472
0.00116201
0.00748058
0.00137362
0.0323722
0.0531762
4.61336e-06
0.0150818
4.61336e-06
0.0142643
0.0136837
4.61336e-06
0.0123555
0.0114986
0.0126664
0.0166543
0.0481193
0.0382423
0.000724418
0.0200328
0.0243461
0.00299094
0.00410572
0.000497352
0.0208395
0.051907
4.61336e-06
4.61336e-06
4.61336e-06
4.61336e-06
4.61336e-06
4.61336e-06
4.61336e-06
4.61336e-06
4.61336e-06
4.61336e-06
0.106751
0.0173601
0.000355018
0.000191667
0.00281543
0.00394442
0.00335068
0.000111987
0.0059711
0.0446493
1.26583e-05
1.26583e-05
1.26583e-05
1.26583e-05
1.26583e-05
1.26583e-05
1.26583e-05
1.26583e-05
1.26583e-05
1.26583e-05
0.098301
0.00340275
0.000183665
5.02218e-05
0.00012302
0.0790705
0.0495095
0.0354931
0.0323546
0.0175969
0.00817532
0.00304711
0.000612813
0.000150483
0.000145353
0.000202383
0.000588136
0.0021457
0.00571856
0.0130651
0.0286722
0.0681459
0.0846882
0.087212
0.114357
0.0537259
0.0266301
0.0175344
0.0118943
0.00327014
0.000328698
2.51931e-05
3.97122e-05
5.82984e-05
6.22453e-05
5.96913e-05
0.00010858
0.000110187
0.000156946
0.000221319
0.00257652
0.0248562
0.0298134
0.0534531
0.104868
0.090878
0.0425393
0.020755
0.0148589
0.00391778
0.000447577
6.49016e-05
7.76519e-05
0.00010866
9.70054e-05
9.36995e-05
0.000101165
9.66253e-05
0.000127721
0.000215
0.00284656
0.0360447
0.0357194
0.111092
0.139427
0.103637
0.0644409
0.0205141
0.0169739
0.00479304
0.000129534
4.37188e-05
4.55554e-05
5.10801e-05
5.16205e-05
5.08122e-05
5.59556e-05
5.78256e-05
5.22897e-05
5.31201e-05
0.00290761
0.0397322
0.0460978
0.146011
0.104081
0.0884392
0.0744847
0.0165684
0.0166521
0.00506432
0.000124731
4.78275e-05
4.86587e-05
5.53087e-05
5.47727e-05
5.19946e-05
5.7587e-05
5.89743e-05
5.54197e-05
6.84851e-05
0.00390131
0.0375453
0.0600584
0.117967
0.0498877
0.0852291
0.0606893
0.0158615
0.0165008
0.00528232
0.000115247
4.72766e-05
4.74608e-05
5.35653e-05
5.22438e-05
4.91582e-05
5.27994e-05
5.28471e-05
5.06946e-05
7.18315e-05
0.00439608
0.0383387
0.0922246
0.0269544
0.0522752
0.0771422
0.0234958
0.0190884
0.0171597
0.00619781
0.000159027
5.64601e-05
5.87099e-05
6.35389e-05
5.90689e-05
5.0906e-05
5.44907e-05
5.57246e-05
5.22155e-05
6.89161e-05
0.00512486
0.0516376
0.113644
0.0122254
0.128436
0.0327285
0.0171506
0.0241354
0.0203728
0.00785985
0.000557541
0.000177499
0.000203915
0.000263133
0.000212365
0.000138907
0.000142898
0.000133682
0.00011373
0.000165597
0.00648382
0.0620351
0.12491
0.0118886
0.19123
0.0313657
0.0177448
0.0311083
0.0270454
0.0108878
0.00266294
0.00166971
0.00183062
0.00213389
0.00178186
0.00122888
0.00116462
0.00100283
0.000750212
0.000830688
0.00955571
0.0633629
0.13283
0.0132584
0.180403
0.0360663
0.0239641
0.0379419
0.0350432
0.031671
4.61336e-06
4.61336e-06
4.61336e-06
4.61336e-06
4.61336e-06
4.61336e-06
4.61336e-06
4.61336e-06
4.61336e-06
4.61336e-06
0.0427999
0.0630837
0.132272
0.0149136
0.0780495
0.0388194
0.0315146
0.0390556
0.0384512
0.0333926
4.61336e-06
4.61336e-06
4.61336e-06
4.61336e-06
4.61336e-06
4.61336e-06
4.61336e-06
4.61336e-06
4.61336e-06
4.61336e-06
0.050552
0.0597642
0.122023
0.0188775
0.0555478
0.0312301
0.0308582
0.0384027
0.0413049
0.033957
4.61336e-06
4.61336e-06
4.61336e-06
4.61336e-06
4.61336e-06
4.61336e-06
4.61336e-06
4.61336e-06
4.61336e-06
4.61336e-06
0.0648341
0.0544547
0.103929
0.0234394
0.0774155
0.0100116
0.0197258
0.0347278
0.0428398
0.0341237
4.61336e-06
4.61336e-06
4.61336e-06
4.61336e-06
4.61336e-06
4.61336e-06
4.61336e-06
4.61336e-06
4.61336e-06
4.61336e-06
0.0757089
0.0545563
0.0651279
0.0359234
0.103562
0.00414418
0.0169452
0.0274727
0.0436275
0.0352254
4.61336e-06
4.61336e-06
4.61336e-06
4.61336e-06
4.61336e-06
4.61336e-06
4.61336e-06
4.61336e-06
4.61336e-06
4.61336e-06
0.0901517
0.061176
0.0182366
0.0722003
0.111838
0.00229877
0.0205172
0.0199723
0.0437266
0.0371858
4.61336e-06
4.61336e-06
4.61336e-06
4.61336e-06
4.61336e-06
4.61336e-06
4.61336e-06
4.61336e-06
4.61336e-06
4.61336e-06
0.0987455
0.0677981
0.00638345
0.119044
0.123887
0.000778131
0.0250141
0.0096767
0.0428816
0.0435283
4.61336e-06
4.61336e-06
4.61336e-06
4.61336e-06
4.61336e-06
4.61336e-06
4.61336e-06
4.61336e-06
4.61336e-06
4.61336e-06
0.109758
0.0686681
0.0036779
0.12312
0.110073
0.000421794
0.0180538
0.00324427
0.0405437
0.0501029
4.61336e-06
4.61336e-06
4.61336e-06
4.61336e-06
4.61336e-06
4.61336e-06
4.61336e-06
4.61336e-06
4.61336e-06
4.61336e-06
0.121051
0.0598758
0.00196497
0.0649417
0.0607385
0.000937732
0.00443156
0.00134141
0.0327063
0.0542551
4.61336e-06
4.61336e-06
4.61336e-06
4.61336e-06
4.61336e-06
4.61336e-06
4.61336e-06
4.61336e-06
4.61336e-06
4.61336e-06
0.116486
0.0416686
0.000579004
0.00411306
0.0149881
0.00270449
0.00290605
0.000490466
0.0214855
0.0524673
4.61336e-06
4.61336e-06
4.61336e-06
4.61336e-06
4.61336e-06
4.61336e-06
4.61336e-06
4.61336e-06
4.61336e-06
4.61336e-06
0.10146
0.0189087
0.000190037
4.6004e-05
0.000891569
0.00379889
0.00224239
0.000106483