/*--------------------------------*- C++ -*----------------------------------*\
| =========                 |                                                 |
| \\      /  F ield         | OpenFOAM: The Open Source CFD Toolbox           |
|  \\    /   O peration     | Version:  2.3.0                                 |
|   \\  /    A nd           | Web:      www.OpenFOAM.org                      |
|    \\/     M anipulation  |                                                 |
\*---------------------------------------------------------------------------*/
FoamFile
{
    version     2.0;
    format      ascii;
    class       volScalarField;
    location    "1.59997";
    object      rho;
}
// * * * * * * * * * * * * * * * * * * * * * * * * * * * * * * * * * * * * * //

dimensions      [1 -3 0 0 0 0 0];

internalField   nonuniform List<scalar> 
10000
(
1021.52
1019.29
1014.63
1016.52
1005.44
955.684
710.56
796.028
683.433
725.161
707.9
590.447
677.062
815.869
954.354
1016.65
1021.04
1022.52
1022.7
1022.71
1027.11
1027.11
1027.11
1027.11
1025.15
954.358
601.216
845.151
672.65
731.642
743.65
625.753
631.826
655.32
836.349
1027.1
1027.11
1027.11
1027.11
1027.11
1027.11
1027.11
1027.11
1027.11
1027.1
1011.51
712.205
777.413
749.067
746.241
734.518
748.916
745.662
834.894
1022.62
1027.11
1027.11
1027.11
1027.11
1027.11
1027.11
1027.11
1027.11
1027.11
1027.11
1013.94
603.316
753.763
769.834
756.281
774.07
775.305
763.395
829.401
1025.88
1027.11
1027.11
1027.11
1027.11
1027.11
1027.11
1027.11
1027.11
1027.11
1027.11
1024.74
605.572
644.319
786.408
739.414
796.414
793.661
772.271
868.658
1026.92
1027.11
1027.11
1027.11
1027.11
1027.11
1027.11
1027.11
1027.11
1027.11
1027.11
1025.64
697.215
658.628
785.566
869.099
817.884
849.404
794.172
951.791
1027.04
1027.11
1027.11
1027.11
1027.11
1027.11
1027.11
1027.11
1027.11
1027.11
1027.11
1026.99
937.488
908.456
1015.77
1026.5
1023.56
1019.21
954.741
1023.38
1027.11
1027.11
1027.11
1027.11
1027.11
1027.11
1027.11
1027.11
1027.11
1027.11
1027.11
1027.11
1026.99
1027
1027.11
1027.11
1027.11
1027.11
1026.99
1027.1
1027.11
1027.11
1027.11
1027.11
1027.11
1027.11
1027.11
1027.11
1027.11
1027.11
1027.11
1027.11
1027.11
1027.11
1027.11
1027.11
1027.11
1027.11
1027.11
1027.11
1027.11
1027.11
1027.11
1027.11
1027.11
1027.11
1027.11
1027.11
1027.11
1027.11
1027.11
1027.11
1027.11
1027.11
1027.11
1027.11
1027.11
1027.11
1027.11
1027.11
1027.11
1027.11
1027.11
1027.11
1027.11
1027.11
1027.11
1027.11
1027.11
1027.11
1027.11
1027.11
1027.11
1027.11
1027.11
1027.11
1027.11
1027.11
1027.11
1027.11
1027.11
1027.11
1027.11
1027.11
1027.11
1027.11
1027.11
1027.11
1027.11
1027.11
1027.11
1027.11
1027.11
1027.11
1027.11
1027.11
1027.11
1027.11
1027.11
1027.11
1027.11
1027.11
1027.11
1027.11
1027.11
1027.11
1027.11
1027.11
1027.11
1027.11
1027.11
1027.11
1027.11
1027.11
1027.11
1027.11
1027.11
1027.11
1027.11
1027.11
1027.11
1027.11
1027.11
1027.11
1027.11
1027.11
1027.11
1027.11
1027.11
1027.11
1027.11
1027.11
1027.11
1027.11
1027.11
1027.11
1027.11
1027.11
1027.11
1027.11
1027.11
1027.11
1027.11
1027.11
1027.11
1027.11
1027.11
1027.11
1027.11
1027.11
1027.11
1027.11
1027.11
1027.11
1027.11
1027.11
1027.11
1027.11
1027.11
1027.11
1027.11
1027.11
1027.11
1027.11
1027.11
1027.11
1027.11
1027.11
1027.11
1027.11
1027.11
1027.11
1027.11
1027.11
1027.11
1027.11
1027.11
1027.11
1027.11
1027.11
1027.11
1027.11
1027.11
1027.11
1027.11
1027.11
1027.11
1027.11
1027.11
1027.11
1027.11
1027.11
1027.11
1027.11
1027.11
1027.11
1027.11
1027.11
1027.11
1027.11
1027.11
1027.11
1027.11
1027.11
1027.11
1027.11
1027.11
1027.11
1027.11
1027.11
1027.11
1027.11
1027.11
1027.11
1027.11
1027.11
1027.11
1027.11
1027.11
1027.11
1027.11
1027.11
1027.11
1027.11
1027.11
1027.11
1027.11
1027.11
1027.11
1027.11
1027.11
1027.11
1027.11
1027.11
1027.11
1027.11
1027.11
1027.11
1027.11
1027.11
1027.11
1027.11
1027.11
1027.11
1027.11
1027.11
1027.11
1027.11
1027.11
1027.11
1027.11
1027.11
1027.11
1027.11
1027.11
1027.11
1027.11
1027.11
1027.11
1027.11
1027.11
1027.11
1027.11
1027.11
1027.11
1027.11
1021.35
1019.15
1014.9
1016.36
1003.41
953.646
707.739
795.412
680.886
722.014
705.935
586.798
674.042
812.059
948.27
1016.36
1020.96
1022.42
1022.68
1022.64
1027.11
1027.11
1027.11
1027.11
1024.02
950.955
595.086
847.673
669.763
725.213
743.944
616.728
624.108
643.804
808.158
1027.1
1027.11
1027.11
1027.11
1027.11
1027.11
1027.11
1027.11
1027.11
1027.09
1010.72
718.07
778.404
747.362
745.136
732.676
746.088
743.625
831.785
1021.76
1027.11
1027.11
1027.11
1027.11
1027.11
1027.11
1027.11
1027.11
1027.11
1027.11
1011.92
601.098
758.876
768.125
755.507
769.7
774.293
762.604
822.625
1025.64
1027.11
1027.11
1027.11
1027.11
1027.11
1027.11
1027.11
1027.11
1027.11
1027.11
1024.51
602.697
641.359
785.428
730.558
789.996
790.278
769.625
858.592
1026.88
1027.11
1027.11
1027.11
1027.11
1027.11
1027.11
1027.11
1027.11
1027.11
1027.11
1025.45
684.738
648.884
770.442
852.876
803.302
832.57
780.148
942.307
1027.03
1027.11
1027.11
1027.11
1027.11
1027.11
1027.11
1027.11
1027.11
1027.11
1027.11
1026.99
927.006
895.465
1013.87
1026.4
1022.98
1017.89
944.637
1022.77
1027.11
1027.11
1027.11
1027.11
1027.11
1027.11
1027.11
1027.11
1027.11
1027.11
1027.11
1027.11
1026.97
1026.99
1027.11
1027.11
1027.11
1027.11
1026.97
1027.1
1027.11
1027.11
1027.11
1027.11
1027.11
1027.11
1027.11
1027.11
1027.11
1027.11
1027.11
1027.11
1027.11
1027.11
1027.11
1027.11
1027.11
1027.11
1027.11
1027.11
1027.11
1027.11
1027.11
1027.11
1027.11
1027.11
1027.11
1027.11
1027.11
1027.11
1027.11
1027.11
1027.11
1027.11
1027.11
1027.11
1027.11
1027.11
1027.11
1027.11
1027.11
1027.11
1027.11
1027.11
1027.11
1027.11
1027.11
1027.11
1027.11
1027.11
1027.11
1027.11
1027.11
1027.11
1027.11
1027.11
1027.11
1027.11
1027.11
1027.11
1027.11
1027.11
1027.11
1027.11
1027.11
1027.11
1027.11
1027.11
1027.11
1027.11
1027.11
1027.11
1027.11
1027.11
1027.11
1027.11
1027.11
1027.11
1027.11
1027.11
1027.11
1027.11
1027.11
1027.11
1027.11
1027.11
1027.11
1027.11
1027.11
1027.11
1027.11
1027.11
1027.11
1027.11
1027.11
1027.11
1027.11
1027.11
1027.11
1027.11
1027.11
1027.11
1027.11
1027.11
1027.11
1027.11
1027.11
1027.11
1027.11
1027.11
1027.11
1027.11
1027.11
1027.11
1027.11
1027.11
1027.11
1027.11
1027.11
1027.11
1027.11
1027.11
1027.11
1027.11
1027.11
1027.11
1027.11
1027.11
1027.11
1027.11
1027.11
1027.11
1027.11
1027.11
1027.11
1027.11
1027.11
1027.11
1027.11
1027.11
1027.11
1027.11
1027.11
1027.11
1027.11
1027.11
1027.11
1027.11
1027.11
1027.11
1027.11
1027.11
1027.11
1027.11
1027.11
1027.11
1027.11
1027.11
1027.11
1027.11
1027.11
1027.11
1027.11
1027.11
1027.11
1027.11
1027.11
1027.11
1027.11
1027.11
1027.11
1027.11
1027.11
1027.11
1027.11
1027.11
1027.11
1027.11
1027.11
1027.11
1027.11
1027.11
1027.11
1027.11
1027.11
1027.11
1027.11
1027.11
1027.11
1027.11
1027.11
1027.11
1027.11
1027.11
1027.11
1027.11
1027.11
1027.11
1027.11
1027.11
1027.11
1027.11
1027.11
1027.11
1027.11
1027.11
1027.11
1027.11
1027.11
1027.11
1027.11
1027.11
1027.11
1027.11
1027.11
1027.11
1027.11
1027.11
1027.11
1027.11
1027.11
1027.11
1027.11
1027.11
1027.11
1027.11
1027.11
1027.11
1027.11
1027.11
1027.11
1027.11
1027.11
1027.11
1027.11
1027.11
1027.11
1027.11
1027.11
1027.11
1027.11
1027.11
1027.11
1027.11
1027.11
1027.11
1021.28
1019.08
1015.07
1016.29
1002.22
952.499
706.753
794.928
679.789
720.476
705.029
585.943
672.933
810.001
944.994
1016.19
1020.93
1022.38
1022.68
1022.61
1027.11
1027.11
1027.11
1027.11
1023.14
948.921
591.613
849.012
668.218
721.506
744.141
611.812
619.748
637.483
793.005
1027.1
1027.11
1027.11
1027.11
1027.11
1027.11
1027.11
1027.11
1027.11
1027.08
1010.33
721.482
778.846
746.475
744.617
731.836
744.369
742.3
830.361
1021.28
1027.11
1027.11
1027.11
1027.11
1027.11
1027.11
1027.11
1027.11
1027.11
1027.11
1010.72
599.8
761.807
767.223
755.39
767.45
773.808
762.154
818.883
1025.49
1027.11
1027.11
1027.11
1027.11
1027.11
1027.11
1027.11
1027.11
1027.11
1027.11
1024.39
601.239
639.733
785.292
725.898
786.494
788.808
768.361
853.064
1026.85
1027.11
1027.11
1027.11
1027.11
1027.11
1027.11
1027.11
1027.11
1027.11
1027.11
1025.38
678.211
644.007
761.933
843.483
795.136
823.229
772.962
936.583
1027.03
1027.11
1027.11
1027.11
1027.11
1027.11
1027.11
1027.11
1027.11
1027.11
1027.11
1026.98
920.743
887.784
1012.66
1026.33
1022.6
1017.04
938.468
1022.38
1027.11
1027.11
1027.11
1027.11
1027.11
1027.11
1027.11
1027.11
1027.11
1027.11
1027.11
1027.11
1026.96
1026.97
1027.11
1027.11
1027.11
1027.11
1026.96
1027.1
1027.11
1027.11
1027.11
1027.11
1027.11
1027.11
1027.11
1027.11
1027.11
1027.11
1027.11
1027.11
1027.11
1027.11
1027.11
1027.11
1027.11
1027.11
1027.11
1027.11
1027.11
1027.11
1027.11
1027.11
1027.11
1027.11
1027.11
1027.11
1027.11
1027.11
1027.11
1027.11
1027.11
1027.11
1027.11
1027.11
1027.11
1027.11
1027.11
1027.11
1027.11
1027.11
1027.11
1027.11
1027.11
1027.11
1027.11
1027.11
1027.11
1027.11
1027.11
1027.11
1027.11
1027.11
1027.11
1027.11
1027.11
1027.11
1027.11
1027.11
1027.11
1027.11
1027.11
1027.11
1027.11
1027.11
1027.11
1027.11
1027.11
1027.11
1027.11
1027.11
1027.11
1027.11
1027.11
1027.11
1027.11
1027.11
1027.11
1027.11
1027.11
1027.11
1027.11
1027.11
1027.11
1027.11
1027.11
1027.11
1027.11
1027.11
1027.11
1027.11
1027.11
1027.11
1027.11
1027.11
1027.11
1027.11
1027.11
1027.11
1027.11
1027.11
1027.11
1027.11
1027.11
1027.11
1027.11
1027.11
1027.11
1027.11
1027.11
1027.11
1027.11
1027.11
1027.11
1027.11
1027.11
1027.11
1027.11
1027.11
1027.11
1027.11
1027.11
1027.11
1027.11
1027.11
1027.11
1027.11
1027.11
1027.11
1027.11
1027.11
1027.11
1027.11
1027.11
1027.11
1027.11
1027.11
1027.11
1027.11
1027.11
1027.11
1027.11
1027.11
1027.11
1027.11
1027.11
1027.11
1027.11
1027.11
1027.11
1027.11
1027.11
1027.11
1027.11
1027.11
1027.11
1027.11
1027.11
1027.11
1027.11
1027.11
1027.11
1027.11
1027.11
1027.11
1027.11
1027.11
1027.11
1027.11
1027.11
1027.11
1027.11
1027.11
1027.11
1027.11
1027.11
1027.11
1027.11
1027.11
1027.11
1027.11
1027.11
1027.11
1027.11
1027.11
1027.11
1027.11
1027.11
1027.11
1027.11
1027.11
1027.11
1027.11
1027.11
1027.11
1027.11
1027.11
1027.11
1027.11
1027.11
1027.11
1027.11
1027.11
1027.11
1027.11
1027.11
1027.11
1027.11
1027.11
1027.11
1027.11
1027.11
1027.11
1027.11
1027.11
1027.11
1027.11
1027.11
1027.11
1027.11
1027.11
1027.11
1027.11
1027.11
1027.11
1027.11
1027.11
1027.11
1027.11
1027.11
1027.11
1027.11
1027.11
1027.11
1027.11
1027.11
1027.11
1027.11
1027.11
1027.11
1027.11
1027.11
1027.11
1027.11
1027.11
1021.3
1019.14
1015.37
1016.41
1001.4
951.849
706.521
795.243
679.156
719.433
704.668
585.354
672.439
808.814
942.164
1016.16
1021.02
1022.42
1022.77
1022.69
1027.11
1027.11
1027.11
1027.11
1022
946.588
587.481
850.536
666.514
717.575
744.385
606.527
614.927
630.6
777.138
1027.1
1027.11
1027.11
1027.11
1027.11
1027.11
1027.11
1027.11
1027.11
1027.07
1009.97
725.394
779.323
745.592
744.118
731.053
742.407
740.799
829.062
1020.76
1027.11
1027.11
1027.11
1027.11
1027.11
1027.11
1027.11
1027.11
1027.11
1027.11
1009.35
598.347
765.063
766.197
755.381
765.009
773.231
761.568
814.618
1025.31
1027.11
1027.11
1027.11
1027.11
1027.11
1027.11
1027.11
1027.11
1027.11
1027.11
1024.26
599.685
637.939
785.469
720.851
782.619
787.323
767.054
846.936
1026.83
1027.11
1027.11
1027.11
1027.11
1027.11
1027.11
1027.11
1027.11
1027.11
1027.11
1025.34
671.22
638.932
752.404
832.824
786
812.921
765.348
929.92
1027.02
1027.11
1027.11
1027.11
1027.11
1027.11
1027.11
1027.11
1027.11
1027.11
1027.11
1026.98
913.488
878.97
1011.21
1026.25
1022.15
1016.03
931.251
1021.9
1027.11
1027.11
1027.11
1027.11
1027.11
1027.11
1027.11
1027.11
1027.11
1027.11
1027.11
1027.11
1026.94
1026.96
1027.11
1027.11
1027.11
1027.11
1026.94
1027.1
1027.11
1027.11
1027.11
1027.11
1027.11
1027.11
1027.11
1027.11
1027.11
1027.11
1027.11
1027.11
1027.11
1027.11
1027.11
1027.11
1027.11
1027.11
1027.11
1027.11
1027.11
1027.11
1027.11
1027.11
1027.11
1027.11
1027.11
1027.11
1027.11
1027.11
1027.11
1027.11
1027.11
1027.11
1027.11
1027.11
1027.11
1027.11
1027.11
1027.11
1027.11
1027.11
1027.11
1027.11
1027.11
1027.11
1027.11
1027.11
1027.11
1027.11
1027.11
1027.11
1027.11
1027.11
1027.11
1027.11
1027.11
1027.11
1027.11
1027.11
1027.11
1027.11
1027.11
1027.11
1027.11
1027.11
1027.11
1027.11
1027.11
1027.11
1027.11
1027.11
1027.11
1027.11
1027.11
1027.11
1027.11
1027.11
1027.11
1027.11
1027.11
1027.11
1027.11
1027.11
1027.11
1027.11
1027.11
1027.11
1027.11
1027.11
1027.11
1027.11
1027.11
1027.11
1027.11
1027.11
1027.11
1027.11
1027.11
1027.11
1027.11
1027.11
1027.11
1027.11
1027.11
1027.11
1027.11
1027.11
1027.11
1027.11
1027.11
1027.11
1027.11
1027.11
1027.11
1027.11
1027.11
1027.11
1027.11
1027.11
1027.11
1027.11
1027.11
1027.11
1027.11
1027.11
1027.11
1027.11
1027.11
1027.11
1027.11
1027.11
1027.11
1027.11
1027.11
1027.11
1027.11
1027.11
1027.11
1027.11
1027.11
1027.11
1027.11
1027.11
1027.11
1027.11
1027.11
1027.11
1027.11
1027.11
1027.11
1027.11
1027.11
1027.11
1027.11
1027.11
1027.11
1027.11
1027.11
1027.11
1027.11
1027.11
1027.11
1027.11
1027.11
1027.11
1027.11
1027.11
1027.11
1027.11
1027.11
1027.11
1027.11
1027.11
1027.11
1027.11
1027.11
1027.11
1027.11
1027.11
1027.11
1027.11
1027.11
1027.11
1027.11
1027.11
1027.11
1027.11
1027.11
1027.11
1027.11
1027.11
1027.11
1027.11
1027.11
1027.11
1027.11
1027.11
1027.11
1027.11
1027.11
1027.11
1027.11
1027.11
1027.11
1027.11
1027.11
1027.11
1027.11
1027.11
1027.11
1027.11
1027.11
1027.11
1027.11
1027.11
1027.11
1027.11
1027.11
1027.11
1027.11
1027.11
1027.11
1027.11
1027.11
1027.11
1027.11
1027.11
1027.11
1027.11
1027.11
1027.11
1027.11
1027.11
1027.11
1027.11
1027.11
1027.11
1027.11
1027.11
1027.11
1027.11
1027.11
1027.11
1027.11
1027.11
1021.3
1019.16
1015.6
1016.47
1000.55
951.055
705.724
795.145
678.04
717.703
703.765
584.399
671.387
807.051
939.411
1016.13
1021.06
1022.44
1022.81
1022.72
1027.11
1027.11
1027.11
1027.11
1020.69
944.296
583.24
852.044
664.943
713.861
744.642
601.734
610.389
624.318
763.216
1027.1
1027.11
1027.11
1027.11
1027.11
1027.11
1027.11
1027.11
1027.11
1027.06
1009.67
729.129
779.673
744.774
743.656
730.4
740.441
739.3
827.955
1020.26
1027.11
1027.11
1027.11
1027.11
1027.11
1027.11
1027.11
1027.11
1027.11
1027.11
1007.99
596.995
768.159
765.274
755.842
762.845
772.734
761.016
810.55
1025.13
1027.11
1027.11
1027.11
1027.11
1027.11
1027.11
1027.11
1027.11
1027.11
1027.11
1024.14
598.292
636.284
786.26
716.24
779.008
786.107
766.096
841.2
1026.81
1027.11
1027.11
1027.11
1027.11
1027.11
1027.11
1027.11
1027.11
1027.11
1027.11
1025.33
664.966
634.541
743.44
822.625
777.399
803.378
758.52
923.34
1027.02
1027.11
1027.11
1027.11
1027.11
1027.11
1027.11
1027.11
1027.11
1027.11
1027.11
1026.99
906.33
870.395
1009.71
1026.17
1021.68
1015
924.087
1021.42
1027.11
1027.11
1027.11
1027.11
1027.11
1027.11
1027.11
1027.11
1027.11
1027.11
1027.11
1027.11
1026.93
1026.95
1027.11
1027.11
1027.11
1027.11
1026.92
1027.1
1027.11
1027.11
1027.11
1027.11
1027.11
1027.11
1027.11
1027.11
1027.11
1027.11
1027.11
1027.11
1027.11
1027.11
1027.11
1027.11
1027.11
1027.11
1027.11
1027.11
1027.11
1027.11
1027.11
1027.11
1027.11
1027.11
1027.11
1027.11
1027.11
1027.11
1027.11
1027.11
1027.11
1027.11
1027.11
1027.11
1027.11
1027.11
1027.11
1027.11
1027.11
1027.11
1027.11
1027.11
1027.11
1027.11
1027.11
1027.11
1027.11
1027.11
1027.11
1027.11
1027.11
1027.11
1027.11
1027.11
1027.11
1027.11
1027.11
1027.11
1027.11
1027.11
1027.11
1027.11
1027.11
1027.11
1027.11
1027.11
1027.11
1027.11
1027.11
1027.11
1027.11
1027.11
1027.11
1027.11
1027.11
1027.11
1027.11
1027.11
1027.11
1027.11
1027.11
1027.11
1027.11
1027.11
1027.11
1027.11
1027.11
1027.11
1027.11
1027.11
1027.11
1027.11
1027.11
1027.11
1027.11
1027.11
1027.11
1027.11
1027.11
1027.11
1027.11
1027.11
1027.11
1027.11
1027.11
1027.11
1027.11
1027.11
1027.11
1027.11
1027.11
1027.11
1027.11
1027.11
1027.11
1027.11
1027.11
1027.11
1027.11
1027.11
1027.11
1027.11
1027.11
1027.11
1027.11
1027.11
1027.11
1027.11
1027.11
1027.11
1027.11
1027.11
1027.11
1027.11
1027.11
1027.11
1027.11
1027.11
1027.11
1027.11
1027.11
1027.11
1027.11
1027.11
1027.11
1027.11
1027.11
1027.11
1027.11
1027.11
1027.11
1027.11
1027.11
1027.11
1027.11
1027.11
1027.11
1027.11
1027.11
1027.11
1027.11
1027.11
1027.11
1027.11
1027.11
1027.11
1027.11
1027.11
1027.11
1027.11
1027.11
1027.11
1027.11
1027.11
1027.11
1027.11
1027.11
1027.11
1027.11
1027.11
1027.11
1027.11
1027.11
1027.11
1027.11
1027.11
1027.11
1027.11
1027.11
1027.11
1027.11
1027.11
1027.11
1027.11
1027.11
1027.11
1027.11
1027.11
1027.11
1027.11
1027.11
1027.11
1027.11
1027.11
1027.11
1027.11
1027.11
1027.11
1027.11
1027.11
1027.11
1027.11
1027.11
1027.11
1027.11
1027.11
1027.11
1027.11
1027.11
1027.11
1027.11
1027.11
1027.11
1027.11
1027.11
1027.11
1027.11
1027.11
1027.11
1027.11
1027.11
1027.11
1027.11
1027.11
1027.11
1027.11
1027.11
1027.11
1027.11
1027.11
1027.11
1027.11
1027.11
1027.11
1021.31
1019.18
1015.81
1016.52
999.695
950.266
705.187
795.265
677.143
716.213
703.124
583.544
670.625
805.54
936.897
1016.08
1021.09
1022.46
1022.87
1022.76
1027.11
1027.11
1027.11
1027.11
1019.13
941.995
578.703
853.604
663.407
710.08
744.918
597.186
605.938
618.262
750.591
1027.1
1027.11
1027.11
1027.11
1027.11
1027.11
1027.11
1027.11
1027.11
1027.05
1009.44
732.952
779.978
744.042
743.212
729.87
738.433
737.807
827.075
1019.78
1027.11
1027.11
1027.11
1027.11
1027.11
1027.11
1027.11
1027.11
1027.11
1027.11
1006.57
595.67
771.174
764.333
756.41
760.824
772.198
760.556
806.448
1024.93
1027.11
1027.11
1027.11
1027.11
1027.11
1027.11
1027.11
1027.11
1027.11
1027.11
1024.03
596.963
634.772
787.139
711.8
775.503
785.027
765.456
835.549
1026.8
1027.11
1027.11
1027.11
1027.11
1027.11
1027.11
1027.11
1027.11
1027.11
1027.11
1025.33
659.082
630.51
734.574
812.388
768.818
794.105
751.86
916.555
1027.01
1027.11
1027.11
1027.11
1027.11
1027.11
1027.11
1027.11
1027.11
1027.11
1027.11
1026.99
898.956
861.677
1008.1
1026.08
1021.18
1013.88
916.664
1020.89
1027.11
1027.11
1027.11
1027.11
1027.11
1027.11
1027.11
1027.11
1027.11
1027.11
1027.11
1027.11
1026.91
1026.93
1027.11
1027.11
1027.11
1027.11
1026.91
1027.1
1027.11
1027.11
1027.11
1027.11
1027.11
1027.11
1027.11
1027.11
1027.11
1027.11
1027.11
1027.11
1027.11
1027.11
1027.11
1027.11
1027.11
1027.11
1027.11
1027.11
1027.11
1027.11
1027.11
1027.11
1027.11
1027.11
1027.11
1027.11
1027.11
1027.11
1027.11
1027.11
1027.11
1027.11
1027.11
1027.11
1027.11
1027.11
1027.11
1027.11
1027.11
1027.11
1027.11
1027.11
1027.11
1027.11
1027.11
1027.11
1027.11
1027.11
1027.11
1027.11
1027.11
1027.11
1027.11
1027.11
1027.11
1027.11
1027.11
1027.11
1027.11
1027.11
1027.11
1027.11
1027.11
1027.11
1027.11
1027.11
1027.11
1027.11
1027.11
1027.11
1027.11
1027.11
1027.11
1027.11
1027.11
1027.11
1027.11
1027.11
1027.11
1027.11
1027.11
1027.11
1027.11
1027.11
1027.11
1027.11
1027.11
1027.11
1027.11
1027.11
1027.11
1027.11
1027.11
1027.11
1027.11
1027.11
1027.11
1027.11
1027.11
1027.11
1027.11
1027.11
1027.11
1027.11
1027.11
1027.11
1027.11
1027.11
1027.11
1027.11
1027.11
1027.11
1027.11
1027.11
1027.11
1027.11
1027.11
1027.11
1027.11
1027.11
1027.11
1027.11
1027.11
1027.11
1027.11
1027.11
1027.11
1027.11
1027.11
1027.11
1027.11
1027.11
1027.11
1027.11
1027.11
1027.11
1027.11
1027.11
1027.11
1027.11
1027.11
1027.11
1027.11
1027.11
1027.11
1027.11
1027.11
1027.11
1027.11
1027.11
1027.11
1027.11
1027.11
1027.11
1027.11
1027.11
1027.11
1027.11
1027.11
1027.11
1027.11
1027.11
1027.11
1027.11
1027.11
1027.11
1027.11
1027.11
1027.11
1027.11
1027.11
1027.11
1027.11
1027.11
1027.11
1027.11
1027.11
1027.11
1027.11
1027.11
1027.11
1027.11
1027.11
1027.11
1027.11
1027.11
1027.11
1027.11
1027.11
1027.11
1027.11
1027.11
1027.11
1027.11
1027.11
1027.11
1027.11
1027.11
1027.11
1027.11
1027.11
1027.11
1027.11
1027.11
1027.11
1027.11
1027.11
1027.11
1027.11
1027.11
1027.11
1027.11
1027.11
1027.11
1027.11
1027.11
1027.11
1027.11
1027.11
1027.11
1027.11
1027.11
1027.11
1027.11
1027.11
1027.11
1027.11
1027.11
1027.11
1027.11
1027.11
1027.11
1027.11
1027.11
1027.11
1027.11
1027.11
1027.11
1027.11
1027.11
1027.11
1027.11
1027.11
1027.11
1021.31
1019.19
1016
1016.57
998.859
949.441
704.491
795.271
676.113
714.519
702.294
582.635
669.669
803.88
934.524
1016.03
1021.12
1022.48
1022.93
1022.8
1027.11
1027.11
1027.11
1027.11
1017.32
939.726
574.069
855.134
661.952
706.264
745.197
592.965
601.656
612.556
739.439
1027.1
1027.11
1027.11
1027.11
1027.11
1027.11
1027.11
1027.11
1027.11
1027.03
1009.28
736.743
780.21
743.377
742.746
729.438
736.415
736.319
826.374
1019.34
1027.11
1027.11
1027.11
1027.11
1027.11
1027.11
1027.11
1027.11
1027.11
1027.11
1005.11
594.421
774.044
763.431
757.108
759.065
771.629
760.208
802.374
1024.72
1027.11
1027.11
1027.11
1027.11
1027.11
1027.11
1027.11
1027.11
1027.11
1027.11
1023.96
595.701
633.398
788.371
707.586
772.141
784.123
765.118
830.079
1026.79
1027.11
1027.11
1027.11
1027.11
1027.11
1027.11
1027.11
1027.11
1027.11
1027.11
1025.37
653.703
626.916
726.046
802.386
760.417
785.318
745.535
909.726
1027.01
1027.11
1027.11
1027.11
1027.11
1027.11
1027.11
1027.11
1027.11
1027.11
1027.11
1026.99
891.528
853.034
1006.41
1025.98
1020.65
1012.72
909.162
1020.34
1027.11
1027.11
1027.11
1027.11
1027.11
1027.11
1027.11
1027.11
1027.11
1027.11
1027.11
1027.11
1026.9
1026.92
1027.11
1027.11
1027.11
1027.11
1026.89
1027.1
1027.11
1027.11
1027.11
1027.11
1027.11
1027.11
1027.11
1027.11
1027.11
1027.11
1027.11
1027.11
1027.11
1027.11
1027.11
1027.11
1027.11
1027.11
1027.11
1027.11
1027.11
1027.11
1027.11
1027.11
1027.11
1027.11
1027.11
1027.11
1027.11
1027.11
1027.11
1027.11
1027.11
1027.11
1027.11
1027.11
1027.11
1027.11
1027.11
1027.11
1027.11
1027.11
1027.11
1027.11
1027.11
1027.11
1027.11
1027.11
1027.11
1027.11
1027.11
1027.11
1027.11
1027.11
1027.11
1027.11
1027.11
1027.11
1027.11
1027.11
1027.11
1027.11
1027.11
1027.11
1027.11
1027.11
1027.11
1027.11
1027.11
1027.11
1027.11
1027.11
1027.11
1027.11
1027.11
1027.11
1027.11
1027.11
1027.11
1027.11
1027.11
1027.11
1027.11
1027.11
1027.11
1027.11
1027.11
1027.11
1027.11
1027.11
1027.11
1027.11
1027.11
1027.11
1027.11
1027.11
1027.11
1027.11
1027.11
1027.11
1027.11
1027.11
1027.11
1027.11
1027.11
1027.11
1027.11
1027.11
1027.11
1027.11
1027.11
1027.11
1027.11
1027.11
1027.11
1027.11
1027.11
1027.11
1027.11
1027.11
1027.11
1027.11
1027.11
1027.11
1027.11
1027.11
1027.11
1027.11
1027.11
1027.11
1027.11
1027.11
1027.11
1027.11
1027.11
1027.11
1027.11
1027.11
1027.11
1027.11
1027.11
1027.11
1027.11
1027.11
1027.11
1027.11
1027.11
1027.11
1027.11
1027.11
1027.11
1027.11
1027.11
1027.11
1027.11
1027.11
1027.11
1027.11
1027.11
1027.11
1027.11
1027.11
1027.11
1027.11
1027.11
1027.11
1027.11
1027.11
1027.11
1027.11
1027.11
1027.11
1027.11
1027.11
1027.11
1027.11
1027.11
1027.11
1027.11
1027.11
1027.11
1027.11
1027.11
1027.11
1027.11
1027.11
1027.11
1027.11
1027.11
1027.11
1027.11
1027.11
1027.11
1027.11
1027.11
1027.11
1027.11
1027.11
1027.11
1027.11
1027.11
1027.11
1027.11
1027.11
1027.11
1027.11
1027.11
1027.11
1027.11
1027.11
1027.11
1027.11
1027.11
1027.11
1027.11
1027.11
1027.11
1027.11
1027.11
1027.11
1027.11
1027.11
1027.11
1027.11
1027.11
1027.11
1027.11
1027.11
1027.11
1027.11
1027.11
1027.11
1027.11
1027.11
1027.11
1027.11
1027.11
1027.11
1027.11
1027.11
1027.11
1027.11
1027.11
1027.11
1027.11
1027.11
1021.31
1019.21
1016.18
1016.62
998.067
948.598
703.858
795.466
675.209
712.958
701.563
581.705
668.772
802.26
932.351
1015.97
1021.15
1022.5
1022.98
1022.85
1027.11
1027.11
1027.11
1027.11
1015.2
937.501
569.393
856.618
660.562
702.425
745.475
589.016
597.513
607.111
729.485
1027.1
1027.11
1027.11
1027.11
1027.11
1027.11
1027.11
1027.11
1027.11
1027.01
1009.21
740.579
780.395
742.794
742.255
729.102
734.407
734.833
825.874
1018.93
1027.11
1027.11
1027.11
1027.11
1027.11
1027.11
1027.11
1027.11
1027.11
1027.11
1003.6
593.25
776.8
762.535
757.989
757.516
770.959
759.916
798.297
1024.5
1027.11
1027.11
1027.11
1027.11
1027.11
1027.11
1027.11
1027.11
1027.11
1027.11
1023.91
594.487
632.135
789.88
703.543
768.889
783.439
765.007
824.736
1026.78
1027.11
1027.11
1027.11
1027.11
1027.11
1027.11
1027.11
1027.11
1027.11
1027.11
1025.42
648.739
623.671
717.752
792.519
752.115
776.855
739.481
902.814
1027
1027.11
1027.11
1027.11
1027.11
1027.11
1027.11
1027.11
1027.11
1027.11
1027.11
1027
884.006
844.398
1004.62
1025.88
1020.08
1011.48
901.532
1019.76
1027.11
1027.11
1027.11
1027.11
1027.11
1027.11
1027.11
1027.11
1027.11
1027.11
1027.11
1027.11
1026.88
1026.9
1027.11
1027.11
1027.11
1027.11
1026.87
1027.1
1027.11
1027.11
1027.11
1027.11
1027.11
1027.11
1027.11
1027.11
1027.11
1027.11
1027.11
1027.11
1027.11
1027.11
1027.11
1027.11
1027.11
1027.11
1027.11
1027.11
1027.11
1027.11
1027.11
1027.11
1027.11
1027.11
1027.11
1027.11
1027.11
1027.11
1027.11
1027.11
1027.11
1027.11
1027.11
1027.11
1027.11
1027.11
1027.11
1027.11
1027.11
1027.11
1027.11
1027.11
1027.11
1027.11
1027.11
1027.11
1027.11
1027.11
1027.11
1027.11
1027.11
1027.11
1027.11
1027.11
1027.11
1027.11
1027.11
1027.11
1027.11
1027.11
1027.11
1027.11
1027.11
1027.11
1027.11
1027.11
1027.11
1027.11
1027.11
1027.11
1027.11
1027.11
1027.11
1027.11
1027.11
1027.11
1027.11
1027.11
1027.11
1027.11
1027.11
1027.11
1027.11
1027.11
1027.11
1027.11
1027.11
1027.11
1027.11
1027.11
1027.11
1027.11
1027.11
1027.11
1027.11
1027.11
1027.11
1027.11
1027.11
1027.11
1027.11
1027.11
1027.11
1027.11
1027.11
1027.11
1027.11
1027.11
1027.11
1027.11
1027.11
1027.11
1027.11
1027.11
1027.11
1027.11
1027.11
1027.11
1027.11
1027.11
1027.11
1027.11
1027.11
1027.11
1027.11
1027.11
1027.11
1027.11
1027.11
1027.11
1027.11
1027.11
1027.11
1027.11
1027.11
1027.11
1027.11
1027.11
1027.11
1027.11
1027.11
1027.11
1027.11
1027.11
1027.11
1027.11
1027.11
1027.11
1027.11
1027.11
1027.11
1027.11
1027.11
1027.11
1027.11
1027.11
1027.11
1027.11
1027.11
1027.11
1027.11
1027.11
1027.11
1027.11
1027.11
1027.11
1027.11
1027.11
1027.11
1027.11
1027.11
1027.11
1027.11
1027.11
1027.11
1027.11
1027.11
1027.11
1027.11
1027.11
1027.11
1027.11
1027.11
1027.11
1027.11
1027.11
1027.11
1027.11
1027.11
1027.11
1027.11
1027.11
1027.11
1027.11
1027.11
1027.11
1027.11
1027.11
1027.11
1027.11
1027.11
1027.11
1027.11
1027.11
1027.11
1027.11
1027.11
1027.11
1027.11
1027.11
1027.11
1027.11
1027.11
1027.11
1027.11
1027.11
1027.11
1027.11
1027.11
1027.11
1027.11
1027.11
1027.11
1027.11
1027.11
1027.11
1027.11
1027.11
1027.11
1027.11
1027.11
1027.11
1027.11
1027.11
1027.11
1027.11
1027.11
1027.11
1027.11
1027.11
1027.11
1027.11
1027.11
1027.11
1021.3
1019.22
1016.35
1016.67
997.332
947.723
703.191
795.567
674.252
711.259
700.684
580.703
667.778
800.553
930.295
1015.91
1021.16
1022.53
1023.04
1022.9
1027.11
1027.11
1027.11
1027.11
1012.77
935.348
564.805
858.025
659.257
698.586
745.746
585.35
593.537
601.971
720.558
1027.09
1027.11
1027.11
1027.11
1027.11
1027.11
1027.11
1027.11
1027.11
1026.98
1009.19
744.383
780.523
742.287
741.71
728.844
732.443
733.357
825.557
1018.6
1027.11
1027.11
1027.11
1027.11
1027.11
1027.11
1027.11
1027.11
1027.11
1027.11
1002.03
592.148
779.416
761.669
758.99
756.188
770.333
759.684
794.237
1024.26
1027.11
1027.11
1027.11
1027.11
1027.11
1027.11
1027.11
1027.11
1027.11
1027.11
1023.9
593.314
630.961
791.685
699.671
765.744
783.057
765.075
819.55
1026.78
1027.11
1027.11
1027.11
1027.11
1027.11
1027.11
1027.11
1027.11
1027.11
1027.11
1025.47
644.231
620.799
709.808
782.925
744.021
768.616
733.73
895.909
1026.99
1027.11
1027.11
1027.11
1027.11
1027.11
1027.11
1027.11
1027.11
1027.11
1027.11
1027
876.498
835.889
1002.74
1025.78
1019.49
1010.2
893.88
1019.14
1027.11
1027.11
1027.11
1027.11
1027.11
1027.11
1027.11
1027.11
1027.11
1027.11
1027.11
1027.11
1026.86
1026.88
1027.11
1027.11
1027.11
1027.11
1026.85
1027.1
1027.11
1027.11
1027.11
1027.11
1027.11
1027.11
1027.11
1027.11
1027.11
1027.11
1027.11
1027.11
1027.11
1027.11
1027.11
1027.11
1027.11
1027.11
1027.11
1027.11
1027.11
1027.11
1027.11
1027.11
1027.11
1027.11
1027.11
1027.11
1027.11
1027.11
1027.11
1027.11
1027.11
1027.11
1027.11
1027.11
1027.11
1027.11
1027.11
1027.11
1027.11
1027.11
1027.11
1027.11
1027.11
1027.11
1027.11
1027.11
1027.11
1027.11
1027.11
1027.11
1027.11
1027.11
1027.11
1027.11
1027.11
1027.11
1027.11
1027.11
1027.11
1027.11
1027.11
1027.11
1027.11
1027.11
1027.11
1027.11
1027.11
1027.11
1027.11
1027.11
1027.11
1027.11
1027.11
1027.11
1027.11
1027.11
1027.11
1027.11
1027.11
1027.11
1027.11
1027.11
1027.11
1027.11
1027.11
1027.11
1027.11
1027.11
1027.11
1027.11
1027.11
1027.11
1027.11
1027.11
1027.11
1027.11
1027.11
1027.11
1027.11
1027.11
1027.11
1027.11
1027.11
1027.11
1027.11
1027.11
1027.11
1027.11
1027.11
1027.11
1027.11
1027.11
1027.11
1027.11
1027.11
1027.11
1027.11
1027.11
1027.11
1027.11
1027.11
1027.11
1027.11
1027.11
1027.11
1027.11
1027.11
1027.11
1027.11
1027.11
1027.11
1027.11
1027.11
1027.11
1027.11
1027.11
1027.11
1027.11
1027.11
1027.11
1027.11
1027.11
1027.11
1027.11
1027.11
1027.11
1027.11
1027.11
1027.11
1027.11
1027.11
1027.11
1027.11
1027.11
1027.11
1027.11
1027.11
1027.11
1027.11
1027.11
1027.11
1027.11
1027.11
1027.11
1027.11
1027.11
1027.11
1027.11
1027.11
1027.11
1027.11
1027.11
1027.11
1027.11
1027.11
1027.11
1027.11
1027.11
1027.11
1027.11
1027.11
1027.11
1027.11
1027.11
1027.11
1027.11
1027.11
1027.11
1027.11
1027.11
1027.11
1027.11
1027.11
1027.11
1027.11
1027.11
1027.11
1027.11
1027.11
1027.11
1027.11
1027.11
1027.11
1027.11
1027.11
1027.11
1027.11
1027.11
1027.11
1027.11
1027.11
1027.11
1027.11
1027.11
1027.11
1027.11
1027.11
1027.11
1027.11
1027.11
1027.11
1027.11
1027.11
1027.11
1027.11
1027.11
1027.11
1027.11
1027.11
1027.11
1027.11
1027.11
1027.11
1027.11
1027.11
1027.11
1027.11
1027.11
1027.11
1027.11
1027.11
1027.11
1027.11
1027.11
1021.29
1019.23
1016.51
1016.72
996.672
946.817
702.614
795.758
673.44
709.646
699.85
579.618
666.764
798.822
928.404
1015.85
1021.18
1022.55
1023.1
1022.94
1027.11
1027.11
1027.11
1027.11
1009.96
933.288
560.268
859.365
658.025
694.756
746.01
581.935
589.715
597.083
712.32
1027.09
1027.11
1027.11
1027.11
1027.11
1027.11
1027.11
1027.11
1027.11
1026.95
1009.3
748.174
780.601
741.86
741.108
728.658
730.533
731.899
825.408
1018.35
1027.11
1027.11
1027.11
1027.11