/*--------------------------------*- C++ -*----------------------------------*\
| =========                 |                                                 |
| \\      /  F ield         | OpenFOAM: The Open Source CFD Toolbox           |
|  \\    /   O peration     | Version:  2.3.0                                 |
|   \\  /    A nd           | Web:      www.OpenFOAM.org                      |
|    \\/     M anipulation  |                                                 |
\*---------------------------------------------------------------------------*/
FoamFile
{
    version     2.0;
    format      ascii;
    class       volScalarField;
    location    "0.016";
    object      alpha.water;
}
// * * * * * * * * * * * * * * * * * * * * * * * * * * * * * * * * * * * * * //

dimensions      [0 0 0 0 0 0 0];

internalField   nonuniform List<scalar> 
545
(
1
1
1
1
0.988842
1
1
1
1
1
1
1
1
1
1
1
1
1
1
1
1
1
1
1
0.9345
0.987852
0.961861
0.969905
0.998397
0.999207
0.999066
0.999361
0.999607
0.99975
0.999829
0.999878
0.99991
0.999929
0.999941
0.999951
0.999959
0.999984
1.00001
0.872854
0.328385
0.301793
0.30255
0.298064
0.476095
0.980636
0.99975
0.999764
0.999872
0.999908
0.999909
0.99992
0.999939
0.999972
1.00002
0.382688
0.290282
0.290214
0.290211
0.610018
0.997457
0.999295
0.999253
0.999425
0.999559
0.999638
0.764836
0.869461
0.962975
0.999281
0.999593
0.999576
0.999518
0.999533
0.999583
0.999637
0.999681
0.999717
0.99975
0.999783
0.99982
0.999861
0.999922
1
0.937079
0.334964
0.30256
0.301976
0.301763
0.50211
0.971197
0.999576
0.999752
0.999715
0.999705
0.999722
0.999748
0.999801
0.999948
0.99999
0.444521
0.290544
0.29023
0.288873
0.669715
0.997356
0.999585
0.999627
0.999453
0.999388
0.999346
0.407709
0.685429
0.897307
0.999094
0.999633
0.999677
0.99961
0.999684
0.999733
0.99976
0.999778
0.999793
0.999808
0.999822
0.999838
0.999861
0.999904
0.999983
0.999073
0.360272
0.301899
0.30154
0.301592
0.616461
0.985718
0.999434
0.99977
0.99979
0.999709
0.999729
0.999751
0.999786
0.999932
0.999981
0.577194
0.290125
0.289551
0.289847
0.780476
0.998537
0.999666
0.999763
0.999728
0.999695
0.999683
0.372137
0.658619
0.95382
0.986238
0.986806
0.997309
0.999831
0.999809
0.999749
0.99976
0.999776
0.999795
0.999815
0.999833
0.999849
0.999868
0.999908
0.999984
1.00002
0.553583
0.303725
0.302069
0.34398
0.743898
0.995846
0.999537
0.999815
0.999852
0.999754
0.999768
0.999777
0.999797
0.999922
0.999979
0.754849
0.341391
0.288491
0.442151
0.886457
0.998995
0.99976
0.999798
0.999788
0.999742
0.999737
0.208166
0.593645
0.818786
0.989443
0.999461
0.999788
0.999809
0.999765
0.999802
0.999823
0.999831
0.999836
0.999844
0.999857
0.999871
0.999888
0.999913
0.999973
0.99999
0.831415
0.380387
0.335182
0.528529
0.893859
0.998764
0.999746
0.999835
0.999835
0.999777
0.999789
0.999799
0.999811
0.999884
0.999977
0.979
0.634131
0.500471
0.690766
0.95492
0.999547
0.999819
0.999804
0.999783
0.999785
0.99977
0.155507
0.738648
0.951878
0.979844
0.997126
0.99987
0.999885
0.99991
0.999864
0.999898
0.999938
0.999971
0.99999
0.999987
0.999975
0.999962
0.999958
0.99997
0.999998
0.99999
0.782081
0.604232
0.818744
0.98429
0.99947
0.999747
0.999758
0.999727
0.999769
0.999787
0.999793
0.9998
0.99985
0.999967
0.999993
0.86492
0.688156
0.864774
0.990489
0.999764
0.999824
0.999818
0.999745
0.999748
0.999742
1
1
1
1
0.925415
1
1
1
1
1.00002
1
1
1
1
1
1
1
1
1.00006
1
1
1
1
1.00004
0.997018
0.21968
0.583093
0.85044
0.947058
0.999415
0.999834
0.999884
0.999748
0.999775
0.999801
0.999823
0.999839
0.99985
0.999859
0.999869
0.999878
0.999888
0.999907
0.999971
1
0.992706
0.964231
0.986597
0.996563
0.998801
0.999297
0.99929
0.999373
0.999702
0.999709
0.999742
0.999762
0.999798
0.999898
0.999979
0.999767
0.981365
0.99151
0.997297
0.999923
0.999764
0.999769
0.999695
0.999694
0.999702
0.385255
0.707624
0.957771
0.992176
0.999722
0.999857
0.999828
0.99979
0.999803
0.999813
0.999823
0.999835
0.99985
0.999868
0.999885
0.999901
0.999911
0.999918
0.999923
1.00004
1.00003
0.999826
0.998856
0.997496
0.996115
0.996108
0.996507
0.999634
0.999692
0.999688
0.999685
0.999677
0.999694
0.999781
0.999853
0.999829
0.999767
0.999719
0.999834
0.999869
0.999736
0.999683
0.999687
0.999688
0.999691
0.518364
0.754028
0.857415
0.993891
0.999728
0.999846
0.999828
0.999778
0.999785
0.999797
0.999812
0.99983
0.999852
0.999877
0.999904
0.999922
0.999927
0.99993
0.99996
1.00008
1.00005
0.999724
0.996958
0.996204
0.996198
0.997701
0.999434
0.999588
0.999523
0.999492
0.999435
0.999408
0.999448
0.999553
0.999564
0.999762
0.999765
0.99957
0.999561
0.999631
0.999654
0.999658
0.999662
0.999668
0.999677
0.95464
0.907063
0.953613
0.993172
0.999599
0.999634
0.999484
0.999529
0.999614
0.999701
0.999777
0.999843
0.999899
0.999937
1.00004
1.0001
1.00035
1.00044
1.00027
1.00006
0.995397
0.993494
0.993504
0.996304
0.999387
0.999402
0.998819
0.998396
0.998377
0.998368
0.998367
0.998367
0.998368
0.998476
0.999637
0.999762
0.999675
0.999664
0.999677
0.999697
0.999712
0.999717
0.999713
0.999704
0.999692
0.996971
0.984987
0.991685
0.992325
0.999308
0.999565
0.99955
0.99974
0.999905
1.00003
1.00007
1.0001
1.00013
1.00012
1.00032
1.00029
0.997085
0.991583
0.990734
0.990312
0.990099
0.99528
0.99894
0.99894
0.999095
0.999226
0.999316
0.999389
0.999467
0.999531
0.999563
0.99956
0.999506
0.999517
0.999616
0.999658
0.999695
0.999741
0.9998
0.999855
0.999887
0.999901
0.999905
0.999906
0.999898
)
;

boundaryField
{
    AirInlet
    {
        type            fixedValue;
        value           uniform 0;
    }
    WaterInlet
    {
        type            fixedValue;
        value           uniform 1;
    }
    ChannelWall
    {
        type            zeroGradient;
    }
    Outlet
    {
        type            inletOutlet;
        inletValue      uniform 0;
        value           nonuniform List<scalar> 
11
(
0.999638
0.999346
0.999683
0.999737
0.99977
0.999742
0.999702
0.999691
0.999677
0.999692
0.999898
)
;
    }
    FrontAndBack
    {
        type            empty;
    }
}


// ************************************************************************* //
