/*--------------------------------*- C++ -*----------------------------------*\
| =========                 |                                                 |
| \\      /  F ield         | OpenFOAM: The Open Source CFD Toolbox           |
|  \\    /   O peration     | Version:  2.3.0                                 |
|   \\  /    A nd           | Web:      www.OpenFOAM.org                      |
|    \\/     M anipulation  |                                                 |
\*---------------------------------------------------------------------------*/
FoamFile
{
    version     2.0;
    format      ascii;
    class       surfaceScalarField;
    location    "0.71";
    object      phi.particles;
}
// * * * * * * * * * * * * * * * * * * * * * * * * * * * * * * * * * * * * * //

dimensions      [0 3 -1 0 0 0 0];

internalField   nonuniform List<scalar> 
11770
(
1.16508e-06
-1.58915e-05
1.91558e-06
-2.01949e-05
1.49474e-06
-2.22072e-05
5.66158e-07
-2.4444e-05
8.75049e-07
-2.57614e-05
2.19919e-06
-2.63591e-05
2.95354e-06
-2.66674e-05
3.60763e-06
-2.84732e-05
5.10036e-06
-2.65313e-05
6.33626e-06
-2.5969e-05
6.7824e-06
-2.62355e-05
6.30443e-06
-2.58654e-05
3.72335e-06
-2.49601e-05
1.90185e-07
-2.00902e-05
-2.35251e-06
-1.67978e-05
-3.03707e-06
-1.75015e-05
-1.89003e-06
-1.75943e-05
-1.25026e-06
-1.77546e-05
-2.07895e-06
-2.02361e-05
-2.40463e-06
-2.04583e-05
-2.35618e-06
-2.16983e-05
-2.7932e-06
-2.4282e-05
-3.34895e-06
-2.60148e-05
-3.35562e-06
-2.5382e-05
-2.66499e-06
-2.32211e-05
-8.24164e-07
-1.91013e-05
1.67071e-06
-1.66977e-05
2.58857e-06
-1.55815e-05
1.52897e-06
-1.60013e-05
-1.30119e-05
-1.41411e-07
-1.57723e-06
-4.2364e-06
8.88873e-07
-6.28939e-06
-1.81776e-06
-4.76366e-06
-6.28743e-06
-9.78204e-07
-9.64012e-06
3.07639e-06
-1.00422e-05
5.7834e-06
-8.22675e-06
7.35211e-06
-5.82705e-06
8.4648e-06
-5.23305e-06
9.21681e-06
-4.29281e-06
9.39176e-06
-2.67825e-06
8.54688e-06
1.60728e-07
7.87858e-06
-2.10236e-07
6.87783e-06
1.27753e-06
4.95561e-06
3.07326e-06
8.51777e-07
3.30098e-06
-5.45473e-06
5.03632e-06
-9.87314e-06
6.54271e-06
-1.12596e-05
2.3138e-06
-1.0826e-05
-1.48051e-07
-8.15151e-06
-2.10041e-06
-4.77229e-06
-3.10876e-06
-3.00009e-06
-1.15457e-06
-2.49853e-06
9.73807e-07
-1.85761e-06
2.26087e-06
8.08229e-07
2.01104e-06
3.91119e-06
9.45897e-07
5.73233e-06
2.8814e-06
4.57399e-06
5.87707e-06
6.8689e-06
-3.23994e-06
-2.93393e-07
-6.3745e-06
1.0808e-06
-8.10339e-06
-1.44657e-06
-5.72438e-06
-7.55126e-06
-1.45872e-06
-1.13154e-05
2.55384e-06
-1.12994e-05
5.55575e-06
-9.32804e-06
7.18821e-06
-5.50952e-06
8.24063e-06
-4.71611e-06
9.44594e-06
-4.61816e-06
1.04752e-05
-2.6358e-06
1.13128e-05
9.95151e-07
1.22932e-05
3.18582e-06
1.25254e-05
5.81225e-06
1.06279e-05
6.53958e-06
3.3523e-06
8.62895e-06
-6.94927e-06
9.7473e-06
-1.31809e-05
8.07539e-06
-1.43494e-05
4.11519e-06
-1.30002e-05
7.05421e-08
-1.01316e-05
-1.8673e-06
-7.03279e-06
-1.11825e-06
-4.72443e-06
9.47619e-07
-2.52639e-06
2.93246e-06
1.03518e-06
2.68892e-06
5.46725e-06
-5.04423e-07
8.37021e-06
8.9392e-09
9.72612e-06
2.52961e-06
8.63248e-06
7.66617e-06
1.4279e-05
-5.17664e-06
5.36262e-06
-7.73518e-06
7.81537e-06
-8.93935e-06
3.30168e-06
-7.06162e-06
-3.94323e-06
-4.76939e-06
-6.90595e-06
-1.22562e-06
-7.58612e-06
2.98019e-06
-4.75112e-06
6.0767e-06
4.10606e-07
8.71047e-06
4.96159e-07
1.11051e-05
-8.34255e-07
1.27625e-05
1.40632e-06
1.59593e-05
4.93471e-06
1.85316e-05
9.64766e-06
1.79111e-05
1.34564e-05
1.35121e-05
1.50251e-05
2.82668e-06
1.95476e-05
-8.84471e-06
1.91931e-05
-1.41334e-05
1.42873e-05
-1.3448e-05
1.08767e-05
-1.10554e-05
6.17978e-06
-9.42389e-06
3.43921e-06
-7.31582e-06
3.42033e-06
-4.12004e-06
3.88145e-06
-6.49184e-09
3.78297e-06
4.28999e-06
1.52783e-06
7.51707e-06
-8.98012e-07
8.8967e-06
1.90462e-06
8.72693e-06
8.45145e-06
7.30799e-06
1.59412e-05
2.51276e-05
-1.52092e-06
8.07621e-06
-1.04928e-05
1.5912e-05
-1.10971e-05
1.06717e-05
-1.16046e-05
1.09792e-07
-1.08235e-05
-3.76652e-06
-6.60525e-06
-5.86188e-06
-4.52866e-07
-4.29342e-06
4.55016e-06
4.55637e-07
8.05765e-06
1.06742e-06
1.06002e-05
2.54536e-07
1.46664e-05
2.64277e-06
1.99347e-05
7.68678e-06
2.16686e-05
1.40254e-05
1.81817e-05
2.05839e-05
6.58089e-06
2.68181e-05
-5.82216e-06
3.08115e-05
-1.16336e-05
2.63062e-05
-1.27576e-05
1.96456e-05
-9.57596e-06
1.46912e-05
-6.36419e-06
7.43253e-06
-5.97913e-06
4.23047e-06
-5.50702e-06
4.31114e-06
-3.46408e-06
2.06695e-06
-7.4528e-09
-2.24218e-06
3.41852e-06
-7.51355e-06
5.67719e-06
-9.70099e-06
6.51732e-06
-4.13804e-06
4.88748e-06
7.97503e-06
2.45239e-06
2.12498e-05
3.22365e-05
4.26698e-06
7.62044e-06
-6.72561e-06
1.73678e-05
-1.46881e-05
1.84395e-05
-1.49943e-05
8.09726e-06
-1.35609e-05
-6.89571e-07
-9.19951e-06
-4.77087e-06
-2.93814e-06
-4.90147e-06
2.84306e-06
-1.9243e-06
6.39056e-06
-4.25359e-07
8.22559e-06
9.35326e-07
1.13491e-05
3.93251e-06
1.53149e-05
9.62174e-06
1.5972e-05
1.61665e-05
6.21843e-06
2.91344e-05
-8.09898e-06
3.52981e-05
-1.28809e-05
3.43513e-05
-1.19182e-05
2.6664e-05
-9.23526e-06
1.75421e-05
-5.00771e-06
1.04693e-05
-3.80471e-06
4.20128e-06
-5.99205e-06
2.20953e-06
-7.23315e-06
3.86584e-07
-6.38358e-06
-6.80162e-06
-3.76952e-06
-1.56508e-05
-5.27693e-07
-2.24865e-05
1.22643e-06
-2.36793e-05
3.37152e-07
-1.81688e-05
-2.22651e-06
-3.94065e-06
-2.67786e-06
1.42789e-05
2.83798e-05
2.46909e-07
8.22446e-06
-3.82307e-06
1.82746e-05
-1.25236e-05
2.10291e-05
-1.69061e-05
1.29746e-05
-1.42457e-05
2.69103e-06
-8.90589e-06
-4.51469e-06
-3.16607e-06
-5.96199e-06
6.50954e-07
-3.10015e-06
2.66485e-06
-1.02581e-06
4.02888e-06
7.98912e-07
4.88066e-06
3.59048e-06
1.69329e-06
3.20865e-06
-3.29347e-06
1.04237e-05
-9.22302e-06
3.05243e-05
-1.49576e-05
3.51242e-05
-1.36448e-05
2.97624e-05
-8.81221e-06
1.65426e-05
-4.65139e-06
4.91702e-06
-3.65246e-06
-1.11373e-06
-6.9345e-06
-4.24123e-06
-1.03778e-05
-6.66993e-06
-1.17403e-05
-1.28187e-05
-1.09747e-05
-2.22444e-05
-9.02552e-06
-3.149e-05
-7.62887e-06
-3.77699e-05
-7.16212e-06
-3.99257e-05
-7.10185e-06
-3.84127e-05
-7.50818e-06
-2.79365e-05
-5.52139e-06
-1.18699e-05
2.22277e-06
-2.09821e-06
8.6365e-06
-5.94144e-06
1.87733e-05
-1.0207e-05
2.10157e-05
-1.27116e-05
1.46535e-05
-1.33335e-05
4.20423e-06
-1.02084e-05
-4.58016e-06
-5.58233e-06
-7.6534e-06
-2.16429e-06
-5.66777e-06
-8.78233e-07
-5.4049e-06
-8.12014e-07
-7.89025e-06
-3.33542e-06
-1.05176e-05
-1.15463e-05
-1.67176e-05
-1.59244e-05
-8.54671e-06
-1.4617e-05
1.32831e-05
-1.27794e-05
2.08981e-05
-7.57628e-06
1.08037e-05
-4.22704e-06
-4.57907e-06
-5.63564e-06
-1.28726e-05
-1.03577e-05
-1.54489e-05
-1.51913e-05
-1.77193e-05
-1.73841e-05
-2.24439e-05
-1.69259e-05
-2.98251e-05
-1.56962e-05
-3.63627e-05
-1.50204e-05
-4.28502e-05
-1.43526e-05
-4.68658e-05
-1.28725e-05
-4.8279e-05
-1.01415e-05
-4.74272e-05
-7.24022e-06
-4.41286e-05
-4.45066e-06
-3.87025e-05
-3.07226e-05
-2.82123e-06
9.32332e-06
-5.4319e-06
2.10101e-05
-7.79529e-06
2.19663e-05
-1.01231e-05
1.39565e-05
-1.09641e-05
3.56144e-06
-1.01002e-05
-4.79527e-06
-7.89935e-06
-9.43618e-06
-6.77331e-06
-1.45085e-05
-7.49698e-06
-2.27893e-05
-9.73677e-06
-2.78038e-05
-1.29783e-05
-3.06426e-05
-1.35506e-05
-3.05308e-05
-1.35582e-05
-2.77713e-05
-1.22069e-05
-1.48874e-05
-6.78296e-06
-6.79377e-06
-4.61134e-06
-1.56107e-05
-9.06563e-06
-2.46552e-05
-1.49449e-05
-2.72165e-05
-1.94631e-05
-2.76451e-05
-2.1344e-05
-2.96333e-05
-2.04943e-05
-3.37609e-05
-1.83644e-05
-3.64325e-05
-1.75252e-05
-3.89377e-05
-1.74323e-05
-4.29488e-05
-1.67851e-05
-4.51068e-05
-1.47196e-05
-4.60304e-05
-1.10984e-05
-4.57294e-05
-6.97603e-06
-4.42709e-05
-3.52417e-06
-4.27778e-05
-4.15507e-05
-3.29648e-06
1.23344e-05
-3.69248e-06
2.28269e-05
-4.48537e-06
2.17267e-05
-6.64913e-06
1.37199e-05
-8.73812e-06
8.93128e-07
-9.23413e-06
-7.73067e-06
-8.61936e-06
-1.43229e-05
-1.31455e-05
-2.75959e-05
-1.35776e-05
-3.54305e-05
-1.33896e-05
-3.71331e-05
-1.33473e-05
-3.35764e-05
-1.14393e-05
-3.16703e-05
-8.69541e-06
-3.27329e-05
-8.51348e-06
-3.1272e-05
-8.39176e-06
-2.79528e-05
-1.14218e-05
-3.07067e-05
-1.6906e-05
-3.16233e-05
-2.11551e-05
-2.97839e-05
-2.23855e-05
-2.90909e-05
-2.06825e-05
-3.05742e-05
-1.73147e-05
-3.33931e-05
-1.57861e-05
-3.38908e-05
-1.56328e-05
-3.61785e-05
-1.59715e-05
-3.82426e-05
-1.59859e-05
-3.97091e-05
-1.44042e-05
-4.08959e-05
-1.13691e-05
-4.15657e-05
-7.62184e-06
-4.08889e-05
-3.99654e-06
-3.91917e-05
-3.76291e-05
-7.35929e-06
2.85861e-06
-6.15635e-07
2.53326e-06
1.07031e-06
-1.71878e-06
-3.04182e-06
-6.79085e-06
-6.7705e-06
-7.44076e-06
-8.75206e-06
-1.166e-05
-1.5062e-05
-2.29334e-05
-1.57818e-05
-2.8514e-05
-1.28362e-05
-3.31654e-05
-1.21644e-05
-3.50617e-05
-1.22124e-05
-3.13043e-05
-1.08403e-05
-2.88975e-05
-9.56932e-06
-3.00343e-05
-1.04617e-05
-3.03998e-05
-1.29044e-05
-2.9925e-05
-1.5966e-05
-3.07217e-05
-1.95661e-05
-2.83616e-05
-2.14612e-05
-2.591e-05
-2.09607e-05
-2.56447e-05
-1.74816e-05
-2.77431e-05
-1.3799e-05
-2.98868e-05
-1.2549e-05
-3.09933e-05
-1.24319e-05
-3.26965e-05
-1.38515e-05
-3.35047e-05
-1.50964e-05
-3.42302e-05
-1.41987e-05
-3.51039e-05
-1.18309e-05
-3.62194e-05
-8.43708e-06
-3.65647e-05
-4.6269e-06
-3.5219e-05
-3.29148e-05
-1.65951e-06
-1.86216e-05
2.60848e-06
-2.30141e-05
5.04926e-06
-2.62007e-05
4.67135e-06
-2.81081e-05
-1.70459e-06
-2.78944e-05
-1.34731e-05
-2.56027e-05
-2.00226e-05
-2.56085e-05
-1.64996e-05
-2.38539e-05
-1.28589e-05
-2.90647e-05
-1.19529e-05
-3.19273e-05
-1.22891e-05
-2.87763e-05
-1.15242e-05
-2.52958e-05
-1.10541e-05
-2.56026e-05
-1.27965e-05
-2.59016e-05
-1.51537e-05
-2.61079e-05
-1.77234e-05
-2.70259e-05
-2.00485e-05
-2.33751e-05
-2.03942e-05
-2.18463e-05
-1.79262e-05
-2.23261e-05
-1.34281e-05
-2.54036e-05
-1.05499e-05
-2.67965e-05
-9.4421e-06
-2.83215e-05
-9.61781e-06
-2.9058e-05
-1.14146e-05
-2.90386e-05
-1.29641e-05
-2.86514e-05
-1.27808e-05
-2.88489e-05
-1.09107e-05
-2.98649e-05
-8.26029e-06
-3.07324e-05
-5.11406e-06
-3.04589e-05
-2.85823e-05
2.30244e-06
-2.67645e-05
4.1575e-06
-2.80265e-05
7.37476e-06
-2.95434e-05
1.12082e-05
-3.08176e-05
9.14215e-06
-3.35471e-05
-4.33853e-06
-3.3881e-05
-1.63139e-05
-2.73333e-05
-1.58331e-05
-2.17123e-05
-1.31358e-05
-2.3092e-05
-1.27749e-05
-2.78929e-05
-1.31425e-05
-2.61748e-05
-1.25152e-05
-2.16037e-05
-1.19348e-05
-2.13718e-05
-1.37149e-05
-2.18672e-05
-1.63085e-05
-2.22558e-05
-1.84951e-05
-2.24539e-05
-1.96664e-05
-1.89646e-05
-1.86071e-05
-1.81564e-05
-1.44534e-05
-1.99252e-05
-1.0332e-05
-2.30137e-05
-8.29418e-06
-2.43406e-05
-6.94662e-06
-2.54424e-05
-7.35091e-06
-2.54324e-05
-9.10956e-06
-2.4556e-05
-1.07767e-05
-2.34439e-05
-1.12602e-05
-2.30347e-05
-1.01941e-05
-2.33537e-05
-8.0433e-06
-2.39919e-05
-5.22333e-06
-2.42534e-05
-2.38148e-05
3.07496e-06
-2.3255e-05
5.37993e-06
-2.51149e-05
8.88146e-06
-2.73218e-05
1.31203e-05
-2.9306e-05
1.55426e-05
-3.12248e-05
8.52509e-06
-3.24435e-05
-5.94658e-06
-2.95246e-05
-1.11924e-05
-2.11405e-05
-1.11352e-05
-1.68783e-05
-1.26781e-05
-2.27471e-05
-1.33829e-05
-2.32294e-05
-1.34199e-05
-1.76121e-05
-1.30432e-05
-1.70433e-05
-1.46855e-05
-1.77676e-05
-1.70509e-05
-1.8403e-05
-1.85497e-05
-1.77953e-05
-1.87004e-05
-1.48884e-05
-1.59529e-05
-1.45828e-05
-1.11759e-05
-1.83367e-05
-7.6357e-06
-2.03091e-05
-5.32404e-06
-2.191e-05
-4.21315e-06
-2.23217e-05
-4.98443e-06
-2.14827e-05
-6.86083e-06
-2.02553e-05
-8.70146e-06
-1.89837e-05
-9.33472e-06
-1.79881e-05
-8.64501e-06
-1.73993e-05
-6.96746e-06
-1.71658e-05
-4.16701e-06
-1.70648e-05
-1.73992e-05
3.3726e-06
-2.00197e-05
6.08447e-06
-2.2607e-05
9.95008e-06
-2.52632e-05
1.35159e-05
-2.78013e-05
1.72723e-05
-2.86924e-05
1.73015e-05
-2.96614e-05
3.40131e-06
-2.8752e-05
-6.74098e-06
-2.0836e-05
-7.83893e-06
-1.40171e-05
-1.09527e-05
-1.60752e-05
-1.34708e-05
-1.92438e-05
-1.40353e-05
-1.39134e-05
-1.39479e-05
-1.21784e-05
-1.53494e-05
-1.29707e-05
-1.73854e-05
-1.41566e-05
-1.81995e-05
-1.37293e-05
-1.68499e-05
-1.10551e-05
-1.27951e-05
-1.15705e-05
-8.19912e-06
-1.61032e-05
-4.7241e-06
-1.80558e-05
-2.32237e-06
-1.94395e-05
-1.81516e-06
-1.91439e-05
-2.61754e-06
-1.80549e-05
-4.02623e-06
-1.6829e-05
-5.61352e-06
-1.55402e-05
-6.8109e-06
-1.41827e-05
-6.84151e-06
-1.28491e-05
-5.42049e-06
-1.16446e-05
-1.93011e-06
-1.07614e-05
-1.02037e-05
3.61592e-06
-1.7162e-05
6.74327e-06
-2.02678e-05
1.04131e-05
-2.32317e-05
1.41996e-05
-2.57734e-05
1.85855e-05
-2.62478e-05
2.12958e-05
-2.71687e-05
1.19859e-05
-2.55479e-05
2.03129e-07
-1.97518e-05
-2.38433e-06
-1.30292e-05
-5.51235e-06
-1.08798e-05
-1.06255e-05
-1.23749e-05
-1.25051e-05
-1.08159e-05
-1.3265e-05
-6.96314e-06
-1.49803e-05
-7.85857e-06
-1.6802e-05
-9.19339e-06
-1.71121e-05
-9.78203e-06
-1.47077e-05
-7.1762e-06
-9.63955e-06
-9.31009e-06
-4.92501e-06
-1.34217e-05
-1.68337e-06
-1.61486e-05
-1.29747e-08
-1.67881e-05
-2.03216e-07
-1.60663e-05
-1.22833e-06
-1.50946e-05
-2.35638e-06
-1.41166e-05
-3.36461e-06
-1.30169e-05
-4.14507e-06
-1.16851e-05
-4.20729e-06
-1.00834e-05
-3.10572e-06
-8.35294e-06
2.01812e-07
-6.71842e-06
-5.04155e-06
3.7593e-06
-1.44834e-05
7.1669e-06
-1.78394e-05
1.06589e-05
-2.10591e-05
1.48914e-05
-2.33008e-05
1.93968e-05
-2.44662e-05
2.24614e-05
-2.45216e-05
1.90975e-05
-2.1967e-05
7.16079e-06
-1.73843e-05
1.79358e-06
-1.21818e-05
8.03377e-07
-8.95825e-06
-4.18347e-06
-5.61478e-06
-8.86553e-06
-7.5668e-06
-1.15014e-05
-1.35453e-06
-1.40364e-05
-1.99003e-06
-1.5311e-05
-3.64938e-06
-1.47583e-05
-5.32598e-06
-1.16667e-05
-2.75506e-06
-6.78895e-06
-6.74714e-06
-2.10729e-06
-1.15667e-05
7.47797e-07
-1.39505e-05
1.36431e-06
-1.40136e-05
5.62215e-07
-1.34098e-05
-4.01166e-07
-1.27649e-05
-1.15416e-06
-1.20742e-05
-1.65573e-06
-1.12e-05
-1.88041e-06
-1.00362e-05
-1.63047e-06
-8.52597e-06
-7.29534e-07
-6.77408e-06
8.57237e-07
-4.98799e-06
-2.76332e-06
3.78671e-06
-1.17539e-05
7.19671e-06
-1.51976e-05
1.10182e-05
-1.87352e-05
1.57834e-05
-2.11611e-05
2.02106e-05
-2.26532e-05
2.39839e-05
-2.11598e-05
2.49667e-05
-1.9977e-05
1.47108e-05
-1.5355e-05
8.28444e-06
-1.13497e-05
5.03262e-06
-6.04486e-06
3.64997e-06
-1.37308e-06
-1.99565e-06
-2.39132e-06
-9.2518e-06
4.02008e-06
-1.19475e-05
5.38726e-06
-1.43463e-05
2.8332e-06
-1.26415e-05
-1.19081e-07
-8.17677e-06
2.19244e-06
-3.68463e-06
-4.33942e-06
4.20622e-07
-9.6998e-06
2.18899e-06
-1.15431e-05
1.71026e-06
-1.15354e-05
7.67923e-07
-1.12487e-05
2.60754e-08
-1.0949e-05
-4.42756e-07
-1.05275e-05
-6.53848e-07
-9.87322e-06
-6.313e-07
-8.89448e-06
-3.86389e-07
-7.53223e-06
-3.21209e-08
-5.83662e-06
2.5032e-07
-3.93441e-06
-1.66657e-06
3.78834e-06
-8.85104e-06
7.22029e-06
-1.23762e-05
1.16448e-05
-1.64909e-05
1.6958e-05
-1.92809e-05
2.1391e-05
-2.05391e-05
2.51021e-05
-1.83374e-05
2.95966e-05
-1.79973e-05
2.7732e-05
-1.41613e-05
1.87546e-05
-1.10788e-05
1.11277e-05
-2.59133e-06
7.91408e-06
2.92426e-06
1.8436e-06
4.31587e-06
-5.83657e-06
7.50732e-06
-1.00357e-05
1.32982e-05
-1.27994e-05
1.06453e-05
-1.04041e-05
6.33731e-06
-5.56944e-06
7.60941e-06
-9.8257e-07
-2.22096e-06
2.13927e-06
-7.74124e-06
2.30673e-06
-9.36206e-06
1.45804e-06
-9.52065e-06
7.03269e-07
-9.58674e-06
1.97013e-07
-9.56172e-06
-7.5584e-08
-9.35498e-06
-1.68047e-07
-8.87226e-06
-1.41399e-07
-8.03446e-06
-5.80058e-08
-6.79207e-06
3.32652e-08
-5.17426e-06
6.74659e-08
-3.3121e-06
-1.22381e-06
4.07624e-06
-5.79824e-06
7.62772e-06
-9.51795e-06
1.27631e-05
-1.43991e-05
1.83314e-05
-1.75058e-05
2.26059e-05
-1.84852e-05
2.59063e-05
-1.64593e-05
3.09615e-05
-1.53676e-05
3.36983e-05
-1.28425e-05
2.82212e-05
-8.40691e-06
1.99158e-05
4.1341e-08
1.46666e-05
7.00364e-06
1.06842e-05
9.78705e-06
2.48774e-06
1.18381e-05
-6.42221e-06
2.00008e-05
-1.07429e-05
1.9733e-05
-8.46261e-06
1.3875e-05
-2.94305e-06
1.27335e-05
9.71368e-07
-2.21184e-07
2.38832e-06
-6.06115e-06
1.81063e-06
-7.4769e-06
1.11312e-06
-7.99227e-06
5.95931e-07
-8.31894e-06
2.84772e-07
-8.48772e-06
1.30495e-07
-8.42765e-06
6.21856e-08
-8.06327e-06
3.14486e-08
-7.33639e-06
1.73064e-08
-6.21297e-06
1.81223e-08
-4.722e-06
2.09773e-08
-2.98633e-06
-1.02632e-06
4.70568e-06
-2.82805e-06
8.59968e-06
-6.88457e-06
1.41885e-05
-1.26231e-05
1.95837e-05
-1.5986e-05
2.3759e-05
-1.68242e-05
2.69522e-05
-1.50804e-05
3.12943e-05
-1.33483e-05
3.50079e-05
-1.06547e-05
3.28108e-05
-4.53721e-06
2.67317e-05
3.73855e-06
2.23098e-05
1.0546e-05
1.96762e-05
1.42807e-05
1.32375e-05
1.75202e-05
3.19272e-07
2.47893e-05
-7.98965e-06
2.93561e-05
-6.19549e-06
2.19248e-05
-9.44144e-07
1.81384e-05
1.68504e-06
9.2312e-07
1.96053e-06
-4.62474e-06
1.4314e-06
-6.07108e-06
9.48242e-07
-6.81825e-06
6.20977e-07
-7.31364e-06
4.33482e-07
-7.60672e-06
3.17946e-07
-7.63947e-06
2.13895e-07
-7.3563e-06
1.14925e-07
-6.73395e-06
4.31885e-08
-5.74852e-06
2.22284e-08
-4.41239e-06
4.02366e-08
-2.81843e-06
-9.26239e-07
5.60212e-06
-3.82592e-07
9.78695e-06
-4.92583e-06
1.54585e-05
-1.14621e-05
2.06859e-05
-1.50353e-05
2.47413e-05
-1.57335e-05
2.7833e-05
-1.41002e-05
3.13366e-05
-1.12347e-05
3.54633e-05
-7.31155e-06
3.5823e-05
-3.50742e-07
3.20858e-05
7.83003e-06
2.85288e-05
1.42335e-05
2.59931e-05
1.83915e-05
2.31978e-05
2.21674e-05
1.11963e-05
2.86358e-05
-3.63816e-06
3.92328e-05
-4.37608e-06
3.23797e-05
6.94959e-07
2.38962e-05
1.5916e-06
1.37602e-06
1.67752e-06
-3.43702e-06
1.42411e-06
-5.02832e-06
1.14406e-06
-5.8919e-06
9.27489e-07
-6.47064e-06
7.45466e-07
-6.82028e-06
5.57051e-07
-6.89737e-06
3.3812e-07
-6.67597e-06
1.39774e-07
-6.17009e-06
2.2111e-08
-5.35855e-06
1.21616e-08
-4.21432e-06
7.29816e-08
-2.76895e-06
-8.91781e-07
6.33504e-06
1.04686e-06
1.0969e-05
-4.36056e-06
1.66731e-05
-1.13094e-05
2.1666e-05
-1.47787e-05
2.55337e-05
-1.50553e-05
2.8608e-05
-1.28482e-05
3.21054e-05
-8.87781e-06
3.64367e-05
-3.79665e-06
3.83336e-05
3.61719e-06
3.60155e-05
1.19834e-05
3.26699e-05
1.80209e-05
2.99161e-05
2.20834e-05
2.77108e-05
2.58034e-05
1.60701e-05
3.24464e-05
-1.19671e-07
4.84855e-05
-2.14208e-06
4.5138e-05
2.17155e-06
2.78092e-05
2.09766e-06
1.28151e-06
2.11268e-06
-2.61709e-06
2.00148e-06
-4.25594e-06
1.84833e-06
-5.1579e-06
1.63068e-06
-5.74178e-06
1.29831e-06
-6.08058e-06
8.54936e-07
-6.12326e-06
3.9222e-07
-5.96345e-06
3.24273e-08
-5.61903e-06
-1.3353e-07
-5.04699e-06
-1.0403e-07
-4.14242e-06
6.64455e-08
-2.87863e-06
-9.45753e-07
6.92656e-06
-1.7937e-08
1.2317e-05
-5.76745e-06
1.76246e-05
-1.19999e-05
2.22244e-05
-1.49648e-05
2.6044e-05
-1.44786e-05
2.94157e-05
-1.14226e-05
3.32358e-05
-6.57195e-06
3.76178e-05
-3.58472e-07
4.03229e-05
7.74251e-06
3.89163e-05
1.58072e-05
3.54746e-05
2.14481e-05
3.20134e-05
2.54859e-05
2.88076e-05
2.96974e-05
1.64928e-05
3.69747e-05
1.52563e-06
5.55313e-05
7.93636e-07
5.4688e-05
3.80535e-06
2.9767e-05
2.71385e-06
9.5696e-07
3.03654e-06
-2.16684e-06
3.17659e-06
-3.77965e-06
3.12173e-06
-4.64095e-06
2.80399e-06
-5.1467e-06
2.14094e-06
-5.4611e-06
1.15417e-06
-5.62561e-06
2.57181e-07
-5.41979e-06
-3.33507e-07
-5.25831e-06
-5.35983e-07
-4.9514e-06
-4.22297e-07
-4.3169e-06
-3.51103e-08
-3.24133e-06
-1.19923e-06
7.32899e-06
-3.1042e-06
1.32478e-05
-7.87817e-06
1.79733e-05
-1.28793e-05
2.21998e-05
-1.536e-05
2.62085e-05
-1.4235e-05
3.01056e-05
-1.03484e-05
3.41701e-05
-4.47062e-06
3.83024e-05
2.9263e-06
4.10639e-05
1.1594e-05
4.06377e-05
1.9159e-05
3.70824e-05
2.45996e-05
3.25513e-05
2.95525e-05
2.82004e-05
3.42674e-05
1.43979e-05
4.23478e-05
2.79366e-06
5.98657e-05
5.08131e-06
5.84285e-05
6.21795e-06
3.17067e-05
3.92586e-06
4.83848e-07
4.53473e-06
-2.05059e-06
4.953e-06
-3.67253e-06
4.98051e-06
-4.41264e-06
4.44529e-06
-4.83917e-06
3.11118e-06
-5.30727e-06
1.30619e-06
-5.35459e-06
-2.1693e-07
-5.23004e-06
-1.03975e-06
-5.10108e-06
-1.27253e-06
-5.19731e-06
-1.04722e-06
-4.86233e-06
-2.97974e-07
-3.97782e-06
-1.80711e-06
7.31736e-06
-5.62954e-06
1.34005e-05
-9.07893e-06
1.76346e-05
-1.34128e-05
2.18078e-05
-1.61804e-05
2.62368e-05
-1.47579e-05
3.05415e-05
-9.79399e-06
3.44365e-05
-2.7488e-06
3.7522e-05
5.61964e-06
3.93574e-05
1.44706e-05
3.90749e-05
2.23965e-05
3.59753e-05
2.86211e-05
3.18016e-05
3.4137e-05
2.73036e-05
3.90165e-05
1.33607e-05
4.81148e-05
4.80026e-06
6.2564e-05
9.08299e-06
6.11277e-05
9.06308e-06
3.64417e-05
5.45703e-06
-8.00731e-07
6.52431e-06
-2.63225e-06
7.24353e-06
-4.0759e-06
7.32888e-06
-4.57071e-06
6.55171e-06
-4.98586e-06
4.80941e-06
-5.34059e-06
9.4852e-07
-3.79122e-06
-1.24747e-06
-3.84752e-06
-2.26405e-06
-5.31151e-06
-2.40029e-06
-5.89749e-06
-2.06209e-06
-5.89224e-06
-8.86761e-07
-5.18885e-06
-3.07949e-06
6.63006e-06
-7.1984e-06
1.27022e-05
-9.9491e-06
1.68514e-05
-1.45076e-05
2.13946e-05
-1.79878e-05
2.61697e-05
-1.58924e-05
3.00816e-05
-9.71239e-06
3.25299e-05
-1.67045e-06
3.37424e-05
7.18384e-06
3.41048e-05
1.64451e-05
3.33379e-05
2.517e-05
3.13569e-05
3.25356e-05
2.9104e-05
3.79887e-05
2.49826e-05
4.32975e-05
1.55221e-05
5.26883e-05
1.18125e-05
6.49609e-05
1.48866e-05
6.56379e-05
1.18581e-05
4.57364e-05
7.21271e-06
-2.63881e-06
8.83774e-06
-4.23118e-06
9.89487e-06
-5.13416e-06
1.0169e-05
-5.29944e-06
1.01791e-05
-5.43487e-06
9.29899e-06
-9.03409e-06
1.0549e-06
-2.72494e-05
-4.73351e-06
-2.14413e-05
-4.2678e-06
-6.17634e-06
-3.91465e-06
-7.17349e-06
-3.3803e-06
-7.39058e-06
-1.86923e-06
-6.98585e-06
-5.29527e-06
5.26997e-06
-1.12236e-05
1.09543e-05
-1.45494e-05
1.58446e-05
-1.81035e-05
2.03893e-05
-2.05802e-05
2.39345e-05
-1.68434e-05
2.6033e-05
-9.54258e-06
2.69741e-05
-8.17386e-07
2.72319e-05
8.35908e-06
2.67149e-05
1.79936e-05
2.54759e-05
2.7295e-05
2.39026e-05
3.46441e-05
2.28312e-05
4.00531e-05
2.1274e-05
4.55122e-05
1.96193e-05
5.51023e-05
2.12173e-05
6.70874e-05
2.18409e-05
7.02941e-05
1.53428e-05
5.4098e-05
9.01981e-06
-5.4087e-06
1.11663e-05
-6.94405e-06
1.2499e-05
-7.05357e-06
1.34911e-05
-7.03067e-06
1.58443e-05
-1.00163e-05
9.06181e-06
-2.89535e-05
-1.75622e-06
-5.09272e-05
-6.5393e-06
-4.51132e-05
-7.05588e-06
-1.62742e-05
-5.132e-06
-8.21895e-06
-4.67501e-06
-9.45818e-06
-2.93848e-06
-9.3178e-06
-8.28594e-06
2.39751e-06
-1.76741e-05
7.13953e-06
-2.37232e-05
1.3552e-05
-2.36395e-05
1.75195e-05
-2.31907e-05
1.96143e-05
-1.76383e-05
2.04305e-05
-9.61805e-06
2.03559e-05
-5.29748e-07
1.96172e-05
9.07017e-06
1.82658e-05
1.92763e-05
1.67615e-05
2.87775e-05
1.58546e-05
3.54159e-05
1.56429e-05
4.01914e-05
1.67719e-05
4.43543e-05
2.00948e-05
5.49509e-05
2.41009e-05
6.79286e-05
2.41209e-05
7.28922e-05
1.68303e-05
5.73829e-05
1.00966e-05
-9.92635e-06
1.29187e-05
-1.09465e-05
1.48894e-05
-9.78195e-06
1.82281e-05
-1.0896e-05
1.28813e-05
-2.25433e-05
9.19059e-07
-4.85835e-05
-2.22301e-06
-5.4081e-05
-5.83436e-06
-5.17545e-05
-1.01687e-05
-3.49272e-05
-6.85036e-06
-1.19914e-05
-5.50829e-06
-1.17042e-05
-3.81649e-06
-1.20266e-05
-1.17198e-05
6.91697e-07
-2.42365e-05
4.9077e-06
-3.15872e-05
1.06352e-05
-2.83594e-05
1.3658e-05
-2.5447e-05
1.49224e-05
-1.89987e-05
1.48906e-05
-1.13332e-05
1.39185e-05
-2.18892e-06
1.11273e-05
8.28424e-06
8.78755e-06
1.97022e-05
8.22631e-06
2.82872e-05
8.53848e-06
3.44468e-05
9.0262e-06
3.90586e-05
1.10626e-05
4.16667e-05
1.69117e-05
4.96228e-05
2.30922e-05
6.49077e-05
2.3328e-05
7.27495e-05
1.65439e-05
5.69507e-05
1.01408e-05
-1.53113e-05
1.38181e-05
-1.63287e-05
1.643e-05
-1.35414e-05
1.48832e-05
-1.77293e-05
1.93468e-06
-4.20751e-05
-4.66817e-06
-5.35017e-05
-1.86408e-06
-5.30523e-05
-1.10896e-06
-5.07091e-05
-5.468e-06
-4.7571e-05
-9.1083e-06
-2.10363e-05
-6.08116e-06
-1.36186e-05
-4.31209e-06
-1.49595e-05
-1.56906e-05
-1.65408e-08
-2.93479e-05
4.22614e-06
-3.48211e-05
7.63889e-06
-3.20559e-05
1.00234e-05
-2.76838e-05
1.04052e-05
-2.20559e-05
1.04816e-05
-1.54587e-05
1.00791e-05
-1.06818e-05
3.40953e-06
-1.66935e-05
9.61206e-08
-5.68611e-06
1.62023e-06
1.61637e-05
3.28481e-06
2.98409e-05
4.32518e-06
3.56076e-05
6.3415e-06
3.6166e-05
1.28455e-05
2.88232e-05
1.89109e-05
4.92338e-05
2.0335e-05
6.69289e-05
1.64145e-05
5.11581e-05
1.01558e-05
-2.05444e-05
1.37866e-05
-2.23372e-05
1.60848e-05
-2.07326e-05
4.19589e-06
-3.54104e-05
-6.41134e-06
-5.10946e-05
-4.2335e-06
-5.19676e-05
-9.80402e-07
-5.00398e-05
5.93014e-07
-4.82477e-05
-3.38985e-06
-4.88676e-05
-9.53518e-06
-3.81154e-05
-6.52538e-06
-1.80969e-05
-3.73533e-06
-1.80786e-05
-2.07593e-05
2.24073e-07
-3.0347e-05
3.06592e-06
-3.54442e-05
4.89869e-06
-3.6011e-05
6.78321e-06
-3.11025e-05
7.32238e-06
-2.66377e-05
9.82927e-06
-2.15165e-05
5.75751e-06
-3.42162e-05
4.80926e-06
-3.87956e-05
1.59346e-06
-3.49792e-05
-6.75944e-07
-1.97299e-05
9.89515e-07
-3.66327e-06
3.60889e-06
5.01536e-06
4.43667e-06
3.90268e-06
5.68812e-06
-4.54385e-06
1.01281e-05
2.10815e-05
1.562e-05
5.0141e-05
1.681e-05
3.31067e-05
1.22081e-05
-2.49983e-05
1.1672e-05
-2.82443e-05
2.45993e-06
-3.25065e-05
-7.32839e-06
-4.70712e-05
-7.37895e-06
-4.96934e-05
-4.27483e-06
-4.82767e-05
-1.85026e-06
-4.58167e-05
1.03181e-07
-4.56912e-05
1.69583e-06
-4.69211e-05
-3.00832e-06
-4.83566e-05
-6.4938e-06
-3.00912e-05
-2.70614e-06
-2.31682e-05
-2.55245e-05
8.61246e-07
-2.94954e-05
2.09925e-06
-3.5045e-05
1.71059e-06
-4.02273e-05
4.16778e-06
-3.48887e-05
8.10106e-06
-3.11656e-05
3.30733e-06
-4.15333e-05
1.79413e-06
-4.49661e-05
5.2133e-06
-3.91784e-05
7.22494e-06
-3.88499e-05
6.60405e-06
-3.74271e-05
5.55485e-06
-3.41897e-05
5.22635e-06
-2.91244e-05
4.00286e-06
-2.69319e-05
2.42892e-06
-2.32653e-05
5.61245e-06
-2.51828e-06
1.3907e-05
2.42737e-05
1.57922e-05
7.63201e-06
1.06736e-05
-2.7399e-05
1.91839e-08
-3.32075e-05
-8.47632e-06
-3.58792e-05
-9.49938e-06
-4.53359e-05
-7.18055e-06
-4.57592e-05
-4.73317e-06
-4.32158e-05
-2.81168e-06
-4.2142e-05
2.47075e-08
-4.36371e-05
4.17672e-06
-4.52221e-05
2.72812e-06
-4.73927e-05
-3.92253e-06
-4.32049e-05
-1.55869e-06
-2.8021e-05
-2.59219e-05
4.80345e-07
-2.85358e-05
8.91141e-07
-3.42824e-05
-1.54786e-07
-4.25417e-05
2.48854e-06
-3.89017e-05
2.82857e-07
-4.54684e-05
-1.83453e-06
-5.02117e-05
9.61641e-07
-4.38885e-05
4.89485e-06
-3.70822e-05
7.30469e-06
-3.62408e-05
8.20792e-06
-3.46445e-05
8.20066e-06
-3.42406e-05
7.38772e-06
-3.34676e-05
6.39352e-06
-3.01769e-05
5.51644e-06
-2.63565e-05
8.13274e-06
-1.57592e-05
1.44172e-05
1.36137e-07
1.27741e-05
-1.06032e-05
2.47428e-06
-2.72372e-05
-7.47434e-06
-3.15016e-05
-1.07334e-05
-3.2105e-05
-9.0852e-06
-4.00888e-05
-6.80004e-06
-3.99446e-05
-5.33048e-06
-3.81437e-05
-3.03772e-06
-3.99809e-05
1.00573e-06
-4.18411e-05
5.30885e-06
-4.34448e-05
7.86981e-06
-4.49238e-05
2.08749e-06
-4.5546e-05
-3.05821e-06
-3.93122e-05
-2.77642e-05
5.70945e-08
-2.7516e-05
3.66244e-07
-3.32275e-05
-7.54258e-07
-4.23274e-05
-2.54621e-06
-4.5919e-05
-5.07365e-06
-5.07624e-05
-3.76073e-06
-4.83914e-05
2.80183e-07
-4.2406e-05
4.53502e-06
-3.54372e-05
7.68597e-06
-3.36212e-05
9.29248e-06
-3.18198e-05
9.94579e-06
-3.06599e-05
1.01254e-05
-3.03232e-05
9.50791e-06
-2.78229e-05
8.74932e-06
-2.57015e-05
1.08502e-05
-2.22596e-05
1.44291e-05
-1.46107e-05
9.44915e-06
-1.81546e-05
-3.02172e-06
-2.47813e-05
-1.14912e-05
-2.79068e-05
-1.20134e-05
-2.84022e-05
-9.3081e-06
-3.51667e-05
-7.31603e-06
-3.47596e-05
-5.83186e-06
-3.42852e-05
-2.33913e-06
-3.80096e-05
2.52435e-06
-3.98963e-05
6.90878e-06
-4.12343e-05
9.16267e-06
-4.22145e-05
7.31369e-06
-4.18914e-05
2.68119e-07
-4.11697e-05
-3.31146e-05
-3.99094e-07
-2.638e-05
-8.42254e-07
-3.20918e-05
-2.99382e-06
-4.04654e-05
-5.47774e-06
-4.64275e-05
-7.0444e-06
-4.80774e-05
-5.22416e-06
-4.66816e-05
-1.39264e-06
-4.11715e-05
3.54276e-06
-3.41826e-05
7.98373e-06
-3.11431e-05
1.01366e-05
-2.89739e-05
1.10647e-05
-2.7373e-05
1.22714e-05
-2.72902e-05
1.26562e-05
-2.51636e-05
1.21077e-05
-2.33904e-05
1.29955e-05
-2.30695e-05
1.44294e-05
-2.03867e-05
7.04747e-06
-1.97963e-05
-6.35076e-06
-2.04651e-05
-1.42351e-05
-2.36451e-05
-1.4028e-05
-2.38516e-05
-1.07743e-05
-3.0708e-05
-8.175e-06
-3.03742e-05
-5.20847e-06
-3.17194e-05
-1.83774e-07
-3.57655e-05
4.75732e-06
-3.77839e-05
8.50417e-06
-3.88223e-05
9.44461e-06
-3.90882e-05
7.42184e-06
-3.85579e-05
4.3794e-06
-3.71342e-05
-3.28574e-05
-7.78929e-07
-2.52145e-05
-1.51382e-06
-3.08089e-05
-4.28168e-06
-3.83027e-05
-7.03986e-06
-4.37451e-05
-8.42519e-06
-4.57871e-05
-6.86362e-06
-4.51489e-05
-3.12174e-06
-4.06589e-05
2.65907e-06
-3.36653e-05
8.01859e-06
-2.86653e-05
1.0516e-05
-2.6401e-05
1.23021e-05
-2.42533e-05
1.42105e-05
-2.44436e-05
1.53924e-05
-2.25899e-05
1.47429e-05
-2.06431e-05
1.46912e-05
-2.09542e-05
1.45317e-05
-2.13611e-05
7.21157e-06
-1.94357e-05
-6.63176e-06
-1.47647e-05
-1.50223e-05
-1.79859e-05
-1.45763e-05
-1.72141e-05
-1.14145e-05
-2.52846e-05
-8.09376e-06
-2.65056e-05
-3.90502e-06
-2.98897e-05
1.89225e-06
-3.37984e-05
6.50748e-06
-3.55674e-05
9.18654e-06
-3.622e-05
8.8406e-06
-3.60407e-05
6.13933e-06
-3.51297e-05
4.00022e-06
-3.30653e-05
-2.80465e-05
-1.1652e-06
-2.37027e-05
-1.49575e-06
-2.93171e-05
-4.72407e-06
-3.60043e-05
-7.73752e-06
-4.12347e-05
-9.39484e-06
-4.3579e-05
-8.47317e-06
-4.3545e-05
-4.59911e-06
-4.0393e-05
1.32557e-06
-3.37239e-05
7.1327e-06
-2.68663e-05
1.05838e-05
-2.43255e-05
1.29443e-05
-2.1529e-05
1.53422e-05
-2.1356e-05
1.75302e-05
-1.98873e-05
1.78943e-05
-1.78739e-05
1.66965e-05
-1.81162e-05
1.50795e-05
-2.02211e-05
1.08697e-05
-1.852e-05
-2.49122e-06
-9.39549e-06
-1.45454e-05
-1.14107e-05
-1.5143e-05
-9.8084e-06
-1.18167e-05
-1.91933e-05
-7.00074e-06
-2.46398e-05
-1.58502e-06
-2.86555e-05
4.12731e-06
-3.18571e-05
8.05141e-06
-3.32271e-05
8.94487e-06
-3.33344e-05
7.45685e-06
-3.30183e-05
4.39018e-06
-3.14963e-05
3.26038e-06
-2.83062e-05
-2.28989e-05
-1.72369e-06
-2.05804e-05
-1.36454e-06
-2.69495e-05
-4.83828e-06
-3.33499e-05
-8.20231e-06
-3.8527e-05
-1.01289e-05
-4.11593e-05
-9.56171e-06
-4.15199e-05
-5.95603e-06
-3.98128e-05
-2.5879e-07
-3.35518e-05
6.13808e-06
-2.57372e-05
9.99338e-06
-2.27342e-05
1.2791e-05
-1.96452e-05
1.60542e-05
-1.83585e-05
1.88959e-05
-1.72941e-05
2.0114e-05
-1.46926e-05
1.91593e-05
-1.50727e-05
1.67644e-05
-1.7381e-05
1.45662e-05
-1.68692e-05
2.1255e-06
-6.32369e-06
-1.28152e-05
-4.74929e-06
-1.51709e-05
-2.67506e-06
-1.19681e-05
-1.28657e-05
-6.12512e-06
-2.31783e-05
9.71675e-07
-2.74595e-05
5.77166e-06
-2.98067e-05
7.99155e-06
-3.0709e-05
7.5571e-06
-3.07345e-05
5.54968e-06
-3.00365e-05
2.77633e-06
-2.74805e-05
2.94027e-06
-2.29137e-05
-1.61484e-05
-2.67252e-06
-1.43456e-05
-1.25312e-06
-2.24846e-05
-4.27357e-06
-2.95332e-05
-7.74496e-06
-3.5181e-05
-1.00493e-05
-3.82435e-05
-9.95952e-06
-3.89254e-05
-6.88863e-06
-3.81668e-05
-1.37473e-06
-3.27637e-05
4.42679e-06
-2.4565e-05
8.9921e-06
-2.10755e-05
1.26225e-05
-1.86465e-05
1.606e-05
-1.5398e-05
1.96126e-05
-1.49706e-05