/*--------------------------------*- C++ -*----------------------------------*\
| =========                 |                                                 |
| \\      /  F ield         | OpenFOAM: The Open Source CFD Toolbox           |
|  \\    /   O peration     | Version:  2.3.0                                 |
|   \\  /    A nd           | Web:      www.OpenFOAM.org                      |
|    \\/     M anipulation  |                                                 |
\*---------------------------------------------------------------------------*/
FoamFile
{
    version     2.0;
    format      ascii;
    class       volScalarField;
    location    "5.00182";
    object      epsilonm;
}
// * * * * * * * * * * * * * * * * * * * * * * * * * * * * * * * * * * * * * //

dimensions      [0 2 -3 0 0 0 0];

internalField   nonuniform List<scalar> 
1000
(
0.167105
0.305211
0.229233
0.141903
0.114204
0.0854974
0.0459483
0.0272137
0.0188182
0.024808
0.0479909
0.0444976
0.0236919
0.12497
0.217786
0.0777421
0.0127454
0.0196274
0.0364034
0.0695485
0.27816
0.0987602
0.0125191
0.00332907
0.00230978
0.00201899
0.00199756
0.00242628
0.0041045
0.00410831
0.00454002
0.00319562
0.00563734
0.0192424
0.124513
0.213514
0.0359999
0.0108323
0.00823475
0.0466489
0.32399
0.0189312
0.00248227
0.00164852
0.00112256
0.00141573
0.00184068
0.00263992
0.00481098
0.00586123
0.00619803
0.00768561
0.00617339
0.00689517
0.053434
0.265893
0.0547526
0.0110889
0.0096878
0.0423428
0.356659
0.00834634
0.00293827
0.00280262
0.00211691
0.00200448
0.00232839
0.00320672
0.00507019
0.00858808
0.0121091
0.0132743
0.0115765
0.00835777
0.0472679
0.255625
0.0626908
0.0102806
0.0127227
0.0429816
0.372845
0.00825254
0.00356551
0.0034389
0.00267112
0.00232242
0.0025758
0.00344426
0.00516467
0.00893106
0.0145636
0.0130157
0.0130085
0.00897703
0.0659081
0.259659
0.0683751
0.0151157
0.0121449
0.0394015
0.39546
0.010501
0.00424394
0.00390451
0.00305673
0.00258992
0.00275383
0.00342025
0.0047546
0.00673837
0.0156637
0.0159243
0.00817536
0.0225167
0.0992824
0.223996
0.0966363
0.0468148
0.0099061
0.0327628
0.410785
0.0142297
0.00450228
0.00405291
0.00325759
0.00273585
0.00277529
0.00330351
0.00402022
0.00462995
0.0084931
0.0216051
0.0359451
0.0464187
0.0957401
0.109723
0.0873689
0.102468
0.0714033
0.0342595
0.441793
0.0176942
0.00419142
0.00377231
0.0031522
0.00269984
0.00267606
0.00295426
0.00334377
0.00305825
0.00288387
0.00862545
0.0279221
0.0368401
0.0379899
0.00534485
0.00374089
0.0443182
0.095222
0.04607
0.459693
0.0166203
0.00341239
0.00310438
0.00270616
0.0023855
0.00235492
0.00252959
0.00264353
0.00219251
0.00118477
0.00097554
0.0021986
0.0044278
0.0026994
0.000475812
0.00114045
0.00558682
0.0996413
0.0555605
0.482557
0.0122359
0.00194387
0.00161026
0.00149351
0.00138302
0.00136086
0.00138472
0.00142192
0.00125086
0.000626882
8.57154e-05
9.92442e-05
0.000287975
0.000301204
0.000178296
0.000765483
0.0015543
0.0819973
0.0765527
0.0594102
0.0679905
0.0504086
0.0341762
0.0288763
0.018607
0.0110329
0.0081077
0.00687146
0.00790564
0.0107595
0.00868345
0.00906849
0.0155329
0.0417267
0.0203129
0.00707337
0.00761855
0.0106415
0.0241475
0.0762057
0.0384921
0.003502
0.00138914
0.00118023
0.000932786
0.000799824
0.000879983
0.00136358
0.00118645
0.00107028
0.00105989
0.00100536
0.00114019
0.0336875
0.0325692
0.0110328
0.00465334
0.00452532
0.0208624
0.111973
0.00810986
0.00110032
0.000612912
0.000488588
0.00049573
0.000561548
0.000730878
0.00128615
0.00138623
0.0013501
0.00170189
0.00160566
0.00125836
0.0139308
0.0474262
0.0173678
0.00568012
0.00613845
0.0199869
0.13049
0.00612484
0.00138126
0.000835726
0.00065501
0.000564104
0.000615337
0.000792513
0.00122184
0.00207831
0.00234277
0.00312368
0.00251324
0.00150289
0.0114909
0.0567914
0.0200041
0.00597676
0.00766679
0.0205997
0.146888
0.00754025
0.00185882
0.000918892
0.000706803
0.00057548
0.000607451
0.000775246
0.00109643
0.00197159
0.00379184
0.00463448
0.00227258
0.00182512
0.0156275
0.0637838
0.0224561
0.00797366
0.00832615
0.0202922
0.161175
0.010323
0.00233328
0.000939734
0.000713343
0.000562564
0.000562945
0.000678713
0.000920739
0.00106457
0.00491405
0.00850995
0.00512536
0.00653257
0.0293393
0.0602455
0.0321163
0.0172372
0.00898343
0.016868
0.172524
0.0145868
0.00252494
0.000838411
0.000657759
0.000525555
0.000511281
0.000602509
0.000658357
0.000657864
0.00187025
0.0113159
0.0171948
0.0206064
0.0372847
0.0467467
0.0362754
0.0334491
0.0262899
0.0163332
0.161513
0.0185405
0.00208687
0.000613103
0.000532098
0.000458941
0.000441365
0.000470669
0.000521385
0.000437864
0.000558246
0.00404698
0.0142689
0.0179312
0.0203995
0.00437343
0.00187721
0.0170483
0.0318881
0.0197512
0.24552
0.0185875
0.00138131
0.000397241
0.000364164
0.000337856
0.000336147
0.000353939
0.000352221
0.000324584
0.000230943
0.000378149
0.000949037
0.001601
0.00133718
0.000278669
0.000318478
0.00218727
0.0302983
0.0222208
0.281576
0.015699
0.000520241
0.000204295
0.000196401
0.000191066
0.000188884
0.000188988
0.000195906
0.000200254
0.000174224
0.000117323
0.000137911
0.000146663
0.000148993
0.000167148
0.000223971
0.000749533
0.0246475
0.0292099
0.0354918
0.0354629
0.0243242
0.0186156
0.0136666
0.00841618
0.00623381
0.00529272
0.0049853
0.00488115
0.00523526
0.00566155
0.0056522
0.00621672
0.011989
0.0104984
0.00590612
0.00546527
0.0068452
0.0130063
0.030886
0.01369
0.00165042
0.0013925
0.00134666
0.000589946
0.000489818
0.000517899
0.000728885
0.000635143
0.000597983
0.00062706
0.000590129
0.000651628
0.00962652
0.0104068
0.00623537
0.0029877
0.00316585
0.0127979
0.0319283
0.00534432
0.000675394
0.000368517
0.000315222
0.000275257
0.000292117
0.000363796
0.000569622
0.000572013
0.000681614
0.00102816
0.00102489
0.000885461
0.0057771
0.0139368
0.00862861
0.00380554
0.00513513
0.0122673
0.0375026
0.00507221
0.000991668
0.000382864
0.000301305
0.000253555
0.000269427
0.000347143
0.00046156
0.000571255
0.00126819
0.00189323
0.00149345
0.000970384
0.00462295
0.0203251
0.0105914
0.0041904
0.00620401
0.0128794
0.0378439
0.00679931
0.00144507
0.000383878
0.000278133
0.000219969
0.000221169
0.000269968
0.000341108
0.000488309
0.002066
0.00300804
0.00159287
0.00121289
0.00687256
0.027967
0.0141158
0.00536255
0.00690146
0.0130326
0.0449645
0.00965959
0.00188089
0.000337431
0.000234532
0.000179172
0.000171709
0.000202183
0.000263775
0.00030624
0.00243555
0.00509842
0.00343488
0.00303137
0.0115519
0.0240019
0.0147487
0.0081481
0.00739739
0.0111782
0.0482735
0.013065
0.00206568
0.000248355
0.000190745
0.000155697
0.000148663
0.0001699
0.000181804
0.000243479
0.00129034
0.0065935
0.00925
0.010419
0.0177267
0.0230342
0.0170674
0.0139612
0.0121486
0.0103713
0.0522502
0.0153512
0.00167136
0.000168292
0.000147923
0.000134103
0.000129843
0.000137682
0.000144547
0.000167723
0.000518806
0.0026371
0.00801707
0.00999339
0.0121549
0.00424235
0.00117685
0.00513151
0.0127426
0.0111825
0.0419323
0.0151147
0.00101606
0.000135258
0.000127682
0.000121636
0.000120119
0.000124275
0.000126933
0.000137203
0.000240984
0.000701014
0.00100086
0.00167861
0.00174463
0.000423339
0.000336725
0.00120378
0.0100773
0.0111256
0.0399627
0.0126865
0.000392638
0.000127284
0.000124256
0.00012175
0.000121247
0.000121268
0.000122939
0.000126215
0.000139694
0.000280428
0.000375627
0.00025704
0.000189218
0.000164265
0.000144449
0.000462752
0.00798211
0.01206
0.0584276
0.0632989
0.0595623
0.0490381
0.0315924
0.0199682
0.0135831
0.00994716
0.00844139
0.00855287
0.0107276
0.0160952
0.0118814
0.0165414
0.0369587
0.0188559
0.00674431
0.00659046
0.00977336
0.0243837
0.0397823
0.00550524
0.00291946
0.00386153
0.00370557
0.000946398
0.00084919
0.000935453
0.00137592
0.000995781
0.00100704
0.00126949
0.00119648
0.00274828
0.0403306
0.0338889
0.0107061
0.00355513
0.00383895
0.0221158
0.0310067
0.00299851
0.000945192
0.000661675
0.000545851
0.000502697
0.000563112
0.000752463
0.00123003
0.000890096
0.00101832
0.00145002
0.00135251
0.00127798
0.0224135
0.0525845
0.0185603
0.00405105
0.00571452
0.0216409
0.0292437
0.00367696
0.00138118
0.000820025
0.000649458
0.000563687
0.000616816
0.000825347
0.00122274
0.000773478
0.00169093
0.00235093
0.00190196
0.00136555
0.0129734
0.0617845
0.0207459
0.00448962
0.00763175
0.0221477
0.0290489
0.00548397
0.00188473
0.000927227
0.000705891
0.000575974
0.000610648
0.000793055
0.00106075
0.000705914
0.00242121
0.00308541
0.00202607
0.00219892
0.01736
0.0644833
0.0256189
0.0057376
0.00832076
0.0216659
0.029309
0.0081749
0.00236677
0.000951443
0.00071074
0.000562062
0.000559889
0.000678528
0.000902755
0.000695121
0.00260682
0.00413415
0.0033108
0.00379182
0.0146378
0.0333397
0.016962
0.00755123
0.00677867
0.0191601
0.0311399
0.0107439
0.0025544
0.00084827
0.000657714
0.000525975
0.00051138
0.000603326
0.000707366
0.000776354
0.00206125
0.00516797
0.00646514
0.00740125
0.0133489
0.0183839
0.0130815
0.00856504
0.00754589
0.0145964
0.0310404
0.0118435
0.00221008
0.000621897
0.000531727
0.00045901
0.000443259
0.000473439
0.000490591
0.000528678
0.00111718
0.00363775
0.00638534
0.00938009
0.0126653
0.010245
0.00551886
0.00699496
0.00774256
0.0146703
0.0378364
0.011433
0.00148018
0.000397186
0.000364132
0.000337994
0.000336013
0.000354309
0.00037051
0.000374892
0.000552245
0.00138181
0.00247358
0.00446885
0.00490626
0.00180219
0.00115253
0.00188118
0.00533469
0.0146286
0.0418521
0.00949907
0.000577498
0.000205664
0.000196415
0.000191024
0.000188691
0.000188686
0.000192982
0.000193911
0.000218467
0.000760594
0.00120136
0.00105575
0.000723952
0.000459749
0.000272034
0.00272519
0.00735137
0.0173477
0.128901
0.192328
0.252639
0.228305
0.154384
0.0935194
0.057622
0.0367379
0.026332
0.0280559
0.0511703
0.0981087
0.06857
0.15612
0.209107
0.0765182
0.0116896
0.0152314
0.0352106
0.0735374
0.0764134
0.00699645
0.00719823
0.0114853
0.0103734
0.00210685
0.00205031
0.00245699
0.00415793
0.00371986
0.00351109
0.00546218
0.0155502
0.0345209
0.165978
0.222546
0.036375
0.00808517
0.00680702
0.0518527
0.0630716
0.00269352
0.00229067
0.00181263
0.00126803
0.00145481
0.00184686
0.00263751
0.0049504
0.00383811
0.003306
0.00335685
0.00384476
0.00677209
0.0728743
0.295256
0.0578228
0.00705376
0.00863124
0.0475824
0.0619035
0.00289487
0.00297049
0.00279344
0.00207663
0.00200283
0.00232973
0.00321269
0.00536306
0.00393779
0.00391035
0.00792884
0.00695988
0.00634401
0.0461233
0.272551
0.0646573
0.0117297
0.012864
0.0481708
0.0614092
0.00428824
0.00355678
0.00343301
0.00267381
0.00232256
0.00257743
0.00348355
0.00522744
0.00428642
0.00903995
0.0114064
0.00536565
0.0076121
0.0647337
0.266283
0.0739508
0.0128967
0.0137101
0.0438828
0.0627807
0.0062168
0.00428007
0.00391408
0.00305467
0.00258931
0.00275484
0.00342478
0.00469045
0.00457972
0.0122307
0.0147565
0.0230739
0.0324453
0.0815015
0.20919
0.103224
0.0430304
0.00660093
0.0368219
0.0635101
0.00811045
0.00450205
0.00405802
0.00325686
0.00273549
0.00277337
0.00329574
0.00413196
0.00470008
0.0105283
0.0116801
0.0194045
0.0391954
0.0753011
0.117376
0.062779
0.0356652
0.0236685
0.0327718
0.0650834
0.00832716
0.00419708
0.00377684
0.00315169
0.00269958
0.00267867
0.00296368
0.00327955
0.00391204
0.012805
0.0194932
0.0134109
0.0369434
0.0735675
0.092977
0.0767352
0.0464077
0.0243304
0.0378819
0.0647375
0.00766371
0.00338695
0.00310177
0.00270601
0.00238551
0.00235487
0.00253174
0.00266906
0.00244469
0.00457512
0.0263678
0.0369136
0.0502315
0.081718
0.0424847
0.0301661
0.0428041
0.028768
0.042002
0.0674342
0.0058887
0.00200919
0.00161329
0.00149387
0.00138272
0.00135894
0.00137887
0.00142436
0.00121815
0.000959577
0.0122581
0.0280993
0.0473894
0.0438086
0.00468548
0.00149653
0.0269964
0.0411646
0.0535627
)
;

boundaryField
{
    aeration
    {
        type            fixedValue;
        value           nonuniform List<scalar> 
100
(
0.00015
0.00015
0.00015
0.00015
0.00015
0.00015
0.00015
0.00015
0.00015
0.00015
0.00015
0.00015
0.00015
0.00015
0.00015
0.00015
0.00015
0.00015
0.00015
0.00015
0.00015
0.00015
0.00015
0.00015
0.00015
0.00015
0.00015
0.00015
0.00015
0.00015
0.00015
0.00015
0.00015
0.00015
0.00015
0.00015
0.00015
0.00015
0.00015
0.00015
0.00015
0.00015
0.00015
0.00015
0.00015
0.00015
0.00015
0.00015
0.00015
0.00015
0.00015
0.00015
0.00015
0.00015
0.00015
0.00015
0.00015
0.00015
0.00015
0.00015
0.00015
0.00015
0.00015
0.00015
0.00015
0.00015
0.00015
0.00015
0.00015
0.00015
0.00015
0.00015
0.00015
0.00015
0.00015
0.00015
0.00015
0.00015
0.00015
0.00015
0.00015
0.00015
0.00015
0.00015
0.00015
0.00015
0.00015
0.00015
0.00015
0.00015
0.00015
0.00015
0.00015
0.00015
0.00015
0.00015
0.00015
0.00015
0.00015
0.00015
)
;
    }
    xsides
    {
        type            fixedValue;
        value           nonuniform List<scalar> 
100
(
0.248068
0.414384
0.48829
0.545192
0.580694
0.614821
0.655463
0.698299
0.688314
0.703375
0.0175251
0.0243159
0.0251965
0.0251875
0.0251342
0.0244314
0.0245944
0.0153924
9.05253e-21
9.05253e-21
0.0118589
0.00976717
3.92776e-08
9.05252e-21
9.05246e-21
9.05257e-21
9.05149e-21
9.05015e-21
9.05146e-21
9.05504e-21
0.0223685
0.0149312
0.00833781
0.00662078
0.00595972
0.00613027
0.00702097
0.00647243
9.29727e-20
9.05661e-21
0.219754
0.13037
0.0997173
0.095251
0.0953311
0.0976826
0.10361
0.106798
0.100239
0.0979686
0.101625
0.0739198
0.0690548
0.0706908
0.0665111
0.0548365
0.0562327
0.0721273
0.0847326
0.117445
0.00786046
0.00675106
0.006704
0.00678362
0.00631197
0.00506798
0.00548721
0.00669162
0.0074494
0.00939775
0.00446322
0.00345931
0.00331683
0.00306084
0.00222437
0.00186232
0.00249008
0.003169
0.00314858
0.00297514
0.00764693
0.00683389
0.00680354
0.00689725
0.00636933
0.00543028
0.00385589
0.00397876
0.0036675
0.00407195
0.105643
0.080081
0.076645
0.0780643
0.0725006
0.062312
0.0471392
0.0522261
0.0538348
0.0705836
)
;
    }
    zsides
    {
        type            fixedValue;
        value           nonuniform List<scalar> 
400
(
0.248068
0.414384
0.48829
0.545192
0.580694
0.614821
0.655463
0.698299
0.688314
0.703375
0.691324
0.286718
0.0798831
0.0564296
0.0738589
0.108693
0.145336
0.158004
0.148883
0.113382
0.52165
0.0301978
0.00782635
0.00977474
0.0132439
0.0166308
0.0178971
0.0141212
0.00957697
0.00364347
0.320793
0.00853463
0.00447488
0.00662823
0.00783902
0.00844896
0.00831113
0.00689337
0.00476101
0.00191611
0.256585
0.00645138
0.0034817
0.00526746
0.00618035
0.00663061
0.00661376
0.00584121
0.00427896
0.00183739
0.178594
0.00559908
0.00379878
0.00476621
0.00519539
0.00545292
0.00540683
0.00500525
0.00388098
0.00176549
0.0880771
0.00538639
0.0045347
0.00534398
0.00562838
0.00563881
0.00538674
0.00489299
0.0038452
0.00174559
0.0516459
0.00620756
0.00610496
0.00708417
0.00740154
0.00693612
0.00641978
0.00533765
0.00409085
0.00174378
0.0364189
0.0100758
0.0110991
0.0113896
0.0106855
0.00967745
0.00753467
0.00599079
0.00414892
0.00178984
0.041332
4.0636e-18
7.48145e-17
0.0179337
0.0194908
0.0133719
0.00795374
0.00533175
0.00348202
0.00166754
0.0801027
5.3113e-20
5.30342e-20
5.28709e-20
7.03244e-10
0.0384433
0.0165578
0.00473466
0.00196595
0.00109135
0.0272585
5.30849e-20
5.28698e-20
5.286e-20
5.28223e-20
0.0589295
0.0765066
0.0214287
0.00177406
0.000474433
5.28064e-20
5.30067e-20
5.28703e-20
5.2861e-20
5.28269e-20
0.0351009
0.129515
0.0914358
0.00515185
0.000580161
0.137976
0.00464056
0.000219702
0.000190988
0.00383873
0.0531986
0.158543
0.119611
0.00974646
0.000932163
0.409067
0.244581
0.0967449
0.0919412
0.145571
0.273395
0.280338
0.127797
0.0058296
0.000905037
0.129532
0.361971
0.520222
0.571628
0.611574
0.551796
0.325737
0.0179099
0.00158517
0.000787017
0.0351352
0.0675617
0.114938
0.14624
0.171662
0.268682
0.250636
0.0108967
0.00237292
0.00131254
0.0430621
0.0301573
0.0351788
0.036863
0.0530492
0.136973
0.26441
0.127354
0.0163193
0.00422451
0.0714133
0.0309766
0.0425787
0.0511028
0.0543523
0.0618225
0.198596
0.241402
0.235378
0.203179
0.101625
0.0739198
0.0690548
0.0706908
0.0665111
0.0548365
0.0562327
0.0721273
0.0847326
0.117445
0.219754
0.13037
0.0997173
0.095251
0.0953311
0.0976826
0.10361
0.106798
0.100239
0.0979686
0.488248
0.0291666
0.0255315
0.0409722
0.0620232
0.0891183
0.118095
0.126957
0.117833
0.0913108
0.590568
0.0180018
0.00684042
0.010265
0.0140659
0.0179202
0.019704
0.0171072
0.0115461
0.00466426
0.521138
0.0245811
0.00480577
0.0065221
0.00787399
0.00850636
0.00836434
0.00694112
0.00476548
0.00192334
0.328935
0.0253177
0.00386808
0.00516313
0.00617946
0.00661799
0.00660944
0.00583796
0.00427787
0.00183783
0.194537
0.00582917
0.00388018
0.00476003
0.00519492
0.00544816
0.0054051
0.0050036
0.00388087
0.00176491
0.117022
0.00551859
0.00453398
0.00535358
0.00565093
0.00562204
0.005379
0.00490226
0.00384582
0.00174185
0.0714681
0.00635223
0.0062095
0.0072771
0.00756009
0.00694938
0.0064007
0.00535995
0.00410113
0.00173236
0.051971
0.00992769
0.0108823
0.011412
0.0106609
0.00938014
0.00784645
0.00568959
0.00426084
0.00178592
0.0489213
6.99284e-17
6.65215e-17
7.40987e-20
5.29347e-20
5.29038e-20
0.00471845
0.00374189
0.00373549
0.00163467
0.0871792
5.31139e-20
5.30607e-20
5.28651e-20
5.28597e-20
5.28487e-20
5.28454e-20
5.28725e-20
9.3831e-09
0.00108578
0.168915
5.30505e-20
5.29134e-20
5.28598e-20
5.28337e-20
5.28199e-20
5.28265e-20
5.28429e-20
5.2807e-20
5.28933e-20
4.47428e-18
5.29354e-20
5.29096e-20
5.28602e-20
0.00438893
5.28538e-20
5.28375e-20
5.28585e-20
5.28143e-20
5.27864e-20
0.160676
0.0112093
0.000443011
0.00054676
0.0139788
5.28624e-20
5.28645e-20
5.28479e-20
5.28068e-20
5.28042e-20
0.378484
0.301915
0.144948
0.0929883
0.157963
5.28229e-20
5.28065e-20
5.28066e-20
5.28064e-20
5.28308e-20
0.124437
0.37564
0.574214
0.608935
0.620233
5.28064e-20
5.28064e-20
5.28064e-20
5.27987e-20
2.58256e-05
0.0315396
0.0680756
0.123761
0.150488
0.198379
5.28064e-20
5.28064e-20
5.28064e-20
5.27695e-20
8.56716e-18
0.0317549
0.0168167
0.00828067
5.28064e-20
5.28064e-20
5.28064e-20
5.28064e-20
5.28064e-20
5.28063e-20
5.28706e-20
0.0636667
0.0247497
0.036811
0.0501085
0.0530578
0.0315631
5.28064e-20
5.28064e-20
5.28064e-20
0.0184138
0.105643
0.080081
0.076645
0.0780643
0.0725006
0.062312
0.0471392
0.0522261
0.0538348
0.0705836
)
;
    }
    outlet
    {
        type            inletOutlet;
        inletValue      uniform 0.00015;
        value           nonuniform List<scalar> 
100
(
0.482557
0.281576
0.0399627
0.0418521
0.0674342
0.0122359
0.015699
0.0126865
0.00949907
0.0058887
0.00015
0.00015
0.00015
0.00015
0.00015
0.00015
0.00015
0.00015
0.00015
0.00015
0.00015
0.00015
0.00015
0.00015
0.00015
0.00015
0.00015
0.00015
0.00015
0.00015
0.00015
0.00015
0.00015
0.00015
0.00015
0.00015
0.00015
0.00015
0.00015
0.00015
0.00015
0.00015
0.00015
0.00015
0.00015
0.00015
0.00015
0.00015
0.00015
0.00015
0.00015
0.00015
0.00015
0.00015
0.00015
0.00015
0.00015
0.000280428
0.000760594
0.0122581
0.00015
0.000137911
0.000375627
0.00120136
0.0280993
0.000287975
0.000146663
0.00025704
0.00105575
0.0473894
0.000301204
0.000148993
0.000189218
0.000723952
0.0438086
0.00015
0.00015
0.00015
0.00015
0.00468548
0.00015
0.00015
0.00015
0.00015
0.00015
0.00015
0.00015
0.00015
0.00015
0.0269964
0.0819973
0.0246475
0.00798211
0.00735137
0.0411646
0.0765527
0.0292099
0.01206
0.0173477
0.0535627
)
;
    }
}


// ************************************************************************* //
