/*--------------------------------*- C++ -*----------------------------------*\
| =========                 |                                                 |
| \\      /  F ield         | OpenFOAM: The Open Source CFD Toolbox           |
|  \\    /   O peration     | Version:  2.3.0                                 |
|   \\  /    A nd           | Web:      www.OpenFOAM.org                      |
|    \\/     M anipulation  |                                                 |
\*---------------------------------------------------------------------------*/
FoamFile
{
    version     2.0;
    format      ascii;
    class       volScalarField;
    location    "1.69736";
    object      epsilonm;
}
// * * * * * * * * * * * * * * * * * * * * * * * * * * * * * * * * * * * * * //

dimensions      [0 2 -3 0 0 0 0];

internalField   nonuniform List<scalar> 
1000
(
0.0127758
0.0371451
0.0538326
0.0805377
0.0603173
0.0455351
0.0342947
0.0216288
0.0173883
0.0207582
0.0138559
0.0226946
0.0314515
0.0345867
0.0523715
0.0741752
0.0865172
0.0621778
0.031074
0.0100732
0.00513391
0.0133461
0.0157255
0.0313011
0.0438762
0.041234
0.0298098
0.0266465
0.0191949
0.0164234
0.0169361
0.0247272
0.0407468
0.0346853
0.0350572
0.0399728
0.0255038
0.013436
0.00861774
0.00328012
0.00519668
0.0134066
0.014154
0.026826
0.0328497
0.0387515
0.0356094
0.0335083
0.0301828
0.011073
0.012987
0.0229157
0.0391398
0.0414326
0.0550312
0.0431976
0.0271196
0.00892556
0.00859304
0.00372955
0.00438332
0.00628519
0.0114979
0.0168498
0.0193056
0.0246772
0.0282646
0.048436
0.0578364
0.012078
0.0242072
0.0216261
0.0259685
0.0267701
0.0318847
0.020709
0.014913
0.0114536
0.00975932
0.00461076
0.004541
0.0102884
0.0147235
0.0157666
0.0151687
0.0205071
0.0350949
0.0731954
0.0714139
0.0225608
0.0302277
0.0243626
0.0199623
0.0217202
0.0189213
0.0196073
0.0217165
0.0175778
0.0145047
0.00561784
0.00473731
0.0127391
0.0224503
0.0191342
0.0183458
0.0303124
0.0454234
0.0916014
0.0550549
0.0275699
0.031729
0.0644235
0.0387224
0.0283846
0.0197061
0.0266172
0.040007
0.0197778
0.0162786
0.00603858
0.00422314
0.0134823
0.0242642
0.00754238
0.0306929
0.040729
0.0580486
0.0818969
0.0245639
0.0192168
0.0293009
0.0977438
0.0656572
0.0494485
0.0247387
0.0161988
0.0279397
0.0195002
0.0163039
0.00538496
0.00331805
0.0106682
0.0208017
0.0176513
0.0434539
0.0478357
0.0527888
0.047877
0.0160574
0.0123902
0.0272207
0.113661
0.0769421
0.0646635
0.0345003
0.0229534
0.0224241
0.0136601
0.014165
0.0040215
0.00208288
0.00630559
0.0061367
0.0144043
0.0473316
0.0642022
0.0365429
0.0250936
0.00638391
0.00696039
0.0358223
0.122907
0.0904639
0.0851091
0.048109
0.0366107
0.00688992
0.00766673
0.00947806
0.0021445
0.000461692
0.00246693
0.00111447
0.00082804
0.0212938
0.0512717
0.00754772
0.00299723
0.00101598
0.00827126
0.056177
0.1351
0.0853391
0.11044
0.074472
0.0588122
0.00185732
0.00204676
0.00224601
0.00041943
0.00594596
0.0122852
0.0172906
0.027106
0.0154523
0.00725738
0.00530998
0.00498591
0.00499007
0.00525534
0.00500325
0.00508917
0.00538273
0.00559824
0.00761838
0.0174268
0.025779
0.0147512
0.00850866
0.00468975
0.00245417
0.00595346
0.00819754
0.0135095
0.0209459
0.024658
0.016223
0.00403581
0.00436045
0.00959098
0.00345208
0.00314522
0.00920414
0.0235142
0.0155864
0.0164135
0.00994089
0.00526294
0.00377965
0.00163342
0.00186382
0.00674414
0.008707
0.0128514
0.0163595
0.0238684
0.0235157
0.0173208
0.00930373
0.0100777
0.00770858
0.0075141
0.022279
0.0265301
0.0222536
0.0145952
0.00990193
0.00530559
0.00361391
0.00176048
0.00133122
0.00334402
0.00589204
0.00667118
0.00845401
0.0163147
0.0203637
0.0206362
0.0163727
0.0110906
0.0163882
0.0210462
0.0278283
0.0201995
0.0120853
0.00688011
0.00553982
0.00414319
0.00327072
0.0017288
0.00129458
0.00192735
0.00452044
0.00462865
0.00546028
0.0116327
0.0195686
0.0248145
0.0250736
0.0167637
0.020953
0.0206708
0.0234138
0.0128408
0.0067731
0.00633267
0.00680819
0.00398571
0.00296469
0.00159822
0.00102755
0.00186007
0.00595917
0.00744907
0.00735017
0.0139812
0.0215262
0.0318835
0.0278576
0.0188631
0.022556
0.0269783
0.0179971
0.0134022
0.00785776
0.00975825
0.0111306
0.00393802
0.0025007
0.00116262
0.000710065
0.00171703
0.00622459
0.00777178
0.0128408
0.0195464
0.0266971
0.0335159
0.0202503
0.0150238
0.0224528
0.0375834
0.019989
0.0172348
0.00976918
0.00812079
0.010847
0.00275144
0.00194917
0.000803735
0.000428999
0.0010168
0.00455588
0.0135977
0.0204761
0.0242745
0.0269873
0.0279289
0.0128157
0.0104793
0.0222687
0.042839
0.0245517
0.0227409
0.0140391
0.0103742
0.0113754
0.00156853
0.00133839
0.000400464
0.000248026
0.000567312
0.00141241
0.0117195
0.0233294
0.0286277
0.0230132
0.018918
0.00406322
0.00548331
0.0222135
0.0452468
0.0340332
0.0305893
0.0207224
0.017204
0.00811524
0.000967983
0.000658706
0.000245607
0.00017196
0.000224338
0.0002492
0.00269528
0.0147596
0.0231272
0.00943053
0.00507438
0.000324141
0.0056886
0.0259648
0.0506344
0.0353013
0.0406117
0.03166
0.0241273
0.00189267
0.000238873
0.000225993
0.000167608
0.00445172
0.00747613
0.0101349
0.0161513
0.0149573
0.0109851
0.00595002
0.00740162
0.00500241
0.00493485
0.0048226
0.0118504
0.00644659
0.00600696
0.0114462
0.014348
0.0143724
0.0081803
0.00577435
0.00324767
0.00148517
0.00403696
0.00616569
0.00961029
0.0155224
0.0154492
0.00745148
0.00593902
0.00447853
0.00537708
0.00419805
0.00807359
0.00536156
0.00776366
0.0116593
0.0118447
0.00713672
0.00396878
0.00253956
0.000902153
0.00108628
0.00536689
0.00726065
0.00981816
0.0126238
0.0176947
0.0151086
0.00672194
0.0048939
0.00929347
0.00599382
0.00520859
0.00646252
0.0141417
0.0149306
0.00969242
0.0072352
0.0043778
0.00182412
0.000777029
0.000494362
0.00268971
0.00483037
0.00505193
0.00641612
0.0133794
0.0159377
0.0100076
0.00739924
0.0103945
0.0142994
0.00617419
0.0105883
0.0134251
0.00900692
0.00448941
0.00325848
0.00140289
0.000776445
0.000637618
0.000425302
0.000540348
0.00203486
0.00226929
0.00321474
0.0091466
0.0153643
0.0134672
0.01482
0.0144353
0.0185072
0.00858574
0.0118115
0.00953613
0.00372004
0.00288493
0.00277872
0.00102246
0.000500641
0.000468584
0.000312778
0.000415879
0.00247441
0.00395655
0.00462116
0.0103086
0.0161246
0.01873
0.0208167
0.016228
0.0198576
0.0144038
0.0109328
0.00938147
0.00468334
0.00510935
0.00522754
0.00102818
0.000363917
0.000311005
0.000217535
0.00038181
0.00321096
0.00712597
0.00860049
0.0141163
0.019226
0.0227445
0.0181685
0.0134434
0.0196864
0.0214726
0.0112246
0.0103015
0.00601447
0.0055011
0.00684685
0.000909486
0.000269803
0.000241914
0.00017837
0.000300488
0.00313243
0.0113589
0.0149808
0.0182322
0.0204882
0.0217202
0.0117168
0.00939326
0.0188114
0.025284
0.0131699
0.0125431
0.00877883
0.00741998
0.00841092
0.00077256
0.000206694
0.000163216
0.000156946
0.000187409
0.00110377
0.0101737
0.0172909
0.0205123
0.018652
0.0167371
0.00386019
0.00483759
0.0171967
0.0270055
0.0198719
0.0172539
0.0139231
0.01265
0.00758229
0.000545241
0.000158071
0.000165025
0.00015228
0.000150444
0.000210565
0.0031864
0.0122013
0.0167768
0.00915
0.0054596
0.000292894
0.00439071
0.0184718
0.0311324
0.0230195
0.0247416
0.0216462
0.0168773
0.00252706
0.000179351
0.000142755
0.000154204
0.00596303
0.012273
0.0174309
0.0269296
0.0154531
0.00725394
0.00531707
0.00501373
0.00498102
0.00525571
0.00500129
0.00513459
0.00537467
0.00561259
0.00760852
0.0174332
0.0256878
0.0148427
0.00850029
0.00469493
0.00246543
0.00595561
0.00821823
0.013531
0.0210024
0.0246082
0.0161777
0.00401805
0.00446076
0.00965061
0.00360776
0.00337317
0.00938999
0.0235736
0.0156672
0.0164562
0.00999786
0.00530358
0.00381773
0.001635
0.0018711
0.0067855
0.00874014
0.0128572
0.0163662
0.023882
0.0235839
0.0169865
0.00940679
0.0101777
0.00783673
0.00793229
0.0226791
0.0263928
0.0223531
0.0147183
0.0100076
0.00535708
0.0036543
0.00176258
0.00133336
0.0033744
0.00590324
0.00667162
0.00845026
0.0163146
0.0203753
0.0203754
0.0163874
0.0111676
0.0164766
0.0213889
0.0278821
0.0201625
0.0121718
0.00694827
0.00558581
0.00416686
0.00328973
0.00172856
0.00129444
0.00193629
0.00452728
0.00462433
0.00545266
0.0116435
0.0195764
0.024478
0.0250196
0.0168038
0.0209908
0.0208237
0.0234743
0.0128565
0.00678362
0.00634047
0.00680965
0.00398942
0.00296938
0.00159894
0.00102817
0.00186294
0.00595245
0.00743647
0.00735107
0.0140044
0.0215363
0.0315444
0.027735
0.0188218
0.022535
0.0269319
0.0180702
0.0134166
0.00785597
0.00975099
0.0111199
0.0039384
0.00250544
0.00116307
0.000710642
0.00171942
0.00620791
0.00777993
0.0129104
0.019613
0.0266539
0.0332108
0.0201471
0.014982
0.0223916
0.0374509
0.0200894
0.0172326
0.00976162
0.00811804
0.0108362
0.00275297
0.00195398
0.000803647
0.000429062
0.00101643
0.0045271
0.0135826
0.0205298
0.0243266
0.0268697
0.0276928
0.0127348
0.0104662
0.0222185
0.0427052
0.0247521
0.0228501
0.0140506
0.0103911
0.0113804
0.00156779
0.00133551
0.000400694
0.000247951
0.000567785
0.00140709
0.0116658
0.0232547
0.028616
0.0227916
0.0187168
0.00402714
0.00546951
0.0222089
0.0451852
0.0341345
0.0306884
0.0208407
0.0172574
0.00810996
0.000967336
0.000661493
0.000245523
0.000171942
0.000224323
0.000249173
0.00268144
0.0146308
0.0230003
0.00932667
0.00504531
0.000322464
0.00569371
0.0260868
0.0506843
0.0349888
0.0405587
0.0317094
0.0241107
0.00188812
0.000238928
0.000225977
0.000167632
0.0127999
0.0372053
0.0540543
0.0799013
0.0599963
0.0453491
0.0341682
0.0215354
0.0174698
0.0208993
0.0144176
0.0225835
0.0285431
0.0369509
0.0505013
0.074548
0.0862464
0.0624161
0.0310686
0.0100841
0.00514504
0.013376
0.0157604
0.0312673
0.0440717
0.0415631
0.0299025
0.0266183
0.0193947
0.0166213
0.0192377
0.0264862
0.0349681
0.0368116
0.032977
0.0400047
0.0257058
0.0135009
0.0086635
0.0032806
0.00520793
0.0134947
0.0141938
0.026765
0.032859
0.0386843
0.0353021
0.0329118
0.0301449
0.0112904
0.0130698
0.0233125
0.0392419
0.0372825
0.0550842
0.0434712
0.0274264
0.00897322
0.00863064
0.00373219
0.00438134
0.00629923
0.0114993
0.0168305
0.01931
0.024698
0.0281123
0.0470649
0.0580665
0.012239
0.0244243
0.0216544
0.0261021
0.0274066
0.0320563
0.0208299
0.0149628
0.0114576
0.00976845
0.0046095
0.0045383
0.0102909
0.0147013
0.015751
0.0151633
0.0205718
0.0349793
0.0713444
0.0713913
0.0227003
0.0303716
0.0242563
0.0200059
0.021759
0.0189343
0.0195967
0.0217051
0.0175864
0.01451
0.00561693
0.00473425
0.0127306
0.0224128
0.0191314
0.0183693
0.0303781
0.045252
0.0898137
0.0547919
0.027518
0.0317465
0.0641675
0.0387891
0.0283228
0.0197049
0.0265928
0.0399706
0.0197769
0.016275
0.00603731
0.00422279
0.0134718
0.0242256
0.0075674
0.030836
0.0408588
0.0576919
0.0807679
0.0243526
0.0191567
0.0292302
0.0974698
0.0657828
0.049232
0.0247011
0.0161999
0.0279164
0.0195031
0.0163027
0.00538527
0.00331772
0.0106567
0.0207226
0.0176381
0.0435933
0.0479405
0.0523271
0.0472529
0.0159429
0.0123981
0.0272094
0.113458
0.0771685
0.0646418
0.0344808
0.0229692
0.0224191
0.0136643
0.0141633
0.00402142
0.0020834
0.00630795
0.00611734
0.0142953
0.0471357
0.0642322
0.0358906
0.0246458
0.00632696
0.00695662
0.0359378
0.122901
0.0903323
0.0851404
0.0482701
0.0366675
0.00687926
0.00766244
0.00947774
0.00214457
0.000461314
0.0024646
0.00111786
0.000815482
0.0208955
0.0510054
0.00723591
0.00291714
0.00101092
0.00831401
0.0565834
0.135207
0.0844814
0.110158
0.0744546
0.0586995
0.00185334
0.00205172
0.00224597
0.000419945
)
;

boundaryField
{
    aeration
    {
        type            fixedValue;
        value           nonuniform List<scalar> 
100
(
0.00015
0.00015
0.00015
0.00015
0.00015
0.00015
0.00015
0.00015
0.00015
0.00015
0.00015
0.00015
0.00015
0.00015
0.00015
0.00015
0.00015
0.00015
0.00015
0.00015
0.00015
0.00015
0.00015
0.00015
0.00015
0.00015
0.00015
0.00015
0.00015
0.00015
0.00015
0.00015
0.00015
0.00015
0.00015
0.00015
0.00015
0.00015
0.00015
0.00015
0.00015
0.00015
0.00015
0.00015
0.00015
0.00015
0.00015
0.00015
0.00015
0.00015
0.00015
0.00015
0.00015
0.00015
0.00015
0.00015
0.00015
0.00015
0.00015
0.00015
0.00015
0.00015
0.00015
0.00015
0.00015
0.00015
0.00015
0.00015
0.00015
0.00015
0.00015
0.00015
0.00015
0.00015
0.00015
0.00015
0.00015
0.00015
0.00015
0.00015
0.00015
0.00015
0.00015
0.00015
0.00015
0.00015
0.00015
0.00015
0.00015
0.00015
0.00015
0.00015
0.00015
0.00015
0.00015
0.00015
0.00015
0.00015
0.00015
0.00015
)
;
    }
    xsides
    {
        type            fixedValue;
        value           nonuniform List<scalar> 
100
(
0.0185217
0.00928409
0.00829385
0.00639256
0.00613231
0.00613769
0.00504248
0.0037545
0.00225593
0.00067208
0.00237631
0.00100326
0.000872104
0.000443678
0.000342925
0.000319441
0.000206016
0.000157204
9.34535e-05
6.98105e-05
0.00169497
0.000512292
0.000542318
0.000209943
0.000128796
0.000125396
9.57427e-05
8.42986e-05
7.12789e-05
6.68959e-05
0.0023853
0.00101544
0.000881368
0.000446716
0.000345263
0.000321281
0.00020697
0.000157575
9.35869e-05
6.98237e-05
0.0186235
0.00936868
0.00835908
0.00639896
0.0061238
0.00612955
0.00504061
0.00375404
0.002256
0.000671883
0.0146333
0.00658287
0.00641031
0.00697962
0.00789767
0.00785756
0.00635446
0.00465157
0.00241256
0.000659005
0.00214396
0.00074512
0.00055097
0.000507228
0.00048171
0.000371078
0.000228802
0.000170225
9.27278e-05
7.0099e-05
0.00161563
0.000403783
0.000248381
0.000203685
0.000188383
0.000139892
0.000105439
9.22196e-05
7.38736e-05
6.86901e-05
0.0021483
0.000747826
0.00055314
0.000509359
0.000483937
0.000371989
0.000229219
0.000170312
9.27673e-05
7.01e-05
0.0146839
0.00660907
0.00642303
0.00696705
0.00789426
0.00785397
0.00635457
0.00465118
0.00241251
0.000659353
)
;
    }
    zsides
    {
        type            fixedValue;
        value           nonuniform List<scalar> 
400
(
0.0185217
0.00928409
0.00829385
0.00639256
0.00613231
0.00613769
0.00504248
0.0037545
0.00225593
0.00067208
0.0692594
0.0368879
0.0433427
0.0223945
0.0189556
0.0222047
0.0224436
0.014935
0.00805307
0.00266547
0.109057
0.0486737
0.058185
0.0358675
0.0303299
0.042759
0.045861
0.0337881
0.00814758
0.00172803
0.192464
0.0871055
0.086467
0.0464181
0.0374184
0.051792
0.0559527
0.0817642
0.0486917
0.00174641
5.90949e-20
0.133209
0.106625
0.0553034
0.0409079
0.0529579
0.098294
0.14898
0.154422
0.0669704
5.28064e-20
8.62893e-11
0.138804
0.0935475
0.0735158
0.0978026
0.141385
0.174711
0.201881
0.145095
5.28064e-20
5.2803e-20
0.13212
0.12211
0.127989
0.152305
0.191957
0.184897
0.142546
0.0316303
5.28064e-20
5.2807e-20
0.0949629
0.131305
0.191276
0.247128
0.237521
0.178013
0.113059
0.00868359
5.28064e-20
5.28064e-20
0.0685885
0.133028
0.18919
0.188688
0.138426
0.0731981
0.0166002
0.00135645
5.28064e-20
6.82007e-18
0.0847831
0.101859
0.126287
0.132627
0.0931046
0.0472288
0.0183111
0.0236181
5.28064e-20
5.28077e-20
0.044057
0.120059
0.153192
0.160203
0.148107
0.116373
0.11796
0.171276
4.86655e-18
5.2809e-20
5.2819e-20
5.28725e-20
0.0351444
0.153275
0.243505
0.294583
0.327023
0.383599
5.28064e-20
5.27661e-20
5.27545e-20
7.33651e-14
0.026268
0.0743163
0.145343
0.202503
0.26213
0.251224
5.28064e-20
5.28064e-20
6.36414e-05
0.017807
0.0475974
0.0689164
0.120087
0.171039
0.240165
0.315552
5.28064e-20
2.46269e-08
0.149417
0.0871508
0.0518925
0.0550705
0.0689848
0.104872
0.15865
0.241793
5.28064e-20
0.110142
0.110743
0.0503375
0.0496098
0.0679521
0.0546909
0.0738391
0.128156
0.170837
0.182955
0.0662906
0.073943
0.038383
0.0510241
0.0833875
0.0715546
0.0670044
0.0253024
0.00199698
0.108941
0.0371406
0.0334461
0.0264435
0.0345757
0.0377701
0.033157
0.0198752
0.00993194
0.00232032
0.0546276
0.0259386
0.0239959
0.0219816
0.0275279
0.0291177
0.0257185
0.0194043
0.0112949
0.00276949
0.0146333
0.00658287
0.00641031
0.00697962
0.00789767
0.00785756
0.00635446
0.00465157
0.00241256
0.000659005
0.0186235
0.00936868
0.00835908
0.00639896
0.0061238
0.00612955
0.00504061
0.00375404
0.002256
0.000671883
0.0694062
0.0370974
0.043972
0.0228935
0.0189771
0.0221741
0.022406
0.0149015
0.00805731
0.00266303
0.110032
0.0488781
0.058742
0.0360091
0.0302465
0.0425466
0.0456246
0.0334355
0.00807555
0.00173825
0.190805
0.0873224
0.0865993
0.0463919
0.0373186
0.0516979
0.0561233
0.0811055
0.0475488
0.00170013
6.28798e-20
0.133783
0.106844
0.0552937
0.0408446
0.0530256
0.0992194
0.149459
0.153144
0.0647149
5.28064e-20
9.37503e-11
0.138946
0.0935142
0.0738409
0.0981179
0.142301
0.175359
0.201409
0.143109
5.28064e-20
5.2801e-20
0.131871
0.122059
0.128035
0.15254
0.191342
0.18332
0.13925
0.0296012
5.28064e-20
5.28072e-20
0.0932314
0.128319
0.18765
0.2436
0.234448
0.175382
0.109633
0.00822655
5.28064e-20
5.28064e-20
0.0688781
0.133469
0.188686
0.187487
0.136893
0.0715292
0.0161194
0.00135
5.28064e-20
2.0935e-17
0.0862585
0.102991
0.126602
0.131615
0.0917817
0.0467116
0.0182095
0.0237394
5.28064e-20
5.28074e-20
0.0449298
0.121303
0.153396
0.159505
0.146637
0.115429
0.118209
0.172972
1.65412e-14
5.28085e-20
5.2819e-20
5.28725e-20
0.0349454
0.152514
0.242296
0.293498
0.326868
0.384189
5.28064e-20
5.27696e-20
5.27561e-20
1.1367e-13
0.0264065
0.0747139
0.146165
0.204129
0.261447
0.247778
5.28064e-20
5.28066e-20
0.000462334
0.02094
0.0482203
0.0688194
0.119979
0.171616
0.240846
0.31475
5.28064e-20
5.28708e-07
0.150333
0.0879682
0.0519062
0.0550414
0.0688894
0.10501
0.159838
0.242395
5.28064e-20
0.110783
0.112262
0.0509611
0.049558
0.0678118
0.0546978
0.0740867
0.128903
0.170466
0.182519
0.0671385
0.0754288
0.0387494
0.0509385
0.0832738
0.0714844
0.0670171
0.0251728
0.00198619
0.109625
0.0376723
0.0342084
0.0265682
0.0345371
0.037757
0.0331641
0.0198836
0.00992064
0.00232445
0.0547402
0.0263709
0.0243469
0.0220566
0.0275014
0.0290985
0.0257116
0.0193963
0.0112938
0.00276941
0.0146839
0.00660907
0.00642303
0.00696705
0.00789426
0.00785397
0.00635457
0.00465118
0.00241251
0.000659353
)
;
    }
    outlet
    {
        type            inletOutlet;
        inletValue      uniform 0.00015;
        value           nonuniform List<scalar> 
100
(
0.00015
0.00015
0.00015
0.00015
0.00015
0.00015
0.00015
0.00015
0.00015
0.00015
0.00015
0.00015
0.00015
0.00015
0.00015
0.00015
0.00269528
0.0031864
0.00268144
0.00015
0.0212938
0.0147596
0.0122013
0.0146308
0.0208955
0.0512717
0.0231272
0.0167768
0.0230003
0.0510054
0.00754772
0.00943053
0.00915
0.00932667
0.00723591
0.00299723
0.00507438
0.0054596
0.00504531
0.00291714
0.00015
0.00015
0.00015
0.00015
0.00015
0.00827126
0.0056886
0.00439071
0.00569371
0.00831401
0.056177
0.0259648
0.0184718
0.0260868
0.0565834
0.1351
0.0506344
0.0311324
0.0506843
0.135207
0.0853391
0.0353013
0.0230195
0.0349888
0.0844814
0.11044
0.0406117
0.0247416
0.0405587
0.110158
0.074472
0.03166
0.0216462
0.0317094
0.0744546
0.0588122
0.0241273
0.0168773
0.0241107
0.0586995
0.00015
0.00015
0.00015
0.00015
0.00015
0.00015
0.00015
0.00015
0.00015
0.00015
0.00015
0.00015
0.00015
0.00015
0.00015
0.00015
0.00015
0.00015
0.00015
0.00015
)
;
    }
}


// ************************************************************************* //
