/*--------------------------------*- C++ -*----------------------------------*\
| =========                 |                                                 |
| \\      /  F ield         | OpenFOAM: The Open Source CFD Toolbox           |
|  \\    /   O peration     | Version:  2.3.0                                 |
|   \\  /    A nd           | Web:      www.OpenFOAM.org                      |
|    \\/     M anipulation  |                                                 |
\*---------------------------------------------------------------------------*/
FoamFile
{
    version     2.0;
    format      ascii;
    class       volScalarField;
    location    "1.69736";
    object      epsilon.air;
}
// * * * * * * * * * * * * * * * * * * * * * * * * * * * * * * * * * * * * * //

dimensions      [0 2 -3 0 0 0 0];

internalField   nonuniform List<scalar> 
1000
(
0.0146584
0.0397755
0.0538329
0.0805377
0.0603173
0.0455351
0.0342947
0.0216288
0.0173883
0.0207582
0.0138559
0.0226946
0.0314515
0.0345867
0.0523715
0.0741752
0.0865172
0.0624011
0.0337824
0.0110632
0.0216075
0.0178811
0.0184226
0.0320313
0.0442424
0.0413392
0.0298919
0.0266945
0.0191949
0.0164234
0.0169576
0.0268894
0.0429927
0.0351676
0.0365424
0.048543
0.0331133
0.0220645
0.0272184
0.0244085
0.0279799
0.0157197
0.0147112
0.0284243
0.0368901
0.042309
0.0357975
0.0335083
0.0301828
0.011073
0.012987
0.0249057
0.0412196
0.0416498
0.0578636
0.0497721
0.0330764
0.0143973
0.0400799
0.0322228
0.0316577
0.0118814
0.0163161
0.0218115
0.0241561
0.0298394
0.0318749
0.048436
0.0578364
0.012078
0.0242072
0.0278311
0.0343065
0.0304417
0.0416645
0.0346187
0.0467294
0.0706951
0.0847435
0.0411893
0.0405331
0.0785704
0.0372032
0.0225516
0.0192114
0.0246778
0.0401856
0.0731954
0.0714139
0.0225608
0.0302329
0.0266387
0.0242821
0.0283913
0.0351877
0.0387313
0.0439727
0.113567
0.129846
0.0503316
0.0424343
0.0923823
0.028863
0.0194917
0.0203329
0.0363991
0.0501545
0.0916014
0.0550549
0.0275699
0.0327719
0.066488
0.0462397
0.0363821
0.0253785
0.0317677
0.0478237
0.0927931
0.145764
0.0541025
0.0378254
0.0840635
0.028827
0.00754238
0.0313377
0.0472891
0.0581381
0.0818969
0.0245639
0.0205451
0.0328692
0.101355
0.0749366
0.0624874
0.0306544
0.0166752
0.0279639
0.0826568
0.146024
0.0482465
0.0297176
0.063347
0.0243234
0.0176513
0.0434539
0.0497386
0.0527888
0.047877
0.0163826
0.014291
0.0318309
0.117909
0.0818034
0.0790226
0.0418312
0.0233761
0.0224244
0.0714082
0.126887
0.0360306
0.0186612
0.0529607
0.00870767
0.0144043
0.0473316
0.0642022
0.0365429
0.0250942
0.00757164
0.00848804
0.0429415
0.126447
0.0904849
0.0947098
0.0568162
0.0366288
0.00786973
0.0522031
0.0849113
0.0192136
0.00413654
0.0221009
0.00955128
0.00133538
0.0213027
0.0512717
0.00858511
0.00387125
0.00745296
0.0096896
0.0659301
0.135882
0.0853391
0.110547
0.0763537
0.0588122
0.0118202
0.0183152
0.0201232
0.00375789
0.00651351
0.0123657
0.0172906
0.027106
0.0154523
0.00725738
0.00530998
0.00498591
0.00499007
0.00525534
0.00500325
0.00508917
0.00538273
0.00559824
0.00761838
0.0174268
0.025779
0.0147658
0.00930179
0.005255
0.00826501
0.00729622
0.00852951
0.0135095
0.0209459
0.024658
0.016223
0.00403581
0.00436045
0.00959098
0.00345208
0.00314522
0.00920414
0.0235142
0.0155864
0.0164273
0.0115743
0.00765313
0.0148569
0.0135065
0.0100336
0.00755285
0.00870701
0.0128514
0.0163595
0.0238684
0.0235157
0.0173208
0.00930373
0.0100777
0.00770858
0.0075141
0.022279
0.0265301
0.0222536
0.0146798
0.0114122
0.00939308
0.0229804
0.0156649
0.0102641
0.00549371
0.0068228
0.00737002
0.00884708
0.0163148
0.0203637
0.0206362
0.0163727
0.0110906
0.0163882
0.0210462
0.0278283
0.0201995
0.013043
0.00897693
0.0135869
0.0212656
0.0290284
0.0154845
0.0115646
0.0111202
0.00638624
0.00553133
0.00626509
0.0119013
0.0195686
0.0248145
0.0250736
0.0167637
0.020953
0.0206708
0.0234138
0.0128425
0.00874304
0.00908185
0.0106399
0.0156899
0.0265192
0.0143191
0.00919752
0.00890827
0.00665509
0.00746535
0.00776325
0.0140459
0.0215262
0.0318835
0.0278576
0.0188631
0.022556
0.0269783
0.0179971
0.0134518
0.00917125
0.0109733
0.0123904
0.010374
0.0223692
0.0104165
0.00635556
0.00723893
0.00626173
0.00777178
0.0129663
0.0195469
0.0266971
0.0335159
0.0202503
0.0150238
0.0224528
0.0375834
0.019989
0.0172356
0.0110516
0.00815518
0.010847
0.00619133
0.0174445
0.00720105
0.00384015
0.00415183
0.00457138
0.0135977
0.0204799
0.0242745
0.0269873
0.0279289
0.0128157
0.0104793
0.0222687
0.042839
0.0245517
0.0227409
0.0149239
0.0104355
0.0113754
0.0033697
0.0119833
0.00358795
0.00222213
0.00452858
0.00163815
0.0117195
0.0233294
0.0286277
0.0230132
0.018918
0.00406368
0.00548706
0.0222135
0.0452468
0.0340332
0.0305893
0.0209515
0.0172396
0.00811525
0.00304757
0.00589959
0.00220052
0.00154068
0.00200974
0.00180582
0.00271989
0.0147596
0.0231272
0.00943053
0.00507438
0.000880912
0.00589226
0.0259648
0.0506344
0.0353013
0.0406117
0.0316627
0.0241274
0.00226034
0.00210159
0.00202479
0.00150169
0.00445268
0.00747613
0.0101349
0.0161513
0.0149573
0.0109851
0.00595002
0.00740162
0.00500241
0.00493485
0.0048226
0.0118504
0.00644659
0.00600696
0.0114462
0.014348
0.0143724
0.0081803
0.006269
0.00363914
0.0042191
0.00463241
0.00616583
0.00961029
0.0155224
0.0154492
0.00745148
0.00593902
0.00447853
0.00537708
0.00419805
0.00807359
0.00536156
0.00776366
0.0116593
0.0118447
0.00720029
0.00504177
0.0108403
0.00777806
0.00616208
0.00584088
0.00726065
0.00981816
0.0126238
0.0176947
0.0151086
0.00672194
0.0048939
0.00929347
0.00599382
0.00520859
0.00646252
0.0141417
0.0149306
0.00969242
0.00811342
0.00795727
0.0128127
0.00694731
0.00391668
0.00434926
0.0053377
0.00519235
0.00641612
0.0133794
0.0159377
0.0100076
0.00739924
0.0103945
0.0142994
0.00617419
0.0105883
0.0134251
0.0090115
0.00570301
0.0078468
0.00661105
0.00691488
0.00571233
0.0038006
0.00286262
0.00246663
0.00261159
0.00355757
0.0091466
0.0153643
0.0134672
0.01482
0.0144353
0.0185072
0.00858574
0.0118115
0.00953613
0.00444981
0.00378422
0.0038433
0.00319083
0.00447617
0.00419826
0.00279917
0.0018427
0.00260352
0.00399894
0.00484265
0.0103086
0.0161246
0.01873
0.0208167
0.016228
0.0198576
0.0144038
0.0109328
0.00938147
0.00529553
0.0056404
0.00575248
0.00222386
0.00325346
0.00278644
0.00194691
0.00152583
0.00321657
0.00712597
0.00861327
0.0141163
0.019226
0.0227445
0.0181685
0.0134434
0.0196864
0.0214726
0.0112246
0.0103015
0.00644194
0.00554093
0.0068469
0.00166578
0.00241365
0.00216742
0.00159695
0.00115725
0.0031361
0.0113589
0.0149808
0.0182322
0.0204882
0.0217202
0.0117168
0.00939326
0.0188114
0.025284
0.0131699
0.0125431
0.00881214
0.00743166
0.00841092
0.00134543
0.00185001
0.00146234
0.00140613
0.00148463
0.00126271
0.0101737
0.0172909
0.0205123
0.018652
0.0167371
0.00386019
0.00483759
0.0171967
0.0270055
0.0198719
0.0172539
0.0139232
0.0126532
0.00758229
0.00131286
0.00141544
0.00147854
0.00136436
0.00134778
0.0013984
0.0031864
0.0122013
0.0167768
0.00915
0.0054596
0.000473289
0.00439084
0.0184718
0.0311324
0.0230195
0.0247416
0.0216462
0.0168773
0.00264651
0.00151836
0.00127901
0.00138159
0.00653175
0.0123505
0.0174309
0.0269296
0.0154531
0.00725394
0.00531707
0.00501373
0.00498102
0.00525571
0.00500129
0.00513459
0.00537467
0.00561259
0.00760852
0.0174332
0.0256878
0.0148579
0.00928947
0.00526026
0.00830625
0.00729485
0.00853348
0.013531
0.0210024
0.0246082
0.0161777
0.00401805
0.00446076
0.00965061
0.00360776
0.00337317
0.00938999
0.0235736
0.0156672
0.0164719
0.0116447
0.00768074
0.0149601
0.013517
0.0100648
0.00759313
0.00874015
0.0128572
0.0163662
0.023882
0.0235839
0.0169865
0.00940679
0.0101777
0.00783673
0.00793229
0.0226791
0.0263928
0.0223531
0.0148069
0.0115321
0.00943038
0.0231437
0.0156832
0.0102742
0.00552774
0.00683553
0.0073725
0.00884192
0.0163146
0.0203753
0.0203754
0.0163874
0.0111676
0.0164766
0.0213889
0.0278821
0.0201625
0.0131434
0.00905513
0.0136701
0.02135
0.0291931
0.0154824
0.0115632
0.0111693
0.00639801
0.00552613
0.00625688
0.0119067
0.0195764
0.024478
0.0250196
0.0168038
0.0209908
0.0208237
0.0234743
0.0128585
0.00875729
0.00909342
0.0106434
0.0156969
0.026561
0.0143256
0.00920303
0.00891878
0.00664756
0.00745278
0.0077669
0.0140666
0.0215363
0.0315444
0.027735
0.0188218
0.022535
0.0269319
0.0180702
0.0134685
0.0091683
0.0109647
0.0123775
0.0103647
0.0224115
0.0104205
0.00636072
0.00724652
0.00624498
0.00777993
0.0130343
0.0196134
0.0266539
0.0332108
0.0201471
0.014982
0.0223916
0.0374509
0.0200894
0.0172333
0.0110435
0.00815238
0.0108362
0.00618841
0.0174875
0.00720027
0.0038407
0.00414895
0.00454251
0.0135826
0.0205333
0.0243266
0.0268697
0.0276928
0.0127348
0.0104662
0.0222185
0.0427052
0.0247521
0.0228501
0.0149467
0.0104538
0.0113804
0.00336483
0.0119575
0.00359001
0.00222145
0.00453239
0.00163205
0.0116658
0.0232547
0.028616
0.0227916
0.0187168
0.00402759
0.00547276
0.0222089
0.0451852
0.0341345
0.0306884
0.021081
0.0172947
0.00810997
0.00304132
0.00592455
0.00219977
0.00154052
0.0020096
0.00180536
0.00270596
0.0146308
0.0230003
0.00932667
0.00504531
0.000867804
0.00589567
0.0260868
0.0506843
0.0349888
0.0405587
0.0317123
0.0241107
0.00225402
0.00210195
0.00202465
0.0015019
0.0146839
0.0398312
0.0540546
0.0799013
0.0599963
0.0453491
0.0341682
0.0215354
0.0174698
0.0208993
0.0144176
0.0225835
0.0285431
0.0369509
0.0505013
0.074548
0.0862464
0.062641
0.0337733
0.0110738
0.021722
0.017909
0.0184576
0.0320233
0.0444239
0.0417056
0.0300315
0.0267052
0.0193947
0.0166213
0.0192565
0.0285809
0.0367575
0.0372807
0.0343769
0.04858
0.0333401
0.0221456
0.027325
0.0244086
0.0281008
0.0158049
0.0147709
0.0284146
0.0369422
0.042338
0.0355506
0.0329118
0.0301449
0.0112904
0.0130698
0.0251931
0.0412765
0.037464
0.0579763
0.0500639
0.0334238
0.0144026
0.0401662
0.032245
0.0316595
0.0118444
0.0163158
0.021792
0.0241651
0.0298642
0.0317299
0.0470649
0.0580665
0.012239
0.0244243
0.0279018
0.0345204
0.0310916
0.0418732
0.0346987
0.0467002
0.070634
0.084809
0.041178
0.0405095
0.0786034
0.0371901
0.0225197
0.0192037
0.0247545
0.0400666
0.0713444
0.0713913
0.0227003
0.0303762
0.0265954
0.0243385
0.0284714
0.0351996
0.038704
0.0439476
0.113588
0.129892
0.0503234
0.0424069
0.0923704
0.0288229
0.0194834
0.0203684
0.0364789
0.0500294
0.0898137
0.0547919
0.027518
0.0327603
0.066268
0.0463425
0.0363353
0.0253786
0.0317415
0.0477813
0.0927362
0.145732
0.0540911
0.0378223
0.0840657
0.0287859
0.0075674
0.0314772
0.0474316
0.0577855
0.0807679
0.0243526
0.0204588
0.0327654
0.101081
0.0751432
0.0622568
0.0306055
0.0166773
0.0279407
0.0826122
0.146014
0.0482493
0.0297146
0.0633373
0.0242364
0.0176381
0.0435933
0.0498008
0.0523271
0.0472529
0.0162584
0.0142957
0.0318074
0.11769
0.0820523
0.0790361
0.041805
0.0233955
0.0224194
0.0713873
0.126872
0.03603
0.0186659
0.0529898
0.00868738
0.0142953
0.0471357
0.0642322
0.0358906
0.0246463
0.00750311
0.00847454
0.0430548
0.126423
0.0903508
0.0947633
0.0570063
0.0366862
0.00785905
0.0521583
0.0849085
0.0192143
0.00413315
0.02208
0.00958119
0.00131794
0.0209047
0.0510054
0.00824513
0.00377194
0.00739907
0.00973774
0.0663659
0.135989
0.0844814
0.110269
0.0763794
0.0586995
0.0117909
0.0183595
0.0201228
0.00376251
)
;

boundaryField
{
    aeration
    {
        type            fixedValue;
        value           uniform 0.00015;
    }
    xsides
    {
        type            epsilonWallFunction;
        value           nonuniform List<scalar> 
100
(
0.0228098
0.0744312
0.0940862
0.111
0.16325
0.164548
0.135168
0.100636
0.0604979
0.0180239
0.00269751
0.00517433
0.00905127
0.00838643
0.00914014
0.00855431
0.00551659
0.0042097
0.00250611
0.00187218
0.001695
0.00187609
0.00588263
0.004148
0.00343546
0.00335698
0.00256316
0.00225795
0.00191149
0.00179402
0.00270738
0.00524423
0.0091393
0.00843319
0.00920225
0.00860356
0.00554213
0.00421962
0.00250969
0.00187254
0.0229292
0.0754827
0.0951857
0.111246
0.163028
0.164329
0.135118
0.100624
0.0604996
0.0180186
0.0169968
0.127804
0.160057
0.18598
0.211785
0.210723
0.170413
0.124746
0.0647001
0.0176732
0.00254282
0.0170688
0.0145433
0.0135922
0.0129183
0.0099515
0.00613598
0.00456508
0.00248677
0.00187992
0.00191114
0.010002
0.00662615
0.00546132
0.005052
0.0037516
0.00282765
0.00247314
0.00198114
0.00184213
0.00254756
0.0171244
0.0145999
0.0136493
0.0129781
0.00997595
0.00614718
0.00456742
0.00248783
0.00187994
0.017052
0.128278
0.160367
0.185644
0.211693
0.210627
0.170416
0.124735
0.0646987
0.0176826
)
;
        Cmu             0.09;
        kappa           0.41;
        E               9.8;
        value           nonuniform List<scalar> 
100
(
0.0228098
0.0744312
0.0940862
0.111
0.16325
0.164548
0.135168
0.100636
0.0604979
0.0180239
0.00269751
0.00517433
0.00905127
0.00838643
0.00914014
0.00855431
0.00551659
0.0042097
0.00250611
0.00187218
0.001695
0.00187609
0.00588263
0.004148
0.00343546
0.00335698
0.00256316
0.00225795
0.00191149
0.00179402
0.00270738
0.00524423
0.0091393
0.00843319
0.00920225
0.00860356
0.00554213
0.00421962
0.00250969
0.00187254
0.0229292
0.0754827
0.0951857
0.111246
0.163028
0.164329
0.135118
0.100624
0.0604996
0.0180186
0.0169968
0.127804
0.160057
0.18598
0.211785
0.210723
0.170413
0.124746
0.0647001
0.0176732
0.00254282
0.0170688
0.0145433
0.0135922
0.0129183
0.0099515
0.00613598
0.00456508
0.00248677
0.00187992
0.00191114
0.010002
0.00662615
0.00546132
0.005052
0.0037516
0.00282765
0.00247314
0.00198114
0.00184213
0.00254756
0.0171244
0.0145999
0.0136493
0.0129781
0.00997595
0.00614718
0.00456742
0.00248783
0.00187994
0.017052
0.128278
0.160367
0.185644
0.211693
0.210627
0.170416
0.124735
0.0646987
0.0176826
)
;
    }
    zsides
    {
        type            epsilonWallFunction;
        value           nonuniform List<scalar> 
400
(
0.0228098
0.0744312
0.0940862
0.111
0.16325
0.164548
0.135168
0.100636
0.0604979
0.0180239
0.0762684
0.0561967
0.0538863
0.0451077
0.393192
0.445525
0.356585
0.218883
0.195776
0.0714746
0.109058
0.060833
0.060982
0.0571403
0.127026
0.0631755
0.0597866
0.0429761
0.0138214
0.0433685
0.192464
0.0890493
0.0939706
0.0674742
0.0632886
0.0531605
0.0559527
0.0817642
0.0486917
0.00381611
5.90949e-20
0.13475
0.127667
0.0770856
0.0576094
0.0608933
0.0998033
0.14898
0.154422
0.0671277
5.28064e-20
8.67492e-11
0.159414
0.124102
0.0966159
0.128003
0.174629
0.181007
0.201881
0.145095
5.28064e-20
5.3093e-20
0.133384
0.145893
0.156008
0.173583
0.192102
0.184897
0.142547
0.0389348
5.28064e-20
5.29437e-20
0.0949629
0.131305
0.191276
0.247128
0.237521
0.178013
0.113075
0.0138485
5.28064e-20
5.28064e-20
0.0685885
0.133028
0.18919
0.188688
0.138426
0.0770718
0.0218667
0.0280571
5.28064e-20
6.82007e-18
0.0847831
0.101859
0.126287
0.132628
0.105181
0.0589212
0.0246982
0.0298026
5.28064e-20
5.28606e-20
0.044057
0.120059
0.153316
0.171274
0.177052
0.147294
0.154651
0.214462
4.86655e-18
6.00012e-20
5.96791e-20
7.63162e-20
0.0393495
0.159827
0.255825
0.309268
0.338759
0.385549
5.28064e-20
5.83775e-20
5.87466e-20
1.14117e-13
0.03537
0.0967257
0.17492
0.216206
0.262135
0.251224
5.28064e-20
5.39193e-20
6.44871e-05
0.0226835
0.071799
0.099818
0.169798
0.228595
0.27077
0.315688
5.28064e-20
2.55158e-08
0.160704
0.130405
0.131527
0.0797712
0.0946705
0.139245
0.201005
0.246307
5.28064e-20
0.144612
0.133538
0.105808
0.137494
0.0879851
0.0567344
0.0750827
0.128172
0.170837
0.182955
0.0952314
0.0972669
0.183933
0.144629
0.107996
0.0715971
0.0670047
0.0306332
0.0303794
0.109415
0.0712253
0.0573417
0.365628
0.542593
0.344062
0.250476
0.204534
0.169991
0.0621091
0.0620963
0.120147
0.184058
0.548384
0.736957
0.779966
0.689243
0.520193
0.302854
0.0742722
0.0169968
0.127804
0.160057
0.18598
0.211785
0.210723
0.170413
0.124746
0.0647001
0.0176732
0.0229292
0.0754827
0.0951857
0.111246
0.163028
0.164329
0.135118
0.100624
0.0604996
0.0180186
0.0764026
0.0564684
0.0545744
0.0457895
0.393759
0.44523
0.356399
0.218687
0.195922
0.0714093
0.110032
0.0610599
0.0616817
0.0573668
0.126885
0.0628903
0.0594945
0.0425429
0.0137136
0.0436314
0.190805
0.0893402
0.094392
0.0674621
0.0630728
0.0530404
0.0561233
0.0811055
0.0475488
0.00372381
6.28798e-20
0.135255
0.128121
0.0770868
0.057519
0.061014
0.100715
0.149459
0.153144
0.0648746
5.28064e-20
9.44107e-11
0.160147
0.124054
0.0970366
0.128418
0.175694
0.181446
0.201409
0.143109
5.28064e-20
5.32565e-20
0.133545
0.146023
0.156191
0.174213
0.191494
0.18332
0.13925
0.0365586
5.28064e-20
5.30602e-20
0.0932314
0.128319
0.18765
0.2436
0.234448
0.175382
0.109649
0.0131338
5.28064e-20
5.28064e-20
0.0688781
0.133469
0.188686
0.187487
0.136893
0.0752336
0.0212206
0.0278387
5.28064e-20
2.0935e-17
0.0862585
0.102991
0.126602
0.131616
0.103528
0.0582486
0.0245212
0.0299469
5.28064e-20
5.28469e-20
0.0449298
0.121303
0.153508
0.170274
0.175125
0.146033
0.154844
0.216382
1.65412e-14
5.92866e-20
5.91857e-20
7.64653e-20
0.039288
0.159157
0.254567
0.308089
0.338555
0.386145
5.28064e-20
5.79441e-20
5.85569e-20
1.77068e-13
0.0355668
0.0973163
0.176112
0.217867
0.261451
0.247778
5.28064e-20
5.38202e-20
0.000468192
0.026489
0.0728497
0.0998276
0.169814
0.229539
0.271586
0.314895
5.28064e-20
5.47421e-07
0.161926
0.131557
0.131505
0.0797344
0.0945238
0.139414
0.202526
0.24707
5.28064e-20
0.145495
0.135316
0.106591
0.137323
0.0878161
0.0567469
0.0753476
0.12892
0.170466
0.182519
0.0963202
0.0991073
0.184651
0.14438
0.107852
0.0715271
0.0670174
0.0304846
0.030198
0.110104
0.0721403
0.0583054
0.366511
0.541731
0.343643
0.250261
0.204412
0.169694
0.0622193
0.0622148
0.121896
0.186031
0.550042
0.736245
0.779451
0.689057
0.519979
0.302826
0.0742701
0.017052
0.128278
0.160367
0.185644
0.211693
0.210627
0.170416
0.124735
0.0646987
0.0176826
)
;
        Cmu             0.09;
        kappa           0.41;
        E               9.8;
        value           nonuniform List<scalar> 
400
(
0.0228098
0.0744312
0.0940862
0.111
0.16325
0.164548
0.135168
0.100636
0.0604979
0.0180239
0.0762684
0.0561967
0.0538863
0.0451077
0.393192
0.445525
0.356585
0.218883
0.195776
0.0714746
0.109058
0.060833
0.060982
0.0571403
0.127026
0.0631755
0.0597866
0.0429761
0.0138214
0.0433685
0.192464
0.0890493
0.0939706
0.0674742
0.0632886
0.0531605
0.0559527
0.0817642
0.0486917
0.00381611
5.90949e-20
0.13475
0.127667
0.0770856
0.0576094
0.0608933
0.0998033
0.14898
0.154422
0.0671277
5.28064e-20
8.67492e-11
0.159414
0.124102
0.0966159
0.128003
0.174629
0.181007
0.201881
0.145095
5.28064e-20
5.3093e-20
0.133384
0.145893
0.156008
0.173583
0.192102
0.184897
0.142547
0.0389348
5.28064e-20
5.29437e-20
0.0949629
0.131305
0.191276
0.247128
0.237521
0.178013
0.113075
0.0138485
5.28064e-20
5.28064e-20
0.0685885
0.133028
0.18919
0.188688
0.138426
0.0770718
0.0218667
0.0280571
5.28064e-20
6.82007e-18
0.0847831
0.101859
0.126287
0.132628
0.105181
0.0589212
0.0246982
0.0298026
5.28064e-20
5.28606e-20
0.044057
0.120059
0.153316
0.171274
0.177052
0.147294
0.154651
0.214462
4.86655e-18
6.00012e-20
5.96791e-20
7.63162e-20
0.0393495
0.159827
0.255825
0.309268
0.338759
0.385549
5.28064e-20
5.83775e-20
5.87466e-20
1.14117e-13
0.03537
0.0967257
0.17492
0.216206
0.262135
0.251224
5.28064e-20
5.39193e-20
6.44871e-05
0.0226835
0.071799
0.099818
0.169798
0.228595
0.27077
0.315688
5.28064e-20
2.55158e-08
0.160704
0.130405
0.131527
0.0797712
0.0946705
0.139245
0.201005
0.246307
5.28064e-20
0.144612
0.133538
0.105808
0.137494
0.0879851
0.0567344
0.0750827
0.128172
0.170837
0.182955
0.0952314
0.0972669
0.183933
0.144629
0.107996
0.0715971
0.0670047
0.0306332
0.0303794
0.109415
0.0712253
0.0573417
0.365628
0.542593
0.344062
0.250476
0.204534
0.169991
0.0621091
0.0620963
0.120147
0.184058
0.548384
0.736957
0.779966
0.689243
0.520193
0.302854
0.0742722
0.0169968
0.127804
0.160057
0.18598
0.211785
0.210723
0.170413
0.124746
0.0647001
0.0176732
0.0229292
0.0754827
0.0951857
0.111246
0.163028
0.164329
0.135118
0.100624
0.0604996
0.0180186
0.0764026
0.0564684
0.0545744
0.0457895
0.393759
0.44523
0.356399
0.218687
0.195922
0.0714093
0.110032
0.0610599
0.0616817
0.0573668
0.126885
0.0628903
0.0594945
0.0425429
0.0137136
0.0436314
0.190805
0.0893402
0.094392
0.0674621
0.0630728
0.0530404
0.0561233
0.0811055
0.0475488
0.00372381
6.28798e-20
0.135255
0.128121
0.0770868
0.057519
0.061014
0.100715
0.149459
0.153144
0.0648746
5.28064e-20
9.44107e-11
0.160147
0.124054
0.0970366
0.128418
0.175694
0.181446
0.201409
0.143109
5.28064e-20
5.32565e-20
0.133545
0.146023
0.156191
0.174213
0.191494
0.18332
0.13925
0.0365586
5.28064e-20
5.30602e-20
0.0932314
0.128319
0.18765
0.2436
0.234448
0.175382
0.109649
0.0131338
5.28064e-20
5.28064e-20
0.0688781
0.133469
0.188686
0.187487
0.136893
0.0752336
0.0212206
0.0278387
5.28064e-20
2.0935e-17
0.0862585
0.102991
0.126602
0.131616
0.103528
0.0582486
0.0245212
0.0299469
5.28064e-20
5.28469e-20
0.0449298
0.121303
0.153508
0.170274
0.175125
0.146033
0.154844
0.216382
1.65412e-14
5.92866e-20
5.91857e-20
7.64653e-20
0.039288
0.159157
0.254567
0.308089
0.338555
0.386145
5.28064e-20
5.79441e-20
5.85569e-20
1.77068e-13
0.0355668
0.0973163
0.176112
0.217867
0.261451
0.247778
5.28064e-20
5.38202e-20
0.000468192
0.026489
0.0728497
0.0998276
0.169814
0.229539
0.271586
0.314895
5.28064e-20
5.47421e-07
0.161926
0.131557
0.131505
0.0797344
0.0945238
0.139414
0.202526
0.24707
5.28064e-20
0.145495
0.135316
0.106591
0.137323
0.0878161
0.0567469
0.0753476
0.12892
0.170466
0.182519
0.0963202
0.0991073
0.184651
0.14438
0.107852
0.0715271
0.0670174
0.0304846
0.030198
0.110104
0.0721403
0.0583054
0.366511
0.541731
0.343643
0.250261
0.204412
0.169694
0.0622193
0.0622148
0.121896
0.186031
0.550042
0.736245
0.779451
0.689057
0.519979
0.302826
0.0742701
0.017052
0.128278
0.160367
0.185644
0.211693
0.210627
0.170416
0.124735
0.0646987
0.0176826
)
;
    }
    outlet
    {
        type            inletOutlet;
        phi             phi.air;
        inletValue      uniform 0.00015;
        value           nonuniform List<scalar> 
100
(
0.00015
0.00015
0.00015
0.00015
0.00015
0.00015
0.00015
0.00015
0.00015
0.00015
0.00015
0.00015
0.00015
0.00015
0.00015
0.00015
0.00271989
0.0031864
0.00270596
0.00015
0.0213027
0.0147596
0.0122013
0.0146308
0.0209047
0.0512717
0.0231272
0.0167768
0.0230003
0.0510054
0.00858511
0.00943053
0.00915
0.00932667
0.00824513
0.00387125
0.00507438
0.0054596
0.00504531
0.00377194
0.00015
0.00015
0.00015
0.00015
0.00015
0.0096896
0.00589226
0.00439084
0.00589567
0.00973774
0.0659301
0.0259648
0.0184718
0.0260868
0.0663659
0.135882
0.0506344
0.0311324
0.0506843
0.135989
0.0853391
0.0353013
0.0230195
0.0349888
0.0844814
0.110547
0.0406117
0.0247416
0.0405587
0.110269
0.0763537
0.0316627
0.0216462
0.0317123
0.0763794
0.0588122
0.0241274
0.0168773
0.0241107
0.0586995
0.00015
0.00015
0.00015
0.00015
0.00015
0.00015
0.00015
0.00015
0.00015
0.00015
0.00015
0.00015
0.00015
0.00015
0.00015
0.00015
0.00015
0.00015
0.00015
0.00015
)
;
    }
}


// ************************************************************************* //
