/*--------------------------------*- C++ -*----------------------------------*\
| =========                 |                                                 |
| \\      /  F ield         | OpenFOAM: The Open Source CFD Toolbox           |
|  \\    /   O peration     | Version:  2.3.0                                 |
|   \\  /    A nd           | Web:      www.OpenFOAM.org                      |
|    \\/     M anipulation  |                                                 |
\*---------------------------------------------------------------------------*/
FoamFile
{
    version     2.0;
    format      ascii;
    class       volScalarField;
    location    "1.69736";
    object      rhom;
}
// * * * * * * * * * * * * * * * * * * * * * * * * * * * * * * * * * * * * * //

dimensions      [1 -3 0 0 0 0 0];

internalField   nonuniform List<scalar> 
1000
(
1003.25
994.787
976.658
939.183
908.057
914.953
940.784
937.964
926.148
945.136
944.973
946.23
954.674
932.015
918.737
931.342
966.376
985.76
995.937
999.179
1025.51
1016.64
1006.43
991.048
988.155
983.798
983.925
983.179
962.411
966.591
982.589
992.482
990.859
987.1
989.947
1006.91
1014.36
1020.41
1024.56
1026.79
1026.1
1007.4
994.336
995.157
999.797
997.542
987.437
968.901
936.298
954.082
963.437
992.449
990.756
985.165
993.544
1000.5
1008.81
1020.67
1025.72
1027.05
1026.72
1022.19
1018.41
1015.02
1012.95
1010.65
1001.83
974.292
935.802
961.641
970.711
999.802
1001.38
998.219
1014.6
1020.35
1024.42
1026.36
1027.05
1027.11
1027.1
1026.8
1023.45
1017.99
1014.01
1010.26
1002.04
972.277
937.954
961.701
981.83
995.898
1005.22
1014.71
1021.54
1021.97
1022.09
1026.44
1027.11
1027.11
1027.11
1026.69
1013.23
990.711
999.234
1007.68
997.988
959.938
948.603
974.308
993.321
991.473
1002.9
1013.28
1014.66
1005.84
1003.45
1025.64
1027.11
1027.11
1027.11
1026.36
1003.77
968.251
990.866
1002.72
984.581
951.654
970.189
997.709
1002.08
991.795
998.786
1010.73
1011.4
992.677
983.694
1025.34
1027.11
1027.11
1027.11
1026.24
1001.78
965.196
975.065
993.009
971.82
959.639
992.048
1007.57
1007.08
991.799
994.074
1005.78
1008.04
990.69
978.119
1025.92
1027.11
1027.11
1027.11
1026.99
1017.68
971.437
961.858
973.468
974.858
979.27
1011.18
1013.3
1007.33
990.903
981.347
997.239
1003.74
982.856
1007.67
1026.56
1027.11
1027.11
1027.11
1027.11
1027.03
1021.47
983.066
970.819
1009.23
1017.88
1026.75
1008.62
1002.42
986.749
970.386
983.463
990.92
966.542
1026.43
1027.11
1027.11
1027.11
999.641
987.911
965.022
925.251
872.231
879.432
918.271
910.338
911.049
930.517
923.033
899.915
924.738
905.234
884.959
903.65
956.26
984.028
999.085
1003.86
1024.9
1014.37
994.559
964.389
939.083
905.489
914.225
935.163
930.714
941.131
948.722
959.205
950.406
925.141
928.195
983.97
1007.25
1019.58
1025.39
1026.98
1026.16
1004.99
975.51
966.573
961.347
937.946
913.54
921.19
920.44
919.85
935.268
958.269
939.14
918.223
950.854
987.872
1007.15
1021.94
1026.48
1027.1
1026.85
1021.58
1010.6
1002.33
995.566
976.305
934.767
916.072
905.26
919.225
929.452
950.766
939.872
940.484
998.359
1016.73
1023.61
1025.97
1027.09
1027.11
1027.11
1026.27
1018.37
1011.64
1007.16
992.458
954.786
915.083
893.852
910.58
929.019
943.961
945.258
981.301
1016.25
1018.74
1019.91
1025.25
1027.11
1027.11
1027.11
1025.82
1000.36
986.024
996.387
987.693
951.898
906.315
894.309
915.035
934.179
939.163
944.792
986.938
1008.73
1001.55
999.765
1023.8
1027.11
1027.11
1027.11
1025.48
987.999
966.701
989.473
979.081
942.516
898.427
904.607
930.33
945.787
939.045
943.091
979.636
1003.41
987.604
975.394
1023.05
1027.11
1027.11
1027.11
1025.44
986.979
954.616
981.762
972.053
943.024
906.253
930.583
953.982
959.924
938.957
941.204
969.377
996.322
988.329
962.173
1023
1027.11
1027.11
1027.11
1026.92
1010.61
942.61
968.756
967.027
945.535
919.095
981.751
984.352
964.987
937.441
938.844
960.941
989.541
985.864
976.403
1024.77
1027.11
1027.11
1027.11
1027.11
1026.8
989.81
950.673
954.997
952.514
965.246
1024.52
994.361
961.901
932.327
931.336
950.542
980.485
975.507
1013.39
1027.09
1027.11
1027.11
982.075
953.016
910.711
872.735
820.903
820.473
865.98
856.391
888.909
903.247
901.87
824.09
857.487
862.499
823.254
836.999
908.749
968.037
999.698
1006.06
1024.36
1008.79
979.203
941.839
891.55
843.855
858.563
878.33
895.011
921.714
899.565
876.78
893.263
861.342
857.469
929.465
989.4
1017.06
1025.68
1027.05
1026.31
1001.93
969.952
945.48
921.029
871.795
861.969
875.636
892.04
915.255
901.267
882.16
891.047
866.653
904.299
972.984
1005.2
1022.29
1026.7
1027.11
1026.92
1021.66
1004.71
994.003
975.725
918.164
871.501
874.356
885.867
890.85
902.741
886.522
894.154
898.255
983.658
1016.73
1023.68
1025.86
1027.1
1027.11
1027.11
1026.19
1013.76
1009.43
1003.82
966.388
892.9
874.7
871.223
868.029
895.466
890.674
902.664
951.01
1013.62
1017.39
1018.45
1024.71
1027.11
1027.11
1027.11
1025.81
995.617
990.152
996.298
961.818
891.443
873.098
859.497
862.095
885.449
893.464
906.094
970.539
1006.12
1001.24
1000.46
1023.19
1027.11
1027.11
1027.11
1025.56
985.848
966.682
985.567
946.409
888.456
863.752
859.238
864.347
886.556
894.077
904.426
960.668
998.475
989.181
977.849
1022.32
1027.11
1027.11
1027.11
1025.56
985.207
946.094
973.134
932.131
890.586
863.108
877.795
890.634
892.993
894.401
902.295
946.093
987.368
985.763
962.165
1022.17
1027.11
1027.11
1027.11
1026.94
1010.51
939.335
956.661
922.853
897.294
866.889
963.095
946.075
905.186
894.412
901.21
934.841
975.236
982.497
961.795
1023.99
1027.11
1027.11
1027.11
1027.11
1026.67
975.835
931.889
914.623
911.721
922.678
1021.91
979.732
913.984
893.444
897.318
921.623
957.078
970.802
996.191
1027.04
1027.11
1027.11
999.633
987.823
965.152
925.289
870.725
876.268
916.144
909.264
911.475
930.437
923.118
896.244
925.656
905.147
886.094
903.379
956.085
984.08
999.068
1003.85
1024.9
1014.34
994.31
965.013
939.441
907.672
916.27
934.36
932.09
941.731
947.087
956.563
947.219
922.329
928.208
984.182
1007.28
1019.52
1025.38
1026.98
1026.15
1004.86
975.556
966.9
961.529
938.842
915.242
922.186
920.815
919.442
934.429
956.394
936.374
917.772
951.111
987.961
1007.1
1021.9
1026.47
1027.1
1026.85
1021.56
1010.61
1002.37
995.55
976.036
935.147
917.344
905.014
918.135
928.84
950.384
938.328
940.523
998.41
1016.69
1023.6
1025.97
1027.09
1027.11
1027.11
1026.27
1018.39
1011.65
1007.16
992.379
954.156
916.454
893.734
910.248
928.447
944.172
945.124
981.507
1016.25
1018.75
1019.91
1025.25
1027.11
1027.11
1027.11
1025.82
1000.37
986.031
996.423
987.597
951.36
908.254
894.487
914.977
933.592
939.467
944.558
987.033
1008.71
1001.55
999.759
1023.79
1027.11
1027.11
1027.11
1025.48
988
966.633
989.421
978.898
942.722
900.293
905.352
930.072
945.209
939.105
942.817
979.682
1003.43
987.601
975.39
1023.04
1027.11
1027.11
1027.11
1025.44
986.978
954.597
981.623
971.9
943.664
907.603
930.699
953.578
959.344
938.963
941.061
969.435
996.399
988.385
962.18
1022.99
1027.11
1027.11
1027.11
1026.92
1010.61
942.634
968.7
966.984
946.275
919.33
981.711
984.115
964.724
937.463
938.766
960.981
989.657
985.95
976.323
1024.77
1027.11
1027.11
1027.11
1027.11
1026.8
989.805
950.802
955.283
952.945
964.9
1024.48
994.318
961.753
932.455
931.122
950.464
980.593
975.553
1013.36
1027.09
1027.11
1027.11
1003.24
994.769
976.691
939.174
907.47
914.503
941.329
938.51
926.141
944.814
944.36
944.087
953.581
931.127
918.195
931.243
966.274
985.767
995.935
999.173
1025.52
1016.62
1006.39
991.167
988.049
984.315
984.73
984.196
962.953
965.943
982.181
992.095
990.617
986.903
989.954
1006.95
1014.31
1020.4
1024.56
1026.79
1026.1
1007.27
994.495
995.34
999.9
997.749
988.115
970.331
936.43
953.212
963.092
992.164
990.675
985.164
993.635
1000.48
1008.73
1020.63
1025.71
1027.05
1026.72
1022.17
1018.41
1015.03
1012.96
1010.64
1001.96
975.506
935.793
961.166
970.48
999.867
1001.45
998.266
1014.58
1020.31
1024.41
1026.36
1027.05
1027.11
1027.1
1026.8
1023.46
1017.98
1014.01
1010.25
1002.1
973.506
937.858
961.527
981.662
996.081
1005.27
1014.79
1021.54
1021.97
1022.09
1026.44
1027.11
1027.11
1027.11
1026.69
1013.24
990.662
999.273
1007.68
998.108
961.132
948.705
974.256
993.198
991.546
1002.97
1013.35
1014.66
1005.85
1003.45
1025.64
1027.11
1027.11
1027.11
1026.36
1003.77
968.131
990.836
1002.71
984.676
952.212
970.325
997.567
1001.97
991.804
998.848
1010.82
1011.4
992.684
983.703
1025.33
1027.11
1027.11
1027.11
1026.24
1001.78
965.077
974.849
992.911
971.873
959.935
991.948
1007.41
1006.95
991.79
994.086
1005.87
1008.04
990.717
978.134
1025.92
1027.11
1027.11
1027.11
1026.99
1017.69
971.396
961.66
973.242
974.973
979.227
1011.06
1013.2
1007.21
990.887
981.17
997.258
1003.76
982.916
1007.68
1026.55
1027.11
1027.11
1027.11
1027.11
1027.03
1021.48
983.146
970.694
1009.51
1017.87
1026.75
1008.57
1002.35
986.747
970.5
983.529
990.997
966.617
1026.43
1027.11
1027.11
1027.11
)
;

boundaryField
{
    aeration
    {
        type            calculated;
        value           nonuniform List<scalar> 
100
(
770.914
770.914
770.914
770.914
770.914
770.914
770.914
770.914
770.914
770.914
770.914
770.914
770.914
770.914
770.914
770.914
770.914
770.914
770.914
770.914
770.914
770.914
770.914
770.914
770.914
770.914
770.914
770.914
770.914
770.914
770.914
770.914
770.914
770.914
770.914
770.914
770.914
770.914
770.914
770.914
770.914
770.914
770.914
770.914
770.914
770.914
770.914
770.914
770.914
770.914
770.914
770.914
770.914
770.914
770.914
770.914
770.914
770.914
770.914
770.914
770.914
770.914
770.914
770.914
770.914
770.914
770.914
770.914
770.914
770.914
770.914
770.914
770.914
770.914
770.914
770.914
770.914
770.914
770.914
770.914
770.914
770.914
770.914
770.914
770.914
770.914
770.914
770.914
770.914
770.914
770.914
770.914
770.914
770.914
770.914
770.914
770.914
770.914
770.914
770.914
)
;
    }
    xsides
    {
        type            calculated;
        value           nonuniform List<scalar> 
100
(
1003.25
1025.51
1026.1
1026.72
1027.1
1027.11
1027.11
1027.11
1027.11
1027.11
999.641
1024.9
1026.16
1026.85
1027.11
1027.11
1027.11
1027.11
1027.11
1027.11
982.075
1024.36
1026.31
1026.92
1027.11
1027.11
1027.11
1027.11
1027.11
1027.11
999.633
1024.9
1026.15
1026.85
1027.11
1027.11
1027.11
1027.11
1027.11
1027.11
1003.24
1025.52
1026.1
1026.72
1027.1
1027.11
1027.11
1027.11
1027.11
1027.11
999.179
1026.79
1027.05
1027.11
1027.11
1027.11
1027.11
1027.11
1027.11
1027.11
1003.86
1026.98
1027.1
1027.11
1027.11
1027.11
1027.11
1027.11
1027.11
1027.11
1006.06
1027.05
1027.11
1027.11
1027.11
1027.11
1027.11
1027.11
1027.11
1027.11
1003.85
1026.98
1027.1
1027.11
1027.11
1027.11
1027.11
1027.11
1027.11
1027.11
999.173
1026.79
1027.05
1027.11
1027.11
1027.11
1027.11
1027.11
1027.11
1027.11
)
;
    }
    zsides
    {
        type            calculated;
        value           nonuniform List<scalar> 
400
(
1003.25
1025.51
1026.1
1026.72
1027.1
1027.11
1027.11
1027.11
1027.11
1027.11
994.787
1016.64
1007.4
1022.19
1026.8
1026.69
1026.36
1026.24
1026.99
1027.11
976.658
1006.43
994.336
1018.41
1023.45
1013.23
1003.77
1001.78
1017.68
1027.03
939.183
991.048
995.157
1015.02
1017.99
990.711
968.251
965.196
971.437
1021.47
908.057
988.155
999.797
1012.95
1014.01
999.234
990.866
975.065
961.858
983.066
914.953
983.798
997.542
1010.65
1010.26
1007.68
1002.72
993.009
973.468
970.819
940.784
983.925
987.437
1001.83
1002.04
997.988
984.581
971.82
974.858
1009.23
937.964
983.179
968.901
974.292
972.277
959.938
951.654
959.639
979.27
1017.88
926.148
962.411
936.298
935.802
937.954
948.603
970.189
992.048
1011.18
1026.75
945.136
966.591
954.082
961.641
961.701
974.308
997.709
1007.57
1013.3
1008.62
944.973
982.589
963.437
970.711
981.83
993.321
1002.08
1007.08
1007.33
1002.42
946.23
992.482
992.449
999.802
995.898
991.473
991.795
991.799
990.903
986.749
954.674
990.859
990.756
1001.38
1005.22
1002.9
998.786
994.074
981.347
970.386
932.015
987.1
985.165
998.219
1014.71
1013.28
1010.73
1005.78
997.239
983.463
918.737
989.947
993.544
1014.6
1021.54
1014.66
1011.4
1008.04
1003.74
990.92
931.342
1006.91
1000.5
1020.35
1021.97
1005.84
992.677
990.69
982.856
966.542
966.376
1014.36
1008.81
1024.42
1022.09
1003.45
983.694
978.119
1007.67
1026.43
985.76
1020.41
1020.67
1026.36
1026.44
1025.64
1025.34
1025.92
1026.56
1027.11
995.937
1024.56
1025.72
1027.05
1027.11
1027.11
1027.11
1027.11
1027.11
1027.11
999.179
1026.79
1027.05
1027.11
1027.11
1027.11
1027.11
1027.11
1027.11
1027.11
1003.24
1025.52
1026.1
1026.72
1027.1
1027.11
1027.11
1027.11
1027.11
1027.11
994.769
1016.62
1007.27
1022.17
1026.8
1026.69
1026.36
1026.24
1026.99
1027.11
976.691
1006.39
994.495
1018.41
1023.46
1013.24
1003.77
1001.78
1017.69
1027.03
939.174
991.167
995.34
1015.03
1017.98
990.662
968.131
965.077
971.396
1021.48
907.47
988.049
999.9
1012.96
1014.01
999.273
990.836
974.849
961.66
983.146
914.503
984.315
997.749
1010.64
1010.25
1007.68
1002.71
992.911
973.242
970.694
941.329
984.73
988.115
1001.96
1002.1
998.108
984.676
971.873
974.973
1009.51
938.51
984.196
970.331
975.506
973.506
961.132
952.212
959.935
979.227
1017.87
926.141
962.953
936.43
935.793
937.858
948.705
970.325
991.948
1011.06
1026.75
944.814
965.943
953.212
961.166
961.527
974.256
997.567
1007.41
1013.2
1008.57
944.36
982.181
963.092
970.48
981.662
993.198
1001.97
1006.95
1007.21
1002.35
944.087
992.095
992.164
999.867
996.081
991.546
991.804
991.79
990.887
986.747
953.581
990.617
990.675
1001.45
1005.27
1002.97
998.848
994.086
981.17
970.5
931.127
986.903
985.164
998.266
1014.79
1013.35
1010.82
1005.87
997.258
983.529
918.195
989.954
993.635
1014.58
1021.54
1014.66
1011.4
1008.04
1003.76
990.997
931.243
1006.95
1000.48
1020.31
1021.97
1005.85
992.684
990.717
982.916
966.617
966.274
1014.31
1008.73
1024.41
1022.09
1003.45
983.703
978.134
1007.68
1026.43
985.767
1020.4
1020.63
1026.36
1026.44
1025.64
1025.33
1025.92
1026.55
1027.11
995.935
1024.56
1025.71
1027.05
1027.11
1027.11
1027.11
1027.11
1027.11
1027.11
999.173
1026.79
1027.05
1027.11
1027.11
1027.11
1027.11
1027.11
1027.11
1027.11
)
;
    }
    outlet
    {
        type            calculated;
        value           nonuniform List<scalar> 
100
(
1027.11
1027.11
1027.11
1027.11
1027.11
1027.11
1027.11
1027.11
1027.11
1027.11
1027.11
1027.11
1027.11
1027.11
1027.11
1027.11
989.81
975.835
989.805
1027.11
983.066
950.673
931.889
950.802
983.146
970.819
954.997
914.623
955.283
970.694
1009.23
952.514
911.721
952.945
1009.51
1017.88
965.246
922.678
964.9
1017.87
1027.11
1027.11
1027.11
1027.11
1027.11
1008.62
994.361
979.732
994.318
1008.57
1002.42
961.901
913.984
961.753
1002.35
986.749
932.327
893.444
932.455
986.747
970.386
931.336
897.318
931.122
970.5
983.463
950.542
921.623
950.464
983.529
990.92
980.485
957.078
980.593
990.997
966.542
975.507
970.802
975.553
966.617
1027.11
1027.11
1027.11
1027.11
1027.11
1027.11
1027.11
1027.11
1027.11
1027.11
1027.11
1027.11
1027.11
1027.11
1027.11
1027.11
1027.11
1027.11
1027.11
1027.11
)
;
    }
}


// ************************************************************************* //
