/*--------------------------------*- C++ -*----------------------------------*\
| =========                 |                                                 |
| \\      /  F ield         | OpenFOAM: The Open Source CFD Toolbox           |
|  \\    /   O peration     | Version:  2.3.0                                 |
|   \\  /    A nd           | Web:      www.OpenFOAM.org                      |
|    \\/     M anipulation  |                                                 |
\*---------------------------------------------------------------------------*/
FoamFile
{
    version     2.0;
    format      ascii;
    class       volVectorField;
    location    "1.69736";
    object      U.airMean;
}
// * * * * * * * * * * * * * * * * * * * * * * * * * * * * * * * * * * * * * //

dimensions      [0 1 -1 0 0 0 0];

internalField   nonuniform List<vector> 
1000
(
(0.00976024 -0.0304245 0.00195002)
(0.0146102 -0.0187914 0.00190262)
(0.0072775 -0.0162502 0.00202798)
(0.00648531 -0.0150277 0.0015396)
(0.0106909 -0.0182116 0.00152881)
(0.00979869 -0.0169808 0.00206546)
(0.00672054 -0.0129224 0.00241967)
(0.00300965 -0.00997529 0.00259872)
(-0.00501697 -0.0122178 0.00215449)
(-0.000326723 -0.0253755 0.00192412)
(0.00442602 -0.0177221 0.00250541)
(-0.000231104 -0.00393265 0.00207754)
(-0.00671952 -0.00731236 0.00242023)
(-0.0102339 -0.0150963 0.00179341)
(-0.0124198 -0.0208359 0.00197504)
(-0.0115502 -0.0200276 0.0014664)
(-0.00852562 -0.0142475 0.00158468)
(-0.0109338 -0.0159945 0.00205982)
(-0.0172803 -0.0191274 0.00173382)
(-0.0103765 -0.0298865 0.00154121)
(0.00435732 -0.0264426 0.000275595)
(0.014145 -0.00283869 0.000680413)
(0.00992131 -0.00369072 0.000657636)
(0.014855 -0.00795888 0.00079716)
(0.0170699 -0.0141087 -0.000301594)
(0.0146538 -0.0145788 -0.000334414)
(0.00939168 -0.0156305 -7.23361e-05)
(0.00565074 -0.013399 -0.000233695)
(0.00132026 -0.0162367 -0.000673406)
(0.00259853 -0.0257561 -0.000662813)
(0.00142895 -0.0179617 -0.000206633)
(-0.00508403 -0.00827192 0.000700146)
(-0.00679489 -0.0109057 0.000409471)
(-0.0140278 -0.0136973 0.000436331)
(-0.020238 -0.0152588 -0.000715612)
(-0.0209458 -0.0138894 -0.000290213)
(-0.0180357 -0.00716833 0.000677821)
(-0.0130303 -0.00323011 0.000535921)
(-0.0161326 -0.00522524 0.000546952)
(-0.00446572 -0.0247018 0.000210727)
(-0.000757019 -0.0346662 -0.000611516)
(0.00564349 -0.00633669 -0.000863977)
(0.00681046 -0.0132539 -0.00104779)
(0.0157678 -0.0195929 -0.000445298)
(0.0180868 -0.016532 -0.000689496)
(0.0141913 -0.00794227 -0.000701098)
(0.00783389 -0.00788513 -0.00102784)
(0.00469885 -0.006404 -0.00105431)
(0.00227735 -0.0118303 -0.00112521)
(0.00465242 -0.0256572 -0.00109806)
(0.00611091 -0.0116107 -0.000893165)
(0.000157271 -0.00998851 -0.000407431)
(-0.00626711 -0.00776346 -0.000209918)
(-0.0150145 -0.00888313 -0.000842367)
(-0.0221872 -0.0108319 -0.00092047)
(-0.0244813 -0.0171579 -0.000321451)
(-0.0204001 -0.0181835 -0.000964951)
(-0.00876719 -0.0105212 -0.0015529)
(-0.00617819 -0.0103247 -0.000886097)
(0.000771604 -0.032453 -0.000403016)
(-0.00554738 -0.0261688 -0.000269552)
(-0.00373394 -0.00410435 -0.000824374)
(0.0073251 -0.0136193 -0.00104243)
(0.0136424 -0.0169781 -0.000459425)
(0.0149809 -0.0114686 -0.000197329)
(0.00916601 0.0017774 -0.000755813)
(0.00436772 0.000197847 -0.00100916)
(0.00317539 0.00139585 -0.00111235)
(0.00562418 -0.00862271 -0.00088848)
(0.00695537 -0.0224336 -0.000655066)
(0.00847732 -0.00758259 -0.00102474)
(0.000380245 0.000978487 -0.00130687)
(-0.00461523 0.00226359 -0.00096991)
(-0.0103021 0.00239645 -0.00126152)
(-0.0202837 -0.00372463 -0.00101714)
(-0.0232013 -0.01226 -0.000635542)
(-0.0199294 -0.0150462 -0.000631005)
(-0.0117745 -0.0112123 -0.00110265)
(0.00166162 -0.00701057 -0.000970778)
(0.00449296 -0.0245857 -0.000300256)
(-0.00308649 -0.0203728 -5.71742e-05)
(0.00137264 -0.00721505 -0.000978577)
(0.00995964 -0.0147834 1.01883e-05)
(0.00846757 -0.0148042 1.25145e-05)
(0.0068698 -0.00480135 -0.000319365)
(0.00132931 0.00999472 -0.000703511)
(0.0020883 0.00514217 -0.000645787)
(0.00203661 0.00392355 -0.000546206)
(0.00907277 -0.00659585 -0.00059402)
(0.00776944 -0.0181902 -0.000100668)
(0.0033006 -0.00165252 -0.000430565)
(-0.000708786 0.0135548 -0.00114003)
(-0.000950303 0.00909424 -0.000948178)
(-0.00182929 0.0149749 -0.00130083)
(-0.0093056 0.00376199 -0.000431854)
(-0.0142873 -0.00905171 -0.000204045)
(-0.0156238 -0.0155142 0.000142805)
(-0.0129903 -0.0176026 -4.94141e-05)
(-0.00384298 -0.0139322 -0.000845888)
(0.00148703 -0.0219327 7.14325e-05)
(-0.0018518 -0.0169663 -2.48421e-05)
(0.00221736 -0.0130627 -0.000194648)
(0.0035729 -0.0164033 0.000278862)
(0.00109355 -0.00950943 -3.8143e-05)
(-0.00299667 0.00421104 -0.000277958)
(-0.00342473 0.0132475 -0.000570078)
(0.000409509 0.00716158 -0.000446257)
(0.000845526 0.0040514 -0.000359001)
(0.00863062 -0.00536551 -0.000675788)
(0.00745486 -0.011675 -8.9102e-05)
(0.00066001 0.00650826 -0.000215306)
(-0.000839273 0.0223493 -0.000797238)
(0.00179648 0.0141077 -0.000604298)
(0.00506077 0.02553 -0.000974933)
(0.00204861 0.0145894 -0.000214861)
(-0.00234342 0.000990437 -5.12717e-05)
(-0.00873165 -0.0143508 0.000450287)
(-0.00693782 -0.0213441 0.000326417)
(-0.00384985 -0.0193563 4.45985e-05)
(0.000208427 -0.0216179 6.10752e-08)
(-0.000683019 -0.0155328 6.14711e-05)
(-0.000630156 -0.0139557 5.64937e-05)
(-0.00285881 -0.0142387 7.84733e-05)
(-0.00570328 -0.00612881 -0.000243395)
(-0.00536041 0.0052793 -0.000224551)
(-0.0039561 0.0115409 -0.000367458)
(-0.000162209 0.0065323 -0.000323035)
(0.002725 0.00260416 -0.000348426)
(0.00656656 -0.0067534 -0.000336398)
(0.00453602 -0.00691298 -0.00011773)
(-0.00123434 0.0123882 -0.000167981)
(-0.000435831 0.0253766 -0.000483474)
(0.00236482 0.0135428 -0.000272989)
(0.00679789 0.0268907 -0.000584212)
(0.00750408 0.0174436 -2.98772e-05)
(0.00604321 0.00386164 -0.000141686)
(0.000900521 -0.0119254 -6.69218e-05)
(-2.10076e-05 -0.0216037 0.000167255)
(-0.00127941 -0.0215253 7.44945e-05)
(-8.14544e-05 -0.0221486 7.53721e-05)
(-0.000609431 -0.0142454 3.56128e-05)
(-0.00211253 -0.0130408 4.47521e-05)
(-0.00490034 -0.011807 -0.000142385)
(-0.00665128 -0.00348475 -0.000329875)
(-0.004428 0.00492269 -0.000277646)
(-0.00253628 0.00977085 -0.000334432)
(-0.000307137 0.00489458 -0.00026682)
(0.00469773 0.00165602 -0.000497764)
(0.00510762 -0.00536543 -0.000139055)
(0.00215802 -0.00126132 -0.000114643)
(-0.00235252 0.0162249 -9.6811e-05)
(-6.60428e-05 0.0251499 -0.000333894)
(0.00183767 0.0116725 -0.000192116)
(0.0055572 0.0254528 -0.000409881)
(0.0072963 0.0175752 -9.73123e-05)
(0.00651429 0.00584709 -0.000184068)
(0.00566765 -0.00929231 -0.000243971)
(0.00324635 -0.0195738 -2.73348e-05)
(0.000661287 -0.0211358 9.82477e-05)
(0.000113541 -0.0219167 6.94273e-05)
(-0.000431893 -0.0131036 4.78801e-05)
(-0.00182059 -0.0115007 3.55457e-05)
(-0.00384077 -0.00769875 -8.91941e-05)
(-0.00498607 -0.00102152 -0.000342281)
(-0.00282218 0.00475528 -0.000260619)
(-0.000952894 0.00882477 -0.000297882)
(0.00017445 0.00406057 -0.000235507)
(0.00335898 0.00199415 -0.00037675)
(0.00201657 -0.00312625 -0.000135274)
(-0.000745696 0.00496184 -0.000215244)
(-0.00286181 0.0191057 -0.000185018)
(8.57838e-05 0.0247419 -0.000281192)
(0.00104858 0.011608 -0.000190811)
(0.00336803 0.0245193 -0.000288575)
(0.0054896 0.0181384 -0.000148468)
(0.00475773 0.0077802 -0.00016743)
(0.00652653 -0.00409473 -0.000353636)
(0.00345854 -0.0163146 -5.67971e-05)
(0.00108184 -0.0201964 7.08576e-05)
(0.000184428 -0.0213336 7.53312e-05)
(-0.000127613 -0.0126017 4.25415e-05)
(-0.000348485 -0.0108873 -4.21167e-06)
(-0.000691862 -0.00633114 -9.18559e-06)
(-0.00100769 -0.000301755 -7.92562e-05)
(-0.000727243 0.00394691 -9.84072e-05)
(-0.000130088 0.00692951 -7.61481e-05)
(-0.000135186 0.00316584 -8.00034e-05)
(0.000602185 0.00255251 -0.00011531)
(-1.15636e-05 -0.00164481 -2.0307e-05)
(-0.000546932 0.00767739 -7.19587e-05)
(-0.00131127 0.0175814 -3.8868e-05)
(-0.000112267 0.0219094 -0.000119597)
(0.000454034 0.0101135 -1.33762e-05)
(0.00159822 0.0213975 -0.00016183)
(0.00195537 0.0163758 -5.74967e-05)
(0.00154641 0.00817524 -0.000101863)
(0.00109594 -0.00374069 -4.2015e-05)
(0.00065225 -0.0147018 -8.53911e-06)
(0.000330034 -0.0195671 7.33051e-06)
(6.15944e-05 -0.0210354 7.58869e-05)
(0.0111909 -0.0248965 0.00264119)
(0.0148676 -0.0137014 0.00247505)
(0.00659241 -0.0113212 0.00234921)
(0.00574929 -0.0121747 0.00183872)
(0.00880243 -0.00674593 0.00272875)
(0.00815442 -0.00381791 0.00435027)
(0.00544619 -0.00054707 0.00283726)
(0.00267708 0.00191365 0.00290366)
(-0.00536571 0.000789779 0.00307666)
(-0.000773448 -0.0101841 0.00391792)
(0.00559879 -0.00546671 0.00230738)
(0.000896505 0.00288176 0.00317088)
(-0.00607445 -0.0002294 0.00218876)
(-0.00842235 -0.00488282 0.00524127)
(-0.00977496 -0.00696966 0.0041757)
(-0.00851752 -0.00659194 0.00364229)
(-0.00760983 -0.0117717 0.00197474)
(-0.010111 -0.0110965 0.00235164)
(-0.0176227 -0.0140429 0.00231686)
(-0.0117373 -0.0250536 0.00211777)
(0.00708686 -0.00193553 -0.000299962)
(0.0138486 0.0206049 0.00049853)
(0.0091898 0.0178656 0.000781658)
(0.0136733 0.01199 0.00175577)
(0.0133816 0.0118241 0.00272487)
(0.00929754 0.0157794 0.00227314)
(0.00473174 0.0195989 0.00326896)
(0.00325366 0.0248961 0.00346812)
(-0.00149174 0.0196555 0.00345929)
(-0.000692108 0.00835278 0.00309272)
(0.000419936 0.0245789 0.00288408)
(-0.00325846 0.0198649 0.00342693)
(-0.00492627 0.0241089 0.00345285)
(-0.00817989 0.00984507 0.00239355)
(-0.0119403 0.0163828 0.00202766)
(-0.015088 0.0113798 0.00217628)
(-0.0159298 0.0127961 0.00167646)
(-0.0121414 0.0183351 0.00062092)
(-0.015894 0.0167958 0.000477913)
(-0.00664423 -0.00512667 -0.000589167)
(-7.20832e-05 -0.0251928 -0.00127509)
(0.00686484 0.0130919 -0.000958216)
(0.00645547 0.00711368 -0.00107477)
(0.0146099 0.00263305 -0.000901536)
(0.0166583 0.00748481 -0.000918647)
(0.0127262 0.0154277 -0.000467677)
(0.00709139 0.0155639 -0.00061259)
(0.00437445 0.0185178 -0.00069521)
(0.00146071 0.0127362 -0.00082404)
(0.00367371 -0.000546458 -0.000657626)
(0.00523554 0.0114609 5.88584e-05)
(-0.000665064 0.0164012 0.00143907)
(-0.00445958 0.0176809 0.000623933)
(-0.0116017 0.0148443 0.000957432)
(-0.0200468 0.011389 9.56515e-05)
(-0.0217683 0.00735248 -0.000115068)
(-0.0183012 0.00246844 -0.00124856)
(-0.00807735 0.00827964 -0.00153127)
(-0.00737316 0.00782086 -0.000999597)
(0.000354267 -0.0268955 -0.000992212)
(-0.00474346 -0.0228231 -0.000641811)
(-0.00273783 0.00923221 -0.00111373)
(0.00647907 -0.00342894 -0.00195075)
(0.0127743 -0.00259403 -0.00145872)
(0.014049 0.0079165 -0.000970292)
(0.00929919 0.0226695 -0.0013208)
(0.00481077 0.0204537 -0.00141094)
(0.00347855 0.0228258 -0.0016894)
(0.00380063 0.0121511 -0.00148752)
(0.00611481 -0.00481733 -0.001571)
(0.00918793 0.014493 -0.00129081)
(0.000782242 0.035526 -0.000954556)
(-0.00350765 0.0279302 -0.00172239)
(-0.0111803 0.0360218 -0.000867945)
(-0.0202431 0.0155284 -0.00110216)
(-0.0229396 0.00611397 -0.00145054)
(-0.0199613 -0.00685346 -0.00152484)
(-0.0108973 -0.0050214 -0.00177428)
(0.00102112 0.00351104 -0.00136495)
(0.00376546 -0.0246095 -0.000661378)
(-0.0037429 -0.0204697 -0.00072326)
(0.000403141 0.000407469 -0.00130388)
(0.00980173 -0.0128934 -0.000480517)
(0.00972899 -0.00809221 -0.000587371)
(0.00745313 0.0107078 -0.000820194)
(0.00232922 0.0268099 -0.00124837)
(0.00181623 0.0214489 -0.00114272)
(0.00184319 0.0214953 -0.00126351)
(0.00832885 0.00897005 -0.00111704)
(0.00708125 -0.0097684 -0.000844504)
(0.00461274 0.0147352 -0.000914542)
(0.0004084 0.0410193 -0.00174584)
(-0.000661415 0.03022 -0.00195328)
(-0.00455255 0.0410736 -0.00191313)
(-0.0111079 0.0171653 -0.000872068)
(-0.0168639 0.00211135 -0.000930031)
(-0.0165515 -0.013794 -0.000216414)
(-0.0125056 -0.0190805 -0.000404068)
(-0.00309322 -0.0116649 -0.00120194)
(0.00164301 -0.0253932 -0.000377187)
(-0.00200557 -0.0197806 -0.000128327)
(0.00141481 -0.0141389 -0.0004328)
(0.00392189 -0.016299 0.000213634)
(0.00138719 -0.00162631 -0.000176409)
(-0.00269236 0.0161994 -0.00043242)
(-0.00314788 0.0261965 -0.000763669)
(1.52583e-05 0.0199563 -0.000669684)
(0.000527489 0.0179151 -0.000724836)
(0.00895508 0.005165 -0.000977822)
(0.00651019 -0.00376332 -0.000164885)
(-5.19232e-05 0.0200403 -0.000430798)
(-0.000166711 0.0421409 -0.00142139)
(0.00172599 0.0295068 -0.00121466)
(0.00317684 0.0434103 -0.00159369)
(0.000965568 0.0247583 -0.000425724)
(-0.00266787 0.01049 -0.000339989)
(-0.00875595 -0.00992708 0.000428175)
(-0.00637606 -0.0236379 0.000143518)
(-0.00317657 -0.0234229 -0.000144205)
(0.000312679 -0.0259701 -0.000102211)
(-0.000857736 -0.0178589 -2.72296e-05)
(-0.00108449 -0.0160637 -3.4721e-06)
(-0.00296812 -0.0122057 0.000116634)
(-0.00695445 0.00178138 -0.000232736)
(-0.00611789 0.0153616 -0.000250378)
(-0.00422326 0.0218736 -0.000410465)
(-0.000406749 0.0167625 -0.000446558)
(0.00223073 0.01301 -0.000419391)
(0.0066843 -0.00148262 -0.000613149)
(0.00399012 0.000682154 -0.000152832)
(-0.00262142 0.0242671 -0.000244929)
(-0.00024893 0.0399924 -0.000896485)
(0.00217663 0.0262264 -0.000571894)
(0.00599868 0.0399588 -0.000936951)
(0.00776152 0.0266229 -0.000121174)
(0.00704531 0.011901 -0.000142956)
(0.00201561 -0.00531523 4.51849e-05)
(0.000720102 -0.0221396 8.87997e-05)
(-0.000631195 -0.0255471 -5.05571e-05)
(5.13709e-05 -0.0264457 -4.32669e-05)
(-0.000699264 -0.0166733 -1.98468e-05)
(-0.00237199 -0.0151133 -1.85323e-05)
(-0.00530467 -0.0110715 -0.00022761)
(-0.00801692 0.002502 -0.000383371)
(-0.00535924 0.0127958 -0.000252036)
(-0.00306019 0.0177037 -0.000281751)
(-0.000374111 0.0125564 -0.000321455)
(0.0048978 0.00847885 -0.000466011)
(0.00475024 -0.00251742 -0.000142854)
(0.000760092 0.00662077 -0.00015459)
(-0.00378172 0.0264761 -0.000159321)
(-5.96781e-05 0.0361179 -0.000459308)
(0.0016773 0.0223844 -0.00030813)
(0.00527696 0.0348707 -0.000469157)
(0.00800724 0.0254936 -8.68682e-05)
(0.00819201 0.0128128 -0.000121708)
(0.00718201 -0.00351832 -0.000274969)
(0.00361755 -0.0208601 -0.00015324)
(0.000990652 -0.0251223 -3.00953e-05)
(0.000226369 -0.0260808 -4.06285e-05)
(-0.000447273 -0.0155463 -1.35557e-05)
(-0.00181237 -0.0136136 -1.70515e-05)
(-0.00409427 -0.00820376 -0.000154448)
(-0.00602195 0.00212015 -0.000403377)
(-0.00366826 0.0101948 -0.000210829)
(-0.00137165 0.0142238 -0.000208052)
(0.000209464 0.0090444 -0.000188021)
(0.00387022 0.00562818 -0.000380597)
(0.00185476 -0.00104744 -0.000175138)
(-0.00193646 0.0117654 -0.000191248)
(-0.00384855 0.0272245 -0.000164656)
(0.000125719 0.0332424 -0.000211972)
(0.00100264 0.0207337 -0.000212355)
(0.00326378 0.0317538 -0.000168755)
(0.00622608 0.0245662 -4.03624e-05)
(0.00643157 0.0137738 -5.08013e-05)
(0.00828983 0.000196962 -0.000402056)
(0.00360985 -0.0183281 -0.000154427)
(0.0011384 -0.0241315 -2.80011e-05)
(0.000198522 -0.025438 -3.13791e-05)
(-0.000129435 -0.0150829 -1.45314e-05)
(-0.000325235 -0.0131569 -1.32043e-06)
(-0.000662323 -0.0076159 -8.69879e-06)
(-0.00131823 0.000453066 -8.35878e-05)
(-0.00118605 0.0074352 -1.22741e-05)
(-0.000313247 0.0105248 5.67882e-05)
(-3.72399e-05 0.00626902 3.94777e-05)
(0.000850913 0.00439319 -9.45812e-05)
(-0.00018168 -0.000704126 -1.72893e-05)
(-0.0016489 0.0141896 -4.90708e-05)
(-0.00183193 0.0242778 9.83229e-05)
(-0.000120033 0.0284263 5.4531e-05)
(0.000459573 0.0177584 3.60102e-05)
(0.00159659 0.02704 3.83299e-05)
(0.00247463 0.0217925 0.000142985)
(0.00288594 0.0138118 3.42515e-05)
(0.00160492 -0.00224234 -6.78668e-05)
(0.000621274 -0.0175643 -3.19621e-05)
(0.000311485 -0.0236801 -5.21874e-06)
(7.27733e-05 -0.0251479 -2.77993e-05)
(0.0134118 -0.0154943 -1.99985e-06)
(0.0168955 -0.00545613 -2.92553e-06)
(0.0124462 -0.00559027 -2.17506e-06)
(0.0175936 -0.0211423 0.000283021)
(0.0233609 -0.0170936 -7.57199e-05)
(0.0198006 0.0181149 0.00025204)
(0.0157804 -0.00158413 -2.08523e-05)
(0.0118828 0.00557385 0.00021596)
(-3.29501e-05 -0.00588483 -0.000211074)
(0.0141394 -0.0138703 0.000102913)
(0.0126116 0.000558067 -0.000131641)
(-0.000305072 0.0180436 6.05859e-05)
(-0.0143939 0.0124199 -0.000203924)
(-0.0218279 0.025831 -0.00019356)
(-0.0250381 0.0120369 -0.000199956)
(-0.0308612 0.00456072 -0.000392547)
(-0.0188749 -0.0201557 9.59287e-05)
(-0.0153388 -0.0048406 -2.56939e-06)
(-0.0195793 -0.0051239 -1.1856e-06)
(-0.013756 -0.0161761 -7.32596e-07)
(0.0108038 0.0223678 1.3225e-06)
(0.0147096 0.0445037 -6.81418e-08)
(0.010096 0.0327487 -6.28775e-06)
(0.0155718 0.0364756 -6.06611e-05)
(0.0191533 0.0435362 3.05149e-05)
(0.0173261 0.0489593 -0.00010069)
(0.0132333 0.0482278 4.38493e-05)
(0.00844526 0.0493774 -0.000264145)
(0.00205455 0.0489641 0.000119901)
(0.00441817 0.0416818 -3.45564e-05)
(-0.000689309 0.0417699 7.47487e-05)
(-0.00668783 0.0555326 -1.70968e-05)
(-0.00502515 0.0401955 6.12416e-05)
(-0.00846422 0.0633065 0.000101123)
(-0.0198861 0.0471602 9.77578e-05)
(-0.0230462 0.0388581 0.000162727)
(-0.0173743 0.0367704 -4.2335e-05)
(-0.0129323 0.0335777 -3.81826e-07)
(-0.0166976 0.0396636 -2.50563e-06)
(-0.00924487 0.0118751 -8.94908e-07)
(0.000475056 -0.0182098 1.0323e-06)
(0.00809327 0.0295568 2.45266e-07)
(0.00687047 0.0223729 4.70793e-06)
(0.0154307 0.020624 -8.46043e-05)
(0.0192655 0.028809 1.3093e-05)
(0.0158004 0.0518974 -9.28839e-05)
(0.00987059 0.0499881 1.41469e-05)
(0.00632766 0.0565848 -0.000145514)
(0.00168461 0.0458206 7.078e-05)
(0.00450699 0.0307888 -2.5671e-05)
(0.0100156 0.0499291 3.99577e-05)
(0.00161075 0.0641399 6.08038e-05)
(-0.00690584 0.0595847 7.01808e-05)
(-0.0193062 0.0638848 5.47227e-05)
(-0.0269355 0.0467489 4.15805e-05)
(-0.0227752 0.0369063 0.000103456)
(-0.0187774 0.0206043 -3.42577e-05)
(-0.00827019 0.0224202 -8.00837e-07)
(-0.00851934 0.0234601 1.70244e-07)
(-7.08014e-05 -0.022653 6.28601e-07)
(-0.00415052 -0.0184525 -7.46557e-07)
(-0.00205084 0.0194373 3.18333e-06)
(0.00606253 0.00708576 -6.9875e-06)
(0.0121096 0.0118533 1.17896e-05)
(0.0145897 0.0225838 1.95087e-05)
(0.0115286 0.046523 -1.71423e-06)
(0.006222 0.041875 9.12604e-06)
(0.00422285 0.0456125 -3.16821e-05)
(0.00244715 0.0329796 1.88779e-05)
(0.00564101 0.0191794 2.52559e-06)
(0.013452 0.0402856 9.81619e-06)
(0.00353699 0.076914 -1.28785e-05)
(-0.00502364 0.0591475 1.9667e-05)
(-0.0176723 0.0773513 -7.96428e-06)
(-0.0240442 0.0384258 -6.78235e-06)
(-0.0221758 0.0286789 4.74457e-06)
(-0.0184694 0.00574992 -1.23813e-05)
(-0.0100596 0.0015194 -8.93427e-06)
(0.000462092 0.0124427 -3.28099e-06)
(0.00330452 -0.0223689 6.10749e-07)
(-0.00373397 -0.0193716 2.37822e-06)
(0.000189796 0.00630336 -4.25179e-07)
(0.00954625 -0.0108616 -2.75674e-07)
(0.00996963 -0.00084436 -9.18136e-06)
(0.00771679 0.0201973 -6.25971e-06)
(0.00398816 0.039424 1.1669e-05)
(0.00240762 0.0327691 6.82561e-06)
(0.0020757 0.0339835 -5.57105e-06)
(0.00635339 0.0219105 3.38864e-06)
(0.00611026 0.000125144 2.47667e-06)
(0.00798705 0.0288852 5.68463e-06)
(0.00273707 0.0716916 -3.62069e-06)
(-0.0016558 0.0486309 2.31827e-07)
(-0.00971503 0.0721198 -2.15663e-05)
(-0.0135791 0.0288815 -9.66751e-06)
(-0.0179156 0.0140684 -7.83847e-06)
(-0.0170236 -0.0102488 -2.315e-06)
(-0.0121374 -0.0184619 -2.46227e-06)
(-0.00269411 -0.00767826 -2.25061e-06)
(0.00177032 -0.0259272 -1.86242e-06)
(-0.00212297 -0.020393 -2.54499e-07)
(0.00109904 -0.0138454 -4.49991e-07)
(0.00489296 -0.0153192 -4.10074e-07)
(0.00271483 0.00156214 1.87613e-06)
(-0.00180861 0.0218742 -1.33018e-06)
(-0.00238741 0.0331677 5.55788e-06)
(6.99748e-05 0.026735 6.02968e-06)
(0.00034164 0.025934 1.27635e-06)
(0.00846451 0.0136639 4.03694e-06)
(0.00552536 0.000185624 5.18431e-06)
(0.00139488 0.0279915 5.26173e-06)
(0.0012242 0.0620344 1.04463e-05)
(0.0012272 0.0389675 3.27347e-06)
(-9.21908e-05 0.0628398 -6.28345e-07)
(-0.000548096 0.0306417 2.2417e-07)
(-0.00548473 0.0152658 9.37796e-07)
(-0.0094087 -0.00740789 -3.10592e-06)
(-0.00648056 -0.0239021 -1.37676e-06)
(-0.00280435 -0.0245538 -1.08225e-06)
(0.000470465 -0.0273644 -1.73668e-06)
(-0.000873275 -0.0185089 1.67095e-07)
(-0.00115589 -0.0165289 5.98525e-07)
(-0.00268852 -0.0110331 -3.98875e-07)
(-0.00686797 0.00498193 -3.41807e-07)
(-0.00592705 0.0196004 -1.28217e-07)
(-0.00402408 0.0267997 4.16288e-06)
(-0.000533506 0.0219037 6.08324e-06)
(0.00176603 0.0196306 4.12504e-06)
(0.00638402 0.00284939 5.69953e-06)
(0.00358313 0.00453787 5.18457e-06)
(-0.00265075 0.030554 4.45769e-06)
(0.000278159 0.0518584 7.78232e-06)
(0.00193006 0.0322631 3.73814e-06)
(0.00451113 0.0508902 2.40436e-06)
(0.00723682 0.0315583 4.03858e-07)
(0.00639902 0.0153753 2.39399e-07)
(0.00179832 -0.00217906 3.81575e-07)
(0.000757335 -0.0218734 -1.47276e-06)
(-0.000479342 -0.0266807 -1.41722e-06)
(5.5671e-05 -0.027707 -1.28228e-06)
(-0.000712471 -0.0172908 -1.76889e-08)
(-0.00240026 -0.0155604 -5.75783e-07)
(-0.00530434 -0.0104715 -8.36717e-08)
(-0.00807526 0.00471542 -5.30891e-07)
(-0.00544359 0.0159276 1.13415e-06)
(-0.00311967 0.0213823 2.89491e-06)
(-0.000487121 0.0166047 4.76672e-06)
(0.00438272 0.0134348 4.68219e-06)
(0.00443227 -0.000308695 3.99012e-06)
(0.000325924 0.00990159 2.90662e-06)
(-0.0040879 0.0315161 2.53834e-06)
(1.36948e-05 0.0429291 2.83324e-06)
(0.00154452 0.0273138 2.98741e-06)
(0.00478548 0.0407569 9.1837e-07)
(0.00786581 0.0293517 1.13312e-07)
(0.00832967 0.0155822 -7.39159e-07)
(0.00731572 -0.00116206 -1.89988e-06)
(0.0035689 -0.0209434 -1.188e-06)
(0.0010816 -0.0261462 -1.20259e-06)
(0.000250921 -0.0272589 -1.2507e-06)
(-0.000436819 -0.0161633 -6.39977e-07)
(-0.001775 -0.0140587 7.66973e-07)
(-0.00406801 -0.00822996 1.94981e-07)
(-0.00615069 0.00331918 1.74232e-07)
(-0.00382474 0.0123067 7.24346e-07)
(-0.00151982 0.0166734 1.35154e-06)
(0.000102922 0.0116829 2.38202e-06)
(0.00368996 0.008312 3.14421e-06)
(0.0014853 0.000253616 1.70231e-06)
(-0.0023707 0.0145879 9.307e-07)
(-0.00406507 0.0310563 1.06023e-06)
(0.000122949 0.0381139 7.53291e-07)
(0.000959695 0.0249047 2.5951e-06)
(0.00309971 0.0357272 1.86652e-07)
(0.00624993 0.0277442 -1.79799e-07)
(0.00670736 0.016057 -9.03672e-07)
(0.00868192 0.00193706 -9.37528e-07)
(0.0036076 -0.0186452 -6.01158e-07)
(0.00116161 -0.0250232 -2.74763e-07)
(0.000197797 -0.0265473 -2.12532e-07)
(-0.000132798 -0.0156776 4.58886e-07)
(-0.00032155 -0.0136141 -4.03731e-07)
(-0.000654062 -0.00786784 2.40317e-07)
(-0.00141326 0.000819811 5.24652e-07)
(-0.00131063 0.00865673 6.34084e-07)
(-0.000390833 0.0120101 7.96688e-07)
(-1.44138e-05 0.00777299 7.01332e-07)
(0.000909994 0.00542641 1.45824e-06)
(-0.00018585 -6.11416e-05 1.31656e-06)
(-0.00199941 0.0166499 5.73894e-07)
(-0.00193512 0.0273441 9.33436e-07)
(-0.000113122 0.0317599 5.69649e-07)
(0.000457212 0.0214252 7.74433e-07)
(0.00149972 0.029774 1.23204e-07)
(0.00257504 0.0244415 -2.78247e-09)
(0.0032228 0.0158119 -3.37226e-07)
(0.00181401 -0.00146734 -2.51259e-07)
(0.000622863 -0.0181109 -2.59087e-07)
(0.000308042 -0.0245791 -3.52621e-07)
(7.28187e-05 -0.0262437 -6.13505e-07)
(0.0111917 -0.0249093 -0.00264247)
(0.0148726 -0.0137277 -0.00247692)
(0.00659361 -0.0113366 -0.00235597)
(0.00575248 -0.0119919 -0.00171591)
(0.00910004 -0.00678331 -0.00275816)
(0.00832185 -0.00347956 -0.00428616)
(0.00548472 -0.000349194 -0.0028903)
(0.00269732 0.00110857 -0.0028238)
(-0.00541351 0.000326765 -0.00319859)
(-0.000742332 -0.0100753 -0.00389471)
(0.0054832 -0.00523758 -0.00238438)
(0.000901727 0.0031359 -0.00305878)
(-0.00617817 3.85976e-05 -0.00215783)
(-0.00835055 -0.00544277 -0.0052051)
(-0.00973011 -0.00769396 -0.00417229)
(-0.00851902 -0.00796526 -0.00373135)
(-0.00744755 -0.0115275 -0.00191273)
(-0.0101033 -0.0111109 -0.00235811)
(-0.0176225 -0.014039 -0.00231739)
(-0.0117389 -0.0250479 -0.00211672)
(0.00708987 -0.00193486 0.00030292)
(0.0138474 0.0205884 -0.000497126)
(0.00916549 0.0178599 -0.000793489)
(0.0135692 0.013679 -0.00183542)
(0.0133525 0.0114037 -0.00268297)
(0.0092955 0.0174379 -0.00243289)
(0.00476564 0.01937 -0.00327917)
(0.00367956 0.0275152 -0.00323404)
(-0.00153373 0.0180818 -0.00343937)
(-0.000725224 0.00895692 -0.00313801)
(0.000412637 0.0235862 -0.00289002)
(-0.00325894 0.0204044 -0.00353613)
(-0.00495278 0.0229806 -0.0034307)
(-0.0081927 0.0092469 -0.0023448)
(-0.0120769 0.0155532 -0.00191571)
(-0.0153004 0.0097586 -0.00197959)
(-0.0159177 0.0133507 -0.00172152)
(-0.0121279 0.0184421 -0.000620755)
(-0.0158895 0.0167758 -0.000480873)
(-0.00664176 -0.00513713 0.000592808)
(-7.07816e-05 -0.0251846 0.00127732)
(0.00686273 0.0130792 0.000958094)
(0.00646016 0.00713333 0.0010799)
(0.0146462 0.0026513 0.000731014)
(0.0167359 0.00730332 0.000932928)
(0.0126698 0.0153095 0.000383004)
(0.00712143 0.015466 0.000617333)
(0.00440252 0.019002 0.000627316)
(0.00154266 0.012523 0.000902957)
(0.00365724 -0.00065595 0.000633954)
(0.0052501 0.0112959 -2.59001e-05)
(-0.000730952 0.0168705 -0.00156145)
(-0.0044759 0.0175401 -0.000573831)
(-0.011687 0.0150201 -0.000927802)
(-0.0201024 0.0115078 -7.0487e-05)
(-0.0218323 0.00747699 0.000199939)
(-0.0182966 0.00246381 0.00119008)
(-0.00808315 0.00830979 0.00152976)
(-0.00736991 0.00781355 0.000999805)
(0.000354004 -0.0269052 0.00099308)
(-0.00473987 -0.0228163 0.000640483)
(-0.00273919 0.00923007 0.00111649)
(0.00647897 -0.00345644 0.00193849)
(0.012781 -0.00259746 0.0014938)
(0.0140779 0.00796087 0.000998809)
(0.00931619 0.0225334 0.00132824)
(0.0048089 0.0203983 0.0014199)
(0.00347774 0.0229816 0.00167948)
(0.00380688 0.0121506 0.00149686)
(0.00612127 -0.00481356 0.00158143)
(0.00916752 0.0144442 0.00129447)
(0.00072652 0.0356182 0.000883847)
(-0.00349215 0.0279179 0.00171942)
(-0.011165 0.0362752 0.000840813)
(-0.0202294 0.0155819 0.00108235)
(-0.0229282 0.00616229 0.00142208)
(-0.0199523 -0.00684426 0.00152246)
(-0.0108934 -0.00501825 0.0017602)
(0.00102416 0.00352323 0.00136106)
(0.00376576 -0.0246293 0.000660326)
(-0.00374065 -0.0204724 0.000722928)
(0.000404239 0.000411295 0.00130481)
(0.00979901 -0.0128901 0.000480053)
(0.00971344 -0.00809123 0.000579519)
(0.00743548 0.0107682 0.000812017)
(0.0023251 0.0267907 0.00126477)
(0.00181304 0.0214159 0.00115021)
(0.00184291 0.0215639 0.00126233)
(0.00832659 0.00900213 0.00111752)
(0.00707993 -0.00976443 0.000849016)
(0.00460187 0.0147421 0.000918819)
(0.00037762 0.040988 0.00172086)
(-0.000652907 0.0302129 0.00195197)
(-0.00454259 0.0410931 0.0018874)
(-0.0110922 0.0171791 0.000858345)
(-0.0168637 0.00209629 0.000917432)
(-0.0165549 -0.0137884 0.000212729)
(-0.0125025 -0.0190786 0.000400838)
(-0.00308706 -0.0116602 0.00120028)
(0.00164349 -0.0253989 0.000376283)
(-0.00200468 -0.0197807 0.00012867)
(0.00141424 -0.0141392 0.000432063)
(0.00392197 -0.0162953 -0.000216053)
(0.00138616 -0.00161388 0.000171796)
(-0.00269601 0.016239 0.000431935)
(-0.00314971 0.026189 0.000771678)
(1.28948e-05 0.0199352 0.000677279)
(0.000525269 0.0179475 0.000726537)
(0.00895783 0.00518198 0.000984232)
(0.00650609 -0.00375339 0.000173197)
(-6.07745e-05 0.0200595 0.00043662)
(-0.000178697 0.0421357 0.00142832)
(0.00172911 0.0295064 0.00121873)
(0.00317345 0.0434076 0.00159431)
(0.000968635 0.0247705 0.000427108)
(-0.00266827 0.010494 0.00034174)
(-0.0087511 -0.00993424 -0.000433312)
(-0.00637641 -0.0236373 -0.000146691)
(-0.00317712 -0.0234223 0.000141036)
(0.00031211 -0.0259722 9.88596e-05)
(-0.000857974 -0.0178588 2.70162e-05)
(-0.00108476 -0.0160637 3.91435e-06)
(-0.00296806 -0.0122025 -0.000116778)
(-0.0069577 0.0018 0.000233403)
(-0.00611952 0.0153825 0.000250451)
(-0.00422333 0.0218738 0.00041677)
(-0.000408689 0.0167529 0.000455837)
(0.00223208 0.0130247 0.000425784)
(0.00668478 -0.00147311 0.00062481)
(0.00398698 0.000695326 0.000162035)
(-0.00262762 0.0242839 0.000252423)
(-0.000252354 0.0399967 0.000906368)
(0.00217781 0.0262264 0.000576479)
(0.00599948 0.0399621 0.000940801)
(0.00776166 0.026629 0.000122603)
(0.00704591 0.0119034 0.000143851)
(0.0020167 -0.00530444 -4.48356e-05)
(0.000720494 -0.0221391 -9.07624e-05)
(-0.00063082 -0.0255461 4.83913e-05)
(5.11737e-05 -0.026445 4.08411e-05)
(-0.000698956 -0.0166736 1.94589e-05)
(-0.00237214 -0.0151131 1.71731e-05)
(-0.005305 -0.01107 0.000227663)
(-0.00801803 0.00250973 0.000382934)
(-0.00536026 0.0128056 0.000254217)
(-0.00306119 0.0177046 0.000286335)
(-0.00037547 0.0125581 0.000330006)
(0.00490117 0.00848863 0.000475113)
(0.00475043 -0.00251221 0.000151926)
(0.000757253 0.00663181 0.000160458)
(-0.00378514 0.0264848 0.000164778)
(-6.02303e-05 0.0361182 0.000464039)
(0.00167754 0.0223873 0.000312764)
(0.00527754 0.0348747 0.000470516)
(0.00800758 0.0254987 8.74046e-05)
(0.00819352 0.0128178 0.00012067)
(0.00718219 -0.00351761 0.000271675)
(0.00361761 -0.0208604 0.000151091)
(0.000990638 -0.0251219 2.7699e-05)
(0.000226272 -0.0260811 3.83067e-05)
(-0.000447183 -0.0155463 1.22593e-05)
(-0.00181229 -0.0136134 1.80507e-05)
(-0.00409419 -0.00820382 0.000154647)
(-0.00602227 0.00212261 0.000404305)
(-0.00366869 0.0101993 0.000212738)
(-0.00137278 0.0142238 0.000210515)
(0.000209207 0.00904799 0.000194102)
(0.00387018 0.00563243 0.000387983)
(0.00185349 -0.00104449 0.000178591)
(-0.00193905 0.011774 0.000193028)
(-0.00384964 0.0272262 0.000166611)
(0.000126394 0.0332399 0.000213495)
(0.00100193 0.0207421 0.00021715)
(0.00326278 0.0317616 0.000169299)
(0.00622642 0.0245716 4.00229e-05)
(0.00643374 0.0137801 4.93439e-05)
(0.00829254 0.000202505 0.00040158)
(0.00360992 -0.0183282 0.000153624)
(0.00113853 -0.0241311 2.75877e-05)
(0.000198505 -0.0254382 3.08948e-05)
(-0.000129555 -0.015079 1.51456e-05)
(-0.000325246 -0.0131568 5.74617e-07)
(-0.000662182 -0.007616 8.97526e-06)
(-0.00131776 0.000452456 8.45782e-05)
(-0.00118594 0.00743609 1.50547e-05)
(-0.00031365 0.0105249 -5.4567e-05)
(-3.73508e-05 0.00627056 -3.48177e-05)
(0.000849571 0.00439266 9.85216e-05)
(-0.000181703 -0.000703239 1.94919e-05)
(-0.00164969 0.0141948 5.04088e-05)
(-0.00183188 0.0242786 -9.66037e-05)
(-0.000119725 0.0284227 -5.30383e-05)
(0.000459549 0.0177674 -3.33592e-05)
(0.00159579 0.0270458 -3.78346e-05)
(0.00247421 0.0217975 -0.000143407)
(0.00288701 0.0138177 -3.51073e-05)
(0.00160459 -0.0022419 6.69941e-05)
(0.000621248 -0.0175647 3.12778e-05)
(0.000311428 -0.0236769 4.39794e-06)
(7.27751e-05 -0.0251476 2.63894e-05)
(0.00976033 -0.0304391 -0.00195052)
(0.0146149 -0.0188136 -0.00190304)
(0.00728121 -0.0162464 -0.00203354)