/*--------------------------------*- C++ -*----------------------------------*\
| =========                 |                                                 |
| \\      /  F ield         | OpenFOAM: The Open Source CFD Toolbox           |
|  \\    /   O peration     | Version:  2.3.0                                 |
|   \\  /    A nd           | Web:      www.OpenFOAM.org                      |
|    \\/     M anipulation  |                                                 |
\*---------------------------------------------------------------------------*/
FoamFile
{
    version     2.0;
    format      ascii;
    class       volScalarField;
    location    "1.39";
    object      nut.particles;
}
// * * * * * * * * * * * * * * * * * * * * * * * * * * * * * * * * * * * * * //

dimensions      [0 2 -1 0 0 0 0];

internalField   nonuniform List<scalar> 
6000
(
1.26988e-05
7.55564e-06
6.47788e-06
7.34436e-06
8.02099e-06
8.46438e-06
1.02528e-05
1.15258e-05
1.29522e-05
1.35918e-05
1.47142e-05
1.24665e-05
1.12679e-05
1.11339e-05
1.13707e-05
1.14558e-05
1.15745e-05
1.24885e-05
1.29556e-05
1.35628e-05
1.01725e-05
6.95929e-06
5.72628e-06
6.14664e-06
8.62071e-06
9.35781e-06
7.5509e-06
8.24429e-06
1.21164e-05
1.50718e-05
1.36878e-06
1.27297e-06
1.34598e-06
1.70179e-06
1.58213e-06
1.65148e-06
1.61636e-06
1.82544e-06
2.06382e-06
2.06535e-06
2.27264e-06
2.22585e-06
2.01494e-06
1.83978e-06
1.76352e-06
1.6726e-06
1.65341e-06
1.68623e-06
1.76152e-06
1.6938e-06
1.50077e-06
1.28957e-06
9.92854e-07
9.07938e-07
8.98008e-07
7.86614e-07
7.70188e-07
1.38622e-06
2.28827e-06
1.8482e-06
2.6438e-07
3.26019e-07
4.62827e-07
7.11041e-07
1.284e-06
2.3442e-06
1.55878e-06
1.92921e-07
2.34855e-07
5.65466e-07
8.6601e-07
1.37709e-06
8.89857e-07
2.26088e-07
2.40091e-07
3.30721e-07
4.56488e-07
4.92356e-07
6.56362e-07
6.26411e-07
6.12267e-07
6.53276e-07
7.09071e-07
8.59938e-07
1.10961e-06
1.1627e-06
1.01315e-06
3.37058e-07
4.86394e-07
7.76728e-07
6.8308e-07
4.86202e-07
5.46029e-07
7.64393e-07
2.50085e-06
2.41004e-06
5.72224e-07
2.87551e-07
2.62412e-07
5.07737e-07
8.94239e-07
1.16121e-06
7.50943e-07
3.82927e-07
3.71102e-07
4.85546e-07
5.66765e-07
5.41316e-07
4.73663e-07
5.18651e-07
5.93744e-07
7.70278e-07
9.08955e-07
5.869e-07
0.000149945
0.000132458
4.33733e-06
8.40707e-07
4.91664e-07
1.14927e-06
1.00969e-06
8.3828e-07
9.46171e-07
1.97925e-06
8.58742e-06
2.89231e-06
5.63807e-07
2.90483e-07
3.08163e-07
4.79326e-07
8.1956e-07
1.06808e-06
8.37632e-07
5.33869e-07
6.27438e-07
8.95213e-07
7.48523e-07
3.93202e-07
7.12075e-07
2.05051e-06
3.95982e-06
5.8167e-06
1.0165e-05
0.000174198
0.000189636
0.000168739
0.000175321
4.67563e-06
5.58161e-07
1.58234e-06
6.87212e-05
9.02584e-05
6.36431e-06
8.59013e-06
0.000496792
3.11735e-06
6.0403e-07
3.18747e-07
3.6771e-07
3.8976e-07
6.88144e-07
9.57949e-07
8.53832e-07
1.16716e-06
2.01942e-06
1.94848e-06
2.60641e-05
0.00018129
0.000190812
0.000207641
0.00019351
0.000217618
0.000184945
0.000225233
0.000175496
0.000220599
0.000171788
0.000144098
1.07925e-06
2.25811e-06
0.00573408
0.00551849
0.00547218
0.00530288
0.00479776
8.59347e-05
1.01737e-06
3.93105e-07
3.96269e-07
4.296e-07
6.94686e-07
1.0039e-06
1.15153e-06
4.6369e-06
0.000184397
0.000182188
0.000208725
0.000196426
0.000248248
0.000201068
0.000277222
0.000191004
0.000272931
0.000182449
0.000265276
0.000178014
0.000248977
0.000175035
2.52284e-06
4.13321e-06
0.0058838
0.00598477
0.00555178
0.00569441
0.00534042
0.00241831
1.93855e-06
7.56165e-07
5.2572e-07
5.74762e-07
9.57881e-07
1.06868e-06
2.52589e-06
0.000194609
0.000187243
0.000246064
0.000198921
0.000283571
0.00020307
0.000321566
0.00019285
0.000314278
0.000185632
0.000273853
0.000182037
0.000269135
0.000191431
0.000231111
0.000119378
1.05448e-05
0.00602826
0.00588456
0.00605285
0.00555199
0.00587552
0.00526803
0.000210761
2.41971e-06
1.2636e-06
8.7448e-07
1.04041e-06
1.0168e-06
9.05007e-06
0.000193383
0.000285206
0.000201645
0.000325855
0.000200858
0.000325172
0.00019478
0.000318311
0.000186891
4.34414e-06
1.48921e-06
2.71285e-06
5.68588e-06
7.09874e-06
1.61041e-05
3.33648e-05
2.88159e-05
0.000170042
0.00612211
0.00550564
0.00604841
0.00535387
0.00526551
0.000922332
1.58301e-05
4.23451e-06
1.76277e-06
8.82534e-07
2.26814e-06
0.000195717
0.000327478
0.000208702
0.000329202
0.000202701
0.000325346
0.000197824
0.000319029
0.000189309
1.46516e-06
4.52307e-07
3.3945e-07
1.26628e-06
3.15109e-07
6.32872e-08
8.09654e-07
6.05e-06
1.20326e-05
5.26316e-06
1.45345e-05
3.32445e-05
0.00523092
0.00587592
0.0051599
0.00252867
0.00169793
0.00114846
1.0427e-05
6.51092e-06
1.65676e-05
0.000275479
0.000213832
0.00032697
1.27467e-05
8.36122e-06
0.000117651
0.000328781
0.000187923
1.30283e-06
7.22122e-07
6.85849e-07
1.10487e-06
9.15183e-07
1.39414e-07
6.49403e-08
4.75816e-08
3.36655e-08
5.70955e-07
7.27685e-07
1.30738e-06
5.39026e-06
2.2788e-05
0.00422541
0.00508326
0.00483
0.00476866
0.00420909
2.00678e-05
1.12482e-05
1.35125e-05
1.16975e-05
6.94092e-06
1.90277e-06
6.30515e-07
6.8531e-07
1.25696e-06
2.59971e-06
9.96749e-05
1.08655e-06
1.27585e-06
1.68954e-06
2.373e-06
1.2791e-06
1.7446e-07
8.04423e-08
9.28077e-08
8.75639e-08
1.04247e-07
5.36099e-07
5.56778e-08
1.97264e-07
3.74231e-06
2.08544e-05
0.00230296
0.00476659
0.00470166
0.000185481
5.81617e-06
2.5507e-06
2.45177e-06
1.07243e-06
1.57634e-07
1.81688e-07
2.74134e-07
6.8605e-07
1.09645e-06
1.72336e-06
0.000134248
0.000287
0.000353108
0.000363475
0.000113539
2.23042e-06
3.43581e-07
1.03295e-07
9.32051e-08
8.38255e-08
6.85385e-08
4.78948e-07
5.0502e-08
7.40747e-08
4.1291e-07
5.40975e-06
0.00066947
0.00343399
0.00354317
1.07234e-05
1.65294e-06
8.4091e-08
2.39859e-07
1.07684e-07
1.42753e-07
2.64897e-07
4.94944e-07
1.24171e-06
1.48451e-06
1.69894e-06
0.00035101
0.00106317
0.00105924
0.00107106
0.000758816
3.72684e-06
7.78297e-07
2.75238e-07
1.64891e-07
1.08777e-07
1.07982e-07
4.30522e-07
6.19896e-08
7.56113e-08
7.76245e-08
1.35654e-06
1.34277e-05
0.000569403
0.000425089
4.145e-06
9.31698e-07
9.96258e-08
1.09111e-07
1.75248e-07
1.1803e-07
3.93549e-07
9.73951e-07
1.81728e-06
1.88544e-06
1.32936e-06
3.83854e-05
0.00106024
0.0010738
0.000701329
0.00061204
0.000612477
1.52917e-05
5.56806e-06
2.85614e-06
2.11313e-06
2.07026e-06
3.41761e-07
8.77304e-08
9.05286e-08
7.92279e-08
8.00751e-08
2.14706e-06
1.65034e-05
0.000129824
3.51161e-06
8.63335e-07
1.52699e-07
1.41031e-07
2.00219e-07
1.26364e-07
7.0503e-07
1.50128e-06
2.26815e-06
2.1746e-06
1.50318e-06
2.24982e-06
1.10998e-05
9.9225e-06
7.33723e-06
8.72723e-06
1.1938e-05
1.19539e-05
8.86723e-06
6.83973e-06
6.28303e-06
7.71679e-06
3.2826e-07
1.66118e-07
1.42377e-07
9.89113e-08
1.19e-07
1.02715e-07
3.02891e-06
0.000147394
4.39511e-06
5.01345e-07
1.69317e-07
1.29765e-07
1.73153e-07
1.72608e-07
1.22749e-06
2.34447e-06
2.54201e-06
2.20166e-06
1.48893e-06
1.11675e-06
9.66812e-07
6.11901e-07
3.74454e-07
6.89623e-07
1.1049e-06
1.12587e-06
1.37928e-06
1.8401e-06
2.27977e-06
4.62722e-06
3.95565e-07
4.31298e-07
3.70799e-07
1.87658e-07
1.08946e-07
2.57763e-07
1.88759e-07
7.09889e-06
7.73168e-06
1.01657e-06
2.14101e-07
1.17822e-07
1.77509e-07
1.58531e-07
1.98797e-06
4.02762e-06
2.61617e-06
1.93481e-06
1.17657e-06
1.01953e-06
6.03404e-07
1.93279e-07
9.23526e-08
7.81102e-08
5.59905e-08
5.64854e-08
6.44719e-08
8.9249e-08
1.40177e-07
1.6253e-06
5.86326e-07
1.14723e-06
1.08035e-06
6.18289e-07
2.71912e-07
3.2195e-07
4.49501e-07
1.15524e-06
5.46726e-06
2.33523e-06
3.31862e-07
1.09911e-07
1.6737e-07
1.31698e-07
3.40338e-06
5.81832e-06
2.56488e-06
1.78563e-06
1.01358e-06
7.94287e-07
7.39806e-07
3.15015e-07
1.08533e-07
8.11543e-08
7.05184e-08
7.52294e-08
6.43526e-08
5.17521e-08
5.3241e-08
1.04736e-06
8.90154e-07
9.52638e-05
6.12838e-06
1.44603e-06
6.17635e-07
3.31238e-07
3.16898e-07
4.70925e-07
1.75742e-06
2.45889e-06
9.43709e-07
8.38409e-08
1.57415e-07
1.38614e-07
5.1072e-06
6.68796e-06
2.74051e-06
2.00875e-06
1.24447e-06
1.03958e-06
1.00376e-06
5.45475e-07
1.97049e-07
1.13095e-07
8.03219e-08
6.03514e-08
6.48357e-08
6.61232e-08
7.7976e-08
9.14763e-07
0.00174389
0.00348816
0.00239395
0.000137803
1.44282e-06
5.50952e-07
3.01624e-07
3.04753e-07
5.44334e-07
1.97247e-06
9.54557e-07
5.33024e-08
1.22372e-07
1.43103e-07
6.31582e-06
6.4112e-06
3.21464e-06
2.41052e-06
1.36571e-06
1.13089e-06
1.42241e-06
9.61076e-07
3.17416e-07
1.70188e-07
1.28664e-07
8.85564e-08
7.00389e-08
6.8458e-08
7.80773e-08
9.86518e-07
0.00383403
0.00383791
0.00383152
0.00365171
7.48826e-05
1.15674e-06
4.16328e-07
3.59164e-07
3.24729e-07
1.1757e-06
7.47574e-07
9.02503e-08
1.1913e-07
1.72211e-07
6.53086e-06
6.06372e-06
3.6782e-06
2.69454e-06
1.65891e-06
6.18434e-06
1.97032e-05
2.19689e-06
6.34995e-07
2.77287e-07
1.76386e-07
1.14317e-07
8.03019e-08
6.57973e-08
8.37143e-08
1.10179e-06
0.00384081
0.00383086
0.00383373
0.00383255
0.00268603
2.49277e-06
8.997e-07
3.33056e-07
3.03443e-07
3.45271e-07
5.34234e-07
2.73166e-07
1.56977e-07
2.16439e-07
6.86944e-06
9.07416e-06
6.14077e-06
7.42396e-05
0.000158155
0.000244207
0.00031826
0.000139735
1.62335e-06
2.8197e-07
2.36925e-07
1.60826e-07
1.15595e-07
9.25248e-08
1.02472e-07
1.28722e-06
0.00347635
0.000911509
0.00209445
0.00382758
0.00382214
0.000869057
1.37024e-06
5.05809e-07
4.38089e-07
2.8043e-07
4.4827e-07
3.66701e-07
3.28798e-07
2.6125e-07
7.75007e-06
0.000149825
0.000252093
0.000720756
0.00109411
0.00123028
0.00133132
0.000567086
3.12905e-06
2.37805e-07
2.22246e-07
1.93052e-07
1.61285e-07
1.25886e-07
1.41558e-07
1.49653e-06
1.56196e-05
1.24447e-05
3.30033e-05
0.00285088
0.00319935
0.00317535
0.000165647
9.61148e-07
4.11643e-07
2.5872e-07
1.89896e-07
2.2921e-07
3.11595e-07
2.53715e-07
1.04046e-05
0.00202012
0.00206999
0.00204995
0.00209106
0.00204741
0.00205186
0.000363942
3.24537e-06
2.74297e-07
2.59311e-07
2.40442e-07
2.24945e-07
1.83767e-07
2.23254e-07
1.73509e-06
2.03153e-06
1.58913e-06
4.1763e-06
1.64486e-05
4.16007e-05
0.000131977
3.24533e-05
4.91086e-06
8.22787e-07
7.51469e-07
5.41899e-07
3.70474e-07
4.25324e-07
1.2974e-06
1.80031e-05
0.00228221
0.00206088
0.00235392
0.00205501
0.00213205
0.00100901
6.12471e-06
1.67588e-06
6.09788e-07
4.35728e-07
3.64341e-07
3.49068e-07
3.18803e-07
4.09442e-07
2.26654e-06
9.02154e-07
1.8381e-07
2.51193e-07
1.6127e-06
4.52883e-06
6.88519e-06
8.66052e-06
1.52893e-05
1.29625e-05
1.10593e-05
9.65696e-06
8.58237e-06
8.19105e-06
1.21683e-05
2.75994e-05
0.000465644
0.00239922
0.00206661
0.0024025
0.00204284
7.94099e-06
1.26816e-06
8.86949e-07
7.11017e-07
6.0816e-07
5.56127e-07
5.79777e-07
6.57779e-07
8.88855e-07
4.16297e-06
8.1405e-07
4.26275e-08
5.01174e-08
1.46937e-07
2.12114e-07
2.76764e-07
6.47978e-07
4.34627e-06
1.13115e-05
1.33161e-05
1.36233e-05
1.27622e-05
1.08274e-05
1.05376e-05
6.35241e-06
5.44047e-06
1.93795e-05
0.00240858
0.00204887
0.000370605
1.19467e-06
7.46097e-07
6.0133e-07
6.39996e-07
6.68399e-07
7.82872e-07
9.90078e-07
1.33562e-06
2.29548e-06
0.0041897
7.91138e-07
1.79129e-08
2.44596e-08
7.28689e-08
9.61565e-08
1.33071e-07
7.98299e-08
1.8116e-07
1.13833e-06
1.95607e-06
2.81516e-06
2.65079e-06
1.98512e-06
1.53877e-06
5.78725e-07
4.67294e-07
1.61265e-06
8.29333e-06
1.55793e-05
3.41479e-06
1.19831e-06
7.2756e-07
6.8386e-07
7.33847e-07
9.08931e-07
1.23683e-06
1.71876e-06
0.00039108
0.0053836
0.0213755
8.10443e-07
1.75494e-08
2.26083e-08
5.11398e-08
1.01544e-07
1.12149e-07
4.55836e-08
3.99677e-08
7.45777e-08
6.56254e-08
1.43517e-07
1.28209e-07
7.53105e-08
5.66541e-08
2.77329e-08
4.49748e-08
4.58443e-08
1.74708e-06
5.10289e-06
3.14971e-06
1.454e-06
9.80993e-07
8.82544e-07
1.03952e-06
1.38421e-06
3.43219e-05
0.0012561
0.00793509
0.0213438
0.0298257
7.84165e-07
2.54048e-08
2.24169e-08
3.64053e-08
7.02331e-08
1.18505e-07
5.07121e-08
3.92291e-08
7.13962e-08
2.28912e-08
1.20174e-08
1.59987e-08
2.20266e-08
3.42628e-08
3.49152e-08
4.22548e-08
5.76243e-08
1.6626e-06
4.64767e-06
3.19773e-06
1.77938e-06
1.17401e-06
1.20864e-06
1.46257e-06
0.000164112
0.00177107
0.00774761
0.0193328
0.0285913
0.0248711
7.19034e-07
2.70302e-08
2.04377e-08
2.8593e-08
5.6982e-08
9.40508e-08
4.95006e-08
2.98864e-08
6.96206e-08
3.66514e-08
1.9471e-08
2.17242e-08
2.75485e-08
4.09768e-08
4.65356e-08
4.37295e-08
8.6069e-08
1.90506e-06
4.72061e-06
3.34045e-06
1.86938e-06
1.52257e-06
7.51761e-06
0.000278487
0.00190011
0.0069061
0.0162563
0.0261331
0.0286118
0.0157859
6.84097e-07
2.31948e-08
1.67279e-08
2.94359e-08
4.71141e-08
6.62948e-08
4.12617e-08
2.37002e-08
4.63899e-08
3.78934e-08
2.55463e-08
3.15774e-08
3.08266e-08
3.9895e-08
5.67994e-08
3.20245e-08
3.35611e-07
2.83455e-06
4.37881e-06
2.79604e-06
2.05705e-06
3.62254e-05
0.000406476
0.00202224
0.00639727
0.0142882
0.0229201
0.0263991
0.0242229
0.00514193
6.92755e-07
2.44745e-08
2.01777e-08
3.2723e-08
5.10302e-08
6.11658e-08
3.24921e-08
2.3538e-08
2.66269e-08
2.40335e-08
3.60997e-08
3.66685e-08
3.01379e-08
4.90047e-08
4.87905e-08
1.88002e-08
8.59312e-07
3.93917e-06
1.03967e-05
2.06368e-05
0.000114516
0.00064194
0.00238698
0.00645648
0.0134178
0.0208203
0.0258833
0.0261268
0.0102968
0.0019644
6.74772e-07
3.15679e-08
2.43995e-08
2.98988e-08
3.82494e-08
5.51531e-08
3.67968e-08
2.1265e-08
1.74112e-08
2.6288e-08
4.08429e-08
2.5966e-08
2.69586e-08
6.88686e-08
4.10523e-08
7.45368e-08
1.83799e-06
6.03197e-06
0.000104094
0.000282439
0.000993477
0.002918
0.00681766
0.0128294
0.0192028
0.0209621
0.0208554
0.0135857
0.00197482
0.00195317
6.13561e-07
3.44973e-08
2.57745e-08
2.75676e-08
3.59646e-08
5.19537e-08
3.12491e-08
2.09792e-08
2.03057e-08
3.24393e-08
3.11857e-08
1.8066e-08
3.54442e-08
6.59664e-08
3.69755e-08
3.25693e-07
3.71166e-06
0.000145894
0.000500662
0.00128634
0.00326068
0.00687036
0.0118081
0.016561
0.0183924
0.0167942
0.0102408
0.00454775
0.00195627
0.00332672
5.68425e-07
3.69536e-08
2.60598e-08
2.71284e-08
3.41165e-08
5.73627e-08
3.89738e-08
2.34713e-08
2.25808e-08
3.25497e-08
2.63655e-08
1.76659e-08
3.38314e-08
6.6713e-08
3.34018e-08
6.08829e-07
6.00049e-06
0.000481152
0.00128388
0.0030687
0.00632703
0.0103639
0.0134787
0.0139199
0.0112559
0.00729825
0.0041007
0.00212332
0.00199099
0.011323
5.0493e-07
4.74424e-08
2.69118e-08
2.64288e-08
3.34978e-08
5.65512e-08
5.31796e-08
2.6887e-08
2.72908e-08
3.21497e-08
1.79158e-08
1.39206e-08
3.49855e-08
6.6207e-08
3.83144e-08
6.86493e-07
7.43797e-06
0.00088877
0.00244891
0.00542878
0.00921365
0.0117748
0.0119259
0.00994916
0.00720165
0.00530637
0.00429221
0.00399344
0.00871897
0.0370149
4.17965e-07
5.38123e-08
2.98143e-08
2.57507e-08
3.30073e-08
7.14862e-08
8.30819e-08
3.3891e-08
4.37511e-08
2.42015e-08
5.99861e-08
4.95451e-08
5.10246e-08
7.18102e-08
4.3735e-08
8.00811e-07
8.44127e-06
0.00144667
0.00428258
0.00834944
0.0114653
0.0121438
0.011168
0.00975512
0.00890585
0.00878253
0.00943803
0.0139214
0.0341775
0.0755718
3.57926e-07
5.72089e-08
3.70844e-08
2.81576e-08
3.6128e-08
9.02789e-08
1.33922e-07
5.25653e-08
5.25909e-08
1.52737e-07
1.31476e-07
1.44965e-07
1.31531e-07
9.61829e-08
7.05009e-08
9.18611e-07
1.08116e-05
0.00246089
0.00716427
0.0113932
0.0130353
0.0128405
0.012306
0.0126368
0.0141559
0.0170125
0.0229336
0.0391319
0.0749387
0.083301
2.71634e-07
6.76937e-08
4.75541e-08
3.33165e-08
3.9402e-08
1.0884e-07
1.64165e-07
8.12026e-08
9.93352e-08
1.39566e-07
8.33347e-08
9.25642e-08
1.91216e-07
1.59343e-07
8.5101e-08
1.2249e-06
8.69188e-05
0.00536573
0.0114839
0.01416
0.0145291
0.0145923
0.0155439
0.0184394
0.0236244
0.0324541
0.0482204
0.075667
0.0841948
0.0909289
2.17454e-07
6.56617e-08
6.54397e-08
4.17224e-08
4.17635e-08
1.26042e-07
2.14143e-07
9.98382e-08
1.08489e-07
9.67329e-08
1.03097e-07
1.08394e-07
1.65841e-07
2.38857e-07
7.34681e-08
2.78611e-06
0.000818294
0.0111034
0.0166706
0.0172924
0.0174521
0.0185216
0.0224107
0.0297608
0.0414757
0.0594602
0.0777855
0.0856383
0.0940637
0.100789
1.44814e-07
6.03545e-08
7.00638e-08
4.68077e-08
4.07903e-08
1.0868e-07
2.88153e-07
1.15864e-07
6.88228e-08
8.04885e-08
1.2066e-07
1.9411e-07
2.59913e-07
5.05552e-07
3.6733e-07
9.06682e-06
0.0069248
0.0203186
0.020753
0.0207465
0.0207626
0.0234021
0.0319769
0.0455117
0.0656966
0.0792231
0.0869683
0.0958927
0.104937
0.111138
1.16329e-07
8.08345e-08
1.03528e-07
6.02908e-08
4.0619e-08
7.62937e-08
3.37932e-07
1.4977e-07
5.86625e-08
7.50833e-08
9.9451e-08
1.81298e-07
3.96302e-07
1.33212e-06
3.16437e-06
0.00441745
0.020258
0.0207769
0.0205751
0.0193688
0.0155136
0.0232081
0.0376299
0.0572772
0.0775127
0.0858305
0.0958255
0.106444
0.11444
0.118071
1.23886e-07
6.53819e-08
1.08846e-07
7.60863e-08
3.85385e-08
4.74722e-08
2.9085e-07
1.88982e-07
5.27063e-08
7.91627e-08
9.95028e-08
1.74658e-07
3.19062e-07
3.6138e-06
0.000368369
0.0130315
0.0205537
0.0201021
0.00720569
0.00386043
0.00913216
0.0243465
0.0422527
0.0640411
0.0808823
0.0922173
0.10524
0.11588
0.118894
0.118977
1.3414e-07
7.39397e-08
1.13811e-07
7.32774e-08
3.45234e-08
3.00701e-08
1.84653e-07
1.64041e-07
4.29886e-08
8.74048e-08
1.06816e-07
1.39803e-07
2.48865e-07
2.15095e-06
5.51863e-05
0.012688
0.0099191
0.000392034
0.000391246
0.00277292
0.0204711
0.0414618
0.0505856
0.0679038
0.0841285
0.0993952
0.113814
0.118434
0.118346
0.118422
1.57023e-07
8.40983e-08
1.19345e-07
6.53854e-08
2.9875e-08
2.43756e-08
8.23584e-08
1.08647e-07
2.97361e-08
7.83455e-08
1.03249e-07
1.36733e-07
2.0031e-07
2.9678e-07
9.07293e-06
3.12275e-05
5.45306e-06
3.59259e-06
0.00240627
0.0330319
0.0477217
0.0482649
0.0485669
0.0641634
0.0877081
0.105466
0.113482
0.104958
0.0417804
0.0378156
2.00902e-07
1.17763e-07
1.18677e-07
5.81288e-08
2.78446e-08
2.25935e-08
3.31586e-08
3.00158e-08
2.48131e-08
6.76474e-08
9.60625e-08
1.29537e-07
4.45287e-07
8.71208e-07
1.15758e-06
3.32457e-06
1.04286e-05
0.00732868
0.0457725
0.048084
0.0475386
0.036516
0.0228171
0.0597847
0.0926186
0.105106
0.0946074
0.0116746
2.4024e-05
0.00330641
2.70721e-07
2.16499e-07
1.1264e-07
5.19429e-08
2.91976e-08
2.70173e-08
2.89698e-08
2.23429e-08
3.07658e-08
5.27794e-08
1.00445e-07
4.71898e-07
3.38787e-06
7.81462e-06
0.000108473
0.000394668
0.0110782
0.0448275
0.0481986
0.0461316
0.015285
0.00240099
0.0120837
0.0790752
0.0950833
0.0955563
0.00932817
9.15012e-06
6.12273e-06
4.09907e-05
3.99406e-07
4.03051e-07
1.08688e-07
5.28945e-08
4.08127e-08
4.0482e-08
3.76e-08
3.91303e-08
4.42713e-08
6.5189e-08
4.25085e-07
5.07731e-06
0.00012068
0.00323573
0.0112708
0.0322171
0.043957
0.0479212
0.0446042
0.00398006
0.000138128
0.00113131
0.0403701
0.092226
0.0933923
0.0515276
0.000222477
6.06253e-06
1.98061e-06
1.13737e-05
9.4774e-07
7.80544e-07
1.15799e-07
6.55054e-08
6.01358e-08
5.20361e-08
4.07192e-08
5.03617e-08
5.41572e-08
2.64664e-07
4.48051e-06
0.000202076
0.0061203
0.0177584
0.0332564
0.0434196
0.0448801
0.02937
0.00803673
0.000144335
0.000138403
0.00975678
0.0843101
0.092171
0.0811777
0.00354613
4.42933e-06
2.54359e-06
5.20302e-07
7.49287e-06
3.19649e-06
1.5624e-06
1.35785e-07
8.17931e-08
6.98959e-08
5.8544e-08
5.302e-08
7.76493e-08
2.02869e-07
3.59798e-06
3.49088e-05
0.00649956
0.0178324
0.0180573
0.0156187
0.0184587
0.0120414
0.00558637
0.00317634
0.00028448
0.00177637
0.0350837
0.0876963
0.087979
0.0361287
0.000220839
3.40121e-06
1.66306e-06
4.59388e-07
6.73356e-06
8.03365e-06
2.64515e-06
1.64118e-07
8.58578e-08
7.98492e-08
9.19357e-08
1.57404e-07
3.42831e-07
2.56462e-06
2.79103e-05
0.00340711
0.00491474
0.00655398
0.0110403
3.40689e-05
1.39568e-05
1.01618e-05
9.529e-06
1.08513e-05
1.35002e-05
0.00136793
0.0513385
0.0866431
0.0791789
0.00853029
3.5798e-06
3.06296e-06
1.97715e-06
3.54535e-07
5.51826e-06
0.00032064
4.06924e-06
1.82451e-07
9.74753e-08
1.49322e-07
3.21777e-07
2.53768e-06
9.61164e-06
2.71013e-05
2.44826e-05
2.00558e-05
2.04675e-05
2.26258e-05
1.66928e-05
8.27098e-06
3.88197e-06
1.45626e-06
7.9748e-07
1.49685e-06
8.97627e-06
0.00010285
0.0421089
0.0840898
0.0580599
0.00159908
3.49618e-06
4.69828e-06
3.9041e-06
1.27456e-07
4.22271e-06
0.000406872
6.82766e-06
2.5735e-07
3.95592e-07
1.94284e-06
8.40595e-06
1.64551e-05
2.07064e-05
1.48154e-05
3.21671e-06
2.23899e-06
3.37466e-06
5.33963e-06
2.51745e-06
3.3728e-07
4.53611e-07
4.73441e-07
5.35702e-07
1.09962e-06
5.83823e-06
1.48577e-05
0.0353114
0.081953
0.0422077
0.0013744
3.30318e-06
6.61168e-06
3.89865e-06
3.28351e-07
3.55708e-06
0.000410223
1.17265e-05
3.02377e-06
5.02022e-06
8.80873e-06
1.17557e-05
7.87343e-06
3.45389e-06
8.90796e-07
5.62383e-08
3.13364e-08
9.61324e-08
2.46779e-07
4.5021e-07
7.1913e-07
9.75737e-07
1.06978e-06
9.33058e-07
1.60179e-06
4.38967e-06
1.35221e-05
0.042586
0.08019
0.0309548
0.00123906
8.38253e-06
5.06587e-06
1.35833e-06
8.52451e-07
2.88025e-06
2.18255e-05
1.17136e-05
6.8764e-06
6.01562e-06
4.69994e-06
2.20925e-06
7.16096e-07
9.1289e-08
2.50781e-08
2.21113e-08
2.81976e-08
9.01473e-08
2.43764e-07
5.54131e-07
9.81037e-07
1.52523e-06
1.80706e-06
1.58883e-06
2.29714e-06
4.27766e-06
0.000124306
0.0758806
0.0786289
0.0222297
0.00116592
3.96575e-06
1.43165e-06
7.66776e-07
2.99972e-06
2.46236e-06
2.92202e-06
2.7503e-06
3.02229e-06
1.6463e-06
7.92576e-07
1.33216e-07
1.54268e-08
1.65804e-08
2.17957e-08
2.15492e-08
3.16751e-08
8.13936e-08
1.91046e-07
4.49843e-07
9.40319e-07
1.53359e-06
1.51098e-06
1.53134e-06
2.55187e-06
4.25006e-06
0.00218414
0.0775357
0.0778228
0.0130499
0.000289376
2.0021e-06
5.22174e-07
2.17307e-06
5.87839e-06
8.93048e-07
1.63224e-06
1.1742e-06
1.18534e-06
2.49786e-07
2.4508e-08
1.50147e-08
1.4484e-08
1.86972e-08
2.28868e-08
2.20408e-08
3.20103e-08
6.63669e-08
1.44176e-07
3.21197e-07
6.58618e-07
8.73034e-07
8.19525e-07
1.73513e-06
3.04641e-06
6.49888e-06
0.0270587
0.0775194
0.0538792
0.0039181
6.7383e-06
6.97113e-07
1.29492e-06
7.27594e-06
2.32808e-06
2.10858e-07
2.97733e-07
6.863e-08
4.31171e-08
2.02677e-08
1.80397e-08
1.63623e-08
1.61361e-08
1.97929e-08
2.29279e-08
2.41627e-08
3.57229e-08
6.46454e-08
1.18645e-07
2.32237e-07
3.86362e-07
6.58508e-07
1.09502e-06
2.78461e-06
4.03409e-06
0.00672822
0.0769108
0.0771309
0.01321
1.47449e-05
3.02114e-06
6.66194e-07
8.63912e-06
6.06598e-06
4.95741e-07
2.75869e-07
1.65526e-07
5.24305e-08
3.0354e-08
2.13196e-08
1.88468e-08
1.80652e-08
1.89955e-08
2.06597e-08
2.30916e-08
2.89801e-08
4.43715e-08
6.91028e-08
1.03802e-07
1.88758e-07
4.79692e-07
1.11396e-06
4.68278e-06
3.70087e-05
0.00320474
0.0462973
0.0768209
0.0335404
0.000600064
8.18734e-06
1.35471e-06
9.44239e-06
7.28742e-06
6.83655e-07
6.6082e-07
4.57799e-07
1.52088e-07
5.52258e-08
2.96842e-08
2.27561e-08
2.0692e-08
1.99059e-08
2.16331e-08
2.25607e-08
2.89247e-08
3.55327e-08
5.05059e-08
7.68214e-08
1.08397e-07
2.03167e-07
1.14059e-06
5.147e-06
0.000334266
0.00263041
0.0204195
0.0565767
0.0566819
0.00505201
1.56939e-05
2.44478e-06
4.79893e-06
3.16739e-06
5.43362e-07
2.66536e-07
6.34721e-07
5.43499e-07
1.65783e-07
6.30301e-08
3.38444e-08
2.47144e-08
2.12397e-08
2.25922e-08
2.44357e-08
2.8662e-08
3.67846e-08
4.48208e-08
6.0375e-08
9.90117e-08
1.5147e-07
2.39346e-07
1.7505e-06
1.25441e-05
0.0020124
0.00966409
0.0342343
0.0552425
0.0174743
2.5813e-05
4.84972e-06
2.10891e-06
4.29701e-07
9.43221e-08
3.94904e-07
3.09518e-07
5.28366e-08
3.85854e-07
1.82555e-07
5.89285e-08
3.26238e-08
2.42875e-08
2.31352e-08
2.53058e-08
2.98268e-08
3.73096e-08
4.61828e-08
6.18683e-08
9.06898e-08
1.45826e-07
2.44347e-07
3.8463e-07
1.54776e-06
1.49359e-05
0.00421576
0.0152399
0.0353483
0.0362547
0.00532179
1.74999e-05
1.94557e-06
9.85283e-07
3.4601e-08
5.5048e-08
3.80954e-07
3.15696e-07
5.9079e-09
8.15242e-08
1.79933e-07
4.37094e-08
3.01225e-08
2.6339e-08
2.70557e-08
3.07158e-08
3.8768e-08
4.79119e-08
6.28017e-08
9.50497e-08
1.53518e-07
2.63894e-07
4.37118e-07
8.44776e-07
2.24214e-06
1.017e-05
0.00223961
0.0100763
0.024172
0.0197463
0.00155615
9.17994e-06
1.08188e-06
9.49576e-08
2.73936e-08
3.36518e-08
2.3409e-07
1.93065e-07
4.37259e-09
3.58179e-08
1.73917e-07
3.12607e-08
2.93039e-08
2.98792e-08
3.25218e-08
3.99796e-08
4.87758e-08
6.47523e-08
9.87626e-08
1.55155e-07
2.65215e-07
4.84757e-07
1.04987e-06
4.46724e-06
0.000263468
0.000273007
0.000464596
0.00279553
0.0108671
0.0116338
0.000259676
5.34929e-06
5.72842e-07
4.91127e-08
2.57746e-08
2.30997e-08
1.2901e-07
2.05693e-07
6.62047e-09
1.68432e-08
1.60305e-07
2.71379e-08
3.26226e-08
3.48795e-08
4.10445e-08
5.16505e-08
7.08379e-08
1.02086e-07
1.55452e-07
2.52203e-07
4.64839e-07
1.05834e-06
4.30507e-06
0.000211095
0.000694441
0.0013502
0.0011329
0.001485
0.00323295
0.00616879
3.61096e-05
3.35016e-06
2.60132e-07
4.98097e-08
2.74669e-08
2.18545e-08
8.41998e-08
2.13743e-07
1.03105e-08
2.66323e-08
1.53052e-07
2.78833e-08
3.75037e-08
4.38797e-08
5.51711e-08
7.63466e-08
1.09089e-07
1.62189e-07
2.494e-07
4.06386e-07
8.50909e-07
1.80424e-06
0.000192133
0.000404448
0.000779057
0.00136083
0.00146507
0.00148048
0.00149884
0.00147353
2.41946e-05
2.66772e-06
1.71685e-07
6.3575e-08
2.71959e-08
1.82119e-08
5.68275e-08
1.81276e-07
1.19908e-08
1.00388e-07
1.47336e-07
3.21205e-08
4.6988e-08
5.94695e-08
8.17608e-08
1.18905e-07
1.75071e-07
2.61274e-07
3.85244e-07
6.16051e-07
1.38117e-06
0.000111374
0.000476159
0.000769524
0.00102008
0.00132897
0.00144815
0.00146529
0.00118863
0.000468017
1.51741e-05
2.21034e-06
1.55235e-07
7.24361e-08
3.83773e-08
1.82829e-08
3.42737e-08
1.81427e-07
1.1182e-08
1.36658e-07
1.4503e-07
4.23296e-08
6.3856e-08
8.78715e-08
1.30277e-07
1.96262e-07
2.90276e-07
4.14431e-07
5.55844e-07
8.16531e-07
4.189e-06
0.000176026
0.000536672
0.00102584
0.00132458
0.0014168
0.0014343
0.00144978
0.00143526
0.00064667
1.29718e-05
1.38399e-06
5.81291e-08
7.01804e-08
5.3444e-08
1.72738e-08
2.62081e-08
1.39315e-07
1.33606e-08
1.84018e-07
1.50438e-07
6.27584e-08
9.66042e-08
1.42901e-07
2.21269e-07
3.34124e-07
4.64776e-07
5.94915e-07
8.36952e-07
1.54318e-06
2.34203e-05
7.04155e-05
0.000168351
0.000463459
0.0010284
0.0014028
0.0014195
0.00143744
0.00142313
0.00131727
1.08655e-05
7.30846e-07
4.03085e-08
5.63222e-08
5.91266e-08
1.91988e-08
2.49775e-08
9.79737e-08
1.39073e-08
3.37207e-07
1.70625e-07
1.04595e-07
1.61121e-07
2.48778e-07
3.84115e-07
5.4545e-07
7.41472e-07
1.25806e-06
2.24264e-06
1.21295e-05
1.36467e-05
1.07383e-05
1.22487e-05
2.82919e-05
9.92343e-05
0.000336601
0.000747051
0.00111117
0.0014089
0.00046323
6.25783e-06
2.13911e-07
4.34884e-08
5.04556e-08
4.34266e-08
2.41361e-08
2.14429e-08
8.83212e-08
1.08513e-08
5.12822e-07
2.22602e-07
1.92207e-07
2.87101e-07
4.38046e-07
6.40664e-07
1.01676e-06
1.95307e-06
3.35745e-05
4.74652e-05
3.99919e-05
2.26119e-05
5.99556e-06
3.98538e-06
4.30369e-06
4.93921e-06
5.87648e-06
1.31007e-05
2.76833e-05
0.00014448
1.28276e-05
2.88356e-06
1.80166e-07
5.14844e-08
6.92126e-08
3.64352e-08
1.88277e-08
1.67833e-08
6.9099e-08
1.16324e-08
7.14748e-07
3.46664e-07
3.71118e-07
5.21484e-07
7.77172e-07
1.37963e-06
2.59107e-05
0.000130352
0.000225765
0.000290062
0.000309672
0.000292437
0.000245244
0.000187978
7.11497e-05
7.04701e-06
3.54396e-06
3.20301e-06
3.39221e-06
5.09639e-06
4.9704e-06
3.17168e-06
4.00445e-07
5.90515e-08
8.75453e-08
4.78399e-08
1.60499e-08
1.41924e-08
4.65646e-08
1.22285e-08
8.67225e-07
6.13515e-07
7.28701e-07
1.05939e-06
1.79545e-06
4.37269e-05
0.000141759
0.000255344
0.000405278
0.000586899
0.000782283
0.000975784
0.00115549
0.00124575
0.00113568
0.000930058
0.000870238
0.000771037
0.00049882
0.000156787
0.000121252
7.58713e-06
8.76867e-07
5.70757e-08
6.51108e-08
7.07809e-08
1.85134e-08
1.79557e-08
2.50089e-08
3.7256e-08
9.62641e-07
1.1427e-06
1.60801e-06
2.35268e-06
3.76736e-05
0.000103107
0.000176313
0.000271864
0.000401983
0.000582381
0.000827182
0.0011398
0.00152158
0.00192984
0.00223219
0.00228662
0.00230031
0.00228713
0.00213698
0.00132451
0.000552548
1.20867e-05
1.53932e-06
7.88221e-08
5.56993e-08
6.30411e-08
2.41379e-08
1.93352e-08
1.66272e-08
5.19066e-07
9.15913e-07
2.37052e-06
2.80073e-06
2.03849e-05
6.28182e-05
0.000114821
0.000174433
0.000247942
0.000338944
0.000452129
0.000593917
0.000771152
0.000990001
0.00125152
0.00153777
0.00188538
0.00227372
0.00230153
0.00228834
0.00230046
0.00133234
4.69547e-05
1.74291e-06
1.04014e-07
5.36716e-08
4.90309e-08
2.89565e-08
1.38209e-08
2.45226e-08
7.34014e-07
1.13113e-06
3.3888e-06
2.68984e-06
1.99527e-05
6.36562e-05
0.00011565
0.00016994
0.000225525
0.000279785
0.000329187
0.000370819
0.00040558
0.000435126
0.000457423
0.000467718
0.000482498
0.000526119
0.0006646
0.000934797
0.00138054
0.00137951
1.9819e-05
1.19646e-06
1.19842e-07
6.09459e-08
4.42227e-08
1.70515e-08
1.28209e-08
8.74162e-08
8.70667e-07
1.02259e-06
3.60269e-06
1.88932e-06
1.68688e-05
6.3071e-05
0.000117882
0.000171402
0.000219166
0.000253203
0.000264048
0.000251048
0.000219924
0.000181189
0.000140575
9.73322e-05
5.85186e-05
3.85585e-05
3.42446e-05
4.50184e-05
0.000111126
0.000394321
7.55959e-06
8.04168e-07
1.53634e-07
6.66621e-08
3.9973e-08
7.42408e-09
2.52174e-08
4.04289e-07
1.10571e-06
2.61084e-07
3.76677e-06
1.46195e-06
1.83682e-05
6.86539e-05
0.000128444
0.000185728
0.00023394
0.000262494
0.000259681
0.00022902
0.000178384
0.000128585
9.47268e-05
7.20502e-05
4.34149e-05
2.7934e-05
1.9067e-05
1.47368e-05
1.45057e-05
1.5187e-05
3.24747e-06
1.12974e-06
2.97669e-07
7.1218e-08
2.27554e-08
1.16006e-08
7.56144e-08
6.58777e-07
6.93713e-07
9.10399e-08
5.73694e-06
1.29278e-06
2.81816e-05
8.44103e-05
0.000151572
0.000220373
0.000282986
0.000328989
0.000347694
0.000335409
0.000296876
0.00024409
0.000204892
0.000198184
0.000231093
0.000274123
0.00030287
0.000278982
0.000170479
3.65312e-05
4.07967e-06
1.8367e-06
4.33216e-07
9.10661e-08
1.3031e-08
1.93621e-08
1.49031e-07
4.67084e-07
3.23535e-07
1.07821e-07
1.8518e-05
2.442e-06
4.63838e-05
0.000108587
0.000188446
0.00027941
0.00037535
0.000466295
0.000539651
0.000580681
0.00057913
0.000534
0.000460693
0.000386323
0.000331084
0.000306294
0.000358303
0.000433487
0.000434525
0.00020067
4.20136e-06
1.80344e-06
4.46335e-07
1.01468e-07
1.15539e-08
2.78861e-08
1.76158e-07
3.13213e-07
2.45429e-07
1.11815e-07
5.17568e-05
5.79233e-06
6.92329e-05
0.000140587
0.00024396
0.000372557
0.000523919
0.00069179
0.000863814
0.00101542
0.00111112
0.00110821
0.000970991
0.000693363
0.000353424
0.0001344
7.05662e-05
6.91687e-05
0.000298776
0.000261636
3.93273e-06
1.18561e-06
3.64706e-07
8.49483e-08
1.38549e-08
3.5464e-08
1.72215e-07
2.77333e-07
2.37177e-07
1.36968e-07
0.000138812
1.94421e-05
0.000100514
0.000196391
0.000343814
0.000539078
0.000780023
0.00105832
0.00136429
0.00166286
0.00192162
0.00208578
0.00208405
0.0017851
0.00113544
0.000380162
2.64763e-05
2.23909e-05
2.33792e-05
6.40165e-05
2.6741e-06
6.0824e-07
2.70052e-07