/*--------------------------------*- C++ -*----------------------------------*\
| =========                 |                                                 |
| \\      /  F ield         | OpenFOAM: The Open Source CFD Toolbox           |
|  \\    /   O peration     | Version:  2.3.0                                 |
|   \\  /    A nd           | Web:      www.OpenFOAM.org                      |
|    \\/     M anipulation  |                                                 |
\*---------------------------------------------------------------------------*/
FoamFile
{
    version     2.0;
    format      ascii;
    class       volVectorField;
    location    "0.900028";
    object      U.waterMean;
}
// * * * * * * * * * * * * * * * * * * * * * * * * * * * * * * * * * * * * * //

dimensions      [0 1 -1 0 0 0 0];

internalField   nonuniform List<vector> 
10000
(
(-0.230294 -1.00676 -0.592636)
(0.0351111 -0.984373 -0.584777)
(0.0966449 -0.828141 -0.53263)
(0.152698 -0.576534 -0.367458)
(0.140781 -0.384181 -0.244222)
(0.137585 -0.283307 -0.240837)
(0.0862578 -0.208713 -0.214732)
(0.030634 -0.199922 -0.193475)
(0.00827821 -0.198004 -0.181485)
(-0.00590825 -0.200902 -0.171239)
(-0.00792582 -0.206333 -0.16961)
(-0.0125777 -0.198644 -0.171638)
(-0.0309666 -0.193815 -0.183257)
(-0.0676879 -0.202914 -0.205437)
(-0.118788 -0.245922 -0.225973)
(-0.142592 -0.351617 -0.224329)
(-0.113225 -0.540544 -0.325699)
(-0.0565038 -0.703123 -0.44773)
(-0.0108883 -0.766907 -0.456383)
(0.194218 -0.752324 -0.463035)
(0.00746409 -1.0878 -0.0856718)
(-0.00147949 -0.997671 -0.0738769)
(0.00170764 -0.830221 -0.0585241)
(0.00176228 -0.456233 -0.00905732)
(0.0075982 -0.280503 -0.0619863)
(0.00461452 -0.145696 -0.292208)
(0.000863625 -0.149082 -0.238858)
(-0.0108872 -0.16108 -0.185245)
(0.00118598 -0.172225 -0.175535)
(-0.000775325 -0.181316 -0.148184)
(-0.00239704 -0.179564 -0.135979)
(-0.00362684 -0.17886 -0.146073)
(-0.00610019 -0.170379 -0.166972)
(-0.000988045 -0.157184 -0.204769)
(-0.0127023 -0.159548 -0.243381)
(-0.0173503 -0.283464 -0.10745)
(-0.00477567 -0.471069 -0.0221608)
(-0.00192332 -0.734518 -0.0557082)
(0.00183347 -0.770634 -0.0607559)
(0.0010377 -0.760175 -0.0568648)
(0.000370911 -1.10835 -0.0303977)
(0.00111903 -0.984857 -0.0207589)
(0.00419173 -0.825881 -0.0213621)
(0.000892546 -0.464204 -0.00758454)
(0.00115306 -0.291421 -0.0439723)
(0.00134775 -0.181449 -0.104254)
(0.00085494 -0.175251 -0.133286)
(0.000163551 -0.174011 -0.12507)
(0.000383781 -0.185788 -0.128894)
(-0.000111564 -0.189932 -0.124363)
(-0.000831341 -0.184611 -0.115935)
(-0.00162817 -0.189689 -0.122596)
(-0.00262958 -0.186778 -0.124892)
(-0.00393668 -0.182049 -0.127368)
(-0.00514911 -0.199413 -0.113361)
(-0.00633954 -0.318778 -0.0737707)
(-0.00263719 -0.489016 -0.0147695)
(-0.00484986 -0.729855 -0.0223291)
(-0.000603755 -0.770017 -0.0222752)
(0.00276976 -0.758263 -0.0180052)
(0.00309622 -1.07593 -0.012477)
(0.000252503 -0.955346 -0.00956439)
(0.00341213 -0.791528 -0.00540506)
(0.000803468 -0.40701 0.00691862)
(-0.00045739 -0.260103 -0.037855)
(-0.000388578 -0.165347 -0.116966)
(0.000372689 -0.161539 -0.153617)
(2.99903e-05 -0.160044 -0.139558)
(0.000177853 -0.173812 -0.140549)
(-9.8083e-05 -0.178526 -0.133958)
(-0.000422661 -0.171965 -0.125364)
(-0.000935879 -0.177779 -0.132716)
(-0.00158446 -0.174367 -0.136772)
(-0.0025813 -0.169135 -0.14304)
(-0.00274436 -0.185453 -0.125847)
(-0.00321641 -0.300375 -0.0696632)
(-0.00281477 -0.437895 -0.00116477)
(-0.00452769 -0.701969 -0.00678008)
(-0.000386686 -0.751403 -0.0120474)
(-0.00145312 -0.726035 -0.0042959)
(0.00117915 -1.09495 -0.0140805)
(0.000939885 -0.959117 -0.00991506)
(0.00379445 -0.8175 -0.0078647)
(0.00272525 -0.421487 0.00346629)
(0.00195075 -0.24642 -0.038906)
(-9.59786e-05 -0.1619 -0.115611)
(0.000312861 -0.158876 -0.151559)
(4.58222e-05 -0.155426 -0.138113)
(0.000191756 -0.170299 -0.138748)
(-5.78071e-05 -0.17414 -0.133302)
(-0.00028255 -0.166205 -0.12533)
(-0.000729869 -0.173053 -0.132688)
(-0.00133239 -0.169623 -0.136489)
(-0.00229853 -0.164391 -0.142549)
(-0.0025742 -0.181454 -0.124678)
(-0.00551265 -0.289958 -0.0702996)
(-0.00411668 -0.442844 -0.00220403)
(-0.00551369 -0.725856 -0.00720531)
(-0.000832351 -0.762929 -0.0100415)
(-8.95438e-05 -0.743145 -0.00603438)
(0.00169386 -1.09745 -0.0116146)
(0.000305026 -0.950905 -0.00787388)
(0.00330175 -0.81914 -0.00622051)
(0.00166818 -0.410031 0.00567501)
(0.000250204 -0.215716 -0.0369721)
(0.000486654 -0.145251 -0.122333)
(0.000696192 -0.145666 -0.158826)
(0.000346018 -0.141881 -0.143455)
(0.000364221 -0.156464 -0.142984)
(-7.14893e-06 -0.159371 -0.137116)
(-0.000245469 -0.149604 -0.129496)
(-0.000599655 -0.157903 -0.136499)
(-0.00117275 -0.155194 -0.1407)
(-0.00210593 -0.150166 -0.148149)
(-0.00247103 -0.164639 -0.130622)
(-0.00430256 -0.264281 -0.0712931)
(-0.00302673 -0.421506 -0.000160599)
(-0.00539734 -0.735404 -0.0054362)
(0.000285389 -0.767334 -0.00825058)
(0.000122865 -0.745509 -0.00670937)
(0.000720742 -1.10658 -0.010918)
(-0.000165973 -0.944944 -0.00660318)
(0.00338827 -0.832396 -0.00585374)
(0.00328311 -0.409305 0.00578838)
(0.00267742 -0.187748 -0.0316381)
(0.00162578 -0.134446 -0.120865)
(0.00142567 -0.135045 -0.157274)
(0.00084599 -0.129346 -0.141519)
(0.000590232 -0.142654 -0.140779)
(0.000101677 -0.144964 -0.1343)
(-0.000117862 -0.134728 -0.126852)
(-0.000418217 -0.143998 -0.13344)
(-0.000908024 -0.14178 -0.137982)
(-0.00184117 -0.1377 -0.146512)
(-0.00234974 -0.151626 -0.129416)
(-0.00594274 -0.24132 -0.0680823)
(-0.00397328 -0.411431 0.00114269)
(-0.00469763 -0.750174 -0.00487491)
(0.000859503 -0.777728 -0.0079052)
(-0.000166529 -0.748156 -0.00624973)
(-0.000458158 -1.11034 -0.0103671)
(-0.000670896 -0.937008 -0.00430041)
(0.00317588 -0.848238 -0.00534118)
(0.0035897 -0.408452 0.00680125)
(0.00238272 -0.133559 -0.0206388)
(0.00340498 -0.11119 -0.115407)
(0.00221302 -0.110927 -0.150542)
(0.00134834 -0.105583 -0.133761)
(0.000841256 -0.115642 -0.131153)
(0.000301789 -0.117329 -0.12333)
(8.41123e-05 -0.10837 -0.116403)
(-0.000150887 -0.116789 -0.122065)
(-0.000623943 -0.116121 -0.127083)
(-0.00144061 -0.113417 -0.137866)
(-0.00246064 -0.124363 -0.122614)
(-0.00515001 -0.193359 -0.0583827)
(-0.00390504 -0.401257 0.00264607)
(-0.00434226 -0.76775 -0.00453096)
(0.000958367 -0.783369 -0.00697646)
(0.000297487 -0.747558 -0.00566131)
(7.37965e-05 -1.10953 -0.00974545)
(-0.000508156 -0.934315 -0.00305763)
(0.00291806 -0.869575 -0.00551254)
(0.00435282 -0.419662 0.00710229)
(0.000420877 -0.0744263 0.0183785)
(0.000428172 -0.0717649 -0.0759658)
(0.00198579 -0.0702131 -0.1078)
(0.00113146 -0.0631867 -0.0923763)
(0.000392004 -0.0699536 -0.0874862)
(0.000618441 -0.0712396 -0.078821)
(0.000166855 -0.0650105 -0.0733123)
(-0.000267362 -0.071615 -0.076893)
(-0.00022992 -0.0720135 -0.0816493)
(-0.0010764 -0.0720513 -0.0938222)
(0.0004439 -0.0788714 -0.0826844)
(-0.00189753 -0.127373 -0.0149811)
(-0.00457246 -0.403759 0.00366994)
(-0.00376067 -0.782086 -0.00502259)
(0.000282321 -0.790632 -0.00596476)
(0.000429874 -0.748062 -0.00370973)
(-2.04614e-05 -1.10686 -0.0075097)
(0.000116279 -0.929608 -0.00117544)
(0.00298288 -0.890167 -0.00667063)
(0.00252644 -0.438013 0.00399836)
(0.00208566 -0.0760308 0.00605085)
(0.000618185 -0.0389004 0.00520163)
(0.000383275 -0.0356485 0.00597346)
(0.000177659 -0.029759 0.00555018)
(0.000248273 -0.0340781 0.0064623)
(-0.000145892 -0.0348624 0.00658813)
(4.89998e-05 -0.0306593 0.00593853)
(0.000288784 -0.0347061 0.00669107)
(6.24321e-05 -0.0339555 0.00670665)
(-0.000278131 -0.0342443 0.00650363)
(-0.000568277 -0.0395189 0.00647081)
(-0.00213591 -0.0601888 0.00999991)
(-0.00327386 -0.418022 0.00147182)
(-0.00344744 -0.795301 -0.00453673)
(0.000832267 -0.795897 -0.00538323)
(0.00117122 -0.750507 -0.00305284)
(-0.00056873 -1.10412 -0.00605053)
(1.10686e-05 -0.929153 0.00128046)
(0.00352537 -0.907278 -0.00592147)
(0.00302902 -0.447241 0.00258042)
(0.000907053 -0.0815577 0.00074886)
(-0.000341648 -0.0487725 -2.54872e-05)
(0.000124626 -0.035537 -4.97532e-05)
(8.61414e-05 -0.0334593 0.000341655)
(-0.000175653 -0.0308725 0.000547372)
(0.000219792 -0.0317007 0.000395673)
(2.59593e-05 -0.0329472 0.000447288)
(-0.000156855 -0.0310651 0.000532465)
(5.05281e-06 -0.0297336 0.000754511)
(-0.000185237 -0.0305543 0.000719546)
(-0.000219738 -0.0393137 4.44632e-05)
(-0.00080168 -0.0883399 -0.00131131)
(-0.00279607 -0.420796 0.000397772)
(-0.00353896 -0.806244 -0.00490371)
(0.000903912 -0.801632 -0.00526207)
(0.00141851 -0.7493 -0.00252738)
(-0.000393433 -1.09724 -0.00274384)
(0.000750877 -0.93127 0.00179991)
(0.00316655 -0.923924 -0.00559971)
(0.00363062 -0.450924 0.00357253)
(0.00105279 -0.0747637 0.000790028)
(-0.000376546 -0.0440274 0.00016962)
(-5.19725e-05 -0.0467716 -0.00157063)
(7.6527e-07 -0.0308662 0.000189163)
(-7.52812e-05 -0.0379369 -0.00108373)
(0.000210183 -0.0401464 -0.00104384)
(2.29998e-05 -0.0301541 0.000243428)
(-0.000107463 -0.0383143 -0.000894367)
(-8.35727e-05 -0.0351975 -0.000676775)
(-2.62376e-05 -0.0361212 -0.000695266)
(0.000302348 -0.0488683 -0.00124134)
(0.001021 -0.0930553 -0.00156422)
(-0.00353116 -0.412657 0.000737377)
(-0.00337157 -0.815322 -0.00494828)
(0.000573349 -0.806873 -0.00577394)
(0.0020146 -0.741399 -0.00141122)
(-0.00258439 -1.09472 0.00182783)
(0.0017757 -0.927609 0.00379918)
(0.00292991 -0.941304 -0.00570842)
(0.00348256 -0.456662 0.00301404)
(0.00135027 -0.0703814 0.000713857)
(-5.21069e-05 -0.0463377 -2.41847e-05)
(-0.000172495 -0.0461175 -0.000202117)
(-0.000102871 -0.0322624 -0.000193815)
(0.000189797 -0.0382833 -0.000586124)
(-8.61433e-05 -0.0370505 -0.000410343)
(2.22003e-05 -0.0305536 -6.31477e-05)
(0.000141349 -0.0350273 -0.000362406)
(-8.40732e-05 -0.0326185 -0.000394982)
(2.96947e-05 -0.0346438 -0.000470185)
(0.000413919 -0.0472557 -0.000461379)
(0.0006729 -0.0778279 0.000442486)
(-0.00348447 -0.398786 0.00153468)
(-0.00296196 -0.824089 -0.00532972)
(8.42293e-05 -0.810242 -0.0053083)
(0.00328724 -0.735854 -0.000408555)
(-0.00565475 -1.09216 0.00289287)
(0.00204287 -0.922907 0.00487874)
(0.00231483 -0.959152 -0.00697558)
(0.00170313 -0.459492 0.00242134)
(0.000768148 -0.0648205 0.00071769)
(-0.00021635 -0.0425724 0.00011907)
(-0.00021936 -0.0449207 -0.000628846)
(-0.000171911 -0.0339039 -0.00071989)
(-8.71623e-05 -0.0420983 -0.00155028)
(3.57875e-05 -0.0418752 -0.00150781)
(7.96953e-05 -0.0316226 -0.000701155)
(-0.000106178 -0.0398621 -0.00137804)
(-5.03092e-05 -0.0379412 -0.00146927)
(0.000244628 -0.0406501 -0.00153565)
(0.000591425 -0.0527619 -0.00122494)
(0.000516281 -0.0768353 0.00031178)
(-0.00247974 -0.387647 0.00203198)
(-0.00221304 -0.834547 -0.00614692)
(-0.000432429 -0.812609 -0.0062846)
(0.00489011 -0.725668 0.000830348)
(-0.00652593 -1.08344 0.000231366)
(0.00171286 -0.912577 0.00454383)
(0.000761096 -0.965823 -0.00723901)
(-0.000392285 -0.4598 0.00103704)
(0.00045646 -0.0613444 0.000773669)
(-0.000130204 -0.041571 0.000206311)
(-6.15908e-05 -0.0512776 -0.000450124)
(-0.000154181 -0.0403592 -0.000720143)
(-3.6754e-05 -0.0539271 -0.00130459)
(-1.31798e-05 -0.0535127 -0.00129466)
(-1.3891e-05 -0.0389744 -0.000758355)
(-2.62421e-05 -0.0493063 -0.000958227)
(0.000122271 -0.0487634 -0.00115804)
(0.000306828 -0.050881 -0.0011646)
(0.000458859 -0.0594332 -0.000603092)
(1.28868e-05 -0.0695853 0.000843006)
(-0.00104177 -0.37429 0.00217425)
(-0.00136989 -0.837462 -0.0069748)
(-0.00120689 -0.808527 -0.00547302)
(0.00470721 -0.71105 0.00165003)
(-0.00587328 -1.04822 0.00137894)
(0.00179443 -0.889888 0.004395)
(-0.000606881 -0.964664 -0.00471184)
(-0.00182354 -0.461611 0.000584762)
(0.00062674 -0.0579883 0.000812583)
(-3.56625e-05 -0.0391729 0.000409551)
(5.49986e-05 -0.0456334 0.000368142)
(-7.28251e-05 -0.0383717 0.000118015)
(2.9218e-05 -0.0501357 -0.000120669)
(-0.000108793 -0.0501479 -0.000150716)
(-0.000137667 -0.0371383 4.58537e-05)
(3.7899e-05 -0.0453494 -0.000270965)
(0.000156809 -0.045239 -0.000436613)
(0.000206433 -0.047479 -0.000384665)
(0.000217761 -0.0530388 0.000334888)
(-0.00038334 -0.0656147 0.00103491)
(0.000846056 -0.361935 0.00230716)
(-0.00019954 -0.83464 -0.00644774)
(-0.00232345 -0.796958 -0.00453702)
(0.00458837 -0.684644 0.00297184)
(-0.00597324 -0.972932 0.00376849)
(0.00192726 -0.844594 0.00570285)
(-0.00157394 -0.960558 -0.00245459)
(-0.00280823 -0.465452 -0.000444613)
(0.00104225 -0.056032 0.000861412)
(-3.69851e-05 -0.0377531 0.000203903)
(0.000140414 -0.0443543 0.000632636)
(2.05432e-05 -0.0359959 0.000582583)
(0.000112865 -0.0482573 0.000449549)
(-0.000139527 -0.0478398 0.000422375)
(-1.47682e-05 -0.0357096 0.000470599)
(0.000131227 -0.0481821 2.14209e-05)
(-4.57015e-05 -0.0487291 -0.000133239)
(9.44812e-06 -0.0504657 5.69342e-05)
(0.000135242 -0.049863 0.000425148)
(-0.000208874 -0.0621799 0.00109077)
(0.00240499 -0.347986 0.00316716)
(0.00133342 -0.8205 -0.0056825)
(-0.00219531 -0.759199 -0.00390419)
(0.00350607 -0.636598 0.00307528)
(-0.00387094 -0.863473 0.003409)
(0.000953239 -0.770937 0.00570973)
(-0.00229101 -0.95002 -0.000126989)
(-0.00338698 -0.472054 -0.00135976)
(0.000527161 -0.0543425 0.000481476)
(8.95614e-05 -0.0390407 -0.000282526)
(6.92964e-05 -0.0408511 0.00175562)
(0.000105615 -0.0339134 0.000490864)
(0.000394065 -0.044184 0.00196907)
(-0.000322732 -0.0442658 0.00198068)
(5.3539e-05 -0.0337118 0.000482754)
(0.000145079 -0.0435727 0.00183458)
(-0.000276925 -0.0452292 0.00128608)
(-9.54761e-05 -0.0464842 0.00122126)
(0.000186816 -0.0486269 0.0010622)
(0.000280903 -0.059917 0.00200804)
(0.00335372 -0.327424 0.00251975)
(0.00201515 -0.79642 -0.00363308)
(-0.00168664 -0.699281 -0.00105689)
(0.0020156 -0.562097 0.0028584)
(-0.00168183 -0.686338 0.0051729)
(-0.000268251 -0.652288 0.00603605)
(-0.00286226 -0.928131 0.00116202)
(-0.00366137 -0.46516 0.000256967)
(-0.00146146 -0.0582889 -0.00131119)
(-0.000149425 -0.0426179 -0.00148143)
(-1.87651e-05 -0.0362019 0.000575133)
(7.85605e-05 -0.0350296 -0.000567591)
(0.000215766 -0.0371095 0.00118997)
(-0.000105521 -0.0369702 0.00131864)
(-4.65673e-05 -0.0342329 -0.000277518)
(-0.000198253 -0.0364728 0.00122541)
(-2.81645e-05 -0.045224 -0.000857985)
(7.63694e-05 -0.049132 -0.00163988)
(0.000309785 -0.0526096 -0.00158035)
(0.000971342 -0.0612394 -6.01507e-05)
(0.00378498 -0.294432 0.00614195)
(0.00347044 -0.755146 0.00246016)
(-0.000636358 -0.602777 -0.000388596)
(-0.0029515 -0.4449 0.00356353)
(-0.00122423 -0.538771 0.00385375)
(-0.000430008 -0.548065 0.00446056)
(-0.00217806 -0.893916 7.94168e-05)
(-0.00371672 -0.444082 0.000332129)
(-0.00550971 -0.0770456 -0.00110118)
(-0.000544376 -0.0575539 -0.000818538)
(-0.000119928 -0.0471344 -0.000735884)
(-7.8557e-05 -0.0433526 -0.000723931)
(-0.000156973 -0.0452221 -0.000367137)
(0.000114335 -0.0437969 -0.000264437)
(3.26555e-05 -0.0394895 -0.000424526)
(0.000226519 -0.0443955 -0.000342464)
(0.000313201 -0.0706627 -0.00208052)
(0.000103346 -0.0832662 -0.0026772)
(0.000162243 -0.0856273 -0.00229437)
(0.00240862 -0.086259 -0.00131296)
(0.0034125 -0.244462 0.00568479)
(0.00264183 -0.704516 0.00436774)
(0.000399748 -0.50353 0.00526005)
(-0.00254125 -0.321528 0.00817955)
(-0.244434 -1.00157 -0.532334)
(0.0374903 -0.982419 -0.524526)
(0.103109 -0.824159 -0.475541)
(0.160832 -0.576986 -0.331352)
(0.147254 -0.382992 -0.219232)
(0.141716 -0.282 -0.221704)
(0.0879096 -0.204576 -0.19517)
(0.0314277 -0.19681 -0.174422)
(0.00864552 -0.19452 -0.164401)
(-0.0060243 -0.197401 -0.154893)
(-0.00800107 -0.203436 -0.153539)
(-0.0126424 -0.195312 -0.155262)
(-0.0313744 -0.190561 -0.16607)
(-0.0687182 -0.199929 -0.187354)
(-0.121492 -0.243505 -0.207601)
(-0.148884 -0.349273 -0.201753)
(-0.119509 -0.540693 -0.292329)
(-0.0601697 -0.699178 -0.398794)
(-0.0118618 -0.765607 -0.409203)
(0.205339 -0.751073 -0.418505)
(0.00553425 -1.09109 -0.0808239)
(-0.00114148 -1.00905 -0.0720762)
(0.00281823 -0.83947 -0.0572429)
(0.00359713 -0.482546 -0.0122856)
(0.00888961 -0.287989 -0.0656288)
(0.00506348 -0.143998 -0.295955)
(0.00123853 -0.144132 -0.239495)
(-0.0111267 -0.16002 -0.186099)
(0.00122366 -0.167415 -0.176379)
(-0.000772366 -0.176499 -0.148357)
(-0.00241013 -0.178155 -0.136619)
(-0.00361556 -0.174158 -0.146226)
(-0.00614077 -0.165745 -0.167355)
(-0.000931548 -0.152774 -0.205276)
(-0.0130233 -0.15386 -0.244631)
(-0.0191928 -0.274514 -0.10915)
(-0.00632642 -0.493 -0.0239145)
(-0.00244355 -0.740539 -0.0540222)
(0.00182292 -0.782792 -0.0594554)
(0.00283945 -0.769845 -0.0556719)
(1.04507e-05 -1.12828 -0.0283255)
(0.00125898 -1.01514 -0.0202952)
(0.00441336 -0.853528 -0.0203869)
(0.0015181 -0.496629 -0.00844165)
(0.00171093 -0.306131 -0.0447316)
(0.00156359 -0.185875 -0.1035)
(0.00089544 -0.173851 -0.132618)
(0.000178665 -0.176362 -0.124959)
(0.000406695 -0.184419 -0.128697)
(-0.000113111 -0.188528 -0.124314)
(-0.000823457 -0.187272 -0.116072)
(-0.0016071 -0.188522 -0.122476)
(-0.00261982 -0.185486 -0.124547)
(-0.00393321 -0.18089 -0.126696)
(-0.00522352 -0.197279 -0.112163)
(-0.00698533 -0.316492 -0.0731625)
(-0.00324857 -0.513812 -0.0154419)
(-0.00486115 -0.753726 -0.0213162)
(-0.000710569 -0.796681 -0.0216563)
(0.00322019 -0.784128 -0.0172796)
(0.00343301 -1.10617 -0.0113166)
(0.000317543 -0.992307 -0.009141)
(0.00363252 -0.829725 -0.00460712)
(0.00119804 -0.451009 0.00631711)
(-0.000585498 -0.275432 -0.0396025)
(-0.000381499 -0.169268 -0.117864)
(0.000380637 -0.16001 -0.154341)
(4.06154e-05 -0.162975 -0.140309)
(0.000192154 -0.172339 -0.14117)
(-9.11456e-05 -0.177134 -0.134572)
(-0.000410705 -0.17468 -0.126094)
(-0.000916086 -0.176617 -0.133371)
(-0.00157211 -0.172945 -0.137439)
(-0.00257497 -0.167647 -0.143755)
(-0.00275957 -0.182609 -0.126602)
(-0.00334811 -0.297851 -0.070852)
(-0.00335376 -0.473967 -0.00217611)
(-0.00451855 -0.735738 -0.0057628)
(-0.000390591 -0.784415 -0.0110365)
(-0.00160892 -0.761563 -0.00351305)
(0.0013894 -1.12438 -0.0131637)
(0.00105746 -0.995756 -0.00974744)
(0.00414078 -0.851173 -0.00684579)
(0.00340988 -0.460178 0.00392118)
(0.00214481 -0.26313 -0.0405227)
(-0.000113447 -0.166551 -0.116397)
(0.000300614 -0.157912 -0.152223)
(4.75524e-05 -0.158892 -0.138847)
(0.000187633 -0.169466 -0.139447)
(-5.39067e-05 -0.173475 -0.134056)
(-0.000277031 -0.169587 -0.126212)
(-0.000724528 -0.172481 -0.133453)
(-0.00131959 -0.168755 -0.137204)
(-0.00227983 -0.16343 -0.143271)
(-0.00253905 -0.179291 -0.125381)
(-0.0055627 -0.288941 -0.0716586)
(-0.00497482 -0.474618 -0.00262323)
(-0.00564287 -0.757504 -0.00610879)
(-0.000898698 -0.796087 -0.00921018)
(-0.000165635 -0.77774 -0.00569386)
(0.00195397 -1.12863 -0.0107494)
(0.000424653 -0.988235 -0.00787408)
(0.00355428 -0.854401 -0.00512536)
(0.00216447 -0.449342 0.00576943)
(0.000238429 -0.231945 -0.0392757)
(0.000341844 -0.150557 -0.123533)
(0.000656544 -0.145533 -0.159811)
(0.000325621 -0.145912 -0.14452)
(0.000343301 -0.156569 -0.144075)
(-9.28354e-07 -0.159532 -0.138239)
(-0.000241491 -0.153749 -0.130728)
(-0.000602368 -0.158047 -0.137603)
(-0.00116125 -0.154915 -0.141739)
(-0.00208291 -0.149759 -0.14916)
(-0.00243154 -0.16351 -0.131704)
(-0.00436004 -0.264923 -0.0731852)
(-0.00383107 -0.455663 -0.000818025)
(-0.00549251 -0.767564 -0.00455832)
(0.000266756 -0.801934 -0.00761362)
(3.65338e-05 -0.779824 -0.0063796)
(0.000982608 -1.138 -0.0104665)
(1.31405e-05 -0.983079 -0.00634042)
(0.00366838 -0.868758 -0.00471064)
(0.00388927 -0.44794 0.00630201)
(0.00247167 -0.205178 -0.034846)
(0.00147042 -0.139417 -0.122238)
(0.00138658 -0.135461 -0.158624)
(0.000818951 -0.132891 -0.142919)
(0.000567687 -0.143064 -0.142298)
(0.000108913 -0.145426 -0.135849)
(-0.000117189 -0.138466 -0.12841)
(-0.000425827 -0.14443 -0.134951)
(-0.000896522 -0.141889 -0.139396)
(-0.00181779 -0.137589 -0.14785)
(-0.0022831 -0.150943 -0.130773)
(-0.00602613 -0.242901 -0.070757)
(-0.00478124 -0.445768 0.000866371)
(-0.00488483 -0.782749 -0.00418454)
(0.000854453 -0.811879 -0.00711528)
(-0.000378759 -0.782985 -0.0055582)
(-0.000193299 -1.14196 -0.0103891)
(-0.000541519 -0.976591 -0.00406948)
(0.00345368 -0.884437 -0.00437003)
(0.00400042 -0.446815 0.00767018)
(0.00205606 -0.154774 -0.0250874)
(0.00336744 -0.114619 -0.11789)
(0.00219258 -0.111946 -0.152925)
(0.00133538 -0.107958 -0.136181)
(0.000822304 -0.116571 -0.133781)
(0.000312985 -0.118365 -0.125993)
(8.63632e-05 -0.111226 -0.118944)
(-0.000161095 -0.117798 -0.124679)
(-0.000617645 -0.116677 -0.129584)
(-0.00142154 -0.113713 -0.140209)
(-0.00246594 -0.12436 -0.125179)
(-0.00553692 -0.196272 -0.0625976)
(-0.00470982 -0.436771 0.0028372)
(-0.00456858 -0.798565 -0.00417707)
(0.000914693 -0.818064 -0.00635148)
(0.000132113 -0.783634 -0.00491944)
(0.000213354 -1.14139 -0.00939265)
(-0.000398243 -0.974448 -0.00258589)
(0.00316532 -0.904201 -0.00461143)
(0.00440002 -0.455485 0.00830579)
(0.00107279 -0.0976967 0.0163699)
(0.000320219 -0.0740491 -0.0784084)
(0.00202547 -0.0711064 -0.110245)
(0.00116163 -0.0651657 -0.0948155)
(0.000382794 -0.0714619 -0.0900969)
(0.000668336 -0.0729123 -0.0814635)
(0.000166238 -0.0672652 -0.0758303)
(-0.000323675 -0.0732085 -0.0795167)
(-0.000256815 -0.0731592 -0.0842674)
(-0.00111646 -0.0725901 -0.0963907)
(0.000404293 -0.0794325 -0.0853997)
(-0.00251565 -0.135 -0.0193819)
(-0.00493783 -0.438174 0.00439212)
(-0.00395769 -0.812796 -0.00461641)
(0.000169526 -0.825484 -0.00530695)
(0.000349783 -0.785291 -0.00332435)
(-5.91677e-05 -1.14012 -0.00747345)
(0.000309876 -0.971623 -0.000627029)
(0.00325212 -0.923197 -0.00557389)
(0.00246654 -0.468796 0.00476891)
(0.00235793 -0.0892469 0.00640789)
(0.000689173 -0.0428365 0.00452818)
(0.000398737 -0.0397695 0.00498066)
(0.000176896 -0.0325064 0.00465976)
(0.000252542 -0.0376155 0.00533411)
(-0.000156926 -0.0383169 0.00543421)
(4.98106e-05 -0.0331782 0.00494943)
(0.000303094 -0.038096 0.00550734)
(6.88115e-05 -0.0372612 0.00551491)
(-0.000296354 -0.0378005 0.00536342)
(-0.000689079 -0.0437399 0.00534614)
(-0.00281608 -0.077975 0.00863083)
(-0.0032845 -0.446497 0.00184128)
(-0.00363274 -0.824627 -0.0042421)
(0.000717142 -0.831452 -0.00500433)
(0.00115486 -0.787049 -0.002975)
(-0.000738587 -1.13863 -0.00581978)
(0.000196917 -0.971856 0.00144494)
(0.00388183 -0.939551 -0.00500922)
(0.00300098 -0.474858 0.00308646)
(0.00116038 -0.0851399 0.000784916)
(-0.000336147 -0.0469104 0.000118814)
(0.000117604 -0.0340083 9.14484e-05)
(7.89891e-05 -0.0325049 0.00036758)
(-0.000176302 -0.0295794 0.00048574)
(0.00021772 -0.0303448 0.000372598)
(2.40179e-05 -0.0320489 0.000434892)
(-0.000160477 -0.0297842 0.0004666)
(4.30654e-06 -0.0285338 0.00062173)
(-0.000164759 -0.0294418 0.00060378)
(-0.000179319 -0.0373661 0.000174683)
(-0.000802298 -0.0816521 -0.000265886)
(-0.00274965 -0.445331 0.000131236)
(-0.00372039 -0.835131 -0.00469025)
(0.000795063 -0.837628 -0.00497037)
(0.00147384 -0.785434 -0.00246)
(-0.000651714 -1.13432 -0.00249658)
(0.000988952 -0.973668 0.00195524)
(0.0035368 -0.955319 -0.0049275)
(0.00355936 -0.476315 0.00398275)
(0.00121862 -0.0779288 0.000586255)
(-0.000369067 -0.0430498 0.000124935)
(-4.87425e-05 -0.0441896 -0.0012365)
(-1.64931e-06 -0.0295165 0.000147821)
(-7.34629e-05 -0.0358783 -0.000875167)
(0.000201988 -0.0379646 -0.00084956)
(2.042e-05 -0.0289105 0.000179599)
(-0.000104226 -0.0362448 -0.000739044)
(-8.03133e-05 -0.0333134 -0.000580704)
(-2.2116e-05 -0.0341874 -0.000607982)
(0.000286937 -0.0462005 -0.00101304)
(0.000987153 -0.0898821 -0.00164875)
(-0.00340869 -0.436395 0.000382993)
(-0.00360425 -0.843258 -0.00464457)
(0.00040803 -0.843186 -0.00542925)
(0.00203102 -0.77863 -0.00142643)
(-0.00303478 -1.13338 0.00108318)
(0.00217099 -0.970883 0.00360347)
(0.00332382 -0.971648 -0.00537799)
(0.00333133 -0.478953 0.0032248)
(0.00142467 -0.0719415 0.000536408)
(-4.59804e-05 -0.0439481 -7.1056e-06)
(-0.000164193 -0.044966 -0.000153277)
(-9.2644e-05 -0.0305425 -0.000144437)
(0.0001864 -0.0366904 -0.000395276)
(-8.97131e-05 -0.036399 -0.000270469)
(2.14956e-05 -0.0291731 -6.1107e-05)
(0.000143171 -0.0343702 -0.000232449)
(-8.1878e-05 -0.0316321 -0.000252268)
(2.52476e-05 -0.0332101 -0.000313051)
(0.00038497 -0.0455435 -0.000307998)
(0.000700861 -0.0814874 0.000118877)
(-0.00337987 -0.423939 0.00104846)
(-0.00333258 -0.851714 -0.00529673)
(-0.000115352 -0.847123 -0.00520814)
(0.00332435 -0.773679 -0.000668613)
(-0.00624906 -1.13148 0.00100575)
(0.00248019 -0.967504 0.00403867)
(0.00283612 -0.985558 -0.00685756)
(0.00168831 -0.479207 0.00253078)
(0.000757781 -0.0661946 0.000511053)
(-0.000194384 -0.0418225 4.48479e-05)
(-0.000210304 -0.0448266 -0.000459882)
(-0.000158547 -0.0321915 -0.000480736)
(-8.56123e-05 -0.0406711 -0.00108715)
(3.47079e-05 -0.0407415 -0.00105185)
(7.89913e-05 -0.0301123 -0.000460188)
(-0.000107889 -0.0387031 -0.00094334)
(-4.9818e-05 -0.0363746 -0.00105009)
(0.00023196 -0.0387053 -0.00108743)
(0.00055587 -0.0506069 -0.00085179)
(0.000530796 -0.0802231 0.000161145)
(-0.00239718 -0.412922 0.00150128)
(-0.0027012 -0.859483 -0.00629945)
(-0.000721276 -0.849717 -0.00649338)
(0.00499828 -0.764562 0.000103679)
(-0.00711771 -1.12279 -0.0015486)
(0.00210738 -0.959096 0.00308801)
(0.00141182 -0.990658 -0.00680684)
(-0.00028711 -0.478808 0.00119258)
(0.000439839 -0.062118 0.00056961)
(-0.000119528 -0.0412406 0.000152776)
(-5.4266e-05 -0.0506883 -0.000324343)
(-0.000147007 -0.0382424 -0.000485837)
(-3.91544e-05 -0.0514575 -0.000964344)
(-7.36771e-06 -0.0511625 -0.000959715)
(-1.64701e-05 -0.0365713 -0.000504022)
(-3.11957e-05 -0.0473657 -0.000747057)
(0.000117685 -0.0462592 -0.000872537)
(0.000289962 -0.0483616 -0.00085871)
(0.00043057 -0.0572106 -0.000461267)
(-3.06091e-05 -0.0749707 0.000576889)
(-0.000996795 -0.400732 0.00151757)
(-0.00191317 -0.860515 -0.0071645)
(-0.00152744 -0.84704 -0.00634362)
(0.00487765 -0.751655 0.000398685)
(-0.00656089 -1.093 -0.0017959)
(0.00223661 -0.940896 0.00186951)
(7.44137e-05 -0.991155 -0.00457976)
(-0.00160118 -0.480048 0.000709983)
(0.000650262 -0.0581252 0.00061425)
(-3.74815e-05 -0.0389196 0.000309517)
(6.36358e-05 -0.0478713 0.000232096)
(-7.04338e-05 -0.0388954 5.96106e-05)
(2.67645e-05 -0.0518212 -0.000217061)
(-0.000106248 -0.0518591 -0.000251176)
(-0.000129724 -0.0372988 -1.11953e-05)
(4.48468e-05 -0.0470063 -0.000317693)
(0.000154867 -0.0464896 -0.000377158)
(0.000185521 -0.0485802 -0.000315953)
(0.000192372 -0.0544401 0.000155224)
(-0.000484023 -0.0701313 0.000790949)
(0.000861531 -0.389865 0.00149544)
(-0.000769012 -0.856951 -0.00683501)
(-0.00269949 -0.837697 -0.00637355)
(0.00492041 -0.72902 0.000469755)
(-0.00701263 -1.03185 -0.00308887)
(0.00265777 -0.906236 0.00126144)
(-0.000863582 -0.988636 -0.00270063)
(-0.00247948 -0.482997 -0.000345706)
(0.00105386 -0.055083 0.000664734)
(-3.89849e-05 -0.0365491 0.000163305)
(0.000148737 -0.046234 0.000480905)
(2.12872e-05 -0.0362302 0.000415827)
(0.000114196 -0.0509364 0.000302165)
(-0.000138685 -0.0508157 0.000272274)
(-9.84458e-06 -0.0356428 0.0003302)
(0.000127596 -0.0494081 3.11711e-05)
(-4.83039e-05 -0.0493334 -4.85641e-05)
(-4.75964e-06 -0.0508503 7.18775e-05)
(0.000118895 -0.051997 0.00030912)
(-0.000292877 -0.0658462 0.000827357)
(0.00235708 -0.378092 0.00190908)
(0.000762113 -0.84457 -0.00643378)
(-0.00269364 -0.809135 -0.00713719)
(0.00409147 -0.690629 -0.00122567)
(-0.00522273 -0.945361 -0.00802743)
(0.00161991 -0.851237 -0.00180878)
(-0.00167893 -0.98058 -0.0013849)
(-0.00302464 -0.489403 -0.00145471)
(0.000533889 -0.0517028 0.000405745)
(8.05088e-05 -0.0366308 -0.000168488)
(5.90748e-05 -0.0423362 0.00143232)
(0.000102288 -0.0332107 0.000329747)
(0.000403395 -0.0469767 0.00162509)
(-0.000327269 -0.0472554 0.00163673)
(5.60567e-05 -0.0330354 0.000333848)
(0.000140297 -0.0460991 0.00152715)
(-0.000280142 -0.0470073 0.00114981)
(-0.000101349 -0.0479363 0.00112087)
(0.000180205 -0.0501885 0.00105284)
(0.000184228 -0.0625372 0.00182467)
(0.00322118 -0.363246 0.000827935)
(0.00140063 -0.82644 -0.00530109)
(-0.0021818 -0.765647 -0.00686833)
(0.0030438 -0.634435 -0.00438971)
(-0.00319871 -0.822177 -0.00854212)
(0.000173658 -0.773573 -0.0035692)
(-0.00270099 -0.965618 -0.00142904)
(-0.00363158 -0.490612 -0.000891989)
(-0.0012736 -0.0540895 -0.000762274)
(-0.000137287 -0.0396483 -0.00093071)
(-3.06299e-05 -0.0349662 0.000608204)
(7.30042e-05 -0.0326636 -0.000361829)
(0.000195332 -0.0372092 0.00106982)
(-9.0145e-05 -0.037133 0.0011623)
(-4.46454e-05 -0.0320262 -0.00016199)
(-0.000177716 -0.0363703 0.00107038)
(-1.91359e-05 -0.0428113 -0.000203722)
(7.19441e-05 -0.0461322 -0.000619738)
(0.000279767 -0.049474 -0.000545726)
(0.000739603 -0.0584497 0.000558582)
(0.00352437 -0.346961 0.00326172)
(0.0032237 -0.801615 -0.000738494)
(-0.000881927 -0.704633 -0.008068)
(-0.00171148 -0.560114 -0.00603924)
(-0.00249691 -0.756982 -0.00453632)
(-0.000638711 -0.733795 -0.00216365)
(-0.0024238 -0.953106 -0.0027438)
(-0.00395937 -0.486012 -0.00167122)
(-0.00502932 -0.0702429 -0.000628784)
(-0.00050063 -0.053288 -0.000525262)
(-0.000111117 -0.0437086 -0.000507447)
(-7.45036e-05 -0.0401211 -0.000487483)
(-0.000157003 -0.0423356 -0.000281324)
(0.000116469 -0.0412011 -0.000222405)
(3.12278e-05 -0.036594 -0.00030024)
(0.000201281 -0.0412855 -0.000251807)
(0.000287669 -0.06426 -0.00121589)
(9.12407e-05 -0.0735004 -0.00141546)
(0.000134693 -0.0756126 -0.00116833)
(0.00227107 -0.076321 -0.000577136)
(0.00330718 -0.33414 0.00245727)
(0.00274985 -0.779276 0.000685437)
(0.000508558 -0.660748 -0.00104398)
(-0.00130582 -0.512965 0.000621587)
(-0.259413 -0.99634 -0.478924)
(0.0396006 -0.981287 -0.478216)
(0.109109 -0.82123 -0.432926)
(0.169264 -0.577622 -0.301438)
(0.154681 -0.381495 -0.198564)
(0.145689 -0.280578 -0.208104)
(0.0889928 -0.201084 -0.183832)
(0.0319417 -0.194539 -0.164331)
(0.00895348 -0.191755 -0.154821)
(-0.00612683 -0.194495 -0.14521)
(-0.00803368 -0.201052 -0.143677)
(-0.0126122 -0.192605 -0.145483)
(-0.0315848 -0.187938 -0.155877)
(-0.069448 -0.197426 -0.175928)
(-0.124012 -0.241142 -0.194073)
(-0.155953 -0.346712 -0.183299)
(-0.126063 -0.540757 -0.264468)
(-0.0635811 -0.695936 -0.36159)
(-0.0129047 -0.764905 -0.373065)
(0.216641 -0.75032 -0.380325)
(0.00290727 -1.09717 -0.0766367)
(-0.000820979 -1.02499 -0.07087)
(0.0042794 -0.851733 -0.0563572)
(0.0063424 -0.507096 -0.0145447)
(0.0103699 -0.294613 -0.0672358)
(0.00536589 -0.146032 -0.297602)