/*--------------------------------*- C++ -*----------------------------------*\
| =========                 |                                                 |
| \\      /  F ield         | OpenFOAM: The Open Source CFD Toolbox           |
|  \\    /   O peration     | Version:  2.3.0                                 |
|   \\  /    A nd           | Web:      www.OpenFOAM.org                      |
|    \\/     M anipulation  |                                                 |
\*---------------------------------------------------------------------------*/
FoamFile
{
    version     2.0;
    format      ascii;
    class       volScalarField;
    location    "0.15";
    object      p;
}
// * * * * * * * * * * * * * * * * * * * * * * * * * * * * * * * * * * * * * //

dimensions      [1 -1 -2 0 0 0 0];

internalField   nonuniform List<scalar> 
2268
(
2497.02
2501.33
2496.57
2485.59
2470.8
2452.46
2429.98
2402.94
2371.1
2334.47
2293.56
2249.69
2205.54
2166.02
2139.62
2140.26
2189.73
2323.36
2566.67
2941.71
3403.77
3806.51
4077.17
2436.86
2441.1
2436.25
2425.26
2410.46
2392.06
2369.46
2342.24
2310.15
2273.14
2231.67
2186.99
2141.64
2100.33
2071.25
2067.72
2110.07
2223.15
2445.81
2802.24
3281.16
3747.47
4110.45
2375.4
2379.51
2374.49
2363.46
2348.63
2330.1
2307.28
2279.73
2247.12
2209.36
2166.78
2120.47
2072.72
2027.85
1993.44
1981.83
2011.96
2109.99
2311.28
2639.62
3102.52
3625.48
4113.21
2312.65
2316.57
2311.32
2300.22
2285.34
2266.62
2243.48
2215.42
2182.06
2143.18
2098.97
2050.26
1998.96
1948.79
1906.49
1883.06
1895.85
1970.67
2143.39
2444.41
2888.75
3437.18
4034.18
2248.64
2252.33
2246.8
2235.6
2220.63
2201.68
2178.1
2149.39
2115.05
2074.72
2028.39
1976.55
1920.58
1863.49
1810.85
1771.84
1761.46
1803.82
1935.66
2195.88
2616.16
3173.56
3843.67
2183.41
2186.83
2180.97
2169.64
2154.55
2135.32
2111.24
2081.73
2046.2
2004.11
1955.2
1899.56
1837.93
1772.4
1707.12
1648.88
1609.3
1608.98
1683.23
1874.22
2242.26
2799.07
3514.43
2116.99
2120.08
2113.84
2102.36
2087.13
2067.57
2042.9
2012.48
1975.58
1931.47
1879.6
1819.57
1751.42
1676.16
1596.17
1515.28
1440.83
1387.53
1383.63
1458.35
1705.24
2233.35
2963.66
2049.46
2052.07
2045.41
2033.76
2018.38
1998.45
1973.12
1941.67
1903.24
1856.89
1801.74
1736.86
1661.52
1575.52
1479.15
1372.98
1258.75
1140.1
1026.13
922.207
932.009
1402.69
2083.2
-2.22539
-2.24392
-2.24689
-2.21761
-2.1603
-2.08249
-1.99404
-1.90254
-1.81338
-1.73008
-1.65453
-1.5877
-1.5299
-1.48113
-1.44121
-1.40995
-1.38709
-1.37167
-1.36393
-2.28555
-2.30793
-2.31245
-2.28223
-2.22324
-2.14379
-2.05394
-1.96138
-1.87152
-1.78777
-1.71197
-1.64502
-1.58719
-1.53843
-1.49852
-1.46729
-1.4446
-1.42912
-1.42137
-2.35074
-2.37729
-2.38407
-2.35227
-2.29031
-2.20751
-2.1148
-2.02014
-1.92886
-1.84423
-1.76795
-1.70077
-1.64287
-1.59415
-1.55434
-1.52321
-1.50065
-1.48517
-1.47747
-2.42151
-2.45355
-2.46347
-2.42861
-2.36169
-2.27363
-2.17655
-2.07869
-1.98529
-1.89937
-1.82239
-1.75491
-1.69694
-1.64825
-1.60867
-1.57785
-1.55511
-1.53977
-1.5321
-2.50264
-2.53963
-2.5528
-2.51208
-2.43762
-2.3421
-2.23901
-2.13686
-2.04068
-1.9531
-1.87524
-1.80741
-1.74937
-1.70074
-1.66152
-1.631
-1.60815
-1.59293
-1.58533
-2.60177
-2.63974
-2.65492
-2.60373
-2.51837
-2.41279
-2.30194
-2.19443
-2.09482
-2.00529
-1.92641
-1.85821
-1.80013
-1.75161
-1.71309
-1.68244
-1.65976
-1.6447
-1.6372
-2.74238
-2.76239
-2.76673
-2.70457
-2.60425
-2.48555
-2.36502
-2.2511
-2.14751
-2.05578
-1.97579
-1.90728
-1.84922
-1.80124
-1.76273
-1.7324
-1.70998
-1.6951
-1.6877
-2.94293
-2.91515
-2.90428
-2.81624
-2.69545
-2.56018
-2.42794
-2.3066
-2.19848
-2.1044
-2.02324
-1.95455
-1.8967
-1.84913
-1.81082
-1.78091
-1.75883
-1.74414
-1.73686
1942.24
1943.86
1936.71
1924.76
1909.04
1888.46
1862
1828.8
1787.77
1737.59
1676.83
1603.7
1516.1
1411.75
1287.94
1140.33
957.059
710.524
383.422
135.959
209.732
380.737
412.734
1792.05
1792.47
1784.55
1772.19
1755.91
1734.27
1706.11
1670.32
1625.41
1569.52
1500.41
1414.93
1308.89
1177.79
1016.52
810.633
527.809
192.313
30.8586
22.2682
37.2404
79.9794
109.335
1638.35
1637.45
1628.77
1616.07
1599.22
1576.53
1546.72
1508.45
1459.81
1398.44
1321.34
1223.78
1099.96
945.688
751.722
485.262
162.951
16.8116
1.61917
2.02368
3.78534
11.32
47.7458
1481.94
1479.71
1470.4
1457.46
1440.11
1416.51
1385.32
1344.97
1293.18
1227.22
1143.23
1034.75
896.392
725.079
496.509
190.397
17.6812
0.147117
-1.42844
-1.43313
-1.20594
-0.39088
5.27485
1323.67
1320.15
1310.42
1297.38
1279.67
1255.43
1223.33
1181.58
1127.64
1058.59
969.309
852.293
705.076
515.862
246.903
26.0741
0.742417
-1.41747
-1.65034
-1.664
-1.58637
-1.57034
-1.00339
1164.4
1159.75
1149.86
1136.85
1118.98
1094.48
1062.08
1019.81
965.089
894.878
802.362
681.658
531.196
317.678
57.8304
2.02077
-1.03053
-1.48611
-1.50665
-1.48182
-1.33981
-1.08292
-0.894979
1004.95
999.357
989.58
976.735
958.948
934.628
902.597
860.78
806.913
737.575
644.909
527.98
374.617
144.272
5.98684
-0.723841
-1.41293
-1.40203
-1.37636
-1.30017
-1.11951
-0.74331
-0.457064
845.998
839.616
830.232
817.696
800.279
776.622
745.676
705.379
654.068
587.538
499.373
392.766
232.444
23.3214
-0.115629
-1.32056
-1.41075
-1.36752
-1.31464
-1.20162
-1.01964
-0.71454
-0.411606
688.334
681.375
672.633
660.533
643.769
621.192
591.897
553.991
506.404
444.258
364.783
268.168
110.458
2.1601
-0.917678
-1.40094
-1.32905
-1.34826
-1.30161
-1.20258
-1.04298
-0.810912
-0.534414
532.852
525.428
517.485
505.855
489.902
468.58
441.088
405.759
362.268
306.172
236.448
146.814
22.2581
-0.621781
-1.06603
-1.20162
-1.31092
-1.37129
-1.35385
-1.28813
-1.16322
-0.993384
-0.780324
379.338
371.408
364.37
353.219
338.32
318.616
293.372
260.646
221.548
174.224
117.783
51.067
0.245723
-1.05332
-0.83802
-1.03615
-1.35939
-1.468
-1.48574
-1.44237
-1.3463
-1.21794
-1.07259
227.494
218.646
212.827
202.307
188.779
171.432
150.169
120.48
88.7103
59.6386
31.936
10.8373
-0.48442
-0.831446
-0.909114
-1.229
-1.55421
-1.68538
-1.69749
-1.6531
-1.56848
-1.46467
-1.35739
86.7986
78.0367
74.9561
67.621
58.5485
48.1707
37.3899
20.9523
10.3513
0.361425
-3.42398
-3.469
-3.3546
-2.78787
-2.03256
-1.84423
-2.05973
-2.04554
-1.98348
-1.90995
-1.81535
-1.71702
-1.62828
9.95087
6.91193
6.09406
4.02167
1.50927
-1.14593
-2.62815
-2.93529
-3.25983
-3.59491
-3.71008
-3.83872
-3.85153
-3.91456
-3.26262
-2.97231
-2.90811
-2.52892
-2.33262
-2.19451
-2.06993
-1.96388
-1.88005
-2.59594
-2.60039
-2.63745
-2.69335
-2.77554
-2.8758
-2.93489
-3.0642
-3.29412
-3.59434
-3.90573
-4.23705
-4.42274
-4.41726
-4.38629
-4.71427
-3.73231
-3.00684
-2.69325
-2.47347
-2.31412
-2.19556
-2.11004
-2.72038
-2.7318
-2.75934
-2.80226
-2.86203
-2.93551
-3.01888
-3.14531
-3.34852
-3.66499
-4.11675
-4.66695
-5.05331
-4.99482
-5.2428
-5.42756
-4.10952
-3.36959
-2.9789
-2.70914
-2.5301
-2.4037
-2.3171
-2.83587
-2.8475
-2.86819
-2.90044
-2.94493
-3.00214
-3.07814
-3.19276
-3.37745
-3.70719
-4.2468
-4.96649
-5.64865
-5.48875
-5.77712
-5.36933
-4.20029
-3.55022
-3.15209
-2.88325
-2.70708
-2.58371
-2.501
-2.9425
-2.9508
-2.96606
-2.98935
-3.0215
-3.06426
-3.12373
-3.21314
-3.36179
-3.65862
-4.20092
-4.96543
-5.62895
-5.66081
-5.48784
-4.89426
-4.05416
-3.55989
-3.22691
-3.00016
-2.8462
-2.73685
-2.66363
-3.04103
-3.04639
-3.05685
-3.07265
-3.09429
-3.12331
-3.16356
-3.2217
-3.31887
-3.52841
-3.92568
-4.44298
-4.85964
-4.9765
-4.8027
-4.33494
-3.79582
-3.48017
-3.24585
-3.07826
-2.95723
-2.86894
-2.80898
-3.13464
-3.13809
-3.14457
-3.15425
-3.1674
-3.1849
-3.2087
-3.24121
-3.2935
-3.40574
-3.6202
-3.90011
-4.12946
-4.19786
-4.1029
-3.83931
-3.57346
-3.40263
-3.25503
-3.14134
-3.05373
-2.98778
-2.94204
-3.22654
-3.22839
-3.23182
-3.23686
-3.24368
-3.25276
-3.26522
-3.282
-3.30786
-3.36051
-3.46053
-3.5944
-3.69991
-3.72409
-3.67262
-3.56694
-3.45842
-3.36942
-3.28075
-3.20706
-3.147
-3.10043
-3.0676
-3.31851
-3.31913
-3.32037
-3.32218
-3.32463
-3.32806
-3.33325
-3.34091
-3.35329
-3.37735
-3.42093
-3.47993
-3.53055
-3.54744
-3.52444
-3.48265
-3.43406
-3.38339
-3.33008
-3.28301
-3.24313
-3.2116
-3.18932
-3.41225
-3.41209
-3.41189
-3.4116
-3.41128
-3.41121
-3.41198
-3.41426
-3.41959
-3.43152
-3.4533
-3.482
-3.50699
-3.51911
-3.51588
-3.49328
-3.46413
-3.43236
-3.39975
-3.36986
-3.34409
-3.32363
-3.30948
-3.50908
-3.50853
-3.50746
-3.5059
-3.50396
-3.50187
-3.50009
-3.49916
-3.50016
-3.50512
-3.51542
-3.52913
-3.54133
-3.54812
-3.5475
-3.53811
-3.5225
-3.50387
-3.48428
-3.46581
-3.44983
-3.43738
-3.42929
-3.60975
-3.60902
-3.60748
-3.60525
-3.60245
-3.5993
-3.59618
-3.59354
-3.59215
-3.59324
-3.59755
-3.60405
-3.61027
-3.61398
-3.61362
-3.60871
-3.6007
-3.59061
-3.57954
-3.56886
-3.55973
-3.55299
-3.54933
-3.71449
-3.71367
-3.71193
-3.70941
-3.70624
-3.70263
-3.6989
-3.69546
-3.69287
-3.69186
-3.69284
-3.69537
-3.69826
-3.70012
-3.70001
-3.69778
-3.69376
-3.6886
-3.6829
-3.67747
-3.67307
-3.67038
-3.66987
-3.82304
-3.82216
-3.8204
-3.81782
-3.81457
-3.81086
-3.80696
-3.8032
-3.80003
-3.79793
-3.79714
-3.79751
-3.79849
-3.79932
-3.79943
-3.79862
-3.79694
-3.79478
-3.79247
-3.79047
-3.78927
-3.78935
-3.79105
-3.93498
-3.9341
-3.9324
-3.9299
-3.92675
-3.92315
-3.91931
-3.91554
-3.91218
-3.90958
-3.90793
-3.9072
-3.90714
-3.90737
-3.90755
-3.9075
-3.90715
-3.90689
-3.9067
-3.9069
-3.90781
-3.90973
-3.91289
-4.04994
-4.0491
-4.04749
-4.04514
-4.04219
-4.03879
-4.03515
-4.03152
-4.02818
-4.02539
-4.02333
-4.02206
-4.02147
-4.02137
-4.02157
-4.02198
-4.02264
-4.02334
-4.02441
-4.02598
-4.02822
-4.03131
-4.03538
-4.16759
-4.16682
-4.16532
-4.16314
-4.1604
-4.15724
-4.15384
-4.15042
-4.14721
-4.14442
-4.14222
-4.14069
-4.13982
-4.13954
-4.13975
-4.14038
-4.14142
-4.14282
-4.14469
-4.14708
-4.15011
-4.15389
-4.15847
-4.28765
-4.28694
-4.28554
-4.28354
-4.28101
-4.27808
-4.27493
-4.27173
-4.26868
-4.26597
-4.26375
-4.26212
-4.26111
-4.26072
-4.26091
-4.26163
-4.26287
-4.26462
-4.26691
-4.26974
-4.27319
-4.2773
-4.2821
-4.40982
-4.40917
-4.40787
-4.40601
-4.40366
-4.40095
-4.39801
-4.39502
-4.39214
-4.38953
-4.38734
-4.38567
-4.38458
-4.38411
-4.38424
-4.38497
-4.38628
-4.38817
-4.3906
-4.39361
-4.3972
-4.4014
-4.4062
-4.53382
-4.53322
-4.532
-4.53025
-4.52806
-4.52552
-4.52278
-4.51996
-4.51722
-4.5147
-4.51254
-4.51085
-4.50971
-4.50915
-4.50921
-4.50987
-4.51114
-4.513
-4.51542
-4.51842
-4.52197
-4.52608
-4.53071
-4.65937
-4.6588
-4.65766
-4.65601
-4.65394
-4.65154
-4.64894
-4.64625
-4.64362
-4.64117
-4.63904
-4.63733
-4.63612
-4.63546
-4.6354
-4.63594
-4.63709
-4.63882
-4.64112
-4.64397
-4.64735
-4.65123
-4.65559
-4.78623
-4.7857
-4.7846
-4.78303
-4.78106
-4.77877
-4.77627
-4.77367
-4.77111
-4.76871
-4.76658
-4.76482
-4.76353
-4.76276
-4.76255
-4.76293
-4.76388
-4.76542
-4.76751
-4.77012
-4.77323
-4.7768
-4.78079
-4.91421
-4.91369
-4.91264
-4.91113
-4.90923
-4.90701
-4.90458
-4.90204
-4.89952
-4.89712
-4.89497
-4.89314
-4.89174
-4.89083
-4.89045
-4.89062
-4.89135
-4.89263
-4.89444
-4.89675
-4.89953
-4.90272
-4.90629
-5.04313
-5.04262
-5.0416
-5.04013
-5.03827
-5.0361
-5.03371
-5.03121
-5.02869
-5.02627
-5.02406
-5.02215
-5.02062
-5.01954
-5.01896
-5.0189
-5.01937
-5.02036
-5.02185
-5.0238
-5.02619
-5.02896
-5.03206
-5.17286
-5.17236
-5.17136
-5.16992
-5.16809
-5.16594
-5.16356
-5.16105
-5.15851
-5.15604
-5.15375
-5.15173
-5.15005
-5.14878
-5.14798
-5.14766
-5.14784
-5.14851
-5.14965
-5.15123
-5.15319
-5.1555
-5.1581
-5.30329
-5.30282
-5.30183
-5.3004
-5.29858
-5.29643
-5.29404
-5.2915
-5.28891
-5.28637
-5.28397
-5.28181
-5.27996
-5.27849
-5.27744
-5.27685
-5.27672
-5.27705
-5.27782
-5.27899
-5.28052
-5.28234
-5.28441
-5.43431
-5.43387
-5.43289
-5.43147
-5.42964
-5.42748
-5.42507
-5.42249
-5.41983
-5.41719
-5.41467
-5.41235
-5.41032
-5.40862
-5.40731
-5.40643
-5.40597
-5.40595
-5.40634
-5.40709
-5.40816
-5.40949
-5.411
-5.56586
-5.56545
-5.56449
-5.56308
-5.56125
-5.55907
-5.55661
-5.55396
-5.55122
-5.54847
-5.54581
-5.54332
-5.54108
-5.53915
-5.53757
-5.53638
-5.53559
-5.53521
-5.5352
-5.53554
-5.53616
-5.53697
-5.5379
-5.69804
-5.69782
-5.69688
-5.69545
-5.69358
-5.69135
-5.68882
-5.68608
-5.68323
-5.68034
-5.6775
-5.67481
-5.67233
-5.67013
-5.66825
-5.66674
-5.6656
-5.66484
-5.66445
-5.66439
-5.66458
-5.66485
-5.66517
-3.37543
-2.98577
-3.58603
-3.91394
-4.5391
-2.17582
-2.38416
-3.1331
15.5679
-1.1686
-3.16245
-4.07816
9.62175
2.25749
-5.33026
-6.6885
-1.23201
-1.44011
-4.84066
-7.63867
-1.53889
-3.45857
-8.31848
-10.6981
-0.36896
-0.616943
-1.90115
-5.01616
-0.199555
-0.0922748
-0.0189197
-0.412793
-0.301765
-0.127838
0.0967596
0.193729
-0.627522
-0.533263
-0.454862
-0.44319
-0.985828
-0.943959
-0.924341
-0.942268
-1.3019
-1.2786
-1.27081
-1.28384
-1.58677
-1.57034
-1.56545
-1.57422
-1.84284
-1.82775
-1.82197
-1.82626
-2.07268
-2.05669
-2.04873
-2.04888
-2.27913
-2.26216
-2.25232
-2.24937
-2.46414
-2.44711
-2.43638
-2.43153
-2.63028
-2.6145
-2.60402
-2.59829
-2.78112
-2.76778
-2.75876
-2.75369
-2.92048
-2.91012
-2.90311
-2.89915
-3.05212
-3.04474
-3.03986
-3.03727
-3.17908
-3.17434
-3.17144
-3.1702
-3.30343
-3.30086
-3.29961
-3.29959
-3.42644
-3.42556
-3.42564
-3.42661
-3.54887
-3.54925
-3.55034
-3.55208
-3.67113
-3.67244
-3.67427
-3.67659
-3.79351
-3.79546
-3.7978
-3.80052
-3.91614
-3.91851
-3.92118
-3.92415
-4.03911
-4.04173
-4.04457
-4.04766
-4.16244
-4.16516
-4.16807
-4.17117
-4.28612
-4.28885
-4.29173
-4.29477
-4.41014
-4.4128
-4.41558
-4.41849
-4.53448
-4.53701
-4.53964
-4.54238
-4.65911
-4.66146
-4.6639
-4.66643
-4.78401
-4.78616
-4.78837
-4.79066
-4.90917
-4.91107
-4.91305
-4.91508
-5.03456
-5.03622
-5.03792
-5.03968
-5.16019
-5.16158
-5.16301
-5.16448
-5.28607
-5.28718
-5.28832
-5.28949
-5.41222
-5.41303
-5.41387
-5.41472
-5.53865
-5.53916
-5.53967
-5.5402
-5.66543
-5.6656
-5.66578
-5.66597
-3.46627
-3.25735
-3.16723
-3.01533
-2.84827
-2.67979
-2.52523
-2.39068
-2.27487
-2.17714
-2.09414
-2.02569
-1.96819
-1.92118
-1.8836
-1.85452
-1.8329
-1.81869
-1.81165
-3.94909
-4.0276
-3.73934
-3.38727
-3.08702
-2.84416
-2.64779
-2.49348
-2.36612
-2.26537
-2.18112
-2.11254
-2.05662
-2.01145
-1.97564
-1.94836
-1.92748
-1.91415
-1.90757
-5.38144
-5.33697
-4.59099
-3.82857
-3.31819
-2.98788
-2.74415
-2.57991
-2.44272
-2.33791
-2.25525
-2.18935
-2.13648
-2.09419
-2.06074
-2.03444
-2.01621
-2.00415
-1.99816
-7.71422
-7.0402
-5.49927
-4.20332
-3.45905
-3.08973
-2.81199
-2.62787
-2.49381
-2.39366
-2.31658
-2.25608
-2.20806
-2.16991
-2.13974
-2.11655
-2.10002
-2.08925
-2.08393
-8.9708
-7.8558
-5.90263
-4.31277
-3.48379
-3.07294
-2.81213
-2.64042
-2.52065
-2.43267
-2.36566
-2.3134
-2.27205
-2.2393
-2.21324
-2.19351
-2.17928
-2.17002
-2.16544
-8.9161
-7.25318
-5.55061
-4.06396
-3.3039
-2.96063
-2.75635
-2.62041
-2.52631
-2.45723
-2.40433
-2.36272
-2.32966
-2.30296
-2.28219
-2.26624
-2.25465
-2.24709
-2.24335
-8.1604
-6.24806
-4.51614
-3.46096
-2.98828
-2.78289
-2.66235
-2.57808
-2.51758
-2.47169
-2.43553
-2.4062
-2.38227
-2.363
-2.34763
-2.33571
-2.32696
-2.32122
-2.31837
-1.64925
-3.27953
-2.98332
-2.72571
-2.63266
-2.58968
-2.55769
-2.52823
-2.50324
-2.48152
-2.46261
-2.4464
-2.43239
-2.42052
-2.41072
-2.40292
-2.39709
-2.39321
-2.39127
-0.190615
-1.30061
-1.99812
-2.27338
-2.3727
-2.43516
-2.46964
-2.48558
-2.49159
-2.49249
-2.49021
-2.48632
-2.48171
-2.47702
-2.47266
-2.4689
-2.46594
-2.46389
-2.46284
-0.615329
-1.22838
-1.73634
-2.04021
-2.22094
-2.33737
-2.41246
-2.46014
-2.49036
-2.50948
-2.52126
-2.52824
-2.5321
-2.53397
-2.53464
-2.53465
-2.53438
-2.53406
-2.53386
-1.05149
-1.37672
-1.71059
-1.97286
-2.1612
-2.29527
-2.39007
-2.45647
-2.50292
-2.53546
-2.55822
-2.57409
-2.58508
-2.59262
-2.59771
-2.60108
-2.60321
-2.60446
-2.60502
-1.34648
-1.55034
-1.78691
-1.99784
-2.16795
-2.29995
-2.40013
-2.47508
-2.53078
-2.57208
-2.60264
-2.6252
-2.64181
-2.65396
-2.66274
-2.66895
-2.67315
-2.67575
-2.67698
-1.61353
-1.74586
-1.91207
-2.0759
-2.2204
-2.34073
-2.43763
-2.51408
-2.57365
-2.61972
-2.65518
-2.68235
-2.70305
-2.71871
-2.73038
-2.73888
-2.74477
-2.74848
-2.75026
-1.85074
-1.93857
-2.05713
-2.18336
-2.30257
-2.40781
-2.49697
-2.57052
-2.63015
-2.67792
-2.71587
-2.74579
-2.7692
-2.78731
-2.8011
-2.81132
-2.81852
-2.82309
-2.82531
-2.06257
-2.12249
-2.20877
-2.30618
-2.40332
-2.49334
-2.57296
-2.6412
-2.69843
-2.74571
-2.78428
-2.81544
-2.84034
-2.85997
-2.87516
-2.88657
-2.8947
-2.89991
-2.90245
-2.25552
-2.29707
-2.3608
-2.43641
-2.5153
-2.59142
-2.66125
-2.7231
-2.77654
-2.82185
-2.85971
-2.89093
-2.91634
-2.93671
-2.95268
-2.96481
-2.97353
-2.97916
-2.98191
-2.43276
-2.46261
-2.51032
-2.56954
-2.63372
-2.6978
-2.75843
-2.81367
-2.86262
-2.90511
-2.94134
-2.97177
-2.99694
-3.0174
-3.03363
-3.04609
-3.05511
-3.06097
-3.06384
-2.59607
-2.62071
-2.65617
-2.70301
-2.75554
-2.8095
-2.8619
-2.91078
-2.95507
-2.99428
-3.02833
-3.05739
-3.08177
-3.10183
-3.11792
-3.13037
-3.13945
-3.14537
-3.14829
-2.75167
-2.76828
-2.79738
-2.83538
-2.87884
-2.92449
-2.96973
-3.01278
-3.05252
-3.08831
-3.11988
-3.14721
-3.17043
-3.18974
-3.20538
-3.21757
-3.22651
-3.23237
-3.23526
-2.89773
-2.91078
-2.9345
-2.96611
-3.00256
-3.04145
-3.08055
-3.11839
-3.15388
-3.18631
-3.21529
-3.24069
-3.26251
-3.28083
-3.29579
-3.30753
-3.3162
-3.32189
-3.32471
-3.03696
-3.04831
-3.06836
-3.09501
-3.12593
-3.15957
-3.19342
-3.22667
-3.2583
-3.28752
-3.31394
-3.33734
-3.35763
-3.37481
-3.38894
-3.4001
-3.40838
-3.41384
-3.41654
-3.17122
-3.18181
-3.19935
-3.22233
-3.24903
-3.27793
-3.30761
-3.33687
-3.36513
-3.39135
-3.41529
-3.43669
-3.45541
-3.47138
-3.4846
-3.4951
-3.50291
-3.50808
-3.51065
-3.30188
-3.31219
-3.32798
-3.34818
-3.37148
-3.39668
-3.42264
-3.44833
-3.47398
-3.4973
-3.5189
-3.53838
-3.55555
-3.57028
-3.58254
-3.59232
-3.59963
-3.60449
-3.60689
-3.43001
-3.44024
-3.45475
-3.47278
-3.49335
-3.51554
-3.53846
-3.56136
-3.5838
-3.60486
-3.62441
-3.64207
-3.65774
-3.67126
-3.68255
-3.6916
-3.69838
-3.7029
-3.70513
-3.55636
-3.56655
-3.58007
-3.59637
-3.61472
-3.63441
-3.65474
-3.6751
-3.695
-3.71389
-3.73147
-3.74745
-3.76176
-3.77407
-3.78443
-3.79275
-3.799
-3.80318
-3.80523
-3.68151
-3.69162
-3.7043
-3.71918
-3.73567
-3.75325
-3.77136
-3.7895
-3.80723
-3.82415
-3.83994
-3.85438
-3.8673
-3.87852
-3.88797
-3.89561
-3.90132
-3.90519
-3.90703
-3.80586
-3.81581
-3.82775
-3.84139
-3.85631
-3.87207
-3.88826
-3.90445
-3.92029
-3.93543
-3.94962
-3.96262
-3.97428
-3.98445
-3.99303
-3.99997
-4.0052
-4.00876
-4.01041
-3.92972
-3.93942
-3.95064
-3.96319
-3.97672
-3.99091
-4.00541
-4.01989
-4.03405
-4.0476
-4.06032
-4.07201
-4.08251
-4.09169
-4.09946
-4.10575
-4.1105
-4.11371
-4.11524
-4.0533
-4.06264
-4.07317
-4.08471
-4.09701
-4.1098
-4.12281
-4.13577
-4.14843
-4.16055
-4.17193
-4.18241
-4.19184
-4.2001
-4.2071
-4.21278
-4.21708
-4.21998
-4.22138
-4.17674
-4.18565
-4.19547
-4.20607
-4.21724
-4.22877
-4.24045
-4.25204
-4.26335
-4.27417
-4.28435
-4.29371
-4.30215
-4.30956
-4.31584
-4.32095
-4.32482
-4.32742
-4.3287
-4.30015
-4.30856
-4.31766
-4.32736
-4.33748
-4.34786
-4.35832
-4.36868
-4.37876
-4.38841
-4.39747
-4.40582
-4.41334
-4.41995
-4.42557
-4.43013
-4.4336
-4.43593
-4.43708
-4.42361
-4.43144
-4.43982
-4.44864
-4.45778
-4.4671
-4.47644
-4.48566
-4.49462
-4.50318
-4.51122
-4.51863
-4.52531
-4.53118
-4.53617
-4.54023
-4.54331
-4.54538
-4.54642
-4.54715
-4.55437
-4.562
-4.56998
-4.57818
-4.58649
-4.5948
-4.60297
-4.61089
-4.61845
-4.62554
-4.63207
-4.63796
-4.64314
-4.64755
-4.65113
-4.65386
-4.65569
-4.65661
-4.67082
-4.67738
-4.68426
-4.6914
-4.6987
-4.70606
-4.71339
-4.72057
-4.72752
-4.73415
-4.74035
-4.74607
-4.75122
-4.75576
-4.75961
-4.76275
-4.76514
-4.76674
-4.76756
-4.79462
-4.80049
-4.80662
-4.81293
-4.81935
-4.8258
-4.8322
-4.83845
-4.84449
-4.85024
-4.85561
-4.86056
-4.86503
-4.86895
-4.87229
-4.875
-4.87707
-4.87845
-4.87918
-4.91858
-4.92374
-4.9291
-4.93459
-4.94016
-4.94572
-4.95122
-4.95659
-4.96176
-4.96667
-4.97126
-4.97549
-4.97929
-4.98264
-4.98548
-4.9878
-4.98956
-4.99074
-4.99137
-5.0427
-5.04714
-5.05172
-5.05639
-5.06111
-5.06581
-5.07045
-5.07496
-5.0793
-5.08341
-5.08725
-5.09078
-5.09396
-5.09675
-5.09913
-5.10106
-5.10253
-5.10351
-5.10405
-5.167
-5.17069
-5.17448
-5.17834
-5.18222
-5.18607
-5.18986
-5.19354
-5.19707
-5.20041
-5.20353
-5.20639
-5.20896
-5.21122
-5.21315
-5.21471
-5.2159
-5.21669
-5.21714
-5.29149
-5.29441
-5.2974
-5.30044
-5.30347
-5.30649
-5.30944
-5.3123
-5.31504
-5.31762
-5.32004
-5.32225
-5.32424
-5.32598
-5.32747
-5.32867
-5.32959
-5.3302
-5.33056
-5.41619
-5.41832
-5.42049
-5.42269
-5.42488
-5.42705
-5.42916
-5.43121
-5.43317
-5.43502
-5.43674
-5.43831
-5.43973
-5.44097
-5.44203
-5.44288
-5.44353
-5.44396
-5.44423
-5.54111
-5.54241
-5.54374
-5.54508
-5.54642
-5.54773
-5.54901
-5.55025
-5.55143
-5.55254
-5.55358
-5.55452
-5.55537
-5.55612
-5.55675
-5.55726
-5.55765
-5.5579
-5.55808
-5.66628
-5.66673
-5.66719
-5.66765
-5.66811
-5.66855
-5.66899
-5.66941
-5.66981
-5.67018
-5.67053
-5.67085
-5.67113
-5.67138
-5.67159
-5.67176
-5.67189
-5.67197
-5.67204
)
;

boundaryField
{
    leftWall
    {
        type            calculated;
        value           nonuniform List<scalar> 
50
(
2497.02
2436.86
2375.4
2312.65
2248.64
2183.41
2116.99
2049.46
1942.24
1792.05
1638.35
1481.94
1323.67
1164.4
1004.95
845.998
688.334
532.852
379.338
227.494
86.7986
9.95087
-2.59594
-2.72038
-2.83587
-2.9425
-3.04103
-3.13464
-3.22654
-3.31851
-3.41225
-3.50908
-3.60975
-3.71449
-3.82304
-3.93498
-4.04994
-4.16759
-4.28765
-4.40982
-4.53382
-4.65937
-4.78623
-4.91421
-5.04313
-5.17286
-5.30329
-5.43431
-5.56586
-5.69804
)
;
    }
    rightWall
    {
        type            calculated;
        value           nonuniform List<scalar> 
50
(
-1.36393
-1.42137
-1.47747
-1.5321
-1.58533
-1.6372
-1.6877
-1.73686
-1.81165
-1.90757
-1.99816
-2.08393
-2.16544
-2.24335
-2.31837
-2.39127
-2.46284
-2.53386
-2.60502
-2.67698
-2.75026
-2.82531
-2.90245
-2.98191
-3.06384
-3.14829
-3.23526
-3.32471
-3.41654
-3.51065
-3.60689
-3.70513
-3.80523
-3.90703
-4.01041
-4.11524
-4.22138
-4.3287
-4.43708
-4.54642
-4.65661
-4.76756
-4.87918
-4.99137
-5.10405
-5.21714
-5.33056
-5.44423
-5.55808
-5.67204
)
;
    }
    lowerWall
    {
        type            calculated;
        value           nonuniform List<scalar> 
62
(
2526.45
2530.76
2526
2515.02
2500.23
2481.89
2459.41
2432.37
2400.53
2363.9
2322.99
2279.12
2234.97
2195.45
2169.05
2169.69
2219.16
2352.79
2596.1
2971.13
3433.2
3835.04
4097.76
4077.17
4110.45
4113.21
4034.18
3843.67
3514.43
2963.66
2083.2
19.521
-2.92318
-3.52343
-3.85134
-2.22539
-2.28555
-2.35074
-2.42151
-2.50264
-2.60177
-2.74238
-2.94293
-2.19596
-2.21449
-2.21746
-2.18819
-2.13087
-2.05306
-1.96461
-1.87311
-1.78395
-1.70065
-1.6251
-1.55827
-1.50048
-1.4517
-1.41178
-1.38052
-1.35766
-1.34224
-1.3345
)
;
    }
    atmosphere
    {
        type            calculated;
        value           nonuniform List<scalar> 
46
(
-5.76447
-5.76455
-5.76357
-5.7621
-5.76019
-5.75791
-5.75533
-5.75253
-5.74959
-5.74661
-5.74367
-5.74085
-5.73823
-5.73588
-5.73383
-5.73214
-5.73081
-5.72986
-5.72927
-5.72904
-5.72904
-5.72904
-5.72904
-5.72904
-5.72904
-5.72904
-5.72904
-5.72904
-5.72904
-5.72904
-5.72904
-5.72904
-5.72904
-5.72904
-5.72904
-5.72904
-5.72904
-5.72904
-5.72904
-5.72904
-5.72904
-5.72904
-5.72904
-5.72904
-5.72904
-5.72904
)
;
    }
    defaultFaces
    {
        type            empty;
    }
}


// ************************************************************************* //
