/*--------------------------------*- C++ -*----------------------------------*\
| =========                 |                                                 |
| \\      /  F ield         | OpenFOAM: The Open Source CFD Toolbox           |
|  \\    /   O peration     | Version:  2.3.0                                 |
|   \\  /    A nd           | Web:      www.OpenFOAM.org                      |
|    \\/     M anipulation  |                                                 |
\*---------------------------------------------------------------------------*/
FoamFile
{
    version     2.0;
    format      ascii;
    class       volScalarField;
    location    "0.15";
    object      p_rgh;
}
// * * * * * * * * * * * * * * * * * * * * * * * * * * * * * * * * * * * * * //

dimensions      [1 -1 -2 0 0 0 0];

internalField   nonuniform List<scalar> 
2268
(
2526.45
2530.76
2526
2515.02
2500.23
2481.89
2459.41
2432.37
2400.53
2363.9
2322.99
2279.12
2234.97
2195.45
2169.05
2169.69
2219.16
2352.79
2596.1
2971.13
3433.2
3835.04
4097.76
2525.15
2529.39
2524.54
2513.55
2498.74
2480.34
2457.75
2430.53
2398.44
2361.43
2319.96
2275.27
2229.92
2188.62
2159.54
2156
2198.36
2311.43
2534.1
2890.52
3369.45
3835.75
4175.59
2522.54
2526.66
2521.64
2510.61
2495.78
2477.25
2454.43
2426.87
2394.27
2356.51
2313.93
2267.62
2219.87
2175
2140.58
2128.98
2159.11
2257.14
2458.43
2786.77
3249.66
3772.62
4223.25
2518.65
2522.58
2517.33
2506.23
2491.34
2472.63
2449.48
2421.42
2388.07
2349.19
2304.98
2256.27
2204.96
2154.8
2112.5
2089.07
2101.85
2176.68
2349.39
2650.42
3094.75
3643.18
4194.88
2513.51
2517.2
2511.66
2500.46
2485.49
2466.54
2442.97
2414.26
2379.92
2339.59
2293.25
2241.41
2185.45
2128.36
2075.71
2036.71
2026.32
2068.68
2200.52
2460.74
2881.03
3438.42
4091.02
2507.13
2510.55
2504.69
2493.36
2478.28
2459.04
2434.96
2405.45
2369.92
2327.84
2278.93
2223.28
2161.65
2096.13
2030.84
1972.6
1933.03
1932.71
2006.95
2197.7
2565.96
3122.77
3838.12
2499.57
2502.66
2496.42
2484.94
2469.71
2450.15
2425.48
2395.06
2358.16
2314.05
2262.18
2202.15
2134
2058.74
1978.75
1897.86
1823.41
1770.12
1766.22
1836.47
2086.2
2615.79
3345.54
2490.9
2493.51
2486.85
2475.2
2459.82
2439.89
2414.56
2383.11
2344.69
2298.33
2243.18
2178.3
2102.96
2016.96
1920.59
1814.42
1700.19
1581.53
1467.56
1336.1
1296.02
1834.31
2520.92
-2.19596
-2.21449
-2.21746
-2.18819
-2.13087
-2.05306
-1.96461
-1.87311
-1.78395
-1.70065
-1.6251
-1.55827
-1.50048
-1.4517
-1.41178
-1.38052
-1.35766
-1.34224
-1.3345
-2.19726
-2.21964
-2.22416
-2.19394
-2.13495
-2.0555
-1.96565
-1.87309
-1.78323
-1.69948
-1.62369
-1.55673
-1.4989
-1.45014
-1.41023
-1.37901
-1.35631
-1.34083
-1.33308
-2.2036
-2.23015
-2.23692
-2.20513
-2.14316
-2.06036
-1.96766
-1.87299
-1.78171
-1.69708
-1.6208
-1.55362
-1.49573
-1.447
-1.4072
-1.37606
-1.35351
-1.33802
-1.33032
-2.2155
-2.24755
-2.25746
-2.2226
-2.15568
-2.06763
-1.97054
-1.87268
-1.77928
-1.69336
-1.61639
-1.54891
-1.49093
-1.44225
-1.40267
-1.37184
-1.34911
-1.33376
-1.32609
-2.23778
-2.27476
-2.28794
-2.24721
-2.17276
-2.07724
-1.97414
-1.872
-1.77581
-1.68824
-1.61038
-1.54255
-1.4845
-1.43587
-1.39666
-1.36613
-1.34328
-1.32807
-1.32047
-2.27804
-2.31602
-2.3312
-2.28001
-2.19465
-2.08907
-1.97822
-1.8707
-1.7711
-1.68157
-1.60269
-1.53449
-1.47641
-1.42789
-1.38937
-1.35872
-1.33604
-1.32097
-1.31347
-2.3598
-2.37981
-2.38415
-2.32199
-2.22167
-2.10297
-1.98244
-1.86852
-1.76492
-1.6732
-1.5932
-1.52469
-1.46663
-1.41866
-1.38015
-1.34982
-1.3274
-1.31252
-1.30512
-2.50149
-2.4737
-2.46284
-2.3748
-2.25401
-2.11874
-1.9865
-1.86515
-1.75704
-1.66296
-1.5818
-1.51311
-1.45526
-1.40769
-1.36938
-1.33947
-1.31739
-1.3027
-1.29542
2475.7
2477.33
2470.17
2458.22
2442.51
2421.93
2395.47
2362.27
2321.23
2271.05
2210.3
2137.17
2049.56
1945.22
1821.41
1673.8
1490.51
1243.79
874.523
433.245
276.804
541.69
922.245
2450.71
2451.13
2443.21
2430.86
2414.57
2392.94
2364.77
2328.98
2284.07
2228.18
2159.07
2073.6
1967.55
1836.45
1675.18
1469.3
1186.09
720.156
176.095
25.7494
40.5977
87.5261
688.451
2422.21
2421.31
2412.62
2399.93
2383.08
2360.39
2330.58
2292.3
2243.66
2182.29
2105.19
2007.63
1883.81
1729.54
1535.58
1268.98
771.432
118.97
4.27282
3.20352
5.18033
14.2341
417.428
2391
2388.76
2379.45
2366.51
2349.16
2325.56
2294.37
2254.02
2202.23
2136.27
2052.28
1943.8
1805.44
1634.13
1405.52
995.563
178.365
3.33319
-0.293105
-0.475696
-0.166722
1.29395
18.0061
2357.92
2354.4
2344.67
2331.63
2313.91
2289.67
2257.57
2215.83
2161.88
2092.83
2003.55
1886.54
1739.32
1550.11
1280.67
363.323
4.72122
-0.127915
-0.593176
-0.622478
-0.525584
-0.400347
0.696267
2323.84
2319.19
2309.3
2296.29
2278.42
2253.92
2221.52
2179.25
2124.53
2054.32
1961.8
1841.1
1690.64
1477.2
765.485
22.7052
0.429957
-0.303845
-0.344071
-0.321255
-0.174236
0.106021
0.379797
2289.59
2283.99
2274.21
2261.37
2243.58
2219.26
2187.23
2145.41
2091.55
2022.21
1929.54
1812.61
1659.23
1384.56
220.588
1.48417
-0.0976858
-0.114423
-0.0914137
-0.0153547
0.166293
0.553412
0.867798
2255.83
2249.45
2240.06
2227.52
2210.11
2186.45
2155.5
2115.21
2063.9
1997.36
1909.2
1802.57
1642.11
683.845
5.1253
0.150024
0.00231533
0.0426121
0.0952264
0.208238
0.390404
0.698682
1.00644
2223.36
2216.4
2207.66
2195.56
2178.79
2156.21
2126.92
2089.01
2041.41
1979.25
1899.74
1802.99
1642.12
217.023
0.934549
0.138157
0.20608
0.1868
0.233415
0.33245
0.49208
0.724509
1.00261
2193.06
2185.64
2177.69
2166.06
2150.1
2128.77
2101.27
2065.91
2022.35
1966.06
1895.93
1805.17
1124.38
47.0201
0.615767
0.458951
0.349308
0.288929
0.306371
0.372091
0.497005
0.666866
0.880135
2164.68
2156.7
2149.66
2138.48
2123.53
2103.75
2078.37
2045.35
2005.51
1956.38
1882.38
1686.55
579.728
20.6473
0.95697
0.749296
0.426019
0.317412
0.299672
0.343043
0.439109
0.567479
0.712857
2137.16
2127.81
2121.96
2111.11
2097.03
2078.84
2050.19
1974.34
1812.13
1487.9
979.103
463.438
94.8529
41.621
1.81128
0.684129
0.356352
0.225224
0.213122
0.257506
0.342127
0.445933
0.553216
1912.62
1816.44
1790.87
1705.92
1576.58
1393.65
1136.67
789.054
455.913
153.082
-1.38789
-1.43207
-1.31625
40.3426
19.3234
0.228161
-0.023644
-0.00975814
0.0523226
0.125848
0.220451
0.318784
0.407523
438.824
330.861
303.877
232.578
148.345
63.0619
-0.467152
-0.774292
-1.09883
-1.4339
-1.54891
-1.67742
-1.68934
3.41672
22.5194
3.54678
-0.744418
-0.368029
-0.17162
-0.0335096
0.0910657
0.197121
0.280946
-0.309752
-0.314196
-0.35126
-0.407163
-0.489352
-0.589607
-0.648698
-0.778013
-1.00793
-1.30815
-1.61957
-1.95066
-2.13461
-2.12252
22.7127
4.47597
-1.44511
-0.720482
-0.407051
-0.187284
-0.0279275
0.0906316
0.17615
-0.308998
-0.320419
-0.34796
-0.390879
-0.45065
-0.524134
-0.607501
-0.733924
-0.937132
-1.25356
-1.70401
-2.24135
-2.63138
-2.56986
11.9456
2.4799
-1.69802
-0.958205
-0.567514
-0.29775
-0.118716
0.00768114
0.0942889
-0.29929
-0.310922
-0.331607
-0.363868
-0.408357
-0.465569
-0.541564
-0.656183
-0.840856
-1.17029
-1.70473
-1.74661
-1.46062
-1.71389
1.54659
-1.03978
-1.6637
-1.01364
-0.615509
-0.346672
-0.170501
-0.0471336
0.0355811
-0.280726
-0.289023
-0.304286
-0.327577
-0.359734
-0.402488
-0.461961
-0.551367
-0.700001
-0.996759
-1.53748
-0.960913
0.68026
0.648399
0.216834
-2.23222
-1.39242
-0.898111
-0.565139
-0.338386
-0.184424
-0.0750803
-0.00185121
-0.254058
-0.259418
-0.269885
-0.28568
-0.307326
-0.336341
-0.37659
-0.434733
-0.531879
-0.740734
-1.1372
-0.965153
0.198512
-0.440018
-2.01356
-1.54811
-1.00885
-0.693206
-0.458885
-0.291296
-0.170258
-0.0819744
-0.0220138
-0.22248
-0.225929
-0.232404
-0.242087
-0.25524
-0.272738
-0.296542
-0.329044
-0.381096
-0.490414
-0.706564
-0.987942
-1.21728
-1.28564
-1.19067
-0.927142
-0.661302
-0.490464
-0.342866
-0.229176
-0.14157
-0.0756171
-0.029878
-0.189183
-0.191033
-0.19446
-0.199506
-0.206327
-0.215402
-0.22786
-0.244642
-0.2705
-0.323148
-0.423172
-0.557044
-0.66255
-0.686661
-0.635257
-0.529583
-0.421063
-0.332062
-0.243388
-0.1697
-0.109641
-0.063074
-0.0302422
-0.155961
-0.156574
-0.157819
-0.159623
-0.162076
-0.165508
-0.170698
-0.178359
-0.190735
-0.214797
-0.258374
-0.31738
-0.367999
-0.384883
-0.361884
-0.320096
-0.271507
-0.220839
-0.167532
-0.120458
-0.0805775
-0.0490462
-0.0267688
-0.1245
-0.124342
-0.124141
-0.123849
-0.123529
-0.123464
-0.124234
-0.126513
-0.131843
-0.14377
-0.165557
-0.194251
-0.219248
-0.231361
-0.228129
-0.205533
-0.176384
-0.144613
-0.111999
-0.0821154
-0.0563412
-0.0358822
-0.021734
-0.096136
-0.0955878
-0.0945155
-0.0929631
-0.091014
-0.088927
-0.0871493
-0.0862169
-0.0872192
-0.092175
-0.102483
-0.116188
-0.128387
-0.135174
-0.134556
-0.125171
-0.109562
-0.0909254
-0.0713402
-0.0528661
-0.0368934
-0.0244344
-0.0163466
-0.071615
-0.0708834
-0.0693484
-0.0671171
-0.0643102
-0.0611631
-0.0580442
-0.0554019
-0.0540191
-0.0551073
-0.0594169
-0.0659161
-0.0721312
-0.0758444
-0.0754826
-0.0705758
-0.0625689
-0.0524735
-0.0414024
-0.0307205
-0.0215912
-0.0148565
-0.0111918
-0.0511633
-0.0503363
-0.048604
-0.0460791
-0.0429054
-0.0392989
-0.0355745
-0.0321255
-0.0295361
-0.0285321
-0.0295127
-0.0320438
-0.0349314
-0.0367878
-0.0366829
-0.0344449
-0.0304292
-0.0252704
-0.0195731
-0.0141363
-0.0097442
-0.00704584
-0.00654319
-0.0345164
-0.0336395
-0.0318745
-0.0292937
-0.0260487
-0.0223391
-0.0184339
-0.0146752
-0.0115067
-0.00940068
-0.00861142
-0.00898133
-0.0099613
-0.0107982
-0.0109058
-0.0100936
-0.00841477
-0.00626001
-0.00394409
-0.00194062
-0.000750021
-0.000828102
-0.00252371
-0.021265
-0.0203825
-0.0186774
-0.0161779
-0.0130344
-0.00942763
-0.00559185
-0.0018224
0.0015355
0.00414099
0.0057909
0.00651668
0.00657603
0.00634932
0.00617011
0.0062223
0.00657256
0.00682475
0.00701624
0.00682005
0.00591136
0.00398902
0.000828311
-0.0110268
-0.0101849
-0.00857841
-0.0062301
-0.00327575
0.00012651
0.00376841
0.0073965
0.0107356
0.0135242
0.0155815
0.0168579
0.0174471
0.0175441
0.0173455
0.0169374
0.0162706
0.0155761
0.0144996
0.0129331
0.0106967
0.00760653
0.00353055
-0.00348268
-0.00270908
-0.00120692
0.000966894
0.00370477
0.00686724
0.0102661
0.0136854
0.0168973
0.0196864
0.0218886
0.023421
0.0242887
0.0245684
0.0243625
0.0237316
0.0226841
0.0212867
0.0194209
0.0170257
0.0139952
0.0102208
0.00563478
0.00165466
0.0023589
0.00376084
0.00576729
0.00829727
0.0112231
0.014376
0.0175722
0.0206184
0.0233293
0.0255523
0.0271875
0.0281944
0.0285841
0.0283976
0.0276734
0.0264285
0.0246857
0.0223975
0.0195602
0.0161145
0.0120036
0.00720445
0.00467567
0.00532393
0.0066298
0.00849205
0.0108389
0.013552
0.0164833
0.0194746
0.0223569
0.0249661
0.0271599
0.0288318
0.0299172
0.0303907
0.0302551
0.0295264
0.0282161
0.0263254
0.0238927
0.0208861
0.0172938
0.0130965
0.00830147
0.00587238
0.00647629
0.00769463
0.00943968
0.0116326
0.0141671
0.0169147
0.019735
0.022477
0.0249923
0.0271483
0.0288375
0.0299831
0.0305392
0.0304857
0.0298219
0.0285567
0.0266968
0.0242679
0.0212726
0.0177207
0.0136153
0.00898255
0.00551676
0.00608382
0.00723047
0.00888133
0.0109494
0.0133431
0.0159482
0.0186363
0.0212703
0.0237149
0.0258463
0.0275588
0.0287699
0.0294226
0.029484
0.0289424
0.0278014
0.0260701
0.0237688
0.0209163
0.0175383
0.0136528
0.00929751
0.00384607
0.00438432
0.00547672
0.00705092
0.00902253
0.0113118
0.0138131
0.0164072
0.0189684
0.0213726
0.0235034
0.0252581
0.0265522
0.0273232
0.0275308
0.027156
0.0261971
0.0246637
0.0225732
0.0199632
0.016855
0.0132813
0.00928764
0.00106535
0.00158495
0.00263564
0.00414819
0.00604995
0.00826656
0.010698
0.0132331
0.015756
0.0181517
0.02031
0.0221311
0.0235306
0.0244436
0.024826
0.0246542
0.0239227
0.0226416
0.0208312
0.0185228
0.0157504
0.0125543
0.00898419
-0.00265559
-0.00214591
-0.00112795
0.000339171
0.00219549
0.00436657
0.00675759
0.00926503
0.0117815
0.0141988
0.0164117
0.0183234
0.0198511
0.0209292
0.0215119
0.0215727
0.0211039
0.0201145
0.018625
0.0166661
0.0142783
0.0115079
0.0084072
-0.00719067
-0.00669165
-0.00569617
-0.00425638
-0.00242328
-0.000273156
0.00210494
0.00461435
0.00715398
0.00962068
0.0119135
0.0139391
0.0156165
0.0168811
0.0176862
0.0180039
0.0178243
0.0171545
0.0160153
0.0144394
0.0124717
0.0101616
0.00756488
-0.0124302
-0.0119562
-0.0109726
-0.00954538
-0.0077193
-0.00557014
-0.00318113
-0.000643581
0.00194576
0.00448762
0.0068847
0.00904681
0.0108954
0.0123668
0.0134143
0.0140087
0.0141384
0.0138086
0.0130404
0.0118685
0.0103435
0.00851889
0.00645354
-0.0182517
-0.0178114
-0.0168351
-0.0154163
-0.0135907
-0.0114305
-0.00901488
-0.00643138
-0.0037736
-0.00113752
0.00138293
0.00370046
0.00573849
0.00743417
0.00874038
0.00962672
0.0100799
0.0101034
0.00971767
0.00895996
0.0078887
0.00656721
0.0050566
-0.0246077
-0.0242041
-0.0232461
-0.021835
-0.0200014
-0.0178169
-0.0153594
-0.0127143
-0.00997218
-0.00722561
-0.00456531
-0.00207597
0.000167322
0.00210204
0.00368036
0.0048705
0.00565742
0.00604297
0.0060462
0.00570497
0.00508655
0.00428173
0.00335065
-0.0316018
-0.0313802
-0.0304418
-0.0290097
-0.0271396
-0.0249026
-0.022375
-0.0196391
-0.0167823
-0.013894
-0.0110621
-0.00836939
-0.00589038
-0.00368802
-0.00181156
-0.000295004
0.000843691
0.00160299
0.00199698
0.00205266
0.00186382
0.00159009
0.0012721
191.753
-2.45231
-3.05256
-3.38047
330.677
9.17601
-1.7255
-2.47431
407.281
94.2946
-2.37858
-3.2942
326.432
218.845
3.32899
-5.77931
44.0803
195.699
65.1747
-5.93861
2.79624
28.5637
74.892
40.507
1.59243
2.67988
19.5305
37.4958
1.3404
1.70539
2.16166
2.45711
1.25413
1.46469
1.75796
1.87568
1.03561
1.13528
1.22199
1.23678
0.799951
0.84248
0.863087
0.845433
0.608749
0.632121
0.64002
0.627012
0.449034
0.465478
0.470372
0.461603
0.318161
0.333247
0.339033
0.334739
0.213515
0.229497
0.237462
0.237306
0.132259
0.149224
0.159065
0.16201
0.0724409
0.0894699
0.100197
0.105053
0.0314972
0.0472781
0.057758
0.0634827
0.00584817
0.0191929
0.0282076
0.0332815
-0.00832051
0.00204484
0.00905391
0.0130092
-0.014763
-0.00738286
-0.00250599
8.93056e-05
-0.0165233
-0.0117897
-0.00888306
-0.00764875
-0.0156798
-0.0131128
-0.0118675
-0.0118405
-0.0135016
-0.0126208
-0.0126971
-0.013665
-0.0107297
-0.0111162
-0.0122013
-0.0139462
-0.00780205
-0.00911056
-0.0109354
-0.013256
-0.00498216
-0.00693365
-0.00927323
-0.0119916
-0.00242188
-0.00479317
-0.00746205
-0.010426
-0.000196055
-0.00281133
-0.00565992
-0.00874309
0.00167104
-0.00105266
-0.0039632
-0.00706379
0.00318265
0.000453569
-0.00242785
-0.00546548
0.00435504
0.00169843
-0.00108404
-0.00399608
0.00521071
0.00268517
5.47462e-05
-0.00268354
0.00577415
0.00342367
0.000985413
-0.00154256
0.00606808
0.00392569
0.00170985
-0.000580319
0.00611025
0.00420099
0.00223047
0.000198832
0.00591104
0.00425425
0.00254687
0.000789757
0.00547196
0.0040832
0.0026535
0.00118412
0.00478533
0.00367814
0.00253914
0.00136967
0.00383309
0.00302067
0.00218554
0.00132877
0.00259507
0.00209262
0.00157652
0.00104731
0.00101213
0.000838483
0.000659827
0.00047644
-2.93281
-2.72388
-2.63376
-2.48187
-2.31481
-2.14632
-1.99177
-1.85721
-1.7414
-1.64367
-1.56067
-1.49223
-1.43472
-1.38771
-1.35014
-1.32105
-1.29944
-1.28522
-1.27818
-3.29023
-3.36893
-3.08068
-2.72861
-2.42836
-2.1855
-1.98913
-1.83482
-1.70746
-1.6067
-1.52245
-1.45387
-1.39796
-1.35279
-1.31698
-1.28969
-1.26882
-1.25549
-1.24891
-4.59743
-4.55267
-3.8071
-3.04472
-2.53433
-2.20402
-1.9603
-1.79605
-1.65887
-1.55405
-1.47139
-1.40549
-1.35263
-1.31033
-1.27688
-1.25059
-1.23235
-1.22029
-1.21431
-6.80498
-6.1256
-4.58245
-3.29349
-2.55
-2.18068
-1.90294
-1.71882
-1.58476
-1.48461
-1.40753
-1.34703
-1.29901
-1.26086
-1.23069
-1.2075
-1.19097
-1.1802
-1.17488
-7.89444
-6.81149
-4.83987
-3.27452
-2.44954
-2.0387
-1.77788
-1.60618
-1.4864
-1.39843
-1.33141
-1.27916
-1.23781
-1.20505
-1.17899
-1.15927
-1.14503
-1.13577
-1.1312
-3.63736
-6.04184
-4.38017
-2.90346
-2.14442
-1.80119
-1.59691
-1.46097
-1.36687
-1.29779
-1.24489
-1.20328
-1.17023
-1.14352
-1.12275
-1.1068
-1.09521
-1.08765
-1.08391
10.2365
-4.32275
-3.19841
-2.1737
-1.7035
-1.49825
-1.37772
-1.29344
-1.23294
-1.18705
-1.1509
-1.12157
-1.09764
-1.07837
-1.063
-1.05108
-1.04233
-1.03658
-1.03373
5.05607
-0.475417
-1.55776
-1.3146
-1.22275
-1.17985
-1.14787
-1.1184
-1.09341
-1.07169
-1.05278
-1.03657
-1.02256
-1.01069
-1.00089
-0.99309
-0.987261
-0.98338
-0.98144
1.42311
0.329651
-0.457103
-0.738221
-0.837673
-0.900137
-0.934612
-0.95056
-0.956563
-0.957469
-0.955187
-0.951296
-0.946691
-0.942001
-0.937637
-0.933878
-0.930913
-0.928866
-0.927821
1.05489
0.433912
-0.0758207
-0.379973
-0.560726
-0.677149
-0.752246
-0.799925
-0.830141
-0.849261
-0.861045
-0.868026
-0.871881
-0.873753
-0.874424
-0.874435
-0.874158
-0.87384
-0.873641
0.735041
0.408916
0.074852
-0.187448
-0.37579
-0.509858
-0.604657
-0.671057
-0.717505
-0.750049
-0.772812
-0.788677
-0.799666
-0.807203
-0.812299
-0.815665
-0.817802
-0.819047
-0.819612
0.564237
0.360289
0.123702
-0.087234
-0.257339
-0.389345
-0.489519
-0.56447
-0.620177
-0.661472
-0.692029
-0.714595
-0.731203
-0.74335
-0.75213
-0.75834
-0.762548
-0.765142
-0.766372
0.422278
0.289944
0.12373
-0.0400993
-0.1846
-0.304924
-0.40183
-0.47828
-0.537849
-0.583922
-0.619378
-0.646546
-0.667252
-0.682907
-0.69458
-0.703074
-0.708972
-0.712679
-0.71446
0.310256
0.222424
0.103864
-0.0223612
-0.141573
-0.246816
-0.335975
-0.409527
-0.469155
-0.516929
-0.554877
-0.584799
-0.608203
-0.626315
-0.640106
-0.650321
-0.65752
-0.662097
-0.664312
0.223618
0.163704
0.0774176
-0.0199863
-0.117129
-0.207153
-0.286766
-0.355005
-0.412243
-0.459515
-0.498093
-0.529251
-0.554148
-0.573781
-0.588974
-0.600383
-0.608512
-0.613723
-0.616258
0.155867
0.114313
0.0505868
-0.025029
-0.103913
-0.180039
-0.249867
-0.311719
-0.365154
-0.410467
-0.448326
-0.479549
-0.50496
-0.525322
-0.541295
-0.553427
-0.562149
-0.567777
-0.570526
0.103822
0.0739658
0.0262581
-0.0329651
-0.0971437
-0.161225
-0.221853
-0.27709
-0.326045
-0.368526
-0.404759
-0.435192
-0.460364
-0.480818
-0.497055
-0.509509
-0.518531
-0.524386
-0.527258
0.0656995
0.0410681
0.00560558
-0.0412384
-0.0937633
-0.14773
-0.200124
-0.249008
-0.293297
-0.332504
-0.366553
-0.395616
-0.419998
-0.440057
-0.456148
-0.468597
-0.477678
-0.4836
-0.486514
0.0352947
0.018692
-0.0104124
-0.0484159
-0.0918751
-0.137523
-0.18276
-0.22581
-0.265554
-0.301344
-0.332914
-0.360245
-0.383462
-0.402772
-0.418408
-0.430597
-0.439543
-0.445403
-0.448294
0.0144329
0.00138228
-0.0223371
-0.0539492
-0.0903951
-0.129285
-0.168391
-0.206229
-0.241721
-0.274143
-0.303129
-0.328532
-0.350349
-0.368671
-0.383628
-0.395369
-0.404032
-0.40973
-0.412548
0.000402552
-0.0109517
-0.0310056
-0.0576563
-0.0885768
-0.122214
-0.156061
-0.189312
-0.220943
-0.250161
-0.276579
-0.299978
-0.320269
-0.337453
-0.351585
-0.362746
-0.371019
-0.37648
-0.379187
-0.00866403
-0.019255
-0.0367968
-0.0597825
-0.0864737
-0.115375
-0.14506
-0.174321
-0.202579
-0.228797
-0.252738
-0.274142
-0.292861
-0.308832
-0.32205
-0.332544
-0.340355
-0.34553
-0.348097
-0.0141375
-0.0244479
-0.0402362
-0.0604335
-0.0837315
-0.108932
-0.134896
-0.160582
-0.186236
-0.209552
-0.231158
-0.250637
-0.267801
-0.282535
-0.294797
-0.304577
-0.311883
-0.31674
-0.319146
-0.0170651
-0.0272947
-0.0418049
-0.05984
-0.0804121
-0.102598
-0.125521
-0.148423
-0.170855
-0.191919
-0.211468
-0.229127
-0.244801
-0.258314
-0.269612
-0.27866
-0.285438
-0.289963
-0.292193
-0.0182227
-0.0284137
-0.0419299
-0.0582361
-0.0765864
-0.0962712
-0.116602
-0.136968
-0.156865
-0.175756
-0.193331
-0.209314
-0.223622
-0.235939
-0.246291
-0.254615
-0.260861
-0.265049
-0.267095
-0.0181762
-0.0282879
-0.0409722
-0.0558453
-0.0723426
-0.0899174
-0.108025
-0.126165
-0.143897
-0.160815
-0.176614
-0.191054
-0.203971
-0.215187
-0.224641
-0.232275
-0.23799
-0.241862
-0.243697
-0.0173368
-0.0272887
-0.0392254
-0.0528666
-0.0677817
-0.0835472
-0.0997306
-0.115925
-0.131761
-0.146906
-0.161091
-0.174096
-0.185754
-0.195921
-0.204509
-0.211449
-0.216671
-0.220231
-0.221881
-0.0160018
-0.0256988
-0.0369249
-0.0494701
-0.0630023
-0.0771908
-0.0916912
-0.106173
-0.120329
-0.133884
-0.146603
-0.158289
-0.168787
-0.177967
-0.185738
-0.192028
-0.19678
-0.199995
-0.201519
-0.0143835
-0.023731
-0.0342564
-0.0457971
-0.0580935
-0.0708846
-0.0838947
-0.0968549
-0.109512
-0.121634
-0.13302
-0.143498
-0.152925
-0.161185
-0.168189
-0.173867
-0.178166
-0.181065
-0.182463
-0.0126317
-0.0215438
-0.0313642
-0.0419622
-0.0531317
-0.0646644
-0.0763381
-0.0879332
-0.0992403
-0.110066
-0.120238
-0.129606
-0.138045
-0.14545
-0.151737
-0.15684
-0.160709
-0.163314
-0.164587
-0.0108506
-0.0192536
-0.0283582
-0.0380557
-0.0481799
-0.058562
-0.0690214
-0.0793786
-0.08946
-0.099104
-0.108164
-0.116513
-0.124038
-0.130648
-0.136266
-0.14083
-0.144294
-0.146625
-0.147777
-0.00911117
-0.0169445
-0.0253206
-0.034147
-0.0432869
-0.0526021
-0.0619448
-0.0711671
-0.0801255
-0.0886851
-0.0967229
-0.104129
-0.110808
-0.116678
-0.121671
-0.12573
-0.128813
-0.130886
-0.131923
-0.00746079
-0.0146758
-0.0223116
-0.0302874
-0.0384893
-0.0468026
-0.0551057
-0.0632766
-0.0711966
-0.0787536
-0.0858445
-0.0923766
-0.0982679
-0.103447
-0.107855
-0.11144
-0.114164
-0.115995
-0.116923
-0.00593028
-0.0124888
-0.0193739
-0.0265137
-0.0338125
-0.0411745
-0.0484991
-0.0556858
-0.0626366
-0.069259
-0.0754672
-0.0811833
-0.0863379
-0.0908702
-0.0947275
-0.0978663
-0.100251
-0.101854
-0.102678
-0.00453962
-0.0104121
-0.0165373
-0.0228513
-0.029273
-0.0357226
-0.0421167
-0.0483729
-0.0544109
-0.0601546
-0.0655333
-0.0704826
-0.0749441
-0.0788664
-0.0822047
-0.0849213
-0.0869857
-0.0883716
-0.0890976
-0.00330283
-0.00846571
-0.0138227
-0.0193171
-0.0248807
-0.030447
-0.0359477
-0.0413156
-0.0464855
-0.0513957
-0.0559888
-0.0602118
-0.0640167
-0.0673607
-0.0702063
-0.0725218
-0.0742816
-0.0754611
-0.0760922
-0.00223159
-0.00666504
-0.0112451
-0.0159224
-0.0206402
-0.025344
-0.0299787
-0.0344903
-0.038827
-0.0429394
-0.0467816
-0.0503111
-0.0534892
-0.056281
-0.058656
-0.0605883
-0.0620567
-0.0630385
-0.0635776
-0.00133779
-0.00502313
-0.00881593
-0.0126743
-0.0165525
-0.020407
-0.0241945
-0.0278729
-0.0314019
-0.0347433
-0.0378613
-0.0407229
-0.0432977
-0.0455583
-0.0474806
-0.049044
-0.0502321
-0.051023
-0.0514722
-0.000634527
-0.0035518
-0.00654375
-0.00957661
-0.0126152
-0.0156264
-0.0185776
-0.0214375
-0.0241762
-0.0267653
-0.0291785
-0.0313909
-0.0333801
-0.0351254
-0.0366087
-0.0378147
-0.0387311
-0.0393364
-0.0396967
-0.000137596
-0.00226343
-0.00443654
-0.00663189
-0.00882459
-0.0109914
-0.0131098
-0.0151582
-0.0171163
-0.0189646
-0.0206852
-0.022261
-0.0236766
-0.0249178
-0.0259721
-0.0268288
-0.0274801
-0.0279041
-0.0281745
0.000141845
-0.00116392
-0.00249456
-0.00383439
-0.00516853
-0.00648324
-0.00776541
-0.0090026
-0.010183
-0.0112956
-0.0123299
-0.0132761
-0.0141254
-0.0148695
-0.0155011
-0.0160141
-0.0164046
-0.0166507
-0.0168288
0.000162345
-0.000288627
-0.000747175
-0.00120726
-0.00166369
-0.00211179
-0.00254722
-0.00296597
-0.00336431
-0.00373874
-0.00408602
-0.00440312
-0.00468723
-0.00493582
-0.00514658
-0.00531749
-0.0054485
-0.00552683
-0.00559252
)
;

boundaryField
{
    leftWall
    {
        type            fixedFluxPressure;
        gradient        uniform 0;
        value           nonuniform List<scalar> 
50
(
2526.45
2525.15
2522.54
2518.65
2513.51
2507.13
2499.57
2490.9
2475.7
2450.71
2422.21
2391
2357.92
2323.84
2289.59
2255.83
2223.36
2193.06
2164.68
2137.16
1912.62
438.824
-0.309752
-0.308998
-0.29929
-0.280726
-0.254058
-0.22248
-0.189183
-0.155961
-0.1245
-0.096136
-0.071615
-0.0511633
-0.0345164
-0.021265
-0.0110268
-0.00348268
0.00165466
0.00467567
0.00587238
0.00551676
0.00384607
0.00106535
-0.00265559
-0.00719067
-0.0124302
-0.0182517
-0.0246077
-0.0316018
)
;
    }
    rightWall
    {
        type            fixedFluxPressure;
        gradient        uniform 0;
        value           nonuniform List<scalar> 
50
(
-1.3345
-1.33308
-1.33032
-1.32609
-1.32047
-1.31347
-1.30512
-1.29542
-1.27818
-1.24891
-1.21431
-1.17488
-1.1312
-1.08391
-1.03373
-0.98144
-0.927821
-0.873641
-0.819612
-0.766372
-0.71446
-0.664312
-0.616258
-0.570526
-0.527258
-0.486514
-0.448294
-0.412548
-0.379187
-0.348097
-0.319146
-0.292193
-0.267095
-0.243697
-0.221881
-0.201519
-0.182463
-0.164587
-0.147777
-0.131923
-0.116923
-0.102678
-0.0890976
-0.0760922
-0.0635776
-0.0514722
-0.0396967
-0.0281745
-0.0168288
-0.00559252
)
;
    }
    lowerWall
    {
        type            fixedFluxPressure;
        gradient        uniform 0;
        value           nonuniform List<scalar> 
62
(
2526.45
2530.76
2526
2515.02
2500.23
2481.89
2459.41
2432.37
2400.53
2363.9
2322.99
2279.12
2234.97
2195.45
2169.05
2169.69
2219.16
2352.79
2596.1
2971.13
3433.2
3835.04
4097.76
4097.76
4175.59
4223.25
4194.88
4091.02
3838.12
3345.54
2520.92
191.753
-2.45231
-3.05256
-3.38047
-2.19596
-2.19726
-2.2036
-2.2155
-2.23778
-2.27804
-2.3598
-2.50149
-2.19596
-2.21449
-2.21746
-2.18819
-2.13087
-2.05306
-1.96461
-1.87311
-1.78395
-1.70065
-1.6251
-1.55827
-1.50048
-1.4517
-1.41178
-1.38052
-1.35766
-1.34224
-1.3345
)
;
    }
    atmosphere
    {
        type            totalPressure;
        rho             rho;
        psi             none;
        gamma           1;
        p0              uniform 0;
        value           nonuniform List<scalar> 
46
(
-0.0354286
-0.035513
-0.034532
-0.0330623
-0.0311537
-0.0288718
-0.0262898
-0.0234882
-0.0205526
-0.017571
-0.0146304
-0.0118135
-0.00919475
-0.00683803
-0.00479378
-0.00309769
-0.00177027
-0.000817631
-0.000233751
-4.88396e-06
0
0
0
0
0
0
0
0
0
0
0
0
0
0
0
0
0
0
0
0
0
0
0
0
0
0
)
;
    }
    defaultFaces
    {
        type            empty;
    }
}


// ************************************************************************* //
