/*--------------------------------*- C++ -*----------------------------------*\
| =========                 |                                                 |
| \\      /  F ield         | OpenFOAM: The Open Source CFD Toolbox           |
|  \\    /   O peration     | Version:  2.3.0                                 |
|   \\  /    A nd           | Web:      www.OpenFOAM.org                      |
|    \\/     M anipulation  |                                                 |
\*---------------------------------------------------------------------------*/
FoamFile
{
    version     2.0;
    format      ascii;
    class       volScalarField;
    location    "0.164";
    object      alpha.water;
}
// * * * * * * * * * * * * * * * * * * * * * * * * * * * * * * * * * * * * * //

dimensions      [0 0 0 0 0 0 0];

internalField   nonuniform List<scalar> 
545
(
1
1
1
1
1
1
1
1
1
1
1
1
1
1
1
1
1
1
1
1
1
1
1
1
1
1
1
1
1
1
1
1
1
1
1
1
1
1
1
1
1
1
1
1
1
1
1
1
1
1
1
1
1
1
1
1
1
1
1
1
1
1
1
1
1
1
1
1
1
1
1
1
1
1
1
1
1
1
1
1
1
1
1
1
1
1
1
1
1
1
1
1
1
1
1
1
1
1
1
1
1
1
1
1
1
1
1
1
1
1
1
1
1
1
1
1
1
1
1
0.999999
0.999999
0.999999
0.999999
0.999999
0.999999
0.999999
0.999999
0.999999
0.999999
0.999999
0.999999
0.999999
0.999999
0.999999
0.999999
0.999999
0.999999
0.999999
0.999999
0.999999
0.999999
0.999999
0.999999
0.999999
0.999999
0.999999
0.999999
0.999999
0.999999
0.999999
0.999999
0.999999
0.999999
0.999999
0.999999
0.999999
0.999999
0.999999
0.999999
0.999999
1
1
0.999988
0.99996
0.999938
0.999932
0.999934
0.999937
0.99994
0.999941
0.999941
0.99994
0.999939
0.999938
0.999938
0.999938
0.999938
0.999938
0.999938
0.999938
0.999938
0.999938
0.999938
0.999938
0.999938
0.999938
0.999938
0.999938
0.999938
0.999938
0.999938
0.999938
0.999938
0.999938
0.999938
0.999938
0.999938
0.999938
0.999938
0.999938
0.999938
0.999938
0.999938
0.999938
0.999938
1
1
0.99966
0.997765
0.994708
0.994003
0.994641
0.99512
0.99549
0.995683
0.995717
0.995649
0.995541
0.99544
0.99537
0.99534
0.995339
0.995356
0.995378
0.995398
0.99541
0.995415
0.995414
0.99541
0.995405
0.995401
0.995399
0.995397
0.995397
0.995397
0.995398
0.995397
0.995396
0.995395
0.995394
0.995393
0.995393
0.995393
0.995393
0.995393
0.995392
0.995391
0.995391
0.995391
0.995387
0.19635
0.368839
0.932085
0.562716
0.430902
0.425496
0.428003
0.522561
0.902495
0.994537
0.59549
0.530548
0.523509
0.521691
0.522589
0.572812
0.947669
0.922124
0.647581
0.420417
0.446791
0.514684
0.488352
0.488365
0.562099
0.856638
0.675174
0.666411
0.666419
0.827996
0.995452
0.792572
0.469757
0.472035
0.469386
0.472456
0.424419
0.598154
0.912847
0.995476
0.85945
0.480609
0.452554
0.501521
0.481917
1
1
1
1
1
1
1
1
1
1
1
1
1
1
1
1
1
1
1
1
1
1
1
1
1
1
1
0.999661
0.997763
0.994705
0.994004
0.994646
0.995127
0.9955
0.995693
0.995726
0.995655
0.995544
0.995439
0.995369
0.995336
0.995335
0.99535
0.995371
0.995388
0.995399
0.995401
0.995399
0.995394
0.995389
0.995384
0.995381
0.995379
0.995379
0.995379
0.995378
0.995376
0.995374
0.99537
0.995368
0.995365
0.995365
0.995365
0.995366
0.995366
0.995364
0.99536
0.995358
0.995356
0.995351
1
1
0.999988
0.99996
0.999938
0.999932
0.999934
0.999937
0.99994
0.999941
0.999941
0.99994
0.999939
0.999938
0.999938
0.999938
0.999938
0.999938
0.999938
0.999938
0.999938
0.999938
0.999938
0.999938
0.999938
0.999938
0.999938
0.999938
0.999938
0.999938
0.999938
0.999938
0.999938
0.999938
0.999938
0.999938
0.999938
0.999938
0.999938
0.999938
0.999938
0.999938
0.999938
0.999938
0.999938
1
1
1
1
0.999999
0.999999
0.999999
0.999999
0.999999
0.999999
0.999999
0.999999
0.999999
0.999999
0.999999
0.999999
0.999999
0.999999
0.999999
0.999999
0.999999
0.999999
0.999999
0.999999
0.999999
0.999999
0.999999
0.999999
0.999999
0.999999
0.999999
0.999999
0.999999
0.999999
0.999999
0.999999
0.999999
0.999999
0.999999
0.999999
0.999999
0.999999
0.999999
0.999999
0.999999
1
1
1
1
1
1
1
1
1
1
1
1
1
1
1
1
1
1
1
1
1
1
1
1
1
1
1
1
1
1
1
1
1
1
1
1
1
1
1
1
1
1
1
1
1
1
1
1
1
1
1
1
1
1
1
1
1
1
1
1
1
1
1
1
1
1
1
1
1
1
1
1
1
1
1
1
1
1
1
1
1
1
1
1
1
1
1
1
1
1
)
;

boundaryField
{
    AirInlet
    {
        type            fixedValue;
        value           uniform 0;
    }
    WaterInlet
    {
        type            fixedValue;
        value           uniform 1;
    }
    ChannelWall
    {
        type            zeroGradient;
    }
    Outlet
    {
        type            inletOutlet;
        inletValue      uniform 0;
        value           nonuniform List<scalar> 
11
(
1
1
0.999999
0.999938
0.995387
0.481917
0.995351
0.999938
0.999999
1
1
)
;
    }
    FrontAndBack
    {
        type            empty;
    }
}


// ************************************************************************* //
