/*--------------------------------*- C++ -*----------------------------------*\
| =========                 |                                                 |
| \\      /  F ield         | OpenFOAM: The Open Source CFD Toolbox           |
|  \\    /   O peration     | Version:  2.3.0                                 |
|   \\  /    A nd           | Web:      www.OpenFOAM.org                      |
|    \\/     M anipulation  |                                                 |
\*---------------------------------------------------------------------------*/
FoamFile
{
    version     2.0;
    format      ascii;
    class       volScalarField;
    location    "0.79";
    object      epsilon.air;
}
// * * * * * * * * * * * * * * * * * * * * * * * * * * * * * * * * * * * * * //

dimensions      [0 2 -3 0 0 0 0];

internalField   nonuniform List<scalar> 
6000
(
119.541
17.7737
11.1619
10.6276
11.1261
10.832
10.0736
9.9518
10.1871
10.3281
10.3201
10.2398
10.2444
10.6408
10.9456
10.2487
9.79717
9.68377
9.70324
9.57307
9.48113
9.41623
9.41515
9.56343
9.94358
10.5133
10.991
12.2212
20.5346
119.267
67.639
21.9781
14.2012
13.4518
13.5718
12.8613
13.129
13.3981
13.6181
13.4794
13.5972
13.9845
13.893
13.7657
13.6246
12.1609
11.5157
11.8488
12.4847
12.3551
12.0357
11.808
11.651
11.9696
13.0549
14.4026
15.2787
17.6107
29.2607
65.493
42.7816
19.5603
14.1181
13.0276
12.7551
12.4657
12.4098
12.4242
12.4957
12.5102
12.6327
12.8537
12.9668
13.093
13.1981
13.0616
12.6349
12.7991
12.4895
12.4369
12.3853
12.3308
12.2688
12.4491
13.0572
13.9273
14.8717
17.2817
25.1114
42.0303
31.5022
16.0816
13.4803
12.2714
11.8973
11.6277
11.4696
11.4502
11.4895
11.5486
11.6761
11.8787
12.1637
12.5606
13.1108
13.5347
12.9328
13.0661
12.6074
12.6271
12.6245
12.6138
12.5946
12.8092
13.2938
13.8087
14.4641
16.2859
21.1112
35.7954
25.302
14.1089
12.5482
11.5026
11.0636
10.8026
10.6725
10.6653
10.7287
10.8372
10.9971
11.245
11.6416
12.2753
13.2635
14.0509
13.5128
13.6927
13.0561
13.1157
13.1495
13.1787
13.1485
13.3045
13.6845
14.0065
14.4293
15.6955
19.3841
35.8199
22.6627
12.7222
11.3622
10.7318
10.3461
10.1428
10.0817
10.1214
10.2288
10.3808
10.5884
10.8948
11.3956
12.2331
13.5615
14.5844
14.2639
14.2455
13.7279
13.7442
13.7572
13.6782
13.5012
13.5903
13.8739
14.1811
14.5959
15.5902
18.8371
36.9093
21.8517
11.5629
10.4511
10.1006
9.83673
9.71437
9.71319
9.80215
9.95769
10.1542
10.4136
10.7881
11.3758
12.3338
13.8946
15.0836
15.1233
14.6611
14.379
14.3578
14.1234
13.639
13.3093
13.428
13.8698
14.1582
14.5996
15.6349
18.9213
39.628
21.5635
10.8145
9.80976
9.63402
9.51973
9.53411
9.60253
9.73053
9.90685
10.1209
10.4112
10.8372
11.4931
12.5134
14.0707
15.3033
15.9543
15.175
15.0415
14.9175
14.2544
13.5692
13.1525
13.1094
13.5157
14.0163
14.3479
15.58
19.3173
43.5521
20.3567
10.1923
9.17269
9.23116
9.34212
9.58698
9.76251
9.87998
10.009
10.1885
10.4877
10.9721
11.6905
12.6446
14.0147
15.2783
16.3935
15.7087
15.8472
15.4353
14.7093
14.0278
13.5318
13.2865
13.2882
13.4929
13.7896
15.0391
19.2091
43.3071
18.1765
9.8868
8.81395
8.90245
9.24819
9.77181
10.1791
10.2119
10.2144
10.3247
10.6015
11.1114
11.8485
12.706
13.8853
15.2911
16.6351
16.2663
16.7515
16.4982
15.9509
15.2462
14.6202
14.2281
13.9905
13.5757
13.0161
13.8541
18.2268
39.5537
18.1074
10.0922
8.95688
8.84971
9.23699
9.84685
10.5409
10.5584
10.4304
10.5071
10.7948
11.275
11.9674
12.7748
13.9122
15.5505
17.0454
17.2024
18.4601
18.7983
18.2897
17.3242
16.4609
15.9806
15.6739
14.9185
13.4692
12.9745
15.7291
30.073
19.8889
10.8173
9.5272
9.21697
9.34719
9.98651
10.7076
11.0705
10.9444
10.9837
11.2208
11.6844
12.3018
13.0933
14.2925
16.209
17.945
19.1751
21.9658
22.8534
21.9613
20.3719
18.9801
18.2333
17.9221
16.9721
15.2883
13.9866
15.6378
25.9204
25.1794
12.2619
10.5494
10.0747
9.94954
10.4855
11.2743
12.0333
12.0314
12.0562
12.2216
12.6112
13.2595
14.1033
15.4042
17.5849
19.9243
23.0224
28.0489
29.2416
27.3762
24.4436
21.8493
20.2581
19.7176
18.7881
17.4449
16.5234
17.7281
29.0417
31.2793
14.1932
11.9128
11.3247
11.1957
11.5977
12.6104
13.43
13.6
13.7321
13.9834
14.3676
15.0911
16.1491
17.6903
20.2325
23.6798
29.1597
36.8395
38.2425
34.6351
29.243
24.2114
21.232
19.4238
18.0737
16.9977
16.4925
18.0048
29.6749
37.06
16.629
13.7707
13.0274
12.9295
13.468
14.5013
15.3221
15.6908
16.0248
16.4361
16.9117
17.7934
19.1609
21.1526
24.303
29.2285
37.1092
48.0565
49.3904
42.3291
33.173
25.6461
21.1274
18.6101
16.9005
15.853
15.5655
16.9512
26.6945
49.9063
21.0612
16.5458
15.3844
15.285
15.8786
16.9751
17.9197
18.5873
19.1952
19.7973
20.3051
21.3383
23.0163
25.5087
29.4622
35.3678
43.7954
54.1176
57.8919
46.6089
34.6296
25.9868
20.8863
17.9755
15.9499
14.5775
13.9594
14.6772
21.6456
69.8234
26.8881
20.2114
18.3689
18.1466
18.7224
19.8579
21.2224
22.4689
23.714
24.4083
24.98
26.0496
27.9569
30.7817
34.7942
39.4739
45.059
52.4581
56.4717
46.7215
34.765
26.3287
21.0561
17.8132
15.5342
13.8295
12.9039
13.158
19.3075
91.7912
35.8402
24.9388
21.8478
21.1782
21.6299
22.8357
24.6047
26.6454
28.5728
29.3854
30.2089
31.404
33.218
35.4919
37.6687
40.041
43.99
48.7956
51.771
44.8612
34.6949
27.0948
21.8186
18.2303
15.6823
13.8071
12.667
12.6213
19.6198
88.7704
38.5921
29.1561
25.2882
24.1066
24.4777
25.5951
27.4996
29.7132
31.877
33.2687
33.7322
35.4036
36.8945
37.6324
38.4376
40.31
43.0758
46.561
49.1288
43.7272
34.9928
28.2397
23.0912
19.2364
16.3757
14.2652
12.9742
12.8975
21.7756
76.4986
36.3
29.1423
27.3508
26.7547
27.0569
28.5448
30.5325
32.466
33.9888
35.8622
35.7636
36.709
37.8806
38.5644
39.3843
40.869
43.067
45.9541
48.4688
43.2604
35.6112
29.5344
24.613
20.6778
17.6282
15.3399
13.9525
14.1061
26.6542
66.5744
33.0592
27.6
26.8798
27.9792
29.629
31.8563
34.1782
36.6098
37.3496
37.7261
38.0882
38.1403
38.7334
39.4027
40.3523
41.7516
43.7382
46.5855
48.9273
43.4714
36.5436
30.8969
26.1996
22.3248
19.2243
16.8829
15.557
16.2478
31.8826
59.3805
30.6332
25.9704
25.7455
27.5372
30.7941
34.9657
39.2558
42.4274
43.2117
41.8702
41.5306
40.8629
40.4424
40.7107
41.7055
43.1265
45.2641
48.3814
50.4487
44.4071
37.8236
32.3613
27.7937
24.0125
20.9669
18.6952
17.5347
18.8197
36.8815
51.6741
28.6049
24.6288
24.7869
26.8583
30.7635
36.5527
43.5555
49.8283
52.5252
49.4255
46.3295
45.141
43.9016
43.3118
43.8759
45.3201
47.6406
51.2433
52.6415
45.9371
39.4224
33.9826
29.4513
25.7316
22.7734
20.6459
19.7223
21.6443
42.0674
44.3087
26.3793
23.4504
23.9843
26.2648
30.4709
36.8657
45.3277
54.7932
62.645
61.1664
54.1205
50.4641
48.9746
47.6014
47.2167
48.3696
50.7204
54.7355
55.2026
47.8806
41.2794
35.7824
31.2391
27.5497
24.6658
22.6736
21.9717
24.4448
47.3104
38.922
24.1782
22.4729
23.3773
25.7629
29.9884
36.5618
45.5729
56.2613
67.673
73.2998
65.8112
57.8558
54.8782
53.3291
52.0567
52.2608
54.4563
58.6786
57.9277
50.0968
43.3348
37.7537
33.1836
29.5103
26.68
24.7882
24.2678
27.2177
52.6369
36.0217
22.4537
21.7849
22.9701
25.3646
29.3735
35.8234
44.9361
55.849
67.4755
76.5681
77.4846
68.4888
61.9535
59.7412
58.183
57.0051
58.6247
62.682
60.5491
52.4142
45.5121
39.864
35.2795
31.6251
28.8388
27.022
26.6531
30.041
58.1217
35.2456
21.3713
21.3004
22.5833
24.9257
28.8275
35.1385
44.0269
54.686
65.2468
74.55
81.4867
80.5959
70.8919
66.2542
64.3528
62.5125
63.065
66.428
62.8395
54.6163
47.7019
42.0643
37.514
33.9034
31.165
29.4102
29.1744
32.984
63.8391
34.2665
20.7225
20.6252
21.9683
24.6097
28.8598
35.2093
43.7271
53.6645
62.9338
71.5128
80.1695
86.7726
81.4737
72.9689
69.6368
68.1304
67.3871
69.2245
64.4953
56.5076
49.8002
44.3183
39.8894
36.3678
33.6922
31.994
31.8797
36.1072
69.8683
31.7518
20.0967
20.057
21.9189
25.1728
29.8474
36.2017
44.2603
53.5144
61.7682
69.4423
77.7672
86.6254
92.6063
81.7094
74.8919
72.983
71.2159
70.7302
65.3628
58.0359
51.7974
46.6454
42.4445
39.0666
36.4708
34.8246
34.8218
39.4715
76.3072
29.5317
20.2639
20.8316
23.2786
26.9773
31.8124
37.9542
45.5675
54.4272
62.178
68.813
76.4858
85.9194
95.8606
89.8246
79.9372
76.1697
74.0175
71.2715
65.9271
59.5265
53.8923
49.1814
45.2848
42.0872
39.5741
37.9658
38.0596
43.1504
83.3262
33.3131
22.7528
23.5979
26.115
29.6466
34.1809
40.0232
47.4403
56.2664
63.8694
69.4162
75.9371
84.2632
93.4559
95.7499
84.8996
78.723
75.2684
71.4823
66.7421
61.3201
56.3548
52.1447
48.5819
45.5597
43.0982
41.4874
41.6454
47.1939
91.0816
47.9642
28.0631
27.5121
29.4335
32.4722
36.6456
42.2461
49.5121
58.3023
66.3026
70.9133
76.0221
83.0606
91.5754
98.6823
89.0262
81.4393
76.1759
71.8959
67.721
63.3963
59.3083
55.7166
52.5161
49.6229
47.1396
45.4529
45.6202
51.6306
99.6513
64.5553
33.683
31.2958
32.6711
35.4293
39.3676
44.6812
51.5775
60.1082
68.6141
72.9034
76.5596
82.3571
89.8497
98.4041
92.454
84.2445
78.2369
73.4319
69.416
66.0706
63.024
60.1476
57.2843
54.4131
51.7798
49.9028
49.992
56.4524
109.079
79.3951
39.4295
35.5629
36.3071
39.003
42.7826
47.668
53.8828
61.7445
70.3703
75.3376
77.9101
82.4471
88.7927
97.2282
96.2801
87.8586
81.5772
76.6939
73.0132
70.3538
68.1759
65.9272
63.213
60.0853
57.069
54.8289
54.7155
61.5767
119.297
93.5891
45.8337
40.7117
41.1088
43.5662
47.2296
51.6817
57.0704
63.7926
71.7079
78.0204
80.4048
83.5639
89.0645
97.3642
100.706
92.5712
86.2272
81.6541
78.5615
76.671
75.3271
73.5531
70.6694
66.805
62.9838
60.131
59.6528
66.841
129.898
108.556
53.7279
47.0116
46.9566
49.2807
52.825
57.0555
61.8499
67.2925
73.5231
80.1812
84.062
86.2424
90.8805
99.2467
104.872
97.9206
91.9437
88.0722
85.9346
85.1932
84.9648
83.8214
80.4816
74.845
69.569
65.6401
64.5902
72.0466
140.37
123.516
62.3772
54.671
53.6078
55.8284
59.4763
63.9345
68.7243
73.149
77.2653
82.3405
87.7047
90.5428
94.6435
103.576
110.119
103.932
98.6231
95.7716
95.0644
96.1269
97.4471
96.3713
91.8847
84.3517
76.6066
71.1698
69.2657
76.9962
148.462
145.849
70.4477
61.1745
60.946
63.0134
67.2971
72.8227
78.3152
81.9998
84.0452
86.5
90.6948
95.1193
99.6897
108.983
116.88
110.878
106.363
104.633
105.945
109.838
112.815
111.654
104.402
94.22
83.3207
76.1247
73.211
80.5845
155.208
152.181
74.0311
65.9242
66.8483
71.0793
76.6496
84.7542
91.6486
94.2871
94.3344
94.4792
96.0454
100.008
106.448
114.925
124.254
118.905
114.829
114.525
118.385
125.853
130.17
123.204
113.556
99.7069
87.4011
78.5718
75.5797
84.4926
164.181
147.851
75.8523
68.2776
71.0597
77.1102
85.8434
98.2391
108.133
110.747
108.407
106.395
106.118
107.807
114.434
124.239
134.128
128.451
123.864
124.308
130.384
138.41
137.039
131.099
116.781
99.5511
87.5732
80
77.4867
86.2834
161.184
144.921
77.7706
69.912
72.9067
80.6764
91.6355
107.957
121.96
126.435
124.437
121.07
119.514
119.06
123.261
134.816
143.814
137.897
132.094
132.423
138.691
138.449
136.931
133.007
116.385
99.5884
87.6678
80.4542
78.1311
87.5676
156.098
141.806
79.5123
71.4173
74.1445
81.8071
93.436
109.974
128.875
134.242
133.329
131.611
130.14
129.041
131.226
139.983
148.705
145.264
138.368
137.196
137.768
135.934
135.879
130.472
112.895
97.5287
86.6802
79.7347
78.0079
88.3882
161.824
143.878
81.6523
72.9349
75.1943
82.3404
93.5622
108.579
127.365
136.128
134.194
132.977
132.068
131.955
134.575
141.63
150.868
150.686
142.698
137.938
135.982
134.444
133.019
125.198
108.629
94.6723
84.6464
78.5885
77.5212
88.818
179.083
157.703
84.7536
74.7226
76.2905
82.773
93.5163
107.653
124.96
137.162
136.03
133.205
131.536
131.557
135.289
144.136
154.534
156.363
144.912
138.38
136.305
132.75
128.409
119.103
104.518
92.2617
83.2176
77.6871
76.9257
88.6617
188.155
181.085
88.2785
76.9065
77.7865
83.6656
93.9452
107.541
123.592
138.815
140.681
136.349
133.344
132.874
136.285
143.955
153.004
155.238
144.12
137.951
134.699
129.494
123.13
113.279
100.814
90.1869
82.0704
76.8734
76.2673
88.3851
186.839
195.609
91.4945
79.2111
79.8474
85.306
94.9064
107.816
122.897
140.114
147.106
142.115
137.343
135.61
137.66
143.249
149.965
151.843
143.6
135.733
130.833
125.547
118.323
108.345
97.523
88.168
80.7393
75.8783
75.7799
88.3133
184.569
201.585
94.6772
81.5113
82.1262
87.4832
96.321
108.405
122.822
140.8
153.321
148.821
142.014
138.533
138.572
141.86
146.818
150.048
145.31
135.684
128.662
122.609
114.566
104.528
94.6866
86.1154
79.2426
74.9569
75.3212
88.0508
183.723
206.862
98.195
84.1432
84.4336
89.9279
98.3893
109.683
123.728
141.682
158.032
154.861
146.262
141.123
139.386
140.905
144.832
149.767
149.928
138.872
129.4
121.155
111.843
101.751
92.3482
84.3033
78.01
74.2309
74.9246
87.8015
183.295
213.274
101.612
87.1373
87.1929
92.75
101.432
112.398
126.342
144.071
161.96
160.462
149.809
143.563
140.829
141.576
145.545
152.304
157.382
145.072
132.294
121.089
110.193
99.8791
90.7497
83.1116
77.2483
73.8371
74.818
87.7847
181.708
217.345
105.384
90.5684
90.6614
96.4206
105.613
117.215
131.541
149.348
167.387
165.848
153.161
146.322
143.437
144.305
149.241
158.154
165.348
152.778
136.079
121.928
109.738
99.1313
90.0566
82.6215
77.0468
74.0477
75.4414
88.762
176.376
222.036
110.172
94.853
94.9563
101.085
111.061
123.963
139.598
158.358
176.454
172.043
157.127
149.687
146.991
148.723
154.999
165.321
172.093
159.267
139.504
123.156
110.086
99.1566
90.0427
82.7488
77.556
75.0974
76.4215
90.7271
176.966
232.532
115.338
100.049
100.14
106.631
117.583
132.211
150.064
171.342
188.577
177.429
161.694
153.408
150.824
153.34
160.751
171.677
177.362
162.139
141.268
124.078
110.575
99.4903
90.4014
83.2817
78.2761
76.3147
78.8078
94.1495
185.24
251.965
123.771
106.106
105.891
112.913
124.737
141.202
161.98
185.826
197.965
181.839
166.294
157.373
154.628
157.48
165.439
176.507
179.617
161.542
141.024
124.298
110.864
99.8655
90.9236
84.0113
79.7103
77.5467
79.8847
95.0721
192.217
272.758
132.518
112.529
111.83
118.992
131.902
149.905
173.336
197.872
201.182
184.984
170.662
161.625
158.496
160.933
168.572
179.176
177.073
158.891
139.898
124.046
111.002
100.27
91.5708
85.3543
80.5515
78.0749
80.4276
95.8832
202.425
298.941
140.678
118.45
117.431
124.928
138.281
157.633
182.911
205.542
202.301
187.907
174.97
166.14
162.407
163.61
170.19
178.219
171.466
155.401
138.499
123.589
111.226
101.018
92.7646
85.7914
80.7474
78.5622
80.8558
96.6033
207.778
314.781
146.175
123.129
122.24
130.12
144.077
163.934
189.951
209.913
204.872
191.307
179.41
170.795
166.163
165.784
170.927
174.434
167.328
153.304
137.656
123.341
111.853
102.133
93.0477
86.0816
81.3678
79.072
81.2675
97.5267
208.652
321.893
150.38
126.749
125.922
134.038
148.38
168.603
194.135
213.136
208.682
195.459
183.91
175.313
169.807
168.261
171.5
171.862
166.064
153.749
138.065
123.584
112.28
102.006
93.4179
86.8384
81.9412
79.3875
81.7961
98.4075
209.555
325.922
153.153
129.252
128.397
136.575
150.703
170.381
195.009
215.566
212.777
199.293
187.701
179.084
173.067
171.504
173.113
172.094
167.284
156.443
140.033
124.881
112.404
102.226
94.0342
87.3259
82.1586
79.6282
82.1932
99.0112
210.803
327.616
154.459
130.502
129.581
137.687
151.472
170.314
193.619
216.116
215.633
201.985
190.145
181.467
175.689
174.637
174.991
173.166
167.94
157.921
142.028
125.939
113.153
102.784
94.3695
87.4194
82.2094
79.737
82.3887
99.4055
212.351
327.241
154.507
130.626
129.613
137.569
151.05
168.896
190.257
213.697
217.263
203.477
191.431
182.764
177.516
176.771
175.841
173.237
167
156.528
141.231
126.007
113.507
103.011
94.3657
87.3302
82.1325
79.6764
82.3834
99.5719
213.795
325.237
153.516
129.861
128.773
136.473
149.525
166.507
186.49
209.668
218.295
205.067
192.588
183.708
178.726
177.703
175.308
171.851
165.721
155.98
141.152
126.014
113.423
102.945
94.2461
87.1424
81.8885
79.447
82.202
99.5118
214.76
322.395
151.513
128.315
127.324
134.848
147.542
164.084
183.7
207.032
220.305
208.026
194.741
185.174
179.782
177.927
174.418
170.578
165.317
156.429
142.039
126.304
113.354
102.779
94.0193
86.7973
81.512
79.1079
81.8973
99.2529
214.978
316.153
148.57
126.298
125.514
133.027
145.533
161.926
181.746
205.316
222.686
213.012
198.492
187.626
181.181
178.501
174.58
170.821
166.179
157.879
143.078
126.849
113.478
102.656
93.6677
86.3847
81.126
78.7527
81.5547
98.8826
215.316
296.192
145.327
124.41
123.666
131.198
143.6
159.929
179.84
203.471
224.759
219.281
203.594
191.083
183.426
180.346
176.485
172.567
168.326
159.772
143.463
127.251
113.816
102.693
93.512
86.1587
80.8686
78.4874
81.3702
98.9928
216.526
294.716
144.519
123.196
122.116
129.42
141.731
158.003
177.917
201.435
224.852
225.485
209.256
195.249
186.559
183.28
180.05
175.64
171.229
160.149
143.071
127.531
114.379
103.151
93.8003
86.2661
80.8616
78.483
81.7448
100.512
216.072
284.346
140.918
120.94
120.222
127.555
139.937
156.285
176.291
199.585
224.179
231.996
215.682
200.272
190.606
186.512
183.435
179.069
173.137
158.983
143.063
128.559
115.68
104.339
94.6401
86.7659
81.1198
78.8497
82.9276
99.2029
207.409
250.787
133.247
119.198
117.69
125.496
138.194
154.797
175.186
199.127
226.101
240.948
224.409
206.39
195.338
190.157
186.858
182.841
172.641
158.684
144.922
131.352
118.448
106.574
96.153
87.6544
81.531
79.3007
82.8425
100.756
217.729
223.2
128.186
115.623
117.714
123.643
136.548
153.55
174.558
199.573
228.589
249.487
233.733
212.678
199.954
193.568
190.571
185.019
172.257
161.41
150.123
137.091
123.391
110.139
98.3793
88.7772
81.9822
79.5361
82.4477
97.3336
207.036
217.73
125.344
111.897
115.421
123.787
134.906
152.318
174.262
200.245
229.254
251.57
238.579
216.614
203.103
195.75
193.38
184.674
175.415
168.478
160.164
147.183
131.288
115.207
101.082
89.7088
82.8561
79.7388
79.7979
92.2281
185.093
244.781
126.06
110.376
112.405
121.946
134.135
150.63
174.248
202.288
231.564
251.482
238.661
217.846
204.814
197.644
193.945
187.524
183.313
179.793
175.372
163.506
142.348
121.334
103.06
90.0643
83.5285
77.946
76.9626
88.5071
170.755
274.605
127.349
110.336
111.375
119.275
132.864
148.828
174.532
207.612
240.914
257.816
239.879
222.453
210.855
203.621
199.803
198.37
196.66
194.217
190.559
178.595
154.84
126.67
102.803
90.5282
82.1225
75.9895
74.6095
85.2086
156.814
269.92
125.59
110.004
111.556
118.896
131.265
148.566
175.61
216.718
256.694
262.694
243.023
229.678
221.515
216.053
213.481
211.875
206.395
199.492
192.842
183.646
159.13
127.784
104.036
89.9945
80.5695
74.4265
72.7343
82.4178
145.318
259.181
123.788
108.86
111.975
120.293
132.569
150.455
178.568
223.266
266.407
260.048
240.64
229.659
223.658
220.082
216.136
209.262
198.931
189.16
182.863
177.002
155.867
126.657
104.39
89.7415
79.6666
73.4628
71.6214
80.8893
141.539
252.59
120.689
106.899
111.134
121.549
135.013
153.422
180.327
220.408
250.974
242.33
227.734
219.037
213.917
210.005
203.423
192.92
182.286
174.519
170.473
168.34
153.234
126.479
104.786
90.2562
79.7737
73.6365
71.9676
81.4574
149.817
238.559
116.345
104.001
108.924
120.771
135.907
154.151
178.842
210.193
221.453
215.428
206.778
199.853
194.588
189.126
181.771
173.25
165.694
160.483
158.471
159.358
151.886
127.708
106.008
91.6583
81.2129
75.247
73.9097
84.1765
173.103
221.147
112.317
100.899
106.107
118.374
134.773
153.629
177.841
200.691
198.695
192.593
185.749
179.458
173.884
168.259
162.177
156.014
150.856
147.636
147.15
149.695
148.851
129.43
108.016
93.9816
83.9248
77.6611
75.9997
87.2541
192.696
212.349
109.706
98.3845
103.437
115.613
132.615
152.938
177.233
188.65
181.112
173.751
167.134
161.176
155.791
150.673
145.737
141.234
137.793
136.064
136.732
140.365
143.59
130.341
110.163
96.4246
86.3509
79.0958
76.4433
86.6669
185.511
203.547
106.462
96.1818
101.072
113.139
130.374
151.885
174.877
175.379
165.764
157.631
151
145.313
140.306
135.769
131.771
128.469
126.28
125.652
127.184
131.515
137.145
130.017
111.711
97.8661
87.1203
78.9219
75.7907
85.2399
173.046
191.441
102.613
93.9692
99.0077
110.883
128.017
149.447
168.204
161.928
151.496
143.326
136.859
131.498
126.903
122.954
119.715
117.323
116.057
116.241
118.372
123.091
130.047
128.486
112.379
98.0259
86.3435
77.827
74.4549
82.9588
157.96
199.133
102.273
93.1809
97.5389
108.821
125.507
145.695
157.564
148.006
138.068
130.376
124.301
119.324
115.175
111.762
109.172
107.487
106.915
107.685
110.2
115.021
122.65
125.931
112.247
97.3479
85.3222
76.7231
73.1703
80.0625
148.762
205.747
104.073
93.7025
96.7387
106.951
122.909
141.293
144.765
134.492
125.611
118.633
113.051
108.513
104.805
101.897
99.8476
98.7219
98.6764
99.8734
102.603
107.285
114.648
121.816
111.668
96.7948
84.8465
76.6864
73.4625
81.2575
156.685
208.265
107.052
94.2463
96.3418
105.008
119.403
135.219
131.756
122.223
114.325
108.013
102.943
98.839
95.5702
93.1077
91.5195
90.8337
91.1873
92.6895
95.5576
100.03
106.623
115.582
111.541
97.2187
85.373
77.7635
75.4297
85.2373
170.665
229.592
111.01
94.852
95.8692
103.514
116.592
126.754
120.426
111.505
104.214
98.436
93.8217
90.1426
87.2772
85.2211
84.0082
83.6654
84.2999
86.0118
88.9508
93.2761
99.2194
107.51
111.127
98.7678
86.7045
79.3414
77.3929
89.4821
178.566
237.944
109.565
93.982
95.3036
103.09
115.397
120.065
111.28
102.21
95.2093
89.8051
85.5874
82.2871
79.7981
78.0852
77.1816
77.0899
77.8944
79.6886
82.6
86.7428
92.252
99.2297
105.884
100.597
88.0046
80.1114
78.3764
91.2399
189.288
210.24
102.685
91.1231
93.845
102.267
113.931
114.655
103.394
94.0168
87.1576
82.0442
78.1496
75.1895
73.0212
71.6072
70.9386
71.0177
71.888
73.641
76.3833
80.223
85.2774
91.5606
98.2434
99.8428
88.7534
79.645
76.7198
86.2143
177.961
189.5
95.5308
87.3386
91.6497
100.783
111.437
108.205
95.8412
86.5375
79.9045
75.0497
71.4428
68.77
66.8835
65.7096
65.2303
65.4071
66.2602
67.8631
70.323
73.7318
78.2146
83.8895
90.6245
95.5189
87.5541
77.5207
72.6408
79.5497
160.133
170.421
89.0612
83.6058
89.2445
99.2005
108.19
100.589
88.3829
79.5887
73.2982
68.7319
65.3872
62.9781
61.3307
60.3659
60.0217
60.2519
61.0292
62.4152
64.52
67.4261
71.2325
76.1045
82.2572
88.5931
83.9216
73.2864
66.9979
72.0358
142.36
152.617
84.4838
81.1017
87.8425
98.2476
103.86
92.5391
81.2424
73.1122
67.2498
62.9955
59.9266
57.7622
56.3404
55.5536
55.3332
55.5767
56.2386
57.372
59.095
61.4682
64.5613
68.501
73.5262
79.2593
77.4437
66.9559
60.3336
63.9124
117.907
148.164
83.3876
80.6649
88.2034
98.5633
98.2828
85.0016
74.5922
67.1116
61.6972
57.7911
55.0096
53.104
51.9019
51.3021
51.1894
51.4401
51.9625
52.8237
54.1509
55.991
58.3937
61.4162
65.1566
69.2594
68.6952
59.4016
54.1157
57.4739
108.189
156.175
85.5655
82.2252
90.2153
99.2091
91.1859
77.9971
68.4429
61.576
56.6292
53.0916
50.6274
48.9948
48.0448
47.6508
47.6864
47.938
48.3048
48.8698
49.7801
51.0987
52.8788
55.1354
57.8655
60.5818
59.8307
53.898
50.0119
55.6609
116.891
165.127
87.8756
84.471
92.3707
96.6354
83.7551
71.5888
62.8104
56.5393
52.0599
48.918
46.7915
45.4715
44.8157
44.693
44.9223
45.2153
45.3986
45.6111
46.0658
46.878
48.1149
49.7882
51.9062
54.1233
53.4069
49.2015
46.9389
52.9479
114.389
164.631
88.1018
86.8107
95.1982
90.9475
76.9456
65.7728
57.7505
52.0486
48.0392
45.2968
43.5392
42.58
42.2817
42.5141
43.0602
43.4166
43.378
43.1522
43.0873
43.3871
44.1329
45.3529
47.0913
49.0182
48.3345
44.819
43.3382
49.3407
106.49
155.783
86.2153
86.5553
95.4006
85.0961
71.0248
60.6523
53.2981
48.1414
44.5883
42.2596
40.9024
40.3565
40.4863
41.1974
42.1581
42.6805
42.359
41.5825
40.912
40.6598
40.9271
41.7537
43.1863
44.7968
43.8718
40.8388
39.8632
45.8166
98.514
149.694
84.7785
85.6021
92.1676
79.3678
65.8482
56.1901
49.4522
44.8064
41.7076
39.8004
38.8856
38.7818
39.4303
40.7115
42.2753
42.9835
42.2975
40.9092
39.5628
38.6973
38.4651
38.9123
40.0715
41.3208
40.0584
37.3682
36.8905
42.8316
92.5736
146.583
82.0824
84.7737
88.1298
74.1358
61.3359
52.3546
46.1712
42.0106
39.3487
37.8875
37.41
37.7989
39.0049
40.932
43.1786
44.1765
42.9224
40.9757
39.0036
37.4708
36.7023
36.7514
37.6159
38.4682
36.8579
34.4991
34.4175
40.558
88.2195
144.2
80.6747
83.4176
84.9909
70.0284
57.6286
49.1342
43.4209
39.6905
37.4532
36.4233
36.3825
37.2674
39.0552
41.6683
44.8211
46.109
44.0521
41.5433
39.1127
36.9153
35.57
35.2096
35.7621
36.1269
34.197
32.191
32.4592
38.8278
87.049
138.722
78.4591
81.1746
82.6509
67.0724
54.7146
46.5093
41.1497
37.7894
35.9351
35.2903
35.6651
37.0214
39.3396
42.646
46.6413
48.4923
45.5093
42.3605
39.6383
36.8967
34.9746
34.211
34.4466
34.2541
32.0762
30.3805
30.9233
37.5767
87.2578
133.021
75.2657
78.2401
80.3271
64.8418
52.455
44.4077
39.3033
36.2326
34.7013
34.3774
35.1188
36.8773
39.67
43.518
48.2823
51.1219
47.3119
43.2377
40.2552
37.1934
34.7814
33.6545
33.5958
32.8177
30.4507
28.9609
29.5624
35.7018
81.3389
126.281
71.5556
74.454
77.701
63.1116
50.7014
42.7506
37.8059
34.9527
33.6582
33.5888
34.6134
36.6912
39.8186
44.0488
49.4026
54.0513
49.8025
44.3133
40.8725
37.6381
34.8617
33.4616
33.124
31.686
29.1764
27.771
28.1272
33.505
73.9616
119.775
67.6763
70.1679
74.7952
61.7232
49.3763
41.4604
36.6033
33.8751
32.7356
32.8382
34.0614
36.3507
39.7206
44.2243
50.2131
57.2342
53.4417
45.9892
41.5219
38.0967
35.148
33.5531
32.8016
30.5733
28.0898
26.6024
26.8608
31.836
68.8945
113.615
63.828
65.7953
71.6621
60.6223
48.4247
40.4999
35.6421
32.9559
31.8782
32.0767
33.4037
35.819
39.346
44.0814
50.4977
59.3886
58.1779
48.7674
42.5538
38.754
35.6576
33.8383
32.4135
29.5285
27.0053
25.5416
25.8637
30.8588
67.676
108.049
60.1041
61.2745
68.1357
59.8135
47.8438
39.8307
34.898
32.1609
31.0722
31.2817
32.6323
35.0759
38.6636
43.529
50.0428
59.0846
63.3258
52.8012
44.3655
39.7513
36.4403
34.1666
31.7286
28.4409
25.9453
24.5982
25.1426
30.4936
69.1967
103.38
56.697
56.9849
64.0606
59.1561
47.6015
39.439
34.3485
31.4945
30.3193
30.4717
31.7664
34.1644
37.7017
42.5301
48.9798
57.6626
65.9587
57.4377
46.8214
40.8699
37.2166
34.0895
30.6735
27.2728
24.8875
23.7751
24.6966
30.55
62.5326
99.2841
53.8279
53.2565
59.9711
58.6316
47.7872
39.3472
34.0149
30.9737
29.6524
29.683
30.8595
33.1346
36.5379
41.1919
47.345
55.2913
64.1144
61.1624
49.4958
42.009
37.4535
33.4525
29.3894
26.0465
23.8027
23.1563
24.9282
30.4566
62.939
96.9223
51.7132
50.2487
56.392
58.2759
48.3778
39.5599
33.9314
30.6401
29.1084
28.9639
29.9687
32.0677
35.2552
39.6269
45.304
52.3388
59.8361
60.9782
51.1471
42.611
36.9652
32.2461
28.0034
24.716
22.7306
22.4295
24.5344
30.744
63.0223
97.1506
50.2982
48.0002
53.4451
57.8181
49.5591
40.1937
34.1302
30.5334
28.7356
28.3648
29.1644
31.0412
33.9753
38.0029
43.1525
49.3349
55.7479
57.932
51.1791
42.6159
36.0082
30.7389
26.4717
23.2751
21.3618
21.3308
23.1446
28.2435
57.7884
98.3627
49.3157
46.2605
50.9598
56.9668
51.0859
41.3273
34.6935
30.6783
28.5743
27.9398
28.5058
30.1447
32.8094
36.4925
41.1595
46.695
52.4353
54.9346
49.9582
41.8178
34.8042
29.1957
24.8422
21.5859
19.6603
19.6562
20.7203
24.9471
52.3609
95.785
47.9582
44.685
48.711
55.3309
52.7985
42.9304
35.6602
31.123
28.6578
27.7332
28.0514
29.4478
31.8621
35.2411
39.5349
44.6098
49.9077
52.448
48.2536
40.5781
33.5112
27.7154
23.1868
19.8344
18.1403
17.7285
18.4334
22.0995
46.542
92.0086
46.4041
43.1477
46.7042
53.1302
54.1804
44.9819
37.0019
31.9133
29.0105
27.7878
27.8548
29.0201
31.2179
34.3684
38.4138
43.2284
48.19
50.3688
46.4196
39.1838
32.2305
26.3846
21.7888
18.6293
16.8168
16.0682
16.5153
19.4027
38.9725
90.4174
45.5923
42.0166
45.0634
51.0995
55.06
47.3298
38.7225
33.0574
29.7127
28.1231
27.9504
28.9251
30.9564
33.9683
37.9076
42.6362
47.3221
48.7122
44.5467
37.6751
30.9641
25.1849
20.7562
17.6538
15.6369
14.6981
14.8499
17.0987
32.3476
92.1253
45.8459
41.6599
44.0632
49.5382
55.4216
50.0417
40.9103
34.628
30.8011
28.8401
28.3704
29.1647
31.0958
34.0706
38.0233
42.7906
47.0839
47.3806
42.7081
36.0947
29.693
24.1387
19.8655
16.7639
14.6171
13.4591
13.3214
14.9557
27.1121
99.8788
47.6069
42.1263
43.743
48.5747
55.2011
53.0183
43.7739
36.7484
32.3626
29.987
29.2258
29.8248
31.6635
34.635
38.679
43.5158
47.2568
46.1673
40.7894
34.4379
28.3902
23.1464
19.0506
15.9646
13.7035
12.3265
11.9489
13.0563
23.1581
107.551
51.147
43.5071
44.0288
48.2397
54.6654
56.2979
47.4778
39.5614
34.4888
31.6282
30.5338
30.9575
32.7446
35.7591
39.9126
44.7457
47.4665
44.7068
38.8178
32.7242
27.0541
22.1711
18.256
15.2135
12.8951
11.3355
10.7054
11.4619
19.9253
115.103
54.9231
45.8298
44.8866
48.3621
54.4581
59.4953
52.1469
43.2364
37.2894
33.8228
32.333
32.5467
34.2705
37.3448
41.6678
46.2852
47.3654
43.0333
36.9558
31.0807
25.7678
21.215
17.4759
14.5011
12.1813
10.5112
9.67855
10.1288
17.27
122.889
60.2505
47.9201
45.8893
48.5258
54.5453
61.9
57.7657
47.9747
40.8628
36.6192
34.6451
34.6258
36.2882
39.4679
44.0531
48.1588
46.9672
41.4761
35.3707
29.6738
24.6288
20.3115
16.7209
13.8226
11.5397
9.84359
8.89992
9.17001
15.7091
119.377
59.8688
49.1016
46.1222
48.5983
54.7347
63.3938
64.1175
53.9535
45.2571
40.0423
37.5077
37.2377
38.916
42.3633
47.3247
50.2763
46.6702
40.3514
34.1713
28.5646
23.6722
19.4968
16.0106
13.1807
10.951
9.29018
8.33527
8.61567
15.4396
116.842
56.8486
47.6923
45.8757
47.8739
54.4225
64.0706
69.7917
60.9167
50.4852
44.1253
40.9577
40.4367
42.2576
46.2966
51.6143
52.345
46.5655
39.6481
33.2983
27.6904
22.8628
18.7667
15.3529
12.5798
10.4044
8.80513
7.89983
8.29026
15.7564
115.151
53.7176
44.8031
44.1648
47.063
53.454
63.6792
73.0288
68.3537
56.5312
48.8653
45.0117
44.2698
46.356
51.1866
56.306
53.9534
46.487
39.0941
32.5519
26.9154
22.1202
18.081
14.7303
12.0152
9.89583
8.36194
7.52764
8.06241
16.4256
110.925
50.8349
42.1104
41.8914
45.658
52.2491
62.5257
74.0433
75.3037
63.2082
54.1596
49.6286
48.7575
51.2049
56.7859
60.6048
54.8725
46.2346
38.4631
31.7798
26.1277
21.3713
17.3975
14.1203
11.4758
9.4213
7.95228
7.18391
7.81699
16.7203
102.12
47.6664
39.3949
39.642
43.9102
50.9813
61.1407
74.0658
80.625
70.1675
59.9683
54.8023
53.8312
56.6967
62.632
63.4447
54.918
45.7111
37.7235
30.9758
25.3232
20.6114
16.7108
13.5177
10.9555
8.97534
7.57211
6.86186
7.54583
16.6241
87.8645
43.6753
36.3654
37.2013
42.071
49.7118
59.9456
73.2756
83.795
77.3945
66.4145
60.5462
59.3406
62.5927
68.0343
64.5142
54.4096
44.9736
36.925
30.1719
24.5411
19.8779
16.047
12.9355
10.4563
8.55291
7.21523
6.55549
7.26117
16.2371
73.1574
39.1309
33.1635
34.6622
40.1316
48.2121
58.5931
71.9675
84.9358
84.5848
73.5926
66.8366
65.1823
68.6716
72.2608
64.5917
53.6789
44.1322
36.0885
29.3649
23.7799
19.1758
15.4153
12.3818
9.98187
8.15228
6.87672
6.25969
6.96494
15.6789
58.9644
34.0181
29.8678
32.1561
38.1737
46.5432
57.013
69.9803
84.2682
90.6773
81.0397
73.4214
71.2806
74.7271
74.4868
63.9616
52.7558
43.1951
35.1943
28.5306
23.0162
18.4887
14.8077
11.8543
9.53243
7.7737
6.55621
5.97602
6.67047
15.0954
46.8108
28.8303
26.6778
29.7502