/*--------------------------------*- C++ -*----------------------------------*\
| =========                 |                                                 |
| \\      /  F ield         | OpenFOAM: The Open Source CFD Toolbox           |
|  \\    /   O peration     | Version:  2.3.0                                 |
|   \\  /    A nd           | Web:      www.OpenFOAM.org                      |
|    \\/     M anipulation  |                                                 |
\*---------------------------------------------------------------------------*/
FoamFile
{
    version     2.0;
    format      ascii;
    class       volScalarField;
    location    "0.79";
    object      p;
}
// * * * * * * * * * * * * * * * * * * * * * * * * * * * * * * * * * * * * * //

dimensions      [1 -1 -2 0 0 0 0];

internalField   nonuniform List<scalar> 
6000
(
105682
105682
105673
105653
105634
105630
105633
105632
105626
105624
105626
105631
105636
105637
105641
105662
105680
105679
105685
105690
105689
105684
105676
105665
105649
105632
105628
105627
105630
105641
105610
105611
105603
105586
105580
105580
105576
105573
105572
105573
105575
105577
105581
105584
105587
105597
105609
105605
105597
105594
105591
105588
105584
105579
105574
105573
105575
105578
105576
105585
105558
105562
105552
105544
105544
105542
105541
105540
105541
105542
105543
105545
105547
105549
105552
105558
105566
105562
105554
105550
105547
105544
105542
105539
105539
105540
105540
105541
105544
105550
105513
105514
105507
105508
105509
105508
105507
105507
105507
105508
105510
105512
105513
105515
105518
105522
105528
105524
105521
105519
105517
105515
105513
105511
105509
105507
105507
105507
105509
105513
105478
105476
105474
105477
105477
105476
105475
105475
105475
105475
105476
105478
105480
105481
105484
105489
105494
105490
105490
105491
105492
105492
105489
105485
105480
105475
105472
105471
105473
105478
105447
105446
105449
105448
105447
105446
105445
105444
105443
105443
105443
105444
105446
105448
105450
105457
105460
105459
105462
105466
105469
105470
105468
105461
105453
105444
105437
105435
105436
105440
105421
105422
105425
105423
105420
105418
105416
105414
105413
105412
105411
105411
105412
105414
105418
105423
105424
105429
105434
105441
105446
105447
105443
105435
105426
105414
105404
105398
105397
105400
105395
105398
105402
105400
105395
105391
105389
105387
105385
105383
105381
105380
105380
105382
105385
105388
105390
105398
105407
105415
105417
105414
105408
105401
105393
105383
105371
105362
105359
105358
105369
105373
105377
105377
105370
105365
105363
105362
105361
105358
105355
105352
105351
105352
105355
105357
105361
105368
105378
105381
105376
105367
105359
105352
105349
105347
105338
105328
105323
105321
105339
105341
105345
105349
105346
105340
105338
105340
105339
105337
105332
105328
105325
105324
105326
105328
105332
105338
105344
105336
105323
105312
105301
105292
105287
105291
105297
105291
105287
105283
105296
105295
105300
105313
105319
105314
105311
105315
105315
105313
105310
105304
105299
105297
105298
105297
105300
105304
105300
105281
105266
105252
105238
105222
105207
105200
105211
105226
105229
105226
105226
105224
105233
105256
105281
105284
105281
105281
105280
105280
105279
105276
105271
105268
105265
105259
105258
105258
105238
105218
105205
105189
105168
105136
105099
105084
105085
105101
105118
105121
105124
105127
105142
105173
105216
105242
105241
105230
105225
105224
105229
105233
105232
105227
105217
105202
105194
105181
105157
105148
105139
105122
105089
105052
105032
105027
105027
105030
105034
105035
105003
105011
105030
105064
105112
105163
105177
105158
105148
105146
105150
105159
105164
105157
105138
105114
105092
105062
105044
105059
105063
105053
105028
105013
105008
105007
105006
105007
105007
105008
104866
104876
104899
104935
104984
105036
105072
105068
105058
105054
105053
105057
105059
105050
105027
104996
104957
104921
104904
104932
104969
104986
104990
104992
104994
104995
104995
104995
104996
104996
104703
104718
104754
104796
104846
104901
104943
104963
104959
104954
104945
104944
104942
104932
104907
104869
104838
104828
104828
104838
104879
104924
104955
104972
104979
104982
104984
104985
104986
104987
104550
104570
104615
104666
104716
104771
104820
104851
104857
104844
104825
104818
104819
104809
104790
104776
104775
104781
104788
104794
104821
104869
104916
104945
104959
104966
104970
104972
104974
104975
104494
104499
104516
104558
104607
104658
104710
104749
104767
104759
104742
104729
104726
104724
104725
104730
104739
104748
104756
104765
104785
104827
104876
104912
104934
104946
104953
104956
104958
104960
104477
104478
104481
104492
104521
104562
104615
104660
104696
104709
104702
104693
104689
104690
104695
104702
104709
104717
104726
104736
104753
104790
104835
104873
104901
104918
104929
104934
104937
104938
104469
104469
104469
104471
104478
104497
104530
104577
104626
104670
104678
104672
104669
104669
104672
104677
104681
104688
104695
104706
104722
104755
104793
104829
104860
104881
104895
104903
104907
104907
104463
104463
104463
104463
104464
104468
104480
104506
104548
104611
104651
104652
104648
104648
104649
104651
104654
104659
104665
104676
104691
104720
104752
104783
104811
104834
104850
104860
104864
104863
104456
104456
104456
104456
104456
104457
104459
104466
104487
104538
104605
104626
104625
104625
104625
104626
104627
104630
104635
104645
104659
104684
104710
104736
104759
104779
104794
104804
104808
104807
104449
104448
104448
104448
104447
104447
104448
104448
104453
104474
104540
104588
104600
104600
104601
104601
104600
104602
104606
104615
104627
104646
104667
104687
104705
104721
104733
104741
104745
104746
104440
104440
104439
104439
104438
104437
104436
104435
104434
104437
104466
104533
104566
104574
104575
104575
104573
104574
104577
104584
104594
104609
104624
104639
104652
104663
104672
104678
104681
104683
104431
104431
104430
104429
104428
104426
104423
104420
104416
104414
104418
104455
104514
104540
104547
104549
104547
104547
104549
104554
104561
104570
104580
104590
104599
104606
104612
104617
104619
104621
104422
104422
104421
104420
104418
104414
104408
104401
104394
104389
104388
104397
104441
104492
104515
104522
104521
104520
104523
104525
104528
104532
104537
104541
104546
104550
104554
104557
104559
104560
104413
104413
104413
104411
104406
104398
104387
104376
104367
104362
104360
104360
104375
104429
104474
104492
104495
104495
104497
104497
104495
104493
104493
104493
104494
104496
104497
104499
104500
104500
104404
104404
104402
104398
104389
104375
104359
104345
104336
104332
104330
104330
104332
104358
104422
104459
104470
104470
104472
104470
104463
104454
104448
104445
104442
104441
104441
104441
104441
104441
104394
104392
104386
104375
104358
104339
104322
104310
104304
104300
104298
104297
104298
104304
104355
104417
104442
104447
104448
104443
104428
104413
104403
104395
104390
104387
104385
104384
104383
104383
104379
104371
104355
104335
104313
104295
104283
104277
104273
104269
104266
104264
104264
104265
104290
104361
104408
104421
104420
104409
104386
104368
104355
104345
104337
104333
104329
104327
104326
104325
104348
104328
104304
104281
104264
104254
104249
104246
104243
104239
104233
104230
104230
104232
104242
104293
104355
104384
104381
104360
104336
104317
104303
104292
104283
104277
104273
104270
104268
104267
104278
104265
104247
104230
104221
104218
104217
104217
104213
104208
104201
104196
104195
104196
104200
104232
104280
104316
104319
104300
104281
104263
104249
104237
104228
104221
104216
104212
104210
104209
104200
104196
104190
104184
104181
104182
104185
104186
104183
104177
104169
104163
104160
104159
104161
104178
104206
104231
104241
104236
104221
104206
104192
104181
104171
104163
104157
104152
104149
104148
104121
104122
104126
104132
104135
104139
104145
104150
104150
104145
104138
104131
104126
104124
104123
104128
104144
104158
104164
104164
104155
104144
104133
104123
104114
104104
104095
104089
104086
104085
104034
104040
104051
104064
104076
104084
104094
104105
104112
104112
104108
104101
104094
104090
104087
104085
104093
104096
104095
104090
104083
104075
104069
104065
104057
104044
104031
104022
104018
104017
103936
103941
103964
103984
104004
104020
104035
104050
104065
104075
104077
104072
104064
104058
104055
104052
104053
104042
104029
104018
104008
104001
103998
103997
103996
103980
103963
103950
103944
103943
103834
103835
103860
103895
103926
103952
103973
103988
104003
104023
104038
104041
104035
104027
104023
104025
104016
103988
103964
103945
103930
103922
103922
103926
103926
103909
103888
103873
103862
103865
103762
103766
103776
103798
103844
103882
103906
103917
103927
103950
103981
103999
104000
103994
103989
103994
103971
103927
103896
103870
103848
103843
103843
103852
103846
103831
103811
103798
103793
103795
103721
103724
103725
103733
103754
103804
103825
103827
103835
103855
103890
103927
103948
103950
103945
103944
103907
103862
103824
103792
103770
103765
103777
103794
103784
103763
103752
103749
103748
103748
103692
103693
103692
103692
103699
103726
103742
103734
103731
103744
103771
103806
103850
103878
103881
103862
103829
103789
103751
103720
103708
103713
103728
103741
103740
103721
103714
103717
103719
103720
103666
103664
103663
103661
103660
103666
103674
103663
103647
103642
103649
103667
103703
103755
103781
103756
103741
103714
103683
103665
103668
103676
103687
103692
103690
103688
103689
103693
103696
103700
103642
103638
103635
103633
103630
103628
103627
103615
103598
103588
103585
103588
103599
103621
103655
103646
103648
103641
103630
103630
103637
103643
103650
103655
103659
103662
103667
103672
103676
103680
103619
103614
103610
103606
103602
103597
103589
103578
103567
103559
103554
103552
103553
103556
103562
103564
103576
103589
103596
103603
103609
103614
103618
103625
103633
103640
103646
103652
103656
103659
103596
103592
103587
103581
103576
103568
103557
103546
103540
103533
103529
103526
103525
103524
103522
103525
103534
103555
103572
103581
103585
103588
103591
103597
103607
103616
103623
103629
103633
103632
103572
103569
103565
103558
103550
103540
103527
103517
103514
103507
103501
103498
103497
103496
103497
103500
103508
103530
103552
103562
103565
103567
103567
103572
103580
103587
103593
103597
103596
103591
103540
103542
103539
103531
103522
103510
103497
103490
103487
103481
103472
103468
103466
103466
103468
103472
103479
103501
103526
103540
103545
103547
103545
103546
103549
103553
103553
103550
103545
103541
103499
103504
103504
103499
103490
103478
103467
103461
103458
103452
103441
103436
103434
103434
103436
103439
103444
103462
103488
103508
103519
103522
103521
103518
103515
103509
103501
103493
103486
103482
103449
103453
103457
103458
103453
103444
103435
103430
103425
103418
103407
103401
103399
103399
103401
103404
103407
103416
103440
103465
103483
103490
103488
103481
103469
103455
103441
103430
103421
103418
103393
103398
103403
103408
103409
103406
103399
103392
103385
103377
103368
103362
103361
103363
103365
103368
103370
103372
103392
103417
103437
103445
103441
103428
103410
103391
103375
103361
103350
103348
103337
103340
103346
103352
103358
103360
103357
103347
103337
103326
103321
103321
103322
103325
103329
103333
103336
103337
103351
103372
103383
103386
103378
103362
103342
103322
103302
103285
103273
103277
103281
103280
103287
103295
103301
103306
103306
103296
103283
103271
103272
103278
103283
103288
103294
103300
103306
103311
103322
103329
103329
103324
103311
103293
103271
103247
103224
103214
103208
103216
103228
103226
103230
103236
103245
103250
103251
103242
103227
103219
103229
103237
103244
103251
103259
103267
103276
103287
103292
103283
103275
103263
103245
103224
103201
103179
103167
103164
103165
103171
103181
103179
103179
103182
103189
103197
103199
103192
103179
103179
103191
103199
103207
103215
103224
103234
103246
103258
103251
103235
103221
103204
103182
103160
103142
103134
103133
103136
103139
103141
103144
103141
103140
103140
103143
103148
103153
103149
103142
103148
103157
103164
103171
103179
103188
103199
103213
103220
103200
103182
103163
103143
103121
103107
103102
103104
103109
103114
103118
103117
103114
103111
103109
103108
103107
103109
103113
103114
103112
103119
103125
103131
103136
103143
103152
103163
103172
103164
103144
103124
103104
103082
103070
103068
103072
103079
103086
103091
103093
103091
103083
103083
103081
103079
103078
103078
103082
103084
103085
103091
103095
103099
103103
103108
103115
103122
103119
103099
103082
103065
103045
103032
103032
103038
103047
103054
103060
103062
103061
103058
103052
103053
103054
103053
103053
103053
103056
103059
103062
103064
103066
103068
103070
103073
103077
103077
103060
103034
103017
103007
102999
102999
103004
103013
103021
103027
103029
103027
103025
103023
103019
103021
103023
103026
103028
103031
103034
103038
103041
103039
103039
103039
103038
103039
103039
103029
103005
102983
102971
102968
102970
102976
102982
102988
102994
102996
102994
102990
102987
102985
102985
102987
102991
102996
103002
103007
103011
103016
103022
103015
103012
103010
103008
103006
103003
102987
102967
102956
102950
102949
102953
102957
102961
102965
102966
102963
102958
102953
102949
102946
102948
102951
102956
102964
102972
102979
102986
102992
103000
102992
102986
102983
102980
102977
102971
102958
102945
102941
102938
102938
102940
102941
102943
102943
102939
102931
102923
102915
102909
102906
102908
102912
102919
102928
102939
102950
102959
102965
102971
102967
102961
102957
102953
102950
102945
102936
102929
102926
102924
102927
102928
102926
102924
102921
102912
102899
102886
102874
102866
102862
102862
102868
102877
102889
102903
102917
102928
102936
102940
102941
102935
102931
102928
102925
102922
102917
102912
102910
102909
102914
102912
102909
102905
102897
102883
102863
102845
102829
102818
102813
102807
102815
102831
102847
102864
102880
102895
102905
102914
102918
102911
102906
102903
102900
102898
102896
102894
102892
102895
102896
102891
102887
102881
102868
102846
102820
102797
102778
102764
102757
102744
102749
102778
102802
102822
102842
102860
102875
102890
102899
102889
102882
102879
102877
102874
102873
102874
102875
102881
102877
102866
102858
102849
102829
102799
102770
102744
102720
102700
102691
102711
102714
102728
102754
102779
102802
102823
102841
102858
102880
102869
102859
102855
102853
102850
102850
102853
102858
102865
102852
102834
102820
102805
102778
102746
102714
102684
102653
102624
102618
102694
102695
102699
102714
102740
102764
102785
102804
102821
102847
102844
102834
102830
102828
102826
102827
102833
102841
102839
102813
102790
102772
102751
102722
102689
102656
102620
102582
102571
102569
102684
102683
102682
102689
102706
102728
102749
102767
102786
102809
102815
102807
102802
102800
102799
102802
102811
102817
102796
102761
102736
102716
102693
102665
102633
102600
102562
102547
102541
102540
102675
102672
102670
102670
102678
102695
102713
102731
102751
102777
102788
102777
102771
102769
102769
102776
102785
102776
102730
102693
102672
102656
102636
102610
102579
102548
102532
102527
102527
102526
102666
102662
102659
102656
102655
102662
102678
102695
102714
102738
102759
102745
102738
102735
102735
102745
102744
102698
102642
102608
102599
102595
102583
102559
102532
102519
102515
102515
102515
102516
102654
102651
102648
102644
102639
102639
102645
102659
102672
102686
102706
102707
102703
102700
102699
102698
102660
102586
102532
102506
102505
102535
102536
102518
102510
102504
102504
102505
102505
102506
102638
102638
102634
102629
102623
102618
102621
102625
102625
102619
102625
102656
102658
102654
102645
102608
102529
102473
102449
102442
102450
102481
102496
102506
102495
102493
102494
102494
102495
102497
102612
102617
102613
102607
102600
102593
102588
102586
102556
102520
102530
102573
102583
102576
102547
102483
102436
102419
102415
102417
102422
102440
102474
102483
102482
102483
102484
102485
102486
102488
102575
102580
102582
102577
102570
102561
102548
102523
102473
102432
102439
102460
102471
102462
102438
102412
102402
102400
102401
102403
102405
102417
102445
102462
102469
102472
102474
102476
102478
102480
102529
102536
102540
102540
102532
102521
102502
102460
102410
102389
102389
102391
102394
102393
102388
102386
102387
102387
102388
102389
102389
102398
102421
102444
102456
102461
102465
102468
102470
102472
102481
102488
102492
102493
102489
102476
102452
102409
102373
102368
102368
102367
102367
102368
102370
102371
102372
102373
102373
102374
102374
102378
102398
102425
102440
102448
102454
102458
102461
102462
102430
102436
102442
102443
102441
102429
102403
102366
102349
102353
102354
102354
102354
102355
102356
102357
102357
102358
102358
102359
102359
102361
102375
102403
102422
102433
102440
102446
102449
102447
102380
102384
102393
102396
102394
102384
102362
102339
102334
102337
102339
102340
102340
102341
102342
102342
102342
102343
102343
102344
102344
102344
102354
102378
102400
102413
102421
102426
102428
102421
102339
102341
102348
102354
102353
102346
102334
102321
102322
102323
102324
102325
102326
102326
102327
102327
102328
102328
102328
102329
102329
102329
102334
102352
102373
102387
102394
102395
102392
102389
102312
102307
102312
102318
102320
102318
102314
102307
102308
102309
102310
102311
102311
102312
102312
102313
102313
102313
102313
102313
102313
102314
102317
102328
102343
102356
102360
102360
102357
102357
102284
102280
102282
102287
102293
102295
102295
102293
102294
102295
102296
102296
102297
102298
102298
102298
102298
102298
102298
102298
102298
102298
102299
102306
102314
102323
102327
102326
102324
102323
102258
102257
102256
102261
102270
102277
102276
102278
102279
102281
102281
102282
102283
102283
102283
102284
102283
102283
102283
102282
102282
102281
102280
102283
102288
102294
102294
102293
102288
102289
102242
102237
102238
102241
102252
102263
102260
102263
102265
102266
102267
102268
102269
102269
102269
102269
102269
102269
102268
102267
102266
102264
102261
102258
102263
102266
102264
102260
102257
102260
102232
102223
102223
102227
102237
102246
102247
102249
102251
102252
102253
102254
102255
102255
102255
102255
102255
102254
102254
102253
102251
102249
102244
102239
102241
102242
102237
102233
102230
102238
102219
102213
102212
102215
102224
102232
102234
102236
102237
102238
102239
102240
102241
102241
102242
102242
102241
102241
102240
102239
102237
102235
102231
102226
102224
102225
102216
102212
102212
102225
102211
102206
102203
102205
102213
102220
102221
102222
102223
102225
102226
102227
102227
102228
102228
102228
102228
102227
102226
102225
102224
102222
102219
102216
102213
102212
102204
102200
102205
102215
102199
102198
102194
102195
102202
102207
102208
102209
102210
102211
102212
102213
102214
102215
102215
102215
102215
102214
102214
102213
102211
102210
102208
102206
102204
102204
102197
102194
102199
102204
102185
102190
102184
102184
102190
102193
102194
102195
102196
102198
102199
102200
102201
102202
102202
102202
102202
102202
102201
102200
102200
102199
102197
102196
102195
102195
102192
102191
102194
102193
102174
102181
102174
102172
102177
102178
102180
102182
102183
102184
102186
102187
102188
102189
102190
102190
102190
102189
102189
102189
102188
102187
102187
102186
102185
102185
102187
102188
102189
102190
102159
102166
102162
102160
102161
102163
102167
102168
102170
102171
102173
102174
102175
102176
102177
102178
102178
102178
102177
102177
102177
102177
102176
102176
102175
102175
102180
102182
102182
102181
102143
102149
102148
102149
102148
102151
102153
102155
102157
102159
102160
102161
102163
102164
102165
102166
102166
102166
102166
102166
102166
102166
102166
102166
102166
102165
102165
102167
102165
102166
102135
102139
102138
102140
102137
102139
102141
102143
102144
102146
102147
102149
102150
102152
102153
102154
102154
102155
102155
102155
102156
102156
102156
102156
102156
102156
102154
102153
102153
102154
102140
102138
102130
102126
102127
102128
102129
102131
102132
102134
102135
102136
102138
102140
102141
102142
102143
102144
102145
102145
102146
102146
102146
102146
102147
102147
102145
102144
102144
102144
102141
102136
102125
102116
102116
102117
102118
102119
102120
102121
102123
102124
102126
102127
102129
102131
102133
102134
102135
102136
102136
102137
102137
102137
102138
102138
102137
102136
102135
102135
102127
102120
102113
102106
102105
102106
102106
102107
102108
102109
102110
102112
102113
102115
102117
102119
102122
102125
102126
102126
102127
102127
102128
102129
102129
102129
102128
102127
102126
102127
102110
102109
102099
102095
102094
102094
102094
102095
102096
102096
102097
102099
102100
102102
102104
102107
102111
102115
102117
102118
102118
102119
102119
102120
102121
102121
102120
102119
102118
102118
102094
102092
102086
102083
102083
102083
102083
102083
102083
102084
102085
102086
102087
102089
102091
102094
102099
102105
102108
102109
102110
102111
102111
102112
102113
102113
102112
102112
102111
102111
102078
102077
102073
102072
102071
102071
102070
102070
102071
102071
102072
102073
102074
102075
102077
102080
102086
102093
102099
102101
102102
102103
102104
102104
102106
102106
102105
102104
102103
102102
102064
102063
102061
102060
102059
102059
102058
102058
102058
102058
102059
102059
102060
102061
102062
102065
102070
102081
102090
102094
102095
102096
102096
102097
102098
102098
102096
102094
102093
102092
102050
102050
102049
102048
102047
102047
102046
102046
102045
102045
102045
102045
102046
102046
102047
102048
102052
102065
102079
102086
102088
102089
102089
102091
102092
102090
102087
102084
102080
102077
102037
102037
102037
102037
102036
102035
102034
102033
102033
102032
102032
102032
102032
102031
102031
102032
102032
102045
102066
102077
102081
102082
102083
102084
102085
102081
102076
102068
102060
102055
102024
102024
102025
102025
102024
102023
102022
102021
102020
102019
102019
102018
102017
102017
102016
102015
102014
102023
102047
102066
102073
102075
102076
102078
102077
102071
102058
102043
102030
102021
102012
102011
102013
102014
102012
102011
102010
102009
102008
102007
102006
102005
102004
102002
102001
102000
101998
102000
102023
102050
102063
102067
102069
102070
102066
102052
102032
102011
101989
101971
101999
101999
102001
102002
102001
101999
101997
101996
101995
101994
101993
101992
101990
101989
101987
101986
101984
101981
101995
102027
102048
102056
102059
102058
102049
102026
102000
101969
101936
101926
101986
101986
101988
101990
101989
101987
101985
101984
101983
101981
101980
101979
101977
101976
101974
101972
101971
101968
101971
101997
102026
102039
102044
102040
102021
101994
101960
101922
101911
101908
101973
101972
101975
101977
101977
101975
101973
101972
101970
101969
101968
101966
101965
101963
101961
101960
101959
101957
101956
101967
101997
102015
102020
102011
101988
101957
101922
101906
101902
101902
101959
101959
101962
101965
101965
101963
101961
101959
101958
101957
101955
101954
101952
101951
101949
101948
101947
101947
101946
101948
101965
101985
101990
101978
101954
101923
101905
101900
101899
101898
101944
101945
101948
101952
101953
101951
101949
101947
101946
101944
101943
101942
101940
101939
101938
101937
101936
101936
101936
101936
101943
101956
101959
101949
101927
101907
101898
101896
101895
101895
101929
101930
101933
101939
101942
101940
101937
101935
101933
101932
101931
101930
101928
101927
101926
101926
101926
101926
101926
101926
101929
101935
101936
101928
101912
101898
101893
101892
101891
101891
101910
101913
101918
101925
101929
101928
101925
101923
101921
101920
101919
101918
101917
101916
101915
101915
101915
101915
101916
101916
101917
101919
101917
101911
101899
101891
101889
101887
101887
101887
101888
101891
101899
101909
101916
101916
101913
101911
101909
101908
101907
101906
101905
101904
101904
101904
101904
101905
101906
101906
101906
101905
101903
101896
101889
101884
101883
101882
101881
101881
101858
101864
101875
101890
101903
101905
101901
101899
101897
101896
101895
101894
101893
101893
101893
101893
101894
101895
101896
101896
101895
101893
101889
101884
101879
101876
101875
101875
101875
101875
101815
101827
101845
101866
101887
101893
101890
101887
101885
101884
101883
101882
101882
101881
101882
101882
101884
101886
101887
101886
101884
101880
101875
101870
101867
101866
101866
101867
101867
101867
101757
101775
101806
101836
101866
101880
101878
101875
101873
101872
101871
101870
101870
101870
101870
101872
101874
101876
101877
101875
101871
101865
101859
101855
101853
101853
101854
101856
101857
101857
101735
101741
101763
101801
101840
101866
101867
101864
101861
101860
101859
101858
101858
101858
101859
101860
101863
101865
101865
101861
101854
101847
101841
101837
101835
101836
101839
101842
101844
101845
101729
101730
101737
101765
101813
101851
101855
101852
101849
101848
101847
101846
101846
101846
101847
101849
101852
101853
101851
101844
101835
101826
101820
101816
101815
101815
101819
101823
101826
101828
101727
101727
101728
101740
101780
101828
101841
101841
101837
101835
101834
101834
101834
101834
101835
101838
101840
101839
101835
101825
101813
101803
101796
101791
101789
101790
101793
101798
101802
101804
101725
101725
101725
101730
101751
101798
101824
101828
101825
101823
101822
101822
101822
101822
101823
101826
101827
101825
101817
101803
101789
101778
101769
101763
101760
101760
101762
101765
101770
101772
101722
101723
101723
101725
101734
101768
101805
101815
101813
101810
101809
101809
101809
101810
101811
101814
101815
101810
101797
101780
101764
101750
101739
101731
101727
101725
101725
101727
101730
101732
101720
101720
101721
101723
101727
101746
101784
101800
101801
101798
101797
101796
101797
101797
101800
101802
101801
101792
101774
101754
101735
101719
101707
101697
101690
101687
101685
101685
101686
101687
101717
101717
101718
101720
101723
101735
101764
101785
101788
101785
101784
101784
101784
101785
101788
101790
101786
101771
101747
101724
101704
101686
101671
101659
101650
101644
101641
101639
101639
101639
101713
101714
101714
101715
101719
101728
101748
101769
101775
101773
101772
101771
101771
101773
101776
101777
101767
101743
101716
101690
101667
101647
101630
101616
101606
101598
101593
101590
101589
101589
101709
101709
101709
101709
101712
101719
101735
101755
101762
101762
101759
101758
101758
101760
101763
101761
101743
101712
101681
101652
101627
101604
101586
101570
101557
101548
101542
101537
101535
101535
101703
101702
101702
101701
101701
101706
101718
101737
101749
101750
101746
101745
101745
101748
101749
101742
101714
101677
101642
101611
101582
101558
101537
101519
101505
101495
101487
101482
101479
101478
101693
101693
101690
101687
101685
101688
101698
101715
101733
101738
101733
101731
101732
101735
101733
101719
101680
101638
101600
101565
101534
101507
101484
101465
101450
101437
101428
101422
101419
101417
101679
101678
101672
101664
101660
101662
101672
101688
101709
101722
101719
101716
101718
101720
101714
101689
101641
101595
101553
101515
101482
101453
101428
101407
101390
101376
101366
101359
101355
101353
101655
101650
101639
101628
101623
101626
101636
101654
101679
101700
101704
101700
101702
101703
101689
101649
101595
101545
101501
101461
101425
101394
101367
101344
101326
101311
101299
101292
101287
101285
101610
101600
101584
101573
101570
101575
101589
101611
101641
101671
101685
101683
101682
101678
101651
101597
101541
101489
101443
101401
101363
101330
101301
101277
101256
101240
101227
101219
101214
101211
101534
101522
101509
101503
101505
101513
101530
101556
101591
101630
101655
101659
101655
101638
101595
101535
101478
101426
101378
101335
101296
101261
101230
101204
101181
101163
101150
101141
101135
101132
101439
101432
101426
101427
101433
101444
101463
101490
101527
101570
101606
101623
101611
101576
101525
101463
101407
101355
101307
101263
101223
101187
101154
101126
101103
101083
101068
101058
101052
101050
101343
101342
101347
101355
101365
101376
101391
101415
101447
101486
101528
101560
101541
101487
101436
101379
101326
101276
101230
101186
101146
101109
101077
101051
101028
101008
100990
100976
100968
100964
101254
101259
101275
101293
101306
101310
101318
101333
101356
101383
101419
101447
101430
101374
101330
101284
101238
101193
101149
101107
101068
101033
101006
100985
100966
100944
100919
100900
100887
100880
101168
101184
101207
101226
101239
101241
101241
101246
101258
101275
101297
101308
101295
101255
101215
101183
101146
101107
101067
101028
100992
100963
100944
100929
100909
100880
100852
100826
100806
100794
101083
101101
101112
101126
101140
101151
101151
101151
101155
101165
101177
101182
101169
101142
101104
101084
101055
101022
100986
100951
100920
100897
100883
100868
100836
100800
100767
100738
100714
100701
100975
100981
100990
101004
101022
101040
101047
101048
101049
101054
101062
101068
101058
101034
101003
100990
100967
100938
100906
100875
100848
100828
100811
100789
100749
100705
100665
100631
100605
100589
100825
100832
100845
100867
100893
100918
100933
100940
100942
100944
100953
100961
100950
100929
100910
100901
100882
100857
100828
100799
100773
100753
100732
100700
100652
100601
100553
100510
100473
100447
100646
100656
100680
100716
100756
100792
100817
100831
100838
100839
100848
100859
100849
100833
100826
100819
100803
100779
100751
100722
100695
100672
100649
100609
100553
100494
100436
100381
100322
100284
100427
100447
100495
100555
100615
100666
100702
100727
100740
100742
100749
100766
100762
100755
100750
100744
100728
100705
100677
100647
100617
100590
100563
100518
100455
100390
100330
100269
100221
100202
100229
100256
100322
100401
100477
100542
100592
100629
100651
100657
100661
100678
100687
100686
100681
100673
100657
100632
100604
100573
100540
100509
100478
100430
100364
100298
100240
100197
100179
100174
100167
100175
100205
100272
100353
100426
100488
100536
100570
100585
100588
100602
100616
100621
100615
100606
100588
100562
100534
100502
100467
100432
100398