/*--------------------------------*- C++ -*----------------------------------*\
| =========                 |                                                 |
| \\      /  F ield         | OpenFOAM: The Open Source CFD Toolbox           |
|  \\    /   O peration     | Version:  2.3.0                                 |
|   \\  /    A nd           | Web:      www.OpenFOAM.org                      |
|    \\/     M anipulation  |                                                 |
\*---------------------------------------------------------------------------*/
FoamFile
{
    version     2.0;
    format      ascii;
    class       volScalarField;
    location    "0.31";
    object      epsilon.air;
}
// * * * * * * * * * * * * * * * * * * * * * * * * * * * * * * * * * * * * * //

dimensions      [0 2 -3 0 0 0 0];

internalField   nonuniform List<scalar> 
6000
(
117.791
18.5731
10.8532
9.67883
9.51938
9.603
9.36405
9.30422
9.45858
9.81814
10.3031
10.58
10.641
10.7024
10.7508
10.7526
10.737
10.701
10.6042
10.2679
9.77762
9.43306
9.28684
9.33902
9.53142
9.4577
9.63845
10.8519
18.7464
117.912
68.8543
23.2774
14.337
11.8758
11.4954
11.6102
11.2771
10.9114
11.0392
11.8323
13.8174
15.0291
15.2404
14.4558
13.947
14.0132
14.7032
15.4973
15.0181
13.5396
11.6945
11.0018
10.8895
11.233
11.4142
11.3112
11.7249
14.2474
22.988
68.7688
40.8091
21.1552
14.3838
12.0723
11.382
11.1556
10.9276
10.8367
11.0359
11.7757
13.0198
13.6693
13.7075
13.3139
13.0334
13.0842
13.4737
13.885
13.7329
12.9565
11.689
11.0178
10.8135
10.8521
10.9985
11.1882
11.884
14.2368
21.0286
40.8912
25.4013
17.1794
13.4227
11.8243
11.2434
10.9807
10.905
10.8069
11.0172
11.8917
12.3027
12.5037
12.4199
12.167
11.9976
12.0392
12.2847
12.5681
12.6285
12.4063
11.7552
10.9503
10.7389
10.739
10.7803
10.9873
11.5933
13.2794
17.1615
25.7107
17.0153
13.6113
11.9826
11.3472
11.1766
11.0821
11.0244
11.031
11.2666
12.1407
11.8858
11.7964
11.606
11.3759
11.2428
11.2796
11.4791
11.7481
11.9363
12.0007
12.1665
11.1865
10.8815
10.7708
10.8005
10.8347
11.0658
11.8619
13.7408
17.4351
15.4723
11.6761
11.0217
11.0324
11.3183
11.4921
11.4712
11.6408
11.807
12.1352
11.7595
11.4804
11.1732
10.9044
10.7645
10.8014
11.0059
11.32
11.6381
11.9096
12.4078
11.7255
11.3772
11.1076
11.0954
10.9248
10.7349
10.8658
11.7629
15.5357
16.4903
10.9763
10.7736
11.1445
11.9078
12.4405
12.4913
12.8926
12.9245
12.3232
11.9413
11.4931
11.0312
10.6734
10.4995
10.5378
10.7829
11.1881
11.6651
12.0993
12.5517
12.7455
12.5099
11.9679
11.8581
11.3815
10.8122
10.5604
10.9614
16.3028
18.932
11.2193
11.2368
11.925
13.2216
14.0963
14.2663
14.9502
14.7302
13.0227
12.3838
11.6255
10.959
10.4895
10.2667
10.3087
10.6086
11.1398
11.8322
12.5686
13.1514
14.6778
14.5869
13.67
13.3546
12.5209
11.5125
10.9824
11.0783
18.5913
20.8167
12.2327
12.4149
13.5395
15.1623
16.4138
16.9122
17.9917
16.1524
13.7832
12.5454
11.5122
10.677
10.0939
9.82534
9.87128
10.2268
10.8816
11.755
12.7905
13.9443
16.3704
17.5954
16.3563
15.6503
14.5233
13.1721
12.2374
12.1784
20.995
22.375
13.6239
14.0625
15.6679
17.6698
19.4958
20.3559
20.9167
16.8687
13.9584
12.3411
11.0585
10.0299
9.36498
9.07015
9.12019
9.51192
10.2653
11.3356
12.5811
14.0858
16.8987
20.4397
19.821
18.7814
17.3154
15.7128
14.2653
13.9065
22.9797
23.4004
14.9778
16.0032
18.2753
20.9548
23.2303
23.0118
21.3233
16.7872
13.8707
11.8875
10.3155
9.23032
8.57714
8.29172
8.33754
8.71309
9.451
10.5898
12.1286
13.944
16.7127
20.9755
22.7143
22.7118
21.0498
18.8809
16.7918
15.8941
24.8942
24.8753
16.5214
18.2144
21.6523
25.4065
27.4116
23.6427
20.2325
16.4259
13.5047
11.2242
9.66195
8.64312
8.03676
7.76904
7.80607
8.1448
8.81306
9.86385
11.3969
13.527
16.2123
19.9354
23.6522
26.9659
26.0515
22.9662
19.7156
18.0486
27.1091
27.5882
18.6547
21.0958
26.1435
31.341
30.8922
23.8723
19.4966
16.1755
13.1464
10.8997
9.38613
8.40137
7.80907
7.54582
7.57131
7.89019
8.51666
9.51676
10.9736
13.0996
15.9313
19.1548
23.8663
30.5654
32.8885
28.5171
23.4559
20.6809
29.6928
30.0653
20.7762
24.6553
32.6196
39.3611
33.5025
25.6394
20.3676
16.5578
13.5288
11.1433
9.56884
8.53699
7.92172
7.63254
7.65814
7.97757
8.62891
9.65071
11.1884
13.4436
16.3282
20.0416
25.5404
33.8106
42.6628
36.4039
27.9809
23.6044
32.2489
31.0282
22.3401
27.5434
38.3766
45.0013
36.1709
28.9794
22.7136
18.1877
15.1405
12.6742
10.9007
9.6758
8.90768
8.54502
8.56277
8.95718
9.7428
10.9559
12.6823
15.042
18.0534
22.5936
29.1013
36.7878
47.9691
43.3383
31.7226
25.8632
34.4514
31.2685
22.2888
27.5761
39.1929
42.7663
35.3068
29.1159
23.7367
19.1602
15.9685
13.8244
12.139
10.8936
10.0399
9.63914
9.64902
10.1035
10.9521
12.2231
13.8321
16.0052
19.2244
23.9159
29.6305
36.317
45.4088
45.4863
32.5374
26.0672
35.1797
33.0897
22.1642
26.7214
36.4479
37.9503
32.0251
27.1058
22.6892
18.718
15.6483
13.428
11.8262
10.6841
9.93903
9.57532
9.59279
9.98566
10.7517
11.8926
13.4876
15.7189
18.8458
22.9552
27.6579
32.9872
39.9424
41.922
29.9129
23.9955
33.5157
32.7657
21.3521
25.3587
34.5676
35.6264
28.9648
24.0908
20.2791
17.1489
14.6165
12.6756
11.2312
10.2057
9.54378
9.22601
9.23908
9.58266
10.2604
11.3012
12.7453
14.719
17.2896
20.5214
24.4229
29.4078
36.2764
38.7719
28.2131
22.3994
33.7115
29.8835
19.9899
23.6496
32.4382
34.1252
26.9162
21.8152
18.1792
15.4142
13.2919
11.664
10.4518
9.58377
9.02824
8.75786
8.77038
9.05665
9.63136
10.5071
11.733
13.3702
15.526
18.3131
21.9664
26.9679
34.2559
36.5234
26.4279
21.4447
32.1753
28.1586
18.7656
22.1116
30.355
33.6644
25.7879
20.2902
16.6017
13.988
12.0718
10.6564
9.6152
8.88309
8.41508
8.19063
8.19892
8.43935
8.919
9.66194
10.7071
12.1316
14.0422
16.6379
20.2431
25.4981
33.0607
34.004
24.5032
20.305
30.8495
27.4663
17.7175
20.7945
28.4265
33.3636
25.3194
19.3693
15.5093
12.8939
11.0708
9.76827
8.84187
8.20107
7.79928
7.60733
7.61412
7.81828
8.23128
8.87749
9.80917
11.1053
12.9144
15.4799
19.2466
25.0046
33.0812
31.5475
22.7166
19.0318
29.1465
26.7469
16.7617
19.5619
26.4086
32.8244
25.0175
18.7758
14.7352
12.0704
10.267
9.02512
8.16399
7.58444
7.22587
7.05683
7.06234
7.24259
7.6099
8.19727
9.06117
10.3057
12.1036
14.7697
18.824
25.1601
33.4753
29.1695
21.0835
17.9498
28.2037
25.7875
15.8869
18.3894
24.3804
31.3914
24.545
18.2447
14.1244
11.4174
9.61981
8.40507
7.58428
7.04145
6.71152
6.5573
6.56252
6.72729
7.06748
7.61991
8.45425
9.68746
11.5291
14.3254
18.6567
25.3989
33.3554
26.7618
19.5402
16.8496
27.1938
25.1211
15.232
17.3448
22.5939
29.6964
23.94
17.7054
13.5814
10.874
9.08238
7.88785
7.09004
6.57123
6.25868
6.1139
6.1193
6.27539
6.60001
7.13611
7.95898
9.20235
11.0846
13.976
18.4274
25.2332
31.7608
24.3521
18.0798
15.7414
25.7637
24.7463
14.7192
16.4228
21.091
28.0129
23.5126
17.2336
13.1103
10.412
8.63328
7.45163
6.6701
6.16526
5.86424
5.72524
5.73157
5.88314
6.2012
6.73017
7.55342
8.80723
10.7189
13.6426
18.0971
24.7883
29.5756
22.2692
16.8271
14.8509
24.5442
24.5099
14.2076
15.5754
19.8381
26.5016
23.0622
16.81
12.7054
10.0254
8.25754
7.08598
6.3131
5.81656
5.52167
5.38668
5.39377
5.54453
5.8608
6.39085
7.21976
8.48917
10.4245
13.3782
17.8712
24.6121
27.607
20.6173
15.7874
14.1465
23.7733
24.0763
13.6479
14.7227
18.6614
24.991
22.6837
16.4609
12.3767
9.7085
7.94909
6.78138
6.01204
5.51824
5.22565
5.09228
5.10025
5.25245
5.5714
6.10757
6.94997
8.24362
10.2197
13.2352
17.8419
24.5925
25.8238
19.2106
14.8489
13.498
23.1703
23.3602
12.9893
13.8123
17.4547
23.4482
22.1498
16.1369
12.1095
9.45824
7.70009
6.53103
5.75936
5.26393
4.97048
4.83695
4.84621
5.00103
5.32544
5.87254
6.73466
8.06425
10.1021
13.2283
17.9835
24.6557
24.0418
17.8069
13.8835
12.8157
22.4832
22.0497
12.1425
12.7822
16.1474
21.7559
21.5847
15.8618
11.9083
9.26759
7.50502
6.32786
5.54826
5.04723
4.75011
4.6154
4.6255
4.78346
5.11498
5.67505
6.56028
7.92933
10.0357
13.27
18.2
24.4571
21.9814
16.2257
12.8106
12.0327
21.6368
19.898
11.0112
11.6247
14.6993
19.9597
20.9097
15.6442
11.7651
9.13035
7.35608
6.16457
5.37255
4.86188
4.55906
4.42153
4.43171
4.59256
4.93118
5.50347
6.40839
7.8069
9.95389
13.2343
18.1551
23.5813
19.6811
14.5895
11.6535
11.136
20.5346
17.3894
9.67634
10.3508
13.0997
17.9
20.0631
15.447
11.6585
9.03496
7.24601
6.0357
5.22646
4.70307
4.39172
4.24988
4.25884
4.42189
4.76587
5.34701
6.26331
7.67239
9.82015
13.0712
17.8635
21.8307
17.3932
12.9711
10.4558
10.1164
18.9119
15.07
8.35809
8.98269
11.3988
15.5525
18.6579
15.1826
11.5638
8.97701
7.17284
5.93678
5.10551
4.5653
4.24307
4.09495
4.10154
4.26502
4.61208
5.19719
6.11625
7.51938
9.63754
12.8001
17.4037
19.8774
15.3143
11.4561
9.27839
8.97865
16.7659
13.1152
7.18955
7.66421
9.68839
13.1141
16.6356
14.8295
11.5322
8.98035
7.1411
5.86692
5.00516
4.44415
4.10772
3.95135
3.95376
4.11612
4.46306
5.04764
5.96125
7.34919
9.43226
12.5237
16.937
17.8946
13.4349
10.0521
8.1444
7.82231
14.5601
11.3699
6.16582
6.5079
8.13087
10.8563
14.2978
14.5088
11.6386
9.04326
7.14672
5.81954
4.92048
4.33367
3.98055
3.81315
3.80992
3.96881
4.31291
4.89066
5.78969
7.14701
9.17314
12.1541
16.1727
15.7846
11.6266
8.71976
7.06276
6.77981
12.656
8.99682
5.38015
5.55771
6.83072
8.94693
11.9055
13.999
11.6916
9.07736
7.13941
5.77138
4.83684
4.22559
3.85411
3.67364
3.6627
3.81724
4.15453
4.71824
5.58671
6.88244
8.78488
11.5283
14.8546
13.4348
9.83907
7.45749
6.08809
5.91537
11.1343
8.56991
4.64351
4.74585
5.74895
7.41741
9.75745
12.3644
11.4493
8.9542
7.05703
5.67953
4.72983
4.10175
3.71658
3.52706
3.50855
3.6544
3.98057
4.52074
5.33918
6.5305
8.21946
10.551
12.8538
11.0216
8.19332
6.33196
5.27003
5.23733
9.99969
8.79988
4.36135
4.22009
4.93537
6.16677
7.92873
10.1691
10.7629
8.58922
6.8148
5.49181
4.56023
3.94111
3.56226
3.37481
3.35014
3.48196
3.78469
4.28897
5.03822
6.09123
7.5002
9.32011
10.5093
8.85473
6.79771
5.4016
4.62007
4.70594
9.16454
8.07103
3.96628
3.74436
4.26024
5.21697
6.58887
8.40458
9.53036
7.9243
6.34648
5.17017
4.32044
3.74824
3.39661
3.22043
3.19272
3.30621
3.57349
4.02054
4.67731
5.56975
6.71384
8.00143
8.32453
7.15734
5.71762
4.68458
4.12441
4.30749
8.30467
6.9617
3.49998
3.31638
3.75334
4.54275
5.67073
7.13225
8.10739
7.18582
5.80585
4.78454
4.04353
3.53916
3.22394
3.06179
3.03239
3.12891
3.35764
3.7371
4.2886
5.0302
5.94253
6.67547
6.65924
5.96262
4.94408
4.16143
3.78919
3.97276
7.4065
6.26807
3.16021
3.00727
3.39258
4.08022
5.05159
6.21685
6.87804
6.40118
5.28766
4.3995
3.75787
3.31894
3.04008
2.89279
2.86283
2.94463
3.13972
3.4586
3.92061
4.5372
5.18274
5.53172
5.49605
5.12407
4.43405
3.7795
3.5217
3.92944
7.41493
5.94704
2.94502
2.7908
3.14019
3.76413
4.63298
5.50273
5.8699
5.565
4.7585
4.01807
3.46902
3.08946
2.8456
2.71468
2.68599
2.75478
2.9208
3.19087
3.57817
4.06345
4.46495
4.66354
4.7086
4.51283
4.09393
3.53048
3.32349
3.74346
7.0395
5.76916
2.80752
2.64143
2.95762
3.53529
4.31133
4.92144
5.06089
4.76356
4.21563
3.6403
3.18466
2.86239
2.65281
2.53908
2.51296
2.5707
2.71174
2.94039
3.25664
3.60692
3.86065
4.05692
4.18212
4.07262
3.78099
3.30751
3.13271
3.35436
6.34706
5.63215
2.71007
2.53248
2.8185
3.33735
4.01036
4.47106
4.43525
4.09387
3.7032
3.28407
2.92191
2.65517
2.4778
2.38053
2.35766
2.40664
2.5266
2.7172
2.96375
3.20339
3.40882
3.64127
3.80341
3.70936
3.44926
3.09238
2.89858
3.04101
5.8643
5.5034
2.63
2.43401
2.67879
3.1267
3.71644
4.09727
3.93619
3.573
3.26357
2.96648
2.69242
2.4799
2.33361
2.25175
2.23172
2.2728
2.37287
2.52531
2.70823
2.88216
3.07912
3.3256
3.48171
3.37244
3.1143
2.87321
2.64794
2.80276
5.52003
5.36554
2.5537
2.3299
2.52069
2.90339
3.42223
3.70568
3.47895
3.14982
2.89968
2.68962
2.49418
2.33487
2.2201
2.15343
2.13593
2.16797
2.24518
2.3578
2.48958
2.62775
2.81147
3.04176
3.17194
3.0433
2.81255
2.62673
2.42521
2.62668
5.29086
5.23669
2.48442
2.22569
2.35983
2.68181
3.10522
3.26916
3.0346
2.77801
2.58751
2.4415
2.31266
2.20332
2.1201
2.06897
2.05461
2.07572
2.12685
2.20187
2.29521
2.40695
2.56328
2.76383
2.86714
2.73145
2.54881
2.41137
2.27103
2.50419
5.12353
5.15471
2.43683
2.13919
2.21661
2.46851
2.7765
2.83465
2.63575
2.45001
2.31309
2.21391
2.13372
2.0645
2.00948
1.97412
1.96326
1.97372
2.00184
2.04813
2.11242
2.20276
2.33063
2.49721
2.56749
2.45136
2.33796
2.25582
2.17831
2.41312
4.94548
5.14352
2.42241
2.0783
2.09701
2.27593
2.4599
2.44513
2.30135
2.17091
2.07209
2.00344
1.95293
1.90941
1.87473
1.85256
1.8448
1.84868
1.86361
1.89261
1.93809
2.01203
2.11888
2.25036
2.28462
2.22042
2.1837
2.15141
2.11887
2.33775
4.7649
5.22612
2.44154
2.03742
1.99723
2.10561
2.17925
2.12579
2.02853
1.93545
1.85984
1.80804
1.77245
1.74275
1.71978
1.7059
1.70064
1.70294
1.71407
1.73566
1.77147
1.83513
1.92617
2.02539
2.04005
2.04769
2.07972
2.0813
2.06298
2.27057
4.61832
5.48497
2.50453
2.00646
1.89985
1.93215
1.93537
1.87749
1.80582
1.73786
1.67487
1.62976
1.5999
1.57748
1.56097
1.55143
1.54789
1.55083
1.56184
1.5812
1.61447
1.67305
1.75461
1.82364
1.85025
1.92106
1.9913
2.02914
2.001
2.20779
4.49529
6.03993
2.62805
1.98017
1.78789
1.755
1.74349
1.69701
1.63239
1.57409
1.51846
1.47529
1.44701
1.42822
1.41537
1.4081
1.40574
1.40921
1.4197
1.43841
1.47251
1.52965
1.60205
1.65341
1.70433
1.81852
1.90428
1.98362
1.93803
2.15321
4.4925
7.21019
2.78101
1.93866
1.69219
1.62888
1.60962
1.5692
1.50315
1.44146
1.38911
1.34773
1.32002
1.30265
1.29156
1.28542
1.28381
1.28735
1.29696
1.3153
1.34932
1.40217
1.46328
1.51177
1.58304
1.72201
1.85412
1.96153
1.89548
2.14801
4.67282
8.1384
2.87309
1.93203
1.65414
1.56058
1.51799
1.47047
1.40039
1.33404
1.28226
1.2425
1.21539
1.1985
1.18809
1.18244
1.18124
1.1847
1.19347
1.21098
1.24269
1.28814
1.34052
1.39343
1.49155
1.64185
1.84759
1.96775
1.87107
2.13888
4.66062
8.24692
3.03894
1.97122
1.65577
1.52491
1.45127
1.38892
1.31383
1.24354
1.19178
1.15331
1.12657
1.10978
1.09951
1.09392
1.09268
1.09573
1.10369
1.11987
1.14802
1.18704
1.23584
1.30057
1.42887
1.5903
1.8441
1.95808
1.81663
2.08723
4.44983
7.62558
3.29686
2.09331
1.68185
1.51315
1.4073
1.32823
1.24476
1.16757
1.11337
1.07517
1.04824
1.03088
1.02013
1.0141
1.01234
1.01484
1.02229
1.03732
1.06228
1.09742
1.14663
1.22495
1.36268
1.54565
1.81236
1.88827
1.7212
1.90699
3.81628
6.3824
3.25883
2.3833
1.76717
1.5333
1.39354
1.2946
1.19935
1.10901
1.04675
1.00628
0.978113
0.959285
0.947209
0.940119
0.937437
0.939375
0.946668
0.961117
0.984121
1.01787
1.06909
1.157
1.2908
1.48975
1.73458
1.76984
1.59531
1.70588
3.2229
5.41435
3.01182
2.58099
1.97736
1.61429
1.41296
1.29162
1.18301
1.07413
0.996546
0.949131
0.917781
0.896442
0.882238
0.873581
0.869841
0.871138
0.878182
0.892297
0.914623
0.94864
1.00259
1.09597
1.22305
1.41622
1.60974
1.62729
1.45708
1.50819
2.73327
4.36303
2.72486
2.46826
2.3547
1.82712
1.48061
1.31463
1.19062
1.06412
0.966467
0.906543
0.869346
0.844378
0.827654
0.81723
0.812334
0.812887
0.819412
0.833066
0.855314
0.890188
0.946745
1.04057
1.15692
1.32311
1.45056
1.46591
1.34266
1.34345
2.34021
3.1055
2.24137
2.16703
2.39952
2.17973
1.605
1.36695
1.21461
1.06826
0.952869
0.878442
0.832676
0.803037
0.78362
0.771498
0.765407
0.765065
0.770895
0.783974
0.806083
0.84173
0.900389
0.98713
1.09187
1.22212
1.29248
1.31094
1.26918
1.24832
2.1018
2.21886
1.75749
1.85161
2.20164
2.34907
1.74421
1.41778
1.23818
1.07419
0.944726
0.860854
0.806858
0.77213
0.749921
0.736359
0.729365
0.728193
0.733081
0.745237
0.767052
0.803703
0.860916
0.933687
1.0282
1.12166
1.16173
1.18703
1.21053
1.18146
2.05036
1.93362
1.47209
1.61688
1.9657
2.23114
1.89606
1.46892
1.25485
1.07584
0.935883
0.845618
0.787292
0.749019
0.724502
0.709769
0.702293
0.700771
0.70522
0.716837
0.738313
0.773913
0.823827
0.884716
0.967547
1.0272
1.06352
1.09895
1.1436
1.18324
2.07976
1.94522
1.33131
1.50724
1.89509
2.00604
2.04338
1.53982
1.27108
1.07793
0.927581
0.830296
0.768491
0.728341
0.702504
0.686892
0.679082
0.677544
0.682108
0.693922
0.714802
0.7463
0.78838
0.841711
0.909554
0.952242
1.00565
1.0602
1.10293
1.22945
2.26313
2.06436
1.2967
1.49389
1.86877
1.89656
2.06166
1.61214
1.28365
1.07942
0.920803
0.817196
0.751243
0.70899
0.68209
0.665783
0.657495
0.655793
0.660282
0.671788
0.69136
0.719409
0.757048
0.805258
0.860173
0.912175
0.990537
1.06119
1.0961
1.26002
2.42987
2.44071
1.32421
1.47366
1.78737
1.87978
1.96676
1.6756
1.29358
1.07915
0.915745
0.80679
0.73715
0.69257
0.66439
0.647372
0.638528
0.636433
0.640562
0.651216
0.669118
0.694932
0.73017
0.776788
0.826592
0.904489
0.995692
1.07889
1.09936
1.28759
2.4412
2.81286
1.40314
1.44408
1.70522
1.90007
1.8355
1.73389
1.31525
1.08051
0.91299
0.798836
0.725758
0.679095
0.649675
0.631918
0.622561
0.619954
0.623448
0.63309
0.649429
0.673412
0.706852
0.752655
0.803915
0.895289
1.00073
1.113
1.12001
1.32183
2.42053
2.81126
1.44532
1.41961
1.64755
1.90921
1.76847
1.74194
1.35117
1.083
0.911678
0.792829
0.716468
0.667903
0.637375
0.618938
0.609121
0.605995
0.608736
0.617278
0.632212
0.654579
0.686366
0.729921
0.785921
0.8763
1.00493
1.18026
1.18006
1.34385
2.39757
2.70945
1.44492
1.39061
1.59148
1.87687
1.73716
1.67135
1.39441
1.0878
0.910366
0.787726
0.708632
0.658419
0.626946
0.60794
0.597698
0.594121
0.596216
0.603821
0.617627
0.638648
0.669006
0.710648
0.773085
0.864519
1.01187
1.24288
1.25322
1.34127
2.37243
2.51885
1.41129
1.34055
1.51558
1.80147
1.71952
1.57358
1.43668
1.10349
0.909714
0.782947
0.701724
0.65024
0.618028
0.598563
0.587949
0.583976
0.585534
0.592461
0.605453
0.625605
0.655248
0.69707
0.767225
0.857584
1.01372
1.25887
1.30523
1.33111
2.32129
2.36856
1.32162
1.26708
1.43396
1.71073
1.70763
1.52416
1.43024
1.13171
0.911573
0.779189
0.695637
0.643131
0.610336
0.590514
0.579604
0.575288
0.576413
0.582826
0.595171
0.614726
0.644
0.687678
0.760675
0.851696
1.01462
1.26366
1.34928
1.34142
2.28184
2.27213
1.22949
1.20077
1.35955
1.61164
1.69467
1.49559
1.37671
1.15739
0.918242
0.777045
0.690595
0.636978
0.603662
0.583566
0.572439
0.567855
0.568653
0.574645
0.586394
0.605271
0.634113
0.679814
0.749485
0.846193
1.02153
1.27676
1.38725
1.37472
2.28469
2.23108
1.17253
1.15138
1.28308
1.49878
1.65379
1.46339
1.31055
1.15619
0.925281
0.775472
0.686161
0.631489
0.597778
0.577512
0.566244
0.561475
0.56203
0.567639
0.578826
0.597124
0.625978
0.673274
0.739389
0.841056
1.0263
1.28568
1.38936
1.38504
2.30088
2.21958
1.14414
1.10746
1.1914
1.3702
1.54912
1.40057
1.24517
1.12587
0.922204
0.771785
0.681175
0.626108
0.592361
0.572107
0.560815
0.555967
0.556355
0.561625
0.572312
0.590378
0.620042
0.669653
0.730506
0.832121
1.01776
1.27654
1.36033
1.37016
2.29865
2.20259
1.11262
1.0477
1.10261
1.24785
1.3979
1.31209
1.17143
1.06665
0.903629
0.762987
0.674403
0.620242
0.587048
0.567097
0.555971
0.551187
0.551491
0.55648
0.566768
0.584728
0.614986
0.663856
0.71946
0.8159
0.99062
1.23675
1.29082
1.32192
2.29129
2.12863
1.05507
0.992886
1.06071
1.17354
1.25801
1.22771
1.10101
1.00489
0.870878
0.747674
0.665264
0.613529
0.581589
0.562315
0.551576
0.546999
0.547342
0.552213
0.562374
0.58028
0.609807
0.652746
0.705109
0.792272
0.940173
1.1546
1.20614
1.26356
2.29633
1.90488
1.01978
0.988637
1.07401
1.15124
1.14962
1.14912
1.03849
0.946607
0.834559
0.728483
0.654079
0.605982
0.575909
0.557683
0.547535
0.543302
0.543852
0.548888
0.559342
0.577715
0.606857
0.642317
0.690171
0.765809
0.88288
1.05635
1.12118
1.22082
2.3544
1.74108
1.03399
1.02146
1.14179
1.13954
1.06377
1.0535
0.981193
0.892409
0.797645
0.707131
0.641217
0.597648
0.569988
0.553123
0.543744
0.539992
0.540894
0.546252
0.55703
0.57549
0.602751
0.633779
0.676626
0.739623
0.828761
0.962432
1.04708
1.22084
2.56981
1.74831
1.06878
1.10056
1.23013
1.11045
0.990992
0.950611
0.914691
0.840017
0.759905
0.683989
0.626896
0.588458
0.563761
0.548552
0.540124
0.53695
0.538223
0.543779
0.554492
0.572148
0.596655
0.626376
0.664473
0.715562
0.786648
0.903373
1.01039
1.27717
3.19383
1.83252
1.08092
1.13347
1.22853
1.06799
0.93176
0.866772
0.83975
0.788207
0.721574
0.659177
0.611261
0.578408
0.55713
0.543912
0.536592
0.533989
0.535467
0.540906
0.551294
0.568336
0.591684
0.619893
0.65325
0.695461
0.769103
0.89785
1.02015
1.40281
4.06922
1.99654
1.08953
1.10948
1.14832
1.00809
0.892827
0.812379
0.775034
0.738031
0.683668
0.63377
0.595105
0.568038
0.55029
0.539256
0.533114
0.530917
0.532254
0.537214
0.547121
0.563734
0.586999
0.613935
0.643284
0.685626
0.776038
0.927939
1.06258
1.57918
4.45037
2.30506
1.14489
1.07247
1.04277
0.938815
0.851236
0.776093
0.724107
0.691147
0.648429
0.609956
0.57996
0.558414
0.543974
0.53494
0.529848
0.527876
0.528845
0.533202
0.542467
0.558476
0.581991
0.608096
0.636087
0.68971
0.804176
0.975494
1.11897
1.86289
4.16073
2.69387
1.29403
1.08798
0.977946
0.905165
0.811933
0.742542
0.687497
0.652904
0.619946
0.590424
0.567342
0.550456
0.538907
0.531562
0.527326
0.525575
0.526296
0.530213
0.53878
0.553891
0.576858
0.602896
0.636882
0.707007
0.84149
0.998308
1.24718
1.9084
3.68864
2.81139
1.58111
1.19363
0.960318
0.900414
0.79872
0.720648
0.668454
0.629916
0.601266
0.577167
0.558455
0.544709
0.535304
0.529401
0.525968
0.524549
0.525394
0.529376
0.537768
0.552311
0.574039
0.601448
0.646203
0.735152
0.891303
1.06061
1.6379
1.83065
3.07704
2.55684
1.69123
1.2997
0.9651
0.886372
0.795336
0.711731
0.65641
0.618037
0.590768
0.569396
0.552999
0.540947
0.532812
0.527961
0.525335
0.52447
0.525821
0.530399
0.539311
0.554057
0.575301
0.606112
0.663661
0.769709
0.932817
1.17185
2.01666
1.71728
2.3502
2.21308
1.64886
1.27348
0.978922
0.859162
0.792389
0.709096
0.64915
0.610723
0.584287
0.564346
0.549228
0.538118
0.530659
0.526375
0.524529
0.524663
0.527286
0.533354
0.543655
0.559435
0.581929
0.617665
0.681238
0.796529
0.942285
1.26085
1.95031
1.61759
1.97418
2.28211
1.5008
1.19735
0.998869
0.845041
0.79186
0.710571
0.64815
0.607585
0.580565
0.560912
0.546286
0.535666
0.52862
0.524678
0.523509
0.524886
0.52905
0.536762
0.548701
0.565872
0.590398
0.628503
0.697228
0.810175
0.942651
1.31972
1.71461
1.47162
2.01793
2.72105
1.34057
1.13429
0.994487
0.841709
0.787194
0.715708
0.651895
0.608988
0.580494
0.559806
0.544703
0.534107
0.527385
0.52392
0.523303
0.525492
0.530917
0.540194
0.553862
0.572681
0.599454
0.641252
0.710682
0.809983
0.937639
1.30359
1.49718
1.40266
2.43541
3.44174
1.31267
1.08653
0.97232
0.838659
0.784288
0.728205
0.66365
0.616001
0.583954
0.56123
0.545097
0.534159
0.527512
0.524368
0.524172
0.52712
0.533764
0.544789
0.560832
0.582701
0.614118
0.660843
0.727844
0.807079
0.918975
1.2233
1.33215
1.39261
3.0922
3.4974
1.32708
1.05449
0.946565
0.837784
0.787947
0.746996
0.687395
0.63254
0.593953
0.5668
0.548144
0.536041
0.529063
0.526119
0.526582
0.530502
0.538604
0.552014
0.571684
0.59858
0.63706
0.689213
0.748035
0.80804
0.906868
1.13743
1.21311
1.36726
3.1346
3.35739
1.35903
1.05877
0.948248
0.851754
0.802883
0.768553
0.715817
0.656604
0.611219
0.578101
0.55535
0.54105
0.532956
0.529744
0.53064
0.535664
0.545746
0.562288
0.586852
0.620063
0.664815
0.719024
0.770716
0.819787
0.913051
1.0745
1.15199
1.3335
3.04108
3.15482
1.37349
1.0867
0.968824
0.884756
0.83482
0.790392
0.737294
0.678474
0.630101
0.591507
0.564676
0.547937
0.538627
0.534896
0.536019
0.542082
0.553965
0.573633
0.60283
0.640413
0.685089
0.737702
0.791176
0.839899
0.916688
1.04081
1.13774
1.32187
2.95456
3.07206
1.39862
1.1324
0.999296
0.911007
0.858118
0.806404
0.748428
0.691168
0.643729
0.603577
0.574001
0.554927
0.54442
0.540394
0.541677
0.548301
0.561572
0.583482
0.614589
0.651878
0.693643
0.744463
0.79929
0.845031
0.912267
1.03275
1.14549
1.33137
2.9461
3.03992
1.41011
1.15282
1.00689
0.913156
0.86272
0.812731
0.755331
0.697835
0.649659
0.611682
0.581939
0.561301
0.549396
0.544817
0.54615
0.553277
0.567705
0.590368
0.619908
0.654475
0.696283
0.746498
0.797764
0.839429
0.89952
1.02032
1.15368
1.35654
2.94589
2.95478
1.40021
1.13827
0.988288
0.905238
0.862738
0.816005
0.760935
0.701539
0.650261
0.614711
0.586466
0.565194
0.552379
0.547212
0.548404
0.555896
0.570805
0.593
0.619693
0.653234
0.696596
0.747669
0.794675
0.831715
0.876282
0.977625
1.12937
1.35593
2.88823
2.67581
1.34237
1.06284
0.943905
0.895592
0.863441
0.820475
0.767604
0.705322
0.649795
0.613973
0.586927
0.565573
0.552189
0.546614
0.547717
0.555435
0.570561
0.59213
0.616889
0.651396
0.697808
0.749198
0.793264
0.826886
0.857738
0.914308
1.03781
1.31982
2.64296
2.11357
1.20517
0.976375
0.914935
0.889459
0.863572
0.824118
0.774581
0.712522
0.652226
0.614392
0.587682
0.565973
0.551264
0.544584
0.545604
0.554261
0.57044
0.59186
0.615964
0.653227
0.702842
0.750748
0.791781
0.822993
0.846204
0.875684
0.943282
1.19128
2.0798
1.7648
1.1165
0.948739
0.90788
0.887303
0.862117
0.825166
0.781515
0.71906
0.658537
0.619595
0.591327
0.56828
0.552353
0.545297
0.546201
0.555032
0.572004
0.594505
0.619971
0.658133
0.710164
0.753953
0.790273
0.819874
0.842601
0.865223
0.910125
1.08299
1.70793
1.70947
1.10589
0.955661
0.914687
0.889787
0.861075
0.827231
0.789269
0.728392
0.669691
0.631983
0.601095
0.576746
0.559994
0.551916
0.552618
0.561981
0.579304
0.602957
0.630924
0.666378
0.717838
0.762142
0.791485
0.820374
0.846398
0.872193
0.915628
1.06489
1.64451
1.83638
1.14466
0.994789
0.942968
0.903873
0.865431
0.832464
0.803371
0.741095
0.687965
0.650729
0.618057
0.592384
0.57492
0.56611
0.566614
0.576304
0.594051
0.619063
0.648927
0.681844
0.731092
0.774378
0.797682
0.828311
0.864679
0.902756
0.954047
1.10064
1.76611
2.30509
1.27301
1.09177
1.01074
0.942269
0.879773
0.835642
0.81178
0.755677
0.712692
0.673951
0.638741
0.610192
0.589774
0.579459
0.579903
0.590879
0.611303
0.638814
0.671271
0.704922
0.743591
0.787294
0.805069
0.850452
0.910971
0.975854
1.05186
1.22459
2.22668
2.95044
1.51176
1.26727
1.13217
1.0133
0.905922
0.843535
0.823239
0.788836
0.74413
0.699992
0.660089
0.627736
0.604523
0.592433
0.592824
0.605454
0.628453
0.65954
0.696564
0.735487
0.773309
0.801504
0.817948
0.884925
0.989596
1.10282
1.23077
1.46602
2.86926
3.75655
1.93532
1.54322
1.29517
1.09423
0.940836
0.871229
0.867024
0.834005
0.773458
0.719134
0.673922
0.638433
0.613699
0.601124
0.601419
0.614484
0.639053
0.673476
0.716025
0.765369
0.818738
0.843905
0.849187
0.92436
1.07608
1.26746
1.50827
1.89783
3.69012
5.13973
2.65583
1.87765
1.41559
1.13864
0.978566
0.926455
0.925508
0.864952
0.786299
0.722268
0.673643
0.637346
0.612799
0.600569
0.600855
0.613549
0.638108
0.673704
0.720672
0.780729
0.853378
0.904618
0.902377
0.962574
1.12234
1.38347
1.82866
2.60819
5.1445
7.13007
3.14053
2.04591
1.45936
1.16773
1.02704
0.983435
0.95576
0.874445
0.787809
0.718432
0.66628
0.629257
0.60562
0.594361
0.594629
0.606394
0.630334
0.66723
0.718414
0.785067
0.86738
0.940685
0.958561
1.00885
1.15144
1.42842
1.98494
3.05552
7.1198
8.37111
3.42632
2.21589
1.56681
1.24451
1.09357
1.03231
0.973529
0.884331
0.794382
0.720227
0.664473
0.626134
0.602877
0.592285
0.592525
0.603626
0.627361
0.665946
0.721353
0.794453
0.880599
0.963491
1.01193
1.07556
1.22679
1.53746
2.14787
3.33404
8.31432
8.29158
3.45424
2.56359
1.90892
1.43872
1.20023
1.08238
0.996674
0.904764
0.812374
0.730564
0.670589
0.63072
0.607208
0.596752
0.596945
0.607864
0.631947
0.672369
0.732904
0.814987
0.904249
0.989907
1.06739
1.18418
1.41835
1.87458
2.53347
3.3919
8.16733
7.23535
3.30203
2.58188
2.19248
1.81929
1.37839
1.15541
1.03181
0.936163
0.840375
0.751471
0.686244
0.643091
0.617774
0.606446
0.606535
0.618184
0.644084
0.688011
0.753969
0.843229
0.937915
1.02615
1.14298
1.35832
1.80354
2.19895
2.57195
3.26306
6.99674
5.79666
2.90929
2.43084
2.13258
1.92617
1.62044
1.24807
1.0734
0.972736
0.869047
0.772841
0.701011
0.652829
0.623744
0.61024
0.610223
0.623836
0.653317
0.702149
0.77472
0.871522
0.975191
1.07021
1.23157
1.58863
1.94169
2.14954
2.42922
2.90623
5.64091
4.96018
2.55365
2.17697
1.96247
1.82388
1.66385
1.33614
1.11762
1.0073
0.894363
0.787779
0.708191
0.654837
0.622708
0.607783
0.607724
0.62267
0.65503
0.708843
0.78901
0.896168
1.0092
1.11391
1.31201
1.63919
1.83642
1.97253
2.17247
2.53898
4.86703
4.40945
2.26362
2.00637
1.84073
1.6914
1.5836
1.34121
1.14682
1.03536
0.914138
0.797887
0.71173
0.654708
0.620262
0.604222
0.604215
0.620324
0.655032
0.712504
0.799313
0.916398
1.0378
1.14319
1.32158
1.5676
1.69202
1.84036
1.99821
2.25262
4.37842
4.09987
2.08398
1.92137
1.78853
1.60417
1.48185
1.30958
1.1508
1.05258
0.927457
0.80593
0.7163
0.657064
0.621932
0.60567
0.605745
0.622216
0.6578
0.71777
0.808533
0.931694
1.05774
1.15173
1.29845
1.47283
1.60319
1.78939
1.90707
2.07239
4.09429
3.95278
1.98226
1.86095
1.76521
1.55366
1.41017
1.26734
1.14417
1.05391
0.927843
0.807879
0.719714
0.66148
0.626737
0.610645
0.610773
0.627229
0.66261
0.721981
0.811868
0.93452
1.06344
1.15178
1.26797
1.40957
1.57205
1.78028
1.8433
1.9742
3.98322
3.69937
1.86615
1.74296
1.70666
1.50963
1.35338
1.23144
1.13517
1.03767
0.91249
0.799652
0.716093
0.660253
0.626732
0.611251
0.611359
0.627255
0.661561
0.718973
0.805053
0.92226
1.05238
1.15124
1.2424
1.36104
1.5497
1.74389
1.74029
1.87474
3.81884
3.14525
1.70331
1.55668
1.55772
1.42097
1.28139
1.18607
1.11083
0.999532
0.879364
0.778823
0.704536
0.654192
0.623653
0.609338
0.60953
0.624419
0.656121
0.708698
0.786783
0.893274
1.02108
1.13447
1.19993
1.29195
1.47063
1.6073
1.56717
1.73817
3.438
2.33905
1.41251
1.34612
1.34433
1.26581
1.1772
1.10942
1.04916
0.9439
0.837237
0.750648
0.687069
0.643809
0.617363
0.605038
0.605375
0.618576
0.646512
0.692394
0.760222
0.853113
0.967745
1.07552
1.1188
1.17731
1.28558
1.36051
1.33235
1.50263
2.67478
1.6885
1.10212
1.15364
1.14527
1.09978
1.05018
1.00876
0.958336
0.87476
0.788367
0.717922
0.665993
0.630374
0.608444
0.598185
0.598669
0.610029
0.633699
0.672038
0.728299
0.804677
0.897549
0.980615
1.01537
1.04248
1.09204
1.13734
1.0955
1.18301
1.94473
1.37047
0.90211
0.979825
0.981807
0.959342
0.934799
0.910647
0.869495
0.807438
0.741837
0.687295
0.646365
0.617934
0.600269
0.592015
0.592603
0.602135
0.62165
0.65285
0.697966
0.758047
0.828751
0.889657
0.918434
0.926497
0.939645
0.957537
0.919566
0.941111
1.48231
1.33348
0.818784
0.850266
0.871864
0.865602
0.851029
0.830805
0.79789
0.751767
0.70276
0.661011
0.629016
0.606541
0.592453
0.585913
0.586478
0.594313
0.610103
0.635088
0.670712
0.717346
0.770791
0.816344
0.840047
0.8468
0.844132
0.833234
0.804583
0.816597
1.33617
1.42372
0.812701
0.780302
0.804561
0.801686
0.785619
0.765892
0.737808
0.701119
0.663657
0.631565
0.606869
0.589488
0.578623
0.573576
0.573992
0.579993
0.592203
0.611376
0.638592
0.674131
0.715184
0.752275
0.774314
0.783671
0.784156
0.763249
0.744456
0.789448
1.37379
1.73024
0.83554