/*--------------------------------*- C++ -*----------------------------------*\
| =========                 |                                                 |
| \\      /  F ield         | OpenFOAM: The Open Source CFD Toolbox           |
|  \\    /   O peration     | Version:  2.3.0                                 |
|   \\  /    A nd           | Web:      www.OpenFOAM.org                      |
|    \\/     M anipulation  |                                                 |
\*---------------------------------------------------------------------------*/
FoamFile
{
    version     2.0;
    format      ascii;
    class       surfaceScalarField;
    location    "0.31";
    object      phi.air;
}
// * * * * * * * * * * * * * * * * * * * * * * * * * * * * * * * * * * * * * //

dimensions      [0 3 -1 0 0 0 0];

internalField   nonuniform List<scalar> 
11770
(
1.09479e-05
8.38886e-05
4.58804e-06
9.42079e-05
2.11995e-06
9.0391e-05
7.03303e-06
8.61296e-05
9.06274e-06
9.01194e-05
1.40013e-06
9.93518e-05
5.32066e-06
9.14036e-05
1.22075e-05
8.83356e-05
2.01913e-05
8.70221e-05
3.0404e-05
8.67165e-05
3.51538e-05
9.57202e-05
2.90768e-05
0.000105843
2.52019e-05
0.0001037
1.40292e-05
0.000106315
-1.80561e-06
0.000107728
-1.6852e-05
0.000107331
-2.70335e-05
0.000106349
-3.12364e-05
0.000104186
-3.67289e-05
0.000105624
-2.97627e-05
9.33888e-05
-1.93046e-05
8.63808e-05
-1.21281e-05
8.81014e-05
-5.88763e-06
8.95495e-05
-1.4009e-06
9.16689e-05
-8.66421e-06
9.92273e-05
-6.38587e-06
8.97258e-05
-1.02849e-06
8.5273e-05
-2.81425e-06
8.93234e-05
-1.20441e-05
9.59804e-05
8.24729e-05
3.41497e-06
6.82116e-05
9.4702e-06
8.00479e-05
1.38011e-05
7.79908e-05
1.60859e-05
7.46425e-05
1.7303e-05
7.84305e-05
1.42172e-05
8.91718e-05
1.27609e-05
7.84266e-05
1.88467e-05
6.94176e-05
2.64824e-05
6.82728e-05
3.43218e-05
6.81521e-05
2.37207e-05
8.88961e-05
1.49134e-05
9.60342e-05
4.12438e-06
9.6224e-05
5.85018e-07
9.67981e-05
-3.41254e-07
9.85218e-05
-1.53144e-06
9.8146e-05
-5.85494e-06
9.67958e-05
-1.79573e-05
9.73104e-05
-2.71521e-05
9.61462e-05
-3.42757e-05
8.46263e-05
-2.57848e-05
6.73323e-05
-1.82243e-05
6.88537e-05
-1.20921e-05
7.02891e-05
-1.52195e-05
7.99031e-05
-1.74811e-05
8.82435e-05
-1.59711e-05
7.78533e-05
-1.31846e-05
7.37721e-05
-9.9714e-06
7.83635e-05
-2.22076e-06
8.15703e-05
6.83422e-05
6.13396e-06
6.18594e-05
1.27572e-05
7.27695e-05
1.84505e-05
7.25887e-05
1.91487e-05
7.37176e-05
1.93116e-05
7.90706e-05
2.07676e-05
8.9825e-05
1.5198e-05
8.52838e-05
2.11901e-05
6.89001e-05
2.87815e-05
6.82694e-05
3.22793e-05
6.97866e-05
1.40909e-05
0.000103041
6.98839e-06
0.00010221
3.13616e-06
0.000100304
5.20076e-07
9.94344e-05
-1.45147e-07
9.95479e-05
-1.27141e-06
9.95092e-05
-4.2894e-06
9.97194e-05
-7.70939e-06
0.000101229
-1.6354e-05
0.000103165
-3.49292e-05
9.96133e-05
-2.75996e-05
6.63408e-05
-1.951e-05
6.82643e-05
-1.37912e-05
6.93213e-05
-2.22673e-05
8.81149e-05
-1.90512e-05
8.7388e-05
-1.82493e-05
7.77382e-05
-1.7744e-05
7.3088e-05
-1.20079e-05
7.30312e-05
-5.95972e-06
7.43743e-05
6.242e-05
1.32871e-05
4.92248e-05
1.62837e-05
6.68585e-05
2.08163e-05
6.65156e-05
2.3358e-05
6.89554e-05
2.49059e-05
7.51413e-05
2.70363e-05
8.62445e-05
1.79042e-05
9.0805e-05
2.13428e-05
6.6638e-05
2.77192e-05
6.62061e-05
1.39224e-05
8.23613e-05
7.51794e-06
0.000108509
4.25622e-06
0.000105184
1.89656e-06
0.000102206
5.24771e-07
0.000100384
-1.3319e-07
9.97698e-05
-8.51224e-07
9.98139e-05
-2.47465e-06
0.000100883
-4.67355e-06
0.000103039
-7.94058e-06
0.000106251
-2.01936e-05
0.000109204
-2.59751e-05
7.3486e-05
-1.97387e-05
6.62434e-05
-1.83699e-05
6.78739e-05
-2.55828e-05
9.20975e-05
-2.35051e-05
8.36873e-05
-2.17035e-05
7.37931e-05
-1.91886e-05
6.86455e-05
-1.46313e-05
6.70086e-05
-1.23949e-05
6.90189e-05
5.05953e-05
1.6382e-05
3.47516e-05
1.83156e-05
6.08669e-05
2.22848e-05
5.99344e-05
2.58158e-05
6.27332e-05
2.76287e-05
7.00648e-05
2.66561e-05
8.36713e-05
1.98264e-05
9.50723e-05
2.08194e-05
6.75521e-05
2.50175e-05
6.58682e-05
3.20671e-06
9.95297e-05
1.94644e-06
0.000109188
5.36114e-07
0.000105494
-1.88704e-07
0.000101741
-3.53275e-07
9.92822e-05
8.90326e-08
9.81051e-05
3.17708e-07
9.83115e-05
2.07534e-07
9.97954e-05
-6.74688e-07
0.000102722
-2.20382e-06
0.000106784
-4.31765e-06
0.000110936
-2.49177e-05
9.09624e-05
-2.06782e-05
6.62579e-05
-2.02723e-05
6.85552e-05
-2.37192e-05
9.33684e-05
-2.48611e-05
8.09896e-05
-2.36507e-05
6.97475e-05
-2.07491e-05
6.35137e-05
-1.71583e-05
6.08127e-05
-1.54546e-05
6.29156e-05
3.67911e-05
1.12255e-05
2.43096e-05
2.07509e-05
4.91467e-05
2.26915e-05
5.45807e-05
2.84111e-05
5.49298e-05
2.96352e-05
6.60288e-05
2.49952e-05
8.43784e-05
1.96045e-05
9.86398e-05
1.74368e-05
7.27709e-05
1.57774e-05
7.23244e-05
-1.34648e-06
0.000114172
-3.91288e-06
0.000110451
-4.35721e-06
0.0001043
-3.62441e-06
9.91597e-05
-1.81855e-06
9.56289e-05
2.54462e-07
9.41105e-05
2.4628e-06
9.42544e-05
4.03199e-06
9.63414e-05
4.90352e-06
0.000100105
4.49446e-06
0.000105596
2.96445e-06
0.000111372
-1.92183e-05
0.000109438
-1.84695e-05
7.03034e-05
-1.89929e-05
7.14733e-05
-2.25706e-05
9.43558e-05
-2.60439e-05
8.01053e-05
-2.50893e-05
6.52893e-05
-2.30024e-05
5.80497e-05
-2.16677e-05
5.59987e-05
-1.18935e-05
5.08587e-05
2.52594e-05
1.91174e-06
2.26341e-05
1.73047e-05
3.4382e-05
2.11511e-05
4.93249e-05
2.7608e-05
4.81878e-05
3.30482e-05
5.96476e-05
2.47655e-05
8.86237e-05
1.79789e-05
0.000104422
1.21574e-05
8.40021e-05
-1.16012e-06
8.9504e-05
-1.02031e-05
0.000122303
-1.24534e-05
0.000110814
-1.145e-05
0.000101059
-8.14295e-06
9.35473e-05
-4.04511e-06
8.91212e-05
6.68265e-07
8.70569e-05
5.09823e-06
8.74112e-05
9.32452e-06
8.97902e-05
1.21664e-05
9.49295e-05
1.32545e-05
0.000102387
1.06607e-05
0.000112101
-3.88073e-06
0.000122423
-1.22014e-05
8.43018e-05
-1.83144e-05
8.21781e-05
-2.30545e-05
9.75365e-05
-2.84728e-05
8.17199e-05
-2.63833e-05
6.01043e-05
-2.28657e-05
5.21322e-05
-1.97972e-05
5.08717e-05
-2.60228e-06
3.47018e-05
2.29872e-05
-1.96454e-06
2.43366e-05
8.5833e-06
2.50633e-05
1.79537e-05
3.98368e-05
2.1722e-05
4.4403e-05
3.16942e-05
4.95892e-05
2.53211e-05
9.11797e-05
1.52837e-05
0.000116523
5.4726e-06
9.92383e-05
-2.33453e-05
0.000113718
-2.52984e-05
0.000122747
-2.44733e-05
0.000107383
-2.0246e-05
9.40946e-05
-1.38119e-05
8.45095e-05
-6.35385e-06
7.91819e-05
9.05136e-07
7.72502e-05
8.33596e-06
7.74857e-05
1.5411e-05
8.01452e-05
2.15532e-05
8.6145e-05
2.49834e-05
9.61956e-05
2.48648e-05
0.000109774
2.06997e-05
0.000125494
-6.68906e-06
0.000109176
-1.68469e-05
9.83988e-05
-2.47942e-05
0.000107438
-2.98863e-05
8.41269e-05
-2.29609e-05
5.2477e-05
-1.80075e-05
4.71391e-05
-9.00668e-06
4.19661e-05
2.43491e-06
2.52809e-05
2.52402e-05
-8.33591e-07
2.5217e-05
3.45258e-06
2.02849e-05
1.45768e-05
2.88543e-05
1.51884e-05
4.08172e-05
2.13582e-05
4.44611e-05
2.78214e-05
8.78265e-05
1.30802e-05
0.00013329
-1.4092e-05
0.00012403
-4.02557e-05
0.000133262
-4.17713e-05
0.000120919
-3.7664e-05
0.000101108
-2.88183e-05
8.41986e-05
-1.82577e-05
7.34984e-05
-8.26707e-06
6.89065e-05
1.15002e-06
6.75685e-05
1.05385e-05
6.77881e-05
2.05812e-05
6.97384e-05
3.07577e-05
7.53634e-05
3.90669e-05
8.66705e-05
4.18383e-05
0.000104479
4.10608e-05
0.000123301
1.07762e-05
0.000131855
-1.4013e-05
0.000122196
-2.75215e-05
0.000124231
-2.40066e-05
8.24889e-05
-1.65725e-05
4.57053e-05
-1.31206e-05
4.28259e-05
-1.87621e-06
3.18484e-05
1.81761e-06
2.15273e-05
2.698e-05
1.22177e-06
2.41551e-05
4.07398e-06
1.64144e-05
1.09239e-05
2.11898e-05
1.30344e-05
3.48716e-05
1.36017e-05
4.52766e-05
2.92583e-05
8.52094e-05
4.42037e-06
0.000156178
-3.50167e-05
0.000155245
-4.9566e-05
0.000143545
-5.0338e-05
0.000119227
-3.95756e-05
9.07786e-05
-2.60462e-05
7.27395e-05
-1.52456e-05
6.54265e-05
-6.74455e-06
6.33773e-05
7.42986e-07
6.31028e-05
8.33806e-06
6.31906e-05
1.72005e-05
6.37839e-05
2.87102e-05
6.6492e-05
4.21705e-05
7.49459e-05
5.21835e-05
9.45646e-05
5.07145e-05
0.000121889
3.41372e-05
0.000143844
-4.45614e-06
0.00015275
-2.66389e-05
0.000144902
-1.61007e-05
8.25934e-05
-1.36226e-05
4.51936e-05
-1.04269e-05
3.58793e-05
-2.46635e-06
2.3719e-05
-9.34917e-08
1.85629e-05
2.70014e-05
3.07774e-06
2.24846e-05
7.18851e-06
1.2904e-05
1.00196e-05
1.61055e-05
1.35028e-05
2.96662e-05
1.12562e-05
4.80982e-05
1.72979e-05
9.28954e-05
-1.15722e-05
0.000182675
-4.418e-05
0.000181157
-5.14007e-05
0.000146824
-3.8126e-05
0.000106787
-2.29491e-05
7.85455e-05
-1.3209e-05
6.72053e-05
-7.53849e-06
6.4302e-05
-3.47424e-06
6.40173e-05
1.51388e-07
6.42745e-05
3.86022e-06
6.42946e-05
8.24129e-06
6.41243e-05
1.46734e-05
6.46418e-05
2.54584e-05
6.82352e-05
4.13391e-05
8.14078e-05
5.3349e-05
0.000110322
4.4661e-05
0.000148298
1.05644e-05
0.000179569
-1.74357e-05
0.000171257
-1.26416e-05
9.21106e-05
-1.34685e-05
4.65505e-05
-9.73743e-06
2.94734e-05
-5.64423e-06
1.76237e-05
-2.04608e-06
1.47722e-05
2.5827e-05
3.43146e-06
2.23937e-05
8.46578e-06
1.25396e-05
1.09837e-05
1.44799e-05
1.28591e-05
2.68269e-05
8.85674e-06
5.10555e-05
-8.74491e-06
0.000116197
-2.36764e-05
0.000200384
-4.0661e-05
0.000195874
-3.08608e-05
0.000140009
-1.245e-05
9.46495e-05
-5.6327e-06
7.58421e-05
-3.73194e-06
6.84476e-05
-2.56699e-06
6.63578e-05
-1.4592e-06
6.61703e-05
-1.45482e-07
6.62957e-05
1.12423e-06
6.63132e-05
2.39043e-06
6.61673e-05
3.70696e-06
6.65195e-05
6.26303e-06
6.90145e-05
1.4762e-05
7.73533e-05
3.37447e-05
9.74636e-05
4.11834e-05
0.000142978
2.25442e-05
0.00019579
4.71952e-06
0.000191743
-9.58457e-06
0.000114086
-1.29013e-05
4.87398e-05
-1.05614e-05
2.56267e-05
-7.0569e-06
1.4257e-05
-1.65467e-06
1.2129e-05
2.52785e-05
5.45303e-07
2.43414e-05
5.58189e-06
1.15159e-05
1.06531e-05
1.53901e-05
1.28855e-05
3.15681e-05
-1.53765e-06
6.63666e-05
-3.07242e-05
0.000143125
-2.43077e-05
0.000201603
-1.7444e-05
0.000195629
-3.85969e-06
0.000136514
2.08801e-06
9.68931e-05
1.13064e-06
8.29046e-05
1.34563e-07
7.5187e-05
-4.58984e-07
7.21277e-05
-4.10136e-07
7.13475e-05
-3.80722e-07
7.10928e-05
-1.05979e-07
7.11275e-05
-2.62392e-07
7.12706e-05
-5.51343e-07
7.22881e-05
-1.7665e-06
7.55651e-05
-1.71347e-06
8.37925e-05
5.4165e-06
9.86531e-05
1.86947e-05
0.000139633
2.40682e-05
0.00019669
2.55897e-05
0.000197231
8.83399e-07
0.000138435
-1.39718e-05
6.62048e-05
-1.09771e-05
2.95682e-05
-5.92306e-06
1.40122e-05
6.88896e-08
9.49106e-06
2.64644e-05
-1.47309e-07
2.47285e-05
6.41414e-06
1.04187e-05
1.60506e-05
1.59407e-05
1.76139e-05
4.02923e-05
-1.96235e-05
0.000103568
-2.95602e-05
0.000151436
-8.5954e-06
0.000189294
1.055e-05
0.000186023
9.52184e-06
0.000146267
1.1349e-06
0.000112261
1.29645e-06
9.53353e-05
1.04775e-06
8.85619e-05
9.55357e-07
8.60869e-05
2.2327e-08
8.54873e-05
-2.77663e-07
8.51619e-05
-1.19618e-06
8.52528e-05
-1.40795e-06
8.53369e-05
-1.98525e-06
8.61547e-05
-1.54471e-06
8.88247e-05
-2.2201e-06
9.63294e-05
-9.39905e-06
0.000113396
-8.77185e-06
0.00014815
9.89514e-06
0.000187527
2.6344e-05
0.000188824
2.01031e-05
0.000145761
-2.32663e-05
0.000108967
-1.80839e-05
3.50568e-05
-7.83943e-06
1.3406e-05
-1.47816e-06
7.24423e-06
2.59509e-05
2.98248e-06
1.9482e-05
1.29153e-05
6.1192e-06
2.80778e-05
9.25978e-06
2.72798e-05
3.91783e-05
-7.86006e-06
0.000116539
-7.82242e-06
0.000145643
1.4422e-05
0.000162107
3.26004e-05
0.000158435
2.9442e-05
0.00013608
1.65009e-05
0.000114633
1.0619e-05
9.54158e-05
6.72223e-06
8.87279e-05
4.13069e-06
8.58374e-05
1.61582e-06
8.54702e-05
-4.25888e-07
8.48028e-05
-2.64895e-06
8.51072e-05
-4.80097e-06
8.503e-05
-7.6661e-06
8.62454e-05
-1.10008e-05
8.86018e-05
-1.74243e-05
9.66558e-05
-2.90365e-05
0.000114859
-3.2208e-05
0.000137691
-1.24251e-05
0.000159081
6.94889e-06
0.000163297
7.5879e-06
0.00014029
-2.91759e-05
0.00012315
-3.26337e-05
3.67373e-05
-1.39338e-05
3.32691e-06
-3.37059e-06
1.21054e-06
2.17192e-05
1.05674e-05
8.87143e-06
1.39206e-05
7.76888e-06
3.10408e-05
-1.26265e-06
2.71368e-05
3.11509e-05
1.46331e-05
0.000117137
1.88832e-05
0.000132665
3.5179e-05
0.000136511
5.22789e-05
0.000131026
5.60642e-05
0.000120175
5.03535e-05
0.000107502
3.66815e-05
9.4049e-05
2.56167e-05
8.39832e-05
1.51456e-05
7.93419e-05
7.30016e-06
7.62996e-05
-9.89796e-07
7.55038e-05
-8.23196e-06
7.51268e-05
-1.72118e-05
7.6645e-05
-2.641e-05
7.88908e-05
-3.88108e-05
8.48216e-05
-5.04314e-05
9.37971e-05
-5.74399e-05
0.000108515
-5.12626e-05
0.000119728
-3.48789e-05
0.000131929
-1.57211e-05
0.000135194
-1.47113e-05
0.000129295
-1.99341e-05
0.000118375
-3.95996e-05
4.30028e-05
-1.9731e-05
-1.72028e-05
-6.04141e-06
-1.06152e-05
1.11623e-05
8.10535e-06
1.29808e-06
8.11936e-06
8.00471e-06
7.24737e-06
-2.51627e-06
2.12399e-05
1.66114e-05
1.9932e-05
0.000116557
2.48904e-05
0.000126839
3.50145e-05
0.000126472
4.4075e-05
0.000122047
4.88941e-05
0.000115462
4.8681e-05
0.000107255
4.2741e-05
9.82218e-05
3.26106e-05
9.0796e-05
2.19349e-05
8.5948e-05
1.03914e-05
8.30426e-05
-8.34291e-07
8.17725e-05
-1.24814e-05
8.16606e-05
-2.35366e-05
8.3017e-05
-3.47686e-05
8.58553e-05
-4.39554e-05
9.08589e-05
-5.0339e-05
9.81939e-05
-4.93453e-05
0.000107329
-4.48365e-05
0.000115095
-3.43193e-05
0.000121841
-2.41947e-05
0.000125002
-1.93098e-05
0.00012407
-1.85095e-05
0.000115282
-2.72377e-05
4.46613e-05
-1.54624e-05
-2.14143e-05
-8.52095e-06
-1.50986e-05
-5.48981e-07
-1.11165e-06
8.14522e-07
-7.63967e-07
4.54267e-06
-6.33836e-07
-4.0545e-06
1.88566e-05
-8.43053e-07
2.08689e-05
0.000112815
2.40542e-05
0.000122387
2.98294e-05
0.000120012
3.47696e-05
0.000116746
3.73403e-05
0.000112682
3.67933e-05
0.000107594
3.26792e-05
0.000102184
2.58574e-05
9.74126e-05
1.75241e-05
9.40228e-05
8.46437e-06
9.17829e-05
-8.85743e-07
9.0746e-05
-1.02684e-05
9.06794e-05
-1.93155e-05
9.17281e-05
-2.75889e-05
9.38547e-05
-3.42978e-05
9.73591e-05
-3.82397e-05
0.000101947
-3.8416e-05
0.00010733
-3.5797e-05
0.000112206
-3.05055e-05
0.000116166
-2.53336e-05
0.000119103
-2.27502e-05
0.000120243
-2.44377e-05
0.000114668
-7.34875e-06
2.86039e-05
-8.20478e-06
-1.97515e-05
-7.77859e-06
-8.51807e-06
-8.08815e-06
7.36726e-07
-1.00447e-06
-1.33341e-06
4.13531e-06
4.47702e-08
-6.04638e-06
1.44324e-05
-1.46483e-05
1.88347e-05
0.000106568
2.19607e-05
0.000117966
2.50462e-05
0.000116081
2.75414e-05
0.000113789
2.83808e-05
0.000111466
2.72713e-05
0.000108431
2.40829e-05
0.000105098
1.91107e-05
0.000102135
1.3056e-05
9.97828e-05
6.23586e-06
9.82785e-05
-8.38136e-07
9.746e-05
-7.98986e-06
9.74693e-05
-1.47389e-05
9.81378e-05
-2.08621e-05
9.96821e-05
-2.57132e-05
0.000101921
-2.88567e-05
0.000104832
-2.9872e-05
0.000108015
-2.88541e-05
0.000110858
-2.64345e-05
0.000113162
-2.36722e-05
0.000115313
-2.24745e-05
0.000117596
-2.16539e-05
0.000111529
1.08425e-06
8.25029e-06
8.25117e-07
-1.99433e-05
-2.10664e-06
-6.20308e-06
-7.09996e-06
1.99329e-06
-2.80945e-06
-1.64281e-06
5.92866e-06
1.34521e-06
-9.09314e-06
9.40053e-06
-2.30783e-05
1.89186e-05
9.57992e-05
2.02404e-05
0.00011519
2.14893e-05
0.000113975
2.21728e-05
0.000112475
2.2031e-05
0.000111193
2.06135e-05
0.000109463
1.79706e-05
0.000107429
1.42307e-05
0.000105549
9.64352e-06
0.000104048
4.57365e-06
0.000102989
-8.2967e-07
0.00010249
-6.18401e-06
0.000102445
-1.13455e-05
0.000102943
-1.59288e-05
0.000103916
-1.97222e-05
0.000105386
-2.23866e-05
0.000107133
-2.37756e-05
0.000109034
-2.3953e-05
0.000110571
-2.32012e-05
0.000111808
-2.22048e-05
0.000113318
-2.05739e-05
0.000114467
-1.54469e-05
0.000104251
2.90299e-06
-8.99492e-06
2.81563e-06
-1.99967e-05
1.08246e-06
-6.70674e-06
-6.93929e-06
6.65645e-07
-3.72874e-06
-2.62439e-06
7.68963e-06
1.05548e-06
-1.23842e-05
3.90583e-06
-2.65088e-05
2.12039e-05
7.96273e-05
1.98129e-05
0.000114839
1.88533e-05
0.000113993
1.83156e-05
0.000112353
1.73777e-05
0.000111612
1.58507e-05
0.000110581
1.3594e-05
0.000109297
1.06561e-05
0.000108133
7.17478e-06
0.000107156
3.29711e-06
0.000106491
-7.69781e-07
0.000106157
-4.86715e-06
0.00010615
-8.78856e-06
0.00010647
-1.23794e-05
0.000107133
-1.54233e-05
0.000108037
-1.77858e-05
0.0001091
-1.94427e-05
0.00011022
-2.03991e-05
0.000111036
-2.10703e-05
0.00011176
-2.16225e-05
0.000112877
-2.20103e-05
0.000113247
-8.90341e-06
9.04376e-05
2.65592e-06
-2.05921e-05
2.81076e-06
-2.05452e-05
2.82395e-07
-5.53708e-06
-7.18319e-06
-3.58845e-07
-3.87146e-06
-2.11842e-06
8.23917e-06
-6.87506e-07
-1.36623e-05
-5.17048e-07
-2.70035e-05
2.18167e-05
6.01344e-05
1.79179e-05
0.000116584
1.62657e-05
0.000114683
1.50262e-05
0.000112852
1.37823e-05
0.000112321
1.22501e-05
0.000111631
1.03613e-05
0.000110774
8.04e-06
0.000110041
5.34518e-06
0.000109456
2.38888e-06
0.00010903
-7.14341e-07
0.000108849
-3.85367e-06
0.000108866
-6.88778e-06
0.000109099
-9.72001e-06
0.000109543
-1.22291e-05
0.000110131
-1.43576e-05
0.000110767
-1.61221e-05
0.000111494
-1.76944e-05
0.000112023
-1.93509e-05
0.000112656
-2.20129e-05
0.000114512
-2.54385e-05
0.000114786
-2.69338e-06
6.99834e-05
2.37212e-06
-2.60484e-05
3.28731e-06
-2.15688e-05
4.10498e-07
-4.12122e-06
-7.0408e-06
-9.65459e-07
-3.49687e-06
-1.55932e-06
8.21197e-06
-3.0837e-06
-1.25123e-05
-3.7816e-06
-2.62176e-05
1.66653e-05
4.21369e-05
1.42346e-05
0.000116663
1.29864e-05
0.000114826
1.19397e-05
0.000113221
1.06973e-05
0.000112956
9.45294e-06
0.000112382
7.89876e-06
0.000111847
6.0889e-06
0.000111416
4.0042e-06
0.000111092
1.74807e-06
0.000110859
-6.31348e-07
0.000110785
-3.04101e-06
0.000110847
-5.41323e-06
0.000111025
-7.66455e-06
0.000111357
-9.73942e-06
0.000111734
-1.15785e-05
0.000112129
-1.3306e-05
0.000112664
-1.49458e-05
0.000113062
-1.70043e-05
0.000113845
-1.98764e-05
0.000116287
-2.50914e-05
0.000117608
1.73026e-06
4.68911e-05
2.31757e-06
-2.67924e-05
2.66738e-06
-2.17821e-05
1.10665e-06
-3.61727e-06
-6.39484e-06
-1.07242e-06
-3.11582e-06
-2.21981e-06
8.21057e-06
-5.02238e-06
-1.06889e-05
-5.50928e-06
-2.53218e-05
9.89321e-06
2.82482e-05
9.68467e-06
0.000114641
9.42488e-06
0.000113838
8.84773e-06
0.000113118
8.128e-06
0.000113077
7.15158e-06
0.00011279
6.05063e-06
0.000112453
4.62036e-06
0.000112343
3.07368e-06
0.000112172
1.31019e-06
0.000112146
-4.98045e-07
0.000112142
-2.37934e-06
0.000112261
-4.22007e-06
0.000112407
-6.0357e-06
0.000112683
-7.69034e-06
0.000112901
-9.25068e-06
0.000113145
-1.06229e-05
0.000113466
-1.20422e-05
0.000113805
-1.34815e-05
0.000114425
-1.52679e-05
0.000116819
-1.75054e-05
0.000117482
3.61961e-06
2.79195e-05
2.46107e-06
-2.5783e-05
1.58118e-06
-2.08664e-05
1.73168e-06
-3.92196e-06
-5.16759e-06
-1.32635e-06
-2.65286e-06
-2.90098e-06
7.9289e-06
-5.44255e-06
-9.31082e-06
-5.89119e-06
-2.43428e-05
4.03939e-06
1.92015e-05
5.90881e-06
0.000110982
6.08717e-06
0.000112286
6.29548e-06
0.000112238
6.01999e-06
0.000112692
5.47613e-06
0.000112745
4.64081e-06
0.000112721
3.65089e-06
0.000112809
2.39874e-06
0.000112896
1.10086e-06
0.000112953
-3.62426e-07
0.00011311
-1.76278e-06
0.000113185
-3.28559e-06
0.000113421
-4.67485e-06
0.000113566
-6.07473e-06
0.00011375
-7.23932e-06
0.000113753
-8.30607e-06
0.000113901
-9.10471e-06
0.000113929
-9.62176e-06
0.000114052
-9.52941e-06
0.00011531
-8.14034e-06
0.000113989
5.27009e-06
1.50126e-05
3.60516e-06
-2.43842e-05
2.31345e-06
-1.96089e-05
1.58724e-06
-3.59558e-06
-4.06021e-06
-2.13606e-06
-1.52908e-06
-3.38559e-06
7.35443e-06
-5.4162e-06
-8.49171e-06
-6.2582e-06
-2.32112e-05
5.56501e-07
1.30721e-05
2.98118e-06
0.000106976
3.78394e-06
0.000110079
4.43073e-06
0.000110843
4.63614e-06
0.000111823
4.34347e-06
0.000112357
3.82572e-06
0.000112642
3.02282e-06
0.000113018
2.07802e-06
0.000113292
9.81863e-07
0.000113505
-9.94661e-08
0.000113688
-1.29349e-06
0.000113856
-2.44432e-06
0.000114056
-3.66695e-06
0.000114221
-4.74151e-06
0.000114257
-5.7585e-06
0.000114143
-6.49347e-06
0.000113987
-6.88637e-06
0.000113575
-6.55046e-06
0.000112851
-5.73683e-06
0.000112859
-1.32943e-06
0.000107783
7.54444e-06
6.32098e-06
5.72133e-06
-2.25667e-05
3.63132e-06
-1.75829e-05
1.48462e-06
-2.36695e-06
-3.13487e-06
-2.82596e-06
8.09118e-08
-3.54551e-06
6.18659e-06
-5.76914e-06
-7.49986e-06
-7.21917e-06
-2.13238e-05
-9.16676e-07
7.8034e-06
1.87687e-06
0.00010267
2.6231e-06
0.000107803
3.58544e-06
0.000109121
3.95679e-06
0.000110724
3.8931e-06
0.0001117
3.44137e-06
0.000112413
2.8145e-06
0.000113022
1.98011e-06
0.000113512
1.0946e-06
0.000113828
1.59687e-07
0.000114071
-8.20082e-07
0.00011431
-1.83943e-06
0.000114501
-2.85159e-06
0.000114653
-3.86116e-06
0.000114631
-4.73274e-06
0.000114372
-5.51304e-06
0.000114034
-5.82298e-06
0.000113125
-5.56212e-06
0.00011165
-4.34532e-06
0.000109949
2.08342e-06
9.96918e-05
9.90465e-06
-8.61759e-07
7.24888e-06
-1.99751e-05
4.55711e-06
-1.52776e-05
1.90978e-06
-9.23883e-07
-1.92936e-06
-3.16958e-06
1.60961e-06
-3.64637e-06
4.34238e-06
-6.06535e-06
-6.60251e-06
-7.9183e-06
-1.91302e-05
-1.37564e-06
2.74088e-06
1.67151e-06
9.81782e-05
2.77629e-06
0.00010521
3.66663e-06
0.000107367
4.13757e-06
0.000109505
3.99525e-06
0.00011104
3.59252e-06
0.000112097
2.91213e-06
0.000113002
2.16367e-06
0.000113628
1.3069e-06
0.000114071
5.04681e-07
0.000114318
-4.05041e-07
0.000114639
-1.29651e-06
0.000114807
-2.28271e-06
0.000114991
-3.22756e-06
0.000114914
-4.21906e-06
0.000114636
-5.13117e-06
0.00011418
-6.01025e-06
0.000113181
-6.73639e-06
0.00011139
-7.50084e-06
0.00010895
5.62542e-06
8.67956e-05
1.23801e-05
-6.48875e-06
8.69167e-06
-1.67923e-05
5.53954e-06
-1.26846e-05
2.32405e-06
6.22635e-07
-5.22141e-07
-3.03992e-06
2.7324e-06
-3.7366e-06
1.70151e-06
-6.18753e-06
-6.01807e-06
-8.63024e-06
-1.66834e-05
-2.06223e-06
-2.16398e-06
2.84127e-06
9.20324e-05
4.11732e-06
0.000102405
4.81902e-06
0.000105685
5.02723e-06
0.000108472
4.77289e-06
0.000110481
4.13121e-06
0.000111928
3.37043e-06
0.000113041
2.51188e-06
0.000113784
1.66914e-06
0.00011429
8.1073e-07
0.000114564
3.25825e-08
0.00011483
-8.97464e-07
0.000115094
-1.80113e-06
0.000115235
-2.8467e-06
0.000115223
-3.88056e-06
0.000114915
-5.12701e-06
0.000114578
-6.55341e-06
0.000113769
-8.94865e-06
0.000112653
-1.20606e-05
0.000110283
9.381e-06
6.87028e-05
1.35443e-05
-9.2207e-06
9.58349e-06
-1.37254e-05
6.09834e-06
-1.00658e-05
2.7816e-06
1.83609e-06
1.06241e-06
-2.04657e-06
3.20309e-06
-3.39396e-06
-6.16147e-07
-6.01031e-06
-5.84493e-06
-9.05132e-06
-1.41141e-05
-2.98093e-06
-6.35742e-06
6.06099e-06
8.26923e-05
7.10272e-06
9.98549e-05
6.94968e-06
0.000104649
6.71524e-06
0.000107839
6.00044e-06
0.000110308
5.07213e-06
0.000112015
4.01265e-06
0.000113304
3.04042e-06
0.000114047
2.07221e-06
0.000114576
1.21904e-06
0.000114799
3.72011e-07
0.000115034
-4.95974e-07
0.000115307
-1.4798e-06
0.000115488
-2.46059e-06
0.000115455
-3.62551e-06
0.000115231
-4.81678e-06
0.000114906
-6.37658e-06
0.000114404
-8.82384e-06
0.000113795
-1.21345e-05
0.000111528
1.17049e-05
4.89962e-05
1.37684e-05
-1.00918e-05
1.00905e-05
-1.11883e-05
6.28694e-06
-7.42991e-06
3.25415e-06
2.31626e-06
2.70067e-06
-1.16888e-06
3.597e-06
-2.39053e-06
-1.66791e-06
-5.25479e-06
-6.0833e-06
-8.86302e-06
-1.16911e-05
-4.27677e-06
-8.8133e-06
1.12423e-05
6.86351e-05
1.0994e-05
9.84209e-05
1.00263e-05
0.000104273
8.92134e-06
0.000107974
7.69837e-06
0.000110629
6.1981e-06
0.00011258
4.87674e-06
0.000113807
3.56738e-06
0.000114576
2.54581e-06
0.000114911
1.55207e-06
0.000115116
7.09351e-07
0.000115231
-2.22728e-07
0.00011553
-1.14108e-06
0.000115671
-2.20953e-06
0.000115693
-3.24864e-06
0.000115399
-4.3461e-06
0.000115065
-5.31924e-06
0.000114443
-6.87331e-06
0.000113834
-7.42965e-06
0.000109948
1.19905e-05
3.25288e-05
1.29765e-05
-1.0096e-05
9.67316e-06
-9.14183e-06
5.92707e-06
-5.21502e-06
3.166e-06
1.80961e-06
4.01204e-06
-6.37796e-07
4.04995e-06
-1.56991e-06
-1.71562e-06
-3.84798e-06
-5.87233e-06
-7.6388e-06
-9.58481e-06
-4.99569e-06
-9.1594e-06
1.47873e-05
5.13136e-05
1.50757e-05
9.60901e-05
1.34056e-05
0.000104417
1.1536e-05
0.000108777
9.45935e-06
0.000111718
7.48458e-06
0.000113615
5.59638e-06
0.00011479
4.12077e-06
0.000115268
2.81785e-06
0.000115465
1.88896e-06
0.000115365
9.12528e-07
0.000115498
2.95471e-08
0.000115697
-9.66308e-07
0.000115859
-1.975e-06
0.000115857
-3.07661e-06
0.000115536
-3.91398e-06
0.000114956
-4.52483e-06
0.000113997
-4.6604e-06
0.000112382
-2.45059e-06
0.000105731
1.15909e-05
2.06725e-05
1.16838e-05
-9.47848e-06
8.44032e-06
-7.47084e-06
4.82403e-06
-3.68975e-06
2.21176e-06
1.09289e-06
4.56624e-06
-1.94258e-07
4.31729e-06
-1.00931e-06
-1.2701e-06
-2.62072e-06
-5.2293e-06
-5.82255e-06
-7.7276e-06
-5.41303e-06
-6.90988e-06
1.4906e-05
3.35751e-05
1.94348e-05
8.9165e-05
1.7561e-05
0.000104651
1.43149e-05
0.00011078
1.12744e-05
0.000113737
8.4848e-06
0.000115387
6.21949e-06
0.000116144
4.33746e-06
0.000116287
3.01135e-06
0.000116037
1.96023e-06
0.000115669
1.12315e-06
0.000115616
1.76138e-07
0.000115856
-8.12234e-07
0.00011603
-1.97348e-06
0.000116086
-3.09712e-06
0.000115683
-4.09722e-06
0.000114922
-4.77583e-06
0.000113506
-4.80726e-06
0.000110714
8.18009e-07
9.87023e-05
1.13144e-05
1.23331e-05
1.03122e-05
-8.10462e-06
6.78878e-06
-5.89676e-06
3.34505e-06
-2.79115e-06
1.25945e-06
8.35318e-07
4.80263e-06
3.41864e-07
4.32799e-06
-5.5698e-07
5.37451e-07
-2.28162e-06
-3.73664e-06
-5.04243e-06
-5.38661e-06
-7.44747e-06
-1.19791e-06
9.49796e-06
1.9145e-05
2.67159e-05
7.19757e-05
2.21922e-05
0.000107373
1.70099e-05
0.000114522
1.26022e-05
0.000116995
9.10898e-06
0.000117859
6.25765e-06
0.000118004
4.22462e-06
0.00011746
2.75904e-06
0.000116673
1.90783e-06
0.000115762
1.21088e-06
0.000115521
3.67958e-07
0.000115902
-7.75714e-07
0.000116275
-2.00132e-06
0.000116372
-3.45557e-06
0.000116069
-4.72915e-06
0.000115127
-6.25719e-06
0.000113622
-7.10903e-06
0.000109843
3.12054e-06
8.85878e-05
1.08673e-05
7.14636e-06
8.80285e-06
-6.11288e-06
4.96262e-06
-4.37652e-06
2.14277e-06
-2.06868e-06
7.22329e-07
9.24293e-07
5.0913e-06
2.52061e-06
7.89552e-06
-1.28401e-06
3.61324e-06
-2.89272e-06
-1.59234e-06
-6.20057e-06
-1.11551e-06
-1.04446e-05
6.02576e-06
-1.17843e-06
1.26459e-05
2.71305e-05
4.72233e-05
2.55856e-05
0.000106762
1.8428e-05
0.00012007
1.29671e-05
0.000121269
8.75001e-06
0.000120971
5.63501e-06
0.000120131
3.30161e-06
0.000118843
1.96587e-06
0.00011717
1.56781e-06
0.000115433
1.46333e-06
0.000114929
6.31717e-07
0.00011586
-5.49474e-07
0.000116547
-2.17681e-06
0.000116965
-3.79226e-06
0.000116608
-5.68042e-06
0.000115805
-7.55587e-06
0.000113973
-9.17468e-06
0.000109411
5.52769e-06
7.55708e-05
1.02756e-05
5.54738e-06
7.36973e-06
-3.64577e-06
3.64229e-06
-2.86621e-06
1.55134e-06
-1.32794e-06
5.1608e-07
1.33138e-06
5.55256e-06
-1.36122e-06
1.21609e-05
-2.19297e-06
9.88996e-06
-4.92209e-06
5.72768e-06
-8.50586e-06
6.13993e-06
-1.13517e-05
8.96745e-06
-8.70174e-06
1.04692e-05
1.50937e-05
2.68548e-05
2.45357e-05
9.66924e-05
1.73206e-05
0.000125315
1.15015e-05
0.000125739
7.24524e-06
0.000124094
3.94483e-06
0.000122334
1.58746e-06
0.000120235
7.9185e-07
0.000117326
1.08556e-06
0.000114799
1.4626e-06
0.00011421
1.20936e-06
0.000115515
-2.62186e-07
0.000117038
-2.06958e-06
0.000117708
-4.24166e-06
0.000117585
-6.41348e-06
0.000116661
-8.23882e-06
0.000114106
-7.0901e-06
0.000106254
7.45533e-06
6.29786e-05
9.79834e-06
6.94531e-06
6.48028e-06
-1.03791e-06
3.18412e-06
-1.32088e-06
1.4676e-06
-4.36784e-07
6.08741e-07
1.97417e-06
6.53391e-06
-3.38464e-06
1.41334e-05
-5.45945e-06
1.29738e-05
-7.40658e-06
8.4008e-06
-9.24115e-06
7.14492e-06
-9.67089e-06
8.72731e-06
-1.00441e-05
1.02789e-05
-1.32714e-06
1.93167e-05
1.71126e-05
8.03723e-05
1.30126e-05
0.000127238
8.33736e-06
0.000128963
4.43792e-06
0.000126725
1.75558e-06
0.00012406
3.46676e-07
0.000121102
3.3118e-07
0.000117291
4.10432e-07
0.000114765
5.3058e-07
0.000114129
7.13436e-07
0.000115271
-1.06759e-07
0.000117362
-2.03653e-06
0.000118641
-4.4964e-06
0.000118819
-7.38387e-06
0.00011801
-8.14782e-06
0.000113376
-2.8366e-07
9.78849e-05
1.00416e-05
5.45044e-05
1.00258e-05
1.11926e-05
6.58553e-06
1.65167e-06
3.57436e-06
4.51138e-07
1.86247e-06
9.0202e-07
1.25446e-06
3.42461e-06
8.5478e-06
-3.18818e-06
1.58049e-05
-5.11294e-06
1.36324e-05
-6.50203e-06
8.92588e-06
-7.77948e-06
7.93253e-06
-9.44704e-06
9.53647e-06
-1.14062e-05
1.15966e-05
-1.2022e-05
2.0871e-05
2.75643e-06
6.80161e-05
6.73726e-06
0.000122585
4.07987e-06
0.000130496
2.01487e-06
0.000128189
7.84926e-07
0.000125085
6.77476e-07
0.000121474
5.33241e-07
0.000117741
-2.66566e-07
0.000115723
-1.09639e-06
0.000115102
-1.38244e-06
0.000115823
-1.43529e-06
0.000117679
-2.65032e-06
0.00011967
-4.64808e-06
0.000120226
-6.97889e-06
0.000119327
-3.32211e-06
0.000109423
9.31445e-06
8.68124e-05
1.46337e-05
5.13534e-05
1.14674e-05
1.84936e-05
7.91252e-06
4.87743e-06
4.85972e-06
2.86591e-06
3.09298e-06
3.63914e-06
2.23546e-06
6.58442e-06
1.0874e-05
-2.63071e-06
1.77103e-05
-3.56181e-06
1.42948e-05
-4.90805e-06
1.03358e-05
-7.55316e-06
9.97963e-06
-1.01538e-05
1.13791e-05
-1.33939e-05
1.44317e-05
-1.84233e-05
2.71675e-05
-1.17859e-05
6.33128e-05
-2.04039e-06
0.000114557
9.38084e-08
0.00012883
7.6706e-07
0.000128196
1.2758e-06
0.000125358
1.333e-06
0.000122089
4.85487e-07
0.00011901
-8.60974e-07
0.000117362
-2.25309e-06
0.000116779
-3.35519e-06
0.000117312
-3.77281e-06
0.000118739
-3.80895e-06
0.000120492
-3.80632e-06
0.000120959
-2.33081e-06
0.00011839
6.43634e-06
0.000102396
1.85814e-05
7.71927e-05
2.10805e-05
5.09414e-05
1.46937e-05
2.75957e-05
1.07534e-05
1.03489e-05
7.89928e-06
6.08957e-06
5.87273e-06
6.81904e-06
6.72701e-08
1.8056e-05
1.86441e-05
-1.46063e-06
1.90547e-05
-3.02745e-06
1.57283e-05
-5.3445e-06
1.24719e-05
-8.37688e-06
1.26096e-05
-1.15197e-05
1.40334e-05
-1.57835e-05
1.86942e-05
-2.37531e-05
3.62095e-05
-2.25882e-05
6.43454e-05
-1.0313e-05
0.000105362
-3.62064e-06
0.000124206
-5.22466e-07
0.000126647
9.70373e-07
0.000125103
9.14119e-07
0.000123001
-4.35718e-08
0.000120616
-1.26138e-06
0.000119173
-2.4954e-06
0.000118614
-3.62529e-06
0.000119097
-4.1832e-06
0.000120138
-3.33931e-06
0.000120899
-9.56743e-07
0.000120148
5.45629e-06
0.000114128
1.64965e-05
9.43549e-05
2.42731e-05
7.21801e-05
2.4995e-05
5.21796e-05
1.89561e-05
3.4151e-05
1.34136e-05
1.83494e-05
1.1847e-05
9.79081e-06
1.179e-05
9.09627e-06
8.21452e-07
3.1012e-05
2.27271e-05
-1.27855e-06
1.99413e-05
-3.36077e-06
1.74063e-05
-6.0839e-06
1.50391e-05
-9.64253e-06
1.59061e-05
-1.31118e-05
1.75351e-05
-1.90088e-05
2.4824e-05
-2.70124e-05
4.51826e-05
-2.82523e-05
6.77117e-05
-1.74567e-05
9.79501e-05
-8.09842e-06
0.000117609
-3.2128e-06
0.000123718
-9.16411e-07
0.000124329
-3.7213e-07
0.000123652
-7.39971e-07
0.000122027
-1.38199e-06
0.000120823