/*--------------------------------*- C++ -*----------------------------------*\
| =========                 |                                                 |
| \\      /  F ield         | OpenFOAM: The Open Source CFD Toolbox           |
|  \\    /   O peration     | Version:  2.3.0                                 |
|   \\  /    A nd           | Web:      www.OpenFOAM.org                      |
|    \\/     M anipulation  |                                                 |
\*---------------------------------------------------------------------------*/
FoamFile
{
    version     2.0;
    format      ascii;
    class       volVectorField;
    location    "0.31";
    object      U.particles;
}
// * * * * * * * * * * * * * * * * * * * * * * * * * * * * * * * * * * * * * //

dimensions      [0 1 -1 0 0 0 0];

internalField   nonuniform List<vector> 
6000
(
(-0.00267813 -0.417932 0)
(0.0109651 -0.386251 0)
(0.0516339 -0.349529 0)
(0.0878519 -0.353247 0)
(0.122922 -0.404173 0)
(0.132179 -0.479832 0)
(0.128117 -0.51191 0)
(0.131235 -0.50244 0)
(0.143876 -0.486739 0)
(0.155413 -0.49431 0)
(0.166352 -0.546316 0)
(0.156254 -0.608156 0)
(0.117943 -0.672455 0)
(0.0552607 -0.713248 0)
(0.00952503 -0.723826 0)
(-0.0183378 -0.721006 0)
(-0.0717079 -0.708521 0)
(-0.13347 -0.66252 0)
(-0.167572 -0.59638 0)
(-0.173938 -0.534054 0)
(-0.162484 -0.490924 0)
(-0.149724 -0.491722 0)
(-0.141755 -0.503956 0)
(-0.141503 -0.504235 0)
(-0.142837 -0.465088 0)
(-0.128956 -0.385886 0)
(-0.0895372 -0.338911 0)
(-0.0485421 -0.342182 0)
(-0.00996172 -0.386043 0)
(0.000771156 -0.412753 0)
(0.0248598 -0.0496501 0)
(0.0457749 -0.0715023 0)
(0.0931893 -0.0984246 0)
(0.139833 -0.103035 0)
(0.180434 -0.0572072 0)
(0.202815 0.0104004 0)
(0.207203 0.0566935 0)
(0.199807 0.0699771 0)
(0.172447 0.0751829 0)
(0.130344 0.0510007 0)
(0.0914724 -0.0376491 0)
(0.0547115 -0.10593 0)
(0.0250071 -0.11753 0)
(0.0115512 -0.129441 0)
(0.00140741 -0.122244 0)
(-0.00835105 -0.123029 0)
(-0.0185615 -0.137674 0)
(-0.0331507 -0.104744 0)
(-0.0685838 -0.10187 0)
(-0.105221 -0.0154096 0)
(-0.149663 0.0579502 0)
(-0.190581 0.0808071 0)
(-0.213881 0.07366 0)
(-0.218207 0.056138 0)
(-0.212153 0.0205532 0)
(-0.181779 -0.0665077 0)
(-0.138474 -0.103698 0)
(-0.0919608 -0.0959302 0)
(-0.0439342 -0.07804 0)
(-0.0242758 -0.0468563 0)
(-0.00517991 -0.125936 0)
(0.0668296 -0.164553 0)
(0.115312 -0.195015 0)
(0.160822 -0.209435 0)
(0.196935 -0.189161 0)
(0.225572 -0.115336 0)
(0.24233 -0.0535019 0)
(0.220923 -0.0163236 0)
(0.167456 -0.0185835 0)
(0.0958348 -0.0480738 0)
(0.0467595 -0.0836483 0)
(0.0200279 -0.111746 0)
(0.00866618 -0.123756 0)
(0.00307584 -0.127949 0)
(-0.000856153 -0.129782 0)
(-0.00452617 -0.129729 0)
(-0.00874292 -0.127096 0)
(-0.0155141 -0.12065 0)
(-0.0286979 -0.105864 0)
(-0.0609196 -0.0746661 0)
(-0.116424 -0.0405421 0)
(-0.189598 -0.0107229 0)
(-0.234942 -0.0168374 0)
(-0.249979 -0.0625899 0)
(-0.227542 -0.125753 0)
(-0.193831 -0.191436 0)
(-0.156117 -0.210044 0)
(-0.113679 -0.19054 0)
(-0.0654639 -0.15349 0)
(0.00885547 -0.123402 0)
(-0.018563 -0.150179 0)
(0.0708054 -0.174197 0)
(0.112093 -0.211734 0)
(0.162893 -0.217483 0)
(0.207678 -0.19703 0)
(0.249933 -0.118751 0)
(0.259609 -0.0236154 0)
(0.227258 0.0038831 0)
(0.152516 -0.00915295 0)
(0.0569432 -0.0415803 0)
(0.0166264 -0.0820782 0)
(0.00500879 -0.103919 0)
(-0.000223051 -0.117287 0)
(-0.00184242 -0.12462 0)
(-0.00209924 -0.12837 0)
(-0.00216013 -0.127746 0)
(-0.002681 -0.123098 0)
(-0.00534891 -0.113659 0)
(-0.0117334 -0.0991584 0)
(-0.0277481 -0.0733298 0)
(-0.0772755 -0.0317973 0)
(-0.179764 -0.000852135 0)
(-0.241101 0.00472254 0)
(-0.265934 -0.0351894 0)
(-0.246106 -0.132178 0)
(-0.200552 -0.205454 0)
(-0.155922 -0.222773 0)
(-0.105247 -0.210462 0)
(-0.0653191 -0.162442 0)
(0.0220784 -0.14408 0)
(-0.031716 -0.144563 0)
(0.0472202 -0.18441 0)
(0.0943334 -0.233097 0)
(0.158211 -0.219624 0)
(0.183288 -0.187692 0)
(0.246608 -0.108364 0)
(0.260996 0.0179755 0)
(0.218664 0.0450162 0)
(0.110408 0.023036 0)
(0.0101161 -0.0184369 0)
(-0.0129412 -0.0592843 0)
(-0.0152594 -0.0816293 0)
(-0.0129141 -0.0960191 0)
(-0.00871671 -0.105724 0)
(-0.00383317 -0.109171 0)
(0.00120492 -0.109038 0)
(0.00576365 -0.103089 0)
(0.00914892 -0.0929311 0)
(0.0100906 -0.0757787 0)
(0.00548306 -0.0522725 0)
(-0.0271271 -0.00594826 0)
(-0.144346 0.0315459 0)
(-0.234202 0.0460895 0)
(-0.268516 -0.00184861 0)
(-0.234619 -0.128595 0)
(-0.176653 -0.203145 0)
(-0.152135 -0.233321 0)
(-0.0909291 -0.23061 0)
(-0.0457074 -0.166528 0)
(0.0330651 -0.136002 0)
(-0.0327331 -0.11954 0)
(0.027681 -0.159706 0)
(0.074774 -0.222277 0)
(0.155534 -0.210074 0)
(0.157309 -0.16076 0)
(0.218816 -0.057383 0)
(0.236475 0.0620592 0)
(0.193319 0.0872903 0)
(0.0439994 0.0610793 0)
(-0.0444401 0.0051361 0)
(-0.0502056 -0.0340264 0)
(-0.0426386 -0.0536929 0)
(-0.0316567 -0.0685946 0)
(-0.0192438 -0.0772706 0)
(-0.00649951 -0.082148 0)
(0.00616241 -0.0806394 0)
(0.0184916 -0.0756713 0)
(0.0303088 -0.0641789 0)
(0.039826 -0.0489689 0)
(0.045194 -0.0258572 0)
(0.0331607 0.0180225 0)
(-0.0809939 0.0717855 0)
(-0.210733 0.0890865 0)
(-0.246226 0.0463043 0)
(-0.212215 -0.0776558 0)
(-0.166666 -0.187064 0)
(-0.136054 -0.229006 0)
(-0.0793183 -0.221858 0)
(-0.0322898 -0.136318 0)
(0.0217267 -0.112821 0)
(-0.0393036 -0.084832 0)
(0.0181163 -0.144939 0)
(0.0651327 -0.206999 0)
(0.133595 -0.185289 0)
(0.13459 -0.134316 0)
(0.189086 -0.0289156 0)
(0.199714 0.117802 0)
(0.121182 0.140093 0)
(-0.0583644 0.0890924 0)
(-0.100419 0.026808 0)
(-0.0912734 -0.0053965 0)
(-0.0727596 -0.0261454 0)
(-0.051284 -0.0382871 0)
(-0.0296682 -0.0472815 0)
(-0.00903666 -0.0502527 0)
(0.0112544 -0.0501282 0)
(0.0318081 -0.0444446 0)
(0.0530462 -0.0351882 0)
(0.0731652 -0.0201245 0)
(0.0903882 0.00132284 0)
(0.0953153 0.0409015 0)
(0.0298482 0.105142 0)
(-0.14893 0.143555 0)
(-0.218702 0.0988186 0)
(-0.189925 -0.0413021 0)
(-0.152153 -0.150721 0)
(-0.111462 -0.198371 0)
(-0.0615986 -0.197741 0)
(-0.0210391 -0.127942 0)
(0.0346078 -0.0841392 0)
(-0.0177861 -0.057628 0)
(0.00455006 -0.131599 0)
(0.053866 -0.192838 0)
(0.130032 -0.159227 0)
(0.126201 -0.105161 0)
(0.155753 0.0346995 0)
(0.114641 0.212819 0)
(-0.0229731 0.18801 0)
(-0.137603 0.111424 0)
(-0.140951 0.0557775 0)
(-0.120914 0.0230997 0)
(-0.0921938 0.00371115 0)
(-0.0639437 -0.00790692 0)
(-0.0362764 -0.0135731 0)
(-0.0104054 -0.0164988 0)
(0.0148185 -0.0153536 0)
(0.0407807 -0.0120856 0)
(0.0684292 -0.0037119 0)
(0.0968867 0.00867461 0)
(0.12349 0.0323554 0)
(0.142286 0.0665245 0)
(0.126608 0.12923 0)
(-0.00915382 0.204263 0)
(-0.143874 0.192535 0)
(-0.170104 0.0066531 0)
(-0.128763 -0.10931 0)
(-0.11505 -0.159992 0)
(-0.0480509 -0.17535 0)
(-0.00325805 -0.123142 0)
(0.0164431 -0.0563241 0)
(-0.00402212 -0.0513444 0)
(0.00785174 -0.133991 0)
(0.0555306 -0.182066 0)
(0.114904 -0.149446 0)
(0.171857 -0.0381657 0)
(0.0599433 0.183747 0)
(-0.0138402 0.288172 0)
(-0.142976 0.213016 0)
(-0.185225 0.137515 0)
(-0.157421 0.0931628 0)
(-0.12702 0.060696 0)
(-0.0942885 0.0393046 0)
(-0.0633201 0.0300741 0)
(-0.0358721 0.0261536 0)
(-0.0102035 0.0255688 0)
(0.0147973 0.0256171 0)
(0.0407799 0.0282356 0)
(0.0691407 0.0327857 0)
(0.100263 0.0452236 0)
(0.134135 0.0671079 0)
(0.164481 0.104145 0)
(0.187747 0.152302 0)
(0.127016 0.234273 0)
(-0.0156194 0.285674 0)
(-0.112547 0.111669 0)
(-0.153814 -0.0620014 0)
(-0.117357 -0.140399 0)
(-0.0502646 -0.165703 0)
(-0.00806569 -0.126715 0)
(0.00251293 -0.0493318 0)
(0.00700266 -0.0607732 0)
(0.0226066 -0.145887 0)
(0.0603129 -0.18184 0)
(0.105181 -0.125547 0)
(0.194884 0.0277223 0)
(0.0533974 0.276112 0)
(-0.111025 0.344382 0)
(-0.206595 0.258809 0)
(-0.18267 0.18317 0)
(-0.141392 0.142412 0)
(-0.106323 0.102238 0)
(-0.0747931 0.0820034 0)
(-0.049012 0.0731499 0)
(-0.0273852 0.071698 0)
(-0.00821934 0.0715606 0)
(0.0107134 0.0721706 0)
(0.0305346 0.0724203 0)
(0.0532567 0.0757651 0)
(0.0811156 0.0852468 0)
(0.1146 0.110338 0)
(0.150817 0.150155 0)
(0.19435 0.194671 0)
(0.208469 0.276634 0)
(0.102064 0.351385 0)
(-0.0538605 0.247316 0)
(-0.206375 0.0115722 0)
(-0.11206 -0.127799 0)
(-0.0592879 -0.170793 0)
(-0.0233892 -0.140842 0)
(-0.0105878 -0.0585419 0)
(0.0245193 -0.0775807 0)
(0.0384457 -0.161123 0)
(0.0608753 -0.177805 0)
(0.103645 -0.114689 0)
(0.149441 0.0413887 0)
(0.0857121 0.265517 0)
(-0.145945 0.45346 0)
(-0.20555 0.349703 0)
(-0.140328 0.26448 0)
(-0.0946896 0.194391 0)
(-0.0613503 0.145818 0)
(-0.0395737 0.118976 0)
(-0.0251292 0.109437 0)
(-0.0142298 0.106358 0)
(-0.00497146 0.106658 0)
(0.00432728 0.1066 0)
(0.0141566 0.107479 0)
(0.0264545 0.110733 0)
(0.0431094 0.122601 0)
(0.0683726 0.150772 0)
(0.105065 0.203416 0)
(0.152875 0.269177 0)
(0.219896 0.360107 0)
(0.157132 0.45156 0)
(-0.0911081 0.251941 0)
(-0.169316 0.0309548 0)
(-0.112086 -0.115232 0)
(-0.0656666 -0.170077 0)
(-0.0424009 -0.154872 0)
(-0.0293063 -0.08135 0)
(0.0521723 -0.159914 0)
(0.0416255 -0.199583 0)
(0.0456658 -0.183517 0)
(0.0634532 -0.106479 0)
(0.0855762 0.0417641 0)
(0.0665822 0.258793 0)
(-0.150176 0.583732 0)
(-0.115923 0.499949 0)
(-0.0568847 0.364577 0)
(-0.0309096 0.240446 0)
(-0.0109873 0.174533 0)
(-0.00418358 0.137343 0)
(-0.00253429 0.119819 0)
(-0.002497 0.114376 0)
(-0.00209 0.112864 0)
(-0.00102539 0.113561 0)
(-0.000316915 0.115089 0)
(0.000659854 0.122395 0)
(0.00388731 0.140814 0)
(0.0127776 0.182115 0)
(0.0365041 0.247399 0)
(0.0670971 0.372036 0)
(0.136116 0.502624 0)
(0.160571 0.573539 0)
(-0.0784112 0.245657 0)
(-0.107093 0.0353126 0)
(-0.0788887 -0.105564 0)
(-0.0581142 -0.173643 0)
(-0.0480224 -0.184674 0)
(-0.0482085 -0.156842 0)
(0.0218793 -0.242544 0)
(0.0212364 -0.239783 0)
(0.0190566 -0.210522 0)
(0.00722979 -0.118757 0)
(-0.0133572 0.0513033 0)
(-0.0328224 0.315909 0)
(-0.125636 0.630548 0)
(-0.037684 0.538943 0)
(0.032408 0.388773 0)
(0.0426089 0.252371 0)
(0.0380998 0.17228 0)
(0.0280571 0.124475 0)
(0.0167994 0.104866 0)
(0.00734632 0.0973965 0)
(0.000417911 0.0962949 0)
(-0.00556635 0.0958335 0)
(-0.0124352 0.0990914 0)
(-0.0214823 0.106209 0)
(-0.0317011 0.129979 0)
(-0.0392717 0.17862 0)
(-0.0406904 0.262485 0)
(-0.0287503 0.397056 0)
(0.0511068 0.5463 0)
(0.134151 0.615952 0)
(0.0247357 0.296256 0)
(-0.0116737 0.0442398 0)
(-0.0347528 -0.117316 0)
(-0.0404695 -0.196656 0)
(-0.0358582 -0.224112 0)
(-0.0301319 -0.225006 0)
(0.0193431 -0.266613 0)
(0.0160931 -0.280356 0)
(0.00795782 -0.259844 0)
(-0.0263037 -0.176602 0)
(-0.110918 -0.0154016 0)
(-0.105182 0.398864 0)
(-0.0814429 0.573192 0)
(0.0221664 0.428272 0)
(0.0844913 0.247862 0)
(0.0899647 0.184376 0)
(0.0744675 0.118562 0)
(0.0530219 0.072568 0)
(0.0335948 0.0548347 0)
(0.0171929 0.0465088 0)
(0.00313928 0.0457072 0)
(-0.00993347 0.0445708 0)
(-0.0237442 0.0489252 0)
(-0.0398688 0.0553103 0)
(-0.0584851 0.0789891 0)
(-0.0779288 0.124781 0)
(-0.0909007 0.195313 0)
(-0.0806412 0.254308 0)
(-0.00975822 0.440952 0)
(0.0866533 0.552439 0)
(0.123134 0.394023 0)
(0.0688636 -0.0308358 0)
(-0.0169006 -0.172892 0)
(-0.0384032 -0.247666 0)
(-0.0344331 -0.269297 0)
(-0.0349698 -0.270808 0)
(0.029429 -0.280766 0)
(0.0341787 -0.323232 0)
(0.0214976 -0.328956 0)
(-0.0197022 -0.310497 0)
(0.0151177 -0.35506 0)
(-0.0484928 0.077791 0)
(0.0222966 0.185296 0)
(0.110565 -0.000644729 0)
(0.14773 -0.171037 0)
(0.132708 -0.141037 0)
(0.108176 -0.142871 0)
(0.0782407 -0.145431 0)
(0.0508319 -0.154626 0)
(0.0271114 -0.147292 0)
(0.00626456 -0.154212 0)
(-0.013562 -0.146931 0)
(-0.0341837 -0.153451 0)
(-0.0571439 -0.14644 0)
(-0.0837979 -0.148947 0)
(-0.112032 -0.132062 0)
(-0.13344 -0.139932 0)
(-0.146592 -0.16765 0)
(-0.104368 0.014564 0)
(-0.0211643 0.155189 0)
(0.0531843 0.0672349 0)
(-0.0152153 -0.338703 0)
(-0.035361 -0.27786 0)
(-0.0487978 -0.323562 0)
(-0.0407667 -0.321329 0)
(-0.032544 -0.306108 0)
(0.0453616 -0.263367 0)
(0.0605258 -0.385275 0)
(0.00945381 -0.470142 0)
(-0.0348782 -0.600174 0)
(0.00435389 -0.400254 0)
(0.0269809 -0.312716 0)
(0.0814894 -0.265726 0)
(0.1261 -0.341125 0)
(0.137067 -0.40382 0)
(0.131495 -0.420769 0)
(0.113968 -0.418379 0)
(0.0858086 -0.414937 0)
(0.0573278 -0.411724 0)
(0.0311071 -0.407239 0)
(0.00769967 -0.405172 0)
(-0.0144965 -0.405388 0)
(-0.0377043 -0.408234 0)
(-0.0631586 -0.411831 0)
(-0.0907158 -0.41609 0)
(-0.117825 -0.418321 0)
(-0.133421 -0.422411 0)
(-0.138377 -0.402171 0)
(-0.12384 -0.339496 0)
(-0.0781702 -0.27401 0)
(-0.0236226 -0.331201 0)
(-0.00827399 -0.419303 0)
(-0.0339587 -0.497922 0)
(-0.0759764 -0.403082 0)
(-0.0542915 -0.367119 0)
(-0.0268484 -0.314444 0)
(0.0508984 -0.402026 0)
(0.0069034 -0.556024 0)
(-0.043485 -0.621711 0)
(-0.0401673 -0.617026 0)
(-0.0321798 -0.401887 0)
(0.0221224 -0.390913 0)
(0.0741198 -0.397607 0)
(0.0998329 -0.420044 0)
(0.10506 -0.428771 0)
(0.101241 -0.433824 0)
(0.0876573 -0.436875 0)
(0.0664079 -0.436879 0)
(0.0446331 -0.43298 0)
(0.0240365 -0.42935 0)
(0.0054113 -0.426338 0)
(-0.0121713 -0.427468 0)
(-0.0305545 -0.430345 0)
(-0.0506089 -0.435304 0)
(-0.0714257 -0.438329 0)
(-0.0913667 -0.43922 0)
(-0.104124 -0.436002 0)
(-0.107153 -0.431883 0)
(-0.101223 -0.422279 0)
(-0.070555 -0.404298 0)
(-0.0284487 -0.402516 0)
(-0.00270412 -0.40088 0)
(0.0581318 -0.581721 0)
(-0.0193113 -0.549151 0)
(-0.0788523 -0.403095 0)
(-0.0186901 -0.269195 0)
(-0.023945 -0.441818 0)
(-0.0132921 -0.542623 0)
(-0.0295792 -0.599653 0)
(-0.0279786 -0.616519 0)
(-0.0441628 -0.424825 0)
(0.00581431 -0.394922 0)
(0.0550161 -0.414645 0)
(0.0756227 -0.423577 0)
(0.0794978 -0.421681 0)
(0.0761053 -0.419528 0)
(0.0646899 -0.416858 0)
(0.0493779 -0.411867 0)
(0.0328764 -0.406592 0)
(0.0172626 -0.40085 0)
(0.00324321 -0.398483 0)
(-0.010026 -0.398536 0)
(-0.0239316 -0.402877 0)
(-0.0390492 -0.408195 0)
(-0.0545277 -0.414838 0)
(-0.0689818 -0.41942 0)
(-0.0791783 -0.422664 0)
(-0.0823693 -0.424536 0)
(-0.0770816 -0.426016 0)
(-0.0546449 -0.415821 0)
(-0.0135978 -0.397826 0)
(0.0241454 -0.383336 0)
(0.0646979 -0.583749 0)
(0.0573722 -0.630906 0)
(-0.0308036 -0.529884 0)
(-0.0593568 -0.296068 0)
(-0.0224357 -0.417641 0)
(0.00514473 -0.497145 0)
(-0.0182241 -0.576122 0)
(-0.0145129 -0.602145 0)
(-0.0453143 -0.430602 0)
(0.00244109 -0.389495 0)
(0.041506 -0.412578 0)
(0.0567998 -0.414843 0)
(0.0607357 -0.407488 0)
(0.0569137 -0.400947 0)
(0.0482133 -0.394846 0)
(0.0363502 -0.388155 0)
(0.0238486 -0.380772 0)
(0.0120448 -0.375413 0)
(0.00151071 -0.371787 0)
(-0.00844217 -0.372923 0)
(-0.0189232 -0.376459 0)
(-0.0303175 -0.383372 0)
(-0.0420924 -0.390676 0)
(-0.0526623 -0.398302 0)
(-0.0604054 -0.404573 0)
(-0.0626622 -0.41158 0)
(-0.0588983 -0.416841 0)
(-0.0382496 -0.409511 0)
(0.00675259 -0.386263 0)
(0.0502294 -0.382733 0)
(0.06401 -0.584749 0)
(0.0499592 -0.606304 0)
(0.0210762 -0.567615 0)
(-0.0205984 -0.413431 0)
(-0.0215307 -0.39839 0)
(0.000371542 -0.458553 0)
(-0.0127931 -0.545935 0)
(-0.0133846 -0.580969 0)
(-0.0478683 -0.428116 0)
(0.00596945 -0.376227 0)
(0.0298448 -0.400341 0)
(0.0439627 -0.40062 0)
(0.0457986 -0.390337 0)
(0.0428752 -0.38066 0)
(0.0355491 -0.37271 0)
(0.0264072 -0.364493 0)
(0.0168865 -0.357245 0)
(0.00802817 -0.35096 0)
(0.000179468 -0.348154 0)
(-0.00724752 -0.348296 0)
(-0.015155 -0.352718 0)
(-0.0238554 -0.359153 0)
(-0.0327449 -0.36774 0)
(-0.0408516 -0.376639 0)
(-0.0463361 -0.384859 0)
(-0.0481521 -0.394508 0)
(-0.0442967 -0.403229 0)
(-0.0274296 -0.399092 0)
(0.00717877 -0.372629 0)
(0.0624531 -0.394388 0)
(0.053982 -0.579053 0)
(0.0408545 -0.578559 0)
(0.00836284 -0.51011 0)
(0.021389 -0.422965 0)
(-0.021478 -0.371876 0)
(-0.00533343 -0.440329 0)
(-0.0113895 -0.521304 0)
(-0.0187749 -0.556012 0)
(-0.0490848 -0.425484 0)
(0.00657028 -0.351679 0)
(0.0228159 -0.378626 0)
(0.0335889 -0.380087 0)
(0.0346288 -0.369241 0)
(0.0311586 -0.358827 0)
(0.0254328 -0.350329 0)
(0.018469 -0.342018 0)
(0.0114006 -0.334453 0)
(0.00488365 -0.328864 0)
(-0.00084764 -0.325415 0)
(-0.00630996 -0.326165 0)
(-0.0121978 -0.329494 0)
(-0.0187074 -0.336563 0)
(-0.0255288 -0.344925 0)
(-0.03161 -0.354264 0)
(-0.0359904 -0.363731 0)
(-0.0366527 -0.375468 0)
(-0.0342645 -0.385271 0)
(-0.018229 -0.380507 0)
(0.00439269 -0.353863 0)
(0.0643793 -0.405896 0)
(0.0413316 -0.562983 0)
(0.0351428 -0.553041 0)
(0.00781798 -0.47412 0)
(0.0204282 -0.399955 0)
(-0.0204875 -0.344744 0)
(-0.0022174 -0.415499 0)
(-0.0133927 -0.500119 0)
(-0.0220712 -0.530577 0)
(-0.0523482 -0.41683 0)
(-0.010203 -0.319581 0)
(0.0114017 -0.354225 0)
(0.0241549 -0.356754 0)
(0.023583 -0.346298 0)
(0.021202 -0.335833 0)
(0.0168103 -0.327933 0)
(0.0119518 -0.319902 0)
(0.00696409 -0.312835 0)
(0.00243931 -0.306748 0)
(-0.00159646 -0.304096 0)
(-0.00551777 -0.304203 0)
(-0.00981282 -0.307762 0)
(-0.0146217 -0.313822 0)
(-0.0195829 -0.32242 0)
(-0.024299 -0.331863 0)
(-0.0273659 -0.341021 0)
(-0.0282813 -0.353647 0)
(-0.0261614 -0.363947 0)
(-0.0102561 -0.35634 0)
(0.00380237 -0.327275 0)
(0.0615073 -0.415745 0)
(0.0424305 -0.537615 0)
(0.0294652 -0.524525 0)
(0.0103425 -0.449524 0)
(0.0229263 -0.37379 0)
(-0.0213217 -0.323429 0)
(0.000219363 -0.389473 0)
(-0.0200801 -0.485378 0)
(-0.0288652 -0.507774 0)
(-0.0666788 -0.394815 0)
(-0.0385373 -0.290891 0)
(0.00229958 -0.33588 0)
(0.0116553 -0.334029 0)
(0.0130947 -0.321224 0)
(0.0114927 -0.312893 0)
(0.00945213 -0.305413 0)
(0.00635311 -0.298375 0)
(0.00339415 -0.291265 0)
(0.000559157 -0.286039 0)
(-0.00207534 -0.283086 0)
(-0.00476109 -0.283346 0)
(-0.00776776 -0.286154 0)
(-0.0110757 -0.292006 0)
(-0.0145618 -0.299779 0)
(-0.017684 -0.308865 0)
(-0.020019 -0.317754 0)
(-0.0200756 -0.329868 0)
(-0.0186483 -0.340322 0)
(0.000569131 -0.330426 0)
(0.0209824 -0.294494 0)
(0.0589648 -0.419366 0)
(0.0446706 -0.513983 0)
(0.024441 -0.495913 0)
(0.00856736 -0.420155 0)
(0.019427 -0.344501 0)
(-0.0218576 -0.301338 0)
(-0.00153389 -0.375825 0)
(-0.0227898 -0.462045 0)
(-0.0353361 -0.482332 0)
(-0.0749769 -0.378174 0)
(-0.0637426 -0.27578 0)
(-0.00572907 -0.318193 0)
(-0.00121784 -0.31033 0)
(0.00166318 -0.29726 0)
(0.0031006 -0.289975 0)
(0.00266916 -0.283484 0)
(0.00175701 -0.276585 0)
(0.000534698 -0.270393 0)
(-0.00076704 -0.26535 0)
(-0.00226905 -0.262569 0)
(-0.00398821 -0.262489 0)
(-0.00591048 -0.265016 0)
(-0.00793927 -0.270096 0)
(-0.00994225 -0.277338 0)
(-0.011889 -0.285532 0)
(-0.0125467 -0.293793 0)
(-0.0121402 -0.304106 0)
(-0.0092646 -0.316001 0)
(0.0100653 -0.309768 0)
(0.0469583 -0.273886 0)
(0.0601766 -0.414905 0)
(0.0422697 -0.492853 0)
(0.0239041 -0.471192 0)
(0.00598641 -0.389748 0)
(0.017047 -0.320961 0)
(-0.0248419 -0.278641 0)
(-0.00146321 -0.345913 0)
(-0.0181384 -0.431041 0)
(-0.0342659 -0.460041 0)
(-0.0760374 -0.369747 0)
(-0.0787959 -0.264612 0)
(-0.0196117 -0.296548 0)
(-0.0131183 -0.286573 0)
(-0.00877343 -0.274634 0)
(-0.0045318 -0.267605 0)
(-0.00292993 -0.262135 0)
(-0.00194041 -0.255108 0)
(-0.0015118 -0.249166 0)
(-0.00156752 -0.244454 0)
(-0.00217787 -0.241834 0)
(-0.00314586 -0.24167 0)
(-0.00421153 -0.243279 0)
(-0.00506695 -0.248152 0)
(-0.00583366 -0.254295 0)
(-0.00623099 -0.262147 0)
(-0.00574196 -0.269823 0)
(-0.0036105 -0.279004 0)
(0.00119082 -0.291109 0)
(0.0169489 -0.289694 0)
(0.071759 -0.264214 0)
(0.0698667 -0.394598 0)
(0.0469196 -0.471332 0)
(0.0288966 -0.451217 0)
(0.00775098 -0.375387 0)
(0.0161537 -0.297998 0)
(-0.0295168 -0.251079 0)
(-0.0034103 -0.319016 0)
(-0.0168687 -0.4023 0)
(-0.0306605 -0.437115 0)
(-0.0781313 -0.356551 0)
(-0.0914996 -0.254198 0)
(-0.0337798 -0.274911 0)
(-0.02241 -0.264778 0)
(-0.0178919 -0.252143 0)
(-0.0108764 -0.246376 0)
(-0.00719417 -0.240016 0)
(-0.00455597 -0.233985 0)
(-0.00277067 -0.227777 0)
(-0.00185431 -0.223081 0)
(-0.00181454 -0.220795 0)
(-0.00223798 -0.220073 0)
(-0.00263223 -0.221752 0)
(-0.00255555 -0.22556 0)
(-0.00210121 -0.231386 0)
(-0.00113965 -0.238643 0)
(0.000718424 -0.245363 0)
(0.00445726 -0.254689 0)
(0.0110283 -0.265751 0)
(0.0266826 -0.264412 0)
(0.0877274 -0.254783 0)
(0.0826474 -0.380033 0)
(0.0586653 -0.442723 0)
(0.0349916 -0.426597 0)
(0.00804777 -0.35174 0)
(0.0162376 -0.278131 0)
(-0.0337779 -0.216688 0)
(-0.00420906 -0.286262 0)
(-0.0155642 -0.368182 0)
(-0.0323185 -0.403525 0)
(-0.0841681 -0.3385 0)
(-0.101165 -0.242409 0)
(-0.0437401 -0.250321 0)
(-0.0301127 -0.243037 0)
(-0.0246947 -0.230605 0)
(-0.0156176 -0.22329 0)
(-0.0100083 -0.218219 0)
(-0.00611884 -0.211731 0)
(-0.00326261 -0.205965 0)
(-0.00167244 -0.201478 0)
(-0.001192 -0.199063 0)
(-0.00129642 -0.198529 0)
(-0.00119033 -0.199898 0)
(-0.000376044 -0.202837 0)
(0.00111814 -0.208652 0)
(0.00342693 -0.214495 0)
(0.00635834 -0.220925 0)
(0.0123197 -0.22901 0)
(0.0185544 -0.241281 0)
(0.0361432 -0.235609 0)
(0.0986809 -0.242895 0)
(0.0850223 -0.365811 0)
(0.0608806 -0.418909 0)
(0.0358551 -0.400928 0)
(0.00951516 -0.329495 0)
(0.0191442 -0.257164 0)
(-0.0378001 -0.17553 0)
(-0.00407503 -0.249411 0)
(-0.01435 -0.333558 0)
(-0.0294135 -0.374802 0)
(-0.0797457 -0.325055 0)
(-0.106765 -0.229839 0)
(-0.0517741 -0.224412 0)
(-0.0355322 -0.221968 0)
(-0.0287711 -0.208523 0)
(-0.0187415 -0.200486 0)
(-0.0115032 -0.194827 0)
(-0.00664639 -0.188681 0)
(-0.00311742 -0.182985 0)
(-0.00108099 -0.178905 0)
(-0.00040215 -0.176895 0)
(-0.000313221 -0.176538 0)
(0.000134983 -0.176785 0)
(0.00148209 -0.179717 0)
(0.00388158 -0.184309 0)
(0.00714277 -0.190169 0)
(0.0116179 -0.195467 0)
(0.0189612 -0.204039 0)
(0.0248424 -0.21538 0)
(0.0447096 -0.204825 0)
(0.102899 -0.229644 0)
(0.07916 -0.349316 0)
(0.0641178 -0.389444 0)
(0.0361292 -0.370982 0)
(0.0100934 -0.301772 0)
(0.0231426 -0.23218 0)
(-0.0421642 -0.125853 0)
(-0.00333604 -0.207495 0)
(-0.0105539 -0.294514 0)
(-0.0262543 -0.342125 0)
(-0.0737454 -0.308657 0)
(-0.110793 -0.217928 0)
(-0.0597089 -0.199664 0)
(-0.0387101 -0.198583 0)
(-0.0299454 -0.186268 0)
(-0.0205546 -0.176752 0)
(-0.0118092 -0.170753 0)
(-0.00633472 -0.164095 0)
(-0.00241553 -0.15903 0)
(-0.000220055 -0.155267 0)
(0.000522225 -0.153756 0)
(0.000704233 -0.152838 0)
(0.00131439 -0.15267 0)
(0.00305921 -0.155059 0)
(0.00612246 -0.159019 0)
(0.0102589 -0.164396 0)
(0.0163628 -0.169607 0)
(0.0245091 -0.17758 0)
(0.0308187 -0.188497 0)
(0.056469 -0.173028 0)
(0.100153 -0.217515 0)
(0.0659214 -0.333661 0)
(0.060422 -0.362834 0)
(0.0326386 -0.339955 0)
(0.00961392 -0.27105 0)
(0.0281647 -0.201391 0)
(-0.0313727 -0.0766688 0)
(-0.00477193 -0.15857 0)
(-0.00674054 -0.25267 0)
(-0.0214799 -0.307584 0)
(-0.0648705 -0.289634 0)
(-0.113338 -0.205579 0)
(-0.0682492 -0.17525 0)
(-0.0401156 -0.172606 0)
(-0.0292573 -0.161676 0)
(-0.0210004 -0.152069 0)
(-0.0112044 -0.144746 0)
(-0.00540628 -0.138689 0)
(-0.00136373 -0.133399 0)
(0.000822168 -0.130539 0)
(0.00151749 -0.129087 0)
(0.00165463 -0.127955 0)
(0.0023478 -0.127922 0)
(0.0043525 -0.129345 0)
(0.00799625 -0.13287 0)
(0.0128955 -0.137889 0)
(0.0208191 -0.142515 0)
(0.0290743 -0.150512 0)
(0.0379997 -0.160438 0)
(0.0748789 -0.1483 0)
(0.0962325 -0.203736 0)
(0.0585357 -0.312347 0)
(0.0559144 -0.33218 0)
(0.0291684 -0.305432 0)
(0.00871608 -0.235181 0)
(0.0336125 -0.162458 0)
(-0.0140905 -0.0498062 0)
(-0.00921458 -0.118106 0)
(-0.00272797 -0.204394 0)
(-0.0148381 -0.268741 0)
(-0.053366 -0.266338 0)
(-0.115159 -0.192029 0)
(-0.0759435 -0.149858 0)
(-0.040189 -0.144723 0)
(-0.0274446 -0.135207 0)
(-0.0201295 -0.124802 0)
(-0.0102581 -0.116992 0)
(-0.00405716 -0.111159 0)
(-0.000158763 -0.106623 0)
(0.00186947 -0.104052 0)
(0.00244992 -0.103148 0)
(0.00248538 -0.102484 0)
(0.00320641 -0.102122 0)
(0.00544425 -0.10283 0)
(0.00950527 -0.10592 0)
(0.0153148 -0.109934 0)
(0.0245669 -0.114967 0)
(0.0331484 -0.122287 0)
(0.0447406 -0.131244 0)
(0.091241 -0.130141 0)
(0.0943892 -0.19289 0)
(0.0534508 -0.287429 0)
(0.0475453 -0.30026 0)
(0.0232148 -0.266745 0)
(0.00673198 -0.192303 0)
(0.0357462 -0.114827 0)
(-0.00397998 -0.0401342 0)
(-0.00615966 -0.100922 0)
(-0.00168862 -0.162164 0)
(-0.00650544 -0.223159 0)
(-0.03976 -0.237417 0)
(-0.116433 -0.177392 0)
(-0.0814794 -0.127729 0)
(-0.0424889 -0.113713 0)
(-0.0253548 -0.105695 0)
(-0.0179802 -0.0957826 0)
(-0.00899096 -0.0869787 0)
(-0.00283435 -0.0815785 0)
(0.000936204 -0.0780161 0)
(0.00275982 -0.0762968 0)
(0.00316484 -0.0760813 0)
(0.00314753 -0.075773 0)
(0.00391833 -0.0748673 0)
(0.00632064 -0.0752392 0)
(0.0108133 -0.0773163 0)
(0.0173852 -0.081005 0)
(0.027659 -0.086211 0)
(0.0360813 -0.0941476 0)
(0.0525911 -0.100109 0)
(0.102955 -0.110434 0)
(0.0891761 -0.183549 0)
(0.0436467 -0.260923 0)
(0.0367272 -0.266265 0)
(0.0150762 -0.223958 0)
(0.00549031 -0.144011 0)
(0.0247895 -0.0703475 0)
(0.00217863 -0.0396878 0)
(0.00120047 -0.096931 0)
(0.0013359 -0.143769 0)
(0.00207538 -0.181946 0)
(-0.0225036 -0.202601 0)
(-0.11843 -0.159464 0)
(-0.0883303 -0.104507 0)
(-0.0440975 -0.0818319 0)
(-0.0234377 -0.0736757 0)
(-0.0152898 -0.0635631 0)
(-0.00812898 -0.0551476 0)
(-0.00195027 -0.0501891 0)
(0.00158484 -0.0475646 0)
(0.0032492 -0.0471058 0)
(0.00359401 -0.0475574 0)
(0.00359912 -0.047299 0)
(0.00444956 -0.0463992 0)
(0.00709351 -0.046068 0)
(0.0119771 -0.0475934 0)
(0.0192614 -0.0506613 0)
(0.0299625 -0.0564769 0)
(0.0387744 -0.0641033 0)
(0.0622514 -0.069316 0)
(0.110872 -0.0894719 0)
(0.080733 -0.168698 0)
(0.0337068 -0.230876 0)
(0.025237 -0.229946 0)
(0.00750611 -0.177217 0)
(0.00620368 -0.104105 0)
(0.0116051 -0.0449866 0)
(0.00940929 -0.041983 0)
(0.00814647 -0.0974866 0)
(0.00446705 -0.136262 0)
(0.00307979 -0.158193 0)
(-0.0180048 -0.164154 0)
(-0.119404 -0.138647 0)
(-0.0862768 -0.0820031 0)
(-0.0508289 -0.0464696 0)
(-0.0222156 -0.0370474 0)
(-0.0138884 -0.028352 0)
(-0.00741671 -0.0207675 0)
(-0.00208991 -0.0167815 0)
(0.00145464 -0.0156149 0)
(0.00318158 -0.0162791 0)
(0.00362213 -0.0174954 0)
(0.00379006 -0.0174979 0)
(0.00486153 -0.0164809 0)
(0.00783047 -0.0156343 0)
(0.0132201 -0.0164248 0)
(0.0210737 -0.0189857 0)
(0.0321862 -0.0249119 0)
(0.0425349 -0.0314645 0)
(0.073824 -0.0382979 0)
(0.116727 -0.0664038 0)
(0.0691105 -0.148437 0)
(0.0234679 -0.197957 0)
(0.0139022 -0.190324 0)
(0.0034424 -0.13658 0)
(0.00541358 -0.083303 0)
(0.00452502 -0.0336629 0)
(0.0199856 -0.0661294 0)
(0.0130055 -0.100883 0)
(0.00598286 -0.132276 0)
(-0.00407574 -0.145845 0)
(-0.0424059 -0.141684 0)
(-0.092666 -0.113796 0)
(-0.0967914 -0.0633399 0)
(-0.0552594 -0.0140404 0)
(-0.0253652 0.00489875 0)
(-0.014359 0.0109901 0)
(-0.00876769 0.0164266 0)
(-0.0033518 0.0184618 0)
(0.000311357 0.0182104 0)
(0.00240709 0.0160069 0)
(0.00321201 0.0140375 0)
(0.0037255 0.0136778 0)
(0.00518138 0.0149171 0)
(0.00870128 0.016229 0)
(0.0146369 0.0162629 0)
(0.0233926 0.0141746 0)
(0.0347419 0.00876539 0)
(0.0489655 0.0041718 0)
(0.085793 -0.00671673 0)
(0.123017 -0.0410931 0)
(0.0568682 -0.123911 0)
(0.0139732 -0.163778 0)
(0.00615425 -0.152419 0)
(0.00290907 -0.113539 0)
(0.00394065 -0.0740215 0)
(0.00141523 -0.0290678 0)
(0.00624294 -0.222673 0)
(0.0188742 -0.108761 0)
(-0.000506452 -0.138449 0)
(-0.0402344 -0.150936 0)
(-0.0698324 -0.118641 0)
(-0.0646385 -0.100603 0)
(-0.0695729 -0.0619059 0)
(-0.0729889 0.0204635 0)
(-0.0331037 0.0489816 0)
(-0.019712 0.0519743 0)
(-0.0127567 0.0548831 0)
(-0.00645018 0.0552584 0)
(-0.00201447 0.0532344 0)
(0.000908063 0.0499337 0)
(0.00240957 0.0473074 0)
(0.00344793 0.0465868 0)
(0.00548043 0.0477884 0)
(0.00973738 0.0496919 0)
(0.0164576 0.050299 0)
(0.0266967 0.0491032 0)
(0.0382626 0.0446227 0)
(0.0597459 0.0408446 0)
(0.097574 0.0249286 0)
(0.130211 -0.0109989 0)
(0.0459284 -0.096235 0)
(0.00740897 -0.131174 0)
(0.00544063 -0.124797 0)
(0.00493567 -0.101003 0)
(0.00399105 -0.06992 0)
(0.00103584 -0.0281345 0)
(-0.00234288 -0.221181 0)
(-0.00690526 -0.21655 0)
(-0.0228395 -0.179611 0)
(-0.0433778 -0.134809 0)
(-0.0481275 -0.107284 0)
(-0.0468454 -0.0827937 0)
(-0.0557153 -0.0397341 0)
(-0.0789941 0.0509102 0)
(-0.0516605 0.0913307 0)
(-0.0290793 0.0948893 0)
(-0.020166 0.0949156 0)
(-0.0112327 0.0931341 0)
(-0.00525152 0.0896285 0)
(-0.00121755 0.0854579 0)
(0.00115551 0.0826027 0)
(0.00305912 0.0815732 0)
(0.005909 0.0824593 0)
(0.0110723 0.0844649 0)
(0.0189326 0.0860176 0)
(0.0312009 0.0853395 0)
(0.0443537 0.0827513 0)
(0.074326 0.0765433 0)
(0.10888 0.0574409 0)
(0.138805 0.0244135 0)
(0.0409102 -0.0660606 0)
(0.0088348 -0.103108 0)
(0.0116606 -0.106528 0)
(0.0108682 -0.0940085 0)
(0.00649794 -0.0688752 0)
(0.00100118 -0.0285335 0)
(-0.00338912 -0.192705 0)
(-0.00605544 -0.182365 0)
(-0.0223545 -0.151094 0)
(-0.0330429 -0.118949 0)
(-0.0393209 -0.0927699 0)
(-0.0396643 -0.0643561 0)
(-0.0603024 -0.0121305 0)
(-0.0947816 0.0889764 0)
(-0.0752626 0.131916 0)
(-0.0428574 0.137971 0)
(-0.0290682 0.134985 0)
(-0.017835 0.131581 0)
(-0.00946808 0.127227 0)
(-0.0041201 0.122871 0)
(-0.000521799 0.119932 0)
(0.00270618 0.118788 0)
(0.00684075 0.11935 0)
(0.0131309 0.121062 0)
(0.0225332 0.122995 0)
(0.0370263 0.122983 0)
(0.053608 0.121696 0)
(0.0909427 0.111328 0)
(0.120211 0.0934413 0)
(0.147771 0.0639836 0)
(0.0528198 -0.0326219 0)
(0.0226661 -0.0816598 0)
(0.0248036 -0.0946812 0)
(0.0214725 -0.0910089 0)
(0.00997368 -0.0711185 0)
(-0.0042559 -0.0282015 0)
(-0.00456028 -0.160778 0)
(-0.00698361 -0.152681 0)
(-0.01968 -0.12649 0)
(-0.0297582 -0.102737 0)
(-0.0363526 -0.0777728 0)
(-0.0399114 -0.0422242 0)
(-0.071537 0.0287649 0)
(-0.125716 0.132589 0)
(-0.0968909 0.172708 0)
(-0.0604736 0.178176 0)
(-0.0402539 0.174679 0)
(-0.0261212 0.170834 0)
(-0.0151744 0.16624 0)
(-0.00801624 0.161866 0)
(-0.00251564 0.158967 0)
(0.00254795 0.157777 0)
(0.00858163 0.158274 0)
(0.0165325 0.159761 0)
(0.0279357 0.16157 0)
(0.04468 0.16164 0)
(0.0666947 0.160659 0)
(0.10797 0.14706 0)
(0.131113 0.132403 0)
(0.153982 0.104176 0)
(0.0955622 0.0101582 0)
(0.0515982 -0.0684278 0)
(0.0448483 -0.0888732 0)
(0.0403573 -0.0948025 0)
(0.0254559 -0.0846891 0)
(-0.0288096 -0.0485356 0)
(-0.00624874 -0.130585 0)
(-0.0101141 -0.127917 0)
(-0.0207108 -0.109511 0)
(-0.0306505 -0.0884686 0)
(-0.0381982 -0.0620918 0)
(-0.0482528 -0.0182651 0)
(-0.0857199 0.082608 0)
(-0.149559 0.174761 0)
(-0.11751 0.211047 0)
(-0.0800874 0.216417 0)
(-0.0536854 0.214662 0)
(-0.0360905 0.210564 0)
(-0.0223363 0.206101 0)
(-0.012641 0.201802 0)
(-0.00468819 0.19898 0)
(0.00277665 0.197798 0)
(0.0111928 0.198284 0)
(0.0214823 0.199731 0)
(0.0356034 0.201136 0)
(0.0547026 0.201111 0)
(0.0832388 0.199221 0)
(0.122851 0.184914 0)