/*--------------------------------*- C++ -*----------------------------------*\
| =========                 |                                                 |
| \\      /  F ield         | OpenFOAM: The Open Source CFD Toolbox           |
|  \\    /   O peration     | Version:  2.3.0                                 |
|   \\  /    A nd           | Web:      www.OpenFOAM.org                      |
|    \\/     M anipulation  |                                                 |
\*---------------------------------------------------------------------------*/
FoamFile
{
    version     2.0;
    format      ascii;
    class       volVectorField;
    location    "47";
    object      U.airMean;
}
// * * * * * * * * * * * * * * * * * * * * * * * * * * * * * * * * * * * * * //

dimensions      [0 1 -1 0 0 0 0];

internalField   nonuniform List<vector> 
1875
(
(0.0648106 0.04911 0)
(0.135637 0.0522971 0)
(0.220356 0.0665299 0)
(0.267785 0.084165 0)
(0.28858 0.103313 0)
(0.287961 0.120817 0)
(0.271421 0.134411 0)
(0.244136 0.146608 0)
(0.20997 0.155261 0)
(0.171328 0.16105 0)
(0.128581 0.165929 0)
(0.0841267 0.167302 0)
(0.0391583 0.16627 0)
(-0.00492317 0.163199 0)
(-0.0496371 0.159424 0)
(-0.0968126 0.156254 0)
(-0.145854 0.151013 0)
(-0.19254 0.143467 0)
(-0.231366 0.134316 0)
(-0.257192 0.121983 0)
(-0.265633 0.107299 0)
(-0.253279 0.0901244 0)
(-0.213602 0.0726621 0)
(-0.136599 0.055671 0)
(-0.0667698 0.0486808 0)
(0.054772 0.0950418 0)
(0.121264 0.133744 0)
(0.17857 0.194084 0)
(0.207061 0.247356 0)
(0.21531 0.294895 0)
(0.210491 0.33863 0)
(0.196114 0.374292 0)
(0.175061 0.40466 0)
(0.1521 0.431824 0)
(0.127683 0.453041 0)
(0.101665 0.466232 0)
(0.0751797 0.473249 0)
(0.0467799 0.476132 0)
(0.0169973 0.474605 0)
(-0.0146343 0.472254 0)
(-0.0481923 0.465456 0)
(-0.0824061 0.452181 0)
(-0.117323 0.430467 0)
(-0.148849 0.400677 0)
(-0.172347 0.363906 0)
(-0.183557 0.321502 0)
(-0.181561 0.277093 0)
(-0.160717 0.223713 0)
(-0.113663 0.157169 0)
(-0.0526819 0.109828 0)
(0.0302614 -0.07392 0)
(0.0643455 -0.00632268 0)
(0.0849467 0.0674268 0)
(0.0961118 0.133287 0)
(0.0990725 0.193631 0)
(0.0973151 0.248877 0)
(0.0932449 0.299559 0)
(0.0871782 0.342532 0)
(0.0812526 0.378227 0)
(0.0743062 0.408955 0)
(0.0652407 0.43048 0)
(0.0540253 0.440317 0)
(0.0405 0.443125 0)
(0.0258059 0.438351 0)
(0.010404 0.429716 0)
(-0.00409218 0.41391 0)
(-0.0200749 0.389583 0)
(-0.0347143 0.357679 0)
(-0.0491275 0.316583 0)
(-0.0594892 0.269069 0)
(-0.065949 0.220043 0)
(-0.0695826 0.172787 0)
(-0.0655049 0.116914 0)
(-0.0562998 0.0377738 0)
(-0.0269528 -0.0424716 0)
(0.0149735 -0.105383 0)
(0.0326812 -0.0139991 0)
(0.0365468 0.067418 0)
(0.038207 0.139312 0)
(0.038088 0.204793 0)
(0.0361495 0.264882 0)
(0.0334454 0.318288 0)
(0.0300632 0.36389 0)
(0.0292152 0.401923 0)
(0.0302841 0.434096 0)
(0.0323348 0.45743 0)
(0.0341111 0.471754 0)
(0.0333543 0.478132 0)
(0.0308787 0.47514 0)
(0.0278568 0.467184 0)
(0.0242287 0.454092 0)
(0.0193515 0.432279 0)
(0.0133011 0.399273 0)
(0.00496674 0.357192 0)
(-0.00548072 0.306309 0)
(-0.0146082 0.250473 0)
(-0.0217216 0.192831 0)
(-0.0245365 0.126558 0)
(-0.0276771 0.0398339 0)
(-0.0129952 -0.0674519 0)
(0.00645784 -0.125205 0)
(0.0144526 -0.0311484 0)
(0.0101336 0.0517019 0)
(0.00283883 0.121432 0)
(-0.00436782 0.182099 0)
(-0.0108341 0.239672 0)
(-0.0154836 0.293096 0)
(-0.0184256 0.33698 0)
(-0.0179511 0.372971 0)
(-0.0135319 0.402589 0)
(-0.00569682 0.424773 0)
(0.00285081 0.442439 0)
(0.0104718 0.450811 0)
(0.0180569 0.450219 0)
(0.0256145 0.44162 0)
(0.0331094 0.427287 0)
(0.0394048 0.403615 0)
(0.04268 0.373383 0)
(0.0406253 0.335086 0)
(0.0334476 0.290258 0)
(0.0221433 0.239038 0)
(0.0100595 0.186787 0)
(-0.000868665 0.122607 0)
(-0.00898988 0.0343832 0)
(-0.00423675 -0.0777227 0)
(0.00351174 -0.116434 0)
(0.00545576 -0.0113967 0)
(-0.00428494 0.0816956 0)
(-0.0167186 0.153333 0)
(-0.0310078 0.206515 0)
(-0.0446106 0.253636 0)
(-0.0528499 0.296845 0)
(-0.0572463 0.335178 0)
(-0.0569235 0.36422 0)
(-0.0515334 0.386966 0)
(-0.0422141 0.404957 0)
(-0.029521 0.4205 0)
(-0.0147249 0.428498 0)
(0.00163301 0.42629 0)
(0.0178159 0.419799 0)
(0.0328816 0.407887 0)
(0.0452412 0.391405 0)
(0.0531406 0.369548 0)
(0.0542778 0.342938 0)
(0.0488822 0.310303 0)
(0.0368533 0.27197 0)
(0.0217225 0.227219 0)
(0.00803127 0.162575 0)
(-0.00178675 0.0656621 0)
(-0.00142574 -0.061263 0)
(-0.000460623 -0.101765 0)
(-0.002174 0.00369076 0)
(-0.0154517 0.102962 0)
(-0.0261692 0.180524 0)
(-0.0430962 0.231133 0)
(-0.0584227 0.270062 0)
(-0.0698381 0.302939 0)
(-0.0764926 0.329736 0)
(-0.0771431 0.348887 0)
(-0.0726855 0.364014 0)
(-0.0638018 0.37583 0)
(-0.0502794 0.383966 0)
(-0.0328846 0.386895 0)
(-0.014128 0.384439 0)
(0.00434764 0.379822 0)
(0.0212473 0.372624 0)
(0.0351776 0.362246 0)
(0.044057 0.351027 0)
(0.0469253 0.336522 0)
(0.0430264 0.317907 0)
(0.0325309 0.291009 0)
(0.018127 0.254352 0)
(0.00833907 0.185226 0)
(0.00143541 0.08315 0)
(0.00116505 -0.0464269 0)
(-0.0013027 -0.0804279 0)
(-0.00610984 0.0299769 0)
(-0.0192961 0.135131 0)
(-0.02743 0.220452 0)
(-0.0430422 0.271107 0)
(-0.0581888 0.300512 0)
(-0.0712129 0.321139 0)
(-0.0774829 0.337158 0)
(-0.0788358 0.346768 0)
(-0.0746407 0.352047 0)
(-0.0659088 0.354947 0)
(-0.0538144 0.356068 0)
(-0.0379665 0.355327 0)
(-0.0212218 0.353223 0)
(-0.00487096 0.350911 0)
(0.00992711 0.348407 0)
(0.0218519 0.346263 0)
(0.0291858 0.343822 0)
(0.0317895 0.340829 0)
(0.0281508 0.337009 0)
(0.0179722 0.325899 0)
(0.00651312 0.291597 0)
(-0.000148749 0.215078 0)
(-0.000609307 0.100602 0)
(-0.00100684 -0.0338608 0)
(-0.00242426 -0.0624803 0)
(-0.00650271 0.0495072 0)
(-0.0180261 0.154918 0)
(-0.0211762 0.245901 0)
(-0.0313063 0.301836 0)
(-0.043511 0.327599 0)
(-0.055099 0.339883 0)
(-0.0616789 0.342548 0)
(-0.0640429 0.340152 0)
(-0.0616721 0.336632 0)
(-0.0558028 0.333502 0)
(-0.0461348 0.327743 0)
(-0.0336287 0.32252 0)
(-0.0205646 0.320103 0)
(-0.0091758 0.320648 0)
(0.000488081 0.323564 0)
(0.00797634 0.328597 0)
(0.0122494 0.33602 0)
(0.0119351 0.344231 0)
(0.00730374 0.351385 0)
(-0.000538188 0.346302 0)
(-0.00690164 0.310368 0)
(-0.00711112 0.223788 0)
(-0.0043695 0.1044 0)
(-0.00213862 -0.0320241 0)
(-0.00136928 -0.0470835 0)
(-0.00271459 0.067024 0)
(-0.0109109 0.172173 0)
(-0.011555 0.265813 0)
(-0.0153422 0.329803 0)
(-0.0236649 0.356055 0)
(-0.0314171 0.360544 0)
(-0.0373326 0.35479 0)
(-0.0408852 0.344514 0)
(-0.0414761 0.332879 0)
(-0.039285 0.32057 0)
(-0.034176 0.308487 0)
(-0.0279762 0.301346 0)
(-0.0198801 0.300729 0)
(-0.0128874 0.305361 0)
(-0.00651219 0.311908 0)
(-0.00360961 0.322213 0)
(-0.00347199 0.336724 0)
(-0.00689542 0.352786 0)
(-0.0128061 0.365295 0)
(-0.0183693 0.361554 0)
(-0.0206753 0.318516 0)
(-0.0146126 0.22408 0)
(-0.00947553 0.102846 0)
(-0.00312319 -0.0358753 0)
(0.00051031 -0.0420926 0)
(0.00203302 0.0730605 0)
(-0.00173241 0.178196 0)
(-0.000876824 0.272508 0)
(-0.00122695 0.34234 0)
(-0.00375454 0.372841 0)
(-0.00874877 0.375657 0)
(-0.0127284 0.364792 0)
(-0.0157764 0.348787 0)
(-0.0177241 0.331211 0)
(-0.0177783 0.314375 0)
(-0.0180969 0.299994 0)
(-0.0186446 0.28751 0)
(-0.0164362 0.282888 0)
(-0.0137956 0.286295 0)
(-0.0100304 0.298559 0)
(-0.00981613 0.316269 0)
(-0.0130784 0.338708 0)
(-0.019438 0.360771 0)
(-0.0262677 0.3763 0)
(-0.0308892 0.367153 0)
(-0.0286375 0.311774 0)
(-0.0193877 0.209791 0)
(-0.0123467 0.0888973 0)
(-0.0031354 -0.0483399 0)
(0.00213804 -0.042107 0)
(0.00596124 0.0732954 0)
(0.00471942 0.179066 0)
(0.00758144 0.273313 0)
(0.00936686 0.346257 0)
(0.0101996 0.382815 0)
(0.00812414 0.388123 0)
(0.00538358 0.375307 0)
(0.00373682 0.35742 0)
(0.00214392 0.336402 0)
(0.000932284 0.316126 0)
(-0.00162214 0.299257 0)
(-0.00501182 0.285017 0)
(-0.00774018 0.277859 0)
(-0.0110445 0.281968 0)
(-0.0130535 0.295652 0)
(-0.0160191 0.318736 0)
(-0.0189702 0.34634 0)
(-0.02603 0.372676 0)
(-0.0318182 0.385596 0)
(-0.0345162 0.367234 0)
(-0.0288882 0.297114 0)
(-0.0197684 0.192875 0)
(-0.0122374 0.0711026 0)
(-0.00367334 -0.0611813 0)
(0.0030085 -0.0477724 0)
(0.00769538 0.0685701 0)
(0.00802112 0.172633 0)
(0.01133 0.265287 0)
(0.0154086 0.341252 0)
(0.0178989 0.383264 0)
(0.0189701 0.393974 0)
(0.0174982 0.381597 0)
(0.0155509 0.360423 0)
(0.0143073 0.336437 0)
(0.0124645 0.316008 0)
(0.00983664 0.299553 0)
(0.00656987 0.284926 0)
(0.000563635 0.280065 0)
(-0.00694487 0.285115 0)
(-0.0126293 0.298755 0)
(-0.0168625 0.321731 0)
(-0.0201912 0.351968 0)
(-0.0255959 0.381182 0)
(-0.0301153 0.389588 0)
(-0.029437 0.359257 0)
(-0.0219075 0.278735 0)
(-0.0151827 0.175171 0)
(-0.00949984 0.0554721 0)
(-0.00355794 -0.0712761 0)
(0.00290742 -0.0547604 0)
(0.00793415 0.0631994 0)
(0.00972073 0.165502 0)
(0.0129023 0.255358 0)
(0.0179183 0.330539 0)
(0.0224762 0.377936 0)
(0.0253409 0.3928 0)
(0.0263984 0.386122 0)
(0.0250986 0.365466 0)
(0.0224416 0.341622 0)
(0.0193434 0.319131 0)
(0.0167323 0.30044 0)
(0.0135916 0.289066 0)
(0.00779133 0.290112 0)
(-0.000291009 0.295793 0)
(-0.00705294 0.308353 0)
(-0.0138024 0.32929 0)
(-0.0188914 0.359551 0)
(-0.0231473 0.389151 0)
(-0.0252876 0.389391 0)
(-0.0219616 0.346203 0)
(-0.0155414 0.262866 0)
(-0.0112956 0.164327 0)
(-0.00789055 0.0487101 0)
(-0.00374212 -0.0776276 0)
(0.00256991 -0.0624107 0)
(0.00717016 0.0557856 0)
(0.0095123 0.156647 0)
(0.0125256 0.243926 0)
(0.015859 0.315666 0)
(0.0210893 0.366443 0)
(0.0251625 0.385381 0)
(0.0285604 0.382157 0)
(0.0294333 0.367786 0)
(0.02857 0.343869 0)
(0.0258759 0.322276 0)
(0.0220831 0.303318 0)
(0.0185327 0.29225 0)
(0.0144878 0.295819 0)
(0.00777141 0.304571 0)
(0.000145716 0.320262 0)
(-0.00902261 0.34186 0)
(-0.0154782 0.369823 0)
(-0.0193811 0.391115 0)
(-0.0186652 0.383217 0)
(-0.014725 0.334738 0)
(-0.0102845 0.25239 0)
(-0.00908344 0.159302 0)
(-0.00685621 0.0451217 0)
(-0.00348314 -0.0832394 0)
(0.00180443 -0.0676061 0)
(0.00571182 0.0509126 0)
(0.00685739 0.150866 0)
(0.00823886 0.237059 0)
(0.00996559 0.305572 0)
(0.0142116 0.35332 0)
(0.0194221 0.376356 0)
(0.0239265 0.375919 0)
(0.0280999 0.363193 0)
(0.0308153 0.34424 0)
(0.0283144 0.327267 0)
(0.0248258 0.309422 0)
(0.0201784 0.299436 0)
(0.0151122 0.304872 0)
(0.00886594 0.318774 0)
(0.00150515 0.336438 0)
(-0.0054103 0.356156 0)
(-0.00968927 0.378151 0)
(-0.0124642 0.39184 0)
(-0.0107238 0.375277 0)
(-0.00604802 0.323786 0)
(-0.00451979 0.249535 0)
(-0.0060142 0.1605 0)
(-0.00488624 0.0447316 0)
(-0.00231367 -0.0851618 0)
(0.000966903 -0.0694814 0)
(0.00362685 0.0492117 0)
(0.00436959 0.149967 0)
(0.00435312 0.233382 0)
(0.00518285 0.297344 0)
(0.0074928 0.341905 0)
(0.0129237 0.364118 0)
(0.0179386 0.364365 0)
(0.0230013 0.352879 0)
(0.0262254 0.340965 0)
(0.0256057 0.328749 0)
(0.0226212 0.314096 0)
(0.0184015 0.30735 0)
(0.0124157 0.313756 0)
(0.00717129 0.327746 0)
(0.00209701 0.345648 0)
(-0.00235649 0.363201 0)
(-0.00482345 0.382208 0)
(-0.00484496 0.389126 0)
(-0.00167598 0.36661 0)
(0.00074152 0.319378 0)
(0.000223145 0.253117 0)
(-0.00104332 0.163554 0)
(-0.00230186 0.0472525 0)
(-0.00132796 -0.0834709 0)
(0.000886315 -0.0696527 0)
(0.00307092 0.0495211 0)
(0.004246 0.152276 0)
(0.00476442 0.233641 0)
(0.00521157 0.294224 0)
(0.00688824 0.333692 0)
(0.0114695 0.35343 0)
(0.0154235 0.356279 0)
(0.0183479 0.348081 0)
(0.0188012 0.337589 0)
(0.0188411 0.327174 0)
(0.0157554 0.315655 0)
(0.0125808 0.311435 0)
(0.0078123 0.321254 0)
(0.00287893 0.336612 0)
(-0.00162021 0.354528 0)
(-0.00457001 0.369907 0)
(-0.00498608 0.38181 0)
(-0.00151578 0.382753 0)
(0.00193299 0.361967 0)
(0.00371462 0.318709 0)
(0.00329082 0.255988 0)
(0.00294028 0.168184 0)
(-0.00066977 0.0539628 0)
(-0.000944005 -0.0780584 0)
(0.00167522 -0.0710562 0)
(0.00415337 0.0478911 0)
(0.00575987 0.151201 0)
(0.0083996 0.233214 0)
(0.0105922 0.290187 0)
(0.0131132 0.326382 0)
(0.0158896 0.345624 0)
(0.0177106 0.350273 0)
(0.0175799 0.344296 0)
(0.0154025 0.334328 0)
(0.0127555 0.324215 0)
(0.0074525 0.315705 0)
(0.00158991 0.313352 0)
(-0.003525 0.325455 0)
(-0.00713391 0.34285 0)
(-0.0103761 0.357893 0)
(-0.0106828 0.371604 0)
(-0.00806826 0.37834 0)
(-0.00374987 0.375753 0)
(0.000518655 0.357641 0)
(0.00375456 0.318212 0)
(0.00396913 0.259612 0)
(0.00391201 0.173272 0)
(-0.000552313 0.0621616 0)
(-0.00117913 -0.0729183 0)
(0.00199608 -0.0739919 0)
(0.0043181 0.0453834 0)
(0.00647587 0.147351 0)
(0.00967581 0.227296 0)
(0.0134848 0.284497 0)
(0.0171606 0.320838 0)
(0.0194255 0.340824 0)
(0.0203797 0.347504 0)
(0.0193004 0.345023 0)
(0.0150765 0.336752 0)
(0.00891983 0.330037 0)
(0.000336493 0.324244 0)
(-0.0087545 0.321913 0)
(-0.0155719 0.329928 0)
(-0.0179568 0.344286 0)
(-0.0187645 0.356576 0)
(-0.016761 0.36541 0)
(-0.012046 0.370144 0)
(-0.00833679 0.369793 0)
(-0.00311688 0.350577 0)
(0.000741357 0.314519 0)
(0.00223834 0.259691 0)
(0.00194477 0.178305 0)
(-0.00170657 0.0692857 0)
(-0.00131914 -0.0696839 0)
(0.00189196 -0.0764801 0)
(0.00344526 0.0428379 0)
(0.00557479 0.143329 0)
(0.00793719 0.220497 0)
(0.0112282 0.276189 0)
(0.0149234 0.312151 0)
(0.0182163 0.334674 0)
(0.0185815 0.344619 0)
(0.0173692 0.346705 0)
(0.0128837 0.344669 0)
(0.0063054 0.341415 0)
(-0.00131175 0.337019 0)
(-0.00922264 0.331833 0)
(-0.0164044 0.333842 0)
(-0.0199815 0.341985 0)
(-0.0200078 0.350827 0)
(-0.0173674 0.356183 0)
(-0.0138208 0.362043 0)
(-0.00955904 0.360237 0)
(-0.00439877 0.342803 0)
(-0.00134984 0.309922 0)
(-0.000473987 0.259613 0)
(-0.000943305 0.182857 0)
(-0.00291938 0.0736284 0)
(-0.00175369 -0.0678487 0)
(0.00139926 -0.0772248 0)
(0.00229109 0.0424582 0)
(0.00322463 0.140069 0)
(0.00537082 0.215081 0)
(0.00741072 0.268238 0)
(0.0104284 0.303567 0)
(0.012069 0.329945 0)
(0.0119935 0.343896 0)
(0.0105503 0.350636 0)
(0.00851922 0.351623 0)
(0.00577889 0.34991 0)
(0.00151012 0.346121 0)
(-0.00328621 0.340384 0)
(-0.00853486 0.34032 0)
(-0.0127199 0.342992 0)
(-0.0134158 0.345886 0)
(-0.0125899 0.349146 0)
(-0.0106927 0.353715 0)
(-0.0067249 0.350524 0)
(-0.00225628 0.335346 0)
(-0.000701716 0.307267 0)
(-0.00102658 0.25932 0)
(-0.00154877 0.184256 0)
(-0.0029604 0.0758595 0)
(-0.00134101 -0.0665238 0)
(0.000252663 -0.0744974 0)
(6.32931e-05 0.0462279 0)
(-1.68799e-05 0.140185 0)
(0.00130929 0.212776 0)
(0.00302326 0.265013 0)
(0.00522597 0.301411 0)
(0.00624453 0.329657 0)
(0.00674778 0.34604 0)
(0.00726747 0.35271 0)
(0.00824139 0.354098 0)
(0.00830998 0.354293 0)
(0.00640122 0.350878 0)
(0.0035734 0.34376 0)
(0.000121596 0.342429 0)
(-0.00265706 0.342897 0)
(-0.00435822 0.344368 0)
(-0.00534758 0.346438 0)
(-0.00439452 0.347653 0)
(-0.00127985 0.343123 0)
(0.00148542 0.32934 0)
(0.00235325 0.305997 0)
(0.000660622 0.261126 0)
(0.000509294 0.185229 0)
(-0.00128293 0.0794597 0)
(-6.17215e-05 -0.0636569 0)
(-0.000269339 -0.0705402 0)
(-0.000855136 0.0512995 0)
(-0.00128454 0.14384 0)
(-0.000609191 0.211925 0)
(0.00155423 0.260958 0)
(0.00440689 0.297886 0)
(0.00672449 0.32587 0)
(0.00931586 0.341974 0)
(0.0121413 0.350532 0)
(0.0139451 0.353927 0)
(0.0145692 0.356196 0)
(0.0127992 0.353782 0)
(0.0106614 0.347569 0)
(0.007568 0.34496 0)
(0.00481515 0.343994 0)
(0.00250708 0.344899 0)
(0.00108334 0.34569 0)
(0.00034994 0.344116 0)
(0.00148637 0.338536 0)
(0.00242087 0.326207 0)
(0.00271898 0.305307 0)
(0.00202923 0.261384 0)
(0.00296839 0.186417 0)
(0.000188364 0.084152 0)
(0.000877125 -0.0580324 0)
(-7.00531e-05 -0.0672346 0)
(-0.000577088 0.0556535 0)
(0.000375991 0.148954 0)
(0.00108993 0.213399 0)
(0.00341687 0.25877 0)
(0.00632812 0.294904 0)
(0.00971461 0.320989 0)
(0.0135428 0.337897 0)
(0.016446 0.347364 0)
(0.0177076 0.353848 0)
(0.0183314 0.358171 0)
(0.0176332 0.356339 0)
(0.0168078 0.349197 0)
(0.0143986 0.347183 0)
(0.0114609 0.346251 0)
(0.0074986 0.346026 0)
(0.00426419 0.346022 0)
(0.00176784 0.343371 0)
(0.0012357 0.336874 0)
(0.00091378 0.324226 0)
(0.00156438 0.303461 0)
(0.00207585 0.260778 0)
(0.00385095 0.189399 0)
(0.000932914 0.0906569 0)
(0.00136401 -0.0509832 0)
(0.000322892 -0.0662808 0)
(0.000764149 0.055908 0)
(0.00295504 0.148734 0)
(0.00538591 0.213397 0)
(0.00762675 0.256796 0)
(0.0102021 0.291166 0)
(0.0136559 0.315062 0)
(0.0171885 0.332705 0)
(0.0195044 0.345757 0)
(0.0202295 0.353203 0)
(0.0215686 0.35625 0)
(0.0222479 0.354429 0)
(0.02229 0.349279 0)
(0.0203085 0.349656 0)
(0.0171267 0.351307 0)
(0.011582 0.352142 0)
(0.00622747 0.350003 0)
(0.00253991 0.344224 0)
(0.000294704 0.335877 0)
(-0.000453534 0.324076 0)
(-0.000285172 0.30215 0)
(0.00130096 0.259897 0)
(0.00273252 0.191947 0)
(0.000828324 0.0956929 0)
(0.00138842 -0.0439731 0)
(0.000711537 -0.0674657 0)
(0.00216121 0.0538199 0)
(0.00452195 0.14577 0)
(0.00809154 0.210997 0)
(0.0111761 0.255701 0)
(0.0138788 0.288571 0)
(0.0172444 0.31122 0)
(0.0201659 0.32846 0)
(0.0223818 0.342075 0)
(0.0235496 0.349577 0)
(0.0244154 0.352452 0)
(0.0247171 0.351837 0)
(0.0242818 0.348915 0)
(0.0218149 0.351813 0)
(0.0178605 0.356144 0)
(0.0126303 0.35888 0)
(0.00734249 0.355536 0)
(0.00262013 0.34912 0)
(-0.00141772 0.339162 0)
(-0.002321 0.325289 0)
(-0.00230476 0.303691 0)
(-0.000383301 0.259553 0)
(0.000781605 0.196243 0)
(3.94434e-05 0.0999613 0)
(0.00126553 -0.037427 0)
(0.000989954 -0.0697695 0)
(0.00252225 0.050371 0)
(0.00469407 0.140937 0)
(0.00848995 0.204233 0)
(0.0125477 0.249968 0)
(0.0161769 0.283512 0)
(0.0195952 0.306361 0)
(0.0223017 0.323928 0)
(0.0244334 0.338721 0)
(0.0254529 0.346905 0)
(0.0260683 0.350466 0)
(0.0255138 0.350687 0)
(0.023381 0.349836 0)
(0.0190595 0.355028 0)
(0.0131817 0.361381 0)
(0.00795974 0.364889 0)
(0.00266298 0.36309 0)
(-0.00207445 0.356736 0)
(-0.00579958 0.344798 0)
(-0.00781075 0.328385 0)
(-0.00713756 0.303271 0)
(-0.00425337 0.258902 0)
(-0.0024356 0.197098 0)
(-0.000663124 0.100801 0)
(0.000758359 -0.0327522 0)
(0.000962233 -0.0714982 0)
(0.00231767 0.0475179 0)
(0.00372988 0.135528 0)
(0.00741515 0.196521 0)
(0.0110765 0.242305 0)
(0.0151146 0.276149 0)
(0.018501 0.30097 0)
(0.0210561 0.319516 0)
(0.0230553 0.334458 0)
(0.0248645 0.343371 0)
(0.0248012 0.349003 0)
(0.0232789 0.351745 0)
(0.019261 0.354995 0)
(0.0129016 0.363498 0)
(0.00542631 0.370015 0)
(-0.000405364 0.372209 0)
(-0.00558323 0.370579 0)
(-0.00928695 0.363735 0)
(-0.0122399 0.351464 0)
(-0.0140409 0.331608 0)
(-0.0124294 0.301277 0)
(-0.00884753 0.25569 0)
(-0.00541804 0.193878 0)
(-0.00165085 0.0985767 0)
(5.83011e-05 -0.0298611 0)
(0.000801615 -0.0721675 0)
(0.00193238 0.0460675 0)
(0.00242099 0.130891 0)
(0.00560592 0.189642 0)
(0.00851131 0.234585 0)
(0.0119237 0.268023 0)
(0.0155243 0.294284 0)
(0.0180433 0.313935 0)
(0.0201002 0.329314 0)
(0.0209826 0.340257 0)
(0.01987 0.34854 0)
(0.0168364 0.354523 0)
(0.011342 0.362167 0)
(0.00467587 0.372855 0)
(-0.00265847 0.380382 0)
(-0.00920315 0.381746 0)
(-0.0139779 0.377356 0)
(-0.0167794 0.3686 0)
(-0.0181685 0.354409 0)
(-0.0180054 0.3311 0)
(-0.015748 0.296643 0)
(-0.0122045 0.248814 0)
(-0.00746335 0.186396 0)
(-0.00280224 0.0948775 0)
(-0.00040994 -0.0290434 0)
(0.000578356 -0.0716007 0)
(0.00168944 0.0462231 0)
(0.000911078 0.127674 0)
(0.00277958 0.183799 0)
(0.00494573 0.228923 0)
(0.00731902 0.261309 0)
(0.010283 0.2879 0)
(0.0122504 0.308878 0)
(0.0137537 0.326683 0)
(0.0130099 0.340971 0)
(0.0109773 0.351906 0)
(0.00711122 0.361148 0)
(0.00165041 0.370429 0)
(-0.00491432 0.382503 0)
(-0.0114276 0.389978 0)
(-0.0163843 0.38946 0)
(-0.0197218 0.38338 0)
(-0.0218165 0.371816 0)
(-0.0214637 0.353996 0)
(-0.0194177 0.327104 0)
(-0.0164666 0.290976 0)
(-0.0130689 0.242379 0)
(-0.00820822 0.178602 0)
(-0.00341904 0.0912543 0)
(-0.000757362 -0.0296657 0)
(0.000298119 -0.0694027 0)
(0.00104126 0.048369 0)
(-0.000551321 0.128208 0)
(-0.000839215 0.180785 0)
(-3.10025e-06 0.224076 0)
(0.00114854 0.255487 0)
(0.0022518 0.282399 0)
(0.0029673 0.304776 0)
(0.00328132 0.324207 0)
(0.00227648 0.340596 0)
(0.000364836 0.354641 0)
(-0.00291285 0.366759 0)
(-0.00691485 0.378318 0)
(-0.0118299 0.391198 0)
(-0.0163817 0.397092 0)
(-0.0198274 0.39444 0)
(-0.0219812 0.385927 0)
(-0.0227603 0.370991 0)
(-0.021415 0.349132 0)
(-0.0187103 0.321115 0)
(-0.0156332 0.283972 0)
(-0.0119956 0.234381 0)
(-0.00771564 0.172489 0)
(-0.00326469 0.0877312 0)
(-0.001111 -0.0307304 0)
(-0.000254448 -0.0650156 0)
(-0.000555644 0.0526386 0)
(-0.00262624 0.132089 0)
(-0.00436525 0.183038 0)
(-0.00558083 0.223446 0)
(-0.00610694 0.255288 0)
(-0.00687768 0.28217 0)
(-0.00783972 0.30405 0)
(-0.00889136 0.324189 0)
(-0.00958509 0.341605 0)
(-0.0100167 0.35711 0)
(-0.0113446 0.370938 0)
(-0.0134466 0.382939 0)
(-0.0160647 0.395886 0)
(-0.0184664 0.400057 0)
(-0.0195288 0.395717 0)
(-0.0197373 0.385311 0)
(-0.0190478 0.368501 0)
(-0.0176682 0.344127 0)
(-0.0153785 0.313686 0)
(-0.0126772 0.277112 0)
(-0.00965493 0.228115 0)
(-0.0065286 0.167762 0)
(-0.0030752 0.0851706 0)
(-0.00132007 -0.0319131 0)
(-0.000442295 -0.059559 0)
(-0.0015759 0.0581714 0)
(-0.00435951 0.137214 0)
(-0.0064274 0.188147 0)
(-0.00860074 0.227096 0)
(-0.0100417 0.257267 0)
(-0.0116738 0.283006 0)
(-0.0139796 0.305009 0)
(-0.0160493 0.323418 0)
(-0.0171681 0.339362 0)
(-0.0173633 0.355551 0)
(-0.017834 0.370813 0)
(-0.0180826 0.383901 0)
(-0.0183288 0.396424 0)
(-0.0182078 0.399341 0)
(-0.0172049 0.393068 0)
(-0.0157328 0.38099 0)
(-0.013861 0.363474 0)
(-0.0121621 0.338829 0)
(-0.0101734 0.308071 0)
(-0.00861699 0.271412 0)
(-0.00630178 0.224809 0)
(-0.00483565 0.166076 0)
(-0.00253376 0.0840818 0)
(-0.00124657 -0.0329217 0)
(-0.00060008 -0.0527104 0)
(-0.00219805 0.0657436 0)
(-0.00557142 0.144436 0)
(-0.00801546 0.19457 0)
(-0.0102161 0.232006 0)
(-0.0116277 0.261522 0)
(-0.0132026 0.288113 0)
(-0.0155926 0.311083 0)
(-0.0178352 0.328955 0)
(-0.0199749 0.342388 0)
(-0.0210759 0.355616 0)
(-0.0210924 0.369071 0)
(-0.020192 0.380181 0)
(-0.0188058 0.392328 0)
(-0.0169035 0.393172 0)
(-0.0141763 0.386477 0)
(-0.0121675 0.374663 0)
(-0.00938647 0.356579 0)
(-0.00758239 0.332017 0)
(-0.00521133 0.301866 0)
(-0.00464542 0.268223 0)
(-0.0032326 0.222911 0)
(-0.00295444 0.16545 0)
(-0.00181655 0.0827218 0)
(-0.000805533 -0.0336879 0)
(-0.000506674 -0.0454622 0)
(-0.00220847 0.0736863 0)
(-0.00508586 0.151435 0)
(-0.00728797 0.201323 0)
(-0.00995794 0.237 0)
(-0.011052 0.265382 0)
(-0.011898 0.292035 0)
(-0.012914 0.31428 0)
(-0.013661 0.331081 0)
(-0.0156576 0.343969 0)
(-0.017794 0.355529 0)
(-0.019201 0.366699 0)
(-0.0185298 0.375648 0)
(-0.0161716 0.386808 0)
(-0.0132334 0.386703 0)
(-0.00967052 0.379766 0)
(-0.0068788 0.36797 0)
(-0.00406738 0.349777 0)
(-0.00244559 0.326729 0)
(-0.000947354 0.298671 0)
(-0.000655202 0.266599 0)
(9.28777e-05 0.222676 0)
(5.75238e-05 0.166218 0)
(-5.50282e-05 0.0830518 0)
(8.41976e-06 -0.0319324 0)
(5.12569e-05 -0.0394127 0)
(-0.00155025 0.0802157 0)
(-0.00346617 0.157081 0)
(-0.00466693 0.207862 0)
(-0.0076318 0.242739 0)
(-0.0090301 0.268788 0)
(-0.00974067 0.294435 0)
(-0.00976974 0.316104 0)
(-0.0101766 0.334409 0)
(-0.0122475 0.348332 0)
(-0.0151276 0.358753 0)
(-0.0177283 0.366145 0)
(-0.0177095 0.36973 0)
(-0.0150907 0.377792 0)
(-0.0113981 0.376911 0)
(-0.00765385 0.37003 0)
(-0.0041415 0.35991 0)
(-0.00153921 0.343686 0)
(0.000104529 0.322474 0)
(0.00149693 0.295968 0)
(0.00193808 0.2659 0)
(0.00250907 0.22304 0)
(0.00330771 0.167176 0)
(0.00187088 0.0859115 0)
(0.000992575 -0.0276394 0)
(0.000401813 -0.0342635 0)
(-0.000990196 0.0861956 0)
(-0.00289512 0.160226 0)
(-0.00260755 0.213225 0)
(-0.00547467 0.248913 0)
(-0.00765369 0.273879 0)
(-0.00966642 0.297192 0)
(-0.0103095 0.317214 0)
(-0.0108192 0.335587 0)
(-0.0121044 0.351337 0)
(-0.0139147 0.361598 0)
(-0.0155749 0.366577 0)
(-0.015391 0.365576 0)
(-0.0134935 0.370606 0)
(-0.0108949 0.369515 0)
(-0.00851865 0.3624 0)
(-0.00569185 0.352089 0)
(-0.00290498 0.337068 0)
(-0.000821546 0.317618 0)
(0.000718845 0.293135 0)
(0.00180776 0.264892 0)
(0.00258078 0.2226 0)
(0.00456672 0.167996 0)
(0.00253868 0.0905246 0)
(0.00147176 -0.0213312 0)
(0.000223809 -0.0302008 0)
(-0.000487266 0.0913537 0)
(-0.00298756 0.161648 0)
(-0.00197639 0.216141 0)
(-0.00391803 0.25493 0)
(-0.00569306 0.279745 0)
(-0.00803919 0.301391 0)
(-0.00955684 0.318917 0)
(-0.0110678 0.336763 0)
(-0.012192 0.351082 0)
(-0.0125781 0.360187 0)
(-0.0135135 0.363719 0)
(-0.0136736 0.36056 0)
(-0.0125772 0.364118 0)
(-0.0101211 0.363154 0)
(-0.008461 0.356398 0)
(-0.00668874 0.345686 0)
(-0.00464975 0.331623 0)
(-0.0026506 0.313585 0)
(-0.00111794 0.290984 0)
(0.000526646 0.263434 0)
(0.00242483 0.221065 0)
(0.00476778 0.167829 0)
(0.00239924 0.0948817 0)
(0.00149947 -0.0150278 0)
(-0.000364897 -0.0256535 0)
(-0.000746382 0.0963946 0)
(-0.00380718 0.164328 0)
(-0.00310416 0.217021 0)
(-0.00312606 0.257349 0)
(-0.00443531 0.282604 0)
(-0.00571936 0.3051 0)
(-0.0077533 0.322907 0)
(-0.00944261 0.339502 0)
(-0.0104335 0.351603 0)
(-0.010644 0.359519 0)
(-0.0118662 0.362727 0)
(-0.0127121 0.357103 0)
(-0.0128039 0.357385 0)
(-0.0116409 0.355698 0)
(-0.0102898 0.351819 0)
(-0.00913889 0.341488 0)
(-0.00768375 0.327071 0)
(-0.00565145 0.309671 0)
(-0.00344778 0.28698 0)
(-0.000159319 0.258842 0)
(0.00273203 0.21605 0)
(0.00430399 0.167715 0)
(0.00184841 0.098815 0)
(0.00121525 -0.00946226 0)
(-0.000816747 -0.0203141 0)
(-0.00154194 0.101452 0)
(-0.00506072 0.16753 0)
(-0.00519878 0.215901 0)
(-0.00425731 0.258562 0)
(-0.00502481 0.285113 0)
(-0.0059977 0.30829 0)
(-0.0076967 0.325645 0)
(-0.00862304 0.340481 0)
(-0.00934292 0.35075 0)
(-0.00984017 0.358266 0)
(-0.0110264 0.360537 0)
(-0.0117365 0.353965 0)
(-0.0128619 0.354528 0)
(-0.0135777 0.352057 0)
(-0.013113 0.347276 0)
(-0.0116472 0.337897 0)
(-0.00984636 0.323999 0)
(-0.00770507 0.306018 0)
(-0.00416826 0.280723 0)
(0.000826299 0.252158 0)
(0.00317103 0.213304 0)
(0.00390771 0.169619 0)
(0.00148748 0.10331 0)
(0.000961998 -0.0045449 0)
(-0.00125854 -0.0143968 0)
(-0.00196784 0.107331 0)
(-0.00643356 0.171993 0)
(-0.00779292 0.21674 0)
(-0.00777165 0.258356 0)
(-0.00778644 0.28674 0)
(-0.00834395 0.3107 0)
(-0.00886856 0.327362 0)
(-0.00945246 0.340635 0)
(-0.00984323 0.350735 0)
(-0.0110862 0.35793 0)
(-0.0123388 0.359982 0)
(-0.0132281 0.353274 0)
(-0.0151632 0.354084 0)
(-0.0163602 0.350653 0)
(-0.0163834 0.343851 0)
(-0.0148441 0.332687 0)
(-0.0125822 0.317846 0)
(-0.00922979 0.298703 0)
(-0.00497451 0.270872 0)
(-0.000399713 0.245054 0)
(0.000665328 0.211577 0)
(0.00192531 0.170304 0)
(0.000298012 0.107148 0)
(0.000551534 -0.000483378 0)
(-0.00180874 -0.0062956 0)
(-0.00259421 0.115475 0)
(-0.00774197 0.178783 0)
(-0.00974031 0.221051 0)
(-0.011527 0.260098 0)
(-0.0110963 0.287004 0)
(-0.0113117 0.311222 0)
(-0.0114934 0.327516 0)
(-0.0118515 0.341295 0)
(-0.0124081 0.351863 0)
(-0.0137931 0.359257 0)
(-0.0144976 0.359412 0)
(-0.0160047 0.354232 0)
(-0.0179718 0.354947 0)
(-0.0191423 0.349463 0)
(-0.0184471 0.340354 0)
(-0.0161881 0.327401 0)
(-0.0133116 0.310636 0)
(-0.00960674 0.290164 0)
(-0.00615134 0.262895 0)
(-0.00360425 0.241245 0)
(-0.00298289 0.210005 0)
(-0.00102522 0.169883 0)
(-0.00157528 0.108568 0)
(-3.49742e-05 0.0012706 0)
(-0.00208786 0.00194821 0)
(-0.00293689 0.122911 0)
(-0.00711915 0.186238 0)
(-0.00928294 0.226891 0)
(-0.0114986 0.263103 0)
(-0.0110901 0.28811 0)
(-0.010936 0.313207 0)
(-0.0113817 0.329176 0)
(-0.0119326 0.342265 0)
(-0.0128673 0.353036 0)
(-0.0133974 0.360058 0)
(-0.0135633 0.360876 0)
(-0.0156558 0.356046 0)
(-0.017422 0.355518 0)
(-0.0181481 0.346836 0)
(-0.0165995 0.334783 0)
(-0.0139483 0.319563 0)
(-0.0106742 0.301585 0)
(-0.00725007 0.282664 0)
(-0.00531859 0.25776 0)
(-0.00423647 0.238815 0)
(-0.00350569 0.207673 0)
(-0.00201054 0.169531 0)
(-0.00196104 0.109739 0)
(-0.000104914 0.00253831 0)
(-0.0018458 0.00960163 0)
(-0.00259385 0.128092 0)
(-0.00540167 0.191494 0)
(-0.00675662 0.231885 0)
(-0.00817416 0.265094 0)
(-0.00732323 0.287497 0)
(-0.00632305 0.313015 0)
(-0.00584457 0.330028 0)
(-0.00612959 0.344485 0)
(-0.00710568 0.354965 0)
(-0.00716185 0.360296 0)
(-0.00751628 0.362177 0)
(-0.00858891 0.358531 0)
(-0.0104878 0.355957 0)
(-0.0113419 0.342869 0)
(-0.0109167 0.328423 0)
(-0.00923874 0.312067 0)
(-0.00700102 0.293756 0)
(-0.00414966 0.276727 0)
(-0.00308897 0.254542 0)
(-0.0022626 0.236797 0)
(-0.00206657 0.206924 0)
(-0.00210326 0.170188 0)
(-0.00166854 0.109756 0)
(-8.35619e-05 0.00392267 0)
(-0.00140665 0.0161125 0)
(-0.00185068 0.13281 0)
(-0.00402458 0.194511 0)
(-0.00375182 0.234635 0)
(-0.00365233 0.265563 0)
(-0.00222075 0.285585 0)
(-0.000830629 0.310874 0)
(-0.000115438 0.328758 0)
(-0.000422521 0.344467 0)
(-0.000823072 0.355068 0)
(-0.000842172 0.360566 0)
(-0.00126206 0.362427 0)
(-0.00156549 0.358978 0)
(-0.00220153 0.357363 0)
(-0.00346532 0.343374 0)
(-0.00468204 0.32682 0)
(-0.00468425 0.30856 0)
(-0.0032827 0.288771 0)
(-0.0016636 0.272585 0)
(-0.000806441 0.251893 0)
(-3.52654e-05 0.235747 0)
(-0.000887456 0.209597 0)
(-0.00119097 0.172021 0)
(-0.00121153 0.110005 0)
(-0.000228781 0.00522922 0)
(-0.00105713 0.0209391 0)
(-0.000699917 0.135328 0)
(-0.00198363 0.194761 0)
(-0.000658752 0.232497 0)
(0.00117272 0.263275 0)
(0.0026188 0.282268 0)
(0.003448 0.308345 0)
(0.00367654 0.327824 0)
(0.0028504 0.344563 0)
(0.00272294 0.35414 0)
(0.0027827 0.359662 0)
(0.00310298 0.3619 0)
(0.00334283 0.356838 0)
(0.00379565 0.356248 0)
(0.0033837 0.344362 0)
(0.00190133 0.327558 0)
(0.0014628 0.306894 0)
(0.00163827 0.286371 0)
(0.0019562 0.27009 0)
(0.00155882 0.250417 0)
(0.00105052 0.236802 0)
(-0.000275209 0.211531 0)
(7.6575e-05 0.172641 0)
(-0.000513684 0.110605 0)
(-0.00036901 0.0068821 0)
(-0.00100626 0.0244555 0)
(0.000144124 0.136151 0)
(-0.000615247 0.193123 0)
(0.00117703 0.229055 0)
(0.00286833 0.260232 0)
(0.00375032 0.281146 0)
(0.00373263 0.308202 0)
(0.00370071 0.32746 0)
(0.00422313 0.343117 0)
(0.00546128 0.352551 0)
(0.00662591 0.357222 0)
(0.00788307 0.359006 0)
(0.00872837 0.354989 0)
(0.00988359 0.353828 0)
(0.0105476 0.343515 0)
(0.00957068 0.32733 0)
(0.00879319 0.307016 0)
(0.00750938 0.286414 0)
(0.00624383 0.271495 0)
(0.00396685 0.253146 0)
(0.00256261 0.239456 0)
(0.00131385 0.21303 0)
(0.00211396 0.173032 0)
(0.000393837 0.112952 0)
(-9.42173e-05 0.00991772 0)
(-0.000954989 0.0283399 0)
(-2.44489e-06 0.137496 0)
(-0.000464245 0.192531 0)
(0.00061813 0.226971 0)
(0.00182017 0.258581 0)
(0.00239015 0.280687 0)