/*--------------------------------*- C++ -*----------------------------------*\
| =========                 |                                                 |
| \\      /  F ield         | OpenFOAM: The Open Source CFD Toolbox           |
|  \\    /   O peration     | Version:  2.3.0                                 |
|   \\  /    A nd           | Web:      www.OpenFOAM.org                      |
|    \\/     M anipulation  |                                                 |
\*---------------------------------------------------------------------------*/
FoamFile
{
    version     2.0;
    format      ascii;
    class       surfaceScalarField;
    location    "0.212";
    object      phi;
}
// * * * * * * * * * * * * * * * * * * * * * * * * * * * * * * * * * * * * * //

dimensions      [0 3 -1 0 0 0 0];

internalField   nonuniform List<scalar> 
1024
(
2.44359e-12
5.64143e-14
2.54308e-12
-9.94943e-14
2.57772e-12
-3.46356e-14
2.6166e-12
-3.88853e-14
4.06469e-14
2.57595e-12
2.575e-12
-1.85828e-14
2.55786e-12
-8.23572e-14
2.56177e-12
-3.85477e-14
2.58244e-12
-5.95483e-14
6.84534e-14
2.55463e-12
2.59532e-12
-1.13905e-13
2.53627e-12
-2.33088e-14
2.52362e-12
-2.5894e-14
2.53773e-12
-7.36587e-14
9.26558e-14
2.51353e-12
2.52429e-12
-1.3819e-13
2.46624e-12
3.47394e-14
2.46026e-12
-1.99125e-14
2.46267e-12
-7.60693e-14
1.0075e-13
2.45457e-12
2.36181e-12
2.39655e-12
2.37664e-12
2.30057e-12
2.40132e-12
2.36943e-12
2.06524e-13
2.32346e-12
4.59725e-14
2.32279e-12
6.62559e-16
2.33093e-12
-8.13378e-15
2.33622e-12
-5.29464e-15
2.33877e-12
-2.54505e-15
2.33969e-12
-9.24546e-16
2.33996e-12
-2.62961e-16
2.34001e-12
-5.90021e-17
2.34001e-12
4.21547e-18
2.34001e-12
-8.62136e-19
2.34e-12
9.97296e-18
2.34e-12
-3.48702e-18
2.34e-12
7.24807e-18
2.34e-12
-4.91752e-18
2.34e-12
6.84004e-18
2.34e-12
-6.16367e-18
2.33999e-12
7.17803e-18
2.34e-12
-6.74092e-18
2.33999e-12
6.95688e-18
2.34e-12
-6.59969e-18
2.33999e-12
7.34283e-18
2.34e-12
-8.21977e-18
2.33999e-12
7.70408e-18
2.34e-12
-8.08533e-18
2.33999e-12
9.2184e-18
2.34e-12
-8.24093e-18
2.33999e-12
9.29379e-18
2.34e-12
-8.97412e-18
2.33999e-12
8.79832e-18
2.34e-12
-8.76843e-18
2.33999e-12
7.9345e-18
2.34e-12
-1.08546e-17
2.33999e-12
1.06036e-17
2.34e-12
-1.01284e-17
2.33999e-12
9.55035e-18
2.34e-12
-9.15855e-18
2.33999e-12
1.02559e-17
2.34e-12
-9.86758e-18
2.33999e-12
1.03374e-17
2.34e-12
-1.03874e-17
2.33999e-12
1.03449e-17
2.34e-12
-1.10754e-17
2.34e-12
5.46489e-18
-5.12171e-17
2.36404e-12
3.97116e-13
2.32449e-12
8.55208e-14
2.32691e-12
-1.75923e-15
2.33294e-12
-1.41683e-14
2.33699e-12
-9.34361e-15
2.33896e-12
-4.51209e-15
2.33971e-12
-1.67524e-15
2.33995e-12
-5.01188e-16
2.33999e-12
-1.0325e-16
2.34001e-12
-1.13734e-17
2.34e-12
1.16436e-17
2.34001e-12
1.84623e-18
2.33999e-12
8.35371e-18
2.34e-12
-3.74763e-18
2.33999e-12
6.77265e-18
2.34e-12
-5.34848e-18
2.33999e-12
5.7178e-18
2.34001e-12
-5.48193e-18
2.33999e-12
6.14592e-18
2.34001e-12
-6.83184e-18
2.33999e-12
7.46271e-18
2.34001e-12
-6.83372e-18
2.33999e-12
5.41713e-18
2.34001e-12
-7.1805e-18
2.33999e-12
6.59e-18
2.34001e-12
-5.34246e-18
2.33999e-12
7.49813e-18
2.34001e-12
-6.16844e-18
2.33999e-12
7.03749e-18
2.34001e-12
-7.64962e-18
2.33999e-12
8.04669e-18
2.34001e-12
-9.7034e-18
2.33999e-12
4.68163e-18
2.34001e-12
-5.18654e-18
2.33999e-12
6.71859e-18
2.34001e-12
-7.80869e-18
2.33999e-12
8.78922e-18
2.34001e-12
-7.0572e-18
2.33999e-12
8.29186e-18
2.34001e-12
-7.49508e-18
2.33999e-12
8.61312e-18
2.34001e-12
-8.3776e-18
2.33999e-12
9.97094e-18
2.34e-12
-7.10396e-18
4.31271e-17
2.34397e-12
5.66678e-13
2.32806e-12
1.01427e-13
2.33405e-12
-7.75416e-15
2.33742e-12
-1.7537e-14
2.33898e-12
-1.0896e-14
2.33966e-12
-5.20009e-15
2.33991e-12
-1.9266e-15
2.33998e-12
-5.64617e-16
2.34e-12
-1.27473e-16
2.34e-12
-5.71956e-18
2.34e-12
3.42903e-18
2.34e-12
1.06756e-17
2.34e-12
-5.74903e-20
2.34e-12
4.70754e-18
2.34e-12
-1.45068e-18
2.34e-12
3.48673e-18
2.34e-12
-3.75213e-18
2.34e-12
4.20132e-18
2.34001e-12
-3.99699e-18
2.34e-12
3.13994e-18
2.34001e-12
-2.74165e-18
2.33999e-12
3.84661e-18
2.34001e-12
-6.10048e-18
2.34e-12
4.06602e-18
2.34001e-12
-5.38624e-18
2.33999e-12
7.20893e-18
2.34001e-12
-4.70635e-18
2.33999e-12
6.76651e-18
2.34001e-12
-5.63823e-18
2.33999e-12
4.87923e-18
2.34001e-12
-4.35822e-18
2.33999e-12
3.40713e-18
2.34001e-12
-1.05798e-17
2.33999e-12
9.8867e-18
2.34001e-12
-7.54663e-18
2.33999e-12
5.75503e-18
2.34001e-12
-4.83365e-18
2.33999e-12
7.51022e-18
2.34001e-12
-6.20561e-18
2.33999e-12
7.52049e-18
2.34001e-12
-6.39184e-18
2.33999e-12
7.36261e-18
2.34001e-12
-6.82992e-18
2.34e-12
5.41755e-18
-3.53679e-17
2.3208e-12
7.00445e-13
2.33641e-12
8.58245e-14
2.34443e-12
-1.57734e-14
2.34323e-12
-1.63395e-14
2.34149e-12
-9.15427e-15
2.34056e-12
-4.27561e-15
2.34016e-12
-1.52819e-15
2.34004e-12
-4.40891e-16
2.34e-12
-8.21536e-17
2.34e-12
-1.31993e-17
2.33999e-12
1.47057e-17
2.34001e-12
-3.37597e-18
2.33999e-12
1.24883e-17
2.34001e-12
-9.81454e-18
2.33999e-12
1.32373e-17
2.34001e-12
-1.15094e-17
2.33999e-12
1.10684e-17
2.34001e-12
-1.10711e-17
2.33999e-12
1.19076e-17
2.34001e-12
-1.39146e-17
2.33999e-12
1.44495e-17
2.34001e-12
-1.29774e-17
2.33999e-12
1.06901e-17
2.34001e-12
-1.32436e-17
2.33999e-12
1.18166e-17
2.34001e-12
-1.00996e-17
2.33999e-12
1.33168e-17
2.34001e-12
-1.15881e-17
2.33999e-12
1.29967e-17
2.34001e-12
-1.4735e-17
2.33999e-12
1.61321e-17
2.34001e-12
-1.60742e-17
2.33999e-12
7.05033e-18
2.34001e-12
-7.51254e-18
2.33999e-12
1.14429e-17
2.34001e-12
-1.43625e-17
2.33999e-12
1.56991e-17
2.34001e-12
-1.28197e-17
2.33999e-12
1.43227e-17
2.34001e-12
-1.33259e-17
2.33999e-12
1.50271e-17
2.34001e-12
-1.46117e-17
2.33999e-12
1.60012e-17
2.34e-12
-8.82206e-18
5.90247e-17
2.311e-12
7.90763e-13
2.35726e-12
3.95637e-14
2.35684e-12
-1.53566e-14
2.34886e-12
-8.35643e-15
2.34366e-12
-3.95241e-15
2.34124e-12
-1.85131e-15
2.34033e-12
-6.27486e-16
2.34006e-12
-1.63963e-16
2.34e-12
-2.40887e-17
2.33999e-12
-3.5947e-18
2.34e-12
8.55694e-18
2.34e-12
-2.76594e-18
2.34e-12
7.80796e-18
2.34e-12
-9.02927e-18
2.34e-12
1.17825e-17
2.34e-12
-9.57924e-18
2.34e-12
7.95902e-18
2.34e-12
-8.5199e-18
2.34e-12
9.11614e-18
2.34e-12
-1.0978e-17
2.34e-12
1.14676e-17
2.34e-12
-9.33901e-18
2.34e-12
6.5001e-18
2.34e-12
-7.4646e-18
2.34e-12
5.43424e-18
2.34e-12
-4.07251e-18
2.34e-12
6.38103e-18
2.34e-12
-5.37828e-18
2.34e-12
7.07112e-18
2.34e-12
-1.02984e-17
2.34e-12
1.13907e-17
2.34e-12
-7.13628e-18
2.34001e-12
-3.47987e-18
2.33999e-12
3.73172e-18
2.34e-12
1.82238e-18
2.34e-12
-6.88447e-18
2.34e-12
8.56436e-18
2.34e-12
-5.66332e-18
2.34001e-12
6.04642e-18
2.34e-12
-5.44155e-18
2.34001e-12
6.61382e-18
2.34e-12
-5.10081e-18
2.34001e-12
4.99236e-18
2.34e-12
-2.45685e-18
-1.09611e-17
2.58151e-12
-7.90749e-13
2.66066e-12
-3.95874e-14
2.62993e-12
1.53787e-14
2.61324e-12
8.33157e-15
2.60531e-12
3.97559e-15
2.60163e-12
1.8288e-15
2.60035e-12
6.5166e-16
2.60005e-12
1.40393e-16
2.59998e-12
4.76351e-17
2.59999e-12
-2.10481e-17
2.59999e-12
1.61538e-17
2.6e-12
-2.19499e-17
2.6e-12
1.70067e-17
2.6e-12
-1.59811e-17
2.6e-12
1.35665e-17
2.60001e-12
-1.57672e-17
2.6e-12
1.76798e-17
2.60001e-12
-1.77072e-17
2.6e-12
1.72722e-17
2.6e-12
-1.52074e-17
2.6e-12
1.48353e-17
2.60001e-12
-1.70605e-17
2.59999e-12
2.01001e-17
2.60001e-12
-1.93172e-17
2.59999e-12
2.14124e-17
2.60001e-12
-2.33142e-17
2.59999e-12
2.13008e-17
2.60001e-12
-2.24009e-17
2.6e-12
2.05453e-17
2.6e-12
-1.70053e-17
2.6e-12
1.58456e-17
2.60001e-12
-2.02695e-17
2.59998e-12
3.10418e-17
2.60001e-12
-3.1319e-17
2.59999e-12
2.58438e-17
2.6e-12
-2.09231e-17
2.59999e-12
1.98084e-17
2.60001e-12
-2.30485e-17
2.59999e-12
2.27394e-17
2.60001e-12
-2.31956e-17
2.59999e-12
2.23419e-17
2.60001e-12
-2.26831e-17
2.59999e-12
2.51429e-17
2.6e-12
-1.45261e-17
5.0635e-17
2.36181e-12
1.3819e-13
2.39655e-12
-3.47399e-14
2.37664e-12
1.99133e-14
2.30057e-12
7.60715e-14
-1.00751e-13
2.40132e-12
2.52429e-12
1.13905e-13
2.46624e-12
2.33078e-14
2.46026e-12
2.58954e-14
2.46266e-12
7.36629e-14
-9.26574e-14
2.45457e-12
2.59532e-12
1.85829e-14
2.53627e-12
8.23567e-14
2.52362e-12
3.85491e-14
2.53773e-12
5.95521e-14
-6.84548e-14
2.51353e-12
2.575e-12
-5.64139e-14
2.55786e-12
9.94934e-14
2.56177e-12
3.46362e-14
2.58244e-12
3.88887e-14
-4.06476e-14
2.55463e-12
2.44359e-12
2.54308e-12
2.57772e-12
2.6166e-12
2.57596e-12
2.31101e-12
-7.00441e-13
2.35725e-12
-8.58338e-14
2.35685e-12
1.57814e-14
2.34885e-12
1.63287e-14
2.34367e-12
9.16358e-15
2.34123e-12
4.26711e-15
2.34034e-12
1.53835e-15
2.34005e-12
4.31554e-16
2.34001e-12
9.14474e-17
2.33998e-12
2.87651e-18
2.34e-12
-4.70318e-18
2.33999e-12
-6.52813e-18
2.34001e-12
-2.513e-18
2.33999e-12
-2.36496e-19
2.34001e-12
-2.95107e-18
2.33999e-12
1.40538e-18
2.34001e-12
-6.8695e-19
2.33999e-12
2.18618e-19
2.34001e-12
-1.11073e-18
2.33999e-12
3.42832e-18
2.34001e-12
-3.85954e-18
2.33999e-12
2.3988e-18
2.34001e-12
-5.45031e-20
2.33999e-12
2.43238e-18
2.34001e-12
-1.0169e-18
2.33999e-12
-1.16738e-18
2.34001e-12
-1.80412e-18
2.33999e-12
1.53185e-19
2.34001e-12
-1.81491e-18
2.33999e-12
3.89874e-18
2.34001e-12
-5.43728e-18
2.33999e-12
5.25789e-18
2.34001e-12
3.85755e-18
2.33999e-12
-3.38551e-18
2.34001e-12
-4.64171e-19
2.33999e-12
3.28653e-18
2.34001e-12
-4.06203e-18
2.33999e-12
8.24196e-19
2.34001e-12
-2.27843e-18
2.33999e-12
1.39278e-18
2.34001e-12
-2.82829e-18
2.33999e-12
3.36314e-18
2.34002e-12
-3.66252e-18
2.34001e-12
-3.06976e-18
-4.91988e-17
2.32081e-12
-5.66677e-13
2.3364e-12
-1.01431e-13
2.34443e-12
7.75549e-15
2.34323e-12
1.75333e-14
2.34149e-12
1.08986e-14
2.34056e-12
5.19847e-15
2.34017e-12
1.92993e-15
2.34004e-12
5.62182e-16
2.34e-12
1.29682e-16
2.34e-12
2.73101e-18
2.34e-12
-9.0139e-19
2.34e-12
-1.31495e-17
2.34e-12
2.65119e-18
2.34e-12
-7.34195e-18
2.34e-12
4.21863e-18
2.34e-12
-6.02946e-18
2.34e-12
6.43413e-18
2.34e-12
-7.15463e-18
2.34e-12
6.85527e-18
2.34001e-12
-5.80652e-18
2.34e-12
5.55048e-18
2.34001e-12
-6.6073e-18
2.34e-12
8.85999e-18
2.34001e-12
-6.9286e-18
2.34e-12
8.14245e-18
2.34001e-12
-1.01941e-17
2.34e-12
7.77427e-18
2.34001e-12
-9.79651e-18
2.34e-12
8.58909e-18
2.34001e-12
-7.69282e-18
2.33999e-12
7.14031e-18
2.34001e-12
-6.2631e-18
2.34e-12
1.34493e-17
2.34001e-12
-1.27172e-17
2.33999e-12
1.04141e-17
2.34001e-12
-8.57486e-18
2.33999e-12
7.88812e-18
2.34001e-12
-1.06852e-17
2.33999e-12
9.35561e-18
2.34001e-12
-1.0543e-17
2.33999e-12
9.59624e-18
2.34001e-12
-9.86289e-18
2.33999e-12
9.32837e-18
2.34e-12
-9.46291e-18
3.77155e-17
2.34397e-12
-3.97119e-13
2.32806e-12
-8.55209e-14
2.33406e-12
1.75795e-15
2.33742e-12
1.41674e-14
2.33898e-12
9.34411e-15
2.33966e-12
4.51262e-15
2.33992e-12
1.67649e-15
2.33998e-12
5.00918e-16
2.34e-12
1.03334e-16
2.34e-12
1.06271e-17
2.34001e-12
-1.16053e-17
2.33999e-12
-1.98848e-18
2.34001e-12
-7.93028e-18
2.33999e-12
3.28326e-18
2.34001e-12
-6.20331e-18
2.33999e-12
5.13208e-18
2.34001e-12
-5.39876e-18
2.33999e-12
4.94944e-18
2.34001e-12
-5.74747e-18
2.33999e-12
6.52054e-18
2.34001e-12
-6.96342e-18
2.33999e-12
6.41625e-18
2.34001e-12
-5.06337e-18
2.33999e-12
6.68366e-18
2.34001e-12
-6.25599e-18
2.33999e-12
4.95595e-18
2.34001e-12
-7.05e-18
2.33999e-12
5.75114e-18
2.34001e-12
-6.56939e-18
2.33999e-12
7.19616e-18
2.34001e-12
-7.62774e-18
2.33999e-12
9.22876e-18
2.34001e-12
-4.23679e-18
2.33999e-12
4.76952e-18
2.34001e-12
-6.25174e-18
2.33999e-12
7.46658e-18
2.34001e-12
-8.37641e-18
2.33999e-12
6.56183e-18
2.34001e-12
-7.80876e-18
2.33999e-12
7.04515e-18
2.34001e-12
-7.9452e-18
2.33999e-12
7.94806e-18
2.34001e-12
-9.12884e-18
2.34e-12
4.24445e-18
-4.64715e-17
2.36404e-12
-2.06525e-13
2.32449e-12
-4.59727e-14
2.32691e-12
-6.6415e-16
2.33294e-12
8.13275e-15
2.33699e-12
5.2942e-15
2.33896e-12
2.54594e-15
2.33971e-12
9.25708e-16
2.33995e-12
2.63254e-16
2.33999e-12
5.86671e-17
2.34001e-12
-4.68168e-18
2.34e-12
4.4054e-19
2.34001e-12
-9.80229e-18
2.33999e-12
3.53425e-18
2.34e-12
-7.12574e-18
2.33999e-12
5.00442e-18
2.34e-12
-6.63026e-18
2.33999e-12
6.08363e-18
2.34001e-12
-7.18823e-18
2.33999e-12
6.65495e-18
2.34001e-12
-6.85252e-18
2.33999e-12
6.55545e-18
2.34001e-12
-7.29691e-18
2.33999e-12
8.12232e-18
2.34001e-12
-7.68213e-18
2.33999e-12
7.98184e-18
2.34001e-12
-9.13717e-18
2.33999e-12
8.19159e-18
2.34001e-12
-9.19959e-18
2.33999e-12
8.91021e-18
2.34001e-12
-8.73012e-18
2.33999e-12
8.70151e-18
2.34001e-12
-7.89909e-18
2.33999e-12
1.08034e-17
2.34001e-12
-1.05198e-17
2.33999e-12
1.00794e-17
2.34001e-12
-9.4452e-18
2.33999e-12
9.03385e-18
2.34001e-12
-1.0172e-17
2.33999e-12
9.76288e-18
2.34001e-12
-1.01275e-17
2.33999e-12
1.01776e-17
2.34001e-12
-9.88263e-18
2.33999e-12
1.09235e-17
2.34e-12
-5.69885e-18
5.12207e-17
2.36943e-12
2.32346e-12
2.32279e-12
2.33093e-12
2.33622e-12
2.33877e-12
2.33969e-12
2.33996e-12
2.34002e-12
2.34001e-12
2.34001e-12
2.34e-12
2.34e-12
2.34e-12
2.34e-12
2.34e-12
2.34e-12
2.33999e-12
2.34e-12
2.33999e-12
2.34e-12
2.33999e-12
2.34e-12
2.33999e-12
2.34e-12
2.33999e-12
2.34e-12
2.33999e-12
2.34e-12
2.33999e-12
2.34e-12
2.33999e-12
2.34e-12
2.33999e-12
2.34e-12
2.33999e-12
2.34e-12
2.33999e-12
2.34e-12
2.33999e-12
2.34e-12
2.33999e-12
2.34e-12
2.34e-12
)
;

boundaryField
{
    AirInlet
    {
        type            calculated;
        value           uniform -1e-12;
    }
    WaterInlet
    {
        type            calculated;
        value           nonuniform List<scalar> 10(-2.5e-12 -2.5e-12 -2.5e-12 -2.5e-12 -2.5e-12 -2.5e-12 -2.5e-12 -2.5e-12 -2.5e-12 -2.5e-12);
    }
    ChannelWall
    {
        type            calculated;
        value           uniform 0;
    }
    Outlet
    {
        type            calculated;
        value           nonuniform List<scalar> 
11
(
2.34005e-12
2.33991e-12
2.34007e-12
2.33991e-12
2.34007e-12
2.59994e-12
2.34011e-12
2.33991e-12
2.34008e-12
2.3399e-12
2.34005e-12
)
;
    }
    FrontAndBack
    {
        type            empty;
        value           nonuniform 0();
    }
}


// ************************************************************************* //
