/*--------------------------------*- C++ -*----------------------------------*\
| =========                 |                                                 |
| \\      /  F ield         | OpenFOAM: The Open Source CFD Toolbox           |
|  \\    /   O peration     | Version:  2.3.0                                 |
|   \\  /    A nd           | Web:      www.OpenFOAM.org                      |
|    \\/     M anipulation  |                                                 |
\*---------------------------------------------------------------------------*/
FoamFile
{
    version     2.0;
    format      ascii;
    class       surfaceScalarField;
    location    "0.45";
    object      phi;
}
// * * * * * * * * * * * * * * * * * * * * * * * * * * * * * * * * * * * * * //

dimensions      [0 3 -1 0 0 0 0];

internalField   nonuniform List<scalar> 
11770
(
3.50263e-06
4.51715e-05
2.80173e-06
4.93626e-05
-2.09434e-06
5.374e-05
-6.06241e-06
5.28085e-05
-5.83997e-06
4.84503e-05
-4.70064e-06
4.75045e-05
-4.46826e-06
4.84207e-05
-6.00141e-06
5.022e-05
-9.02977e-06
5.17542e-05
-1.06341e-05
5.0293e-05
-9.71156e-06
4.76978e-05
-5.91227e-06
4.47165e-05
-3.41121e-06
4.59656e-05
-2.71173e-06
4.76917e-05
1.0255e-06
4.45333e-05
2.0266e-06
4.72724e-05
2.78905e-06
4.77162e-05
6.20041e-06
4.51108e-05
9.01266e-06
4.57707e-05
8.69397e-06
4.89931e-05
5.26961e-06
5.2167e-05
2.3564e-06
5.16272e-05
3.00884e-06
4.79726e-05
3.05669e-06
4.86223e-05
4.08867e-06
4.76311e-05
3.43405e-06
4.93696e-05
2.75265e-07
5.19818e-05
-3.51715e-06
5.25995e-05
-4.66809e-06
4.98127e-05
4.40143e-05
5.95257e-06
4.04746e-05
7.61078e-06
4.89875e-05
5.76963e-06
5.68743e-05
1.24274e-06
5.85613e-05
-2.81932e-06
5.36324e-05
-7.59557e-06
5.34196e-05
-1.26111e-05
5.46239e-05
-1.81081e-05
5.69523e-05
-2.16045e-05
5.65603e-05
-1.98615e-05
4.98929e-05
-1.45582e-05
4.37153e-05
-1.0126e-05
4.15663e-05
-6.39695e-06
4.3583e-05
-3.79477e-06
4.64612e-05
1.38414e-06
4.06332e-05
5.1047e-06
4.49051e-05
7.64758e-06
4.6556e-05
1.16154e-05
4.24378e-05
1.64031e-05
4.22595e-05
1.90692e-05
4.76454e-05
1.69222e-05
5.56458e-05
1.0615e-05
5.91932e-05
6.25627e-06
5.35082e-05
2.37022e-06
5.36891e-05
-1.0187e-06
5.21443e-05
-2.97551e-06
5.24689e-05
-5.10143e-06
5.53401e-05
-5.6091e-06
5.4395e-05
-5.67809e-06
5.11776e-05
3.9566e-05
4.84653e-06
3.5687e-05
2.90767e-06
5.101e-05
3.09642e-07
5.95749e-05
-1.18586e-06
6.01783e-05
-4.95066e-06
5.75494e-05
-1.1205e-05
5.98296e-05
-1.48515e-05
5.84245e-05
-1.97071e-05
6.19581e-05
-2.36657e-05
6.06374e-05
-2.23396e-05
4.86676e-05
-1.68632e-05
3.83298e-05
-9.30545e-06
3.41015e-05
-2.85501e-06
3.7255e-05
-3.18005e-06
4.6958e-05
7.21109e-07
3.6862e-05
2.1907e-06
4.36014e-05
5.25821e-06
4.36398e-05
1.38423e-05
3.39521e-05
2.0297e-05
3.58937e-05
2.17815e-05
4.62579e-05
1.77541e-05
5.97856e-05
1.09006e-05
6.61841e-05
6.88763e-06
5.76715e-05
4.78165e-06
5.59386e-05
8.68403e-07
5.61942e-05
8.31648e-07
5.26313e-05
1.66188e-06
5.46134e-05
1.62262e-06
5.45263e-05
-5.03623e-06
5.79206e-05
3.4587e-05
5.16139e-06
3.05767e-05
-5.99832e-07
5.68352e-05
-4.29086e-06
6.33334e-05
-4.02834e-06
5.99849e-05
-4.19733e-06
5.77963e-05
-8.27852e-06
6.39908e-05
-1.14528e-05
6.16737e-05
-1.68948e-05
6.74814e-05
-2.34682e-05
6.72817e-05
-2.14477e-05
4.67011e-05
-1.60773e-05
3.29995e-05
-9.82665e-06
2.78851e-05
-4.62983e-06
3.20973e-05
-1.35436e-06
4.37399e-05
-1.29895e-06
3.68595e-05
1.09913e-06
4.12641e-05
6.81926e-06
3.79668e-05
1.34082e-05
2.73985e-05
1.94694e-05
2.98712e-05
2.22345e-05
4.35447e-05
1.46959e-05
6.73949e-05
6.51188e-06
7.44533e-05
5.59179e-06
5.86629e-05
2.47274e-06
5.9126e-05
7.38836e-07
5.79953e-05
2.8683e-06
5.05624e-05
4.36339e-06
5.31756e-05
3.53457e-06
5.54122e-05
-5.12195e-06
6.66398e-05
2.95059e-05
-3.19668e-06
3.38138e-05
-6.43955e-06
6.01294e-05
-6.55382e-06
6.35003e-05
-6.97956e-06
6.04624e-05
-9.28126e-06
6.01513e-05
-1.01447e-05
6.49118e-05
-1.31167e-05
6.47032e-05
-1.65811e-05
7.10105e-05
-2.589e-05
7.66586e-05
-2.52615e-05
4.6127e-05
-1.87141e-05
2.64923e-05
-1.16611e-05
2.08634e-05
-5.77895e-06
2.62471e-05
-1.18748e-06
3.91885e-05
-2.15142e-06
3.78683e-05
5.22503e-07
3.86335e-05
7.79549e-06
3.07286e-05
1.48226e-05
2.0403e-05
2.17179e-05
2.30143e-05
2.45059e-05
4.08088e-05
1.54638e-05
7.65068e-05
1.13438e-05
7.86447e-05
8.21876e-06
6.18435e-05
6.54983e-06
6.08497e-05
5.62635e-06
5.89717e-05
3.95861e-06
5.22786e-05
3.60134e-06
5.35812e-05
2.96004e-06
5.61018e-05
4.77007e-06
6.48817e-05
3.43126e-05
-1.14606e-05
4.53112e-05
-1.07466e-05
5.94588e-05
-8.09009e-06
6.08879e-05
-8.10098e-06
6.05172e-05
-9.90918e-06
6.2004e-05
-1.05641e-05
6.56131e-05
-1.55812e-05
6.9769e-05
-2.26328e-05
7.81157e-05
-2.9801e-05
8.38848e-05
-3.07853e-05
4.71621e-05
-2.17754e-05
1.7521e-05
-1.34996e-05
1.26186e-05
-7.82465e-06
2.06025e-05
-2.76808e-06
3.41678e-05
-1.1917e-06
3.63351e-05
2.75767e-06
3.47226e-05
9.43837e-06
2.40799e-05
1.69695e-05
1.29025e-05
2.60665e-05
1.39537e-05
2.70684e-05
3.98547e-05
2.05449e-05
8.30883e-05
1.73588e-05
8.18862e-05
9.88041e-06
6.93709e-05
7.51521e-06
6.32611e-05
7.06916e-06
5.94626e-05
4.09068e-06
5.53e-05
3.40841e-06
5.43059e-05
3.89916e-06
5.56532e-05
1.10276e-05
5.77963e-05
4.53773e-05
-6.48572e-06
5.18338e-05
-5.86295e-06
5.88757e-05
-5.85867e-06
6.09244e-05
-6.47756e-06
6.11773e-05
-7.61423e-06
6.31824e-05
-8.8112e-06
6.68531e-05
-1.29278e-05
7.39307e-05
-1.95748e-05
8.48111e-05
-2.69969e-05
9.13592e-05
-3.21842e-05
5.23953e-05
-2.29245e-05
8.2944e-06
-1.42138e-05
3.93452e-06
-9.32026e-06
1.57361e-05
-4.19831e-06
2.90771e-05
-1.54626e-07
3.23292e-05
4.71661e-06
2.98845e-05
9.97986e-06
1.88443e-05
1.72586e-05
5.64968e-06
2.63015e-05
4.94112e-06
2.48438e-05
4.13549e-05
1.74665e-05
9.0518e-05
1.24724e-05
8.69292e-05
7.16032e-06
7.47282e-05
4.87882e-06
6.55855e-05
3.9117e-06
6.04713e-05
2.56252e-06
5.66898e-05
1.83055e-06
5.50779e-05
1.69674e-06
5.58267e-05
4.20534e-06
5.53266e-05
4.96197e-05
-6.68315e-07
5.25391e-05
-8.82479e-07
5.91285e-05
-1.93779e-06
6.20196e-05
-3.29368e-06
6.25736e-05
-4.59531e-06
6.45252e-05
-6.12171e-06
6.84218e-05
-9.6674e-06
7.75216e-05
-1.68052e-05
9.19979e-05
-2.37443e-05
9.83518e-05
-2.36949e-05
5.23905e-05
-1.7159e-05
1.78517e-06
-1.36016e-05
3.98689e-07
-1.00857e-05
1.22427e-05
-4.72216e-06
2.37395e-05
2.57513e-07
2.73792e-05
5.5526e-06
2.46162e-05
9.5843e-06
1.4835e-05
1.25525e-05
2.70265e-06
1.79214e-05
-4.0361e-07
2.07116e-05
3.86045e-05
1.35788e-05
9.77046e-05
7.12423e-06
9.34335e-05
2.60341e-06
7.92947e-05
1.04155e-06
6.71898e-05
2.94739e-07
6.12591e-05
-8.20467e-07
5.78451e-05
-1.78822e-06
5.60849e-05
-1.81957e-06
5.58967e-05
-4.22286e-07
5.39669e-05
4.92342e-05
3.37602e-06
4.91993e-05
3.31668e-06
5.92262e-05
2.30691e-06
6.30686e-05
7.21303e-07
6.41993e-05
-1.13021e-06
6.64175e-05
-3.11092e-06
7.04446e-05
-5.18906e-06
7.96449e-05
-9.24961e-06
9.61082e-05
-1.33381e-05
0.000102495
-1.46194e-05
5.37151e-05
-1.20854e-05
-7.26544e-07
-1.17796e-05
1.11363e-07
-9.08051e-06
9.56215e-06
-4.30484e-06
1.89842e-05
9.60415e-08
2.30006e-05
4.68174e-06
2.00513e-05
8.30929e-06
1.1226e-05
9.127e-06
1.9033e-06
1.03736e-05
-1.62945e-06
9.51159e-06
3.95044e-05
5.32189e-06
0.000101949
1.01667e-06
9.77894e-05
-2.21053e-06
8.25678e-05
-3.63633e-06
6.86578e-05
-4.7529e-06
6.24161e-05
-5.87125e-06
5.90031e-05
-6.50675e-06
5.67591e-05
-5.65821e-06
5.50861e-05
-3.64729e-06
5.19925e-05
4.56226e-05
7.06076e-06
4.2173e-05
6.82079e-06
5.95041e-05
6.1903e-06
6.3738e-05
4.87298e-06
6.55562e-05
3.75836e-06
6.75725e-05
3.1529e-06
7.10918e-05
2.77517e-06
8.00673e-05
1.93272e-06
9.70004e-05
1.75384e-06
0.000102727
-3.99601e-06
5.95065e-05
-7.36656e-06
2.66432e-06
-7.44573e-06
2.06191e-07
-5.70251e-06
7.83315e-06
-2.80449e-06
1.61014e-05
-1.1024e-06
2.13151e-05
1.59631e-06
1.7368e-05
4.25584e-06
8.58061e-06
4.95685e-06
1.21778e-06
2.21667e-06
1.12977e-06
-6.7198e-06
4.84778e-05
-6.87539e-06
0.000102158
-7.71349e-06
9.8678e-05
-8.36686e-06
8.3267e-05
-9.50843e-06
6.98411e-05
-1.09546e-05
6.39023e-05
-1.20101e-05
6.00977e-05
-1.14295e-05
5.62166e-05
-9.41234e-06
5.31058e-05
-7.82506e-06
5.04411e-05
3.7831e-05
9.47745e-06
3.27271e-05
9.40047e-06
5.96186e-05
9.90542e-06
6.32713e-05
9.63152e-06
6.58691e-05
9.08678e-06
6.81568e-05
8.55646e-06
7.16629e-05
9.84842e-06
7.88186e-05
1.32299e-05
9.36671e-05
1.77029e-05
9.8305e-05
1.09802e-05
6.62699e-05
1.51101e-06
1.21543e-05
1.21978e-06
5.10603e-07
1.46849e-06
7.59319e-06
8.15384e-07
1.67632e-05
-4.37541e-06
2.65149e-05
-5.47331e-06
1.84748e-05
-4.07047e-06
7.18674e-06
-4.90901e-06
2.06904e-06
-1.2013e-05
8.25263e-06
-2.39356e-05
6.04382e-05
-1.93464e-05
9.76208e-05
-1.60975e-05
9.54787e-05
-1.45319e-05
8.17462e-05
-1.58214e-05
7.11722e-05
-1.77278e-05
6.58485e-05
-1.83396e-05
6.07482e-05
-1.60351e-05
5.39492e-05
-1.30923e-05
5.0199e-05
-1.18967e-05
4.92805e-05
2.59647e-05
1.07982e-05
2.19571e-05
1.18246e-05
5.86287e-05
1.29952e-05
6.21381e-05
1.37144e-05
6.5188e-05
1.36281e-05
6.82819e-05
1.35548e-05
7.1776e-05
1.5409e-05
7.70062e-05
2.12919e-05
8.78295e-05
2.84667e-05
9.11781e-05
2.38565e-05
7.09213e-05
1.09055e-05
2.51292e-05
9.64324e-06
1.78653e-06
9.49634e-06
7.75298e-06
3.30203e-06
2.29737e-05
-4.40591e-06
3.42437e-05
-1.18792e-05
2.59651e-05
-1.32803e-05
8.59932e-06
-1.32784e-05
2.0802e-06
-2.40857e-05
1.90816e-05
-3.39515e-05
7.03441e-05
-2.77031e-05
9.14213e-05
-2.24317e-05
9.02548e-05
-2.08502e-05
8.02086e-05
-2.28068e-05
7.31701e-05
-2.44542e-05
6.75357e-05
-2.41346e-05
6.0467e-05
-2.06045e-05
5.04552e-05
-1.60256e-05
4.56546e-05
-1.31933e-05
4.64824e-05
1.27976e-05
1.01275e-05
1.1854e-05
1.55224e-05
5.32688e-05
1.68748e-05
6.08221e-05
1.77542e-05
6.4346e-05
1.78992e-05
6.81751e-05
1.85999e-05
7.11144e-05
2.03329e-05
7.53135e-05
2.62633e-05
8.19417e-05
3.32411e-05
8.42446e-05
2.97746e-05
7.44287e-05
1.67707e-05
3.81608e-05
1.20234e-05
6.55048e-06
1.2267e-05
7.52706e-06
6.45524e-06
2.88085e-05
-2.78295e-06
4.35098e-05
-1.31991e-05
3.6406e-05
-1.50642e-05
1.04814e-05
-1.72227e-05
4.25319e-06
-3.01282e-05
3.20124e-05
-3.6141e-05
7.63983e-05
-3.17155e-05
8.70419e-05
-2.7449e-05
8.60339e-05
-2.75181e-05
8.03205e-05
-2.96988e-05
7.53925e-05
-3.18526e-05
6.97299e-05
-3.14142e-05
6.00669e-05
-2.59755e-05
4.50516e-05
-1.82306e-05
3.79427e-05
-8.44199e-06
3.67256e-05
4.37714e-06
7.23137e-06
4.6434e-06
1.92378e-05
4.12945e-05
2.15443e-05
5.85511e-05
2.20789e-05
6.38482e-05
2.21281e-05
6.81636e-05
2.258e-05
7.07007e-05
2.39622e-05
7.39702e-05
2.81424e-05
7.7801e-05
3.27608e-05
7.9667e-05
3.04613e-05
7.67673e-05
2.09336e-05
4.77179e-05
1.37444e-05
1.37586e-05
1.19402e-05
9.34812e-06
1.00302e-05
3.07415e-05
-2.33989e-06
5.59091e-05
-1.16045e-05
4.56971e-05
-1.47149e-05
1.36088e-05
-2.04328e-05
9.9872e-06
-2.96273e-05
4.12347e-05
-3.30688e-05
7.98809e-05
-3.17763e-05
8.57934e-05
-3.04203e-05
8.47217e-05
-3.19242e-05
8.18672e-05
-3.49499e-05
7.84605e-05
-3.85581e-05
7.33799e-05
-3.72887e-05
5.88365e-05
-2.72071e-05
3.50036e-05
-1.61971e-05
2.6963e-05
-8.9155e-07
2.14476e-05
3.50302e-06
2.47741e-06
2.18379e-06
1.769e-05
2.61097e-05
2.7087e-05
4.91879e-05
2.65858e-05
6.43862e-05
2.60277e-05
6.87591e-05
2.5558e-05
7.12082e-05
2.61379e-05
7.34278e-05
2.77607e-05
7.62162e-05
2.90335e-05
7.84326e-05
2.80985e-05
7.77399e-05
2.35848e-05
5.22614e-05
1.77664e-05
1.95965e-05
1.41094e-05
1.3021e-05
1.21325e-05
3.27411e-05
-1.51827e-06
6.95934e-05
-1.26416e-05
5.68503e-05
-1.67658e-05
1.77497e-05
-2.25799e-05
1.58185e-05
-2.56339e-05
4.4317e-05
-2.70238e-05
8.1311e-05
-2.87119e-05
8.75241e-05
-3.07971e-05
8.685e-05
-3.3707e-05
8.482e-05
-3.75603e-05
8.23572e-05
-4.1294e-05
7.71573e-05
-3.45803e-05
5.21615e-05
-2.02681e-05
2.07209e-05
-9.3114e-06
1.6032e-05
2.13012e-06
1.00277e-05
5.6482e-06
-1.22935e-06
3.42906e-06
1.03904e-05
1.45129e-05
2.74775e-05
3.21309e-05
2.99884e-05
6.1912e-05
2.8309e-05
7.04762e-05
2.73775e-05
7.21772e-05
2.65762e-05
7.42663e-05
2.5981e-05
7.68485e-05
2.50206e-05
7.94306e-05
2.51247e-05
7.7673e-05
2.62933e-05
5.11223e-05
2.2207e-05
2.37023e-05
1.72512e-05
1.79925e-05
1.20221e-05
3.79935e-05
1.60168e-07
8.14937e-05
-1.41138e-05
7.1159e-05
-1.96919e-05
2.33452e-05
-2.47479e-05
2.08918e-05
-2.27852e-05
4.23814e-05
-1.97864e-05
7.83509e-05
-2.36221e-05
9.14021e-05
-2.83871e-05
9.16581e-05
-3.32159e-05
8.96922e-05
-3.68501e-05
8.60358e-05
-3.79171e-05
7.82689e-05
-2.39466e-05
3.82263e-05
-1.18526e-05
8.65087e-06
-3.10825e-06
7.30802e-06
2.12279e-06
4.81282e-06
7.78521e-06
-2.60297e-06
6.04679e-06
3.25694e-06
8.67176e-06
1.90139e-05
1.63981e-05
3.02123e-05
5.07482e-05
2.89858e-05
7.1741e-05
2.72052e-05
7.39955e-05
2.54667e-05
7.60417e-05
2.29061e-05
7.94458e-05
2.03083e-05
8.20656e-05
2.36476e-05
7.43697e-05
2.92925e-05
4.55051e-05
2.63228e-05
2.66914e-05
1.98441e-05
2.44876e-05
9.42757e-06
4.84362e-05
7.94703e-07
9.01693e-05
-1.36885e-05
8.56842e-05
-2.09816e-05
3.06555e-05
-2.63756e-05
2.6303e-05
-2.26452e-05
3.86759e-05
-1.36554e-05
6.93972e-05
-1.64012e-05
9.41906e-05
-2.37418e-05
9.90431e-05
-3.14949e-05
9.74898e-05
-3.66853e-05
9.1272e-05
-2.94658e-05
7.10925e-05
-1.30441e-05
2.18335e-05
-6.17109e-06
1.7967e-06
-1.58615e-07
1.31131e-06
1.42781e-06
3.24023e-06
9.22752e-06
-2.09845e-06
8.15911e-06
-4.38516e-07
7.02745e-06
7.38896e-06
8.58941e-06
2.49877e-05
3.31791e-05
2.76237e-05
6.91429e-05
2.5788e-05
7.58691e-05
2.33354e-05
7.85313e-05
2.0086e-05
8.27319e-05
1.71428e-05
8.50461e-05
2.57158e-05
6.58301e-05
3.13997e-05
3.9846e-05
2.78126e-05
3.02975e-05
2.10355e-05
3.12828e-05
4.51526e-06
6.49885e-05
1.10073e-06
9.36289e-05
-6.97375e-06
9.3805e-05
-1.98753e-05
4.35773e-05
-2.62352e-05
3.26809e-05
-2.53289e-05
3.7792e-05
-1.30124e-05
5.71129e-05
-9.41757e-06
9.06384e-05
-1.80771e-05
0.000107749
-2.91856e-05
0.000108646
-3.55477e-05
9.76826e-05
-1.89815e-05
5.45654e-05
-6.39117e-06
9.26576e-06
-2.75788e-06
-1.82132e-06
3.79643e-07
-1.81321e-06
8.50707e-07
2.78238e-06
1.00932e-05
-1.67216e-06
9.84435e-06
-2.19762e-06
7.56664e-06
-2.34403e-07
6.64176e-06
1.39105e-05
1.90578e-05
2.49479e-05
5.81408e-05
2.33743e-05
7.74805e-05
2.09351e-05
8.10075e-05
1.77997e-05
8.59044e-05
1.92218e-05
8.36612e-05
3.02909e-05
5.47908e-05
3.14126e-05
3.87468e-05
2.53919e-05
3.63381e-05
1.68484e-05
3.98459e-05
4.11721e-07
8.14645e-05
2.73506e-06
9.13503e-05
4.17202e-06
9.24137e-05
-1.70552e-05
6.48346e-05
-2.2908e-05
3.85535e-05
-2.64044e-05
4.13092e-05
-1.91107e-05
4.9847e-05
-5.95666e-06
7.75243e-05
-1.19334e-05
0.000113777
-2.55243e-05
0.000122291
-3.06778e-05
0.000102889
-1.05959e-05
3.45169e-05
-3.40364e-06
2.09162e-06
-1.39577e-06
-3.81627e-06
-2.78317e-07
-2.9187e-06
2.0263e-07
2.31448e-06
1.0311e-05
-1.77859e-06
1.16355e-05
-3.28128e-06
9.08198e-06
-4.0944e-06
7.46866e-06
2.05576e-06
1.29265e-05
1.7986e-05
4.22411e-05
2.14503e-05
7.40535e-05
1.86783e-05
8.38166e-05
1.72652e-05
8.73543e-05
2.64972e-05
7.44644e-05
3.28538e-05
4.84603e-05
2.80602e-05
4.35613e-05
2.04649e-05
4.39538e-05
2.21309e-06
5.81212e-05
-2.09766e-06
8.58161e-05
4.64323e-06
8.4651e-05
1.24293e-05
8.46701e-05
-2.98526e-06
8.02865e-05
-1.48817e-05
5.04726e-05
-2.06222e-05
4.70724e-05
-2.17156e-05
5.09645e-05
-8.95526e-06
6.47991e-05
-3.88941e-06
0.000108763
-1.87819e-05
0.000137245
-2.25608e-05
0.000106726
-6.38428e-06
1.83672e-05
-2.47987e-06
-1.79746e-06
-1.37402e-06
-4.91036e-06
-1.13519e-06
-3.14599e-06
-1.30808e-06
2.50036e-06
9.01694e-06
-2.18746e-06
1.38354e-05
-4.34972e-06
1.12565e-05
-6.24867e-06
9.38048e-06
-5.38698e-06
1.2081e-05
6.47683e-06
3.04026e-05
1.60173e-05
6.4548e-05
1.55628e-05
8.4309e-05
1.9149e-05
8.38042e-05
3.17904e-05
6.18529e-05
2.81932e-05
5.20808e-05
1.99885e-05
5.179e-05
8.31742e-06
5.56482e-05
-9.89635e-06
7.63677e-05
-4.50175e-06
8.04591e-05
5.55401e-06
7.46323e-05
1.52685e-05
7.49932e-05
1.6269e-05
7.93245e-05
-9.24398e-07
6.76957e-05
-8.46675e-06
5.46395e-05
-1.29333e-05
5.5455e-05
-1.11806e-05
6.30757e-05
2.65269e-06
9.49802e-05
-7.89825e-06
0.000147868
-1.46041e-05
0.000113494
-4.64915e-06
8.43233e-06
-2.48523e-06
-3.9483e-06
-1.66926e-06
-5.71538e-06
-1.55613e-06
-3.24845e-06
-8.56756e-07
1.81295e-06
8.17211e-06
-2.65088e-06
1.64992e-05
-5.35696e-06
1.39751e-05
-7.99302e-06
1.20295e-05
-9.05388e-06
1.3157e-05
-4.43891e-06
2.58099e-05
6.0423e-06
5.40988e-05
1.28796e-05
7.75095e-05
2.3388e-05
7.33296e-05
2.6286e-05
5.89809e-05
1.86187e-05
5.97728e-05
9.31973e-06
6.11149e-05
-9.07592e-06
7.4074e-05
-1.48253e-05
8.21534e-05
-6.60501e-06
7.2274e-05
5.71664e-06
6.23432e-05
1.78384e-05
6.29046e-05
2.68316e-05
7.03672e-05
1.8807e-05
7.57551e-05
6.44161e-06
6.70332e-05
6.71867e-07
6.12494e-05
-3.48201e-06
6.72575e-05
2.8233e-06
8.87194e-05
2.20915e-06
0.000148557
-8.77966e-06
0.000124547
-4.33693e-06
4.004e-06
-2.43244e-06
-5.84194e-06
-8.45458e-07
-7.29247e-06
5.97863e-07
-4.68244e-06
1.05553e-06
1.36442e-06
9.2376e-06
-3.00006e-06
1.95135e-05
-6.05545e-06
1.70444e-05
-9.1234e-06
1.51116e-05
-1.11799e-05
1.52292e-05
-9.6529e-06
2.43047e-05
4.68867e-08
4.443e-05
1.51859e-05
6.24065e-05
2.77637e-05
6.0783e-05
2.15307e-05
6.52402e-05
1.29609e-05
6.83701e-05
-4.38553e-06
7.84919e-05
-1.72363e-05
8.69599e-05
-1.33254e-05
7.82784e-05
-3.79981e-06
6.27802e-05
4.87636e-06
5.3695e-05
1.36853e-05
5.4124e-05
2.39033e-05
6.01804e-05
2.90996e-05
7.05934e-05
2.16327e-05
7.4533e-05
1.28307e-05
7.00801e-05
7.1667e-06
7.29504e-05
1.72365e-06
9.42029e-05
8.2853e-06
0.000142065
-3.15264e-06
0.000136049
-3.54117e-06
4.40284e-06
-1.79532e-06
-7.57948e-06
4.96577e-07
-9.57599e-06
2.04603e-06
-6.22444e-06
1.73226e-06
1.68581e-06
1.09791e-05
-3.14127e-06
2.26712e-05
-6.35528e-06
2.02747e-05
-9.61613e-06
1.83891e-05
-1.16422e-05
1.72723e-05
-9.17337e-06
2.18576e-05
2.22758e-06
3.30581e-05
1.91126e-05
4.55546e-05
2.54081e-05
5.45158e-05
1.66621e-05
7.40155e-05
1.95151e-06
8.31129e-05
-1.2869e-05
9.33499e-05
-1.13399e-05
8.54681e-05
-3.07787e-06
7.00499e-05
2.55627e-06
5.71742e-05
4.22619e-06
5.20494e-05
6.31229e-06
5.20623e-05
1.16005e-05
5.49193e-05
1.97546e-05
6.2471e-05
2.41542e-05
7.0167e-05
2.14091e-05
7.28575e-05
1.5423e-05
7.89676e-05
2.78857e-06
0.00010688
7.65454e-06
0.000137262
3.92267e-06
0.000139843
-2.39232e-06
1.07271e-05
-2.0897e-06
-7.87595e-06
2.23621e-07
-1.18828e-05
1.65256e-06
-7.64667e-06
1.41806e-06
1.92817e-06
1.24068e-05
-2.60417e-06
2.52947e-05
-6.51894e-06
2.42106e-05
-1.01749e-05
2.20664e-05
-1.14458e-05
1.85626e-05
-8.44484e-06
1.8877e-05
1.15758e-06
2.34796e-05
1.13124e-05
3.54258e-05
1.43253e-05
5.15313e-05
4.38259e-06
8.39962e-05
-7.80752e-06
9.53448e-05
-6.8512e-06
9.24382e-05
1.5079e-06
7.71481e-05
6.37222e-06
6.52175e-05
6.2612e-06
5.73126e-05
4.35877e-06
5.39774e-05
2.85125e-06
5.35951e-05
2.51196e-06
5.52846e-05
5.30354e-06
5.97081e-05
1.05015e-05
6.50007e-05
1.50153e-05
6.83766e-05
1.54576e-05
7.85608e-05
5.05688e-06
0.000117329
6.69671e-06
0.000135684
1.34892e-05
0.000133115
1.1175e-06
2.31126e-05
-1.4857e-06
-5.26884e-06
-6.11736e-07
-1.27523e-05
8.48013e-07
-9.0998e-06
3.81407e-07
2.40298e-06
1.2798e-05
1.47687e-06
2.38376e-05
-7.6509e-06
3.33674e-05
-1.30033e-05
2.7442e-05
-1.28769e-05
1.84578e-05
-1.03182e-05
1.63398e-05
-4.42468e-06
1.76086e-05
6.45795e-07
3.03807e-05
-7.75385e-08
5.22913e-05
-7.48822e-06
9.14628e-05
-4.04433e-06
9.19579e-05
4.95416e-06
8.34899e-05
9.40218e-06
7.27409e-05
9.62094e-06
6.50341e-05
7.21363e-06
5.97516e-05
4.72717e-06
5.64939e-05
2.30399e-06
5.60471e-05
-3.09597e-08
5.76488e-05
-1.52572e-06
6.12338e-05
-1.24728e-06
6.47567e-05
-5.97361e-07
6.77639e-05
1.45702e-06
7.65471e-05
4.12496e-06
0.00011472
1.17357e-05
0.000128142
2.55162e-05
0.000119405
8.64301e-06
4.00121e-05
-7.18908e-07
4.09409e-06
-1.35976e-07
-1.33335e-05
1.77089e-06
-1.1002e-05
-3.64993e-06
7.82852e-06
9.1544e-06
3.78918e-06
2.00685e-05
-7.80723e-06
4.49959e-05
-1.22395e-05
3.19002e-05
-1.60627e-05
2.23074e-05
-1.46851e-05
1.49804e-05
-8.893e-06
1.18367e-05
-3.44482e-06
2.49526e-05
-1.19583e-05
6.0852e-05
-5.79574e-06
8.53735e-05
4.3057e-06
8.1926e-05
9.97855e-06
7.78735e-05
1.07971e-05
7.19698e-05
9.43502e-06
6.64431e-05
7.38891e-06
6.18413e-05
4.86524e-06
5.90568e-05
2.66413e-06
5.82825e-05
-1.73919e-07
6.0521e-05
-2.51242e-06
6.36077e-05
-4.92096e-06
6.72038e-05
-8.84098e-06
7.17233e-05
-1.24901e-05
8.02399e-05
-1.12335e-06
0.000103425
1.37961e-05
0.000113301
3.25925e-05
0.000100677
8.9224e-06
6.37195e-05
-1.47664e-06
1.44987e-05
-4.16469e-07
-1.44006e-05
-3.10189e-06
-8.31746e-06
-1.06955e-05
1.54325e-05
-1.53582e-06
-6.72064e-06
2.68128e-05
-4.97804e-06
4.32847e-05
-9.42571e-06
3.63765e-05
-1.51907e-05
2.80981e-05
-1.30648e-05
1.28724e-05
-6.73609e-06
5.51513e-06
1.0851e-07
1.81274e-05
-6.95874e-06
6.79603e-05
3.23284e-06
7.52383e-05
8.91983e-06
7.62914e-05
1.0734e-05
7.61077e-05
1.09869e-05
7.17588e-05
9.47754e-06
6.79831e-05
7.17309e-06
6.41695e-05
3.94529e-06
6.23117e-05
8.66367e-07
6.13961e-05
-2.46948e-06
6.38942e-05
-5.20074e-06
6.63785e-05
-8.23909e-06
7.02834e-05
-1.2985e-05
7.65139e-05
-2.17006e-05
8.90074e-05
-1.2023e-05
9.38092e-05
3.26301e-06
9.80761e-05
1.32834e-05
9.07048e-05
-1.42455e-05
9.12956e-05
-1.54852e-05
1.57593e-05
-3.94823e-06
-2.59404e-05
-4.75368e-06
-7.50833e-06
-3.54557e-07
1.10506e-05
-1.87949e-06
-4.65931e-06
3.14966e-05
4.65445e-06
3.39971e-05
7.60408e-06
3.34537e-05
5.48739e-06
3.02406e-05
8.59341e-07
1.75221e-05
1.62966e-05
-9.91099e-06
2.23522e-05
1.20943e-05
1.42265e-05
7.61258e-05
1.33739e-05
7.61312e-05
1.33156e-05
7.63927e-05
1.43303e-05
7.51364e-05
1.27771e-05
7.33531e-05
1.08519e-05
6.9943e-05
6.54095e-06
6.85115e-05
1.74167e-06
6.71427e-05
-5.02863e-06
6.82012e-05
-1.09416e-05
6.98432e-05
-1.7964e-05
7.34377e-05
-2.41984e-05
7.6556e-05
-3.14224e-05
8.37786e-05
-3.39723e-05
9.16026e-05
-2.98672e-05
8.97502e-05
-2.30702e-05
9.13262e-05
-2.9022e-05
9.67021e-05
-3.52061e-05
9.75312e-05
-1.7716e-05
-1.70748e-06
-7.59438e-06
-3.60555e-05
-7.19533e-06
-7.89455e-06
1.66188e-06
2.20813e-06
-2.02289e-07
6.41627e-06
2.5103e-05
9.59389e-06
3.08433e-05
1.38874e-05
2.91844e-05
1.93167e-05
2.48355e-05
2.12653e-05
1.55974e-05
2.52833e-05
-1.39108e-05
2.5943e-05
1.14587e-05
2.92351e-05
7.28717e-05
2.66416e-05
7.87629e-05
2.41387e-05
7.89351e-05
2.06241e-05
7.86907e-05
1.66271e-05
7.73891e-05
1.05567e-05
7.60522e-05
3.92443e-06
7.5182e-05
-3.94224e-06
7.50467e-05
-1.14251e-05
7.57205e-05
-1.87342e-05
7.7189e-05
-2.46146e-05
7.93554e-05
-3.02001e-05
8.21796e-05
-3.23753e-05
8.59929e-05
-3.04299e-05
8.96973e-05
-3.20049e-05
9.13657e-05
-3.59678e-05
9.53314e-05
-3.91509e-05
9.99298e-05
-3.10997e-05
8.95263e-05
-1.14936e-05
-2.12958e-05
-6.39852e-06
-4.11424e-05
-4.9682e-06
-9.30957e-06
-5.30784e-07
-2.21566e-06
-7.17761e-07
1.24268e-05
1.26968e-05
1.30004e-05
3.0293e-05
1.60841e-05
2.61238e-05
1.95e-05
2.14422e-05
2.50807e-05
1.00386e-05
2.70848e-05
-1.58969e-05
2.96642e-05
8.90258e-06
2.86662e-05
7.39055e-05
2.59399e-05
8.15252e-05
2.24172e-05
8.2494e-05
1.85759e-05
8.25681e-05
1.3985e-05
8.20158e-05
8.67644e-06
8.13963e-05
2.66563e-06
8.12283e-05
-3.60268e-06
8.13504e-05
-9.83677e-06
8.19898e-05
-1.557e-05
8.29579e-05
-2.05149e-05
8.43366e-05
-2.44383e-05
8.614e-05
-2.65292e-05
8.81216e-05
-2.68782e-05
9.00849e-05
-2.80092e-05
9.25353e-05
-2.94691e-05
9.68309e-05
-2.90599e-05
9.95616e-05
-2.05443e-05
8.10516e-05
-6.06946e-06
-3.57577e-05
-4.03731e-06
-4.3167e-05
-2.80537e-06
-1.05272e-05
-1.01803e-06
-3.98967e-06
-1.72036e-06
1.13779e-05
1.33723e-06
1.23742e-05
2.93199e-05
1.56008e-05
2.29193e-05
1.87632e-05
1.83014e-05
2.61735e-05
2.64845e-06
3.16618e-05
-2.13681e-05
3.29639e-05
7.62379e-06
2.80048e-05
7.89018e-05
2.38175e-05
8.57492e-05
1.99195e-05
8.6429e-05
1.59178e-05
8.66066e-05
1.16747e-05
8.62956e-05
7.02795e-06
8.60794e-05
2.15216e-06
8.61405e-05
-2.88019e-06
8.6419e-05
-7.71964e-06
8.68657e-05
-1.22452e-05
8.75201e-05
-1.61475e-05
8.82759e-05
-1.93209e-05
8.9351e-05
-2.15106e-05
9.03494e-05
-2.27095e-05
9.1322e-05
-2.35006e-05
9.3365e-05
-2.38368e-05
9.72065e-05
-2.30594e-05
9.88249e-05
-1.11323e-05
6.91618e-05
-2.04417e-06
-4.48357e-05
-2.0343e-06
-4.31691e-05
-1.75547e-06
-1.07923e-05
-1.21499e-06
-4.51639e-06
-2.91979e-06
5.33147e-06
-3.97803e-06
7.2815e-06
2.73931e-05
1.27984e-05
1.74241e-05
1.74427e-05
1.36785e-05
2.50209e-05
-4.91068e-06
3.22636e-05
-2.85945e-05
3.29288e-05
6.98258e-06
2.61941e-05
8.56756e-05
2.14271e-05
9.05544e-05
1.7312e-05
9.05821e-05
1.34876e-05
9.04689e-05
9.6496e-06
9.01711e-05
5.7429e-06
9.00236e-05
1.71758e-06
9.02032e-05
-2.2451e-06
9.04191e-05
-6.09601e-06
9.0754e-05
-9.63351e-06
9.10952e-05
-1.28206e-05
9.15007e-05
-1.54603e-05
9.20288e-05
-1.75696e-05
9.24968e-05
-1.89803e-05
9.27712e-05
-1.98632e-05
9.42865e-05
-2.04698e-05
9.78528e-05
-2.02891e-05
9.86847e-05
-3.26843e-06
5.21747e-05
9.48799e-07
-4.90441e-05
-6.20673e-07
-4.15909e-05
-9.94331e-07
-1.04038e-05
-1.44887e-06
-4.04737e-06
-4.35298e-06
-7.61707e-07
-3.20102e-06
2.20724e-06
2.44478e-05
9.14183e-06
1.05109e-05
1.52935e-05
7.54818e-06
2.06838e-05
-1.02825e-05
2.76559e-05
-3.5552e-05
2.70078e-05
7.65497e-06
2.12689e-05
9.14554e-05
1.73869e-05
9.44755e-05
1.41557e-05
9.38523e-05
1.09964e-05
9.36668e-05
7.82436e-06
9.33816e-05
4.58683e-06
9.32993e-05
1.35064e-06
9.34776e-05
-1.85535e-06
9.36632e-05
-4.9042e-06
9.3841e-05
-7.76101e-06
9.39902e-05
-1.03129e-05
9.40909e-05
-1.25483e-05
9.43027e-05
-1.44273e-05
9.44145e-05
-1.59382e-05
9.43207e-05
-1.69222e-05
9.53093e-05
-1.71734e-05
9.81437e-05
-1.76918e-05
9.92441e-05
2.04841e-06
3.24644e-05
3.04965e-06
-5.00369e-05
5.25999e-07
-3.90576e-05
-5.11623e-07
-9.35058e-06
-1.74262e-06
-2.80139e-06
-6.08e-06
-2.48331e-06
-7.0219e-07
1.36552e-06
2.06228e-05
7.39194e-06
4.50504e-06
1.25168e-05
2.44421e-06
1.53917e-05
-1.31395e-05
2.11863e-05
-4.13341e-05
1.67912e-05
1.20744e-05
1.44034e-05
9.38845e-05
1.27387e-05
9.618e-05
1.0858e-05
9.57725e-05
8.56988e-06
9.59942e-05
6.11766e-06
9.58727e-05
3.5436e-06
9.59123e-05
9.26195e-07
9.61338e-05
-1.62999e-06
9.62583e-05
-4.0898e-06
9.63396e-05
-6.36235e-06
9.63016e-05
-8.42548e-06
9.61929e-05
-1.02251e-05
9.61412e-05
-1.18084e-05
9.60367e-05
-1.31084e-05
9.56595e-05
-1.38401e-05
9.60799e-05
-1.36396e-05
9.79831e-05
-1.26355e-05
9.82812e-05
4.9896e-06
1.4865e-05
4.46395e-06
-4.95026e-05
1.32685e-06
-3.59099e-05
6.60098e-08
-8.07398e-06
-1.3752e-06
-1.34486e-06
-7.4398e-06
-5.78097e-07
-1.08656e-07
2.45365e-06
1.7614e-05
5.266e-06
1.71201e-06
8.78022e-06
-1.05004e-06
1.09833e-05
-1.53252e-05
1.50749e-05
-4.54152e-05
6.88146e-06
2.02925e-05
7.93948e-06
9.28671e-05
8.576e-06
9.5583e-05
7.86602e-06
9.65222e-05
6.44055e-06
9.74592e-05
4.62204e-06
9.77307e-05
2.59558e-06
9.79781e-05
5.12259e-07
9.82566e-05
-1.56597e-06
9.83758e-05
-3.5443e-06
9.83574e-05
-5.37626e-06
9.81728e-05
-7.03763e-06
9.78936e-05
-8.39362e-06
9.75364e-05
-9.55664e-06
9.72389e-05
-1.03338e-05
9.64757e-05
-1.06258e-05
9.64108e-05
-9.65909e-06
9.70561e-05
-7.5603e-06
9.62233e-05
6.48245e-06
8.44353e-07
5.32866e-06
-4.83399e-05
1.85141e-06
-3.24209e-05
6.23292e-07
-6.82966e-06
-7.17232e-07
1.21053e-08
-8.14158e-06
4.08058e-07
-5.01975e-07
3.72986e-06
1.43135e-05
2.71128e-06
2.7491e-06
5.4157e-06
-3.73565e-06
7.289e-06
-1.71823e-05
9.0005e-06
-4.71175e-05
2.04138e-06
2.72767e-05
4.72859e-06
9.02193e-05
5.91433e-06
9.44362e-05
5.83407e-06
9.66419e-05
4.85028e-06
9.84827e-05
3.44286e-06
9.91779e-05
1.80455e-06
9.96562e-05
9.48026e-08
0.000100006
-1.61135e-06
0.000100122
-3.23176e-06
0.000100018
-4.77027e-06
9.97511e-05
-6.05119e-06
9.9214e-05
-7.14217e-06
9.86669e-05
-7.82505e-06
9.79611e-05
-8.05973e-06
9.67494e-05
-7.6517e-06
9.60415e-05
-6.51265e-06
9.59566e-05
-3.54713e-06
9.32978e-05
7.6455e-06
-1.03292e-05
6.14807e-06
-4.68332e-05
2.2248e-06
-2.84846e-05
1.06755e-06
-5.6555e-06
6.23042e-08
1.03446e-06
-8.06365e-06
6.55466e-11
-4.8841e-07
5.11071e-06
9.22178e-06
2.41381e-06
5.46399e-06
3.33057e-06
-4.6351e-06
3.8821e-06
-1.77192e-05
3.19779e-06
-4.64247e-05
3.31775e-06
2.71816e-05
4.64547e-06
8.89299e-05
5.25223e-06
9.38677e-05
4.8702e-06
9.70633e-05
3.91443e-06
9.94782e-05
2.58481e-06
0.000100548
1.19821e-06
0.000101083
-2.96611e-07
0.000101541
-1.73521e-06
0.000101601
-3.16215e-06
0.000101485
-4.43537e-06
0.000101064
-5.5615e-06
0.00010038
-6.43647e-06
9.95816e-05
-6.91668e-06
9.84808e-05
-6.77097e-06
9.66426e-05
-5.92349e-06
9.52326e-05
-4.22595e-06
9.4298e-05
-7.66298e-07
8.98772e-05
8.69172e-06
-1.97705e-05
6.59389e-06
-4.47253e-05
2.43159e-06
-2.43081e-05
1.51775e-06
-4.72426e-06
6.74414e-07
1.89537e-06
-7.3734e-06
-1.14566e-06
6.69688e-07
4.82535e-06
3.26685e-06
4.98326e-06
5.32324e-06
2.75157e-06
-2.387e-06
1.76375e-06
-1.67168e-05
-2.05742e-06
-4.25946e-05
8.26331e-06
1.68851e-05
6.88645e-06
9.03452e-05
5.8578e-06
9.49348e-05
4.63196e-06
9.83285e-05
3.32076e-06
0.00010083
2.04965e-06
0.000101859
6.71978e-07
0.000102501
-6.20506e-07
0.000102874
-1.97174e-06
0.000102993
-3.22678e-06
0.00010278
-4.40361e-06
0.000102282
-5.49563e-06
0.000101512
-6.33062e-06
0.000100457
-6.80774e-06
9.89975e-05
-6.62245e-06
9.64962e-05
-5.59573e-06
9.4244e-05
-3.76698e-06
9.25076e-05
1.30582e-06
8.48421e-05
9.55211e-06
-2.80018e-05
6.3958e-06
-4.15582e-05
2.11973e-06
-2.00166e-05
1.43894e-06
-4.02556e-06
9.13954e-07
2.43842e-06
-6.44337e-06
-1.30486e-06
1.98617e-06
2.34424e-06
-3.68973e-07
7.13339e-06
5.49959e-07
4.29636e-06
4.66372e-07
1.41961e-06
-1.3825e-05
-3.67361e-06
-3.74905e-05
1.13734e-05
1.86033e-06
8.48223e-06
9.32759e-05
6.35661e-06
9.70992e-05
4.42677e-06
0.000100298
2.92485e-06
0.000102372
1.56349e-06
0.000103261
2.86072e-07
0.000103819
-9.92017e-07
0.000104193
-2.20465e-06
0.000104246
-3.43345e-06
0.00010405
-4.62493e-06
0.000103514
-5.75972e-06
0.000102688
-6.76075e-06
0.000101498
-7.47689e-06
9.97534e-05
-7.70364e-06
9.67618e-05
-7.1692e-06
9.37475e-05
-5.33743e-06
9.07135e-05
3.40274e-06
7.61371e-05
9.49941e-06
-3.4085e-05
5.58574e-06
-3.76326e-05
1.81386e-06
-1.62283e-05
1.34634e-06
-3.53993e-06
6.36738e-07
3.16644e-06
-5.79059e-06
-7.8747e-07
2.78502e-06
1.21411e-07
-1.26613e-06
4.45828e-06
-3.77358e-06
6.91565e-06
-1.97484e-06
2.08664e-06
-8.98052e-06
-1.63827e-06
-3.3754e-05
1.0138e-05
-9.89636e-06
8.45695e-06
9.49977e-05
5.94984e-06
9.96461e-05
4.01176e-06
0.000102277
2.47639e-06
0.000103948
1.14619e-06
0.000104632
-7.5977e-08
0.000105083
-1.28119e-06
0.00010544
-2.49307e-06
0.000105499
-3.70849e-06
0.000105307