/*--------------------------------*- C++ -*----------------------------------*\
| =========                 |                                                 |
| \\      /  F ield         | OpenFOAM: The Open Source CFD Toolbox           |
|  \\    /   O peration     | Version:  2.3.0                                 |
|   \\  /    A nd           | Web:      www.OpenFOAM.org                      |
|    \\/     M anipulation  |                                                 |
\*---------------------------------------------------------------------------*/
FoamFile
{
    version     2.0;
    format      ascii;
    class       volVectorField;
    location    "0.45";
    object      U.air;
}
// * * * * * * * * * * * * * * * * * * * * * * * * * * * * * * * * * * * * * //

dimensions      [0 1 -1 0 0 0 0];

internalField   nonuniform List<vector> 
6000
(
(0.00916006 0.342447 0)
(0.0138925 0.346298 0)
(-0.0530226 0.334225 0)
(-0.110194 0.319836 0)
(-0.116209 0.281612 0)
(-0.0684648 0.243369 0)
(-0.0129886 0.224865 0)
(-0.0125027 0.240546 0)
(-0.0378541 0.240938 0)
(-0.0839981 0.228956 0)
(-0.0971667 0.212633 0)
(-0.0743019 0.140563 0)
(-0.0384061 0.0977596 0)
(-0.0288256 0.136585 0)
(-0.00562824 0.122613 0)
(0.0202298 0.130945 0)
(0.0195491 0.115053 0)
(0.0382692 0.113728 0)
(0.0737131 0.191127 0)
(0.0859321 0.238266 0)
(0.0461348 0.248203 0)
(2.07859e-05 0.250059 0)
(-0.00723307 0.226861 0)
(0.0200896 0.214121 0)
(0.0682491 0.243824 0)
(0.094886 0.290588 0)
(0.0850472 0.309256 0)
(0.0359096 0.329257 0)
(-0.0293728 0.344594 0)
(-0.020982 0.339811 0)
(0.0324507 0.949789 0)
(0.0719772 1.05492 0)
(0.052718 1.17228 0)
(0.00617208 1.16442 0)
(-0.0470524 1.10577 0)
(-0.0927862 1.10593 0)
(-0.125247 1.10209 0)
(-0.192412 1.08877 0)
(-0.234147 1.07743 0)
(-0.253774 1.02293 0)
(-0.208573 0.951333 0)
(-0.148713 0.933517 0)
(-0.10822 0.96682 0)
(-0.0670312 0.946124 0)
(-0.00794031 0.881388 0)
(0.0478546 0.936072 0)
(0.0991698 0.983171 0)
(0.126797 0.96205 0)
(0.180785 0.937803 0)
(0.222864 0.993864 0)
(0.224606 1.08097 0)
(0.167775 1.10628 0)
(0.105262 1.07736 0)
(0.0650464 1.1271 0)
(0.0418974 1.10379 0)
(0.0100449 1.10095 0)
(-0.00638742 1.144 0)
(-0.0303039 1.14053 0)
(-0.05378 1.07828 0)
(-0.0322202 0.941288 0)
(0.0277302 0.810316 0)
(0.063283 0.972342 0)
(-0.00363414 1.07371 0)
(-0.0313907 1.12083 0)
(-0.0748235 1.08204 0)
(-0.149218 1.08246 0)
(-0.200216 1.05341 0)
(-0.246604 1.05058 0)
(-0.294985 0.986999 0)
(-0.313686 0.822145 0)
(-0.26796 0.697787 0)
(-0.187591 0.62911 0)
(-0.0876294 0.634764 0)
(-0.0489104 0.727263 0)
(-0.0102065 0.603228 0)
(0.0336727 0.690056 0)
(0.0743658 0.706588 0)
(0.147753 0.622406 0)
(0.250853 0.67357 0)
(0.300089 0.799634 0)
(0.27722 0.970333 0)
(0.205867 1.0805 0)
(0.134403 1.0324 0)
(0.111501 1.03927 0)
(0.0761903 1.05351 0)
(0.0410751 1.03766 0)
(0.0485456 1.04789 0)
(0.0616781 1.02534 0)
(-0.0272969 1.03091 0)
(-0.0308806 0.802278 0)
(0.0451172 0.781282 0)
(0.0639575 1.01485 0)
(-0.0411354 1.08972 0)
(-0.0686283 1.04737 0)
(-0.0839419 1.02552 0)
(-0.127708 1.08653 0)
(-0.184537 1.07788 0)
(-0.253686 1.14301 0)
(-0.345345 1.13872 0)
(-0.375971 0.929729 0)
(-0.310611 0.735225 0)
(-0.212124 0.643261 0)
(-0.12711 0.663187 0)
(-0.0469146 0.751189 0)
(-0.00952918 0.621955 0)
(0.0110735 0.706964 0)
(0.092861 0.728739 0)
(0.187753 0.636095 0)
(0.28604 0.693214 0)
(0.369655 0.892477 0)
(0.325264 1.13224 0)
(0.202608 1.20109 0)
(0.128666 1.05967 0)
(0.104053 1.03498 0)
(0.0591869 1.02337 0)
(0.0518178 0.950293 0)
(0.0698225 0.984553 0)
(0.0699043 1.00631 0)
(-0.0350227 1.10195 0)
(-0.0403213 0.756537 0)
(-0.0279184 0.672673 0)
(-0.0607775 1.04995 0)
(-0.0941871 1.13863 0)
(-0.0987332 1.10113 0)
(-0.123639 1.06857 0)
(-0.162357 1.14441 0)
(-0.192798 1.09754 0)
(-0.258898 1.14351 0)
(-0.38054 1.15398 0)
(-0.464338 0.876721 0)
(-0.406558 0.661343 0)
(-0.276919 0.557285 0)
(-0.167323 0.584435 0)
(-0.0575615 0.702618 0)
(-0.0142545 0.638286 0)
(0.00480502 0.679596 0)
(0.113995 0.64168 0)
(0.234278 0.541928 0)
(0.365067 0.607982 0)
(0.435392 0.817898 0)
(0.372679 1.16043 0)
(0.247606 1.23166 0)
(0.177388 1.04649 0)
(0.138733 1.09003 0)
(0.114609 1.07533 0)
(0.0814694 0.982339 0)
(0.0674714 1.0154 0)
(0.0453231 1.0517 0)
(0.0542261 1.17489 0)
(0.0439622 0.669665 0)
(-0.0892925 0.773026 0)
(-0.15443 1.00357 0)
(-0.13202 1.02109 0)
(-0.118471 1.00061 0)
(-0.13025 1.02356 0)
(-0.152726 1.07206 0)
(-0.188803 1.12319 0)
(-0.278999 1.22678 0)
(-0.418382 1.30115 0)
(-0.502915 0.853582 0)
(-0.467447 0.546288 0)
(-0.339291 0.461202 0)
(-0.21182 0.511126 0)
(-0.0949899 0.635495 0)
(-0.0209042 0.629651 0)
(0.0362091 0.63117 0)
(0.157141 0.547869 0)
(0.282285 0.451357 0)
(0.411798 0.495185 0)
(0.455347 0.776861 0)
(0.401967 1.285 0)
(0.284907 1.28274 0)
(0.208409 1.11623 0)
(0.138055 1.04668 0)
(0.121229 1.00863 0)
(0.0892033 0.941584 0)
(0.0661633 0.933726 0)
(0.0536828 0.941288 0)
(0.106447 1.00002 0)
(0.0938002 0.777698 0)
(-0.0569011 0.811125 0)
(-0.0878218 0.928526 0)
(-0.0885017 0.943626 0)
(-0.0975155 0.951235 0)
(-0.108837 0.965684 0)
(-0.126115 1.01496 0)
(-0.156891 1.07164 0)
(-0.229138 1.18554 0)
(-0.344666 1.26373 0)
(-0.473836 0.880528 0)
(-0.448208 0.407747 0)
(-0.342829 0.319179 0)
(-0.230088 0.420166 0)
(-0.123784 0.558015 0)
(-0.0254359 0.584247 0)
(0.0636208 0.563177 0)
(0.174473 0.451104 0)
(0.278587 0.323777 0)
(0.384239 0.35207 0)
(0.423317 0.766693 0)
(0.337494 1.26342 0)
(0.221165 1.22493 0)
(0.155435 1.07938 0)
(0.103518 0.999738 0)
(0.0844027 0.942065 0)
(0.0661243 0.898016 0)
(0.0480828 0.878038 0)
(0.0378771 0.890844 0)
(0.0422152 0.894424 0)
(0.0486511 0.797248 0)
(-0.0201561 0.828243 0)
(-0.0134993 0.909222 0)
(-0.0325906 0.952384 0)
(-0.0528285 0.957464 0)
(-0.0725884 0.989672 0)
(-0.0882326 1.0219 0)
(-0.115364 1.12053 0)
(-0.185867 1.24841 0)
(-0.303375 1.3309 0)
(-0.36875 0.859675 0)
(-0.331346 0.267211 0)
(-0.279407 0.215173 0)
(-0.216177 0.353098 0)
(-0.128811 0.486087 0)
(-0.0275167 0.523837 0)
(0.0693949 0.493552 0)
(0.16098 0.380865 0)
(0.226838 0.237779 0)
(0.275709 0.224194 0)
(0.315162 0.715221 0)
(0.280473 1.32784 0)
(0.161211 1.27203 0)
(0.0887471 1.13198 0)
(0.0488628 1.01265 0)
(0.0413653 0.956856 0)
(0.023765 0.908161 0)
(0.00469232 0.89107 0)
(-0.00619827 0.886237 0)
(-0.0130843 0.869907 0)
(0.0175312 0.795374 0)
(0.00534893 0.818171 0)
(0.0442794 0.913417 0)
(0.0201306 0.952397 0)
(0.00149112 0.974854 0)
(-0.0263655 0.996034 0)
(-0.0486745 1.05701 0)
(-0.0618247 1.1519 0)
(-0.111841 1.32913 0)
(-0.179559 1.38441 0)
(-0.22648 0.851891 0)
(-0.231995 0.193016 0)
(-0.222 0.182126 0)
(-0.186324 0.312834 0)
(-0.111091 0.433531 0)
(-0.0264001 0.477883 0)
(0.0562026 0.441651 0)
(0.134178 0.334597 0)
(0.188323 0.206282 0)
(0.196437 0.16923 0)
(0.182993 0.68891 0)
(0.140721 1.38578 0)
(0.0736895 1.34499 0)
(0.0162375 1.18 0)
(-0.0112224 1.04089 0)
(-0.0166461 0.960521 0)
(-0.0386497 0.924143 0)
(-0.0563253 0.89208 0)
(-0.0590768 0.878769 0)
(-0.063607 0.838589 0)
(0.00379087 0.772747 0)
(0.0312637 0.754982 0)
(0.0930325 0.912303 0)
(0.069312 0.966813 0)
(0.0533118 0.983079 0)
(0.0284682 1.01986 0)
(0.0141068 1.05524 0)
(0.026445 1.16077 0)
(-0.000189952 1.32991 0)
(0.0013399 1.41527 0)
(-0.051798 0.893997 0)
(-0.135445 0.192554 0)
(-0.164009 0.182618 0)
(-0.128081 0.292239 0)
(-0.0729568 0.41185 0)
(-0.0244368 0.476387 0)
(0.0202464 0.425894 0)
(0.082272 0.300901 0)
(0.135755 0.196021 0)
(0.124845 0.173769 0)
(0.0233058 0.743464 0)
(-0.0532691 1.41661 0)
(-0.0534581 1.3626 0)
(-0.0740751 1.20157 0)
(-0.0846671 1.04695 0)
(-0.0888782 0.982592 0)
(-0.116279 0.930295 0)
(-0.126197 0.895117 0)
(-0.111918 0.856635 0)
(-0.124147 0.817825 0)
(-0.015821 0.701562 0)
(0.0425452 0.6504 0)
(0.131335 0.909227 0)
(0.111346 0.95899 0)
(0.103794 0.996487 0)
(0.0957291 1.01981 0)
(0.0815115 1.07307 0)
(0.0967164 1.15842 0)
(0.109802 1.34009 0)
(0.167039 1.38627 0)
(0.141996 0.969773 0)
(0.0170464 0.277413 0)
(-0.0590028 0.183993 0)
(-0.0137938 0.283919 0)
(0.0136687 0.40703 0)
(-0.0222153 0.505168 0)
(-0.0642062 0.428489 0)
(-0.0271013 0.285661 0)
(0.0293569 0.197892 0)
(-0.0257676 0.239393 0)
(-0.164484 0.875626 0)
(-0.235243 1.38897 0)
(-0.179489 1.36326 0)
(-0.157348 1.19981 0)
(-0.155418 1.07043 0)
(-0.174957 0.993796 0)
(-0.198572 0.941351 0)
(-0.194434 0.871759 0)
(-0.167435 0.82422 0)
(-0.188172 0.789084 0)
(-0.0284228 0.574858 0)
(0.045435 0.523052 0)
(0.162766 0.897584 0)
(0.146342 0.947815 0)
(0.152017 0.984782 0)
(0.148949 1.02814 0)
(0.143907 1.06415 0)
(0.155329 1.14343 0)
(0.186735 1.26976 0)
(0.282444 1.32147 0)
(0.290064 1.02348 0)
(0.145452 0.409895 0)
(0.0613425 0.182888 0)
(0.09035 0.274155 0)
(0.08553 0.430133 0)
(-0.00611647 0.586179 0)
(-0.107918 0.460795 0)
(-0.132042 0.268263 0)
(-0.0922807 0.193182 0)
(-0.149175 0.342456 0)
(-0.301505 0.991054 0)
(-0.346369 1.32532 0)
(-0.261282 1.30167 0)
(-0.226282 1.18144 0)
(-0.237839 1.07633 0)
(-0.26396 1.01831 0)
(-0.276373 0.937688 0)
(-0.265884 0.83489 0)
(-0.218625 0.773373 0)
(-0.228829 0.760477 0)
(-0.0228281 0.404772 0)
(0.0353798 0.385538 0)
(0.184057 0.868199 0)
(0.197001 0.923354 0)
(0.207439 0.974237 0)
(0.197032 1.01434 0)
(0.205141 1.06618 0)
(0.210269 1.10761 0)
(0.242828 1.20556 0)
(0.334927 1.22176 0)
(0.351049 1.04967 0)
(0.212865 0.564629 0)
(0.117834 0.195198 0)
(0.104761 0.246706 0)
(0.115647 0.51598 0)
(0.0271833 0.68376 0)
(-0.101141 0.589615 0)
(-0.13943 0.276322 0)
(-0.135141 0.175382 0)
(-0.208699 0.482653 0)
(-0.349935 1.06827 0)
(-0.374018 1.24413 0)
(-0.309493 1.2461 0)
(-0.293746 1.16089 0)
(-0.319898 1.10971 0)
(-0.356763 1.03066 0)
(-0.374404 0.93153 0)
(-0.353546 0.785378 0)
(-0.273037 0.713915 0)
(-0.210571 0.700578 0)
(0.0136014 0.245626 0)
(0.0136526 0.263233 0)
(0.184417 0.759173 0)
(0.258856 0.902534 0)
(0.265962 0.95796 0)
(0.254109 1.01934 0)
(0.255451 1.04456 0)
(0.254711 1.09969 0)
(0.273007 1.13648 0)
(0.332999 1.15844 0)
(0.340583 1.08442 0)
(0.241533 0.690458 0)
(0.145402 0.258914 0)
(0.105339 0.222096 0)
(0.121063 0.517186 0)
(0.0553462 0.774853 0)
(-0.0811661 0.667208 0)
(-0.114926 0.271427 0)
(-0.156261 0.203611 0)
(-0.223633 0.613693 0)
(-0.319841 1.10962 0)
(-0.341395 1.21769 0)
(-0.327424 1.21096 0)
(-0.334704 1.18548 0)
(-0.384858 1.12902 0)
(-0.436259 1.07319 0)
(-0.465649 0.931183 0)
(-0.413366 0.707157 0)
(-0.27245 0.595406 0)
(-0.130691 0.524785 0)
(0.0492589 0.175123 0)
(-0.0125047 0.185962 0)
(0.13128 0.582501 0)
(0.295376 0.845938 0)
(0.334807 0.956899 0)
(0.313503 1.00894 0)
(0.295606 1.05232 0)
(0.285589 1.07141 0)
(0.282244 1.1115 0)
(0.297503 1.11435 0)
(0.294343 1.08445 0)
(0.243851 0.763891 0)
(0.185329 0.328016 0)
(0.154248 0.240718 0)
(0.139416 0.533684 0)
(0.0764806 0.938876 0)
(-0.0766699 0.791925 0)
(-0.143643 0.304149 0)
(-0.184773 0.262612 0)
(-0.218879 0.672063 0)
(-0.247769 1.12708 0)
(-0.277405 1.20564 0)
(-0.305739 1.22187 0)
(-0.349356 1.19693 0)
(-0.414979 1.17749 0)
(-0.480692 1.10933 0)
(-0.476794 0.894907 0)
(-0.363673 0.553787 0)
(-0.190142 0.450407 0)
(-0.051534 0.342398 0)
(0.0497114 0.178578 0)
(-0.0339252 0.166063 0)
(0.0552723 0.408124 0)
(0.249042 0.676763 0)
(0.375165 0.952999 0)
(0.35515 1.02806 0)
(0.32276 1.05038 0)
(0.299352 1.08233 0)
(0.271028 1.09284 0)
(0.253225 1.11317 0)
(0.241792 1.07963 0)
(0.247104 0.774532 0)
(0.242994 0.37807 0)
(0.215771 0.283061 0)
(0.162338 0.580887 0)
(0.0861185 1.10621 0)
(-0.0731246 0.95472 0)
(-0.189747 0.357638 0)
(-0.228777 0.317083 0)
(-0.225306 0.667444 0)
(-0.178163 1.11372 0)
(-0.189584 1.23498 0)
(-0.253327 1.24229 0)
(-0.332874 1.24709 0)
(-0.408843 1.20987 0)
(-0.46733 1.14646 0)
(-0.39069 0.775982 0)
(-0.237958 0.392036 0)
(-0.0995907 0.332068 0)
(0.000989255 0.246241 0)
(0.0277226 0.207067 0)
(-0.03748 0.184248 0)
(0.00153005 0.294218 0)
(0.138449 0.46129 0)
(0.328436 0.882706 0)
(0.37259 1.04083 0)
(0.327966 1.06844 0)
(0.291082 1.0838 0)
(0.242478 1.11737 0)
(0.196814 1.12278 0)
(0.195562 1.06371 0)
(0.267044 0.722497 0)
(0.308556 0.409623 0)
(0.281881 0.350237 0)
(0.170829 0.686437 0)
(0.0678882 1.23495 0)
(-0.0682207 1.14568 0)
(-0.212686 0.442772 0)
(-0.269959 0.375139 0)
(-0.251712 0.611725 0)
(-0.138614 1.03742 0)
(-0.0915814 1.26169 0)
(-0.171755 1.31554 0)
(-0.292826 1.30121 0)
(-0.399832 1.26753 0)
(-0.413655 1.13094 0)
(-0.25541 0.594093 0)
(-0.125154 0.274777 0)
(-0.0359257 0.235765 0)
(0.0214921 0.201966 0)
(0.0145936 0.233746 0)
(-0.0266597 0.212137 0)
(-0.0234508 0.24294 0)
(0.0351875 0.314803 0)
(0.20446 0.697445 0)
(0.34276 1.04394 0)
(0.315037 1.08105 0)
(0.265025 1.11171 0)
(0.209869 1.13353 0)
(0.148478 1.14963 0)
(0.18813 0.986189 0)
(0.309372 0.631291 0)
(0.355883 0.439242 0)
(0.326023 0.4376 0)
(0.154537 0.853833 0)
(0.0241484 1.31298 0)
(-0.0215371 1.28563 0)
(-0.170146 0.578892 0)
(-0.294241 0.449396 0)
(-0.288042 0.566972 0)
(-0.169704 0.895294 0)
(-0.0271111 1.27176 0)
(-0.077834 1.3981 0)
(-0.240126 1.42071 0)
(-0.383275 1.33548 0)
(-0.330158 0.994865 0)
(-0.134667 0.416323 0)
(-0.0463994 0.206389 0)
(0.00266609 0.169976 0)
(0.0238075 0.188625 0)
(0.00890133 0.256733 0)
(-0.01892 0.235189 0)
(-0.0362126 0.23129 0)
(-0.0322052 0.250268 0)
(0.0654459 0.497599 0)
(0.247493 0.97142 0)
(0.294063 1.10355 0)
(0.226677 1.12715 0)
(0.17821 1.17425 0)
(0.142881 1.15953 0)
(0.245599 0.853718 0)
(0.357064 0.575336 0)
(0.372098 0.49386 0)
(0.295415 0.544151 0)
(0.104455 1.07018 0)
(0.00494936 1.31048 0)
(0.0713661 1.31754 0)
(-0.0768279 0.798882 0)
(-0.287819 0.539873 0)
(-0.30186 0.574442 0)
(-0.23926 0.754257 0)
(-0.0529805 1.16356 0)
(0.00277527 1.49062 0)
(-0.17187 1.56532 0)
(-0.333837 1.42736 0)
(-0.231998 0.77301 0)
(-0.0570324 0.292108 0)
(0.000215531 0.161092 0)
(0.0179982 0.141724 0)
(0.0201915 0.190111 0)
(0.00399691 0.27451 0)
(-0.0185163 0.26296 0)
(-0.0505308 0.244269 0)
(-0.0718716 0.24032 0)
(-0.0430407 0.370672 0)
(0.103569 0.803162 0)
(0.243207 1.10707 0)
(0.196497 1.15837 0)
(0.152077 1.18277 0)
(0.199936 1.09326 0)
(0.333022 0.725122 0)
(0.380954 0.590253 0)
(0.356972 0.594373 0)
(0.160813 0.704371 0)
(-0.00886364 1.19203 0)
(0.0130805 1.24036 0)
(0.119047 1.2442 0)
(0.0588996 1.06141 0)
(-0.143951 0.649474 0)
(-0.258419 0.647134 0)
(-0.245261 0.712732 0)
(-0.128081 0.980553 0)
(0.0398555 1.51327 0)
(-0.0633449 1.73717 0)
(-0.234013 1.48279 0)
(-0.145569 0.557719 0)
(-0.0180797 0.226269 0)
(0.0185041 0.14488 0)
(0.0201397 0.141145 0)
(0.00526016 0.195887 0)
(-0.0101943 0.265632 0)
(-0.0220648 0.301766 0)
(-0.0662675 0.277126 0)
(-0.104318 0.262829 0)
(-0.115713 0.330721 0)
(-0.0350666 0.637493 0)
(0.117846 1.03566 0)
(0.147595 1.19536 0)
(0.145172 1.17833 0)
(0.287759 0.933099 0)
(0.368075 0.699966 0)
(0.356919 0.686643 0)
(0.233675 0.708943 0)
(0.00855845 0.969923 0)
(-0.104894 1.1505 0)
(0.0048626 1.10879 0)
(0.136478 1.11346 0)
(0.211483 1.114 0)
(0.0741928 0.845518 0)
(-0.109696 0.724706 0)
(-0.166066 0.760662 0)
(-0.124805 0.886546 0)
(0.0215778 1.39102 0)
(0.0502695 1.88544 0)
(-0.0999914 1.55024 0)
(-0.0850247 0.399337 0)
(-0.00397069 0.196204 0)
(0.0209955 0.143318 0)
(0.0124375 0.143235 0)
(-0.017486 0.193572 0)
(0.0229616 0.245943 0)
(-0.0260429 0.351966 0)
(-0.080366 0.325848 0)
(-0.133184 0.308083 0)
(-0.165451 0.343955 0)
(-0.140431 0.556767 0)
(-0.0471675 0.934879 0)
(0.0554324 1.17856 0)
(0.202289 1.11908 0)
(0.302503 0.832818 0)
(0.341359 0.777924 0)
(0.253134 0.790466 0)
(0.0475889 0.908763 0)
(-0.159733 1.09734 0)
(-0.14979 1.06253 0)
(-0.010464 0.96346 0)
(0.154526 0.969627 0)
(0.299938 1.04771 0)
(0.298609 1.02266 0)
(0.127192 0.857574 0)
(-0.00585547 0.814829 0)
(-0.0377444 0.911101 0)
(0.0159763 1.25592 0)
(0.0932116 1.97151 0)
(0.00739635 1.65472 0)
(-0.0399938 0.305375 0)
(-0.00560678 0.169559 0)
(0.0233685 0.137877 0)
(0.00916197 0.142375 0)
(0.0153938 0.191328 0)
(0.0152209 0.256625 0)
(-0.02893 0.412287 0)
(-0.0887544 0.386257 0)
(-0.150636 0.368125 0)
(-0.197989 0.387759 0)
(-0.208305 0.549275 0)
(-0.143449 0.851925 0)
(0.0151995 1.07952 0)
(0.282053 0.965578 0)
(0.33956 0.861191 0)
(0.281285 0.879192 0)
(0.115062 0.969596 0)
(-0.134239 1.12119 0)
(-0.21819 1.11022 0)
(-0.126481 0.940197 0)
(0.00115508 0.809586 0)
(0.124485 0.817152 0)
(0.258977 0.911525 0)
(0.36618 1.02427 0)
(0.335937 1.00613 0)
(0.193691 0.925513 0)
(0.0940002 0.966982 0)
(0.0333146 1.24894 0)
(0.0696837 1.93686 0)
(0.071218 1.7655 0)
(-0.0011092 0.27224 0)
(0.000480373 0.14374 0)
(0.0254029 0.11812 0)
(0.0254745 0.131293 0)
(0.0256865 0.200813 0)
(0.0116812 0.283832 0)
(-0.0299557 0.47966 0)
(-0.0911561 0.457631 0)
(-0.154508 0.43772 0)
(-0.208546 0.442239 0)
(-0.222583 0.549503 0)
(-0.135609 0.749047 0)
(0.0811335 0.893575 0)
(0.289499 0.887994 0)
(0.314604 0.980739 0)
(0.134 1.03464 0)
(-0.0594363 1.20035 0)
(-0.18333 1.19946 0)
(-0.11917 1.03393 0)
(-0.0153097 0.849552 0)
(0.0398972 0.76291 0)
(0.0708123 0.768058 0)
(0.128221 0.823285 0)
(0.229518 0.942001 0)
(0.315928 1.0233 0)
(0.312335 1.01123 0)
(0.215026 1.05398 0)
(0.0864947 1.3523 0)
(0.0139649 1.83924 0)
(0.105896 1.87999 0)
(0.0364425 0.323491 0)
(0.00635547 0.132735 0)
(0.024698 0.0997849 0)
(0.0293294 0.128192 0)
(0.0264674 0.218307 0)
(0.0113891 0.322835 0)
(-0.0235922 0.542942 0)
(-0.0859561 0.548617 0)
(-0.158282 0.520441 0)
(-0.206247 0.488583 0)
(-0.206461 0.535445 0)
(-0.106816 0.638297 0)
(0.0578154 0.765022 0)
(0.162528 0.866852 0)
(0.141435 1.13191 0)
(-0.0751381 1.25822 0)
(-0.130237 1.32247 0)
(-0.0693566 1.15448 0)
(0.0387363 0.97545 0)
(0.0819519 0.851548 0)
(0.0695429 0.804269 0)
(0.0462368 0.804851 0)
(0.0357963 0.831408 0)
(0.0629932 0.900548 0)
(0.133947 0.979804 0)
(0.196054 1.02051 0)
(0.201786 1.11354 0)
(0.118266 1.51732 0)
(0.00021204 1.82623 0)
(0.170271 1.85683 0)
(0.109647 0.46284 0)
(0.0419844 0.173731 0)
(0.0156242 0.0923898 0)
(0.0262044 0.124321 0)
(0.0254641 0.253924 0)
(0.00858812 0.354263 0)
(0.0251216 0.553411 0)
(-0.0541843 0.697418 0)
(-0.198285 0.596391 0)
(-0.237731 0.522022 0)
(-0.211046 0.503496 0)
(-0.127555 0.535387 0)
(-0.0198851 0.667019 0)
(0.0142859 0.889625 0)
(-0.0842592 1.30626 0)
(-0.144454 1.36831 0)
(-0.0425037 1.29029 0)
(0.0675172 1.11598 0)
(0.116569 1.00371 0)
(0.10879 0.926653 0)
(0.0771022 0.890606 0)
(0.0478692 0.88814 0)
(0.0197946 0.912422 0)
(-0.000864597 0.960685 0)
(0.00456648 1.00903 0)
(0.0203298 1.03659 0)
(0.00744715 1.15887 0)
(0.0359234 1.61834 0)
(0.0555818 1.80518 0)
(0.288897 1.73677 0)
(0.245544 0.737216 0)
(0.0595713 0.30044 0)
(-0.00113371 0.112744 0)
(0.0520644 0.141585 0)
(0.01764 0.316551 0)
(-0.0331627 0.335954 0)
(0.0491181 0.585439 0)
(-0.0392597 0.769551 0)
(-0.16897 0.720404 0)
(-0.240832 0.608844 0)
(-0.261537 0.479704 0)
(-0.165688 0.474056 0)
(-0.0213165 0.651895 0)
(-0.08672 1.0377 0)
(-0.174101 1.39765 0)
(-0.0549114 1.36206 0)
(0.0395265 1.30208 0)
(0.10802 1.21355 0)
(0.11423 1.13811 0)
(0.0996115 1.08806 0)
(0.0773056 1.05532 0)
(0.0557659 1.05676 0)
(0.031111 1.08191 0)
(0.00418483 1.12778 0)
(-0.0162313 1.16624 0)
(-0.0538384 1.20847 0)
(-0.145264 1.30576 0)
(-0.107058 1.63325 0)
(0.0629814 1.76194 0)
(0.369597 1.63859 0)
(0.270795 1.02589 0)
(0.0165338 0.525381 0)
(-0.0253706 0.133435 0)
(-0.00486378 0.155255 0)
(-0.0621918 0.496574 0)
(-0.123882 0.348776 0)
(-0.082508 0.462354 0)
(-0.0655607 0.88078 0)
(-0.108283 0.705026 0)
(-0.195395 0.577294 0)
(-0.20853 0.517311 0)
(-0.104423 0.410072 0)
(0.00131853 0.623458 0)
(-0.0140063 1.0821 0)
(-0.048451 1.25732 0)
(0.0466999 1.26235 0)
(0.0943939 1.26904 0)
(0.117952 1.20954 0)
(0.120221 1.15 0)
(0.102101 1.09094 0)
(0.0730519 1.05555 0)
(0.0371269 1.03219 0)
(-0.000314276 1.05109 0)
(-0.0369719 1.06987 0)
(-0.0693287 1.10057 0)
(-0.117262 1.14619 0)
(-0.237824 1.25219 0)
(-0.243422 1.43352 0)
(-0.0794242 1.53601 0)
(0.151045 1.39602 0)
(-0.0352848 1.24738 0)
(-0.251458 0.584123 0)
(-0.156188 0.110323 0)
(-0.0622726 0.242521 0)
(-0.0458495 0.505123 0)
(0.00963041 0.19295 0)
(-0.084334 0.631128 0)
(0.0174371 0.713495 0)
(0.067056 0.705841 0)
(0.0713937 0.686612 0)
(0.0320277 0.456999 0)
(0.0803596 0.277272 0)
(0.271111 0.477392 0)
(0.246951 1.19326 0)
(0.156347 1.16504 0)
(0.158579 1.17469 0)
(0.166016 1.18409 0)
(0.165838 1.14873 0)
(0.146864 1.11542 0)
(0.108924 1.09074 0)
(0.052758 1.08747 0)
(-0.0190578 1.10026 0)
(-0.09785 1.14528 0)
(-0.176359 1.19211 0)
(-0.255763 1.25406 0)
(-0.335776 1.35682 0)
(-0.411299 1.51143 0)
(-0.397625 1.41945 0)
(-0.33402 1.40434 0)
(-0.321424 1.40248 0)
(-0.465719 1.50316 0)
(-0.368808 0.503547 0)
(-0.187982 -0.0475346 0)
(-0.123607 0.233462 0)
(-0.0505635 0.428586 0)
(0.0292228 0.310302 0)
(-0.00377348 0.546357 0)
(0.127734 0.599328 0)
(0.136881 0.601221 0)
(0.199611 0.570129 0)
(0.255121 0.500587 0)
(0.287052 0.146668 0)
(0.310624 0.475142 0)
(0.341277 1.1295 0)
(0.331577 1.18383 0)
(0.300301 1.22464 0)
(0.263082 1.21389 0)
(0.220507 1.20969 0)
(0.159941 1.1676 0)
(0.0848759 1.1532 0)
(-0.00191682 1.12114 0)
(-0.0941512 1.12621 0)
(-0.181353 1.12025 0)
(-0.261206 1.15115 0)
(-0.327229 1.164 0)
(-0.375667 1.22432 0)
(-0.372507 1.2637 0)
(-0.373101 1.32017 0)
(-0.406204 1.35941 0)
(-0.471825 1.42903 0)
(-0.484127 1.34599 0)
(-0.281892 0.195957 0)
(-0.140246 -0.140525 0)
(-0.0995936 0.225547 0)
(-0.0539113 0.326615 0)
(0.00953017 0.281023 0)
(0.0469297 0.419125 0)
(0.189381 0.567314 0)
(0.173802 0.536762 0)
(0.214839 0.493748 0)
(0.275037 0.38733 0)
(0.326742 0.1013 0)
(0.338645 0.375132 0)
(0.360319 1.03579 0)
(0.327337 1.12465 0)
(0.284224 1.11187 0)
(0.243112 1.12344 0)
(0.191284 1.09243 0)
(0.133362 1.09213 0)
(0.0651404 1.07067 0)
(-0.0082419 1.08154 0)
(-0.0826065 1.07665 0)
(-0.154801 1.10398 0)
(-0.216924 1.11228 0)
(-0.27168 1.15436 0)
(-0.303382 1.17124 0)
(-0.318929 1.22581 0)
(-0.323494 1.23434 0)
(-0.348434 1.30944 0)
(-0.374382 1.33336 0)
(-0.349893 1.20113 0)
(-0.173511 -0.0355025 0)
(-0.0908407 -0.206817 0)
(-0.0637715 0.187709 0)
(-0.0436758 0.263514 0)
(0.00661504 0.258167 0)
(0.0462452 0.259885 0)
(0.177534 0.55299 0)
(0.170665 0.497377 0)
(0.207257 0.446797 0)
(0.279332 0.311077 0)
(0.363764 0.0419958 0)
(0.392574 0.351124 0)
(0.384348 1.07255 0)
(0.306157 1.13676 0)
(0.258506 1.16054 0)
(0.210464 1.14048 0)
(0.162379 1.14924 0)
(0.108325 1.12652 0)
(0.052074 1.13853 0)
(-0.00708162 1.12709 0)
(-0.0663109 1.14674 0)
(-0.120894 1.14277 0)
(-0.172596 1.17368 0)
(-0.211509 1.17517 0)
(-0.245364 1.21671 0)
(-0.261258 1.2182 0)
(-0.277829 1.2691 0)
(-0.283945 1.28517 0)
(-0.306796 1.33263 0)
(-0.240163 1.08451 0)
(-0.086867 -0.194155 0)
(-0.049714 -0.232222 0)
(-0.0388391 0.162786 0)
(-0.0374673 0.240912 0)
(0.00536381 0.232279 0)
(0.0105613 0.15536 0)
(0.0987283 0.534593 0)
(0.121972 0.455048 0)
(0.188966 0.416207 0)
(0.271159 0.21946 0)
(0.366856 -0.0448812 0)
(0.406713 0.342753 0)
(0.378855 1.12936 0)
(0.281956 1.21127 0)
(0.225007 1.18919 0)
(0.181098 1.20437 0)
(0.134074 1.18033 0)
(0.0887465 1.192 0)
(0.0413017 1.17684 0)
(-0.00621355 1.19293 0)
(-0.0520734 1.18349 0)
(-0.0964542 1.2056 0)
(-0.135271 1.19839 0)
(-0.170395 1.22852 0)
(-0.196273 1.22199 0)
(-0.21887 1.2525 0)
(-0.231849 1.2525 0)
(-0.247521 1.3196 0)
(-0.271334 1.3106 0)
(-0.162753 0.95116 0)
(-0.0167993 -0.289897 0)
(-0.016655 -0.23212 0)
(-0.0213565 0.15662 0)
(-0.0330537 0.220395 0)
(0.00324368 0.206006 0)
(-0.0259077 0.126293 0)
(0.0151803 0.511264 0)
(0.0698279 0.374683 0)
(0.159434 0.343186 0)
(0.239741 0.140825 0)
(0.320881 -0.134843 0)
(0.347108 0.340612 0)
(0.318648 1.21392 0)
(0.225991 1.23818 0)
(0.183849 1.25211 0)
(0.145841 1.22742 0)
(0.109024 1.2389 0)
(0.0703018 1.21953 0)
(0.03223 1.2347 0)
(-0.00586388 1.22207 0)
(-0.0430979 1.23903 0)
(-0.0773909 1.22844 0)
(-0.110025 1.24824 0)
(-0.136944 1.23863 0)
(-0.162009 1.26279 0)
(-0.180092 1.24813 0)
(-0.199628 1.28494 0)
(-0.212073 1.30115 0)
(-0.244146 1.32472 0)
(-0.094113 0.730514 0)
(0.0326766 -0.334234 0)
(0.00914061 -0.214468 0)
(-0.00713014 0.152627 0)
(-0.0322535 0.228904 0)
(0.00194113 0.177095 0)
(-0.0351805 0.149785 0)
(-0.00484122 0.474597 0)
(0.0569272 0.300287 0)
(0.132413 0.28321 0)
(0.191532 0.103885 0)
(0.253803 -0.217659 0)
(0.246981 0.363548 0)
(0.208366 1.24726 0)
(0.160063 1.29542 0)
(0.135476 1.2636 0)
(0.112516 1.27622 0)
(0.0836598 1.25391 0)
(0.0542856 1.26685 0)
(0.0234693 1.25319 0)
(-0.00717007 1.26785 0)
(-0.0363635 1.25608 0)
(-0.0647629 1.27115 0)
(-0.0897573 1.25827 0)
(-0.113276 1.27578 0)
(-0.131716 1.26237 0)
(-0.149632 1.2812 0)
(-0.162757 1.27061 0)
(-0.1784 1.31817 0)
(-0.191724 1.30523 0)
(-0.0403724 0.517461 0)
(0.0590182 -0.345159 0)
(0.0275871 -0.186041 0)
(0.00509961 0.161095 0)
(-0.0265108 0.228214 0)
(0.00588037 0.14703 0)
(-0.0238884 0.157062 0)
(0.0203012 0.429968 0)
(0.0493438 0.251065 0)
(0.090831 0.243517 0)
(0.138035 0.0808663 0)
(0.193448 -0.289355 0)
(0.145689 0.423362 0)
(0.0973477 1.25959 0)
(0.097022 1.27113 0)
(0.0944689 1.28914 0)
(0.0815697 1.27762 0)
(0.0626552 1.29159 0)
(0.0396724 1.27746 0)
(0.0155653 1.29228 0)
(-0.00886351 1.28062 0)
(-0.0329551 1.29346 0)
(-0.0551254 1.28033 0)
(-0.0763633 1.29183 0)
(-0.0936997 1.27629 0)
(-0.10948 1.2914 0)
(-0.119017 1.27083 0)
(-0.128875 1.29904 0)
(-0.136564 1.29256 0)
(-0.133857 1.2934 0)
(-0.000363459 0.340061 0)
(0.073062 -0.342108 0)
(0.0406063 -0.152017 0)
(0.0148114 0.165382 0)
(-0.0174868 0.242115 0)
(0.0118752 0.125131 0)
(-0.0239729 0.141816 0)
(0.0420801 0.384225 0)
(0.0392005 0.230644 0)
(0.0473818 0.203282 0)
(0.0873843 0.0526093 0)
(0.135305 -0.33624 0)
(0.067714 0.513701 0)
(0.0447473 1.2282 0)
(0.061774 1.28201 0)
(0.0667435 1.27765 0)
(0.0609979 1.30296 0)
(0.0461438 1.29465 0)
(0.0285565 1.30981 0)
(0.00866132 1.30048 0)
(-0.0113873 1.31321 0)
(-0.0308916 1.301 0)
(-0.0499512 1.31046 0)
(-0.0663443 1.2936 0)
(-0.0816309 1.30744 0)
(-0.0915925 1.28604 0)
(-0.0975671 1.29591 0)
(-0.0978348 1.27235 0)
(-0.100866 1.2948 0)
(-0.0871591 1.25823 0)
(0.0302823 0.191902 0)
(0.0867929 -0.331262 0)
(0.052276 -0.113074 0)
(0.0210745 0.173547 0)
(-0.00881385 0.241167 0)
(0.0207089 0.110236 0)
(-0.0345728 0.117409 0)
(0.05228 0.316517 0)
(0.0469584 0.241696 0)
(0.0327536 0.167412 0)
(0.042573 0.0306183 0)
(0.0712141 -0.349603 0)
(0.0287658 0.551307 0)
(0.063647 1.20955 0)
(0.0581146 1.2538 0)
(0.0585842 1.29513 0)
(0.0494574 1.3003 0)
(0.036521 1.32045 0)
(0.0202094 1.31378 0)
(0.00329299 1.32856 0)
(-0.0139596 1.31837 0)
(-0.0311047 1.3284 0)
(-0.0469708 1.31204 0)
(-0.0620912 1.32371 0)
(-0.074002 1.30181 0)
(-0.0835543 1.30981 0)
(-0.0845487 1.27817 0)
(-0.0818661 1.28252 0)
(-0.0766379 1.25992 0)
(-0.0558765 1.22277 0)
(0.053078 0.0626889 0)
(0.0993717 -0.318458 0)
(0.0583071 -0.0732365 0)
(0.0275266 0.172211 0)
(-0.00264471 0.245485 0)
(0.0289554 0.102118 0)
(-0.0410688 0.105023 0)
(0.0357602 0.219076 0)
(0.0682735 0.243269 0)
(0.0507596 0.153773 0)
(0.0148722 0.0218693 0)
(0.0142731 -0.330318 0)
(0.00535164 0.494429 0)
(0.118863 1.19351 0)
(0.0780806 1.26393 0)
(0.0606203 1.28808 0)
(0.0455307 1.32585 0)
(0.0303179 1.32021 0)
(0.0148618 1.33973 0)
(-0.00119525 1.3301 0)
(-0.0168446 1.34399 0)
(-0.0322629 1.33106 0)
(-0.0474626 1.34172 0)
(-0.0608633 1.32168 0)
(-0.0737911 1.32308 0)
(-0.0815844 1.29523 0)
(-0.0847811 1.28884 0)
(-0.0789762 1.25597 0)
(-0.0740115 1.25036 0)
(-0.0338348 1.16888 0)
(0.0736712 -0.0533913 0)
(0.107694 -0.293358 0)
(0.0565388 -0.0311964 0)
(0.0264494 0.171985 0)
(-0.00301303 0.235207 0)
(0.0362328 0.095616 0)
(-0.0283395 0.108906 0)
(0.00484617 0.133898 0)
(0.0639705 0.193172 0)
(0.0792986 0.174482 0)
(0.0161107 0.0296721 0)
(-0.0147175 -0.276031 0)
(0.00676626 0.32094 0)
(0.152797 1.22035 0)
(0.0941889 1.26129 0)
(0.0629911 1.31291 0)
(0.0423889 1.32593 0)
(0.0265542 1.35045 0)
(0.0103169 1.33984 0)
(-0.00497506 1.3592 0)
(-0.0198268 1.34418 0)
(-0.0347111 1.35647 0)
(-0.0494771 1.34109 0)
(-0.063787 1.34042 0)
(-0.0775275 1.32014 0)
(-0.0886825 1.31512 0)
(-0.0954984 1.27306 0)
(-0.0963732 1.25844 0)
(-0.0958762 1.21758 0)
(-0.0184504 1.09001 0)
(0.0903489 -0.153474 0)
(0.105887 -0.258022 0)
(0.0492942 0.00478453 0)
(0.0260006 0.160652 0)
(-0.0106965 0.227108 0)
(0.0413589 0.0844248 0)
(-0.0135572 0.110271 0)
(-0.0113617 0.0931603 0)
(0.0200175 0.103816 0)
(0.0801073 0.167818 0)
(0.0400845 0.0606651 0)
(-0.00993111 -0.226105 0)
(0.0220814 0.160807 0)
(0.13784 1.25003 0)
(0.0945953 1.31195 0)
(0.0586018 1.31862 0)
(0.03868 1.35239 0)
(0.0221949 1.349 0)
(0.00665729 1.3681 0)
(-0.00821118 1.35848 0)
(-0.0228377 1.37207 0)
(-0.0375461 1.35684 0)
(-0.0530503 1.36057 0)
(-0.0682825 1.34112 0)
(-0.0852096 1.34037 0)
(-0.0999996 1.31165 0)
(-0.117184 1.29028 0)
(-0.130896 1.23883 0)
(-0.165497 1.21151 0)
(-0.0256582 0.987279 0)
(0.105443 -0.212288 0)
(0.0925075 -0.213757 0)
(0.0321441 0.0302819 0)
(0.0188818 0.147481 0)
(-0.0204693 0.206406 0)
(0.0492833 0.0594281 0)
(-0.00477204 0.108499 0)
(-0.00977562 0.0738829 0)
(-0.00466594 0.0592344 0)
(0.0425713 0.0849469 0)
(0.0555256 0.0967356 0)
(0.0167687 -0.196849 0)
(0.0412328 0.0488326 0)
(0.102525 1.25044 0)
(0.0782798 1.31049 0)
(0.0489996 1.35392 0)
(0.032024 1.35098 0)
(0.0176396 1.37285 0)
(0.00294784 1.36547 0)
(-0.0111371 1.37997 0)
(-0.0251646 1.37033 0)
(-0.0402802 1.37891 0)
(-0.0558448 1.36315 0)
(-0.0734055 1.36722 0)
(-0.0924594 1.34332 0)
(-0.113576 1.33644 0)
(-0.140223 1.29146 0)
(-0.174167 1.27667 0)
(-0.249077 1.22484 0)
(-0.0440078 0.72652 0)
(0.106 -0.22339 0)
(0.0631256 -0.159941 0)
(-0.000386438 0.0478138 0)
(-0.00281223 0.133448 0)
(-0.0202724 0.176704 0)
(0.0755675 0.0452397 0)
(-0.000569332 0.105272 0)
(-0.00380567 0.0628199 0)
(-0.00484833 0.035221 0)
(0.0120106 0.0315397 0)
(0.0434176 0.0845018 0)
(0.0415674 -0.174055 0)
(0.0472463 -0.0151391 0)
(0.0741227 1.28454 0)
(0.0612421 1.34925 0)
(0.0388832 1.35204 0)
(0.0259392 1.38039 0)
(0.0126629 1.37152 0)
(1.10405e-05 1.38657 0)
(-0.013249 1.37936 0)
(-0.0268078 1.39135 0)
(-0.0412098 1.37815 0)
(-0.0574994 1.38705 0)
(-0.0755213 1.36993 0)
(-0.0975685 1.3747 0)
(-0.121737 1.34526 0)
(-0.157249 1.33607 0)
(-0.199976 1.29649 0)
(-0.279708 1.26928 0)
(-0.0651455 0.418903 0)
(0.0732926 -0.210829 0)
(0.0180235 -0.105887 0)
(-0.035446 0.0476891 0)
(-0.0280983 0.0961266 0)
(-0.0155937 0.0955703 0)
(0.0540821 0.0587432 0)
(0.00109887 0.0989895 0)
(0.0016811 0.0547946 0)
(-0.000639199 0.0215479 0)
(0.00250479 0.0014461 0)