/*--------------------------------*- C++ -*----------------------------------*\
| =========                 |                                                 |
| \\      /  F ield         | OpenFOAM: The Open Source CFD Toolbox           |
|  \\    /   O peration     | Version:  2.3.0                                 |
|   \\  /    A nd           | Web:      www.OpenFOAM.org                      |
|    \\/     M anipulation  |                                                 |
\*---------------------------------------------------------------------------*/
FoamFile
{
    version     2.0;
    format      ascii;
    class       volVectorField;
    location    "0.52";
    object      U.airMean;
}
// * * * * * * * * * * * * * * * * * * * * * * * * * * * * * * * * * * * * * //

dimensions      [0 1 -1 0 0 0 0];

internalField   nonuniform List<vector> 
6000
(
(0.00973404 0.260699 0)
(0.04588 0.248499 0)
(0.0641151 0.258482 0)
(0.0627477 0.247707 0)
(0.0505468 0.242459 0)
(0.0344254 0.230193 0)
(0.0227795 0.217611 0)
(0.0107006 0.222461 0)
(0.00132488 0.222147 0)
(-0.0017798 0.219979 0)
(0.0054109 0.221729 0)
(0.010717 0.212136 0)
(0.00614927 0.202825 0)
(-0.0061096 0.203498 0)
(-0.00547832 0.20281 0)
(-0.00257756 0.20235 0)
(-0.0129635 0.203932 0)
(-0.0242471 0.204085 0)
(-0.0239564 0.218245 0)
(-0.0157717 0.221413 0)
(-0.0119436 0.22116 0)
(-0.0177998 0.222808 0)
(-0.0243898 0.218173 0)
(-0.0291188 0.219166 0)
(-0.0431983 0.234743 0)
(-0.062229 0.244532 0)
(-0.0731806 0.248278 0)
(-0.0682894 0.257184 0)
(-0.0469731 0.251455 0)
(-0.0118743 0.261006 0)
(0.0318947 0.897142 0)
(0.0711265 0.922877 0)
(0.0989904 0.951178 0)
(0.107466 0.985651 0)
(0.10608 1.00295 0)
(0.0929475 1.01978 0)
(0.0624454 1.02075 0)
(0.0197555 1.01411 0)
(-0.0142325 1.00145 0)
(-0.0273021 0.975259 0)
(-0.0137823 0.961367 0)
(0.00132027 0.977208 0)
(0.00304919 1.00425 0)
(-0.0052277 1.00552 0)
(-0.00678494 0.98237 0)
(-0.00831102 0.999409 0)
(-0.012742 1.01162 0)
(-0.018999 0.99501 0)
(-0.0110492 0.967968 0)
(0.00240229 0.965121 0)
(0.00601012 0.983996 0)
(-0.0150745 1.00614 0)
(-0.0473843 1.00359 0)
(-0.0788041 1.01593 0)
(-0.100997 1.01739 0)
(-0.112019 1.00018 0)
(-0.110207 0.979284 0)
(-0.0975864 0.939305 0)
(-0.0696735 0.925893 0)
(-0.0321492 0.895187 0)
(0.0171728 0.739199 0)
(0.0591998 0.759981 0)
(0.0727415 0.797277 0)
(0.089629 0.834487 0)
(0.104212 0.856628 0)
(0.0963185 0.893588 0)
(0.0668487 0.907636 0)
(0.0247867 0.900866 0)
(-0.00740671 0.865125 0)
(-0.0159548 0.805473 0)
(-0.00398219 0.787386 0)
(0.00986857 0.801265 0)
(0.0179869 0.83488 0)
(0.00730492 0.862136 0)
(-0.00465841 0.829824 0)
(-0.0172989 0.85336 0)
(-0.0295304 0.855919 0)
(-0.0306074 0.817274 0)
(-0.0169404 0.79518 0)
(-0.00450445 0.794924 0)
(-0.00399608 0.827662 0)
(-0.0211811 0.879102 0)
(-0.0536579 0.883602 0)
(-0.085192 0.898861 0)
(-0.106789 0.886436 0)
(-0.106734 0.853411 0)
(-0.0848073 0.82179 0)
(-0.0643897 0.789446 0)
(-0.0565005 0.769948 0)
(-0.0177137 0.738062 0)
(0.0150528 0.712946 0)
(0.0467658 0.772845 0)
(0.0505477 0.804645 0)
(0.0782771 0.829436 0)
(0.0933375 0.862964 0)
(0.0923649 0.912308 0)
(0.0680722 0.948574 0)
(0.0347087 0.939481 0)
(0.00711433 0.905708 0)
(-0.00573668 0.832067 0)
(-0.00412926 0.800178 0)
(0.00272207 0.816571 0)
(0.00239492 0.855847 0)
(0.000147923 0.879985 0)
(-0.00520842 0.846936 0)
(-0.0149156 0.871597 0)
(-0.0193616 0.875615 0)
(-0.0189933 0.83386 0)
(-0.0143764 0.80721 0)
(-0.00645611 0.813975 0)
(-0.0150093 0.86379 0)
(-0.0329478 0.914627 0)
(-0.0562946 0.919392 0)
(-0.0841092 0.928447 0)
(-0.0998947 0.900958 0)
(-0.0926515 0.849617 0)
(-0.0710275 0.820145 0)
(-0.0442856 0.796144 0)
(-0.0435028 0.790361 0)
(-0.0150605 0.712794 0)
(0.00603566 0.677612 0)
(0.0374716 0.753272 0)
(0.0558788 0.774794 0)
(0.0856248 0.809551 0)
(0.0944215 0.858872 0)
(0.0874188 0.934434 0)
(0.0628395 0.98155 0)
(0.0302083 0.971165 0)
(0.00313669 0.923496 0)
(-0.0120599 0.835846 0)
(-0.0154663 0.79371 0)
(-0.0166874 0.812965 0)
(-0.0191237 0.855464 0)
(-0.0131838 0.882506 0)
(-0.00718073 0.850236 0)
(-0.00583373 0.878381 0)
(-0.000231263 0.873664 0)
(0.000218004 0.831566 0)
(0.00188686 0.796714 0)
(0.00283957 0.810123 0)
(-0.00728967 0.878202 0)
(-0.0237171 0.931058 0)
(-0.0463467 0.948423 0)
(-0.0764415 0.961388 0)
(-0.0950048 0.911374 0)
(-0.0949888 0.844597 0)
(-0.0830679 0.79802 0)
(-0.0589338 0.772016 0)
(-0.0391927 0.77054 0)
(-0.00682075 0.678537 0)
(0.00769463 0.647659 0)
(0.0483521 0.711712 0)
(0.0785071 0.737634 0)
(0.105487 0.779246 0)
(0.0995372 0.852801 0)
(0.0806453 0.942119 0)
(0.0534506 1.0056 0)
(0.0233787 0.999259 0)
(-0.00408175 0.948456 0)
(-0.0200938 0.850108 0)
(-0.0283177 0.805249 0)
(-0.0379518 0.820541 0)
(-0.0401425 0.863445 0)
(-0.0248697 0.873062 0)
(-0.00839083 0.849071 0)
(0.00479969 0.872345 0)
(0.0220542 0.876385 0)
(0.0240501 0.837953 0)
(0.0210322 0.800662 0)
(0.0141111 0.822962 0)
(0.00283241 0.896257 0)
(-0.0149273 0.95152 0)
(-0.0397848 0.980238 0)
(-0.0698524 0.980623 0)
(-0.0916721 0.915847 0)
(-0.107963 0.830206 0)
(-0.109331 0.771366 0)
(-0.0904222 0.732886 0)
(-0.0562573 0.724841 0)
(-0.00970104 0.644355 0)
(0.0174324 0.600575 0)
(0.0748213 0.653123 0)
(0.112914 0.692472 0)
(0.127905 0.758159 0)
(0.110367 0.853104 0)
(0.0813667 0.957899 0)
(0.0508363 1.02029 0)
(0.0188513 1.02029 0)
(-0.0121806 0.96676 0)
(-0.0309738 0.857437 0)
(-0.0390079 0.813895 0)
(-0.0515746 0.826261 0)
(-0.0476366 0.85282 0)
(-0.0264467 0.853982 0)
(-0.00932783 0.838937 0)
(0.00687405 0.853487 0)
(0.0312577 0.862343 0)
(0.0405895 0.838846 0)
(0.0366237 0.802085 0)
(0.0274386 0.831965 0)
(0.0141306 0.911062 0)
(-0.0117389 0.96995 0)
(-0.0394257 1.00131 0)
(-0.0690444 0.995009 0)
(-0.0963581 0.924676 0)
(-0.12677 0.832159 0)
(-0.141514 0.746465 0)
(-0.127092 0.689416 0)
(-0.0848445 0.654439 0)
(-0.018091 0.591601 0)
(0.0299022 0.535514 0)
(0.0962233 0.586626 0)
(0.138033 0.651666 0)
(0.142932 0.749352 0)
(0.119079 0.857141 0)
(0.0907543 0.972045 0)
(0.0630132 1.03704 0)
(0.0298053 1.04359 0)
(-0.0019014 0.991726 0)
(-0.0307014 0.867335 0)
(-0.0482485 0.819444 0)
(-0.0549432 0.828718 0)
(-0.0452516 0.837377 0)
(-0.0260167 0.837396 0)
(-0.0103228 0.831209 0)
(0.00548786 0.836017 0)
(0.0276205 0.843292 0)
(0.0463311 0.832723 0)
(0.047008 0.805038 0)
(0.0332506 0.839555 0)
(0.0105144 0.931279 0)
(-0.0236367 0.993149 0)
(-0.052515 1.02146 0)
(-0.0823311 1.00599 0)
(-0.109012 0.93651 0)
(-0.142866 0.834352 0)
(-0.164901 0.732653 0)
(-0.15125 0.639696 0)
(-0.103472 0.581072 0)
(-0.0281052 0.521095 0)
(0.0328983 0.459346 0)
(0.101215 0.524092 0)
(0.139438 0.607062 0)
(0.141244 0.75121 0)
(0.118673 0.862542 0)
(0.0910769 0.985647 0)
(0.0769697 1.0579 0)
(0.0491664 1.06275 0)
(0.0237565 1.01252 0)
(-0.0192806 0.893084 0)
(-0.0493603 0.818827 0)
(-0.0487857 0.822731 0)
(-0.0400213 0.819363 0)
(-0.0245706 0.820767 0)
(-0.00958883 0.816755 0)
(0.00477692 0.819662 0)
(0.0220563 0.820639 0)
(0.0401982 0.818394 0)
(0.0456374 0.803073 0)
(0.0245415 0.852907 0)
(-0.0132307 0.956855 0)
(-0.0456607 1.01356 0)
(-0.0708996 1.04174 0)
(-0.0964777 1.01894 0)
(-0.117643 0.949808 0)
(-0.147086 0.838074 0)
(-0.16887 0.72256 0)
(-0.151903 0.584999 0)
(-0.106195 0.508853 0)
(-0.0269813 0.442685 0)
(0.0299908 0.391039 0)
(0.0960283 0.470993 0)
(0.125996 0.578545 0)
(0.127971 0.752095 0)
(0.109145 0.866348 0)
(0.102443 0.987026 0)
(0.0961444 1.06301 0)
(0.0771976 1.07822 0)
(0.054405 1.03418 0)
(0.003346 0.930545 0)
(-0.0322079 0.819208 0)
(-0.0346902 0.812515 0)
(-0.0274414 0.807473 0)
(-0.0180968 0.805691 0)
(-0.00799048 0.805516 0)
(0.00120164 0.805434 0)
(0.0117594 0.804411 0)
(0.0245157 0.803545 0)
(0.0268816 0.801687 0)
(-0.000426787 0.881784 0)
(-0.0443361 0.979988 0)
(-0.0753506 1.0322 0)
(-0.0935298 1.05621 0)
(-0.114132 1.03369 0)
(-0.125279 0.95737 0)
(-0.140679 0.846312 0)
(-0.156153 0.716234 0)
(-0.139385 0.536695 0)
(-0.104212 0.448388 0)
(-0.0239843 0.373277 0)
(0.0250032 0.329359 0)
(0.086998 0.422238 0)
(0.111815 0.554525 0)
(0.116667 0.749087 0)
(0.106616 0.871273 0)
(0.104879 0.985098 0)
(0.111082 1.07568 0)
(0.103238 1.09177 0)
(0.085248 1.05494 0)
(0.0426995 0.965637 0)
(-0.000846357 0.829267 0)
(-0.0141412 0.801851 0)
(-0.00870005 0.80028 0)
(-0.00727231 0.797657 0)
(-0.00614599 0.799203 0)
(-0.00511122 0.79802 0)
(-0.00295702 0.795299 0)
(0.00229918 0.7933 0)
(-0.00376666 0.805971 0)
(-0.0370754 0.913581 0)
(-0.0824003 1.00283 0)
(-0.109547 1.04834 0)
(-0.124257 1.0714 0)
(-0.1318 1.04282 0)
(-0.13261 0.961607 0)
(-0.135733 0.847304 0)
(-0.143173 0.702123 0)
(-0.129488 0.503555 0)
(-0.10117 0.390965 0)
(-0.02114 0.308482 0)
(0.0196007 0.275708 0)
(0.0735782 0.380852 0)
(0.0970733 0.533952 0)
(0.111901 0.740738 0)
(0.106375 0.868147 0)
(0.109905 0.976967 0)
(0.11847 1.06816 0)
(0.118854 1.10033 0)
(0.107562 1.0715 0)
(0.0837737 0.999035 0)
(0.0326609 0.858929 0)
(0.0058189 0.796935 0)
(0.0085384 0.799765 0)
(0.00481434 0.798805 0)
(-0.00330204 0.802299 0)
(-0.0107891 0.798185 0)
(-0.0153902 0.795707 0)
(-0.0146871 0.789898 0)
(-0.0295494 0.824247 0)
(-0.0741724 0.951386 0)
(-0.108764 1.02622 0)
(-0.130319 1.06421 0)
(-0.144369 1.0781 0)
(-0.151334 1.04419 0)
(-0.146105 0.953471 0)
(-0.14072 0.843567 0)
(-0.142013 0.688834 0)
(-0.120745 0.472608 0)
(-0.0920218 0.336571 0)
(-0.0145705 0.245486 0)
(0.0120995 0.231726 0)
(0.0587182 0.348875 0)
(0.0838945 0.50002 0)
(0.112676 0.729108 0)
(0.108991 0.862825 0)
(0.113847 0.966458 0)
(0.121378 1.06156 0)
(0.121565 1.09961 0)
(0.116617 1.08033 0)
(0.105792 1.01912 0)
(0.0652741 0.914245 0)
(0.0237744 0.803112 0)
(0.0174008 0.803157 0)
(0.0137172 0.808792 0)
(0.000781704 0.813273 0)
(-0.0128566 0.808091 0)
(-0.0196571 0.800932 0)
(-0.0232194 0.793055 0)
(-0.0519749 0.865373 0)
(-0.0980413 0.985339 0)
(-0.119167 1.04304 0)
(-0.134728 1.07755 0)
(-0.152209 1.09 0)
(-0.162326 1.04266 0)
(-0.161013 0.947883 0)
(-0.155651 0.832605 0)
(-0.151653 0.669377 0)
(-0.111038 0.432821 0)
(-0.0720532 0.287521 0)
(-0.00439617 0.199193 0)
(0.00447304 0.201739 0)
(0.0455089 0.323195 0)
(0.0740047 0.4622 0)
(0.112155 0.711936 0)
(0.116073 0.856467 0)
(0.119348 0.958591 0)
(0.121767 1.05449 0)
(0.11985 1.10261 0)
(0.114215 1.08494 0)
(0.107146 1.03327 0)
(0.0835019 0.956703 0)
(0.0382543 0.83678 0)
(0.0193722 0.806989 0)
(0.0161127 0.819635 0)
(0.00416115 0.829309 0)
(-0.0109692 0.821778 0)
(-0.0175755 0.80748 0)
(-0.0285338 0.812071 0)
(-0.0685308 0.913793 0)
(-0.10358 1.00923 0)
(-0.114418 1.05729 0)
(-0.132102 1.0954 0)
(-0.151454 1.10587 0)
(-0.169593 1.04847 0)
(-0.17329 0.94278 0)
(-0.173882 0.826302 0)
(-0.155676 0.639276 0)
(-0.0920138 0.376893 0)
(-0.0417332 0.242592 0)
(0.00228775 0.175066 0)
(-0.000433513 0.185173 0)
(0.0286486 0.296101 0)
(0.0609512 0.42072 0)
(0.110134 0.685216 0)
(0.130137 0.847012 0)
(0.123713 0.953142 0)
(0.122765 1.05048 0)
(0.118664 1.10381 0)
(0.11226 1.09258 0)
(0.102598 1.04309 0)
(0.0910926 0.983292 0)
(0.0545942 0.880354 0)
(0.0243876 0.819354 0)
(0.0168835 0.829985 0)
(0.00631022 0.846421 0)
(-0.00845143 0.836122 0)
(-0.0157623 0.816559 0)
(-0.0327215 0.844576 0)
(-0.0727452 0.956563 0)
(-0.0941631 1.02332 0)
(-0.105951 1.07328 0)
(-0.126348 1.11395 0)
(-0.149986 1.12263 0)
(-0.170295 1.05399 0)
(-0.183002 0.946167 0)
(-0.180225 0.810413 0)
(-0.138325 0.58597 0)
(-0.0603024 0.31568 0)
(-0.0140089 0.207816 0)
(0.0071413 0.172229 0)
(-0.00377585 0.18329 0)
(0.00829262 0.276014 0)
(0.0386534 0.378098 0)
(0.100965 0.634294 0)
(0.139907 0.842282 0)
(0.127921 0.958305 0)
(0.121256 1.0445 0)
(0.119397 1.1058 0)
(0.11069 1.10057 0)
(0.0994165 1.05516 0)
(0.0895264 0.998956 0)
(0.0641575 0.924294 0)
(0.0305868 0.841093 0)
(0.0177161 0.842921 0)
(0.00734006 0.86315 0)
(-0.00771406 0.852289 0)
(-0.0176874 0.828697 0)
(-0.0405243 0.882137 0)
(-0.0672434 0.980236 0)
(-0.0823954 1.03777 0)
(-0.0969589 1.08949 0)
(-0.120515 1.13572 0)
(-0.144071 1.13642 0)
(-0.164326 1.06661 0)
(-0.180158 0.950134 0)
(-0.165356 0.776387 0)
(-0.103118 0.518329 0)
(-0.0296918 0.26382 0)
(-0.000244069 0.188635 0)
(0.00666782 0.184304 0)
(-0.0115282 0.189618 0)
(-0.00994376 0.267245 0)
(0.012107 0.333334 0)
(0.0804781 0.561166 0)
(0.137749 0.834639 0)
(0.125408 0.961446 0)
(0.119418 1.0432 0)
(0.116296 1.10398 0)
(0.108098 1.11194 0)
(0.0948277 1.06523 0)
(0.0838085 1.01392 0)
(0.0650216 0.954137 0)
(0.0381388 0.871309 0)
(0.019601 0.856343 0)
(0.00873815 0.880254 0)
(-0.00600924 0.86936 0)
(-0.019867 0.848415 0)
(-0.0405378 0.909591 0)
(-0.0568677 0.998439 0)
(-0.0698758 1.05095 0)
(-0.0869933 1.10943 0)
(-0.109934 1.15409 0)
(-0.13428 1.15222 0)
(-0.154261 1.07583 0)
(-0.162418 0.955363 0)
(-0.131448 0.724357 0)
(-0.0662692 0.452068 0)
(-0.00862309 0.229346 0)
(0.00288081 0.187123 0)
(-0.00279456 0.195009 0)
(-0.0202476 0.209177 0)
(-0.0195758 0.266272 0)
(-0.00732465 0.297176 0)
(0.0559256 0.47919 0)
(0.120873 0.82004 0)
(0.118333 0.965826 0)
(0.112411 1.03751 0)
(0.111445 1.10612 0)
(0.102173 1.11767 0)
(0.0914144 1.07976 0)
(0.0780399 1.02603 0)
(0.0633775 0.978314 0)
(0.043622 0.896609 0)
(0.0234492 0.874395 0)
(0.0109199 0.895517 0)
(-0.00408499 0.889134 0)
(-0.0203692 0.868108 0)
(-0.0372667 0.931026 0)
(-0.0455432 1.00999 0)
(-0.0580939 1.06831 0)
(-0.0739711 1.12482 0)
(-0.094484 1.17318 0)
(-0.117031 1.16542 0)
(-0.137727 1.09276 0)
(-0.128958 0.925492 0)
(-0.096321 0.680872 0)
(-0.0344005 0.388146 0)
(0.00533248 0.213613 0)
(0.00230495 0.199603 0)
(-0.00550524 0.196909 0)
(-0.0211449 0.230059 0)
(-0.0213601 0.266709 0)
(-0.0174775 0.272119 0)
(0.0333268 0.403163 0)
(0.0957918 0.792942 0)
(0.106604 0.962976 0)
(0.101087 1.03617 0)
(0.102106 1.10332 0)
(0.0958863 1.12464 0)
(0.0878039 1.08784 0)
(0.0754573 1.04263 0)
(0.0618546 0.993178 0)
(0.0470135 0.921684 0)
(0.0267512 0.892233 0)
(0.0133223 0.912623 0)
(-0.00190697 0.907204 0)
(-0.018802 0.890928 0)
(-0.0336645 0.941935 0)
(-0.0378924 1.02362 0)
(-0.0470905 1.07904 0)
(-0.0596633 1.14084 0)
(-0.0712655 1.18236 0)
(-0.0903669 1.18089 0)
(-0.107677 1.09945 0)
(-0.094634 0.88999 0)
(-0.067064 0.644448 0)
(-0.0142991 0.331548 0)
(0.0111646 0.208785 0)
(0.0037428 0.211843 0)
(-0.000148363 0.198411 0)
(-0.0172386 0.251298 0)
(-0.0219971 0.274765 0)
(-0.0213806 0.254402 0)
(0.0167492 0.343515 0)
(0.072872 0.756821 0)
(0.0959476 0.962014 0)
(0.0854053 1.02833 0)
(0.0899067 1.10274 0)
(0.0870749 1.12181 0)
(0.0849587 1.09723 0)
(0.0737828 1.05258 0)
(0.0622765 1.01081 0)
(0.0477107 0.939605 0)
(0.029096 0.913791 0)
(0.0154087 0.926216 0)
(0.000630671 0.926675 0)
(-0.0168766 0.910789 0)
(-0.031504 0.954012 0)
(-0.0336487 1.02995 0)
(-0.0381495 1.08951 0)
(-0.0427734 1.14432 0)
(-0.0446951 1.18856 0)
(-0.0552214 1.18667 0)
(-0.0669389 1.11035 0)
(-0.0625992 0.853361 0)
(-0.045239 0.617273 0)
(-0.00553246 0.288151 0)
(0.0118491 0.20609 0)
(0.00367346 0.22066 0)
(0.00904808 0.199729 0)
(-0.0136681 0.265785 0)
(-0.0169651 0.284069 0)
(-0.0180404 0.242327 0)
(0.00638168 0.305134 0)
(0.0541919 0.707869 0)
(0.0844606 0.959412 0)
(0.0708015 1.02908 0)
(0.0739139 1.09424 0)
(0.0771339 1.11962 0)
(0.0804426 1.09774 0)
(0.0726761 1.0646 0)
(0.0637705 1.02281 0)
(0.0495938 0.960364 0)
(0.0313789 0.930741 0)
(0.0177423 0.940465 0)
(0.0028155 0.941859 0)
(-0.0153409 0.933459 0)
(-0.0308875 0.963049 0)
(-0.0329669 1.03671 0)
(-0.0300717 1.08911 0)
(-0.0278588 1.14347 0)
(-0.0188739 1.1822 0)
(-0.021651 1.18931 0)
(-0.0218548 1.11196 0)
(-0.0361966 0.840298 0)
(-0.0297075 0.594963 0)
(-0.00217413 0.2568 0)
(0.0102387 0.200682 0)
(0.00497795 0.21954 0)
(0.0177315 0.205502 0)
(-0.0088939 0.276877 0)
(-0.00833094 0.290202 0)
(-0.0152198 0.241449 0)
(-0.0028386 0.281274 0)
(0.0341402 0.653347 0)
(0.0686246 0.963533 0)
(0.0542595 1.02336 0)
(0.0616518 1.09055 0)
(0.0636243 1.11021 0)
(0.0723787 1.0989 0)
(0.0684736 1.06876 0)
(0.0643717 1.03453 0)
(0.0537474 0.977227 0)
(0.0352296 0.949802 0)
(0.0207716 0.952486 0)
(0.00475163 0.958572 0)
(-0.014026 0.952767 0)
(-0.0316428 0.977249 0)
(-0.0343148 1.03437 0)
(-0.0251057 1.08711 0)
(-0.0150272 1.13073 0)
(-0.00149186 1.17408 0)
(0.003319 1.18013 0)
(0.00872402 1.11532 0)
(-0.0204757 0.843937 0)
(-0.0190823 0.57334 0)
(-0.000978301 0.241587 0)
(0.0048294 0.190564 0)
(0.0077638 0.220618 0)
(0.0171226 0.217604 0)
(-0.00228361 0.278864 0)
(-0.00240881 0.299759 0)
(-0.0176287 0.251381 0)
(-0.020089 0.275476 0)
(0.0064668 0.604746 0)
(0.0470124 0.957828 0)
(0.0384956 1.02724 0)
(0.0487861 1.07622 0)
(0.0583658 1.10711 0)
(0.0643337 1.09406 0)
(0.0638747 1.07479 0)
(0.0630861 1.03664 0)
(0.0565135 0.993549 0)
(0.0398847 0.96628 0)
(0.023897 0.966608 0)
(0.00791193 0.973569 0)
(-0.0120937 0.973982 0)
(-0.0306412 0.989804 0)
(-0.0356408 1.033 0)
(-0.0241803 1.07433 0)
(-0.0089884 1.11931 0)
(0.00834226 1.15936 0)
(0.0122903 1.17467 0)
(0.0204684 1.11218 0)
(-0.0129455 0.8666 0)
(-0.010791 0.54905 0)
(-0.00452572 0.238821 0)
(-0.00435012 0.18329 0)
(0.00543036 0.212294 0)
(0.0134927 0.228293 0)
(-0.000877023 0.278098 0)
(-0.000778546 0.31195 0)
(-0.0270635 0.273534 0)
(-0.0385368 0.28027 0)
(-0.0224398 0.556898 0)
(0.0239809 0.947094 0)
(0.0275011 1.0177 0)
(0.0364319 1.06613 0)
(0.0506861 1.09533 0)
(0.0596848 1.09468 0)
(0.0629189 1.072 0)
(0.0631669 1.04086 0)
(0.0571541 1.00295 0)
(0.0421512 0.983741 0)
(0.0256798 0.978672 0)
(0.011047 0.988331 0)
(-0.00692176 0.991045 0)
(-0.0253011 1.00555 0)
(-0.0337838 1.02932 0)
(-0.0278052 1.06474 0)
(-0.0114358 1.09888 0)
(0.00656546 1.15146 0)
(0.00890131 1.16773 0)
(0.0153423 1.1164 0)
(-0.00664234 0.882525 0)
(-0.000825807 0.53175 0)
(-0.00116737 0.249378 0)
(-0.00326052 0.181674 0)
(0.000683716 0.210527 0)
(0.00584557 0.238002 0)
(-0.00187394 0.275955 0)
(-0.000999361 0.330037 0)
(-0.0335391 0.300598 0)
(-0.054462 0.297215 0)
(-0.0511692 0.515607 0)
(-0.000643101 0.922876 0)
(0.0193997 1.0146 0)
(0.0280518 1.04918 0)
(0.0455818 1.08643 0)
(0.0572921 1.08658 0)
(0.0634622 1.07484 0)
(0.0636463 1.04181 0)
(0.056901 1.01678 0)
(0.0420706 0.998065 0)
(0.0257855 0.993752 0)
(0.0123947 0.997743 0)
(-0.000773092 1.00848 0)
(-0.0163979 1.01738 0)
(-0.0287484 1.03722 0)
(-0.0302138 1.05349 0)
(-0.0216878 1.08773 0)
(-0.00536159 1.13658 0)
(-0.00493831 1.17192 0)
(0.00639547 1.10664 0)
(0.000772256 0.890807 0)
(0.0120047 0.518997 0)
(0.010243 0.259135 0)
(0.00682467 0.188656 0)
(-0.00189821 0.21265 0)
(0.00215235 0.239918 0)
(-0.00640014 0.273181 0)
(-0.00208917 0.343827 0)
(-0.0396863 0.330376 0)
(-0.068735 0.323997 0)
(-0.074148 0.486494 0)
(-0.0261948 0.887471 0)
(0.0135235 0.998146 0)
(0.0262319 1.03945 0)
(0.0418412 1.06906 0)
(0.054937 1.08269 0)
(0.0613896 1.07055 0)
(0.0619409 1.04971 0)
(0.0537236 1.02705 0)
(0.0400796 1.01567 0)
(0.0249132 1.00616 0)
(0.0120604 1.00866 0)
(0.00233691 1.01635 0)
(-0.00951185 1.03333 0)
(-0.0213155 1.0426 0)
(-0.0292898 1.05731 0)
(-0.0311141 1.07656 0)
(-0.0232965 1.13323 0)
(-0.0229469 1.16757 0)
(-0.00208263 1.09638 0)
(0.00580204 0.888386 0)
(0.0248341 0.506322 0)
(0.0267399 0.269212 0)
(0.0207141 0.205327 0)
(0.000531722 0.225334 0)
(0.00229551 0.241386 0)
(-0.0147805 0.275895 0)
(-0.00851988 0.3557 0)
(-0.0440168 0.360996 0)
(-0.0787763 0.352204 0)
(-0.0910977 0.470083 0)
(-0.0458478 0.838999 0)
(0.00936036 0.977811 0)
(0.025774 1.02323 0)
(0.0370449 1.06054 0)
(0.0497793 1.07227 0)
(0.0572383 1.07303 0)
(0.0569489 1.05421 0)
(0.0488525 1.04286 0)
(0.0362654 1.0287 0)
(0.0230109 1.02211 0)
(0.010841 1.01748 0)
(0.00125117 1.02732 0)
(-0.00691799 1.03997 0)
(-0.016365 1.05554 0)
(-0.0260274 1.06017 0)
(-0.0377471 1.08359 0)
(-0.0396472 1.12936 0)
(-0.0389144 1.16673 0)
(-0.0040452 1.06903 0)
(0.0102072 0.885442 0)
(0.0350311 0.486686 0)
(0.0415082 0.275178 0)
(0.0306014 0.225813 0)
(0.00403035 0.239859 0)
(0.0034377 0.241927 0)
(-0.0212146 0.286427 0)
(-0.0132539 0.35971 0)
(-0.0477397 0.392927 0)
(-0.080456 0.381535 0)
(-0.0974904 0.461377 0)
(-0.0551264 0.78474 0)
(0.00623368 0.946676 0)
(0.0269914 1.01789 0)
(0.0334662 1.04807 0)
(0.0428453 1.06834 0)
(0.0494028 1.0695 0)
(0.0494616 1.06459 0)
(0.0415774 1.05316 0)
(0.0309241 1.04521 0)
(0.0193665 1.03317 0)
(0.00825824 1.03074 0)
(-0.00120578 1.03472 0)
(-0.00878669 1.04995 0)
(-0.015367 1.06112 0)
(-0.0248599 1.07337 0)
(-0.0410246 1.09058 0)
(-0.0493066 1.13806 0)
(-0.0420749 1.14879 0)
(-0.0077285 1.04226 0)
(0.0146516 0.877057 0)
(0.0433457 0.462068 0)
(0.0540373 0.282353 0)
(0.0388894 0.248118 0)
(0.00595842 0.258334 0)
(0.0072493 0.243241 0)
(-0.0176769 0.297712 0)
(-0.0108927 0.366975 0)
(-0.0461738 0.414134 0)
(-0.073443 0.410277 0)
(-0.0912889 0.455485 0)
(-0.0522109 0.727909 0)
(0.00857917 0.916685 0)
(0.0311315 1.00445 0)
(0.0344993 1.0466 0)
(0.0356168 1.05991 0)
(0.0390544 1.07253 0)
(0.0387279 1.06981 0)
(0.0328649 1.06738 0)
(0.0241784 1.05592 0)
(0.0147077 1.04729 0)
(0.00468453 1.04045 0)
(-0.00483782 1.04742 0)
(-0.0123076 1.05545 0)
(-0.018246 1.07172 0)
(-0.0256533 1.08103 0)
(-0.0407362 1.10883 0)
(-0.0472671 1.13733 0)
(-0.0350495 1.13605 0)
(-0.013014 1.0163 0)
(0.0147256 0.85916 0)
(0.0491735 0.432165 0)
(0.0622344 0.289588 0)
(0.0458182 0.274521 0)
(0.0112063 0.274125 0)
(0.0116615 0.248195 0)
(-0.0112801 0.298747 0)
(-0.00220217 0.380142 0)
(-0.0420177 0.433954 0)
(-0.0624651 0.435448 0)
(-0.0768313 0.448902 0)
(-0.038684 0.672188 0)
(0.0209599 0.885606 0)
(0.0422167 0.997265 0)
(0.0410675 1.04426 0)
(0.034452 1.06343 0)
(0.0314513 1.06984 0)
(0.0282832 1.0763 0)
(0.0248846 1.07306 0)
(0.0182727 1.06771 0)
(0.0103488 1.05488 0)
(0.000697728 1.05306 0)
(-0.00892883 1.05383 0)
(-0.0170069 1.06539 0)
(-0.0224334 1.07405 0)
(-0.0281643 1.09203 0)
(-0.0367785 1.11295 0)
(-0.0399005 1.14159 0)
(-0.0281808 1.11193 0)
(-0.0170919 1.01101 0)
(0.011784 0.826843 0)
(0.0528869 0.400785 0)
(0.0645684 0.297974 0)
(0.0498854 0.298669 0)
(0.0155443 0.293613 0)
(0.0125368 0.258943 0)
(-0.00654396 0.290264 0)
(0.00748259 0.400948 0)
(-0.0349138 0.446867 0)
(-0.0509006 0.455319 0)
(-0.0596674 0.442487 0)
(-0.0176549 0.612691 0)
(0.0443273 0.858682 0)
(0.0591314 0.984799 0)
(0.0520821 1.05412 0)
(0.0383477 1.06552 0)
(0.0307459 1.07833 0)
(0.0234921 1.07863 0)
(0.0190243 1.08215 0)
(0.0140087 1.07355 0)
(0.00692604 1.06711 0)
(-0.00269297 1.06141 0)
(-0.0128482 1.06644 0)
(-0.021551 1.07024 0)
(-0.0279594 1.08272 0)
(-0.0318452 1.0936 0)
(-0.0361289 1.1218 0)
(-0.0332184 1.13613 0)
(-0.026814 1.10374 0)
(-0.0227735 1.00432 0)
(0.0107054 0.783564 0)
(0.0533697 0.374207 0)
(0.0613681 0.306274 0)
(0.047812 0.319644 0)
(0.0166008 0.312358 0)
(0.0117652 0.268226 0)
(-0.0065618 0.274992 0)
(0.0098257 0.420989 0)
(-0.0277203 0.456576 0)
(-0.037707 0.468071 0)
(-0.0395507 0.434203 0)
(0.00340349 0.546371 0)
(0.067359 0.833029 0)
(0.0749432 0.989094 0)
(0.0591131 1.05718 0)
(0.0435923 1.0765 0)
(0.0335709 1.08028 0)
(0.0250185 1.0866 0)
(0.018064 1.08432 0)
(0.0121973 1.0831 0)
(0.0046528 1.07359 0)
(-0.00496296 1.07316 0)
(-0.0151032 1.07349 0)
(-0.0246744 1.08108 0)
(-0.0323431 1.08548 0)
(-0.0370492 1.09987 0)
(-0.0378983 1.11784 0)
(-0.0307274 1.1337 0)
(-0.0238299 1.09019 0)
(-0.0281692 1.00682 0)
(0.0114611 0.730188 0)
(0.0523137 0.355427 0)
(0.0568124 0.316651 0)
(0.0423695 0.340153 0)
(0.0133703 0.333901 0)
(0.0113487 0.27758 0)
(-0.0104405 0.268803 0)
(-0.000929895 0.436794 0)
(-0.0206117 0.462858 0)
(-0.020687 0.47288 0)
(-0.0193792 0.42564 0)
(0.0158173 0.480034 0)
(0.0755827 0.80764 0)
(0.0818323 0.991906 0)
(0.0625947 1.06846 0)
(0.0464941 1.08189 0)
(0.0367149 1.08957 0)
(0.0278762 1.08969 0)
(0.0196234 1.09217 0)
(0.011852 1.08654 0)
(0.00341726 1.08334 0)
(-0.00620418 1.07974 0)
(-0.0161272 1.084 0)
(-0.0256389 1.08645 0)
(-0.0342253 1.09452 0)
(-0.0406187 1.10008 0)
(-0.0413701 1.11799 0)
(-0.0318603 1.11972 0)
(-0.0207445 1.08833 0)
(-0.0275118 1.00558 0)
(0.0138572 0.672816 0)
(0.0506305 0.344545 0)
(0.0506285 0.330112 0)
(0.034292 0.358629 0)
(0.00752619 0.349504 0)
(0.00995272 0.282858 0)
(-0.0169552 0.278944 0)
(-0.0151652 0.436418 0)
(-0.0142114 0.454151 0)
(-0.00617952 0.472207 0)
(0.000144102 0.42521 0)
(0.019382 0.428511 0)
(0.0703376 0.780314 0)
(0.0833648 1.00449 0)
(0.0639311 1.07351 0)
(0.0481558 1.09223 0)
(0.0380937 1.09401 0)
(0.0293604 1.09825 0)
(0.0207472 1.09664 0)
(0.012227 1.09539 0)
(0.00299925 1.08976 0)
(-0.00671668 1.09008 0)
(-0.0163209 1.0904 0)
(-0.0253515 1.09595 0)
(-0.0337757 1.09895 0)
(-0.0408325 1.10695 0)
(-0.042506 1.11187 0)
(-0.0346843 1.10998 0)
(-0.0202528 1.07423 0)
(-0.0214756 1.00957 0)
(0.0190137 0.616452 0)
(0.048386 0.341038 0)
(0.04187 0.346383 0)
(0.0255803 0.372614 0)
(0.00132654 0.364715 0)
(0.00870479 0.284426 0)
(-0.0172812 0.303698 0)
(-0.0209751 0.432235 0)
(-0.0136714 0.445213 0)
(0.0040277 0.460446 0)
(0.0146597 0.429774 0)
(0.0261826 0.396982 0)
(0.0565559 0.747159 0)
(0.0793903 1.00759 0)
(0.0636988 1.0825 0)
(0.0498983 1.09866 0)
(0.0387537 1.10322 0)
(0.0295471 1.1035 0)
(0.0208593 1.10488 0)
(0.0121014 1.1012 0)
(0.00277656 1.09945 0)
(-0.006781 1.09703 0)
(-0.0159043 1.09967 0)
(-0.0242107 1.1013 0)
(-0.0313307 1.10642 0)
(-0.037097 1.10848 0)
(-0.0385605 1.11109 0)
(-0.0334746 1.09501 0)
(-0.023426 1.0635 0)
(-0.0144147 1.00142 0)
(0.0271706 0.568365 0)
(0.0453953 0.346602 0)
(0.0326418 0.365492 0)
(0.017074 0.38292 0)
(-0.00179956 0.371548 0)
(0.00936274 0.282508 0)
(-0.0140295 0.323584 0)
(-0.018602 0.431603 0)
(-0.0136859 0.433118 0)
(0.0123984 0.443498 0)
(0.0296507 0.431886 0)
(0.0362044 0.38404 0)
(0.043452 0.719527 0)
(0.063447 1.01018 0)
(0.0567565 1.08585 0)
(0.0476077 1.10769 0)
(0.0382083 1.10993 0)
(0.0284252 1.11178 0)
(0.0197892 1.11048 0)
(0.0112343 1.10953 0)
(0.00240949 1.10616 0)
(-0.00657222 1.10562 0)
(-0.0150658 1.10548 0)
(-0.0223401 1.10806 0)
(-0.0283489 1.10896 0)
(-0.0318644 1.11086 0)
(-0.0323616 1.10532 0)
(-0.0288634 1.08701 0)
(-0.0258758 1.05002 0)
(-0.00645583 0.980427 0)
(0.0347433 0.53047 0)
(0.0419069 0.361861 0)
(0.0239941 0.382163 0)
(0.0109699 0.388784 0)
(-0.00127618 0.376281 0)
(0.0111176 0.283224 0)
(-0.0129789 0.334325 0)
(-0.0116409 0.429815 0)
(6.52476e-05 0.41086 0)
(0.0230746 0.424334 0)
(0.0397012 0.430109 0)
(0.0446148 0.387268 0)
(0.0291111 0.714014 0)
(0.0412863 1.00084 0)
(0.0428499 1.08847 0)
(0.0383923 1.11006 0)
(0.0324927 1.11827 0)
(0.0252515 1.11922 0)
(0.0173008 1.11835 0)
(0.00951347 1.11582 0)
(0.00155195 1.11374 0)
(-0.00645935 1.11176 0)
(-0.013943 1.11204 0)
(-0.0204723 1.11167 0)
(-0.0252576 1.1123 0)
(-0.0277361 1.10893 0)
(-0.0269823 1.10165 0)
(-0.0244509 1.07832 0)
(-0.0245944 1.04402 0)
(0.00480555 0.948226 0)
(0.0409749 0.50387 0)
(0.0359973 0.382619 0)
(0.0151037 0.398024 0)
(0.00782956 0.39144 0)
(0.00174159 0.372785 0)
(0.0127469 0.286064 0)
(-0.0170515 0.340379 0)
(-0.00291 0.419708 0)
(0.0130503 0.393148 0)
(0.0298667 0.410185 0)
(0.0382054 0.426023 0)
(0.0391834 0.401035 0)
(0.0123416 0.720295 0)
(0.0220838 0.993877 0)
(0.0277102 1.08832 0)
(0.0248045 1.11291 0)
(0.0217353 1.12232 0)
(0.0173288 1.12456 0)
(0.0121521 1.12394 0)
(0.00616369 1.12208 0)
(-6.77675e-05 1.11997 0)
(-0.00652046 1.11836 0)
(-0.0127887 1.11741 0)
(-0.0180515 1.11664 0)
(-0.0221499 1.11404 0)
(-0.0234969 1.1089 0)
(-0.0227738 1.09617 0)
(-0.0198357 1.07448 0)
(-0.0188569 1.03203 0)
(0.0174057 0.91045 0)
(0.0437729 0.492404 0)
(0.0299688 0.409604 0)
(0.00982291 0.409418 0)
(0.00514065 0.3894 0)
(0.00213536 0.369426 0)
(0.0144113 0.290388 0)
(-0.0214589 0.349522 0)
(-0.00479398 0.393108 0)
(0.0214275 0.374266 0)
(0.0332489 0.402201 0)
(0.0310144 0.426814 0)
(0.023727 0.422073 0)
(-0.00508696 0.726849 0)
(0.00755174 0.982357 0)
(0.0140706 1.08783 0)
(0.0123573 1.11554 0)
(0.0108519 1.1256 0)
(0.00890566 1.12893 0)
(0.00556093 1.12857 0)
(0.0015979 1.12712 0)
(-0.00284679 1.12474 0)
(-0.00752516 1.12314 0)
(-0.0119823 1.1213 0)
(-0.0159493 1.11939 0)
(-0.0186587 1.1155 0)
(-0.019626 1.1075 0)
(-0.0189006 1.09297 0)
(-0.0160493 1.06792 0)
(-0.0123768 1.02004 0)
(0.0275998 0.872895 0)
(0.0463577 0.491094 0)
(0.0286838 0.436049 0)
(0.00810383 0.41946 0)
(0.00106499 0.389579 0)
(-0.00221799 0.360494 0)
(0.0137844 0.294454 0)
(-0.0211757 0.366667 0)
(-0.00671408 0.364762 0)
(0.0186814 0.351693 0)
(0.0286985 0.398505 0)
(0.0209806 0.433947 0)
(0.00530191 0.447727 0)
(-0.0178171 0.726289 0)
(-0.0015692 0.974654 0)
(0.00388287 1.08649 0)
(0.00170875 1.11476 0)
(0.00213649 1.12804 0)
(0.00157232 1.13137 0)
(2.81565e-05 1.13272 0)
(-0.00254508 1.13104 0)
(-0.00545607 1.12961 0)
(-0.00865219 1.12738 0)
(-0.0118871 1.12592 0)
(-0.014553 1.1225 0)
(-0.0166903 1.11781 0)
(-0.0169758 1.10808 0)
(-0.0169871 1.09136 0)
(-0.0141225 1.0647 0)
(-0.00832943 1.00337 0)
(0.0332556 0.837819 0)
(0.0482647 0.49729 0)
(0.02943 0.460637 0)
(0.00716797 0.432706 0)
(-0.00126662 0.389624 0)
(-0.00866351 0.353164 0)
(0.00951721 0.292647 0)
(-0.0130754 0.38116 0)
(-0.00034613 0.348558 0)
(0.00769198 0.333315 0)
(0.0167273 0.397312 0)
(0.00623013 0.444883 0)
(-0.0126031 0.474179 0)
(-0.0260842 0.714707 0)
(-0.00648749 0.967867 0)
(-0.00430819 1.08465 0)
(-0.00577885 1.11511 0)
(-0.00471308 1.12733 0)
(-0.00392492 1.13362 0)
(-0.00444603 1.13422 0)
(-0.00576889 1.1348 0)
(-0.00761683 1.13257 0)
(-0.00978546 1.13153 0)
(-0.0119564 1.12871 0)
(-0.0140576 1.12612 0)
(-0.01547 1.11922 0)
(-0.0159485 1.10911 0)
(-0.0161031 1.08974 0)
(-0.0148496 1.06136 0)
(-0.00785725 0.987564 0)
(0.0339699 0.802712 0)
(0.0488115 0.506175 0)
(0.0296452 0.484336 0)
(0.00650232 0.446827 0)
(-0.00529076 0.391287 0)
(-0.0164137 0.34777 0)
(0.0063257 0.283639 0)
(-0.00217038 0.384586 0)
(0.0127057 0.345185 0)
(0.00306929 0.329583 0)
(-0.00352829 0.39471 0)
(-0.0133716 0.459016 0)
(-0.0284231 0.494037 0)
(-0.0280496 0.693694 0)
(-0.0074114 0.966267 0)
(-0.00889878 1.0832 0)
(-0.0109621 1.11293 0)
(-0.00920522 1.12789 0)
(-0.00805236 1.13287 0)
(-0.00766393 1.13671 0)
(-0.00824999 1.13576 0)
(-0.00926021 1.13595 0)
(-0.0106211 1.1333 0)
(-0.0122065 1.13224 0)
(-0.0136602 1.12728 0)
(-0.014986 1.12154 0)
(-0.0155304 1.10903 0)
(-0.0167228 1.0904 0)
(-0.0176056 1.05975 0)
(-0.0105644 0.970016 0)
(0.030956 0.766774 0)
(0.0462456 0.516052 0)
(0.0267036 0.50643 0)
(0.00428275 0.462588 0)
(-0.0121995 0.393407 0)
(-0.0245949 0.344857 0)
(0.00277899 0.270091 0)
(0.00386963 0.372196 0)
(0.0202681 0.350395 0)
(-0.00345349 0.342293 0)
(-0.0232491 0.40349 0)