/*--------------------------------*- C++ -*----------------------------------*\
| =========                 |                                                 |
| \\      /  F ield         | OpenFOAM: The Open Source CFD Toolbox           |
|  \\    /   O peration     | Version:  2.3.0                                 |
|   \\  /    A nd           | Web:      www.OpenFOAM.org                      |
|    \\/     M anipulation  |                                                 |
\*---------------------------------------------------------------------------*/
FoamFile
{
    version     2.0;
    format      ascii;
    class       volScalarField;
    location    "0.146";
    object      k;
}
// * * * * * * * * * * * * * * * * * * * * * * * * * * * * * * * * * * * * * //

dimensions      [0 2 -2 0 0 0 0];

internalField   nonuniform List<scalar> 
545
(
120940
115168
105956
98008.4
92569.7
123282
115433
105674
97523.2
91661
127307
115649
104998
96516.5
90035.7
133394
115474
103912
95075.7
87550.9
142417
114482
102664
93531.5
84049.9
89789.6
88271.1
87787.8
87635.3
87587
87571.2
87565.6
87563.2
87561.7
87560.6
87559.6
87558.7
87557.8
87556.9
87556.1
87555.3
87554.5
87553.7
87553
87552.3
87551.6
87551
87550.4
87549.8
87549.2
87548.7
87548.2
87547.7
87547.3
87546.9
87546.5
87546.1
87545.7
87545.4
87545.1
87544.9
87544.6
87544.4
87544.3
87544.1
87544
87543.9
87543.8
87543.7
87543.7
89094.2
88058.2
87720.5
87614.2
87580.4
87569.2
87564.9
87562.9
87561.6
87560.5
87559.6
87558.6
87557.7
87556.9
87556
87555.2
87554.4
87553.7
87553
87552.3
87551.6
87551
87550.3
87549.8
87549.2
87548.7
87548.2
87547.7
87547.2
87546.8
87546.4
87546.1
87545.7
87545.4
87545.1
87544.8
87544.6
87544.4
87544.2
87544.1
87543.9
87543.8
87543.8
87543.7
87543.7
88082.3
87701.6
87606.1
87578.3
87569.2
87565.7
87563.9
87562.6
87561.5
87560.5
87559.5
87558.6
87557.7
87556.8
87556
87555.2
87554.4
87553.7
87552.9
87552.2
87551.6
87550.9
87550.3
87549.7
87549.2
87548.6
87548.1
87547.7
87547.2
87546.8
87546.4
87546
87545.7
87545.4
87545.1
87544.8
87544.6
87544.4
87544.2
87544
87543.9
87543.8
87543.7
87543.7
87543.7
86766
87285.4
87477.9
87538.7
87556.9
87561.9
87562.7
87562.2
87561.4
87560.4
87559.5
87558.6
87557.7
87556.8
87556
87555.2
87554.4
87553.7
87552.9
87552.2
87551.6
87550.9
87550.3
87549.7
87549.2
87548.6
87548.1
87547.7
87547.2
87546.8
87546.4
87546
87545.7
87545.4
87545.1
87544.8
87544.6
87544.4
87544.2
87544
87543.9
87543.8
87543.7
87543.7
87543.6
85231.6
86933.4
87376.1
87507.6
87547.3
87558.9
87561.7
87561.9
87561.3
87560.4
87559.5
87558.6
87557.7
87556.8
87556
87555.2
87554.4
87553.6
87552.9
87552.2
87551.6
87550.9
87550.3
87549.7
87549.2
87548.6
87548.1
87547.6
87547.2
87546.8
87546.4
87546
87545.7
87545.3
87545.1
87544.8
87544.6
87544.4
87544.2
87544
87543.9
87543.8
87543.7
87543.7
87543.6
85402.2
86826.3
87334.9
87494.5
87543.2
87557.6
87561.3
87561.8
87561.2
87560.4
87559.5
87558.6
87557.7
87556.8
87556
87555.2
87554.4
87553.6
87552.9
87552.2
87551.6
87550.9
87550.3
87549.7
87549.2
87548.6
87548.1
87547.6
87547.2
87546.8
87546.4
87546
87545.7
87545.3
87545.1
87544.8
87544.6
87544.4
87544.2
87544
87543.9
87543.8
87543.7
87543.7
87543.6
142417
114482
102664
93531.5
84049.9
133394
115474
103912
95075.7
87550.9
127307
115649
104998
96516.5
90035.7
123282
115433
105674
97523.2
91661
120940
115168
105956
98008.4
92569.7
85231.6
86933.4
87376.1
87507.6
87547.3
87558.9
87561.7
87561.9
87561.3
87560.4
87559.5
87558.6
87557.7
87556.8
87556
87555.2
87554.4
87553.6
87552.9
87552.2
87551.6
87550.9
87550.3
87549.7
87549.2
87548.6
87548.1
87547.6
87547.2
87546.8
87546.4
87546
87545.7
87545.3
87545.1
87544.8
87544.6
87544.4
87544.2
87544
87543.9
87543.8
87543.7
87543.7
87543.6
86766
87285.4
87477.9
87538.7
87556.9
87561.9
87562.7
87562.2
87561.4
87560.4
87559.5
87558.6
87557.7
87556.8
87556
87555.2
87554.4
87553.7
87552.9
87552.2
87551.6
87550.9
87550.3
87549.7
87549.2
87548.6
87548.1
87547.7
87547.2
87546.8
87546.4
87546
87545.7
87545.4
87545.1
87544.8
87544.6
87544.4
87544.2
87544
87543.9
87543.8
87543.7
87543.7
87543.6
88082.3
87701.6
87606.1
87578.3
87569.2
87565.7
87563.9
87562.6
87561.5
87560.5
87559.5
87558.6
87557.7
87556.8
87556
87555.2
87554.4
87553.7
87552.9
87552.2
87551.6
87550.9
87550.3
87549.7
87549.2
87548.6
87548.1
87547.7
87547.2
87546.8
87546.4
87546
87545.7
87545.4
87545.1
87544.8
87544.6
87544.4
87544.2
87544
87543.9
87543.8
87543.7
87543.7
87543.7
89094.2
88058.2
87720.5
87614.2
87580.4
87569.2
87564.9
87562.9
87561.6
87560.5
87559.6
87558.6
87557.7
87556.9
87556
87555.2
87554.4
87553.7
87553
87552.3
87551.6
87551
87550.3
87549.8
87549.2
87548.7
87548.2
87547.7
87547.2
87546.8
87546.4
87546.1
87545.7
87545.4
87545.1
87544.8
87544.6
87544.4
87544.2
87544.1
87543.9
87543.8
87543.8
87543.7
87543.7
89789.6
88271
87787.8
87635.3
87587
87571.2
87565.6
87563.2
87561.7
87560.6
87559.6
87558.7
87557.8
87556.9
87556.1
87555.3
87554.5
87553.7
87553
87552.3
87551.6
87551
87550.4
87549.8
87549.2
87548.7
87548.2
87547.7
87547.3
87546.8
87546.5
87546.1
87545.7
87545.4
87545.1
87544.9
87544.6
87544.4
87544.2
87544.1
87544
87543.9
87543.8
87543.7
87543.7
)
;

boundaryField
{
    AirInlet
    {
        type            fixedValue;
        value           uniform 0.1;
    }
    WaterInlet
    {
        type            fixedValue;
        value           uniform 0.1;
    }
    ChannelWall
    {
        type            fixedValue;
        value           uniform 0.1;
    }
    Outlet
    {
        type            inletOutlet;
        inletValue      uniform 0.1;
        value           nonuniform List<scalar> 
11
(
87543.7
87543.7
87543.7
87543.6
87543.6
87543.6
87543.6
87543.6
87543.7
87543.7
87543.7
)
;
    }
    FrontAndBack
    {
        type            empty;
    }
}


// ************************************************************************* //
