/*--------------------------------*- C++ -*----------------------------------*\
| =========                 |                                                 |
| \\      /  F ield         | OpenFOAM: The Open Source CFD Toolbox           |
|  \\    /   O peration     | Version:  2.3.0                                 |
|   \\  /    A nd           | Web:      www.OpenFOAM.org                      |
|    \\/     M anipulation  |                                                 |
\*---------------------------------------------------------------------------*/
FoamFile
{
    version     2.0;
    format      ascii;
    class       volScalarField;
    location    "0.192";
    object      alpha.water;
}
// * * * * * * * * * * * * * * * * * * * * * * * * * * * * * * * * * * * * * //

dimensions      [0 0 0 0 0 0 0];

internalField   nonuniform List<scalar> 
545
(
1
1
1
1
1
1
1
1
1
1
1
1
1
1
1
1
1
1
1
1
1
1
1
1
1
1
1
1
1
1
1
1
1
1
1
1
1
1
1
1
1
1
1
1
1
1
1
1
1
1
1
1
1
1
1
1
1
1
1
1
1
1
1
1
1
1
1
1
1
1
1
1
1
1
1
1
1
1
1
1
1
1
1
1
1
1
1
1
1
1
1
1
1
1
1
1
1
1
1
1
1
1
1
1
1
1
1
1
1
1
1
1
1
1
1
1
1
1
1
1
0.999999
0.999999
0.999999
0.999999
0.999999
0.999999
0.999999
0.999999
0.999999
0.999999
0.999999
0.999999
0.999999
0.999999
0.999999
0.999999
0.999999
0.999999
0.999999
0.999999
0.999999
0.999999
0.999999
0.999999
0.999999
0.999999
0.999999
0.999999
0.999999
0.999999
0.999999
0.999999
0.999999
0.999999
0.999999
0.999999
0.999999
0.999999
0.999999
0.999999
1
1
0.999986
0.999971
0.99996
0.999948
0.999939
0.999935
0.999934
0.999935
0.999936
0.999938
0.999939
0.999939
0.999939
0.999939
0.999939
0.999938
0.999938
0.999938
0.999938
0.999938
0.999938
0.999938
0.999938
0.999938
0.999938
0.999938
0.999938
0.999938
0.999938
0.999938
0.999938
0.999938
0.999938
0.999938
0.999938
0.999938
0.999938
0.999938
0.999938
0.999938
0.999938
0.999938
0.999938
1
1
0.998217
0.997538
0.997453
0.997034
0.99574
0.994758
0.994886
0.994962
0.995127
0.995297
0.995424
0.99549
0.995504
0.995482
0.995448
0.995414
0.995391
0.995381
0.99538
0.995384
0.995391
0.995397
0.995401
0.995403
0.995402
0.995401
0.9954
0.995398
0.995397
0.995397
0.995396
0.995395
0.995394
0.995394
0.995393
0.995392
0.995392
0.995392
0.995392
0.995392
0.995391
0.995391
0.995389
0.276326
0.369999
0.396252
0.534987
0.984568
0.765072
0.484715
0.475459
0.475445
0.475446
0.632413
0.990734
0.871955
0.490107
0.483771
0.559023
0.535389
0.535716
0.665162
0.987612
0.890503
0.610322
0.406166
0.436882
0.430892
0.430872
0.430887
0.495074
0.721739
0.729415
0.726468
0.831265
0.995581
0.995574
0.769092
0.424156
0.425812
0.485719
0.466398
0.466407
0.682889
0.995495
0.838477
0.582366
0.582327
1
1
1
1
1
1
1
1
1
1
1
1
1
1
1
1
1
1
1
1
1
1
1
1
1
1
1
0.998218
0.997538
0.997453
0.997033
0.99574
0.994757
0.994889
0.994966
0.995132
0.995303
0.995429
0.995494
0.995506
0.995482
0.995445
0.99541
0.995386
0.995374
0.995371
0.995373
0.995378
0.99538
0.995384
0.995383
0.995383
0.995381
0.995379
0.995377
0.995376
0.995375
0.995374
0.995372
0.995369
0.995365
0.995362
0.995359
0.995358
0.995357
0.995358
0.995359
0.995357
0.995355
0.99535
1
1
0.999986
0.999971
0.999959
0.999948
0.999939
0.999935
0.999934
0.999935
0.999936
0.999938
0.999939
0.999939
0.999939
0.999939
0.999938
0.999938
0.999938
0.999938
0.999938
0.999938
0.999938
0.999938
0.999938
0.999938
0.999938
0.999938
0.999938
0.999938
0.999938
0.999938
0.999938
0.999938
0.999938
0.999938
0.999938
0.999938
0.999938
0.999938
0.999938
0.999938
0.999938
0.999938
0.999938
1
1
1
1
1
0.999999
0.999999
0.999999
0.999999
0.999999
0.999999
0.999999
0.999999
0.999999
0.999999
0.999999
0.999999
0.999999
0.999999
0.999999
0.999999
0.999999
0.999999
0.999999
0.999999
0.999999
0.999999
0.999999
0.999999
0.999999
0.999999
0.999999
0.999999
0.999999
0.999999
0.999999
0.999999
0.999999
0.999999
0.999999
0.999999
0.999999
0.999999
0.999999
0.999999
1
1
1
1
1
1
1
1
1
1
1
1
1
1
1
1
1
1
1
1
1
1
1
1
1
1
1
1
1
1
1
1
1
1
1
1
1
1
1
1
1
1
1
1
1
1
1
1
1
1
1
1
1
1
1
1
1
1
1
1
1
1
1
1
1
1
1
1
1
1
1
1
1
1
1
1
1
1
1
1
1
1
1
1
1
1
1
1
1
1
)
;

boundaryField
{
    AirInlet
    {
        type            fixedValue;
        value           uniform 0;
    }
    WaterInlet
    {
        type            fixedValue;
        value           uniform 1;
    }
    ChannelWall
    {
        type            zeroGradient;
    }
    Outlet
    {
        type            inletOutlet;
        inletValue      uniform 0;
        value           nonuniform List<scalar> 
11
(
1
1
0.999999
0.999938
0.995389
0.582327
0.99535
0.999938
0.999999
1
1
)
;
    }
    FrontAndBack
    {
        type            empty;
    }
}


// ************************************************************************* //
