/*--------------------------------*- C++ -*----------------------------------*\
| =========                 |                                                 |
| \\      /  F ield         | OpenFOAM: The Open Source CFD Toolbox           |
|  \\    /   O peration     | Version:  2.3.0                                 |
|   \\  /    A nd           | Web:      www.OpenFOAM.org                      |
|    \\/     M anipulation  |                                                 |
\*---------------------------------------------------------------------------*/
FoamFile
{
    version     2.0;
    format      ascii;
    class       volVectorField;
    location    "53";
    object      U.waterMean;
}
// * * * * * * * * * * * * * * * * * * * * * * * * * * * * * * * * * * * * * //

dimensions      [0 1 -1 0 0 0 0];

internalField   nonuniform List<vector> 
1875
(
(0.0566132 -0.194652 0)
(0.0991484 -0.19132 0)
(0.161842 -0.173679 0)
(0.207503 -0.153863 0)
(0.236745 -0.133614 0)
(0.251071 -0.115376 0)
(0.252349 -0.10042 0)
(0.241423 -0.0852708 0)
(0.219666 -0.0728803 0)
(0.186981 -0.0624118 0)
(0.147458 -0.0528318 0)
(0.104251 -0.0490319 0)
(0.0584964 -0.0494774 0)
(0.0135325 -0.0531997 0)
(-0.0305423 -0.0582631 0)
(-0.0729999 -0.0634556 0)
(-0.111148 -0.0710568 0)
(-0.142333 -0.0808253 0)
(-0.164395 -0.091109 0)
(-0.175749 -0.102976 0)
(-0.175064 -0.117285 0)
(-0.160955 -0.135481 0)
(-0.13048 -0.156416 0)
(-0.0825301 -0.178637 0)
(-0.0493533 -0.188047 0)
(0.0341014 -0.213124 0)
(0.0737692 -0.170526 0)
(0.111653 -0.106065 0)
(0.137795 -0.050045 0)
(0.153383 -0.000982895 0)
(0.161566 0.043269 0)
(0.162365 0.0795425 0)
(0.155713 0.110046 0)
(0.144297 0.136285 0)
(0.127101 0.156205 0)
(0.105698 0.168961 0)
(0.0823034 0.177229 0)
(0.0567853 0.182635 0)
(0.0312529 0.184401 0)
(0.00524057 0.185342 0)
(-0.0203675 0.182044 0)
(-0.0430566 0.171992 0)
(-0.0625415 0.15318 0)
(-0.0780016 0.124956 0)
(-0.088069 0.088481 0)
(-0.0913781 0.0441749 0)
(-0.088945 -0.00182209 0)
(-0.0762675 -0.0576684 0)
(-0.0529295 -0.128617 0)
(-0.0237814 -0.181055 0)
(0.016758 -0.341494 0)
(0.0334135 -0.272979 0)
(0.0448051 -0.20344 0)
(0.0541453 -0.142146 0)
(0.0613626 -0.0870901 0)
(0.0674405 -0.0374322 0)
(0.0717271 0.00889875 0)
(0.0727285 0.0487351 0)
(0.0713537 0.081673 0)
(0.0681556 0.111247 0)
(0.062398 0.133171 0)
(0.0542397 0.144473 0)
(0.0448528 0.149891 0)
(0.0345933 0.14868 0)
(0.0240303 0.144215 0)
(0.015842 0.133162 0)
(0.00765831 0.114412 0)
(0.00160167 0.088321 0)
(-0.00398312 0.0530506 0)
(-0.0071126 0.0113547 0)
(-0.00936264 -0.0317171 0)
(-0.0132859 -0.074437 0)
(-0.0147453 -0.123977 0)
(-0.0166353 -0.195898 0)
(-0.00882884 -0.276976 0)
(0.0036285 -0.353564 0)
(0.00811274 -0.266169 0)
(0.00841113 -0.192161 0)
(0.0100944 -0.12742 0)
(0.0132772 -0.0682061 0)
(0.0170595 -0.0131741 0)
(0.0212302 0.0361449 0)
(0.0233397 0.078645 0)
(0.0253699 0.114336 0)
(0.0278607 0.145186 0)
(0.0301287 0.168583 0)
(0.0318418 0.185099 0)
(0.0319672 0.194719 0)
(0.0313901 0.195996 0)
(0.0308618 0.192768 0)
(0.0303719 0.184831 0)
(0.0297525 0.169171 0)
(0.0287534 0.142128 0)
(0.0271941 0.105921 0)
(0.024645 0.0607255 0)
(0.0212364 0.0106719 0)
(0.0159071 -0.0406485 0)
(0.010791 -0.0971075 0)
(0.00301179 -0.172034 0)
(0.000629691 -0.274915 0)
(-0.00282594 -0.365237 0)
(-0.00373061 -0.278262 0)
(-0.0114262 -0.202132 0)
(-0.0201317 -0.139541 0)
(-0.0257438 -0.0847935 0)
(-0.0280925 -0.0319466 0)
(-0.0272338 0.0179557 0)
(-0.0252276 0.059383 0)
(-0.0217811 0.0939024 0)
(-0.0164815 0.122762 0)
(-0.00935126 0.145218 0)
(-0.00190213 0.16453 0)
(0.00493694 0.175823 0)
(0.0125179 0.178756 0)
(0.0203409 0.174696 0)
(0.0282275 0.165565 0)
(0.0361817 0.147922 0)
(0.0432921 0.123513 0)
(0.0472209 0.0907421 0)
(0.0473184 0.0507631 0)
(0.0428972 0.00475777 0)
(0.0348676 -0.0415605 0)
(0.0226733 -0.0958686 0)
(0.00972814 -0.173411 0)
(0.00326998 -0.277713 0)
(-0.00548213 -0.35553 0)
(-0.0102721 -0.25914 0)
(-0.0218048 -0.172417 0)
(-0.0369457 -0.106348 0)
(-0.0498529 -0.0574044 0)
(-0.0594911 -0.0137747 0)
(-0.0633638 0.0265658 0)
(-0.0639778 0.0630433 0)
(-0.0609881 0.0912244 0)
(-0.0547658 0.113768 0)
(-0.0461074 0.132686 0)
(-0.0350667 0.149465 0)
(-0.022586 0.159906 0)
(-0.00883914 0.16136 0)
(0.0052811 0.15868 0)
(0.0192239 0.150757 0)
(0.0320165 0.138575 0)
(0.0428511 0.121006 0)
(0.0494549 0.0981024 0)
(0.0511303 0.0689466 0)
(0.0465328 0.0341883 0)
(0.0365208 -0.00524076 0)
(0.0221285 -0.0608097 0)
(0.00959976 -0.147814 0)
(0.00312061 -0.264593 0)
(-0.00919748 -0.342299 0)
(-0.0139654 -0.245956 0)
(-0.0274178 -0.154178 0)
(-0.042827 -0.0819928 0)
(-0.0601304 -0.0342507 0)
(-0.0729712 0.00233051 0)
(-0.0812019 0.0335832 0)
(-0.0845776 0.0593907 0)
(-0.0832856 0.0783166 0)
(-0.0781872 0.093479 0)
(-0.0698586 0.105736 0)
(-0.0582757 0.115188 0)
(-0.0434329 0.120114 0)
(-0.0273182 0.120363 0)
(-0.0112119 0.11851 0)
(0.0042438 0.114038 0)
(0.0183896 0.10637 0)
(0.0296128 0.0973578 0)
(0.0373313 0.0842589 0)
(0.039748 0.0664628 0)
(0.0356955 0.0422231 0)
(0.0257707 0.00970026 0)
(0.0152404 -0.0504709 0)
(0.00633834 -0.142214 0)
(0.00256437 -0.260025 0)
(-0.00910363 -0.321287 0)
(-0.0150258 -0.22041 0)
(-0.0279026 -0.124107 0)
(-0.0411589 -0.0447215 0)
(-0.0587384 0.00317476 0)
(-0.072984 0.0312709 0)
(-0.083931 0.0520264 0)
(-0.0886919 0.0680723 0)
(-0.0892103 0.0778271 0)
(-0.0848027 0.0833882 0)
(-0.0768567 0.0868687 0)
(-0.066045 0.0885342 0)
(-0.0516391 0.0888839 0)
(-0.0361598 0.0882103 0)
(-0.0208854 0.0873288 0)
(-0.00659792 0.0860524 0)
(0.00634765 0.0849572 0)
(0.0161204 0.0832314 0)
(0.0225274 0.0798179 0)
(0.0240039 0.0747931 0)
(0.019776 0.0638996 0)
(0.0119231 0.0335222 0)
(0.00436936 -0.0330877 0)
(0.0020165 -0.135476 0)
(-0.00019231 -0.256258 0)
(-0.00928731 -0.303141 0)
(-0.0136607 -0.201238 0)
(-0.0247197 -0.105441 0)
(-0.0337018 -0.0217256 0)
(-0.0471629 0.0322196 0)
(-0.0610733 0.0578798 0)
(-0.0721805 0.0706638 0)
(-0.0781259 0.0739313 0)
(-0.080043 0.0723201 0)
(-0.0776468 0.0691457 0)
(-0.0718335 0.0660986 0)
(-0.0622968 0.0607229 0)
(-0.0502142 0.0561368 0)
(-0.0370712 0.0541199 0)
(-0.02456 0.0548258 0)
(-0.0136075 0.0573375 0)
(-0.00441832 0.0617205 0)
(0.00290255 0.0679065 0)
(0.0065495 0.0743254 0)
(0.0065403 0.0791745 0)
(0.00309606 0.0733491 0)
(-0.00119658 0.0412687 0)
(-0.0027549 -0.0339567 0)
(-0.0017291 -0.139237 0)
(-0.000717613 -0.26052 0)
(-0.00737568 -0.286906 0)
(-0.00957453 -0.183093 0)
(-0.0178256 -0.0877994 0)
(-0.0235442 -0.00217644 0)
(-0.0314163 0.058516 0)
(-0.0425063 0.0850777 0)
(-0.0515 0.0908942 0)
(-0.057909 0.0871273 0)
(-0.0613407 0.0784037 0)
(-0.0616917 0.067334 0)
(-0.0590362 0.0549231 0)
(-0.052988 0.0428483 0)
(-0.0457919 0.0356499 0)
(-0.0367365 0.0349179 0)
(-0.0279033 0.0379771 0)
(-0.0186791 0.0429047 0)
(-0.0123453 0.0511662 0)
(-0.00837825 0.0630134 0)
(-0.00789649 0.0759578 0)
(-0.00940468 0.0858748 0)
(-0.0115616 0.0815981 0)
(-0.0129241 0.0434417 0)
(-0.00864328 -0.0388034 0)
(-0.00529065 -0.144489 0)
(-0.00119392 -0.267339 0)
(-0.00537597 -0.279296 0)
(-0.00567036 -0.174885 0)
(-0.0103283 -0.0797261 0)
(-0.0130719 0.00600804 0)
(-0.0168422 0.0710287 0)
(-0.0225449 0.101192 0)
(-0.029873 0.105649 0)
(-0.0354921 0.0970574 0)
(-0.0392614 0.0828868 0)
(-0.0413942 0.066097 0)
(-0.0408275 0.0492447 0)
(-0.039625 0.0348065 0)
(-0.0368336 0.0213336 0)
(-0.0310144 0.0152229 0)
(-0.0255802 0.0169792 0)
(-0.0194 0.0273702 0)
(-0.0163908 0.0429953 0)
(-0.0157842 0.0621755 0)
(-0.0174517 0.0800668 0)
(-0.0201287 0.0927948 0)
(-0.0221449 0.0834211 0)
(-0.0197002 0.034108 0)
(-0.0122117 -0.0546869 0)
(-0.00678341 -0.158985 0)
(-0.000857188 -0.278676 0)
(-0.0037775 -0.274715 0)
(-0.00276644 -0.169645 0)
(-0.00512859 -0.074272 0)
(-0.00494814 0.0110141 0)
(-0.00593415 0.0778128 0)
(-0.00774293 0.11249 0)
(-0.0118777 0.119027 0)
(-0.0168793 0.108383 0)
(-0.0200778 0.0921424 0)
(-0.022544 0.0720871 0)
(-0.0233889 0.0520878 0)
(-0.0228801 0.0347815 0)
(-0.0220398 0.020168 0)
(-0.0210068 0.0117508 0)
(-0.0206335 0.0136906 0)
(-0.0194968 0.0244533 0)
(-0.0192929 0.0444797 0)
(-0.0197714 0.068779 0)
(-0.0233493 0.0906535 0)
(-0.0260236 0.100635 0)
(-0.026831 0.0825374 0)
(-0.0207315 0.0204833 0)
(-0.0124094 -0.0694375 0)
(-0.00581583 -0.173351 0)
(-0.00151018 -0.287713 0)
(-0.00269646 -0.274552 0)
(-0.00125265 -0.168342 0)
(-0.00228394 -0.0748537 0)
(-0.00107347 0.00823927 0)
(0.000841869 0.0772584 0)
(0.00114743 0.115758 0)
(0.000336377 0.12616 0)
(-0.00313303 0.115861 0)
(-0.00626917 0.0958483 0)
(-0.00809264 0.0726717 0)
(-0.00941212 0.0528191 0)
(-0.0100842 0.0360083 0)
(-0.00962026 0.0212416 0)
(-0.0109432 0.015519 0)
(-0.0139866 0.017856 0)
(-0.0164743 0.0279421 0)
(-0.019286 0.0468271 0)
(-0.0216068 0.07208 0)
(-0.0240338 0.0967346 0)
(-0.0260654 0.10272 0)
(-0.0240009 0.0744958 0)
(-0.0158716 0.00391915 0)
(-0.00889573 -0.0853735 0)
(-0.00412521 -0.186635 0)
(-0.00211951 -0.296348 0)
(-0.00200532 -0.275539 0)
(-8.15522e-05 -0.167963 0)
(-0.000264961 -0.0757832 0)
(0.00130472 0.00445553 0)
(0.00481467 0.071779 0)
(0.00744229 0.11488 0)
(0.00853027 0.128176 0)
(0.00816926 0.12241 0)
(0.00599256 0.103221 0)
(0.0034686 0.0799289 0)
(0.00137769 0.0574307 0)
(0.0003734 0.0384696 0)
(-0.000567565 0.0266054 0)
(-0.00275073 0.0258272 0)
(-0.00676569 0.0288653 0)
(-0.0104775 0.0379176 0)
(-0.0158469 0.0541319 0)
(-0.020223 0.0788427 0)
(-0.0230788 0.10257 0)
(-0.0231256 0.100974 0)
(-0.0182598 0.0620773 0)
(-0.0112016 -0.0109594 0)
(-0.00690243 -0.096304 0)
(-0.00429821 -0.19482 0)
(-0.0031955 -0.305143 0)
(-0.0014907 -0.277378 0)
(5.03511e-05 -0.169621 0)
(0.000437753 -0.0788527 0)
(0.00189807 -0.000811751 0)
(0.0046479 0.0630234 0)
(0.00881657 0.10859 0)
(0.0113671 0.125349 0)
(0.0129158 0.121636 0)
(0.0128623 0.107227 0)
(0.0127807 0.0835318 0)
(0.0111782 0.0621688 0)
(0.00921508 0.0426808 0)
(0.00742294 0.030517 0)
(0.00513253 0.0313948 0)
(0.00102856 0.0375983 0)
(-0.00367018 0.0499027 0)
(-0.0105004 0.0669648 0)
(-0.015283 0.0887912 0)
(-0.0183846 0.104316 0)
(-0.0166823 0.0953785 0)
(-0.01156 0.0515285 0)
(-0.00670199 -0.0214315 0)
(-0.00569298 -0.103169 0)
(-0.00422275 -0.202207 0)
(-0.00288084 -0.315279 0)
(-0.00117051 -0.277901 0)
(-0.000450115 -0.169769 0)
(-0.000798984 -0.0796039 0)
(-1.43886e-05 -0.00253011 0)
(0.00198169 0.0583879 0)
(0.00565403 0.100353 0)
(0.00998895 0.120027 0)
(0.0129046 0.118051 0)
(0.015371 0.104197 0)
(0.0173823 0.0855166 0)
(0.0160879 0.0684581 0)
(0.0142734 0.0500373 0)
(0.0116808 0.0384667 0)
(0.00842517 0.0410197 0)
(0.00423546 0.0515299 0)
(-0.000533215 0.0647871 0)
(-0.00525032 0.0796799 0)
(-0.00848603 0.0964484 0)
(-0.00982045 0.105484 0)
(-0.00750259 0.088662 0)
(-0.00282939 0.041553 0)
(-0.000814693 -0.024557 0)
(-0.00227743 -0.104621 0)
(-0.00203462 -0.20588 0)
(-0.0011232 -0.321218 0)
(-0.000641204 -0.278299 0)
(-0.000459264 -0.169943 0)
(-0.0012997 -0.0782501 0)
(-0.00144478 -0.00363919 0)
(7.66011e-05 0.053111 0)
(0.00263347 0.0917169 0)
(0.00783913 0.110135 0)
(0.0115473 0.108306 0)
(0.0140036 0.095534 0)
(0.0155391 0.0826727 0)
(0.0158086 0.0692634 0)
(0.015564 0.054047 0)
(0.0147063 0.0456613 0)
(0.0110933 0.0488045 0)
(0.00779229 0.0586706 0)
(0.00409205 0.0721443 0)
(0.000536158 0.085344 0)
(-0.00140047 0.100211 0)
(-0.00133509 0.103543 0)
(0.00200645 0.0813101 0)
(0.00436533 0.0375569 0)
(0.0040315 -0.0226507 0)
(0.00294724 -0.103089 0)
(0.00126298 -0.20541 0)
(0.000512026 -0.322529 0)
(8.30782e-05 -0.279042 0)
(0.000497734 -0.170565 0)
(0.000617511 -0.0774968 0)
(0.000786436 -0.00395321 0)
(0.0020772 0.0499933 0)
(0.00481746 0.0843349 0)
(0.00929028 0.100683 0)
(0.0120105 0.101346 0)
(0.0133781 0.0915814 0)
(0.0130979 0.0794531 0)
(0.0140729 0.0677256 0)
(0.0134437 0.0554246 0)
(0.0129977 0.0492802 0)
(0.0107448 0.0558043 0)
(0.00784186 0.0670453 0)
(0.00454817 0.0802408 0)
(0.00200351 0.0916103 0)
(0.00110537 0.0993236 0)
(0.00335119 0.0976183 0)
(0.00615325 0.0772041 0)
(0.0079162 0.0366318 0)
(0.00752687 -0.020935 0)
(0.00684226 -0.0999573 0)
(0.00337736 -0.199896 0)
(0.00134302 -0.319322 0)
(0.00114351 -0.281746 0)
(0.00173838 -0.173825 0)
(0.00327182 -0.0809426 0)
(0.00576 -0.00669081 0)
(0.00780811 0.0450457 0)
(0.0106403 0.077516 0)
(0.013614 0.0939052 0)
(0.0154913 0.096741 0)
(0.0157392 0.0896767 0)
(0.0146546 0.0787687 0)
(0.0134406 0.0674673 0)
(0.0108139 0.0576474 0)
(0.0078078 0.053052 0)
(0.00427891 0.0607861 0)
(0.00205475 0.0735537 0)
(0.000107891 0.0837454 0)
(0.00027398 0.0929643 0)
(0.00189929 0.0961525 0)
(0.00399816 0.0913926 0)
(0.00666325 0.0729671 0)
(0.00897379 0.0356591 0)
(0.00878788 -0.0190835 0)
(0.00807881 -0.0955146 0)
(0.00399868 -0.193195 0)
(0.00142112 -0.315873 0)
(0.00149858 -0.285905 0)
(0.00195774 -0.177892 0)
(0.0041525 -0.0863744 0)
(0.00732112 -0.014408 0)
(0.0109524 0.0380146 0)
(0.0147125 0.0718693 0)
(0.017775 0.0905539 0)
(0.0193339 0.0962786 0)
(0.0191267 0.0936228 0)
(0.0165123 0.0853003 0)
(0.012686 0.0779569 0)
(0.00689812 0.0708788 0)
(0.00149722 0.0648236 0)
(-0.00262496 0.0671384 0)
(-0.00391648 0.0762092 0)
(-0.00411367 0.0839123 0)
(-0.00252394 0.0881426 0)
(0.000622834 0.0893335 0)
(0.00237879 0.0864117 0)
(0.00566889 0.0665569 0)
(0.0079865 0.0320073 0)
(0.00840277 -0.0189253 0)
(0.00720906 -0.0910458 0)
(0.00346035 -0.187527 0)
(0.00177663 -0.313113 0)
(0.00148189 -0.289314 0)
(0.00115361 -0.181615 0)
(0.00311793 -0.0919285 0)
(0.00619381 -0.0222183 0)
(0.00998823 0.0287013 0)
(0.0142118 0.0623892 0)
(0.0182493 0.0842929 0)
(0.0193095 0.094417 0)
(0.0188759 0.0970762 0)
(0.0160246 0.0954192 0)
(0.0113797 0.0913609 0)
(0.00655751 0.0848232 0)
(0.00220473 0.0765474 0)
(-0.00163931 0.0743442 0)
(-0.00367124 0.0772136 0)
(-0.003573 0.0810029 0)
(-0.00159218 0.0821971 0)
(0.000553416 0.0843248 0)
(0.00319873 0.0795198 0)
(0.00666625 0.0613423 0)
(0.00841839 0.0294245 0)
(0.0080944 -0.0176494 0)
(0.00632688 -0.0853236 0)
(0.00362341 -0.182274 0)
(0.00209402 -0.310108 0)
(0.00115698 -0.291508 0)
(8.83725e-05 -0.183587 0)
(0.000935404 -0.0966436 0)
(0.0039357 -0.0290997 0)
(0.00702052 0.0199475 0)
(0.0111916 0.0534814 0)
(0.0142688 0.0792376 0)
(0.0157134 0.0932107 0)
(0.0152824 0.100536 0)
(0.0140154 0.101827 0)
(0.0121204 0.0992768 0)
(0.00939773 0.0939788 0)
(0.00676746 0.086186 0)
(0.00449131 0.0830355 0)
(0.00276679 0.0816691 0)
(0.00271104 0.0803391 0)
(0.00332629 0.0796328 0)
(0.00435071 0.0803102 0)
(0.00692315 0.0739913 0)
(0.00940021 0.0578192 0)
(0.00991906 0.0302963 0)
(0.00890342 -0.0140807 0)
(0.00705956 -0.0813355 0)
(0.00432653 -0.177832 0)
(0.00292981 -0.306416 0)
(0.000669913 -0.291733 0)
(-0.00101014 -0.18332 0)
(-0.0014844 -0.099351 0)
(0.000547518 -0.0339703 0)
(0.00330186 0.0144465 0)
(0.00700905 0.0494888 0)
(0.00981071 0.0767994 0)
(0.0123775 0.0931527 0)
(0.013909 0.100114 0)
(0.0147256 0.101634 0)
(0.0147014 0.101928 0)
(0.0133429 0.0979667 0)
(0.0120759 0.0899193 0)
(0.0109212 0.086211 0)
(0.0102532 0.0836645 0)
(0.0100716 0.0819433 0)
(0.00954724 0.0804528 0)
(0.00943134 0.0778997 0)
(0.0109436 0.0706704 0)
(0.0119735 0.0557323 0)
(0.0118833 0.032395 0)
(0.0103004 -0.00965996 0)
(0.00899289 -0.0777913 0)
(0.00543072 -0.172073 0)
(0.00384828 -0.300968 0)
(0.000810242 -0.292137 0)
(-0.000294071 -0.183528 0)
(-0.00121717 -0.1007 0)
(-0.000212143 -0.0393394 0)
(0.00246401 0.00610882 0)
(0.00607286 0.0415117 0)
(0.00996501 0.0686155 0)
(0.0139707 0.0849588 0)
(0.0172819 0.0944358 0)
(0.0185499 0.0990492 0)
(0.0189083 0.102039 0)
(0.0179621 0.0997891 0)
(0.0173762 0.09334 0)
(0.0163698 0.0892384 0)
(0.0155637 0.0859697 0)
(0.0144542 0.0839675 0)
(0.0136331 0.0816808 0)
(0.0126999 0.0770362 0)
(0.0127823 0.0691636 0)
(0.0127012 0.055254 0)
(0.0121905 0.0339394 0)
(0.01109 -0.00693896 0)
(0.0102978 -0.0744323 0)
(0.00596854 -0.165366 0)
(0.00420907 -0.29318 0)
(0.000942188 -0.293284 0)
(0.000471315 -0.18447 0)
(0.00113832 -0.101037 0)
(0.0018534 -0.0428514 0)
(0.00413921 -0.000663571 0)
(0.00724251 0.0338765 0)
(0.0112984 0.059436 0)
(0.0154857 0.0772319 0)
(0.0186082 0.0883648 0)
(0.0196104 0.0965852 0)
(0.0203132 0.101956 0)
(0.0206567 0.100999 0)
(0.0214483 0.0946174 0)
(0.0206421 0.0920209 0)
(0.0193668 0.0895105 0)
(0.0170655 0.0868161 0)
(0.015123 0.0840746 0)
(0.0135685 0.0789399 0)
(0.0128499 0.07013 0)
(0.0119966 0.0561345 0)
(0.0118562 0.0346679 0)
(0.0110383 -0.00514512 0)
(0.0101641 -0.0696332 0)
(0.00592144 -0.15738 0)
(0.00411161 -0.284501 0)
(0.00105181 -0.296111 0)
(0.00178409 -0.188288 0)
(0.00359608 -0.105582 0)
(0.00570907 -0.0469122 0)
(0.00730416 -0.00627544 0)
(0.00939153 0.0266835 0)
(0.0127456 0.0507984 0)
(0.0161611 0.069742 0)
(0.0187366 0.084703 0)
(0.0201563 0.0938372 0)
(0.0218143 0.0983411 0)
(0.0233395 0.0983792 0)
(0.0247264 0.0949002 0)
(0.0241229 0.0953509 0)
(0.0226707 0.0959179 0)
(0.0195042 0.0950163 0)
(0.0163925 0.0906204 0)
(0.0141812 0.0826739 0)
(0.0120978 0.0723955 0)
(0.0111925 0.0585952 0)
(0.0103813 0.0359056 0)
(0.00970866 -0.00380729 0)
(0.00810604 -0.0654702 0)
(0.00493943 -0.151344 0)
(0.00353546 -0.276671 0)
(0.000871608 -0.299821 0)
(0.00220136 -0.192763 0)
(0.00408085 -0.110873 0)
(0.00700414 -0.0517336 0)
(0.00944078 -0.00992351 0)
(0.0114491 0.0218934 0)
(0.0141736 0.0453208 0)
(0.0167467 0.0643563 0)
(0.0191087 0.0799527 0)
(0.0209805 0.089544 0)
(0.0225981 0.0947327 0)
(0.0237372 0.0963247 0)
(0.0245695 0.0951899 0)
(0.0238552 0.0983196 0)
(0.0220116 0.101841 0)
(0.019439 0.102886 0)
(0.016403 0.0978436 0)
(0.0131705 0.0895101 0)
(0.00977682 0.0772157 0)
(0.00813605 0.0610317 0)
(0.0069391 0.0388265 0)
(0.006848 -0.00279846 0)
(0.00550121 -0.060533 0)
(0.00378005 -0.146503 0)
(0.00298941 -0.269817 0)
(0.000426148 -0.303266 0)
(0.00153948 -0.197128 0)
(0.00307848 -0.116486 0)
(0.00593585 -0.0593086 0)
(0.0091827 -0.0164888 0)
(0.0121164 0.0160825 0)
(0.0146569 0.0400536 0)
(0.016829 0.0597163 0)
(0.0190562 0.0767936 0)
(0.0204295 0.0875978 0)
(0.0213986 0.093611 0)
(0.0217391 0.0960816 0)
(0.0213195 0.0969081 0)
(0.019465 0.102163 0)
(0.0162346 0.107314 0)
(0.0135002 0.109043 0)
(0.0104195 0.105284 0)
(0.00728079 0.0968434 0)
(0.00394287 0.082662 0)
(0.00159759 0.0641727 0)
(0.00115378 0.0386525 0)
(0.00191309 -0.00314502 0)
(0.00200708 -0.059733 0)
(0.00265539 -0.145622 0)
(0.00199352 -0.265261 0)
(-0.000286638 -0.305076 0)
(0.000309818 -0.199696 0)
(0.00103286 -0.121401 0)
(0.00353635 -0.0661156 0)
(0.0061918 -0.023398 0)
(0.00933669 0.00954507 0)
(0.0118881 0.0352964 0)
(0.0137186 0.0559768 0)
(0.015208 0.0735243 0)
(0.0168181 0.0851403 0)
(0.0170717 0.0932848 0)
(0.0167564 0.0980925 0)
(0.0148575 0.102753 0)
(0.0116659 0.110911 0)
(0.00758305 0.116024 0)
(0.00441086 0.116158 0)
(0.00144249 0.112175 0)
(-0.000969032 0.102759 0)
(-0.00343081 0.0883902 0)
(-0.00512822 0.0671112 0)
(-0.00454885 0.0368955 0)
(-0.00255173 -0.0060754 0)
(-0.000703117 -0.0625404 0)
(0.00149457 -0.147375 0)
(0.00119023 -0.262387 0)
(-0.000969343 -0.305124 0)
(-0.00096176 -0.200098 0)
(-0.00140373 -0.124658 0)
(0.000422395 -0.0712505 0)
(0.00245437 -0.0291956 0)
(0.00474227 0.00351927 0)
(0.00717321 0.0306667 0)
(0.00872584 0.0523632 0)
(0.0101322 0.070079 0)
(0.0105644 0.0838541 0)
(0.00994718 0.0946152 0)
(0.00835092 0.102402 0)
(0.0056131 0.110409 0)
(0.00221151 0.119915 0)
(-0.00141578 0.125661 0)
(-0.00473196 0.124874 0)
(-0.00731034 0.117945 0)
(-0.00913568 0.107037 0)
(-0.0100823 0.0909087 0)
(-0.0095408 0.0665489 0)
(-0.00749421 0.0327117 0)
(-0.00493303 -0.0122251 0)
(-0.00188466 -0.0689886 0)
(0.00047708 -0.150312 0)
(0.000539686 -0.261445 0)
(-0.00161063 -0.303381 0)
(-0.00208509 -0.198435 0)
(-0.00376421 -0.125871 0)
(-0.0033124 -0.0749083 0)
(-0.00212028 -0.0325132 0)
(-0.000838024 -0.000709842 0)
(0.000745521 0.0268963 0)
(0.00149108 0.0499426 0)
(0.00212611 0.0701138 0)
(0.00144444 0.0866587 0)
(0.000451509 0.0995872 0)
(-0.00181328 0.110105 0)
(-0.00469354 0.119138 0)
(-0.0079551 0.129464 0)
(-0.0110346 0.134324 0)
(-0.0132104 0.131284 0)
(-0.0143653 0.123087 0)
(-0.0150465 0.109238 0)
(-0.0138856 0.0897991 0)
(-0.0114865 0.0624885 0)
(-0.00847589 0.0275223 0)
(-0.00541573 -0.0178136 0)
(-0.00209927 -0.0755365 0)
(-0.000112787 -0.153511 0)
(-6.07349e-05 -0.261832 0)
(-0.00215572 -0.299828 0)
(-0.00335316 -0.194614 0)
(-0.00588863 -0.122952 0)
(-0.00750284 -0.0751863 0)
(-0.00770935 -0.0345911 0)
(-0.00756508 -0.00342393 0)
(-0.00782082 0.0245421 0)
(-0.00814966 0.0487314 0)
(-0.00851563 0.0701617 0)
(-0.00918173 0.0883674 0)
(-0.0099748 0.103392 0)
(-0.011644 0.11567 0)
(-0.0134518 0.126168 0)
(-0.0154249 0.136638 0)
(-0.0169246 0.139915 0)
(-0.0176824 0.134841 0)
(-0.0176965 0.124011 0)
(-0.0166496 0.107346 0)
(-0.0141962 0.0843236 0)
(-0.0111028 0.0563101 0)
(-0.00794881 0.0206022 0)
(-0.00464183 -0.0255837 0)
(-0.00205359 -0.0814038 0)
(-0.00027596 -0.157193 0)
(-0.000451063 -0.262809 0)
(-0.00257815 -0.29426 0)
(-0.00471192 -0.189023 0)
(-0.00784856 -0.117388 0)
(-0.010644 -0.0705001 0)
(-0.0130604 -0.0322377 0)
(-0.0147965 -0.000572533 0)
(-0.0164906 0.0270971 0)
(-0.0180191 0.0504608 0)
(-0.0190168 0.0717042 0)
(-0.0191551 0.0898984 0)
(-0.0188879 0.105545 0)
(-0.0191483 0.118804 0)
(-0.0196844 0.129348 0)
(-0.0199562 0.139547 0)
(-0.0195887 0.141019 0)
(-0.0184076 0.134316 0)
(-0.0167529 0.121881 0)
(-0.0144559 0.1037 0)
(-0.0117025 0.0788372 0)
(-0.00848779 0.0488835 0)
(-0.00538978 0.0139031 0)
(-0.00275556 -0.0315015 0)
(-0.00131875 -0.0861917 0)
(-0.00027986 -0.160043 0)
(-0.00068324 -0.264182 0)
(-0.00259133 -0.287646 0)
(-0.00519493 -0.18231 0)
(-0.00891246 -0.111008 0)
(-0.0121802 -0.063805 0)
(-0.0153037 -0.0264233 0)
(-0.0176463 0.00355389 0)
(-0.0199027 0.0300536 0)
(-0.0223516 0.0531404 0)
(-0.0242743 0.0724109 0)
(-0.0254601 0.0886001 0)
(-0.0252654 0.104316 0)
(-0.0246221 0.118026 0)
(-0.023462 0.128965 0)
(-0.0219072 0.138636 0)
(-0.0197492 0.138873 0)
(-0.0169903 0.130469 0)
(-0.0140748 0.11662 0)
(-0.010725 0.0980163 0)
(-0.00760012 0.0731478 0)
(-0.00450328 0.0430597 0)
(-0.00256159 0.00796649 0)
(-0.000677995 -0.0352366 0)
(-0.000707612 -0.0885835 0)
(-0.000197702 -0.161961 0)
(-0.000611245 -0.265916 0)
(-0.00258866 -0.280108 0)
(-0.00544951 -0.17383 0)
(-0.00940492 -0.102747 0)
(-0.0128731 -0.0562721 0)
(-0.0161687 -0.0202589 0)
(-0.0185307 0.00933618 0)
(-0.0206701 0.0366154 0)
(-0.0232657 0.06037 0)
(-0.0250839 0.0786953 0)
(-0.0265648 0.0921901 0)
(-0.0268985 0.10432 0)
(-0.0259376 0.115914 0)
(-0.0240798 0.124637 0)
(-0.0214814 0.133652 0)
(-0.0181382 0.132044 0)
(-0.0141613 0.123385 0)
(-0.0110663 0.110048 0)
(-0.00739729 0.0907837 0)
(-0.00450012 0.0661317 0)
(-0.00126518 0.036729 0)
(-0.0002826 0.00448833 0)
(0.000865519 -0.0376281 0)
(0.00022406 -0.0897913 0)
(0.000388884 -0.164094 0)
(0.000110013 -0.267391 0)
(-0.00213585 -0.273138 0)
(-0.00483355 -0.166119 0)
(-0.00814447 -0.0957006 0)
(-0.0111545 -0.0492927 0)
(-0.0146483 -0.014841 0)
(-0.016797 0.0134945 0)
(-0.0185563 0.0405985 0)
(-0.0199742 0.063407 0)
(-0.0207151 0.0807041 0)
(-0.0219442 0.0935431 0)
(-0.0229093 0.104134 0)
(-0.0229526 0.113419 0)
(-0.0210838 0.119869 0)
(-0.0177678 0.127984 0)
(-0.0139752 0.12547 0)
(-0.00978408 0.116697 0)
(-0.00624288 0.103164 0)
(-0.0028339 0.0840266 0)
(-0.000243091 0.0608783 0)
(0.0017968 0.0333029 0)
(0.00244565 0.00262802 0)
(0.00294937 -0.038101 0)
(0.00228246 -0.0895446 0)
(0.00183589 -0.164158 0)
(0.00119764 -0.266435 0)
(-0.00161124 -0.267632 0)
(-0.00401499 -0.160334 0)
(-0.00633791 -0.0905986 0)
(-0.00836057 -0.0431716 0)
(-0.0118339 -0.00917129 0)
(-0.0141712 0.016993 0)
(-0.0158638 0.0427055 0)
(-0.0165826 0.0646937 0)
(-0.0171666 0.0834006 0)
(-0.0183962 0.097428 0)
(-0.0196126 0.107277 0)
(-0.0202295 0.113142 0)
(-0.0185125 0.114353 0)
(-0.0151925 0.119016 0)
(-0.0112168 0.115896 0)
(-0.00729224 0.106886 0)
(-0.00343933 0.0951976 0)
(-0.000260219 0.0780702 0)
(0.00199232 0.0564251 0)
(0.00376404 0.0304207 0)
(0.00436969 0.00161169 0)
(0.00439674 -0.0381122 0)
(0.00435754 -0.0892156 0)
(0.00312048 -0.161984 0)
(0.00213639 -0.263266 0)
(-0.00135172 -0.26312 0)
(-0.00349085 -0.15491 0)
(-0.0055841 -0.087856 0)
(-0.00621533 -0.0380468 0)
(-0.00955665 -0.00325792 0)
(-0.0123849 0.021876 0)
(-0.0149714 0.0455212 0)
(-0.0160199 0.0660029 0)
(-0.0166297 0.0846276 0)
(-0.0170207 0.100198 0)
(-0.017089 0.109547 0)
(-0.0167772 0.113202 0)
(-0.0151426 0.11047 0)
(-0.0123278 0.112722 0)
(-0.00908161 0.109213 0)
(-0.0062386 0.1001 0)
(-0.00323389 0.0879453 0)
(-0.000373483 0.0717245 0)
(0.00188158 0.0518499 0)
(0.00342142 0.0276164 0)
(0.00421124 0.000438321 0)
(0.00435175 -0.0390259 0)
(0.0052868 -0.0890065 0)
(0.00357195 -0.158366 0)
(0.00258578 -0.25826 0)
(-0.00154203 -0.25944 0)
(-0.00317033 -0.150112 0)
(-0.00553855 -0.0862715 0)
(-0.00548357 -0.0353713 0)
(-0.00758696 0.00231655 0)
(-0.00964467 0.0274986 0)
(-0.0118778 0.0497228 0)
(-0.0134072 0.0679174 0)
(-0.0145731 0.0859646 0)
(-0.014789 0.0998562 0)
(-0.0140689 0.108235 0)
(-0.0134132 0.110674 0)
(-0.0118857 0.106243 0)
(-0.00957569 0.107133 0)
(-0.0064407 0.103967 0)
(-0.00424465 0.0954007 0)
(-0.00222136 0.0827674 0)
(-0.000418754 0.0672908 0)
(0.00133455 0.0485307 0)
(0.00245915 0.0258303 0)
(0.00351532 -0.00113537 0)
(0.00455829 -0.0409301 0)
(0.00578355 -0.0894211 0)
(0.00364447 -0.154861 0)
(0.00260372 -0.253118 0)
(-0.00201755 -0.255119 0)
(-0.00347978 -0.145418 0)
(-0.00595917 -0.0835068 0)
(-0.00603916 -0.0343849 0)
(-0.0061538 0.0046483 0)
(-0.00763484 0.0303651 0)
(-0.00890236 0.0534011 0)
(-0.0105766 0.0720415 0)
(-0.0115194 0.0886742 0)
(-0.0117284 0.100462 0)
(-0.0111063 0.107939 0)
(-0.0107206 0.110431 0)
(-0.00941231 0.103985 0)
(-0.00778773 0.102201 0)
(-0.00590767 0.0981103 0)
(-0.00404316 0.0920587 0)
(-0.00274445 0.0799119 0)
(-0.00166667 0.0639797 0)
(-0.000544735 0.0454891 0)
(0.00100218 0.0224399 0)
(0.0035086 -0.00510633 0)
(0.00541349 -0.0450679 0)
(0.00580694 -0.0889313 0)
(0.00347065 -0.150989 0)
(0.00241431 -0.248001 0)
(-0.00231625 -0.250136 0)
(-0.00397056 -0.141118 0)
(-0.00667939 -0.0806798 0)
(-0.00721808 -0.0356092 0)
(-0.00654148 0.00546821 0)
(-0.00735679 0.0325388 0)
(-0.00828283 0.0563966 0)
(-0.00941721 0.0745849 0)
(-0.00971519 0.0897692 0)
(-0.00970982 0.100252 0)
(-0.00931707 0.107596 0)
(-0.00892656 0.109351 0)
(-0.00778472 0.102394 0)
(-0.00708893 0.100868 0)
(-0.00676587 0.0961119 0)
(-0.00591179 0.0887561 0)
(-0.00432509 0.0773584 0)
(-0.002813 0.0618595 0)
(-0.0012263 0.0426732 0)
(0.00134176 0.0170072 0)
(0.00494637 -0.0107672 0)
(0.00607645 -0.0464879 0)
(0.00598083 -0.0864126 0)
(0.00333572 -0.146231 0)
(0.00217451 -0.243125 0)
(-0.00273701 -0.24485 0)
(-0.00428408 -0.135994 0)
(-0.00753365 -0.0770507 0)
(-0.00874656 -0.035078 0)
(-0.00889808 0.00478852 0)
(-0.00875876 0.0334764 0)
(-0.00907242 0.0580445 0)
(-0.00928993 0.0757185 0)
(-0.00941195 0.0898271 0)
(-0.00929984 0.100431 0)
(-0.00971102 0.107745 0)
(-0.00964554 0.109457 0)
(-0.00916739 0.102465 0)
(-0.00945617 0.101303 0)
(-0.00929624 0.0954982 0)
(-0.00847736 0.0862428 0)
(-0.00672214 0.0729511 0)
(-0.00474854 0.0564927 0)
(-0.00191999 0.0361514 0)
(0.00135298 0.00841383 0)
(0.00418644 -0.0163991 0)
(0.00416443 -0.047596 0)
(0.00448945 -0.085408 0)
(0.00225562 -0.14236 0)
(0.00166858 -0.239171 0)
(-0.00295086 -0.238215 0)
(-0.00455169 -0.129387 0)
(-0.00816808 -0.0717598 0)
(-0.00960831 -0.031967 0)
(-0.011168 0.00569965 0)
(-0.0105451 0.0328106 0)
(-0.0105667 0.0577601 0)
(-0.0105802 0.0752731 0)
(-0.0106475 0.0900078 0)
(-0.0107597 0.10132 0)
(-0.0113103 0.109034 0)
(-0.0111111 0.109125 0)
(-0.0115519 0.103734 0)
(-0.0118881 0.102454 0)
(-0.011788 0.0949124 0)
(-0.0104329 0.0836774 0)
(-0.00802303 0.0688351 0)
(-0.00536579 0.0505402 0)
(-0.0020306 0.0293505 0)
(0.000685243 0.00256282 0)
(0.00213731 -0.0186064 0)
(0.00214295 -0.0481316 0)
(0.00283805 -0.0848717 0)
(0.00113328 -0.140225 0)
(0.001224 -0.236789 0)
(-0.00275864 -0.232018 0)
(-0.00403511 -0.124262 0)
(-0.00671444 -0.0666805 0)
(-0.00836506 -0.0281699 0)
(-0.0099416 0.00690473 0)
(-0.00949529 0.032535 0)
(-0.00918954 0.0585461 0)
(-0.00933044 0.0761017 0)
(-0.00935817 0.0904224 0)
(-0.00988183 0.102013 0)
(-0.0100532 0.109406 0)
(-0.00991202 0.110547 0)
(-0.0109235 0.105699 0)
(-0.0113036 0.103636 0)
(-0.0107459 0.0931485 0)
(-0.00869333 0.079365 0)
(-0.00594664 0.0626658 0)
(-0.00286548 0.0436458 0)
(0.000288296 0.0242019 0)
(0.00201556 -0.000444665 0)
(0.00278241 -0.0194113 0)
(0.00290644 -0.0488353 0)
(0.00273327 -0.0839945 0)
(0.00124889 -0.138218 0)
(0.0012133 -0.234639 0)
(-0.00245972 -0.226505 0)
(-0.00331321 -0.1211 0)
(-0.00490953 -0.0635697 0)
(-0.0057885 -0.0252213 0)
(-0.00676949 0.00723078 0)
(-0.00599173 0.030527 0)
(-0.00481661 0.0569913 0)
(-0.00390237 0.0756178 0)
(-0.00359698 0.0916161 0)
(-0.00395725 0.103099 0)
(-0.00385004 0.109139 0)
(-0.00402747 0.111516 0)
(-0.00420751 0.108031 0)
(-0.00492684 0.104278 0)
(-0.00473326 0.0903678 0)
(-0.00367952 0.0747077 0)
(-0.0018751 0.0571577 0)
(0.000137801 0.0378268 0)
(0.00260086 0.0200387 0)
(0.00368779 -0.00205906 0)
(0.00441247 -0.0199724 0)
(0.00390801 -0.0483005 0)
(0.00245485 -0.0823728 0)
(0.00136129 -0.137544 0)
(0.00124549 -0.232659 0)
(-0.00218952 -0.2219 0)
(-0.00254865 -0.117933 0)
(-0.00367741 -0.0620744 0)
(-0.00347314 -0.0241155 0)
(-0.00322909 0.00651458 0)
(-0.00213559 0.0278416 0)
(-0.000977734 0.0542412 0)
(-1.18952e-05 0.0739102 0)
(9.76142e-05 0.0909824 0)
(0.000199965 0.102742 0)
(0.000461527 0.109151 0)
(0.000630967 0.111456 0)
(0.00116889 0.108193 0)
(0.00180168 0.105773 0)
(0.00173983 0.0915312 0)
(0.00143358 0.0742843 0)
(0.00185848 0.055044 0)
(0.00311068 0.0344204 0)
(0.00435777 0.0172624 0)
(0.00515016 -0.00359079 0)
(0.00564037 -0.0200143 0)
(0.00414859 -0.0448821 0)
(0.00278619 -0.0799309 0)
(0.00173294 -0.136404 0)
(0.00130021 -0.23038 0)
(-0.00210632 -0.218461 0)
(-0.00180887 -0.116254 0)
(-0.00247106 -0.0623694 0)
(-0.00164517 -0.0266442 0)
(-0.000323104 0.0039874 0)
(0.000501517 0.0247567 0)
(0.000916254 0.052044 0)
(0.00138808 0.0733294 0)
(0.00140769 0.0915052 0)
(0.00197306 0.102213 0)
(0.00241434 0.108292 0)
(0.00339189 0.110939 0)
(0.00430924 0.106052 0)
(0.00555128 0.104486 0)
(0.00642635 0.092459 0)
(0.00635665 0.0753057 0)
(0.00667877 0.0540445 0)
(0.00686097 0.0329704 0)
(0.00713054 0.0159019 0)