/*--------------------------------*- C++ -*----------------------------------*\
| =========                 |                                                 |
| \\      /  F ield         | OpenFOAM: The Open Source CFD Toolbox           |
|  \\    /   O peration     | Version:  2.3.0                                 |
|   \\  /    A nd           | Web:      www.OpenFOAM.org                      |
|    \\/     M anipulation  |                                                 |
\*---------------------------------------------------------------------------*/
FoamFile
{
    version     2.0;
    format      ascii;
    class       volScalarField;
    location    "0.8";
    object      alpha.particles;
}
// * * * * * * * * * * * * * * * * * * * * * * * * * * * * * * * * * * * * * //

dimensions      [0 0 0 0 0 0 0];

internalField   nonuniform List<scalar> 
6000
(
0.438375
0.438376
0.438429
0.438373
0.389182
0.311242
0.379364
0.380096
0.363201
0.319232
0.325545
0.356379
0.355289
0.330898
0.387667
0.450584
0.450655
0.444886
0.44489
0.444821
0.444821
0.444748
0.444748
0.444674
0.444671
0.416465
0.353543
0.305932
0.408676
0.432282
0.415922
0.432614
0.438376
0.404928
0.307928
0.303197
0.307933
0.316305
0.307929
0.30327
0.307927
0.303272
0.30793
0.302812
0.307928
0.399949
0.450683
0.405869
0.419173
0.435558
0.433128
0.42933
0.429279
0.418582
0.374774
0.304198
0.305963
0.301039
0.30598
0.402662
0.408223
0.438361
0.438482
0.346724
0.304924
0.307926
0.303597
0.30793
0.304072
0.307926
0.303544
0.307926
0.302814
0.307926
0.304699
0.391278
0.459713
0.406066
0.337227
0.352951
0.354495
0.352616
0.356166
0.337519
0.304639
0.306005
0.301357
0.30596
0.303354
0.429813
0.3562
0.438429
0.403354
0.306877
0.307926
0.303714
0.307926
0.304476
0.307926
0.303664
0.307928
0.303204
0.307926
0.302971
0.307926
0.37973
0.459372
0.389115
0.306165
0.305559
0.306094
0.305524
0.306083
0.304783
0.306014
0.302793
0.306005
0.301091
0.306005
0.436402
0.318664
0.427866
0.328117
0.307926
0.305385
0.307926
0.304314
0.307926
0.304255
0.307926
0.303375
0.307926
0.302833
0.307926
0.305774
0.388073
0.460373
0.359578
0.30562
0.306165
0.305751
0.306094
0.305676
0.306082
0.304258
0.306014
0.301488
0.306005
0.303091
0.436923
0.318775
0.358961
0.311302
0.307228
0.307926
0.304623
0.307926
0.305155
0.307926
0.304205
0.307926
0.303172
0.307926
0.30326
0.307926
0.411494
0.459372
0.325986
0.306203
0.305916
0.306165
0.315413
0.320006
0.305723
0.306082
0.303563
0.306014
0.301288
0.306015
0.436946
0.319136
0.325974
0.318696
0.307926
0.306312
0.307926
0.30509
0.307926
0.304969
0.307926
0.304112
0.307926
0.302984
0.307926
0.306775
0.441477
0.460133
0.310901
0.306041
0.315221
0.344386
0.375413
0.384165
0.356799
0.313802
0.306082
0.302367
0.306014
0.303191
0.437232
0.319146
0.332802
0.335149
0.312177
0.307926
0.305454
0.307926
0.306094
0.307926
0.305326
0.307926
0.304276
0.307926
0.304029
0.307926
0.433591
0.391903
0.310919
0.312414
0.364641
0.420005
0.453249
0.456124
0.434827
0.373711
0.305961
0.306082
0.302665
0.306083
0.43718
0.319146
0.358493
0.37755
0.339663
0.307446
0.307926
0.306037
0.307926
0.306428
0.307926
0.305674
0.307926
0.304547
0.307926
0.306897
0.403405
0.344954
0.310938
0.350306
0.439846
0.480724
0.499205
0.497418
0.491241
0.4582
0.362026
0.305126
0.306082
0.305216
0.405779
0.329407
0.404255
0.438183
0.39212
0.312767
0.306719
0.307926
0.307535
0.307926
0.307239
0.307926
0.306255
0.307926
0.305688
0.307926
0.380725
0.340292
0.319025
0.415498
0.492571
0.508462
0.518095
0.520397
0.520377
0.511999
0.465886
0.356264
0.311182
0.308064
0.387033
0.379493
0.46377
0.494461
0.460774
0.350182
0.307926
0.307147
0.329704
0.328871
0.320643
0.307485
0.307926
0.306499
0.307926
0.307571
0.376291
0.34722
0.354994
0.482431
0.50628
0.519799
0.529187
0.534256
0.534399
0.534454
0.530259
0.461001
0.387948
0.371464
0.425274
0.459898
0.519264
0.528705
0.514004
0.431686
0.318443
0.307926
0.389882
0.394209
0.379474
0.34516
0.312873
0.307926
0.307436
0.311356
0.382461
0.370743
0.427039
0.515768
0.515016
0.527384
0.534457
0.534412
0.535277
0.534379
0.534689
0.51968
0.490667
0.48029
0.484277
0.526276
0.547093
0.54784
0.543285
0.51005
0.387337
0.338215
0.442671
0.465311
0.456471
0.424993
0.361903
0.325327
0.322654
0.346219
0.405336
0.421429
0.50121
0.530921
0.531835
0.534461
0.534417
0.535302
0.53433
0.481385
0.416171
0.406819
0.415091
0.435519
0.480645
0.553202
0.55625
0.555981
0.555246
0.547839
0.499727
0.423571
0.475524
0.508176
0.509718
0.499609
0.449445
0.394712
0.386981
0.41728
0.456348
0.489527
0.534492
0.534417
0.534917
0.534421
0.53548
0.534325
0.405736
0.268584
0.218834
0.212787
0.229064
0.254634
0.297161
0.556344
0.556359
0.556326
0.556321
0.556245
0.550655
0.523049
0.509803
0.524716
0.532819
0.533544
0.518018
0.486159
0.476296
0.493045
0.510726
0.528505
0.534406
0.536119
0.534424
0.536052
0.534384
0.446988
0.266954
0.195803
0.165612
0.15981
0.159844
0.163235
0.187458
0.556372
0.556343
0.555781
0.553091
0.556247
0.556184
0.553992
0.540353
0.53639
0.541609
0.541682
0.539144
0.532478
0.529487
0.533622
0.53649
0.533365
0.518384
0.53434
0.536469
0.534425
0.535162
0.38736
0.281066
0.217523
0.180626
0.166045
0.162922
0.170584
0.201744
0.55619
0.554012
0.547101
0.536175
0.546869
0.555009
0.554989
0.552776
0.546808
0.546267
0.541607
0.538951
0.541233
0.541335
0.54125
0.540671
0.494389
0.395254
0.389577
0.514805
0.536367
0.489581
0.408378
0.329139
0.261419
0.216556
0.194619
0.188797
0.202195
0.247235
0.491693
0.516767
0.534762
0.525583
0.529147
0.548134
0.554955
0.554947
0.551446
0.542401
0.519437
0.521125
0.534553
0.538094
0.514662
0.439089
0.316417
0.240383
0.237042
0.330414
0.45238
0.474215
0.446285
0.379518
0.311261
0.264195
0.240343
0.233691
0.2472
0.304101
0.254774
0.326654
0.465338
0.525839
0.525987
0.543325
0.553742
0.554898
0.546729
0.500857
0.412131
0.38099
0.401403
0.402218
0.348961
0.271154
0.239802
0.233908
0.2398
0.275615
0.420777
0.477156
0.469074
0.421617
0.363005
0.318515
0.295098
0.288334
0.299398
0.36322
0.112737
0.134262
0.221275
0.389902
0.516734
0.538676
0.548226
0.554844
0.549504
0.503027
0.353278
0.257581
0.243362
0.247367
0.241509
0.2398
0.236274
0.2398
0.233858
0.278898
0.429025
0.482009
0.478508
0.452259
0.413001
0.377768
0.357298
0.351154
0.361114
0.421873
0.0967443
0.0993173
0.111987
0.159643
0.294847
0.461585
0.544149
0.546725
0.549455
0.532388
0.431677
0.253376
0.2398
0.238459
0.2398
0.238829
0.2398
0.233374
0.2398
0.290832
0.443611
0.488572
0.483811
0.4719
0.454212
0.434842
0.421693
0.417722
0.428056
0.470428
0.102692
0.10575
0.111949
0.119881
0.142462
0.215712
0.359885
0.508242
0.548865
0.548948
0.497935
0.297882
0.239142
0.2398
0.239098
0.2398
0.236862
0.2398
0.234835
0.309683
0.457855
0.494972
0.490498
0.485468
0.481673
0.477415
0.473788
0.473572
0.481547
0.50193
0.117946
0.118005
0.121145
0.125925
0.136822
0.151589
0.189011
0.28737
0.44306
0.544251
0.536033
0.389912
0.247949
0.238502
0.2398
0.239634
0.2398
0.234033
0.2398
0.330064
0.471922
0.500881
0.498944
0.497042
0.497964
0.500307
0.502088
0.504412
0.50901
0.51785
0.133377
0.128228
0.129836
0.134668
0.144747
0.159633
0.183833
0.200241
0.251484
0.404119
0.535725
0.480438
0.306945
0.2398
0.239562
0.239871
0.237868
0.2398
0.235971
0.354685
0.486054
0.506085
0.506594
0.506573
0.508018
0.510583
0.513136
0.515859
0.519765
0.526003
0.141786
0.134608
0.136607
0.144715
0.159755
0.179818
0.203103
0.215626
0.21937
0.236569
0.429375
0.481057
0.392402
0.272681
0.245713
0.243411
0.2398
0.235471
0.2398
0.378773
0.497264
0.510395
0.512238
0.513233
0.514465
0.51629
0.518561
0.521421
0.525576
0.531166
0.145465
0.141348
0.148752
0.165401
0.188747
0.215595
0.238037
0.247091
0.236966
0.228751
0.241353
0.449704
0.44924
0.35404
0.274103
0.253849
0.23918
0.2398
0.23746
0.393395
0.501792
0.513337
0.515822
0.5173
0.518577
0.52025
0.522552
0.525698
0.530054
0.535195
0.150433
0.157206
0.178871
0.20896
0.243498
0.274189
0.287939
0.285769
0.260721
0.227498
0.228677
0.278155
0.437677
0.43638
0.337899
0.277003
0.2398
0.237567
0.2398
0.394336
0.501087
0.513846
0.517204
0.51927
0.521105
0.523207
0.525921
0.529496
0.533984
0.538721
0.167663
0.19388
0.235356
0.280447
0.323777
0.346539
0.342493
0.31789
0.27059
0.228676
0.22357
0.228629
0.339084
0.43718
0.410796
0.313876
0.243178
0.2398
0.239342
0.398585
0.500914
0.512069
0.516888
0.519692
0.522579
0.525545
0.529008
0.533121
0.537695
0.542022
0.219337
0.261362
0.312918
0.367326
0.404661
0.404013
0.375504
0.324645
0.268637
0.227346
0.228626
0.221633
0.228595
0.416036
0.447471
0.36339
0.267071
0.239301
0.250271
0.427162
0.508983
0.512345
0.517477
0.5201
0.523834
0.527839
0.532222
0.536859
0.541385
0.545219
0.331344
0.356795
0.389788
0.430679
0.440701
0.424138
0.367227
0.313256
0.265562
0.228626
0.224096
0.228585
0.221158
0.289031
0.447241
0.435272
0.325647
0.250637
0.294022
0.466151
0.52081
0.52047
0.522036
0.52275
0.525956
0.530693
0.535905
0.54084
0.545067
0.548289
0.479286
0.44552
0.437954
0.440701
0.440514
0.401156
0.345421
0.303157
0.266494
0.228162
0.228626
0.221896
0.228585
0.222399
0.41546
0.502972
0.406048
0.318435
0.375901
0.484766
0.523532
0.526093
0.526876
0.526598
0.528998
0.534285
0.54008
0.544928
0.548588
0.551119
0.538353
0.512789
0.472588
0.438068
0.413683
0.37646
0.342147
0.311998
0.279267
0.230606
0.22513
0.228626
0.221191
0.228628
0.370593
0.518637
0.485489
0.445592
0.483398
0.501064
0.51673
0.523835
0.527134
0.528974
0.532603
0.538692
0.544558
0.54885
0.551729
0.553583
0.552725
0.544063
0.516786
0.444111
0.407979
0.391825
0.371885
0.34906
0.312189
0.247972
0.228676
0.222828
0.228626
0.221557
0.309788
0.518703
0.528838
0.529348
0.54189
0.535899
0.529072
0.529024
0.530946
0.533854
0.538609
0.544349
0.549123
0.552294
0.554259
0.555449
0.55339
0.553271
0.545209
0.506713
0.435177
0.434761
0.427791
0.415219
0.369012
0.280529
0.226819
0.228676
0.222381
0.228676
0.238506
0.501501
0.532076
0.537609
0.5503
0.554171
0.550322
0.545934
0.544125
0.544842
0.547486
0.550651
0.553259
0.554896
0.555869
0.556206
0.553428
0.553392
0.553271
0.542545
0.498502
0.479194
0.475825
0.48224
0.455744
0.33088
0.228751
0.22476
0.228676
0.223168
0.228755
0.44045
0.529642
0.535215
0.547822
0.555935
0.558937
0.557864
0.55629
0.555739
0.555629
0.555906
0.55617
0.556208
0.556229
0.556218
0.553579
0.553428
0.553391
0.553003
0.537999
0.512731
0.50943
0.519951
0.525832
0.404296
0.244308
0.228751
0.224771
0.228751
0.225278
0.342158
0.512324
0.535635
0.545691
0.554516
0.560426
0.561509
0.561446
0.561045
0.56024
0.559011
0.557178
0.555836
0.556199
0.556212
0.553591
0.5535
0.553419
0.553319
0.54993
0.537869
0.534895
0.540596
0.543231
0.474523
0.291649
0.227872
0.228751
0.225058
0.228876
0.28415
0.468859
0.534214
0.544173
0.552254
0.56053
0.56152
0.561725
0.561526
0.561539
0.560258
0.555781
0.552694
0.553033
0.556173
0.523012
0.509788
0.551702
0.553282
0.553346
0.551088
0.550631
0.552441
0.548459
0.502884
0.36469
0.248432
0.227812
0.228876
0.225952
0.293555
0.465368
0.521518
0.538369
0.547195
0.558532
0.562096
0.561538
0.562095
0.561524
0.560449
0.551647
0.54727
0.54714
0.549863
0.384875
0.336555
0.467698
0.546062
0.553212
0.553409
0.553036
0.55336
0.548745
0.516828
0.448045
0.318714
0.244725
0.227861
0.228876
0.353882
0.495914
0.507484
0.518415
0.534496
0.547243
0.561151
0.562006
0.561539
0.562027
0.559667
0.545415
0.53701
0.410083
0.48912
0.298913
0.298094
0.317561
0.427327
0.545248
0.553023
0.553534
0.552954
0.544498
0.523007
0.51167
0.424622
0.312208
0.243206
0.228209
0.440982
0.529988
0.519422
0.518398
0.522806
0.52953
0.492241
0.537639
0.561911
0.561363
0.549556
0.481058
0.38381
0.30668
0.351659
0.297916
0.297317
0.298094
0.305117
0.434878
0.553174
0.553001
0.553282
0.535219
0.532532
0.532572
0.506453
0.418095
0.319011
0.26595
0.461447
0.53773
0.536842
0.52565
0.525625
0.410344
0.29342
0.384506
0.546866
0.543175
0.434313
0.33836
0.306731
0.30683
0.306747
0.300511
0.298094
0.297487
0.298272
0.31167
0.449924
0.553196
0.47483
0.411028
0.504587
0.524952
0.507938
0.489853
0.432542
0.369648
0.48003
0.53761
0.538091
0.536749
0.425238
0.228868
0.214552
0.320953
0.411138
0.407731
0.331479
0.306826
0.306924
0.306748
0.343378
0.325881
0.297836
0.298272
0.29775
0.29845
0.355539
0.474583
0.402865
0.299336
0.320971
0.371401
0.39191
0.436833
0.466101
0.477026
0.48188
0.538059
0.537549
0.464551
0.249967
0.213311
0.212764
0.309769
0.363393
0.342504
0.314739
0.307024
0.314611
0.321926
0.419917
0.376933
0.299128
0.298131
0.29845
0.299561
0.34522
0.41233
0.393731
0.289901
0.218994
0.213057
0.212669
0.25674
0.361086
0.443169
0.406626
0.508304
0.469144
0.304396
0.213311
0.212291
0.21331
0.297191
0.355287
0.356231
0.34694
0.346071
0.372069
0.397194
0.499032
0.44669
0.331426
0.318414
0.308138
0.313922
0.348954
0.386287
0.383419
0.3076
0.216981
0.207822
0.201199
0.207823
0.206601
0.277387
0.26967
0.353672
0.340561
0.273895
0.221567
0.21331
0.214557
0.287476
0.353533
0.380312
0.392512
0.414293
0.459152
0.501016
0.537036
0.507539
0.413046
0.380496
0.351182
0.345026
0.357595
0.372513
0.379551
0.339938
0.241722
0.206137
0.207822
0.200126
0.207822
0.204289
0.207822
0.283376
0.335353
0.307625
0.253071
0.225966
0.240941
0.293656
0.36361
0.41032
0.446477
0.490848
0.52414
0.541931
0.550825
0.53694
0.505975
0.462013
0.418077
0.388002
0.3727
0.372695
0.385875
0.379588
0.289346
0.207822
0.200088
0.207822
0.20136
0.207822
0.204856
0.286221
0.364921
0.35382
0.302774
0.278898
0.297285
0.329851
0.398619
0.459906
0.507998
0.53387
0.546211
0.551326
0.551378
0.545074
0.53905
0.521138
0.488766
0.44366
0.400818
0.375042
0.403925
0.430553
0.346412
0.217726
0.207822
0.199714
0.207822
0.202844
0.207822
0.271665
0.385093
0.38846
0.357381
0.356648
0.373161
0.401762
0.462905
0.515184
0.538508
0.548102
0.551347
0.551378
0.551381
0.545085
0.545074
0.541202
0.528418
0.502825
0.450722
0.400941
0.430088
0.473955
0.400682
0.234037
0.200454
0.207822
0.201018
0.207822
0.20456
0.229007
0.365817
0.418718
0.412557
0.436239
0.456551
0.482048
0.519149
0.540481
0.54912
0.551346
0.551379
0.551369
0.551375
0.53705
0.545046
0.545024
0.541967
0.532549
0.508107
0.451905
0.457345
0.490339
0.431763
0.235086
0.207822
0.199612
0.207822
0.203081
0.207822
0.206984
0.305369
0.439428
0.495053
0.494658
0.511862
0.525473
0.540798
0.549331
0.551327
0.55137
0.551333
0.548772
0.550026
0.531906
0.540719
0.544993
0.544975
0.542942
0.534647
0.508709
0.481059
0.490389
0.413856
0.212131
0.200864
0.207822
0.201003
0.207822
0.205316
0.207822
0.271306
0.465344
0.53156
0.520823
0.53024
0.540514
0.548504
0.551307
0.551333
0.549293
0.544049
0.533579
0.543276
0.531896
0.511664
0.541186
0.54431
0.544332
0.543296
0.532309
0.50985
0.488152
0.326145
0.204174
0.207822
0.199521
0.207822
0.203784
0.207822
0.207506
0.283779
0.501793
0.531664
0.531277
0.538508
0.546537
0.551272
0.551271
0.542992
0.512182
0.460317
0.410238
0.520448
0.507115
0.421446
0.511022
0.522481
0.539004
0.543287
0.539368
0.520718
0.423147
0.232937
0.207822
0.200365
0.207822
0.20181
0.207822
0.206618
0.219384
0.336145
0.511505
0.532304
0.534432
0.542226
0.548584
0.550026
0.539343
0.461359
0.362079
0.334257
0.333785
0.449527
0.459814
0.421367
0.430927
0.431254
0.482223
0.536044
0.539359
0.523575
0.324144
0.207822
0.202414
0.207822
0.200249
0.207822
0.205518
0.207822
0.260529
0.423952
0.500465
0.535154
0.536659
0.543545
0.54722
0.5376
0.427141
0.325734
0.318951
0.318822
0.333633
0.439984
0.475698
0.421292
0.421211
0.421129
0.421053
0.47378
0.539268
0.499252
0.247509
0.204839
0.207822
0.201297
0.207822
0.20366
0.207822
0.220921
0.32524
0.475174
0.507694
0.530482
0.536214
0.539624
0.531965
0.404591
0.319742
0.319434
0.327348
0.364234
0.397848
0.477486
0.509613
0.444365
0.421134
0.421053
0.420972
0.420892
0.503791
0.392433
0.219692
0.207822
0.20286
0.207822
0.202021
0.207822
0.20743
0.252849
0.371319
0.463926
0.518634
0.53149
0.531976
0.487574
0.366591
0.311026
0.312823
0.337918
0.38253
0.43725
0.466404
0.507294
0.534761
0.50043
0.462017
0.426593
0.420891
0.420811
0.435002
0.338573
0.215452
0.205751
0.207822
0.202968
0.207822
0.205891
0.215283
0.287693
0.375479
0.447076
0.50776
0.525104
0.458453
0.311048
0.277681
0.307331
0.346107
0.392258
0.446378
0.481244
0.501602
0.525695
0.54907
0.533009
0.506148
0.46809
0.433199
0.42073
0.420427
0.357079
0.229675
0.207822
0.203859
0.207822
0.20386
0.207822
0.233742
0.302984
0.359983
0.375998
0.364607
0.386373
0.285342
0.243302
0.270893
0.328014
0.391371
0.443271
0.47942
0.502046
0.520153
0.537704
0.55624
0.548148
0.533028
0.505934
0.469844
0.445174
0.430591
0.371864
0.284841
0.207241
0.207822
0.203583
0.207822
0.207019
0.248294
0.294912
0.303125
0.242103
0.207826
0.240019
0.240327
0.240635
0.274336
0.353929
0.420124
0.467319
0.495324
0.51641
0.533026
0.545842
0.559651
0.55593
0.547589
0.531626
0.504432
0.469453
0.43289
0.383281
0.37529
0.217788
0.204288
0.207822
0.20446
0.207822
0.247431
0.271878
0.238434
0.207822
0.205086
0.219233
0.251502
0.241701
0.281105
0.372933
0.436224
0.480629
0.510275
0.530325
0.543548
0.55247
0.560592
0.559707
0.555741
0.546493
0.529942
0.501788
0.458671
0.414444
0.45039
0.231219
0.207822
0.204069
0.207822
0.206805
0.244471
0.252569
0.211354
0.204853
0.207822
0.245529
0.295357
0.263753
0.300369
0.384801
0.45371
0.502276
0.528893
0.543529
0.552492
0.557734
0.560604
0.560592
0.559909
0.555175
0.544958
0.527146
0.491257
0.45549
0.476183
0.239663
0.205817
0.207822
0.204756
0.207822
0.245266
0.252995
0.207157
0.207822
0.206452
0.300584
0.350663
0.312088
0.338768
0.41098
0.488761
0.528439
0.54491
0.553876
0.558704
0.561031
0.560532
0.560584
0.56058
0.559661
0.553781
0.542745
0.5212
0.480437
0.475929
0.261284
0.207822
0.204779
0.207822
0.206515
0.247523
0.25671
0.207822
0.205298
0.207822
0.363458
0.382423
0.37361
0.397531
0.468833
0.526665
0.546533
0.555495
0.559848
0.561172
0.5612
0.544409
0.557888
0.560528
0.560556
0.558212
0.551356
0.538643
0.510826
0.483009
0.33625
0.207434
0.207822
0.205222
0.207822
0.24546
0.256799
0.206492
0.207822
0.229346
0.411401
0.416971
0.429561
0.469641
0.524785
0.547414
0.556383
0.56052
0.561185
0.5612
0.561207
0.471731
0.51713
0.55559
0.560447
0.559847
0.555234
0.546977
0.526798
0.470794
0.470778
0.257792
0.206689
0.207822
0.206606
0.228682
0.252016
0.207822
0.20735
0.318699
0.46833
0.466589
0.482326
0.523931
0.547018
0.556146
0.560243
0.561164
0.561178
0.56115
0.561161
0.271428
0.302122
0.524816
0.555111
0.558099
0.555667
0.549605
0.529385
0.487534
0.526096
0.341271
0.210479
0.206375
0.207822
0.206205
0.215939
0.206943
0.228867
0.443625
0.513713
0.507422
0.520824
0.543494
0.554587
0.558752
0.560634
0.56085
0.559271
0.55204
0.550272
0.190902
0.19059
0.352459
0.536837
0.552301
0.552923
0.548494
0.534147
0.509869
0.526013
0.392465
0.222127
0.207822
0.206343
0.207822
0.205417
0.207822
0.311259
0.506909
0.529509
0.529835
0.538788
0.550906
0.556603
0.557575
0.556629
0.550733
0.531105
0.358601
0.369686
0.212565
0.190559
0.20557
0.391081
0.535972
0.547222
0.542217
0.531706
0.519664
0.532909
0.43871
0.239854
0.207018
0.207822
0.205341
0.207822
0.227438
0.428007
0.531893
0.542783
0.545298
0.549429
0.554552
0.555918
0.552347
0.545014
0.520408
0.310155
0.158879
0.183237
0.276836
0.194299
0.194372
0.218132
0.407881
0.531576
0.532127
0.531903
0.533259
0.535339
0.506326
0.263545
0.207823
0.206511
0.207822
0.207123
0.304824
0.503534
0.544855
0.554186
0.554555
0.554534
0.554669
0.554302
0.540066
0.507178
0.284746
0.153932
0.152501
0.152437
0.373136
0.229832
0.21914
0.217792
0.248847
0.423585
0.527859
0.538835
0.543286
0.544694
0.540753
0.273133
0.207703
0.207822
0.206523
0.230585
0.42359
0.534699
0.54574
0.55165
0.554541
0.554926
0.55454
0.550647
0.510703
0.279567
0.152253
0.152568
0.151923
0.1558
0.500837
0.323595
0.287369
0.24996
0.248633
0.296007
0.498539
0.544706
0.544775
0.544719
0.499028
0.284562
0.216642
0.210501
0.215757
0.316621
0.511
0.537906
0.538273
0.489514
0.554375
0.554554
0.554888
0.541889
0.357925
0.160595
0.15264
0.152032
0.152568
0.169916
0.549496
0.491122
0.388115
0.318859
0.283709
0.289844
0.422306
0.544644
0.544786
0.544624
0.443562
0.328834
0.26417
0.256217
0.286244
0.412728
0.496435
0.473296
0.379245
0.256993
0.401518
0.55417
0.553888
0.504218
0.218899
0.152715
0.152448
0.15264
0.152386
0.196575
0.555183
0.54986
0.508194
0.408343
0.346186
0.316216
0.399901
0.544583
0.544692
0.511709
0.395707
0.387608
0.348594
0.342565
0.381112
0.407417
0.339726
0.237846
0.164068
0.135189
0.235802
0.400169
0.48318
0.351117
0.191101
0.15885
0.155879
0.155607
0.158498
0.241928
0.54273
0.555766
0.549502
0.508287
0.42011
0.370935
0.415245
0.506007
0.496763
0.31766
0.297124
0.388083
0.381635
0.364083
0.35683
0.278659
0.166297
0.127465
0.119306
0.119703
0.176268
0.304759
0.370512
0.296537
0.221783
0.189879
0.189771
0.192395
0.187048
0.314463
0.514152
0.555787
0.555851
0.544492
0.501796
0.438264
0.460195
0.459858
0.341782
0.150379
0.160245
0.290637
0.282799
0.259034
0.21671
0.149074
0.124212
0.119469
0.11964
0.118911
0.150514
0.266222
0.340377
0.331613
0.269948
0.237664
0.249154
0.26234
0.249015
0.405786
0.51432
0.551139
0.555939
0.552904
0.537844
0.498864
0.49742
0.438806
0.223361
0.11964
0.117915
0.143943
0.141277
0.133418
0.121621
0.121182
0.122566
0.119575
0.118967
0.11964
0.130437
0.237424
0.35307
0.373628
0.324435
0.301588
0.329259
0.359779
0.367696
0.490119
0.514492
0.537571
0.555557
0.555421
0.547767
0.52706
0.515336
0.398383
0.160612
0.117942
0.119575
0.117557
0.119513
0.117464
0.119447
0.119737
0.122611
0.119267
0.119575
0.11857
0.119983
0.208927
0.359985
0.414578
0.392677
0.386395
0.423482
0.457583
0.494272
0.523671
0.514662
0.524253
0.54884
0.5554
0.551319
0.534597
0.523361
0.360516
0.13294
0.119575
0.117481
0.119512
0.117297
0.119447
0.117687
0.119974
0.122784
0.119513
0.118721
0.119575
0.119012
0.18682
0.362662
0.453087
0.460241
0.474288
0.503294
0.516116
0.521933
0.527664
0.529595
0.485139
0.533156
0.552098
0.552192
0.539798
0.527496
0.310507
0.121851
0.117791
0.119512
0.117182
0.119447
0.1172
0.119381
0.120077
0.12324
0.119094
0.119512
0.118421
0.119575
0.169276
0.368634
0.484406
0.504541
0.523681
0.53099
0.53442
0.532439
0.534048
0.524788
0.336552
0.462507
0.532518
0.55187
0.54394
0.524207
0.23415
0.118837
0.119514
0.11717
0.119447
0.117031
0.119381
0.117503
0.11996
0.123624
0.119447
0.118597
0.119512
0.118695
0.148885
0.363079
0.503227
0.525067
0.534411
0.534576
0.53438
0.492578
0.529649
0.377657
0.321257
0.351168
0.446223
0.534848
0.543706
0.452768
0.165351
0.119517
0.11728
0.119448
0.116894
0.119381
0.116914
0.119314
0.119677
0.123639
0.118919
0.119447
0.118244
0.119512
0.13177
0.273868
0.499577
0.531685
0.534776
0.534187
0.481943
0.39074
0.470574
0.338673
0.320842
0.320432
0.337424
0.469417
0.524399
0.276418
0.126272
0.117713
0.119454
0.116767
0.119381
0.116746
0.119314
0.117317
0.119357
0.123622
0.119381
0.118432
0.119447
0.118303
0.119549
0.170489
0.363601
0.520342
0.534379
0.457133
0.390538
0.390723
0.4213
0.460449
0.320434
0.320354
0.320432
0.357017
0.378409
0.191676
0.118761
0.119447
0.116779
0.119381
0.116594
0.119314
0.116701
0.119246
0.119131
0.122843
0.11876
0.119381
0.118094
0.119447
0.118384
0.120218
0.171695
0.39481
0.511419
0.390114
0.390305
0.39054
0.425771
0.536866
0.407493
0.321499
0.320354
0.320432
0.32077
0.179623
0.119447
0.117088
0.119385
0.116479
0.119314
0.116512
0.119246
0.117095
0.119246
0.120577
0.119314
0.118399
0.119381
0.118054
0.119447
0.118148
0.119513
0.218191
0.432356
0.389841
0.390072
0.39032
0.517991
0.554139
0.532992
0.445683
0.326338
0.354576
0.33955
0.172295
0.117966
0.119381
0.11648
0.119314
0.116371
0.119246
0.116522
0.119177
0.118683
0.119248
0.118675
0.119314
0.118054
0.119381
0.117973
0.119447
0.118443
0.173675
0.386255
0.389612
0.391815
0.514338
0.548076
0.554037
0.55411
0.528973
0.431289
0.421805
0.347317
0.15547
0.119381
0.11669
0.119314
0.116266
0.119246
0.116323
0.119177
0.116818
0.119177
0.119021
0.119246
0.118457
0.119314
0.118058
0.119381
0.117673
0.119447
0.158974
0.385298
0.464409
0.509845
0.548059
0.548167
0.527366
0.554132
0.548078
0.498265
0.455983
0.306963
0.135208
0.117335
0.119314
0.116239
0.119246
0.116178
0.119177
0.116313
0.119112
0.118093
0.119178
0.118683
0.119246
0.118195
0.119314
0.118022
0.119381
0.117947
0.146296
0.384907
0.519355
0.541733
0.548122
0.543502
0.527399
0.553846
0.551824
0.520443
0.463601
0.243699
0.118808
0.119314
0.116347
0.119246
0.116084
0.119177
0.116129
0.119112
0.116409
0.119112
0.118809
0.119177
0.11856
0.119246
0.118159
0.119314
0.117533
0.119381
0.131337
0.315869
0.535525
0.54803
0.547952
0.535519
0.527373
0.547708
0.551832
0.531324
0.403023
0.17507
0.119314
0.116751
0.119246
0.116038
0.119177
0.115993
0.119112
0.116037
0.119054
0.117542
0.119112
0.118771
0.119177
0.118388
0.119246
0.118141
0.119314
0.11789
0.121446
0.202129
0.457676
0.533766
0.49199
0.492684
0.527344
0.536989
0.551227
0.536797
0.288392
0.131102
0.117494
0.119246
0.116103
0.119177
0.115903
0.119112
0.115911
0.119054
0.115902
0.119054
0.118696
0.119112
0.118697
0.119177
0.118331
0.119246
0.117574
0.119314
0.122264
0.165924
0.270948
0.369671
0.297138
0.407042
0.527345
0.537102
0.543985
0.530611
0.17614
0.118372
0.119246
0.116439
0.119177
0.115865
0.119112
0.115808
0.119055
0.115695
0.11899
0.117232
0.119054
0.118915
0.119112
0.118575
0.119177
0.118287
0.119246
0.118026
0.126602
0.179771
0.231486
0.266367
0.250304
0.336496
0.529409
0.546607
0.536751
0.373352
0.137239
0.119246
0.117052
0.119177
0.115949
0.119112
0.115741
0.119054
0.115683
0.11899
0.115248
0.11899
0.118834
0.119054
0.118917
0.119112
0.1185
0.119177
0.117679
0.119246
0.130361
0.189961
0.232785
0.255632
0.250206
0.324311
0.541535
0.550452
0.53856
0.245325
0.121685
0.117937
0.119177
0.116302
0.119112
0.115722
0.119054
0.115661
0.118996
0.115156
0.118926
0.117145
0.119112
0.124078
0.119112
0.118844
0.119177
0.118473
0.119246
0.11825
0.133118
0.196934
0.233294
0.25463
0.250176
0.326841
0.48836
0.550097
0.485649
0.176037
0.118846
0.119177
0.11688
0.119112
0.115847
0.119054
0.115652
0.11899
0.115329
0.118926
0.114456
0.118926
0.129051
0.138521
0.124116
0.119177
0.118802
0.119246
0.118021
0.119314
0.136605
0.207656
0.239228
0.249847
0.250028
0.328798
0.435006
0.545019
0.392697
0.151443
0.119177
0.117761
0.119112
0.116227
0.119054
0.115673
0.11899
0.115474
0.118926
0.114527
0.118859
0.117203
0.146337
0.160691
0.136983
0.119178
0.119246
0.118785
0.119314
0.118647
0.145533
0.219079
0.249607
0.259976
0.250208
0.328989
0.407124
0.514815
0.345491
0.14884
0.118764
0.119112
0.116814
0.119054
0.115846
0.11899
0.11557
0.118926
0.114964
0.118859
0.113707
0.118859
0.165814
0.189234
0.158494
0.126134
0.119177
0.119314
0.118356
0.119381
0.160881
0.231979
0.262503
0.282397
0.250389
0.357328
0.39852
0.468168
0.336363
0.151124
0.119112
0.117683
0.119054
0.116246
0.11899
0.115637
0.118926
0.115325
0.118859
0.114099
0.118791
0.116371
0.186582
0.22418
0.189943
0.142832
0.119314
0.119109
0.119381
0.119127
0.180599
0.249283
0.280693
0.308933
0.302019
0.430839
0.384715
0.448157
0.339306
0.156241
0.118772
0.11908
0.116738
0.119005
0.115876
0.11893
0.115529
0.118859
0.11483
0.118791
0.113587
0.118791
0.202743
0.263135
0.232803
0.170975
0.127164
0.119381
0.118926
0.119447
0.204887
0.273753
0.311833
0.356975
0.41482
0.522653
0.375956
0.432035
0.346337
0.163168
0.11908
0.117624
0.119005
0.116112
0.11893
0.115618
0.118859
0.115327
0.118791
0.114133
0.118726
0.114445
0.208624
0.297438
0.289812
0.212778
0.145882
0.120121
0.119447
0.131306
0.239169
0.313143
0.379542
0.467435
0.530407
0.554272
0.371199
0.410867
0.356053
0.173943
0.118822
0.119005
0.116511
0.11893
0.115682
0.118859
0.115409
0.118791
0.114876
0.118726
0.113834
0.118726
0.179653
0.317303
0.349964
0.263998
0.178328
0.135387
0.122043
0.171219
0.288916
0.38629
0.488146
0.539382
0.554807
0.55492
0.368124
0.387946
0.365067
0.1909
0.11908
0.117623
0.119005
0.115942
0.11893
0.115415
0.118859
0.115183
0.118791
0.114271
0.118726
0.114383
0.128924
0.314959
0.386494
0.322455
0.226507
0.170939
0.156796
0.236614
0.365183
0.489203
0.542079
0.554843
0.554923
0.554958
0.368197
0.370501
0.371374
0.214858
0.119413
0.11908
0.116452
0.119005
0.115605
0.11893
0.115293
0.118859
0.114809
0.118791
0.114138
0.118791
0.116196
0.267472
0.390704
0.391323
0.29525
0.228433
0.226014
0.326325
0.468595
0.539995
0.554844
0.55491
0.555012
0.55495
0.374659
0.370661
0.373747
0.243631
0.126079
0.117887
0.11908
0.115837
0.119005
0.115357
0.11893
0.115164
0.118859
0.114425
0.118791
0.114896
0.118859
0.168274
0.383123
0.441652
0.377411
0.309742
0.319245
0.432753
0.533605
0.554798
0.554871
0.554986
0.554722
0.54234
0.381533
0.370642
0.376721
0.274849
0.14058
0.119145
0.116502
0.11908
0.115533
0.119005
0.115274
0.11893
0.114964
0.118859
0.114583
0.118859
0.116812
0.11893
0.262655
0.442234
0.459572
0.413746
0.423168
0.52096
0.552394
0.554813
0.554856
0.54937
0.461567
0.274023
0.390356
0.370925
0.381661
0.306261
0.160869
0.118441
0.119145
0.115782
0.11908
0.115319
0.119005
0.115272
0.11893
0.11476
0.118859
0.115734
0.11893
0.118118
0.163363
0.374456
0.492072
0.497538
0.513645
0.546786
0.554728
0.554734
0.545466
0.392306
0.164961
0.0952576
0.406276
0.370835
0.389405
0.334837
0.186642
0.119204
0.11686
0.119145
0.115506
0.11908
0.115333
0.119006
0.115255
0.11893
0.115049
0.11893
0.117342
0.119005
0.139248
0.270627
0.481442
0.528033
0.541176
0.553431
0.554627
0.545215
0.397939
0.165887
0.0895113
0.0895096
0.438981
0.378107
0.401951
0.362223
0.221137
0.119033
0.119204
0.115825
0.119145
0.115313
0.11908
0.115414
0.119005
0.1151
0.11893
0.116314
0.119005
0.118337
0.138339
0.234529
0.432897
0.530563
0.544994
0.551816
0.54724
0.469424
0.244827
0.117838
0.0895096
0.0895146
0.495664
0.428604
0.42467
0.391621
0.266192
0.126771
0.117572
0.119204
0.115592
0.119145
0.115362
0.11908
0.115538
0.119005
0.115475
0.119005
0.11773
0.11908
0.140243
0.228002
0.39868
0.522577
0.541576
0.544246
0.529677
0.364004
0.198219
0.136039
0.101956
0.0895146
0.53397
0.5017
0.46907
0.427638
0.317379
0.146899
0.119265
0.116155
0.119204
0.115347
0.119145
0.115543
0.11908
0.115388
0.119005
0.116844
0.11908
0.118753
0.14465
0.228125
0.37901
0.506914
0.533607
0.533043
0.468658
0.321741
0.221891
0.16051
0.121374
0.0996318
0.551252
0.539927
0.51761
0.474106
0.370026
0.179802
0.118538
0.119265
0.115832