/*--------------------------------*- C++ -*----------------------------------*\
| =========                 |                                                 |
| \\      /  F ield         | OpenFOAM: The Open Source CFD Toolbox           |
|  \\    /   O peration     | Version:  2.3.0                                 |
|   \\  /    A nd           | Web:      www.OpenFOAM.org                      |
|    \\/     M anipulation  |                                                 |
\*---------------------------------------------------------------------------*/
FoamFile
{
    version     2.0;
    format      ascii;
    class       volScalarField;
    location    "0.8";
    object      k.air;
}
// * * * * * * * * * * * * * * * * * * * * * * * * * * * * * * * * * * * * * //

dimensions      [0 2 -2 0 0 0 0];

internalField   nonuniform List<scalar> 
6000
(
0.822807
0.903893
0.94795
0.998658
1.05772
1.04727
1.00805
1.00804
1.02212
1.03319
1.02934
1.02401
1.03002
1.06955
1.08961
1.04313
1.01154
0.999363
0.994298
0.984331
0.979193
0.977391
0.978517
0.98662
1.00488
1.0248
1.01625
0.991544
0.930638
0.822276
0.560483
0.818771
0.928552
1.04358
1.13394
1.1396
1.1733
1.20264
1.21543
1.19927
1.20922
1.23578
1.23773
1.23902
1.24645
1.17924
1.147
1.15608
1.17071
1.15084
1.13177
1.12097
1.11213
1.12242
1.16415
1.19091
1.14434
1.04673
0.929735
0.54457
0.41809
0.734422
0.880058
0.998282
1.07253
1.10687
1.13043
1.14819
1.16081
1.16455
1.17619
1.19578
1.21204
1.23041
1.25048
1.25658
1.24425
1.251
1.21911
1.20258
1.19073
1.18005
1.16577
1.1569
1.15806
1.14734
1.09325
0.999861
0.843872
0.407499
0.357011
0.672793
0.848744
0.951054
1.01801
1.05512
1.07798
1.09811
1.11413
1.12713
1.14378
1.16605
1.19446
1.23059
1.27529
1.31499
1.29107
1.29923
1.2632
1.25154
1.23789
1.22314
1.20434
1.18989
1.17277
1.13399
1.06127
0.956552
0.787634
0.364059
0.307634
0.631301
0.820736
0.908296
0.969037
1.0074
1.03506
1.05954
1.0813
1.10186
1.12444
1.15266
1.19069
1.24218
1.31513
1.37352
1.34915
1.35948
1.31693
1.30967
1.29569
1.27839
1.25429
1.23445
1.20586
1.14887
1.0618
0.94578
0.772827
0.362696
0.280148
0.596013
0.773749
0.865933
0.926338
0.969385
1.0041
1.03439
1.06233
1.08948
1.11863
1.15337
1.19935
1.26532
1.35841
1.42727
1.41377
1.41471
1.3778
1.37092
1.35563
1.33061
1.29828
1.26989
1.23438
1.17317
1.07956
0.954627
0.777326
0.369191
0.266409
0.568903
0.731809
0.830523
0.894536
0.943631
0.984599
1.02103
1.05565
1.08938
1.12431
1.16519
1.21919
1.29442
1.40012
1.47623
1.48046
1.45478
1.4335
1.42552
1.39853
1.35251
1.31152
1.28498
1.24925
1.18914
1.10045
0.973358
0.789703
0.38248
0.264789
0.547882
0.705523
0.806382
0.875132
0.930645
0.977174
1.01964
1.06004
1.099
1.14025
1.18771
1.24684
1.32538
1.43314
1.51003
1.53685
1.49164
1.48161
1.46735
1.41519
1.35483
1.30665
1.27408
1.24737
1.18836
1.10077
0.98651
0.810438
0.410879
0.260957
0.532504
0.687074
0.795383
0.870793
0.932761
0.984067
1.03065
1.07543
1.11879
1.16425
1.21603
1.27829
1.35346
1.44899
1.5223
1.55724
1.52252
1.52728
1.49237
1.43046
1.36889
1.31493
1.26758
1.22537
1.17407
1.08163
0.977661
0.815253
0.423276
0.246301
0.516441
0.675018
0.793491
0.876321
0.947766
1.00832
1.05664
1.10098
1.1447
1.19269
1.24711
1.30902
1.37624
1.45479
1.52202
1.5585
1.5491
1.56269
1.52226
1.46755
1.40861
1.35009
1.29194
1.22512
1.13735
1.0344
0.932662
0.792222
0.415037
0.229729
0.507422
0.680099
0.800121
0.892392
0.97171
1.04599
1.09166
1.13213
1.17447
1.22201
1.27719
1.33754
1.39716
1.46231
1.52707
1.5681
1.58382
1.60702
1.58635
1.53908
1.47855
1.41628
1.35513
1.27914
1.1582
0.995452
0.855654
0.723239
0.381056
0.231007
0.52272
0.70849
0.825092
0.913795
0.99599
1.07798
1.13074
1.16805
1.21033
1.25813
1.309
1.36478
1.42053
1.47912
1.54955
1.6006
1.64428
1.69826
1.69925
1.65074
1.57927
1.50901
1.44621
1.36889
1.23624
1.02248
0.825757
0.632465
0.30211
0.249693
0.572172
0.761342
0.875843
0.952701
1.03224
1.11252
1.18617
1.22686
1.26634
1.30996
1.35813
1.40594
1.45731
1.51744
1.60012
1.67244
1.76509
1.86734
1.87334
1.80653
1.70911
1.61634
1.54269
1.45352
1.31847
1.11377
0.884204
0.644281
0.302086
0.294511
0.64057
0.828008
0.946025
1.02196
1.09021
1.17959
1.26402
1.31582
1.35714
1.39669
1.43809
1.48475
1.53565
1.59944
1.69486
1.80624
1.98075
2.12521
2.12128
2.01296
1.8629
1.71868
1.60455
1.4962
1.34187
1.15179
0.944322
0.700174
0.33625
0.336657
0.712477
0.905225
1.02975
1.11547
1.19219
1.28113
1.36959
1.43182
1.48589
1.53431
1.57238
1.61637
1.67515
1.74897
1.85971
2.02439
2.27644
2.46119
2.44179
2.26718
2.02132
1.78075
1.60613
1.45004
1.29143
1.12059
0.928908
0.690479
0.326118
0.376382
0.798738
1.00186
1.13352
1.23158
1.32306
1.4226
1.51191
1.58564
1.65506
1.71896
1.76616
1.81281
1.88035
1.9705
2.10114
2.30556
2.60373
2.8571
2.79338
2.52347
2.15816
1.82503
1.58716
1.40266
1.23283
1.06125
0.875195
0.639382
0.287107
0.462933
0.930031
1.1238
1.25592
1.36699
1.47305
1.58241
1.68656
1.77978
1.86961
1.95116
2.00561
2.0562
2.13066
2.23303
2.38228
2.59885
2.90824
3.19531
3.12043
2.71162
2.24336
1.86125
1.59196
1.38643
1.20008
1.0176
0.823182
0.586243
0.2537
0.577079
1.0652
1.25145
1.38459
1.50697
1.62412
1.74651
1.87236
1.99857
2.12213
2.22345
2.2848
2.33984
2.41547
2.51374
2.64944
2.8144
3.02338
3.25278
3.25532
2.8079
2.31354
1.92434
1.63307
1.40551
1.20556
1.01242
0.811459
0.578802
0.25052
0.677642
1.19369
1.36482
1.50073
1.63041
1.76063
1.90001
2.04975
2.21281
2.37163
2.50317
2.57154
2.63669
2.70562
2.77061
2.83451
2.90467
3.0273
3.16306
3.1716
2.82213
2.38802
2.01788
1.71432
1.46389
1.24507
1.03974
0.830945
0.59513
0.259631
0.655807
1.20265
1.44987
1.5958
1.73002
1.88119
2.03403
2.20557
2.38311
2.56035
2.72129
2.77331
2.84095
2.90756
2.92862
2.92784
2.96389
3.03649
3.12283
3.14045
2.85241
2.47097
2.12752
1.82274
1.55679
1.32152
1.10234
0.883074
0.64078
0.286869
0.583298
1.12994
1.42897
1.65212
1.82032
1.97661
2.15958
2.35041
2.53312
2.70158
2.84316
2.91112
2.93983
2.98251
3.00155
3.00728
3.03138
3.07842
3.1463
3.17214
2.91207
2.56187
2.23953
1.9409
1.66816
1.42002
1.18799
0.95826
0.704985
0.322668
0.515661
1.03244
1.35873
1.62203
1.86269
2.07684
2.28741
2.49571
2.71535
2.86632
2.96521
3.05889
3.05961
3.0674
3.07358
3.08376
3.10692
3.15366
3.22179
3.25675
2.99398
2.65959
2.34811
2.0558
1.78285
1.52796
1.28591
1.04501
0.775899
0.354126
0.464658
0.954758
1.29365
1.57046
1.8392
2.11829
2.40758
2.69032
2.94203
3.12173
3.17174
3.21478
3.2097
3.18075
3.1679
3.17536
3.20433
3.25785
3.33898
3.36923
3.09135
2.7623
2.45365
2.16387
1.89184
1.63452
1.38636
1.13538
0.847662
0.384263
0.425335
0.900262
1.24617
1.53227
1.8119
2.11585
2.46556
2.85039
3.21287
3.48132
3.50455
3.4249
3.3951
3.34552
3.30488
3.29713
3.32791
3.38611
3.48115
3.49963
3.1997
2.86863
2.55822
2.2676
1.99493
1.7359
1.48336
1.22341
0.917049
0.414838
0.399215
0.869995
1.21601
1.50733
1.79301
2.10604
2.47602
2.91138
3.38534
3.81349
3.9635
3.75665
3.61529
3.56672
3.5031
3.46226
3.47759
3.5362
3.64172
3.63486
3.31458
2.97747
2.66306
2.36987
2.09511
1.83346
1.57628
1.30759
0.984295
0.444946
0.3861
0.85759
1.19803
1.49042
1.77931
2.09602
2.47439
2.92936
3.43602
3.94408
4.27848
4.16399
3.8978
3.80273
3.74753
3.67487
3.65374
3.70364
3.81311
3.77325
3.43262
3.08747
2.768
2.47168
2.19429
1.92931
1.66686
1.38929
1.05025
0.474638
0.379096
0.842567
1.17937
1.47584
1.76938
2.0956
2.48464
2.94742
3.45325
3.93221
4.30832
4.47592
4.25492
4.05475
3.98958
3.91536
3.85511
3.88318
3.98529
3.89964
3.54473
3.19404
2.871
2.57252
2.29294
2.02461
1.75663
1.47002
1.11566
0.504127
0.364004
0.807277
1.15106
1.46328
1.77675
2.1256
2.53077
2.99302
3.47276
3.89262
4.25199
4.53338
4.59355
4.36241
4.21335
4.14473
4.07295
4.06486
4.13418
3.99982
3.63969
3.29072
2.96899
2.67119
2.391
2.12001
1.84662
1.55087
1.1812
0.533659
0.331924
0.75137
1.13677
1.48312
1.8324
2.21111
2.62959
3.0782
3.51604
3.88187
4.20752
4.51524
4.76199
4.72313
4.46036
4.35114
4.28502
4.23752
4.24389
4.05921
3.71006
3.37346
3.06013
2.76721
2.4888
2.21632
1.93787
1.63288
1.24765
0.563549
0.314413
0.760407
1.19246
1.57702
1.95427
2.34845
2.76478
3.19305
3.60377
3.9301
4.21835
4.51221
4.81082
5.03844
4.75201
4.5391
4.45771
4.38925
4.32065
4.09136
3.76696
3.44796
3.14738
2.86258
2.58804
2.31508
2.03178
1.71727
1.31587
0.594183
0.352218
0.895163
1.35055
1.74192
2.12003
2.50625
2.90834
3.32971
3.74121
4.04537
4.28502
4.54462
4.83537
5.09859
5.00722
4.72307
4.58378
4.50441
4.37232
4.12291
3.82625
3.52578
3.23833
2.96246
2.69223
2.41877
2.13021
1.80546
1.38688
0.626146
0.461749
1.1038
1.55278
1.92888
2.28804
2.65408
3.04758
3.47772
3.90937
4.21134
4.40209
4.61263
4.85921
5.12038
5.26044
4.94087
4.713
4.55792
4.38634
4.15279
3.88739
3.60978
3.33794
3.07161
2.80505
2.52995
2.23498
1.89886
1.46162
0.660294
0.555889
1.27273
1.72225
2.09178
2.4366
2.79129
3.18336
3.62259
4.08
4.4004
4.55025
4.70248
4.90973
5.17496
5.47801
5.17229
4.87124
4.63667
4.42703
4.19515
3.95209
3.70155
3.44859
3.19243
2.92856
2.65031
2.34742
1.99854
1.54117
0.69709
0.623819
1.40388
1.86158
2.23106
2.5772
2.92916
3.31771
3.75579
4.23356
4.59978
4.71677
4.81177
4.98098
5.22729
5.54957
5.38868
5.04824
4.77188
4.5283
4.29013
4.05402
3.81832
3.57827
3.32881
3.06507
2.78142
2.46847
2.10496
1.62588
0.736348
0.686175
1.52151
1.99492
2.37308
2.72186
3.07941
3.45978
3.88137
4.35381
4.7794
4.90058
4.94278
5.0735
5.28388
5.56505
5.60066
5.25298
4.94575
4.68076
4.43775
4.20604
3.97598
3.73863
3.48751
3.21799
2.92461
2.59812
2.2173
1.7147
0.778217
0.746738
1.64204
2.13462
2.52524
2.88332
3.24488
3.61721
4.01623
4.45806
4.90463
5.08611
5.10054
5.19605
5.37875
5.64219
5.8104
5.48368
5.15242
4.87505
4.63071
4.40271
4.17458
3.9327
3.67138
3.38843
3.07907
2.73384
2.33196
1.80483
0.821477
0.820586
1.77453
2.28397
2.68668
3.05845
3.42427
3.79409
4.17573
4.57884
4.98865
5.25288
5.2872
5.35664
5.52848
5.79774
5.98191
5.70879
5.38108
5.10525
4.86606
4.64573
4.41929
4.16523
3.88188
3.57508
3.24107
2.86924
2.44057
1.8872
0.86555
0.851786
1.8649
2.4397
2.8516
3.24
3.61894
3.99547
4.37317
4.75059
5.10344
5.38716
5.50255
5.55738
5.7288
6.0151
6.19504
5.92917
5.61862
5.36159
5.14207
4.94218
4.72601
4.448
4.12407
3.77533
3.40347
2.99376
2.52913
1.9441
0.901102
0.931213
1.95494
2.5285
3.0029
3.42021
3.82466
4.22614
4.62535
5.00148
5.29933
5.5205
5.70052
5.78688
5.95886
6.27018
6.44911
6.16187
5.86486
5.62658
5.44182
5.29442
5.12442
4.79386
4.39571
3.98156
3.55481
3.09475
2.57548
1.9697
0.923614
0.942321
2.01179
2.61892
3.12009
3.59408
4.04053
4.4989
4.95701
5.35542
5.60654
5.74887
5.88577
6.02781
6.20951
6.52657
6.70224
6.40801
6.113
5.8927
5.74475
5.66267
5.53707
5.16924
4.6833
4.16899
3.6715
3.15372
2.64646
2.02849
0.933098
0.919603
2.0268
2.68502
3.22915
3.72905
4.25766
4.80936
5.38886
5.83076
6.03386
6.13849
6.2015
6.2949
6.52069
6.82962
7.00303
6.69108
6.37507
6.15024
6.03
6.01113
5.87831
5.49302
4.90006
4.28229
3.74287
3.24897
2.72798
2.05492
0.92118
0.89893
2.02612
2.73268
3.30924
3.85204
4.39712
5.1004
5.82471
6.34596
6.56608
6.6723
6.69137
6.67525
6.85217
7.19358
7.3246
7.00044
6.63965
6.3883
6.27364
6.17389
5.97474
5.61958
5.00554
4.38353
3.83638
3.3336
2.78141
2.07856
0.9269
0.899252
2.04096
2.78361
3.38292
3.94397
4.53548
5.25741
6.08983
6.67915
7.01478
7.19498
7.222
7.13901
7.18541
7.45724
7.57781
7.29107
6.87077
6.55623
6.39394
6.17178
5.97005
5.62141
5.04096
4.45561
3.91516
3.40036
2.84525
2.15099
0.993551
0.942748
2.10731
2.85666
3.46623
4.03756
4.6515
5.36238
6.16003
6.84387
7.2207
7.42086
7.44435
7.38177
7.40792
7.56441
7.7305
7.50979
7.0291
6.65785
6.39895
6.17736
5.95758
5.60248
5.05773
4.50797
3.98794
3.4762
2.92717
2.24705
1.06605
1.04455
2.24147
2.97225
3.57615
4.15014
4.76673
5.45895
6.19849
6.90767
7.30736
7.44074
7.44171
7.43542
7.51347
7.69387
7.86052
7.66268
7.13613
6.71044
6.43826
6.20325
5.94427
5.5691
5.06723
4.55734
4.05771
3.55169
3.00344
2.31709
1.08207
1.12978
2.38751
3.12106
3.72429
4.29549
4.8985
5.56081
6.25514
6.97785
7.46199
7.54016
7.48772
7.46685
7.54399
7.72346
7.84961
7.68438
7.18247
6.76738
6.49025
6.23926
5.9424
5.53828
5.0689
4.59114
4.1069
3.60116
3.04874
2.35669
1.08298
1.16658
2.51533
3.27378
3.89076
4.46569
5.0481
5.67632
6.33766
7.06241
7.65508
7.71151
7.60004
7.54632
7.58381
7.69639
7.78277
7.69193
7.26351
6.85403
6.55765
6.28215
5.94166
5.51516
5.06184
4.5998
4.12091
3.61844
3.06736
2.37027
1.07985
1.19217
2.61791
3.40612
4.04588
4.63888
5.21574
5.81212
6.45093
7.17065
7.84699
7.89931
7.72744
7.62972
7.6123
7.66418
7.74232
7.76448
7.42917
6.99636
6.66066
6.32692
5.93507
5.49431
5.04364
4.58548
4.11315
3.61717
3.06867
2.36986
1.08017
1.22338
2.69865
3.52084
4.18428
4.80049
5.39775
5.98656
6.61534
7.32916
8.04203
8.09816
7.84987
7.70955
7.64968
7.66807
7.74827
7.85645
7.66864
7.19395
6.78717
6.37256
5.92892
5.47443
5.02145
4.56606
4.09923
3.60822
3.06214
2.36366
1.0776
1.24486
2.77291
3.62751
4.31839
4.96055
5.59003
6.21071
6.85208
7.56585
8.27118
8.28055
7.96683
7.79445
7.71553
7.72322
7.81502
7.9648
7.91578
7.42859
6.90604
6.41668
5.93719
5.46996
5.01136
4.55392
4.0881
3.59948
3.05304
2.34658
1.06525
1.26523
2.84165
3.73604
4.4575
5.12997
5.79723
6.47049
7.15867
7.89448
8.57356
8.44181
8.08777
7.89294
7.80768
7.82408
7.93758
8.11805
8.12875
7.6424
7.02867
6.4718
5.96534
5.48299
5.01486
4.55194
4.08477
3.59545
3.04313
2.30281
1.04208
1.3
2.89384
3.84924
4.60661
5.30935
6.01755
6.75056
7.50812
8.30449
8.88271
8.56953
8.21021
7.99848
7.91151
7.93974
8.07693
8.28209
8.30087
7.77389
7.1182
6.52827
6.00099
5.50594
5.02895
4.56009
4.08703
3.57725
3.01971
2.29399
1.06808
1.37817
2.98909
3.96908
4.75659
5.49221
6.23835
7.0319
7.87381
8.70891
9.035
8.67513
8.32808
8.10768
8.01828
8.0536
8.20596
8.42782
8.41065
7.83246
7.16887
6.57445
6.0384
5.53526
5.05059
4.57456
4.09173
3.59923
3.04687
2.33652
1.08559
1.43267
3.14472
4.12926
4.91549
5.65876
6.4423
7.28562
8.19962
8.99133
9.06362
8.75058
8.44087
8.22335
8.1286
8.15692
8.30525
8.52528
8.40275
7.82713
7.19587
6.6127
6.07945
5.5742
5.08469
4.6106
4.14038
3.64693
3.09191
2.39016
1.12624
1.51487
3.28645
4.28293
5.08386
5.83958
6.62254
7.49818
8.4502
9.12567
9.08333
8.82448
8.55565
8.34881
8.24485
8.24818
8.37178
8.54349
8.32026
7.79388
7.21249
6.6527
6.13217
5.63114
5.15218
4.68212
4.20413
3.71284
3.16335
2.45546
1.16114
1.59463
3.42168
4.425
5.23811
6.00759
6.79683
7.67368
8.61168
9.17412
9.13218
8.91099
8.67541
8.48016
8.3614
8.33342
8.42698
8.50256
8.26569
7.79486
7.24667
6.70347
6.2015
5.72838
5.23541
4.75724
4.29229
3.80093
3.24245
2.52083
1.17572
1.62656
3.52974
4.55484
5.36999
6.13943
6.93015
7.79052
8.67064
9.2118
9.2045
9.00685
8.79196
8.60662
8.47615
8.42414
8.48314
8.48392
8.27553
7.863
7.32337
6.77624
6.2926
5.80148
5.31762
4.85671
4.38572
3.8805
3.31165
2.57516
1.18687
1.63829
3.59274
4.64241
5.46792
6.23241
7.0046
7.8265
8.65813
9.24962
9.28514
9.09041
8.88736
8.71413
8.58026
8.5317
8.56642
8.52881
8.34808
7.98699
7.44728
6.88007
6.35516
5.86766
5.40658
4.94398
4.45984
3.94578
3.36893
2.61787
1.19832
1.64169
3.61791
4.68184
5.51814
6.28216
7.0378
7.82167
8.61078
9.2654
9.35295
9.15482
8.95578
8.79372
8.67075
8.6438
8.66133
8.60568
8.42169
8.0678
7.5429
6.94823
6.42029
5.93883
5.47794
5.00867
4.51955
4.00008
3.4152
2.6513
1.2098
1.63897
3.61853
4.6854
5.52521
6.29258
7.03973
7.7888
8.53286
9.23325
9.41854
9.21371
9.01656
8.86078
8.75265
8.7417
8.73483
8.66423
8.45419
8.08063
7.55761
6.988
6.47335
5.99569
5.53225
5.05949
4.5679
4.04242
3.44919
2.67625
1.22039
1.63143
3.60358
4.66529
5.50145
6.26653
7.00845
7.73918
8.45952
9.18422
9.49726
9.30452
9.10134
8.93936
8.83651
8.82152
8.77755
8.68311
8.4744
8.12301
7.60711
7.0403
6.51956
6.04096
5.57556
5.10007
4.60186
4.06867
3.4699
2.69244
1.22807
1.62342
3.57638
4.62758
5.45704
6.21759
6.95755
7.68833
8.41342
9.17107
9.61276
9.45532
9.23658
9.05516
8.93855
8.90232
8.82301
8.71272
8.52779
8.20629
7.70278
7.11196
6.57094
6.08057
5.60777
5.1243
4.61703
4.07967
3.47931
2.70053
1.23253
1.61992
3.53978
4.5738
5.39714
6.15537
6.89696
7.63927
8.38832
9.17044
9.73971
9.6759
9.43804
9.22377
9.07868
9.01756
8.91583
8.80051
8.63823
8.33789
7.8198
7.19653
6.62968
6.11784
5.62728
5.13054
4.61797
4.08013
3.48024
2.70183
1.23364
1.59641
3.48308
4.50031
5.32033
6.08201
6.82983
7.58507
8.35574
9.15358
9.85223
9.94013
9.69765
9.44534
9.26677
9.18897
9.07648
8.95925
8.80631
8.5063
7.93295
7.27908
6.69236
6.15488
5.64062
5.13018
4.61314
4.07441
3.47522
2.70002
1.23614
1.48424
3.33758
4.38766
5.22159
5.99565
6.75536
7.52543
8.31458
9.11106
9.86918
10.2017
9.98381
9.69596
9.48845
9.4106
9.30872
9.17109
9.02438
8.66906
8.01902
7.3505
6.7506
6.19215
5.65718
5.13174
4.60641
4.06347
3.46639
2.69815
1.24038
1.46451
3.20884
4.21029
5.09067
5.89163
6.67118
7.45919
8.26323
9.06927
9.86888
10.4253
10.2808
9.95231
9.71787
9.62678
9.55838
9.41434
9.25421
8.77482
8.08365
7.42104
6.81177
6.23617
5.67934
5.13548
4.59624
4.04454
3.44687
2.69726
1.24833
1.38304
3.05993
4.06168
4.93224
5.76991
6.57677
7.38845
8.21737
9.05942
9.92298
10.6522
10.6061
10.2151
9.94838
9.8332
9.77446
9.66227
9.42325
8.83417
8.16025
7.51189
6.89255
6.29324
5.7083
5.13781
4.57432
3.99878
3.36934
2.62686
1.23444
1.27524
2.92145
3.98148
4.80357
5.62999
6.47081
7.31569
8.18182
9.06787
9.99213
10.8627
10.9395
10.4721
10.1683
10.0347
9.98369
9.89587
9.50703
8.90175
8.27823
7.64439
7.00688
6.37133
5.74432
5.13306
4.53178
3.91806
3.32514
2.5952
1.23492
1.26
2.86828
3.91189
4.76142
5.52392
6.34971
7.23575
8.14705
9.08272
10.0528
10.9936
11.1846
10.6669
10.3431
10.2021
10.1724
10.0514
9.55423
9.03233
8.48225
7.85356
7.17521
6.47842
5.78623
5.11188
4.45881
3.88964
3.30047
2.52233
1.16413
1.34462
2.92448
3.90243
4.72383
5.50662
6.26501
7.14134
8.11719
9.11856
10.1271
11.0899
11.2898
10.7753
10.4597
10.3227
10.3112
10.0809
9.65219
9.26746
8.8235
8.18313
7.42408
6.62292
5.82435
5.06004
4.44652
3.87541
3.22279
2.41311
1.08389
1.4706
3.04242
3.97341
4.74397
5.48751
6.2594
7.07276
8.11124
9.21525
10.3052
11.2469
11.3146
10.8511
10.5658
10.4348
10.3683
10.1007
9.84216
9.60355
9.29765
8.68078
7.75848
6.79251
5.82439
5.02848
4.43996
3.81755
3.14343
2.31474
1.02093
1.47566
3.1398
4.07663
4.82422
5.51946
6.2571
7.06878
8.14235
9.39672
10.618
11.4413
11.2833
10.986
10.7712
10.6158
10.4412
10.2887
10.1611
9.98508
9.71175
9.15866
8.14788
6.92378
5.77901
5.02369
4.39841
3.76104
3.07741
2.24266
0.977019
1.45096
3.18506
4.14502
4.92039
5.61604
6.31172
7.11713
8.23547
9.66094
10.9805
11.452
11.2164
11.0877
10.9518
10.7918
10.6235
10.5622
10.3913
10.0993
9.75456
9.29691
8.26059
6.93952
5.79851
5.0097
4.36255
3.72537
3.04061
2.21823
0.969388
1.42043
3.16363
4.15679
4.97334
5.73239
6.45594
7.26281
8.37498
9.88667
11.1325
11.2171
11.0001
10.9261
10.82
10.7061
10.5773
10.4207
10.1209
9.74644
9.42574
9.0625
8.13861
6.88782
5.82483
5.03829
4.38051
3.74208
3.06028
2.25452
1.0114
1.35569
3.11742
4.12221
4.9688
5.78257
6.59116
7.44247
8.51142
9.83558
10.6154
10.5754
10.4352
10.3865
10.3316
10.2642
10.1185
9.85066
9.5215
9.21327
8.96348
8.69854
7.98158
6.86827
5.88694
5.12532
4.45543
3.81377
3.13441
2.34411
1.10247
1.33022
3.05504
4.05766
4.9119
5.74858
6.60036
7.48612
8.47212
9.45997
9.80004
9.8062
9.74732
9.69902
9.64792
9.56165
9.39228
9.15693
8.90858
8.67917
8.49118
8.3127
7.81348
6.85729
5.95554
5.22424
4.56146
3.90878
3.22635
2.43906
1.17255
1.3046
2.95675
3.96654
4.82024
5.65767
6.51697
7.41002
8.32183
9.01039
9.11837
9.1061
9.06213
9.00777
8.94124
8.84359
8.7035
8.53127
8.35053
8.18069
8.0403
7.92545
7.62639
6.847
6.01292
5.3031
4.63911
3.97467
3.2884
2.48984
1.14453
1.24959
2.84578
3.85325
4.70841
5.54191
6.39554
7.28813
8.14657
8.57627
8.54651
8.49444
8.43948
8.37611
8.30362
8.21331
8.10302
7.97745
7.84851
7.72632
7.62652
7.5611
7.4249
6.82238
6.04561
5.34114
4.66587
3.98879
3.29239
2.4786
1.09974
1.20463
2.73275
3.73783
4.59175
5.41839
6.26528
7.15837
7.95458
8.13684
8.03073
7.94986
7.88095
7.81245
7.74012
7.66074
7.57429
7.48406
7.39625
7.31436
7.24991
7.22211
7.20576
6.78171
6.05567
5.34611
4.65745
3.9727
3.26572
2.42515
1.05633
1.28095
2.7126
3.6634
4.48501
5.29835
6.13175
7.00982
7.6988
7.68379
7.55108
7.4561
7.379
7.30809
7.23921
7.17034
7.10342
7.04066
6.98601
6.93838
6.90508
6.90084
6.95357
6.73316
6.06416
5.34822
4.65153
3.96085
3.24553
2.37756
1.03633
1.26863
2.78355
3.67109
4.42519
5.19112
6.00522
6.82042
7.32526
7.22814
7.09988
7.00308
6.92352
6.85349
6.78907
6.73041
6.67944
6.63804
6.60946
6.59101
6.58575
6.60037
6.66863
6.65423
6.10466
5.38047
4.67276
3.98623
3.2733
2.43522
1.09247
1.2651
2.84948
3.70727
4.41464
5.1171
5.88711
6.6314
6.89324
6.79061
6.67744
6.58404
6.50607
6.43871
6.38017
6.33083
6.29288
6.26754
6.25838
6.2624
6.28095
6.31449
6.37589
6.45439
6.1468
5.4557
4.72282
4.0326
3.35153
2.55329
1.14604
1.3593
2.89914
3.73435
4.42078
5.08161
5.78521
6.40282
6.50841
6.39686
6.28588
6.19503
6.11999
6.05713
6.00492
5.96423
5.93627
5.92222
5.9253
5.94351
5.97697
6.02417
6.08217
6.14305
6.06257
5.52504
4.78795
4.09845
3.4309
2.64522
1.18352
1.39091
2.91289
3.73441
4.40595
5.04512
5.71859
6.20167
6.18464
6.04074
5.92362
5.83325
5.76175
5.70383
5.65817
5.62464
5.60427
5.5973
5.60608
5.62947
5.66724
5.71724
5.77477
5.82265
5.80191
5.50505
4.8224
4.1375
3.47461
2.688
1.25883
1.28286
2.86164
3.70859
4.36005
4.98145
5.62935
6.00065
5.87591
5.70914
5.58698
5.49742
5.42908
5.37619
5.33625
5.30888
5.29373
5.29056
5.29994
5.3215
5.35501
5.39852
5.44842
5.49615
5.51253
5.36259
4.78286
4.11475
3.45724
2.66731
1.19361
1.19811
2.72674
3.61551
4.29257
4.91257
5.51698
5.75146
5.56487
5.39448
5.27341
5.18566
5.12074
5.07229
5.0376
5.01493
5.00373
5.00184
5.00858
5.02394
5.04843
5.08022
5.11725
5.15771
5.1957
5.14944
4.68014
4.03144
3.34467
2.52194
1.10369
1.10376
2.57593
3.49977
4.21343
4.85021
5.39614
5.46741
5.258
5.0962
4.98005
4.8961
4.83498
4.79125
4.76129
4.743
4.73428
4.73237
4.73475
4.74192
4.75534
4.77352
4.79515
4.82112
4.85494
4.86051
4.49697
3.86321
3.15369
2.32609
1.0195
1.06263
2.49754
3.4211
4.15429
4.79899
5.24983
5.16676
4.96379
4.81374
4.70515
4.62666
4.57087
4.53235
4.5077
4.49365
4.48772
4.48476
4.48184
4.48002
4.48159
4.48542
4.49069
4.49796
4.51076
4.51213
4.247
3.63855
2.93123
2.10952
0.901347
1.07505
2.4788
3.39035
4.13755
4.76026
5.0505
4.87277
4.68465
4.54724
4.44771
4.37683
4.32791
4.29625
4.2779
4.26955
4.26671
4.26306
4.25434
4.24276
4.23149
4.22033
4.20907
4.19663
4.1815
4.14513
3.93055
3.37488
2.72128
1.92219
0.833677
1.10074
2.49166
3.3957
4.15149
4.71403
4.79342
4.58914
4.4204
4.29689
4.20841
4.147
4.10713
4.08413
4.07446
4.07378
4.07662
4.07265
4.05756
4.03454
4.0086
3.98158
3.95401
3.92395
3.88693
3.81759
3.59567
3.15008
2.59078
1.91356
0.877003
1.10862
2.53261
3.42247
4.15538
4.59639
4.50852
4.32033
4.17228
4.06443
3.98868
3.93905
3.91032
3.89869
3.90026
3.91124
3.92233
3.92027
3.89729
3.85964
3.8163
3.77218
3.72856
3.68365
3.63366
3.55639
3.33824
2.94641
2.46959
1.8709
0.869052
1.10308
2.5614
3.48331
4.14981
4.39724
4.23891
4.07117
3.94357
3.85214
3.79095
3.75487
3.73982
3.74191
3.75868
3.78546
3.81027
3.8115
3.77865
3.72222
3.6578
3.5945
3.5344
3.47647
3.41785
3.33589
3.1219
2.75826
2.32613
1.78107
0.826474
1.06825
2.53299
3.50492
4.13009
4.17629
3.9941
3.84516
3.73645
3.66217
3.6167
3.59624
3.59647
3.61557
3.65117
3.69872
3.74128
3.74997
3.70478
3.62481
3.53531
3.45
3.37249
3.30211
3.23588
3.14725
2.92972
2.58855
2.19172
1.68836
0.784535
1.02516
2.51504
3.42872
4.01288
3.95418
3.77475
3.64268
3.55207
3.49493
3.46652
3.46229
3.48016
3.51845
3.57599
3.64756
3.71601
3.73265
3.67026
3.56513
3.44863
3.33884
3.24247
3.15953
3.08618
2.98828
2.7656
2.4418
2.07378
1.60719
0.749887
1.01731
2.52087
3.35241
3.82659
3.73333
3.57549
3.46252
3.38934
3.34975
3.33804
3.35123
3.38759
3.44655
3.52699
3.62541
3.7225
3.7494
3.66274
3.53507
3.395
3.25984
3.14345
3.04745
2.96635
2.8583
2.62886
2.32022
1.9735
1.53493
0.718407
1.01365
2.45775
3.27465
3.65895
3.54485
3.40217
3.30431
3.24719
3.22363
3.22828
3.25868
3.31364
3.39266
3.49592
3.62053
3.75018
3.78965
3.67123
3.52332
3.36806
3.20945
3.07309
2.96445
2.87574
2.75332
2.51687
2.22432
1.89631
1.47586
0.70686
0.999682
2.39335
3.18303
3.52698
3.39481
3.25562
3.16763
3.12325
3.11347
3.13295
3.17938
3.25131
3.3489
3.47219
3.62039
3.78016
3.84489
3.69329
3.51916
3.35587
3.18111
3.02734
2.90764
2.81187
2.67175
2.4306
2.1539
1.84501
1.44594
0.709848
0.966143
2.311
3.07596
3.41816
3.27627
3.13372
3.05033
3.01498
3.0159
3.04788
3.10772
3.19418
3.30706
3.44729
3.61371
3.7997
3.9074
3.73321
3.51948
3.34596
3.16605
3.00026
2.87287
2.77073
2.61183
2.36821
2.10563
1.81398
1.42843
0.688935
0.930339
2.21544
2.95864
3.31772
3.18211
3.03244
2.95002
2.91942
2.92812
2.96922
3.03941
3.13682
3.26175
3.41399
3.59336
3.79914
3.97715
3.8026
3.53268
3.33801
3.15795
2.98756
2.85738
2.74754
2.56535
2.32185
2.06909
1.77951
1.38923
0.64005
0.896579
2.11755
2.8354
3.22225
3.10637
2.94945
2.86421
2.83491
2.84748
2.89438
2.9711
3.076
3.20863
3.36957
3.55864
3.78635
4.04461
3.90918
3.57694
3.34097
3.1574
2.98847
2.85611
2.72854
2.51925
2.27903
2.02242
1.72623
1.33772
0.602474
0.863931
2.01973
2.71059
3.12772
3.04875
2.88333
2.79223
2.76006
2.77294
2.82166
2.90149
3.00988
3.14673
3.31239
3.50881
3.74562
4.0415
4.03946
3.66819
3.37064
3.17266
3.0019
2.85914
2.69854
2.46916
2.2229
1.95999
1.66717
1.29226
0.587612
0.833788
1.92791
2.58998
3.03279
3.00337
2.8339
2.73339
2.69497
2.70402
2.75123
2.83052
2.93917
3.07646
3.24356
3.44176
3.67696
3.96978
4.15271
3.79882
3.43514
3.20343
3.02288
2.85353
2.65067
2.40489
2.15118
1.89053
1.61271
1.26041
0.582127
0.804251
1.84862
2.47635
2.93483
2.97456
2.80184
2.68847
2.63988
2.64186
2.68396
2.75978
2.86554
3.0005
3.16517
3.36163
3.59379
3.87209
4.1573
3.94938
3.52742
3.23914
3.03405
2.8237
2.58239
2.32518
2.06897
1.81862
1.55902
1.23769
0.582559
0.779347
1.78156
2.37584
2.83752
2.95729
2.7896
2.65836
2.59638
2.58803
2.62223
2.69172
2.7921
2.92171
3.08112
3.2713
3.49514
3.75341
4.03249
4.03703
3.63012
3.27915
3.02138
2.76832
2.49973
2.23456
1.98202
1.74475
1.50472
1.17444
0.538354
0.76118
1.72784
2.29374
2.75202
2.952
2.79735
2.64591
2.56648
2.54514
2.56871
2.62945
2.72212
2.8445
2.99591
3.17702
3.38784
3.62437
3.86319
3.96572
3.68727
3.30774
2.99117
2.6962
2.41236
2.14234
1.89488
1.66716
1.43456
1.15804
0.547462
0.75442
1.68885
2.23301
2.68262
2.9509
2.82878
2.65333
2.55348
2.51571
2.52636
2.57612
2.65959
2.77308
2.91548
3.08617
3.28321
3.50092
3.71881
3.84024
3.68437
3.31073
2.95109
2.62573
2.327
2.0516
1.80164
1.57639
1.38202
1.10782
0.522255
0.762498
1.66535
2.19234
2.63083
2.9513
2.8816
2.68314
2.55916
2.50234
2.49768
2.53491
2.60788
2.71198
2.84492
3.00544
3.1902
3.39408
3.59927
3.72838
3.62486
3.27915
2.90174
2.55383
2.24034
1.95421
1.69348
1.49663
1.30172
1.03276
0.492801
0.76237
1.65666
2.16795
2.59153
2.94468
2.95442
2.73888
2.58481
2.50646
2.48497
2.50847
2.57006
2.66459
2.78872
2.94017
3.11561
3.30917
3.50475
3.63131
3.5472
3.22715
2.84362
2.48026
2.15266
1.85087
1.60715
1.41667
1.21428
0.954189
0.459295
0.740939
1.64316
2.15114
2.56317
2.92753
3.03264
2.81828
2.63341
2.52886
2.48945
2.49905
2.54867
2.63392
2.75023
2.89472
3.06395
3.25183
3.4404
3.55526
3.46685
3.16328
2.78413
2.41195
2.07231
1.774
1.54174
1.34074
1.1351
0.875591
0.413918
0.725896
1.62788
2.13459
2.54473
2.91297
3.10684
2.92016
2.70447
2.57335
2.51229
2.50715
2.54592
2.62226
2.73206
2.8719
3.03827
3.22413
3.40815
3.50219
3.38957
3.08963
2.72121
2.34953
2.00848
1.72114
1.48264
1.27394
1.06348
0.800585
0.370735
0.724071
1.62744
2.12783
2.53557
2.90838
3.1766
3.0441
2.79889
2.64003
2.55748
2.53472
2.56103
2.62967
2.73485
2.87256
3.03827
3.22471
3.4012
3.46287
3.31237
3.0084
2.65151
2.28783
1.95764
1.67454
1.43106
1.21507
0.999767
0.736351
0.334618
0.745421
1.6482
2.13841
2.53936
2.9127
3.23276
3.18122
2.9188
2.7306
2.62531
2.58491
2.59798
2.6571
2.7571
2.89257
3.05847
3.24588
3.40996
3.42519
3.23056
2.92106
2.57574
2.22703
1.9103
1.63338
1.38623
1.16249
0.943929
0.684439
0.306146
0.812817
1.69805
2.16767
2.55869
2.9273
3.27043
3.33015
3.06577
2.84697
2.71702
2.65786
2.65732
2.70756
2.80278
2.93581
3.10118
3.28857
3.42903
3.38127
3.14371
2.83101
2.49732
2.16786
1.8663
1.59597
1.34826
1.11847
0.895526
0.639168
0.282549
0.803936
1.77008
2.21458
2.58727
2.95397
3.31017
3.48729
3.24682
2.99339
2.83485
2.75464
2.73896
2.77938
2.86924
3.00007
3.1659
3.35045
3.45098
3.32896
3.05836
2.74565
2.4239
2.11275
1.82477
1.56157
1.31652
1.08428
0.856545
0.59943
0.259893
0.86667
1.83374
2.25549
2.62086
2.98682
3.35826
3.63959
3.45652
3.17258
2.98104
2.87649
2.84359
2.87364
2.95789
3.08836
3.25988
3.43831
3.47239
3.27969
2.98727
2.6738
2.36152
2.06358
1.78573
1.52929
1.28935
1.05933
0.830775
0.573972
0.24384
0.884058
1.87443
2.28868
2.6321
3.00421
3.39358
3.75664
3.69347
3.38737
3.15635
3.02355
2.97195
2.99181
3.07253
3.20679
3.39141
3.5532
3.49719
3.24366
2.93484
2.61835
2.31091
2.02059
1.74957
1.49872
1.2647
1.04062
0.816595
0.564975
0.238638
0.867053
1.85137
2.30456
2.6279
2.99307
3.4159
3.84001
3.94304
3.63913
3.36009
3.19542
3.12438
3.13503
3.21607
3.36116
3.56175
3.68101
3.52547
3.2225
2.89784
2.57573
2.2691
1.98241
1.71589
1.46952
1.24104
1.02449
0.809026
0.56717
0.240965
0.861457
1.81153
2.26263
2.61383
2.96897
3.40956
3.8947
4.17149
3.91706
3.59006
3.39137
3.3008
3.30307
3.38843
3.55163
3.7617
3.80286
3.55146
3.20911
2.86695
2.53825
2.23098
1.94617
1.68307
1.44082
1.21748
1.00822
0.802553
0.573158
0.247755
0.848714
1.75024
2.1874
2.55516
2.93428
3.37758
3.90818
4.32622
4.20467
3.84358
3.60924
3.49895
3.49421
3.58547
3.76922
3.96789
3.893
3.56088
3.19053
2.83323
2.49945
2.19174
1.90881
1.64921
1.41144
1.19334
0.990657
0.793758
0.576064
0.25324
0.81853
1.66656
2.09719
2.47825
2.87749
3.33543
3.88427
4.40082
4.46808
4.11288
3.84485
3.71567
3.70473
3.80051
3.99956
4.15071
3.94019
3.55383
3.16417
2.79727
2.4597
2.15117
1.86992
1.61384
1.38079
1.16814
0.971585
0.781992
0.573757
0.254508
0.756639
1.55624
1.98891
2.38555
2.80484
3.2809
3.84189
4.424
4.68113
4.38756
4.09408
3.94805
3.93032
4.02981
4.23468
4.28881
3.95798
3.53874
3.13499
2.76207
2.4214
2.1118
1.83152
1.57827
1.34944
1.14191
0.951029
0.767578
0.56633
0.252972
0.682042
1.41937
1.86844
2.2845
2.72748
3.22123
3.78711
4.40498
4.81985
4.65701
4.35423
4.19176
4.1648
4.26892
4.46183
4.37256
3.95948
3.51833
3.10501
2.72741
2.38432
2.07399
1.79449
1.54349
1.31819
1.11514
0.929279