/*--------------------------------*- C++ -*----------------------------------*\
| =========                 |                                                 |
| \\      /  F ield         | OpenFOAM: The Open Source CFD Toolbox           |
|  \\    /   O peration     | Version:  2.3.0                                 |
|   \\  /    A nd           | Web:      www.OpenFOAM.org                      |
|    \\/     M anipulation  |                                                 |
\*---------------------------------------------------------------------------*/
FoamFile
{
    version     2.0;
    format      ascii;
    class       volScalarField;
    location    "0.8";
    object      nut.particles;
}
// * * * * * * * * * * * * * * * * * * * * * * * * * * * * * * * * * * * * * //

dimensions      [0 2 -1 0 0 0 0];

internalField   nonuniform List<scalar> 
6000
(
1.10259e-05
9.3562e-06
9.26343e-06
9.74538e-06
1.08572e-05
1.22412e-05
2.05147e-05
1.76617e-05
1.47729e-05
1.08602e-05
1.20372e-05
1.61255e-05
1.61416e-05
1.14763e-05
1.06367e-05
1.07351e-05
1.07729e-05
1.13921e-05
1.88298e-05
1.98804e-05
2.01925e-05
1.96946e-05
1.76042e-05
1.69082e-05
1.71274e-05
1.72852e-05
1.56244e-05
1.31264e-05
1.29923e-05
1.16457e-05
1.19504e-06
1.36578e-06
1.31274e-06
1.67396e-06
1.22833e-06
9.40907e-07
1.22263e-06
1.42579e-06
1.31791e-06
1.17742e-06
1.27855e-06
1.42144e-06
1.34662e-06
9.64537e-07
8.71954e-07
9.32142e-07
1.07661e-06
1.3367e-06
2.30704e-06
2.90398e-06
2.68441e-06
2.4434e-06
2.01411e-06
1.46208e-06
1.18536e-06
1.06414e-06
1.44906e-06
1.17429e-06
1.417e-06
1.40514e-06
5.40777e-06
5.78958e-06
7.1754e-06
2.68306e-06
9.54496e-07
4.49597e-07
1.50687e-07
7.12326e-07
6.46313e-07
2.16579e-07
1.83004e-07
3.86157e-07
7.27161e-07
6.99378e-07
3.13402e-07
1.1417e-06
4.93599e-06
3.09109e-06
2.10228e-06
2.63075e-06
2.39087e-06
2.53821e-06
2.98848e-06
2.3806e-06
1.82681e-06
1.26357e-06
1.64724e-07
6.87613e-07
9.16985e-07
5.23063e-06
2.05374e-06
2.33652e-06
2.06664e-06
2.11434e-07
4.44934e-07
2.46812e-07
1.38475e-07
1.63521e-07
8.83516e-08
3.32358e-08
1.42941e-07
4.47127e-07
5.8608e-07
5.10118e-07
4.22742e-07
4.14076e-07
6.82172e-06
2.06193e-06
2.86727e-07
1.53797e-07
2.0982e-07
2.83462e-07
2.85497e-07
2.1423e-07
2.73274e-07
3.75573e-07
3.21251e-07
4.79323e-07
5.79648e-07
5.15849e-06
9.92922e-07
2.23464e-06
4.65793e-07
8.34432e-08
1.51144e-07
1.76221e-07
1.04294e-07
9.49378e-08
1.42261e-07
1.14205e-07
6.71202e-08
1.95636e-07
3.84449e-07
4.29835e-07
3.1014e-07
1.03335e-06
7.15136e-06
1.68421e-06
2.31661e-07
2.37538e-07
2.39184e-07
2.97445e-07
2.32047e-07
2.25386e-07
2.39375e-07
2.49349e-07
1.60792e-07
3.95433e-07
6.63293e-07
6.35549e-06
9.21042e-07
7.35475e-07
5.34997e-07
2.95262e-07
1.40866e-07
1.33655e-07
1.33052e-07
1.17305e-07
1.53149e-07
1.35806e-07
1.02559e-07
9.27651e-08
1.53969e-07
3.78713e-07
2.85475e-07
2.79574e-06
6.80941e-06
9.23949e-07
3.26945e-07
3.21089e-07
2.78033e-07
3.14827e-07
2.82761e-07
2.47951e-07
2.88534e-07
3.17774e-07
3.18554e-07
2.65067e-07
6.32153e-07
7.15376e-06
7.90829e-07
2.02933e-07
3.84313e-07
4.44704e-07
2.93522e-07
1.92057e-07
1.88139e-07
1.62878e-07
1.85498e-07
2.01821e-07
2.01529e-07
1.62295e-07
1.48424e-07
3.17633e-07
8.19216e-07
6.0862e-06
4.54998e-06
4.11832e-07
3.59086e-07
3.14782e-07
3.89316e-07
4.36274e-07
4.56433e-07
3.77909e-07
2.86894e-07
3.07871e-07
4.56179e-07
3.17664e-07
4.11277e-07
7.32563e-06
4.63792e-07
2.80096e-07
3.09774e-07
5.27837e-07
5.37131e-07
2.71699e-07
2.35442e-07
1.88642e-07
2.20755e-07
2.45931e-07
3.04548e-07
3.36971e-07
2.95758e-07
4.51193e-07
1.23248e-06
4.49601e-06
1.49405e-06
2.80364e-07
3.55736e-07
5.21888e-07
7.4374e-07
7.10329e-07
6.92626e-07
7.27748e-07
4.96352e-07
3.17287e-07
5.05432e-07
5.98214e-07
5.64634e-07
7.52755e-06
3.48811e-07
4.3494e-07
5.45879e-07
5.60429e-07
5.95805e-07
4.09156e-07
2.65584e-07
2.4635e-07
2.64769e-07
2.90226e-07
3.17395e-07
4.28889e-07
4.68774e-07
5.84051e-07
7.03948e-07
2.25231e-06
9.93774e-07
2.77337e-07
5.05247e-07
1.25595e-06
1.41246e-06
7.89289e-07
8.8796e-07
1.25188e-06
1.17647e-06
5.6279e-07
4.79062e-07
8.4158e-07
7.17922e-07
5.14806e-06
3.64367e-07
7.17413e-07
1.18047e-06
8.81103e-07
6.11497e-07
5.25199e-07
3.33584e-07
2.84581e-07
3.02066e-07
3.11777e-07
3.2954e-07
3.64498e-07
4.57961e-07
4.01909e-07
2.88107e-07
1.43176e-06
1.03817e-06
4.57568e-07
1.44241e-06
2.80278e-06
2.19809e-05
0.000142842
0.000203314
0.000203397
4.88002e-05
2.23296e-06
6.53182e-07
5.89029e-07
6.38305e-07
4.22756e-06
6.40583e-07
1.103e-06
2.01849e-06
1.76075e-06
8.48326e-07
5.67436e-07
4.29437e-07
4.1405e-07
4.01805e-07
3.65018e-07
3.09433e-07
3.11483e-07
3.36668e-07
3.14702e-07
2.67063e-07
1.22649e-06
1.14675e-06
9.71818e-07
5.31337e-06
1.41648e-05
0.000187347
0.000658681
0.0012092
0.00123144
0.00123975
0.000754449
3.46553e-06
7.43373e-07
1.06357e-06
6.82078e-06
1.35107e-06
0.000171934
0.00062127
7.19697e-05
2.10973e-06
5.13987e-07
4.78781e-07
8.46439e-07
7.57733e-07
5.98595e-07
3.93464e-07
2.78874e-07
3.03938e-07
3.14863e-07
3.04966e-07
1.16351e-06
1.79119e-06
3.5512e-06
0.000103005
8.89379e-05
0.000527487
0.00123853
0.00123512
0.00136924
0.00123936
0.00129017
0.000212032
2.678e-05
2.16449e-05
2.33976e-05
0.000457203
0.00513816
0.00558271
0.00336553
3.45159e-05
5.9845e-07
5.92312e-07
1.47675e-06
1.35163e-06
9.22435e-07
5.88185e-07
3.5659e-07
3.57509e-07
3.71851e-07
4.04633e-07
1.17571e-06
2.96532e-06
1.07624e-05
0.000819262
0.000913098
0.00124201
0.0012357
0.00137136
0.00123135
2.55986e-05
1.38686e-05
1.43107e-05
1.70218e-05
2.10406e-05
2.96125e-05
0.0101573
0.0143405
0.0139072
0.0127923
0.00558311
8.06221e-06
7.75676e-07
1.52131e-06
1.94389e-05
2.82505e-05
6.64694e-07
5.18864e-07
6.40341e-07
6.74435e-07
6.62779e-07
1.41238e-06
5.39824e-06
0.00124955
0.00124066
0.00131561
0.00124092
0.00139895
0.00122507
9.5696e-06
1.94048e-06
9.82069e-07
6.92358e-07
9.43086e-07
1.43355e-06
3.56416e-06
0.0144964
0.0145211
0.0144658
0.0144569
0.0143323
0.00763797
0.000301815
3.04041e-05
0.000371854
0.00102094
0.00111199
0.000141277
1.5497e-06
1.98004e-06
1.93486e-06
3.66983e-05
0.000607726
0.00123705
0.0015172
0.00125058
0.00150043
0.00123502
9.34663e-06
5.26278e-07
8.28876e-08
6.12301e-08
5.57102e-08
5.50191e-08
5.41227e-08
7.11441e-07
0.0145461
0.0144955
0.0135955
0.0100316
0.0143354
0.0142343
0.0111024
0.0024266
0.00154778
0.00279144
0.00281434
0.00211623
0.000981038
0.000684416
0.00112327
0.0015667
0.00109395
0.000170752
0.00125416
0.00158495
0.00124902
0.00135071
1.8945e-06
1.88498e-07
1.22095e-07
8.30348e-08
7.08467e-08
6.9495e-08
7.56812e-08
6.35884e-07
0.0142502
0.0111283
0.00514507
0.00151135
0.0050122
0.0124532
0.0124273
0.00968237
0.00497945
0.00468952
0.00279186
0.00207087
0.00267653
0.00270871
0.00268541
0.00252959
3.59583e-05
1.54688e-05
1.16463e-05
0.000107735
0.00155726
7.65729e-06
3.9344e-07
3.28767e-07
1.92439e-07
1.3044e-07
1.04654e-07
9.62547e-08
1.1305e-07
7.66808e-07
3.28269e-05
0.000139272
0.00128816
0.000417665
0.000656699
0.00576797
0.0123778
0.0123674
0.00834415
0.00306096
0.000198929
0.000247872
0.00127033
0.00189915
0.000112191
2.2111e-05
7.28893e-06
2.4202e-06
9.31149e-07
1.93539e-06
8.49649e-06
4.33845e-06
1.21396e-06
5.2389e-07
3.10376e-07
2.13569e-07
1.72419e-07
1.58398e-07
1.78957e-07
9.6835e-07
3.73891e-06
9.05927e-06
3.18885e-05
0.000454233
0.000441081
0.00338102
0.0107935
0.0122991
0.00493878
1.3828e-05
8.29327e-06
7.22927e-06
1.07015e-05
1.06993e-05
6.92829e-06
2.44012e-06
4.36578e-07
2.07123e-07
9.4182e-08
1.63914e-07
3.42521e-06
5.18364e-06
2.50556e-06
9.05916e-07
4.68149e-07
3.38223e-07
2.85991e-07
2.67561e-07
2.83005e-07
1.17922e-06
5.13179e-07
7.58632e-07
3.78231e-06
1.98335e-05
0.000156624
0.0020106
0.00582856
0.0122237
0.00671959
8.75206e-06
8.16799e-08
1.15411e-07
6.0796e-07
9.94679e-07
4.11066e-07
1.30432e-07
9.9989e-08
1.52741e-07
1.09742e-07
1.62888e-07
2.87486e-06
4.82628e-06
3.14189e-06
1.5554e-06
7.64324e-07
5.28381e-07
4.52402e-07
4.24693e-07
4.28544e-07
1.35661e-06
2.95868e-07
2.18747e-08
4.88467e-08
1.29763e-06
9.18783e-06
3.7772e-05
0.00372951
0.00493264
0.0066829
0.000972467
2.1492e-06
1.70846e-07
1.70504e-07
2.86378e-07
3.55925e-07
2.45764e-07
1.20783e-07
1.4351e-07
1.12468e-07
1.84708e-07
2.75334e-06
4.4045e-06
3.1464e-06
2.14807e-06
1.2768e-06
8.35605e-07
6.79529e-07
6.20961e-07
5.96238e-07
1.34747e-06
3.41138e-07
3.42078e-08
3.14203e-08
2.75424e-08
2.87144e-07
3.80042e-06
1.55655e-05
6.58469e-05
0.00625975
0.00631642
9.13382e-06
2.28671e-07
2.39782e-07
1.27708e-07
3.60457e-07
3.64613e-07
1.16556e-07
1.49261e-07
1.09627e-07
2.37774e-07
2.61921e-06
4.05814e-06
2.92632e-06
2.26981e-06
1.74242e-06
1.26661e-06
9.56887e-07
7.90907e-07
6.88455e-07
1.889e-06
4.08631e-07
4.58836e-08
3.62533e-08
3.88691e-08
3.75815e-08
3.65732e-08
1.03595e-06
7.38365e-06
2.78257e-05
0.00376171
0.00149369
1.43664e-06
2.3088e-07
1.94166e-07
2.25416e-07
4.05936e-07
2.06479e-07
1.63123e-07
1.24175e-07
3.2731e-07
2.53058e-06
3.76491e-06
2.70904e-06
2.10004e-06
1.764e-06
1.50023e-06
2.0783e-06
5.3999e-06
2.36988e-05
0.000137563
4.47896e-07
5.07714e-08
4.2197e-08
4.29932e-08
4.64546e-08
6.42745e-08
7.07719e-08
9.84097e-08
3.58154e-06
1.78617e-05
0.00145915
7.22383e-06
3.27874e-07
2.7553e-07
1.04169e-07
3.57673e-07
3.20713e-07
1.94212e-07
1.38837e-07
4.78205e-07
2.65107e-06
1.22189e-05
1.33228e-05
1.26655e-05
1.87619e-05
3.52259e-05
6.00677e-05
9.88167e-05
0.000184961
0.000440621
4.4559e-07
4.78331e-08
4.71427e-08
5.50172e-08
6.68904e-08
8.62707e-08
9.83183e-08
1.24409e-07
1.14261e-07
1.96101e-06
2.16228e-05
2.2237e-05
6.21155e-07
3.83669e-07
1.91249e-07
2.1475e-07
3.33367e-07
2.34872e-07
1.72251e-07
7.32631e-07
2.93853e-06
3.51891e-05
5.10415e-05
6.15017e-05
7.71927e-05
0.00010633
0.000153819
0.000235925
0.000416627
0.000838776
3.87276e-07
5.35965e-08
6.32421e-08
7.77615e-08
1.02486e-07
1.29158e-07
1.50569e-07
1.61126e-07
1.3922e-07
1.96969e-07
2.47237e-06
2.62509e-05
1.10089e-05
4.96379e-07
3.7997e-07
1.27824e-07
2.39867e-07
3.02635e-07
2.25235e-07
1.11756e-06
3.79459e-06
6.39025e-05
9.89753e-05
0.000125991
0.000154058
0.000198687
0.000276765
0.000423184
0.00073287
0.00134852
2.91598e-07
7.03786e-08
9.34602e-08
1.34821e-07
1.83403e-07
2.04448e-07
2.20193e-07
1.84002e-07
1.54082e-07
1.19049e-07
4.19793e-07
4.86039e-06
1.92873e-05
2.66997e-06
6.50424e-07
2.40022e-07
1.13563e-07
2.63977e-07
3.24208e-07
1.40286e-06
3.60455e-06
7.03698e-05
0.000124589
0.00017168
0.000225113
0.000302832
0.000435511
0.000684323
0.0011711
0.00201785
2.31677e-07
1.08094e-07
1.73941e-07
2.76601e-07
3.40509e-07
3.07546e-07
2.50028e-07
1.6679e-07
1.37462e-07
9.54936e-08
1.08464e-07
1.05534e-06
8.87577e-06
1.28053e-05
4.22118e-07
4.14487e-07
1.35488e-07
1.9592e-07
3.4885e-07
1.85248e-06
3.93239e-06
5.00136e-05
0.000118325
0.000182969
0.000277539
0.000414448
0.000644105
0.00105811
0.00179589
0.00292359
2.64858e-07
1.94492e-07
3.57532e-07
5.36794e-07
5.7526e-07
4.81611e-07
2.93341e-07
1.39097e-07
1.37158e-07
9.92359e-08
1.47566e-07
1.34804e-07
1.80612e-06
1.52034e-05
7.84293e-06
6.21592e-07
2.44894e-07
2.27329e-07
4.04575e-07
3.30714e-06
2.64992e-05
5.2564e-05
0.000130279
0.000194554
0.000329884
0.000556486
0.000951142
0.0016323
0.00272228
0.00417321
7.57684e-07
5.61822e-07
7.76344e-07
1.27782e-06
1.70789e-06
1.08076e-06
2.12311e-07
1.98265e-07
1.67169e-07
1.35103e-07
1.50608e-07
1.09757e-07
4.02972e-07
4.47555e-06
1.43748e-05
1.55341e-06
4.62402e-07
2.5221e-07
7.35805e-07
6.06628e-06
0.000218609
0.000207059
0.000258546
0.000284848
0.000437329
0.000791553
0.00146303
0.00256083
0.00410293
0.00586825
4.18845e-06
1.7096e-06
1.80433e-06
2.45753e-06
2.07109e-06
4.32545e-07
2.97056e-07
2.78874e-07
2.08245e-07
1.70406e-07
1.5304e-07
1.39707e-07
1.15948e-07
1.04751e-06
1.15581e-05
1.40396e-05
6.60776e-07
5.32941e-07
2.30254e-06
7.56823e-06
0.000321135
0.000447719
0.000494054
0.00047585
0.000643238
0.00121257
0.0023514
0.00404005
0.00606594
0.0080419
0.00193665
5.74979e-05
2.81429e-06
2.0227e-06
8.86687e-07
3.43449e-07
4.14349e-07
3.52545e-07
2.67229e-07
1.82085e-07
1.47414e-07
1.91485e-07
1.27629e-07
4.59174e-07
7.51584e-06
0.0001737
6.36443e-07
3.37405e-06
8.34393e-06
6.67619e-06
0.000118802
0.000332774
0.0005105
0.000641892
0.000995144
0.0020107
0.00387722
0.00624536
0.00860932
0.0106016
0.00962749
0.00367091
0.000117607
2.00496e-06
8.30341e-07
5.13397e-07
5.74221e-07
5.18539e-07
3.83029e-07
2.14895e-07
1.74125e-07
2.132e-07
2.00035e-07
2.31468e-07
4.3649e-06
0.000177128
0.000631147
0.00067595
0.00288514
0.00146737
0.000652585
0.000647479
0.000817407
0.00115355
0.00199192
0.00378786
0.00643807
0.0091718
0.0114407
0.0130907
0.0103753
0.0102371
0.00416937
1.5062e-05
1.21012e-06
7.62687e-07
9.4822e-07
9.23766e-07
6.33125e-07
3.26219e-07
1.98823e-07
2.54917e-07
2.52085e-07
2.07452e-07
1.90722e-06
2.23329e-05
0.000936958
0.00178018
0.00734197
0.01133
0.00735899
0.00451826
0.00369519
0.00400143
0.00536685
0.00763226
0.010222
0.012295
0.0137313
0.0142684
0.0104199
0.0103786
0.0102372
0.00310023
2.14184e-06
9.88452e-07
1.81549e-06
2.45893e-06
2.43066e-06
4.68319e-07
2.11022e-07
2.52947e-07
3.21569e-07
2.26809e-07
9.31059e-07
1.11782e-05
0.000701062
0.00135231
0.00557283
0.0138348
0.0195252
0.0172508
0.0144043
0.0135284
0.0133606
0.0137886
0.0142096
0.0142716
0.0143054
0.0142877
0.0105982
0.0104212
0.0103776
0.00993268
0.0018601
5.56614e-05
2.77772e-05
0.000192393
0.000435611
1.95872e-06
1.92026e-07
2.46555e-07
2.8345e-07
2.41006e-07
1.35944e-07
2.95236e-06
6.13339e-05
0.00142021
0.00439901
0.0117791
0.0232191
0.0263719
0.0261756
0.0249663
0.0227186
0.0196919
0.0159439
0.0136801
0.0142576
0.0142779
0.0106115
0.010507
0.0104123
0.0102942
0.00704431
0.00183174
0.00130282
0.00249344
0.00334808
6.45401e-06
2.14249e-07
2.32174e-07
2.57495e-07
2.5158e-07
1.14538e-07
6.83486e-07
6.90226e-06
0.00120597
0.00371716
0.00913388
0.0235058
0.0264073
0.0270542
0.0264228
0.026463
0.0227676
0.0135942
0.00959463
0.00996747
0.0142138
0.00031866
5.93754e-05
0.00858623
0.0102521
0.0103244
0.00801424
0.0076162
0.00932574
0.00598338
9.81928e-06
5.3733e-07
2.81123e-07
2.48963e-07
2.92903e-07
1.76902e-07
6.99658e-07
6.19609e-06
0.000242187
0.00194208
0.00520067
0.0186333
0.0282686
0.0264666
0.0282636
0.0264152
0.0232823
0.00853107
0.00524253
0.00517964
0.00699056
9.36719e-06
4.97768e-06
2.33518e-05
0.00458951
0.0101695
0.0103966
0.00997231
0.0103442
0.00617943
0.000123467
2.17698e-06
4.13813e-07
2.77014e-07
3.13202e-07
3.03588e-07
2.90549e-06
9.13442e-06
1.90729e-05
0.000151869
0.00124761
0.00523036
0.0252819
0.0279778
0.0264722
0.0280358
0.0212497
0.00426579
0.00169003
1.30195e-05
2.36454e-05
2.1096e-06
1.40402e-07
4.44656e-06
1.59297e-05
0.00418766
0.00995703
0.0105497
0.00988872
0.0038627
0.000302068
4.90765e-05
7.60174e-07
4.47363e-07
3.9098e-07
4.56526e-07
1.06498e-05
0.000732685
0.000178915
0.000152815
0.00028867
0.000704447
4.3037e-05
0.00183423
0.0276622
0.0259209
0.00675841
2.82053e-05
9.9103e-06
1.37106e-06
6.54338e-06
1.82195e-06
2.19145e-07
1.00796e-07
3.353e-06
1.80749e-05
0.0101246
0.0099435
0.0102668
0.00138574
0.00099956
0.000999285
1.49309e-05
8.87356e-07
6.76014e-07
8.21205e-07
1.22682e-05
0.00180828
0.00163211
0.000424138
0.000441271
2.1828e-05
6.27525e-06
1.12897e-05
0.00504568
0.00335444
1.72462e-05
5.76764e-06
1.055e-07
3.19803e-07
1.86477e-06
1.671e-06
2.51897e-07
1.54605e-07
1.40123e-07
3.75039e-06
2.14393e-05
0.01016
2.15846e-05
1.43728e-05
5.6566e-05
0.00042103
4.40716e-05
1.43883e-05
4.55091e-06
3.2732e-06
1.50018e-05
0.00178556
0.00188382
0.00162438
2.1868e-05
2.05118e-06
1.93028e-07
1.20158e-06
1.18476e-05
1.07859e-05
4.09902e-06
2.62097e-07
3.10786e-07
3.6958e-07
2.08312e-06
1.855e-06
2.70067e-07
2.0179e-07
1.86219e-07
1.98311e-07
3.7869e-06
1.75508e-05
4.94378e-06
1.559e-06
7.13417e-06
1.47509e-05
1.88898e-05
2.51879e-05
2.74565e-05
2.52555e-05
2.05659e-05
0.00187995
0.0017792
2.96018e-05
2.88945e-06
2.68229e-07
1.8673e-07
4.52848e-07
8.51698e-07
4.07236e-07
3.13118e-07
3.17569e-07
3.83865e-07
4.89831e-07
3.1885e-06
2.56732e-06
3.04168e-07
2.24917e-07
2.30737e-07
2.37426e-07
4.94922e-07
3.33791e-06
1.12929e-06
5.34462e-07
4.6643e-07
1.13639e-06
2.78405e-06
5.31154e-06
1.35209e-05
2.82893e-05
1.02411e-05
4.41941e-05
2.35605e-05
4.83767e-06
3.12924e-07
2.83007e-07
1.72171e-07
2.74762e-07
6.04425e-07
5.97165e-07
5.1181e-07
5.3366e-07
7.65791e-07
1.07534e-06
4.74564e-06
3.95911e-06
5.02904e-07
3.24178e-07
2.79789e-07
3.05104e-07
5.85113e-07
1.1936e-06
6.20108e-07
5.64824e-07
2.95168e-07
1.24251e-07
3.45824e-07
1.30787e-06
1.88809e-06
4.53377e-06
2.21497e-06
6.1742e-06
3.5644e-06
4.83757e-07
2.91692e-07
2.34962e-07
1.51995e-07
1.92277e-07
5.66238e-07
8.36085e-07
9.07222e-07
1.13002e-06
1.74009e-06
2.86395e-06
0.00166761
1.99306e-05
1.15519e-06
6.86805e-07
4.81283e-07
4.4877e-07
6.22896e-07
7.8405e-07
3.82683e-07
6.50229e-07
4.06255e-07
1.41691e-07
4.92197e-08
1.79458e-07
3.86536e-07
7.92685e-07
6.64739e-07
1.69176e-06
2.31503e-06
6.87796e-07
3.23687e-07
2.48919e-07
1.93282e-07
2.32948e-07
5.77163e-07
1.11892e-06
1.5959e-06
2.27648e-06
0.000345597
0.00289454
0.00778357
0.00164992
1.146e-05
1.52126e-06
9.50331e-07
7.39137e-07
6.10307e-07
5.78245e-07
3.29679e-07
7.85476e-07
6.13733e-07
1.51224e-07
6.86378e-08
9.15918e-08
1.53091e-07
2.91614e-07
6.37258e-07
2.24822e-06
3.34937e-06
7.16993e-07
5.10937e-07
3.53055e-07
3.24082e-07
3.42197e-07
7.6077e-07
1.69164e-06
1.97309e-05
0.0011565
0.00465965
0.00823084
0.00827957
0.00410814
0.00209536
0.000227688
1.77619e-06
1.15591e-06
6.70593e-07
4.66205e-07
3.6617e-07
1.17125e-06
9.98554e-07
1.80332e-07
9.306e-08
9.32869e-08
1.55172e-07
1.87843e-07
3.98224e-07
2.30549e-06
4.60501e-06
5.43506e-07
7.55448e-07
5.92838e-07
5.8959e-07
5.78119e-07
1.22911e-06
8.89603e-05
0.0019701
0.00574762
0.00825013
0.00827986
0.00828235
0.00411334
0.00410802
0.00266812
0.000599737
3.4934e-06
9.6285e-07
6.0277e-07
4.02535e-07
2.13071e-06
1.80291e-06
2.41805e-07
9.82022e-08
9.38828e-08
1.07601e-07
1.8465e-07
1.77838e-07
6.6579e-07
4.43643e-06
1.68992e-06
1.01898e-06
9.06201e-07
8.00487e-07
8.21473e-07
0.000169056
0.00246056
0.0064368
0.00824954
0.00828049
0.00827106
0.00827648
0.00167101
0.00409486
0.00408452
0.00290611
0.000989718
1.93901e-05
1.15012e-06
6.36987e-07
3.10667e-06
3.19235e-06
3.25596e-07
1.08334e-07
6.71728e-08
9.93476e-08
1.08579e-07
1.09345e-07
1.00839e-07
1.04508e-06
5.25586e-06
3.82676e-06
1.2365e-06
4.59094e-05
0.000410885
0.00254914
0.00658915
0.00823248
0.00827204
0.00823832
0.00619223
0.00711872
0.000918761
0.00252772
0.00407074
0.00406195
0.00323975
0.00126564
2.33024e-05
1.06116e-06
3.22027e-06
3.65854e-06
4.19304e-07
9.15288e-08
7.32843e-08
7.80247e-08
1.07231e-07
9.00068e-08
7.06347e-08
8.4164e-07
1.26829e-05
0.000882906
0.000217397
0.000749216
0.00246873
0.00600974
0.00821354
0.00823873
0.00656188
0.00366648
0.00113121
0.00336331
0.000920846
5.39558e-05
0.00266361
0.00377298
0.00378287
0.00337055
0.000962132
3.01307e-05
3.21586e-06
1.63324e-06
4.18939e-07
1.62671e-07
9.28706e-08
9.03734e-08
1.01344e-07
1.14058e-07
1.5431e-07
1.63597e-06
1.49473e-05
0.000892553
0.000851035
0.00196887
0.00483018
0.00818141
0.00818084
0.00325969
6.98288e-05
1.32278e-05
6.39697e-06
0.000219416
2.57431e-05
1.6841e-06
4.51842e-05
0.000281525
0.00208612
0.00336868
0.00217217
0.000214313
1.88727e-06
6.75346e-07
3.7033e-07
1.84138e-07
9.75455e-08
6.67111e-08
1.37774e-07
2.09747e-07
3.75791e-07
3.00891e-06
4.8776e-05
0.000963143
0.00123509
0.00299075
0.00606387
0.00712029
0.0021708
1.49299e-05
3.99282e-06
1.77171e-06
3.24355e-07
8.73092e-06
4.84416e-06
8.06671e-07
2.1672e-06
2.50951e-06
6.82531e-06
0.00149116
0.00217168
0.00032194
5.08673e-07
3.51299e-07
3.83504e-07
2.05465e-07
9.34963e-08
1.11451e-07
1.81159e-07
2.6657e-07
1.14246e-06
6.3928e-06
5.96287e-06
0.00134381
0.00159679
0.00346512
0.00521245
0.00178809
1.09863e-05
2.01366e-06
2.44317e-07
2.91161e-07
3.88875e-07
3.4926e-06
3.95985e-06
8.76024e-07
8.89274e-07
8.85393e-07
8.99902e-07
5.21994e-06
0.00214911
9.47058e-06
1.385e-07
2.29557e-07
3.05062e-07
2.00282e-07
1.14597e-07
1.25183e-07
3.12793e-07
6.03411e-07
2.43928e-06
7.33377e-06
2.07627e-05
0.000773598
0.00151739
0.00223798
0.000942889
9.37914e-06
8.27539e-07
2.84821e-07
3.27881e-07
5.02421e-07
6.60296e-07
3.87624e-06
3.0498e-05
1.27251e-06
8.63973e-07
8.86225e-07
1.2126e-06
6.59715e-07
1.24494e-05
2.88016e-06
2.50795e-07
2.09268e-07
2.52031e-07
2.10757e-07
1.20522e-07
1.89546e-07
4.07892e-07
9.1721e-07
2.60937e-06
4.80574e-06
0.000159467
0.000874218
0.000930191
2.18524e-05
6.48269e-06
4.79458e-07
3.49945e-07
3.90038e-07
6.07015e-07
8.54625e-07
1.18485e-06
1.74836e-05
0.00128344
2.12529e-06
1.53946e-06
9.8077e-07
9.16605e-07
1.72771e-06
3.04276e-06
1.01161e-06
2.79315e-07
2.00432e-07
2.57707e-07
2.22355e-07
1.5807e-07
2.59524e-07
5.49603e-07
8.88368e-07
2.3957e-06
5.89608e-06
2.9154e-05
0.000402101
1.48149e-05
2.90582e-06
2.50579e-07
5.10474e-07
6.01549e-07
6.99104e-07
9.11466e-07
1.28268e-06
2.08136e-06
0.000424783
0.00640141
0.00104526
1.14452e-05
1.66067e-06
1.1929e-06
1.22029e-06
1.67409e-06
1.36293e-06
4.3394e-07
1.95459e-07
1.90021e-07
2.60425e-07
2.15402e-07
3.03034e-07
5.51955e-07
9.57727e-07
2.79086e-06
6.26467e-06
5.99907e-06
5.08469e-06
1.03944e-06
1.18379e-07
3.34341e-07
6.84225e-07
1.00248e-06
1.10438e-06
1.30768e-06
2.40074e-06
0.000196737
0.00179871
0.0143242
0.00577698
0.0010475
1.07241e-05
1.74955e-06
1.65606e-06
1.39362e-06
8.97214e-07
1.23404e-06
1.82258e-07
1.22017e-07
2.43347e-07
3.10104e-07
3.03216e-07
4.64527e-07
9.96135e-07
2.06276e-06
1.87646e-06
7.44479e-07
1.06348e-07
1.47328e-07
1.54494e-07
2.75107e-07
9.54832e-07
1.30765e-06
1.50647e-06
1.65819e-06
0.000109224
0.00104698
0.00447244
0.0212118
0.0138269
0.00542944
0.000886853
6.62757e-06
1.76291e-06
1.29168e-06
5.23823e-07
3.20831e-06
3.44808e-07
1.02103e-07
2.4496e-07
3.44635e-07
2.9798e-07
3.09384e-07
7.97714e-07
1.16103e-06
9.22868e-07
1.23941e-07
2.05087e-07
1.82885e-07
1.57333e-07
2.59628e-07
1.04866e-06
1.53762e-06
1.87587e-06
3.34669e-05
0.00075795
0.00346551
0.00935516
0.0236743
0.0213497
0.013532
0.00480748
0.000723643
2.91903e-06
1.60205e-06
5.39057e-07
4.32289e-06
6.33622e-07
1.04466e-07
2.42442e-07
3.43268e-07
3.07727e-07
2.41421e-07
7.64518e-07
1.04991e-06
6.79745e-07
2.23255e-07
1.77071e-07
2.73789e-07
1.8658e-07
3.05488e-07
1.07228e-06
1.8566e-06
3.34999e-06
0.000636067
0.00345841
0.00937859
0.0169952
0.0237084
0.0236759
0.0218579
0.0126897
0.00405405
0.000510992
2.10704e-06
7.37125e-07
4.8616e-06
6.87647e-07
1.25976e-07
1.89887e-07
3.41007e-07
2.91332e-07
3.11573e-07
1.00623e-06
1.35539e-06
3.91309e-07
2.46147e-07
3.91784e-07
3.86349e-07
3.06472e-07
4.75408e-07
1.35618e-06
2.49107e-06
0.000601372
0.0040324
0.0109565
0.0190042
0.0249275
0.0235105
0.0236536
0.0236433
0.0212362
0.0108402
0.00316934
0.000229854
1.32427e-06
4.45897e-06
7.65959e-07
1.52155e-07
1.2472e-07
3.43238e-07
2.40833e-07
4.42754e-07
1.44837e-06
1.37231e-06
2.44827e-07
1.58586e-07
9.20469e-07
4.64961e-07
4.69465e-07
9.45606e-07
2.26135e-06
0.000480907
0.0048285
0.0131587
0.0217027
0.0253425
0.0254267
0.00381572
0.0172985
0.0235008
0.0235752
0.0179552
0.00825855
0.00200045
3.7241e-05
6.24221e-06
4.08508e-06
1.31753e-07
1.79334e-07
2.97386e-07
1.94173e-07
5.72166e-07
1.762e-06
6.95884e-07
2.16706e-07
1.61655e-07
6.93406e-07
5.93675e-07
7.22055e-07
1.89669e-06
0.000376824
0.00532509
0.0145591
0.0234755
0.0253825
0.0254292
0.0254478
2.54752e-05
0.000155113
0.0133046
0.0232784
0.0217004
0.0127755
0.00507251
0.000488123
2.32013e-06
1.84826e-05
2.34321e-06
2.12249e-07
2.44579e-07
1.00259e-07
7.10343e-07
1.87854e-06
3.33851e-07
1.63115e-07
5.39476e-07
1.54185e-06
7.64065e-07
1.1368e-06
0.000335946
0.00509559
0.0141711
0.0227286
0.0253195
0.025364
0.0252799
0.0253104
5.20611e-06
5.29996e-06
0.000402108
0.0125995
0.0177231
0.0134193
0.00679331
0.000676059
3.16882e-06
0.000453103
7.40511e-06
4.66018e-07
1.26348e-07
1.22237e-07
9.10396e-07
1.02039e-06
1.99812e-07
2.1781e-07
3.30496e-06
6.84267e-05
1.57069e-05
0.00021619
0.00344499
0.0118732
0.0191113
0.0237913
0.0244036
0.0202963
0.00892313
0.00732004
1.09638e-06
1.54621e-07
9.48152e-06
0.00163864
0.00918052
0.00984431
0.00600453
0.00119584
3.28501e-05
0.000446692
9.03499e-06
1.06374e-06
4.04133e-08
2.97112e-07
7.92583e-07
3.47836e-07
1.72441e-07
7.93548e-07
1.70159e-05
0.000686474
0.00071384
0.00203244
0.00785366
0.0149292
0.0166869
0.0149743
0.0077059
0.000872263
1.56686e-05
1.41678e-05
1.13592e-06
1.68209e-07
1.30846e-06
1.3423e-05
0.00148333
0.00521446
0.00299068
0.000897124
0.000185392
0.00103779
1.5217e-05
1.6369e-06
2.89413e-08
1.54257e-07
2.79207e-07
2.83146e-07
2.46746e-07
3.69267e-06
0.000916301
0.00318297
0.00420968
0.00666041
0.0118261
0.0138092
0.00922824
0.00408156
0.000245842
1.05618e-05
2.22286e-06
3.36899e-06
1.6798e-06
1.76773e-07
1.1876e-07
1.62183e-06
1.50691e-05
0.000891986
0.000944051
0.000918158
0.00107806
0.00137441
3.69058e-05
4.17406e-06
9.10446e-08
9.30812e-08
2.38968e-07
2.9406e-07
5.4585e-07
9.12298e-06
0.00400782
0.011347
0.0118306
0.0118021
0.0119843
0.011497
0.00235054
5.7614e-05
8.71945e-06
8.91949e-07
8.8573e-08
1.18077e-06
2.81945e-06
3.04725e-07
1.64224e-07
1.61663e-07
1.54202e-06
1.37603e-05
0.000563046
0.00204563
0.00336784
0.00394072
0.00254813
3.27958e-06
5.75797e-07
1.77816e-07
3.6909e-07
4.14712e-07
2.50404e-06
0.00127357
0.00442415
0.00854131
0.0118178
0.0123401
0.0118118
0.00763041
6.05526e-05
7.76345e-06
4.86106e-07
6.10716e-08
1.0087e-07
1.14063e-06
6.94892e-06
8.18468e-07
4.25491e-07
2.39947e-07
1.73863e-07
1.82873e-06
1.56566e-05
0.00394418
0.00397682
0.00395309
2.3678e-05
1.96294e-06
3.92356e-07
2.92498e-07
3.78868e-07
1.43218e-06
5.47769e-05
0.00185252
0.00194314
4.25261e-05
0.0116007
0.0118388
0.0122863
0.00288467
1.43317e-05
1.10925e-06
5.57741e-08
6.69137e-08
1.01552e-07
1.18945e-06
0.00671347
3.53801e-06
9.94932e-07
5.2909e-07
2.68336e-07
2.12412e-07
7.94563e-06
0.00392053
0.00398646
0.00391032
1.09978e-05
3.40808e-06
4.25428e-07
5.12502e-07
1.21223e-06
1.34099e-05
4.40939e-05
3.8431e-05
1.96635e-05
4.41729e-06
1.55566e-05
0.0113414
0.010976
6.52959e-05
3.60554e-06
4.88792e-08
6.23744e-08
7.24993e-08
1.02154e-07
1.29581e-06
0.0127054
0.00699051
2.09661e-05
1.1323e-06
5.44261e-07
2.71439e-07
5.38068e-06
0.00390316
0.00394834
7.4656e-05
8.31901e-06
8.16876e-06
4.99288e-06
6.4505e-06
1.4907e-05
2.78952e-05
1.1959e-05
4.3776e-06
1.60243e-06
3.8057e-07
2.71395e-06
1.52908e-05
4.64531e-05
1.352e-05
1.03707e-07
8.6605e-08
7.10759e-08
7.63553e-08
1.13373e-07
1.67764e-06
0.00316927
0.0135737
0.00671611
2.11728e-05
1.12776e-06
1.03564e-06
1.90872e-06
3.32904e-05
2.60886e-05
4.57759e-06
6.77067e-06
1.83678e-05
1.72003e-05
1.65504e-05
1.85699e-05
7.4822e-06
8.91063e-07
1.98902e-07
2.5538e-08
8.49733e-08
4.7966e-07
4.94609e-06
1.1488e-05
2.35579e-07
2.26412e-07
1.39718e-07
1.08379e-07
1.17634e-07
1.58807e-07
2.5296e-06
7.97148e-05
0.0136042
0.0137028
0.00384927
2.91916e-06
2.21236e-06
3.65155e-06
1.05995e-05
4.99574e-06
2.55851e-07
1.19408e-06
8.22632e-06
7.32794e-06
5.56496e-06
3.51434e-06
7.02664e-07
2.02567e-08
4.24977e-09
5.23197e-09
4.41168e-08
3.09918e-07
1.22309e-06
2.15962e-06
7.129e-07
3.89575e-07
2.31791e-07
1.9824e-07
2.45705e-07
3.25294e-07
4.54012e-06
8.07356e-05
0.00806052
0.0138404
0.00982166
0.00182702
3.80566e-06
5.0179e-06
9.71983e-06
9.52406e-07
2.48548e-08
1.18169e-07
1.0907e-06
1.00495e-06
7.60469e-07
4.88449e-07
6.68678e-08
1.7064e-08
1.23192e-08
1.34276e-08
1.07468e-08
1.87861e-07
1.0214e-06
2.94443e-06
1.37216e-06
6.51924e-07
4.36115e-07
4.16647e-07
6.84289e-07
1.07302e-06
7.62529e-06
8.3434e-05
0.00177222
0.0132521
0.0130501
0.00553754
0.000506622
9.38809e-05
7.22913e-06
7.12067e-07
4.63341e-08
5.87773e-08
1.26099e-07
9.84081e-08
1.09431e-07
1.71279e-07
3.58434e-08
2.2249e-08
1.87976e-08
1.70648e-08
1.42259e-08
1.36012e-07
8.47273e-07
3.37359e-06
2.15075e-06
1.18666e-06
9.13485e-07
9.66785e-07
1.69039e-06
3.33317e-06
0.000328464
8.7286e-05
0.000354213
0.00623948
0.0130183
0.00822395
0.00125945
0.000312454
5.98048e-06
7.90782e-07
6.89804e-08
5.93061e-08
5.35852e-08
4.9393e-08
1.05236e-07
1.3963e-07
2.99257e-08
2.31367e-08
2.48449e-08
1.62756e-08
1.35564e-08
8.08733e-08
7.99628e-07
3.62584e-06
2.46021e-06
2.20905e-06
2.07877e-06
4.67804e-06
0.000104671
0.000255918
0.00055187
0.00070637
1.60846e-05
0.00107012
0.00897396
0.00906896
0.00227987
0.000536799
4.59363e-06
8.73903e-07
9.49516e-08
6.45849e-08
5.69007e-08
8.02457e-08
1.48926e-07
1.01491e-07
2.81267e-08
3.02227e-08
3.70291e-08
2.98234e-08
1.29636e-08
6.85624e-08
8.31083e-07
4.23388e-06
1.54167e-06
7.84354e-06
0.00032547
0.000823019
0.00123529
0.000980719
0.00118904
0.000406174
3.70164e-06
1.17079e-05
0.000993477
0.00874791
0.0036217
0.000358552
2.68873e-06
6.45792e-07
1.61388e-07
1.04634e-07
8.21523e-08
1.26946e-07
1.67624e-07
7.87325e-08
3.36497e-08
4.17037e-08
5.20503e-08
4.75134e-08
2.51348e-08
3.43168e-08
7.5976e-07
4.57305e-06
4.63075e-06
0.000391504
0.00123344
0.00126064
0.00123466
1.45978e-05
0.000717462
8.5099e-06
6.11038e-07
2.3251e-06
9.71222e-06
0.00130337
0.00353122
1.79928e-05
1.67092e-06
3.55118e-07
1.90041e-07
1.62014e-07
1.33815e-07
1.49532e-07
1.26693e-07
7.96111e-08
4.36103e-08
5.74967e-08
6.43948e-08
7.06091e-08
4.54474e-08
2.37226e-08
6.01075e-07
2.50933e-06
7.29189e-06
0.000894398
0.0012902
0.00120658
1.0602e-05
3.47193e-06
2.00666e-05
3.96436e-06
9.77915e-07
3.62406e-07
1.83473e-06
1.16811e-05
0.000377668
4.74112e-06
5.73324e-07
1.27269e-07
1.58338e-07
1.67166e-07
1.51645e-07
1.35309e-07
9.27409e-08
7.83558e-08
6.64641e-08
8.25371e-08
7.63705e-08
8.61926e-08
7.97733e-08
5.45527e-08
1.90189e-07
1.06865e-06
5.75651e-06
0.000210302
0.00123246
6.61311e-06
2.20004e-06
1.6053e-06
9.66519e-06
8.75945e-06
1.20941e-06
8.39538e-07
4.6327e-07
2.02786e-06
7.62355e-06
1.08676e-06
1.526e-07
1.15173e-07
1.17844e-07
1.38178e-07
1.27473e-07
1.0602e-07
7.31287e-08
7.48301e-08
1.077e-07
1.04789e-07
8.0999e-08
8.00905e-08
1.03756e-07
9.76607e-08
7.7859e-08
1.8454e-07
1.07255e-06
8.13828e-06
4.92492e-05
1.20215e-06
1.11766e-06
2.28328e-06
7.72744e-06
0.00163951
2.26467e-06
8.68104e-07
7.59948e-07
3.08223e-07
2.29874e-06
7.58774e-07
1.07138e-07
6.49043e-08
8.2444e-08
1.00809e-07
9.47169e-08
7.71474e-08
5.23962e-08
7.10473e-08
1.69619e-07
1.14249e-07
7.64836e-08