/*--------------------------------*- C++ -*----------------------------------*\
| =========                 |                                                 |
| \\      /  F ield         | OpenFOAM: The Open Source CFD Toolbox           |
|  \\    /   O peration     | Version:  2.3.0                                 |
|   \\  /    A nd           | Web:      www.OpenFOAM.org                      |
|    \\/     M anipulation  |                                                 |
\*---------------------------------------------------------------------------*/
FoamFile
{
    version     2.0;
    format      ascii;
    class       volScalarField;
    location    "1.45";
    object      epsilon.air;
}
// * * * * * * * * * * * * * * * * * * * * * * * * * * * * * * * * * * * * * //

dimensions      [0 2 -3 0 0 0 0];

internalField   nonuniform List<scalar> 
6000
(
119.708
17.1464
11.025
10.3654
10.1683
9.97298
9.93547
10.1691
9.95934
9.59938
9.48863
9.57928
9.8641
10.033
9.94951
9.73937
9.5561
9.4564
9.45248
9.52108
9.75612
10.5011
11.761
11.5155
10.8025
10.4365
10.4938
11.5357
19.2497
117.589
77.2579
25.5067
16.7005
14.2554
12.9488
12.1582
12.4748
13.6434
12.9756
11.7807
11.5064
11.8707
12.9188
13.2426
12.7665
12.0893
11.5867
11.4082
11.5579
11.9087
12.5494
13.4701
13.7797
14.5044
14.8786
14.0054
13.605
15.6904
25.9339
68.0371
51.3662
23.1838
16.2912
13.9818
12.884
12.5387
12.9475
13.3967
13.3106
12.6407
12.367
12.3664
12.833
13.1435
13.0353
12.7419
12.5697
12.6794
13.1047
13.5316
13.9256
14.4445
14.5442
14.5485
14.9093
15.116
14.87
16.1646
22.516
40.665
37.8189
19.4235
14.9983
13.3432
12.699
12.7861
13.3576
13.4219
13.512
13.0454
12.7901
12.9952
13.1005
13.3473
13.383
13.2957
13.2694
13.472
13.9064
14.2648
14.5199
14.6739
14.5107
14.4253
14.7304
15.3707
15.7331
16.442
19.3201
33.647
30.4389
16.311
13.5488
12.6236
12.4379
12.8797
13.7708
13.7802
13.8988
13.9418
13.7627
13.851
13.5953
13.741
13.8105
13.8098
13.841
13.928
14.0226
14.1323
14.3335
14.4477
14.2539
14.1048
14.2949
14.8126
15.568
16.8914
19.1437
34.4079
27.8192
14.2585
12.3828
12.0563
12.3606
13.2041
14.3561
14.5023
14.8401
15.6075
15.2906
14.6059
14.2184
14.2693
14.4146
14.4748
14.2955
14.0493
13.8529
13.811
13.937
14.1022
14.0943
13.9976
14.0293
14.3173
15.2135
17.3511
20.7018
39.6283
25.2195
12.8527
11.5719
11.6696
12.3971
13.7663
15.1068
15.4551
16.1281
17.4602
16.7586
15.3888
14.9851
15.1571
15.4007
15.1449
14.6521
14.2644
14.0155
13.9398
14.0166
14.1689
14.2706
14.2996
14.3151
14.4376
15.2189
17.7349
23.4253
46.9767
22.594
12.0398
11.127
11.5532
12.6518
14.4962
16.0416
16.5965
17.4199
18.5209
17.4246
16.1358
15.9277
16.3214
16.3561
15.8084
15.3029
14.9316
14.6969
14.6057
14.6465
14.7657
14.9247
15.1147
15.2751
15.3545
15.9105
18.5276
25.9174
52.3646
21.8789
12.151
11.2539
11.8852
13.351
15.5874
17.1443
17.7626
18.5289
18.9886
17.8558
17.0247
17.1139
17.4471
17.2884
16.8686
16.4555
16.1161
15.8744
15.758
15.761
15.84
16.0037
16.3024
16.732
17.1407
17.6072
20.3939
29.0035
64.104
22.8193
13.0076
12.0887
12.8832
14.5768
17.0561
18.5018
18.9535
19.5822
19.6582
18.8335
18.4505
18.7216
19.0274
18.7927
18.452
18.0946
17.757
17.4963
17.35
17.3051
17.3295
17.4545
17.7308
18.1725
18.717
19.5214
22.3512
30.0571
69.0235
26.8362
15.0946
13.8305
14.5417
16.219
18.7667
20.1945
20.4538
20.9528
21.1357
20.9319
20.7276
21.0394
21.4453
21.0706
20.6069
20.1954
19.8374
19.568
19.4279
19.3914
19.429
19.5782
19.8094
19.9627
19.9785
20.7881
23.1269
30.148
63.3404
34.8854
18.1833
16.1661
16.635
18.1556
20.5802
22.3286
22.4206
22.8666
23.6732
24.2402
23.9704
24.2071
24.526
23.9946
23.3141
22.7844
22.3725
22.1193
22.0751
22.1934
22.4127
22.7563
23.1186
23.0005
21.6541
20.965
22.7368
29.1259
48.9509
44.6184
21.8227
19.0197
19.1437
20.3968
22.5376
24.7388
24.7488
25.2352
26.9723
28.2628
27.8469
27.9675
28.0848
27.4485
26.5586
25.8536
25.3698
25.1966
25.3823
25.8477
26.4179
27.1661
27.8046
27.3018
23.4892
20.5317
20.9927
24.7242
32.2502
55.0904
26.2731
22.5072
22.1874
23.1022
24.8949
27.2579
27.3936
27.964
30.4576
32.4814
31.9482
31.9874
31.9941
31.321
30.2859
29.3725
28.8464
28.8305
29.4505
30.4474
31.4483
32.6589
33.6744
31.5448
25.2597
20.4482
18.3669
17.8565
21.0615
70.3907
32.365
26.8808
25.9517
26.5058
27.9059
30.0406
30.5393
31.4001
34.2563
36.8713
36.3646
36.2486
36.171
35.5076
34.3443
33.2591
32.6964
32.9215
34.0613
36.2855
38.2894
39.7475
40.1137
36.8821
29.8053
23.484
19.1829
16.3288
18.53
99.4257
40.6362
32.1881
30.6404
30.9757
32.0367
33.6183
34.4238
35.8251
38.6582
41.0725
41.3555
41.29
40.9479
40.0335
38.6498
37.3578
36.7347
37.055
38.9759
41.6479
43.9412
44.3749
42.508
38.504
33.5766
28.7324
23.8525
19.5145
23.6014
123.379
47.9109
38.3918
36.8573
37.3786
38.2312
38.8329
39.3319
41.1645
43.5524
45.3082
47.2149
47.5474
46.6642
45.0849
43.2209
41.5944
40.6591
40.728
41.8377
42.9222
43.2593
42.4568
40.392
37.5413
33.7755
30.4641
27.8396
27.4208
46.7534
122.93
55.648
45.2331
45.5001
47.2872
47.9593
46.656
45.8436
47.5573
48.8807
50.9445
54.4466
55.1208
53.3432
50.7148
48.1711
45.8897
43.997
42.7522
41.8192
41.8434
41.1999
39.6258
37.2653
34.7117
31.9936
29.3489
27.5978
29.0705
55.5051
105.752
57.687
53.3086
57.1217
62.1415
62.9591
57.934
54.7298
55.374
55.9708
58.5546
63.1214
63.9202
60.7124
56.6979
53.2249
49.6841
46.5688
43.5486
41.2691
40.7483
39.5318
37.0892
34.5911
32.1429
29.783
27.6171
26.39
28.3845
53.4347
75.2036
54.1132
55.7462
66.0122
78.8452
83.4339
74.0577
66.5949
65.0892
65.0632
67.9123
73.4782
73.9131
68.4468
62.3576
57.4047
52.7083
47.7464
43.3127
40.2305
39.2761
37.9046
34.8836
32.301
29.9218
27.7064
25.8185
24.8308
26.88
48.7221
66.2419
52.084
55.8115
66.6876
84.4176
94.5471
88.1089
79.7393
75.6132
74.9498
77.9785
84.8296
84.5837
75.0959
66.223
59.9266
54.0596
47.7951
42.5008
38.8161
37.3755
35.8863
32.8042
30.1883
27.887
25.7771
24.0277
23.1722
25.1317
43.2077
71.9882
53.0304
57.2389
66.9999
80.5503
89.2663
88.9441
88.6895
86.2149
83.6688
85.6902
90.9
90.2734
78.4039
68.1991
60.9806
54.1305
47.1896
41.3947
37.2701
35.3151
33.4522
30.5821
28.131
25.9301
23.8993
22.2458
21.4352
23.1613
37.599
91.2392
57.8821
59.7111
68.1598
78.4622
83.2152
85.7469
89.9472
95.2687
90.5396
89.0302
91.3303
90.0367
78.6869
68.6541
60.9721
53.6709
46.4416
40.315
35.8908
33.3604
30.984
28.3245
26.1228
24.0194
22.0906
20.4878
19.6705
21.0936
32.4343
114.248
64.9451
63.0857
70.171
79.8311
81.5827
83.8424
88.3763
94.3159
92.4434
90.2729
91.6029
90.3504
79.163
68.9855
60.8494
53.2148
45.8241
39.4684
34.8951
31.791
28.7633
26.1501
24.0213
22.0686
20.2794
18.7392
17.878
18.9617
27.6908
134.945
71.413
66.6189
72.4809
82.2234
82.1577
82.4137
85.5243
90.2795
92.5713
91.3153
92.9629
91.903
80.3841
69.6535
60.9522
52.8865
45.3292
38.9093
34.293
30.6239
27.0218
24.1772
22.0204
20.2031
18.5325
17.0565
16.1402
16.833
23.5544
151.675
76.5811
69.6628
74.0379
83.2502
83.3926
81.4506
83.2136
87.1576
91.9592
92.6998
95.0577
93.8588
81.9224
70.6513
61.4083
52.8565
45.0838
38.6766
34.0555
29.9107
25.8352
22.681
20.4224
18.6358
17.1049
15.7695
14.8557
15.2798
21.9532
164.676
81.2279
72.3258
74.4168
81.7194
83.1738
80.7195
81.815
84.9756
89.9572
93.6042
96.8514
95.1725
83.3761
72.0044
62.3705
53.3718
45.2755
38.8119
34.1233
29.5645
25.1964
21.8571
19.483
17.6855
16.2331
15.0187
14.1792
14.4849
23.0255
177.701
86.2818
75.1748
74.467
78.1324
80.8316
78.966
80.1363
82.494
87.0617
92.6662
97.0444
95.4264
84.5861
73.8783
63.9455
54.5217
46.0333
39.3182
34.3734
29.4698
25.0121
21.6431
19.1919
17.3476
15.8778
14.6429
13.8637
14.3727
26.1597
202.607
95.4802
79.7014
75.8197
75.7873
76.9653
76.1376
77.6707
79.7427
83.9099
89.8697
95.8088
95.666
86.7674
76.7831
66.587
56.4984
47.3712
40.1428
34.6831
29.5314
25.1649
21.8592
19.3965
17.4987
15.9243
14.5958
13.8315
14.7072
30.0667
227.025
105.865
85.3536
79.6893
78.2376
77.416
76.0976
77.2733
79.0459
82.8107
88.1383
94.89
97.2852
91.7237
82.196
70.9354
59.498
49.2782
41.2689
35.1907
29.907
25.6767
22.4435
19.932
17.8936
16.139
14.6785
13.9266
15.2289
32.1656
239.832
114.772
93.1815
87.3256
86.4128
84.0203
80.6092
79.981
81.4554
85.5082
90.6805
97.2361
101.235
100.134
90.7433
77.2153
63.4815
51.7223
42.7771
36.1487
30.8118
26.5893
23.2649
20.5657
18.2676
16.2956
14.7956
14.182
15.9157
33.4273
222.513
109.506
92.5791
89.5187
89.8609
89.1194
86.9748
85.6455
86.7618
90.912
96.7117
103.307
107.555
109.45
102.164
85.2548
68.1608
54.5526
44.7591
37.7129
32.1852
27.7346
24.1141
21.0768
18.5
16.4193
14.9682
14.4842
16.4194
34.427
205.221
100.308
86.246
84.3475
85.8533
87.2123
86.9407
86.6872
88.3005
92.3552
98.2606
104.954
109.617
112.127
109.045
92.3054
72.825
57.6331
47.3158
39.7427
33.6892
28.7996
24.7734
21.4147
18.6705
16.547
15.1201
14.705
16.7652
34.9484
196.364
93.3157
79.4793
77.2571
78.3881
80.4662
81.9307
83.1353
85.2702
89.0554
94.2862
99.7765
103.285
104.491
102.778
92.0593
75.0557
60.5858
49.8261
41.4414
34.8448
29.5368
25.1754
21.6083
18.7695
16.6347
15.2244
14.8827
17.058
35.1816
188.243
87.2535
73.3467
70.8259
71.4919
73.1868
74.8852
76.7471
79.2675
82.7432
87.0112
91.2697
94.3031
95.6017
94.4593
87.3116
74.0905
61.3763
50.7493
42.2109
35.3872
29.8163
25.2646
21.6109
18.7605
16.6403
15.3166
15.0655
17.3297
35.4388
180.271
81.6773
67.7926
65.1128
65.5514
67.0784
68.8955
71.0174
73.66
76.9173
80.6864
84.5838
88.0054
90.0728
89.6586
83.3807
71.6084
60.2273
50.2774
41.9989
35.1816
29.5725
25.0342
21.4341
18.6497
16.6118
15.3856
15.2203
17.6253
35.5691
172.215
76.6013
62.8665
60.1495
60.4642
61.9207
63.8221
66.099
68.8303
72.0545
75.756
79.8497
84.0269
87.1852
86.9724
79.8736
68.7108
58.1109
48.8338
40.9109
34.3198
28.9108
24.5581
21.1102
18.4547
16.5496
15.403
15.3397
17.9441
35.585
163.306
72.1143
58.5945
55.9203
56.1403
57.526
59.4589
61.8568
64.7059
68.0293
71.9284
76.4488
81.5746
85.8294
84.835
76.0299
65.3183
55.4471
46.7257
39.3003
33.0919
28.031
23.9461
20.7083
18.2308
16.4215
15.3593
15.386
18.0004
35.6971
153.293
68.1642
54.9342
52.3848
52.4685
53.739
55.6404
58.1371
61.1465
64.6617
68.8228
73.7723
79.7508
84.84
81.8053
71.8206
61.6385
52.4335
44.3505
37.4708
31.756
27.0765
23.2949
20.291
17.9418
16.2313
15.2424
15.225
17.6155
35.8777
143.128
64.5584
51.7707
49.3935
49.3283
50.4412
52.2704
54.8533
58.0336
61.7118
66.1199
71.4189
78.19
83.5587
78.0729
67.7941
58.0949
49.4775
42.0304
35.7212
30.4609
26.1566
22.6578
19.8244
17.6042
15.9786
14.9612
14.8235
17.158
35.6463
133.823
61.374
49.0589
46.8544
46.6075
47.557
49.3242
51.9727
55.2701
59.0717
63.6849
69.341
76.7294
82.2183
74.9895
64.548
55.1547
46.9924
40.0536
34.203
29.3495
25.3358
22.0219
19.343
17.2237
15.5991
14.5527
14.456
16.8067
35.1551
124.805
58.3519
46.703
44.6624
44.2326
45.0334
46.7713
49.452
52.852
56.7573
61.6397
67.7177
75.5156
81.005
73.0235
62.3413
53.0386
45.1566
38.5471
33.0308
28.4284
24.5837
21.427
18.8442
16.7529
15.1622
14.1766
14.1275
16.4869
34.5557
115.243
55.4808
44.65
42.7285
42.1298
42.853
44.6261
47.2948
50.8117
54.9317
60.1662
66.7041
74.5605
79.9096
72.0752
61.1287
51.7338
43.9742
37.5224
32.1447
27.6393
23.9111
20.8337
18.3041
16.2748
14.7571
13.8342
13.8332
16.1853
33.8928
105.364
52.9235
42.9075
40.952
40.2731
41.0152
42.9164
45.5753
49.2535
53.7359
59.4376
66.4334
74.1436
78.4421
71.4407
60.5782
51.029
43.2597
36.8298
31.3918
26.9083
23.2341
20.2251
17.7741
15.8332
14.397
13.5445
13.5861
15.9184
33.2334
93.7286
50.147
41.3735
39.2887
38.6443
39.4961
41.5592
44.3624
48.2783
53.2851
59.5199
66.8992
74.3356
77.0208
70.4838
60.0155
50.5847
42.7422
36.0759
30.5961
26.1561
22.5553
19.6367
17.2879
15.4503
14.1049
13.3203
13.3958
15.6981
32.6696
80.3734
46.6336
39.8639
37.7021
37.2466
38.294
40.6037
43.7804
48.0018
53.5702
60.3372
68.0764
75.0679
76.0483
68.8996
59.0754
50.0339
41.9172
35.1657
29.7482
25.4035
21.9107
19.1068
16.8741
15.1484
13.8922
13.1687
13.2711
15.5434
32.2588
67.1251
42.3416
37.9902
36.2007
36.0912
37.4344
40.1246
43.8666
48.3737
54.5239
61.8844
69.7831
75.8758
74.8482
66.6366
57.4202
48.6212
40.6208
34.0842
28.8475
24.6654
21.3229
18.6591
16.5573
14.9339
13.762
13.0925
13.2217
15.4812
32.0529
56.4265
38.4401
36.1912
34.9258
35.2205
36.9362
40.0581
44.3451
49.3134
56.0327
63.9015
71.7217
76.1167
72.4275
63.3997
54.61
46.2377
38.8706
32.799
27.8866
23.9458
20.7959
18.2914
16.3228
14.8061
13.7073
13.0915
13.2544
15.5172
32.0319
51.2525
36.7797
35.1424
34.0813
34.712
36.7887
40.2293
44.9388
50.5496
57.8645
66.3452
73.9492
75.6091
68.9073
59.8544
51.3184
43.577
36.9304
31.4128
26.913
23.2756
20.3519
18.0159
16.1662
14.7404
13.7221
13.174
13.3856
15.6701
32.1895
52.0217
37.7129
35.2794
33.834
34.6071
36.904
40.6036
45.6005
51.8899
59.939
69.3058
76.3921
73.9558
65.1804
56.2447
48.1184
41.0293
35.0104
30.0094
25.9049
22.5692
19.8795
17.7275
16.0308
14.7351
13.8239
13.3611
13.6358
15.9697
32.6155
58.14
41.2836
36.232
34.0527
34.7766
37.2198
41.1109
46.3598
53.1642
61.9438
72.2309
77.6345
70.844
61.3446
52.7227
45.1693
38.685
33.2049
28.6503
24.9147
21.8833
19.4454
17.5044
15.9848
14.8341
14.0406
13.6722
14.0231
16.4354
33.3407
71.5837
48.4539
38.4838
34.8159
35.277
37.7845
41.7724
47.1252
54.1172
63.2222
73.4738
75.5264
66.5195
57.4778
49.5127
42.5867
36.6432
31.6347
27.4849
24.0933
21.3522
19.1585
17.4232
16.075
15.0678
14.3939
14.1275
14.5701
17.0994
34.4361
90.4973
57.7314
41.7552
36.2801
36.2493
38.6867
42.6897
47.9912
54.7106
63.0681
71.4719
69.8774
61.8149
54.0352
46.8855
40.5048
34.9972
30.3719
26.5657
23.4796
21.0051
19.0395
17.499
16.3161
15.4492
14.8971
14.7425
15.2982
17.9966
36.0089
112.889
67.5224
45.6645
38.2823
37.6075
39.8772
43.8537
49.1068
55.4546
61.7568
66.0201
63.533
58.1209
51.7921
45.1831
39.0792
33.8166
29.4519
25.9149
23.0879
20.8515
19.094
17.7319
16.7058
15.9776
15.5552
15.5292
16.2273
19.1618
38.1832
133.649
77.3222
50.1786
40.7118
39.2607
41.242
45.2449
51.1048
57.7146
61.1922
60.9431
59.6889
57.2157
51.6399
44.7091
38.3836
33.0878
28.8412
25.4986
22.8873
20.8606
19.2935
18.1006
17.2249
16.6444
16.3731
16.5021
17.3844
20.6327
41.0604
151.289
86.5785
55.0594
43.494
41.2442
43.0305
47.1527
53.6281
59.9765
61.2195
59.8823
61.1775
59.483
53.0477
45.157
38.2595
32.6423
28.4118
25.2353
22.823
20.9563
19.5485
18.5454
17.8707
17.4822
17.3941
17.707
18.8173
22.4534
44.6916
165.734
95.4752
60.3222
46.6097
44.0987
46.3312
50.1279
54.6219
58.2676
59.5506
60.1
61.5865
59.018
53.0129
45.8614
37.9887
32.1387
27.991
25.005
22.6333
20.9814
19.8855
19.1746
18.7528
18.5816
18.6921
19.2253
20.6037
24.6918
49.1827
178.275
104.127
65.5355
50.0876
48.4307
51.0461
53.3398
55.4151
57.8133
59.6908
60.0025
58.602
54.6056
49.0339
43.1565
37.1994
31.4035
27.3996
24.4991
22.4132
21.1552
20.4543
20.0621
19.9096
19.9562
20.2895
21.1097
22.8312
27.458
54.6996
184.334
108.64
68.7674
53.7266
52.4046
54.928
56.9684
58.249
60.1141
60.0416
57.8391
54.0895
49.6302
44.6873
39.7152
35.2825
31.1848
26.7717
24.0477
22.2981
21.4593
21.2652
21.1653
21.207
21.4387
22.0996
23.3824
25.6443
30.9871
61.3889
180.939
106.028
71.8322
58.4711
56.0892
57.787
59.972
61.5099
61.0224
58.1091
53.7892
49.4393
45.0833
40.7038
36.5254
32.8737
29.6326
25.488
23.3629
22.0569
21.6976
21.9473
22.0387
22.1484
22.6909
23.9699
26.092
29.388
35.8674
70.2617
167.905
97.0517
76.0613
65.4201
62.05
62.8677
63.5797
62.2283
58.9182
54.2973
49.6851
45.3058
41.1199
37.1292
33.484
30.3543
27.6937
24.9789
22.4584
21.566
21.6515
21.9492
22.0344
22.487
23.6428
25.8391
29.4003
34.7863
43.5367
83.2461
165.212
87.4511
77.4115
70.1716
68.1378
66.5191
63.3299
59.5564
55.1085
50.5062
46.0086
41.7249
37.7152
34.0391
30.791
28.1009
26.0122
24.2164
22.4682
21.0532
21.1672
21.3652
21.8167
22.5481
24.3001
27.6396
33.5569
42.946
55.6312
98.808
173.294
83.0306
72.2511
68.4156
67.1791
64.2305
59.8968
55.5113
51.1779
46.7807
42.5006
38.4511
34.6949
31.3107
28.3755
25.9756
24.238
22.92
21.6096
20.5259
20.6297
20.0254
20.4926
21.8963
24.5189
29.3766
38.301
53.4169
72.6448
144.278
174.805
79.1666
65.8077
63.2818
62.1832
58.9633
54.9612
50.905
46.8123
42.7458
38.8719
35.2386
31.8417
28.7534
26.0612
23.8404
22.1691
20.8683
19.9405
19.4105
18.6171
18.2008
18.9835
20.9833
24.6133
31.016
42.5764
61.3908
85.3605
211.842
165.442
72.0364
59.1776
56.5515
55.1503
52.4958
49.0904
45.4572
41.8119
38.2924
34.9715
31.8611
28.9285
26.1766
23.701
21.6513
19.9963
18.8484
18.4705
17.8916
17.0157
17.1926
18.2822
20.8537
25.4517
33.3982
46.2512
66.889
103.544
285.13
144.043
63.9818
52.1418
49.1674
47.4764
45.2267
42.4396
39.4163
36.3813
33.4678
30.7308
28.1895
25.7692
23.4133
21.2493
19.3627
17.8412
17.0329
16.8196
16.1041
16.0303
16.5948
18.3039
21.7017
27.6904
37.6849
53.2023
80.6843
134.882
339.47
117.03
55.5142
45.0897
41.8513
39.999
38.0409
35.7742
33.3253
30.8511
28.4636
26.2281
24.202
22.2931
20.3972
18.6384
16.9773
15.7217
15.2368
14.694
14.5918
15.0528
16.3504
18.9628
23.6717
31.7837
45.0635
66.4105
105.522
177.745
357.271
93.097
48.2267
38.866
35.4859
33.4905
31.6477
29.6746
27.6091
25.5409
23.5676
21.7815
20.1463
18.6273
17.1761
15.7999
14.4936
13.6106
13.0541
12.8603
13.2932
14.4272
16.6328
20.5101
27.2317
38.5093
56.6405
85.9854
136.965
206.443
347.343
73.016
41.2606
33.3569
30.0935
28.0147
26.1812
24.3377
22.4926
20.7021
19.0704
17.6049
16.2458
15.0297
13.9387
12.9502
12.0473
11.4863
11.2047
11.5345
12.5066
14.4545
17.8102
23.5895
33.3155
49.0856
73.4576
110.229
163.507
207.248
317.816
56.3959
34.2998
28.2526
25.3825
23.3431
21.5134
19.7457
18.0463
16.483
15.0814
13.8219
12.7222
11.7897
11.0177
10.3934
9.95621
9.7501
9.94076
10.7272
12.42
15.4009
20.5352
29.1818
43.1945
64.7742
95.2718
135.776
173.702
195.041
281.262
42.921
27.6982
23.4691
21.146
19.2598
17.4943
15.8003
14.2633
12.8625
11.6041
10.5554
9.71025
9.04383
8.55418
8.26548
8.21811
8.40334
9.08736
10.5566
13.221
17.8609
25.7467
38.6098
58.4378
86.3518
120.833
155.096
166.744
169.662
244.21
32.137
21.7578
19.0393
17.2858
15.6314
13.9786
12.4603
11.0503
9.74233
8.64441
7.80208
7.18459
6.75705
6.52404
6.53028
6.80112
7.47266
8.80905
11.1916
15.398
22.6437
34.6507
53.4211
80.5408
114.178
147.995
159.079
147.997
144.925
207.77
23.6339
16.6051
15.023
13.773
12.348
10.9465
9.61513
8.27138
7.08976
6.17683
5.53304
5.12479
4.93217
4.95957
5.22675
5.87957
7.11018
9.25285
13.01
19.5981
30.7674
48.7675
75.6479
110.961
149.122
170.273
152.447
128.542
124.293
172.738
17.0797
12.3007
11.4538
10.5395
9.46987
8.32819
7.06704
5.86556
4.88528
4.18022
3.74735
3.56129
3.59896
3.86683
4.45694
5.51877
7.40536
10.6868
16.4839
26.5751
43.4614
69.834
107.333
151.266
187.099
176.544
137.401
112.005
107.695
138.702
12.0371
8.73513
8.29646
7.76147
6.96897
5.90969
4.80688
3.84136
3.1195
2.67507
2.48889
2.51982
2.75731
3.30111
4.2301
5.76234
8.51789
13.4211
22.1181
37.1948
62.1088
100.012
150.05
202.43
215.299
169.864
121.846
99.5881
94.6321
107.29
8.39902
5.9917
5.80021
5.4253
4.67449
3.78059
2.93039
2.28081
1.89154
1.74431
1.77763
1.97616
2.4214
3.21831
4.54288
6.73416
10.6768
17.7787
30.4697
52.3854
88.0545
140.777
203.597
248.722
215.598
153.175
110.954
94.2439
84.1532
84.7988
5.80114
4.01897
3.84553
3.44643
2.81488
2.15142
1.64146
1.37269
1.31143
1.36247
1.53393
1.8731
2.47449
3.5402
5.42723
8.61239
14.1423
24.1503
42.114
72.9937
122.421
190.481
261.956
266.104
201.18
138.558
108.763
93.654
74.2602
75.0593
3.93194
2.65323
2.40023
2.0137
1.55415
1.21149
1.07954
1.08826
1.1789
1.34822
1.60971
2.04749
2.82507
4.2621
6.88064
11.396
19.1074
32.9123
57.5834
99.4856
164.397
243.712
294.879
253.634
179.049
131.369
110.807
89.7346
66.8848
74.665
2.69986
1.7677
1.43861
1.1383
0.954247
0.930729
0.988055
1.10328
1.26293
1.49928
1.86497
2.45953
3.48464
5.3605
8.84627
15.0066
25.5143
44.2337
77.2489
132.079
207.831
287.253
289.831
226.571
162.677
129.824
110.78
83.558
62.55
75.7681
1.90661
1.19064
0.900738
0.82512
0.862029
0.955947
1.07442
1.22981
1.43961
1.74721
2.23666
3.05142
4.44645
6.90065
11.3765
19.4536
33.3056
57.8981
100.604
166.761
246.344
292.811
265.03
200.986
152.515
129.713
108.336
78.8326
60.2246
76.7153
1.35624
0.841897
0.772046
0.837661
0.958265
1.08933
1.22754
1.4032
1.65661
2.05212
2.69859
3.80376
5.70752
8.97302
14.708
24.9406
42.8882
74.1885
127.709
201.104
265.465
274.602
233.129
180.277
145.616
128.046
104.134
75.3004
58.8367
76.8844
1.13371
0.764809
0.831291
0.982016
1.11595
1.23919
1.38407
1.58766
1.90059
2.40405
3.25434
4.71413
7.2492
11.5514
18.9112
31.6576
54.2234
93.6128
154.81
223.018
257.493
246.513
206.402
164.552
139.561
123.984
99.773
72.8775
58.138
77.1649
1.17081
0.835977
0.995258
1.13323
1.24478
1.3658
1.52878
1.77394
2.164
2.80681
3.89778
5.7774
9.01437
14.4985
23.6798
39.2565
66.4161
112.5
171.708
221.847
240.455
223.159
186.526
152.526
132.924
118.131
95.7255
71.5036
58.2297
78.2499
1.46296
1.0546
1.1482
1.24401
1.34037
1.46739
1.65745
1.95583
2.43947
3.24591
4.61048
6.94172
10.8865
17.5123
28.5233
47.0059
78.2979
124.483
175.749
214.237
225.617
205.87
172.128
142.939
125.967
112.106
92.6513
71.4842
59.3946
80.7463
1.93038
1.28531
1.27502
1.32539
1.41157
1.55171
1.77537
2.13324
2.71724
3.69124
5.33497
8.10112
12.7119
20.3178
32.8571
53.7379
86.2887
127.562
171.92
206.533
212.948
192.478
161.291
135.171
119.62
107.117
91.0618
73.0042
62.1821
85.6052
2.26938
1.47492
1.38001
1.39787
1.47614
1.63299
1.89133
2.30702
2.9842
4.10889
5.99305
9.13135
14.2808
22.6358
36.1755
58.0393
87.5143
122.669
163.743
195.172
198.789
179.942
152.096
128.791
114.542
103.786
91.2448
76.5738
67.1141
94.4677
2.55973
1.60661
1.47209
1.47327
1.55051
1.72214
2.01107
2.47696
3.23204
4.47557
6.53687
9.92902
15.4212
24.1711
38.0219
58.4786
83.5876
113.293
150.902
177.854
181.123
166.279
143.092
123.196
110.683
101.967
92.8008
82.0516
74.4651
109.021
2.83564
1.69768
1.56478
1.56385
1.64316
1.82647
2.14009
2.6464
3.46204
4.79092
6.96012
10.4669
16.0412
24.7289
38.055
56.037
78.0141
105.153
137.873
159.398
162.485
151.86
133.864
117.793
107.451
101.048
95.5652
89.0148
83.8124
127.657
3.02458
1.80869
1.66042
1.66739
1.75631
1.95231
2.28354
2.81616
3.67123
5.05108
7.26014
10.7389
16.1157
24.3473
36.4399
52.9618
74.4199
100.89
128.848
144.356
146.305
138.512
124.85
112.311
104.241
100.184
98.4327
96.6752
94.2992
147.563
3.17596
1.91228
1.76648
1.78247
1.89097
2.10781
2.46549
3.01925
3.8946
5.298
7.51695
10.9442
16.093
23.7342
34.7912
50.2735
71.1065
96.2638
121.13
132.621
133.317
127.071
116.45
106.729
100.759
98.9194
100.724
104.192
104.78
166.603
3.48131
2.07022
1.90597
1.91673
2.04679
2.30016
2.69558
3.30061
4.22658
5.6611
7.87821
11.2378
16.1801
23.3557
33.5355
47.6656
66.9547
89.8491
111.953
121.93
122.175
117.047
108.687
101.154
97.0344
97.1699
102.076
110.821
114.141
181.991
3.99391
2.28083
2.06014
2.06514
2.20877
2.47938
2.90074
3.54923
4.54602
6.06406
8.34012
11.6806
16.4789
23.23
32.5649
45.3458
62.4802
82.3402
101.307
110.985
111.861
107.849
101.376
95.6333
93.0912
94.8305
102.299
115.816
121.718
192.122
4.4579
2.48536
2.19923
2.20267
2.35457
2.64652
3.10909
3.81838
4.89599
6.50806
8.87015
12.2449
16.9667
23.4236
32.0711
43.5319
58.3136
74.943
90.57
100.15
102.169
99.3475
94.493
90.2269
88.9448
91.9617
101.481
118.584
126.869
197.226
4.83391
2.65678
2.31346
2.32583
2.50939
2.84845
3.37772
4.1751
5.36354
7.10703
9.61528
13.0839
17.811
24.0564
32.1364
42.4562
54.7399
67.9817
80.8053
90.2953
93.3741
91.6686
88.112
85.0565
84.7148
88.6259
99.3598
118.868
129.761
199.626
5.16026
2.72799
2.42177
2.46722
2.6958
3.09511
3.70656
4.61357
5.94782
7.89925
10.6411
14.2867
19.1332
25.314
32.9568
42.0208
51.7829
62.0475
73.0498
82.2241
85.9059
85.0314
82.3518
80.2151
80.543
85.0352
96.3735
117.745
130.375
199.593
5.42391
2.80843
2.53886
2.62969
2.9107
3.37809
4.0814
5.10742
6.59339
8.74779
11.8129
15.8507
20.9624
27.235
34.3812
41.8923
49.4946
57.9627
67.8848
76.5653
80.2558
79.6589
77.337
75.7509
76.5303
81.3658
92.9028
115.081
128.812
196.611
5.65102
2.95061
2.68243
2.81038
3.14791
3.68828
4.4897
5.6354
7.25197
9.56328
12.8831
17.3766
22.833
28.9422
35.257
41.4142
47.9287
56.0227
65.6835
73.7588
76.7972
75.6762
73.1088
71.6637
72.6869
77.6708
89.0917
111.142
125.056
191.055
6.03244
3.1216
2.84419
3.00222
3.39366
4.00445
4.90027
6.1485
7.86097
10.2561
13.6718
18.0804
23.3829
28.7742
34.1129
39.6431
46.5285
55.4764
65.7753
73.3532
75.2614
72.8945
69.5603
67.888
68.9517
73.9425
85.0481
106.217
119.107
182.271
6.41565
3.30596
3.01785
3.20203
3.64192
4.31572
5.27483
6.55754
8.25853
10.5838
13.675
17.5608
22.0445
26.7951
31.7933
37.4373
44.5392
54.0293
65.1321
72.8258
74.0046
70.4747
66.3172
64.2809
65.2558
70.1616
80.7806
100.434
111.229
170.333
6.68873
3.50237
3.2084
3.4182
3.89939
4.54952
5.36037
6.46089
7.99858
10.1193
12.8543
16.0957
19.8286
23.9477
28.3603
33.4164
40.0695
49.2366
60.1176
68.8784
70.7291
67.1978
62.8654
60.6878
61.5798
66.3229
76.2313
93.6854
101.673
155.835
6.99282
3.75761
3.41542
3.58818
3.95088
4.46995
5.13707
6.03293
7.28557
8.98805
11.1426
13.6867
16.6113
19.9976
24.0118
28.9424
35.1849
43.1011
52.4635
61.4886
65.0885
62.813
59.07
57.0841
57.9427
62.3895
71.2785
85.7903
90.7979
139.568
7.36374
3.94656
3.53329
3.62831
3.87167
4.23088
4.74413
5.44818
6.40467
7.68006
9.31641
11.3507
13.8563
16.9464
20.7621
25.5107
31.3296
38.2677
46.0561
54.2362
59.2363
58.4183
55.3595
53.5626
54.3017
58.2043
65.6381
76.6393
79.2496
122.821
7.92095
4.07411
3.60403
3.57324
3.71993
3.98781
4.37295
4.90599
5.63312
6.61578
7.92079
9.62822
11.8489
14.7345
18.4484
23.1029
28.7258
35.1009
41.7186
49.0629
55.4213
55.7197
52.4692
50.3186
50.6271
53.6466
59.1408
66.6486
68.0024
107.045
8.39063
4.21419
3.5892
3.5
3.58718
3.78393
4.0801
4.49382
5.06502
5.8502
6.92195
8.39663
10.4146
13.149
16.757
21.2815
26.5743
32.3237
38.4012
45.8782
53.9633
55.3904
50.9671
47.5712
47.0342
48.8376
52.1312
56.8726
58.0791
93.4953
8.23785
4.18142
3.55422
3.44532
3.5025
3.65333
3.88608
4.21539
4.67521
5.31909
6.22795
7.51255
9.32166
11.808
15.0676
19.0962
23.7305
28.8032
34.7328
42.4468
51.6921
55.2804
50.3503
45.29
43.6312
44.0253
45.4009
48.3733
50.0009
82.7272
7.80251
4.08835
3.53786
3.43154
3.46958
3.58856
3.77689
4.04532
4.42282
4.95696
5.71897
6.80709
8.3374
10.4116
13.1025
16.444
20.4148
25.0339
30.6191
37.6521
46.479
52.915
49.3193
43.1407
40.4847
39.5464
39.5331
41.4402
43.5805
74.5318
7.72711
4.09268
3.56187
3.45199
3.47905
3.57894
3.73643
3.95921
4.26973
4.70574
5.32298
6.19521
7.41213
9.0685
11.2529
14.0347
17.4656
21.6206
26.654
32.7683
40.1348
47.4567
47.1684
40.7341
37.649
35.6062
34.5831
35.7151
38.2478
67.9018
7.81663
4.16712
3.62567
3.50802
3.52583
3.61246
3.75073
3.94083
4.19592
4.54587
5.03377
5.71921
6.67902
8.00345
9.78759
12.1234
15.0884
18.7494
23.155
28.2672
34.1629
41.0156
43.8059
38.1879
34.9488
32.1473
30.3619
30.8191
33.6048
62.1427
8.06156
4.28757
3.71786
3.59374
3.60927
3.69113
3.8165
3.98284
4.19931
4.48237
4.86699
5.40431
6.16067
7.21931
8.67552
10.6259
13.1484
16.283
20.0166
24.2688
29.0379
34.6467
38.9082
35.4998
32.127
29.0489
26.7932
26.6582
29.4504
55.9828
8.35254
4.42246
3.82916
3.70348
3.7242
3.81219
3.939
4.09421
4.28019
4.51431
4.82132
5.23977
5.83152
6.66977
7.84178
9.43759
11.5268
14.1359
17.2449
20.7931
24.6989
29.0376
33.1666
32.6763
29.5878
26.3276
23.7405
23.2886
26.1434
49.6281
8.67641
4.57052
3.95667
3.83494
3.86954
3.9757
4.11906
4.28124
4.4545
4.64625
4.88587
5.21236
5.66544
6.31418
7.23346
8.50356
10.1892
12.3166
14.8711
17.8123
21.057
24.466
27.8912
29.3759
27.2228
23.7738
21.3022
20.8902
23.7276
44.9794
9.02744
4.7302
4.09739
3.98511
4.04328
4.18242
4.36226
4.55285
4.73103
4.89443
5.07037
5.3064
5.65041
6.13346
6.8267
7.79907
9.1111
10.7921
12.8424
15.2456
17.9701
20.9189
23.8592
25.9078
24.7999
21.6901
19.5101
19.2721
22.0532
41.705
9.39739
4.89899
4.24741
4.14907
4.24096
4.43079
4.67395
4.92532
5.13355
5.27325
5.38718
5.53782
5.76738
6.11382
6.60015
7.29819
8.26284
9.5301
11.1081
13.0017
15.215
17.6864
20.2293
22.1218
21.9998
19.6765
17.9817
17.7942
19.9153
34.4176
9.78463
5.07505
4.40224
4.31951
4.45352
4.7164
5.06605
5.43599
5.70689
5.81318
5.84306
5.91004
6.03647
6.22379
6.51741
6.94941
7.57867
8.46553
9.61228
11.0245
12.7122
14.6073
16.4556
18.0111
18.4282
16.9755
15.7362
15.3999
16.7095
24.6919
10.2087
5.2601
4.55713
4.48689
4.66618
5.01387
5.50071
6.08076
6.49793
6.56697
6.46232
6.45159
6.47469
6.46864
6.51551
6.66751
6.99887
7.54336
8.3092
9.27449
10.4556
11.7979
13.1422
14.212
14.5134
13.7169
12.882
12.4247
12.9383
17.3552
10.7002
5.45523
4.70804
4.64182
4.85746
5.288
5.89351
6.65929
7.32005
7.40879
7.26074
7.26307
7.19544
6.8939
6.60328
6.47502
6.52455
6.77869
7.21583
7.8028
8.56959
9.51281
10.5069
11.018
11.0585
10.6637
10.1537
9.66814
9.61888
12.6394
11.2585
5.65703
4.85788
4.78917
5.02369
5.48668
6.15051
6.97594
7.67186
8.02533
8.09446
8.32548
8.16906
7.52635
6.90305
6.47574
6.2685
6.2528
6.40401
6.69634
7.13522
7.76296
8.3749
8.53652
8.42749
8.2121
7.85595
7.43115
7.26476
10.2173
11.8669
5.86777
5.02002
4.95025
5.19509
5.64566
6.28896
7.01095
7.68839
8.16763
8.81958
9.49087
9.22807
8.43736
7.47651
6.73525
6.26432
5.98719
5.90243
5.9534
6.12327
6.4391
6.72745
6.70269
6.5479
6.40523
6.09051
5.71459
5.66428
8.66967
12.5459
6.0965
5.20793
5.15246
5.4209
5.93847
6.5237
7.11143
7.87502
8.50039
9.09324
9.74692
9.44754
8.96504
8.28432
7.36268
6.49987
5.98611
5.66307
5.51696
5.46431
5.49171
5.54006
5.41349
5.2487
5.14264
4.89073
4.53479
4.56437
7.31625
13.2637
6.31982
5.40474
5.38376
5.72097
6.17114
6.6227
7.1811
8.09734
8.95564
9.38627
9.69628
9.42006
9.06077
8.78985
8.15544
7.00436
6.11656
5.62042
5.29875
5.07034
4.91538
4.79323
4.5947
4.40694
4.29231
4.1646
3.90092
3.97791
6.41218
13.2718
6.52199
5.66397
5.63974
5.87203
6.16496
6.53406
7.07931
7.88754
8.98628
9.88504
10.0419
9.70628
9.23871
8.78856
8.22694
7.18155
6.23846
5.71331
5.35021
5.03725
4.74445
4.4387
4.15613
3.93762
3.84414
3.79078
3.66608
3.79339
6.07441
14.1375
6.97189
5.92385
5.72452
5.83499
6.08175
6.39828
6.8363
7.52633
8.56294
9.91897
10.255
9.98338
9.43959
8.71444
7.9107
6.95566
6.17036
5.72652
5.36842
5.00437
4.63407
4.27733
3.96979
3.75984
3.67067
3.63852
3.61944
3.78457
6.10631
15.3034
7.2195
5.94587
5.65884
5.67682
5.86035
6.17185
6.62729
7.28419
8.18574
9.39521
10.1628
9.8842
9.35915
8.45269
7.54305
6.71517
6.02686
5.62576
5.2583
4.86678
4.46767
4.1218
3.86366
3.68021
3.58172
3.5527
3.59566
3.82653
6.41727
14.8829