/*--------------------------------*- C++ -*----------------------------------*\
| =========                 |                                                 |
| \\      /  F ield         | OpenFOAM: The Open Source CFD Toolbox           |
|  \\    /   O peration     | Version:  2.3.0                                 |
|   \\  /    A nd           | Web:      www.OpenFOAM.org                      |
|    \\/     M anipulation  |                                                 |
\*---------------------------------------------------------------------------*/
FoamFile
{
    version     2.0;
    format      ascii;
    class       volScalarField;
    location    "1.45";
    object      k.air;
}
// * * * * * * * * * * * * * * * * * * * * * * * * * * * * * * * * * * * * * //

dimensions      [0 2 -2 0 0 0 0];

internalField   nonuniform List<scalar> 
6000
(
0.823004
0.912259
0.952441
0.984963
0.998838
0.998701
1.00185
1.01692
1.00794
0.992018
0.987798
0.993746
1.00874
1.01787
1.01452
1.00526
0.996429
0.991059
0.990717
0.994034
1.0057
1.04508
1.11014
1.0947
1.04849
1.0144
0.988278
0.955377
0.90472
0.813474
0.61519
0.924964
1.03901
1.09808
1.11213
1.11097
1.14662
1.21587
1.19146
1.13815
1.12902
1.15134
1.20865
1.22904
1.2077
1.1737
1.14765
1.13856
1.14618
1.16334
1.1945
1.23693
1.24182
1.26263
1.25731
1.17232
1.0657
0.96545
0.840669
0.564279
0.468812
0.835787
0.977144
1.05271
1.09204
1.1266
1.17851
1.21973
1.23102
1.21092
1.20558
1.21085
1.23696
1.25705
1.25691
1.24535
1.23808
1.24394
1.26419
1.28243
1.29649
1.31279
1.30382
1.28341
1.26869
1.21981
1.10048
0.950709
0.747976
0.399681
0.382201
0.732201
0.898759
0.999994
1.07037
1.13806
1.20832
1.23818
1.26469
1.25965
1.25907
1.27808
1.28739
1.30421
1.31007
1.30904
1.30891
1.31819
1.33674
1.34884
1.35296
1.34849
1.32327
1.29363
1.27074
1.23841
1.14524
0.982129
0.742289
0.351871
0.330671
0.666532
0.842588
0.96232
1.05622
1.14821
1.24207
1.27887
1.31072
1.33533
1.34237
1.35605
1.34668
1.35866
1.3662
1.36845
1.36986
1.37128
1.37029
1.36695
1.36552
1.3564
1.32725
1.2935
1.26356
1.22429
1.15485
1.0328
0.789344
0.357132
0.311415
0.628105
0.807503
0.942174
1.05917
1.17569
1.28803
1.33795
1.3867
1.44963
1.45258
1.42737
1.41215
1.41945
1.43014
1.43413
1.42274
1.40479
1.3863
1.37353
1.36632
1.3573
1.33492
1.30104
1.26306
1.21613
1.15861
1.07738
0.87499
0.392402
0.291871
0.600277
0.787023
0.935829
1.07423
1.22078
1.34647
1.41045
1.47907
1.5715
1.557
1.49827
1.48342
1.49715
1.51216
1.49817
1.46873
1.44164
1.41887
1.40156
1.38865
1.37599
1.35703
1.32776
1.28576
1.22975
1.16922
1.10619
0.94995
0.440104
0.271134
0.583548
0.784074
0.948075
1.10911
1.2817
1.41877
1.49421
1.57162
1.65273
1.61893
1.56536
1.56156
1.58663
1.58984
1.55962
1.52828
1.5008
1.47683
1.45639
1.43876
1.42093
1.40038
1.37477
1.33755
1.27817
1.20483
1.13887
1.00432
0.472646
0.265055
0.585443
0.804851
0.99004
1.17354
1.36599
1.50286
1.5808
1.65523
1.70437
1.66827
1.63805
1.65025
1.67117
1.66344
1.63879
1.6109
1.58313
1.55632
1.53141
1.50768
1.48257
1.4556
1.42771
1.39538
1.34432
1.25972
1.18724
1.04704
0.541178
0.272279
0.61654
0.863774
1.06791
1.26534
1.47035
1.60091
1.66976
1.73681
1.76662
1.74557
1.73741
1.75792
1.77594
1.76288
1.74091
1.7146
1.68537
1.65528
1.62533
1.59405
1.55909
1.52087
1.48031
1.43542
1.3762
1.28876
1.1963
1.03738
0.570623
0.302671
0.692575
0.958172
1.17192
1.37517
1.58481
1.71432
1.7738
1.83386
1.86905
1.87605
1.87595
1.8969
1.91759
1.89637
1.86739
1.83754
1.80613
1.77355
1.74022
1.70341
1.66019
1.61061
1.55188
1.47562
1.37451
1.27096
1.15907
0.990781
0.539455
0.360387
0.799578
1.07422
1.29201
1.49466
1.7008
1.84575
1.89823
1.95486
2.01716
2.05728
2.05423
2.06989
2.08422
2.05514
2.01582
1.98016
1.94545
1.9118
1.87932
1.84336
1.7983
1.74249
1.66961
1.5593
1.3845
1.20864
1.06104
0.865036
0.45541
0.424731
0.922381
1.20522
1.42453
1.62232
1.81881
1.9859
2.03622
2.09345
2.19401
2.26259
2.25272
2.26122
2.26497
2.23162
2.18368
2.14059
2.10237
2.07071
2.04497
2.01778
1.97775
1.92395
1.84289
1.69789
1.42126
1.1305
0.920603
0.676241
0.344921
0.489041
1.05362
1.35036
1.57079
1.76271
1.94835
2.12575
2.18359
2.24336
2.37226
2.46747
2.45183
2.45491
2.45288
2.41913
2.3668
2.31593
2.27604
2.24956
2.23864
2.22643
2.19426
2.14587
2.06405
1.85474
1.49045
1.13577
0.847127
0.538442
0.259053
0.574457
1.20907
1.51369
1.73337
1.92142
2.09676
2.2691
2.34501
2.41659
2.55584
2.67025
2.65485
2.65023
2.64419
2.61232
2.55742
2.50136
2.46031
2.44206
2.44768
2.47457
2.46796
2.41475
2.30184
2.06081
1.67934
1.28221
0.912182
0.540154
0.237017
0.724193
1.39998
1.69053
1.91255
2.10546
2.2766
2.43281
2.52577
2.6196
2.7537
2.85707
2.87103
2.86763
2.85163
2.8121
2.75162
2.68959
2.64645
2.62978
2.65949
2.69393
2.68973
2.59866
2.4139
2.15139
1.84542
1.51365
1.1384
0.686253
0.277658
0.837897
1.54305
1.86168
2.11453
2.33311
2.51132
2.64289
2.7322
2.84442
2.95982
3.03802
3.10992
3.12055
3.08639
3.02545
2.9502
2.87742
2.82219
2.79287
2.78909
2.7646
2.69138
2.55878
2.36966
2.1462
1.88808
1.61555
1.31081
0.944526
0.43747
0.838092
1.5988
1.9831
2.34614
2.63669
2.83316
2.9224
2.97825
3.09229
3.17252
3.26302
3.38763
3.40935
3.34738
3.25394
3.15755
3.06219
2.97045
2.89049
2.80737
2.74268
2.63777
2.48324
2.28962
2.08021
1.85128
1.60278
1.33287
1.01318
0.492438
0.76161
1.52029
2.09078
2.60569
3.03505
3.26683
3.2807
3.28152
3.37314
3.43766
3.54816
3.70367
3.7285
3.62446
3.4899
3.36445
3.22458
3.08712
2.93839
2.79997
2.71185
2.58658
2.40603
2.21243
2.00917
1.79468
1.56364
1.30953
1.00112
0.480396
0.606189
1.33263
2.07688
2.79028
3.43485
3.79537
3.73748
3.65602
3.70037
3.75862
3.88034
4.06204
4.07456
3.90712
3.71147
3.53816
3.35708
3.15073
2.94513
2.76999
2.66168
2.52947
2.33035
2.13715
1.93862
1.73006
1.50742
1.26109
0.959115
0.452017
0.554828
1.32972
2.09519
2.82487
3.5889
4.0829
4.11645
4.04669
4.03905
4.09396
4.22463
4.43844
4.43223
4.1523
3.87194
3.65274
3.42853
3.1704
2.92664
2.72231
2.59152
2.45281
2.25117
2.05843
1.86444
1.66038
1.44223
1.19971
0.897547
0.417356
0.585168
1.44905
2.21956
2.89682
3.53806
3.98391
4.17499
4.3201
4.37121
4.38502
4.48911
4.65414
4.63889
4.29178
3.96723
3.71357
3.45079
3.16207
2.89276
2.66632
2.51207
2.35679
2.16089
1.97434
1.78507
1.58461
1.37052
1.13114
0.831626
0.380492
0.684561
1.64517
2.38507
3.02397
3.56195
3.89223
4.13393
4.39791
4.65583
4.6144
4.6197
4.70306
4.66793
4.33158
4.00699
3.73292
3.44902
3.14389
2.85635
2.61417
2.43472
2.25695
2.0659
1.88728
1.70171
1.506
1.29571
1.06049
0.769493
0.344834
0.79593
1.83508
2.55208
3.1674
3.68141
3.91656
4.13671
4.39209
4.66172
4.69874
4.68627
4.74224
4.70652
4.3701
4.03641
3.74271
3.4424
3.12677
2.82636
2.57594
2.3727
2.16663
1.97353
1.7946
1.61362
1.42409
1.2191
0.988209
0.70583
0.310353
0.889986
2.00344
2.70571
3.30422
3.82311
4.00035
4.15104
4.35977
4.58958
4.7334
4.74573
4.81163
4.77728
4.42696
4.07253
3.75646
3.43709
3.11191
2.80682
2.55445
2.32868
2.09749
1.89124
1.70762
1.53018
1.34577
1.14696
0.922475
0.651138
0.2786
0.962704
2.14339
2.8342
3.40755
3.91927
4.09455
4.17362
4.33513
4.53578
4.74136
4.81052
4.89512
4.85502
4.49115
4.11756
3.78062
3.44137
3.10583
2.80035
2.54904
2.30561
2.05459
1.83326
1.64293
1.46511
1.28667
1.09689
0.881468
0.625347
0.265777
1.01728
2.25422
2.93542
3.46425
3.93145
4.13944
4.19584
4.33135
4.50503
4.71101
4.85935
4.96808
4.91437
4.55327
4.1744
3.82217
3.46558
3.11714
2.80985
2.55796
2.30024
2.03853
1.80981
1.61438
1.43605
1.26178
1.07974
0.874585
0.631332
0.274334
1.06992
2.3574
3.02265
3.49422
3.88005
4.1164
4.18479
4.3176
4.46265
4.65184
4.8511
4.9959
4.94495
4.60974
4.24867
3.88492
3.51305
3.15103
2.83578
2.57642
2.30757
2.04502
1.81756
1.62099
1.44239
1.26905
1.08803
0.887952
0.653646
0.298624
1.1672
2.50036
3.12583
3.53652
3.8431
4.05387
4.14711
4.28287
4.41405
4.58815
4.79648
4.98356
4.97671
4.69652
4.35538
3.98267
3.58996
3.20797
2.87654
2.60015
2.32457
2.06944
1.84856
1.65488
1.47681
1.30121
1.11794
0.919897
0.688224
0.327606
1.25765
2.60417
3.21183
3.62177
3.91761
4.09181
4.17514
4.30216
4.42517
4.58813
4.77733
4.98755
5.05198
4.86585
4.53806
4.13489
3.70273
3.28778
2.93197
2.63529
2.3581
2.11257
1.89889
1.70717
1.52626
1.34503
1.15654
0.957083
0.723885
0.342706
1.30875
2.69356
3.33619
3.77813
4.1236
4.29167
4.33959
4.41691
4.52953
4.69851
4.87975
5.08148
5.19054
5.1286
4.80948
4.34655
3.85004
3.3898
3.00538
2.69148
2.41547
2.17326
1.959
1.76215
1.57187
1.38151
1.18912
0.989279
0.754424
0.351658
1.2462
2.62216
3.32086
3.81675
4.19045
4.41321
4.51747
4.58887
4.69861
4.87143
5.07137
5.27091
5.38071
5.40418
5.15594
4.61103
4.02292
3.50925
3.09987
2.77364
2.49258
2.24335
2.01842
1.80794
1.60521
1.40825
1.214
1.01195
0.771299
0.358631
1.1801
2.5008
3.18378
3.67544
4.06215
4.33995
4.5001
4.60831
4.73681
4.90941
5.11246
5.31514
5.43991
5.48762
5.36633
4.84873
4.20114
3.64182
3.21791
2.87445
2.57433
2.30824
2.06639
1.84118
1.62947
1.42787
1.23062
1.02639
0.782521
0.36222
1.14588
2.39499
3.02744
3.4787
3.83771
4.12302
4.32876
4.48364
4.63092
4.79898
4.98599
5.16
5.26054
5.28288
5.211
4.87131
4.30604
3.77218
3.33406
2.96133
2.64036
2.35696
2.09993
1.86407
1.64603
1.44131
1.24197
1.03758
0.791809
0.363825
1.11428
2.29155
2.87512
3.29152
3.62339
3.89084
4.10007
4.27341
4.43458
4.5984
4.76422
4.91198
5.00911
5.04371
4.99431
4.75566
4.30324
3.825
3.39011
3.01068
2.6798
2.38411
2.11713
1.87552
1.65483
1.44923
1.25212
1.0478
0.798823
0.365612
1.08275
2.18899
2.72975
3.11873
3.43217
3.68913
3.89971
4.081
4.24854
4.41082
4.56887
4.71462
4.83215
4.89647
4.87138
4.65552
4.2433
3.80571
3.39162
3.01938
2.68626
2.38649
2.11793
1.87686
1.65792
1.45523
1.26063
1.0561
0.805035
0.366525
1.05029
2.08964
2.5946
2.96286
3.26258
3.51292
3.72472
3.91171
4.08502
4.25128
4.41381
4.57278
4.71997
4.82219
4.80398
4.55977
4.16111
3.74595
3.35241
2.99013
2.66267
2.36862
2.10618
1.87066
1.65725
1.45987
1.26656
1.06246
0.809689
0.366644
1.01372
1.99467
2.47086
2.82444
3.11312
3.35762
3.56957
3.7617
3.94192
4.11596
4.29029
4.46829
4.64972
4.78887
4.7469
4.44544
4.05438
3.66013
3.2831
2.93604
2.6208
2.33915
2.08702
1.86067
1.65509
1.4609
1.26982
1.06695
0.810694
0.367421
0.971792
1.90474
2.35831
2.70295
2.98094
3.21899
3.42956
3.62645
3.81499
3.99948
4.18701
4.38328
4.59547
4.76259
4.65787
4.31263
3.93133
3.55579
3.19847
2.86914
2.57156
2.30458
2.06536
1.84926
1.64879
1.45855
1.27045
1.06677
0.80886
0.368729
0.928316
1.82018
2.2562
2.59498
2.86284
3.09375
3.30207
3.50377
3.70108
3.89478
4.09473
4.30649
4.54737
4.72434
4.54269
4.18027
3.80797
3.44841
3.11148
2.80202
2.52155
2.2701
2.04291
1.83376
1.63881
1.45262
1.26471
1.06013
0.807875
0.367194
0.887583
1.74177
2.16335
2.49808
2.75564
2.97987
3.18698
3.39342
3.59789
3.79944
4.01034
4.23775
4.5015
4.68257
4.44384
4.06931
3.70163
3.35447
3.03424
2.74155
2.47744
2.23792
2.01814
1.81553
1.62513
1.43966
1.25189
1.05083
0.802526
0.363844
0.847133
1.66375
2.07687
2.40876
2.65736
2.87637
3.08414
3.29485
3.50644
3.71514
3.93906
4.18397
4.46304
4.64359
4.3775
3.99002
3.62135
3.28174
2.97273
2.69307
2.43898
2.20604
1.9928
1.79423
1.60518
1.42139
1.23636
1.03837
0.793721
0.359705
0.803225
1.57806
1.9926
2.32385
2.56611
2.7837
2.99534
3.20923
3.42872
3.64843
3.88772
4.15052
4.43245
4.60727
4.34212
3.94238
3.56781
3.23135
2.92815
2.6538
2.40322
2.17498
1.96499
1.76857
1.58177
1.40069
1.21898
1.02472
0.783883
0.355091
0.756494
1.47716
1.90938
2.24081
2.48219
2.70342
2.92291
3.14012
3.36907
3.6045
3.86205
4.14113
4.4177
4.55762
4.31562
3.91635
3.5342
3.19689
2.8944
2.61706
2.36702
2.14092
1.9336
1.74004
1.55681
1.37963
1.20211
1.0117
0.77434
0.350469
0.699505
1.35727
1.82643
2.16021
2.4069
2.6362
2.86507
3.09084
3.33128
3.58707
3.86368
4.15488
4.42009
4.50612
4.27542
3.88766
3.50867
3.16781
2.85516
2.57561
2.32704
2.1036
1.8998
1.71077
1.53263
1.36042
1.18731
1.00048
0.766171
0.346484
0.631174
1.23175
1.74699
2.08425
2.34236
2.5831
2.82426
3.06635
3.31931
3.59549
3.88895
4.18851
4.43497
4.46381
4.21007
3.84261
3.47682
3.12393
2.80665
2.52898
2.28408
2.06519
1.86664
1.68342
1.51131
1.34438
1.17552
0.991845
0.760151
0.34355
0.559679
1.12847
1.67309
2.01864
2.2914
2.54612
2.80369
3.06797
3.33101
3.62546
3.93493
4.23427
4.4464
4.40854
4.11736
3.76816
3.40879
3.05817
2.74833
2.47768
2.23975
2.02786
1.83633
1.66009
1.49386
1.33219
1.16707
0.986034
0.756502
0.342051
0.498511
1.07293
1.62222
1.97165
2.25744
2.52631
2.80032
3.08371
3.36085
3.67104
3.99222
4.28255
4.43534
4.30899
3.98696
3.64757
3.29976
2.97137
2.6793
2.4221
2.19506
1.99257
1.80937
1.64058
1.48066
1.32343
1.1616
0.983041
0.755381
0.341867
0.467575
1.08027
1.60857
1.94976
2.24324
2.52297
2.8069
3.10207
3.39792
3.72329
4.05799
4.3341
4.39501
4.16827
3.83975
3.50383
3.1761
2.87437
2.60436
2.36492
2.15202
1.96087
1.78667
1.62463
1.46996
1.31716
1.15899
0.983076
0.756879
0.342937
0.472223
1.13114
1.62691
1.95245
2.2467
2.53084
2.82078
3.12119
3.43512
3.77842
4.13367
4.38454
4.31262
4.01459
3.68421
3.35888
3.05404
2.77625
2.52733
2.30517
2.1064
1.92699
1.76257
1.60885
1.46114
1.31398
1.16003
0.986814
0.761741
0.345883
0.508472
1.23874
1.6758
1.97309
2.26268
2.54822
2.83934
3.14216
3.46646
3.82553
4.20071
4.39067
4.17928
3.85179
3.52737
3.22059
2.93778
2.68106
2.45077
2.24507
2.06084
1.89418
1.74091
1.59671
1.45681
1.3157
1.16608
0.99545
0.770788
0.350904
0.583936
1.38241
1.75419
2.01639
2.29385
2.57529
2.86329
3.16227
3.48447
3.84427
4.2097
4.29138
4.00265
3.68403
3.37907
3.09374
2.83119
2.59362
2.38105
2.19153
2.02186
1.86811
1.72608
1.59139
1.45923
1.32409
1.17868
1.01015
0.784901
0.358437
0.682593
1.55314
1.84735
2.07487
2.33836
2.61357
2.89569
3.18541
3.49072
3.8195
4.11724
4.07883
3.81088
3.52854
3.24943
2.98324
2.73785
2.51692
2.32053
2.14647
1.99112
1.8502
1.71943
1.59422
1.46974
1.34054
1.19907
1.03214
0.805224
0.369138
0.791038
1.73189
1.95084
2.14504
2.39237
2.65894
2.93376
3.21455
3.49994
3.75177
3.91139
3.83793
3.64885
3.41094
3.14975
2.89474
2.6607
2.45275
2.27054
2.1109
1.96945
1.84114
1.72138
1.60561
1.48892
1.36574
1.22823
1.06255
0.83285
0.383707
0.885296
1.89342
2.05739
2.22022
2.44938
2.70392
2.97262
3.26604
3.5526
3.70683
3.71498
3.67254
3.57479
3.36128
3.09137
2.83155
2.59987
2.40031
2.23012
2.08393
1.95589
1.84007
1.73132
1.62492
1.51634
1.3998
1.26673
1.10222
0.868672
0.402606
0.961669
2.02248
2.15982
2.29525
2.50735
2.75359
3.01845
3.32185
3.59072
3.67174
3.64219
3.68084
3.60645
3.36654
3.06626
2.78988
2.55004
2.35537
2.19695
2.06407
1.94738
1.84254
1.74571
1.65091
1.5523
1.44345
1.31534
1.15206
0.913357
0.42588
1.02202
2.1343
2.25816
2.36546
2.57838
2.83765
3.08575
3.31577
3.49234
3.56995
3.60558
3.65219
3.55187
3.32922
3.05756
2.7462
2.49922
2.31212
2.16612
2.03862
1.93553
1.84883
1.76881
1.68824
1.60075
1.49995
1.37691
1.21422
0.968165
0.453838
1.07323
2.23137
2.33736
2.42382
2.66921
2.94127
3.13979
3.29007
3.42372
3.52329
3.5519
3.50441
3.35981
3.15321
2.9277
2.68826
2.44252
2.26254
2.12297
2.01179
1.93065
1.86624
1.80469
1.73937
1.66291
1.57022
1.45285
1.29054
1.03494
0.487065
1.09781
2.26583
2.35666
2.46612
2.723
2.99773
3.1915
3.3221
3.4424
3.47839
3.42347
3.30501
3.14723
2.96251
2.76873
2.58739
2.41064
2.2119
2.08198
1.98921
1.9315
1.89537
1.85155
1.79829
1.73097
1.64892
1.54109
1.38227
1.11624
0.525914
1.08463
2.22828
2.38033
2.52108
2.75663
3.01386
3.21548
3.35646
3.40828
3.35377
3.23573
3.09713
2.94338
2.77849
2.61371
2.46282
2.32111
2.13177
2.02848
1.95917
1.92833
1.91863
1.88887
1.84129
1.78767
1.72592
1.63814
1.49282
1.21715
0.574882
1.03149
2.1349
2.44512
2.6337
2.84955
3.08446
3.25082
3.3147
3.27803
3.17276
3.0432
2.90247
2.75422
2.60307
2.45806
2.32775
2.21067
2.08405
1.9613
1.91437
1.91054
1.90936
1.88426
1.85446
1.8265
1.79529
1.74393
1.6328
1.36028
0.643148
1.02029
2.07017
2.52042
2.74569
2.97288
3.1316
3.19042
3.17052
3.09734
2.98896
2.86083
2.72207
2.57956
2.43982
2.31004
2.19776
2.10588
2.02179
1.93654
1.86706
1.86893
1.86823
1.8654
1.85081
1.84754
1.85396
1.8628
1.82163
1.5654
0.720042
1.05295
2.04425
2.46649
2.72723
2.9393
3.03348
3.03166
2.98766
2.90965
2.80291
2.67929
2.54742
2.41365
2.28482
2.16738
2.06754
1.99234
1.93261
1.87132
1.82032
1.82345
1.78598
1.78919
1.80921
1.84239
1.90128
1.98862
2.05286
1.84602
0.924115
1.05985
2.00578
2.37182
2.62635
2.79127
2.84463
2.83303
2.78307
2.70314
2.60153
2.48858
2.36996
2.24887
2.1312
2.02344
1.93135
1.86033
1.80434
1.76466
1.74232
1.70296
1.67495
1.69581
1.746
1.821
1.93249
2.09423
2.24093
2.07565
1.19565
1.02203
1.87941
2.21279
2.43614
2.56635
2.60985
2.59578
2.5451
2.47015
2.38072
2.2833
2.18158
2.07702
1.97206
1.87296
1.78835
1.71929
1.67312
1.66244
1.64031
1.59719
1.59973
1.63321
1.70648
1.81595
1.96941
2.1563
2.33403
2.28917
1.46114
0.932548
1.6863
1.99622
2.18875
2.29584
2.33402
2.32311
2.28005
2.21635
2.14143
2.06068
1.97753
1.89131
1.80149
1.71516
1.63788
1.57636
1.54875
1.54863
1.52086
1.51839
1.53993
1.59923
1.69989
1.84431
2.03713
2.25255
2.5064
2.59848
1.64545
0.812313
1.47122
1.75258
1.91802
2.00979
2.04494
2.03859
2.00466
1.95202
1.88967
1.82309
1.75677
1.68911
1.61742
1.54826
1.4814
1.43356
1.42346
1.40823
1.4109
1.43724
1.49336
1.58585
1.72326
1.91684
2.1645
2.44849
2.79734
2.9633
1.70828
0.697457
1.25506
1.5156
1.6603
1.73847
1.76813
1.76241
1.73343
1.68818
1.63558
1.58205
1.52842
1.47517
1.4217
1.36935
1.3192
1.28982
1.27669
1.27925
1.31165
1.37196
1.46452
1.59942
1.79133
2.05301
2.37576
2.74791
3.15975
3.15852
1.67881
0.593243
1.05422
1.29764
1.42616
1.49131
1.51281
1.50413
1.47574
1.4347
1.39029
1.34586
1.30119
1.25962
1.22171
1.18741
1.15711
1.1444
1.14542
1.17661
1.23866
1.33302
1.46942
1.6615
1.92985
2.27982
2.69189
3.12747
3.46089
3.11047
1.58393
0.499491
0.876125
1.09962
1.21389
1.26693
1.27929
1.26646
1.23646
1.19857
1.15888
1.11987
1.08455
1.05492
1.03205
1.01643
1.01115
1.01757
1.0447
1.10316
1.19684
1.33402
1.52769
1.80078
2.1667
2.61842
3.10237
3.53166
3.59166
2.88868
1.46037
0.416469
0.720044
0.920014
1.02034
1.06212
1.066
1.04883
1.01782
0.98086
0.943015
0.910686
0.885822
0.868891
0.861232
0.864769
0.881289
0.912038
0.969085
1.05984
1.19606
1.3905
1.66757
2.04625
2.528
3.07187
3.57292
3.84078
3.50776
2.58138
1.32868
0.343524
0.583311
0.757226
0.843159
0.874416
0.871236
0.851747
0.81844
0.779779
0.745335
0.720731
0.706808
0.703596
0.711282
0.733521
0.772828
0.832102
0.922456
1.05622
1.2496
1.52795
1.91495
2.42066
3.02493
3.62565
4.05341
3.94103
3.26163
2.27397
1.19215
0.28
0.463755
0.610283
0.681152
0.701567
0.695435
0.673294
0.635181
0.596789
0.568022
0.552641
0.551314
0.562519
0.589874
0.63243
0.694617
0.784876
0.915596
1.10417
1.37894
1.76752
2.29074
2.94427
3.65737
4.26953
4.43952
3.85634
2.95953
1.98237
1.05296
0.2256
0.360111
0.478285
0.53228
0.545869
0.53677
0.507817
0.46839
0.434793
0.415003
0.412612
0.424914
0.456217
0.504241
0.56693
0.652836
0.777958
0.95743
1.22016
1.59873
2.12368
2.80757
3.62171
4.41386
4.91044
4.56425
3.62892
2.65538
1.71463
0.908388
0.178759
0.270298
0.359949
0.401122
0.40587
0.390267
0.356587
0.321907
0.299079
0.295594
0.308089
0.341059
0.391236
0.457173
0.540734
0.652341
0.81679
1.05888
1.41305
1.91747
2.60506
3.4757
4.4395
5.26897
5.35616
4.46135
3.34585
2.40061
1.51669
0.764462
0.140659
0.196138
0.260912
0.285403
0.279496
0.25864
0.228005
0.207204
0.206036
0.220666
0.255487
0.303984
0.366624
0.448005
0.554102
0.696459
0.908782
1.22447
1.68656
2.33898
3.21211
4.2843
5.35187
5.9754
5.38107
4.19745
3.12626
2.33626
1.45681
0.653485
0.10996
0.137286
0.178824
0.184975
0.175688
0.154431
0.141893
0.146539
0.169737
0.205812
0.249731
0.304161
0.374843
0.470751
0.604398
0.789028
1.05647
1.45588
2.04129
2.86166
3.93921
5.17202
6.24354
6.24663
5.17132
3.95506
3.10785
2.39179
1.47863
0.602972
0.0848698
0.0945235
0.113734
0.111335
0.101761
0.0997166
0.113739
0.1451
0.181615
0.223087
0.2707
0.329532
0.408664
0.522139
0.687431
0.921482
1.25594
1.75153
2.47468
3.47567
4.74857
6.03517
6.72961
6.08534
4.8518
3.84846
3.17683
2.42261
1.51491
0.6015
0.0660248
0.0649537
0.0683292
0.067188
0.0737972
0.0972674
0.131465
0.171307
0.212512
0.256625
0.308424
0.374389
0.464639
0.596884
0.795698
1.08443
1.49594
2.10376
2.98063
4.16987
5.52576
6.69398
6.69183
5.72021
4.6116
3.8591
3.24064
2.41665
1.52298
0.607495
0.0523572
0.0451703
0.0477113
0.0597211
0.0865512
0.126454
0.167482
0.206745
0.24781
0.294377
0.352223
0.429482
0.53757
0.693753
0.927385
1.27426
1.76917
2.49828
3.53743
4.86206
6.17512
6.82746
6.3826
5.36474
4.46983
3.89288
3.24679
2.39841
1.51802
0.612497
0.0416982
0.0390058
0.0498785
0.0808039
0.126224
0.166233
0.203351
0.241124
0.282995
0.333561
0.399371
0.491281
0.622987
0.811768
1.08712
1.49349
2.0835
2.93721
4.13969
5.49973
6.50876
6.6119
5.95758
5.06936
4.38248
3.89154
3.22418
2.37746
1.51058
0.613197
0.0368781
0.042428
0.0759819
0.124042
0.164127
0.200055
0.235131
0.272815
0.317026
0.372927
0.449322
0.558263
0.717402
0.945324
1.27192
1.74268
2.432
3.42706
4.70827
5.90472
6.44234
6.25632
5.59226
4.84511
4.3063
3.85521
3.18377
2.3626
1.51252
0.614463
0.0376002
0.061671
0.114513
0.156931
0.193168
0.227044
0.261871
0.30112
0.349255
0.412654
0.501242
0.62952
0.816964
1.08661
1.46748
2.00755
2.78897
3.88739
5.07344
5.94792
6.24606
5.95158
5.31716
4.67404
4.21708
3.78169
3.14184
2.36099
1.5277
0.619946
0.0434871
0.0889537
0.140114
0.179891
0.214355
0.247798
0.283723
0.325853
0.379286
0.451673
0.553928
0.70222
0.916762
1.22415
1.65707
2.26725
3.12862
4.19363
5.20005
5.87337
6.05848
5.71954
5.11511
4.537
4.11988
3.70251
3.11418
2.38074
1.56291
0.632938
0.0523773
0.107485
0.157369
0.195729
0.229683
0.263914
0.301915
0.347678
0.406957
0.488393
0.604394
0.771521
1.01116
1.35025
1.82604
2.4944
3.37163
4.30865
5.17325
5.78157
5.88676
5.53023
4.95762
4.42426
4.03117
3.64091
3.11479
2.43401
1.62729
0.658166
0.0583862
0.120732
0.170049
0.207552
0.241955
0.277633
0.318085
0.367545
0.432254
0.521704
0.6493
0.832442
1.09233
1.45595
1.96094
2.65515
3.44997
4.2528
5.05909
5.61427
5.67258
5.33625
4.81409
4.3285
3.96209
3.6076
3.14383
2.52438
1.7287
0.703173
0.0632808
0.131791
0.180861
0.218324
0.253632
0.290853
0.333592
0.386338
0.455604
0.551335
0.687389
0.881357
1.15418
1.53168
2.04759
2.70364
3.39521
4.09305
4.84844
5.33568
5.38574
5.10868
4.66251
4.23961
3.91119
3.60125
3.20531
2.64997
1.86953
0.774015
0.0677657
0.141055
0.191807
0.230203
0.266393
0.304952
0.349633
0.405072
0.477917
0.578209
0.719436
0.918239
1.19407
1.56882
2.0697
2.659
3.28208
3.94197
4.62438
5.02675
5.07142
4.85934
4.49967
4.14799
3.86602
3.60492
3.28019
2.79663
2.03567
0.859974
0.0707579
0.147777
0.202406
0.24326
0.281082
0.321048
0.367127
0.424234
0.499395
0.602489
0.74571
0.943193
1.21082
1.56936
2.03004
2.57884
3.1993
3.86032
4.46514
4.76754
4.79127
4.62334
4.33626
4.04977
3.81487
3.60287
3.35003
2.94629
2.20776
0.947108
0.0730961
0.153999
0.213656
0.257623
0.298111
0.340032
0.388039
0.446286
0.522337
0.626422
0.769792
0.964409
1.22182
1.5575
1.98378
2.50642
3.12034
3.76419
4.31991
4.55629
4.55899
4.41583
4.17983
3.94463
3.75202
3.58667
3.40072
3.08091
2.36819
1.02681
0.0777149
0.167085
0.22837
0.274183
0.317064
0.361872
0.412508
0.473981
0.552459
0.657006
0.798569
0.988192
1.23549
1.55336
1.95158
2.43823
3.01986
3.62289
4.13411
4.3507
4.34908
4.22626
4.02941
3.83356
3.67652
3.54951
3.42116
3.18398
2.49847
1.08897
0.0851881
0.18471
0.244925
0.291546
0.335801
0.382086
0.434409
0.498237
0.580275
0.688343
0.831323
1.0183
1.25826
1.55959
1.93046
2.37938
2.90996
3.45064
3.90719
4.12695
4.14284
4.04268
3.88018
3.71627
3.58788
3.49183
3.40964
3.24358
2.58505
1.12888
0.0916873
0.198862
0.259746
0.307476
0.352747
0.400862
0.455957
0.523242
0.609225
0.721159
0.86684
1.05368
1.28899
1.5783
1.92549
2.33628
2.80646
3.27428
3.66746
3.89424
3.93852
3.86361
3.73157
3.59374
3.48699
3.41408
3.36582
3.25327
2.62924
1.14879
0.0967877
0.210438
0.271882
0.321759
0.370152
0.422018
0.481477
0.553583
0.644638
0.761607
0.912028
1.10032
1.33327
1.6126
1.93948
2.31538
2.7162
3.10188
3.43975
3.6735
3.74504
3.69393
3.5862
3.46914
3.37729
3.3187
3.28882
3.225
2.64171
1.15812
0.101112
0.218041
0.283608
0.337284
0.389754
0.445989
0.510359
0.58797
0.685315
0.810528
0.968728
1.16065
1.39436
1.66755
1.97675
2.31097
2.63788
2.94872
3.25177
3.48651
3.57525
3.54117
3.44842
3.34548
3.26314
3.21243
3.19299
3.16173
2.62242
1.15807
0.104543
0.225296
0.295817
0.354114
0.410968
0.471752
0.541137
0.624103
0.727139
0.859181
1.02856
1.23272
1.47137
1.74219
2.02898
2.30911
2.57104
2.83718
3.12138
3.35157
3.44313
3.41269
3.32249
3.22511
3.14763
3.10041
3.08551
3.07522
2.57392
1.1466
0.10743
0.234377
0.30893
0.371569
0.433028
0.498464
0.572932
0.660842
0.767728
0.903392
1.07988
1.29874
1.54468
1.8022
2.05436
2.28768
2.51685
2.77585
3.05934
3.28053
3.35802
3.31216
3.21012
3.10875
3.03158
2.98505
2.97078
2.97157
2.50034
1.12495
0.112212
0.243795
0.322254
0.388909
0.454755
0.524554
0.603751
0.695479
0.804303
0.939966
1.11621
1.32678
1.56209
1.7904
2.00732
2.21938
2.45979
2.7445
3.04735
3.25989
3.31098
3.23352
3.10829
2.99498
2.91414
2.86671
2.85147
2.85432
2.40306
1.09024
0.116921
0.253294
0.33545
0.405839
0.475732
0.54953
0.631525
0.723154
0.828576
0.957736
1.11578
1.30127
1.5033
1.70817
1.91423
2.1315
2.38123
2.68407
3.00888
3.22546
3.25972
3.15411
3.00667
2.88016
2.79417
2.74536
2.72808
2.72599
2.28501
1.04219
0.120224
0.262307
0.348721
0.42303
0.496726
0.569101
0.640771
0.720174
0.816029
0.934697
1.07595
1.23382
1.40714
1.5903
1.77837
1.98082
2.22389
2.52677
2.853
3.09612
3.14726
3.04398
2.89246
2.76075
2.67169
2.6215
2.60016
2.58595
2.14997
0.982295
0.123789
0.271467
0.362506
0.436978
0.502792
0.565633
0.628299
0.696798
0.77858
0.877962
0.994166
1.12408
1.26723
1.42613
1.60458
1.80821
2.04476
2.31945
2.616
2.87514
2.97288
2.90126
2.76471
2.63751
2.54823
2.49555
2.46687
2.43235
2.00166
0.912826
0.128113
0.280069
0.371079
0.439968
0.497205
0.549832
0.603637
0.662269
0.729553
0.809033
0.902718
1.0123
1.14056
1.29047
1.46423
1.66495
1.89235
2.14313
2.40211
2.64938
2.79027
2.75752
2.63821
2.51551
2.42517
2.36703
2.32557
2.2626
1.84478
0.838409
0.134505
0.288828
0.374333
0.434547
0.485232
0.532366
0.579144
0.628902
0.684874
0.750652
0.829686
0.925586
1.04252
1.18485
1.35548
1.55393
1.77666
2.01271
2.24155
2.47313
2.65771
2.6588
2.53546
2.40303
2.30528
2.23668
2.17487
2.08051
1.68713
0.765105
0.139832
0.294069
0.370486
0.426354
0.473706
0.517161
0.559469
0.603212
0.65144
0.707598
0.775467
0.860565
0.968215
1.10355
1.2692
1.46236
1.67386
1.89093
2.10636
2.34629
2.58296
2.61973
2.47064
2.30794
2.19313
2.10791
2.01933
1.90029
1.54001
0.699155
0.138192
0.289203
0.363951
0.419497
0.466032
0.507575
0.546806
0.586231
0.628653
0.67744
0.736929
0.812192
0.909132
1.03235
1.18277
1.3571
1.5465
1.74306
1.95744
2.20977
2.48212
2.58181
2.42656
2.22771
2.09043
1.98332
1.86943
1.73813
1.41215
0.644351
0.133249
0.282184
0.36015
0.416902
0.463198
0.503524
0.540618
0.576837
0.61473
0.657379
0.708622
0.773072
0.855428
0.958913
1.08503
1.23324
1.40035
1.584
1.79076
2.02865
2.2961
2.4742
2.36523
2.14835
1.99594
1.86649
1.73393
1.59912
1.30398
0.601079
0.132334
0.281445
0.360995
0.418303
0.464596
0.504322
0.540054
0.573803
0.607766
0.644539
0.687185
0.739306
0.804945
0.888034
0.991754
1.11761
1.26538
1.43447
1.62575
1.84025
2.07491
2.28672
2.27061
2.05835
1.90655
1.75921
1.61338
1.47642
1.20941
0.564874
0.133311
0.284329
0.365327
0.42331
0.469868
0.509338
0.544125
0.576088
0.60688
0.638298
0.673008
0.714159
0.765587
0.831543
0.916068
1.02227
1.15146
1.30312
1.47492
1.66116
1.8598
2.06756
2.14175
1.96119
1.81604
1.65856
1.50353
1.36367
1.12507
0.532569
0.136052
0.290205
0.372574
0.431517
0.478837
0.51873
0.553291
0.583944
0.612094
0.63948
0.66788
0.700015
0.73957
0.790767
0.858109
0.945563
1.05524
1.18644
1.33542
1.49574
1.66384
1.84454
1.96954
1.85704
1.71718
1.56146
1.40362
1.26041
1.04581
0.496995
0.139302
0.297477
0.381715
0.442207
0.490981
0.532132
0.567481
0.598029
0.624622
0.648528
0.671849
0.696845
0.726233
0.764313
0.815545
0.884236
0.973096
1.08199
1.20791
1.34565
1.48926
1.6376
1.76887
1.74569
1.62199
1.4686
1.30922
1.16661
0.972969
0.458731
0.142879
0.305701
0.39237
0.455074
0.506131
0.549576
0.586924
0.61863
0.644919
0.666573
0.685266
0.70364
0.72467
0.750789
0.786736
0.836899
0.904696
0.9911
1.09432
1.21056
1.33405
1.45753
1.57231
1.61537
1.52579
1.37184
1.22169
1.08566
0.903895
0.42918
0.146712
0.314597
0.404239
0.469824
0.524074
0.571064
0.611999
0.646532
0.67379
0.693907
0.708785
0.721185
0.733807
0.749814
0.77129
0.803386
0.85012
0.913672
0.993909
1.0886
1.19395
1.30355
1.40631
1.4716
1.41796
1.27765
1.13992
1.01204
0.840684
0.40849
0.150702
0.323978
0.417028
0.48607
0.544444
0.596425
0.643008
0.682791
0.712879
0.731808
0.742685
0.749642
0.754883
0.760057
0.768732
0.78328
0.809216
0.849857
0.906361
0.978159
1.0631
1.15564
1.24558
1.3065
1.28543
1.17199
1.05167
0.929224
0.758692
0.360742
0.154826
0.333743
0.430435
0.503287
0.566548
0.625244
0.680666
0.729894
0.765196
0.782219
0.787592
0.789092
0.787632
0.782527
0.776588
0.774453
0.7798
0.798421
0.831581
0.879531
0.941022
1.01044
1.07499
1.1212
1.11951
1.03538
0.932187
0.812991
0.641485
0.289628
0.159275
0.343881
0.444128
0.520793
0.589328
0.655713
0.722056
0.786886
0.833118
0.848014
0.844801
0.841682
0.833744
0.815745
0.79344
0.77313
0.760169
0.758532
0.770041
0.79397
0.83044
0.875164
0.918799
0.94723
0.940386
0.87846
0.793246
0.682459
0.522058
0.228998
0.164354
0.354432
0.457858
0.537881
0.611131
0.68509
0.761098
0.83909
0.901513
0.919031
0.914436
0.913575
0.900686
0.86398
0.820175
0.780637
0.750921
0.731779
0.724653
0.726669
0.740556
0.765576
0.792468
0.80019
0.780089
0.732257
0.663175
0.566594
0.429889
0.18528
0.170028
0.365361
0.471726
0.554629
0.631332
0.709026
0.790164
0.872938
0.938026
0.974221
0.985946
1.00163
0.98487
0.928338
0.864061
0.804695
0.758572
0.724232
0.699209
0.683801
0.678827
0.685808
0.696564
0.685882
0.656841
0.614979
0.554647
0.472225
0.36024
0.160616
0.176116
0.376972
0.486438
0.57212
0.651444
0.729393
0.809848
0.886286
0.950929
0.996741
1.04804
1.09249
1.07151
1.00963
0.92725
0.850925
0.785898
0.734664
0.696267
0.666487
0.645021
0.634228
0.628253
0.604499
0.570545
0.53056
0.47336
0.398922
0.307074
0.143845
0.182813
0.390024
0.502929
0.592295
0.674376
0.757764
0.834985
0.903269
0.975752
1.03174
1.07941
1.12326
1.10081
1.06085
1.00179
0.919282
0.83261
0.76407
0.709521
0.668982