/*--------------------------------*- C++ -*----------------------------------*\
| =========                 |                                                 |
| \\      /  F ield         | OpenFOAM: The Open Source CFD Toolbox           |
|  \\    /   O peration     | Version:  2.3.0                                 |
|   \\  /    A nd           | Web:      www.OpenFOAM.org                      |
|    \\/     M anipulation  |                                                 |
\*---------------------------------------------------------------------------*/
FoamFile
{
    version     2.0;
    format      ascii;
    class       volScalarField;
    location    "0.96";
    object      k.air;
}
// * * * * * * * * * * * * * * * * * * * * * * * * * * * * * * * * * * * * * //

dimensions      [0 2 -2 0 0 0 0];

internalField   nonuniform List<scalar> 
6000
(
0.813246
0.921595
0.94722
0.952357
0.962264
0.979151
0.996553
1.00717
1.00897
0.998003
0.982581
0.98293
1.00145
0.995103
0.981265
0.983184
0.993062
0.999161
0.996679
1.01517
1.06212
1.12598
1.18162
1.17295
1.08908
1.02505
0.995413
0.980235
0.926437
0.828943
0.613378
0.926962
0.999335
1.01003
1.02256
1.05319
1.08636
1.11069
1.13443
1.11571
1.08619
1.09092
1.0781
1.07907
1.061
1.05641
1.07354
1.08776
1.11508
1.15738
1.24723
1.39781
1.62497
1.79017
1.57564
1.32313
1.16758
1.04897
0.883556
0.552222
0.510516
0.860175
0.969083
1.01096
1.05183
1.08854
1.10101
1.10784
1.11353
1.10228
1.09216
1.09805
1.09711
1.11964
1.12599
1.12587
1.12833
1.13328
1.17964
1.26162
1.37729
1.539
1.78978
2.07899
1.96294
1.53065
1.21603
1.01808
0.78585
0.395802
0.458176
0.817028
0.937706
0.994429
1.04302
1.08643
1.10271
1.10745
1.10675
1.10298
1.08957
1.10547
1.11396
1.14193
1.14593
1.15802
1.17365
1.1742
1.21418
1.29376
1.41936
1.60902
1.92373
2.22674
2.32964
1.73762
1.30493
1.02321
0.74176
0.338005
0.44351
0.789658
0.900071
0.954348
1.00094
1.05702
1.09419
1.10461
1.10487
1.10787
1.0955
1.11613
1.12678
1.15867
1.1648
1.19276
1.21791
1.22055
1.26226
1.34775
1.49411
1.72326
2.01742
2.171
2.2595
1.87594
1.39379
1.05644
0.743788
0.325406
0.437241
0.748039
0.853023
0.906135
0.959113
1.01407
1.07038
1.09329
1.09793
1.10632
1.10394
1.12802
1.14466
1.17857
1.19891
1.2406
1.27361
1.28958
1.34246
1.45486
1.64422
1.9082
2.06497
2.14578
2.13348
1.9422
1.49224
1.12136
0.780852
0.335056
0.419655
0.697883
0.810557
0.886439
0.945923
0.991214
1.04203
1.08344
1.09264
1.10383
1.11494
1.14149
1.17455
1.21445
1.2482
1.3037
1.34973
1.38412
1.4677
1.62023
1.82866
1.973
2.01231
2.10024
2.07392
1.90809
1.57535
1.22047
0.833377
0.361403
0.377518
0.655878
0.80553
0.897429
0.954119
0.991231
1.02704
1.07354
1.09647
1.11116
1.13443
1.16778
1.21822
1.26676
1.31474
1.38709
1.45096
1.52109
1.64756
1.78114
1.86427
1.88341
1.91486
1.96951
1.95337
1.80758
1.57051
1.27251
0.889979
0.388773
0.32215
0.611317
0.806982
0.918642
0.980929
1.01048
1.03867
1.07378
1.10581
1.13368
1.16977
1.21602
1.28109
1.33885
1.40081
1.48993
1.60468
1.7021
1.77184
1.78464
1.77756
1.78557
1.79632
1.80123
1.76708
1.65325
1.46431
1.21644
0.907185
0.40199
0.314315
0.628836
0.866241
0.998946
1.04949
1.06745
1.09074
1.11848
1.14501
1.18263
1.2311
1.29688
1.37363
1.4366
1.50626
1.62598
1.73887
1.77486
1.75321
1.71395
1.70283
1.69984
1.68119
1.64888
1.59064
1.48507
1.32662
1.1303
0.90253
0.402545
0.349962
0.739753
1.01429
1.13962
1.18229
1.20181
1.22484
1.24463
1.25862
1.28736
1.33959
1.41625
1.50067
1.56267
1.63598
1.72159
1.72969
1.71214
1.67707
1.64854
1.64007
1.62802
1.58971
1.53235
1.45527
1.35041
1.21398
1.05389
0.87814
0.397358
0.411331
0.803775
1.03489
1.15461
1.22276
1.28078
1.33919
1.38025
1.40213
1.42632
1.47284
1.54332
1.62075
1.66914
1.70674
1.70224
1.67736
1.65242
1.62616
1.60591
1.59734
1.5828
1.53201
1.45608
1.36511
1.2577
1.13306
0.993003
0.843727
0.406317
0.403735
0.788937
0.99318
1.11084
1.19274
1.27706
1.368
1.4358
1.47078
1.50036
1.54789
1.61734
1.68233
1.70689
1.70158
1.67127
1.64888
1.62617
1.60654
1.5917
1.58308
1.56974
1.50957
1.41819
1.31448
1.20189
1.08011
0.948361
0.812579
0.39425
0.380565
0.736498
0.917512
1.03349
1.126
1.22999
1.34168
1.42802
1.47585
1.51365
1.56208
1.62573
1.69054
1.71587
1.70066
1.66844
1.64578
1.62741
1.61314
1.60115
1.59115
1.57903
1.5154
1.41089
1.29563
1.17555
1.05053
0.918791
0.782471
0.357613
0.353458
0.677035
0.849091
0.963051
1.06409
1.18315
1.31583
1.42238
1.48368
1.5315
1.58409
1.64709
1.71882
1.75304
1.72743
1.68847
1.66473
1.6504
1.64037
1.62696
1.60896
1.59386
1.53517
1.42237
1.29897
1.17175
1.03989
0.902917
0.745838
0.324461
0.324064
0.617096
0.781991
0.89856
1.01079
1.14489
1.29765
1.42602
1.50487
1.56171
1.61691
1.68027
1.7567
1.80545
1.78234
1.73531
1.70703
1.69418
1.68269
1.6565
1.62011
1.59732
1.55325
1.44323
1.31583
1.18309
1.04599
0.903376
0.740556
0.32284
0.28982
0.546202
0.71223
0.840743
0.969464
1.11785
1.28845
1.43472
1.52953
1.59437
1.65049
1.7123
1.7849
1.84387
1.83976
1.7944
1.76329
1.74926
1.7233
1.67295
1.61925
1.5854
1.55331
1.45876
1.33776
1.20894
1.06911
0.918421
0.756695
0.340361
0.249817
0.469366
0.649626
0.799635
0.945554
1.10736
1.29209
1.45223
1.55556
1.62205
1.67705
1.73578
1.80172
1.86088
1.87824
1.85404
1.82371
1.79763
1.74726
1.68065
1.61949
1.57262
1.53502
1.46027
1.34974
1.23695
1.10298
0.94971
0.793308
0.36848
0.211734
0.4113
0.614375
0.783994
0.943479
1.11784
1.31426
1.48719
1.58463
1.64447
1.69361
1.74765
1.80877
1.86562
1.89663
1.91543
1.88517
1.83602
1.77072
1.70069
1.63609
1.57649
1.51637
1.45101
1.34618
1.23649
1.10531
0.962288
0.802107
0.375825
0.185356
0.394627
0.613088
0.7927
0.967324
1.15539
1.36211
1.54528
1.62519
1.66848
1.70741
1.75476
1.81126
1.86673
1.91254
1.97912
1.96019
1.88579
1.81489
1.74742
1.68155
1.61034
1.52862
1.44458
1.34663
1.22354
1.08975
0.958419
0.799819
0.37186
0.17627
0.404885
0.633552
0.829206
1.02124
1.22159
1.43567
1.62857
1.6844
1.70498
1.73156
1.77044
1.82133
1.87825
1.94173
2.03898
2.04531
1.95407
1.88545
1.82082
1.75271
1.6704
1.57495
1.47798
1.38068
1.24495
1.10458
0.980459
0.822999
0.385301
0.180852
0.439255
0.684646
0.895298
1.10045
1.3099
1.52897
1.73224
1.76872
1.76322
1.77634
1.80577
1.85091
1.91067
1.98462
2.08172
2.10354
2.02297
1.97089
1.91286
1.83701
1.73863
1.63445
1.54492
1.45621
1.32905
1.1944
1.08283
0.927638
0.461264
0.200635
0.50421
0.761564
0.982872
1.19623
1.41083
1.63265
1.84677
1.87389
1.84497
1.84603
1.86751
1.91024
1.97213
2.04821
2.12788
2.13595
2.08926
2.06508
2.0227
1.93227
1.81586
1.70457
1.61083
1.52736
1.41961
1.29675
1.1667
0.983938
0.481543
0.241449
0.58677
0.85526
1.08294
1.29949
1.51568
1.73793
1.96039
1.99356
1.94603
1.93921
1.95767
2.00048
2.06425
2.14238
2.20563
2.18066
2.15043
2.14674
2.10782
1.98943
1.85501
1.73769
1.63649
1.5363
1.42221
1.29681
1.14853
0.94129
0.441449
0.289362
0.679602
0.956748
1.18759
1.40485
1.62033
1.84011
2.06373
2.11408
2.05741
2.05151
2.0725
2.11804
2.18462
2.26356
2.30125
2.24698
2.20264
2.17834
2.09257
1.95935
1.82824
1.7102
1.60319
1.4985
1.38329
1.24746
1.08305
0.861524
0.397154
0.338428
0.774286
1.05932
1.29308
1.51108
1.7254
1.94164
2.16234
2.23002
2.17259
2.17516
2.20192
2.25171
2.31705
2.3754
2.3671
2.30257
2.23432
2.16153
2.0487
1.91602
1.78769
1.66803
1.55575
1.44526
1.32629
1.1892
1.02433
0.806325
0.376346
0.385207
0.866331
1.16055
1.39861
1.6185
1.8326
2.04672
2.26287
2.33673
2.28485
2.29713
2.33067
2.38026
2.42526
2.43449
2.39534
2.32601
2.23714
2.13174
2.00548
1.8727
1.74468
1.62286
1.50648
1.39257
1.27382
1.13997
0.980661
0.773757
0.368292
0.429276
0.954798
1.26029
1.50425
1.72711
1.94164
2.15373
2.36354
2.43528
2.38952
2.40682
2.44447
2.47976
2.47886
2.44923
2.40035
2.32425
2.21905
2.09562
1.96573
1.83493
1.7071
1.58379
1.46453
1.34748
1.2281
1.09766
0.946926
0.752863
0.365804
0.471353
1.04026
1.35898
1.61009
1.83653
2.05109
2.25872
2.45565
2.51752
2.48209
2.50173
2.53541
2.52952
2.49049
2.44959
2.39717
2.31203
2.19535
2.06626
1.93569
1.80649
1.67968
1.5558
1.4348
1.31547
1.19466
1.06582
0.920889
0.736379
0.364016
0.513114
1.12333
1.45702
1.71617
1.94635
2.15998
2.35962
2.53449
2.58309
2.56428
2.58511
2.59221
2.54681
2.50216
2.45966
2.39996
2.30709
2.186
2.05444
1.92194
1.79189
1.6649
1.54004
1.41698
1.29579
1.17408
1.04486
0.900333
0.719449
0.359994
0.554135
1.20511
1.55472
1.8223
2.05632
2.26908
2.46001
2.60547
2.64363
2.65029
2.65781
2.62016
2.57876
2.54525
2.5016
2.43366
2.33431
2.21014
2.07334
1.93439
1.79932
1.66859
1.54056
1.41332
1.28733
1.16163
1.03059
0.88401
0.700714
0.352705
0.594364
1.28652
1.65235
1.92784
2.16509
2.37846
2.56184
2.67793
2.72532
2.74258
2.70732
2.66871
2.65392
2.63247
2.59034
2.52005
2.41849
2.29037
2.14342
1.98928
1.84052
1.69954
1.56353
1.42941
1.29501
1.16001
1.0228
0.872116
0.681143
0.34376
0.636828
1.3696
1.74922
2.02948
2.2691
2.48457
2.66094
2.76694
2.81841
2.80452
2.7701
2.77023
2.77347
2.76111
2.72464
2.65709
2.55624
2.42587
2.27246
2.10482
1.93515
1.77368
1.62226
1.47614
1.32959
1.17953
1.02686
0.864849
0.661322
0.330987
0.69284
1.45418
1.83833
2.12308
2.36833
2.58475
2.75736
2.86226
2.90468
2.90062
2.90261
2.91915
2.9343
2.93426
2.90769
2.84576
2.74497
2.60978
2.44819
2.27019
2.08486
1.90154
1.72693
1.56219
1.40077
1.23388
1.05812
0.869927
0.642285
0.310849
0.727241
1.52762
1.92362
2.21746
2.46938
2.68432
2.85065
2.96485
3.03007
3.05879
3.08462
3.11573
3.14498
3.16023
3.14812
3.09322
2.99098
2.84607
2.67105
2.47771
2.27652
2.07445
1.8776
1.68998
1.5096
1.32599
1.13
0.909144
0.641598
0.299032
0.74906
1.57646
1.9999
2.31506
2.57985
2.8012
2.97821
3.11196
3.20412
3.26631
3.31681
3.36664
3.41357
3.44996
3.45681
3.41071
3.30325
3.1417
2.94384
2.72778
2.50466
2.28202
2.06385
1.8544
1.65278
1.44988
1.23588
0.992743
0.673395
0.303172
0.738316
1.58955
2.06387
2.42006
2.71263
2.95744
3.15712
3.31331
3.43224
3.52352
3.60082
3.67326
3.74481
3.80927
3.84685
3.81021
3.69035
3.50025
3.26885
3.01938
2.76683
2.51771
2.27596
2.04411
1.82039
1.59641
1.3622
1.10084
0.749976
0.326009
0.697605
1.57779
2.12491
2.53968
2.87503
3.15519
3.3855
3.56898
3.71297
3.83121
3.93312
4.03054
4.12953
4.23261
4.30587
4.27795
4.15479
3.91777
3.63772
3.34723
3.05684
2.77522
2.50514
2.24752
1.99991
1.75273
1.49954
1.21944
0.858293
0.37884
0.688125
1.57152
2.2
2.68118
3.06893
3.3934
3.66438
3.88032
4.04896
4.18528
4.30625
4.42254
4.54673
4.66913
4.74277
4.70885
4.59089
4.35838
4.03905
3.69716
3.36435
3.04418
2.74092
2.45334
2.17814
1.90632
1.63214
1.34309
0.990936
0.465014
0.713232
1.62986
2.30465
2.84899
3.29466
3.67296
3.99489
4.25806
4.4463
4.58933
4.71505
4.83765
4.96357
5.06981
5.03611
4.95653
4.87197
4.74628
4.44489
4.05994
3.67491
3.31246
2.97129
2.65009
2.34349
2.04956
1.76489
1.46573
1.10866
0.527563
0.810068
1.80425
2.486
3.04263
3.5508
3.99448
4.38126
4.67395
4.87813
5.03782
5.15596
5.26139
5.35717
5.42091
5.24781
5.12205
5.04464
4.99942
4.81374
4.42176
3.97896
3.56741
3.18624
2.82838
2.49508
2.19515
1.89754
1.58209
1.19743
0.553981
0.940543
2.05869
2.75205
3.30781
3.82724
4.3271
4.7778
5.12121
5.36922
5.53197
5.63436
5.68657
5.73743
5.68878
5.46493
5.31655
5.23216
5.18892
5.09155
4.71933
4.25936
3.79657
3.37751
2.98786
2.65124
2.34099
2.0301
1.69354
1.27124
0.577839
1.05454
2.31255
3.03843
3.62069
4.14625
4.65153
5.1275
5.53296
5.82909
6.07186
6.13638
6.1211
6.14822
5.92747
5.68409
5.51821
5.41959
5.36418
5.27104
4.93576
4.46352
3.9907
3.54581
3.15481
2.81121
2.48631
2.1606
1.80543
1.35585
0.619007
1.1538
2.53374
3.30779
3.91736
4.46418
4.97862
5.46625
5.91828
6.25545
6.48871
6.60664
6.52742
6.5513
6.19326
5.90975
5.71998
5.60285
5.53165
5.42363
5.1005
4.62898
4.15945
3.72382
3.33428
2.97379
2.63201
2.29078
1.92168
1.45826
0.672498
1.24148
2.72832
3.55107
4.19136
4.76042
5.29136
5.79349
6.26354
6.64421
6.80058
6.95339
6.85385
6.81008
6.42633
6.12696
5.92209
5.79267
5.71536
5.59749
5.24548
4.78586
4.3303
3.90501
3.50979
3.139
2.78277
2.42648
2.04302
1.56408
0.720753
1.31962
2.90218
3.77202
4.44607
5.04172
5.59368
6.10982
6.58497
6.9941
7.11132
7.22244
7.08495
6.95988
6.61938
6.33471
6.12834
5.99552
5.9171
5.76945
5.38599
4.93225
4.49067
4.07185
3.67715
3.30164
2.93623
2.56689
2.16693
1.66435
0.763299
1.38795
3.05566
3.97361
4.68459
5.3117
5.89006
6.42429
6.90693
7.32999
7.41265
7.45471
7.27605
7.09778
6.7973
6.5384
6.34008
6.2104
6.12152
5.91106
5.51472
5.075
4.64325
4.23063
3.83736
3.45881
3.08632
2.70543
2.28834
1.75859
0.80396
1.4435
3.18591
4.15671
4.90973
5.5756
6.19014
6.75534
7.25947
7.67393
7.70422
7.67754
7.46751
7.24339
6.97383
6.7415
6.5573
6.43187
6.30523
6.02587
5.63819
5.21764
4.79559
4.3873
3.99409
3.61172
3.23162
2.83903
2.40491
1.84874
0.843451
1.48482
3.28833
4.32153
5.12189
5.83759
6.50381
7.1218
7.66958
8.07363
8.04096
7.9444
7.68838
7.40703
7.15888
6.94968
6.78108
6.64909
6.45166
6.13903
5.76731
5.36414
4.95119
4.54525
4.15039
3.76275
3.37394
2.96904
2.51802
1.93666
0.882206
1.56509
3.38032
4.45885
5.3229
6.09866
6.8373
7.54051
8.17166
8.59587
8.49452
8.29712
7.96313
7.60226
7.3575
7.17368
7.01855
6.84833
6.59191
6.27078
5.90852
5.5168
5.11128
4.70641
4.30823
3.91397
3.51547
3.09768
2.62962
2.02357
0.920592
1.64675
3.54533
4.62739
5.50912
6.35815
7.18674
8.01082
8.775
9.28496
9.14004
8.77241
8.31393
7.85583
7.59337
7.43007
7.27094
7.04851
6.76011
6.42808
6.06412
5.67704
5.27614
4.8715
4.46907
4.06719
3.65813
3.2268
2.74127
2.11039
0.958928
1.73288
3.70499
4.82244
5.73236
6.60781
7.52713
8.47786
9.39111
10.0804
9.97655
9.37602
8.7567
8.20114
7.88978
7.72092
7.53509
7.27347
6.95804
6.60762
6.23493
5.84723
5.44782
5.04211
4.63456
4.22412
3.80363
3.35799
2.85437
2.19804
0.997566
1.77235
3.84559
5.01416
5.96741
6.88248
7.83534
8.84557
9.86159
10.7207
10.6478
10.0024
9.27507
8.65927
8.27102
8.04598
7.81669
7.51861
7.17548
6.80675
6.42352
6.03103
5.6296
5.22071
4.80669
4.38652
3.95358
3.49274
2.9702
2.28753
1.03694
1.78993
3.96065
5.16795
6.16226
7.11255
8.07435
9.07848
10.1263
10.9745
10.8007
10.3333
9.7624
9.16853
8.72959
8.42372
8.12942
7.78688
7.41643
7.03259
6.63854
6.2366
5.82733
5.41103
4.98792
4.55627
4.1095
3.63236
3.08999
2.37995
1.07762
1.81851
4.0327
5.27011
6.28706
7.25409
8.22426
9.22271
10.2377
10.8468
10.7143
10.3894
10.0827
9.63448
9.19545
8.83676
8.484
8.09619
7.70017
7.30191
6.89385
6.47513
6.04953
5.61861
5.18149
4.73525
4.27267
3.77787
3.21465
2.47632
1.12022
1.8393
4.07726
5.33099
6.35802
7.3316
8.30384
9.29809
10.249
10.6531
10.6102
10.4032
10.1553
9.92071
9.60496
9.25095
8.85987
8.44595
8.03708
7.62722
7.19996
6.75425
6.30225
5.84798
5.39023
4.92492
4.44375
3.92959
3.34448
2.57727
1.16523
1.83184
4.09061
5.36952
6.40701
7.37126
8.33301
9.3181
10.1966
10.4721
10.5045
10.3893
10.1788
9.98895
9.821
9.56928
9.22149
8.8188
8.42842
8.02149
7.56096
7.07519
6.58568
6.09939
5.61432
5.12516
4.62219
4.08671
3.47874
2.68249
1.21257
1.83433
4.08844
5.41577
6.46177
7.38357
8.30174
9.22382
10.0023
10.2798
10.3729
10.331
10.1882
10.0181
9.86971
9.72675
9.49954
9.17851
8.84957
8.4636
7.96829
7.4289
6.89205
6.36746
5.85
5.33301
4.80544
4.247
3.61549
2.7904
1.26142
1.96064
4.18055
5.46507
6.44275
7.34074
8.22082
9.04631
9.75296
10.0852
10.2296
10.2532
10.188
10.0711
9.93196
9.831
9.72363
9.51674
9.22758
8.86278
8.36521
7.78359
7.20226
6.63897
6.08758
5.54137
4.98858
4.40698
3.75186
2.89822
1.30974
1.96502
4.22793
5.46427
6.43213
7.31612
8.08538
8.84922
9.53626
9.90609
10.0886
10.1783
10.1923
10.1369
10.0254
9.93483
9.87985
9.74689
9.45536
9.10666
8.66158
8.08166
7.47777
6.88788
6.31004
5.73999
5.16578
4.56316
3.88444
3.00215
1.35797
1.94583
4.18525
5.39661
6.35539
7.20779
7.92668
8.62441
9.29871
9.70851
9.93061
10.0964
10.198
10.2038
10.1215
10.0304
9.97511
9.85741
9.61365
9.305
8.90557
8.33384
7.71395
7.10596
6.50996
5.92325
5.33356
4.71347
4.01227
3.1
1.40327
1.93188
4.11914
5.29578
6.21721
7.02053
7.73278
8.37125
9.00627
9.45784
9.74961
10.0051
10.1993
10.2809
10.2302
10.1387
10.0852
9.99569
9.8016
9.53625
9.15351
8.57003
7.92723
7.2998
6.68731
6.09036
5.49357
4.86088
4.13562
3.18858
1.44503
1.92362
4.05811
5.19401
6.06443
6.81929
7.51925
8.14014
8.73394
9.19226
9.55486
9.90044
10.1884
10.3507
10.3562
10.2901
10.2586
10.1979
10.0298
9.78212
9.38606
8.78304
8.11829
7.4707
6.84391
6.24364
5.64849
5.01153
4.26016
3.23267
1.5111
1.9
4.00547
5.10503
5.93098
6.64349
7.31072
7.94819
8.52257
8.98138
9.37207
9.74857
10.0801
10.3607
10.481
10.466
10.49
10.469
10.3056
10.0368
9.59202
8.96537
8.28328
7.6177
6.98147
6.36281
5.76746
5.12925
4.37864
3.37397
1.5786
1.85198
3.94588
5.02253
5.82396
6.51646
7.14924
7.7744
8.34311
8.81956
9.23656
9.61431
9.9684
10.2956
10.5729
10.648
10.7404
10.7833
10.6086
10.2881
9.77285
9.11833
8.42218
7.73578
7.0764
6.49663
5.91146
5.26848
4.52383
3.534
1.68315
1.80963
3.88481
4.94724
5.73853
6.42433
7.04855
7.64346
8.19802
8.68439
9.13872
9.56886
9.97243
10.3373
10.6463
10.8393
10.9589
11.0598
10.8878
10.5117
9.91002
9.24233
8.54138
7.83184
7.20818
6.62911
6.03086
5.38222
4.6323
3.63169
1.72699
1.77618
3.82194
4.87875
5.66959
6.356
6.98516
7.56367
8.10484
8.60875
9.11092
9.60778
10.0748
10.4936
10.8405
11.0667
11.1324
11.2379
11.095
10.6437
10.0111
9.34493
8.63345
7.94738
7.33782
6.74833
6.13711
5.4799
4.72422
3.71164
1.74035
1.73192
3.75078
4.81441
5.61143
6.30574
6.94656
7.53073
8.07135
8.60151
9.16251
9.73299
10.2798
10.7795
11.2014
11.4287
11.3192
11.4011
11.232
10.7374
10.1099
9.42634
8.7229
8.06882
7.46551
6.86833
6.24807
5.58229
4.81571
3.7842
1.75853
1.6841
3.6771
4.75134
5.55894
6.26657
6.92596
7.52767
8.08346
8.65699
9.28256
9.93065
10.5782
11.2035
11.735
11.8823
11.5767
11.5983
11.3415
10.8514
10.2118
9.50509
8.82532
8.19996
7.60138
6.99382
6.36233
5.68348
4.90053
3.84681
1.78145
1.65936
3.63248
4.69808
5.50794
6.23379
6.91683
7.54211
8.13115
8.76117
9.44366
10.1709
10.9379
11.7279
12.3802
12.3036
11.8874
11.7801
11.4789
10.9742
10.3148
9.60627
8.94545
8.34028
7.73871
7.11762
6.47081
5.77622
4.97722
3.90439
1.80613
1.66386
3.61883
4.66643
5.47597
6.21589
6.92045
7.57533
8.21226
8.88956
9.62022
10.416
11.2971
12.2671
13.0122
12.6663
12.2177
11.9758
11.6061
11.0792
10.4277
9.72715
9.08841
8.49206
7.87392
7.23328
6.56841
5.85868
5.047
3.96069
1.83123
1.69388
3.63025
4.68185
5.49215
6.23503
6.95044
7.63957
8.3216
9.03199
9.79187
10.6284
11.5818
12.6529
13.4048
13.0037
12.533
12.1429
11.6865
11.1773
10.5592
9.87833
9.24485
8.63974
7.99565
7.33243
6.64994
5.92805
5.11058
4.02057
1.86266
1.71289
3.6679
4.75129
5.56609
6.30171
7.02002
7.74184
8.45714
9.18606
9.95392
10.7926
11.7344
12.7486
13.3609
13.1133
12.7362
12.2533
11.7725
11.3104
10.7276
10.0516
9.40156
8.76113
8.08812
7.40464
6.70834
5.97921
5.16491
4.08983
1.92297
1.74133
3.74023
4.85971
5.69517
6.42132
7.13631
7.88712
8.6256
9.36432
10.1146
10.9028
11.7693
12.6322
13.0131
12.9266
12.7308
12.2761
11.8171
11.4296
10.8818
10.1984
9.51789
8.82877
8.13501
7.44057
6.73585
6.00303
5.19533
4.13996
1.96011
1.79453
3.86734
5.00087
5.85933
6.58974
7.30909
8.08567
8.83889
9.56398
10.2516
10.9703
11.7501
12.3939
12.5983
12.619
12.4782
12.1189
11.7282
11.3888
10.9253
10.2506
9.53133
8.82593
8.13383
7.44
6.729
5.98494
5.1519
4.1153
2.00281
1.85246
4.03317
5.19434
6.06541
6.81472
7.55124
8.33622
9.06064
9.71817
10.3426
11.0125
11.6609
12.0772
12.2377
12.257
12.1219
11.8278
11.5236
11.2417
10.8169
10.1634
9.46574
8.78378
8.10822
7.41792
6.6941
5.91317
5.00251
3.94304
1.91168
1.90998
4.19184
5.40705
6.3088
7.09264
7.8459
8.56293
9.17099
9.72893
10.296
10.9035
11.4315
11.756
11.8923
11.8999
11.7775
11.5373
11.3001
11.0704
10.6389
10.007
9.37671
8.74539
8.08974
7.39539
6.64601
5.798
4.7727
3.56528
1.65474
1.96401
4.32095
5.58215
6.52225
7.33575
8.04983
8.64617
9.16556
9.67341
10.1904
10.7098
11.1563
11.4321
11.5548
11.572
11.4725
11.2791
11.0932
10.8844
10.4337
9.83689
9.28775
8.72831
8.09181
7.38952
6.61126
5.70506
4.6018
3.22532
1.41638
2.00981
4.42123
5.70335
6.65511
7.47125
8.13404
8.65539
9.14985
9.62676
10.0885
10.5226
10.8835
11.117
11.2354
11.2727
11.198
11.0519
10.9059
10.6861
10.2361
9.71398
9.18953
8.65651
8.06077
7.38452
6.6081
5.69047
4.59719
3.16351
1.34489
2.03942
4.48527
5.77533
6.7304
7.55125
8.17814
8.67398
9.15626
9.60726
10.0108
10.3581
10.6434
10.8384
10.9531
11.0039
10.953
10.8595
10.7418
10.5067
10.1013
9.60758
9.0951
8.56384
7.99022
7.35344
6.62484
5.7723
4.73925
3.37664
1.45266
2.04754
4.50619
5.79444
6.75878
7.58366
8.19785
8.71093
9.20158
9.63605
9.9788
10.2355
10.4553
10.6165
10.7243
10.781
10.7647
10.7125
10.6163
10.3883
9.99937
9.52767
9.02727
8.497
7.92127
7.29891
6.61437
5.82719
4.88641
3.66342
1.67855
2.03842
4.48685
5.77001
6.73764
7.56374
8.19898
8.75033
9.27351
9.7166
10.0027
10.169
10.3319
10.4682
10.5725
10.6436
10.6679
10.6435
10.5583
10.3251
9.94215
9.48083
8.98366
8.44203
7.85227
7.22071
6.54266
5.79073
4.91434
3.78081
1.74341
2.01207
4.43083
5.70437
6.66874
7.48953
8.17269
8.78906
9.33934
9.80736
10.0696
10.1653
10.2814
10.4114
10.5335
10.6458
10.7009
10.6868
10.5935
10.3335
9.93561
9.46301
8.93003
8.35634
7.75512
7.12563
6.45799
5.72842
4.88822
3.79147
1.73362
1.9742
4.34346
5.61079
6.58005
7.40903
8.13336
8.79093
9.40423
9.86554
10.1348
10.2197
10.2989
10.4454
10.6116
10.7931
10.8641
10.8445
10.7165
10.412
9.9692
9.41996
8.84249
8.25229
7.64589
7.02133
6.36823
5.6607
4.84248
3.76027
1.71641
1.90161
4.22045
5.49949
6.49765
7.35546
8.1093
8.78722
9.42111
9.92213
10.1685
10.3175
10.3826
10.5567
10.7907
11.0523
11.1196
11.0974
10.9358
10.527
9.95772
9.3463
8.73896
8.13401
7.52609
6.90896
6.27469
5.59436
4.79903
3.72209
1.68731
1.65153
4.00361
5.37437
6.43434
7.34289
8.13304
8.81931
9.42793
9.95557
10.1928
10.4009
10.5299
10.7217
11.0229
11.3229
11.412
11.4136
11.1399
10.5691
9.90538
9.25326
8.61979
8.00458
7.39254
6.77844
6.16327
5.52762
4.77388
3.69632
1.68439
1.60291
3.80687
5.24497
6.40853
7.38979
8.22877
8.92743
9.48407
9.94085
10.2434
10.4547
10.7165
10.9241
11.2683
11.5516
11.7123
11.755
11.224
10.5436
9.83673
9.14935
8.49058
7.85771
7.23431
6.61351
5.97629
5.36272
4.66813
3.64282
1.71054
1.59044
3.6574
5.15402
6.44298
7.51566
8.43101
9.16118
9.6541
9.98707
10.2987
10.5585
10.895
11.1358
11.4749
11.717
12.0021
11.9528
11.2892
10.5272
9.76653
9.03742
8.34657
7.67825
7.04914
6.46088
5.89153
5.28489
4.58618
3.61698
1.69834
1.56054
3.59249
5.14117
6.53647
7.7204
8.74275
9.53917
9.97416
10.1948
10.4135
10.7658
11.0654
11.3106
11.6096
11.861
12.2666
12.0972
11.3626
10.5291
9.701
8.91241
8.23367
7.60537
6.98388
6.37548
5.7702
5.13794
4.42834
3.4805
1.62148
1.56425
3.65673
5.24948
6.69937
7.98823
9.07802
9.88545
10.2943
10.5054
10.6571
10.9407
11.2168
11.4349
11.7401
12.1219
12.6125
12.3835
11.5886
10.6416
9.68516
8.89941
8.19436
7.51964
6.85278
6.21243
5.58964
4.95287
4.2399
3.30583
1.50513
1.57298
3.84367
5.50075
6.95271
8.24646
9.25196
9.88063
10.3179
10.656
10.872
11.0523
11.2913
11.5593
11.9381
12.4487
13.0075
12.9532
12.0403
10.9
9.79612
8.87283
8.07776
7.34729
6.66166
6.01598
5.39299
4.75864
4.05129
3.1352
1.41778
1.61534
4.07638
5.76023
7.20752
8.32729
9.1036
9.5911
10.032
10.4501
10.7945
11.0748
11.3404
11.6618
12.104
12.6878
13.302
13.4738
12.4343
11.0464
9.76355
8.73979
7.89337
7.1453
6.45981
5.8163
5.19494
4.565
3.86934
2.98183
1.34517
1.67459
4.18357
5.96407
7.23851
8.1843
8.80916
9.25645
9.67139
10.0814
10.4808
10.8781
11.2692
11.6359
12.0774
12.6648
13.2906
13.2522
12.2592
10.8482
9.56814
8.54534
7.69501
6.94861
6.26597
5.62383
5.00305
4.37667
3.69035
2.83008
1.27572
1.78228
4.26293
5.91564
7.07845
7.90319
8.50217
8.9496
9.35347
9.75367
10.162
10.5909
11.0443
11.4928
11.915
12.3756
12.7877
12.6749
11.7924
10.493
9.3175
8.34663
7.51491
6.77643
6.0984
5.45519
4.83238
4.2045
3.52152
2.67072
1.19263
1.92377
4.40976
5.86641
6.85197
7.60315
8.20998
8.6727
9.07762
9.47093
9.87909
10.3145
10.7644
11.1927
11.5602
11.8619
12.0592
11.9849
11.2393
10.1231
9.08524
8.18165
7.37573
6.64875
5.97505
5.33307
4.71078
4.07947
3.3911
2.53412
1.11047
2.10771
4.49779
5.78951
6.64546
7.38804
7.99169
8.44528
8.83887
9.21548
9.60557
10.0209
10.4463
10.8406
11.1601
11.387
11.5238
11.4875
10.8324
9.8491
8.91621
8.07062
7.29036
6.57492
5.90932
5.27761
4.66436
4.0413
3.3573
2.50564
1.10273
2.21587
4.47524
5.65109
6.49655
7.24475
7.85185
8.27832
8.63656
8.98156
9.33919
9.71784
10.1028
10.4625
10.7609
10.9882
11.1724
11.2285
10.6355
9.71045
8.82858
8.01884
7.26064
6.55893
5.90651
5.29167
4.69975
4.10408
3.44232
2.62298
1.23164
2.11239
4.38432
5.51053
6.36247
7.1219
7.75491
8.16232
8.4678
8.76884
9.08668
9.42416
9.76942
10.1012
10.4004
10.6686
10.95
11.1358
10.6105
9.69515
8.82023
8.02203
7.27851
6.59133
5.95484
5.359
4.788
4.21116
3.55385
2.72863
1.2617
2.02436
4.24999
5.36427
6.22366
6.99412
7.66519
8.07822
8.32981
8.58009
8.85482
9.1534
9.46563
9.78087
10.0932
10.417
10.7978
11.1351
10.7032
9.77969
8.88277
8.07387
7.3344
6.65747
6.03195
5.44388
4.86725
4.25208
3.56947
2.73012
1.22345
1.92498
4.09924
5.21121
6.07649
6.85541
7.56366
8.00983
8.22097
8.41877
8.6499
8.91195
9.19769
9.50328
9.8344
10.2116
10.6789
11.1573
10.8658
9.9362
9.00387
8.16925
7.42096
6.74241
6.11154
5.49948
4.87192
4.2176
3.51431
2.67076
1.20901
1.83838
3.9533
5.05963
5.92639
6.71062
7.44746
7.94541
8.13854
8.28717
8.47448
8.70233
8.96495
9.26414
9.6112
10.0317
10.5633
11.1565
11.0666
10.1478
9.17356
8.30355
7.5323
6.83247
6.1637
5.49638
4.8237
4.14192
3.42687
2.57673
1.1504
1.7755
3.82847
4.91926
5.78123
6.56707
7.32243
7.87797
8.07817
8.18494
8.33012
8.52406
8.7649
9.05619
9.41378
9.86322
10.4388
11.1122
11.2742
10.4017
9.38148
8.46987
7.66072
6.91179
6.18318
5.46281
4.75361
4.05126
3.3223
2.44338
1.04143
1.72171
3.71794
4.79203
5.64574
6.42958
7.1945
7.80309
8.03486
8.11164
8.21564
8.37558
8.59285
8.87305
9.23247
9.69673
10.2963
11.0239
11.4274
10.6715
9.61405
8.65792
7.79663
6.98426
6.19319
5.42168
4.67987
3.95969
3.2178
2.31128
0.92388
1.66962
3.61741
4.67598
5.52109
6.30094
7.06871
7.72024
8.00422
8.06548
8.1301
8.25358
8.44461
8.70867
9.0618
9.52655
10.1317
10.8824
11.4651
10.917
9.86245
8.85993
7.94168
7.06296
6.20762
5.38554
4.6142
3.87703
3.1616
2.36087
1.03941
1.62569
3.52839
4.57072
5.40685
6.18187
6.94957
7.63437
7.98326
8.04474
8.07078
8.15561
8.31639
8.55956
8.89734
9.35005
9.94145
10.6831
11.3833
11.1326
10.1249
9.07652
8.10098
7.15917
6.23976
5.37096
4.56447
3.84638
3.14596
2.34817
1.02306
1.58208
3.44289
4.47325
5.30186
6.07159
6.83784
7.54948
7.96989
8.04582
8.0354
8.07864
8.20533
8.42265
8.73858
9.16824
9.73083
10.4369
11.1914
11.2921
10.394
9.30924
8.28288
7.28849
6.31572
5.39973
4.59755
3.86649
3.14342
2.31471
0.990829
1.53592
3.36243
4.38358
5.20602
5.97043
6.73257
7.46372
7.95766
8.06255
8.01895
8.02031
8.10984
8.2981
8.58705
8.98691
9.51028
10.1668
10.9126
11.3184
10.6479
9.57019
8.4993
7.46432
6.46162
5.5117
4.68429
3.92994
3.18523
2.33179
0.986311
1.50146
3.29189
4.30583
5.12353
5.88169
6.63618
7.37664
7.93853
8.09063
8.01924
7.97638
8.03073
8.18733
8.44713
8.8129
9.29252
9.89141
10.5925
11.1786
10.878
9.86789
8.7569
7.68874
6.6633
5.69644
4.83982
4.04476
3.26226
2.37625
0.99751
1.48431
3.24138
4.25081
5.06485
5.81605
6.55814
7.29451
7.90857
8.12229
8.02981
7.94602
7.96764
8.09347
8.32327
8.65426
9.089
9.62917
10.2627
10.8886
11.001
10.1771
9.05031
7.95445
6.91114
5.93184
5.03939
4.2032
3.3772
2.44619
1.02156
1.50057
3.24419
4.24271
5.04826
5.78831
6.51576
7.23941
7.87878
8.15409
8.04967
7.92847
7.92122
8.01895
8.21967
8.51645
8.9085
9.39298
9.95956
10.5493
10.9107
10.4471
9.38049
8.24816
7.18152
6.18873
5.2716
4.40375
3.53278
2.54884
1.05867
1.58731
3.32293
4.30441
5.09249
5.81561
6.5243
7.23089
7.87792
8.19317
8.07643
7.92549
7.89217
7.9652
8.13751
8.40202
8.75429
9.18949
9.69548
10.2324
10.6672
10.6043
9.69637
8.5454
7.45499
6.44593
5.5153
4.6278
3.72157
2.68376
1.11086
1.68595
3.45114
4.42946
5.20125
5.9075
6.59698
7.28575
7.93114
8.25475
8.11687
7.9384
7.88139
7.93037
8.07533
8.30962
8.62636
9.01915
9.47577
9.96269
10.3889
10.5163
9.90338
8.82652
7.71743
6.69053
5.74846
4.85521
3.93003
2.84759
1.1783
1.6091
3.52841
4.54846
5.34405
6.05076
6.73059
7.41062
8.05514
8.35808
8.17958
7.97304
7.889
7.91255
8.03022
8.23579
8.52097
8.8785
9.29587
9.7439
10.1441
10.3268
9.99692
9.0548
7.95526
6.91236
5.96175
5.06456
4.13416
3.02723
1.26009
1.58714
3.54101
4.60544
5.45059
6.20618
6.90614
7.60042
8.2487
8.50499
8.27284
8.03353
7.91608
7.91055
7.99989
8.17809
8.43539
8.76419
9.15266
9.57317
9.95724
10.1542
9.92464
9.15618
8.14547
7.10342
6.14782
5.24587
4.31498
3.19858
1.35268
1.60974
3.55061
4.62925
5.51194
6.32591
7.09371
7.83565
8.49599
8.68909
8.39899
8.12142
7.96487
7.92403
7.98488
8.13632
8.36955
8.67608
9.04436
9.44926
9.8238
10.0199
9.81185
9.16614
8.25322
7.25552
6.30142
5.39464
4.46092
3.33996
1.44036
1.6349
3.55741
4.64297
5.55114
6.41583
7.26021
8.08451
8.76951
8.89668
8.55699
8.23721
8.03722
7.95811
7.98854
8.11418
8.32638
8.61602
8.9721
9.36974
9.74567
9.94141
9.73013
9.11708
8.28652
7.3564
6.41523
5.50719
4.57006
3.44287
1.50673
1.43504
3.52895
4.64561
5.57615
6.48486
7.39804
8.31239
9.03151
9.10898
8.73976
8.38132
8.13708
8.01804
8.01523
8.11681
8.31074
8.58777
8.93729
9.33623
9.72119
9.92014
9.68625
9.06304
8.27412
7.39708
6.48473
5.58317
4.64465
3.50777
1.54897
1.58304
3.54682
4.60711
5.57667
6.52521
7.49829
8.49066
9.24129
9.31546
8.94337
8.55474
8.26864
8.10897
8.07261
8.14782
8.32515
8.59321
8.94092
9.34614
9.74922
9.94918
9.67856
9.02051
8.23331
7.39362
6.51507
5.62764
4.69308
3.54525
1.58143
1.63799
3.56034
4.60478
5.53331
6.52992
7.55098
8.58872
9.37364
9.49926
9.16341
8.75849
8.43357
8.23352
8.1628
8.21272
8.37187
8.63105
8.97939
9.39896
9.82762
10.0233
9.69442
8.99283
8.18832
7.36167
6.51331
5.64598
4.72212
3.5766
1.60912
1.5965
3.50834
4.56465
5.46976
6.49321
7.55348
8.57571
9.40601
9.65142
9.39676
8.98921
8.62875
8.38821
8.28294
8.30729
8.4501
8.7026
9.05576
9.49589
9.95674
10.1332
9.72268
8.97449
8.14907
7.32101
6.49384
5.64761
4.73915
3.60581
1.63688
1.53461
3.44271
4.53792
5.43741
6.41006
7.49783
8.51237
9.38712
9.79696
9.64389
9.23925
8.84242
8.56247
8.42315
8.42248
8.5491
8.79695
9.15871
9.62784
10.1198
10.254
9.75347
8.96421
8.12237
7.28974
6.46992
5.63881
4.74311
3.62241
1.66987
1.48951
3.36519
4.50097
5.43209
6.34201
7.37648
8.42462
9.38329
9.97092
9.9116
9.49461
9.05571
8.73798
8.56852
8.54509
8.65803
8.90303
9.27774
9.78008
10.3013
10.3751
9.79028
8.96366
8.11078
7.27701
6.45757
5.62704
4.72959
3.61215
1.69628
1.44233