/*--------------------------------*- C++ -*----------------------------------*\
| =========                 |                                                 |
| \\      /  F ield         | OpenFOAM: The Open Source CFD Toolbox           |
|  \\    /   O peration     | Version:  2.3.0                                 |
|   \\  /    A nd           | Web:      www.OpenFOAM.org                      |
|    \\/     M anipulation  |                                                 |
\*---------------------------------------------------------------------------*/
FoamFile
{
    version     2.0;
    format      ascii;
    class       volScalarField;
    location    "0.96";
    object      nut.particles;
}
// * * * * * * * * * * * * * * * * * * * * * * * * * * * * * * * * * * * * * //

dimensions      [0 2 -1 0 0 0 0];

internalField   nonuniform List<scalar> 
6000
(
1.68243e-05
1.06033e-05
9.27548e-06
8.98742e-06
7.95551e-06
7.8249e-06
9.42276e-06
1.00382e-05
1.29565e-05
1.072e-05
1.02808e-05
1.1529e-05
6.87999e-06
7.96691e-06
8.87195e-06
9.44593e-06
7.06665e-06
6.31725e-06
9.3481e-06
1.12175e-05
1.1561e-05
1.1229e-05
1.22643e-05
1.82272e-05
2.02973e-05
2.18947e-05
1.14159e-05
7.05086e-06
6.5024e-06
7.9871e-06
2.16475e-06
1.16926e-06
9.54724e-07
8.34225e-07
6.91933e-07
9.67481e-07
1.27735e-06
1.51592e-06
1.95099e-06
2.34122e-06
2.23144e-06
1.78654e-06
1.28903e-06
9.03828e-07
8.86935e-07
6.02552e-07
7.3661e-07
1.20804e-06
1.64787e-06
1.51171e-06
1.29838e-06
1.19956e-06
1.5833e-06
3.89353e-06
1.27128e-05
1.62187e-05
5.6643e-06
3.71265e-06
2.38961e-06
1.22504e-06
1.02284e-06
5.35854e-07
1.95514e-07
1.70559e-07
2.75874e-07
4.78146e-07
3.78704e-07
6.53644e-07
1.22695e-06
3.16422e-06
3.3265e-06
6.87211e-07
6.0693e-07
6.96117e-07
7.38905e-07
6.19775e-07
3.93612e-07
3.45422e-07
5.41937e-07
2.52413e-06
3.49553e-06
2.2473e-06
2.61947e-06
6.10348e-06
2.60324e-05
2.32029e-05
9.23745e-06
1.40775e-06
2.67601e-06
6.02237e-06
8.83893e-07
4.28631e-07
3.86609e-07
4.36032e-07
4.28123e-07
3.64713e-07
4.82473e-07
4.53215e-07
8.30316e-07
2.9852e-06
4.33822e-06
7.68166e-07
6.27382e-07
7.01955e-07
8.42328e-07
1.44562e-06
9.57045e-07
6.49337e-07
8.37209e-07
5.36881e-06
1.97562e-05
2.37269e-05
5.7162e-06
4.19299e-07
6.24877e-06
2.44234e-05
8.39326e-06
3.55061e-06
3.98861e-06
5.56461e-06
1.01431e-06
4.94818e-07
4.17987e-07
6.97922e-07
9.07096e-07
4.37438e-07
5.0456e-07
6.82309e-07
7.30241e-07
2.16884e-06
5.28528e-06
7.98277e-07
6.50471e-07
1.65942e-06
1.83542e-06
5.79661e-06
3.64065e-06
6.11865e-07
4.77628e-06
2.57855e-05
3.53471e-05
3.22837e-05
3.98954e-06
4.92367e-07
3.7792e-07
2.03472e-05
1.32067e-05
9.9505e-06
1.06079e-05
9.13816e-06
1.43421e-06
6.57445e-07
1.10087e-06
2.85617e-06
1.26214e-05
6.0843e-07
6.09311e-07
7.77298e-07
6.37965e-07
1.3201e-06
6.02023e-06
9.55653e-07
1.07244e-06
5.12454e-06
1.82455e-05
1.8707e-05
2.3083e-05
7.27558e-06
3.03122e-05
4.29925e-05
3.05964e-05
1.01783e-05
1.50731e-06
8.43912e-07
5.71459e-07
5.717e-06
1.86844e-05
2.07284e-05
1.39664e-05
1.10935e-05
1.94498e-06
1.25887e-06
4.66064e-06
2.0502e-05
2.07473e-05
1.77275e-05
2.372e-06
9.1853e-07
5.30442e-07
9.13391e-07
1.74009e-05
1.06728e-06
3.64221e-06
1.9958e-05
2.09823e-05
1.91283e-05
2.97071e-05
3.68869e-05
5.44308e-05
3.71205e-05
1.11499e-05
1.10072e-06
7.20697e-07
9.88512e-07
1.08137e-06
1.8497e-06
1.83185e-05
1.87526e-05
4.20578e-06
7.88418e-06
3.54798e-06
4.12865e-06
2.37506e-05
3.17199e-05
2.32403e-05
2.89184e-05
2.49047e-05
5.85256e-06
1.48041e-06
1.8333e-06
1.92894e-05
2.10533e-05
2.65381e-05
2.76108e-05
2.17778e-05
2.92831e-05
2.95326e-05
5.30635e-05
3.94564e-05
7.62816e-06
5.05773e-07
3.42653e-07
3.09928e-07
6.1225e-07
1.34462e-06
1.40056e-06
3.38131e-06
1.63818e-06
4.66561e-07
6.66798e-06
9.95145e-06
2.9953e-05
4.89646e-05
3.38211e-05
5.63811e-05
3.08095e-05
4.34494e-05
3.59748e-05
3.03312e-05
2.61168e-05
2.8102e-05
2.6836e-05
4.07228e-05
2.7503e-05
3.37825e-05
2.74378e-05
4.24155e-05
1.06284e-05
2.80946e-06
2.37222e-07
2.46529e-07
2.96134e-07
1.7124e-07
2.85746e-07
7.30716e-07
9.43598e-07
6.91303e-07
6.41076e-08
6.3056e-08
8.20567e-06
2.73914e-05
5.12583e-05
5.01855e-05
8.00372e-05
4.16797e-05
7.45997e-05
3.9321e-05
7.21799e-05
4.5955e-05
5.50317e-05
3.77932e-05
5.67654e-05
3.72954e-05
4.71574e-05
2.94943e-05
4.1836e-05
1.89792e-06
2.38392e-07
2.92605e-08
6.57894e-08
2.30703e-07
3.15649e-07
1.41347e-07
1.13204e-07
2.76617e-07
4.06085e-07
1.91468e-07
1.15255e-07
1.80237e-07
9.57243e-06
1.07883e-05
7.68559e-06
5.64669e-06
4.58498e-06
7.50214e-06
2.03996e-05
7.56821e-05
4.55281e-05
8.36598e-05
5.17445e-05
7.93189e-05
4.57295e-05
6.67226e-05
3.35651e-05
5.21369e-05
1.83213e-06
1.3262e-07
1.0426e-07
5.56281e-08
7.55608e-08
1.91495e-07
2.75731e-07
1.52315e-07
8.25746e-08
9.53533e-08
1.40188e-07
1.0878e-07
1.72602e-07
2.42006e-07
9.82697e-06
1.22341e-06
4.49013e-07
1.64467e-07
5.3664e-08
1.0478e-07
6.5816e-07
2.83748e-06
5.9207e-06
1.04415e-05
1.65819e-05
1.95701e-05
2.05185e-05
1.58596e-05
1.21307e-05
2.19428e-06
9.78925e-08
1.16894e-07
9.10265e-08
5.96308e-08
6.76832e-08
2.02718e-07
2.6997e-07
1.58948e-07
9.40696e-08
8.15544e-08
6.55103e-08
8.07665e-08
1.93147e-07
3.68047e-07
8.78718e-06
3.99132e-07
1.78407e-08
2.3905e-08
2.53431e-08
3.5221e-08
8.00231e-08
2.74701e-07
3.72609e-07
5.06764e-07
8.02938e-07
8.87454e-07
1.07677e-06
1.69212e-06
1.31331e-06
1.9606e-07
9.05089e-08
1.02826e-07
7.61997e-08
7.53808e-08
6.79285e-08
1.98834e-07
2.82598e-07
1.79378e-07
1.26895e-07
1.06508e-07
9.86222e-08
1.03301e-07
2.69008e-07
6.9123e-07
3.60425e-06
3.24475e-07
2.4085e-08
2.7047e-08
3.04311e-08
4.08009e-08
9.06754e-08
2.39218e-07
1.81203e-07
1.65265e-07
2.30592e-07
2.00367e-07
4.45085e-07
1.04929e-06
7.95563e-07
1.39739e-07
1.13308e-07
8.81802e-08
8.12616e-08
1.02337e-07
8.07968e-08
2.22662e-07
3.10389e-07
2.19062e-07
1.61282e-07
1.63432e-07
1.48446e-07
1.62781e-07
3.52971e-07
1.07318e-06
1.91925e-06
2.9185e-07
2.62213e-08
3.21478e-08
3.9654e-08
5.85956e-08
1.05953e-07
2.51341e-07
2.34179e-07
1.7951e-07
2.28529e-07
2.24709e-07
4.55347e-07
9.93138e-07
7.66388e-07
1.55139e-07
1.24408e-07
8.86403e-08
1.15844e-07
1.32797e-07
1.04939e-07
2.75478e-07
3.99274e-07
2.38639e-07
1.95792e-07
2.20758e-07
2.05876e-07
2.68242e-07
3.81631e-07
4.98091e-07
2.0557e-06
2.60703e-07
2.91123e-08
3.80655e-08
5.34978e-08
7.63646e-08
1.1645e-07
2.32777e-07
2.32371e-07
2.00646e-07
2.13511e-07
2.44741e-07
4.34776e-07
9.16838e-07
6.92276e-07
1.70171e-07
1.50984e-07
1.13574e-07
1.33511e-07
1.34727e-07
1.66702e-07
3.76903e-07
5.87206e-07
2.9575e-07
2.20279e-07
2.77839e-07
3.07926e-07
3.78316e-07
2.73643e-07
2.31769e-07
3.50366e-06
2.41656e-07
3.60319e-08
4.92918e-08
7.23737e-08
1.05728e-07
1.40221e-07
2.30682e-07
2.38124e-07
1.93619e-07
1.98603e-07
2.25003e-07
3.36858e-07
7.04388e-07
5.96018e-07
2.02644e-07
1.70734e-07
1.58305e-07
1.76873e-07
1.90777e-07
3.40237e-07
6.53049e-07
9.59614e-07
4.56402e-07
2.5026e-07
3.39823e-07
4.43567e-07
3.89047e-07
3.44779e-07
3.34681e-07
5.3741e-06
2.43914e-07
4.86139e-08
7.00124e-08
1.02581e-07
1.52138e-07
1.86606e-07
2.26486e-07
2.70241e-07
1.94874e-07
1.75833e-07
1.9188e-07
2.66024e-07
4.72472e-07
4.79975e-07
2.36068e-07
2.21421e-07
2.40953e-07
3.1456e-07
4.17115e-07
7.78722e-07
1.28268e-06
1.74256e-06
9.65009e-07
3.1415e-07
3.72141e-07
5.10321e-07
5.027e-07
4.70548e-07
4.91052e-07
6.92791e-06
2.65252e-07
7.18672e-08
1.04852e-07
1.556e-07
2.18451e-07
2.78519e-07
2.51899e-07
2.62173e-07
1.91878e-07
1.73686e-07
1.47668e-07
1.90196e-07
2.9082e-07
3.73331e-07
1.90301e-07
2.75556e-07
3.50051e-07
5.76945e-07
9.3783e-07
1.71327e-06
2.67376e-06
3.38939e-06
2.30837e-06
5.72722e-07
3.25037e-07
4.34895e-07
4.42773e-07
4.14449e-07
1.68185e-06
8.36873e-06
2.92796e-07
1.11675e-07
1.60935e-07
2.34218e-07
3.27043e-07
4.14271e-07
3.39677e-07
2.27687e-07
1.76333e-07
1.60492e-07
1.08548e-07
1.30176e-07
1.88999e-07
1.66562e-07
9.31579e-08
3.19628e-07
1.51989e-06
7.60793e-07
3.34738e-05
0.000295274
0.000573258
0.000498505
5.62021e-05
1.66003e-06
4.96281e-07
4.1903e-07
3.56669e-07
6.19959e-07
1.24923e-05
1.31682e-05
3.38801e-07
1.77076e-07
2.50894e-07
3.52738e-07
4.95195e-07
6.75229e-07
5.05909e-07
1.77282e-07
1.13922e-07
1.54222e-07
1.04683e-07
1.06952e-07
1.1653e-07
6.89643e-08
7.37898e-08
2.39401e-07
2.50197e-06
0.000206382
0.000910271
0.000918164
0.000957707
0.000917484
0.000923015
7.21785e-05
3.59601e-06
5.89369e-06
8.86674e-06
1.81349e-05
3.22589e-05
2.15879e-05
4.2964e-07
2.78585e-07
3.80391e-07
5.16887e-07
7.4393e-07
1.09721e-06
7.99069e-07
1.62797e-07
7.0909e-08
1.34248e-07
1.11576e-07
9.65304e-08
5.72627e-08
6.57027e-08
1.01148e-07
1.18466e-07
1.47056e-06
0.00037159
0.000919861
0.000963235
0.000922973
0.000965209
0.000924269
0.000939255
3.1358e-05
1.73596e-05
1.48547e-05
1.75302e-05
1.3494e-05
1.40136e-05
5.71734e-07
4.09027e-07
5.20725e-07
6.93023e-07
1.03446e-06
1.48645e-06
1.1211e-06
1.79744e-07
7.02285e-08
1.3157e-07
1.12626e-07
8.29361e-08
4.38373e-08
8.34298e-08
1.11483e-07
1.43729e-07
6.27781e-07
2.0605e-05
0.000961954
0.000759377
1.8103e-05
1.24776e-05
1.30216e-05
1.26215e-05
8.00535e-06
3.68207e-06
2.20347e-06
1.53206e-06
4.18655e-07
1.79254e-06
7.58658e-07
5.1249e-07
5.98998e-07
8.00894e-07
1.18319e-06
1.64576e-06
1.43222e-06
2.95442e-07
8.07637e-08
1.2608e-07
1.39669e-07
1.23014e-07
6.92641e-08
8.70189e-08
1.33463e-07
1.87862e-07
1.36711e-06
1.46955e-05
1.56927e-05
3.43614e-06
1.0179e-06
8.40854e-07
9.80222e-07
8.98992e-07
8.81692e-08
4.02854e-08
3.2039e-08
3.23072e-08
4.21394e-08
1.04241e-06
9.461e-07
5.17298e-07
5.61978e-07
1.27547e-06
7.05264e-06
9.60186e-06
1.65555e-06
7.10825e-07
9.45517e-08
1.37577e-07
2.39351e-07
1.44017e-07
1.23536e-07
1.11906e-07
1.75606e-07
3.25894e-07
4.98294e-06
8.92165e-06
1.68918e-06
7.63248e-08
5.9405e-08
6.23665e-08
6.2292e-08
6.00323e-08
5.90456e-08
5.43296e-08
5.96403e-08
5.52105e-08
5.31734e-08
9.60504e-07
1.055e-06
4.60552e-07
1.86065e-05
5.75022e-05
8.19193e-05
7.30126e-05
3.66099e-05
1.7217e-06
1.01873e-07
1.59445e-07
2.31187e-07
1.92128e-07
1.57098e-07
1.37003e-07
2.19578e-07
8.80905e-07
5.98685e-06
3.19195e-06
3.08571e-07
8.42145e-08
6.67661e-08
6.55021e-08
6.73957e-08
6.53862e-08
6.24243e-08
5.69695e-08
6.32984e-08
5.55557e-08
6.57422e-08
8.49942e-07
1.00288e-06
3.86804e-05
0.00015889
0.00025283
0.000260475
0.000180396
0.000111636
2.8457e-06
1.4021e-07
1.62044e-07
2.1323e-07
1.673e-07
1.32071e-07
1.99442e-07
3.8056e-07
2.03189e-06
3.9786e-06
1.11039e-06
2.35338e-07
1.39559e-07
9.26145e-08
7.61038e-08
7.1414e-08
6.82379e-08
6.46089e-08
6.10308e-08
6.10765e-08
5.85168e-08
8.18757e-08
7.04698e-07
7.99936e-05
0.00031784
0.00062443
0.000726004
0.000589881
0.000330714
0.000149331
3.44272e-06
2.34151e-07
1.47863e-07
1.73888e-07
1.30902e-07
1.94465e-07
3.9186e-07
8.87152e-07
2.49572e-06
2.09128e-06
6.06332e-07
2.82048e-07
2.2212e-07
1.59747e-07
1.15856e-07
1.02357e-07
9.5409e-08
8.29242e-08
8.00412e-08
6.91448e-08
7.24867e-08
9.66972e-08
5.44702e-07
0.000743504
0.00139823
0.00186139
0.00173698
0.00115891
0.000576471
0.000133466
3.20556e-06
3.11707e-07
1.785e-07
1.52382e-07
1.5274e-07
4.49412e-07
9.35924e-07
1.78769e-06
2.36743e-06
1.44399e-06
6.842e-07
4.64606e-07
3.52546e-07
2.67837e-07
2.01339e-07
1.59606e-07
1.48024e-07
1.31826e-07
1.17792e-07
9.46097e-08
9.60842e-08
1.11723e-07
3.86977e-07
0.00312244
0.00412657
0.00425474
0.00330009
0.00199489
0.00101947
0.000131245
2.8888e-06
3.17811e-07
1.96313e-07
1.51934e-07
3.16144e-07
1.07553e-06
1.96566e-06
2.65391e-06
2.70176e-06
1.87312e-06
1.26623e-06
9.10231e-07
6.29263e-07
4.51086e-07
3.48797e-07
2.6911e-07
2.30272e-07
2.0866e-07
1.74259e-07
1.46853e-07
1.25665e-07
1.31681e-07
2.57639e-07
0.00748562
0.00789186
0.00661241
0.00432285
0.00258355
0.00158624
0.000158924
2.66054e-06
3.09889e-07
1.95066e-07
1.71156e-07
8.90074e-07
2.23592e-06
0.000464315
0.000863383
0.000500098
6.24096e-05
2.66873e-06
1.92563e-06
1.2352e-06
8.24381e-07
6.04251e-07
4.66608e-07
3.62411e-07
3.26868e-07
2.67044e-07
2.32537e-07
1.80669e-07
1.70006e-07
2.08021e-07
0.01092
0.00937253
0.00591152
0.00328997
0.00215611
0.00152651
9.07563e-05
2.33797e-06
8.72035e-07
4.19116e-07
3.96478e-07
2.25971e-05
0.00271491
0.00591609
0.00746029
0.0075019
0.00571446
0.00297243
0.000616701
2.45315e-06
1.53303e-06
1.02157e-06
7.68834e-07
5.74158e-07
4.70019e-07
4.26168e-07
3.49425e-07
2.84485e-07
2.51348e-07
3.02187e-07
0.0111684
0.00720274
0.00209568
0.00131052
0.00102756
0.000553505
4.16408e-06
3.12688e-06
2.663e-06
2.51148e-06
7.71569e-05
0.00652741
0.0111756
0.0112058
0.0112882
0.0112153
0.0112713
0.0111234
0.00829379
0.00330392
0.00030896
1.53698e-06
1.08026e-06
8.36399e-07
6.32115e-07
6.28077e-07
6.09372e-07
4.72995e-07
3.83189e-07
6.32005e-07
0.0101533
0.00386996
0.000221218
0.000288959
0.000280833
3.94349e-05
4.12901e-06
1.07225e-05
0.00043385
0.00168866
0.0110003
0.0114298
0.0112455
0.0114823
0.0112462
0.0115091
0.0112436
0.0113489
0.0112164
0.0109457
0.00587881
0.00117331
2.30211e-05
8.99203e-07
7.4048e-07
8.38572e-07
1.08783e-06
1.02016e-06
5.02835e-07
1.41663e-06
0.00130146
0.000393065
3.13694e-05
0.000113763
0.000174935
9.18756e-05
0.000263682
0.00368828
0.0102775
0.0111674
0.0115396
0.0112511
0.0118269
0.0112535
0.0117879
0.0112525
0.0117644
0.0112475
0.0115063
0.0112329
0.0111734
0.00635788
0.00146612
8.15635e-05
8.43726e-07
1.09274e-06
2.68161e-05
4.43471e-05
1.22556e-06
3.23655e-06
8.23197e-06
7.7303e-06
3.16932e-05
0.000248431
0.00055723
0.00133889
0.00562552
0.0112521
0.0112346
0.011708
0.011253
0.0120964
0.0112582
0.0121291
0.0112594
0.012174
0.0112578
0.0120114
0.0112502
0.0115088
0.0112299
0.0104299
0.00455484
0.000882254
0.000176762
0.000308664
0.000885678
0.00124095
0.000240019
7.01863e-06
1.06884e-06
5.89051e-06
0.000129842
0.000971614
0.00284254
0.00717473
0.0112564
0.0112388
0.0116412
0.0112522
0.0120037
0.0112586
0.0121597
0.0112606
0.0121264
0.0111985
0.0121559
0.0112579
0.0121198
0.0112499
0.0114752
0.0112073
0.00729126
0.00227014
0.000921248
0.00145025
0.00194065
0.00173743
0.000264114
0.000237348
4.52322e-07
5.1062e-06
0.000615285
0.00244413
0.00747015
0.0112362
0.0112302
0.0117824
0.0112444
0.0118436
0.0112475
0.0121239
0.0112592
0.0121059
0.00306984
0.00210924
0.00747822
0.012047
0.011257
0.0120842
0.0112478
0.011387
0.00954561
0.0037079
0.00175443
0.0019309
0.00191203
4.63924e-05
8.31363e-06
0.000233795
3.49941e-07
4.21097e-06
0.00152577
0.00473935
0.0111384
0.0112192
0.0117149
0.0112352
0.0117659
0.00673642
0.0104053
0.0112472
0.0119964
0.00170577
1.43052e-05
1.30978e-05
1.53804e-05
0.00117163
0.0119802
0.0112552
0.0120223
0.0112422
0.0111096
0.00475538
0.00196406
0.00174788
1.14425e-05
3.87801e-06
2.98318e-06
4.79611e-05
5.81898e-07
1.92118e-06
0.000200863
0.00637154
0.0111731
0.0116398
0.0112149
0.0116521
0.0111122
0.00415928
0.00831457
0.0116229
0.00327252
1.57741e-05
4.18321e-06
2.62585e-06
2.77318e-06
8.95036e-06
0.00153745
0.0119582
0.0112517
0.0117616
0.0111964
0.00498629
0.00138283
1.10095e-05
2.54982e-06
6.14192e-07
8.14201e-07
2.74429e-06
6.36303e-07
5.26321e-07
1.03349e-05
0.00459578
0.0114556
0.0111051
0.00901918
6.44813e-05
0.00131464
0.00320051
0.00778758
0.00751859
0.000282076
5.48713e-06
1.37881e-06
3.20318e-07
2.46931e-07
1.26438e-06
1.1825e-05
0.00580487
0.0119502
0.011242
0.0112453
0.00352891
3.44117e-05
2.35531e-06
2.95965e-07
3.42814e-07
4.10503e-07
1.22888e-06
0.000157732
8.31343e-07
7.78033e-07
2.77064e-05
0.00106668
0.000628357
1.42846e-05
9.04601e-06
1.79982e-05
8.244e-05
0.0039013
0.00551332
4.64035e-05
2.09715e-06
1.44322e-07
6.80929e-08
1.06597e-07
1.05945e-07
1.77307e-06
2.18942e-05
0.0109254
0.0118726
0.00891663
0.00112956
4.63949e-06
2.49805e-07
3.36694e-07
3.51489e-07
4.14914e-07
1.11004e-06
0.000800789
0.000379883
1.15776e-05
1.88676e-06
9.66242e-06
9.671e-06
2.05043e-06
4.05694e-07
1.32325e-06
9.56165e-06
1.80022e-05
0.00329895
1.46259e-05
1.07043e-06
7.73302e-08
8.8169e-08
1.21524e-07
1.4957e-07
1.20403e-07
6.72241e-06
0.00139924
0.00837361
0.00271477
9.41685e-06
2.53481e-07
3.69247e-07
4.07419e-07
4.34586e-07
4.75987e-07
1.1615e-06
0.00126285
0.00109405
0.000593923
0.000119265
1.06881e-05
1.59357e-06
1.12106e-06
4.06108e-07
3.45483e-07
1.05058e-06
4.43358e-06
0.000448913
3.60002e-06
1.6936e-07
1.06459e-07
9.29548e-08
1.16593e-07
1.47821e-07
1.89888e-07
6.35663e-07
1.37606e-05
0.000419532
2.22739e-05
3.08225e-07
4.89562e-07
4.75349e-07
4.89074e-07
5.11067e-07
5.59036e-07
1.20207e-06
0.00149673
0.00148346
0.00126664
0.000745262
0.000271372
6.08144e-05
1.392e-06
3.89826e-07
4.22713e-07
4.13051e-07
1.95216e-06
1.23543e-05
6.03785e-07
1.86905e-07
1.2543e-07
9.07784e-08
1.347e-07
1.55824e-07
2.45316e-07
9.86221e-07
2.10977e-06
8.15369e-06
7.6197e-07
6.59583e-07
6.01215e-07
5.9091e-07
5.85416e-07
5.93014e-07
6.08164e-07
2.3577e-05
0.00154647
0.00165633
0.00169608
0.00130541
0.0007206
0.000264826
1.63474e-05
5.56914e-07
9.54703e-07
5.14078e-07
1.64858e-06
7.3326e-06
3.39747e-07
2.66984e-07
1.51118e-07
1.00203e-07
1.50214e-07
1.77578e-07
3.57351e-07
1.66963e-06
1.58624e-05
1.42699e-05
1.49681e-06
5.91402e-07
5.73756e-07
6.15593e-07
6.31193e-07
5.98785e-06
4.5146e-05
0.000153784
0.00155183
0.00167595
0.00203815
0.00181104
0.00117343
0.000522055
6.84606e-05
1.46857e-06
4.83091e-06
6.51106e-07
1.58128e-06
5.54773e-06
2.49925e-07
2.82918e-07
2.12045e-07
1.13468e-07
1.66511e-07
2.19921e-07
5.89693e-07
2.25056e-06
4.27549e-05
4.60889e-05
1.99113e-05
8.73329e-06
8.25757e-06
1.87966e-05
4.77108e-05
0.000100131
0.000181477
0.000309569
0.00155488
0.00155286
0.00224977
0.00224602
0.00169987
0.00085851
0.000238618
0.00013234
7.97453e-06
1.1531e-06
1.73344e-06
4.90505e-06
2.40968e-07
3.08402e-07
2.41167e-07
1.58031e-07
1.79214e-07
3.4937e-07
1.03386e-06
2.50922e-06
2.35887e-05
4.6198e-05
4.10521e-05
3.64295e-05
4.69028e-05
7.89772e-05
0.000136485
0.000215447
0.000318338
0.000464247
0.0016165
0.000981134
0.00212327
0.00225168
0.00222544
0.00145531
0.000844362
0.000699548
9.51135e-06
2.08303e-06
2.23185e-06
5.30559e-06
3.94054e-07
3.57543e-07
3.08149e-07
2.04597e-07
2.56162e-07
6.46516e-07
1.60245e-06
2.44169e-06
2.21946e-06
2.51492e-05
4.59188e-05
6.84677e-05
0.000101619
0.000157862
0.000238841
0.000339814
0.000462702
0.000628773
0.000947222
7.75793e-06
9.96587e-05
0.00219995
0.00233359
0.00232969
0.00230683
0.00183199
1.22887e-05
4.34745e-06
2.60291e-06
6.48311e-06
1.06217e-06
4.09004e-07
3.88033e-07
3.07159e-07
5.06667e-07
1.1276e-06
1.89459e-06
1.99598e-06
1.60315e-06
3.45589e-06
4.17001e-05
9.67237e-05
0.000162528
0.00024993
0.000357949
0.000481658
0.000623781
0.000813126
4.08834e-05
1.40412e-06
3.03397e-06
1.37761e-05
0.00228817
0.00233749
0.00233103
0.000971174
1.9797e-05
1.08055e-05
5.77072e-06
9.22568e-06
2.01054e-06
6.13725e-07
5.72629e-07
6.36749e-07
1.02355e-06
1.58308e-06
1.8192e-06
1.58751e-06
1.30668e-06
1.01421e-06
3.66042e-05
0.00012223
0.000228971
0.000354902
0.000494994
0.00064307
0.000805888
0.0010266
0.000126299
1.29667e-06
1.10142e-06
2.10423e-06
1.03361e-05
0.000874072
0.000147605
8.99529e-06
1.40525e-05
1.36271e-05
1.54397e-05
1.86918e-05
4.18216e-06
1.23965e-06
1.16032e-06
1.43819e-06
1.79732e-06
1.90954e-06
1.75978e-06
1.47964e-06
1.28385e-06
1.05203e-06
3.56388e-05
0.000149188
0.000302643
0.000474585
0.000651751
0.000827067
0.0010154
0.00128341
0.00195591
2.73264e-05
1.90113e-06
1.53908e-06
2.34203e-06
5.39475e-06
4.81002e-06
1.86819e-06
3.00458e-06
4.31776e-06
1.54079e-05
8.42105e-05
0.000140997
2.51452e-06
2.4656e-06
2.85316e-06
2.68753e-06
2.29981e-06
1.94642e-06
1.61407e-06
1.3867e-06
1.38134e-06
4.78355e-05
0.000189686
0.000392986
0.000615702
0.000834112
0.00104068
0.00126404
0.0016098
0.00345797
0.00279874
0.000813274
8.07139e-05
1.98809e-06
1.27885e-06
7.99142e-07
3.51116e-07
4.27359e-07
8.8789e-07
4.87711e-06
3.82724e-05
0.000162673
0.00011613
0.000133454
0.000126016
3.75676e-05
1.1263e-05
1.05701e-05
1.20772e-05
1.39146e-05
3.64961e-05
0.000114762
0.000281464
0.000524441
0.00079378
0.00105282
0.00129553
0.00157318
0.00205489
0.00346149
0.00346363
0.00345039
0.00229443
0.000562155
1.72578e-06
8.66332e-07
6.46621e-07
1.41357e-07
4.01025e-07
1.49822e-06
9.66747e-06
3.27206e-05
3.7837e-05
0.000148689
0.0011627
0.00134928
0.000939683
0.000792298
0.000661753
0.000451067
0.000352287
0.000376624
0.000514746
0.000746678
0.00103235
0.00132277
0.00161251
0.00198774
0.00270757
0.00318707
0.00345939
0.00346724
0.00345541
0.00314302
0.00050995
1.46103e-06
3.27376e-07
1.5172e-07
2.35956e-07
6.65467e-07
1.70989e-06
6.54593e-06
1.04558e-05
7.17903e-06
0.000438431
0.00211071
0.00307589
0.00318208
0.00302347
0.00209337
0.00137221
0.00105421
0.000996013
0.00110311
0.0013526
0.00167198
0.00204965
0.00261743
0.00370972
0.00153485
0.00345717
0.00345759
0.00347033
0.0034518
0.00205133
4.02466e-06
2.34387e-07
1.31549e-07
2.13404e-07
2.216e-07
4.988e-07
1.22724e-06
1.9675e-06
3.11093e-06
5.76313e-06
0.00117405
0.00195472
0.00314133
0.00361421
0.00362061
0.0025926
0.0018538
0.00156461
0.00154102
0.00177998
0.00219658
0.00278521
0.0037037
0.00517634
0.00152934
0.0012055
0.00169449
0.00339763
0.00345655
0.00342429
8.06356e-06
2.09943e-07
1.8099e-07
1.83452e-07
1.26699e-07
1.71581e-07
3.10036e-07
5.41359e-07
1.05897e-06
2.02731e-06
2.97749e-05
1.27086e-05
1.41716e-05
0.000570169
0.00183116
0.0015061
0.00144411
0.00164409
0.0019533
0.00246388
0.00319303
0.0041872
0.00549593
0.00684981
4.12938e-05
7.76749e-06
4.71416e-06
7.36989e-06
6.7646e-05
0.00138554
5.38687e-06
2.30647e-07
2.28718e-07
1.48676e-07
1.92191e-07
8.48009e-08
2.23418e-07
3.27542e-07
4.57866e-07
2.05951e-06
5.35262e-06
2.10187e-06
1.44486e-06
5.16148e-06
3.99446e-06
5.83141e-05
0.000441389
0.00146119
0.00270667
0.00390417
0.00513277
0.00633909
0.00737308
0.00761625
7.42907e-06
1.66529e-07
1.30691e-07
7.7939e-07
3.25814e-06
1.15236e-05
1.56981e-06
4.12119e-07
2.13396e-07
1.85502e-07
1.8268e-07
2.01584e-07
2.82568e-07
2.45858e-07
2.35857e-07
7.64569e-07
1.03082e-06
1.78918e-07
1.03505e-07
1.2005e-06
2.60355e-06
6.98793e-06
0.000478563
0.00232881
0.0046852
0.00631742
0.00747985
0.00759552
0.0076199
0.0076202
2.29218e-06
2.47746e-07
2.56212e-07
2.90311e-07
3.9106e-07
4.44212e-06
5.73376e-06
1.06443e-06
2.24677e-07
2.99164e-07
1.32941e-07
2.72644e-07
3.27755e-07
1.533e-07
2.06595e-07
4.64439e-07
4.67671e-07
7.56705e-08
1.13838e-07
1.17857e-06
4.37173e-06
0.000149502
0.00162602
0.00512099
0.00744759
0.00759606
0.00760163
0.00762124
0.00761607
0.00763914
2.35278e-06
3.36033e-07
2.85987e-07
2.583e-07
2.77339e-07
1.99968e-06
1.00846e-05
3.04275e-06
8.81579e-07
1.85013e-07
2.57731e-07
2.49502e-07
2.94656e-07
7.34427e-08
2.22902e-07
4.54281e-07
2.74179e-07
1.12625e-07
1.15971e-07
1.58346e-06
3.37352e-05
0.00113643
0.00475466
0.0075781
0.00758926
0.0076044
0.00760537
0.00759935
0.00641087
0.00761979
2.48395e-06
6.68974e-07
5.1425e-07
3.03798e-07
2.4982e-07
5.16809e-07
9.30024e-06
7.78193e-06
1.77182e-06
1.49421e-06
4.74923e-07
7.23471e-07
3.05402e-07
1.11246e-07
2.37996e-07
4.19594e-07
1.70477e-07
1.5612e-07
1.19802e-07
2.06441e-06
0.000168252
0.00317617
0.00754268
0.00757605
0.00755289
0.00750912
0.00732657
0.00731464
1.44502e-05
0.00300896
2.60414e-06
1.46471e-06
1.00302e-06
5.76304e-07
3.77092e-07
3.42313e-07
4.51052e-06
9.86482e-06
3.11396e-06
3.15556e-06
5.58138e-06
9.75397e-06
6.73453e-06
1.08216e-06
2.24216e-07
2.82268e-07
1.52479e-07
1.99518e-07
1.33549e-07
2.35734e-06
0.000271846
0.00471279
0.00755283
0.00742826
0.000189225
1.7526e-05
1.06127e-05
9.31546e-06
2.40562e-06
9.78682e-06
5.78003e-05
2.56982e-06
1.74718e-06
9.9034e-07
6.76839e-07
4.68661e-07
1.39123e-06
9.15153e-06
4.86884e-06
4.71091e-06
1.87437e-05
0.000245183
3.99494e-05
1.04009e-05
9.09964e-07
1.35078e-07
2.23421e-07
2.18826e-07
1.8673e-07
4.37346e-06
0.000364222
0.00264616
0.00566968
2.41918e-05
6.5805e-06
2.25852e-06
1.6406e-06
3.90488e-07
7.80237e-07
3.2354e-06
0.000549257
0.000279576
4.79544e-05
1.1231e-06
9.75118e-07
7.60556e-07
5.50037e-07
2.74962e-06
4.24329e-06
2.83293e-05
0.000936786
0.000681136
0.000333843
2.5891e-05
4.12611e-06
1.45919e-07
2.24296e-07
1.69955e-07
2.2431e-06
1.30952e-05
0.000253999
0.0014233
0.000344707
8.67703e-06
7.13158e-07
7.13274e-07
8.06729e-07
1.01961e-06
1.18671e-06
3.58269e-05
0.000363395
0.000214142
0.000207621
0.000130709
1.8044e-05
1.09854e-06
9.57636e-07
1.87298e-06
3.14877e-06
0.000474509
0.0019303
0.000809874
0.00033243
0.00029775
6.48069e-06
2.63628e-07
1.79719e-07
1.13352e-06
1.3133e-05
0.000828318
0.00035199
0.00146609
1.5821e-05
1.24479e-06
7.21632e-07
8.29846e-07
1.0142e-06
1.98722e-05
0.00036535
0.00194019
0.000137223
5.83285e-05
0.000139096
0.000221502
0.000217595
3.24441e-05
1.73268e-06
2.2689e-06
1.3765e-05
0.00233071
0.00327474
0.00166982
0.00128166
0.000845268
4.63565e-06
4.29222e-07
4.15676e-07
6.96721e-06
0.000263396
0.00169046
0.00161412
0.000789354
7.60526e-06
7.78177e-07
6.72421e-07
6.6905e-05
0.000457131
0.00159524
0.00338988
0.00481286
5.99921e-05
7.77309e-06
8.02862e-06
0.0001012
0.000309707
6.54266e-05
2.3637e-06
3.42104e-06
0.00125051
0.00592674
0.00556673
0.00458452
0.00526957
0.00171389
4.40566e-06
7.73279e-07
4.04651e-06
1.63795e-05
0.00137395
0.00176934
0.0017621
0.000114886
3.2569e-06
1.53897e-05
0.00025913
0.00087387
0.00222196
0.00407881
0.00536714
0.00497601
7.13523e-05
3.20736e-06
3.30575e-06
4.12107e-06
0.000305362
8.71977e-05
2.8408e-06
0.000360833
0.00534856
0.00696377
0.0069639
0.00696372
0.0069633
0.00119969
6.85803e-06
1.75105e-06
1.28111e-05
0.00119426
0.00176215
0.00177087
0.00212658
7.2241e-05
1.3015e-05
0.000205325
0.000830526
0.00214976
0.00409206
0.00557423
0.00556626
0.00395501
8.69362e-05
4.1609e-06
6.13952e-06
4.32352e-06
0.000103773
0.000153232
0.000133626
0.00239618
0.00694884
0.0071052
0.00697471
0.00700758
0.00526203
3.95664e-05
1.48325e-05
9.70219e-05
0.00170329
0.00180277
0.00177217
0.00216859
0.00179414
2.46508e-05
4.97311e-05
0.000397391
0.00158312
0.00368798
0.00563102
0.00628965
0.00516347
0.00261045
4.84951e-05
2.28241e-06
5.36256e-06
4.4388e-06
8.00072e-06
0.000348517
0.00133751
0.00534778
0.00709948
0.00697517
0.00708611
0.00670212
0.000889545
7.0767e-06
2.03652e-05
0.000791494
0.00187849
0.00176977
0.00244909
0.00180303
0.00269233
8.23251e-06
5.5072e-05
0.000605555
0.00251424
0.0052823
0.00653212
0.00653953
0.00471155
0.0017871
2.36061e-06
1.40378e-06
1.43169e-06
2.58718e-06
5.53193e-06
0.000372407
0.00348032
0.00697611
0.00697451
0.00708635
0.00642969
0.00190266
4.38657e-06
8.22741e-07
4.53172e-06
2.47401e-05
0.00143389
0.00229459
0.00177108
0.00273327
0.00175506
4.33202e-06
7.56852e-05
0.000888436
0.00349463
0.00649318
0.00659467
0.00653458
0.00490158
0.00123463
1.81029e-06
8.44246e-07
1.39154e-06
1.35583e-06
2.05074e-06
0.000293206
0.00528689
0.00694935
0.0069856
0.00239301
0.00214023
0.000469979
1.5129e-06
1.50555e-07
2.7037e-07
3.3259e-06
1.1094e-05
1.24869e-05
1.48691e-05
2.44439e-05
9.29573e-06
5.95922e-06
0.000232943
0.00137213
0.0043206
0.00656958
0.0065421
0.00655483
0.001835
2.12235e-05
3.81641e-05
1.16194e-06
7.00711e-07
1.80796e-06
7.70166e-07
0.000743541
0.00526574
0.00293011
0.000364921
2.22359e-05
3.21809e-05
7.67108e-06
3.09917e-07
1.32101e-07
9.31437e-08
2.6267e-07
2.24888e-06
3.43249e-06
2.61195e-06
5.46362e-06
2.05687e-06
0.000267858
0.000998324
0.00231444
0.00501682
0.00653569
0.0065773
0.00136491
1.11913e-05
3.2472e-06
0.000575352
1.52258e-06
1.00563e-06
1.1972e-06
1.669e-06
0.00015105
0.00053334
2.02481e-05
7.41031e-06
3.34985e-06
3.30897e-06
1.73194e-06
1.78026e-07
1.66326e-07
1.42622e-07
1.3579e-07
1.02854e-06
1.22887e-06
1.06629e-06
3.55657e-06
6.22161e-05
0.001056
0.00243707
0.00327827
0.00524818
0.00658835
0.00637056
1.33795e-05
7.69535e-07
4.75281e-07
0.00219854
0.000213238
1.57387e-06
1.21872e-06
2.62537e-06
6.70547e-06
6.83022e-06
2.49816e-06
1.01335e-06
2.08585e-07
4.84037e-07
6.75588e-07
1.56147e-07
1.89386e-07
1.62892e-07
9.44624e-08
1.15789e-06
5.43431e-07
8.59366e-07
3.76321e-06
6.85999e-05
4.89204e-05
0.000512426
0.00161762
0.0036212
0.00649837
0.00509557
6.54282e-05
1.6921e-07
4.08421e-07
0.0057108
0.00104026
2.5769e-05
2.12397e-06
5.05944e-06
2.59562e-06
1.02836e-06
7.38106e-08
1.14957e-07
2.75413e-07
6.32166e-07
5.10257e-07
1.72134e-07
2.19047e-07
1.14215e-07
5.46254e-07
1.26206e-06
3.48582e-07
1.25788e-06
7.88998e-06
1.60231e-05
3.43233e-06
3.25615e-06
8.80168e-06
0.000289649
0.00192066
0.00251737
9.06321e-06
2.39239e-07
5.56407e-07
0.0134947
0.00353128
0.000269059
2.56508e-06
9.879e-06
1.80651e-06
1.33438e-07
1.10487e-07
1.16905e-07
3.74225e-07
7.57077e-07
4.84001e-07
1.90236e-07
1.70767e-07
6.64567e-08
1.15359e-06
1.07184e-06
3.86419e-07
3.24271e-06
7.00845e-06
1.6215e-06
6.42706e-08
9.86825e-08
7.27683e-07
3.32179e-06
6.63684e-06
9.09535e-06
1.8868e-06
6.40308e-07
9.81661e-07
0.0275883
0.0108155
0.00174532
2.8054e-06
1.21125e-05
8.65394e-07
8.62501e-08
8.65668e-08
7.92745e-08
5.05693e-07
7.97089e-07
4.36385e-07
1.58602e-07
1.07623e-07
1.6484e-07
1.34514e-06
4.72963e-07
6.22607e-07
3.54085e-06
1.4399e-06
6.604e-08
1.89227e-07
1.98858e-07
3.05488e-07
5.82128e-07
9.62937e-07
8.25779e-07
1.27842e-06
1.03914e-06
1.82729e-06
0.0449157
0.0254679
0.00806212
0.000638638
1.03474e-05
3.38093e-07
1.51518e-07
8.88314e-08
8.33724e-08
5.68847e-07
9.6364e-07
4.66964e-07
1.11528e-07
8.89773e-08
4.53483e-07
1.0917e-06
3.69897e-07
1.26527e-06
1.60606e-06
2.55942e-07
2.51261e-07
2.87288e-07
2.52213e-07
4.10679e-07
6.94448e-07
8.68188e-07
1.08343e-06
1.55898e-06
1.90831e-06
2.84922e-06
0.0572524
0.0440893
0.0220916
0.00461383
1.49039e-05
7.18219e-07
2.29395e-07
1.97993e-07
1.56721e-07
4.58938e-07
1.28363e-06
5.67396e-07
9.1712e-08
1.05263e-07
1.47222e-06
1.66164e-06
9.29382e-07
1.77536e-06
5.78367e-07
2.12679e-07
3.42682e-07
1.8114e-07
2.3879e-07
1.3253e-06
2.16002e-06
2.39403e-06
2.66112e-06
3.32222e-06
0.00022004
0.00343108
0.0610424
0.0585342
0.0427202
0.0168442
0.00107015
4.49444e-06
1.07667e-06
1.77476e-07
2.2406e-07
2.69571e-07
1.48357e-06
8.66033e-07
9.82854e-08
2.00728e-07
2.04651e-06
1.86725e-06
1.23461e-06
9.469e-07
2.16531e-07
3.40692e-07
3.24325e-07
2.05223e-06
2.2284e-05
0.000946615
0.00163652
0.00228732
0.00349933
0.0063953
0.0131791
0.0143996
0.0563967
0.0615713
0.0610064
0.0374756
0.0107519
0.000563235
7.62878e-06
1.34709e-06
1.19047e-07
2.05279e-07
1.42498e-06
1.69826e-06
1.41938e-07
3.55156e-07
1.49747e-06
8.01747e-07