/*--------------------------------*- C++ -*----------------------------------*\
| =========                 |                                                 |
| \\      /  F ield         | OpenFOAM: The Open Source CFD Toolbox           |
|  \\    /   O peration     | Version:  2.3.0                                 |
|   \\  /    A nd           | Web:      www.OpenFOAM.org                      |
|    \\/     M anipulation  |                                                 |
\*---------------------------------------------------------------------------*/
FoamFile
{
    version     2.0;
    format      ascii;
    class       volVectorField;
    location    "1";
    object      U.waterMean;
}
// * * * * * * * * * * * * * * * * * * * * * * * * * * * * * * * * * * * * * //

dimensions      [0 1 -1 0 0 0 0];

internalField   nonuniform List<vector> 
1875
(
(0.00602587 -0.121068 0)
(0.0129929 -0.157639 0)
(0.0134399 -0.180319 0)
(0.0106364 -0.191111 0)
(0.00871653 -0.193509 0)
(0.0070435 -0.193897 0)
(0.00559272 -0.194262 0)
(0.00432084 -0.194786 0)
(0.00325205 -0.194872 0)
(0.00231585 -0.195107 0)
(0.00148925 -0.195036 0)
(0.000733049 -0.195251 0)
(-1.22251e-06 -0.194984 0)
(-0.000735647 -0.195251 0)
(-0.00149223 -0.195033 0)
(-0.00231911 -0.195106 0)
(-0.00325539 -0.19487 0)
(-0.00432411 -0.194784 0)
(-0.00559593 -0.19426 0)
(-0.00704646 -0.193896 0)
(-0.00871925 -0.19351 0)
(-0.0106387 -0.191111 0)
(-0.013443 -0.180325 0)
(-0.0129932 -0.157641 0)
(-0.0060275 -0.121068 0)
(0.00725765 0.0385199 0)
(0.0157078 0.104936 0)
(0.0159666 0.153318 0)
(0.00571963 0.166816 0)
(0.00183888 0.167312 0)
(0.000570338 0.166466 0)
(-1.05609e-05 0.165916 0)
(3.78428e-05 0.165588 0)
(-2.48831e-05 0.164934 0)
(7.55856e-05 0.164614 0)
(4.20991e-05 0.164135 0)
(5.32811e-05 0.164126 0)
(-4.62191e-06 0.163794 0)
(-5.38621e-05 0.164127 0)
(-4.20134e-05 0.164133 0)
(-7.82948e-05 0.164613 0)
(2.3154e-05 0.164931 0)
(-4.07543e-05 0.165586 0)
(7.98036e-06 0.165914 0)
(-0.000574521 0.166462 0)
(-0.00184451 0.167311 0)
(-0.0057254 0.166816 0)
(-0.0159708 0.153324 0)
(-0.0157096 0.10493 0)
(-0.00725596 0.0385134 0)
(-0.00869546 -0.0874904 0)
(-0.0216864 -0.094474 0)
(-0.0193637 -0.0723009 0)
(-0.0136261 -0.0820463 0)
(-0.00953437 -0.105018 0)
(-0.00719631 -0.114287 0)
(-0.00570953 -0.118272 0)
(-0.00467711 -0.119985 0)
(-0.0036387 -0.119925 0)
(-0.00274063 -0.120417 0)
(-0.00180845 -0.119781 0)
(-0.000916805 -0.120204 0)
(-4.04419e-06 -0.119504 0)
(0.000907245 -0.120233 0)
(0.00179685 -0.119767 0)
(0.00273215 -0.120416 0)
(0.0036286 -0.119919 0)
(0.00466822 -0.119983 0)
(0.00569971 -0.118265 0)
(0.00718804 -0.114279 0)
(0.00952505 -0.10501 0)
(0.0136193 -0.0820512 0)
(0.0193613 -0.0723164 0)
(0.0216854 -0.0944816 0)
(0.00870014 -0.0874924 0)
(0.00125676 0.0367809 0)
(0.00240379 0.0877502 0)
(0.00315267 0.0814039 0)
(0.0119596 0.0877221 0)
(0.0136556 0.10154 0)
(0.0111228 0.108397 0)
(0.00862101 0.110618 0)
(0.00619088 0.111069 0)
(0.0043767 0.110347 0)
(0.00295398 0.110075 0)
(0.00183975 0.109388 0)
(0.000850428 0.109421 0)
(6.47911e-06 0.108932 0)
(-0.000857482 0.109435 0)
(-0.00184551 0.109378 0)
(-0.00295977 0.110075 0)
(-0.00438473 0.110343 0)
(-0.00619855 0.111067 0)
(-0.00862841 0.110613 0)
(-0.011127 0.108392 0)
(-0.0136627 0.101533 0)
(-0.0119565 0.0877127 0)
(-0.0031524 0.0813996 0)
(-0.00240159 0.0877247 0)
(-0.00125725 0.0367854 0)
(-0.00724793 -0.037077 0)
(-0.00763749 -0.0464361 0)
(-0.00818826 -0.0491272 0)
(-0.0121118 -0.0509601 0)
(-0.0117877 -0.0481512 0)
(-0.00972619 -0.0489581 0)
(-0.00767276 -0.0517106 0)
(-0.00577605 -0.0547342 0)
(-0.00426421 -0.0575627 0)
(-0.00299281 -0.0589825 0)
(-0.00192886 -0.0599394 0)
(-0.00093074 -0.0602696 0)
(-6.58649e-06 -0.060455 0)
(0.000923782 -0.060233 0)
(0.00192292 -0.0599532 0)
(0.0029858 -0.0589497 0)
(0.00426256 -0.0575794 0)
(0.00577122 -0.0547063 0)
(0.007674 -0.0517387 0)
(0.00972524 -0.0489359 0)
(0.0117922 -0.04817 0)
(0.0121103 -0.0509829 0)
(0.00818735 -0.0491413 0)
(0.00763637 -0.0464406 0)
(0.00724439 -0.0370762 0)
(0.00123033 0.0394348 0)
(0.00304741 0.0593071 0)
(0.00320492 0.0676537 0)
(0.00305447 0.0695814 0)
(0.00236831 0.069442 0)
(0.00298891 0.0701888 0)
(0.00343956 0.0718709 0)
(0.00345266 0.0734517 0)
(0.00302196 0.0745679 0)
(0.00233145 0.075183 0)
(0.00157025 0.0752086 0)
(0.000771824 0.075353 0)
(-1.30356e-05 0.0751437 0)
(-0.000783069 0.0753413 0)
(-0.00158264 0.0752058 0)
(-0.0023387 0.0751667 0)
(-0.00302896 0.0745689 0)
(-0.00345335 0.0734347 0)
(-0.00344089 0.0718762 0)
(-0.00298461 0.0701687 0)
(-0.00235661 0.0694505 0)
(-0.00305028 0.0695829 0)
(-0.00320363 0.0676434 0)
(-0.00304734 0.0592879 0)
(-0.00123036 0.0394302 0)
(-0.0026207 -0.0101117 0)
(-0.00451545 -0.015826 0)
(-0.00492482 -0.0167074 0)
(-0.0044335 -0.0154915 0)
(-0.00418435 -0.0153024 0)
(-0.00400564 -0.0179379 0)
(-0.00379955 -0.0185522 0)
(-0.00328108 -0.0189449 0)
(-0.00265036 -0.019632 0)
(-0.00194561 -0.0199747 0)
(-0.00128395 -0.0205809 0)
(-0.000623892 -0.0206742 0)
(1.01695e-06 -0.0209657 0)
(0.000623213 -0.0206838 0)
(0.00128402 -0.0205838 0)
(0.001946 -0.0199872 0)
(0.00265079 -0.0196353 0)
(0.00328235 -0.0189652 0)
(0.00380009 -0.0185633 0)
(0.00400669 -0.0179659 0)
(0.00418233 -0.0153154 0)
(0.00443636 -0.0155008 0)
(0.00492765 -0.0167114 0)
(0.00451684 -0.0158239 0)
(0.00261985 -0.0101111 0)
(0.00123597 0.0382462 0)
(0.00234049 0.0495869 0)
(0.0019695 0.0534666 0)
(0.00198782 0.0537541 0)
(0.00214652 0.0538941 0)
(0.00214772 0.054641 0)
(0.00164674 0.0550719 0)
(0.00147048 0.0553483 0)
(0.00120842 0.0556826 0)
(0.000941372 0.0559332 0)
(0.000643384 0.0560729 0)
(0.000323568 0.0561424 0)
(3.28858e-06 0.0561049 0)
(-0.000318885 0.056138 0)
(-0.0006385 0.0560692 0)
(-0.000937483 0.0559282 0)
(-0.00120441 0.055678 0)
(-0.00146846 0.0553442 0)
(-0.00164501 0.0550688 0)
(-0.00214852 0.0546387 0)
(-0.00215087 0.0538924 0)
(-0.00199097 0.0537525 0)
(-0.00197207 0.0534587 0)
(-0.00234027 0.0495758 0)
(-0.00123605 0.0382418 0)
(-0.00107649 0.00699176 0)
(-0.00166529 0.00647928 0)
(-0.00172942 0.00726697 0)
(-0.00146999 0.00745322 0)
(-0.00150577 0.00775936 0)
(-0.00143279 0.00696514 0)
(-0.0012635 0.00655605 0)
(-0.00112361 0.00584051 0)
(-0.000936702 0.00561407 0)
(-0.000723211 0.00537254 0)
(-0.0004873 0.00512742 0)
(-0.000242107 0.00501848 0)
(2.01699e-06 0.00487758 0)
(0.000245362 0.00501345 0)
(0.000489784 0.00512219 0)
(0.000725159 0.0053639 0)
(0.000937928 0.00560786 0)
(0.00112462 0.00582949 0)
(0.0012643 0.0065422 0)
(0.0014343 0.00695098 0)
(0.00150745 0.00774831 0)
(0.00147201 0.00744075 0)
(0.00173182 0.00725205 0)
(0.00166584 0.00647762 0)
(0.00107622 0.00699238 0)
(0.000887158 0.0361815 0)
(0.00153243 0.0444133 0)
(0.00115462 0.0461537 0)
(0.00124512 0.0463699 0)
(0.0011699 0.0467001 0)
(0.00118885 0.0467866 0)
(0.00109566 0.0469574 0)
(0.000966991 0.0470622 0)
(0.000758125 0.0471292 0)
(0.000599117 0.0471878 0)
(0.000403265 0.0472145 0)
(0.000211771 0.0472266 0)
(4.02917e-06 0.0471916 0)
(-0.000204818 0.0472257 0)
(-0.000396944 0.0472132 0)
(-0.000593742 0.0471857 0)
(-0.000753198 0.0471265 0)
(-0.000962456 0.0470596 0)
(-0.00109301 0.046953 0)
(-0.00118777 0.0467836 0)
(-0.00117029 0.046699 0)
(-0.0012465 0.0463679 0)
(-0.001158 0.0461502 0)
(-0.00153715 0.0444053 0)
(-0.000889216 0.0361758 0)
(-0.000500553 0.0193964 0)
(-0.000467796 0.0227683 0)
(-0.000437877 0.0244173 0)
(-0.000359989 0.0244002 0)
(-0.000420144 0.0249471 0)
(-0.000484062 0.0242314 0)
(-0.000428532 0.0241014 0)
(-0.000403225 0.0237257 0)
(-0.000321912 0.0235094 0)
(-0.000254731 0.0233037 0)
(-0.000166541 0.0231553 0)
(-8.15191e-05 0.0230757 0)
(9.1257e-07 0.0229976 0)
(8.30902e-05 0.0230753 0)
(0.000168043 0.0231523 0)
(0.000256029 0.0232985 0)
(0.000323038 0.0235032 0)
(0.000404569 0.023718 0)
(0.000429929 0.0240945 0)
(0.000484995 0.024222 0)
(0.000423087 0.0249362 0)
(0.00036459 0.0243907 0)
(0.00044404 0.0244083 0)
(0.000474228 0.0227692 0)
(0.000503481 0.0193852 0)
(0.000409872 0.0358851 0)
(0.000607133 0.042749 0)
(0.00026038 0.0440709 0)
(0.000389248 0.044192 0)
(0.000386675 0.0445705 0)
(0.000502985 0.0444281 0)
(0.000471531 0.0445092 0)
(0.000477861 0.0444712 0)
(0.00041313 0.0445074 0)
(0.000339079 0.0445098 0)
(0.000237839 0.0445109 0)
(0.000129611 0.0445149 0)
(3.40412e-06 0.0445005 0)
(-0.000121799 0.0445145 0)
(-0.000229899 0.0445106 0)
(-0.000331687 0.0445086 0)
(-0.000406335 0.0445064 0)
(-0.000471993 0.0444691 0)
(-0.000466522 0.0445084 0)
(-0.000498666 0.0444248 0)
(-0.000383725 0.0445646 0)
(-0.000386283 0.0441856 0)
(-0.000258709 0.0440662 0)
(-0.000602768 0.0427449 0)
(-0.000405724 0.035896 0)
(-0.000311607 0.0297262 0)
(-0.00013667 0.0352534 0)
(-0.000191403 0.0368645 0)
(-0.000159559 0.0366941 0)
(-0.000174145 0.0372364 0)
(-0.00020785 0.0366273 0)
(-0.000176362 0.0366038 0)
(-0.000169026 0.036331 0)
(-0.00013641 0.0362556 0)
(-0.000105075 0.0361195 0)
(-6.7521e-05 0.0360379 0)
(-3.20509e-05 0.0360016 0)
(9.17251e-07 0.0359687 0)
(3.42655e-05 0.0359969 0)
(7.02486e-05 0.0360364 0)
(0.000108123 0.0361159 0)
(0.000138538 0.036255 0)
(0.000170654 0.0363264 0)
(0.000177625 0.0366005 0)
(0.000208807 0.0366196 0)
(0.000174765 0.0372297 0)
(0.00015787 0.0366861 0)
(0.000189883 0.0368509 0)
(0.000133956 0.0352455 0)
(0.000308913 0.0297353 0)
(-0.000145756 0.0385152 0)
(-0.000233943 0.0443681 0)
(-0.000377526 0.0454301 0)
(-0.0002064 0.0453383 0)
(-0.000133273 0.045761 0)
(-4.07356e-06 0.0454866 0)
(2.78576e-05 0.0455624 0)
(6.83452e-05 0.045473 0)
(7.02731e-05 0.0454732 0)
(7.34158e-05 0.0454468 0)
(5.38074e-05 0.0454462 0)
(3.14944e-05 0.0454479 0)
(2.89487e-06 0.0454467 0)
(-2.78461e-05 0.0454479 0)
(-4.96104e-05 0.0454417 0)
(-6.86039e-05 0.0454475 0)
(-6.71531e-05 0.0454762 0)
(-6.49297e-05 0.0454697 0)
(-2.44191e-05 0.0455645 0)
(5.96346e-06 0.0454841 0)
(0.000135444 0.0457605 0)
(0.00020702 0.0453387 0)
(0.000376361 0.0454262 0)
(0.000231333 0.0443688 0)
(0.000144201 0.0385134 0)
(-0.000297051 0.0388252 0)
(-0.00029297 0.0441378 0)
(-0.0003753 0.0452091 0)
(-0.000294439 0.045 0)
(-0.000263706 0.0454422 0)
(-0.000198207 0.0450785 0)
(-0.000159579 0.0451374 0)
(-0.000118101 0.0449931 0)
(-8.94015e-05 0.0449637 0)
(-6.22867e-05 0.0448962 0)
(-4.06922e-05 0.0448687 0)
(-1.9275e-05 0.0448491 0)
(1.30226e-06 0.0448438 0)
(2.086e-05 0.0448516 0)
(4.24796e-05 0.0448613 0)
(6.45658e-05 0.044896 0)
(9.06242e-05 0.0449661 0)
(0.000119354 0.0449848 0)
(0.0001608 0.0451381 0)
(0.000198582 0.0450728 0)
(0.000264424 0.0454355 0)
(0.000295439 0.0449976 0)
(0.000374875 0.0452049 0)
(0.000293021 0.0441306 0)
(0.000297647 0.038824 0)
(-0.000365207 0.0434076 0)
(-0.000445681 0.0479878 0)
(-0.000476459 0.0487337 0)
(-0.000370116 0.0485232 0)
(-0.000302686 0.0488773 0)
(-0.000210562 0.0486199 0)
(-0.000165229 0.048706 0)
(-0.000114136 0.0486259 0)
(-8.36553e-05 0.0486354 0)
(-5.58597e-05 0.0486094 0)
(-3.57969e-05 0.0486032 0)
(-1.66579e-05 0.0485998 0)
(5.54963e-07 0.0485978 0)
(1.9389e-05 0.0485989 0)
(3.78914e-05 0.0485997 0)
(5.76788e-05 0.0486094 0)
(8.60376e-05 0.0486406 0)
(0.000116076 0.0486242 0)
(0.000165892 0.0487092 0)
(0.000211502 0.0486158 0)
(0.000303854 0.0488767 0)
(0.000370008 0.0485232 0)
(0.000476253 0.0487321 0)
(0.000444702 0.0479841 0)
(0.000364318 0.0434063 0)
(-0.000324813 0.0457798 0)
(-0.000367864 0.0497549 0)
(-0.000407216 0.0503604 0)
(-0.000331932 0.0501577 0)
(-0.000284982 0.0504593 0)
(-0.00021354 0.050271 0)
(-0.000177535 0.0503496 0)
(-0.000131999 0.0502898 0)
(-0.000101765 0.0503008 0)
(-7.17838e-05 0.0502777 0)
(-4.68096e-05 0.0502713 0)
(-2.21238e-05 0.0502665 0)
(8.46696e-07 0.0502637 0)
(2.53581e-05 0.050265 0)
(4.88419e-05 0.0502699 0)
(7.30836e-05 0.0502772 0)
(0.000104203 0.0503026 0)
(0.000134617 0.0502882 0)
(0.000179065 0.0503541 0)
(0.000215526 0.0502641 0)
(0.000286086 0.0504608 0)
(0.000331773 0.0501583 0)
(0.000407671 0.0503589 0)
(0.000367294 0.0497518 0)
(0.000324086 0.0457761 0)
(-0.000306759 0.0485362 0)
(-0.000343557 0.0518546 0)
(-0.000364472 0.0522921 0)
(-0.000298354 0.0521087 0)
(-0.000260599 0.0523367 0)
(-0.000201436 0.0522111 0)
(-0.000169576 0.052278 0)
(-0.000129429 0.0522435 0)
(-0.000100215 0.0522585 0)
(-7.1017e-05 0.0522491 0)
(-4.65815e-05 0.0522464 0)
(-2.20589e-05 0.0522459 0)
(7.53557e-07 0.0522444 0)
(2.41584e-05 0.0522445 0)
(4.83426e-05 0.0522442 0)
(7.27815e-05 0.0522474 0)
(0.000102133 0.0522605 0)
(0.000130909 0.0522422 0)
(0.000170903 0.0522825 0)
(0.000202386 0.0522065 0)
(0.000261615 0.0523386 0)
(0.000299634 0.0521088 0)
(0.000365148 0.0522912 0)
(0.000344002 0.0518521 0)
(0.000307058 0.0485346 0)
(-0.0002641 0.0506882 0)
(-0.000280292 0.0534602 0)
(-0.000297898 0.0537812 0)
(-0.000247895 0.0536351 0)
(-0.000221819 0.0538051 0)
(-0.000176978 0.0537321 0)
(-0.000151447 0.0537838 0)
(-0.000118734 0.0537682 0)
(-9.34248e-05 0.053781 0)
(-6.68349e-05 0.0537786 0)
(-4.40631e-05 0.0537816 0)
(-2.11888e-05 0.0537807 0)
(7.88889e-07 0.0537807 0)
(2.19736e-05 0.0537789 0)
(4.4565e-05 0.0537776 0)
(6.742e-05 0.0537785 0)
(9.36962e-05 0.0537838 0)
(0.000119319 0.0537683 0)
(0.000152192 0.0537875 0)
(0.000177722 0.0537271 0)
(0.000222636 0.053805 0)
(0.000249215 0.0536358 0)
(0.000298561 0.0537826 0)
(0.000280875 0.0534584 0)
(0.00026444 0.0506864 0)
(-0.000220568 0.0525464 0)
(-0.000222996 0.0548553 0)
(-0.000236977 0.0550846 0)
(-0.000199763 0.0549793 0)
(-0.000182895 0.055095 0)
(-0.000149459 0.0550595 0)
(-0.000128646 0.0550985 0)
(-0.000103016 0.0550958 0)
(-8.19399e-05 0.0551101 0)
(-6.04378e-05 0.0551074 0)
(-3.94245e-05 0.0551114 0)
(-1.90957e-05 0.055112 0)
(1.07522e-06 0.0551135 0)
(1.99394e-05 0.055114 0)
(3.93044e-05 0.0551144 0)
(5.85014e-05 0.0551073 0)
(8.15011e-05 0.0551066 0)
(0.000102966 0.0550946 0)
(0.000129531 0.0551003 0)
(0.000149687 0.0550565 0)
(0.000182008 0.0550966 0)
(0.000199454 0.0549789 0)
(0.000237 0.0550854 0)
(0.000222921 0.0548534 0)
(0.000220427 0.0525435 0)
(-0.00017818 0.0540655 0)
(-0.000173521 0.0560048 0)
(-0.000183654 0.0561645 0)
(-0.000156625 0.0560971 0)
(-0.000145282 0.0561745 0)
(-0.000122778 0.0561589 0)
(-0.000107085 0.0561835 0)
(-8.68065e-05 0.0561875 0)
(-6.89467e-05 0.056202 0)
(-5.12986e-05 0.0562015 0)
(-3.36243e-05 0.0562066 0)
(-1.68312e-05 0.0562068 0)
(2.52999e-07 0.0562117 0)
(1.6772e-05 0.0562089 0)
(3.45069e-05 0.0562107 0)
(5.06227e-05 0.0562023 0)
(6.90768e-05 0.0561977 0)
(8.63497e-05 0.0561888 0)
(0.000106296 0.0561866 0)
(0.000122151 0.0561574 0)
(0.00014499 0.0561738 0)
(0.000156407 0.0560963 0)
(0.000183871 0.0561651 0)
(0.000173739 0.0560022 0)
(0.000178123 0.0540638 0)
(-0.000137708 0.055286 0)
(-0.000132189 0.056933 0)
(-0.000138357 0.057046 0)
(-0.000120082 0.0570104 0)
(-0.000112534 0.0570583 0)
(-9.6801e-05 0.057062 0)
(-8.48438e-05 0.0570765 0)
(-7.0627e-05 0.0570826 0)
(-5.572e-05 0.0570938 0)
(-4.14455e-05 0.0570967 0)
(-2.76663e-05 0.0571045 0)
(-1.4579e-05 0.057104 0)
(-5.26192e-07 0.057107 0)
(1.37631e-05 0.0571024 0)
(2.89145e-05 0.0571031 0)
(4.25872e-05 0.0571004 0)
(5.64193e-05 0.0570951 0)
(7.00757e-05 0.0570852 0)
(8.43823e-05 0.0570797 0)
(9.64204e-05 0.0570582 0)
(0.000112318 0.0570576 0)
(0.000119918 0.05701 0)
(0.000138477 0.057046 0)
(0.000132473 0.0569329 0)
(0.000137551 0.055284 0)
(-9.88036e-05 0.0562307 0)
(-9.74388e-05 0.0576672 0)
(-0.000100717 0.0577429 0)
(-8.98744e-05 0.0577319 0)
(-8.51645e-05 0.0577579 0)
(-7.45887e-05 0.0577679 0)
(-6.54326e-05 0.0577795 0)
(-5.55516e-05 0.0577857 0)
(-4.43702e-05 0.0577956 0)
(-3.37813e-05 0.0578002 0)
(-2.27697e-05 0.0578049 0)
(-1.16051e-05 0.0578061 0)
(6.6753e-08 0.0578064 0)
(1.15583e-05 0.0578048 0)
(2.28239e-05 0.0578045 0)
(3.39706e-05 0.0578013 0)
(4.54197e-05 0.057797 0)
(5.53837e-05 0.0577877 0)
(6.64679e-05 0.0577804 0)
(7.5129e-05 0.0577665 0)
(8.49211e-05 0.057759 0)
(8.94722e-05 0.0577289 0)
(0.000100696 0.0577426 0)
(9.73902e-05 0.0576635 0)
(9.87451e-05 0.0562283 0)
(-6.29971e-05 0.056919 0)
(-6.79414e-05 0.0582111 0)
(-6.98505e-05 0.0582677 0)
(-6.41694e-05 0.0582683 0)
(-6.14757e-05 0.0582857 0)
(-5.59029e-05 0.0582945 0)
(-4.91523e-05 0.0583015 0)
(-4.20785e-05 0.0583079 0)
(-3.4221e-05 0.0583159 0)
(-2.63884e-05 0.0583201 0)
(-1.78112e-05 0.0583218 0)
(-8.48387e-06 0.0583231 0)
(5.65412e-07 0.0583244 0)
(8.87445e-06 0.058324 0)
(1.72394e-05 0.058323 0)
(2.62377e-05 0.0583191 0)
(3.46974e-05 0.0583144 0)
(4.25417e-05 0.0583103 0)
(4.96706e-05 0.0583022 0)
(5.63719e-05 0.0582941 0)
(6.22638e-05 0.0582845 0)
(6.48997e-05 0.0582678 0)
(6.98672e-05 0.0582679 0)
(6.82165e-05 0.0582087 0)
(6.332e-05 0.0569189 0)
(-3.43436e-05 0.0573779 0)
(-4.401e-05 0.0585815 0)
(-4.47741e-05 0.0586294 0)
(-4.32893e-05 0.058635 0)
(-4.18824e-05 0.0586462 0)
(-3.90463e-05 0.0586539 0)
(-3.46757e-05 0.0586621 0)
(-3.0384e-05 0.0586663 0)
(-2.51337e-05 0.0586727 0)
(-1.88298e-05 0.0586759 0)
(-1.2496e-05 0.0586785 0)
(-6.40832e-06 0.0586791 0)
(2.49693e-07 0.0586803 0)
(6.58271e-06 0.0586802 0)
(1.28407e-05 0.05868 0)
(1.91751e-05 0.0586755 0)
(2.48374e-05 0.0586712 0)
(3.03292e-05 0.0586682 0)
(3.53065e-05 0.0586593 0)
(3.92196e-05 0.0586531 0)
(4.26402e-05 0.0586454 0)
(4.36814e-05 0.0586358 0)
(4.47101e-05 0.0586291 0)
(4.43634e-05 0.0585807 0)
(3.4152e-05 0.0573768 0)
(-1.48773e-05 0.0576388 0)
(-2.52853e-05 0.0588003 0)
(-2.5796e-05 0.0588426 0)
(-2.71164e-05 0.0588485 0)
(-2.70378e-05 0.0588549 0)
(-2.55939e-05 0.05886 0)
(-2.29217e-05 0.0588662 0)
(-2.05102e-05 0.058871 0)
(-1.71989e-05 0.0588748 0)
(-1.289e-05 0.0588775 0)
(-8.3611e-06 0.0588799 0)
(-4.33579e-06 0.0588812 0)
(1.0748e-07 0.0588816 0)
(4.71552e-06 0.0588811 0)
(8.9712e-06 0.0588799 0)
(1.32539e-05 0.058878 0)
(1.7005e-05 0.0588743 0)
(2.05934e-05 0.0588701 0)
(2.40252e-05 0.0588658 0)
(2.56726e-05 0.0588619 0)
(2.6699e-05 0.0588543 0)
(2.68028e-05 0.0588477 0)
(2.61949e-05 0.0588416 0)
(2.53252e-05 0.0588 0)
(1.43342e-05 0.0576377 0)
(-4.63614e-06 0.0577497 0)
(-1.21154e-05 0.0588995 0)
(-1.37002e-05 0.0589362 0)
(-1.54223e-05 0.0589422 0)
(-1.62095e-05 0.0589466 0)
(-1.58661e-05 0.0589491 0)
(-1.49146e-05 0.0589514 0)
(-1.34201e-05 0.0589545 0)
(-1.1026e-05 0.058956 0)
(-8.53667e-06 0.0589588 0)
(-5.77884e-06 0.0589604 0)
(-2.80743e-06 0.0589612 0)
(4.30959e-07 0.0589614 0)
(3.25562e-06 0.058962 0)
(6.33979e-06 0.0589598 0)
(9.54077e-06 0.0589607 0)
(1.17804e-05 0.0589583 0)
(1.37711e-05 0.0589553 0)
(1.52417e-05 0.0589529 0)
(1.60158e-05 0.0589491 0)
(1.60115e-05 0.0589447 0)
(1.55737e-05 0.0589404 0)
(1.43274e-05 0.0589354 0)
(1.24147e-05 0.0588983 0)
(4.76202e-06 0.0577498 0)
(-1.27532e-06 0.0577821 0)
(-5.18264e-06 0.0589284 0)
(-7.35542e-06 0.0589636 0)
(-8.48459e-06 0.0589668 0)
(-9.06252e-06 0.0589692 0)
(-9.0094e-06 0.0589716 0)
(-8.93748e-06 0.0589738 0)
(-8.12276e-06 0.0589765 0)
(-6.87887e-06 0.0589776 0)
(-5.33485e-06 0.0589793 0)
(-3.793e-06 0.0589796 0)
(-1.71152e-06 0.0589804 0)
(3.96464e-07 0.0589808 0)
(2.29405e-06 0.0589825 0)
(4.13483e-06 0.0589804 0)
(6.20029e-06 0.05898 0)
(7.57315e-06 0.0589795 0)
(8.54221e-06 0.0589769 0)
(9.41731e-06 0.0589754 0)
(9.52964e-06 0.0589713 0)
(9.74616e-06 0.0589683 0)
(8.88367e-06 0.0589665 0)
(7.42376e-06 0.0589638 0)
(5.31285e-06 0.0589267 0)
(1.62743e-06 0.0577814 0)
(-9.19647e-07 0.0577903 0)
(-2.58769e-06 0.0589322 0)
(-3.93876e-06 0.0589683 0)
(-4.5169e-06 0.0589695 0)
(-4.96984e-06 0.0589712 0)
(-5.00758e-06 0.058972 0)
(-5.07291e-06 0.0589743 0)
(-4.49528e-06 0.0589757 0)
(-3.99455e-06 0.0589779 0)
(-3.46038e-06 0.0589787 0)
(-2.17749e-06 0.0589774 0)
(-7.75596e-07 0.0589783 0)
(1.11596e-08 0.058979 0)
(1.51291e-06 0.0589796 0)
(2.45789e-06 0.0589795 0)
(3.27386e-06 0.0589784 0)
(4.54422e-06 0.058977 0)
(5.45306e-06 0.0589742 0)
(6.11717e-06 0.0589749 0)
(5.64646e-06 0.0589737 0)
(5.93965e-06 0.0589699 0)
(5.26388e-06 0.0589695 0)
(4.24647e-06 0.058968 0)
(2.70101e-06 0.0589326 0)
(9.42796e-07 0.0577893 0)
(-6.55996e-07 0.0577929 0)
(-1.48771e-06 0.058936 0)
(-2.15428e-06 0.0589699 0)
(-2.41886e-06 0.0589698 0)
(-2.75558e-06 0.0589704 0)
(-2.84113e-06 0.0589718 0)
(-2.87636e-06 0.0589737 0)
(-2.42739e-06 0.0589729 0)
(-1.8403e-06 0.0589752 0)
(-1.83573e-06 0.0589755 0)
(-8.9255e-07 0.0589764 0)
(-6.41104e-07 0.0589764 0)
(-1.05834e-07 0.0589763 0)
(6.69962e-07 0.0589759 0)
(1.54277e-06 0.0589764 0)
(1.79457e-06 0.0589744 0)
(3.06812e-06 0.0589744 0)
(3.29387e-06 0.0589731 0)
(3.70624e-06 0.0589727 0)
(3.57099e-06 0.0589724 0)
(3.56313e-06 0.0589708 0)
(2.99395e-06 0.0589697 0)
(2.55196e-06 0.0589692 0)
(1.85145e-06 0.058935 0)
(8.29673e-07 0.0577928 0)
(-1.8663e-07 0.0577931 0)
(-5.87319e-07 0.0589377 0)
(-1.04609e-06 0.0589707 0)
(-1.3787e-06 0.0589709 0)
(-1.37643e-06 0.0589718 0)
(-1.94943e-06 0.0589729 0)
(-1.5479e-06 0.0589719 0)
(-1.1549e-06 0.0589741 0)
(-9.99494e-07 0.0589742 0)
(-6.57458e-07 0.0589743 0)
(-2.69595e-07 0.0589752 0)
(-3.30614e-07 0.0589765 0)
(5.46735e-08 0.0589754 0)
(7.11242e-07 0.0589749 0)
(1.11228e-06 0.0589744 0)
(1.57814e-06 0.0589737 0)
(2.35509e-06 0.0589743 0)
(2.22408e-06 0.0589735 0)
(2.25274e-06 0.0589734 0)
(2.4904e-06 0.0589733 0)
(2.16301e-06 0.058972 0)
(1.66585e-06 0.058971 0)
(1.08355e-06 0.0589711 0)
(6.15325e-07 0.0589353 0)
(5.16725e-07 0.0577936 0)
(-7.11009e-08 0.057794 0)
(-1.16403e-07 0.0589366 0)
(-1.34399e-07 0.0589716 0)
(-5.41711e-07 0.058971 0)
(-5.51417e-07 0.0589727 0)
(-1.03239e-06 0.0589728 0)
(-7.17895e-07 0.0589723 0)
(-6.22551e-07 0.0589734 0)
(-5.44242e-07 0.0589744 0)
(-3.33599e-07 0.058974 0)
(-7.37727e-08 0.0589739 0)
(3.2059e-07 0.0589755 0)
(2.0872e-07 0.0589745 0)
(8.16674e-07 0.0589745 0)
(1.10972e-06 0.0589743 0)
(1.47771e-06 0.0589725 0)
(1.42241e-06 0.0589739 0)
(1.55946e-06 0.0589734 0)
(1.56356e-06 0.0589731 0)
(1.51375e-06 0.0589738 0)
(1.32864e-06 0.0589709 0)
(1.00596e-06 0.0589715 0)
(5.61475e-07 0.0589717 0)
(-3.06562e-08 0.0589363 0)
(2.90138e-08 0.0577937 0)
(-1.73175e-08 0.0577951 0)
(-2.07881e-07 0.058938 0)
(-1.15696e-07 0.0589715 0)
(-3.32786e-07 0.0589713 0)
(-1.07488e-07 0.0589707 0)
(1.41585e-07 0.0589725 0)
(-4.66044e-07 0.0589727 0)
(-5.08487e-07 0.0589721 0)
(-1.95285e-07 0.0589734 0)
(-1.09605e-07 0.0589733 0)
(2.23931e-07 0.0589734 0)
(5.37533e-07 0.0589739 0)
(5.72458e-07 0.0589734 0)
(8.36291e-07 0.0589742 0)
(9.43741e-07 0.0589729 0)
(1.23387e-06 0.0589719 0)
(1.05124e-06 0.0589735 0)
(1.03779e-06 0.0589732 0)
(8.74519e-07 0.0589737 0)
(7.73034e-07 0.0589724 0)
(7.38563e-07 0.0589717 0)
(5.982e-07 0.0589711 0)
(7.10655e-07 0.0589722 0)
(1.84835e-07 0.0589371 0)
(-1.249e-07 0.0577943 0)
(9.7923e-08 0.0577948 0)
(-3.02875e-07 0.0589369 0)
(-4.54725e-08 0.0589709 0)
(-8.13874e-08 0.0589707 0)
(5.00854e-08 0.0589722 0)
(6.42254e-08 0.0589733 0)
(3.46038e-08 0.0589711 0)
(-1.65462e-07 0.0589723 0)
(-8.43179e-09 0.0589722 0)
(3.5922e-07 0.0589726 0)
(6.09369e-07 0.0589721 0)
(4.38443e-07 0.0589742 0)
(9.91578e-07 0.0589725 0)
(8.83455e-07 0.0589735 0)
(7.74733e-07 0.0589723 0)
(8.80486e-07 0.058973 0)
(4.18894e-07 0.0589737 0)
(4.49464e-07 0.0589727 0)
(4.59531e-07 0.058972 0)
(5.84083e-07 0.0589721 0)
(3.99244e-07 0.0589718 0)
(3.05758e-07 0.0589717 0)
(6.45236e-07 0.0589715 0)
(4.13975e-07 0.0589376 0)
(-1.54382e-08 0.057795 0)
(7.1173e-08 0.0577935 0)
(2.88958e-07 0.0589363 0)
(3.97291e-07 0.0589711 0)
(1.83282e-07 0.0589709 0)
(1.31664e-07 0.0589718 0)
(-1.72282e-07 0.0589727 0)
(4.29871e-07 0.058971 0)
(2.82421e-07 0.0589722 0)
(3.25915e-07 0.058973 0)
(4.02114e-07 0.0589736 0)
(4.35982e-07 0.0589721 0)
(3.80847e-07 0.0589736 0)
(6.99667e-07 0.0589722 0)
(3.33692e-07 0.0589727 0)
(7.35476e-07 0.0589729 0)
(4.26559e-07 0.0589723 0)
(1.75221e-07 0.0589727 0)
(3.32138e-07 0.058972 0)
(6.06363e-07 0.0589713 0)
(6.04753e-07 0.0589732 0)
(4.16865e-07 0.0589719 0)
(2.75387e-07 0.0589718 0)
(2.70191e-07 0.058972 0)
(2.18849e-07 0.0589376 0)
(6.34259e-09 0.0577946 0)
(-1.14761e-08 0.0577944 0)
(2.98522e-07 0.0589373 0)
(8.30033e-08 0.0589712 0)
(-9.49142e-08 0.0589717 0)
(1.47493e-07 0.0589708 0)
(1.8344e-07 0.0589729 0)
(2.77642e-07 0.0589707 0)
(5.86474e-07 0.0589718 0)
(3.56037e-07 0.0589732 0)
(7.54517e-08 0.0589723 0)
(3.0764e-08 0.0589717 0)
(4.119e-07 0.0589732 0)
(-4.52082e-09 0.0589726 0)
(-5.32191e-08 0.0589703 0)
(9.21333e-07 0.0589717 0)
(2.95061e-07 0.0589725 0)
(6.63541e-07 0.0589718 0)
(5.63255e-07 0.0589716 0)
(5.26475e-07 0.0589725 0)
(5.01846e-07 0.0589729 0)
(3.97668e-07 0.0589719 0)
(2.44454e-07 0.0589707 0)
(6.73091e-08 0.0589712 0)
(-1.45745e-08 0.0589371 0)
(-1.1092e-07 0.0577948 0)
(-1.38426e-07 0.0577947 0)
(1.72926e-07 0.0589353 0)
(-7.14301e-08 0.0589727 0)
(-1.84285e-07 0.0589704 0)
(6.03883e-08 0.0589715 0)
(1.50689e-07 0.0589729 0)
(4.1294e-07 0.058971 0)
(3.57439e-07 0.0589728 0)
(-1.78068e-07 0.0589719 0)
(1.50575e-07 0.0589711 0)
(2.60811e-07 0.0589712 0)
(4.99582e-07 0.0589736 0)
(3.29509e-07 0.0589726 0)
(4.35846e-07 0.0589725 0)
(2.73509e-07 0.058972 0)
(4.6998e-07 0.0589718 0)
(5.54926e-07 0.0589732 0)
(3.50316e-07 0.0589715 0)
(4.66633e-07 0.0589709 0)
(2.66244e-07 0.0589727 0)
(4.36046e-07 0.0589711 0)
(3.51338e-07 0.0589709 0)
(1.30444e-07 0.0589722 0)
(-1.27755e-08 0.0589373 0)
(1.06349e-07 0.0577951 0)
(1.72141e-07 0.0577925 0)
(3.49529e-07 0.0589365 0)
(2.0856e-07 0.0589723 0)
(-7.07251e-08 0.0589709 0)
(-2.42683e-07 0.0589707 0)
(7.36806e-08 0.0589694 0)
(7.26451e-07 0.0589705 0)
(5.20912e-08 0.0589725 0)
(1.85223e-08 0.0589712 0)
(4.15764e-07 0.0589726 0)
(4.24133e-07 0.0589706 0)
(3.39301e-07 0.0589726 0)
(4.33644e-07 0.0589728 0)
(4.84988e-07 0.0589723 0)
(-6.43699e-08 0.0589721 0)
(7.14066e-07 0.0589715 0)
(4.64432e-07 0.0589729 0)
(4.66564e-07 0.0589722 0)
(3.33851e-07 0.0589719 0)
(3.21429e-07 0.0589722 0)
(5.03717e-07 0.0589723 0)
(5.63781e-07 0.0589708 0)
(2.34303e-07 0.0589722 0)
(-5.32335e-08 0.0589367 0)
(1.89369e-07 0.057794 0)
(1.59003e-07 0.0577926 0)
(-1.15054e-07 0.0589365 0)
(6.90934e-08 0.0589708 0)
(-1.57389e-08 0.0589702 0)
(1.6714e-07 0.0589686 0)
(1.97302e-07 0.0589715 0)
(5.40088e-07 0.0589698 0)
(2.03239e-07 0.0589735 0)
(3.60633e-07 0.0589718 0)
(4.74094e-07 0.0589709 0)
(4.17869e-07 0.0589714 0)
(1.16167e-07 0.0589734 0)
(1.56274e-07 0.0589714 0)
(5.98128e-07 0.0589689 0)
(7.19927e-07 0.0589717 0)
(7.96512e-07 0.058972 0)
(4.31058e-07 0.0589734 0)
(3.38314e-07 0.058971 0)
(2.54841e-07 0.0589719 0)
(5.85743e-07 0.0589716 0)
(3.67811e-07 0.0589704 0)
(4.45675e-07 0.0589706 0)
(2.74265e-07 0.0589723 0)
(1.03363e-07 0.0589362 0)
(1.12999e-07 0.0577942 0)
(-2.18431e-07 0.0577928 0)
(-3.3501e-07 0.0589354 0)
(2.11405e-07 0.0589701 0)
(3.19857e-07 0.0589707 0)
(7.82981e-07 0.0589698 0)
(7.33174e-07 0.0589706 0)
(6.43258e-07 0.0589704 0)
(2.61973e-07 0.0589738 0)
(5.8151e-07 0.0589716 0)
(3.18468e-07 0.0589722 0)
(2.53545e-07 0.0589706 0)
(3.71531e-07 0.0589735 0)
(5.28346e-07 0.058971 0)
(5.72486e-07 0.058971 0)
(4.87599e-07 0.0589715 0)
(3.63516e-07 0.0589712 0)
(3.22253e-07 0.0589732 0)
(1.64234e-07 0.0589716 0)
(5.60832e-07 0.05897 0)
(5.26271e-07 0.0589716 0)
(3.89319e-07 0.058971 0)
(9.72845e-08 0.058971 0)
(-2.31986e-08 0.058972 0)
(2.3555e-07 0.0589373 0)
(5.76002e-08 0.057794 0)
(-4.08993e-08 0.0577942 0)
(1.17597e-07 0.0589359 0)
(1.97857e-07 0.0589723 0)
(2.97967e-07 0.0589697 0)
(5.09652e-07 0.0589688 0)
(1.04506e-06 0.0589681 0)
(8.94295e-07 0.0589709 0)
(4.10444e-07 0.0589728 0)
(7.955e-07 0.0589717 0)
(3.54363e-07 0.0589727 0)
(1.52425e-07 0.05897 0)
(6.31974e-07 0.0589719 0)
(7.63807e-07 0.0589719 0)
(8.35028e-08 0.0589721 0)
(1.23736e-07 0.0589714 0)
(2.16783e-07 0.0589701 0)
(5.15129e-07 0.0589726 0)
(5.74824e-07 0.0589716 0)
(3.95005e-07 0.05897 0)
(9.95926e-08 0.0589706 0)
(4.51127e-07 0.0589725 0)
(-4.71122e-07 0.058971 0)
(-1.56718e-07 0.0589706 0)
(-8.18422e-09 0.0589362 0)
(-2.98814e-07 0.0577945 0)
(1.2448e-07 0.0577921 0)
(3.53094e-07 0.0589339 0)
(-7.67082e-08 0.0589713 0)
(1.63445e-07 0.0589689 0)
(5.82931e-07 0.0589672 0)
(8.19107e-07 0.0589711 0)
(6.58112e-07 0.05897 0)
(7.31293e-07 0.0589727 0)
(8.09635e-07 0.0589712 0)
(6.2126e-07 0.0589718 0)
(4.311e-07 0.0589692 0)
(4.95559e-07 0.0589705 0)
(6.06749e-07 0.0589724 0)
(2.72153e-07 0.0589702 0)
(5.40218e-07 0.0589698 0)
(-4.949e-08 0.0589701 0)
(1.36345e-08 0.0589708 0)
(7.99899e-07 0.0589699 0)
(6.46169e-08 0.0589717 0)
(-2.32402e-07 0.0589698 0)
(-1.89297e-08 0.0589706 0)
(-6.03671e-07 0.0589714 0)
(-2.98333e-07 0.0589705 0)
(-2.22849e-07 0.058935 0)
(-2.67957e-07 0.0577942 0)
(7.01322e-08 0.0577914 0)
(6.87805e-07 0.0589342 0)
(3.57017e-07 0.0589695 0)
(7.18533e-07 0.0589683 0)
(1.23207e-06 0.0589687 0)
(9.89111e-07 0.0589699 0)
(1.00283e-06 0.0589695 0)
(1.09021e-06 0.0589721 0)
(1.2533e-06 0.0589703 0)
(9.81936e-07 0.0589718 0)
(1.33252e-06 0.0589714 0)
(4.9099e-07 0.058973 0)
(7.02597e-07 0.0589714 0)
(7.01059e-07 0.0589706 0)
(1.0483e-07 0.0589709 0)
(-9.60148e-07 0.0589721 0)
(-8.60097e-07 0.05897 0)
(-8.70649e-09 0.0589698 0)
(-6.35542e-07 0.058972 0)
(-1.00368e-06 0.0589713 0)
(-1.06754e-06 0.0589707 0)
(-1.06692e-06 0.0589706 0)
(-9.08612e-07 0.0589696 0)
(-5.83846e-07 0.0589351 0)
(-1.91538e-07 0.0577928 0)
(1.47242e-07 0.0577919 0)
(1.17245e-06 0.0589331 0)
(1.50111e-06 0.0589695 0)
(1.68822e-06 0.058966 0)
(1.85743e-06 0.0589664 0)
(2.09637e-06 0.0589681 0)
(2.23925e-06 0.0589716 0)
(2.09778e-06 0.0589727 0)
(2.10135e-06 0.0589718 0)
(1.82363e-06 0.0589715 0)
(2.12822e-06 0.0589713 0)
(1.44327e-06 0.0589726 0)
(1.04849e-06 0.0589736 0)
(1.86953e-07 0.0589736 0)
(-1.32948e-06 0.0589764 0)
(-1.59972e-06 0.0589719 0)
(-1.6081e-06 0.0589718 0)
(-2.35922e-06 0.0589719 0)
(-2.35875e-06 0.0589723 0)
(-2.34032e-06 0.0589722 0)
(-2.615e-06 0.0589721 0)
(-2.15254e-06 0.0589705 0)
(-1.88135e-06 0.0589684 0)
(-1.19212e-06 0.0589339 0)
(-6.32171e-07 0.0577908 0)
(3.81763e-07 0.0577892 0)
(1.67698e-06 0.0589311 0)
(3.0931e-06 0.0589697 0)
(3.5051e-06 0.0589675 0)
(3.45756e-06 0.0589646 0)
(4.51917e-06 0.0589679 0)
(4.01125e-06 0.0589731 0)
(4.0222e-06 0.0589736 0)
(3.92074e-06 0.0589724 0)
(3.44224e-06 0.0589728 0)
(2.59677e-06 0.0589708 0)
(2.10036e-06 0.058972 0)
(9.24628e-07 0.058975 0)
(-1.28026e-06 0.0589757 0)
(-2.49014e-06 0.0589776 0)
(-2.44187e-06 0.0589697 0)
(-3.28644e-06 0.0589752 0)
(-5.73958e-06 0.0589724 0)
(-5.21576e-06 0.0589716 0)