/*--------------------------------*- C++ -*----------------------------------*\
| =========                 |                                                 |
| \\      /  F ield         | OpenFOAM: The Open Source CFD Toolbox           |
|  \\    /   O peration     | Version:  2.3.0                                 |
|   \\  /    A nd           | Web:      www.OpenFOAM.org                      |
|    \\/     M anipulation  |                                                 |
\*---------------------------------------------------------------------------*/
FoamFile
{
    version     2.0;
    format      ascii;
    class       volScalarField;
    location    "0.242";
    object      p;
}
// * * * * * * * * * * * * * * * * * * * * * * * * * * * * * * * * * * * * * //

dimensions      [1 -1 -2 0 0 0 0];

internalField   nonuniform List<scalar> 
545
(
-8.17793e+07
-1.4968e+07
-1.89997e+06
-2.5248e+06
-8.64769e+06
5.90597e+07
-2.94281e+06
-2.26639e+06
-2.4216e+06
-7.00833e+06
1.02601e+08
3.81086e+06
-245979
-299608
-7.36159e+06
5.95757e+07
-3.12849e+06
-1.78721e+06
-20952.7
-6.56694e+06
-9.41201e+07
-2.27179e+06
-340717
4.44096e+06
1.20771e+07
-7.09391e+06
-1.76614e+06
-674644
12207.3
117940
137128
125592
114843
108899
105952
105210
104427
104630
104140
104496
104046
104340
103753
103834
102726
102327
100684
99793.9
97413.2
95912.1
92913.4
90496.7
86752.1
83670.7
79074.5
75326
70084
65797.6
60114.3
55547.8
49740.4
45126.5
39380.7
34892.6
29061.4
24468.4
18507.8
14019.7
8284.82
4378.95
-6.2376e+06
-1.06269e+06
-632532
-107522
12496.1
80585.1
100095
105500
105709
105422
105005
104683
104539
104413
104365
104339
104178
104067
103685
103046
102150
101004
99576.5
97752.9
95662.5
93295.3
90251.8
87120
83451
79450.9
75078.2
70457.7
65514.8
60455.7
55208.3
50059.6
44784.9
39726.7
34560.5
29430.9
24152.8
18855
13573.2
8296.01
2449.44
-7.33625e+06
-466694
-343458
24331.7
44396.9
84967.3
99891.2
104255
105136
104870
105093
104431
104781
104195
104618
104130
104425
103858
103971
102800
102419
100729
99854.1
97474.7
95943.5
93081.7
90525
86880.5
83782.7
79184.2
75401.6
70173.5
65822.5
60119.1
55474.1
49699.1
45050.9
39409.2
34895.5
29155.8
24508.7
18523.5
13781.4
7899.69
3650.22
-7.76938e+06
720480
242964
260349
119250
108207
107345
105932
105168
104541
105114
104222
104912
104067
104724
104043
104486
103784
104086
102670
102482
100590
99915.4
97345.7
95995.1
93089.6
90521
86858
83875
79124
75466.6
70111.8
65875.9
60008.3
55441.4
49605.4
44998.5
39373.9
34956
29180
24617.5
18450.6
13730.1
7261.95
1980.72
-1.74085e+06
3.43961e+06
1.24779e+06
471453
168719
122071
109413
104588
104639
103778
105496
103658
105467
103545
105216
103586
104887
103320
104648
102072
102988
99924.2
100517
96614
96528.5
92696.4
90876.8
86382.1
84482.1
78512.2
76082.2
69482.3
66524.1
59316.2
55951.8
48951.6
45444
38803.2
35587.5
28652
25343.2
17849.2
14284.6
6618.83
3530.02
-1.39029e+07
4.88439e+06
2.01265e+06
610492
186971
124744
109498
107875
107909
107838
107886
105209
104636
107015
107344
107681
108326
107389
106695
103715
101947
101661
103617
103172
99101.4
95909.9
95062.6
91263.4
86382.6
81446.1
76744.2
71729.3
65381.5
60442.1
54882.6
53301.2
49596.5
43321.9
38048
33256.3
27515.8
19555.3
13264.3
9948.91
3956.13
-9.41197e+07
-2.27195e+06
-341484
4.43957e+06
1.20754e+07
5.9576e+07
-3.12856e+06
-1.78795e+06
-22313.5
-6.56862e+06
1.02602e+08
3.81085e+06
-246655
-300908
-7.3632e+06
5.90601e+07
-2.94277e+06
-2.26701e+06
-2.42281e+06
-7.00986e+06
-8.17789e+07
-1.4968e+07
-1.90055e+06
-2.52591e+06
-8.64915e+06
-1.74267e+06
3.44056e+06
1.24632e+06
472662
167124
123466
107964
105974
103214
105205
104067
105234
103854
105053
103713
105107
103356
104851
103073
103695
101236
101558
98932
98121.4
94892.9
94223
89228.6
87918.4
82781.2
80146.2
74308
71159.1
64658.6
61068.4
54098.7
50567.8
43776.5
40458
33926.5
30325.8
23702
19722.9
12549.9
8846.04
2279.56
-7.77117e+06
720548
241841
260796
118182
108831
106487
106664
104366
105328
104348
105108
104041
104893
103909
104885
103637
104604
103181
103495
101453
101406
98971.7
98089.4
94993.9
93835.6
89508.5
87605.3
82836.5
79920.8
74399.3
70926
64773.2
60874.2
54358.4
50428.9
44046.8
40271
34036.8
30114.2
23770.7
19551.5
12895.1
8541.23
1277.53
-7.33776e+06
-467399
-344255
24070.6
43781.1
84931.9
99516.5
104415
104882
105102
104900
104726
104539
104452
104396
104384
104164
104056
103634
102938
101988
100840
99441
97537.9
95486.1
93132.1
90058.1
86925.9
83309.4
79252.1
74925.4
70253.8
65352
60243.3
55038.5
49849.5
44716.5
39646.6
34619
29450.8
24324.3
18973.3
13641.3
8486.83
3656.81
-6.23905e+06
-1.06368e+06
-633330
-108106
11974.7
80278.4
99830.7
105444
105634
105469
105003
104783
104526
104488
104350
104397
104113
104045
103521
102929
101895
100838
99301.5
97549.2
95349.4
93071.1
89929
86889.7
83128.1
79233.8
74765.7
70258.2
65229
60302.4
54977.2
49969
44647.8
39731.8
34501.4
29507.8
24198.5
19064.7
13717.6
8575.78
2535.4
-7.0953e+06
-1.76723e+06
-675478
11452.6
117410
136703
125316
114729
108871
105953
105254
104478
104678
104180
104533
104059
104321
103673
103704
102532
102101
100431
99526.5
97123.6
95608.9
92598.6
90184.4
86429.9
83360.6
78763.3
75030.6
69795.6
65539.2
59876.1
55353
49585.5
45025.5
39327.1
34879.7
29095.5
24553.8
18679
14201.6
8566.36
4621.92
)
;

boundaryField
{
    AirInlet
    {
        type            calculated;
        value           uniform -1.38992e+07;
    }
    WaterInlet
    {
        type            calculated;
        value           nonuniform List<scalar> 10(-8.17793e+07 5.90597e+07 1.02601e+08 5.95757e+07 -9.41201e+07 -9.41197e+07 5.9576e+07 1.02602e+08 5.90601e+07 -8.17789e+07);
    }
    ChannelWall
    {
        type            calculated;
        value           nonuniform List<scalar> 
110
(
-9.41201e+07
-2.27179e+06
-340717
4.44095e+06
1.20771e+07
-9.41197e+07
-2.27195e+06
-341484
4.43957e+06
1.20754e+07
-8.17789e+07
-1.4968e+07
-1.90055e+06
-2.52591e+06
-8.64915e+06
-7.0953e+06
-1.76723e+06
-675478
11452.6
117410
136703
125316
114729
108871
105953
105254
104478
104678
104180
104533
104059
104321
103673
103704
102532
102101
100431
99526.5
97123.5
95608.9
92598.5
90184.4
86429.8
83360.6
78763.2
75030.5
69795.5
65539.2
59876
55353
49585.5
45025.5
39327.1
34879.7
29095.5
24553.7
18678.9
14201.5
8566.32
4621.88
-8.17793e+07
-1.4968e+07
-1.89997e+06
-2.5248e+06
-8.64769e+06
-7.0939e+06
-1.76614e+06
-674644
12207.3
117940
137128
125592
114843
108899
105952
105210
104427
104630
104140
104496
104046
104340
103753
103834
102726
102327
100684
99793.9
97413.2
95912.1
92913.4
90496.8
86752.1
83670.8
79074.5
75326.1
70084
65797.6
60114.4
55547.9
49740.5
45126.6
39380.7
34892.6
29061.5
24468.5
18507.9
14019.7
8284.86
4379
)
;
    }
    Outlet
    {
        type            calculated;
        value           nonuniform List<scalar> 
11
(
-0.044145
-0.132435
-0.220725
-0.308996
-0.395468
-0.301443
-0.580974
-0.671943
-0.760274
-0.848565
-0.936855
)
;
    }
    FrontAndBack
    {
        type            empty;
    }
}


// ************************************************************************* //
