/*--------------------------------*- C++ -*----------------------------------*\
| =========                 |                                                 |
| \\      /  F ield         | OpenFOAM: The Open Source CFD Toolbox           |
|  \\    /   O peration     | Version:  2.3.0                                 |
|   \\  /    A nd           | Web:      www.OpenFOAM.org                      |
|    \\/     M anipulation  |                                                 |
\*---------------------------------------------------------------------------*/
FoamFile
{
    version     2.0;
    format      ascii;
    class       volScalarField;
    location    "0.36";
    object      alpha.particles;
}
// * * * * * * * * * * * * * * * * * * * * * * * * * * * * * * * * * * * * * //

dimensions      [0 0 0 0 0 0 0];

internalField   nonuniform List<scalar> 
6000
(
0.415601
0.4156
0.415595
0.375371
0.3253
0.330255
0.339294
0.398542
0.434651
0.434696
0.434753
0.434794
0.434776
0.434725
0.434677
0.434611
0.434571
0.434532
0.434448
0.434388
0.434286
0.434214
0.381499
0.323141
0.322987
0.366766
0.416682
0.416688
0.416689
0.416689
0.415601
0.394077
0.358905
0.32543
0.321581
0.325428
0.321639
0.325744
0.36462
0.400812
0.417679
0.434848
0.43482
0.434787
0.434725
0.434676
0.434622
0.434605
0.426871
0.410752
0.393576
0.35401
0.319901
0.323015
0.318445
0.323016
0.32963
0.394073
0.410261
0.416689
0.4156
0.329764
0.325778
0.322394
0.325454
0.322236
0.325742
0.323727
0.375553
0.440217
0.458404
0.458401
0.395508
0.340445
0.377345
0.371864
0.35448
0.432379
0.454859
0.453969
0.430328
0.363658
0.323047
0.319139
0.323015
0.319536
0.32309
0.322393
0.346517
0.416688
0.408958
0.325995
0.323345
0.325747
0.322227
0.325742
0.322231
0.32598
0.366753
0.452335
0.458403
0.429501
0.316453
0.318082
0.31518
0.318082
0.31497
0.356008
0.454688
0.455008
0.439302
0.352536
0.320174
0.323047
0.319178
0.323052
0.319758
0.32309
0.32142
0.410633
0.353348
0.323963
0.325995
0.32239
0.325767
0.322321
0.32598
0.324251
0.36229
0.458264
0.458403
0.345276
0.318082
0.314659
0.318082
0.314669
0.318082
0.315619
0.432957
0.454894
0.443543
0.343109
0.323085
0.319277
0.323047
0.319523
0.323085
0.321563
0.323135
0.351995
0.337882
0.326043
0.324114
0.325995
0.322398
0.32598
0.322735
0.326039
0.371126
0.459619
0.458081
0.318084
0.314971
0.318082
0.314732
0.318082
0.314836
0.318082
0.344201
0.455526
0.447679
0.345291
0.321052
0.323085
0.319561
0.323085
0.320412
0.323135
0.321914
0.337988
0.358319
0.324915
0.326043
0.323039
0.325995
0.323006
0.326039
0.325552
0.404624
0.459707
0.38018
0.315208
0.318082
0.314972
0.318082
0.314953
0.318082
0.315017
0.318084
0.45508
0.455192
0.368491
0.323135
0.320398
0.323085
0.320113
0.323135
0.322345
0.32323
0.362611
0.400132
0.326171
0.32474
0.326043
0.323182
0.326039
0.324386
0.33333
0.460501
0.459922
0.316543
0.318082
0.315309
0.318082
0.315216
0.318082
0.315239
0.318082
0.315211
0.396316
0.45604
0.425828
0.32269
0.323135
0.320534
0.323135
0.321385
0.32323
0.322908
0.410367
0.441821
0.325975
0.326171
0.324014
0.32605
0.324114
0.326155
0.394601
0.489628
0.420378
0.318083
0.315185
0.318082
0.315582
0.318082
0.315591
0.318082
0.315336
0.318082
0.323727
0.456274
0.488219
0.354689
0.322405
0.323135
0.320902
0.32323
0.325873
0.32714
0.456232
0.470564
0.356369
0.325863
0.326171
0.324238
0.326155
0.345751
0.486819
0.499568
0.371999
0.315527
0.318082
0.316049
0.318082
0.316099
0.318082
0.316064
0.318082
0.315549
0.318083
0.421843
0.524235
0.440325
0.324819
0.321704
0.32323
0.322358
0.349154
0.367615
0.486136
0.495311
0.422142
0.339618
0.325109
0.326173
0.325755
0.403523
0.509612
0.521873
0.373781
0.318083
0.316014
0.318082
0.316795
0.318082
0.316794
0.318082
0.316325
0.318082
0.318948
0.430132
0.535434
0.500078
0.370791
0.32323
0.322332
0.323266
0.371145
0.434303
0.510448
0.519446
0.482856
0.364344
0.326258
0.32584
0.356912
0.478641
0.527196
0.527349
0.379083
0.316421
0.318082
0.317492
0.318082
0.31763
0.318082
0.317509
0.318082
0.316791
0.318853
0.435744
0.536319
0.535763
0.467175
0.353886
0.323266
0.327036
0.383691
0.490489
0.531641
0.533972
0.514996
0.411634
0.34119
0.351962
0.439767
0.52448
0.532015
0.52775
0.359407
0.318083
0.317443
0.319692
0.330528
0.334826
0.333744
0.327685
0.317702
0.318082
0.317656
0.406217
0.536222
0.536535
0.528392
0.44623
0.36414
0.35461
0.4111
0.521556
0.544431
0.537137
0.532199
0.474408
0.395763
0.431305
0.512012
0.53708
0.53457
0.445392
0.329514
0.317656
0.333512
0.367404
0.394656
0.405278
0.402877
0.388163
0.357564
0.32717
0.318083
0.355786
0.485412
0.53393
0.534257
0.522174
0.453337
0.404134
0.462447
0.538978
0.550091
0.536548
0.539887
0.51483
0.468292
0.506664
0.539707
0.537067
0.479219
0.367134
0.329229
0.34006
0.399674
0.455509
0.481141
0.489651
0.48806
0.475805
0.444254
0.383895
0.334425
0.33648
0.388937
0.478969
0.534184
0.540894
0.517189
0.46979
0.512769
0.550187
0.547991
0.536589
0.541458
0.530306
0.520383
0.536089
0.539726
0.500411
0.394062
0.363158
0.3615
0.419102
0.486986
0.519434
0.525023
0.525065
0.525127
0.524673
0.514954
0.474265
0.405793
0.363828
0.367535
0.394189
0.480915
0.540868
0.540204
0.522972
0.538058
0.551227
0.542131
0.536594
0.54375
0.542049
0.541979
0.547012
0.539136
0.419404
0.388916
0.380745
0.443144
0.511857
0.525062
0.525559
0.525072
0.525724
0.525072
0.525587
0.525069
0.525246
0.502395
0.431715
0.380334
0.383093
0.399919
0.536406
0.546255
0.545825
0.548909
0.551383
0.542117
0.536616
0.547172
0.547893
0.547756
0.547095
0.486717
0.412679
0.398674
0.401653
0.468935
0.525001
0.526017
0.525064
0.526031
0.525071
0.526033
0.525068
0.526025
0.525047
0.525799
0.447234
0.395197
0.391113
0.403438
0.452035
0.546274
0.55131
0.551473
0.551319
0.542117
0.543685
0.543773
0.547762
0.547862
0.519521
0.322127
0.412722
0.39178
0.339781
0.346584
0.403428
0.470889
0.505027
0.517892
0.523878
0.521297
0.514738
0.496069
0.457623
0.378694
0.329461
0.33912
0.388195
0.403276
0.284699
0.504205
0.551588
0.55135
0.551676
0.54201
0.481794
0.446224
0.547686
0.547359
0.363202
0.199718
0.338985
0.279872
0.210357
0.199256
0.207272
0.233467
0.25814
0.271077
0.27693
0.274706
0.267214
0.249793
0.226415
0.199786
0.201314
0.211461
0.284934
0.301747
0.201318
0.376903
0.546846
0.551692
0.551078
0.491435
0.400322
0.350769
0.505584
0.435343
0.244559
0.201553
0.199076
0.201509
0.196181
0.201461
0.196841
0.201427
0.197943
0.201397
0.198787
0.201369
0.198399
0.201338
0.197139
0.20131
0.196014
0.20129
0.196972
0.201293
0.197205
0.249293
0.486233
0.550975
0.481769
0.426142
0.39087
0.351827
0.420611
0.383105
0.224228
0.198126
0.201506
0.195883
0.201461
0.196546
0.201427
0.197302
0.201396
0.198122
0.201368
0.198471
0.201338
0.197636
0.20131
0.196587
0.201291
0.195832
0.201272
0.195553
0.20129
0.203568
0.392211
0.518538
0.403714
0.416959
0.397426
0.348911
0.39793
0.408759
0.228705
0.201506
0.196568
0.201461
0.196249
0.201427
0.197083
0.201396
0.19773
0.201368
0.19842
0.201338
0.198042
0.20131
0.197209
0.20129
0.196342
0.201272
0.19548
0.201272
0.197735
0.20129
0.362244
0.469038
0.392139
0.429767
0.401788
0.351745
0.402758
0.431587
0.240531
0.199272
0.201461
0.195915
0.201427
0.19687
0.201396
0.197464
0.201368
0.198063
0.201338
0.19835
0.20131
0.197654
0.20129
0.196898
0.201272
0.196154
0.201212
0.195706
0.201272
0.214896
0.376052
0.453208
0.390758
0.43735
0.40261
0.348735
0.400978
0.439703
0.267095
0.201461
0.197109
0.201427
0.196449
0.201396
0.197278
0.201368
0.197792
0.201338
0.198328
0.20131
0.198022
0.20129
0.197353
0.201272
0.196581
0.201212
0.19552
0.201212
0.198822
0.246862
0.38451
0.450779
0.392066
0.440057
0.400874
0.351653
0.395566
0.442057
0.299494
0.200269
0.201461
0.196085
0.201427
0.197076
0.201396
0.197612
0.201368
0.19811
0.201338
0.198387
0.20131
0.197745
0.20129
0.197098
0.201272
0.196318
0.20121
0.196198
0.201272
0.277827
0.388929
0.433351
0.389966
0.440314
0.399731
0.348838
0.387892
0.441937
0.330699
0.201506
0.19798
0.201461
0.196668
0.201427
0.197477
0.201396
0.197939
0.201368
0.198349
0.201338
0.198132
0.20131
0.197531
0.20129
0.19679
0.201272
0.19575
0.201272
0.199912
0.302682
0.395965
0.418785
0.39202
0.436297
0.400062
0.351653
0.379077
0.434014
0.361821
0.201048
0.201506
0.196371
0.201461
0.197286
0.201427
0.197782
0.201396
0.198243
0.201368
0.198455
0.201338
0.197908
0.20131
0.197303
0.20129
0.19655
0.201272
0.197091
0.20129
0.327969
0.407842
0.407502
0.389884
0.431156
0.400948
0.349527
0.370902
0.428139
0.393523
0.201557
0.199008
0.201506
0.196845
0.201461
0.197674
0.201427
0.198121
0.201396
0.198439
0.201368
0.198291
0.201338
0.197726
0.20131
0.197002
0.20129
0.195991
0.20129
0.200872
0.35839
0.418748
0.399874
0.39202
0.427118
0.407315
0.351745
0.365827
0.421891
0.420683
0.202519
0.201557
0.196531
0.201506
0.197479
0.201461
0.19799
0.201427
0.198412
0.201396
0.198555
0.201368
0.198108
0.201338
0.197516
0.20131
0.196749
0.20129
0.197968
0.205657
0.390408
0.427839
0.395445
0.389908
0.425332
0.435408
0.351164
0.366939
0.418831
0.440832
0.225492
0.200108
0.201557
0.196893
0.201506
0.197895
0.201461
0.198326
0.201427
0.198611
0.201396
0.19848
0.201368
0.197958
0.201338
0.197215
0.20131
0.196076
0.20131
0.233889
0.420825
0.434971
0.39215
0.392065
0.426139
0.500809
0.374314
0.381273
0.415412
0.459392
0.281459
0.201611
0.196527
0.201557
0.197655
0.201506
0.198219
0.201461
0.198631
0.201427
0.198724
0.201396
0.198352
0.201368
0.197771
0.201338
0.196957
0.20131
0.198848
0.280743
0.445476
0.440781
0.392104
0.39044
0.430483
0.540098
0.482909
0.419863
0.415672
0.475191
0.353679
0.20135
0.201611
0.196937
0.201557
0.198161
0.201506
0.19858
0.201461
0.198832
0.201427
0.198713
0.201396
0.198236
0.201368
0.1975
0.201338
0.196431
0.201338
0.325184
0.465731
0.444929
0.393493
0.392104
0.439798
0.552601
0.537514
0.48731
0.438785
0.485882
0.418285
0.210052
0.196606
0.201611
0.197913
0.201557
0.198523
0.201506
0.19889
0.201461
0.198962
0.201427
0.198635
0.201396
0.198113
0.201368
0.197319
0.201338
0.199748
0.362811
0.479598
0.445895
0.399522
0.391702
0.456658
0.552758
0.552578
0.532341
0.486346
0.493044
0.465007
0.222958
0.201637
0.197229
0.201611
0.198537
0.201557
0.198889
0.201506
0.199108
0.201461
0.198988
0.201427
0.198575
0.201396
0.197896
0.201368
0.197161
0.201368
0.391005
0.488781
0.446633
0.410536
0.39689
0.481362
0.55276
0.552775
0.548059
0.523601
0.506007
0.489857
0.241039
0.197163
0.201637
0.19836
0.201611
0.198896
0.201557
0.199206
0.201506
0.19925
0.201461
0.19897
0.201427
0.19852
0.201396
0.197798
0.201368
0.200537
0.413087
0.494588
0.448308
0.428255
0.445262
0.508995
0.552839
0.552775
0.552512
0.540445
0.523532
0.498319
0.257321
0.201667
0.197794
0.201637
0.19899
0.201611
0.199258
0.201557
0.199426
0.201506
0.199318
0.201461
0.198943
0.201427
0.19833
0.201396
0.198015
0.201396
0.431649
0.497688
0.452963
0.455425
0.492895
0.530613
0.552738
0.552786
0.552687
0.549496
0.53506
0.493062
0.263594
0.19818
0.201667
0.198927
0.201637
0.199336
0.201611
0.199563
0.201557
0.199592
0.201506
0.199337
0.201461
0.198959
0.201427
0.198358
0.201396
0.201183
0.447745
0.498122
0.461773
0.486938
0.523276
0.543346
0.522728
0.552609
0.552853
0.552606
0.541257
0.453934
0.255359
0.201699
0.198602
0.201667
0.199494
0.201637
0.19967
0.201611
0.199823
0.201557
0.199692
0.201506
0.199383
0.201461
0.198812
0.201427
0.198887
0.207827
0.461352
0.498061
0.476579
0.512937
0.538262
0.548567
0.474695
0.548161
0.552624
0.552579
0.527609
0.395568
0.241275
0.199408
0.201699
0.199525
0.201667
0.199832
0.201637
0.199992
0.201611
0.199992
0.201557
0.199781
0.201506
0.19944
0.201461
0.198988
0.201427
0.224694
0.471234
0.498016
0.496175
0.528724
0.545168
0.550082
0.468825
0.504658
0.545407
0.538894
0.487794
0.359778
0.234462
0.201727
0.199605
0.201699
0.200013
0.201667
0.200175
0.201637
0.200278
0.201611
0.200174
0.201557
0.199925
0.201506
0.199432
0.201461
0.199879
0.244648
0.47599
0.506418
0.514644
0.538795
0.548678
0.550495
0.474108
0.483045
0.521986
0.513159
0.464889
0.357422
0.236914
0.200568
0.201727
0.200117
0.201699
0.200393
0.201667
0.200525
0.201637
0.200528
0.201611
0.200335
0.201557
0.200029
0.201506
0.199902
0.201461
0.263127
0.474696
0.519843
0.53005
0.546141
0.550504
0.550524
0.470588
0.47164
0.495872
0.489246
0.463483
0.417515
0.264063
0.201753
0.200472
0.201727
0.200654
0.201699
0.200769
0.201667
0.200858
0.201637
0.200768
0.201611
0.200569
0.201557
0.200252
0.201506
0.201102
0.282007
0.469363
0.532215
0.542071
0.550466
0.550524
0.550401
0.470213
0.470272
0.475951
0.472672
0.474779
0.491485
0.352325
0.210671
0.201753
0.200905
0.201727
0.20109
0.201699
0.201181
0.201667
0.201186
0.201637
0.201038
0.201611
0.200843
0.201557
0.201109
0.216802
0.309751
0.463967
0.540529
0.549328
0.550517
0.550353
0.548765
0.470272
0.470265
0.472276
0.472676
0.501194
0.513266
0.461382
0.259598
0.201532
0.201753
0.201483
0.201727
0.201515
0.201699
0.201532
0.201667
0.201479
0.201637
0.201388
0.201611
0.201305
0.210344
0.264272
0.363726
0.465654
0.515715
0.546063
0.550178
0.472493
0.543453
0.470295
0.470356
0.47147
0.498719
0.517423
0.520342
0.496599
0.33263
0.220547
0.204719
0.204305
0.204621
0.205223
0.206586
0.208132
0.208749
0.207961
0.206744
0.206822
0.207491
0.215031
0.251265
0.329782
0.418441
0.470846
0.494142
0.519598
0.486835
0.387926
0.465304
0.470361
0.470365
0.491092
0.52059
0.525973
0.525868
0.506025
0.387561
0.265448
0.229476
0.223814
0.222981
0.223308
0.225506
0.228247
0.229598
0.229004
0.228167
0.230406
0.235662
0.258191
0.316183
0.386956
0.437403
0.473927
0.50459
0.490962
0.426906
0.385669
0.411656
0.47851
0.478645
0.511864
0.52672
0.526735
0.526236
0.507378
0.416165
0.31948
0.275997
0.260109
0.254722
0.252688
0.253356
0.255481
0.257019
0.25818
0.261026
0.268482
0.282415
0.317991
0.371878
0.409775
0.432637
0.487983
0.515558
0.486594
0.405548
0.385564
0.418615
0.494305
0.495531
0.516421
0.523001
0.520316
0.521756
0.504861
0.426233
0.358
0.323596
0.299393
0.287937
0.282693
0.281145
0.281853
0.283088
0.286123
0.293761
0.306938
0.329044
0.364731
0.39238
0.398449
0.418239
0.508472
0.517403
0.494622
0.412342
0.405475
0.434698
0.506706
0.506664
0.515465
0.516171
0.515082
0.515688
0.498285
0.419557
0.369338
0.350595
0.327716
0.313193
0.306075
0.303218
0.302594
0.30333
0.307382
0.317929
0.33349
0.356399
0.380441
0.384955
0.367039
0.403701
0.516774
0.521002
0.509503
0.459176
0.426248
0.45504
0.515439
0.512287
0.515341
0.515081
0.51504
0.514998
0.484796
0.395831
0.362323
0.354763
0.339197
0.326983
0.320134
0.316912
0.315343
0.315822
0.319994
0.330114
0.343633
0.360882
0.373854
0.36142
0.341152
0.393182
0.513085
0.525398
0.520576
0.504079
0.465188
0.490054
0.522463
0.517698
0.517992
0.516687
0.515082
0.517602
0.474538
0.370201
0.34446
0.348674
0.339213
0.331766
0.326444
0.323296
0.321335
0.322013
0.325817
0.333177
0.34271
0.354603
0.354982
0.340553
0.338986
0.386987
0.492878
0.52873
0.528803
0.524511
0.511687
0.520734
0.529813
0.525659
0.524372
0.522614
0.519548
0.521455
0.473387
0.361049
0.338073
0.338394
0.337167
0.332848
0.32915
0.326371
0.324578
0.325803
0.328895
0.332987
0.338967
0.343083
0.340371
0.338649
0.338817
0.380964
0.473323
0.531689
0.535488
0.534292
0.533145
0.537246
0.538353
0.535206
0.532941
0.530483
0.526911
0.525512
0.476927
0.363227
0.337885
0.337698
0.337512
0.336076
0.333742
0.3316
0.330379
0.332138
0.334048
0.334847
0.337828
0.338149
0.338315
0.338481
0.338649
0.383721
0.476883
0.526611
0.537417
0.538325
0.540145
0.541676
0.546751
0.544286
0.541284
0.538114
0.534194
0.53031
0.485795
0.375993
0.343975
0.345376
0.348168
0.349676
0.348024
0.346677
0.346273
0.347799
0.347728
0.345853
0.345259
0.3426
0.339653
0.338649
0.349377
0.40912
0.497852
0.509904
0.536737
0.540875
0.541675
0.54169
0.552635
0.550724
0.547849
0.544421
0.540477
0.534897
0.495517
0.402163
0.370132
0.372936
0.377078
0.379507
0.377401
0.376473
0.376391
0.376373
0.37406
0.371927
0.369807
0.362141
0.354244
0.354773
0.385331
0.453555
0.509308
0.509401
0.537663
0.541671
0.541695
0.541685
0.553523
0.553506
0.551752
0.548531
0.544822
0.537719
0.499993
0.430412
0.4084
0.412881
0.415361
0.416659
0.413735
0.412478
0.411915
0.410335
0.407033
0.40727
0.406618
0.397461
0.389043
0.396402
0.438262
0.492744
0.511351
0.511181
0.519112
0.541655
0.541658
0.538348
0.553528
0.553522
0.552489
0.549842
0.54663
0.537805
0.499704
0.448465
0.434964
0.440023
0.440993
0.441072
0.438253
0.43629
0.435339
0.434062
0.432552
0.434852
0.436102
0.431738
0.429296
0.444215
0.482313
0.509708
0.511368
0.51136
0.493316
0.531555
0.526855
0.455896
0.553418
0.553466
0.549538
0.548271
0.545285
0.533421
0.500411
0.461623
0.444845
0.444595
0.445143
0.445136
0.443037
0.440622
0.440114
0.4402
0.441793
0.443982
0.44569
0.44779
0.452231
0.471676
0.502122
0.511367
0.51136
0.511378
0.490747
0.48002
0.45208
0.437185
0.50286
0.539649
0.541198
0.543498
0.539151
0.523821
0.506503
0.480596
0.453819
0.444384
0.444059
0.443495
0.441659
0.440278
0.440193
0.440278
0.44168
0.443587
0.445242
0.448933
0.457342
0.47904
0.506991
0.511351
0.502466
0.491821
0.477589
0.441343
0.441155
0.437185
0.389952
0.484317
0.539244
0.539936
0.529613
0.52057
0.51608
0.503531
0.473424
0.450517
0.44465
0.442545
0.440801
0.440372
0.440278
0.440372
0.441962
0.443318
0.444634
0.449064
0.460032
0.483841
0.507813
0.503508
0.470496
0.465599
0.465672
0.441478
0.468412
0.463264
0.372497
0.398058
0.513438
0.536361
0.523754
0.522948
0.523656
0.519583
0.501814
0.473836
0.456002
0.449188
0.446975
0.446013
0.44585
0.446673
0.448646
0.448813
0.449385
0.45455
0.468812
0.493886
0.507815
0.481314
0.465541
0.465773
0.466746
0.449219
0.496831
0.505928
0.413174
0.397599
0.422954
0.498292
0.524228
0.524337
0.524235
0.524281
0.521261
0.505073
0.483984
0.471549
0.468077
0.466316
0.465665
0.466768
0.468107
0.467334
0.467182
0.472603
0.48753
0.507432
0.507429
0.467496
0.465782
0.465693
0.478258
0.471538
0.51006
0.520285
0.475387
0.415149
0.391758
0.417255
0.507052
0.524233
0.524463
0.524233
0.523497
0.52014
0.510774
0.500517
0.496677
0.494101
0.492891
0.493346
0.493619
0.492993
0.493153
0.497156
0.506785
0.514356
0.497632
0.465782
0.465674
0.475496
0.49906
0.500805
0.51726
0.520375
0.497134
0.44001
0.391745
0.391761
0.45669
0.524468
0.51839
0.513001
0.510412
0.514825
0.514577
0.514582
0.513975
0.511907
0.510889
0.510745
0.510574
0.510433
0.510791
0.512117
0.514574
0.514576
0.480654
0.465744
0.46954
0.49707
0.51501
0.520166
0.5203
0.520463
0.497134
0.440944
0.39327
0.392786
0.42399
0.515428
0.509516
0.48378
0.481469
0.490004
0.51383
0.514577
0.514584
0.514578
0.514583
0.514577
0.514582
0.514576
0.51458
0.514575
0.514579
0.505809
0.46879
0.472185
0.488989
0.515129
0.522043
0.522607
0.512834
0.52046
0.497133
0.427443
0.396689
0.407235
0.427203
0.493813
0.511912
0.47878
0.471997
0.471978
0.489231
0.512696
0.514578
0.514585
0.514578
0.514583
0.514577
0.514582
0.514576
0.51458
0.514574
0.478339
0.466926
0.488165
0.511467
0.522652
0.522654
0.522833
0.493036
0.493225
0.45354
0.405235
0.396651
0.422872
0.438006
0.479583
0.514663
0.485861
0.471928
0.471994
0.47193
0.487681
0.503943
0.510761
0.512197
0.512224
0.511403
0.512685
0.514203
0.513564
0.493591
0.466136
0.466226
0.501905
0.520481
0.522692
0.52278
0.522648
0.474396
0.442897
0.426812
0.392211
0.393314
0.420029
0.438035
0.473942
0.514691
0.501403
0.474463
0.471852
0.471991
0.472128
0.479099
0.486376
0.48883
0.489648
0.488737
0.488654
0.489454
0.486689
0.467602
0.465912
0.466137
0.506713
0.520212
0.522755
0.521943
0.522879
0.467767
0.433566
0.43768
0.390276
0.387829
0.40345
0.430951
0.468281
0.51469
0.513857
0.487358
0.471991
0.471852
0.471989
0.471964
0.473367
0.474294
0.474958
0.475174
0.472665
0.469997
0.46769
0.465938
0.466136
0.469159
0.508002
0.512843
0.522728
0.514132
0.521427
0.468374
0.429134
0.454868
0.389072
0.383164
0.387072
0.422648
0.455998
0.51469
0.514692
0.504821
0.473507
0.471989
0.471884
0.471986
0.471988
0.472294
0.472333
0.47264
0.47078
0.468018
0.466125
0.466136
0.465965
0.476404
0.506004
0.499057
0.522793
0.512755
0.512811
0.466989
0.428955
0.442782
0.388038
0.382821
0.38309
0.419337
0.441714
0.482903
0.514692
0.514657
0.485187
0.471934
0.471986
0.47194
0.471983
0.472134
0.472042
0.472073
0.470997
0.469291
0.466795
0.465933
0.466136
0.48071
0.492139
0.492357
0.5232
0.513509
0.488005
0.450472
0.429005
0.403264
0.384351
0.382737
0.382891
0.418447
0.433893
0.443123
0.504168
0.514699
0.503927
0.473724
0.471928
0.471983
0.471978
0.472064
0.471979
0.471951
0.471623
0.471302
0.467747
0.466136
0.466098
0.480714
0.473037
0.497504
0.526626
0.511861
0.452012
0.429517
0.429196
0.382281
0.382426
0.382581
0.382738
0.419809
0.436083
0.432306
0.446789
0.514684
0.514693
0.483491
0.471983
0.471944
0.471981
0.47201
0.471971
0.471953
0.472132
0.471779
0.467615
0.466025
0.468086
0.480639
0.469494
0.507217
0.528997
0.512416
0.443591
0.429196
0.429196
0.382439
0.382573
0.382731
0.384862
0.42642
0.4483
0.431155
0.42831
0.505953
0.514686
0.496921
0.47366
0.471981
0.471975
0.471978
0.471968
0.471963
0.472215
0.471352
0.467032
0.466136
0.474672
0.480636
0.469077
0.511107
0.529443
0.517935
0.460599
0.429318
0.429196
0.382598
0.382731
0.38483
0.403078
0.445393
0.467693
0.434355
0.427434
0.467528
0.514696
0.503807
0.478435
0.471972
0.471978
0.471977
0.471969
0.471977
0.472215
0.470532
0.467042
0.467862
0.480268
0.480633
0.465018
0.508409
0.529524
0.526512
0.494327
0.44507
0.432526
0.382755
0.388512
0.408544
0.44212
0.476333
0.48752
0.442802
0.428309
0.430194
0.509394
0.502498
0.483146
0.472979
0.472032
0.472023
0.471986
0.472025
0.472188
0.470537
0.469112
0.474364
0.480562
0.473296
0.463066
0.502415
0.529442
0.529481
0.517052
0.48508
0.458487
0.389021
0.419853
0.456135
0.486197
0.505186
0.504347
0.451514
0.427344
0.428309
0.473274
0.493396
0.484197
0.474878
0.472417
0.472181
0.472073
0.472207
0.472433
0.471691
0.474418
0.480188
0.480619
0.463066
0.46259
0.494272
0.520226
0.529301
0.524923
0.51496
0.494778
0.425701
0.470559
0.501042
0.516109
0.522627
0.514015
0.45369
0.428309
0.42751
0.445867
0.476819
0.481743
0.475385
0.472667
0.472281
0.472212
0.472558
0.473051
0.473725
0.479454
0.480607
0.480562
0.462726
0.463066
0.479358
0.492276
0.526998
0.528336
0.527337
0.51759
0.479592
0.511176
0.525403
0.530785
0.530584
0.517085
0.452785
0.427443
0.428309
0.431159
0.459753
0.473928
0.473615
0.472041
0.47201
0.472259
0.472807
0.473221
0.474202
0.4789
0.480562
0.480511
0.463066
0.462563
0.46597
0.49008
0.529026
0.531458
0.53345
0.529004
0.516486
0.531048
0.536216
0.536785
0.530036
0.518559
0.454523
0.428309
0.427442
0.428309
0.44792
0.463665
0.468698
0.469817
0.47108
0.472187
0.472507
0.472011
0.471809
0.470492
0.478687
0.464569
0.462614
0.463066
0.4632
0.499366
0.531534
0.535046
0.538399
0.537439
0.533508
0.539422
0.540927
0.537799
0.525695
0.520297
0.466858
0.428042
0.428309
0.428005
0.443307
0.457226
0.463818
0.46713
0.46996
0.471943
0.471156
0.468338
0.465152
0.462848
0.463303
0.462691
0.463066
0.462705
0.463755
0.51118
0.534594
0.53976
0.542981
0.54416
0.541138
0.542325
0.541992
0.534339
0.525709
0.522657
0.490814
0.438095
0.428081
0.428309
0.445067
0.457547
0.463086
0.466269
0.46942
0.471429
0.469147
0.46474
0.462917
0.463066
0.462798
0.463066
0.462719
0.463066
0.469464
0.517525
0.5366
0.543733
0.544772
0.544777
0.543186
0.543184
0.541457
0.528038
0.527134
0.525045
0.51376
0.473991
0.445622
0.443577
0.456868
0.465176
0.467378
0.468174
0.469678
0.470759
0.468148
0.464684
0.463066
0.46298
0.463066
0.462944
0.463066
0.463347
0.486432
0.521454
0.53581
0.543588
0.544759
0.544779
0.54325
0.54318
0.53764
0.526677
0.527051
0.526666
0.525196
0.511711
0.488787
0.479227
0.480744
0.482179
0.479161
0.474549
0.471286
0.470603
0.468999
0.468602
0.469653
0.469364
0.467285
0.466128
0.467634
0.479507
0.50761
0.52346
0.529424
0.537523
0.534509
0.544758
0.543462
0.542464
0.528047
0.52433
0.526961
0.526874
0.526781
0.526133
0.521501
0.51129
0.502326
0.497328
0.490529
0.481744
0.474127
0.471274
0.472773
0.478312
0.484729
0.488206
0.487229
0.485893
0.489545
0.505301
0.515637
0.518051
0.523146
0.52255
0.473918
0.542692
0.543539
0.52672
0.523581
0.51643
0.504501
0.505412
0.521501
0.524574
0.523972
0.51643
0.506301
0.499276
0.492814
0.48432
0.476665
0.473389
0.478121
0.487439
0.496691
0.504031
0.50859
0.508452
0.509388
0.509404
0.508883
0.501779
0.519825
0.508283
0.469664
0.496114
0.543496
0.528122
0.521148
0.509513
0.476322
0.46607
0.485749
0.495014
0.501855
0.503485
0.497245
0.491968
0.488466
0.482924
0.477807
0.476051
0.480608
0.488575
0.496465
0.50362
0.509404
0.509405
0.509404
0.509404
0.484118
0.49432
0.519615
0.510138
0.470136
0.492003
0.543474
0.536264
0.524831
0.510706
0.477006
0.459468
0.459616
0.460997
0.464662
0.474939
0.476344
0.476135
0.476947
0.477646
0.477588
0.477333
0.479836
0.484674
0.48766
0.491601
0.498963
0.504568
0.505482
0.490277
0.483936
0.503217
0.519557
0.519492
0.478189
0.485461
0.520949
0.53139
0.530829
0.518948
0.491306
0.461111
0.458996
0.459118
0.458832
0.45921
0.463368
0.466512
0.46693
0.472228
0.476204
0.47701
0.477281
0.477114
0.475023
0.474275
0.472683
0.472846
0.472399
0.468446
0.487467
0.519394
0.519497
0.515657
0.45338
0.423359
0.401077
0.484822
0.529593
0.529036
0.512144
0.473603
0.459118
0.458822
0.459118
0.459016
0.462895
0.465788
0.465579
0.471549
0.474688
0.476157
0.47544
0.471719
0.469866
0.466269
0.459023
0.458918
0.45873
0.468315
0.503969
0.519341
0.517503
0.430993
0.36919
0.315065
0.285989
0.365586
0.464019
0.518379
0.517891
0.490106
0.459109
0.459118
0.458846
0.459118
0.465149
0.466485
0.465474
0.471416
0.47509
0.476138
0.473884
0.468321
0.469418
0.464975
0.458609
0.458476
0.458688
0.474392
0.501792
0.483217
0.394012
0.311776
0.293775
0.254976
0.266861
0.287098
0.334059
0.428809
0.491966
0.490849
0.463287
0.45891
0.459118
0.460082
0.467979
0.467622
0.465579
0.468182
0.474454
0.476119
0.46898
0.46633
0.469728
0.465113
0.458391
0.458212
0.458815
0.470434
0.452364
0.368768
0.289836
0.266317
0.26446
0.25367
0.266861
0.268826
0.27926
0.328846
0.416311
0.469299
0.467854
0.459118
0.460418
0.466517
0.469988
0.467396
0.465427
0.465579
0.468526
0.471759
0.465485
0.465589
0.469716
0.468312
0.461005
0.458112
0.45713
0.452252
0.392783
0.312378
0.273713
0.260788
0.255885
0.253654
0.266763
0.267355
0.277811
0.309353
0.369917
0.439915
0.469217
0.466693
0.472327
0.480056
0.473085
0.465552
0.465579
0.465446
0.465579
0.465472
0.465579
0.465502
0.469397
0.474507
0.472964
0.465102
0.458984
0.43693
0.374313
0.315907
0.28272
0.264411
0.254199
0.25367
0.266888
0.268811
0.290224
0.324985
0.375635
0.434866
0.472424
0.48334
0.490598
0.495906
0.484093
0.465579
0.465406
0.465579
0.465398
0.465579
0.465398
0.465579
0.469326
0.487757
0.490206
0.481454
0.469706
0.440433
0.388712
0.344698
0.312255
0.280916
0.256869
0.253881
0.267506
0.281686
0.324348
0.368733
0.411383
0.453433
0.486408
0.501778
0.50754
0.508934
0.501801
0.47437
0.465579
0.465498
0.465579
0.465398
0.465579
0.465589
0.481917
0.503792
0.505764
0.50137
0.490526
0.465239
0.431518
0.398219
0.361336
0.315898
0.271061
0.254425
0.267816
0.313655
0.377155
0.429245
0.465979
0.491283
0.50915
0.518327
0.521219
0.520811
0.518065
0.501856
0.476214
0.466193
0.465498
0.465579
0.468365
0.481594
0.506546
0.518174
0.519647
0.518665
0.51318
0.500869
0.483313
0.458475
0.420949
0.367533
0.303508
0.256386
0.292384
0.366027
0.439575
0.485847
0.508868
0.520472
0.527091
0.530393
0.531296
0.53092
0.530235
0.526004
0.506158
0.480188
0.468964
0.470595
0.487609
0.513769
0.526434
0.5296
0.530399
0.530444
0.52867
0.524508
0.517328
0.504404
0.478728
0.429932
0.356526
0.285337
0.356466
0.43335
0.495226
0.520408
0.530026
0.534407
0.53648
0.537248
0.53732
0.537225
0.537306
0.536646
0.529222
0.495683
0.47781
0.481563
0.509615
0.533883
0.536446
0.536526
0.536631
0.536727
0.536399
0.535248
0.532704
0.527693
0.516794
0.489061
0.425943
0.351887
0.436154
0.49568
0.527084
0.53632
0.539433
0.540526
0.540686
0.54039
0.539961
0.539806
0.539455
0.537523
0.524613
0.484044
0.467432
0.471149
0.501214
0.535474
0.537743
0.538991
0.539138
0.539282
0.539628
0.539762
0.539402
0.538077
0.534605
0.524599
0.491671
0.432654
0.495173
0.529242
0.541552
0.544152
0.544312
0.543731
0.542728
0.541542
0.540572
0.54035
0.538323
0.530202
0.482031
0.450259
0.449962
0.449258
0.460459
0.510954
0.536903
0.538489
0.539841
0.539868
0.540842
0.542018
0.543021
0.543565
0.543292
0.540485
0.527705
0.492971
0.523657
0.54352
0.549
0.548926
0.54776
0.546105
0.544039
0.541629
0.540151
0.539532
0.528929
0.478756
0.449422
0.449962
0.448868
0.449962
0.448952
0.456052
0.507569
0.535751
0.539501
0.539464
0.541092
0.543608
0.5458
0.547498
0.548591
0.548522
0.542774
0.522439
0.540137
0.551625
0.553528
0.552427
0.550708
0.5485
0.545443
0.54121
0.538085
0.532861
0.476396
0.449417
0.449962
0.448875
0.449962
0.448871
0.449962
0.449146
0.453977
0.499777
0.537387
0.537502
0.541061
0.545448
0.548568
0.550652
0.552312
0.553342
0.551159
0.539275
0.551935
0.556285
0.556171
0.554572
0.55278
0.550853
0.547687
0.541002
0.532324
0.492523
0.449423
0.449962
0.449174
0.449962
0.448933
0.449962
0.448936
0.449962
0.449283
0.451541
0.506419
0.534241
0.54193
0.548222
0.550997
0.552533
0.554288
0.555961
0.555939
0.551294
0.557043
0.557062
0.556975
0.554576
0.552744
0.552066
0.550493
0.543273
0.519321
0.458685
0.449962
0.449411
0.449962
0.449137
0.449962
0.449139
0.449962
0.449412
0.449962
0.449434
0.464492
0.528501
0.545562
0.551147
0.551631
0.551979
0.553861
0.556394
0.556753
0.556735
0.557073
0.55706
0.555847
0.551997
0.550005
0.550931
0.550911
0.548054
0.522592
0.458738
0.449738
0.449962
0.449747
0.449962
0.449431
0.449962
0.449454
0.449962
0.449755
0.449962
0.462536
0.530634
0.549954
0.551163
0.549653
0.54814
0.550518
0.554838
0.556749
0.556766
0.557069
0.557021
0.551715
0.5462
0.543492
0.546489
0.550834
0.550785
0.53378
0.477961
0.457051
0.453522
0.450826
0.449792
0.449962
0.449779
0.449962
0.451163
0.454454
0.456771
0.481422
0.537023
0.549959
0.549804
0.544176
0.541374
0.544695
0.55042
0.556708
0.556761
0.555406
0.552671
0.545317
0.540612
0.537795
0.540168
0.547435
0.550678
0.541695
0.50931
0.48734
0.480396
0.47241
0.46352
0.459393
0.459584
0.464071
0.473929
0.482599
0.486839
0.511131
0.542603
0.549936
0.545905
0.538043
0.538033
0.540302
0.54427
0.551774
0.554934
0.44603
0.522062
0.537051
0.538614