/*--------------------------------*- C++ -*----------------------------------*\
| =========                 |                                                 |
| \\      /  F ield         | OpenFOAM: The Open Source CFD Toolbox           |
|  \\    /   O peration     | Version:  2.3.0                                 |
|   \\  /    A nd           | Web:      www.OpenFOAM.org                      |
|    \\/     M anipulation  |                                                 |
\*---------------------------------------------------------------------------*/
FoamFile
{
    version     2.0;
    format      ascii;
    class       volScalarField;
    location    "0.36";
    object      nut.air;
}
// * * * * * * * * * * * * * * * * * * * * * * * * * * * * * * * * * * * * * //

dimensions      [0 2 -1 0 0 0 0];

internalField   nonuniform List<scalar> 
6000
(
0.000507488
0.00381938
0.00706921
0.00827877
0.00877341
0.00894763
0.00904192
0.0091014
0.0091359
0.0091302
0.00913236
0.00913602
0.00912336
0.00909526
0.00906132
0.0090682
0.00910425
0.00911987
0.0091348
0.00913223
0.00913426
0.00914514
0.00911463
0.00906169
0.00896858
0.00874784
0.00823658
0.0070712
0.00390671
0.000507824
0.000408815
0.00249284
0.0052546
0.00718193
0.0082314
0.00883916
0.00921943
0.00944874
0.00953383
0.00956494
0.00961287
0.00964942
0.00967915
0.00966547
0.00960988
0.00961831
0.00966938
0.00967018
0.00963983
0.00960279
0.00956222
0.00954281
0.00944088
0.00920653
0.0088372
0.00824196
0.00719488
0.00525805
0.00246959
0.00040946
0.000343349
0.00220992
0.00468756
0.00656066
0.00777351
0.00853933
0.00903772
0.00936345
0.00962436
0.00981397
0.00993783
0.00996379
0.00989896
0.00980616
0.00977663
0.00977835
0.00982944
0.00993275
0.00996401
0.00991421
0.00978784
0.00959885
0.00934243
0.00902262
0.00853749
0.00778276
0.00657899
0.00467934
0.00214112
0.000342079
0.000323922
0.00227924
0.00435785
0.00607419
0.00734897
0.00825547
0.00889943
0.00935954
0.00972971
0.00997885
0.0101602
0.0102249
0.010099
0.00997718
0.00993905
0.00995469
0.0100205
0.0101751
0.0102025
0.0101213
0.00994658
0.00969558
0.00932528
0.00887046
0.00823934
0.00734753
0.00608371
0.00435071
0.0022405
0.000319983
0.000312195
0.00226047
0.00413933
0.00575397
0.00705607
0.00806288
0.00883124
0.00940924
0.0098609
0.0101635
0.0104052
0.0104705
0.0103011
0.0101693
0.0101131
0.0101285
0.0102113
0.0103523
0.0104695
0.010355
0.0101281
0.00980543
0.00935577
0.00878093
0.00802148
0.00702734
0.00573579
0.00411708
0.00223696
0.00030815
0.000287087
0.00211795
0.00394562
0.00554413
0.00688203
0.00796989
0.00883055
0.00949238
0.0100093
0.0103501
0.010642
0.0106325
0.0105071
0.010401
0.0103494
0.0103644
0.0104441
0.0105741
0.0107261
0.0105912
0.010299
0.00995259
0.00941947
0.00875429
0.00789432
0.00681438
0.00548308
0.00389136
0.00207427
0.000282481
0.000262339
0.00190753
0.00379618
0.00543436
0.00682014
0.00796871
0.00888616
0.00962111
0.0101685
0.0105727
0.0108891
0.010836
0.0107539
0.0106822
0.0106448
0.0106576
0.0107171
0.0108035
0.0108878
0.0108186
0.0104772
0.0100929
0.00952546
0.00878379
0.00785875
0.00670818
0.00533028
0.00371408
0.00186906
0.000257389
0.000249654
0.0018246
0.00374824
0.00543219
0.00685731
0.00802869
0.00898722
0.00974938
0.0103244
0.0108096
0.0110709
0.0110606
0.0110191
0.0109826
0.0109646
0.0109734
0.0110071
0.011053
0.0110943
0.0110661
0.0107022
0.0102366
0.00963489
0.00886107
0.00789141
0.00671144
0.00529186
0.00365221
0.00180359
0.000246761
0.000251467
0.00190256
0.00380635
0.00550928
0.00694822
0.00813871
0.00908627
0.00986919
0.0105062
0.0110549
0.011266
0.0113014
0.0113166
0.0113133
0.0113092
0.0113167
0.0113329
0.0113433
0.0113375
0.0113129
0.0109609
0.0103879
0.00973956
0.008953
0.00798424
0.00678924
0.00537302
0.00372427
0.00190696
0.000249939
0.00026061
0.002055
0.00393767
0.00565808
0.00709844
0.00824651
0.00916246
0.00996607
0.010714
0.0113134
0.0115451
0.011651
0.011719
0.0117507
0.011763
0.0117686
0.0117661
0.0117379
0.0116716
0.0115583
0.0112306
0.0105742
0.0098281
0.00903618
0.00811444
0.00695308
0.00553723
0.00389062
0.00206366
0.00026037
0.000275578
0.0023226
0.00423793
0.00589717
0.00725987
0.00834327
0.00924482
0.010093
0.0109272
0.0115704
0.0118358
0.0120034
0.0120919
0.0121325
0.0121498
0.0121575
0.0121544
0.0121232
0.012039
0.0118714
0.011512
0.0107911
0.00995009
0.00913676
0.00824152
0.00716276
0.00583387
0.0042377
0.00231535
0.000273678
0.000290459
0.00257328
0.00457753
0.00613411
0.00740281
0.00842416
0.00932624
0.0102522
0.0111615
0.011828
0.0121092
0.012302
0.0123967
0.0124388
0.0124581
0.0124678
0.0124681
0.0124392
0.0123494
0.0121409
0.0117892
0.0110408
0.0101262
0.00922971
0.00834597
0.00733723
0.00611035
0.00458842
0.00256133
0.000287309
0.000306031
0.00277455
0.00487759
0.00636165
0.007535
0.00852801
0.00949472
0.0105044
0.0114566
0.012065
0.0123429
0.0125238
0.0125999
0.0126334
0.0126519
0.0126641
0.0126718
0.0126584
0.0125929
0.0123763
0.0120656
0.0113709
0.0104183
0.00942806
0.00847505
0.00748816
0.00633708
0.00487144
0.00276893
0.000301519
0.000318248
0.00290405
0.00510513
0.00658045
0.00770937
0.00873694
0.00979996
0.0108876
0.0117744
0.0121929
0.0124673
0.0126029
0.0126479
0.0126711
0.0126876
0.0127018
0.0127174
0.012724
0.0126971
0.0125275
0.0122599
0.0117643
0.0108582
0.0097887
0.00872805
0.00767843
0.00654257
0.00508329
0.00291107
0.000313644
0.000327379
0.00297511
0.00525561
0.00679324
0.00796712
0.00907958
0.0102188
0.0112836
0.0119215
0.0121876
0.0124366
0.0125113
0.0125423
0.0125833
0.0126268
0.0126383
0.0126258
0.0126263
0.0126286
0.012537
0.0122704
0.0120091
0.0113344
0.0102683
0.00911618
0.00796637
0.00676904
0.00524524
0.00299733
0.000322708
0.000333934
0.00300706
0.00535076
0.00699836
0.00827621
0.00946599
0.0106114
0.0114433
0.011809
0.012066
0.0122421
0.012284
0.0123265
0.0124124
0.0124806
0.0124897
0.0124451
0.0123966
0.0123992
0.0123626
0.0121772
0.0119115
0.0115324
0.0107042
0.00954435
0.0083126
0.0070051
0.00536427
0.00302958
0.000328933
0.000339291
0.00298955
0.00543041
0.00718445
0.0085532
0.00979128
0.0107916
0.0113303
0.0116093
0.011833
0.0119303
0.0119698
0.0120597
0.0121826
0.0122715
0.0122759
0.0122077
0.0121181
0.0120654
0.0120429
0.0119246
0.0117137
0.0114205
0.010881
0.00989407
0.00862088
0.00722235
0.0054588
0.00300753
0.000334866
0.000340277
0.00297177
0.00551039
0.00733659
0.00877274
0.00996112
0.0107245
0.0111627
0.0113802
0.0115323
0.0116109
0.0116795
0.0117962
0.0119395
0.012039
0.0120475
0.0119601
0.0118334
0.0117301
0.0116703
0.0115982
0.011453
0.0112353
0.0107948
0.010071
0.00887863
0.00740171
0.0055457
0.00299705
0.000338621
0.00033547
0.00294173
0.00557248
0.00746264
0.00893207
0.00994854
0.0105166
0.0109448
0.011135
0.0112336
0.011302
0.0113805
0.0115183
0.0116847
0.0118023
0.0118112
0.0117117
0.0115691
0.0114499
0.0113751
0.0112976
0.0111979
0.0109928
0.0105661
0.0100411
0.00904457
0.007551
0.00562123
0.0029831
0.000335566
0.000334129
0.002858
0.00556167
0.00754501
0.00892347
0.00968898
0.0101464
0.0105839
0.0108536
0.0109358
0.0110025
0.0111154
0.0112855
0.011478
0.0116112
0.0116185
0.0115
0.0113257
0.0111698
0.0110738
0.0109952
0.0108745
0.010591
0.0101796
0.009746
0.009012
0.00763758
0.00565521
0.00289747
0.000322986
0.00034175
0.00289983
0.00552554
0.00744981
0.00872356
0.00932128
0.00976059
0.0101149
0.0103967
0.010566
0.0106781
0.0108223
0.0110306
0.0112544
0.0114015
0.0114052
0.011267
0.0110559
0.0108547
0.0107008
0.0105752
0.0104032
0.0101424
0.00978629
0.00937913
0.00882094
0.00756279
0.00563447
0.00285011
0.000328006
0.000343315
0.00293648
0.00547349
0.00727642
0.00841741
0.00895142
0.00935825
0.00968687
0.00993336
0.0101017
0.0102827
0.0104925
0.0107285
0.0109517
0.0110962
0.0111001
0.0109655
0.0107488
0.010517
0.0103076
0.010129
0.0099486
0.009704
0.00938023
0.00898998
0.0085003
0.00740825
0.00554125
0.00287335
0.000336511
0.000343455
0.00297904
0.0054205
0.0071159
0.00817355
0.00862207
0.00898245
0.00928146
0.00951995
0.00972085
0.00993017
0.0101664
0.0104205
0.0106503
0.0107921
0.0107945
0.0106591
0.0104344
0.0101842
0.009949
0.00973915
0.00953196
0.00928992
0.00898937
0.00863046
0.00820839
0.00724378
0.00550159
0.00294367
0.000339488
0.000341268
0.00301991
0.00534517
0.00695084
0.00794652
0.00832826
0.00863597
0.00891034
0.0091481
0.00936832
0.00959814
0.00985029
0.0101107
0.0103375
0.0104728
0.0104747
0.0103431
0.01012
0.00986196
0.00961019
0.00937805
0.00915257
0.00890802
0.0086257
0.008307
0.00795731
0.00706289
0.0054428
0.00299088
0.000339765
0.000337486
0.0030182
0.00524528
0.00676788
0.00772649
0.00806974
0.00832183
0.00857221
0.00881064
0.0090448
0.00929028
0.0095518
0.00981244
0.0100317
0.0101595
0.0101607
0.0100352
0.00981787
0.00955822
0.00929547
0.00904676
0.00880682
0.00856128
0.00830071
0.00803347
0.00772188
0.00686896
0.0053478
0.00300828
0.000336384
0.000332323
0.00297812
0.00513534
0.00658672
0.0075235
0.0078574
0.00804831
0.00827082
0.00850624
0.00875033
0.00900723
0.00927469
0.00953245
0.00974312
0.00986336
0.00986403
0.00974483
0.00953478
0.00927623
0.00900654
0.00874541
0.00849604
0.00825481
0.00802389
0.00781563
0.0075151
0.00667657
0.00523596
0.00299752
0.000332342
0.000326831
0.0029243
0.00502743
0.00642753
0.00735461
0.007693
0.00782639
0.00801191
0.00823725
0.00848558
0.00875013
0.00902053
0.00927446
0.00947655
0.00959007
0.00959017
0.00947691
0.00927376
0.00901779
0.00874373
0.00847484
0.00822183
0.00799231
0.00779906
0.00765419
0.00734698
0.00650852
0.00513104
0.00296703
0.000328026
0.000321753
0.00287578
0.00493493
0.0062975
0.00722714
0.00758068
0.00764965
0.00779515
0.00800404
0.00825111
0.00851893
0.00879042
0.00903981
0.00923458
0.00934199
0.00934179
0.00923316
0.00903629
0.00878303
0.00850693
0.00823396
0.0079831
0.00777162
0.00762235
0.00753798
0.00722826
0.00637297
0.00503711
0.00293015
0.000323727
0.000317613
0.00282591
0.00485024
0.0061869
0.00713546
0.00752047
0.00750984
0.00761555
0.00780367
0.00804447
0.00831266
0.00858359
0.00882922
0.00901766
0.00912035
0.00911941
0.00901437
0.00882198
0.00857103
0.00829327
0.00801864
0.00777276
0.00758216
0.00747528
0.0074839
0.00714153
0.00626159
0.00495492
0.0028946
0.000319235
0.000314229
0.00277284
0.004769
0.00609063
0.00705171
0.00748303
0.00743208
0.00746558
0.007628
0.00786009
0.00812718
0.00839826
0.00864144
0.00882582
0.00892488
0.00892321
0.00882002
0.00863009
0.00837924
0.00809941
0.00782347
0.00758516
0.00741999
0.00737776
0.00742489
0.00705683
0.00615946
0.00487693
0.00285362
0.000314747
0.000314422
0.00271177
0.00468507
0.00599175
0.00693954
0.00743075
0.00735483
0.00736195
0.00746991
0.00769066
0.00795729
0.00823023
0.00847417
0.00865708
0.00875443
0.00875183
0.00864913
0.00845888
0.00820611
0.00792289
0.00764677
0.00741904
0.00728486
0.00727034
0.00735684
0.0069468
0.00606159
0.00479981
0.00280902
0.000309749
0.000310775
0.00267678
0.00461914
0.00589166
0.00680066
0.0073546
0.00731152
0.0072458
0.00734528
0.00753816
0.00779983
0.00807611
0.00832377
0.00850885
0.00860645
0.00860349
0.00849973
0.0083073
0.00805077
0.00776465
0.00749103
0.00727946
0.00717973
0.00722472
0.00729372
0.00683063
0.00596473
0.00472288
0.00275862
0.000305256
0.000294962
0.00268645
0.00460164
0.00581563
0.00667675
0.00727887
0.00731056
0.00718364
0.00722425
0.00739603
0.00765384
0.00793346
0.00818765
0.00837789
0.00847842
0.0084757
0.00837037
0.00817432
0.00791415
0.0076273
0.00736221
0.00717393
0.00711616
0.00721619
0.00723988
0.00672898
0.00587889
0.00465062
0.00270578
0.000301052
0.000277039
0.0026401
0.00456586
0.00576116
0.0065956
0.00723274
0.00733945
0.00716411
0.0071475
0.00728864
0.00752538
0.00780361
0.00806413
0.00826202
0.0083674
0.00836619
0.008259
0.00805948
0.00779658
0.00751276
0.00726121
0.00710085
0.00708262
0.00724011
0.00721845
0.00665749
0.0058129
0.00458963
0.00265342
0.000298058
0.000261801
0.00253389
0.00447975
0.0057027
0.00654194
0.00720669
0.00738052
0.00714964
0.00709145
0.0071945
0.00741321
0.00768719
0.00795327
0.00815935
0.00827126
0.00827233
0.00816388
0.00796121
0.00769747
0.00741952
0.00718528
0.00705438
0.00707607
0.00727402
0.00722021
0.00660941
0.0057654
0.00454762
0.00261952
0.000294799
0.000249226
0.00242021
0.00437459
0.00563193
0.006491
0.00717103
0.00738067
0.00714823
0.00705924
0.00713288
0.00732421
0.00758834
0.00785621
0.00806955
0.00818784
0.00819193
0.00808233
0.00787744
0.00761389
0.00734362
0.00712679
0.00702229
0.00707278
0.00729978
0.00721342
0.00656648
0.00572969
0.00453176
0.0026189
0.000286772
0.000236852
0.0023289
0.00428899
0.00556886
0.0064445
0.00712944
0.00735573
0.00714099
0.00703892
0.0070818
0.00725566
0.00750834
0.00777468
0.00799226
0.00811582
0.00812226
0.00801189
0.00780491
0.00754237
0.0072795
0.00707872
0.00699599
0.00706604
0.00729668
0.00718322
0.00651615
0.00569408
0.0045207
0.00261547
0.000275378
0.000224707
0.00225544
0.00423615
0.00553633
0.00642287
0.00710112
0.00732733
0.00714207
0.00702869
0.00705259
0.00721038
0.00744984
0.00770993
0.00792777
0.00805358
0.0080614
0.00794962
0.00774103
0.00747921
0.00722294
0.00703423
0.00696619
0.00704625
0.00727196
0.00712772
0.0064518
0.00564705
0.00448825
0.00258197
0.000262929
0.000216947
0.00219304
0.00422524
0.00554268
0.00643629
0.00709886
0.00731767
0.00716506
0.0070549
0.00706319
0.00719591
0.00741548
0.00766332
0.00787572
0.00800024
0.00800713
0.00789373
0.00768348
0.00742304
0.00717214
0.00699229
0.00693031
0.00701306
0.00721662
0.00704078
0.00637701
0.00558391
0.00442495
0.00251804
0.00025105
0.000221165
0.00227852
0.00427122
0.00558354
0.00646475
0.00711407
0.00732974
0.00721806
0.00710877
0.0071005
0.00720711
0.00740284
0.00763278
0.00783496
0.0079539
0.00795807
0.00784284
0.00763204
0.00737399
0.00713015
0.00695851
0.00690104
0.00698026
0.00715132
0.00693538
0.00629469
0.00550683
0.00433915
0.0024392
0.000240246
0.000227287
0.00234992
0.00433176
0.00562879
0.00650426
0.00712846
0.00737439
0.00729922
0.0071849
0.00715677
0.0072363
0.00740463
0.00761394
0.00780206
0.00791277
0.00791227
0.00779515
0.00758596
0.00733365
0.0070994
0.00693876
0.00688746
0.00696033
0.00707464
0.0068263
0.00620867
0.00542299
0.00424524
0.00236123
0.000230387
0.00022927
0.00237667
0.00437376
0.0056694
0.00652531
0.00712767
0.00743654
0.00739846
0.00726771
0.00721676
0.00726918
0.00741188
0.00759984
0.007773
0.00787392
0.00786817
0.00774937
0.00754344
0.00730004
0.00707899
0.00693146
0.00688643
0.00694787
0.00700459
0.00672298
0.006134
0.00534466
0.00415262
0.00228674
0.000221496
0.000230145
0.00238182
0.00438742
0.0056708
0.00649341
0.00709205
0.00747551
0.00747201
0.00733032
0.00725953
0.00729131
0.00741341
0.00758337
0.00774235
0.00783366
0.00782284
0.00770399
0.00750348
0.00727134
0.00706526
0.00693245
0.00689622
0.0069469
0.00693637
0.00663329
0.00607702
0.00527857
0.00406297
0.00220683
0.000213547
0.000229867
0.00237357
0.0043663
0.00562533
0.00642311
0.00700662
0.00744585
0.00750516
0.00735027
0.0072702
0.00729164
0.00740088
0.00755727
0.00770461
0.00778745
0.00777312
0.00765629
0.00746411
0.00724561
0.00705638
0.00693905
0.00691315
0.0069525
0.00688081
0.00657289
0.00604385
0.00522958
0.00397603
0.00211274
0.000207073
0.000227822
0.00233381
0.00429993
0.00555143
0.00635307
0.00692267
0.00734693
0.00749361
0.00735388
0.00726293
0.00727487
0.00737371
0.00751934
0.00765695
0.00773319
0.00771751
0.00760588
0.00742535
0.00722414
0.00705469
0.00695765
0.00695007
0.00696515
0.00685614
0.00655988
0.00603748
0.00520608
0.00389394
0.00196572
0.000203513
0.000224239
0.00227535
0.00420373
0.00547355
0.00630439
0.00687277
0.00726994
0.00743987
0.00734692
0.00724737
0.00725115
0.00733931
0.00747378
0.00760259
0.00767439
0.00766049
0.0075576
0.00739305
0.00721408
0.00707109
0.00700321
0.00700652
0.00699606
0.00689352
0.00659748
0.0060536
0.00517725
0.00383545
0.00198711
0.000204791
0.000219364
0.00220215
0.00410676
0.00541152
0.00627732
0.00686325
0.00726125
0.00743088
0.00736058
0.00725769
0.00724396
0.00731613
0.00743668
0.00755571
0.00762493
0.00761594
0.00752615
0.00738287
0.00723323
0.00712438
0.00708327
0.00708342
0.00708581
0.00699786
0.00666624
0.00606287
0.0051385
0.0037998
0.00198828
0.000206518
0.000213677
0.00213233
0.00403109
0.00536664
0.00626036
0.00687298
0.00729499
0.007475
0.00740634
0.00730415
0.00727578
0.00732904
0.00743216
0.00753838
0.00760364
0.00760112
0.00752854
0.00741196
0.00729511
0.0072173
0.00718906
0.00719736
0.00721644
0.00711031
0.00673278
0.00605666
0.00507848
0.00373926
0.00196021
0.000202091
0.000208192
0.00208387
0.0039797
0.00532969
0.00624352
0.00688256
0.00733335
0.00753343
0.00747281
0.0073782
0.00734928
0.00738931
0.00747476
0.00756557
0.00762408
0.00762729
0.00757349
0.00748423
0.00739483
0.00733503
0.00730996
0.00731548
0.00731772
0.00718897
0.00676656
0.00603181
0.00501754
0.00367429
0.00192966
0.000197096
0.000203534
0.00204835
0.00393766
0.00529142
0.00621957
0.006879
0.00735845
0.00757763
0.00753706
0.00746665
0.00745089
0.00748805
0.00756021
0.00763651
0.0076872
0.00769422
0.00765589
0.00758692
0.00751253
0.00745426
0.00741539
0.00739003
0.00735106
0.00720795
0.00676339
0.00599859
0.00497198
0.00361621
0.00187843
0.000192435
0.000199491
0.00201474
0.00389111
0.0052448
0.00618328
0.00685931
0.00736188
0.00759088
0.00757611
0.00754289
0.00755104
0.00759553
0.00766166
0.00772763
0.00777187
0.00778055
0.00775065
0.00769054
0.00761733
0.00754621
0.00747887
0.00740797
0.00731993
0.00717155
0.00673131
0.00596362
0.00494089
0.00357833
0.0018329
0.000187213
0.000195802
0.00197774
0.00383535
0.00518806
0.00613316
0.00681991
0.00733632
0.00756532
0.00757474
0.00758102
0.00761713
0.00767502
0.0077416
0.00780192
0.00784133
0.00784942
0.00782121
0.00776145
0.00768129
0.00759163
0.00749436
0.0073828
0.00726191
0.00709934
0.00667773
0.00592664
0.00491176
0.00355669
0.0018084
0.000182003
0.000192316
0.00193531
0.00376877
0.00511954
0.00606985
0.00676079
0.00727879
0.00750169
0.00753325
0.0075732
0.0076332
0.00770376
0.00777271
0.00782989
0.00786514
0.00787048
0.00784003
0.00777971
0.0076928
0.00758813
0.00747022
0.00733646
0.0071961
0.00700865
0.00660139
0.0058773
0.00487331
0.0035329
0.00179323
0.000178458
0.000189184
0.0018895
0.003694
0.00504107
0.00599507
0.00668537
0.00719611
0.00741279
0.00746342
0.00752673
0.00760236
0.007679
0.00774701
0.00779993
0.00783077
0.0078325
0.00780156
0.00774144
0.00765576
0.00754526
0.00741742
0.00727648
0.00712238
0.00690479
0.00649992
0.00580474
0.00481888
0.00349675
0.0017762
0.000176197
0.000186679
0.0018439
0.00361447
0.00495497
0.00590988
0.00659651
0.00709668
0.00730833
0.00737628
0.00745425
0.00753608
0.00761164
0.00767444
0.00772089
0.0077462
0.00774504
0.0077159
0.0076605
0.00757813
0.0074706
0.00734263
0.0072008
0.00703702
0.00679039
0.00636814
0.00570131
0.00474317
0.00344476
0.00175111
0.000175325
0.000185057
0.00180011
0.00353191
0.00486152
0.00581397
0.00649531
0.00698505
0.00719576
0.00728221
0.00736781
0.0074491
0.00751956
0.0075756
0.00761496
0.00763462
0.00763106
0.00760346
0.00755212
0.00747421
0.00737152
0.00724828
0.0071102
0.00693234
0.0066592
0.00620546
0.005562
0.00463058
0.00337062
0.00172102
0.000175011
0.000184863
0.00175598
0.00344889
0.00475796
0.00570475
0.00638004
0.00685815
0.00707921
0.00718849
0.00727812
0.0073567
0.00742206
0.00747221
0.00750556
0.00752021
0.00751369
0.00748507
0.00743361
0.00735762
0.0072586
0.00714087
0.00700379
0.00679976
0.00648854
0.00601168
0.00537153
0.00448606
0.0032805
0.00168834
0.000172555
0.00018745
0.00172184
0.00336632
0.00463913
0.00557703
0.0062441
0.00671546
0.00695579
0.00709256
0.00718761
0.00726564
0.00732805
0.00737419
0.00740311
0.00741343
0.00740312
0.00737132
0.00731671
0.00723897
0.0071389
0.00701953
0.00686916
0.00663386
0.00627851
0.00578177
0.00513294
0.00429018
0.0031405
0.001591
0.000167818
0.000195336
0.00170255
0.00327278
0.00449257
0.00542091
0.00608457
0.00655426
0.00682098
0.00698556
0.0070893
0.0071697
0.0072317
0.00727605
0.00730221
0.00730905
0.00729501
0.00725934
0.00720025
0.00711767
0.00701075
0.00687938
0.00670135
0.00643549
0.00603712
0.00553143
0.0048713
0.0040436
0.00294207
0.00144345
0.000164441
0.000197297
0.00166519
0.00311892
0.00428819
0.00521038
0.00588874
0.00636685
0.00665889
0.00685406
0.00697243
0.00705847
0.00712277
0.00716735
0.00719212
0.0071962
0.0071788
0.00713906
0.00707504
0.00698571
0.00686814
0.00671875
0.00650906
0.00621033
0.00579133
0.00527279
0.00461794
0.00380709
0.00274947
0.00134254
0.000156283
0.000195228
0.00147727
0.00286459
0.0040113
0.004928
0.0056279
0.00613516
0.00645652
0.00668712
0.00682951
0.00692615
0.0069955
0.00704171
0.00706553
0.00706696
0.00704627
0.00700232
0.00693317
0.00683657
0.00670782
0.00653947
0.00630515
0.00597494
0.00555023
0.00502474
0.00439163
0.00360592
0.00260697
0.00131055
0.000147474
0.00018319
0.00116154
0.00246566
0.00363306
0.00457986
0.0052998
0.00584694
0.00621574
0.00648237
0.00665624
0.00677112
0.00684884
0.00689764
0.00692056
0.00691929
0.00689488
0.00684645
0.00677235
0.00666902
0.00653036
0.00634494
0.006092
0.00574287
0.00531658
0.0048005
0.00418766
0.00343932
0.00252425
0.00133053
0.000143572
0.000155909
0.000845433
0.00221746
0.00323562
0.00417394
0.00491723
0.00551524
0.00593856
0.00624431
0.00645164
0.00659201
0.0066832
0.00673677
0.00675977
0.00675629
0.00672788
0.00667478
0.00659575
0.00648607
0.00633823
0.00613942
0.00586964
0.00551779
0.00509511
0.00459834
0.00401463
0.00331236
0.00246627
0.00134939
0.000142399
0.000138057
0.000798871
0.0020371
0.00306325
0.00382514
0.0045621
0.00517538
0.00563942
0.00598055
0.00622051
0.00638855
0.0064986
0.00656138
0.00658763
0.00658397
0.00655257
0.00649514
0.0064105
0.00629368
0.00613635
0.00592625
0.00564785
0.0053028
0.00489238
0.0044216
0.0038731
0.00321447
0.00240754
0.00132885
0.000141841
0.000134614
0.000925012
0.00196327
0.00285017
0.00361307
0.00425637
0.0048659
0.0053445
0.00570612
0.00597073
0.00616382
0.00629603
0.00637353
0.00640836
0.0064081
0.00637616
0.00631536
0.00622463
0.00609953
0.00593243
0.00571289
0.00543378
0.00510133
0.00471067
0.00427051
0.00375547
0.00312817
0.00233888
0.00128377
0.000142128
0.000136472
0.00103356
0.0019723
0.0027494
0.00338749
0.00400479
0.00458742
0.00507312
0.00544083
0.00571848
0.00592786
0.006081
0.00617733
0.00622512
0.006232
0.00620244
0.00613989
0.00604382
0.00591093
0.00573474
0.00550834
0.00523595
0.00491399
0.00455143
0.00413634
0.00364066
0.00303565
0.00225942
0.00124063
0.000145863
0.000147601
0.0011663
0.00201469
0.00270109
0.00327939
0.00382102
0.00434915
0.00482406
0.00519334
0.0054776
0.00569759
0.00586522
0.00597996
0.00604298
0.00605974
0.00603506
0.0059727
0.00587293
0.00573374
0.00555024
0.00532099
0.00505627
0.00474776
0.00440833
0.00400117
0.00351304
0.00292378
0.00216428
0.00119544
0.000148716
0.000157921
0.00120323
0.00201182
0.00266001
0.00319546
0.00366429
0.004149
0.00460391
0.0049679
0.00525375
0.00548257
0.00566276
0.005792
0.0058695
0.00589742
0.00587944
0.00581927
0.00571775
0.0055739
0.00538544
0.00515825
0.00489475
0.00460495
0.00427047
0.0038589
0.00337142
0.00279197
0.00204351
0.0011133
0.000147421
0.000156529
0.00116128
0.00196794
0.00261499
0.00312772
0.00355838
0.00399067
0.00441578
0.00477253
0.0050545
0.00528703
0.00547669
0.0056185
0.00570864
0.00574726
0.00573658
0.00567989
0.00557872
0.00543337
0.00524443
0.00501788
0.00476071
0.00448007
0.00413943
0.00371887
0.00323007
0.00265522
0.00191332
0.00101772
0.000142127
0.000150749
0.00108408
0.00190313
0.00256624
0.00306787
0.00347775
0.0038656
0.00425752
0.00460735
0.00488523
0.00511535
0.00530945
0.00545946
0.00555913
0.00560638
0.00560217
0.00554918
0.00544999
0.0053063
0.00512042
0.00489686
0.00464378
0.00436401
0.00401748
0.00359337
0.00310547
0.00253442
0.00180468
0.000942501
0.000137364
0.000144921
0.0010269
0.00186879
0.0025317
0.00302639
0.00342518
0.00380637
0.00415937
0.00447304
0.00474729
0.00496823
0.00516307
0.00531743
0.00542329
0.00547681
0.00547793
0.00542861
0.00533201
0.00519095
0.00500859
0.00478877
0.00453759
0.00425445
0.00390474
0.00348249
0.00300955
0.00244693
0.00174299
0.000869292
0.000133311
0.000146465
0.00107877
0.00190167
0.00253529
0.00302079
0.00341564
0.00376607
0.00408925
0.00438839
0.00465086
0.00485738
0.00503771
0.0051925
0.00530222
0.00536046
0.00536592
0.00532009
0.00522619
0.0050875
0.00490743
0.0046896
0.004439
0.00414936
0.00380453
0.00342097
0.00295696
0.00238777
0.00168983
0.000804699
0.000130649
0.000150841
0.00111261
0.00193217
0.00255292
0.00303327
0.00342596
0.00376225
0.0040371
0.00428838
0.00454096
0.00475719
0.00493111
0.00508302
0.00519489
0.00525672
0.00526573
0.00522301
0.00513151
0.00499465
0.00481568
0.00459773
0.00434452
0.00404687
0.00371358
0.00333503
0.00287482
0.00231105
0.00163995
0.000796875
0.00012941
0.000151262
0.00111573
0.00196584
0.00258109
0.00304869
0.00344316
0.00377396
0.00403381
0.00422741
0.00443406
0.00465027
0.00483239
0.00498483
0.0050994
0.00516449
0.00517654
0.00513648
0.00504709
0.00491163
0.00473288
0.00451316
0.00425373
0.00394778
0.00361305
0.00324772
0.00278552
0.00222861
0.00158814
0.000815903
0.00012926
0.000150636
0.00109963
0.00195804
0.00257
0.0030374
0.00345104
0.00378745
0.0040151
0.00420689
0.00435838
0.0045589
0.00474234
0.00489728
0.00501488
0.00508285
0.00509754
0.00505977
0.00497223
0.00483795
0.00465924
0.00443791
0.00417188
0.00386256
0.0035267
0.00316215
0.0027092
0.00213761
0.0015237
0.000813169
0.000129246
0.000150024
0.00107222
0.00192464
0.00253003
0.00299976
0.00344419
0.00378741
0.00400046
0.0042031
0.00431483
0.00448451
0.00466575
0.00482233
0.00494112
0.00501116
0.00502802
0.00499226
0.00490637
0.0047732
0.00459485
0.00437274
0.00410314
0.00379524
0.0034512
0.0031058
0.00264309
0.002077
0.00145127
0.000777816
0.000128104
0.000148455
0.00101114
0.00182193
0.00241899
0.00292887
0.00341433
0.00376505
0.0039719
0.00417531
0.00429671
0.00443207
0.00460307
0.00475931
0.0048777
0.00494883
0.00496738
0.00493345
0.00484922
0.0047172
0.00453938
0.00431588
0.00404371
0.00373544
0.00338458
0.00303855
0.00260504
0.0020584
0.0014122
0.000701177
0.000124458
0.000142816
0.00086606
0.00163623
0.00229608
0.00288344
0.00337337
0.00371748
0.00391786
0.00411543
0.00428959
0.00440385
0.00455873
0.00470669
0.00482382
0.00489526
0.00491509
0.00488297
0.0048007
0.00467023
0.00449314
0.00426818
0.0039944
0.003681
0.00334592
0.003
0.0025942
0.00207334
0.00142831
0.000684645
0.000122434
0.000129771
0.00066984
0.00149293
0.00223559
0.00285895
0.00334358
0.00368039
0.00387918
0.00407547
0.00425613
0.00438463
0.00452109
0.0046624
0.00477847
0.00484981
0.00487067
0.00484051
0.00476081
0.00463294
0.00445776
0.00423349
0.00396215
0.00365271
0.00332141
0.00297924
0.00260078
0.0021267
0.00149416
0.000721087
0.000122568
0.000120688
0.000603913
0.00146748
0.00224418
0.00286126
0.00333289
0.00365767
0.00385686
0.00404665
0.00421564
0.00435534
0.0044846
0.00462706
0.00474119
0.00481179
0.0048334
0.00480542
0.00472904
0.0046053
0.00443474
0.0042142
0.00394919
0.00364441
0.00331591
0.00297674
0.00261911
0.00217812
0.00158492
0.000802148
0.000124012
0.000118431
0.000648639
0.00153093
0.00229722
0.00288746
0.00333781
0.00365128
0.0038544
0.00403525
0.00419188
0.00433601
0.00446633
0.00460104
0.00471111
0.00478013
0.00480225
0.00477657
0.00470411
0.00458606
0.00442284
0.00421091
0.00395605
0.00366289
0.00334074
0.00300558
0.00266586
0.00226043
0.00167119
0.000879449
0.000126681
0.000119239
0.000735977
0.00161137
0.00235309
0.00292401
0.00335152
0.00365996
0.00386983
0.00403626
0.00418462
0.00432201
0.00445136
0.00458055
0.00468668
0.00475396
0.00477641
0.0047529
0.00468445
0.00457282
0.00441831
0.00421991
0.00398029
0.00370545
0.00339865
0.0030734
0.00273975
0.00233411
0.00173933
0.000936315
0.000129297
0.000122225
0.000856162
0.0017264
0.00242092
0.00295712
0.00336653
0.00366906
0.00388411
0.00404561
0.00418635
0.00431516
0.00444138
0.00456567
0.0046681
0.0047337
0.00475602
0.00473379
0.00466872
0.00456382
0.00441949
0.00423574
0.00401587
0.00376268
0.00347871
0.00317282
0.00284246
0.00241779
0.00180662
0.00097666
0.000133322
0.000125389
0.000941573
0.00180091
0.00245809
0.00297328
0.00337197
0.00366807
0.00388822
0.0040558
0.00419175
0.00431539
0.00443901
0.00455827
0.00465645
0.00471982
0.0047411
0.00471876
0.00465597
0.00455721
0.00442303
0.00425342
0.0040523
0.00382047
0.00356194
0.00327991
0.00294605
0.00250651
0.00189487
0.00103768
0.000140627
0.000130161
0.00098448
0.00183514
0.00248864
0.00297903
0.00336749
0.00366036
0.00388447
0.00405543
0.00419868
0.00432522
0.00444798
0.00456128
0.00465288
0.00471175
0.00473052
0.00470712
0.00464565
0.00455121
0.00442614
0.00427163
0.00408943
0.00387885
0.00363982
0.00335883
0.00300412
0.00254428
0.00194137
0.00108609
0.000151316
0.000137215
0.000982728
0.00183631
0.00248378
0.00297304
0.00335452
0.00364877
0.00387802
0.00405474
0.00420869
0.00434407
0.00446793
0.00457506
0.0046579
0.0047093
0.0047238
0.00469927
0.00463891
0.00454703
0.00442671
0.00427949
0.00410852
0.00391079
0.00367396
0.00338442
0.00302966
0.00257286
0.00194121
0.00110145
0.000160467
0.00014353
0.000991986
0.0018334
0.00248237
0.00296813
0.00334009
0.00363597
0.00387485
0.00406436
0.00422805
0.00436993
0.00449325
0.00459446
0.00466921
0.00471324
0.00472319
0.00469783
0.00463877
0.0045493
0.00443163
0.00428601
0.00411523
0.003915
0.00367399
0.00338273
0.00301599
0.00252101
0.00189706
0.00110626
0.00016296
0.000147391
0.00103511
0.00187025
0.00251246
0.00298117
0.00333899
0.00363419
0.00387968
0.00408122
0.00425224
0.0043973
0.00451801
0.00461359
0.00468244
0.00472191
0.00472929
0.00470237
0.00464418
0.00455671
0.00443995
0.00429301
0.00411665
0.00390966
0.00365882
0.0033528
0.00296951
0.00246233
0.00185321
0.00112528
0.000163266
0.000154041
0.00112673
0.0019717
0.00257207
0.00301094
0.00335629
0.00364236
0.00388791
0.00409511
0.00427058
0.00441718
0.00453565
0.00462699
0.0046921
0.00472888
0.00473649
0.0047117
0.00465632
0.00457329
0.00445841
0.00430889
0.00412551
0.00390518
0.00364133
0.0033371
0.00295516
0.00245086
0.00186285
0.00117594
0.000166132
0.000167415
0.00123763
0.00209627
0.00265984
0.00307107
0.0033886
0.00366089
0.00389796
0.00410229
0.0042774
0.00442415
0.00454186
0.00463109
0.00469437
0.00473142
0.00473774
0.00471515
0.00466345