/*--------------------------------*- C++ -*----------------------------------*\
| =========                 |                                                 |
| \\      /  F ield         | OpenFOAM: The Open Source CFD Toolbox           |
|  \\    /   O peration     | Version:  2.3.0                                 |
|   \\  /    A nd           | Web:      www.OpenFOAM.org                      |
|    \\/     M anipulation  |                                                 |
\*---------------------------------------------------------------------------*/
FoamFile
{
    version     2.0;
    format      ascii;
    class       surfaceScalarField;
    location    "0.36";
    object      phi.air;
}
// * * * * * * * * * * * * * * * * * * * * * * * * * * * * * * * * * * * * * //

dimensions      [0 3 -1 0 0 0 0];

internalField   nonuniform List<scalar> 
11770
(
1.41025e-05
7.8852e-05
2.05206e-05
8.83106e-05
2.32989e-05
9.08991e-05
1.51307e-05
9.72557e-05
-3.22413e-07
0.000101436
-7.48004e-06
9.76151e-05
-1.4066e-05
9.8865e-05
-2.26018e-05
9.69641e-05
-2.05593e-05
8.8809e-05
-1.16425e-05
8.43546e-05
-4.29165e-06
8.66434e-05
-3.29892e-07
9.28284e-05
-3.88315e-06
0.000107252
-6.43409e-06
0.000116936
1.89857e-07
0.000116055
4.45113e-06
0.000115902
1.09992e-06
0.000113561
6.31821e-07
0.000100882
5.40362e-06
9.02664e-05
1.30642e-05
8.56168e-05
2.14574e-05
8.44729e-05
2.19812e-05
8.92973e-05
1.17752e-05
9.76332e-05
2.90479e-06
0.000100064
-9.80421e-06
0.000102658
-2.05223e-05
9.89653e-05
-2.66869e-05
9.72173e-05
-1.85192e-05
8.87151e-05
-1.07838e-05
8.83995e-05
8.20959e-05
1.84396e-05
5.71891e-05
1.03861e-05
8.46247e-05
4.34505e-06
8.58371e-05
1.53823e-06
9.1738e-05
5.92339e-06
9.34931e-05
5.89106e-06
9.24852e-05
3.15829e-06
9.34721e-05
-1.07909e-05
9.73483e-05
-1.48814e-05
7.94038e-05
-2.15511e-06
6.11648e-05
1.27676e-05
6.26787e-05
2.43275e-05
7.24524e-05
1.82937e-05
9.96093e-05
8.73431e-07
0.00011567
-1.98236e-06
0.000105149
-7.71577e-06
0.000107172
-2.37243e-05
0.000112249
-2.11057e-05
8.70647e-05
-8.49828e-06
6.84911e-05
5.9226e-06
6.15489e-05
1.62381e-05
6.29628e-05
7.70652e-06
8.36523e-05
-4.9866e-06
9.82441e-05
-6.68243e-06
9.48725e-05
-2.78226e-06
9.45672e-05
-3.95547e-06
9.3214e-05
-8.75167e-06
9.13909e-05
-1.38802e-05
8.23632e-05
-1.81478e-05
8.20067e-05
6.09682e-05
1.03347e-05
4.95199e-05
1.18999e-06
9.00839e-05
-7.68279e-07
8.75996e-05
2.97728e-06
8.92545e-05
7.15911e-06
9.08794e-05
8.89892e-06
9.22392e-05
5.80155e-06
9.60294e-05
1.13127e-07
0.000103135
-1.12636e-06
8.20547e-05
1.25806e-05
5.28148e-05
2.66838e-05
5.55142e-05
3.53869e-05
7.10473e-05
1.93691e-05
0.000112101
7.89116e-06
0.000119054
-3.41187e-06
0.000106484
-1.39278e-05
0.000108889
-2.87255e-05
0.000120256
-3.55884e-05
9.6162e-05
-2.13673e-05
6.24828e-05
-8.45986e-06
5.48363e-05
2.75863e-06
5.63893e-05
-1.15542e-06
8.87756e-05
-6.57525e-06
0.00010366
-8.80403e-06
9.65863e-05
-5.58219e-06
9.26788e-05
-9.54404e-07
9.04683e-05
2.88705e-06
8.83843e-05
-3.72159e-06
8.61398e-05
-1.37035e-05
8.67797e-05
5.02267e-05
-5.47697e-06
5.23005e-05
-3.01625e-06
8.63225e-05
3.31981e-07
8.35197e-05
4.09639e-06
8.47717e-05
7.17159e-06
8.71696e-05
9.64591e-06
8.94697e-05
1.15967e-05
9.4198e-05
1.21959e-05
0.00010178
1.19309e-05
8.06132e-05
2.19147e-05
4.45087e-05
3.18699e-05
4.92129e-05
1.61552e-05
8.32792e-05
6.78124e-06
0.000116739
7.83194e-06
0.000116786
-2.00259e-06
0.000111898
-1.04295e-05
0.000113184
-1.05891e-05
0.000118647
-3.05909e-05
0.000109279
-2.65683e-05
6.14776e-05
-1.81565e-05
4.94077e-05
-9.84999e-06
4.86547e-05
-1.30435e-05
8.95069e-05
-1.17935e-05
0.00010197
-9.06543e-06
9.40628e-05
-5.87792e-06
8.92933e-05
-2.35042e-06
8.64194e-05
1.10784e-06
8.41182e-05
3.44611e-06
8.27913e-05
2.89415e-06
8.47248e-05
5.03108e-05
-8.74652e-06
5.6356e-05
-2.3546e-06
7.83438e-05
1.83048e-06
7.79433e-05
5.07935e-06
8.02812e-05
7.8177e-06
8.35223e-05
1.00438e-05
8.57488e-05
1.27574e-05
9.0147e-05
1.47626e-05
9.84152e-05
2.01381e-05
7.49335e-05
2.59077e-05
4.14112e-05
3.0001e-05
4.89287e-05
2.98772e-06
0.000103861
2.9905e-06
0.000117383
2.88266e-06
0.000116912
-6.34321e-07
0.000115276
-3.3303e-06
0.000115792
-2.00687e-06
0.000117489
-1.0506e-05
0.000115517
-3.06494e-05
7.92946e-05
-2.36728e-05
4.71517e-05
-1.75618e-05
4.38284e-05
-1.53954e-05
8.57826e-05
-1.27576e-05
9.78788e-05
-9.64e-06
8.97499e-05
-7.08149e-06
8.55757e-05
-4.44983e-06
8.29993e-05
-2.00457e-06
8.02743e-05
1.54536e-06
7.79033e-05
7.75087e-06
7.72115e-05
5.33032e-05
1.05572e-06
5.38093e-05
2.33943e-06
7.48891e-05
4.45486e-06
7.40588e-05
6.23257e-06
7.67567e-05
8.22791e-06
8.0434e-05
9.57793e-06
8.24628e-05
1.05099e-05
8.67687e-05
1.32822e-05
9.37825e-05
2.7141e-05
6.28159e-05
2.93983e-05
4.28079e-05
1.30745e-05
6.58722e-05
9.973e-07
0.000114125
1.24981e-06
0.000116907
1.14663e-06
0.000116503
-1.58072e-07
0.000115929
-1.02724e-06
0.000116075
-7.85266e-07
0.000116741
-1.35774e-06
0.000116337
-3.05579e-05
0.000101938
-2.78516e-05
4.80923e-05
-2.35793e-05
4.17305e-05
-1.23294e-05
7.48148e-05
-1.0732e-05
9.40651e-05
-9.47223e-06
8.60944e-05
-8.18526e-06
8.24256e-05
-6.6572e-06
7.98873e-05
-5.79779e-06
7.74745e-05
-3.48317e-06
7.4321e-05
-2.09585e-06
7.39673e-05
4.98695e-05
1.03102e-05
4.48405e-05
7.13659e-06
7.4809e-05
7.22935e-06
7.18302e-05
7.1916e-06
7.47943e-05
7.85897e-06
7.82956e-05
7.65845e-06
8.04221e-05
6.80923e-06
8.45673e-05
1.26061e-05
8.57627e-05
3.17744e-05
4.79197e-05
3.25205e-05
4.58804e-05
4.42707e-08
9.15663e-05
-2.83184e-07
0.000115007
1.03585e-07
0.000115868
2.54031e-07
0.000115509
1.14949e-07
0.000115167
-4.79743e-08
0.000115324
1.40063e-08
0.000115899
-6.26404e-07
0.000116467
-1.52132e-05
0.000114175
-2.93929e-05
6.38794e-05
-2.86446e-05
4.57005e-05
-9.33524e-06
5.86138e-05
-7.28311e-06
8.90614e-05
-8.24906e-06
8.39939e-05
-8.42098e-06
8.04315e-05
-8.90704e-06
7.83876e-05
-8.79146e-06
7.53246e-05
-7.75045e-06
7.15454e-05
-1.06138e-05
7.36834e-05
4.07154e-05
1.25739e-05
3.35698e-05
9.98199e-06
7.3375e-05
9.12962e-06
7.02943e-05
8.21086e-06
7.33443e-05
7.29953e-06
7.69922e-05
5.40578e-06
7.97489e-05
1.48998e-07
8.51101e-05
1.55962e-05
7.15931e-05
2.93426e-05
4.10088e-05
2.19787e-05
5.46283e-05
-8.68944e-07
0.000108915
-1.12134e-06
0.000114854
-8.7328e-07
0.000114696
-2.82687e-07
0.000113849
3.27987e-07
0.000113408
1.00095e-06
0.000113543
1.42795e-06
0.00011442
1.51912e-06
0.000115527
1.55718e-07
0.000115367
-3.07197e-05
8.84215e-05
-3.00554e-05
5.05778e-05
-9.95325e-06
4.42855e-05
-2.40555e-06
7.98983e-05
-6.74781e-06
8.43987e-05
-8.74442e-06
8.02809e-05
-1.02226e-05
7.7952e-05
-1.13833e-05
7.43042e-05
-9.72503e-06
6.78133e-05
-1.18492e-05
7.16747e-05
3.00194e-05
8.01428e-06
2.54398e-05
1.40085e-05
6.48374e-05
1.17122e-05
7.02792e-05
8.3826e-06
7.41993e-05
4.57441e-06
7.87577e-05
-2.07599e-06
8.43672e-05
-4.875e-06
8.47819e-05
1.77506e-05
5.44812e-05
2.49879e-05
3.94017e-05
6.6492e-06
6.95458e-05
-2.75969e-07
0.000114317
-2.02039e-06
0.000115437
-1.93771e-06
0.000113353
-1.00387e-06
0.000111438
6.38426e-07
0.000110292
2.04471e-06
0.000110626
3.0689e-06
0.00011199
3.17634e-06
0.000114143
2.73018e-06
0.000114736
-2.20441e-05
0.000105802
-2.51111e-05
5.41767e-05
-1.35772e-05
3.90543e-05
4.23534e-06
6.52044e-05
-2.79067e-06
8.72522e-05
-7.71554e-06
8.29308e-05
-1.12291e-05
7.91972e-05
-1.5312e-05
7.60853e-05
-1.20568e-05
6.37235e-05
-5.80205e-06
6.31227e-05
2.38827e-05
1.42733e-06
2.29073e-05
1.70905e-05
5.01344e-05
1.45051e-05
7.10327e-05
9.26789e-06
7.71604e-05
4.51879e-06
7.97788e-05
-3.2089e-06
8.82323e-05
4.99481e-06
7.87351e-05
1.70409e-05
4.78492e-05
2.21485e-05
3.84041e-05
5.07284e-06
8.21331e-05
-1.15532e-06
0.000118518
-3.96112e-06
0.000116422
-4.10941e-06
0.000111551
-2.0113e-06
0.000107366
7.55829e-07
0.000105444
3.60861e-06
0.00010577
4.89327e-06
0.000108674
4.09746e-06
0.000113094
-3.43041e-07
0.000117314
-1.29588e-05
0.000115326
-2.07016e-05
6.10757e-05
-1.79127e-05
4.16682e-05
-1.83133e-06
5.47031e-05
8.03314e-07
8.39335e-05
-6.21907e-06
8.56737e-05
-1.05581e-05
7.99027e-05
-1.67681e-05
7.98684e-05
-1.35729e-05
6.02613e-05
4.98166e-07
4.97655e-05
2.3309e-05
-2.15946e-06
2.41932e-05
1.37598e-05
3.56995e-05
1.5724e-05
6.74319e-05
9.07804e-06
8.05297e-05
2.44149e-06
8.30834e-05
2.51706e-06
8.58234e-05
2.20428e-05
6.38607e-05
2.21991e-05
4.84058e-05
2.15238e-05
4.50029e-05
7.02638e-06
9.76958e-05
-3.84779e-06
0.000126864
-8.43731e-06
0.00011847
-7.92028e-06
0.000108463
-4.21448e-06
0.000100945
1.31229e-06
9.72858e-05
6.1615e-06
9.81862e-05
9.12564e-06
0.000103096
7.55937e-06
0.000112019
2.78918e-07
0.000122144
-1.38254e-05
0.000129423
-2.29856e-05
7.472e-05
-2.83998e-05
4.67113e-05
-1.97838e-05
5.16635e-05
-3.79956e-07
6.88373e-05
-1.30193e-06
8.42584e-05
-7.62801e-06
8.30292e-05
-1.18337e-05
8.09565e-05
-1.16695e-05
5.7849e-05
2.13425e-06
3.6682e-05
2.43689e-05
-3.30111e-06
2.69716e-05
4.78526e-06
2.82629e-05
1.29199e-05
5.87436e-05
8.40477e-06
8.21707e-05
5.52832e-06
8.3569e-05
2.04384e-05
7.37462e-05
3.44669e-05
5.66812e-05
2.80785e-05
5.56037e-05
2.05863e-05
5.76667e-05
6.93339e-08
0.000121003
-1.31027e-05
0.00013797
-1.74105e-05
0.000119744
-1.54146e-05
0.000103333
-7.5461e-06
9.06609e-05
1.96306e-06
8.54888e-05
1.1257e-05
8.66258e-05
1.73771e-05
9.43188e-05
1.73547e-05
0.00010889
9.60787e-06
0.000126758
-4.53758e-06
0.000145335
-2.40369e-05
9.92559e-05
-3.40682e-05
5.69032e-05
-3.69033e-05
5.77326e-05
-1.77332e-05
6.04309e-05
-3.97707e-06
7.29914e-05
-4.13565e-06
8.14449e-05
-4.35426e-06
7.95473e-05
-5.27568e-06
5.56092e-05
2.27502e-06
2.91296e-05
2.59496e-05
-4.19095e-06
3.08593e-05
-3.55325e-06
2.80579e-05
7.56045e-06
4.97839e-05
1.01092e-05
8.02547e-05
1.8413e-05
7.66897e-05
3.79133e-05
6.20759e-05
3.92342e-05
5.8527e-05
2.99611e-05
6.57435e-05
5.91163e-06
8.8211e-05
-2.0673e-05
0.000148893
-3.07771e-05
0.000145
-3.17096e-05
0.000118303
-2.31708e-05
9.4248e-05
-1.06336e-05
7.85915e-05
2.67477e-06
7.31238e-05
1.57327e-05
7.43822e-05
2.75925e-05
8.27047e-05
3.37094e-05
0.000101743
2.96293e-05
0.000128031
1.95471e-05
0.000156497
-1.18125e-05
0.000133745
-3.23989e-05
7.74178e-05
-4.18932e-05
6.97747e-05
-3.89429e-05
6.29236e-05
-1.89416e-05
6.22636e-05
-6.57887e-06
7.12951e-05
-1.84991e-06
7.55933e-05
1.25924e-06
5.14994e-05
3.07122e-06
2.74086e-05
2.87472e-05
-4.44954e-06
3.57329e-05
-7.02094e-06
3.10833e-05
2.48226e-06
4.39552e-05
1.57884e-05
7.0898e-05
3.36446e-05
6.47425e-05
4.39969e-05
5.85524e-05
3.91469e-05
6.68449e-05
1.946e-05
8.52469e-05
-2.77533e-05
0.000133873
-4.52334e-05
0.000166927
-4.68805e-05
0.000144155
-3.57429e-05
0.000108008
-2.00936e-05
8.15375e-05
-8.0779e-06
7.01539e-05
1.90585e-06
6.7104e-05
1.23543e-05
6.78518e-05
2.5677e-05
7.28222e-05
4.20423e-05
8.80096e-05
5.13578e-05
0.000118856
5.13896e-05
0.00015481
2.30898e-05
0.000162728
-2.09201e-05
0.000122416
-4.18194e-05
8.7357e-05
-4.58017e-05
7.00926e-05
-3.49073e-05
5.73414e-05
-1.53048e-05
5.85667e-05
-4.03607e-06
6.62348e-05
4.62787e-06
4.49216e-05
4.15301e-06
2.86913e-05
3.28714e-05
-2.94155e-06
3.91312e-05
-4.46447e-06
3.29461e-05
2.52132e-06
3.87188e-05
2.23302e-05
5.42678e-05
3.90041e-05
5.39206e-05
4.21084e-05
5.84239e-05
3.16673e-05
7.59422e-05
-1.7031e-05
0.000129773
-5.76135e-05
0.00017248
-5.86684e-05
0.000166922
-4.09302e-05
0.000128374
-2.07791e-05
9.17317e-05
-8.46244e-06
7.39478e-05
-2.77212e-06
6.88547e-05
7.8476e-07
6.76865e-05
4.83231e-06
6.80564e-05
1.22045e-05
7.00533e-05
2.76776e-05
7.73376e-05
5.06202e-05
9.95706e-05
6.92e-05
0.000137707
6.23878e-05
0.000167963
1.56077e-05
0.000164582
-3.10948e-05
0.000128226
-4.38777e-05
8.01099e-05
-4.00761e-05
5.57126e-05
-2.49044e-05
4.82481e-05
-6.89359e-06
5.01827e-05
3.95943e-06
3.74552e-05
3.52844e-06
3.0091e-05
3.63416e-05
-1.99072e-07
3.92652e-05
1.72577e-06
3.10936e-05
8.50043e-06
3.12834e-05
2.50509e-05
3.84476e-05
3.56751e-05
4.42977e-05
3.65668e-05
5.74331e-05
3.71539e-06
0.000107404
-4.50308e-05
0.000169863
-5.98097e-05
0.000186702
-4.38801e-05
0.000154902
-1.6547e-05
0.000108811
-3.85359e-06
8.44234e-05
-9.29789e-07
7.42451e-05
-1.21687e-07
7.11462e-05
4.96659e-07
7.03671e-05
1.16194e-06
7.06081e-05
2.5929e-06
7.17954e-05
7.52237e-06
7.59313e-05
2.51435e-05
8.81515e-05
5.44122e-05
0.000115882
6.5863e-05
0.000159388
4.58479e-05
0.000182501
-8.25881e-07
0.000165751
-3.93397e-05
0.000110934
-3.66038e-05
5.19117e-05
-2.73625e-05
3.9262e-05
-1.10763e-05
3.49644e-05
-1.81317e-06
2.93208e-05
6.03152e-07
2.84585e-05
3.68121e-05
2.40412e-06
3.65634e-05
6.55578e-06
2.69275e-05
1.402e-05
2.30988e-05
2.43964e-05
2.74512e-05
3.07355e-05
3.92008e-05
2.13522e-05
6.47276e-05
-1.91324e-05
0.000137278
-3.44078e-05
0.000186501
-3.56364e-05
0.000190706
-1.45571e-05
0.000144228
-1.01772e-06
0.000104225
1.26083e-06
8.84946e-05
5.39043e-07
7.99876e-05
4.64357e-07
7.65668e-05
4.91276e-07
7.5439e-05
7.85205e-07
7.56773e-05
5.63086e-07
7.69658e-05
7.68664e-07
8.11679e-05
5.05516e-06
9.02681e-05
2.34396e-05
0.000107382
3.97377e-05
0.000151081
3.70097e-05
0.000186838
2.08564e-05
0.000181192
-1.70352e-05
0.000137977
-3.24742e-05
6.58417e-05
-2.62422e-05
3.51047e-05
-1.64245e-05
2.44397e-05
-8.0969e-06
2.07299e-05
-2.36047e-06
2.28334e-05
3.32054e-05
4.53129e-06
3.11654e-05
7.92419e-06
2.29987e-05
1.7252e-05
1.53377e-05
2.84222e-05
1.9242e-05
3.09447e-05
3.56678e-05
-1.11303e-05
0.000103755
-1.66505e-05
0.000142094
-4.95167e-06
0.00017828
2.19825e-06
0.000188573
3.3318e-06
0.000153022
-2.09198e-06
0.000117642
-1.57245e-06
0.000100067
1.28567e-07
9.25291e-05
2.77534e-07
9.03347e-05
7.82244e-07
8.95944e-05
5.56573e-07
8.99031e-05
1.62504e-06
9.04084e-05
2.84327e-06
9.33508e-05
4.03159e-06
0.000100782
-9.79095e-07
0.000119953
-3.94446e-07
0.000157776
6.93206e-06
0.000183591
1.63995e-05
0.000174211
1.58193e-05
0.000141283
-3.48788e-05
0.000108736
-3.15801e-05
2.91534e-05
-2.22131e-05
1.65601e-05
-1.25028e-05
1.22518e-05
-4.10632e-06
1.48285e-05
2.66647e-05
7.58282e-06
2.48801e-05
5.88195e-06
2.48274e-05
2.01842e-05
7.2785e-06
3.46593e-05
1.04224e-05
2.81483e-05
4.1922e-05
-2.42881e-05
0.000133682
1.06392e-06
0.000125017
2.5789e-05
0.000156186
3.41224e-05
0.000170558
2.64884e-05
0.000145333
1.2525e-05
0.000120411
6.52246e-06
0.000100381
4.41602e-06
9.22918e-05
2.14266e-06
9.11068e-05
2.18685e-07
9.0172e-05
-2.13803e-06
9.08014e-05
-3.86706e-06
9.04299e-05
-7.09088e-06
9.35019e-05
-1.3186e-05
0.000100706
-2.80182e-05
0.000121593
-3.16141e-05
0.000147135
-2.25082e-05
0.000165941
3.23678e-06
0.000152002
1.91042e-05
0.00013069
-3.09368e-05
0.000137795
-3.77845e-05
3.5018e-05
-2.90283e-05
7.43615e-06
-1.63561e-05
3.50992e-06
-5.98842e-06
7.21702e-06
1.93947e-05
9.40855e-06
2.10555e-05
8.70089e-06
3.43733e-05
2.3757e-05
-4.28404e-06
3.83137e-05
-5.47329e-06
1.36329e-05
5.56242e-05
2.60719e-06
0.000133998
1.13106e-05
0.000114944
2.97164e-05
0.000132307
4.70482e-05
0.000141502
5.15056e-05
0.000128067
4.35374e-05
0.000113504
2.98679e-05
9.82811e-05
1.81031e-05
8.67063e-05
8.20734e-06
8.35216e-05
-1.17783e-07
8.04773e-05
-9.14957e-06
8.2143e-05
-1.90632e-05
8.2562e-05
-3.15185e-05
8.93224e-05
-4.51435e-05
9.85669e-05
-5.10695e-05
0.000114427
-4.41687e-05
0.000128369
-2.7976e-05
0.000140131
-9.93811e-06
0.000129826
-6.69956e-06
0.000124823
-1.33212e-05
0.000137855
-4.18008e-05
5.64644e-05
-3.45604e-05
-7.57402e-06
-1.78231e-05
-7.32473e-06
-1.21083e-05
3.04647e-06
1.27088e-05
4.77953e-06
1.68382e-05
8.46979e-06
3.117e-05
2.82292e-05
-1.15788e-05
4.23739e-05
-1.5227e-05
1.28355e-05
7.1631e-05
2.3571e-05
0.000121672
1.342e-05
0.000118038
1.86735e-05
0.000122614
3.47167e-05
0.000125732
4.26409e-05
0.000120175
4.37541e-05
0.000111944
3.68547e-05
0.000102207
2.48265e-05
9.43906e-05
1.24641e-05
9.03387e-05
-8.9551e-07
8.82998e-05
-1.33135e-05
8.88193e-05
-2.6426e-05
9.0729e-05
-3.69323e-05
9.56902e-05
-4.3581e-05
0.000103143
-4.19581e-05
0.00011259
-3.38746e-05
0.000120663
-1.91145e-05
0.000125368
-1.59939e-05
0.000123268
-1.96782e-05
0.000123152
-7.29438e-06
0.000124794
-4.70867e-05
8.07246e-05
-3.1912e-05
-1.20623e-05
-1.90223e-05
-1.95311e-05
-6.50104e-06
2.16067e-06
7.63255e-06
5.12073e-06
1.10291e-05
1.39055e-05
2.2705e-05
2.22896e-05
-1.54141e-05
2.82439e-05
-2.22265e-05
1.64499e-05
7.73875e-05
1.85032e-05
0.0001175
1.70139e-05
0.000119034
2.05162e-05
0.00011923
2.73316e-05
0.000118863
3.13248e-05
0.000116064
3.15085e-05
0.000111676
2.70084e-05
0.000106591
1.90398e-05
0.000102189
9.6788e-06
9.94894e-05
-4.98578e-07
9.82062e-05
-1.03347e-05
9.84211e-05
-1.97582e-05
9.99252e-05
-2.71916e-05
0.000102957
-3.14092e-05
0.000107246
-3.12262e-05
0.00011226
-2.71178e-05
0.000116467
-2.09664e-05
0.000119204
-1.74896e-05
0.000120017
-1.56057e-05
0.000121345
-1.12138e-05
0.000118661
-3.31874e-05
9.32878e-05
-3.35851e-05
-1.27049e-05
-1.10364e-05
-2.69144e-05
-5.7106e-06
-2.86104e-07
1.56798e-06
4.83468e-06
6.15516e-06
9.97323e-06
1.71113e-05
1.05897e-05
-1.63814e-05
1.53753e-05
-2.83462e-05
1.8926e-05
7.16675e-05
1.77682e-05
0.000116572
1.77286e-05
0.000118095
1.95428e-05
0.000116861
2.2027e-05
0.000116097
2.33142e-05
0.000114594
2.23521e-05
0.000112451
1.90278e-05
0.00010976
1.36027e-05
0.000107403
7.02524e-06
0.000105839
-1.70404e-07
0.000105151
-7.25112e-06
0.000105253
-1.3826e-05
0.000106272
-1.9063e-05
0.000108002
-2.24219e-05
0.000110405
-2.33466e-05
0.000113006
-2.23033e-05
0.000115171
-1.99263e-05
0.00011659
-1.80651e-05
0.000117691
-1.72459e-05
0.000119556
-1.75088e-05
0.000117005
-1.61797e-05
8.94052e-05
-2.05598e-05
-1.39448e-05
-8.84448e-06
-3.24958e-05
-5.95687e-06
-2.88884e-06
-4.03179e-06
2.40867e-06
3.61886e-06
3.65903e-06
1.52218e-05
3.43481e-06
-1.5582e-05
5.2203e-06
-3.08224e-05
1.91661e-05
5.81762e-05
1.70457e-05
0.000116827
1.6919e-05
0.000117194
1.73747e-05
0.000115769
1.80833e-05
0.000115094
1.78539e-05
0.000114548
1.6586e-05
0.000113513
1.38871e-05
0.000112216
1.00015e-05
0.000111047
5.22229e-06
0.000110346
1.01376e-07
0.000109994
-5.09236e-06
0.000110175
-9.81955e-06
0.000110746
-1.37641e-05
0.0001117
-1.65017e-05
0.000112924
-1.80165e-05
0.000114264
-1.83519e-05
0.000115216
-1.80193e-05
0.0001159
-1.79308e-05
0.000116905
-1.9329e-05
0.000119784
-2.22911e-05
0.000118382
-6.38625e-06
7.48736e-05
-6.65699e-06
-1.58043e-05
-6.93224e-06
-3.24477e-05
-3.88469e-06
-5.3417e-06
-7.79067e-06
3.61807e-07
2.88902e-06
5.64393e-07
1.42825e-05
-1.63296e-06
-1.35636e-05
-1.70018e-06
-3.08737e-05
1.84778e-05
4.04632e-05
1.55483e-05
0.000117837
1.52474e-05
0.000116439
1.51746e-05
0.000115297
1.49016e-05
0.000115013
1.42045e-05
0.000114956
1.28087e-05
0.000114629
1.06513e-05
0.000114106
7.63731e-06
0.000113765
4.13631e-06
0.000113554
2.79299e-07
0.000113556
-3.50775e-06
0.000113677
-7.12451e-06
0.000114077
-1.01644e-05
0.000114474
-1.2578e-05
0.000115058
-1.41787e-05
0.000115603
-1.52854e-05
0.000115991
-1.5883e-05
0.000116142
-1.66651e-05
0.000116984
-1.80529e-05
0.000119997
-2.09242e-05
0.000119577
6.7222e-07
5.63211e-05
1.43853e-07
-1.63578e-05
-3.14805e-06
-2.91097e-05
-1.71115e-06
-6.31557e-06
-9.4278e-06
-5.37465e-07
2.91206e-06
-1.4048e-06
1.37724e-05
-5.02251e-06
-1.06245e-05
-6.13612e-06
-2.94258e-05
1.46388e-05
2.24849e-05
1.35317e-05
0.000116808
1.3215e-05
0.000115647
1.29078e-05
0.000115074
1.24666e-05
0.000115075
1.16498e-05
0.000115442
1.04145e-05
0.000115562
8.53393e-06
0.000115658
6.20969e-06
0.000115778
3.45435e-06
0.000115986
5.41683e-07
0.000116157
-2.41789e-06
0.000116328
-5.17983e-06
0.000116542
-7.7064e-06
0.000116688
-9.71675e-06
0.000116776
-1.13711e-05
0.000116935
-1.25863e-05
0.000116869
-1.35521e-05
0.000116731
-1.42846e-05
0.000117109
-1.54786e-05
0.000119939
-1.63985e-05
0.000118644
4.34164e-06
3.77707e-05
4.54868e-06
-1.72794e-05
-4.22207e-07
-2.44739e-05
7.45494e-08
-6.49342e-06
-9.33212e-06
-8.07495e-07
3.1321e-06
-2.27074e-06
1.35134e-05
-6.68117e-06
-7.29147e-06
-8.99144e-06
-2.72425e-05
9.4736e-06
6.43047e-06
1.06867e-05
0.000113706
1.07155e-05
0.000114375
1.09813e-05
0.00011428
1.07024e-05
0.000114942
1.00162e-05
0.000115762
8.86196e-06
0.000116342
7.28456e-06
0.000116889
5.33937e-06
0.000117361
3.12807e-06
0.000117865
7.98435e-07
0.000118154
-1.556e-06
0.000118368
-3.81241e-06
0.000118469
-5.87866e-06
0.000118432
-7.71163e-06
0.000118266
-9.1621e-06
0.000118052
-1.04214e-05
0.000117734
-1.1228e-05
0.000117136
-1.15866e-05
0.000116896
-1.18587e-05
0.000118877
-1.12464e-05
0.000116101
6.23956e-06
2.1509e-05
7.60678e-06
-1.90468e-05
2.34132e-06
-1.96005e-05
1.47291e-06
-5.81681e-06
-7.92743e-06
-1.01863e-06
3.45788e-06
-2.9623e-06
1.33726e-05
-7.72249e-06
-3.98895e-06
-1.07324e-05
-2.47547e-05
4.65772e-06
-6.93309e-06
8.50071e-06
0.000108322
9.38984e-06
0.000112304
9.92226e-06
0.000113226
9.90263e-06
0.000114548
9.16398e-06
0.000116045
8.0822e-06
0.000117028
6.6179e-06
0.000117945
4.91517e-06
0.000118692
3.02737e-06
0.000119383
1.08559e-06
0.000119763
-8.81427e-07
0.000119996
-2.78692e-06
0.000120039
-4.59962e-06
0.00011988
-6.23387e-06
0.000119544
-7.648e-06
0.000119075
-8.80636e-06
0.000118479
-9.57201e-06
0.000117435
-9.55259e-06
0.0001163
-9.499e-06
0.000117364
-7.61948e-06
0.000112358
8.05289e-06
6.72325e-06
9.54548e-06
-2.07417e-05
4.47605e-06
-1.505e-05
2.27958e-06
-4.28189e-06
-5.83926e-06
-7.65701e-07
3.34136e-06
-3.6675e-06
1.32951e-05
-7.91395e-06
-1.43331e-06
-1.11462e-05
-2.22813e-05
4.29808e-07
-1.68132e-05
8.80443e-06
9.89985e-05
9.65192e-06
0.000110248
1.01844e-05
0.000112143
9.96218e-06
0.000114318
9.16044e-06
0.000116373
7.85698e-06
0.000117861
6.43838e-06
0.000118939
4.7653e-06
0.000119944
3.12072e-06
0.000120657
1.36035e-06
0.000121162
-3.11311e-07
0.000121322
-2.05289e-06
0.000121408
-3.65376e-06
0.000121111
-5.23878e-06
0.000120714
-6.67892e-06
0.000120114
-8.04232e-06
0.000119366
-9.12142e-06
0.00011805
-1.00224e-05
0.000116532
-1.0539e-05
0.000116425
-2.93204e-06
0.000103436
1.0391e-05
-5.79945e-06
1.08879e-05
-2.14613e-05
6.13057e-06
-1.09099e-05
2.71526e-06
-1.99218e-06
-3.42199e-06
-2.37533e-07
2.47274e-06
-3.86531e-06
1.2828e-05
-6.91639e-06
-3.52873e-07
-1.08079e-05
-1.98005e-05
-3.85286e-06
-2.24491e-05
1.43893e-05
8.2318e-05
1.24559e-05
0.000110964
1.18449e-05
0.000112128
1.09749e-05
0.000114717
9.64181e-06
0.000117169
8.14225e-06
0.000118866
6.48264e-06
0.000120124
4.88964e-06
0.000121106
3.23508e-06
0.000121904
1.70302e-06
0.000122328
1.00131e-07
0.000122547
-1.3855e-06
0.000122523
-2.9822e-06
0.000122286
-4.47706e-06
0.000121788
-6.10905e-06
0.000121278
-7.72051e-06
0.000120491
-9.5813e-06
0.00011938
-1.19041e-05
0.000118064
-1.47087e-05
0.000117711
2.60475e-06
8.75216e-05
1.23032e-05
-1.46707e-05
1.1813e-05
-2.12652e-05
7.2487e-06
-7.1118e-06
2.72787e-06
8.68813e-07
-1.10972e-06
-6.31555e-07
8.33261e-07
-2.99219e-06
9.97334e-06
-4.79345e-06
-5.68807e-07
-1.01641e-05
-1.6404e-05
-7.66541e-06
-2.39365e-05
2.28641e-05
5.71762e-05
1.82914e-05
0.000113885
1.48271e-05
0.000114826
1.25364e-05
0.00011647
1.05183e-05
0.000118655
8.51955e-06
0.000120304
6.72987e-06
0.000121425
4.99214e-06
0.000122376
3.44762e-06
0.000123036
1.92459e-06
0.000123452
5.3078e-07
0.000123561
-9.1036e-07
0.000123554
-2.31106e-06
0.000123263
-3.87514e-06
0.00012288
-5.47116e-06
0.000122395
-7.41708e-06
0.000121896
-9.87898e-06
0.000121299
-1.36618e-05
0.00012091
-1.88333e-05
0.000121083
7.85296e-06
6.53371e-05
1.32991e-05
-1.91949e-05
1.17839e-05
-2.02007e-05
7.53395e-06
-3.85486e-06
2.46127e-06
3.75925e-06
7.88235e-07
-1.3645e-06
1.73149e-06
3.57199e-07
2.8502e-06
-1.21379e-06
-1.41522e-06
-7.67838e-06
-1.26337e-05
-8.1592e-06
-2.30258e-05
2.68164e-05
2.87166e-05
2.20911e-05
0.000116499
1.7182e-05
0.000118931
1.37637e-05
0.000119292
1.11592e-05
0.000120684
8.84755e-06
0.000122034
6.80437e-06
0.000122924
5.10726e-06
0.000123605
3.51138e-06
0.000124183
2.1545e-06
0.000124411
8.08718e-07
0.000124498
-4.21756e-07
0.000124373
-1.76997e-06
0.000124143
-3.09628e-06
0.000123728
-4.68027e-06
0.000123427
-6.41131e-06
0.000123086
-8.72249e-06
0.000123034
-1.22749e-05
0.000123394
-1.71773e-05
0.00012371
1.04666e-05
4.22102e-05
1.35595e-05
-2.14221e-05
1.14608e-05
-1.87923e-05
7.82444e-06
-1.36708e-06
2.10665e-06
6.76042e-06
2.19693e-06
-6.73981e-07
2.11168e-06
2.33195e-06
-2.75061e-06
1.54804e-06
-4.89849e-06
-3.39607e-06
-1.08897e-05
-5.29502e-06
-2.20349e-05
2.26349e-05
5.14132e-06
2.31262e-05
0.000114505
1.7939e-05
0.000123153
1.40856e-05
0.00012245
1.12354e-05
0.00012295
8.74376e-06
0.000123892
6.73729e-06
0.000124387
4.95331e-06
0.000124871
3.52897e-06
0.000125165
2.19667e-06
0.000125308
1.06981e-06
0.000125213
-9.61761e-08
0.000125083
-1.1541e-06
0.000124734
-2.36009e-06
0.000124394
-3.53247e-06
0.000124039
-4.89466e-06
0.00012385
-6.33654e-06
0.000123942
-9.0132e-06
0.000124862
-1.17307e-05
0.000124146
1.05164e-05
2.29836e-05
1.24784e-05
-2.27033e-05
1.00177e-05
-1.72835e-05
7.47688e-06
-1.49707e-07
1.72612e-06
9.13333e-06
3.00453e-06
7.32757e-07
2.68041e-06
1.99516e-06
-5.12448e-06
3.01661e-06
-9.73299e-06
6.48885e-07
-1.26864e-05
-2.13141e-06
-2.08407e-05
1.43092e-05
-9.29612e-06
2.18249e-05
0.000106851
1.69546e-05
0.000126797
1.33421e-05
0.000125291
1.05078e-05
0.000125102
8.23613e-06
0.000125545
6.22121e-06
0.000125802
4.66841e-06
0.000125917
3.2709e-06
0.000126076
2.178e-06
0.000125971
1.0992e-06
0.000125831
2.1219e-07
0.000125515
-7.41789e-07
0.000125163
-1.54283e-06
0.000124657
-2.44423e-06
0.00012431
-2.99592e-06
0.000123814
-3.57673e-06
0.000123897
-4.49509e-06
0.000124534
-5.04224e-06
0.000122713
1.0062e-05
9.73221e-06
1.10139e-05
-2.32338e-05
8.15126e-06
-1.57113e-05
6.5857e-06
-1.25645e-07
1.74818e-06
1.00742e-05
3.43568e-06
1.70149e-06
2.80786e-06
2.94283e-06
-6.38316e-06
4.26627e-06
-1.25896e-05
3.19868e-06
-1.57833e-05
-2.2934e-07
-1.99569e-05
7.33881e-06
-1.58939e-05
1.93125e-05
9.56013e-05
1.5068e-05
0.000129386
1.17227e-05
0.00012778
9.27912e-06
0.000126857
7.12095e-06
0.000127029
5.49762e-06
0.000126849
4.02874e-06
0.000126829
2.92468e-06
0.000126703
1.8776e-06
0.000126531
1.07265e-06
0.000126178
2.45063e-07
0.000125831
-3.87641e-07
0.000125274
-1.04954e-06
0.000124714
-1.43003e-06
0.000124059
-1.54034e-06
0.00012327
-1.1067e-06
0.000122784
-8.99453e-07
0.000122931
-4.21588e-07
0.000120656
9.47705e-06
1.10663e-06
9.4991e-06
-2.29806e-05
6.11043e-06
-1.37951e-05
4.44923e-06
-2.76591e-07
2.77687e-06
8.47025e-06
4.4458e-06
1.92885e-06
1.41358e-06
4.86878e-06
-8.16035e-06
6.15421e-06
-1.45286e-05
5.58066e-06
-1.77636e-05
2.12048e-06
-1.97727e-05
4.01132e-06
-1.71799e-05
1.50944e-05
8.52859e-05
1.15055e-05
0.000131089
9.23552e-06
0.000129129
7.24317e-06
0.000128043
5.77327e-06
0.000127871
4.35703e-06
0.000127638
3.30136e-06
0.000127349
2.2826e-06
0.000127186
1.52438e-06
0.000126804
7.44867e-07
0.000126436
1.72771e-07
0.000125885
-4.21766e-07
0.000125275
-7.57674e-07
0.000124445
-1.0236e-06
0.000123618
-7.13023e-07
0.000122305
-2.57797e-07
0.00012147
4.38285e-07
0.000120787
2.68936e-06
0.000117072
9.10002e-06
-4.11435e-06
8.19216e-06
-2.19161e-05
4.40018e-06
-1.17357e-05
2.62489e-06
-5.20256e-07
2.81671e-06
5.03523e-06
5.46022e-06
2.28362e-06
-1.03695e-06
6.79963e-06
-1.13943e-05
8.59503e-06
-1.66539e-05
7.90893e-06
-1.87661e-05
4.55683e-06
-1.92426e-05
2.92356e-06
-1.47491e-05
8.83828e-06
7.92948e-05
7.24872e-06
0.00013067
5.9534e-06
0.000129295
5.01109e-06
0.000128262
3.98917e-06
0.000128199
3.19959e-06
0.000127818
2.31318e-06
0.000127633
1.63617e-06
0.000127321
9.05016e-07
0.000126976
3.49936e-07
0.000126459
-2.59278e-07
0.0001259
-6.22904e-07
0.00012504
-1.00746e-06
0.000124136
-1.01938e-06
0.000122935
-8.23465e-07
0.000121331
-1.6909e-07
0.000119873
6.85011e-07
0.000118319
4.62281e-06
0.000112059
8.86098e-06
-7.08604e-06
7.15102e-06
-2.01363e-05
3.42156e-06
-9.99402e-06
1.89502e-06
-1.60878e-06
1.48483e-06
2.34003e-06
5.39615e-06
3.35458e-06
-4.00558e-06
9.10632e-06
-1.36585e-05
1.11611e-05
-1.73926e-05
9.60693e-06
-1.90667e-05
6.98696e-06
-1.84843e-05
1.99587e-06
-8.43843e-06
1.23417e-06
7.87286e-05
2.1375e-06
0.0001277
2.55978e-06
0.000127594
2.52134e-06
0.000127505
2.36277e-06
0.00012769
1.93102e-06
0.000127553
1.51914e-06
0.000127433
7.75149e-07
0.000127441
3.62413e-07
0.000126808
-3.8223e-07
0.00012658
-8.09273e-07
0.000125713
-1.25394e-06
0.000124797
-1.47203e-06
0.000123638
-1.68483e-06
0.00012236
-1.58394e-06
0.000120382
-1.40101e-06
0.000118565
-7.60287e-07
0.000116068
6.02123e-06
0.000104856
8.69391e-06
-8.20949e-06
6.12026e-06
-1.76699e-05
2.57821e-06
-8.79823e-06
9.96823e-07
-2.98154e-06
4.51391e-07
7.5833e-07
4.99187e-06
7.16046e-06
-3.81015e-06
1.0894e-05
-1.04137e-05
1.18107e-05
-1.50623e-05
9.88318e-06
-1.81041e-05
8.21142e-06
-1.8354e-05
-5.85605e-07
1.45816e-06
-5.39946e-06
8.10745e-05
-1.95955e-06
0.00012236
-4.30065e-07
0.000124471
7.27815e-07
0.000125547
8.31993e-07
0.000126831
1.11365e-06
0.000126563
7.1914e-07
0.000127116
2.14806e-07
0.000127299
-3.9658e-07
0.000126739
-1.08174e-06
0.000126608
-1.73819e-06
0.000125656
-1.9649e-06
0.000124314
-2.37524e-06
0.000123227
-2.57796e-06
0.000121755
-3.056e-06
0.000119819
-3.29243e-06
0.000117611
-3.77632e-06
0.000114828
7.02684e-06
9.49464e-05
8.43656e-06
-7.60836e-06
4.92141e-06
-1.45965e-05
1.4743e-06
-8.1565e-06
1.57599e-07
-3.99716e-06
-7.74191e-08
-1.67233e-07
4.57076e-06
3.20444e-06
-1.53935e-06
6.04263e-06
-1.09143e-05
7.57346e-06
-1.45964e-05
6.37553e-06
-1.74676e-05
6.48465e-06
-1.3094e-05
-6.00741e-06
1.17924e-05
-8.4253e-06
8.02051e-05
-4.13179e-06
0.00011608
-1.65122e-06
0.00012035
3.50322e-08
0.000122953
-1.19567e-07
0.000126203
5.10312e-07
0.000125095
-3.83804e-07
0.000127273
-1.54045e-07
0.000126311
-1.28365e-06
0.000127155
-1.15972e-06
0.000125722
-2.62709e-06
0.000126375
-2.9188e-06
0.000123779
-3.17017e-06
0.000122624
-3.89354e-06
0.000121545
-4.43948e-06
0.000119226
-5.20801e-06
0.000116986
-6.25745e-06
0.000114041
7.19509e-06
8.31165e-05
7.82467e-06
-5.70702e-06
3.67011e-06
-1.15059e-05
4.5064e-07
-7.6979e-06
-4.00943e-07
-4.66228e-06
-3.036e-07
-8.33252e-07
4.15624e-06
-7.03877e-07
-9.48075e-07
3.77644e-07
-8.14004e-06
8.52034e-07
-1.43629e-05
1.93809e-06
-1.33441e-05
-1.56674e-06
-7.42721e-06
-9.50421e-06
1.60051e-05
-5.81767e-06
7.42543e-05
-2.99425e-06
0.000111278
-8.03557e-07
0.00011639
-3.62638e-07
0.000121524
4.57629e-07
0.00012442
-4.28854e-07
0.0001251
-2.77218e-07
0.000126243
-1.04044e-06
0.000126279
-1.126e-06
0.000126404
-2.0618e-06