/*--------------------------------*- C++ -*----------------------------------*\
| =========                 |                                                 |
| \\      /  F ield         | OpenFOAM: The Open Source CFD Toolbox           |
|  \\    /   O peration     | Version:  2.3.0                                 |
|   \\  /    A nd           | Web:      www.OpenFOAM.org                      |
|    \\/     M anipulation  |                                                 |
\*---------------------------------------------------------------------------*/
FoamFile
{
    version     2.0;
    format      ascii;
    class       volScalarField;
    location    "0.36";
    object      pMean;
}
// * * * * * * * * * * * * * * * * * * * * * * * * * * * * * * * * * * * * * //

dimensions      [1 -1 -2 0 0 0 0];

internalField   nonuniform List<scalar> 
6000
(
107044
107043
107041
107039
107037
107035
107034
107033
107033
107032
107030
107029
107027
107027
107027
107027
107027
107028
107030
107031
107033
107034
107034
107035
107036
107038
107041
107044
107046
107047
106979
106979
106978
106975
106972
106969
106967
106966
106966
106965
106964
106962
106961
106961
106961
106961
106961
106962
106963
106965
106966
106967
106967
106968
106971
106974
106977
106980
106981
106982
106928
106929
106927
106925
106922
106919
106917
106917
106917
106916
106915
106913
106913
106912
106912
106912
106913
106913
106914
106916
106917
106918
106918
106918
106920
106924
106927
106929
106931
106930
106875
106873
106871
106868
106866
106863
106862
106862
106863
106863
106863
106862
106862
106862
106862
106863
106863
106863
106863
106864
106864
106864
106863
106863
106865
106867
106870
106872
106874
106877
106819
106815
106812
106809
106807
106806
106805
106807
106808
106809
106809
106810
106811
106811
106811
106811
106811
106811
106810
106810
106810
106809
106807
106807
106807
106808
106811
106814
106817
106820
106762
106759
106755
106750
106747
106747
106749
106751
106753
106755
106756
106758
106759
106759
106760
106760
106760
106759
106758
106756
106756
106754
106752
106750
106749
106748
106752
106756
106761
106764
106709
106706
106701
106694
106691
106692
106695
106697
106699
106701
106703
106705
106707
106708
106708
106708
106708
106707
106705
106703
106701
106700
106698
106696
106693
106692
106696
106703
106709
106711
106660
106658
106651
106645
106642
106642
106644
106645
106645
106646
106649
106652
106654
106655
106656
106656
106655
106654
106652
106649
106646
106646
106646
106644
106642
106643
106646
106654
106660
106663
106613
106610
106604
106598
106596
106596
106596
106595
106594
106594
106597
106599
106601
106603
106603
106603
106602
106601
106599
106596
106594
106594
106596
106596
106595
106595
106599
106605
106612
106615
106564
106561
106555
106550
106549
106549
106548
106546
106544
106544
106546
106548
106550
106551
106552
106552
106551
106550
106548
106546
106544
106544
106546
106548
106549
106549
106551
106556
106562
106565
106513
106510
106506
106502
106500
106501
106499
106496
106495
106495
106497
106498
106500
106501
106501
106501
106501
106500
106498
106497
106495
106495
106497
106500
106501
106501
106502
106506
106511
106514
106461
106459
106456
106452
106450
106450
106448
106446
106445
106446
106447
106449
106450
106451
106451
106451
106451
106450
106449
106447
106446
106445
106446
106449
106451
106452
106453
106456
106460
106462
106409
106407
106405
106402
106399
106397
106396
106394
106395
106396
106397
106398
106399
106400
106400
106400
106400
106399
106398
106397
106396
106395
106395
106396
106399
106401
106403
106406
106408
106410
106356
106356
106354
106351
106348
106345
106344
106343
106344
106345
106347
106348
106348
106349
106349
106349
106349
106348
106348
106347
106345
106344
106343
106344
106346
106349
106352
106356
106358
106358
106304
106304
106303
106300
106296
106294
106293
106294
106294
106295
106296
106297
106297
106297
106297
106297
106297
106297
106297
106296
106295
106294
106293
106292
106293
106297
106301
106305
106307
106307
106252
106252
106252
106250
106246
106244
106244
106245
106245
106246
106246
106246
106246
106246
106246
106246
106246
106246
106246
106245
106245
106245
106244
106244
106243
106246
106250
106254
106256
106256
106201
106201
106202
106201
106198
106196
106197
106198
106197
106196
106196
106196
106196
106196
106196
106196
106196
106196
106196
106196
106196
106197
106197
106196
106195
106197
106201
106204
106205
106205
106151
106151
106153
106153
106150
106150
106151
106151
106150
106149
106148
106148
106147
106147
106147
106147
106147
106147
106148
106148
106149
106150
106150
106150
106149
106149
106152
106154
106154
106155
106103
106103
106106
106106
106105
106105
106105
106105
106104
106103
106103
106102
106101
106101
106101
106101
106101
106101
106102
106103
106104
106104
106105
106104
106104
106103
106105
106105
106105
106106
106055
106056
106059
106060
106059
106059
106059
106059
106059
106058
106058
106057
106057
106057
106057
106057
106057
106057
106058
106058
106059
106059
106059
106059
106059
106058
106058
106058
106057
106057
106007
106009
106012
106013
106014
106013
106013
106013
106013
106013
106013
106012
106012
106012
106012
106012
106012
106012
106013
106013
106013
106013
106013
106013
106013
106013
106013
106011
106009
106009
105958
105960
105962
105964
105966
105965
105966
105966
105966
105967
105967
105966
105966
105966
105966
105966
105966
105967
105967
105967
105967
105967
105967
105967
105967
105967
105967
105965
105962
105960
105909
105910
105911
105913
105916
105917
105918
105918
105919
105919
105920
105920
105920
105920
105920
105920
105920
105920
105920
105920
105920
105920
105919
105919
105919
105920
105918
105916
105914
105911
105859
105859
105860
105862
105865
105867
105868
105870
105871
105871
105872
105872
105872
105872
105872
105872
105872
105872
105872
105872
105872
105872
105871
105870
105870
105869
105867
105865
105864
105861
105808
105807
105808
105811
105815
105817
105819
105820
105822
105822
105823
105823
105824
105824
105824
105824
105824
105824
105824
105823
105823
105823
105822
105821
105819
105818
105815
105813
105812
105810
105757
105756
105757
105761
105764
105767
105769
105771
105772
105773
105774
105774
105774
105775
105775
105775
105775
105775
105774
105774
105774
105773
105772
105770
105769
105766
105763
105760
105758
105758
105707
105706
105707
105710
105714
105716
105718
105720
105722
105723
105724
105724
105724
105725
105725
105725
105725
105725
105724
105724
105723
105722
105721
105719
105717
105715
105711
105707
105705
105705
105657
105657
105657
105660
105663
105666
105668
105670
105671
105672
105673
105673
105674
105674
105674
105674
105674
105674
105673
105673
105672
105671
105670
105668
105666
105664
105659
105654
105652
105652
105607
105607
105608
105610
105613
105615
105617
105619
105620
105621
105622
105622
105622
105623
105623
105623
105623
105622
105622
105621
105621
105620
105618
105617
105615
105612
105607
105602
105600
105600
105555
105555
105557
105559
105562
105564
105566
105567
105568
105569
105570
105570
105570
105570
105571
105570
105570
105570
105570
105569
105569
105568
105566
105565
105564
105561
105556
105551
105549
105549
105503
105503
105505
105508
105511
105513
105514
105515
105516
105517
105517
105517
105518
105518
105518
105518
105517
105517
105517
105516
105516
105515
105514
105513
105512
105509
105504
105500
105498
105497
105450
105450
105452
105455
105459
105461
105462
105462
105463
105463
105464
105464
105464
105464
105464
105464
105464
105464
105463
105463
105462
105462
105461
105460
105459
105456
105451
105448
105445
105445
105396
105397
105399
105403
105406
105408
105409
105409
105409
105409
105410
105410
105410
105410
105410
105410
105410
105409
105409
105409
105408
105407
105407
105406
105405
105402
105398
105394
105392
105392
105341
105343
105346
105349
105352
105355
105355
105354
105354
105354
105355
105355
105355
105355
105355
105355
105354
105354
105354
105354
105353
105352
105352
105351
105350
105347
105343
105340
105338
105338
105285
105287
105291
105295
105298
105300
105300
105299
105299
105299
105299
105299
105299
105299
105299
105299
105299
105298
105298
105298
105297
105297
105296
105295
105294
105291
105287
105285
105283
105283
105227
105230
105234
105238
105241
105242
105243
105242
105242
105242
105242
105242
105242
105242
105242
105242
105242
105242
105241
105241
105241
105240
105239
105238
105237
105234
105231
105229
105228
105228
105167
105169
105174
105178
105181
105182
105183
105183
105183
105184
105184
105184
105184
105185
105185
105185
105185
105184
105184
105184
105183
105182
105181
105180
105179
105176
105174
105172
105171
105171
105105
105109
105113
105116
105117
105119
105121
105123
105124
105124
105125
105126
105126
105126
105126
105126
105126
105126
105126
105125
105125
105124
105123
105122
105120
105117
105115
105114
105113
105112
105044
105047
105050
105051
105052
105055
105058
105061
105063
105064
105065
105066
105067
105067
105067
105068
105067
105067
105067
105066
105065
105064
105063
105062
105060
105057
105055
105054
105054
105053
104983
104984
104985
104986
104988
104991
104995
104999
105002
105004
105005
105006
105007
105007
105008
105008
105008
105008
105007
105006
105005
105004
105003
105001
104999
104996
104994
104993
104993
104993
104920
104920
104921
104922
104924
104928
104933
104937
104940
104942
104944
104945
104946
104947
104947
104947
104947
104947
104947
104946
104945
104943
104942
104940
104937
104934
104932
104931
104931
104932
104857
104855
104856
104858
104862
104866
104871
104875
104878
104881
104883
104884
104885
104886
104886
104886
104886
104886
104885
104885
104883
104882
104880
104878
104875
104872
104870
104869
104869
104870
104793
104791
104792
104795
104800
104805
104810
104813
104816
104819
104821
104822
104823
104824
104824
104825
104824
104824
104824
104823
104821
104820
104818
104815
104813
104810
104807
104806
104806
104807
104730
104728
104730
104733
104739
104744
104749
104751
104754
104756
104758
104760
104761
104762
104762
104762
104762
104762
104761
104760
104759
104757
104755
104752
104750
104748
104745
104743
104743
104744
104667
104666
104668
104672
104677
104682
104686
104689
104691
104694
104695
104697
104698
104698
104699
104699
104699
104698
104698
104697
104695
104693
104691
104689
104687
104685
104682
104681
104680
104680
104605
104604
104607
104611
104615
104620
104623
104626
104628
104630
104632
104633
104634
104635
104635
104635
104635
104634
104634
104633
104631
104629
104627
104625
104623
104621
104620
104618
104617
104617
104542
104542
104544
104548
104552
104556
104559
104562
104564
104566
104567
104568
104569
104570
104570
104570
104570
104570
104569
104568
104566
104565
104563
104561
104560
104558
104557
104555
104554
104554
104478
104478
104481
104484
104488
104492
104495
104497
104499
104501
104502
104503
104504
104505
104505
104505
104505
104504
104504
104502
104501
104499
104498
104496
104495
104494
104493
104492
104491
104490
104413
104413
104416
104419
104423
104427
104430
104431
104433
104435
104436
104437
104438
104439
104439
104439
104439
104439
104438
104436
104435
104434
104432
104431
104431
104430
104429
104428
104426
104426
104348
104348
104350
104353
104357
104361
104364
104366
104367
104369
104370
104371
104372
104373
104373
104373
104373
104372
104371
104370
104369
104368
104367
104366
104365
104364
104364
104363
104361
104360
104281
104281
104283
104287
104290
104295
104298
104299
104301
104302
104304
104305
104306
104306
104306
104306
104306
104306
104305
104304
104303
104301
104300
104299
104298
104297
104297
104296
104295
104294
104213
104214
104216
104220
104223
104228
104231
104233
104234
104235
104237
104238
104239
104239
104239
104239
104239
104239
104238
104237
104236
104235
104234
104232
104231
104230
104229
104228
104227
104226
104145
104146
104148
104152
104155
104160
104164
104166
104167
104168
104170
104170
104171
104172
104172
104172
104172
104171
104171
104170
104169
104168
104167
104165
104163
104162
104161
104159
104158
104158
104077
104078
104080
104083
104087
104092
104096
104098
104099
104101
104102
104103
104104
104104
104104
104104
104104
104104
104103
104102
104102
104100
104099
104097
104095
104094
104092
104091
104089
104089
104010
104010
104012
104015
104019
104023
104027
104030
104031
104033
104034
104035
104035
104036
104036
104036
104036
104036
104035
104034
104034
104032
104031
104029
104027
104025
104024
104022
104020
104020
103943
103943
103944
103947
103950
103954
103958
103961
103963
103964
103965
103966
103967
103967
103968
103968
103967
103967
103967
103966
103965
103964
103962
103960
103958
103956
103955
103953
103952
103952
103876
103876
103877
103879
103881
103885
103889
103892
103894
103895
103896
103897
103898
103898
103898
103899
103898
103898
103898
103897
103896
103895
103893
103891
103890
103888
103886
103884
103884
103885
103810
103809
103810
103811
103813
103816
103820
103823
103824
103826
103827
103828
103828
103829
103829
103829
103829
103829
103828
103828
103827
103826
103824
103822
103821
103819
103817
103816
103816
103818
103743
103743
103744
103744
103745
103748
103751
103753
103755
103756
103758
103758
103759
103760
103760
103760
103760
103760
103759
103758
103758
103756
103755
103753
103752
103750
103749
103748
103749
103750
103677
103676
103677
103677
103677
103679
103682
103684
103686
103687
103688
103689
103690
103690
103691
103691
103691
103690
103690
103689
103688
103687
103686
103685
103684
103682
103682
103681
103682
103682
103610
103609
103610
103610
103610
103611
103613
103615
103617
103618
103619
103620
103620
103621
103621
103621
103621
103621
103620
103620
103619
103618
103617
103616
103615
103615
103614
103614
103614
103614
103543
103542
103542
103542
103542
103542
103544
103545
103547
103548
103549
103550
103551
103551
103552
103552
103552
103551
103551
103550
103550
103549
103548
103548
103547
103547
103547
103547
103546
103545
103475
103474
103474
103474
103474
103474
103475
103476
103478
103479
103480
103480
103481
103481
103482
103482
103482
103482
103481
103481
103480
103480
103479
103479
103479
103479
103479
103480
103478
103476
103406
103406
103406
103406
103405
103405
103406
103407
103408
103409
103410
103411
103411
103412
103412
103412
103412
103412
103412
103411
103411
103410
103410
103410
103410
103410
103410
103412
103409
103408
103337
103337
103337
103337
103337
103337
103337
103338
103339
103340
103340
103341
103341
103342
103342
103342
103342
103342
103342
103341
103341
103341
103341
103341
103341
103342
103341
103342
103340
103339
103267
103267
103267
103268
103269
103268
103269
103269
103270
103271
103271
103271
103272
103272
103272
103272
103272
103272
103272
103272
103272
103272
103272
103272
103272
103272
103272
103272
103270
103270
103197
103197
103198
103199
103200
103200
103200
103201
103202
103202
103202
103202
103202
103203
103203
103203
103203
103203
103203
103202
103202
103202
103202
103202
103202
103202
103201
103200
103199
103200
103128
103128
103129
103130
103131
103131
103132
103132
103133
103133
103133
103133
103133
103134
103134
103134
103134
103133
103133
103133
103133
103133
103133
103133
103132
103132
103131
103129
103129
103129
103059
103059
103060
103061
103062
103063
103063
103063
103064
103065
103065
103065
103065
103065
103065
103065
103065
103065
103064
103064
103064
103064
103064
103063
103063
103062
103061
103059
103058
103057
102990
102990
102991
102992
102994
102995
102995
102995
102995
102996
102996
102996
102996
102996
102996
102996
102996
102996
102996
102996
102995
102995
102995
102994
102994
102993
102992
102990
102988
102987
102922
102922
102923
102924
102926
102926
102926
102926
102927
102927
102927
102927
102927
102927
102927
102927
102927
102927
102927
102927
102927
102926
102926
102925
102925
102924
102923
102922
102919
102918
102855
102855
102856
102856
102857
102858
102858
102858
102858
102858
102859
102859
102859
102859
102859
102858
102858
102858
102858
102858
102858
102857
102857
102857
102856
102856
102855
102854
102852
102851
102789
102789
102789
102789
102789
102790
102790
102789
102789
102790
102790
102790
102790
102790
102790
102790
102790
102789
102789
102789
102789
102789
102788
102788
102788
102788
102787
102786
102784
102784
102723
102722
102722
102721
102721
102721
102721
102721
102721
102721
102721
102721
102721
102721
102721
102721
102721
102721
102720
102720
102720
102720
102719
102719
102719
102719
102718
102718
102716
102717
102656
102655
102654
102653
102653
102653
102653
102652
102652
102652
102652
102652
102652
102652
102652
102652
102652
102652
102652
102651
102651
102651
102650
102650
102650
102650
102649
102649
102648
102648
102587
102587
102585
102585
102584
102584
102584
102584
102584
102583
102584
102584
102584
102584
102584
102583
102583
102583
102583
102583
102582
102582
102581
102581
102581
102580
102580
102579
102579
102579
102518
102518
102517
102516
102515
102515
102515
102515
102515
102515
102515
102515
102515
102515
102515
102515
102514
102514
102514
102514
102513
102513
102512
102512
102511
102510
102510
102509
102509
102508
102447
102448
102447
102446
102446
102446
102446
102447
102447
102446
102446
102446
102446
102446
102446
102446
102446
102445
102445
102445
102444
102444
102443
102443
102442
102441
102440
102438
102438
102436
102376
102376
102376
102376
102376
102376
102377
102378
102378
102378
102378
102378
102377
102377
102377
102377
102377
102377
102376
102376
102375
102375
102374
102374
102373
102372
102370
102368
102367
102366
102305
102304
102304
102305
102306
102307
102308
102309
102309
102309
102309
102309
102309
102309
102309
102308
102308
102308
102307
102307
102307
102306
102305
102304
102303
102302
102300
102297
102296
102296
102234
102232
102232
102234
102236
102237
102238
102240
102240
102240
102240
102240
102240
102240
102240
102240
102239
102239
102239
102238
102238
102237
102236
102235
102234
102233
102230
102226
102225
102226
102162
102159
102160
102163
102166
102167
102169
102170
102171
102172
102172
102172
102172
102171
102171
102171
102171
102171
102170
102170
102169
102169
102168
102167
102165
102163
102159
102156
102154
102155
102089
102088
102089
102093
102096
102098
102100
102101
102102
102103
102103
102103
102103
102103
102103
102102
102102
102102
102102
102101
102101
102100
102099
102098
102096
102094
102090
102086
102083
102084
102017
102017
102020
102024
102027
102029
102031
102032
102033
102034
102034
102034
102034
102034
102034
102034
102034
102033
102033
102033
102032
102031
102031
102029
102027
102025
102021
102017
102013
102013
101946
101948
101952
101956
101958
101960
101962
101963
101964
101964
101965
101965
101965
101965
101965
101965
101965
101965
101964
101964
101964
101963
101962
101961
101959
101957
101953
101949
101945
101943
101877
101879
101884
101888
101890
101892
101893
101894
101895
101895
101896
101896
101896
101896
101896
101896
101896
101896
101896
101895
101895
101894
101893
101892
101891
101889
101885
101880
101877
101874
101808
101811
101815
101819
101822
101824
101825
101825
101826
101826
101827
101827
101827
101827
101827
101827
101827
101827
101827
101826
101826
101825
101825
101824
101823
101821
101816
101812
101809
101806
101738
101741
101745
101749
101754
101756
101757
101757
101757
101758
101758
101758
101758
101759
101759
101759
101759
101758
101758
101758
101757
101757
101756
101756
101755
101752
101747
101743
101740
101738
101669
101671
101675
101679
101684
101687
101688
101689
101689
101689
101690
101690
101690
101690
101690
101690
101690
101690
101690
101689
101689
101689
101688
101688
101686
101682
101677
101673
101671
101669
101599
101601
101604
101609
101614
101618
101620
101621
101621
101621
101621
101621
101621
101621
101621
101621
101621
101621
101621
101621
101621
101621
101620
101619
101617
101613
101608
101604
101602
101602
101531
101532
101534
101539
101544
101548
101551
101552
101553
101553
101553
101553
101553
101553
101553
101553
101553
101553
101553
101553
101553
101553
101552
101550
101548
101544
101539
101536
101535
101535
101464
101464
101466
101470
101475
101479
101481
101483
101484
101484
101484
101484
101484
101484
101484
101484
101484
101484
101484
101484
101484
101484
101483
101481
101479
101475
101472
101470
101468
101468
101398
101397
101399
101402
101405
101409
101412
101414
101415
101416
101416
101415
101415
101415
101415
101415
101415
101415
101416
101416
101416
101415
101414
101412
101410
101407
101405
101403
101401
101401
101331
101330
101332
101334
101337
101340
101343
101345
101346
101347
101347
101346
101346
101346
101346
101346
101346
101346
101347
101347
101347
101346
101345
101344
101342
101339
101337
101335
101334
101334
101263
101263
101264
101265
101268
101271
101273
101275
101276
101277
101277
101277
101277
101277
101277
101277
101277
101277
101278
101278
101278
101277
101276
101275
101273
101271
101269
101267
101266
101267
101196
101195
101195
101196
101199
101202
101204
101205
101206
101207
101208
101208
101207
101207
101207
101207
101207
101208
101208
101208
101208
101207
101206
101205
101204
101202
101199
101198
101198
101199
101127
101126
101126
101127
101129
101131
101133
101135
101136
101137
101138
101138
101138
101137
101137
101137
101138
101138
101138
101138
101137
101136
101136
101135
101133
101131
101129
101129
101129
101130
101057
101056
101055
101056
101058
101060
101063
101064
101065
101066
101067
101067
101067
101067
101067
101067
101067
101068
101068
101067
101066
101066
101065
101064
101062
101060
101058
101058
101058
101059
100987
100986
100985
100986
100988
100990
100993
100994
100995
100996
100997
100998
100998
100998
100998
100998
100998
100998
100998
100998
100997
100996
100995
100994
100992
100990
100988
100988
100988
100989
100923
100921
100921
100922
100924
100927
100930
100932
100933
100934
100935
100935
100936
100936
100936
100936
100936
100936
100936
100935
100935
100934
100933
100931
100928
100926
100924
100923
100924
100925
100867
100867
100867
100868
100871
100875
100878
100880
100882
100883
100884
100884
100885
100885
100885
100885
100885
100885
100885
100884
100883
100882
100881
100879
100876
100872
100870
100869
100869
100869
100817
100817
100818
100820
100824
100827
100831
100834
100836
100837
100838
100839
100839
100840
100840
100840
100840
100840
100839
100838
100838
100837
100835
100832
100828
100825
100822
100820
100819
100818
100771
100772
100774
100776
100779
100783
100788
100791
100794
100795
100796
100797
100797
100798
100798
100798
100798
100797
100797
100796
100795
100794
100792
100789
100784
100780
100777
100775
100774
100772
100728
100731
100732
100735
100738
100742
100747
100751
100754
100755
100756
100757
100758
100758
100758
100758
100758
100758
100757
100756
100755
100754
100752
100747
100743
100739
100736
100733
100732
100730
100689
100692
100694
100696
100699
100703
100708
100712
100715
100717
100719
100719
100720
100721
100721
100721
100721
100720
100720
100719
100718
100716
100713
100708
100703
100699
100697
100695
100693
100690
100653
100655
100658
100660
100662
100666
100670
100675
100679
100681
100683
100684
100684
100685
100685
100685
100685
100684
100684
100683
100682
100679
100676
100671
100666
100663
100660
100658
100656
100653
100618
100621
100624
100626
100628
100631
100635
100640
100644
100646
100648
100649
100650
100650
100650
100650
100650
100650
100649
100648
100647
100644
100640
100635
100631
100629
100627
100625
100621
100619
100587
100589
100593
100594
100596
100598
100601
100606
100610
100613
100614
100615
100616
100617
100617
100617
100617
100616
100616
100615
100613
100610
100606
100602
100599
100597
100595
100594
100590
100587
100559
100560
100564
100565
100565
100567
100569
100573
100577
100579
100581
100582
100583
100584
100584
100584
100584
100583
100583
100582
100580
100577
100574
100570
100568
100566
100566
100565
100561
100559
100534
100534
100536
100537
100537
100537
100539
100541
100544
100547
100549
100550
100551
100551
100551
100551
100551
100551
100550
100549
100547
100545
100542
100540
100538
100538
100538
100537
100534
100534
100510
100509
100510
100509
100509
100509
100510
100511
100514
100515
100517
100518
100519
100519
100519
100519
100519
100519
100518
100517
100516
100514
100512
100510
100510
100510
100511
100510
100510
100511
100486
100485
100484
100484
100483
100482
100482
100483
100484
100485
100486
100487
100487
100488
100488
100488
100488
100487
100487
100486
100486
100485
100483
100483
100483
100484
100485
100485
100486
100487
100462
100460
100459
100458
100458
100456
100455
100455
100455
100456
100456
100457
100457
100457
100457
100457
100457
100457
100457
100457
100456
100456
100456
100456
100457
100459
100460
100460
100461
100463
100437
100435
100434
100433
100433
100431
100430
100428
100428
100428
100428
100428
100428
100428
100428
100428
100428
100428
100428
100428
100428
100429
100429
100430
100432
100433
100434
100435
100436
100437
100411
100410
100409
100408
100407
100406
100404
100402
100401
100400
100400
100400
100399
100399
100399
100400
100400
100400
100400
100400
100401
100402
100403
100405
100406
100408
100409
100410
100410
100411
100382
100382
100381
100381
100380
100379
100377
100375
100374
100373
100373
100372
100372
100372
100372
100372
100372
100372
100373
100373
100374
100375
100376
100378
100379
100381
100382
100382
100383
100383
100349
100350
100350
100350
100350
100349
100348
100346
100345
100345
100344
100344
100344
100344
100344
100344
100344
100344
100344
100345
100345
100346
100347
100348
100350
100351
100351
100351
100351
100350
100312
100313
100315
100316
100316
100316
100315
100314
100314
100313
100313
100313
100313
100313
100313
100313
100313
100313
100313
100313
100314
100314
100315
100316
100317
100317
100317
100316
100314
100312
100271
100273
100277
100279
100279
100280
100280
100280
100280
100280
100280
100280
100280
100280
100280
100280
100280
100280
100280
100280
100280
100280
100280
100280
100280
100280
100279
100276
100273
100271
100231
100232
100235
100239
100240
100241
100242
100243
100243
100244
100244
100244
100245
100245
100245
100245
100245
100244
100244
100244
100243
100243
100242
100242
100241
100240
100238
100235
100231
100231
100191
100191
100194
100198
100200
100201
100203
100204
100205
100206
100207
100207
100208
100208
100208
100208
100208
100207
100207
100206
100205
100204
100204
100202
100201
100199
100197
100193
100190
100191
100154
100154
100155
100159
100162
100163
100165
100166
100167
100168
100169
100169
100170
100170
100171
100171
100170
100170
100169
100168
100167
100166
100165
100164
100162
100161
100158
100154
100153
100153
100121
100121
100122
100125
100128
100129
100130
100130
100131
100132
100132
100133
100133
100134
100134
100134
100134
100133
100133
100132
100132
100131
100130
100129
100128
100127
100124
100121
100119
100120
100093
100092
100094
100096
100099
100099
100099
100099
100099
100099
100099
100099
100099
100099
100099
100099
100099
100099
100099
100099
100100
100100
100099
100099
100099
100098
100095
100093
100091
100091
100070
100069
100071
100072
100074
100074
100074
100073
100073
100072
100072
100071
100071
100071
100070
100071
100071
100071
100071
100072
100072
100073
100073
100073
100074
100073
100071
100070
100068
100069
100051
100051
100052
100052
100053
100053
100052
100051
100051
100050
100049
100048
100048
100047
100047
100047
100047
100048
100048
100049
100050
100050
100051
100052
100052
100053
100052
100051
100050
100051
100037
100036
100036
100036
100035
100035
100034
100033
100032
100031
100030
100029
100028
100028
100028
100028
100028
100028
100029
100030
100031
100032
100033
100034
100035
100035
100036
100036
100036
100037
100025
100023
100023
100022
100021
100020
100019
100018
100017
100016
100015
100015
100014
100014
100014
100014
100014
100014
100015
100015
100016
100017
100018
100019
100020
100021
100022
100023
100024
100026
100014
100013
100012
100011
100010
100010
100010
100009
100008
100008
100007
100007
100007
100006
100006
100006
100006
100006
100007
100007
100007
100008
100008
100009
100010
100011
100012
100013
100014
100016
100007
100006
100006
100005
100005
100005
100005
100004
100004
100004
100004
100004
100004
100004
100004
100004
100004
100004
100004
100004
100004
100004
100004
100004
100005
100005
100005
100006
100007
100008
100004
100004
100004
100004
100003
100003
100003
100003
100003
100003
100003
100003
100003
100003
100003
100003
100003
100003
100003
100003
100003
100003
100003
100003
100003
100003
100004
100004
100004
100004
100003
100003
100003
100003
100003
100003
100003
100003
100003
100003
100003
100003
100003
100003
100003
100003
100003
100003
100003
100003
100003
100003
100003
100003
100003
100003
100003
100003
100003
100003
100003
100003
100003
100003
100003
100003
100003
100003
100003
100003
100003
100003
100003
100003
100003
100003
100003
100003
100003
100003
100003
100003
100003
100003
100003
100003
100003
100003
100003
100003
100003
100003
100003
100003
100003
100003
100003
100003
100003
100003
100003
100003
100003
100003
100003
100003
100003
100003
100003
100003
100003
100003
100003
100003
100003
100003
100003
100003
100003
100003
100003
100003
100003
100003
100003
100003
100003
100003
100003
100003
100003
100003
100003
100003
100003
100003
100003
100003
100003
100003
100003
100003
100003
100003
100003
100003
100003
100003
100003
100003
100003
100003
100003
100003
100003
100003
100003
100003
100003
100003
100003
100003
100003
100003
100003
100003
100003
100003
100003
100003
100003
100003
100003
100003
100003
100003
100003
100003
100003
100003
100003
100003
100003
100003
100003
100003
100003
100003
100003
100003
100003
100003
100003
100003
100003
100003
100003
100003
100003
100003
100003
100003
100003
100003
100003
100003
100003
100003
100003
100003
100003
100003
100003
100003
100003
100003
100003
100003
100003
100003
100003
100003
100003
100003
100003
100003
100003
100003
100003
100003
100003
100003
100003
100003
100003
100003
100003
100003
100003
100003
100003
100003
100003
100003
100003
100003
100003
100003
100003
100003
100003
100003
100003
100003
100003
100003
100003
100003
100003
100003
100003
100003