/*--------------------------------*- C++ -*----------------------------------*\
| =========                 |                                                 |
| \\      /  F ield         | OpenFOAM: The Open Source CFD Toolbox           |
|  \\    /   O peration     | Version:  2.3.0                                 |
|   \\  /    A nd           | Web:      www.OpenFOAM.org                      |
|    \\/     M anipulation  |                                                 |
\*---------------------------------------------------------------------------*/
FoamFile
{
    version     2.0;
    format      ascii;
    class       volScalarField;
    location    "0.36";
    object      Theta.particles;
}
// * * * * * * * * * * * * * * * * * * * * * * * * * * * * * * * * * * * * * //

dimensions      [0 2 -2 0 0 0 0];

internalField   nonuniform List<scalar> 
6000
(
0.000664593
0.000674192
0.00093224
0.00133748
0.00157102
0.00234409
0.00286047
0.00112862
0.000517285
0.000392014
0.000344388
0.000374835
0.000829494
0.00200868
0.0033113
0.00288834
0.00149473
0.000593408
0.000339647
0.000351502
0.000413178
0.000553577
0.00134591
0.00300426
0.00248829
0.00129869
0.000991768
0.000864218
0.000655206
0.000622046
1.03976e-05
9.23383e-06
1.01916e-05
1.08271e-05
1.24506e-05
2.31035e-05
4.7413e-05
5.49573e-05
3.49715e-05
2.50548e-05
2.39518e-05
2.943e-05
5.84155e-05
8.9044e-05
0.000100204
9.98136e-05
8.06523e-05
4.85229e-05
2.72879e-05
2.44422e-05
2.6397e-05
3.88981e-05
5.75075e-05
4.40159e-05
2.09597e-05
8.80065e-06
6.18849e-06
7.76571e-06
9.09699e-06
9.69863e-06
0.000168991
5.75379e-05
7.53332e-05
3.35207e-05
3.34588e-05
2.55532e-05
7.57256e-06
1.61069e-05
4.69718e-05
4.14401e-05
4.91318e-05
0.000154371
0.000272096
7.9167e-05
1.78089e-05
3.46978e-05
0.000154726
0.000271503
9.57508e-05
4.0294e-05
4.27323e-05
5.3921e-05
1.4738e-05
7.34851e-06
2.39336e-05
4.97087e-05
4.66947e-05
6.94326e-05
5.5997e-05
0.000174952
0.000101064
2.57441e-06
3.82039e-06
3.56985e-06
1.48139e-06
3.89949e-06
1.62155e-05
7.52403e-06
3.67187e-06
6.73121e-06
4.01214e-05
0.000120543
7.02066e-05
1.39066e-05
4.71332e-06
7.58001e-06
3.1659e-05
0.000119188
8.94209e-05
2.14765e-05
4.3167e-06
5.53369e-06
1.05797e-05
1.73609e-05
4.82889e-06
1.99259e-06
2.56636e-06
2.72054e-06
2.53875e-06
0.000103768
8.03838e-05
1.52649e-06
2.03424e-06
1.58714e-06
5.05146e-07
1.28265e-06
4.98436e-06
3.51742e-06
5.40507e-07
1.80797e-05
8.71708e-05
8.24482e-05
8.96642e-06
1.00278e-06
4.17541e-07
5.59702e-07
1.93531e-06
2.4219e-05
0.000121266
6.48131e-05
7.04859e-06
9.19641e-07
4.42322e-06
5.25952e-06
1.20834e-06
6.63298e-07
1.16084e-06
1.68307e-06
1.64767e-06
8.24628e-05
5.89511e-05
1.74469e-06
1.55427e-06
1.01868e-06
3.35418e-07
1.0977e-06
3.35364e-06
2.63733e-06
5.75648e-07
3.62429e-05
0.000118687
3.08329e-05
1.34894e-06
4.28533e-07
2.42589e-07
2.64828e-07
5.7813e-07
4.73222e-06
7.93181e-05
9.63634e-05
1.43614e-05
5.72005e-07
3.92028e-06
3.47572e-06
9.74054e-07
5.46226e-07
1.01615e-06
1.2391e-06
1.81587e-06
6.87851e-05
5.09025e-05
3.02304e-06
1.31795e-06
8.58208e-07
6.31546e-07
1.2997e-06
4.22151e-06
2.7233e-06
6.08148e-06
8.52296e-05
9.59859e-05
9.56299e-06
8.41521e-07
3.42697e-07
1.92685e-07
2.20232e-07
4.6216e-07
1.18742e-06
2.57677e-05
0.000132673
5.90843e-05
1.62841e-06
3.95492e-06
3.97261e-06
1.26718e-06
8.43731e-07
1.11029e-06
1.17891e-06
3.1343e-06
6.29452e-05
3.53257e-05
3.57498e-06
1.46997e-06
1.25139e-06
1.30066e-06
2.49128e-06
8.35397e-06
3.42411e-06
5.2382e-05
0.000129033
2.99077e-05
1.9553e-06
8.01791e-07
4.49958e-07
3.20502e-07
3.45976e-07
5.27227e-07
9.87926e-07
4.61028e-06
8.39237e-05
0.000138827
2.00032e-05
4.21583e-06
6.8373e-06
1.73419e-06
9.81724e-07
1.30111e-06
1.41886e-06
4.31962e-06
4.32533e-05
2.47884e-05
3.47055e-06
1.90084e-06
1.20963e-06
1.10291e-06
1.39945e-05
1.26821e-05
8.17165e-06
7.35687e-05
7.81465e-05
4.23214e-06
1.25898e-06
7.9104e-07
6.82908e-07
6.10646e-07
6.11203e-07
7.07153e-07
8.80852e-07
1.16187e-06
1.55588e-05
0.000119045
5.15569e-05
9.45381e-06
1.50929e-05
8.71122e-06
1.3215e-06
1.35909e-06
1.78616e-06
5.17038e-06
2.76991e-05
1.48567e-05
3.03729e-06
2.63423e-06
1.03548e-06
4.18327e-06
1.87085e-05
2.82796e-05
1.94279e-05
9.02543e-05
3.34974e-05
1.13659e-06
1.20624e-06
1.02568e-06
9.81112e-07
9.52317e-07
9.59017e-07
9.79679e-07
1.0139e-06
1.23299e-06
2.17841e-06
7.32604e-05
6.85394e-05
2.0392e-05
3.14398e-05
1.40922e-05
4.4797e-06
1.18772e-06
3.10582e-06
5.2195e-06
1.28037e-05
8.60935e-06
3.17061e-06
3.38094e-06
2.27168e-06
1.0134e-05
1.89893e-05
1.49861e-05
2.2921e-06
0.000141815
0.000130137
2.1354e-06
1.5683e-06
1.52418e-06
1.47319e-06
1.47942e-06
1.47079e-06
1.48702e-06
1.52576e-06
1.74057e-06
4.65073e-05
0.000188143
1.34607e-05
8.4942e-06
1.87479e-05
2.03559e-05
9.35535e-06
2.60636e-06
4.45181e-06
5.26818e-06
4.92112e-06
4.14271e-06
2.44298e-06
3.15481e-06
3.19976e-06
1.11555e-05
2.23831e-05
2.24473e-05
4.73878e-06
0.000131827
0.000263469
5.35372e-06
2.22774e-06
2.12241e-06
2.11627e-06
2.14022e-06
2.15086e-06
2.13125e-06
2.18885e-06
2.49553e-06
0.000104374
0.000277779
1.51168e-05
6.94134e-06
3.79812e-05
2.69053e-05
1.22408e-05
3.78646e-06
5.27408e-06
4.27896e-06
2.01522e-06
2.85286e-06
1.69182e-06
2.62173e-06
4.06596e-06
1.34458e-05
2.15124e-05
5.7559e-06
7.05384e-06
0.000301437
0.00028931
3.82543e-06
2.63473e-06
2.48917e-06
2.53224e-06
2.57604e-06
2.57447e-06
2.54474e-06
2.55133e-06
3.00174e-06
2.9963e-05
0.000389722
5.09824e-05
1.36968e-05
9.99901e-06
1.97008e-05
1.3546e-05
5.04795e-06
5.2645e-06
2.51575e-06
1.63533e-06
5.11719e-06
1.45564e-06
3.78076e-06
7.71039e-06
1.40412e-05
1.20906e-05
1.5743e-05
5.14848e-05
0.000368199
5.40359e-05
4.15282e-06
2.56013e-06
2.21967e-06
2.09695e-06
1.97813e-06
1.9847e-06
2.09861e-06
2.25592e-06
2.79002e-06
3.9945e-06
0.000169114
0.000353
1.8045e-05
1.62599e-05
6.82612e-06
1.13042e-05
7.10705e-06
6.17783e-06
2.06199e-06
2.47661e-06
7.05968e-06
2.99991e-06
7.4291e-06
1.07469e-05
1.14634e-05
1.02732e-05
2.00015e-05
0.000242055
0.000148539
5.96872e-06
3.48349e-06
1.79109e-06
9.73952e-07
6.53817e-07
5.24384e-07
5.29231e-07
6.6019e-07
1.03829e-06
1.97743e-06
4.23587e-06
5.6109e-06
0.000169335
0.000199634
2.08699e-05
9.03182e-06
7.594e-06
8.98654e-06
1.24986e-05
3.62279e-06
4.6152e-06
9.15832e-06
5.59202e-06
5.27624e-06
5.28727e-06
4.38925e-06
9.39366e-06
0.000229462
0.000136479
2.74348e-06
5.79802e-06
2.03674e-06
3.91204e-07
2.2427e-08
3.13552e-07
1.51628e-06
1.18504e-06
6.84017e-08
6.38849e-08
6.10312e-07
2.61442e-06
5.14762e-06
4.90021e-06
0.000142051
0.000149183
8.64593e-06
3.59989e-06
4.3933e-06
6.94941e-06
6.54091e-06
9.05124e-06
1.63349e-05
6.42093e-06
2.43399e-06
1.64624e-06
6.47117e-06
4.44047e-05
0.000136314
6.79333e-05
1.50067e-05
4.68091e-05
9.63203e-06
1.70234e-05
2.32688e-05
2.89543e-05
2.72038e-05
2.92609e-05
2.55724e-05
2.41796e-05
1.26932e-05
1.23124e-05
6.24456e-05
1.00901e-05
5.10793e-05
0.000133504
0.000116489
1.11294e-05
1.16465e-06
2.64881e-06
6.85691e-06
1.27531e-05
2.10772e-05
5.47677e-06
6.37497e-06
1.13023e-05
1.2084e-05
0.00071316
0.000125831
6.99846e-05
0.000604724
0.00125575
0.000613943
0.000381448
0.00031505
0.000251473
0.000256723
0.000241741
0.000286273
0.000316971
0.000439984
0.000771094
0.00127088
0.000507414
3.69861e-05
0.000210926
0.000870402
1.51893e-05
5.35902e-06
5.81224e-06
8.95526e-06
1.69626e-05
8.24517e-05
6.54048e-05
4.48893e-05
4.77829e-05
0.000399219
0.0011653
0.00124295
0.00144723
0.00214715
0.00197878
0.00207666
0.0015001
0.00122827
0.00108935
0.00101402
0.00104185
0.00112264
0.00130926
0.0016321
0.00216605
0.00191488
0.00201419
0.00123542
0.00136742
0.001115
0.000297749
6.75998e-06
2.00882e-05
2.10621e-05
5.87297e-05
0.000597044
0.000826062
4.06274e-05
0.000141832
0.00084547
0.000411881
0.00264708
0.00306937
0.00136156
0.000452765
0.000620182
0.000883122
0.000875973
0.000917133
0.000874216
0.000901592
0.000855444
0.000900951
0.000784901
0.000504028
0.000451912
0.00165161
0.00309796
0.00265216
0.000444183
0.000836459
9.49363e-06
4.07611e-05
3.11947e-05
0.000474274
0.00067885
0.000199232
0.000463516
0.000834145
6.99824e-05
5.12793e-06
0.000892392
0.000630515
8.47448e-05
7.93339e-06
3.39161e-06
6.09746e-06
8.12191e-06
7.09797e-06
8.56945e-06
6.79908e-06
7.07679e-06
5.70456e-06
4.43558e-06
2.64145e-06
1.05394e-05
0.000143514
0.000861325
0.00080141
6.12732e-06
0.000327655
0.0011081
2.79917e-05
0.000498228
0.000493625
0.000391023
1.23279e-05
0.000236706
0.000101286
9.5814e-06
2.18479e-06
1.6612e-06
4.58124e-06
5.36574e-07
5.19474e-07
1.25531e-06
1.84114e-06
1.83716e-06
1.66291e-06
1.58718e-06
1.61334e-06
1.80651e-06
1.85167e-06
1.66951e-06
9.03538e-07
3.25525e-07
8.8906e-07
1.30494e-05
4.2836e-06
2.51592e-06
5.5703e-06
0.000591229
0.000524071
0.000178056
0.000418596
0.000380593
9.5469e-06
6.98725e-06
6.01741e-06
1.534e-05
1.91874e-06
1.36658e-06
4.66535e-07
2.00305e-07
4.19718e-07
7.82858e-07
9.71451e-07
1.00302e-06
9.90277e-07
9.85406e-07
1.02464e-06
1.10151e-06
1.11293e-06
9.63732e-07
6.67071e-07
2.83129e-07
1.41504e-07
3.75184e-07
1.15523e-06
2.15706e-06
1.20177e-05
5.39277e-06
0.000197224
1.93768e-05
0.000419152
0.000362053
8.61276e-06
7.64735e-06
5.53223e-06
1.99968e-05
1.4619e-06
1.67826e-06
4.77319e-07
2.27952e-07
4.07255e-07
4.91174e-07
5.48664e-07
5.90814e-07
6.07261e-07
6.17336e-07
6.49864e-07
6.98981e-07
7.02173e-07
6.53728e-07
5.28401e-07
3.54767e-07
2.07981e-07
6.66915e-07
1.96858e-06
1.49783e-06
1.58634e-05
4.76842e-06
7.91876e-06
1.67312e-05
0.000406376
0.000337686
7.3958e-06
6.45387e-06
5.10731e-06
2.37119e-05
1.89188e-06
1.64286e-06
3.29898e-07
2.30833e-07
3.11778e-07
3.31119e-07
3.59883e-07
4.03881e-07
4.33632e-07
4.34176e-07
4.65762e-07
4.89157e-07
5.05702e-07
4.87713e-07
4.37442e-07
3.55946e-07
2.45897e-07
5.18846e-07
2.05865e-06
1.61526e-06
1.89155e-05
3.52205e-06
7.24958e-06
1.54554e-05
0.000392735
0.000308232
5.4043e-06
5.87563e-06
3.98656e-06
2.72735e-05
2.14822e-06
1.39643e-06
2.35117e-07
2.08321e-07
2.22053e-07
2.4305e-07
2.79812e-07
3.13307e-07
3.47095e-07
3.59528e-07
3.65909e-07
3.75016e-07
4.02934e-07
3.79287e-07
3.681e-07
3.29381e-07
2.5428e-07
3.73978e-07
1.81359e-06
2.83331e-06
1.83842e-05
1.6973e-06
7.25463e-06
1.39671e-05
0.000375064
0.000272253
4.92388e-06
6.59346e-06
2.59403e-06
2.43476e-05
3.27283e-06
1.18458e-06
2.06443e-07
1.60868e-07
1.89219e-07
2.14933e-07
2.39982e-07
2.88555e-07
2.98447e-07
3.13006e-07
3.01565e-07
3.2903e-07
3.25887e-07
3.27399e-07
3.05492e-07
2.84363e-07
2.53082e-07
2.9764e-07
1.55592e-06
3.74174e-06
1.50476e-05
9.55412e-07
6.54244e-06
1.10502e-05
0.000350617
0.000241813
4.62066e-06
5.90569e-06
2.3468e-06
1.91956e-05
5.21072e-06
9.49629e-07
1.77156e-07
1.49533e-07
1.96753e-07
2.09415e-07
2.58855e-07
2.77156e-07
2.95027e-07
2.72448e-07
2.86412e-07
3.02174e-07
3.07538e-07
2.99668e-07
2.94956e-07
2.6781e-07
2.55485e-07
2.96479e-07
1.39794e-06
5.56506e-06
1.16821e-05
7.41025e-07
5.90413e-06
8.36473e-06
0.000314151
0.000202728
4.94995e-06
5.5731e-06
2.36266e-06
1.63375e-05
8.77564e-06
8.51347e-07
1.76304e-07
1.78477e-07
2.23542e-07
2.57036e-07
2.79551e-07
3.10764e-07
2.85106e-07
2.84953e-07
2.87496e-07
2.95586e-07
3.02474e-07
3.12033e-07
2.95828e-07
2.87006e-07
2.79245e-07
3.58009e-07
1.30371e-06
7.19959e-06
9.82097e-06
8.91618e-07
5.46735e-06
6.69345e-06
0.000276233
0.000156817
6.47712e-06
5.56523e-06
2.52623e-06
1.24398e-05
1.5189e-05
1.00358e-06
2.31759e-07
2.37563e-07
3.08491e-07
3.08172e-07
3.32292e-07
3.29097e-07
3.15582e-07
3.02257e-07
3.00468e-07
2.87218e-07
3.14571e-07
3.11328e-07
3.19118e-07
3.14315e-07
3.37219e-07
4.75959e-07
1.19395e-06
1.04542e-05
8.14281e-06
9.93779e-07
5.19493e-06
5.50626e-06
0.000232443
0.000100591
1.02074e-05
6.51482e-06
2.67202e-06
7.20003e-06
2.18963e-05
1.29018e-06
3.73852e-07
3.54839e-07
3.97169e-07
3.8507e-07
3.84381e-07
3.66341e-07
3.54663e-07
3.27298e-07
3.02857e-07
3.08279e-07
3.13999e-07
3.28612e-07
3.30968e-07
3.42746e-07
3.79333e-07
6.19933e-07
1.05895e-06
1.28602e-05
6.20387e-06
1.49047e-06
5.04526e-06
4.77488e-06
0.000190666
4.81108e-05
1.67718e-05
9.40134e-06
2.47995e-06
3.58129e-06
2.32425e-05
1.65056e-06
5.11116e-07
4.14644e-07
5.08726e-07
4.86912e-07
4.4563e-07
4.24729e-07
3.85855e-07
3.53266e-07
3.28502e-07
3.22809e-07
3.33105e-07
3.36755e-07
3.50552e-07
3.35671e-07
3.91385e-07
7.55105e-07
9.56327e-07
1.51244e-05
4.74991e-06
1.91196e-06
5.37094e-06
4.69253e-06
0.000150491
1.00575e-05
1.48339e-05
1.34411e-05
3.87365e-06
1.19817e-06
1.87993e-05
5.32984e-06
5.39102e-07
4.77016e-07
6.27076e-07
5.80174e-07
5.07464e-07
4.68319e-07
4.17664e-07
3.81582e-07
3.61315e-07
3.45463e-07
3.41619e-07
3.55229e-07
3.56718e-07
3.42238e-07
3.46355e-07
9.06816e-07
1.11045e-06
1.7686e-05
4.17362e-06
2.24554e-06
5.5546e-06
5.00568e-06
0.000110626
1.22705e-05
7.31639e-06
1.18112e-05
6.76633e-06
9.84077e-07
1.2338e-05
8.11292e-06
8.89149e-07
5.95957e-07
7.49868e-07
6.72447e-07
5.6486e-07
5.02411e-07
4.48651e-07
4.08887e-07
3.86899e-07
3.61608e-07
3.64358e-07
3.63338e-07
3.82579e-07
3.48205e-07
3.21351e-07
9.97553e-07
1.40806e-06
1.87604e-05
3.59121e-06
2.86604e-06
6.23823e-06
5.6274e-06
7.3792e-05
1.5981e-05
5.78144e-06
5.96597e-06
6.37042e-06
1.7663e-06
1.01891e-05
5.28e-06
1.40078e-06
7.41289e-07
8.76003e-07
7.52219e-07
6.00156e-07
5.35969e-07
4.669e-07
4.38195e-07
3.95429e-07
3.86146e-07
3.77754e-07
3.90133e-07
4.024e-07
3.82218e-07
3.76805e-07
1.11718e-06
1.98344e-06
1.98773e-05
3.67806e-06
3.80281e-06
7.16408e-06
6.41212e-06
4.25091e-05
1.32056e-05
9.40119e-06
3.44209e-06
2.99674e-06
1.9608e-06
1.20728e-05
6.12074e-06
1.42677e-06
8.11919e-07
9.04639e-07
7.55379e-07
6.40651e-07
5.34497e-07
4.90519e-07
4.35925e-07
4.202e-07
4.04385e-07
4.07352e-07
4.12736e-07
4.45882e-07
4.24812e-07
4.85811e-07
1.28659e-06
2.50655e-06
2.14321e-05
4.14992e-06
4.77908e-06
8.24326e-06
7.25669e-06
1.91794e-05
1.26954e-05
1.05249e-05
2.95071e-06
1.14919e-06
1.21615e-06
2.14453e-05
8.09669e-06
1.50953e-06
9.01106e-07
9.24358e-07
7.7351e-07
6.25336e-07
5.52832e-07
4.87456e-07
4.60709e-07
4.32511e-07
4.36808e-07
4.38267e-07
4.60043e-07
4.81311e-07
5.02258e-07
5.91316e-07
1.42985e-06
3.1436e-06
2.32733e-05
4.94728e-06
5.67021e-06
8.80177e-06
6.55479e-06
6.97098e-06
1.89288e-05
2.23216e-05
5.49595e-06
4.99917e-07
6.59678e-07
3.89463e-05
1.33747e-05
1.72308e-06
1.16843e-06
9.15239e-07
7.2041e-07
6.11399e-07
5.48723e-07
5.07355e-07
4.7496e-07
4.69368e-07
4.53895e-07
4.81066e-07
4.98985e-07
5.36927e-07
5.82045e-07
7.16126e-07
1.53965e-06
3.54639e-06
2.71204e-05
5.78428e-06
6.20808e-06
7.57093e-06
4.16174e-06
4.06608e-06
0.000217236
5.37353e-05
1.14762e-05
4.29153e-07
9.50452e-07
6.52804e-05
1.28134e-05
1.85843e-06
1.54136e-06
7.73582e-07
6.48313e-07
5.96219e-07
5.57324e-07
5.22395e-07
5.11323e-07
5.03332e-07
5.13326e-07
5.15428e-07
5.65159e-07
5.75266e-07
7.19615e-07
8.51192e-07
1.55586e-06
4.40235e-06
3.33985e-05
6.35754e-06
5.46307e-06
5.20468e-06
2.89398e-06
3.86603e-06
0.000287632
1.57389e-05
5.84303e-06
9.54562e-07
7.48819e-05
4.21951e-05
3.24472e-06
1.9055e-06
1.76986e-06
6.68279e-07
6.15033e-07
6.10579e-07
5.67161e-07
5.65211e-07
5.68551e-07
5.6713e-07
5.79515e-07
5.97363e-07
6.30209e-07
6.65204e-07
8.6623e-07
1.05671e-06
1.51524e-06
6.2643e-06
4.23381e-05
5.55051e-06
3.84419e-06
3.18387e-06
2.69109e-06
4.15217e-06
0.000128073
2.93225e-05
2.82356e-06
4.13659e-05
4.90065e-05
1.12872e-05
2.04594e-06
1.98298e-06
1.77321e-06
7.11615e-07
6.66856e-07
6.52557e-07
6.44343e-07
6.29239e-07
6.40118e-07
6.48393e-07
6.65168e-07
6.95318e-07
7.3793e-07
7.77278e-07
1.04831e-06
1.32384e-06
1.43638e-06
1.11658e-05
5.19762e-05
3.92365e-06
2.03393e-06
1.90718e-06
2.71628e-06
4.56401e-06
0.000133107
5.37516e-06
1.76111e-05
1.9925e-05
1.50666e-05
7.95014e-06
1.3633e-06
2.25218e-06
1.60538e-06
8.94485e-07
7.77993e-07
7.59766e-07
7.64782e-07
7.39366e-07
7.41887e-07
7.52273e-07
7.7783e-07
8.19765e-07
8.60289e-07
9.45943e-07
1.22567e-06
1.6478e-06
1.31365e-06
2.00083e-05
5.72009e-05
2.25611e-06
8.73804e-07
1.30391e-06
2.9879e-06
4.94496e-06
0.000117204
3.53371e-06
1.59161e-05
2.06415e-05
1.41365e-05
1.09162e-05
2.2313e-06
2.44732e-06
1.39273e-06
1.14723e-06
9.10887e-07
8.98843e-07
8.74687e-07
8.6383e-07
8.55478e-07
8.74288e-07
8.95745e-07
9.59258e-07
9.91981e-07
1.14223e-06
1.42267e-06
1.84024e-06
1.25631e-06
2.0682e-05
5.51206e-05
1.5228e-06
4.14429e-07
1.55231e-06
4.89805e-06
5.18825e-06
0.000100772
4.02773e-06
1.18197e-05
1.581e-05
8.37883e-06
1.25509e-05
1.52253e-05
1.84443e-06
1.8299e-06
1.30919e-06
1.09648e-06
1.04783e-06
1.0126e-06
9.75225e-07
9.6873e-07
9.84934e-07
1.02344e-06
1.08686e-06
1.13288e-06
1.32823e-06
1.62265e-06
1.79853e-06
1.33854e-06
5.38218e-06
5.24685e-05
6.08524e-06
4.44501e-07
1.02669e-05
8.94589e-06
4.75973e-06
7.99546e-05
3.63223e-06
1.06522e-05
9.55117e-06
5.47309e-06
4.22912e-06
2.66826e-05
4.5286e-06
1.53319e-06
1.59495e-06
1.22537e-06
1.1717e-06
1.11854e-06
1.07855e-06
1.05695e-06
1.07459e-06
1.11767e-06
1.18458e-06
1.24545e-06
1.47073e-06
1.75456e-06
1.72023e-06
1.35795e-06
2.54197e-06
2.29339e-05
4.50665e-05
3.61373e-06
4.01868e-06
0.000388252
9.2753e-05
6.00235e-05
3.51166e-06
8.41806e-06
6.53892e-06
1.67656e-06
2.68131e-06
1.69005e-05
9.36762e-06
1.14446e-06
1.73654e-06
1.29331e-06
1.21143e-06
1.14934e-06
1.12296e-06
1.10487e-06
1.12118e-06
1.16378e-06
1.22623e-06
1.31372e-06
1.55842e-06
1.84019e-06
1.53584e-06
1.21603e-06
8.15936e-06
1.73373e-05
7.06738e-06
2.45634e-05
0.000145039
9.89169e-05
0.000336931
4.14571e-05
4.01393e-06
6.42527e-06
2.54549e-06
1.23079e-06
2.81879e-06
1.84104e-05
1.14959e-05
1.27467e-06
1.67328e-06
1.34052e-06
1.17966e-06
1.10837e-06
1.07364e-06
1.05748e-06
1.06755e-06
1.11139e-06
1.17858e-06
1.30702e-06
1.57031e-06
1.65235e-06
9.28007e-07
2.75038e-06
2.09431e-05
2.43428e-05
1.46225e-05
2.12719e-05
2.74769e-05
1.05934e-06
0.000112876
2.62155e-05
2.7557e-06
4.25683e-06
2.14027e-06
2.38454e-06
5.29457e-06
2.5699e-05
1.38066e-05
9.63683e-07
1.17978e-06
1.19343e-06
9.89145e-07
9.18501e-07
8.75446e-07
8.44763e-07
8.38086e-07
8.74508e-07
9.43275e-07
1.07058e-06
1.24328e-06
9.54488e-07
8.32917e-07
1.25096e-05
3.18866e-05
3.58934e-05
7.67988e-06
1.26885e-05
8.89093e-06
1.3066e-06
5.94953e-05
1.51465e-05
1.31123e-06
2.02558e-06
2.70888e-06
4.53919e-06
1.20192e-05
3.25392e-05
1.77935e-05
8.07904e-07
5.67654e-07
8.54089e-07
7.2421e-07
6.69602e-07
6.21921e-07
5.80964e-07
5.69301e-07
6.01873e-07
6.4391e-07
7.22999e-07
7.7904e-07
6.99468e-07
6.76856e-06
1.59727e-05
3.59992e-05
2.80369e-05
2.97684e-06
4.18598e-06
5.31809e-06
2.1913e-06
4.17062e-05
7.78197e-06
6.4528e-07
1.21353e-06
2.10074e-06
3.20352e-06
1.40936e-05
4.15261e-05
2.2451e-05
2.10582e-06
5.11077e-07
7.12277e-07
6.46229e-07
5.86794e-07
5.31018e-07
4.9502e-07
5.01088e-07
5.38564e-07
5.57146e-07
6.27233e-07
7.723e-07
3.75961e-06
1.03796e-05
6.33783e-06
2.59818e-05
1.73427e-05
2.42056e-06
1.38761e-06
3.04366e-06
2.44251e-06
2.59402e-05
3.72746e-06
4.749e-07
1.07454e-06
2.09975e-06
2.71361e-06
1.03693e-05
4.0939e-05
1.58379e-05
2.45228e-06
1.11516e-06
8.00187e-07
7.26624e-07
6.37618e-07
5.85188e-07
5.67088e-07
5.87941e-07
6.23754e-07
6.57895e-07
7.98147e-07
1.62809e-06
4.95568e-06
2.44407e-06
7.07336e-07
1.32366e-05
2.30661e-05
2.16833e-06
7.52764e-07
9.0605e-07
1.78244e-06
1.28901e-05
1.63934e-06
4.17251e-07
1.03838e-06
2.13388e-06
2.85858e-06
8.24203e-06
3.62959e-05
7.33892e-06
6.17901e-07
6.02435e-07
5.78401e-07
6.02473e-07
5.7203e-07
5.54319e-07
5.66733e-07
5.92422e-07
5.89013e-07
5.97105e-07
6.69319e-07
9.27925e-07
1.0527e-06
2.7206e-07
5.08031e-07
8.68911e-06
2.53758e-05
2.23593e-06
5.45001e-07
3.90966e-07
7.28693e-07
4.07115e-06
5.91345e-07
3.71056e-07
9.28845e-07
1.85384e-06
2.69725e-06
7.72693e-06
3.52833e-05
4.25628e-06
5.07082e-07
3.68312e-07
3.5258e-07
4.10776e-07
4.47929e-07
4.70791e-07
4.97607e-07
4.96446e-07
4.57317e-07
4.49956e-07
4.21937e-07
4.08006e-07
3.68806e-07
4.108e-07
7.03342e-07
2.49284e-06
1.87695e-05
5.8479e-06
8.20543e-07
2.83881e-07
3.4071e-07
1.26634e-06
1.93926e-07
3.05357e-07
7.44528e-07
1.44952e-06
2.23887e-06
7.05415e-06
3.72888e-05
4.02742e-06
8.73757e-07
6.28601e-07
5.67953e-07
5.71952e-07
5.97537e-07
6.1251e-07
6.24925e-07
5.98817e-07
5.72142e-07
5.81604e-07
5.70728e-07
5.81118e-07
5.63266e-07
7.6675e-07
9.43791e-07
7.79312e-07
1.36973e-05
3.06759e-05
2.28611e-06
2.49771e-07
2.04385e-07
1.10322e-06
7.06797e-08
2.50479e-07
5.90858e-07
1.08442e-06
1.67557e-06
5.71435e-06
3.65605e-05
4.15557e-06
1.12323e-06
8.87125e-07
8.57743e-07
8.37229e-07
8.37703e-07
8.26968e-07
8.09112e-07
7.83526e-07
7.8332e-07
8.14381e-07
8.32188e-07
8.61433e-07
8.65568e-07
1.16019e-06
1.15125e-06
9.06124e-07
1.76442e-05
3.46506e-05
3.05434e-06
1.50591e-07
3.53736e-07
1.60692e-06
7.65953e-08
3.02085e-07
5.62469e-07
8.69041e-07
1.21623e-06
4.49925e-06
3.13321e-05
3.58453e-06
9.48287e-07
7.44239e-07
7.26597e-07
6.75317e-07
6.63427e-07
6.49329e-07
6.37229e-07
6.38999e-07
6.70006e-07
7.34258e-07
8.0697e-07
8.9253e-07
1.00239e-06
1.31344e-06
1.15024e-06
8.95414e-07
1.36954e-05
2.2997e-05
1.15868e-05
1.71862e-06
1.66878e-06
3.21213e-06
1.42495e-06
8.6876e-07
7.65123e-07
8.72113e-07
9.99468e-07
4.11397e-06
2.1934e-05
2.3236e-06
6.167e-07
3.71948e-07
3.39801e-07
3.06098e-07
3.10332e-07
3.08852e-07
3.06395e-07
3.20548e-07
3.48683e-07
3.71612e-07
4.2163e-07
5.44347e-07
7.71419e-07
1.06074e-06
8.47692e-07
9.78403e-07
7.70967e-06
2.47926e-05
3.31908e-05
1.24436e-06
4.56103e-06
4.87935e-05
7.25551e-06
3.51424e-06
1.56908e-06
1.26755e-06
1.16683e-06
4.89471e-06
1.1816e-05
1.37622e-06
6.24116e-07
2.96171e-07
2.25005e-07
1.87183e-07
2.05451e-07
2.11132e-07
2.01733e-07
2.01165e-07
2.03519e-07
1.71135e-07
1.66837e-07
2.63526e-07
5.05257e-07
7.62569e-07
5.7275e-07
1.58499e-06
8.72263e-06
3.53452e-05
2.32554e-05
2.27886e-05
8.30425e-05
9.03303e-05
1.36674e-05
4.46345e-06
3.49219e-06
1.92098e-06
1.90059e-06
7.44573e-06
5.8516e-06
1.84509e-06
7.51503e-07
4.16696e-07
3.93426e-07
3.49824e-07
3.97006e-07
4.0003e-07
3.69621e-07
3.44119e-07
3.27337e-07
2.66768e-07
2.36332e-07
3.28562e-07
5.69775e-07
8.14931e-07
4.78492e-07
2.72206e-06
1.18515e-05
3.44747e-05
3.6419e-05
5.62348e-05
2.43278e-05
2.19387e-05
0.000298087
8.18208e-06
1.92759e-06
1.14944e-06
3.46672e-06
4.39762e-06
5.31541e-06
3.23188e-06
6.62818e-07
3.76936e-07
2.84088e-07
2.50148e-07
2.85833e-07
3.05735e-07
2.96555e-07
2.89569e-07
2.90791e-07
2.69499e-07
2.73468e-07
3.57792e-07
5.31283e-07
5.94354e-07
4.88777e-07
5.03905e-06
1.33587e-05
2.1218e-05
2.66138e-05
1.65831e-05
7.74372e-07
1.47939e-05
9.46847e-05
0.000233088
7.07042e-06
2.90743e-06
6.51694e-06
3.89946e-06
4.42831e-06
4.23037e-06
7.25115e-07
3.79979e-07
2.59039e-07
1.93893e-07
1.93184e-07
2.02531e-07
1.96582e-07
1.92219e-07
1.84892e-07
1.78288e-07
1.89491e-07
2.23042e-07
2.8205e-07
2.17925e-07
1.49275e-06
7.28336e-06
7.52792e-06
7.39512e-06
1.11566e-05
1.29994e-05
1.50569e-06
9.43203e-06
2.00727e-06
0.000101465
0.000243446
2.0183e-05
6.69304e-06
4.48052e-06
4.37165e-06
3.76467e-06
1.57815e-06
2.88703e-07
3.14143e-07
2.83681e-07
2.55457e-07
2.51014e-07
2.42913e-07
2.32806e-07
2.20962e-07
2.18319e-07
2.29665e-07
2.42733e-07
2.16949e-07
2.48038e-07
3.45182e-06
5.35585e-06
3.47683e-06
3.29288e-06
5.96661e-06
1.13328e-05
2.44004e-06
6.25168e-06
1.27458e-06
8.71811e-07
8.29965e-05
0.000194863
2.05999e-05
3.9543e-06
6.82113e-06
6.49735e-06
2.86334e-06
5.42825e-07
2.61588e-07
2.96656e-07
2.64151e-07
2.40196e-07
2.25787e-07
2.0706e-07
1.96969e-07
2.08391e-07
2.37169e-07
2.50366e-07
2.36688e-07
6.93494e-07
5.19631e-06
2.90578e-06
1.88827e-06
1.73075e-06
4.26174e-06
1.00253e-05
4.11468e-06
7.34562e-06
2.85433e-07
2.83143e-07
2.78071e-07
6.08387e-05
6.90088e-05
6.93765e-06
6.81877e-06
1.48047e-05
9.4657e-06
3.72075e-06
8.26746e-07
4.26029e-07
2.81392e-07
1.97951e-07
1.5508e-07
1.21794e-07
1.0572e-07
1.1847e-07
1.60656e-07
2.24208e-07
3.10346e-07
1.97382e-06
5.09767e-06
1.42178e-06
1.08008e-06
1.47373e-06
5.21813e-06
1.00465e-05
6.4954e-06
1.09466e-05
1.92557e-06
1.62766e-06
4.47472e-08
6.37061e-06
4.26069e-05
1.22542e-05
2.33472e-06
1.46569e-05
1.82615e-05
1.34079e-05
5.91345e-06
2.19866e-06
1.1175e-06
6.67577e-07
4.37216e-07
3.18129e-07
2.48191e-07
2.45146e-07
3.51693e-07
5.11563e-07
9.35762e-07
3.98905e-06
2.51119e-06
8.56271e-07
8.85657e-07
2.71867e-06
7.29152e-06
1.02855e-05
1.06559e-05
1.35767e-05
9.0809e-06
9.13012e-06
3.5373e-07
4.83134e-06
1.70478e-05
1.61398e-05
1.02912e-06
1.66835e-06
9.15657e-06
1.04201e-05
1.14322e-05
6.13859e-06
3.71167e-06
2.58847e-06
2.02726e-06
1.768e-06
1.60632e-06
1.50604e-06
1.51075e-06
1.55433e-06
2.98408e-06
5.59856e-06
6.14696e-07
8.26617e-07
1.13288e-06
4.57026e-06
1.05706e-05
1.71266e-05
1.77746e-05
1.5473e-05
1.3431e-05
1.29789e-05
3.20953e-06
6.64578e-06
1.2784e-05
9.61464e-06
2.59711e-06
1.16806e-07
2.08944e-06
2.8081e-06
6.09841e-06
8.18104e-06
6.23846e-06
4.80588e-06
4.19456e-06
3.97872e-06
4.02455e-06
3.87002e-06
3.64573e-06
3.93272e-06
5.42359e-06
2.31882e-06
5.96861e-07
6.59041e-07
1.43192e-06
6.98213e-06
1.62247e-05
2.14656e-05
1.56787e-05
1.27584e-05
6.44559e-06
9.21789e-06
5.68711e-06
9.07399e-06
1.89003e-05
7.25471e-06
4.04432e-06
1.3982e-07
5.33462e-07
1.04296e-06
1.08939e-06
3.15475e-06
5.2306e-06
5.60962e-06
5.47269e-06
5.25474e-06
5.26882e-06
5.56694e-06
5.76708e-06
5.70726e-06
3.61728e-06
4.99797e-07
7.85759e-07
3.07941e-07
1.80915e-06
9.45562e-06
1.66363e-05
1.70184e-05
7.61917e-06
2.34205e-06
3.49903e-06
4.64875e-06
4.18229e-06
1.0144e-05
2.29711e-05
1.20051e-05
5.22771e-06
2.79145e-07
1.73967e-07
6.32538e-07
2.88978e-07
3.71843e-07
1.04873e-06
1.88978e-06
2.27754e-06
2.33749e-06
2.17589e-06
2.38423e-06
2.73337e-06
2.0954e-06
7.79495e-07
3.64347e-07
4.88689e-07
2.70593e-07
3.29783e-06
8.87671e-06
1.29987e-05
1.17866e-05
3.47346e-06
9.55656e-07
4.38145e-06
2.05029e-06
2.16009e-06
5.16475e-06
2.13723e-05
2.49351e-05
6.83662e-06
9.19876e-07
7.25967e-08
4.00338e-07
1.97917e-07
7.67506e-08
7.67915e-08
1.66914e-07
2.49722e-07
2.97653e-07
2.70507e-07
2.01012e-07
1.84298e-07
2.06068e-07
2.34508e-07
2.82761e-07
3.38731e-07
1.1487e-06
4.92507e-06
6.72319e-06
1.01538e-05
8.65316e-06
3.65897e-06
1.14136e-06
8.965e-06
1.19526e-06
1.0543e-06
1.72163e-06
1.38095e-05
3.59249e-05
1.60969e-05
4.82225e-06
7.54527e-08
2.1724e-07
1.63418e-07
6.38516e-08
2.76905e-08
2.09171e-08
2.38664e-08
2.70878e-08
3.2105e-08
1.22854e-08
1.49438e-08
4.18299e-08
8.12283e-08
2.36245e-07
2.93525e-07
3.0262e-06
5.56548e-06
5.57684e-06
8.1843e-06
1.32037e-05
9.36311e-06
1.73673e-06
2.30941e-05
2.55214e-06
1.68834e-06
1.82519e-06
7.37408e-06
2.83941e-05
2.5723e-05
1.40271e-05
1.06368e-06
8.42287e-08
1.33421e-07
5.32142e-08
2.82151e-08
1.57795e-08
1.34707e-08
1.41429e-08
1.96245e-08
1.53778e-08
1.42799e-08
1.4149e-08
3.49038e-08
1.45687e-07
1.68758e-07
2.93241e-06
7.53307e-06
7.87772e-06
1.0925e-05
2.08078e-05
7.93347e-06
2.32715e-06
1.66836e-05
5.82804e-06
2.96052e-06
2.81926e-06
4.44486e-06
1.68782e-05
1.78315e-05
2.90031e-05
4.45446e-06
5.02535e-08
8.28814e-08
3.30023e-08
2.09329e-08
1.22813e-08
1.06334e-08
1.17356e-08
1.53412e-08
1.54607e-08
1.3419e-08
5.70349e-09
2.1685e-08
4.27004e-08
1.52605e-07
1.9099e-06
1.40065e-05
8.51979e-06
1.21443e-05
1.51499e-05
3.06258e-06
1.77566e-06
4.7549e-06
5.09427e-06
3.27873e-06
2.62955e-06
3.23656e-06
1.16628e-05
1.00528e-05
1.6575e-05
8.3703e-06
1.07965e-06
2.46149e-08
1.2069e-08
7.25661e-09
6.65133e-09
6.98724e-09
9.28641e-09
1.26042e-08
1.50312e-08
1.71247e-08
5.92327e-09
1.53933e-08
5.50443e-09
5.8865e-07
3.89146e-06
1.49119e-05
6.36748e-06
1.1164e-05
1.02019e-05
2.53416e-06
8.83287e-07
1.69833e-06
2.57879e-06
2.83726e-06
2.25791e-06
2.54616e-06
8.41364e-06
6.59952e-06
4.19245e-06
1.82729e-05
5.57364e-06
2.78565e-08
5.82197e-09
2.25332e-09
2.09379e-09
3.60278e-09
7.354e-09
1.15481e-08
1.67404e-08
1.95543e-08
1.30156e-08
2.85204e-08
5.33401e-08
1.27834e-06
5.60265e-06
1.22087e-05
6.72521e-06
6.62875e-06
5.91157e-06
2.87899e-06
5.47537e-07
8.13336e-07
1.91406e-06
2.61218e-06
2.26866e-06
2.09428e-06
6.94608e-06
4.36599e-06
5.82844e-07
1.64985e-05
7.48973e-06
8.29994e-07
4.18159e-09
4.93361e-09
1.19711e-09
3.20162e-09
7.2195e-09
1.31733e-08
2.07853e-08
2.07814e-08
2.84407e-08
4.09024e-08
2.39187e-07
2.12779e-06
6.03753e-06
9.16688e-06
5.92793e-06
3.23214e-06
3.19694e-06
2.28199e-06
8.45825e-07
1.02444e-06
2.02696e-06
2.45928e-06
2.07852e-06
1.93156e-06
7.60232e-06
2.78002e-06
5.56294e-08
6.08773e-06
9.93321e-06
2.8065e-06
6.2882e-08
1.05419e-08
5.23822e-09
5.31379e-09
1.00187e-08
1.8715e-08
2.91063e-08
3.01498e-08
3.67322e-08
2.69903e-08
3.56521e-07
1.84503e-06
3.00123e-06
5.67049e-06
8.6551e-06
4.13798e-06
1.53659e-06
1.31284e-06
1.1825e-06
1.71485e-06
1.91328e-06
1.8776e-06
1.45165e-06
1.57896e-06
7.34172e-06
2.74004e-06
1.72928e-07
2.85239e-06
6.6399e-06
3.44218e-06
4.93685e-07
3.66383e-08
1.9471e-08
1.29781e-08
1.73856e-08
2.96346e-08
4.64653e-08
4.91099e-08
3.91513e-08
3.92406e-08
4.22476e-07
6.491e-07
5.43696e-07
7.42513e-06
2.06827e-05
3.54084e-06
8.83461e-07
6.92182e-07
1.16157e-06
2.41371e-06
1.28127e-06
9.97442e-07
8.06726e-07
1.22425e-06
5.82045e-06
2.51676e-06
5.06068e-07
1.89522e-06
3.48708e-06
2.42579e-06
8.48009e-07
1.55806e-07
5.03673e-08
2.90394e-08
2.89102e-08
4.63545e-08
7.86624e-08
1.11501e-07
1.47971e-07
3.47008e-07
7.62321e-07
3.23566e-07
4.29451e-07
7.3929e-06
1.39315e-05
3.53846e-06
8.41697e-07
6.22212e-07
9.84356e-07
2.48511e-06
6.72642e-07
5.00585e-07
6.48888e-07
2.03907e-06
4.42355e-06
7.90341e-07
1.00835e-06
1.42195e-06
1.86067e-06
1.0432e-06
5.63175e-07
2.1486e-07
7.08643e-08
3.47936e-08
3.182e-08
6.01139e-08
1.39764e-07
2.97865e-07
7.8295e-07
1.2392e-06
1.50651e-06
7.354e-07
4.74613e-07
1.59013e-06
9.89777e-06
4.99096e-06
1.33314e-06
8.76187e-07
9.37526e-07
1.89355e-06
5.66954e-07
5.24613e-07
1.05599e-06
5.2385e-06
3.50628e-06
1.61454e-07
1.22019e-06
1.19967e-06
8.64325e-07
3.24815e-07
1.0301e-07
7.18111e-08
3.75007e-08
1.38751e-08
1.46231e-08
5.87421e-08
1.92068e-07
3.90188e-07
7.70947e-07
1.27988e-06
9.99833e-07
1.1642e-06
7.65587e-07
2.73558e-07
1.01743e-05
5.79448e-06
1.84112e-06
1.17555e-06
1.01091e-06
1.57598e-06
1.00355e-06
1.02996e-06
3.25535e-06
6.84813e-06
2.19051e-06
2.6066e-07
1.18003e-06
1.19349e-06
5.33389e-07
2.43023e-07
6.12018e-08
1.11671e-08
5.70524e-09
1.01478e-09
5.153e-09
5.45827e-08
1.13414e-07
1.29553e-07
9.04911e-08
2.65493e-07