/*--------------------------------*- C++ -*----------------------------------*\
| =========                 |                                                 |
| \\      /  F ield         | OpenFOAM: The Open Source CFD Toolbox           |
|  \\    /   O peration     | Version:  2.3.0                                 |
|   \\  /    A nd           | Web:      www.OpenFOAM.org                      |
|    \\/     M anipulation  |                                                 |
\*---------------------------------------------------------------------------*/
FoamFile
{
    version     2.0;
    format      ascii;
    class       volScalarField;
    location    "55";
    object      alpha.water;
}
// * * * * * * * * * * * * * * * * * * * * * * * * * * * * * * * * * * * * * //

dimensions      [0 0 0 0 0 0 0];

internalField   nonuniform List<scalar> 
1875
(
0.696849
0.739763
0.766857
0.766683
0.76443
0.760457
0.755373
0.749558
0.743411
0.737332
0.731767
0.727741
0.726071
0.725074
0.725717
0.72858
0.734272
0.742776
0.752355
0.763388
0.771916
0.767341
0.741077
0.696167
0.706046
0.750239
0.778688
0.806423
0.817139
0.820774
0.819807
0.817045
0.812582
0.806508
0.798718
0.788973
0.777011
0.764734
0.753621
0.744518
0.73775
0.738423
0.741204
0.748589
0.759996
0.771925
0.787355
0.788469
0.771093
0.806962
0.821767
0.833755
0.845177
0.849778
0.849695
0.8485
0.846034
0.842596
0.837702
0.831373
0.8238
0.813962
0.799844
0.782906
0.765545
0.749718
0.736207
0.735734
0.741673
0.753294
0.76831
0.785295
0.788676
0.789477
0.810958
0.903303
0.895151
0.881823
0.875394
0.871367
0.866754
0.860883
0.854263
0.847091
0.839227
0.830064
0.819617
0.807465
0.792105
0.773482
0.752402
0.731847
0.732097
0.735945
0.748259
0.765755
0.783726
0.787344
0.789758
0.810958
0.951813
0.927718
0.895639
0.887807
0.882427
0.875235
0.865813
0.853933
0.844176
0.835114
0.825236
0.813934
0.800922
0.784756
0.765573
0.745267
0.732097
0.732007
0.737395
0.750931
0.76863
0.784842
0.788168
0.790688
0.810958
0.964413
0.930059
0.889143
0.889038
0.881224
0.869646
0.85739
0.844056
0.831726
0.820621
0.80886
0.795563
0.780476
0.763435
0.746683
0.734855
0.732055
0.734802
0.743807
0.75885
0.775174
0.787135
0.790473
0.792998
0.809752
0.964413
0.917313
0.87338
0.880106
0.864696
0.846461
0.83105
0.816272
0.802329
0.789469
0.776414
0.762986
0.75024
0.740475
0.736071
0.735276
0.736263
0.744497
0.756602
0.770761
0.782984
0.790482
0.793943
0.795919
0.804553
0.964413
0.888564
0.846268
0.851038
0.823797
0.802872
0.786405
0.772204
0.760404
0.750843
0.74406
0.739865
0.738153
0.73814
0.738558
0.7423
0.749683
0.760997
0.772468
0.782757
0.790152
0.794723
0.797797
0.797426
0.796006
0.959962
0.847724
0.811535
0.807246
0.776308
0.759251
0.747082
0.739891
0.737818
0.73792
0.737825
0.73814
0.740588
0.744091
0.750224
0.758856
0.769022
0.778855
0.786855
0.792809
0.796856
0.799998
0.802591
0.796718
0.783015
0.936184
0.797881
0.779
0.773347
0.751573
0.743224
0.738964
0.737775
0.73792
0.737808
0.739204
0.744448
0.751528
0.759316
0.768839
0.778394
0.786886
0.793509
0.798302
0.801672
0.804295
0.807004
0.809232
0.79633
0.768572
0.899568
0.739646
0.750591
0.759749
0.744845
0.740015
0.737868
0.73792
0.737805
0.741827
0.749249
0.758464
0.768022
0.777656
0.786579
0.794018
0.799785
0.804108
0.80736
0.809818
0.811816
0.813642
0.814751
0.797739
0.761667
0.874252
0.738761
0.737383
0.752203
0.741304
0.738393
0.73792
0.738356
0.743252
0.75314
0.764413
0.775195
0.785039
0.793562
0.800275
0.805333
0.809016
0.811696
0.813716
0.814823
0.814808
0.814856
0.814808
0.800568
0.756916
0.863268
0.737527
0.738761
0.746201
0.737756
0.73792
0.738391
0.743139
0.7544
0.767794
0.78021
0.790855
0.799388
0.805674
0.810013
0.812865
0.814411
0.814808
0.81487
0.814808
0.814957
0.814808
0.815158
0.797163
0.740484
0.85825
0.738761
0.73738
0.742781
0.73792
0.737637
0.741025
0.751943
0.767252
0.781719
0.793642
0.802646
0.808755
0.812311
0.814043
0.814744
0.814808
0.814923
0.814808
0.815052
0.814808
0.815216
0.814808
0.779042
0.720427
0.85785
0.738432
0.738761
0.740836
0.737638
0.73792
0.745832
0.761539
0.778301
0.792021
0.801409
0.806905
0.810173
0.812293
0.813805
0.814545
0.814867
0.814808
0.815089
0.814808
0.815218
0.814808
0.80795
0.762113
0.720427
0.857842
0.738762
0.738307
0.739517
0.73792
0.737697
0.750452
0.768216
0.783332
0.793924
0.801204
0.806189
0.809199
0.811165
0.812503
0.813561
0.81447
0.814953
0.814808
0.81503
0.813783
0.810811
0.799739
0.781209
0.75764
0.857842
0.740161
0.738761
0.738813
0.737849
0.73792
0.749327
0.766965
0.781958
0.792413
0.799444
0.803892
0.806686
0.808694
0.810324
0.811677
0.812391
0.812244
0.810011
0.806638
0.803651
0.800391
0.80091
0.821027
0.831065
0.857833
0.746784
0.740018
0.738981
0.73792
0.737833
0.745512
0.761654
0.777147
0.788284
0.795718
0.800126
0.802885
0.805088
0.807236
0.808756
0.809004
0.806506
0.802509
0.800054
0.798997
0.79655
0.794162
0.840344
0.885652
0.853192
0.761494
0.744894
0.740012
0.738294
0.73792
0.740983
0.752092
0.767157
0.780246
0.789582
0.795226
0.798556
0.800984
0.803451
0.805352
0.805673
0.802633
0.79974
0.799739
0.800001
0.800329
0.787327
0.825971
0.901362
0.843637
0.782113
0.755828
0.743521
0.739713
0.73836
0.738701
0.742892
0.753284
0.766452
0.778267
0.786895
0.792537
0.796356
0.799551
0.802139
0.803306
0.80205
0.800377
0.800215
0.801666
0.804815
0.787276
0.803031
0.901369
0.831365
0.802641
0.774131
0.75264
0.743622
0.740007
0.739056
0.739278
0.742419
0.749384
0.756318
0.767745
0.777632
0.786218
0.793028
0.798105
0.801375
0.802135
0.802128
0.80218
0.803628
0.806808
0.788746
0.791123
0.901372
0.81697
0.816685
0.797091
0.769896
0.752826
0.744479
0.740732
0.739626
0.738766
0.738162
0.738661
0.737917
0.746379
0.762283
0.777142
0.788465
0.796528
0.801166
0.803629
0.805184
0.806271
0.807984
0.792655
0.787934
0.901378
0.802146
0.825198
0.816576
0.792257
0.769345
0.75437
0.745645
0.741498
0.738631
0.738661
0.736901
0.738661
0.737604
0.741852
0.753706
0.769493
0.78427
0.795604
0.802346
0.807071
0.808406
0.808675
0.796468
0.786906
0.893898
0.787964
0.828882
0.830095
0.813908
0.791093
0.771064
0.7563
0.746963
0.740334
0.738377
0.738661
0.736901
0.738661
0.738307
0.741603
0.750967
0.766158
0.78297
0.796438
0.805953
0.808675
0.808737
0.798422
0.786372
0.885034
0.774552
0.828517
0.837738
0.830067
0.812718
0.792229
0.773076
0.757882
0.746136
0.738661
0.737083
0.738661
0.737773
0.738661
0.73935
0.742761
0.751914
0.767625
0.785378
0.801229
0.808757
0.808708
0.799443
0.78636
0.878678
0.759416
0.827592
0.838132
0.837738
0.829316
0.812924
0.792866
0.773266
0.756356
0.74112
0.738661
0.737318
0.738661
0.738437
0.739404
0.74149
0.746011
0.756574
0.773352
0.792917
0.807903
0.80885
0.80059
0.786541
0.873729
0.74144
0.824326
0.837738
0.837851
0.836543
0.827876
0.810845
0.789643
0.769033
0.747206
0.737641
0.738661
0.738134
0.738661
0.739431
0.741678
0.745703
0.75196
0.764601
0.783908
0.804605
0.808746
0.802257
0.787649
0.86826
0.734586
0.815894
0.838377
0.837738
0.837749
0.834174
0.822413
0.802412
0.780098
0.753676
0.738661
0.737976
0.738661
0.738593
0.739613
0.742162
0.746164
0.752185
0.760477
0.776887
0.800043
0.808911
0.804408
0.791246
0.860414
0.735097
0.799671
0.837738
0.838076
0.837738
0.834102
0.824556
0.805014
0.779376
0.752334
0.73811
0.738661
0.738475
0.738661
0.740028
0.743076
0.747211
0.753027
0.760655
0.773647
0.796737
0.808783
0.806946
0.797831
0.850155
0.741704
0.779273
0.838246
0.837738
0.837766
0.833289
0.822522
0.801215
0.773529
0.747834
0.738661
0.738459
0.738661
0.73878
0.740897
0.744498
0.748838
0.754429
0.761532
0.774539
0.79718
0.808847
0.80983
0.806171
0.838376
0.759289
0.767698
0.826179
0.838142
0.837738
0.831251
0.81644
0.790751
0.762004
0.742677
0.738539
0.738661
0.738637
0.739298
0.742378
0.746448
0.750908
0.756279
0.763521
0.777404
0.798537
0.808091
0.81275
0.813125
0.824736
0.78665
0.767657
0.805787
0.837738
0.837805
0.826393
0.80419
0.774357
0.750117
0.739693
0.738661
0.738629
0.738831
0.740465
0.744455
0.748762
0.75323
0.758711
0.767038
0.782105
0.800339
0.807667
0.814486
0.815262
0.809584
0.817757
0.767657
0.793996
0.837933
0.835989
0.816062
0.786134
0.758081
0.742953
0.738948
0.7387
0.738661
0.739414
0.742434
0.74687
0.751204
0.755858
0.762145
0.772232
0.787749
0.802846
0.807969
0.81054
0.815258
0.799751
0.843904
0.76904
0.794802
0.836986
0.829204
0.799595
0.76776
0.747726
0.740379
0.739054
0.738877
0.738789
0.740513
0.744836
0.749284
0.753778
0.759194
0.767053
0.778831
0.793751
0.806793
0.808136
0.785432
0.806223
0.800484
0.86141
0.774106
0.79882
0.833642
0.816266
0.780835
0.75512
0.74379
0.740391
0.739235
0.738737
0.739089
0.742283
0.747044
0.751549
0.75671
0.763643
0.773497
0.786271
0.799818
0.810518
0.808168
0.751495
0.776655
0.800581
0.871063
0.781777
0.804307
0.827577
0.798868
0.765624
0.748892
0.742685
0.740354
0.739122
0.738738
0.739945
0.744318
0.748752
0.753724
0.760199
0.769207
0.780862
0.79375
0.805306
0.811096
0.80434
0.753476
0.752332
0.800648
0.874137
0.787338
0.805729
0.818803
0.781451
0.756347
0.746696
0.742722
0.740354
0.73912
0.738767
0.741013
0.745696
0.75015
0.756022
0.764322
0.775404
0.788123
0.800055
0.808965
0.811082
0.794383
0.750953
0.753476
0.801465
0.874137
0.783313
0.801212
0.808008
0.769287
0.752447
0.746791
0.742889
0.740451
0.739153
0.738901
0.74199
0.746432
0.751387
0.758553
0.768766
0.780983
0.793248
0.803316
0.809763
0.809717
0.782845
0.753476
0.75179
0.80902
0.874137
0.763866
0.779028
0.797304
0.764044
0.752584
0.747171
0.743275
0.740739
0.73928
0.738996
0.742083
0.74629
0.75149
0.760393
0.771929
0.783735
0.793485
0.802911
0.809553
0.808103
0.777751
0.751008
0.753476
0.826333
0.874247
0.760125
0.761253
0.788396
0.761788
0.753021
0.747821
0.743903
0.741225
0.739532
0.739054
0.741881
0.745835
0.751056
0.759962
0.771528
0.783219
0.792693
0.800901
0.80695
0.807042
0.779828
0.753476
0.751079
0.850302
0.874238
0.761253
0.759228
0.782345
0.76011
0.753549
0.748596
0.744693
0.741894
0.739936
0.739162
0.741425
0.745022
0.749986
0.758402
0.769692
0.781299
0.790718
0.797582
0.802617
0.805551
0.786114
0.751311
0.753476
0.872894
0.87322
0.760272
0.761253
0.778128
0.758844
0.754097
0.749383
0.745561
0.742708
0.740532
0.739416
0.740876
0.743952
0.748421
0.755787
0.766216
0.777666
0.78751
0.79415
0.797929
0.802396
0.792012
0.753476
0.750678
0.88476
0.871301
0.761253
0.759249
0.774691
0.758827
0.754599
0.750127
0.746464
0.743626
0.741305
0.739854
0.740643
0.742919
0.74658
0.752714
0.761698
0.772543
0.782907
0.790688
0.794134
0.797725
0.79286
0.751426
0.753476
0.885009
0.868208
0.760272
0.761253
0.771741
0.759139
0.754977
0.750752
0.747338
0.7446
0.742227
0.740456
0.740784
0.742174
0.744927
0.749698
0.757017
0.766624
0.776963
0.786311
0.791322
0.793187
0.791794
0.753476
0.750674
0.885079
0.863747
0.761253
0.759237
0.769962
0.75995
0.755301
0.751193
0.748103
0.745572
0.743259
0.741222
0.741174
0.741876
0.743956
0.747287
0.752952
0.760875
0.770378
0.78054
0.788343
0.789733
0.789438
0.751239
0.753476
0.885022
0.858095
0.760121
0.761253
0.769434
0.761267
0.755769
0.751527
0.748729
0.746491
0.744366
0.742183
0.741711
0.742019
0.743405
0.74597
0.749988
0.756132
0.764211
0.773934
0.784097
0.786956
0.786801
0.753476
0.750793
0.885111
0.851495
0.761253
0.75923
0.769417
0.763003
0.756631
0.751923
0.749231
0.74731
0.745458
0.743317
0.742315
0.742522
0.743101
0.745023
0.748
0.752645
0.759214
0.767657
0.778512
0.783895
0.78456
0.751088
0.753476
0.88494
0.843286
0.760028
0.761253
0.769345
0.765011
0.75811
0.752553
0.749619
0.747954
0.746429
0.7445
0.743065
0.743096
0.743383
0.744386
0.746525
0.750196
0.755547
0.762606
0.772621
0.780075
0.782531
0.753476
0.751033
0.884651
0.834012
0.761253
0.759225
0.769238
0.767234
0.760437
0.753632
0.749927
0.748328
0.747176
0.745613
0.744008
0.743664
0.743868
0.74444
0.745932
0.748709
0.753089
0.759018
0.767602
0.775809
0.780315
0.751072
0.753476
0.884708
0.826328
0.760134
0.761253
0.769178
0.769933
0.763799
0.755363
0.750249
0.748454
0.747657
0.746547
0.745031
0.74431
0.744363
0.744742
0.745957
0.748038
0.751584
0.75664
0.763945
0.771819
0.777727
0.753476
0.751362
0.885245
0.823495
0.761253
0.759326
0.769623
0.77335
0.76782
0.757642
0.750707
0.74858
0.747978
0.747245
0.745988
0.745019
0.744921
0.745174
0.746104
0.74791
0.750762
0.755109
0.761498
0.768627
0.774982
0.751221
0.753476
0.886222
0.823897
0.760358
0.761253
0.771438
0.776845
0.770746
0.759547
0.751376
0.74889
0.748292
0.747756
0.746768
0.745735
0.745538
0.745705
0.746364
0.74795
0.750386
0.754169
0.759928
0.76635
0.77245
0.753476
0.751729
0.88763
0.825579
0.761253
0.759489
0.774408
0.778815
0.77089
0.759754
0.752224
0.749475
0.74867
0.748158
0.747357
0.746397
0.746168
0.746293
0.746688
0.748066
0.750384
0.753741
0.758991
0.764849
0.77037
0.751514
0.753476
0.889185
0.829557
0.760549
0.761253
0.776769
0.778848
0.77048
0.759692
0.75315
0.750267
0.749036
0.748504
0.747825
0.746893
0.746707
0.746778
0.747172
0.748297
0.750446
0.753766
0.758606
0.763912
0.76877
0.753476
0.752108
0.890842
0.837115
0.761253
0.759699
0.776714
0.77825
0.769105
0.759905
0.75393
0.751023
0.749378
0.748811
0.74818
0.747238
0.747201
0.747137
0.747694
0.748659
0.75062
0.753886
0.758654
0.763331
0.767509
0.751876
0.753476
0.892457
0.847946
0.760545
0.761253
0.773866
0.776013
0.767461
0.760412
0.754697
0.751264
0.749839
0.749111
0.748206
0.747624
0.747739
0.74768
0.748048
0.74893
0.750857
0.754091
0.7588
0.762891
0.766371
0.753476
0.752473
0.894049
0.860424
0.761253
0.759899
0.76461
0.771237
0.766917
0.760851
0.755467
0.75157
0.750263
0.7494
0.748382
0.748036
0.748126
0.74823
0.748502
0.749289
0.751211
0.754464
0.759129
0.762517
0.765126
0.752243
0.753476
0.895587
0.872271
0.760396
0.761253
0.760912
0.764217
0.766266
0.761032
0.755505
0.752189
0.750447
0.749572
0.748861
0.748285
0.748288
0.748673
0.748953
0.749824
0.75177
0.755153
0.759756
0.762139
0.763309
0.753476
0.752786
0.897137
0.879799
0.761253
0.760173
0.761253
0.761135
0.765355
0.760728
0.755458
0.752632
0.750858
0.74972
0.749106
0.748475
0.748597
0.748946
0.74929
0.750426
0.75248
0.755949
0.760551
0.761567
0.759845
0.752586
0.753476
0.89867
0.881838
0.760576
0.761253
0.760997
0.761253
0.764596
0.759882
0.75579
0.752936
0.751393
0.750091
0.749213
0.748737
0.748821
0.749216
0.749923
0.751058
0.753227
0.756371
0.760746
0.760637
0.754349
0.753476
0.75302
0.900078
0.882343
0.761253
0.760481
0.761253
0.761193
0.763917
0.759575
0.756239
0.753501
0.751654
0.750792
0.749641
0.748944
0.748962
0.749605
0.750601
0.751791
0.753823
0.756523
0.760741
0.759553
0.753476
0.75292
0.753476
0.901312
0.882796
0.760856
0.761253
0.761092
0.761253
0.763227
0.75948
0.756182
0.753666
0.752091
0.751634
0.750302
0.74933
0.7494
0.749917
0.750909
0.752199
0.753887
0.756418
0.760362
0.758507
0.753376
0.753476
0.753241
0.902385
0.883329
0.761253
0.760821
0.761253
0.761234
0.762299
0.758841
0.755826
0.753298
0.752168
0.751948
0.750747
0.749906
0.749912
0.750191
0.750903
0.751846
0.753442
0.755629
0.758946
0.757211
0.753476
0.753214
0.753476
0.903137
0.884115
0.761163
0.761253
0.761212
0.761254
0.761109
0.757649
0.754934
0.752681
0.751925
0.751861
0.751185
0.750392
0.750131
0.750403
0.750792
0.751168
0.75238
0.754024
0.756692
0.755773
0.753445
0.753476
0.753432
0.903395
0.886737
0.762306
0.761205
0.762954
0.764038
0.762742
0.758845
0.75609
0.753987
0.753401
0.753425
0.753222
0.752572
0.752045
0.752056
0.752068
0.75238
0.753378
0.754837
0.757495
0.757198
0.754844
0.75352
0.755057
0.904488
0.892953
0.769933
0.768626
0.772783
0.775013
0.77205
0.767255
0.764272
0.762412
0.761951
0.761899
0.762022
0.761613
0.760803
0.760426
0.760084
0.760374
0.761133
0.762385
0.764964
0.766032
0.76405
0.761138
0.7636
0.907542
0.879951
0.772827
0.778251
0.778272
0.777495
0.774453
0.77194
0.76952
0.768282
0.767934
0.767859
0.767866
0.767661
0.766893
0.76642
0.765931
0.766168
0.766721
0.767748
0.769566
0.770617
0.771424
0.771413
0.768962
0.893437
0.698145
0.661358
0.669293
0.66392
0.659825
0.659399
0.660472
0.661273
0.662866
0.6647
0.666223
0.667216
0.667616
0.667057
0.666218
0.664891
0.663778
0.662462
0.66119
0.660358
0.659549
0.661618
0.667769
0.662568
0.712057
0.167543
0.216701
0.226794
0.225293
0.227233
0.233507
0.240542
0.247008
0.252845
0.257673
0.261426
0.263957
0.265336
0.265582
0.26461
0.262467
0.259276
0.254928
0.249591
0.243575
0.237729
0.23491
0.236507
0.22482
0.173293
0.00653337
0.0134362
0.0176194
0.0184857
0.0191777
0.0201664
0.0212623
0.0223543
0.0233458
0.0241806
0.0248439
0.0253152
0.0255923
0.0256841
0.0255541
0.02521
0.0246462
0.0238855
0.0229706
0.0219697
0.0210102
0.0202297
0.0191633
0.0144506
0.00693327
2.02963e-05
0.000115267
0.000351973
0.000439454
0.000448157
0.000456759
0.000471535
0.000490742
0.000510148
0.000526879
0.000540169
0.000550075
0.000556599
0.000559637
0.000558375
0.000553145
0.000543347
0.000530531
0.000517147
0.000505988
0.000499452
0.000490199
0.00039203
0.000131992
2.28141e-05
1.66539e-08
1.96365e-07
2.08678e-06
3.05784e-06
2.9008e-06
2.71975e-06
2.57666e-06
2.45636e-06
2.31982e-06
2.12415e-06
1.85339e-06
1.57344e-06
1.41202e-06
1.39041e-06
1.49326e-06
1.70937e-06
1.96603e-06
2.1805e-06
2.35995e-06
2.52228e-06
2.75102e-06
3.07761e-06
2.25011e-06
2.36335e-07
2.00786e-08
5.72513e-10
1.48538e-09
6.93352e-09
8.30715e-09
7.68442e-09
6.70623e-09
5.09992e-09
3.1384e-09
1.3976e-09
3.27178e-10
1.94453e-11
9.10494e-13
1.74194e-13
4.64073e-14
3.15303e-14
2.07501e-13
3.78721e-11
4.30877e-10
1.06942e-09
1.63712e-09
2.34537e-09
3.81767e-09
4.65163e-09
9.73616e-10
1.36693e-10
5.65615e-10
1.9164e-11
5.74113e-11
1.26699e-10
1.38217e-10
6.61798e-11
1.1916e-11
3.45535e-12
2.60791e-12
2.66742e-12
2.0024e-12
8.23785e-13
1.79856e-13
2.38698e-14
4.66294e-15
1.55431e-15
1.55431e-15
1.55431e-15
2.33036e-13
1.23457e-13
2.80442e-13
1.1906e-12
4.25426e-12
6.20859e-12
1.10951e-10
5.5485e-10
1.48141e-11
1.06266e-11
9.30533e-12
9.31888e-12
9.03355e-12
9.65439e-12
8.48943e-12
8.16924e-12
6.76015e-12
3.64153e-12
9.82436e-13
1.3789e-13
1.23235e-14
1.88738e-15
3.33067e-16
-8.88178e-16
-6.66134e-16
-8.88178e-16
-6.66134e-16
2.9976e-15
5.03819e-13
2.95197e-12
5.45997e-12
1.12482e-10
)
;

boundaryField
{
    inlet
    {
        type            calculated;
        value           uniform 0.5;
    }
    outlet
    {
        type            calculated;
        value           nonuniform List<scalar> 
25
(
5.5485e-10
1.48141e-11
1.06266e-11
9.30533e-12
9.31888e-12
9.03355e-12
9.65439e-12
8.48943e-12
0
0
0
0
0
0
0
0
0
0
0
0
0
5.03819e-13
2.95197e-12
5.45997e-12
1.12482e-10
)
;
    }
    walls
    {
        type            calculated;
        value           nonuniform List<scalar> 
150
(
0.696849
0.750239
0.821767
0.903303
0.951813
0.964413
0.964413
0.964413
0.959962
0.936184
0.899568
0.874252
0.863268
0.85825
0.85785
0.857842
0.857842
0.857833
0.853192
0.843637
0.831365
0.81697
0.802146
0.787964
0.774552
0.759416
0.74144
0.734586
0.735097
0.741704
0.759289
0.78665
0.817757
0.843904
0.86141
0.871063
0.874137
0.874137
0.874137
0.874247
0.874238
0.87322
0.871301
0.868208
0.863747
0.858095
0.851495
0.843286
0.834012
0.826328
0.823495
0.823897
0.825579
0.829557
0.837115
0.847946
0.860424
0.872271
0.879799
0.881838
0.882343
0.882796
0.883329
0.884115
0.886737
0.892953
0.879951
0.698145
0.167543
0.00653337
2.02963e-05
1.66539e-08
5.72513e-10
5.65615e-10
5.5485e-10
0.706046
0.806962
0.810958
0.810958
0.810958
0.809752
0.804553
0.796006
0.783015
0.768572
0.761667
0.756916
0.740484
0.720427
0.720427
0.75764
0.831065
0.885652
0.901362
0.901369
0.901372
0.901378
0.893898
0.885034
0.878678
0.873729
0.86826
0.860414
0.850155
0.838376
0.824736
0.809584
0.799751
0.800484
0.800581
0.800648
0.801465
0.80902
0.826333
0.850302
0.872894
0.88476
0.885009
0.885079
0.885022
0.885111
0.88494
0.884651
0.884708
0.885245
0.886222
0.88763
0.889185
0.890842
0.892457
0.894049
0.895587
0.897137
0.89867
0.900078
0.901312
0.902385
0.903137
0.903395
0.904488
0.907542
0.893437
0.712057
0.173293
0.00693327
2.28141e-05
2.00786e-08
1.36693e-10
1.10951e-10
1.12482e-10
)
;
    }
    defaultFaces
    {
        type            empty;
    }
}


// ************************************************************************* //
