/*--------------------------------*- C++ -*----------------------------------*\
| =========                 |                                                 |
| \\      /  F ield         | OpenFOAM: The Open Source CFD Toolbox           |
|  \\    /   O peration     | Version:  2.3.0                                 |
|   \\  /    A nd           | Web:      www.OpenFOAM.org                      |
|    \\/     M anipulation  |                                                 |
\*---------------------------------------------------------------------------*/
FoamFile
{
    version     2.0;
    format      ascii;
    class       volScalarField;
    location    "1.90041";
    object      nut.water;
}
// * * * * * * * * * * * * * * * * * * * * * * * * * * * * * * * * * * * * * //

dimensions      [0 2 -1 0 0 0 0];

internalField   nonuniform List<scalar> 
18816
(
2.41406e-06
4.73681e-06
5.13794e-06
5.39435e-06
6.21411e-06
6.98408e-06
7.53061e-06
8.06287e-06
8.42631e-06
8.57046e-06
8.64004e-06
8.58e-06
8.43372e-06
8.17738e-06
7.8296e-06
7.35395e-06
6.79749e-06
6.09908e-06
5.32771e-06
4.37435e-06
3.43305e-06
2.71392e-06
3.08251e-06
3.99069e-06
5.04633e-06
5.63531e-06
5.58588e-06
2.68746e-06
1.15118e-32
7.3311e-06
7.56691e-06
7.69751e-06
7.843e-06
8.031e-06
8.13008e-06
8.12962e-06
8.03968e-06
7.96974e-06
7.87668e-06
7.61975e-06
7.32069e-06
7.03336e-06
6.71889e-06
6.35811e-06
5.94882e-06
5.45155e-06
4.92353e-06
4.31533e-06
3.68696e-06
3.42527e-06
3.57306e-06
4.00821e-06
4.77011e-06
5.34827e-06
6.28099e-06
1.01777e-32
1.93248e-32
4.3217e-33
3.62986e-33
3.3012e-33
3.03484e-33
2.8578e-33
2.83398e-33
2.72916e-33
2.78978e-33
2.97198e-33
3.51305e-33
6.68522e-06
6.28391e-06
6.06679e-06
5.87791e-06
5.63924e-06
5.35593e-06
4.97547e-06
4.53803e-06
3.98388e-06
3.40152e-06
3.16472e-06
3.17728e-06
3.32363e-06
3.96823e-06
4.70959e-06
5.9821e-06
9.09159e-33
2.69375e-32
7.13275e-33
3.79941e-33
3.43561e-33
3.03096e-33
2.9018e-33
2.82188e-33
2.7137e-33
3.14e-33
3.35738e-33
4.66976e-33
6.24949e-33
5.68339e-06
5.54003e-06
5.31883e-06
4.99719e-06
4.59636e-06
4.01507e-06
3.48921e-06
2.88888e-06
2.34297e-06
1.93305e-06
2.57585e-06
2.09904e-06
3.31271e-06
4.54623e-06
5.89296e-06
8.6665e-33
3.9808e-32
4.31497e-06
4.94672e-33
3.89347e-33
3.54088e-33
2.88588e-33
2.97142e-33
3.30933e-33
3.17326e-33
3.55312e-33
6.01635e-33
1.03845e-32
4.68286e-06
4.06769e-06
3.45195e-06
2.7731e-06
2.33561e-06
2.09128e-06
2.04732e-06
2.00813e-06
1.95531e-06
1.90776e-06
1.83999e-06
1.83772e-06
2.12061e-06
4.05665e-06
5.80785e-06
8.43465e-33
5.02806e-32
5.81923e-06
6.66893e-06
4.35144e-33
3.67144e-33
3.07246e-33
3.00689e-33
3.0131e-33
3.49022e-33
3.86728e-33
6.52635e-33
2.13515e-32
2.91961e-06
2.20248e-06
1.86313e-06
1.73818e-06
1.86738e-06
1.93485e-06
2.00415e-06
2.03509e-06
2.05441e-06
2.09126e-06
2.12039e-06
1.95714e-06
2.1518e-06
3.66656e-06
5.74884e-06
8.20738e-33
5.38406e-32
5.83835e-06
9.14847e-06
6.8885e-06
6.23126e-06
5.61064e-06
4.83624e-06
3.48675e-33
3.58634e-33
4.46535e-33
6.92467e-33
2.93894e-31
1.78614e-06
1.34284e-06
1.17137e-06
1.23387e-06
1.70714e-06
1.87537e-06
2.02224e-06
2.02263e-06
1.99923e-06
2.13688e-06
2.15172e-06
2.13928e-06
2.18343e-06
3.54655e-06
5.64214e-06
8.48901e-33
6.21733e-32
5.15059e-06
9.33654e-06
9.45373e-06
8.66536e-06
7.74032e-06
6.95689e-06
4.68875e-06
4.27058e-06
3.26238e-06
7.88079e-33
6.21001e-31
1.40203e-06
1.12443e-06
9.82292e-07
9.06458e-07
1.34382e-06
1.63189e-06
1.99126e-06
2.06131e-06
1.96654e-06
1.95468e-06
2.11852e-06
2.1578e-06
2.14748e-06
3.01913e-06
5.54992e-06
8.65053e-33
7.519e-32
4.3196e-06
9.02986e-06
9.70058e-06
9.00183e-06
7.96677e-06
7.19532e-06
6.43029e-06
5.91125e-06
4.61935e-06
9.13505e-33
1.73799e-30
1.20985e-06
1.1696e-06
1.13784e-06
7.69106e-07
1.18409e-06
1.60607e-06
2.03643e-06
2.19884e-06
1.946e-06
1.91439e-06
1.98197e-06
2.09404e-06
2.03164e-06
1.90456e-06
5.37385e-06
8.61561e-33
8.47845e-32
3.63469e-06
8.31733e-06
9.67179e-06
9.07955e-06
8.04907e-06
7.26678e-06
6.65755e-06
6.17046e-06
4.72957e-06
1.9871e-06
1.43932e-06
1.12001e-06
1.00189e-06
1.10894e-06
1.14182e-06
1.35932e-06
1.56875e-06
2.00116e-06
2.29689e-06
1.91087e-06
1.87629e-06
1.87411e-06
2.02153e-06
2.08857e-06
2.15985e-06
5.18509e-06
9.04019e-33
8.92303e-32
3.26158e-06
7.03196e-06
9.55493e-06
9.13675e-06
8.19029e-06
7.41765e-06
6.83414e-06
6.17318e-06
4.0108e-06
2.77049e-06
1.87029e-06
1.47119e-06
1.18936e-06
1.27559e-06
1.10749e-06
1.21744e-06
1.58284e-06
1.68167e-06
2.27619e-06
1.88512e-06
1.8456e-06
1.8467e-06
1.96021e-06
2.10011e-06
2.30933e-06
5.00594e-06
9.00412e-33
8.5509e-32
3.14977e-06
5.33397e-06
9.26074e-06
9.1366e-06
8.35636e-06
7.55953e-06
7.01243e-06
6.0292e-06
3.7035e-06
2.68736e-06
1.98527e-06
1.64543e-06
1.45041e-06
1.42273e-06
1.2482e-06
1.19389e-06
1.39606e-06
1.38858e-06
2.17126e-06
1.85296e-06
1.81974e-06
1.81716e-06
1.87707e-06
2.06408e-06
2.25984e-06
4.80812e-06
9.68538e-33
8.69096e-32
3.23195e-06
4.42045e-06
8.72046e-06
9.15027e-06
8.53247e-06
7.73476e-06
7.19609e-06
5.89041e-06
3.30963e-06
2.40194e-06
1.96401e-06
1.55042e-06
1.48473e-06
1.48901e-06
1.46714e-06
1.40305e-06
1.51805e-06
1.79694e-06
2.10685e-06
1.83107e-06
1.80163e-06
1.78877e-06
1.80672e-06
1.95876e-06
2.22555e-06
4.48875e-06
9.68323e-33
1.03297e-31
3.66851e-06
4.1861e-06
8.06637e-06
9.22576e-06
8.71931e-06
7.92296e-06
7.39671e-06
5.83083e-06
2.97853e-06
2.20452e-06
1.87633e-06
1.46682e-06
1.67966e-06
1.57088e-06
1.62141e-06
1.59906e-06
1.80926e-06
1.99574e-06
1.80049e-06
1.76663e-06
1.772e-06
1.75467e-06
1.75482e-06
1.84907e-06
2.26271e-06
4.24704e-06
1.05832e-32
7.96843e-32
4.19652e-06
4.12534e-06
7.45379e-06
9.38546e-06
8.90131e-06
8.09887e-06
7.56815e-06
5.69235e-06
2.87827e-06
2.12243e-06
1.91001e-06
1.48745e-06
1.76416e-06
1.97259e-06
1.51368e-06
1.78651e-06
1.84636e-06
1.72923e-06
1.59705e-06
1.71433e-06
1.74762e-06
1.72975e-06
1.7265e-06
1.73672e-06
2.23372e-06
4.15612e-06
1.10434e-32
7.03965e-32
4.51996e-06
4.03851e-06
6.79403e-06
9.55907e-06
9.03879e-06
8.25638e-06
7.73668e-06
5.54376e-06
2.82242e-06
2.01111e-06
1.71587e-06
1.61024e-06
2.06573e-06
1.53678e-06
1.58839e-06
1.51914e-06
1.51793e-06
1.56165e-06
1.58166e-06
1.68193e-06
1.70576e-06
1.69293e-06
1.69278e-06
1.68848e-06
2.00371e-06
4.1372e-06
1.11408e-32
5.7028e-32
4.38343e-06
3.79021e-06
5.8661e-06
9.65768e-06
9.1145e-06
8.37904e-06
7.80877e-06
5.17474e-06
2.31708e-06
1.49647e-06
1.19576e-06
1.37789e-06
1.97042e-06
1.56459e-06
1.28739e-06
1.35732e-06
1.56086e-06
1.72611e-06
1.60923e-06
1.63502e-06
1.67289e-06
1.65858e-06
1.66355e-06
1.654e-06
1.92372e-06
4.1168e-06
1.21925e-32
5.53987e-32
2.98598e-06
2.98226e-06
5.64424e-06
9.71581e-06
9.15216e-06
8.52975e-06
7.75326e-06
4.403e-06
1.65938e-06
1.27282e-06
1.18567e-06
1.25655e-06
1.20081e-06
1.27503e-06
1.33271e-06
1.42867e-06
1.74328e-06
1.94123e-06
1.76701e-06
1.60866e-06
1.62475e-06
1.6144e-06
1.62621e-06
1.6174e-06
1.87537e-06
4.05974e-06
1.27806e-32
5.98668e-32
1.75426e-06
2.81863e-06
5.85629e-06
9.81613e-06
9.21028e-06
8.65756e-06
7.43477e-06
3.14965e-06
1.32317e-06
1.29444e-06
1.18163e-06
1.3325e-06
1.17338e-06
1.40831e-06
1.35397e-06
1.45612e-06
1.61057e-06
1.91783e-06
1.74309e-06
1.58221e-06
1.57937e-06
1.57697e-06
1.59072e-06
1.56503e-06
1.81548e-06
3.85549e-06
1.28229e-32
5.17758e-32
1.65784e-06
3.00277e-06
6.55914e-06
9.86631e-06
9.2923e-06
8.8082e-06
6.69181e-06
1.80368e-06
1.34857e-06
1.35318e-06
1.31527e-06
1.38198e-06
1.40999e-06
1.39899e-06
1.31674e-06
1.3258e-06
1.28342e-06
1.4512e-06
1.52441e-06
1.47444e-06
1.48268e-06
1.5125e-06
1.54334e-06
1.49176e-06
1.76194e-06
3.55937e-06
1.40886e-32
6.1166e-32
1.82683e-06
3.65073e-06
7.43553e-06
9.97499e-06
9.49299e-06
8.65855e-06
4.67311e-06
1.4218e-06
1.29397e-06
1.44605e-06
1.60331e-06
1.72907e-06
1.54289e-06
1.30009e-06
1.06933e-06
1.01881e-06
8.61886e-07
7.63323e-07
1.1101e-06
1.30689e-06
1.40825e-06
1.4727e-06
1.51058e-06
1.37783e-06
1.72823e-06
3.43495e-06
1.42081e-32
6.35221e-32
2.2855e-06
4.52954e-06
8.14141e-06
1.0136e-05
9.70816e-06
8.33258e-06
3.58425e-06
1.21988e-06
1.17983e-06
1.16082e-06
1.10453e-06
1.04903e-06
1.09641e-06
1.05369e-06
9.96405e-07
9.46139e-07
2.20731e-06
1.31657e-06
1.22553e-06
1.3495e-06
1.40675e-06
1.45171e-06
1.47557e-06
1.14609e-06
1.69917e-06
3.40642e-06
1.57975e-32
7.62e-32
2.68137e-06
5.32442e-06
8.7232e-06
1.02448e-05
9.67616e-06
7.25688e-06
2.19436e-06
9.96035e-07
9.88755e-07
1.00306e-06
9.65664e-07
8.81372e-07
7.72099e-07
7.65821e-07
8.28622e-07
9.72097e-07
1.05181e-06
1.10526e-06
1.24494e-06
1.34044e-06
1.38427e-06
1.42224e-06
1.43847e-06
6.11695e-07
1.61227e-06
3.37976e-06
1.65783e-32
7.83581e-32
3.07732e-06
5.96791e-06
9.12449e-06
1.03118e-05
9.61518e-06
6.14628e-06
1.53675e-06
9.49302e-07
9.77972e-07
1.00713e-06
9.99024e-07
9.67583e-07
9.94654e-07
6.28725e-07
9.13239e-07
1.03286e-06
1.10416e-06
1.16008e-06
1.25668e-06
1.31285e-06
1.3536e-06
1.38516e-06
1.39507e-06
1.9744e-30
1.53334e-06
3.33817e-06
1.67487e-32
8.87081e-32
3.2884e-06
6.56165e-06
9.43083e-06
1.03982e-05
9.4099e-06
5.08084e-06
7.75842e-32
1.13774e-06
9.60256e-07
9.79539e-07
9.49768e-07
9.07572e-07
8.64663e-07
7.07935e-07
7.40832e-07
9.72378e-07
1.07969e-06
1.13955e-06
1.22529e-06
1.27588e-06
1.2954e-06
1.32063e-06
1.33174e-06
1.84983e-30
1.39568e-06
3.28565e-06
1.87067e-32
9.0645e-32
3.42253e-06
6.93111e-06
9.59222e-06
1.04202e-05
8.94508e-06
4.22316e-06
8.96533e-32
1.14509e-06
9.65001e-07
9.60872e-07
9.1274e-07
8.85745e-07
8.56137e-07
7.38844e-07
7.71532e-07
9.34733e-07
1.01914e-06
1.0682e-06
1.12818e-06
1.17011e-06
1.18891e-06
1.20625e-06
1.21821e-06
1.35863e-30
1.24708e-06
3.20103e-06
1.9726e-32
1.00106e-31
3.45993e-06
7.01263e-06
9.76085e-06
1.04778e-05
8.79105e-06
4.14471e-06
9.60389e-07
7.99174e-07
9.10168e-07
8.74868e-07
8.34902e-07
8.1226e-07
7.94325e-07
6.48052e-07
6.84804e-07
8.13801e-07
8.76154e-07
9.07518e-07
9.48395e-07
9.70912e-07
9.73954e-07
9.85607e-07
9.98817e-07
1.0168e-30
1.02569e-06
3.06908e-06
1.98992e-32
1.03801e-31
3.50686e-06
6.74305e-06
9.76102e-06
1.04948e-05
8.82132e-06
4.33965e-06
8.03243e-07
5.35804e-07
5.52016e-07
5.17176e-07
5.04275e-07
4.94964e-07
4.94239e-07
4.44461e-07
4.59504e-07
4.92161e-07
4.9911e-07
4.99772e-07
5.01573e-07
5.05024e-07
5.06826e-07
5.08954e-07
5.16675e-07
6.63473e-07
6.19117e-07
2.95623e-06
2.19084e-32
7.19628e-32
3.33427e-06
3.41553e-06
3.61771e-06
4.15823e-06
4.72196e-06
5.14979e-06
5.5256e-06
5.73195e-06
5.79771e-06
5.77642e-06
5.69645e-06
5.5337e-06
5.28969e-06
4.96801e-06
4.54492e-06
4.06676e-06
3.50338e-06
2.93302e-06
2.27528e-06
1.75653e-06
1.48941e-06
1.5853e-06
2.05672e-06
2.91423e-06
3.54053e-06
3.58054e-06
4.04925e-32
2.7897e-32
4.97604e-06
4.94204e-06
5.05301e-06
5.19348e-06
5.39264e-06
5.50972e-06
5.49897e-06
5.4654e-06
5.46509e-06
5.42529e-06
5.28487e-06
5.09473e-06
4.90761e-06
4.67795e-06
4.40972e-06
4.10202e-06
3.73099e-06
3.33931e-06
2.91034e-06
2.51983e-06
2.40254e-06
2.47728e-06
2.73427e-06
3.25858e-06
3.6495e-06
4.18658e-06
4.19038e-32
2.91225e-28
1.24228e-06
9.1678e-07
8.70081e-07
8.77308e-07
8.37475e-07
7.39309e-07
6.57263e-07
6.06569e-07
6.19238e-07
1.17429e-06
4.81144e-06
4.48386e-06
4.35142e-06
4.21754e-06
4.04239e-06
3.82567e-06
3.5442e-06
3.22539e-06
2.85171e-06
2.52531e-06
2.52379e-06
2.54057e-06
2.50852e-06
2.89711e-06
3.35019e-06
4.13601e-06
4.38583e-32
3.0285e-23
3.36695e-07
1.8179e-07
1.45465e-07
1.09654e-07
5.50061e-08
5.96103e-08
6.06914e-08
5.71558e-08
3.12957e-08
7.94533e-08
1.01465e-06
4.17427e-06
4.08833e-06
3.93084e-06
3.69171e-06
3.3606e-06
2.89004e-06
2.5065e-06
2.09234e-06
1.79879e-06
1.82632e-06
2.54996e-06
1.86802e-06
2.42946e-06
3.23986e-06
4.06165e-06
3.38854e-32
2.65346e-22
1.64979e-06
8.35401e-08
4.65137e-08
3.72739e-08
1.81746e-08
1.05615e-08
1.65067e-08
6.78641e-09
1.12694e-09
6.11333e-09
4.68139e-07
3.58336e-06
3.14757e-06
2.72218e-06
2.13908e-06
1.8191e-06
1.74742e-06
1.76733e-06
1.76076e-06
1.75065e-06
1.77999e-06
1.80906e-06
1.86791e-06
1.84992e-06
2.91457e-06
4.02809e-06
3.25245e-32
1.65456e-21
3.47628e-06
3.14457e-06
5.04878e-08
2.24947e-08
8.52182e-10
1.9135e-10
2.75411e-10
3.64349e-10
1.47209e-10
2.34589e-10
1.19342e-07
2.29652e-06
1.73908e-06
1.54244e-06
1.50592e-06
1.62496e-06
1.69412e-06
1.80203e-06
1.82377e-06
1.81729e-06
1.83662e-06
1.85821e-06
1.77699e-06
2.12917e-06
2.70206e-06
4.00828e-06
2.80628e-32
4.1352e-26
3.80338e-06
5.88365e-06
3.46547e-06
3.14237e-06
2.81078e-06
2.21207e-06
1.25778e-08
1.36884e-09
3.35812e-10
3.64405e-11
1.90686e-07
1.43669e-06
1.11539e-06
1.02179e-06
1.07773e-06
1.44992e-06
1.59924e-06
1.79005e-06
1.82785e-06
1.81782e-06
1.84162e-06
1.81658e-06
1.78636e-06
1.91067e-06
2.63867e-06
3.94656e-06
2.79081e-32
9.12103e-29
3.61924e-06
6.39338e-06
6.31495e-06
5.80189e-06
5.17097e-06
4.5352e-06
2.42181e-06
2.19579e-06
1.55556e-06
3.59646e-10
2.05396e-07
1.17825e-06
1.00101e-06
9.2763e-07
8.69019e-07
1.1124e-06
1.33793e-06
1.72059e-06
1.83787e-06
1.78407e-06
1.74873e-06
1.81215e-06
1.77701e-06
1.79136e-06
2.25699e-06
3.88231e-06
2.83585e-32
3.61947e-31
3.04373e-06
6.35377e-06
6.79567e-06
6.31594e-06
5.58382e-06
5.02126e-06
4.38247e-06
4.04666e-06
3.11554e-06
1.62462e-08
1.67417e-07
1.07229e-06
1.0891e-06
1.0437e-06
7.03935e-07
1.00684e-06
1.56239e-06
1.72691e-06
1.89393e-06
1.75102e-06
1.72363e-06
1.72231e-06
1.7453e-06
1.68177e-06
1.66024e-06
3.77498e-06
2.8105e-32
5.45416e-31
2.6267e-06
5.94216e-06
6.82227e-06
6.39528e-06
5.67678e-06
5.11438e-06
4.72352e-06
4.42609e-06
3.46913e-06
1.21659e-06
1.09144e-06
1.12025e-06
8.31359e-07
9.56122e-07
8.72035e-07
9.87415e-07
1.37522e-06
1.64793e-06
1.85297e-06
1.69957e-06
1.68049e-06
1.66975e-06
1.71535e-06
1.71623e-06
1.90954e-06
3.64524e-06
2.84329e-32
4.80256e-31
2.41002e-06
4.9599e-06
6.74047e-06
6.41756e-06
5.78553e-06
5.23878e-06
4.88816e-06
4.51572e-06
3.09514e-06
2.23541e-06
1.59897e-06
1.55398e-06
1.06974e-06
1.38677e-06
9.98651e-07
1.00714e-06
1.32629e-06
1.36417e-06
1.79206e-06
1.67191e-06
1.64694e-06
1.65487e-06
1.69057e-06
1.70369e-06
1.99959e-06
3.52052e-06
2.82398e-32
5.1941e-31
2.32325e-06
3.76627e-06
6.50822e-06
6.41107e-06
5.90047e-06
5.34661e-06
5.01977e-06
4.45149e-06
2.92296e-06
2.2096e-06
1.65136e-06
1.86612e-06
1.22105e-06
1.45505e-06
1.10009e-06
1.0568e-06
1.39646e-06
1.30822e-06
1.74038e-06
1.64428e-06
1.61887e-06
1.61832e-06
1.64022e-06
1.6769e-06
1.97755e-06
3.37638e-06
2.93682e-32
4.96418e-31
2.31695e-06
3.31286e-06
6.12615e-06
6.42765e-06
6.0305e-06
5.47284e-06
5.14874e-06
4.32865e-06
2.60035e-06
2.03906e-06
1.81594e-06
1.86788e-06
1.45172e-06
1.55677e-06
1.37442e-06
1.36245e-06
1.44473e-06
1.46323e-06
1.69022e-06
1.62467e-06
1.59602e-06
1.58547e-06
1.60322e-06
1.62599e-06
1.9431e-06
3.1444e-06
2.92588e-32
7.65989e-31
2.50877e-06
3.2247e-06
5.74211e-06
6.51452e-06
6.16901e-06
5.60452e-06
5.29359e-06
4.2735e-06
2.31405e-06
1.94277e-06
1.5635e-06
1.69455e-06
1.33594e-06
1.79094e-06
1.28606e-06
1.28642e-06
1.48792e-06
1.53199e-06
1.55765e-06
1.57043e-06
1.56437e-06
1.54868e-06
1.55984e-06
1.58361e-06
1.92095e-06
3.00106e-06
3.08144e-32
1.28392e-30
2.93766e-06
3.19892e-06
5.40807e-06
6.65461e-06
6.29977e-06
5.72805e-06
5.41782e-06
4.17254e-06
2.20816e-06
1.80517e-06
1.70104e-06
1.45446e-06
1.5082e-06
2.31606e-06
1.34755e-06
1.37898e-06
1.4931e-06
1.50759e-06
1.57515e-06
1.53548e-06
1.53532e-06
1.52002e-06
1.53308e-06
1.53464e-06
1.86772e-06
2.95412e-06
3.08929e-32
1.90071e-30
3.2198e-06
3.11648e-06
4.94415e-06
6.7486e-06
6.38184e-06
5.82742e-06
5.5415e-06
4.06373e-06
2.13683e-06
1.61918e-06
1.53497e-06
1.3456e-06
1.60206e-06
1.55671e-06
1.19458e-06
1.26296e-06
1.54675e-06
1.65759e-06
1.64187e-06
1.48994e-06
1.48746e-06
1.4796e-06
1.49456e-06
1.49078e-06
1.70927e-06
2.95484e-06
3.23091e-32
4.74685e-31
3.20777e-06
2.90794e-06
4.13126e-06
6.78177e-06
6.43127e-06
5.91424e-06
5.61825e-06
3.78707e-06
1.83151e-06
1.33437e-06
1.12288e-06
1.33133e-06
1.49406e-06
1.29723e-06
1.27431e-06
1.46948e-06
1.79309e-06
1.96897e-06
1.65514e-06
1.43453e-06
1.44919e-06
1.44376e-06
1.46292e-06
1.45775e-06
1.62999e-06
2.9523e-06
3.27197e-32
3.83164e-31
2.20435e-06
2.20219e-06
4.07063e-06
6.80061e-06
6.43791e-06
6.00409e-06
5.58285e-06
3.25303e-06
1.49644e-06
1.38959e-06
1.32441e-06
1.43774e-06
1.34437e-06
1.33989e-06
1.49122e-06
1.6628e-06
2.05206e-06
2.18588e-06
1.72123e-06
1.40522e-06
1.39522e-06
1.4012e-06
1.42631e-06
1.41259e-06
1.58062e-06
2.9216e-06
3.29633e-32
3.0902e-31
1.33691e-06
2.11607e-06
4.21412e-06
6.84278e-06
6.47013e-06
6.08362e-06
5.3418e-06
2.46442e-06
1.35314e-06
1.54209e-06
1.26859e-06
1.5976e-06
1.25624e-06
1.69234e-06
1.50375e-06
1.63188e-06
1.98148e-06
2.2177e-06
1.63596e-06
1.34271e-06
1.33921e-06
1.36393e-06
1.39248e-06
1.35152e-06
1.52052e-06
2.77833e-06
3.38813e-32
2.81181e-31
1.35728e-06
2.2205e-06
4.76089e-06
6.85603e-06
6.49472e-06
6.11122e-06
4.80572e-06
1.33701e-06
1.56273e-06
1.6918e-06
1.59653e-06
1.71921e-06
1.68604e-06
1.7115e-06
1.54205e-06
1.62936e-06
1.54076e-06
1.6648e-06
1.22944e-06
1.18958e-06
1.24857e-06
1.3139e-06
1.35513e-06
1.26759e-06
1.47171e-06
2.57393e-06
3.35351e-32
1.92812e-31
1.44686e-06
2.70065e-06
5.42815e-06
6.88187e-06
6.57989e-06
5.99174e-06
3.26721e-06
1.27808e-06
1.60566e-06
1.81193e-06
1.99922e-06
2.12985e-06
1.90595e-06
1.51845e-06
1.23399e-06
1.23815e-06
1.20164e-06
9.96929e-07
9.62459e-07
1.14539e-06
1.23992e-06
1.30265e-06
1.33518e-06
1.13387e-06
1.44605e-06
2.49389e-06
3.51122e-32
1.72221e-31
1.76916e-06
3.39553e-06
5.89434e-06
6.97945e-06
6.7509e-06
5.82366e-06
2.65335e-06
9.41903e-07
1.07547e-06
1.06329e-06
1.0203e-06
9.77571e-07
9.99289e-07
9.11391e-07
8.36527e-07
9.76654e-07
1.69996e-06
1.32638e-06
1.13967e-06
1.21772e-06
1.26186e-06
1.29477e-06
1.30623e-06
8.76286e-07
1.40827e-06
2.45452e-06
3.59788e-32
1.72882e-31
2.06338e-06
3.99265e-06
6.26279e-06
7.0612e-06
6.73482e-06
5.18205e-06
1.55438e-06
8.73379e-07
8.57826e-07
8.73936e-07
8.54536e-07
7.90394e-07
7.31653e-07
7.13288e-07
7.73373e-07
9.27488e-07
9.98254e-07
1.04368e-06
1.12967e-06
1.20452e-06
1.23744e-06
1.26682e-06
1.2736e-06
5.36077e-07
1.32979e-06
2.41645e-06
3.58282e-32
1.53915e-31
2.3385e-06
4.4406e-06
6.49085e-06
7.11348e-06
6.71606e-06
4.49271e-06
1.05569e-06
8.73313e-07
8.52522e-07
8.77502e-07
8.84452e-07
8.67158e-07
9.10432e-07
6.45654e-07
8.40261e-07
9.73258e-07
1.03e-06
1.08172e-06
1.13596e-06
1.1781e-06
1.2037e-06
1.22738e-06
1.23034e-06
4.13933e-07
1.24594e-06
2.36777e-06
3.77213e-32
1.82365e-31
2.48012e-06
4.87402e-06
6.67596e-06
7.19079e-06
6.63221e-06
3.66975e-06
8.1741e-08
1.00887e-06
8.12906e-07
8.24572e-07
8.00611e-07
7.6886e-07
7.57071e-07
6.49501e-07
6.83865e-07
8.66643e-07
9.63321e-07
1.01831e-06
1.07364e-06
1.1155e-06
1.12921e-06
1.14814e-06
1.1539e-06
3.71773e-07
1.11761e-06
2.33196e-06
3.76742e-32
1.80766e-31
2.559e-06
5.06491e-06
6.77274e-06
7.22114e-06
6.31015e-06
3.08581e-06
5.7068e-08
9.95415e-07
8.02731e-07
7.99903e-07
7.6091e-07
7.47873e-07
7.25485e-07
6.49494e-07
6.9358e-07
7.9968e-07
8.6574e-07
9.10321e-07
9.50989e-07
9.76312e-07
9.9078e-07
1.00572e-06
1.01251e-06
3.05737e-07
9.84766e-07
2.28512e-06
4.01194e-32
2.2034e-31
2.59629e-06
5.08531e-06
6.87725e-06
7.27433e-06
6.24271e-06
3.15046e-06
6.19751e-07
6.05953e-07
6.81351e-07
6.47382e-07
6.32729e-07
6.2619e-07
6.15075e-07
5.25842e-07
5.71595e-07
6.21158e-07
6.69893e-07
6.94785e-07
7.14238e-07
7.14375e-07
7.14837e-07
7.21657e-07
7.25454e-07
2.77644e-07
7.6785e-07
2.21433e-06
4.13971e-32
2.51146e-31
2.62847e-06
4.86386e-06
6.86895e-06
7.31711e-06
6.31146e-06
3.38512e-06
4.82875e-07
2.55346e-07
2.48819e-07
2.55333e-07
2.68214e-07
2.75925e-07
2.786e-07
2.93766e-07
3.09396e-07
2.7269e-07
2.51556e-07
2.41891e-07
2.08004e-07
1.89541e-07
1.86344e-07
1.85293e-07
1.84024e-07
4.38189e-07
3.32236e-07
2.16076e-06
4.26982e-32
9.36447e-07
2.46864e-06
2.43717e-06
2.62039e-06
2.92365e-06
3.27982e-06
3.59173e-06
3.85813e-06
3.96579e-06
3.9799e-06
3.92951e-06
3.83504e-06
3.65879e-06
3.41362e-06
3.10074e-06
2.71718e-06
2.33076e-06
1.95844e-06
1.67702e-06
1.49234e-06
1.53964e-06
1.7445e-06
1.50215e-06
1.34025e-06
1.60256e-06
2.13043e-06
2.19343e-06
2.73564e-07
2.16466e-07
3.15326e-06
3.15701e-06
3.26704e-06
3.43082e-06
3.66874e-06
3.83885e-06
3.89487e-06
3.92677e-06
3.97851e-06
3.98272e-06
3.90792e-06
3.75426e-06
3.58588e-06
3.38834e-06
3.18522e-06
2.95835e-06
2.6899e-06
2.43877e-06
2.20496e-06
2.05899e-06
2.05739e-06
2.03777e-06
2.09239e-06
2.37802e-06
2.66017e-06
2.94541e-06
1.55205e-07
7.28174e-07
1.42335e-06
1.3956e-06
1.36689e-06
1.42246e-06
1.40986e-06
1.29666e-06
1.21776e-06
1.20019e-06
1.35876e-06
2.04577e-06
3.66786e-06
3.42756e-06
3.34507e-06
3.23825e-06
3.09159e-06
2.91322e-06
2.71083e-06
2.5045e-06
2.29367e-06
2.22646e-06
2.3673e-06
2.38669e-06
2.18881e-06
2.27953e-06
2.5342e-06
3.05368e-06
1.84889e-31
1.07756e-06
5.78992e-07
7.92264e-07
7.42734e-07
6.78134e-07
5.72682e-07
5.20008e-07
5.19537e-07
6.24676e-07
7.44382e-07
9.75785e-07
1.87499e-06
3.23352e-06
3.17721e-06
3.0544e-06
2.85113e-06
2.56016e-06
2.19581e-06
1.95481e-06
1.76758e-06
1.7925e-06
2.09456e-06
2.6659e-06
2.0443e-06
1.97297e-06
2.46521e-06
2.9971e-06
1.44445e-31
1.28632e-06
5.50566e-07
7.83492e-07
6.82945e-07
6.39326e-07
5.92138e-07
5.81163e-07
6.13364e-07
6.85769e-07
6.81806e-07
7.13785e-07
1.30767e-06
2.87754e-06
2.5584e-06
2.19355e-06
1.74689e-06
1.6118e-06
1.69502e-06
1.79155e-06
1.82494e-06
1.85915e-06
1.93341e-06
2.04067e-06
2.14269e-06
1.97902e-06
2.23392e-06
2.97105e-06
1.46872e-31
1.50481e-06
1.6299e-06
1.21457e-06
6.60724e-07
5.84133e-07
4.87427e-07
5.67557e-07
6.55916e-07
6.67398e-07
6.00319e-07
4.74689e-07
7.14977e-07
1.86566e-06
1.43691e-06
1.35852e-06
1.38549e-06
1.52449e-06
1.65344e-06
1.80825e-06
1.84715e-06
1.8369e-06
1.83497e-06
1.85015e-06
1.89746e-06
2.32721e-06
2.12518e-06
2.95945e-06
1.12091e-31
1.42011e-06
2.34512e-06
3.60422e-06
1.50802e-06
1.36722e-06
1.25416e-06
8.96079e-07
5.97671e-07
5.72522e-07
4.98344e-07
3.89914e-07
5.06779e-07
1.19307e-06
9.84554e-07
9.64777e-07
1.01833e-06
1.31626e-06
1.50558e-06
1.75612e-06
1.83383e-06
1.81688e-06
1.7792e-06
1.75341e-06
1.77034e-06
1.96772e-06
2.11611e-06
2.91836e-06
1.11752e-31
1.27567e-06
2.40016e-06
4.455e-06
4.191e-06
3.86894e-06
3.51828e-06
2.95233e-06
1.14946e-06
1.01089e-06
6.6132e-07
3.11693e-07
5.16252e-07
1.03982e-06
9.59365e-07
9.60726e-07
9.51397e-07
1.02676e-06
1.35187e-06
1.67652e-06
1.8203e-06
1.75762e-06
1.72545e-06
1.72756e-06
1.70481e-06
1.80652e-06
1.87647e-06
2.87063e-06
1.14237e-31
7.80674e-07
2.16992e-06
4.52578e-06
4.9247e-06
4.59275e-06
4.13281e-06
3.70744e-06
3.07345e-06
2.80516e-06
2.05637e-06
2.97313e-07
5.09582e-07
1.02532e-06
1.06616e-06
1.06054e-06
8.45776e-07
9.815e-07
1.73232e-06
1.65824e-06
1.84105e-06
1.71566e-06
1.69689e-06
1.67227e-06
1.67022e-06
1.72881e-06
1.95752e-06
2.80676e-06
1.13121e-31
5.42475e-07
1.9162e-06
4.34531e-06
4.9863e-06
4.70827e-06
4.25402e-06
3.84768e-06
3.53948e-06
3.31001e-06
2.66687e-06
8.50866e-07
8.97323e-07
1.25471e-06
8.42016e-07
1.08523e-06
8.24021e-07
8.44815e-07
1.48927e-06
1.57785e-06
1.82056e-06
1.6565e-06
1.63797e-06
1.63412e-06
1.63712e-06
1.68609e-06
2.21701e-06
2.71698e-06
1.14423e-31
5.6677e-07
1.80931e-06
3.5835e-06
4.93698e-06
4.71648e-06
4.33288e-06
3.9539e-06
3.71464e-06
3.48955e-06
2.57189e-06
2.03358e-06
1.51862e-06
1.96414e-06
1.20846e-06
1.87331e-06
1.22463e-06
1.14542e-06
1.60813e-06
1.43651e-06
1.87894e-06
1.63909e-06
1.60219e-06
1.6135e-06
1.62289e-06
1.63535e-06
2.20192e-06
2.62916e-06
1.11659e-31
6.84422e-07
1.73794e-06
2.7375e-06
4.74601e-06
4.70889e-06
4.4033e-06
4.03128e-06
3.81484e-06
3.46882e-06
2.68787e-06
2.05273e-06
1.60458e-06
2.33053e-06
1.28288e-06
1.89059e-06
1.26663e-06
1.25078e-06
1.84363e-06
1.54071e-06
1.93323e-06
1.62043e-06
1.56454e-06
1.563e-06
1.57156e-06
1.57485e-06
2.12068e-06
2.51509e-06
1.20064e-31
8.1714e-07
1.69095e-06
2.48302e-06
4.44995e-06
4.72794e-06
4.49115e-06
4.1165e-06
3.90019e-06
3.35445e-06
2.29039e-06
1.9993e-06
1.94346e-06
2.4482e-06
1.80031e-06
2.05436e-06
1.73858e-06
1.75289e-06
1.87189e-06
1.63123e-06
1.81505e-06
1.60791e-06
1.53451e-06
1.52625e-06
1.55008e-06
1.53752e-06
2.00183e-06
2.34981e-06
1.24724e-31
3.64948e-14
1.68589e-06
2.45308e-06
4.19922e-06
4.80987e-06
4.58457e-06
4.20328e-06
4.00014e-06
3.29318e-06
2.10572e-06
2.01641e-06
1.55357e-06
2.29386e-06
1.33913e-06
2.36262e-06
1.33423e-06
1.29308e-06
1.70953e-06
1.4961e-06
1.90871e-06
1.58365e-06
1.49405e-06
1.48327e-06
1.50938e-06
1.51846e-06
1.88062e-06
2.2753e-06
1.23456e-31
2.07266e-30
2.00931e-06
2.47969e-06
4.01585e-06
4.90243e-06
4.66829e-06
4.28802e-06
4.08521e-06
3.20746e-06
1.97316e-06
1.9233e-06
1.88191e-06
1.93015e-06
1.69335e-06
2.81511e-06
1.70065e-06
1.47485e-06
1.71417e-06
1.82155e-06
2.0397e-06
1.55381e-06
1.45805e-06
1.4492e-06
1.47934e-06
1.48461e-06
1.78963e-06
2.27148e-06
1.3326e-31
9.98637e-29
2.34997e-06
2.46138e-06
3.68006e-06
4.93707e-06
4.71213e-06
4.34348e-06
4.16864e-06
3.12908e-06
1.92272e-06
1.72426e-06
1.57669e-06
1.67957e-06
1.43233e-06
1.97215e-06
1.22214e-06
1.41093e-06
2.06164e-06
2.04633e-06
2.07458e-06
1.4841e-06
1.40109e-06
1.40334e-06
1.43425e-06
1.42788e-06
1.70077e-06
2.28825e-06
1.34444e-31
2.01743e-30
2.42722e-06
2.31681e-06
2.98656e-06
4.94407e-06
4.74703e-06
4.40055e-06
4.23642e-06
2.93164e-06
1.73649e-06
1.69292e-06
1.39355e-06
1.81781e-06
1.36295e-06
1.52281e-06
1.64495e-06
1.94001e-06
2.43778e-06
2.45744e-06
1.97844e-06
1.40184e-06
1.35663e-06
1.36773e-06
1.40297e-06
1.39047e-06
1.6096e-06
2.29141e-06
1.39089e-31
1.41733e-30
1.78746e-06
1.74837e-06
2.9799e-06
4.94683e-06
4.74246e-06
4.44258e-06
4.21214e-06
2.52394e-06
1.71526e-06
1.92297e-06
1.79636e-06
2.01745e-06
1.79368e-06
1.72996e-06
2.02057e-06
2.27398e-06
2.6402e-06
2.7596e-06
1.87232e-06
1.34713e-06
1.29646e-06
1.32695e-06
1.36741e-06
1.33139e-06
1.55289e-06
2.26465e-06
1.36736e-31
9.88394e-31
1.13875e-06
1.64294e-06
3.08119e-06
4.9585e-06
4.76045e-06
4.48189e-06
4.01213e-06
2.0249e-06
1.60852e-06
2.12298e-06
1.58657e-06
2.19396e-06
1.57815e-06
2.32629e-06
1.92386e-06
2.10575e-06
2.81433e-06
2.85159e-06
1.72699e-06
1.24573e-06
1.23355e-06
1.29499e-06
1.33926e-06
1.26047e-06
1.48489e-06
2.1483e-06
1.3937e-31
7.64599e-31
1.18762e-06
1.68056e-06
3.5053e-06
4.95888e-06
4.7529e-06
4.42676e-06
3.58663e-06
1.27216e-06
1.97145e-06
2.2968e-06
2.05655e-06
2.34623e-06
2.145e-06
2.33277e-06
2.04026e-06
2.26006e-06
2.35919e-06
2.4346e-06
1.23156e-06
1.12768e-06
1.20099e-06
1.2761e-06
1.31172e-06
1.16543e-06
1.42906e-06
2.00887e-06
1.37891e-31
6.48023e-31
1.21651e-06
1.99412e-06
4.06591e-06
4.94742e-06
4.75908e-06
4.32136e-06
2.34496e-06
1.45875e-06
2.17409e-06
2.35338e-06
2.56189e-06
2.69164e-06
2.51336e-06
2.04719e-06
1.72379e-06
1.65651e-06
1.65093e-06
1.50411e-06
1.12012e-06
1.16153e-06
1.23015e-06
1.28195e-06
1.29976e-06
1.02769e-06
1.39343e-06
1.95566e-06
1.41238e-31
4.3008e-31
1.40261e-06
2.55725e-06
4.40991e-06
5.00477e-06
4.88893e-06
4.21666e-06
1.99452e-06
8.64675e-07
1.01182e-06
1.00444e-06
9.89384e-07
9.54587e-07
9.5567e-07
8.3603e-07
8.3256e-07
1.10984e-06
1.50933e-06
1.37229e-06
1.18689e-06
1.22559e-06
1.24779e-06
1.2678e-06
1.26677e-06
8.33066e-07
1.3254e-06
1.91485e-06
1.36808e-31
3.90117e-31
1.63264e-06
3.06227e-06
4.65877e-06
5.08117e-06
4.89576e-06
3.82146e-06
1.1612e-06
8.47428e-07
7.84774e-07
8.0811e-07
8.06791e-07
7.76823e-07
7.7914e-07
7.11688e-07
7.77573e-07
9.58057e-07
1.02576e-06
1.0841e-06
1.12203e-06
1.18238e-06
1.20864e-06
1.23235e-06
1.23097e-06
7.26383e-07
1.24052e-06
1.88213e-06
1.43441e-31
3.91229e-31
1.83234e-06
3.40222e-06
4.79219e-06
5.13106e-06
4.90175e-06
3.41216e-06
8.20879e-07
8.89775e-07
7.65871e-07
7.83173e-07
8.01932e-07
7.98432e-07
8.76964e-07
7.15693e-07
8.11827e-07
9.70032e-07
1.01784e-06
1.07795e-06
1.10977e-06
1.14133e-06
1.15762e-06
1.1749e-06
1.17231e-06
6.84893e-07
1.14029e-06
1.84685e-06
1.41013e-31
3.45943e-31
1.93871e-06
3.73284e-06
4.91698e-06
5.20835e-06
4.89258e-06
2.69921e-06
3.3876e-07
9.7868e-07
7.12046e-07
7.16767e-07
6.90094e-07
6.6927e-07
6.92173e-07
6.50877e-07
6.73112e-07
7.97855e-07
8.95538e-07
9.52482e-07
9.93558e-07
1.0343e-06
1.05298e-06
1.07093e-06
1.07127e-06
6.50713e-07
1.00625e-06
1.84028e-06
1.54127e-31
4.33086e-31
1.98023e-06
3.82339e-06
4.98411e-06
5.24776e-06
4.69209e-06
2.2826e-06
3.44852e-07
9.3524e-07
6.80388e-07
6.77687e-07
6.49401e-07
6.49496e-07
6.18881e-07
6.13969e-07
6.78541e-07
7.06028e-07
7.67974e-07
8.18889e-07
8.48186e-07
8.56754e-07
8.78353e-07
8.98268e-07
9.00359e-07
5.48677e-07
8.57868e-07
1.82682e-06
1.64674e-31
4.43168e-31
2.01356e-06
3.81584e-06
5.04958e-06
5.29284e-06
4.67497e-06
2.40876e-06
5.17683e-07
5.16206e-07
4.62463e-07
4.76438e-07
4.82804e-07
4.86864e-07
4.7068e-07
4.73007e-07
5.71157e-07
4.89876e-07
5.54972e-07
5.91555e-07
6.12768e-07
5.82531e-07
5.97939e-07
6.19726e-07
6.13005e-07
4.66267e-07
6.02229e-07
1.79749e-06
1.59562e-31
5.55964e-31
2.03673e-06
3.63673e-06
5.03902e-06
5.34806e-06
4.75986e-06
2.69254e-06
3.89399e-07
2.1301e-07
2.42724e-07
2.91232e-07
3.41607e-07
3.34314e-07
2.9043e-07
2.95615e-07
4.1023e-07
3.81013e-07
3.83046e-07
4.25411e-07
3.56456e-07
3.2468e-07
3.07986e-07
3.09382e-07
3.02543e-07
3.23851e-07
2.17434e-07
1.78535e-06
1.79705e-31
2.43711e-06
2.49025e-06
2.74544e-06
2.81343e-06
2.90301e-06
2.95709e-06
3.02063e-06
3.0881e-06
3.06411e-06
3.0054e-06
2.93523e-06
2.80065e-06
2.63334e-06
2.42647e-06
2.21291e-06
2.03077e-06
1.92313e-06
1.92417e-06
2.02305e-06
2.27496e-06
2.55969e-06
2.81215e-06
2.49033e-06
2.01143e-06
1.51564e-06
1.46825e-06
1.48579e-06
9.01491e-07
1.37037e-06
2.17497e-06
2.24917e-06
2.36364e-06
2.55636e-06
2.7676e-06
2.92813e-06
2.98647e-06
3.02465e-06
3.06211e-06
3.0525e-06
2.9948e-06
2.87266e-06
2.74808e-06
2.58778e-06
2.44586e-06
2.31274e-06
2.19588e-06
2.13808e-06
2.14958e-06
2.21134e-06
2.28189e-06
2.18622e-06
2.01353e-06
1.96143e-06
2.05066e-06
2.17349e-06
4.77497e-07
1.87952e-06
1.47883e-06
1.50563e-06
1.47793e-06
1.52691e-06
1.49601e-06
1.38965e-06
1.35679e-06
1.402e-06
1.65261e-06
2.24298e-06
2.94162e-06
2.7644e-06
2.70604e-06
2.61696e-06
2.51308e-06
2.40152e-06
2.3085e-06
2.22777e-06
2.19078e-06
2.34561e-06
2.56933e-06
2.61626e-06
2.27295e-06
2.06179e-06
2.07483e-06
2.36098e-06
2.39584e-07
2.10807e-06
1.07933e-06
1.08784e-06
9.4787e-07
8.81339e-07
7.66248e-07
7.57391e-07
8.02665e-07
9.97531e-07
1.16016e-06
1.4331e-06
2.10301e-06
2.65207e-06