/*--------------------------------*- C++ -*----------------------------------*\
| =========                 |                                                 |
| \\      /  F ield         | OpenFOAM: The Open Source CFD Toolbox           |
|  \\    /   O peration     | Version:  2.3.0                                 |
|   \\  /    A nd           | Web:      www.OpenFOAM.org                      |
|    \\/     M anipulation  |                                                 |
\*---------------------------------------------------------------------------*/
FoamFile
{
    version     2.0;
    format      ascii;
    class       volScalarField;
    location    "1.90041";
    object      nut.air;
}
// * * * * * * * * * * * * * * * * * * * * * * * * * * * * * * * * * * * * * //

dimensions      [0 2 -1 0 0 0 0];

internalField   nonuniform List<scalar> 
18816
(
5.40878e-08
1.06129e-07
1.15116e-07
1.2086e-07
1.39225e-07
1.56475e-07
1.68718e-07
1.80642e-07
1.88784e-07
1.92013e-07
1.93572e-07
1.92228e-07
1.88951e-07
1.8321e-07
1.75421e-07
1.64767e-07
1.52303e-07
1.36658e-07
1.19377e-07
9.80175e-08
7.69262e-08
6.08125e-08
6.90712e-08
8.94197e-08
1.13071e-07
1.26267e-07
1.25159e-07
6.02166e-08
2.57902e-34
1.64239e-07
1.69521e-07
1.72445e-07
1.75703e-07
1.79913e-07
1.82131e-07
1.82119e-07
1.80103e-07
1.78536e-07
1.76451e-07
1.70695e-07
1.63996e-07
1.5756e-07
1.50517e-07
1.42437e-07
1.3327e-07
1.22132e-07
1.10305e-07
9.66808e-08
8.26037e-08
7.67411e-08
8.0052e-08
8.98004e-08
1.06869e-07
1.19822e-07
1.40718e-07
2.28022e-34
4.32901e-34
9.68106e-35
8.13118e-35
7.39487e-35
6.79814e-35
6.4015e-35
6.34809e-35
6.11326e-35
6.24899e-35
6.65709e-35
7.86906e-35
1.49745e-07
1.40756e-07
1.35894e-07
1.31663e-07
1.26319e-07
1.19974e-07
1.11454e-07
1.01657e-07
8.92452e-08
7.62006e-08
7.08964e-08
7.11775e-08
7.44554e-08
8.88947e-08
1.05502e-07
1.34008e-07
2.03668e-34
6.03367e-34
1.59763e-34
8.51007e-35
7.69513e-35
6.78873e-35
6.49938e-35
6.32035e-35
6.07799e-35
7.03276e-35
7.51959e-35
1.04589e-34
1.39971e-34
1.27292e-07
1.24081e-07
1.19127e-07
1.11925e-07
1.02948e-07
8.99304e-08
7.81536e-08
6.47083e-08
5.24812e-08
4.32994e-08
5.7698e-08
4.70173e-08
7.42019e-08
1.01831e-07
1.31997e-07
1.94123e-34
8.9155e-34
9.66386e-08
1.10787e-34
8.71978e-35
7.93005e-35
6.46308e-35
6.65461e-35
7.41133e-35
7.10653e-35
7.95719e-35
1.34735e-34
2.32559e-34
1.04872e-07
9.10956e-08
7.73064e-08
6.55386e-08
7.15873e-08
6.98936e-08
7.27086e-08
6.46369e-08
6.03856e-08
5.72038e-08
5.15287e-08
4.49503e-08
4.74951e-08
9.0856e-08
1.30078e-07
1.8891e-34
1.12598e-33
1.30315e-07
1.49342e-07
9.74441e-35
8.2216e-35
6.88023e-35
6.73335e-35
6.74722e-35
7.8156e-35
8.65991e-35
1.46142e-34
4.78117e-34
6.5378e-08
5.18349e-08
5.87432e-08
8.09821e-08
1.08708e-07
1.22364e-07
1.3277e-07
9.43989e-08
6.93781e-08
6.37851e-08
5.87263e-08
4.54348e-08
4.819e-08
8.2111e-08
1.28743e-07
1.83801e-34
1.20557e-33
1.3073e-07
2.04847e-07
1.54242e-07
1.39525e-07
1.25628e-07
1.08288e-07
7.80712e-35
8.03007e-35
9.99819e-35
1.55047e-34
6.58046e-33
3.99928e-08
3.05946e-08
3.10175e-08
3.45714e-08
5.11098e-08
5.99269e-08
1.10455e-07
1.56913e-07
1.54969e-07
7.26606e-08
6.40954e-08
4.85197e-08
4.88921e-08
7.94157e-08
1.26341e-07
1.9009e-34
1.39202e-33
1.15318e-07
2.09038e-07
2.11661e-07
1.94009e-07
1.73298e-07
1.55757e-07
1.04975e-07
9.56122e-08
7.30399e-08
1.76439e-34
1.39033e-32
3.13893e-08
2.51742e-08
2.19922e-08
2.03091e-08
3.00952e-08
3.72143e-08
6.27846e-08
1.57514e-07
3.35041e-07
1.5033e-07
7.02808e-08
5.69675e-08
4.80825e-08
6.75992e-08
1.24264e-07
1.93688e-34
1.68331e-33
9.6704e-08
2.02153e-07
2.17167e-07
2.01524e-07
1.78351e-07
1.6108e-07
1.43953e-07
1.32333e-07
1.03412e-07
2.04502e-34
3.89075e-32
2.70843e-08
2.61833e-08
2.54721e-08
1.72176e-08
2.65074e-08
3.59545e-08
4.70587e-08
7.79754e-08
3.72192e-07
3.18967e-07
1.09207e-07
6.409e-08
4.55059e-08
4.26395e-08
1.2031e-07
1.92887e-34
1.89793e-33
8.13633e-08
1.86184e-07
2.16503e-07
2.03245e-07
1.80178e-07
1.62665e-07
1.49028e-07
1.38124e-07
1.0587e-07
4.44806e-08
3.22186e-08
2.50711e-08
2.24269e-08
2.4823e-08
2.5559e-08
3.04275e-08
3.51155e-08
4.47946e-08
7.02097e-08
3.67562e-07
3.70576e-07
2.25111e-07
6.71648e-08
4.76675e-08
4.83502e-08
1.16073e-07
2.02373e-34
1.99726e-33
7.30044e-08
1.57397e-07
2.13868e-07
2.04507e-07
1.83322e-07
1.66028e-07
1.52967e-07
1.38172e-07
8.97733e-08
6.20112e-08
4.18624e-08
3.29293e-08
2.6621e-08
2.8551e-08
2.47886e-08
2.72493e-08
3.54279e-08
3.76398e-08
5.63522e-08
3.48747e-07
3.698e-07
3.33283e-07
9.31575e-08
5.17911e-08
5.16914e-08
1.12052e-07
2.01546e-34
1.91379e-33
7.04953e-08
1.1938e-07
2.07265e-07
2.04486e-07
1.87023e-07
1.69189e-07
1.56944e-07
1.34938e-07
8.28876e-08
6.01455e-08
4.44322e-08
3.68262e-08
3.24614e-08
3.18417e-08
2.79356e-08
2.67201e-08
3.12447e-08
3.10771e-08
4.86964e-08
3.28395e-07
3.64875e-07
3.59594e-07
1.76285e-07
5.95176e-08
5.05787e-08
1.07613e-07
2.16774e-34
1.94497e-33
7.23282e-08
9.89255e-08
1.95155e-07
2.04774e-07
1.90948e-07
1.73096e-07
1.61041e-07
1.31821e-07
7.40661e-08
5.37531e-08
4.39526e-08
3.4697e-08
3.32266e-08
3.33224e-08
3.28329e-08
3.13985e-08
3.3972e-08
4.02132e-08
4.71511e-08
3.12523e-07
3.61224e-07
3.58296e-07
2.8805e-07
6.08659e-08
4.98066e-08
1.00456e-07
2.16705e-34
2.3115e-33
8.20906e-08
9.36729e-08
1.80501e-07
2.06445e-07
1.95112e-07
1.77292e-07
1.65517e-07
1.30477e-07
6.6651e-08
4.93312e-08
4.1987e-08
3.28235e-08
3.75859e-08
3.51517e-08
3.62824e-08
3.57822e-08
4.04857e-08
4.46584e-08
5.22154e-08
2.95749e-07
3.55252e-07
3.51764e-07
3.38403e-07
7.35919e-08
5.06333e-08
9.50372e-08
2.36824e-34
1.78296e-33
9.38978e-08
9.2305e-08
1.66779e-07
2.1e-07
1.99168e-07
1.81213e-07
1.69338e-07
1.27367e-07
6.44021e-08
4.74903e-08
4.27373e-08
3.32825e-08
3.94736e-08
4.41374e-08
3.3869e-08
3.99735e-08
4.13123e-08
3.99525e-08
7.10331e-08
3.33735e-07
3.50334e-07
3.4675e-07
3.45093e-07
1.8534e-07
5.01309e-08
9.29937e-08
2.47097e-34
1.57499e-33
1.01125e-07
9.03541e-08
1.52003e-07
2.13866e-07
2.02226e-07
1.84722e-07
1.73095e-07
1.24032e-07
6.31473e-08
4.49958e-08
3.83902e-08
3.60269e-08
4.62175e-08
3.43833e-08
3.55376e-08
3.60618e-08
5.02417e-08
8.75089e-08
2.59517e-07
3.36631e-07
3.41912e-07
3.3934e-07
3.39273e-07
2.99538e-07
6.04261e-08
9.25616e-08
2.49254e-34
1.27577e-33
9.80619e-08
8.4791e-08
1.31231e-07
2.16053e-07
2.03902e-07
1.8745e-07
1.74693e-07
1.15766e-07
5.1837e-08
3.34785e-08
2.679e-08
3.7216e-08
4.4082e-08
3.50024e-08
3.97354e-08
1.01959e-07
2.48785e-07
3.25034e-07
3.20807e-07
3.27686e-07
3.35294e-07
3.32429e-07
3.33419e-07
3.1947e-07
5.95688e-08
9.20964e-08
2.72758e-34
1.23921e-33
6.67934e-08
6.67101e-08
1.26256e-07
2.17334e-07
2.04727e-07
1.90805e-07
1.73437e-07
9.84932e-08
3.75137e-08
4.13236e-08
4.73063e-08
4.9663e-08
2.68651e-08
4.30133e-08
1.77161e-07
2.71641e-07
3.44693e-07
3.87777e-07
3.54026e-07
3.22386e-07
3.25616e-07
3.23543e-07
3.25909e-07
3.18502e-07
5.84889e-08
9.08111e-08
2.85885e-34
1.33903e-33
3.95975e-08
6.30439e-08
1.30987e-07
2.19558e-07
2.06009e-07
1.93647e-07
1.66298e-07
7.04504e-08
7.01065e-08
1.61104e-07
1.86467e-07
2.24582e-07
1.19109e-07
2.52776e-07
2.58517e-07
2.84583e-07
3.20554e-07
3.83844e-07
3.49265e-07
3.17058e-07
3.16492e-07
3.16015e-07
3.18768e-07
3.09558e-07
5.66414e-08
8.62343e-08
2.86806e-34
1.15795e-33
4.88935e-08
6.71563e-08
1.46694e-07
2.2066e-07
2.07824e-07
1.96999e-07
1.49667e-07
4.39875e-08
2.4968e-07
2.61234e-07
2.52494e-07
2.60691e-07
2.5873e-07
2.60086e-07
2.52898e-07
2.62452e-07
2.56889e-07
2.9078e-07
3.05443e-07
2.95439e-07
2.97091e-07
3.03067e-07
3.09246e-07
2.95477e-07
5.4627e-08
7.96035e-08
3.15085e-34
1.36784e-33
5.19305e-08
8.16401e-08
1.66279e-07
2.2307e-07
2.12292e-07
1.93632e-07
1.04506e-07
1.81809e-07
2.55913e-07
2.84353e-07
3.00452e-07
3.0992e-07
2.7557e-07
2.46437e-07
2.11334e-07
2.03712e-07
1.72695e-07
1.52946e-07
2.22418e-07
2.61847e-07
2.82154e-07
2.95067e-07
3.02654e-07
2.72948e-07
5.33646e-08
7.68139e-08
3.17727e-34
1.42039e-33
5.58107e-08
1.01283e-07
1.82047e-07
2.26648e-07
2.17082e-07
1.86322e-07
8.01468e-08
2.39183e-07
2.35667e-07
2.31813e-07
2.19568e-07
2.03933e-07
2.06361e-07
2.0086e-07
1.96319e-07
1.89158e-07
4.42215e-07
2.63763e-07
2.45524e-07
2.70359e-07
2.81827e-07
2.90833e-07
2.95613e-07
2.26906e-07
5.23795e-08
7.61687e-08
3.53237e-34
1.70371e-33
6.01757e-08
1.19046e-07
1.95037e-07
2.29059e-07
2.16345e-07
1.62253e-07
5.42431e-08
1.98547e-07
1.97496e-07
2.00468e-07
1.93355e-07
1.76463e-07
1.54388e-07
1.52413e-07
1.65472e-07
1.94729e-07
2.10703e-07
2.2141e-07
2.49387e-07
2.68518e-07
2.77298e-07
2.84903e-07
2.88152e-07
1.2107e-07
5.18914e-08
7.55656e-08
3.70661e-34
1.7518e-33
6.87977e-08
1.3342e-07
2.03989e-07
2.30533e-07
2.14959e-07
1.37408e-07
5.05045e-08
1.89443e-07
1.95448e-07
2.01506e-07
2.00066e-07
1.93769e-07
1.99216e-07
1.25924e-07
1.82918e-07
2.06884e-07
2.21165e-07
2.32367e-07
2.51714e-07
2.62965e-07
2.71127e-07
2.77448e-07
2.79431e-07
3.92905e-31
5.46507e-08
7.46287e-08
3.74435e-34
1.98299e-33
7.35092e-08
1.4668e-07
2.10817e-07
2.3244e-07
2.10348e-07
1.13577e-07
3.78203e-33
2.27518e-07
1.92075e-07
1.96136e-07
1.90213e-07
1.81758e-07
1.73167e-07
1.41768e-07
1.48366e-07
1.9475e-07
2.16242e-07
2.28231e-07
2.45402e-07
2.55536e-07
2.59444e-07
2.64497e-07
2.66721e-07
3.69921e-31
6.78743e-08
7.34474e-08
4.18169e-34
2.02609e-33
7.65001e-08
1.54923e-07
2.14403e-07
2.3291e-07
1.99938e-07
9.43945e-08
5.47867e-33
2.29278e-07
1.93248e-07
1.9242e-07
1.82786e-07
1.7738e-07
1.71451e-07
1.47946e-07
1.54501e-07
1.87191e-07
2.04095e-07
2.13921e-07
2.2593e-07
2.34328e-07
2.38092e-07
2.41565e-07
2.43959e-07
2.72022e-31
1.04888e-07
7.15488e-08
4.40911e-34
2.23734e-33
7.73281e-08
1.5673e-07
2.18151e-07
2.34174e-07
1.96475e-07
9.26318e-08
7.35893e-08
1.6002e-07
1.82253e-07
1.75185e-07
1.67182e-07
1.62648e-07
1.59057e-07
1.2976e-07
1.37124e-07
1.62957e-07
1.75443e-07
1.81723e-07
1.89908e-07
1.94417e-07
1.95026e-07
1.97359e-07
2.00004e-07
2.03603e-31
1.58813e-07
6.85926e-08
4.44738e-34
2.31969e-33
7.83692e-08
1.5069e-07
2.18133e-07
2.3453e-07
1.97132e-07
9.6979e-08
1.44686e-07
1.07279e-07
1.10525e-07
1.0355e-07
1.00967e-07
9.91025e-08
9.89573e-08
8.89907e-08
9.20026e-08
9.85413e-08
9.99327e-08
1.00065e-07
1.00426e-07
1.01117e-07
1.01477e-07
1.01904e-07
1.03449e-07
1.32842e-07
1.23667e-07
6.6064e-08
4.89594e-34
1.61235e-33
7.47051e-08
7.65251e-08
8.10542e-08
9.3164e-08
1.05793e-07
1.15378e-07
1.23797e-07
1.28419e-07
1.29892e-07
1.29415e-07
1.27624e-07
1.23979e-07
1.18513e-07
1.11307e-07
1.0183e-07
9.11187e-08
7.84979e-08
6.57196e-08
5.0983e-08
3.93595e-08
3.33742e-08
3.55225e-08
4.60852e-08
6.52979e-08
7.93302e-08
8.02267e-08
9.07294e-34
6.24983e-34
1.11478e-07
1.10716e-07
1.13201e-07
1.16347e-07
1.20807e-07
1.23429e-07
1.23187e-07
1.22435e-07
1.22427e-07
1.21536e-07
1.1839e-07
1.14131e-07
1.0994e-07
1.04796e-07
9.87892e-08
9.20178e-08
8.48311e-08
7.87794e-08
7.1154e-08
6.21035e-08
5.75383e-08
5.64655e-08
6.13448e-08
7.30047e-08
8.17627e-08
9.37953e-08
9.38812e-34
6.52384e-30
2.78284e-08
2.05366e-08
1.94903e-08
1.96519e-08
1.87595e-08
1.65604e-08
1.47225e-08
1.35869e-08
1.38706e-08
2.63035e-08
1.07773e-07
1.00436e-07
9.74698e-08
9.44719e-08
9.0559e-08
8.58078e-08
8.00056e-08
7.37564e-08
6.59973e-08
5.83195e-08
5.66162e-08
5.69162e-08
5.61973e-08
6.48998e-08
7.50495e-08
9.26531e-08
9.82503e-34
6.78347e-25
7.54146e-09
4.07181e-09
3.25814e-09
2.45603e-09
1.23201e-09
1.33513e-09
1.35933e-09
1.28014e-09
7.00937e-10
1.77952e-09
2.27252e-08
9.34914e-08
9.15669e-08
8.80402e-08
8.26851e-08
7.527e-08
6.47343e-08
5.64424e-08
4.86633e-08
4.31505e-08
4.1633e-08
5.7137e-08
4.18425e-08
5.44179e-08
7.25699e-08
9.09775e-08
7.59009e-34
5.94275e-24
3.69489e-08
1.87097e-09
1.04172e-09
8.34775e-10
4.07029e-10
2.36528e-10
3.69672e-10
1.51982e-10
2.52378e-11
1.36907e-10
1.04839e-08
8.02489e-08
7.04895e-08
6.10038e-08
6.09805e-08
5.77248e-08
6.76512e-08
7.3215e-08
6.73101e-08
6.0728e-08
5.59925e-08
5.37283e-08
5.01034e-08
4.14324e-08
6.5277e-08
9.02166e-08
7.2845e-34
3.7052e-23
7.78471e-08
7.04187e-08
1.1306e-09
5.03733e-10
1.90832e-11
4.28493e-12
6.16727e-12
8.15881e-12
3.29641e-12
5.25307e-12
2.67238e-09
5.14252e-08
4.34219e-08
4.91192e-08
6.84241e-08
8.73843e-08
1.06966e-07
1.48456e-07
1.60664e-07
1.18037e-07
7.18322e-08
5.73705e-08
4.89679e-08
4.77174e-08
6.05114e-08
8.97636e-08
6.28456e-34
9.25935e-28
8.51636e-08
1.31743e-07
7.75966e-08
7.03616e-08
6.29365e-08
4.95303e-08
2.81629e-10
3.06492e-11
7.51905e-12
8.15924e-13
4.26955e-09
3.22083e-08
2.72384e-08
2.71469e-08
2.85532e-08
4.19229e-08
4.90621e-08
9.74384e-08
2.21971e-07
2.86396e-07
1.46656e-07
6.37596e-08
5.11705e-08
4.27844e-08
5.90861e-08
8.83728e-08
6.24931e-34
2.04215e-30
8.10324e-08
1.43143e-07
1.41386e-07
1.29899e-07
1.15773e-07
1.01538e-07
5.42212e-08
4.91608e-08
3.48267e-08
8.05194e-12
4.59851e-09
2.63792e-08
2.24111e-08
2.07682e-08
1.9456e-08
2.4905e-08
2.99955e-08
5.25432e-08
1.20377e-07
3.42564e-07
2.86632e-07
1.04199e-07
5.42398e-08
4.01285e-08
5.05348e-08
8.69258e-08
6.34954e-34
8.10307e-33
6.81408e-08
1.42243e-07
1.52135e-07
1.41395e-07
1.25004e-07
1.1241e-07
9.81093e-08
9.0591e-08
6.97465e-08
3.63696e-10
3.7479e-09
2.40049e-08
2.43812e-08
2.33648e-08
1.57587e-08
2.25396e-08
3.49767e-08
3.9172e-08
6.64598e-08
3.41236e-07
3.38309e-07
1.95198e-07
5.77694e-08
4.01676e-08
3.71697e-08
8.45143e-08
6.29218e-34
1.22093e-32
5.87992e-08
1.33016e-07
1.52716e-07
1.43158e-07
1.27074e-07
1.14484e-07
1.05735e-07
9.90764e-08
7.76555e-08
2.72329e-08
2.44315e-08
2.50764e-08
1.86096e-08
2.14023e-08
1.95201e-08
2.21027e-08
3.07834e-08
3.68878e-08
5.63549e-08
3.2736e-07
3.36576e-07
2.9407e-07
7.78364e-08
4.40074e-08
4.27469e-08
8.16019e-08
6.36497e-34
1.07497e-32
5.39439e-08
1.11018e-07
1.50872e-07
1.43644e-07
1.29497e-07
1.17259e-07
1.09411e-07
1.01074e-07
6.92782e-08
5.00348e-08
3.57894e-08
3.47823e-08
2.39437e-08
3.10395e-08
2.23524e-08
2.25423e-08
2.96857e-08
3.05334e-08
4.81921e-08
3.10175e-07
3.30256e-07
3.2626e-07
1.52428e-07
4.99402e-08
4.47584e-08
7.88022e-08
6.32112e-34
1.1625e-32
5.19968e-08
8.42932e-08
1.4566e-07
1.43486e-07
1.32058e-07
1.19662e-07
1.12347e-07
9.9628e-08
6.54185e-08
4.94529e-08
3.69589e-08
4.17654e-08
2.73281e-08
3.25652e-08
2.46209e-08
2.36519e-08
3.12535e-08
2.92787e-08
4.04294e-08
2.94852e-07
3.24612e-07
3.24022e-07
2.52723e-07
5.20196e-08
4.42606e-08
7.55685e-08
6.57306e-34
1.11094e-32
5.18512e-08
7.41388e-08
1.37097e-07
1.43844e-07
1.34956e-07
1.22476e-07
1.15223e-07
9.68705e-08
5.81932e-08
4.56321e-08
4.06391e-08
4.18015e-08
3.2488e-08
3.48387e-08
3.0758e-08
3.049e-08
3.23313e-08
3.27451e-08
3.81961e-08
2.83482e-07
3.20002e-07
3.17871e-07
3.05762e-07
6.22707e-08
4.34855e-08
7.03698e-08
6.54795e-34
1.71407e-32
5.61391e-08
7.21595e-08
1.28491e-07
1.45776e-07
1.38044e-07
1.25413e-07
1.18455e-07
9.56284e-08
5.17819e-08
4.34739e-08
3.49868e-08
3.79193e-08
2.98944e-08
4.00759e-08
2.87782e-08
2.87861e-08
3.32951e-08
3.42811e-08
4.69649e-08
2.70915e-07
3.1363e-07
3.10484e-07
3.11241e-07
1.34912e-07
4.29858e-08
6.71554e-08
6.89543e-34
2.8728e-32
6.57305e-08
7.15763e-08
1.21006e-07
1.48897e-07
1.40958e-07
1.28166e-07
1.21225e-07
9.33614e-08
4.94082e-08
4.03915e-08
3.80615e-08
3.25442e-08
3.37466e-08
5.18227e-08
3.01519e-08
3.0855e-08
3.34113e-08
4.21993e-08
8.88074e-08
3.01354e-07
3.07777e-07
3.04712e-07
3.07308e-07
2.84677e-07
5.80461e-08
6.60987e-08
6.91235e-34
4.25248e-32
7.20369e-08
6.97253e-08
1.10616e-07
1.50987e-07
1.42782e-07
1.30378e-07
1.23982e-07
9.09191e-08
4.78082e-08
3.62269e-08
3.43427e-08
3.02976e-08
3.58436e-08
3.48292e-08
2.67267e-08
3.62984e-08
6.37259e-08
1.23059e-07
2.86687e-07
2.98331e-07
2.98156e-07
2.96583e-07
2.99582e-07
2.98197e-07
1.14583e-07
6.61086e-08
7.22854e-34
1.06192e-32
7.17611e-08
6.50536e-08
9.24204e-08
1.51716e-07
1.43875e-07
1.32309e-07
1.25688e-07
8.47222e-08
4.09741e-08
3.55045e-08
3.29603e-08
4.0987e-08
3.34249e-08
2.90212e-08
4.53607e-08
1.73681e-07
3.17924e-07
3.79967e-07
3.30524e-07
2.87508e-07
2.90458e-07
2.89372e-07
2.93213e-07
2.92099e-07
1.35515e-07
6.60453e-08
7.3197e-34
8.57098e-33
4.93091e-08
4.92607e-08
9.1056e-08
1.52124e-07
1.44011e-07
1.34308e-07
1.24886e-07
7.27689e-08
4.4196e-08
7.57333e-08
8.95674e-08
9.29825e-08
3.6281e-08
6.02778e-08
2.30279e-07
3.12833e-07
4.03757e-07
4.36126e-07
3.44833e-07
2.81618e-07
2.79616e-07
2.80818e-07
2.85851e-07
2.83058e-07
1.30772e-07
6.53524e-08
7.37347e-34
6.9118e-33
2.99025e-08
4.73298e-08
9.42571e-08
1.53053e-07
1.44719e-07
1.36075e-07
1.19483e-07
5.51233e-08
1.10915e-07
2.54572e-07
2.09754e-07
2.73212e-07
1.62252e-07
2.93224e-07
2.80482e-07
3.16387e-07
3.94224e-07
4.43894e-07
3.27808e-07
2.69066e-07
2.68367e-07
2.73323e-07
2.79044e-07
2.70783e-07
1.09841e-07
6.21418e-08
7.5781e-34
6.28856e-33
3.03554e-08
4.96611e-08
1.06477e-07
1.53335e-07
1.45256e-07
1.36679e-07
1.07483e-07
3.96269e-08
2.93577e-07
3.2535e-07
2.92812e-07
2.99082e-07
2.8796e-07
3.08014e-07
2.95894e-07
3.23025e-07
3.0855e-07
3.33588e-07
2.46344e-07
2.38363e-07
2.50182e-07
2.63274e-07
2.71535e-07
2.53902e-07
8.9759e-08
5.75647e-08
7.49996e-34
4.3118e-33
3.23557e-08
6.03937e-08
1.21388e-07
1.53898e-07
1.47146e-07
1.33994e-07
7.30659e-08
2.20878e-07
3.10624e-07
3.50815e-07
3.58239e-07
3.62704e-07
3.29227e-07
2.9008e-07
2.44811e-07
2.47758e-07
2.4077e-07
1.99753e-07
1.92838e-07
2.2949e-07
2.48427e-07
2.60995e-07
2.67512e-07
2.27052e-07
7.62816e-08
5.57695e-08
7.85193e-34
3.85097e-33
3.95593e-08
7.59259e-08
1.31801e-07
1.56065e-07
1.50955e-07
1.30221e-07
5.93311e-08
1.83791e-07
2.13615e-07
2.11791e-07
2.02381e-07
1.88217e-07
1.83387e-07
1.73996e-07
1.65835e-07
1.95603e-07
3.40573e-07
2.65729e-07
2.28321e-07
2.43959e-07
2.52799e-07
2.59391e-07
2.61688e-07
1.75409e-07
6.7347e-08
5.4884e-08
8.04497e-34
3.86536e-33
4.61339e-08
8.92694e-08
1.40026e-07
1.57878e-07
1.50581e-07
1.15863e-07
4.36995e-08
1.6913e-07
1.6916e-07
1.74688e-07
1.71113e-07
1.58179e-07
1.46097e-07
1.41498e-07
1.54593e-07
1.85797e-07
1.99973e-07
2.09073e-07
2.26297e-07
2.4129e-07
2.47883e-07
2.53769e-07
2.55125e-07
1.07275e-07
7.02697e-08
5.40275e-08
8.01054e-34
3.44096e-33
5.22801e-08
9.92753e-08
1.45111e-07
1.59031e-07
1.50146e-07
1.0044e-07
4.00405e-08
1.70065e-07
1.68237e-07
1.75698e-07
1.77139e-07
1.7367e-07
1.82305e-07
1.29054e-07
1.68238e-07
1.94944e-07
2.06311e-07
2.16671e-07
2.27534e-07
2.35974e-07
2.41102e-07
2.45845e-07
2.46436e-07
8.28508e-08
8.35146e-08
5.29342e-08
8.433e-34
4.0766e-33
5.54407e-08
1.08954e-07
1.49235e-07
1.60743e-07
1.48256e-07
8.20335e-08
6.67125e-09
1.99223e-07
1.6208e-07
1.6514e-07
1.60346e-07
1.53986e-07
1.51605e-07
1.29348e-07
1.36776e-07
1.73572e-07
1.92936e-07
2.0395e-07
2.1503e-07
2.23414e-07
2.2616e-07
2.2995e-07
2.31103e-07
7.44486e-08
1.16436e-07
5.21287e-08
8.42166e-34
4.04046e-33
5.71985e-08
1.1321e-07
1.51383e-07
1.61405e-07
1.41043e-07
6.8973e-08
5.35128e-09
1.99175e-07
1.60725e-07
1.60189e-07
1.52381e-07
1.4977e-07
1.45286e-07
1.29393e-07
1.38749e-07
1.60145e-07
1.73375e-07
1.82303e-07
1.90447e-07
1.95518e-07
1.98415e-07
2.01407e-07
2.02767e-07
6.12256e-08
1.49831e-07
5.10766e-08
8.96739e-34
4.92452e-33
5.80262e-08
1.13655e-07
1.53703e-07
1.62577e-07
1.39521e-07
7.0411e-08
5.98923e-08
1.21334e-07
1.36435e-07
1.29633e-07
1.26699e-07
1.2539e-07
1.23164e-07
1.04954e-07
1.14398e-07
1.24382e-07
1.34141e-07
1.39125e-07
1.4302e-07
1.43048e-07
1.4314e-07
1.44506e-07
1.45266e-07
5.55956e-08
1.46621e-07
4.94894e-08
9.25206e-34
5.61247e-33
5.87394e-08
1.08694e-07
1.53503e-07
1.63518e-07
1.41044e-07
7.56479e-08
8.94485e-08
5.11254e-08
4.98189e-08
5.11232e-08
5.37022e-08
5.52461e-08
5.57818e-08
5.88025e-08
6.1945e-08
5.45984e-08
5.0367e-08
4.84317e-08
4.1647e-08
3.79502e-08
3.73102e-08
3.70997e-08
3.68456e-08
8.77348e-08
6.64983e-08
4.82875e-08
9.54191e-34
2.09814e-08
5.53104e-08
5.46049e-08
5.87094e-08
6.55035e-08
7.34829e-08
8.04704e-08
8.64385e-08
8.885e-08
8.91659e-08
8.8037e-08
8.59208e-08
8.19726e-08
7.64804e-08
6.94714e-08
6.0879e-08
5.22224e-08
4.38815e-08
3.75768e-08
3.34392e-08
3.44995e-08
3.90901e-08
3.36593e-08
3.0031e-08
3.5908e-08
4.77353e-08
4.91466e-08
6.12961e-09
4.84952e-09
7.06424e-08
7.0726e-08
7.31902e-08
7.68589e-08
8.21881e-08
8.59981e-08
8.72526e-08
8.79666e-08
8.91253e-08
8.92196e-08
8.75652e-08
8.88471e-08
1.01562e-07
1.03548e-07
9.96579e-08
9.56795e-08
9.13826e-08
8.77763e-08
8.27593e-08
7.74881e-08
7.44147e-08
6.89496e-08
6.73963e-08
7.24225e-08
5.9941e-08
6.59883e-08
3.47722e-09
1.63121e-08
3.18846e-08
3.12625e-08
3.06192e-08
3.18634e-08
3.15808e-08
2.9045e-08
2.72812e-08
2.82685e-08
3.6088e-08
5.85712e-08
1.1117e-07
1.05883e-07
1.04601e-07
1.02398e-07
9.89092e-08
9.45048e-08
8.9034e-08
8.24544e-08
7.45219e-08
7.05019e-08
7.26842e-08
7.22995e-08
6.65151e-08
6.92615e-08
7.34272e-08
6.84077e-08
4.14184e-33
2.41359e-08
1.29686e-08
1.77454e-08
1.66359e-08
1.51888e-08
1.28268e-08
1.17284e-08
1.3155e-08
1.64517e-08
1.97265e-08
2.57249e-08
5.13112e-08
8.74573e-08
8.05402e-08
7.58775e-08
7.67399e-08
7.52928e-08
6.70665e-08
6.09186e-08
5.63839e-08
5.75833e-08
6.23438e-08
7.50956e-08
5.29526e-08
4.44579e-08
5.807e-08
6.71331e-08
3.23547e-33
2.88088e-08
1.23306e-08
1.75471e-08
1.52952e-08
1.43182e-08
1.32616e-08
1.36964e-08
1.51553e-08
1.63204e-08
1.53155e-08
1.59851e-08
2.9285e-08
6.44456e-08
5.83429e-08
6.27489e-08
5.50569e-08
6.64126e-08
1.00702e-07
1.35269e-07
1.53755e-07
1.52639e-07
8.24289e-08
6.36415e-08
6.08058e-08
4.45744e-08
5.00405e-08
6.65422e-08
3.28948e-33
3.36985e-08
3.64996e-08
2.71988e-08
1.4796e-08
1.30807e-08
1.09151e-08
1.2858e-08
1.50993e-08
1.49456e-08
1.34428e-08
1.06296e-08
1.60102e-08
4.181e-08
4.0885e-08
4.51431e-08
5.83252e-08
7.04481e-08
9.90836e-08
2.03536e-07
2.63001e-07
2.85604e-07
1.37319e-07
6.39368e-08
5.43952e-08
5.29591e-08
4.76025e-08
6.62756e-08
2.51023e-33
3.17984e-08
5.25108e-08
8.07037e-08
3.37666e-08
3.06138e-08
2.80821e-08
2.00666e-08
1.33848e-08
1.28192e-08
1.11582e-08
8.7304e-09
1.13471e-08
2.73492e-08
2.46708e-08
2.46089e-08
2.49952e-08
3.5492e-08
4.44798e-08
8.14868e-08
2.54237e-07
3.49283e-07
2.76732e-07
1.01149e-07
5.34332e-08
4.4407e-08
4.73849e-08
6.53491e-08
2.50241e-33
2.85614e-08
5.3738e-08
9.97441e-08
9.3833e-08
8.6622e-08
7.87705e-08
6.60992e-08
2.57349e-08
2.26323e-08
1.4806e-08
6.97834e-09
1.15581e-08
2.32799e-08
2.14787e-08
2.15091e-08
2.13003e-08
2.29875e-08
3.02923e-08
4.95829e-08
1.17676e-07
3.45694e-07
3.3777e-07
2.1765e-07
6.31666e-08
4.5437e-08
4.20147e-08
6.4274e-08
2.55781e-33
1.74773e-08
4.85786e-08
1.01319e-07
1.1025e-07
1.02818e-07
9.25207e-08
8.29978e-08
6.88046e-08
6.27982e-08
4.60352e-08
6.65582e-09
1.14078e-08
2.29533e-08
2.38677e-08
2.37417e-08
1.8934e-08
2.19722e-08
3.87808e-08
3.76869e-08
6.94266e-08
3.38192e-07
3.39684e-07
2.99579e-07
1.07576e-07
5.18276e-08
4.38461e-08
6.28379e-08
2.53256e-33
1.21435e-08
4.28944e-08
9.72701e-08
1.11618e-07
1.05394e-07
9.52257e-08
8.61296e-08
7.92305e-08
7.40935e-08
5.96971e-08
1.90463e-08
2.00862e-08
2.80862e-08
1.88482e-08
2.42924e-08
1.84453e-08
1.89107e-08
3.33364e-08
3.5319e-08
5.71988e-08
3.19895e-07
3.28477e-07
3.21884e-07
1.87685e-07
5.52274e-08
5.565e-08
6.0822e-08
2.56146e-33
1.26861e-08
4.04981e-08
8.02098e-08
1.10504e-07
1.05569e-07
9.69824e-08
8.84994e-08
8.3144e-08
7.81054e-08
5.75663e-08
4.55171e-08
3.39909e-08
4.39629e-08
2.70486e-08
4.19296e-08
2.74105e-08
2.56375e-08
3.5994e-08
3.21525e-08
5.6385e-08
3.09913e-07
3.21299e-07
3.22973e-07
2.6904e-07
6.36051e-08
5.66438e-08
5.88503e-08
2.49935e-33
1.53182e-08
3.88969e-08
6.12682e-08
1.0622e-07
1.05389e-07
9.855e-08
9.02235e-08
8.53793e-08
7.76349e-08
6.01568e-08
4.59419e-08
3.59119e-08
5.21593e-08
2.87119e-08
4.23128e-08
2.83632e-08
2.80676e-08
4.12622e-08
3.44835e-08
5.63245e-08
3.01101e-07
3.13721e-07
3.13379e-07
3.01503e-07
8.62319e-08
5.32379e-08
5.62916e-08
2.68723e-33
1.82869e-08
3.7842e-08
5.55678e-08
9.95855e-08
1.05806e-07
1.00507e-07
9.21229e-08
8.72821e-08
7.50689e-08
5.12567e-08
4.47425e-08
4.34928e-08
5.47883e-08
4.02889e-08
4.59743e-08
3.89074e-08
3.92275e-08
4.18905e-08
3.65049e-08
5.18286e-08
2.95073e-07
3.07671e-07
3.06018e-07
3.08874e-07
1.45863e-07
4.99666e-08
5.25873e-08
2.79125e-33
8.16653e-16
3.77255e-08
5.4893e-08
9.39662e-08
1.07631e-07
1.02589e-07
9.4057e-08
8.95113e-08
7.36915e-08
4.71201e-08
4.51216e-08
3.47647e-08
5.19897e-08
2.99658e-08
5.28686e-08
2.98561e-08
2.89353e-08
3.8254e-08
3.3495e-08
6.26498e-08
2.89745e-07
2.99531e-07
2.97374e-07
3.02486e-07
2.50751e-07
5.60568e-08
5.09151e-08
2.76261e-33
4.63763e-32
4.49587e-08
5.54834e-08
8.98548e-08
1.09692e-07
1.04453e-07
9.5945e-08
9.14073e-08
7.17674e-08
4.415e-08
4.30347e-08
4.21085e-08
5.51576e-08
3.78892e-08
6.2989e-08
3.80526e-08
3.30002e-08
4.54686e-08
5.44626e-08
1.7148e-07
3.08244e-07
2.92288e-07
2.90517e-07
2.96559e-07
2.95562e-07
1.17659e-07
5.08248e-08
2.98172e-33
2.23426e-30
5.25762e-08
5.50686e-08
8.23341e-08
1.10457e-07
1.05425e-07
9.71775e-08
9.32661e-08
7.00078e-08
4.30179e-08
4.29372e-08
3.52764e-08
6.02546e-08
3.20461e-08
4.42177e-08
3.40577e-08
4.29735e-08
1.18188e-07
1.96898e-07
3.84157e-07
2.97331e-07
2.80843e-07
2.81297e-07
2.87494e-07
2.86116e-07
2.00393e-07
5.1199e-08
3.00792e-33
4.5132e-32
5.42993e-08
5.18294e-08
6.68125e-08
1.10604e-07
1.06197e-07
9.84459e-08
9.47746e-08
6.55851e-08
5.24322e-08
5.83076e-08
4.84711e-08
1.28152e-07
3.59203e-08
4.44818e-08
9.79591e-08
2.71006e-07
4.49337e-07
4.79086e-07
3.9564e-07
2.80961e-07
2.71906e-07
2.74135e-07
2.81199e-07
2.78649e-07
1.85041e-07
5.12611e-08
3.11154e-33
3.17043e-32
3.99837e-08
3.91092e-08
6.66574e-08
1.10656e-07
1.06085e-07
9.93777e-08
9.42234e-08
5.64595e-08
6.3801e-08
1.65774e-07
1.41136e-07
2.86525e-07
7.39432e-08
1.75345e-07
3.45149e-07
4.22105e-07
5.16539e-07
5.50049e-07
3.75109e-07
2.69977e-07
2.59825e-07
2.65936e-07
2.74046e-07
2.66787e-07
1.49827e-07
5.06573e-08
3.05862e-33
2.21073e-32
2.54702e-08
3.67474e-08
6.89169e-08
1.10907e-07
1.06478e-07
1.00248e-07
8.97415e-08
4.52924e-08
1.74244e-07
3.63289e-07
2.44418e-07
3.91222e-07
2.48558e-07
4.02054e-07
3.52137e-07
4.00523e-07
5.58788e-07
5.70696e-07
3.46054e-07
2.49634e-07
2.47194e-07
2.59507e-07
2.6838e-07
2.52523e-07
1.23795e-07
4.80502e-08
3.11723e-33
1.71001e-32
2.65607e-08
3.75854e-08
7.83957e-08
1.10905e-07
1.063e-07
9.9006e-08
8.02175e-08
4.2268e-08
3.60124e-07
4.40025e-07
3.70953e-07
4.01517e-07
3.62197e-07
4.15734e-07
3.88526e-07
4.46335e-07
4.72464e-07
4.8784e-07
2.46768e-07
2.25959e-07
2.40648e-07
2.55698e-07
2.62837e-07
2.33443e-07
1.02892e-07
4.49275e-08
3.08387e-33
1.44915e-32
2.72043e-08
4.45939e-08
9.09252e-08
1.10639e-07
1.06428e-07
9.66392e-08
5.24413e-08
2.64163e-07
4.15959e-07
4.58322e-07
4.67165e-07
4.58305e-07
4.32645e-07
3.90412e-07
3.42035e-07
3.314e-07
3.30795e-07
3.01377e-07
2.24427e-07
2.32723e-07
2.4647e-07
2.56847e-07
2.60415e-07
2.05816e-07
8.83078e-08
4.37333e-08
3.15842e-33
9.61683e-33
3.13631e-08
5.71817e-08
9.86083e-08
1.1191e-07
1.0932e-07
9.42876e-08
4.45991e-08
1.62638e-07
1.98455e-07
2.00202e-07
1.96361e-07
1.83384e-07
1.75861e-07
1.61112e-07
1.66079e-07
2.22322e-07
3.02382e-07
2.74927e-07
2.37782e-07
2.45535e-07
2.49981e-07
2.53989e-07
2.53782e-07
1.66802e-07
7.78446e-08
4.28167e-08
3.05908e-33
8.7224e-33
3.65032e-08
6.84676e-08
1.04163e-07
1.13607e-07
1.09462e-07
8.54423e-08
3.46747e-08
1.47819e-07
1.51678e-07
1.61747e-07
1.61576e-07
1.55472e-07
1.55472e-07
1.41386e-07
1.55605e-07
1.91919e-07
2.05483e-07
2.17169e-07
2.24766e-07
2.36856e-07
2.42115e-07
2.46863e-07
2.46588e-07
1.45411e-07
9.12467e-08
4.2081e-08
3.20708e-33
8.74644e-33
4.09643e-08
7.6061e-08
1.07135e-07
1.14711e-07
1.09584e-07
7.6283e-08
4.19936e-08
1.5849e-07
1.5034e-07
1.56859e-07
1.60622e-07
1.59921e-07
1.75558e-07
1.41031e-07
1.62042e-07
1.94297e-07
2.03876e-07
2.15916e-07
2.22288e-07
2.28609e-07
2.31872e-07
2.35333e-07
2.34813e-07
1.37139e-07
1.11456e-07
4.12885e-08
3.15249e-33
7.73324e-33
4.33381e-08
8.34441e-08
1.09914e-07
1.16428e-07
1.09369e-07
6.0338e-08
3.372e-08
1.85543e-07
1.42283e-07
1.43554e-07
1.38213e-07
1.34042e-07
1.38618e-07
1.24441e-07
1.33335e-07
1.59795e-07
1.7936e-07
1.90765e-07
1.98991e-07
2.07151e-07
2.10891e-07
2.14486e-07
2.14555e-07
1.30319e-07
1.41446e-07
4.11464e-08
3.44535e-33
9.6803e-33
4.42619e-08
8.54598e-08
1.11404e-07
1.17296e-07
1.04876e-07
5.10236e-08
4.157e-08
1.86784e-07
1.36245e-07
1.35714e-07
1.3005e-07
1.30069e-07
1.23937e-07
1.17768e-07
1.34759e-07
1.4139e-07
1.53796e-07
1.63992e-07
1.69859e-07
1.71575e-07
1.759e-07
1.79888e-07
1.80307e-07
1.09878e-07
1.52551e-07
4.1308e-08
3.68076e-33
9.90465e-33
4.50023e-08
8.52824e-08
1.12856e-07
1.18292e-07
1.04483e-07
5.62419e-08
5.87752e-08
1.03363e-07
9.26043e-08
9.54028e-08
9.66776e-08
9.74906e-08
9.42498e-08
9.22898e-08
1.13896e-07
9.80936e-08
1.11129e-07
1.18454e-07
1.22702e-07
1.16647e-07
1.19732e-07
1.24095e-07
1.22749e-07
9.33651e-08
1.19431e-07
4.41847e-08
3.56613e-33
1.24244e-32
4.55156e-08
8.12713e-08
1.12609e-07
1.19515e-07
1.0637e-07
6.02039e-08
7.20748e-08
4.26489e-08
4.85985e-08
5.8311e-08
6.83972e-08
6.69369e-08
5.81503e-08
5.91014e-08
8.21204e-08
7.6287e-08
7.6694e-08
8.51764e-08
7.13702e-08
6.5008e-08
6.16655e-08
6.1945e-08
6.05756e-08
6.4842e-08
4.35347e-08
5.06038e-08
4.01593e-33
5.46043e-08
5.57947e-08
6.15117e-08
6.30345e-08
6.50412e-08
6.62523e-08
6.76752e-08
6.91865e-08
6.86487e-08
6.73332e-08
6.57611e-08
6.27461e-08
5.8998e-08
5.4364e-08
4.95799e-08
4.55e-08
4.30892e-08
4.31135e-08
4.53302e-08
5.09758e-08
5.73563e-08
6.30136e-08
5.58017e-08
4.50703e-08
3.39604e-08
3.28982e-08
3.32911e-08
2.01992e-08
3.07006e-08
4.87258e-08
5.03879e-08
5.29517e-08
5.72687e-08
6.20005e-08
6.55962e-08
6.69025e-08
6.78004e-08
7.32758e-08
8.80155e-08
9.21079e-08
9.30896e-08
1.00859e-07
1.15766e-07
1.36482e-07
1.59848e-07
1.83487e-07
2.02879e-07
2.13868e-07
1.85789e-07
1.56061e-07
1.24687e-07
9.59542e-08
7.45714e-08
6.28143e-08
4.87561e-08
1.06979e-08
4.21038e-08
3.31274e-08
3.37274e-08
3.31064e-08
3.42835e-08
3.91685e-08
4.14949e-08
4.22326e-08
4.7109e-08
5.99617e-08
8.68096e-08
1.22517e-07
1.2366e-07
1.29706e-07
1.31047e-07
1.2993e-07
1.25621e-07
1.20009e-07
1.17292e-07
1.1563e-07
1.04278e-07
9.22195e-08
8.56914e-08
6.93005e-08
6.61867e-08
6.66489e-08
7.15865e-08
5.36711e-09
4.7218e-08
2.41755e-08
2.43885e-08
2.23433e-08
2.44515e-08
2.30754e-08
2.4131e-08
2.71414e-08
3.49465e-08
4.11252e-08
4.91705e-08
6.98116e-08
8.46805e-08
8.10775e-08