/*--------------------------------*- C++ -*----------------------------------*\
| =========                 |                                                 |
| \\      /  F ield         | OpenFOAM: The Open Source CFD Toolbox           |
|  \\    /   O peration     | Version:  2.3.0                                 |
|   \\  /    A nd           | Web:      www.OpenFOAM.org                      |
|    \\/     M anipulation  |                                                 |
\*---------------------------------------------------------------------------*/
FoamFile
{
    version     2.0;
    format      ascii;
    class       volVectorField;
    location    "1.90041";
    object      U.air;
}
// * * * * * * * * * * * * * * * * * * * * * * * * * * * * * * * * * * * * * //

dimensions      [0 1 -1 0 0 0 0];

internalField   nonuniform List<vector> 
18816
(
(-0.0127473 0.0169494 -0.00233071)
(-0.0269379 0.0127997 -0.00191589)
(-0.0316966 0.0141273 -0.00232752)
(-0.0361104 0.0144578 -0.00194252)
(-0.0492356 0.01677 -0.00221498)
(-0.0608842 0.0196405 -0.00254527)
(-0.0703531 0.018834 -0.00243643)
(-0.0818477 0.0192338 -0.00251121)
(-0.0917558 0.0213168 -0.00260086)
(-0.0996298 0.0222784 -0.00252663)
(-0.107936 0.0230094 -0.00254094)
(-0.114325 0.0234974 -0.00262548)
(-0.118896 0.0240404 -0.00270756)
(-0.121484 0.0253579 -0.00291191)
(-0.121931 0.0267676 -0.0031449)
(-0.117934 0.0285255 -0.00349312)
(-0.110161 0.0306355 -0.00379604)
(-0.0967541 0.0323323 -0.00411722)
(-0.0799041 0.0319907 -0.00431043)
(-0.0571451 0.0310486 -0.0044277)
(-0.0318444 0.0305273 -0.00421916)
(-0.00303106 0.0286205 -0.00401967)
(0.0226256 0.0278487 -0.00385972)
(0.0446195 0.0282081 -0.00372479)
(0.0593997 0.0268629 -0.00301695)
(0.0556511 0.0281977 -0.00252198)
(0.0403473 0.0290024 -0.00259204)
(0.0170674 0.0217915 -0.00448325)
(-0.0081552 0.0672533 -0.0028994)
(-0.0254458 0.0799772 -0.0024035)
(-0.0392114 0.0807211 -0.00375184)
(-0.0422325 0.0801472 -0.00371385)
(-0.0510832 0.0804879 -0.00381376)
(-0.0591718 0.0776527 -0.00374438)
(-0.0668514 0.0728522 -0.00311707)
(-0.0782214 0.0695219 -0.002733)
(-0.087141 0.0650646 -0.00248727)
(-0.0935099 0.0598317 -0.00213274)
(-0.0997635 0.0566252 -0.00160187)
(-0.103314 0.0537891 -0.000327509)
(-0.106748 0.0525871 -0.000353375)
(-0.108249 0.0520604 -0.000301487)
(-0.108408 0.0520567 -0.000246562)
(-0.105333 0.0525679 -0.000198978)
(-0.0994428 0.0527721 -0.000123118)
(-0.088728 0.0526913 -0.000122427)
(-0.0741234 0.05309 -8.27397e-05)
(-0.0549054 0.0524252 -0.000156131)
(-0.0322581 0.0493284 -0.000127114)
(-0.00815664 0.0480881 -8.13719e-05)
(0.0120343 0.0476561 -4.70511e-05)
(0.0323224 0.045452 -6.09549e-05)
(0.0423885 0.0494177 8.85426e-05)
(0.0407069 0.0552532 6.00684e-05)
(0.0296975 0.0715061 -0.000162838)
(0.0122799 0.102922 -0.00374427)
(-0.00537846 0.0886803 -0.000137806)
(-0.00318954 0.0787256 -0.00129749)
(-0.0132157 0.0942406 -0.00597635)
(-0.0217588 0.0933139 -0.00626851)
(-0.029681 0.0953495 -0.00607948)
(-0.0398328 0.0943739 -0.00621867)
(-0.0480984 0.0875937 -0.00619005)
(-0.0538859 0.0806598 -0.00570651)
(-0.0593558 0.0740551 -0.0050492)
(-0.0664445 0.0673619 -0.00440135)
(-0.0792967 0.0573253 -0.00741489)
(-0.0928638 0.0466762 -0.00176433)
(-0.0966307 0.0448045 0.00035081)
(-0.0989966 0.0435858 0.000114723)
(-0.100153 0.0426191 0.000160888)
(-0.0988954 0.040696 0.000226588)
(-0.0953278 0.0391462 0.000287997)
(-0.0868531 0.0365963 0.000304397)
(-0.0744918 0.0344629 0.000319154)
(-0.0571001 0.0308266 0.00020373)
(-0.0361824 0.0260875 5.1793e-05)
(-0.0137651 0.0245207 6.84718e-05)
(0.00579705 0.0244347 0.000136192)
(0.0246548 0.0254491 2.35804e-05)
(0.0339592 0.0344904 0.000115245)
(0.0314453 0.0496988 0.000397239)
(0.0181383 0.0681995 0.000449235)
(0.0079077 0.116404 -0.0023866)
(-0.00177949 0.119298 0.00147562)
(0.00689975 0.0844115 0.00293619)
(-0.00245107 0.113627 -0.0023455)
(-0.0071397 0.108468 -0.000549298)
(-0.0135567 0.103389 -0.00034265)
(-0.0204561 0.100779 -0.000429879)
(-0.0286713 0.0948801 -0.000777356)
(-0.0331477 0.0868873 -0.000785589)
(-0.0363477 0.080855 -0.000610395)
(-0.0400737 0.074288 -0.000245759)
(-0.0497767 0.0647019 -0.000166125)
(-0.0705778 0.0525198 -0.00497721)
(-0.0835772 0.0466866 -0.000663403)
(-0.0863467 0.0446249 0.000731711)
(-0.0888385 0.042119 0.00107943)
(-0.0889131 0.0377656 0.00145325)
(-0.0878744 0.0331319 0.0015976)
(-0.0803914 0.0252441 0.00139216)
(-0.0694943 0.0194906 0.00116316)
(-0.05546 0.0133028 0.00102135)
(-0.0388046 0.00802948 0.00060691)
(-0.0200991 0.00442165 0.000451046)
(-0.00404009 0.00410841 0.000516677)
(0.012368 0.0100987 0.000759359)
(0.0246666 0.0326842 0.00102805)
(0.0227803 0.0555044 0.000756352)
(0.00975479 0.0749521 0.000502373)
(0.00421659 0.126909 -0.000986316)
(0.000321412 0.121445 0.00145254)
(0.0055228 0.106946 0.000997616)
(0.00381524 0.126256 0.00719957)
(-0.00202632 0.114109 -0.00171282)
(-0.00886989 0.109573 -0.00153873)
(-0.0132997 0.10422 -0.00130396)
(-0.0201392 0.0969179 -0.00101161)
(-0.0232549 0.0885086 0.000124443)
(-0.0245253 0.0807043 0.00012681)
(-0.0259019 0.0718844 0.000286931)
(-0.030196 0.0591258 0.000506252)
(-0.0465093 0.0462063 -0.00236959)
(-0.0630781 0.0406762 0.000266245)
(-0.0635051 0.0326908 0.00133448)
(-0.0641205 0.0239385 0.00140762)
(-0.0633347 0.0139697 0.00125035)
(-0.067235 0.00702127 0.00107747)
(-0.066705 -0.00307321 0.000821181)
(-0.0627793 -0.00834013 0.000671498)
(-0.0548708 -0.014037 0.000479972)
(-0.0437666 -0.0172695 5.44217e-05)
(-0.0284069 -0.0203138 -0.000187628)
(-0.0141283 -0.0187119 -0.000253221)
(-0.000750338 -0.0166334 -6.3923e-05)
(0.0115924 0.00818784 0.000552695)
(0.0191332 0.0498312 0.000488129)
(0.00731443 0.0743327 0.000494843)
(0.0036925 0.12862 -0.000610569)
(0.0011007 0.115986 0.00111351)
(0.00576024 0.105202 0.0012174)
(-0.00199041 0.138324 0.00427104)
(0.00192166 0.132907 0.00696583)
(-0.00377935 0.117076 0.00703636)
(-0.00666601 0.108682 0.00628906)
(-0.0115547 0.0997475 0.00506871)
(-0.0146406 0.088493 -0.000799442)
(-0.0164979 0.0804467 -0.000251054)
(-0.0170539 0.0697973 3.35093e-05)
(-0.0185522 0.0516927 0.000388442)
(-0.020355 0.0308989 -0.000813615)
(-0.0289429 0.0235041 0.000263216)
(-0.0247192 0.01403 0.000578859)
(-0.0276127 0.00655646 0.000787645)
(-0.0338539 0.00125951 0.00092812)
(-0.048063 -0.00305432 0.0012818)
(-0.0555814 -0.0142235 0.000992806)
(-0.0580468 -0.0199426 0.000782124)
(-0.0540077 -0.0272058 0.00073135)
(-0.0467161 -0.0290224 0.000354043)
(-0.0340679 -0.0305515 4.70658e-05)
(-0.0220341 -0.0273465 1.91018e-05)
(-0.0102742 -0.0227697 -0.000159599)
(-0.0023476 -0.00746833 0.000207704)
(0.0100741 0.0431742 2.35403e-05)
(0.00209103 0.0750269 0.00036991)
(0.003236 0.127679 -0.000180725)
(0.00219516 0.10384 0.000518972)
(0.00624926 0.0983729 0.000957006)
(-0.000881055 0.135149 0.00206676)
(-0.00606706 0.134455 0.0047034)
(-0.0137291 0.1214 0.00429359)
(-0.0174618 0.107793 0.00376042)
(-0.0204682 0.0957231 0.00328101)
(-0.00936897 0.0889513 0.00489447)
(-0.0102155 0.0796525 0.00382606)
(-0.0111535 0.065784 0.00249065)
(-0.0102544 0.0438024 0.000133842)
(-0.0097161 0.0185196 -7.48882e-05)
(-0.0112843 0.0107379 7.16857e-05)
(-0.00694779 0.00600673 0.000158583)
(-0.00763218 0.00292293 0.000314659)
(-0.00835746 -8.76848e-05 0.000411445)
(-0.0237984 -0.0048637 0.00117609)
(-0.0357294 -0.0215961 0.0009223)
(-0.0471469 -0.0327091 0.000889947)
(-0.0491408 -0.042489 0.000795684)
(-0.0454312 -0.0456014 0.000398109)
(-0.0371256 -0.0460638 0.000166871)
(-0.0270445 -0.0413489 0.000157238)
(-0.0171502 -0.0329111 -4.37198e-05)
(-0.0102841 -0.013387 3.77222e-05)
(0.00247173 0.0392105 -0.00017127)
(0.000177321 0.0726367 0.000107926)
(0.00203408 0.125734 -8.54391e-05)
(0.00340643 0.0923905 -0.000344048)
(0.00707439 0.0891503 0.000712778)
(0.00399732 0.128827 0.00126803)
(-0.00421298 0.130853 0.00222477)
(-0.0112023 0.116012 0.00188633)
(-0.0140589 0.101602 0.00157197)
(-0.0164795 0.0905549 0.00134282)
(-0.0147156 0.0864982 0.00286524)
(-0.0165142 0.079394 0.00256531)
(-0.0158839 0.0645562 0.00172606)
(-0.00707176 0.0357094 0.000577487)
(-0.00610212 0.0118444 6.72772e-07)
(-0.00625214 0.00492931 5.73145e-05)
(-0.00260675 0.00298321 1.38475e-05)
(-0.00260183 0.000338161 6.57364e-05)
(0.000953586 -0.00253449 7.34055e-05)
(-0.0101993 -0.0038477 0.000676421)
(-0.0137299 -0.0177047 0.00016808)
(-0.0321174 -0.0321877 0.000733586)
(-0.0406785 -0.0509538 0.000651817)
(-0.0404713 -0.0537897 0.000502145)
(-0.0358679 -0.054326 0.000107804)
(-0.0284937 -0.050408 0.000103594)
(-0.0208904 -0.0407154 5.35278e-05)
(-0.0149579 -0.0217694 0.000178068)
(-0.00140588 0.0290301 6.70904e-05)
(0.00152024 0.0715314 8.50101e-05)
(0.00106078 0.126209 -0.000158178)
(0.00391614 0.0837026 -0.000228259)
(0.00669659 0.0784363 0.000607996)
(0.0082113 0.121016 0.000875218)
(0.00174927 0.126254 0.000967651)
(-0.00437647 0.112223 0.000728846)
(-0.00668306 0.097347 0.000593406)
(-0.00980963 0.0862354 0.000531398)
(-0.010881 0.0794498 0.00106788)
(-0.0134964 0.0726192 0.0010556)
(-0.0131708 0.0568537 0.000810073)
(-0.00450179 0.0318039 0.00135839)
(-0.00337223 0.00896373 0.000204574)
(-0.00263446 0.00313983 -3.07663e-05)
(-0.000256854 0.00204443 -9.34677e-05)
(-0.00119021 0.000261827 -0.000119486)
(0.00430391 0.00184385 -0.000265322)
(-0.00531986 -0.00291281 0.00015693)
(0.00119956 -0.00319599 -0.000956448)
(-0.0158717 -0.0240816 0.000884895)
(-0.0322118 -0.0548786 0.000379807)
(-0.0334239 -0.0612395 0.000608949)
(-0.0321383 -0.0607301 0.000101916)
(-0.0268879 -0.0575164 9.27087e-05)
(-0.0212329 -0.0488037 4.90262e-05)
(-0.0159805 -0.0303585 4.26692e-05)
(-0.00334348 0.0107694 -8.89202e-05)
(0.00361823 0.068127 5.89861e-05)
(0.00028235 0.127565 -0.000300206)
(0.00336966 0.0776748 -5.83985e-06)
(0.00475336 0.0679351 0.000463643)
(0.00866854 0.11085 0.000540748)
(0.00584774 0.123752 0.000522449)
(0.000570351 0.111794 0.000336094)
(-0.00191872 0.0967211 0.000274842)
(-0.00569131 0.0862367 0.000260137)
(-0.00764906 0.0779915 0.000337107)
(-0.0135407 0.071796 0.000636381)
(-0.012074 0.0458572 0.000531075)
(-0.00215795 0.0286736 0.000916718)
(0.000277394 0.00805414 3.37099e-05)
(0.00303466 -0.00071603 -1.1057e-05)
(0.00428459 0.00309928 -0.000119278)
(0.00605391 -0.00146151 -4.3833e-05)
(0.00783522 0.00348692 -8.60401e-05)
(0.0121043 0.000201102 -4.68583e-05)
(0.0106349 0.00115041 0.000964147)
(-0.00930362 -0.0158512 0.000835219)
(-0.0226791 -0.0575959 0.000981944)
(-0.0280081 -0.0666495 0.000588108)
(-0.0271839 -0.0649297 0.000128948)
(-0.023713 -0.0612964 5.06146e-05)
(-0.0192204 -0.0539063 5.35859e-05)
(-0.0148529 -0.0362823 4.36433e-06)
(-0.00446097 0.00206976 -0.000199349)
(0.00299552 0.0648303 -2.1482e-05)
(-3.47246e-05 0.1283 -0.000245324)
(0.00283044 0.0734505 9.28118e-06)
(0.00318231 0.0613366 0.000231285)
(0.00639896 0.0959734 0.000492694)
(0.00832526 0.121011 0.000369034)
(0.00371547 0.112855 0.000247319)
(0.00206522 0.0981946 0.000162972)
(-0.00232463 0.0879539 0.000264958)
(-0.0031377 0.0799521 0.000391131)
(-0.0168264 0.0679254 0.00117083)
(-0.0131448 0.0310208 -0.000599308)
(0.00416377 0.0157311 8.09197e-05)
(0.00465605 0.00600909 -0.000151905)
(0.00431411 -0.000431234 -3.8157e-05)
(0.00483945 0.00107726 -9.81072e-05)
(0.00429732 -0.00129367 -1.57119e-05)
(0.00468915 -0.0020343 -5.46409e-05)
(0.00561639 -0.00445897 1.28994e-05)
(0.00849416 -0.00674461 2.68148e-05)
(0.00134296 -0.0100374 0.000480705)
(-0.0109212 -0.0561412 0.000159724)
(-0.0179633 -0.0688008 0.000351307)
(-0.0207544 -0.067534 7.05804e-05)
(-0.0194483 -0.0642797 -1.23816e-05)
(-0.0164771 -0.0584456 3.91596e-05)
(-0.012986 -0.0426552 3.77407e-05)
(-0.00459158 -0.00278978 -0.000264654)
(0.00139994 0.0616433 -4.77636e-05)
(-6.94392e-05 0.128324 -0.00013636)
(0.00329059 0.0711688 -1.20085e-05)
(0.00336288 0.0599389 4.84645e-05)
(0.00530037 0.0802124 0.000393602)
(0.00936772 0.11637 0.000330156)
(0.00568728 0.113348 0.000198851)
(0.00376638 0.100061 9.66523e-05)
(-0.000167091 0.0888783 0.000165812)
(-0.00160749 0.0819918 0.000406331)
(-0.0138024 0.0646338 0.000581358)
(-0.00762608 0.0279208 7.05958e-06)
(-0.00114844 0.0147761 -0.000128991)
(0.00218257 0.0102717 -0.00015316)
(0.00287535 -0.00018697 -0.000107468)
(0.00468784 0.00547685 -0.000218924)
(0.00501133 0.000424967 -9.67764e-05)
(0.00475444 0.00263477 -0.000200046)
(0.00528068 -2.28652e-05 -0.000112778)
(0.00477376 -0.00223174 -5.42819e-05)
(0.00359425 -0.00160068 -0.000138269)
(-0.00165587 -0.0439889 0.000121833)
(-0.0124682 -0.0667412 0.000251477)
(-0.0153873 -0.0678428 0.000247181)
(-0.015712 -0.0646689 -8.67131e-06)
(-0.0136071 -0.0603093 3.91533e-05)
(-0.0111233 -0.0476361 0.000117979)
(-0.00430748 -0.00653869 -0.000194538)
(-1.3694e-05 0.0584938 -3.76254e-05)
(7.48112e-05 0.128182 -4.54007e-05)
(0.00536119 0.0687568 0.000183441)
(0.00635611 0.0620479 -1.35785e-06)
(0.00732058 0.0702145 0.000297468)
(0.0114295 0.111054 0.000416682)
(0.00759378 0.114075 0.000247655)
(0.00469213 0.102483 0.000106577)
(0.000956335 0.09108 0.000141817)
(-0.00110481 0.0843152 0.000382826)
(-0.0120781 0.0626109 0.000669407)
(-0.0100963 0.0195089 0.000159004)
(-0.0032514 0.00952452 -0.000147664)
(0.00107137 0.00549787 -4.49646e-05)
(0.00282475 -0.00108541 -0.000144427)
(0.00507093 0.00235574 -2.284e-05)
(0.00460568 0.000987141 -5.12192e-05)
(0.00597138 0.00028142 -6.12763e-05)
(0.00497503 -0.0019686 -5.23427e-05)
(0.00521272 -0.0032795 1.51418e-06)
(0.0100162 -0.00347572 0.000172903)
(0.00612639 -0.0372949 0.000629265)
(-0.00703124 -0.0655172 0.00039811)
(-0.0104539 -0.068476 0.000218963)
(-0.0117643 -0.0654593 -4.59158e-05)
(-0.0106505 -0.0617065 2.80092e-05)
(-0.00948211 -0.0522876 0.000156787)
(-0.00347641 -0.0106872 -1.39216e-05)
(-0.00103388 0.0545364 1.83048e-05)
(0.000228376 0.127954 5.00532e-05)
(0.00848655 0.0690717 0.000339551)
(0.0125694 0.0688705 0.000106925)
(0.00937463 0.0663652 0.000152606)
(0.0128721 0.105554 0.000507573)
(0.00787596 0.115713 0.000267058)
(0.00397105 0.105558 7.98389e-05)
(0.000956284 0.0938926 6.71239e-05)
(-0.00137641 0.0870711 0.000388035)
(-0.0124526 0.0620866 0.000671789)
(-0.00972182 0.0167728 3.86462e-05)
(-0.00421442 0.00590471 -0.000158847)
(-0.00110812 0.00770157 -0.000145878)
(0.00278887 -0.00227902 -0.000214643)
(0.00524685 0.00677046 -1.99567e-05)
(0.00313037 8.27928e-05 -1.48943e-05)
(0.00615318 0.00423134 -3.8996e-05)
(0.00569181 0.00326444 4.79127e-05)
(0.00827505 -0.00688405 0.000111064)
(0.0168286 -0.0052128 0.000382461)
(0.0125795 -0.0362908 0.00101431)
(-0.00283544 -0.0629808 0.000464326)
(-0.00606431 -0.0668258 0.000211872)
(-0.00853073 -0.0652658 -1.66314e-05)
(-0.00789678 -0.0612901 9.87412e-06)
(-0.00842264 -0.0550354 0.000172603)
(-0.00277283 -0.0177476 0.000338284)
(-0.000995407 0.0514884 5.60069e-05)
(5.36592e-05 0.127782 6.94957e-05)
(0.00807415 0.0695405 0.000501147)
(0.012131 0.0740047 0.000265153)
(0.00837068 0.0655299 0.000142884)
(0.0112723 0.0999671 0.000525842)
(0.00631926 0.118368 0.000217266)
(0.00177758 0.108478 8.10651e-05)
(-0.000572946 0.0965464 6.3245e-05)
(-0.00334634 0.0895106 0.000410147)
(-0.0140501 0.0599809 0.000845508)
(-0.0133442 0.012474 0.000236904)
(-0.0078792 0.00336406 -5.92817e-05)
(-0.00490583 0.00357343 0.00012394)
(0.00154932 -0.0051145 -9.01117e-06)
(0.00491068 0.00581268 5.01852e-06)
(0.00100664 -0.00101126 -9.95927e-05)
(0.00601075 -0.000976158 0.000218728)
(0.0116978 -0.00366346 0.000455)
(0.0167476 -0.0143109 0.000301205)
(0.0207724 -0.0137194 0.00029988)
(0.0148853 -0.0372433 0.000956117)
(6.745e-05 -0.0617644 0.00041737)
(-0.0020767 -0.0660765 0.000154921)
(-0.00524494 -0.0650474 -9.95795e-06)
(-0.004915 -0.0610951 -4.65682e-06)
(-0.006106 -0.0566481 6.61623e-05)
(-0.00172937 -0.0314607 0.000225443)
(-0.000130974 0.0497888 8.10152e-05)
(-0.000550842 0.127598 4.12454e-05)
(0.00446679 0.0666467 0.000588032)
(0.00761033 0.0735929 0.000636698)
(0.00603782 0.0626958 0.000309913)
(0.00618518 0.0919982 0.000451672)
(0.00216465 0.121316 0.000117992)
(-0.00248709 0.111643 4.84605e-05)
(-0.00348208 0.0995313 6.37201e-06)
(-0.00582279 0.0920893 0.000446014)
(-0.0157279 0.0570557 0.000967108)
(-0.0149445 0.00829993 0.000536381)
(-0.0097507 -0.00121957 0.000159596)
(-0.00360565 -0.00207778 0.000525254)
(0.00207308 -0.0140559 0.000158173)
(0.00465808 0.00853179 0.000178469)
(0.00333001 -0.00125894 1.50129e-05)
(0.0122012 -0.010799 0.000487041)
(0.0145989 -0.015287 0.000428359)
(0.0193039 -0.0201218 8.74985e-05)
(0.0189903 -0.0164815 0.000503104)
(0.0147971 -0.0377136 0.000758337)
(0.00204331 -0.0607325 0.000312778)
(0.00116582 -0.0640447 0.000147957)
(-0.00241998 -0.0633822 3.48392e-06)
(-0.00219842 -0.0606469 -2.89954e-06)
(-0.00339187 -0.0564029 9.79282e-06)
(-0.000694926 -0.0365706 1.47849e-05)
(0.000818698 0.0492979 0.000133742)
(-0.00133874 0.127358 -2.91143e-05)
(0.00010041 0.0615597 0.000244977)
(0.00228653 0.0613094 0.00104035)
(0.00320385 0.0547485 0.000390704)
(-5.7475e-05 0.0870209 0.000305747)
(-0.00272896 0.124764 0.00010911)
(-0.00709922 0.113137 0.000107923)
(-0.00762582 0.101385 4.03066e-05)
(-0.0103082 0.0923804 0.000628429)
(-0.0224171 0.0510544 0.00126047)
(-0.013832 0.00367455 0.000273476)
(-0.00793901 -0.00984518 0.000354515)
(-0.000528118 -0.0105065 -5.8445e-05)
(-0.00120655 -0.018628 0.000156042)
(0.00233847 0.00818885 -8.09789e-05)
(0.00955083 -0.0103882 0.000569761)
(0.0106893 -0.0171831 -0.000314886)
(0.0172118 -0.0204797 -0.000150443)
(0.0198626 -0.0244286 0.000402576)
(0.0194277 -0.0192032 -4.88114e-05)
(0.0186312 -0.0366103 0.00080076)
(0.00424193 -0.0597748 0.000210438)
(0.00459369 -0.062683 0.00014237)
(0.000389356 -0.0618878 -1.04821e-05)
(0.000156361 -0.0603279 -1.6944e-06)
(-0.00121753 -0.0558112 -4.33515e-06)
(0.000181467 -0.0375835 -4.30251e-05)
(0.00137699 0.0490105 0.000211854)
(-0.00194453 0.126519 -8.33041e-05)
(-0.00112678 0.0590134 5.37357e-05)
(-0.000422207 0.0410094 0.000573223)
(-0.000663297 0.0476305 0.000108579)
(-0.0058673 0.0884143 0.000171774)
(-0.00937718 0.127249 0.000104203)
(-0.0133428 0.114939 3.69899e-05)
(-0.0139007 0.104835 -2.90322e-05)
(-0.0158432 0.0920383 0.000578551)
(-0.0212574 0.0387499 0.0009165)
(-0.00677547 -0.0088063 0.000704444)
(-0.00483394 -0.0167804 0.000101006)
(-0.00183347 -0.013685 6.15489e-05)
(-0.00334715 -0.0189005 0.000127905)
(-6.97539e-05 -0.00567324 0.000280233)
(0.00740261 -0.0169422 8.83648e-05)
(0.0108719 -0.019985 0.000150216)
(0.0118228 -0.0241213 -2.02811e-05)
(0.0174102 -0.0268313 2.00477e-05)
(0.0249905 -0.0242133 0.000536748)
(0.0204749 -0.0365592 0.00103018)
(0.00622061 -0.0578705 3.5242e-05)
(0.00738671 -0.0599546 0.000170192)
(0.0026369 -0.0591795 -1.27285e-05)
(0.00184685 -0.0586367 2.53786e-05)
(0.00056134 -0.0546829 4.02144e-06)
(0.000697409 -0.0375834 -2.81222e-05)
(0.00154825 0.0485575 0.000267138)
(-0.00212385 0.125319 -0.000107032)
(-0.000635495 0.0568261 4.47921e-05)
(-0.00160706 0.0286709 0.000116596)
(-0.00416999 0.0482082 -4.30087e-05)
(-0.0136504 0.0959754 0.000172621)
(-0.0160909 0.130381 5.41545e-05)
(-0.0197878 0.116459 9.56529e-05)
(-0.0215711 0.107231 2.23462e-05)
(-0.023464 0.0861433 0.000153725)
(-0.00892666 0.01886 0.000651447)
(-0.00247729 -0.0162725 0.000481736)
(-0.00409952 -0.0198276 -8.19136e-06)
(-0.00242501 -0.0161823 0.000291255)
(-0.00358864 -0.0206164 2.10161e-05)
(-0.00287714 -0.015951 0.000232546)
(0.00237525 -0.0251147 -0.000342786)
(0.00666222 -0.0232471 0.000314348)
(0.00506767 -0.0285107 0.000418395)
(0.0150013 -0.0385659 -0.000564317)
(0.0309051 -0.0368548 0.000727269)
(0.0263205 -0.0451652 0.00189938)
(0.0078642 -0.0563139 8.8627e-05)
(0.00957484 -0.0587772 0.000248074)
(0.00463184 -0.0573687 6.91152e-07)
(0.00312112 -0.0571311 3.04808e-05)
(0.00197193 -0.0532348 4.74613e-07)
(0.000975873 -0.0366442 5.88798e-06)
(0.00141396 0.046487 0.000270131)
(-0.00182307 0.123691 -9.92569e-05)
(-0.000297678 0.0545263 7.65746e-05)
(-0.00200077 0.0278446 -2.97455e-05)
(-0.00756831 0.055928 -0.000188268)
(-0.020127 0.104308 0.000320996)
(-0.0221702 0.132005 5.49607e-05)
(-0.0262403 0.119552 -3.29562e-05)
(-0.0311657 0.112905 -0.000139622)
(-0.0260416 0.0801164 -0.00078595)
(-0.00838968 0.00324015 0.000339052)
(-0.00660416 -0.0151495 -0.000539094)
(-0.00751658 -0.0186528 -0.000370469)
(-0.00560483 -0.0166716 -0.000660762)
(-0.00779653 -0.01977 -0.000296869)
(-0.00783298 -0.0164206 -0.000797106)
(-0.00755148 -0.0216975 -0.00054082)
(-0.00755095 -0.0240962 -0.000817423)
(0.00382445 -0.0342596 -0.000961356)
(0.0108806 -0.0454673 -0.00045227)
(0.034623 -0.0515451 -0.000396138)
(0.0313189 -0.0561658 0.00234973)
(0.0137137 -0.0541044 9.32209e-05)
(0.0118874 -0.0552733 0.000224589)
(0.00671397 -0.0538964 1.93371e-05)
(0.00398384 -0.0544049 3.73015e-05)
(0.00259994 -0.0510212 -1.66417e-06)
(0.00078276 -0.035002 1.09211e-05)
(0.00101448 0.0439461 0.00017847)
(-0.00133326 0.122146 -8.13924e-05)
(-5.04715e-05 0.051715 5.89435e-05)
(-0.00302228 0.0324665 -0.000281459)
(-0.0126109 0.0697843 -0.000120683)
(-0.0256799 0.113016 0.000263161)
(-0.0286165 0.136417 -5.6981e-05)
(-0.0334179 0.127186 -0.000181137)
(-0.0370336 0.117807 0.000152637)
(-0.028903 0.0657523 0.000160205)
(-0.0226662 0.00349384 0.000663122)
(-0.0236842 -0.00305056 -0.00132361)
(-0.0161997 -0.00456384 -0.00133554)
(-0.014448 -0.00152059 -0.00151215)
(-0.0140382 -0.002324 -0.0014122)
(-0.0187769 -0.000602195 -0.00150304)
(-0.0221136 -0.00512643 -0.00167663)
(-0.0245199 -0.00677695 -0.00201159)
(-0.0124277 -0.0144967 -0.00309965)
(-0.00335439 -0.0268223 -0.00357128)
(0.0340754 -0.0317233 -0.00434705)
(0.0354458 -0.0454259 5.80927e-06)
(0.0190224 -0.0456965 -0.000148184)
(0.012575 -0.0476228 1.98958e-06)
(0.00772319 -0.0495961 -1.70885e-05)
(0.00419806 -0.0515185 1.32834e-05)
(0.00272977 -0.048142 -9.1131e-06)
(0.000346579 -0.0329597 5.38076e-06)
(0.000418311 0.0427595 6.07242e-05)
(-0.000803348 0.121024 -5.51115e-05)
(0.000171138 0.0495686 -2.19308e-05)
(-0.00472036 0.0431345 -0.000413827)
(-0.0152124 0.0851919 8.62222e-06)
(-0.0251771 0.121388 8.78204e-05)
(-0.0284464 0.141678 -3.06563e-05)
(-0.0307804 0.133506 -9.69748e-05)
(-0.0323025 0.114926 0.000292826)
(-0.0156691 0.0510472 0.0012099)
(-0.00570728 0.00443973 0.00157804)
(-0.00781588 0.00332093 0.000976903)
(-0.00859716 0.00161597 0.000836837)
(-0.00700938 0.00641169 0.000810332)
(-0.00475528 0.00976553 0.00081879)
(-0.00603012 0.0175051 0.000917367)
(-0.00818703 0.0200132 0.000716948)
(-0.0122806 0.0194602 0.000642714)
(-0.00832933 0.0142771 4.90894e-06)
(-0.00204 -3.17967e-05 -0.000293191)
(0.0087823 -0.00260602 -0.000237309)
(0.0116379 -0.0302802 8.78775e-05)
(0.00800917 -0.0381436 -5.13265e-05)
(0.00700904 -0.0436143 2.92576e-06)
(0.00480655 -0.046514 3.75716e-06)
(0.0026926 -0.0488474 2.003e-05)
(0.00168118 -0.0439396 5.41149e-05)
(-0.000725078 -0.0304245 9.55109e-06)
(-0.000190645 0.0426465 -5.97777e-05)
(-0.000309343 0.120266 -1.84191e-06)
(0.000684338 0.0490206 -0.000152288)
(-0.00543523 0.0520846 -0.000337277)
(-0.016043 0.0963591 0.000171835)
(-0.0242042 0.128174 4.95961e-05)
(-0.0283628 0.145069 7.10075e-07)
(-0.0301546 0.135123 -3.53508e-06)
(-0.0315245 0.102274 -5.21596e-05)
(-0.0133836 0.0180022 0.000796068)
(-0.0112165 -0.00885374 0.00105901)
(-0.0096018 -0.0152389 2.33792e-05)
(-0.00876941 -0.0168074 -1.85688e-05)
(-0.0071484 -0.015149 -7.2329e-06)
(-0.00490744 -0.0129097 -0.000115464)
(-6.46794e-05 -0.00878724 -6.94771e-05)
(0.00137654 -0.00428885 0.000120798)
(-0.00336629 -0.00714889 0.000381851)
(-0.00313809 -0.0146938 0.000202949)
(0.000238816 -0.0206286 -3.37862e-05)
(0.00666676 -0.0234994 -0.000181804)
(0.00955697 -0.033538 -1.67421e-05)
(0.00689005 -0.0377693 -2.1479e-05)
(0.0058734 -0.0412633 1.19815e-05)
(0.00403504 -0.0443133 -1.89696e-05)
(0.00224464 -0.0466641 -5.24377e-06)
(0.00104653 -0.0372814 0.000192666)
(-0.00162881 -0.0282459 5.72356e-06)
(-0.000568266 0.0421291 -0.000182987)
(0.000456926 0.119631 3.68105e-05)
(0.000909229 0.0516597 -0.000303691)
(-0.00574368 0.0626205 -0.000343824)
(-0.0141336 0.106019 0.00016628)
(-0.0205073 0.134406 1.29916e-06)
(-0.0242551 0.148178 -2.52406e-06)
(-0.0261768 0.135542 0.000268152)
(-0.0238796 0.0907503 -2.81622e-05)
(-0.00959403 0.0111989 0.00102514)
(-0.010699 -0.00354621 0.000487878)
(-0.00878206 -0.0118102 0.000125573)
(-0.00653108 -0.0136849 7.76134e-05)
(-0.00351513 -0.0120864 0.000153101)
(-0.000940311 -0.00930625 0.000169566)
(0.00224771 -0.00396431 0.000244132)
(0.0027263 0.00512085 0.000315236)
(-0.00381786 0.000859505 0.000439997)
(-0.00479034 -0.0119948 0.000170171)
(-0.00144344 -0.0187545 3.77072e-05)
(0.00217413 -0.0221623 -5.6521e-06)
(0.00422472 -0.0310507 3.16806e-05)
(0.00360499 -0.0360592 -2.39641e-05)
(0.00333152 -0.0398353 -1.15935e-05)
(0.00240065 -0.0423813 -9.95681e-06)
(0.00127765 -0.0444682 -1.21125e-06)
(0.000255772 -0.029569 9.2919e-05)
(-0.00244576 -0.025502 1.64121e-05)
(-0.000847631 0.0422709 -0.000319502)
(0.00139445 0.119671 5.1037e-05)
(0.00188769 0.0569871 -0.000414731)
(-0.0047588 0.0695557 -0.000232711)
(-0.0114394 0.112946 0.000245528)
(-0.0172679 0.13957 9.3104e-05)
(-0.0212732 0.151313 7.83417e-05)
(-0.0230176 0.132088 0.000360292)
(-0.0208394 0.0766841 -0.000131947)
(-0.00689213 0.00437366 0.000864848)
(-0.0108217 -0.00758564 0.00037034)
(-0.00857664 -0.0161444 -0.000136094)
(-0.00630467 -0.0178802 -0.000234294)
(-0.00320344 -0.0175212 -0.000185749)
(-0.000693306 -0.0159399 -0.000219159)
(0.0016242 -0.0133692 -7.41496e-05)
(0.00406783 -0.00530247 6.27288e-05)
(0.0003874 -0.00639507 0.000236944)
(-0.00208297 -0.01689 1.51897e-05)
(-0.000467769 -0.0225521 -2.27724e-05)
(0.00113237 -0.0256322 -6.74645e-05)
(0.00251642 -0.031866 -3.25367e-05)
(0.002346 -0.0355656 -4.04058e-05)
(0.00226915 -0.0381512 -1.9933e-05)
(0.00155439 -0.0405949 -3.16894e-05)
(0.000953688 -0.0425033 -2.29987e-05)
(3.18862e-05 -0.0264219 -0.000284534)
(-0.00211024 -0.0231562 6.41275e-06)
(-0.000806991 0.0422449 -0.000299114)
(0.00205004 0.120691 4.62297e-05)
(0.00218827 0.0637455 -0.000394711)
(-0.00355212 0.0776075 -0.000182092)
(-0.00758772 0.117625 0.000160814)
(-0.0116925 0.142777 0.000115384)
(-0.0162162 0.151937 0.000179479)
(-0.0174766 0.127708 0.00035859)
(-0.0179783 0.0647581 -5.32539e-05)
(-0.00606898 0.00378979 0.000916568)
(-0.00829183 -0.00845432 0.00194763)
(-0.00743436 -0.0175679 0.00015867)
(-0.00472386 -0.0182589 -3.39528e-05)
(-0.00207191 -0.0166409 -4.92537e-05)
(0.000157033 -0.0147631 -5.42464e-05)
(0.00194404 -0.0126378 4.50143e-05)
(0.00318769 -0.0033968 0.000235095)
(-0.00121512 -0.00553182 0.000324425)
(-0.00229251 -0.0167184 3.30622e-05)
(-0.000768516 -0.0224307 -1.12186e-05)
(0.000172397 -0.0252672 -3.43287e-05)
(0.00102763 -0.0302891 -2.90069e-05)
(0.00104596 -0.0337295 -5.9664e-05)
(0.00104531 -0.036188 -8.0962e-05)
(0.000824586 -0.0381387 -7.39633e-05)
(0.000553722 -0.0399257 -7.07959e-05)
(-7.6728e-05 -0.0239712 -0.000272718)
(-0.00158758 -0.020817 -1.37964e-05)
(-0.000383807 0.0416168 -0.000186113)
(0.00200359 0.122642 3.63559e-05)
(0.00286245 0.0668215 -0.000312322)
(-0.00300502 0.080926 -8.20284e-05)
(-0.00546774 0.118577 0.000281851)
(-0.00824502 0.145996 0.000151136)
(-0.0118921 0.153879 0.000148436)
(-0.010681 0.12796 0.000299556)
(-0.0143701 0.0622714 7.26135e-05)
(-0.00605791 -0.00320728 0.000712326)
(-0.00549191 -0.0162928 0.00117172)
(-0.00504915 -0.0234611 1.0964e-05)
(-0.00278049 -0.0211005 -9.84294e-05)
(-0.000931024 -0.017932 -5.83359e-05)
(0.000127453 -0.0161153 -6.00623e-05)
(0.00067335 -0.014827 -1.51851e-05)
(0.00141879 -0.00711303 4.42522e-05)
(-0.00052005 -0.00808777 0.000111292)
(-0.000850097 -0.0171774 -3.27051e-05)
(-0.000179594 -0.0218359 -4.0576e-05)
(0.000140427 -0.0243291 -5.42065e-05)
(0.000580437 -0.0284047 -6.65982e-05)
(0.000688744 -0.0307731 -6.35874e-05)
(0.000608881 -0.0323932 -5.11077e-05)
(0.000374639 -0.0342792 -5.06896e-05)
(0.000104639 -0.0360851 -4.24077e-05)
(-6.99769e-06 -0.0237416 -0.00019315)
(-0.000596007 -0.0186952 3.45978e-06)
(-0.000102914 0.03984 -7.14484e-05)
(0.00193931 0.123443 4.21788e-05)
(0.00291269 0.0763469 -0.00021329)
(0.00027919 0.0888033 -0.000158785)
(-0.00184141 0.115296 0.000253672)
(-0.00426219 0.145523 0.000160252)
(-0.00612741 0.151467 0.000200717)
(-0.0048711 0.123818 0.000251479)
(-0.00688625 0.0578216 0.000223369)
(-0.00256748 -0.0143128 0.000645688)
(-0.00209138 -0.0215068 0.000105913)
(-0.00192683 -0.0233184 -5.95858e-05)
(-0.000979666 -0.0189107 -0.000146458)
(-0.000394382 -0.0161703 -0.000131282)
(5.75714e-05 -0.0143813 -0.000124307)
(0.000315119 -0.0135218 -8.82504e-05)
(0.000252979 -0.00710297 -3.69486e-05)
(-0.000439322 -0.00803305 -3.65819e-05)
(-0.000522586 -0.0153112 -0.000135026)
(-0.000209026 -0.0186928 -0.000168811)
(-4.95579e-07 -0.020554 -0.000180713)
(0.000110581 -0.023372 -0.000185767)
(0.000152352 -0.0251624 -0.000187319)
(0.00017943 -0.0265522 -0.000192959)
(0.000153317 -0.0281001 -0.00019007)
(-3.4159e-05 -0.0297354 -0.000182846)
(6.99664e-05 -0.0286062 -0.000172253)
(0.000146922 -0.0144811 6.26982e-05)
(4.07752e-05 0.0379098 2.25878e-05)
(0.00094511 0.125154 -3.19152e-06)
(-0.0189106 0.0249763 -0.00238411)
(-0.0326785 0.0197272 -0.00537394)
(-0.0391423 0.0147806 -0.00555559)
(-0.0441036 0.016153 -0.00462695)
(-0.0586681 0.019648 -0.00437461)
(-0.0720461 0.0226064 -0.00451939)
(-0.0824838 0.0199253 -0.00396771)
(-0.0950364 0.018103 -0.00364505)
(-0.105995 0.0193712 -0.00367525)
(-0.114405 0.0200373 -0.00356799)
(-0.123217 0.0210015 -0.00362461)
(-0.129913 0.0215888 -0.00381713)
(-0.134557 0.0223653 -0.0040646)
(-0.136964 0.0238138 -0.00451097)
(-0.137075 0.0251997 -0.0050894)
(-0.132263 0.0266659 -0.00589346)
(-0.123304 0.0282909 -0.0066706)
(-0.108134 0.0292617 -0.00746401)
(-0.0891177 0.0284455 -0.0079731)
(-0.0638829 0.0257358 -0.00863666)
(-0.0365228 0.0238132 -0.00869629)
(-0.00475761 0.0205252 -0.00896583)
(0.0239204 0.0215525 -0.00801004)
(0.0487954 0.0228048 -0.00712606)
(0.0658637 0.0238078 -0.00530585)
(0.0626236 0.0264447 -0.00380206)
(0.0461083 0.0274134 -0.00348987)
(0.0245935 0.02413 -0.00291495)
(-0.017776 0.0990294 0.000512049)
(-0.0290688 0.1015 -0.0017272)
(-0.0453994 0.0868268 -0.00299129)
(-0.0494883 0.0863385 -0.00305033)
(-0.0597172 0.0874228 -0.00285453)