/*--------------------------------*- C++ -*----------------------------------*\
| =========                 |                                                 |
| \\      /  F ield         | OpenFOAM: The Open Source CFD Toolbox           |
|  \\    /   O peration     | Version:  2.3.0                                 |
|   \\  /    A nd           | Web:      www.OpenFOAM.org                      |
|    \\/     M anipulation  |                                                 |
\*---------------------------------------------------------------------------*/
FoamFile
{
    version     2.0;
    format      ascii;
    class       volVectorField;
    location    "1.90041";
    object      U.airMean;
}
// * * * * * * * * * * * * * * * * * * * * * * * * * * * * * * * * * * * * * //

dimensions      [0 1 -1 0 0 0 0];

internalField   nonuniform List<vector> 
18816
(
(-0.00769495 0.00532063 -0.00113167)
(-0.015661 0.00729905 -7.29964e-05)
(-0.0182797 0.00500447 -5.52054e-05)
(-0.014411 0.00522976 0.000320957)
(-0.0134753 0.00527307 0.000361688)
(-0.0123752 0.00519541 0.000423219)
(-0.0136357 0.00524236 0.00028664)
(-0.0151317 0.00605393 8.51307e-05)
(-0.0160824 0.00615828 -0.000118952)
(-0.0185959 0.00694781 -0.000195678)
(-0.0241927 0.00706094 -0.000290552)
(-0.0343727 0.00643473 -0.000262259)
(-0.0420481 0.0067421 -0.000408078)
(-0.0479514 0.00823101 -0.000475413)
(-0.0497378 0.00841229 -0.000609868)
(-0.0454937 0.00893219 -0.000776676)
(-0.0405233 0.00981478 -0.000761826)
(-0.0350493 0.00962051 -0.000715999)
(-0.027393 0.00911145 -0.000785786)
(-0.0149357 0.00907726 -0.00100069)
(-0.000665514 0.0097116 -0.00107157)
(0.0133932 0.00982038 -0.00104954)
(0.0244673 0.00981539 -0.00091773)
(0.0323998 0.00990372 -0.000892335)
(0.0349187 0.0103845 -0.000869521)
(0.0324677 0.0121532 -0.000748815)
(0.0180154 0.0130019 -0.000525488)
(0.00451862 0.00692381 -0.00169818)
(-0.00404763 0.0394003 -0.000745084)
(-0.0096448 0.0246524 0.000505488)
(-0.0126644 0.00880394 0.000714928)
(-0.0116413 0.000924164 0.000719017)
(-0.0144394 0.00188962 0.000613805)
(-0.0159395 0.00436306 0.000558379)
(-0.0181358 0.00847686 0.000387154)
(-0.0198708 0.0135415 0.000212592)
(-0.021557 0.0186671 -5.32343e-05)
(-0.0223362 0.0258087 -0.000387314)
(-0.0239866 0.0349133 -0.000868071)
(-0.0276477 0.036785 4.32345e-05)
(-0.0315464 0.0299686 8.59966e-05)
(-0.0369575 0.0231779 0.00020502)
(-0.0392078 0.0180167 0.000270982)
(-0.0369906 0.0140836 0.000323891)
(-0.033101 0.0121377 0.000503828)
(-0.0286499 0.0100955 0.000509907)
(-0.0228701 0.00972919 0.000433293)
(-0.013888 0.0101881 0.00034825)
(-0.00337217 0.0122806 0.000434707)
(0.00746377 0.0143873 0.000525824)
(0.0160494 0.0164295 0.000676527)
(0.0234585 0.0191008 0.000716683)
(0.0260034 0.0246915 0.000640443)
(0.0250779 0.0325228 0.00036754)
(0.0156185 0.0430511 0.000157556)
(0.00411908 0.0436765 -0.00143784)
(-7.65744e-05 0.0407106 -0.000686597)
(-0.00244583 0.0160116 9.0724e-05)
(-0.00770142 -0.00416841 9.46652e-05)
(-0.00957835 -0.00899609 -1.43502e-05)
(-0.0139583 -0.00777281 -0.000401496)
(-0.0155654 -0.00465853 -0.000686692)
(-0.0174065 -0.00106295 -0.0011079)
(-0.0179434 0.00373018 -0.0013927)
(-0.0195114 0.00844617 -0.00157786)
(-0.0197531 0.0181443 -0.00178205)
(-0.0191385 0.0292668 -0.00301774)
(-0.0210192 0.0277398 -0.000913276)
(-0.0230883 0.0241055 8.45947e-05)
(-0.0260941 0.0183747 0.00012101)
(-0.0277712 0.00893431 0.000233492)
(-0.0272146 0.00324663 0.000318123)
(-0.025042 0.000174522 0.000321379)
(-0.0221221 -0.00174338 0.000265954)
(-0.0174387 -0.0035019 0.000311519)
(-0.0109088 -0.00489769 0.000268695)
(-0.00376185 -0.00438146 0.000268068)
(0.00364038 -0.00330673 0.000229664)
(0.00958667 -0.00183344 0.000224409)
(0.0154347 0.00126078 0.000244346)
(0.0181367 0.00950875 0.000390206)
(0.0194589 0.0251187 0.000325451)
(0.00890919 0.0414399 0.000232886)
(0.000880051 0.0517439 -0.00130128)
(0.00226976 0.0513239 -2.21614e-05)
(0.00061348 0.0251378 0.000239718)
(-0.00661874 0.000451629 0.000266033)
(-0.00825259 -0.00464975 0.000265061)
(-0.0117132 -0.00188804 9.08912e-05)
(-0.0127067 0.00128602 5.25633e-05)
(-0.0141255 0.00447498 -5.61788e-05)
(-0.0146412 0.00799641 1.09707e-05)
(-0.0157759 0.0116696 -7.23664e-06)
(-0.0142441 0.0198797 -0.000140873)
(-0.0116068 0.0284971 -0.000167608)
(-0.0133844 0.0315548 -0.00279748)
(-0.0163886 0.0257299 0.000212973)
(-0.0158914 0.0178481 0.00058765)
(-0.0154026 0.00614332 0.000634703)
(-0.0143285 -0.00307814 0.000613608)
(-0.0136709 -0.00629761 0.000533779)
(-0.0120373 -0.0094633 0.000601046)
(-0.00972726 -0.0123166 0.00069713)
(-0.00638477 -0.0143582 0.000632504)
(-0.0025122 -0.0132167 0.00064961)
(0.000853339 -0.0108165 0.000485377)
(0.00396371 -0.00713481 0.000357258)
(0.00739692 -0.00356571 0.000260755)
(0.00980965 0.00527816 0.000437815)
(0.0127806 0.027542 0.00034771)
(0.00432122 0.0510616 0.00042723)
(-0.00161949 0.0637784 -0.000327646)
(0.00290852 0.0543167 -8.94099e-05)
(0.00189141 0.0303229 0.000132306)
(-0.00476325 0.00105494 0.000256619)
(-0.00588785 -0.00273615 -7.44236e-05)
(-0.00810149 0.000486807 -0.000202941)
(-0.00930414 0.00377934 -0.000207664)
(-0.0102866 0.00683033 -0.000282981)
(-0.0105344 0.0080044 7.86149e-05)
(-0.0113339 0.0104694 6.78567e-05)
(-0.0104403 0.0187699 -4.55708e-05)
(-0.00796905 0.0258801 -5.05326e-05)
(-0.0080721 0.0271794 -0.000915428)
(-0.0104636 0.0198104 6.55096e-06)
(-0.0073335 0.00897615 0.000245063)
(-0.0053116 -0.0015081 0.000210361)
(-0.00436409 -0.00946039 0.000169722)
(-0.00581121 -0.0126944 0.000192992)
(-0.00577327 -0.0184235 0.000278871)
(-0.00563802 -0.0226112 0.000385366)
(-0.00447174 -0.0262408 0.000357827)
(-0.0029551 -0.0249251 0.000497923)
(-0.00275298 -0.0206328 0.000348927)
(-0.00110613 -0.0150375 0.000200397)
(0.00120109 -0.00992405 7.57456e-05)
(0.00325965 -0.00137223 0.000122177)
(0.00653532 0.0243549 8.6559e-05)
(0.00181479 0.0527447 0.000221768)
(-0.00178008 0.0666846 -0.000216986)
(0.00394853 0.0563688 3.34193e-05)
(0.0032016 0.0364196 0.000272007)
(-0.00255914 0.00536695 0.000185354)
(-0.00271653 0.00166952 0.000498749)
(-0.00451807 0.00384659 0.000876027)
(-0.0060232 0.00730995 0.00118648)
(-0.00702476 0.0093532 0.00131095)
(-0.00759612 0.00892561 4.58866e-06)
(-0.00675732 0.00975612 4.8554e-06)
(-0.00573709 0.0170906 7.51167e-05)
(-0.00425893 0.0229229 0.000224485)
(-0.00433897 0.0228197 -0.000178559)
(-0.00667506 0.0158675 0.00022123)
(-0.00341943 0.00379549 0.000278009)
(-0.00234634 -0.00424439 0.000152292)
(-0.00104248 -0.00924188 4.47602e-05)
(-0.00269282 -0.0125198 0.000139338)
(-0.00305684 -0.0203391 0.000197604)
(-0.00419542 -0.0257856 0.000335342)
(-0.00458477 -0.0311143 0.000343051)
(-0.00413637 -0.0303315 0.000479157)
(-0.00517305 -0.0254341 0.00038658)
(-0.00440899 -0.0190161 0.000278632)
(-0.00231888 -0.0124424 0.00012584)
(-0.000598549 -0.00270362 6.81841e-05)
(0.00220152 0.024487 0.000118997)
(-0.000693951 0.0550321 0.000243181)
(-0.00230415 0.0679412 8.59592e-06)
(0.00359357 0.0566473 9.32141e-05)
(0.00423861 0.0379256 0.000354295)
(-0.000309521 0.00748012 0.000118744)
(-0.00131534 0.00385074 0.000360931)
(-0.00438316 0.00544644 0.000570506)
(-0.00659535 0.00854591 0.000748161)
(-0.00844343 0.0101061 0.000900168)
(-0.0073203 0.00703528 0.00171604)
(-0.00509706 0.00747903 0.00146287)
(-0.00330747 0.0136559 0.00140735)
(-0.00163287 0.0177089 0.000106173)
(-0.00202958 0.0161483 8.18081e-05)
(-0.00430955 0.00948342 0.000280883)
(-0.00254811 -0.000826689 0.00019752)
(-0.0024361 -0.00617663 -1.0901e-05)
(0.000274805 -0.00841509 -0.000186576)
(-0.00116095 -0.0115422 -4.12968e-05)
(-0.00118637 -0.0210155 -2.08559e-05)
(-0.00340074 -0.027727 0.000144982)
(-0.00530028 -0.0351735 0.000114014)
(-0.00431645 -0.034726 0.000235854)
(-0.00527006 -0.02974 0.000197432)
(-0.00487186 -0.023462 0.000139571)
(-0.00322612 -0.0163988 7.89637e-05)
(-0.00223011 -0.00531282 1.16483e-05)
(-7.71151e-05 0.0227242 6.74302e-05)
(-0.0018802 0.0548258 0.000153102)
(-0.00217143 0.0671299 6.45231e-05)
(0.00347036 0.0558279 0.000190694)
(0.00432884 0.0350369 0.000377926)
(0.00066517 0.00966548 8.07057e-05)
(-0.000473009 0.00448986 0.000252941)
(-0.00365848 0.00557169 0.000342902)
(-0.00616217 0.00797698 0.00042985)
(-0.00877194 0.00929263 0.000462433)
(-0.00877737 0.00802182 0.000886345)
(-0.00596284 0.00910175 0.000800593)
(-0.0042068 0.0151952 0.000823636)
(-0.000912764 0.0141699 9.32392e-05)
(-0.000394233 0.0112394 -1.44121e-05)
(-0.00143577 0.00378496 0.00021004)
(-0.000698945 -0.00338269 0.000130659)
(-0.000656424 -0.00729443 8.27433e-06)
(0.00231345 -0.00757115 -9.17405e-05)
(-0.000496923 -0.0102206 6.31308e-05)
(0.000109097 -0.0207858 -8.94724e-05)
(-0.00339982 -0.0259531 0.000152708)
(-0.00656576 -0.0354965 1.14659e-05)
(-0.00452677 -0.0361871 0.000130407)
(-0.004824 -0.0311049 0.000137485)
(-0.00454506 -0.0253775 0.00012546)
(-0.00328844 -0.0186224 8.67793e-05)
(-0.0026751 -0.00568868 5.39027e-05)
(-0.00127771 0.0215763 0.000102023)
(-0.00269972 0.0543753 0.000157107)
(-0.00212941 0.0655888 0.000121862)
(0.0036227 0.0536233 0.000223458)
(0.00481716 0.033924 0.000227108)
(0.00127043 0.0115993 2.38748e-05)
(8.81925e-05 0.00432407 0.000100084)
(-0.00272208 0.00509459 0.000203476)
(-0.00553324 0.00701831 0.000266847)
(-0.00901792 0.00773147 0.000238813)
(-0.00940457 0.00506399 0.000222273)
(-0.00734941 0.00691059 0.000128683)
(-0.00514525 0.0138685 0.000151086)
(-0.00109004 0.0141411 0.00128266)
(0.00126133 0.0108675 0.000925713)
(0.00323895 0.00345326 -2.70413e-05)
(0.00381894 -0.00255675 -7.06674e-05)
(0.00249268 -0.00679738 -0.000125102)
(0.00415 -0.00394927 -0.000234805)
(-0.000445672 -0.00681256 -6.78612e-05)
(0.00277581 -0.0106828 -0.000885245)
(-0.00208624 -0.0205185 0.000109536)
(-0.00712947 -0.0329537 -0.000256144)
(-0.00463747 -0.0364404 -6.65193e-05)
(-0.00421363 -0.0322217 2.72351e-05)
(-0.0041521 -0.0270799 6.66797e-05)
(-0.00321675 -0.0205344 1.46773e-05)
(-0.0023232 -0.00658556 5.27743e-05)
(-0.00147425 0.0198996 0.000114081)
(-0.00299545 0.0532266 0.000139362)
(-0.00187536 0.0633752 0.000127504)
(0.00378539 0.0516827 0.000217561)
(0.00618923 0.0360273 9.58752e-05)
(0.00211701 0.014865 1.36249e-05)
(0.000365618 0.00592424 3.43247e-05)
(-0.00238603 0.00634861 0.000100532)
(-0.00519334 0.00840422 0.000144394)
(-0.00905388 0.00983025 0.000109522)
(-0.00903441 0.00754018 -0.000119387)
(-0.00830419 0.00983693 0.000104148)
(-0.00682866 0.0120699 0.000142361)
(-0.0012718 0.0140784 0.000565568)
(0.00458564 0.0119744 0.000301923)
(0.00872937 -3.99603e-05 0.000108123)
(0.00924076 -0.00173297 8.23365e-05)
(0.00846415 -0.00789025 0.000128347)
(0.00715432 -0.00390529 0.000160056)
(0.0111594 -0.00555197 9.45834e-05)
(0.00518225 -0.012598 0.00157607)
(-0.00921237 -0.0175635 0.000425087)
(-0.00895763 -0.0315567 8.99803e-05)
(-0.00644505 -0.0358294 -0.000105464)
(-0.00444216 -0.0326222 4.36567e-05)
(-0.00445505 -0.0276028 3.6355e-05)
(-0.00315113 -0.0212653 1.08002e-05)
(-0.00203903 -0.00760719 0.000119983)
(-0.00132126 0.0189171 0.000133898)
(-0.00313454 0.0520117 0.000127574)
(-0.00159885 0.0610122 0.000127011)
(0.00396657 0.0502833 0.000296371)
(0.00676428 0.0393341 0.000134906)
(0.00246043 0.0177464 9.02074e-05)
(0.000856332 0.00735633 5.06215e-05)
(-0.00168393 0.0075764 4.25332e-05)
(-0.00260441 0.00939064 7.16786e-05)
(-0.00582781 0.0105603 0.000176591)
(-0.0041358 0.00809531 -1.46995e-05)
(-0.00810819 0.00648609 0.000870122)
(-0.00896789 0.00548588 7.73661e-05)
(-0.00177682 0.00662576 0.000185384)
(0.00326188 0.00569529 -6.4012e-06)
(0.00699376 -0.00285734 2.29301e-05)
(0.00604272 -0.00442596 8.72042e-05)
(0.00492868 -0.00879787 8.99902e-05)
(0.00439476 -0.00895576 0.000156429)
(0.00452132 -0.0103775 0.00019724)
(0.00396101 -0.0186544 0.000264602)
(-0.00360248 -0.0184199 0.000576297)
(-0.00689245 -0.0312146 -0.000246246)
(-0.00474235 -0.0358197 -9.50777e-05)
(-0.00430656 -0.0332202 3.66455e-05)
(-0.00460736 -0.0282387 -8.4919e-06)
(-0.00302013 -0.022383 -1.25269e-05)
(-0.00206024 -0.0105052 9.41832e-05)
(-0.000942677 0.0179236 0.00012288)
(-0.00298589 0.0507117 0.000115799)
(-0.00130446 0.0587395 0.000112219)
(0.00358431 0.0481079 0.000368157)
(0.00624869 0.0401702 0.000259562)
(0.002352 0.0188798 0.000144671)
(0.00103409 0.00851242 7.37116e-05)
(-0.0013431 0.00835451 3.53871e-05)
(-0.000936716 0.00986992 4.02148e-05)
(-0.00330751 0.00993721 0.000241481)
(-0.0029841 0.00753222 0.000209413)
(-0.0079423 0.00218891 0.000463258)
(-0.0068182 0.00327598 -4.80526e-05)
(-0.00285361 0.00201713 -0.000101197)
(0.000998427 0.0041649 -0.000134995)
(0.00332904 -0.00360418 -9.77494e-05)
(0.0033857 -0.00185452 -0.000134031)
(0.00342283 -0.00857038 -3.95815e-05)
(0.00286263 -0.00665843 -0.000138029)
(0.00388863 -0.00848347 -0.000103855)
(0.00237589 -0.0154269 2.46161e-05)
(-0.000269639 -0.0147896 -8.95749e-05)
(-0.00185228 -0.0258666 -4.00904e-05)
(-0.00449575 -0.034334 4.54554e-06)
(-0.00432734 -0.033274 0.000147406)
(-0.00510768 -0.0283784 -1.6545e-05)
(-0.00296405 -0.0226591 -3.08946e-05)
(-0.00247858 -0.0115759 -3.31115e-05)
(-0.000572314 0.0168564 8.69876e-05)
(-0.00255549 0.0496472 0.000102044)
(-0.000950895 0.0567807 6.92803e-05)
(0.00269728 0.0452117 0.000373296)
(0.00495099 0.0384499 0.00026915)
(0.00237619 0.0190724 0.00013964)
(0.00123743 0.0088106 8.39998e-05)
(-0.000981186 0.00806465 4.35756e-05)
(-0.000109818 0.00943579 1.92345e-05)
(-0.00145698 0.00822142 0.000217769)
(-0.00115168 0.00578915 0.000278948)
(-0.00617469 0.000780784 0.000452459)
(-0.00697956 -0.000742878 8.19376e-05)
(-0.00328967 -0.00053765 -6.8963e-05)
(-0.000888834 -0.000113754 -1.93698e-05)
(0.00127099 -0.00472856 -5.84801e-05)
(0.00273663 -0.00423132 -5.50915e-06)
(0.00295591 -0.00838908 -1.55232e-05)
(0.00348867 -0.00910757 9.34982e-07)
(0.00344786 -0.0106627 -1.04443e-05)
(0.00254445 -0.014296 7.83915e-06)
(0.00194276 -0.0147601 1.62872e-05)
(-0.000281468 -0.0236163 9.40129e-05)
(-0.00403569 -0.0334347 6.29898e-05)
(-0.004073 -0.0338807 0.000102409)
(-0.00464969 -0.0287456 -4.30748e-05)
(-0.00236112 -0.0226074 -6.72829e-05)
(-0.00245121 -0.0104278 -8.89999e-05)
(-0.00029861 0.0156815 2.95734e-05)
(-0.00192249 0.0487677 9.61464e-05)
(-0.00070869 0.0555572 2.25882e-05)
(0.00188704 0.0420529 0.000276613)
(0.00367916 0.0352205 0.000195207)
(0.00189047 0.0188809 0.000106621)
(0.000794472 0.00912449 8.40617e-05)
(-0.0011887 0.0081112 1.88906e-05)
(-0.000260752 0.00885012 -1.32773e-06)
(-0.00092266 0.00679551 0.000141014)
(-0.000139089 0.00429159 0.000250943)
(-0.00543181 -9.50516e-05 0.000457435)
(-0.00645268 -1.98256e-06 8.79154e-06)
(-0.00360306 -0.00309967 -9.51844e-05)
(-0.00145437 0.000166288 -6.213e-05)
(0.000629222 -0.00662456 -8.03089e-05)
(0.00241448 -0.00250667 -2.56035e-05)
(0.00283386 -0.00921278 -2.98384e-05)
(0.00393857 -0.00623224 -2.62303e-05)
(0.00392048 -0.00729158 2.42718e-05)
(0.0037281 -0.0137441 2.1757e-05)
(0.00412212 -0.010535 2.49086e-05)
(0.00153673 -0.0206675 0.000232131)
(-0.00353371 -0.0326493 0.000121689)
(-0.00330184 -0.0336223 7.58121e-05)
(-0.00391427 -0.0287028 -3.98016e-05)
(-0.00188348 -0.0221426 -8.29458e-05)
(-0.00256569 -0.00879817 -8.23174e-05)
(-0.000154598 0.0149315 -5.79582e-05)
(-0.00117875 0.0481944 7.95422e-05)
(-0.000568132 0.0548926 -2.46246e-05)
(0.00160793 0.0400127 0.000123741)
(0.00254815 0.033416 0.000133994)
(0.00073162 0.0184581 7.02026e-05)
(-0.000382458 0.00949658 7.31998e-05)
(-0.00199483 0.00869357 1.00571e-07)
(-0.00133937 0.00834413 -7.66564e-06)
(-0.00147338 0.00546778 8.82603e-05)
(-0.000169716 0.00335875 0.000179653)
(-0.004872 -0.000788204 0.000404889)
(-0.00712683 -0.00282475 4.91597e-05)
(-0.00411298 -0.00508206 -4.51569e-05)
(-0.00275338 -0.00348283 2.67456e-06)
(-0.000184729 -0.0089087 -3.42631e-05)
(0.0023302 -0.00577383 -6.06085e-06)
(0.00266189 -0.010232 -2.26908e-05)
(0.00441211 -0.0099453 9.72954e-06)
(0.00530737 -0.0108253 3.12161e-05)
(0.00584446 -0.0147005 3.86258e-05)
(0.00628686 -0.0128306 9.59552e-06)
(0.00295293 -0.0194444 0.000294646)
(-0.00252125 -0.0320718 9.83875e-05)
(-0.0018432 -0.0334105 1.92927e-05)
(-0.00240529 -0.02854 -2.71881e-05)
(-0.00123643 -0.0215765 -9.24368e-05)
(-0.00262371 -0.00766805 -6.94901e-05)
(0.000150967 0.0147713 -0.000159033)
(-0.000471946 0.0479131 5.531e-05)
(-0.000482529 0.0547189 -6.65024e-05)
(0.00162178 0.0393868 -9.96345e-08)
(0.00163455 0.0329944 0.000112373)
(-0.000565593 0.0185611 6.3147e-05)
(-0.00199813 0.0100594 1.35405e-05)
(-0.00328988 0.00978038 -2.10171e-05)
(-0.00301927 0.00808363 -1.18998e-05)
(-0.00259675 0.00450295 1.85548e-05)
(-0.000707231 0.00266515 0.000141654)
(-0.00445771 -0.000702489 0.000347321)
(-0.00683444 -0.0030982 0.000298716)
(-0.00474739 -0.00812277 -3.92437e-05)
(-0.00303584 -0.00546782 0.00029983)
(-0.000344587 -0.0128524 1.99808e-05)
(0.00252337 -0.00730914 0.000284659)
(0.00301349 -0.0121221 1.06551e-05)
(0.00602369 -0.0113238 0.000289201)
(0.00578213 -0.0120958 0.000345653)
(0.00723615 -0.0156168 1.71759e-05)
(0.00695596 -0.0112804 0.000295278)
(0.00336122 -0.0181741 0.000329966)
(-0.000956967 -0.0317802 7.8544e-05)
(1.39462e-05 -0.0325936 -1.60604e-05)
(-0.000410924 -0.0277469 -2.74211e-05)
(-0.00020858 -0.0199587 -6.90565e-05)
(-0.00244477 -0.00583641 -4.60562e-05)
(0.000219373 0.0158549 -0.000199354)
(0.000343612 0.0482962 9.17726e-06)
(-0.000444131 0.0551939 -0.000135144)
(0.00162868 0.0396557 -8.90658e-05)
(0.00086368 0.0332367 0.000118823)
(-0.00208972 0.0192059 4.47318e-05)
(-0.00356851 0.0117031 -6.19023e-05)
(-0.00474724 0.0111372 -4.71631e-05)
(-0.00508265 0.00839157 -2.37139e-05)
(-0.00436336 0.0041437 -3.82705e-05)
(-0.0026975 0.00201196 0.00018217)
(-0.0090241 -0.00149546 0.000479922)
(-0.00867055 -0.00498283 -0.000176123)
(-0.00629218 -0.0103871 2.10389e-05)
(-0.00306909 -0.00857552 -0.000234459)
(-0.000911576 -0.0166443 7.60249e-05)
(0.00271715 -0.00992135 -0.000269478)
(0.00388286 -0.015851 0.000356873)
(0.00345658 -0.0145643 -0.000305446)
(0.00934312 -0.015367 -0.000228102)
(0.00946941 -0.0181521 0.000332339)
(0.00900442 -0.0125069 -0.000175945)
(0.00887095 -0.018255 0.000466847)
(0.00213519 -0.0315496 0.000106107)
(0.00307859 -0.0314911 -4.79938e-05)
(0.00235553 -0.0263253 -7.21454e-05)
(0.00154058 -0.0177877 -4.75611e-05)
(-0.00144847 -0.00426747 -1.59438e-05)
(7.27263e-05 0.0169469 -0.000137208)
(0.000929579 0.049154 -2.37046e-05)
(-0.000497127 0.0565018 -0.000183326)
(0.00137992 0.040243 -0.000119357)
(7.93093e-05 0.0343838 0.000128265)
(-0.00358396 0.0211289 -2.14309e-05)
(-0.00476261 0.0149028 -0.000105467)
(-0.00603017 0.0131359 -6.59979e-05)
(-0.00737132 0.00940937 -2.88023e-05)
(-0.00679433 0.00446162 -0.000104513)
(-0.00542587 0.000426032 0.000198274)
(-0.0105613 -0.00432579 0.000545245)
(-0.0105864 -0.00810384 0.000240969)
(-0.00657943 -0.0132642 9.59371e-05)
(-0.00328638 -0.0116006 9.24281e-05)
(-0.00132919 -0.018532 7.83928e-05)
(0.000561619 -0.0136323 7.01842e-05)
(0.00327534 -0.0170209 1.81432e-05)
(0.00595152 -0.0167124 9.36056e-05)
(0.00697166 -0.0174188 3.6909e-06)
(0.010121 -0.0184168 4.14162e-05)
(0.0138348 -0.0149189 0.000310606)
(0.0114614 -0.0190702 0.000484188)
(0.00588277 -0.0314846 3.76788e-05)
(0.00688318 -0.0299004 -2.73463e-05)
(0.00545755 -0.0238705 -7.17318e-05)
(0.00338178 -0.0148364 8.41073e-06)
(-0.000398067 -0.00170286 1.20838e-05)
(-0.000134623 0.0177422 -6.26845e-05)
(0.00142594 0.0502987 -6.12924e-05)
(-0.000377939 0.0581407 -0.000176199)
(0.000979662 0.0411261 -0.000139233)
(-0.000823161 0.0358663 0.000132023)
(-0.00484284 0.0240621 -8.52733e-05)
(-0.00540978 0.0185823 -8.60519e-05)
(-0.0072875 0.0158515 -4.77112e-05)
(-0.00996373 0.0112913 -6.8967e-06)
(-0.0105112 0.00567324 -9.16743e-05)
(-0.00976653 -0.00121706 0.000210999)
(-0.0130373 -0.00760128 0.000646211)
(-0.0120122 -0.014346 0.000433556)
(-0.0075929 -0.0194839 -1.719e-05)
(-0.00384728 -0.0161057 0.000302701)
(-0.00182852 -0.0214072 3.01427e-05)
(-0.00128261 -0.0173894 0.000302698)
(0.00221943 -0.0227711 -0.000283475)
(0.00659535 -0.0196017 0.000278103)
(0.00494044 -0.0205531 0.000368849)
(0.0115347 -0.026141 -0.000375565)
(0.0196382 -0.0213976 0.000574126)
(0.0171338 -0.0210752 0.0010502)
(0.00923709 -0.0301788 -4.83589e-05)
(0.0112673 -0.0280609 6.2699e-05)
(0.00848541 -0.0211451 -4.21911e-06)
(0.00486243 -0.0115908 8.49305e-05)
(0.000748554 0.000654905 4.78584e-05)
(-0.000150841 0.018305 -2.73119e-05)
(0.00157424 0.0517047 -0.000100026)
(-0.000264811 0.0602611 -0.000165989)
(0.000851178 0.0421758 -0.000141144)
(-0.00130128 0.0374708 0.000104336)
(-0.00495203 0.0275357 -0.000122459)
(-0.00501342 0.0223787 -2.72458e-05)
(-0.00741503 0.0190935 4.76157e-06)
(-0.011081 0.0138527 5.09294e-05)
(-0.0136627 0.00655685 6.11546e-05)
(-0.0143737 -0.00475023 0.000183926)
(-0.0211469 -0.0173216 0.000994642)
(-0.0187093 -0.0212 -0.000463442)
(-0.00948015 -0.0227047 -0.000357042)
(-0.00521915 -0.0190971 -0.00059347)
(-0.00255031 -0.0220383 -0.000211345)
(-0.00122043 -0.0187551 -0.000541414)
(0.000834705 -0.0217255 -0.000265661)
(0.00119767 -0.0207442 -0.000620952)
(0.0079214 -0.0241208 -0.000593663)
(0.0121342 -0.029422 -0.000360376)
(0.0267067 -0.0315891 -0.000322218)
(0.0267446 -0.0332877 0.00188029)
(0.014932 -0.0314722 0.000112931)
(0.0144939 -0.0267186 0.000190323)
(0.00980493 -0.0181067 0.000119103)
(0.00494359 -0.00838678 0.00012656)
(0.0012092 0.00258642 8.93025e-05)
(-0.00022803 0.0199713 1.38467e-05)
(0.00103742 0.0532047 -9.66311e-05)
(-0.000273283 0.0619997 -0.000108939)
(0.000952153 0.0432796 -0.000142459)
(-0.00151207 0.0395282 7.03592e-05)
(-0.00454399 0.0310735 -0.000121124)
(-0.00411359 0.0252948 4.68331e-05)
(-0.00671737 0.0216505 9.0971e-05)
(-0.0102039 0.0168296 0.000154725)
(-0.0142695 0.00918554 0.00025915)
(-0.0179111 -0.00310439 0.000147597)
(-0.0256099 -0.0137867 0.00030332)
(-0.0234619 -0.0132752 -0.00196206)
(-0.00907496 -0.0112002 -0.0016816)
(-0.00633812 -0.00698252 -0.00167961)
(-0.00197904 -0.00818858 -0.0015914)
(-0.00199583 -0.00625819 -0.00158741)
(-0.000578819 -0.00849656 -0.00162849)
(-0.00135792 -0.00834305 -0.00171554)
(0.00492612 -0.0113641 -0.00204103)
(0.00694639 -0.0178616 -0.00214015)
(0.0279382 -0.021507 -0.00279432)
(0.0317777 -0.0300019 0.000106931)
(0.0213948 -0.0270227 2.81659e-05)
(0.0158395 -0.0226353 0.000292861)
(0.00901167 -0.0145285 0.000225355)
(0.00390799 -0.00614626 0.000212228)
(0.000651701 0.00317166 0.000135079)
(-0.000575079 0.0212793 5.52371e-05)
(0.000215346 0.0545197 -6.83952e-05)
(-0.000344188 0.0632103 -6.4928e-05)
(0.00127992 0.0440271 -9.78232e-05)
(-0.000833926 0.0416847 6.66077e-05)
(-0.00283531 0.0333791 -6.20103e-05)
(-0.00188331 0.0263424 0.000113184)
(-0.00363353 0.0221427 0.000174066)
(-0.00530496 0.017008 0.000261292)
(-0.00783569 0.00810058 0.000384328)
(-0.00816818 -0.00412423 0.000476688)
(-0.0074301 -0.0124378 0.000576681)
(-0.00678898 -0.00232888 0.000616969)
(-0.0047548 0.000623546 0.000617248)
(-0.00364648 0.00536172 0.000601746)
(-0.00145016 0.00610492 0.000553045)
(-0.000959081 0.00836514 0.00056572)
(1.9665e-05 0.00827072 0.000512462)
(-0.000347421 0.00796317 0.000514047)
(0.00251487 0.00738744 0.000321286)
(0.00415947 0.000629629 0.000248646)
(0.0103528 -0.00265846 7.80752e-05)
(0.0140983 -0.021422 0.000191478)
(0.0129785 -0.023055 0.000273574)
(0.00939355 -0.0206589 0.000364312)
(0.00393537 -0.0129071 0.000273446)
(0.000912953 -0.00600021 0.000246597)
(-0.00089658 0.00308876 0.000171102)
(-0.00161073 0.0213741 0.00010862)
(-0.000946785 0.0548353 -9.94921e-07)
(-0.000636765 0.0634048 4.64959e-06)
(0.00140628 0.0441715 -7.31067e-05)
(-0.000421515 0.043054 6.67326e-05)
(-0.00179951 0.0344363 -4.91287e-05)
(-0.000615629 0.0262052 9.65803e-05)
(-0.00211468 0.0212657 0.000149643)
(-0.00319437 0.0153883 0.000191645)
(-0.00614792 0.0042489 0.000236236)
(-0.00769236 -0.012107 0.000266737)
(-0.00892378 -0.0201967 0.000121959)
(-0.00764637 -0.0191432 -8.5582e-05)
(-0.00478412 -0.0162448 -2.9455e-05)
(-0.00326222 -0.0135712 -2.35292e-05)
(-0.0014134 -0.0117264 -1.51882e-05)
(-0.000687347 -0.00966497 -4.85313e-05)
(0.000695616 -0.00914256 -5.02264e-05)
(0.000591412 -0.00992461 -9.19864e-06)
(0.0027796 -0.0114858 -7.7888e-05)
(0.00466785 -0.0149592 -0.000123224)
(0.00999949 -0.0194614 -0.00024325)
(0.0135211 -0.0271639 4.66149e-05)
(0.0113836 -0.0262071 0.000292255)
(0.00650119 -0.0207277 0.000253268)
(0.00114107 -0.0121493 0.000134719)
(-0.000513482 -0.00666676 0.000137832)
(-0.00171685 0.00304984 0.000116513)
(-0.00194071 0.0207837 7.00476e-05)
(-0.00148436 0.0541141 1.47523e-05)
(-0.000604106 0.0624423 3.13589e-05)
(0.00158598 0.0439464 -2.76874e-05)
(0.000287794 0.0441994 7.46879e-05)
(-0.000332789 0.0347036 -4.4385e-06)
(0.000936561 0.0253838 0.00015373)
(-3.00281e-05 0.0199563 0.000190258)
(-0.000264538 0.0140887 0.000236812)
(-0.00166517 0.0035635 0.000240145)
(-0.003808 -0.011791 0.000400626)
(-0.00501023 -0.0179856 0.000178891)
(-0.00410297 -0.0151736 8.58971e-05)
(-0.00232778 -0.0112856 5.13923e-05)
(-0.000816592 -0.00770995 4.09578e-05)
(0.00025902 -0.00561354 9.88725e-05)
(0.000689101 -0.00355484 0.000143912)
(0.000879678 -0.00192572 0.000141838)
(1.97651e-06 -0.00247856 0.000129767)
(0.000443211 -0.00506027 3.97987e-05)
(0.00216773 -0.0103822 2.94447e-05)
(0.00536456 -0.0167483 -1.10772e-05)
(0.00776968 -0.0254501 0.000101833)
(0.00670499 -0.024812 0.000344333)
(0.00169839 -0.0182011 0.000217837)
(-0.00125928 -0.011045 0.000148797)
(-0.00180767 -0.00709638 0.000140034)
(-0.00261688 0.0034303 0.000153642)
(-0.00238266 0.0200196 9.10346e-05)
(-0.00208683 0.0527869 7.01369e-05)
(-0.000853392 0.0610354 5.82099e-05)
(0.00161125 0.0429787 -1.35629e-05)
(0.000559953 0.0444327 8.55078e-05)
(0.000336161 0.0340866 1.84116e-06)
(0.00146896 0.024083 0.000123929)
(0.000556207 0.0181722 0.000119126)
(0.00043501 0.0118515 0.000127461)
(0.000166568 0.00180378 7.99788e-05)
(-0.00254968 -0.0138575 0.000198213)
(-0.00461282 -0.0199863 6.5185e-06)
(-0.00374322 -0.0182649 -0.000116964)
(-0.00215141 -0.0140131 -0.000138778)
(-0.0010651 -0.0110747 -0.000123861)
(5.52661e-07 -0.00938967 -0.000105439)
(0.000622639 -0.00818161 -7.28556e-05)
(0.00125714 -0.0068677 -3.34453e-05)
(0.000750087 -0.00763402 2.2283e-05)
(0.00105698 -0.0100655 -3.4998e-05)
(0.00215925 -0.0141979 -6.4306e-05)
(0.00429627 -0.0206892 -9.08033e-05)
(0.00566448 -0.0275355 1.38115e-05)
(0.00401595 -0.0254577 0.000205763)
(-0.00058293 -0.0168295 1.92041e-05)
(-0.00140328 -0.0112539 7.92506e-06)
(-0.00151529 -0.00792879 5.71699e-05)
(-0.00248823 0.00240075 6.5501e-05)
(-0.00230676 0.0189288 7.62708e-05)
(-0.00234477 0.0512028 0.000103695)
(-0.000961637 0.0587992 4.994e-05)
(0.00162128 0.0420339 3.64294e-06)
(0.000926389 0.0446063 7.94098e-05)
(0.000965442 0.0330706 2.51993e-05)
(0.00178682 0.022669 0.000136776)
(0.00105948 0.0169112 0.000119159)
(0.000950965 0.0104044 0.000136383)
(0.00141282 0.00198747 8.66506e-05)
(-0.000782194 -0.011716 0.000193203)
(-0.00232639 -0.0176847 9.18032e-05)
(-0.00150872 -0.0159802 -1.96551e-05)
(-0.00057035 -0.0115234 -2.05365e-05)
(-1.09243e-05 -0.00836171 -1.4129e-05)
(0.000302221 -0.00661469 -6.93103e-06)
(0.000579163 -0.00570962 1.13113e-05)
(0.0010477 -0.00438527 3.34981e-05)
(0.000468162 -0.00557147 8.29455e-05)
(0.000107094 -0.00847676 3.07191e-05)
(0.000722335 -0.0130507 -2.66984e-06)
(0.00178907 -0.0196289 -2.68645e-05)
(0.00245762 -0.0257677 3.18094e-05)
(0.00133418 -0.0230686 0.000145946)
(-0.00154803 -0.0143176 8.2479e-07)
(-0.00139017 -0.010589 1.59106e-05)
(-0.00144214 -0.00762742 4.3014e-05)
(-0.00219359 0.0018424 9.37595e-05)
(-0.00229624 0.0177423 9.95572e-05)
(-0.00249299 0.0488498 0.000157247)
(-0.00133483 0.0562807 2.53502e-05)
(0.00152439 0.0413011 7.75153e-06)
(0.000943648 0.0443673 8.86164e-05)
(0.00106415 0.0322736 3.8656e-05)
(0.00177444 0.0217557 0.00012216)
(0.00140993 0.0159154 0.000101062)
(0.00107024 0.00886264 8.06434e-05)
(0.00125328 0.00139965 3.38916e-05)
(-0.000197196 -0.0106979 1.39053e-05)
(-0.000963686 -0.0169007 3.18278e-06)
(-0.000633795 -0.015622 -6.67417e-05)
(-0.000220286 -0.0113848 -6.95803e-05)
(-1.14077e-05 -0.00872084 -4.0597e-05)
(7.9919e-05 -0.00700594 -4.54012e-05)
(8.7539e-05 -0.00623243 -4.00192e-05)
(0.000335524 -0.00495648 -4.46531e-05)
(0.000303617 -0.0062602 -3.17152e-05)
(0.000333289 -0.00908335 -3.91982e-05)
(0.000499591 -0.0130367 -4.33643e-05)
(0.000815642 -0.0190298 -4.26824e-05)
(0.00081081 -0.0243733 -1.44402e-05)
(0.000202258 -0.021221 -1.15965e-05)
(-0.00108854 -0.0127492 -5.0968e-05)
(-0.00112663 -0.0100716 -1.13682e-05)
(-0.00143453 -0.00723182 3.12238e-05)
(-0.00206635 0.00141554 6.69559e-05)
(-0.00232386 0.0169686 0.000108794)
(-0.0027825 0.0471089 0.000134963)
(-0.00124627 0.0543026 3.73254e-06)
(0.0012025 0.0397999 -3.65414e-06)
(0.000984354 0.0438822 4.54885e-05)
(0.000977973 0.0303817 3.6441e-05)
(0.00144607 0.0189747 0.000118005)
(0.0012289 0.0135757 8.78297e-05)
(0.000816853 0.00775173 3.37246e-05)
(0.000683471 0.00151552 -2.77221e-05)
(0.000231719 -0.00817797 -5.31435e-05)
(0.00015552 -0.0140059 -8.33845e-05)
(7.9508e-05 -0.0129556 -9.18882e-05)
(0.000145367 -0.00935943 -8.86485e-05)
(0.000158099 -0.00723949 -6.02733e-05)
(5.29148e-05 -0.00572685 -5.30578e-05)
(-1.93454e-06 -0.00496921 -5.08677e-05)
(2.54803e-05 -0.00388845 -5.24114e-05)
(2.32185e-05 -0.00482489 -5.65929e-05)
(-7.24389e-05 -0.00737871 -6.63425e-05)
(-7.46781e-05 -0.0109813 -9.41149e-05)
(-5.90155e-06 -0.0161192 -0.000105193)
(-0.000107221 -0.0204779 -0.000105602)
(-0.000275092 -0.0172893 -0.000131308)
(-0.000696087 -0.0101144 -9.29587e-05)
(-0.000867715 -0.00836864 -6.61235e-05)
(-0.00113893 -0.00624971 -2.88818e-05)
(-0.00142548 -0.000579696 -4.47744e-06)
(-0.00135568 0.0157208 0.000105782)
(-0.00165568 0.0440491 0.000100327)
(-0.000458074 0.0511639 0.000221149)
(-0.0113218 0.00421068 -0.00027009)
(-0.0185509 0.00494453 -0.000806254)
(-0.0211372 0.00230083 -0.000291136)
(-0.0165417 0.00291148 0.000398968)
(-0.0156404 0.00319224 0.00040891)
(-0.0143478 0.00336779 0.000461548)
(-0.0156521 0.00365433 0.000265987)
(-0.0173298 0.00467304 -0.000139334)
(-0.0187368 0.00508989 -0.000655175)
(-0.0219426 0.00581271 -0.00094811)
(-0.0282891 0.00561627 -0.00116836)
(-0.0401328 0.00436716 -0.00111177)