/*--------------------------------*- C++ -*----------------------------------*\
| =========                 |                                                 |
| \\      /  F ield         | OpenFOAM: The Open Source CFD Toolbox           |
|  \\    /   O peration     | Version:  2.3.0                                 |
|   \\  /    A nd           | Web:      www.OpenFOAM.org                      |
|    \\/     M anipulation  |                                                 |
\*---------------------------------------------------------------------------*/
FoamFile
{
    version     2.0;
    format      ascii;
    class       volVectorField;
    location    "1.90041";
    object      U.waterMean;
}
// * * * * * * * * * * * * * * * * * * * * * * * * * * * * * * * * * * * * * //

dimensions      [0 1 -1 0 0 0 0];

internalField   nonuniform List<vector> 
18816
(
(-0.00791342 0.000391727 -0.00130537)
(-0.0158332 0.00236921 -2.73735e-05)
(-0.0182971 0.00128738 -6.13206e-05)
(-0.0144495 0.00177794 0.000324402)
(-0.0135021 0.00173159 0.000372396)
(-0.0123563 0.00137807 0.000431804)
(-0.0135592 0.00117561 0.000288475)
(-0.0150455 0.00170879 7.91364e-05)
(-0.0161134 0.00159341 -0.000120143)
(-0.0187314 0.00192572 -0.000170583)
(-0.0243114 0.00148939 -0.000251815)
(-0.0345396 0.00077177 -0.000227846)
(-0.0421385 0.00211377 -0.000473517)
(-0.0479008 0.00401861 -0.000530798)
(-0.049552 0.00464432 -0.000653322)
(-0.0452563 0.00567417 -0.0008094)
(-0.0403056 0.00695908 -0.000782318)
(-0.0348581 0.00698654 -0.000723689)
(-0.0272263 0.00656907 -0.000788055)
(-0.0148211 0.00654576 -0.00100425)
(-0.000639572 0.00714636 -0.00107588)
(0.0133284 0.00718047 -0.00105857)
(0.0243331 0.00700399 -0.000932994)
(0.0322394 0.00684063 -0.000913089)
(0.0348535 0.00685695 -0.000895093)
(0.0325912 0.0080812 -0.000788019)
(0.0184798 0.00760257 -0.000494008)
(0.00488358 0.00223818 -0.00193772)
(-0.00423924 0.0344124 -0.000843167)
(-0.00984586 0.0190898 0.000489529)
(-0.0127181 0.00500333 0.000689289)
(-0.0117101 -0.00257603 0.000664855)
(-0.0144923 -0.00164829 0.000537871)
(-0.015967 0.000546418 0.000460564)
(-0.0181113 0.00441275 0.000273875)
(-0.0198073 0.00912403 7.61217e-05)
(-0.0215168 0.0139954 -0.000216635)
(-0.0223677 0.0206209 -0.000563808)
(-0.0241098 0.028997 -0.0010619)
(-0.0278586 0.0302132 5.58598e-05)
(-0.0316902 0.0246114 8.27311e-05)
(-0.036986 0.0186653 0.000198098)
(-0.0391521 0.0141209 0.000267008)
(-0.0369171 0.0107937 0.000326179)
(-0.0330349 0.00924555 0.000508888)
(-0.0285718 0.00740156 0.000514445)
(-0.0227707 0.00711529 0.000437494)
(-0.0138097 0.00757129 0.000350211)
(-0.00334149 0.00962764 0.000437571)
(0.0074538 0.0116761 0.000529779)
(0.0160159 0.0135942 0.00068336)
(0.0234186 0.016044 0.000723697)
(0.0260194 0.0211387 0.000646707)
(0.025245 0.0281582 0.000372808)
(0.016032 0.0365148 0.000123027)
(0.00439343 0.0385509 -0.00160482)
(-0.000299133 0.0369613 -0.000718246)
(-0.00265885 0.0116507 0.000101553)
(-0.00775242 -0.00693314 8.42035e-05)
(-0.00965729 -0.0114866 -4.65717e-05)
(-0.0140053 -0.0102484 -0.000457981)
(-0.0155886 -0.00724297 -0.000766962)
(-0.0173994 -0.00377377 -0.00120767)
(-0.0179092 0.000808981 -0.00152067)
(-0.0194703 0.00541325 -0.0017357)
(-0.0197458 0.0149416 -0.00195128)
(-0.019211 0.0256641 -0.00333727)
(-0.0212104 0.0233078 -0.00120697)
(-0.0232451 0.0199308 0.000106227)
(-0.0261301 0.0153553 0.000131928)
(-0.0277321 0.00636803 0.000249189)
(-0.0271467 0.000980352 0.000333583)
(-0.0249754 -0.00199061 0.000340646)
(-0.0220529 -0.00388492 0.000286833)
(-0.0173624 -0.00565218 0.000334216)
(-0.0108452 -0.00706992 0.000288259)
(-0.00372378 -0.00657192 0.000284744)
(0.00365128 -0.00549432 0.000244263)
(0.00957456 -0.0040123 0.000239079)
(0.0154036 -0.00095336 0.000260925)
(0.0181475 0.00709512 0.000408328)
(0.0195951 0.0220499 0.0003412)
(0.00932872 0.0359281 0.000242405)
(0.00119768 0.0475142 -0.00137052)
(0.002102 0.0477169 -3.43085e-05)
(0.000469417 0.0210191 0.000279389)
(-0.00664844 -0.00207709 0.0002729)
(-0.0083245 -0.00690409 0.000266621)
(-0.0117612 -0.00416844 8.47374e-05)
(-0.0127321 -0.00108948 4.22693e-05)
(-0.0141208 0.00198075 -6.87996e-05)
(-0.0146093 0.005361 -7.3709e-06)
(-0.0157316 0.00898692 -3.10281e-05)
(-0.0142426 0.017156 -0.0001652)
(-0.0116561 0.0256095 -0.000216304)
(-0.013469 0.0283167 -0.00314175)
(-0.0164681 0.0221679 0.000174947)
(-0.0159071 0.0154201 0.000601144)
(-0.0153794 0.00400458 0.000647083)
(-0.0142914 -0.00512119 0.000622907)
(-0.013634 -0.00836473 0.000542052)
(-0.0119986 -0.0115598 0.000609109)
(-0.00967541 -0.014446 0.000706736)
(-0.00633841 -0.0165143 0.000642257)
(-0.00248089 -0.0153937 0.000658097)
(0.000875929 -0.0129851 0.000491613)
(0.00397041 -0.00927722 0.000362243)
(0.00738428 -0.00569037 0.000266408)
(0.00980724 0.00309785 0.000449511)
(0.0128536 0.0248651 0.000357588)
(0.00460284 0.0458575 0.000448575)
(-0.00139697 0.0597425 -0.000365192)
(0.00278257 0.0510285 -9.54796e-05)
(0.00177457 0.0265772 0.000178346)
(-0.00480254 -0.00119759 0.000286303)
(-0.00595641 -0.00480796 -7.31876e-05)
(-0.00815204 -0.0016381 -0.000206769)
(-0.00933327 0.00154447 -0.000212946)
(-0.0102852 0.00446845 -0.00029077)
(-0.010504 0.00557138 6.99188e-05)
(-0.0112819 0.00800062 5.4325e-05)
(-0.0104156 0.0162853 -6.86051e-05)
(-0.00799057 0.023346 -8.27694e-05)
(-0.00810738 0.0246041 -0.0010249)
(-0.0104992 0.0169369 -3.40558e-05)
(-0.00735343 0.00698181 0.00024334)
(-0.0053165 -0.00333314 0.000203828)
(-0.00435933 -0.0112819 0.000161428)
(-0.00580075 -0.0145908 0.000187033)
(-0.00575629 -0.0203355 0.000269429)
(-0.00560935 -0.024554 0.000373135)
(-0.00445061 -0.0282398 0.00035211)
(-0.00293219 -0.0269548 0.000494543)
(-0.00271661 -0.0226653 0.000349446)
(-0.00107882 -0.01705 0.000198951)
(0.00121817 -0.0119083 7.37611e-05)
(0.003278 -0.00334222 0.000123127)
(0.00659492 0.021997 8.67684e-05)
(0.00199318 0.04797 0.000231241)
(-0.00164087 0.0630192 -0.000233414)
(0.00383163 0.0532405 3.63056e-05)
(0.00307419 0.0329163 0.000314925)
(-0.00262149 0.00324467 0.000223555)
(-0.00278719 -0.000375337 0.000553232)
(-0.0045722 0.00171559 0.000952772)
(-0.00605943 0.00498569 0.00128265)
(-0.00702802 0.00688457 0.00142119)
(-0.00756395 0.0065309 6.92201e-06)
(-0.00670738 0.00736693 1.84044e-06)
(-0.00571344 0.0147192 6.56947e-05)
(-0.00428046 0.0206441 0.000208463)
(-0.00437662 0.0205934 -0.000243811)
(-0.00669931 0.0135374 0.000187029)
(-0.00342822 0.00206667 0.000266389)
(-0.0023424 -0.00581763 0.000131313)
(-0.00104181 -0.0108264 2.70426e-05)
(-0.00268991 -0.0142188 0.000114025)
(-0.00304502 -0.0220394 0.000170366)
(-0.00417935 -0.0275231 0.000321504)
(-0.0045775 -0.032948 0.000341214)
(-0.0041233 -0.0322007 0.00047879)
(-0.00513627 -0.0273233 0.000387163)
(-0.00437318 -0.0209008 0.000279209)
(-0.00229524 -0.0143148 0.00012525)
(-0.000572304 -0.00456205 6.7683e-05)
(0.00225347 0.0223274 0.000118544)
(-0.000557383 0.050538 0.000253914)
(-0.00219053 0.0644706 7.33927e-06)
(0.0035071 0.053648 0.000100976)
(0.00411883 0.0346348 0.000391575)
(-0.000399899 0.00545832 0.00013483)
(-0.00139801 0.00177077 0.000431173)
(-0.00445827 0.00320698 0.000667347)
(-0.00666599 0.00597808 0.000887967)
(-0.00848612 0.00737666 0.00108598)
(-0.00729658 0.00448357 0.00189476)
(-0.0050425 0.00500422 0.00161062)
(-0.00327885 0.0112518 0.00153593)
(-0.00165285 0.0156095 0.00010431)
(-0.00207317 0.0141891 6.49051e-05)
(-0.00433485 0.00761344 0.000271741)
(-0.00254303 -0.00231316 0.000199128)
(-0.00241081 -0.00750615 -1.19748e-05)
(0.000283992 -0.00986295 -0.000184864)
(-0.00115262 -0.0131127 -4.20363e-05)
(-0.00117446 -0.0226016 -2.36139e-05)
(-0.00338964 -0.0293707 0.000142785)
(-0.00529826 -0.0368977 0.000113013)
(-0.00431031 -0.0364843 0.000234585)
(-0.00523642 -0.0315272 0.000197733)
(-0.00483505 -0.0252572 0.000139789)
(-0.00320062 -0.0181929 7.98929e-05)
(-0.00220445 -0.00709611 1.13292e-05)
(-3.86e-05 0.0207223 6.61365e-05)
(-0.00179033 0.0506077 0.000163811)
(-0.0020925 0.0638031 6.89619e-05)
(0.0033883 0.0529278 0.000201633)
(0.00421826 0.0319578 0.000407587)
(0.000589473 0.00773391 8.64084e-05)
(-0.000548696 0.00238915 0.00028291)
(-0.00374271 0.00316575 0.000387582)
(-0.0062537 0.005172 0.000486209)
(-0.00883685 0.00629753 0.000543562)
(-0.00878622 0.005266 0.00107976)
(-0.00590463 0.00647115 0.000987476)
(-0.00416111 0.0127586 0.000986623)
(-0.000934437 0.012144 0.00011995)
(-0.000446578 0.00942093 -9.86144e-06)
(-0.00147012 0.0022531 0.000206197)
(-0.000694208 -0.00466246 0.000130117)
(-0.000636066 -0.00847135 8.36789e-06)
(0.00231164 -0.00892568 -9.14628e-05)
(-0.000487345 -0.011714 6.26074e-05)
(0.000121306 -0.0223012 -9.45302e-05)
(-0.00338378 -0.0275825 0.000153544)
(-0.00655182 -0.0371445 1.09703e-05)
(-0.00452112 -0.0378806 0.000128373)
(-0.00479645 -0.0328311 0.000140111)
(-0.00451376 -0.0271182 0.000127935)
(-0.00326612 -0.020368 8.97394e-05)
(-0.00265442 -0.00742285 5.64939e-05)
(-0.00125201 0.0196709 0.000102464)
(-0.00263162 0.0503721 0.000169334)
(-0.00206545 0.0623633 0.000128464)
(0.00354761 0.050841 0.000239395)
(0.00472781 0.031114 0.000253746)
(0.00122524 0.00975977 2.55321e-05)
(2.79011e-05 0.00228871 0.000107339)
(-0.00279618 0.00262627 0.000217196)
(-0.00561883 0.00414652 0.00028109)
(-0.00905647 0.00460007 0.000259193)
(-0.00939672 0.00214264 0.000292514)
(-0.00723066 0.00411045 0.000198803)
(-0.00504043 0.011448 0.000206617)
(-0.00114604 0.0121236 0.00141742)
(0.00117161 0.00916762 0.00102634)
(0.00317649 0.00220783 -1.67925e-05)
(0.00380805 -0.00366441 -6.84333e-05)
(0.00250619 -0.00787169 -0.000125492)
(0.00414152 -0.00515706 -0.000235488)
(-0.000405293 -0.00815194 -6.89964e-05)
(0.00277672 -0.0122632 -0.000892865)
(-0.00211109 -0.0221673 0.000113061)
(-0.00710772 -0.0345939 -0.000255867)
(-0.00464428 -0.0381055 -7.10509e-05)
(-0.00419854 -0.0339106 2.91117e-05)
(-0.00412931 -0.0287754 6.9184e-05)
(-0.00319895 -0.0222375 1.70034e-05)
(-0.00231143 -0.00827503 5.5696e-05)
(-0.00146343 0.0180618 0.000114734)
(-0.00294905 0.0494227 0.000151922)
(-0.00182935 0.0602468 0.000134724)
(0.00372068 0.0490202 0.000236692)
(0.0061165 0.0334287 0.000123055)
(0.00209128 0.0130923 1.49254e-05)
(0.000320303 0.00397758 3.74233e-05)
(-0.00243853 0.00391299 0.000106507)
(-0.00526405 0.00551987 0.00015006)
(-0.00906899 0.00657244 0.00011707)
(-0.00904876 0.00444872 -0.000103645)
(-0.00815894 0.00671616 0.000120308)
(-0.00662394 0.00972112 0.000147048)
(-0.0012754 0.0120017 0.000688257)
(0.00451102 0.0104285 0.000395511)
(0.00863722 -0.0012355 0.000115783)
(0.0092051 -0.00279707 8.11282e-05)
(0.00844386 -0.00892071 0.000129011)
(0.00713427 -0.00498955 0.000160509)
(0.011101 -0.00674262 9.38406e-05)
(0.00514966 -0.014112 0.00159639)
(-0.00915809 -0.0191786 0.000427438)
(-0.00889178 -0.0331452 9.1224e-05)
(-0.00641458 -0.0374739 -0.00011046)
(-0.00442416 -0.0342839 4.47206e-05)
(-0.0044306 -0.0292649 3.80458e-05)
(-0.00313406 -0.0229402 1.306e-05)
(-0.00203216 -0.00927053 0.000125457)
(-0.00131809 0.0171246 0.000135184)
(-0.00310072 0.0483559 0.000140888)
(-0.00156504 0.0579644 0.000134095)
(0.00391601 0.047735 0.000314656)
(0.00671025 0.0368648 0.000162791)
(0.00244597 0.0160194 9.19157e-05)
(0.000824582 0.00550699 5.28166e-05)
(-0.00171329 0.00522237 4.54649e-05)
(-0.00267955 0.00651099 7.47858e-05)
(-0.00586603 0.00722462 0.000183257)
(-0.00432811 0.00492363 -2.50613e-06)
(-0.00798551 0.00350395 0.000900725)
(-0.00856184 0.00330507 6.49883e-05)
(-0.00164812 0.00452415 0.000203979)
(0.00328321 0.00415351 -3.1264e-06)
(0.00691016 -0.00413558 1.66803e-05)
(0.00599803 -0.0055331 8.23066e-05)
(0.00488535 -0.00980051 8.68978e-05)
(0.00435998 -0.00991954 0.000155718)
(0.00448262 -0.0114644 0.000194752)
(0.00390372 -0.0199145 0.000268681)
(-0.00357262 -0.0198262 0.000577698)
(-0.00681313 -0.0326892 -0.000250079)
(-0.00472838 -0.037411 -9.66649e-05)
(-0.00429084 -0.0348356 3.78135e-05)
(-0.00458437 -0.0298657 -8.71989e-06)
(-0.00300284 -0.0240297 -1.13737e-05)
(-0.00205522 -0.0121486 0.000100866)
(-0.000946464 0.0161764 0.000124427)
(-0.00296628 0.047182 0.000129192)
(-0.00128036 0.055761 0.000118583)
(0.00355271 0.0456849 0.000382941)
(0.00621737 0.0377955 0.00028563)
(0.00234405 0.0171916 0.000146324)
(0.0010138 0.00677234 7.49824e-05)
(-0.00134912 0.00612363 3.77794e-05)
(-0.000982455 0.00702202 4.26861e-05)
(-0.0033421 0.00660701 0.00024694)
(-0.00304035 0.00439663 0.000220191)
(-0.00786218 -0.000412173 0.000476816)
(-0.0065556 0.00127637 -5.92248e-05)
(-0.00272768 2.90301e-05 -0.00010859)
(0.00103093 0.00267485 -0.000139547)
(0.00331533 -0.00484536 -0.000101913)
(0.00335793 -0.00293084 -0.000135917)
(0.00339739 -0.00949843 -4.21314e-05)
(0.00283434 -0.00749196 -0.000141509)
(0.00384384 -0.00946227 -0.00010861)
(0.00233828 -0.0166048 2.37967e-05)
(-0.000283826 -0.0160631 -9.59129e-05)
(-0.00184597 -0.0272773 -4.58525e-05)
(-0.00449475 -0.0358639 6.36992e-06)
(-0.00431495 -0.0347898 0.000140708)
(-0.0050741 -0.0299719 -1.6409e-05)
(-0.00294113 -0.0242766 -3.05084e-05)
(-0.00246882 -0.0132075 -2.92472e-05)
(-0.000583757 0.0151554 8.75459e-05)
(-0.00255138 0.0462071 0.000114215)
(-0.000934497 0.0538601 7.40655e-05)
(0.00268265 0.0429208 0.000384575)
(0.00493938 0.0361604 0.000290394)
(0.00237244 0.0174216 0.00014036)
(0.00122593 0.00716772 8.48869e-05)
(-0.000973074 0.0059569 4.68112e-05)
(-0.000129292 0.0066233 2.34327e-05)
(-0.00147954 0.0049085 0.000224259)
(-0.00117496 0.00270429 0.000292411)
(-0.00609493 -0.00172463 0.000465721)
(-0.00676787 -0.00257478 8.2638e-05)
(-0.00317204 -0.00234127 -7.4306e-05)
(-0.000833356 -0.00140152 -2.14526e-05)
(0.00128444 -0.00580976 -6.30005e-05)
(0.0027221 -0.00518655 -7.31587e-06)
(0.00294142 -0.00919819 -1.89653e-05)
(0.00346406 -0.00982023 2.18852e-07)
(0.00341824 -0.0114682 -9.42002e-06)
(0.00251167 -0.0153812 8.75235e-06)
(0.00189883 -0.0160036 1.67782e-05)
(-0.000299647 -0.0249664 9.26246e-05)
(-0.00403059 -0.0348663 7.0767e-05)
(-0.0040533 -0.0352615 9.8606e-05)
(-0.0046123 -0.0302992 -4.07759e-05)
(-0.00233783 -0.0242007 -6.66198e-05)
(-0.002439 -0.0120509 -8.73155e-05)
(-0.000317002 0.0140227 2.84276e-05)
(-0.00192642 0.0454019 0.000105986)
(-0.000690264 0.0526882 2.54757e-05)
(0.00187844 0.0398859 0.000286146)
(0.00368005 0.0330042 0.000211724)
(0.0018945 0.0172625 0.000105623)
(0.000790861 0.00755418 8.49831e-05)
(-0.00117078 0.00610809 2.11455e-05)
(-0.000257502 0.00605971 2.10172e-06)
(-0.000928914 0.00349318 0.00014675)
(-0.000150445 0.00125053 0.000267863)
(-0.00532619 -0.00243826 0.00047073)
(-0.00625247 -0.00172513 1.07867e-05)
(-0.00350701 -0.00471932 -9.85999e-05)
(-0.00139897 -0.000995052 -6.41238e-05)
(0.000646866 -0.00757779 -7.99593e-05)
(0.00240471 -0.00334493 -2.53498e-05)
(0.00282512 -0.00994252 -3.00301e-05)
(0.00391408 -0.00685659 -2.60613e-05)
(0.00389242 -0.00790012 2.51558e-05)
(0.00369557 -0.0146245 2.1061e-05)
(0.00406093 -0.0117014 2.68888e-05)
(0.0015034 -0.0219613 0.000239368)
(-0.00351689 -0.0339576 0.000133361)
(-0.00326483 -0.0349256 7.61812e-05)
(-0.00386709 -0.0302096 -3.86199e-05)
(-0.00185812 -0.0237232 -8.2222e-05)
(-0.0025499 -0.010406 -8.2015e-05)
(-0.000180802 0.0133034 -6.13472e-05)
(-0.00119092 0.0449311 8.69601e-05)
(-0.000546116 0.0520696 -2.45056e-05)
(0.00160115 0.0379441 0.000131133)
(0.00255674 0.0312565 0.00014814)
(0.000743175 0.0168636 6.93275e-05)
(-0.000379355 0.00797095 7.4281e-05)
(-0.00197071 0.00675172 2.02702e-06)
(-0.00131652 0.00555692 -6.75229e-06)
(-0.00144688 0.00216462 9.20178e-05)
(-0.000161969 0.000349256 0.000193453)
(-0.00479035 -0.00299289 0.000418418)
(-0.00696564 -0.00449769 5.40067e-05)
(-0.00402842 -0.00649313 -4.62631e-05)
(-0.00269661 -0.00458468 3.13525e-06)
(-0.000162045 -0.0097793 -3.17407e-05)
(0.00232354 -0.00656265 -4.53015e-06)
(0.00265728 -0.0109205 -2.24594e-05)
(0.00439266 -0.0105367 1.06757e-05)
(0.00528008 -0.0113581 3.2632e-05)
(0.00580519 -0.0153083 3.84629e-05)
(0.00621757 -0.0137835 1.2351e-05)
(0.00292126 -0.0206564 0.000303018)
(-0.00249205 -0.0332443 0.000109432)
(-0.00179549 -0.0346461 1.84014e-05)
(-0.00235057 -0.0299861 -3.9833e-05)
(-0.00120556 -0.0231524 -9.1219e-05)
(-0.00260475 -0.00926082 -6.9141e-05)
(0.000115975 0.0131621 -0.000163496)
(-0.000493002 0.0447806 6.10482e-05)
(-0.000460312 0.0519391 -6.87172e-05)
(0.00161649 0.0373878 4.02574e-06)
(0.00164518 0.0308703 0.000125234)
(-0.000550666 0.0169869 6.43778e-05)
(-0.00198782 0.00855011 1.46126e-05)
(-0.00325992 0.00784796 -2.03934e-05)
(-0.00298153 0.00528268 -1.42748e-05)
(-0.00255251 0.00119825 2.22012e-05)
(-0.000689698 -0.000293351 0.00015422)
(-0.00438396 -0.00275395 0.000355079)
(-0.00668477 -0.00454747 0.000304493)
(-0.00467046 -0.00926884 -3.84061e-05)
(-0.00298811 -0.00638419 0.000301946)
(-0.000327068 -0.0136036 2.36105e-05)
(0.0025155 -0.00799774 0.000286916)
(0.00301132 -0.0127453 1.06145e-05)
(0.00599455 -0.0118455 0.000289605)
(0.00574889 -0.0125762 0.00034563)
(0.00719465 -0.0160698 1.62505e-05)
(0.0069032 -0.0118329 0.000292832)
(0.00335611 -0.0191972 0.000334472)
(-0.000912928 -0.032717 8.34597e-05)
(7.30046e-05 -0.0337204 -1.88152e-05)
(-0.000350698 -0.0291226 -6.31841e-05)
(-0.000172284 -0.0215258 -6.64962e-05)
(-0.00242174 -0.00742501 -4.56323e-05)
(0.000188869 0.0142531 -0.000202021)
(0.000323881 0.045296 1.25648e-05)
(-0.000425125 0.052455 -0.000138842)
(0.00162254 0.0376989 -8.83682e-05)
(0.000869962 0.0311367 0.000131832)
(-0.00207234 0.0176495 4.83518e-05)
(-0.00354957 0.0101959 -6.03461e-05)
(-0.0047098 0.00917175 -4.89482e-05)
(-0.00502879 0.00557718 -3.19508e-05)
(-0.00428873 0.000889403 -3.56147e-05)
(-0.00265358 -0.000768677 0.000192588)
(-0.00893534 -0.00321575 0.000484262)
(-0.0085421 -0.0060422 -0.000176353)
(-0.00623574 -0.011261 2.00105e-05)
(-0.00303875 -0.00927508 -0.000231343)
(-0.000894153 -0.0172613 7.43149e-05)
(0.00271464 -0.0105104 -0.000267601)
(0.00386502 -0.0163928 0.000355453)
(0.00343404 -0.0150377 -0.000307521)
(0.00930153 -0.0157856 -0.000231179)
(0.00943266 -0.018524 0.000326107)
(0.00896521 -0.0128055 -0.000181479)
(0.00886714 -0.0188845 0.000459872)
(0.00218122 -0.0320953 0.000102581)
(0.00314 -0.0324866 -5.38085e-05)
(0.00241018 -0.02762 -0.000100102)
(0.00157464 -0.0193333 -4.47604e-05)
(-0.00142331 -0.0058636 -1.48752e-05)
(5.89247e-05 0.015345 -0.000137216)
(0.000922172 0.0462669 -2.09233e-05)
(-0.000481281 0.0537937 -0.000188007)
(0.00137458 0.0383135 -0.000121173)
(8.34881e-05 0.0323129 0.000142243)
(-0.00356237 0.0195798 -1.70933e-05)
(-0.00473838 0.0133876 -0.000103415)
(-0.00598853 0.0111041 -7.02767e-05)
(-0.00730696 0.00656014 -4.4664e-05)
(-0.00670337 0.00129606 -0.000103951)
(-0.00537467 -0.00195785 0.00020695)
(-0.0105166 -0.00544643 0.000554641)
(-0.01051 -0.00880356 0.000246102)
(-0.00654426 -0.0138966 9.63175e-05)
(-0.00327215 -0.0121829 9.54441e-05)
(-0.00131349 -0.0190389 5.41617e-05)
(0.000563924 -0.0141491 7.06108e-05)
(0.00325814 -0.017473 1.27379e-05)
(0.00593423 -0.0171247 8.91202e-05)
(0.00695114 -0.0177566 -7.72782e-06)
(0.0100962 -0.0186864 1.99008e-05)
(0.0138216 -0.0151294 0.000302575)
(0.0114649 -0.0192899 0.000483888)
(0.00589819 -0.0316811 3.14631e-05)
(0.00692091 -0.0307892 -3.81842e-05)
(0.00549712 -0.0250993 -8.78753e-05)
(0.00341121 -0.0163635 7.93966e-06)
(-0.000370125 -0.00331249 1.36565e-05)
(-0.000131873 0.0161297 -5.85789e-05)
(0.00142606 0.0475022 -5.88915e-05)
(-0.000368666 0.0554555 -0.000180316)
(0.000973431 0.0392175 -0.000142706)
(-0.000822156 0.0338287 0.000145792)
(-0.00482337 0.0225067 -8.08907e-05)
(-0.00539152 0.017041 -8.38943e-05)
(-0.00724937 0.0137264 -5.29247e-05)
(-0.00989256 0.00836339 -3.27524e-05)
(-0.0104035 0.00256864 -9.69855e-05)
(-0.00969648 -0.00291709 0.000206594)
(-0.0130136 -0.00820342 0.000649022)
(-0.0119778 -0.0148375 0.000436398)
(-0.00757111 -0.0199799 -1.93672e-05)
(-0.00383867 -0.0165985 0.000303314)
(-0.00181786 -0.0217924 2.34996e-06)
(-0.00127636 -0.0177669 0.000298239)
(0.00221427 -0.023114 -0.000297279)
(0.00658359 -0.0198873 0.000256916)
(0.00493554 -0.0207778 0.000363687)
(0.011522 -0.0263612 -0.000375229)
(0.0196252 -0.0215287 0.000574535)
(0.0171374 -0.021135 0.00105155)
(0.00924133 -0.0302445 -4.88872e-05)
(0.0112777 -0.0289195 2.96552e-05)
(0.00850347 -0.0223622 -1.25328e-05)
(0.00488843 -0.0131091 6.58426e-05)
(0.000774634 -0.0009657 5.01809e-05)
(-0.000133454 0.0166793 -2.12331e-05)
(0.00158766 0.048976 -9.79183e-05)
(-0.000257833 0.057596 -0.00016885)
(0.000840873 0.0402868 -0.000144916)
(-0.00130749 0.0354727 0.000116472)
(-0.00494558 0.0259745 -0.00011789)
(-0.0050101 0.0208041 -2.33491e-05)
(-0.00738361 0.0168744 2.79273e-06)
(-0.0110203 0.0108679 2.53027e-05)
(-0.0135506 0.00359177 4.26907e-05)
(-0.0142926 -0.0057638 0.000187182)
(-0.0211386 -0.0177527 0.000994678)
(-0.0186933 -0.0216017 -0.000467043)
(-0.00946699 -0.0231143 -0.000363494)
(-0.00521004 -0.0195044 -0.000594591)
(-0.00254418 -0.0222944 -0.000274324)
(-0.0012165 -0.0190131 -0.000561182)
(0.000833521 -0.0219571 -0.000268739)
(0.00119803 -0.0209541 -0.000621856)
(0.00791473 -0.0243087 -0.000594802)
(0.0121232 -0.029607 -0.000361297)
(0.0267079 -0.0316655 -0.000322931)
(0.0267579 -0.0333311 0.00188072)
(0.0149369 -0.0315466 0.000113249)
(0.0144954 -0.0276105 0.000166882)
(0.00981466 -0.0193716 0.00011747)
(0.00496799 -0.00987794 0.000115704)
(0.00123405 0.000963998 9.33151e-05)
(-0.000199315 0.0183492 2.13557e-05)
(0.00106166 0.0505314 -9.26594e-05)
(-0.000268813 0.0593614 -0.000110023)
(0.000937461 0.0414131 -0.000146631)
(-0.00152996 0.0375732 8.16345e-05)
(-0.0045582 0.0295143 -0.000116035)
(-0.00413305 0.0236878 5.22651e-05)
(-0.00671607 0.0193614 9.1742e-05)
(-0.0102002 0.0138555 0.000116823)
(-0.0142175 0.00646011 0.0002487)
(-0.0178582 -0.00385278 0.000148471)
(-0.0255967 -0.0142498 0.000272183)
(-0.0234492 -0.0136531 -0.00198323)
(-0.00906978 -0.0115687 -0.00169382)
(-0.00633669 -0.00736149 -0.00169092)
(-0.00198132 -0.00840548 -0.00159642)
(-0.00199646 -0.00648247 -0.00159158)
(-0.000577069 -0.00872599 -0.00163422)
(-0.00134403 -0.0085865 -0.00172164)
(0.00494019 -0.0116158 -0.00205092)
(0.00695576 -0.0179996 -0.0021502)
(0.0279564 -0.0215552 -0.00279746)
(0.0317881 -0.0300281 0.000106759)
(0.0213813 -0.0271526 2.23954e-05)
(0.015815 -0.0236102 0.000289692)
(0.00901459 -0.0158372 0.000229433)
(0.00393114 -0.00759487 0.000206606)
(0.000679631 0.00156281 0.000141404)
(-0.000535296 0.0196773 6.31972e-05)
(0.000249122 0.0519009 -6.33661e-05)
(-0.000338573 0.0606122 -6.4495e-05)
(0.00126313 0.0421891 -0.000100789)
(-0.000862147 0.0397774 7.76384e-05)
(-0.00286881 0.0318399 -5.68272e-05)
(-0.00192633 0.0247229 0.000119646)
(-0.00367287 0.0198607 0.000176891)
(-0.00537336 0.0141994 0.000246744)
(-0.00787094 0.00580503 0.000376683)
(-0.00815084 -0.00491407 0.00046713)
(-0.00742233 -0.0129143 0.000563344)
(-0.00678879 -0.00263555 0.000623715)
(-0.00474935 0.000319937 0.000617549)
(-0.00364044 0.00504702 0.000602294)
(-0.0014486 0.00590103 0.000553265)
(-0.000959098 0.00820619 0.000565447)
(2.01035e-05 0.00808949 0.000511898)
(-0.000341822 0.00776772 0.000513184)
(0.00252234 0.00719986 0.000319907)
(0.00416618 0.000574712 0.000247742)
(0.010357 -0.00267696 7.81665e-05)
(0.0140897 -0.0214474 0.000191966)
(0.0129413 -0.0232911 0.000249797)
(0.00935942 -0.0216878 0.000359492)
(0.00393926 -0.0141814 0.000280673)
(0.000932399 -0.00736744 0.000250735)
(-0.000867963 0.00152693 0.000181807)
(-0.00156851 0.0198153 0.000116072)
(-0.000910575 0.0522897 5.00023e-06)
(-0.000629001 0.0608591 6.02376e-06)
(0.00139066 0.0423657 -7.51636e-05)
(-0.000451198 0.0411898 7.75759e-05)
(-0.0018381 0.0329231 -4.47492e-05)
(-0.000664236 0.0245808 0.00010239)
(-0.00215778 0.0190307 0.000152831)
(-0.00323658 0.0127743 0.000191399)
(-0.00614845 0.00237917 0.00022949)
(-0.00763884 -0.0130284 0.00023951)
(-0.00888729 -0.0206773 9.10168e-05)
(-0.00763246 -0.019416 -8.66043e-05)
(-0.00477656 -0.0165325 -3.01401e-05)
(-0.00325333 -0.0138669 -2.38065e-05)
(-0.00140654 -0.0119678 -1.53582e-05)
(-0.000684618 -0.00977195 -4.76148e-05)
(0.000695626 -0.00926058 -4.96035e-05)
(0.000592171 -0.0100332 -8.4615e-06)
(0.00278162 -0.0115451 -7.77277e-05)
(0.00467089 -0.0149795 -0.000123376)
(0.00999988 -0.0194821 -0.000243312)
(0.0134936 -0.0272205 4.5449e-05)
(0.0113324 -0.0265557 0.000240512)
(0.00647755 -0.0217571 0.00025084)
(0.00114608 -0.0133651 0.000139727)
(-0.000501218 -0.0079582 0.000141442)
(-0.00169399 0.0015292 0.000129728)
(-0.00190583 0.0192631 7.59783e-05)
(-0.00145707 0.051636 1.99037e-05)
(-0.000600069 0.0599506 3.26348e-05)
(0.00157065 0.0421747 -2.81409e-05)
(0.00025579 0.0423726 8.51037e-05)
(-0.000376849 0.033218 -6.6354e-07)
(0.000882927 0.0237677 0.000158702)
(-8.76612e-05 0.0177893 0.000193618)
(-0.000315638 0.0116714 0.000238072)
(-0.00167453 0.00193151 0.000237916)
(-0.00376579 -0.0127908 0.000383343)
(-0.00497048 -0.0184478 0.000167765)
(-0.00408637 -0.0154644 8.61003e-05)
(-0.00231947 -0.0116007 5.21726e-05)
(-0.000811253 -0.00801666 4.1771e-05)
(0.000261877 -0.00589145 9.91517e-05)
(0.00069116 -0.00364665 0.000144161)
(0.000880637 -0.00203035 0.000142107)
(2.62639e-06 -0.00254122 0.000130061)
(0.000443874 -0.00507674 3.98535e-05)
(0.0021695 -0.0103983 2.94645e-05)
(0.00535985 -0.0167651 -1.09758e-05)
(0.00773022 -0.0255366 9.95503e-05)
(0.00666003 -0.0252099 0.000310829)
(0.00168609 -0.0191936 0.000216695)
(-0.00124812 -0.0121895 0.000153699)
(-0.00179494 -0.00831714 0.000141899)
(-0.00259763 0.0019416 0.000164412)
(-0.00235205 0.0185284 9.61144e-05)
(-0.0020588 0.0503618 7.57012e-05)
(-0.000845437 0.0585917 5.93208e-05)
(0.00159761 0.0412407 -1.32265e-05)
(0.00053348 0.0426399 9.58312e-05)
(0.000300788 0.0326264 5.0346e-06)
(0.0014264 0.0224874 0.000128128)
(0.000511049 0.0160873 0.000121747)
(0.000405897 0.00964381 0.000129432)
(0.000165199 0.000319411 8.20506e-05)
(-0.00252264 -0.0148035 0.000193527)
(-0.00457861 -0.0203953 -1.20922e-05)
(-0.00372849 -0.0185069 -0.000116198)
(-0.00214507 -0.0142974 -0.000137124)
(-0.00106191 -0.011325 -0.00012344)
(1.47345e-06 -0.00960598 -0.000104932)
(0.000623279 -0.00826376 -7.28717e-05)
(0.00125158 -0.00701532 -3.52473e-05)
(0.000750441 -0.00770313 2.15091e-05)
(0.00105805 -0.0100855 -3.50851e-05)
(0.00216106 -0.014217 -6.44312e-05)
(0.0042934 -0.020709 -9.09158e-05)
(0.00563234 -0.0276404 1.25683e-05)
(0.00399299 -0.0258513 0.000199834)
(-0.000579638 -0.0177616 1.82568e-05)
(-0.00139673 -0.0123269 1.00163e-05)
(-0.00151104 -0.00908159 5.683e-05)
(-0.0024775 0.000949021 7.28871e-05)
(-0.00228802 0.0174608 8.14226e-05)
(-0.00232385 0.0488181 0.00011011)
(-0.000952571 0.0563932 5.06102e-05)
(0.00160889 0.0403332 5.37551e-06)
(0.000902953 0.042842 8.86261e-05)
(0.000934574 0.0316277 2.77212e-05)
(0.00175029 0.021095 0.0001394)
(0.00101768 0.0149054 0.000119696)
(0.000925078 0.00837411 0.000136901)
(0.00140774 0.000562306 9.08426e-05)
(-0.000767737 -0.0125668 0.000194959)
(-0.00230542 -0.0180428 5.12354e-05)
(-0.00150069 -0.0161103 -1.9582e-05)
(-0.000568105 -0.011704 -2.08297e-05)
(-9.5845e-06 -0.00850728 -1.4571e-05)
(0.000302501 -0.00670872 -6.89054e-06)
(0.000579184 -0.00576264 1.14575e-05)
(0.00103162 -0.00459215 3.32937e-05)
(0.000466931 -0.00565654 8.12135e-05)
(0.000107918 -0.00849506 3.07572e-05)
(0.000723293 -0.0130676 -2.70185e-06)
(0.0017867 -0.019647 -2.68784e-05)
(0.00243437 -0.025874 3.27182e-05)
(0.0013228 -0.0234388 0.000152068)
(-0.00154196 -0.0151975 2.57174e-06)
(-0.00138447 -0.0116015 1.82052e-05)
(-0.00144059 -0.00872216 4.13779e-05)
(-0.00218738 0.00045957 9.80075e-05)
(-0.00228469 0.0162873 0.000105151)
(-0.00247153 0.0464982 0.000164107)
(-0.00131871 0.0539106 2.5604e-05)
(0.00151208 0.0396285 9.56026e-06)
(0.000923282 0.0426288 9.75302e-05)
(0.00104367 0.030848 4.08278e-05)
(0.00175242 0.0202211 0.000123588)
(0.00138576 0.0140132 0.000101178)
(0.00105758 0.00702552 7.92567e-05)
(0.00125412 9.7556e-05 3.88207e-05)
(-0.000185036 -0.0113864 1.85473e-05)
(-0.000951681 -0.017152 -2.31802e-05)
(-0.000631243 -0.0156699 -6.64579e-05)
(-0.000220491 -0.0114465 -6.95603e-05)
(-1.13401e-05 -0.00876978 -4.06755e-05)
(8.02308e-05 -0.00702855 -4.54547e-05)
(8.75979e-05 -0.00626018 -3.99314e-05)
(0.000329878 -0.00513494 -4.38765e-05)
(0.000301656 -0.00632679 -3.16769e-05)
(0.000334013 -0.00910253 -3.90517e-05)
(0.000500797 -0.0130548 -4.34228e-05)
(0.00081611 -0.0190496 -4.26757e-05)
(0.000802411 -0.0244586 -1.31767e-05)
(0.000195657 -0.0215229 -5.02002e-06)
(-0.00108701 -0.0135212 -4.75094e-05)
(-0.00112488 -0.0109818 -7.84399e-06)
(-0.00143688 -0.00824191 2.99175e-05)
(-0.00206554 0.000143964 6.11775e-05)
(-0.00231883 0.0155288 0.000114277)
(-0.0027624 0.0447896 0.000141035)
(-0.0012274 0.0519615 5.1574e-06)
(0.00119039 0.0382794 -1.90806e-05)
(0.00097047 0.0421735 5.20325e-05)
(0.000967002 0.0289714 3.74571e-05)
(0.00143709 0.0175085 0.000119096)
(0.00121989 0.0120169 8.68388e-05)
(0.000810889 0.0063496 2.20526e-05)
(0.000684624 0.000590083 -2.81683e-05)
(0.000232578 -0.00849123 -5.00881e-05)
(0.000158526 -0.0140961 -8.5033e-05)
(8.0535e-05 -0.0129775 -9.18466e-05)
(0.00014552 -0.00937778 -8.86348e-05)
(0.000158242 -0.00725589 -6.02628e-05)
(5.31668e-05 -0.00574274 -5.30414e-05)
(-1.78692e-06 -0.00498771 -5.08679e-05)
(2.54225e-05 -0.00396106 -5.25479e-05)
(2.32059e-05 -0.00485883 -5.68018e-05)
(-7.23706e-05 -0.00739631 -6.63396e-05)
(-7.46788e-05 -0.0109983 -9.41001e-05)
(-6.15795e-06 -0.0161355 -0.000105171)
(-0.000108356 -0.020515 -0.000105783)
(-0.000275076 -0.0174332 -0.000128075)
(-0.000697447 -0.0105339 -9.2511e-05)
(-0.000868957 -0.00890147 -6.83566e-05)
(-0.00113858 -0.00688702 -3.91159e-05)
(-0.00142073 -0.00156962 -2.0165e-05)
(-0.00136212 0.0141835 7.49854e-05)
(-0.00165422 0.0417867 0.000104387)
(-0.000430269 0.0489874 4.76076e-05)
(-0.0115363 -0.00160467 -0.000430219)
(-0.018736 0.000955502 -0.000757346)
(-0.0211341 -0.0012487 -0.000279774)
(-0.0165532 -0.000445683 0.000420311)
(-0.0156466 -0.000172182 0.000438383)
(-0.0143503 -0.000219959 0.000493542)
(-0.0156336 -6.38344e-05 0.000295553)
(-0.0173108 0.000763289 -0.000109156)
(-0.0187596 0.000876326 -0.00061067)
(-0.0220112 0.00165524 -0.000881123)
(-0.0283907 0.00134118 -0.00108747)