/*--------------------------------*- C++ -*----------------------------------*\
| =========                 |                                                 |
| \\      /  F ield         | OpenFOAM: The Open Source CFD Toolbox           |
|  \\    /   O peration     | Version:  2.3.0                                 |
|   \\  /    A nd           | Web:      www.OpenFOAM.org                      |
|    \\/     M anipulation  |                                                 |
\*---------------------------------------------------------------------------*/
FoamFile
{
    version     2.0;
    format      ascii;
    class       volScalarField;
    location    "0.65";
    object      alpha.particles;
}
// * * * * * * * * * * * * * * * * * * * * * * * * * * * * * * * * * * * * * //

dimensions      [0 0 0 0 0 0 0];

internalField   nonuniform List<scalar> 
6000
(
0.46161
0.45884
0.43183
0.398954
0.391049
0.391048
0.399237
0.398967
0.439549
0.434766
0.405191
0.411213
0.435212
0.446646
0.434958
0.417214
0.448109
0.463227
0.463228
0.460867
0.454367
0.44069
0.403837
0.426155
0.446913
0.457327
0.46273
0.462267
0.463242
0.463399
0.417764
0.391695
0.391372
0.391371
0.39105
0.391247
0.391369
0.391561
0.391683
0.391877
0.392007
0.392197
0.392333
0.409245
0.409394
0.409546
0.409696
0.411805
0.421934
0.406924
0.406822
0.404034
0.403837
0.404034
0.404035
0.411574
0.420347
0.426219
0.42748
0.437362
0.459722
0.443339
0.439306
0.440531
0.444484
0.442334
0.438592
0.436607
0.446652
0.450836
0.441272
0.443888
0.454801
0.454975
0.429606
0.436783
0.453535
0.464594
0.464964
0.462323
0.46495
0.462506
0.464049
0.465166
0.465111
0.465233
0.465156
0.465266
0.4652
0.465253
0.479705
0.479921
0.479486
0.479469
0.47934
0.479011
0.474867
0.478366
0.479113
0.479272
0.478974
0.479464
0.4788
0.437685
0.358892
0.417777
0.465057
0.464964
0.465103
0.464999
0.465148
0.465056
0.465192
0.465102
0.465234
0.465147
0.465275
0.465187
0.465285
0.465253
0.479922
0.479706
0.480108
0.479486
0.479941
0.47934
0.479763
0.479223
0.480038
0.479113
0.480173
0.478972
0.463211
0.305115
0.252777
0.300635
0.411274
0.45434
0.462001
0.446596
0.451038
0.463244
0.462897
0.463873
0.459758
0.440737
0.399329
0.354984
0.317274
0.305008
0.47963
0.475866
0.479481
0.480202
0.47934
0.480282
0.479223
0.480096
0.479112
0.480206
0.478969
0.452289
0.297445
0.252737
0.246917
0.252775
0.25207
0.281755
0.290817
0.287641
0.300765
0.324526
0.330686
0.330178
0.323155
0.302049
0.270238
0.220213
0.178005
0.164074
0.287777
0.294248
0.346612
0.428693
0.480346
0.479223
0.480281
0.445223
0.447408
0.431253
0.37371
0.279352
0.252737
0.246866
0.252737
0.247604
0.252775
0.249192
0.252775
0.250009
0.252775
0.251898
0.252775
0.255575
0.260085
0.260865
0.255162
0.198718
0.161011
0.160944
0.140449
0.150474
0.183822
0.264411
0.381902
0.446518
0.416776
0.31982
0.28889
0.27614
0.252966
0.252737
0.250241
0.252713
0.246866
0.252737
0.248305
0.252775
0.249369
0.252775
0.251037
0.252775
0.25254
0.260295
0.275854
0.28767
0.282908
0.210202
0.161086
0.161024
0.130504
0.130587
0.149172
0.203015
0.300479
0.387305
0.404115
0.302289
0.252775
0.252669
0.252737
0.252467
0.252713
0.247209
0.252713
0.247791
0.252737
0.248836
0.252775
0.250261
0.252775
0.252415
0.257762
0.27642
0.307897
0.328119
0.311899
0.231755
0.167118
0.1611
0.130607
0.130674
0.149121
0.197873
0.283202
0.400396
0.450393
0.334478
0.252679
0.26145
0.277957
0.268276
0.251534
0.252713
0.247737
0.252737
0.248466
0.252775
0.249534
0.252775
0.252145
0.259848
0.274791
0.302648
0.342002
0.359929
0.332704
0.25563
0.185673
0.161176
0.130711
0.130768
0.152928
0.199858
0.271542
0.40512
0.488694
0.382543
0.252786
0.281933
0.329307
0.312573
0.252737
0.247887
0.252737
0.248326
0.252775
0.249088
0.252775
0.25156
0.260364
0.284733
0.310099
0.343871
0.377857
0.392082
0.360989
0.288
0.2169
0.175723
0.130804
0.136019
0.162793
0.206591
0.267375
0.387711
0.488715
0.436973
0.270878
0.3026
0.367597
0.354689
0.250967
0.252737
0.248299
0.252775
0.248841
0.252775
0.250811
0.252775
0.285991
0.329507
0.367953
0.401298
0.427504
0.43739
0.406687
0.340194
0.267997
0.219825
0.133818
0.1502
0.179144
0.218584
0.270393
0.360527
0.488735
0.496993
0.32318
0.319602
0.382068
0.368371
0.252775
0.248439
0.252775
0.248685
0.252775
0.250251
0.252775
0.270709
0.333269
0.394849
0.440673
0.469462
0.485573
0.490651
0.475284
0.424888
0.35253
0.296001
0.149898
0.173301
0.2023
0.237734
0.280588
0.348874
0.468457
0.508811
0.398182
0.35592
0.395071
0.359858
0.250375
0.252775
0.248677
0.252775
0.249728
0.252775
0.26105
0.320585
0.403202
0.470981
0.504333
0.517853
0.523656
0.525024
0.520975
0.504691
0.462413
0.405055
0.181317
0.204971
0.233182
0.264924
0.297795
0.350185
0.439104
0.508866
0.488883
0.428549
0.421209
0.338977
0.252775
0.249073
0.252775
0.249454
0.252775
0.252192
0.3028
0.397815
0.481669
0.519903
0.532762
0.538188
0.540604
0.541032
0.539686
0.536187
0.526176
0.506326
0.222118
0.244135
0.271555
0.29948
0.323469
0.359194
0.429909
0.498803
0.528273
0.517629
0.459519
0.321885
0.251316
0.252775
0.249288
0.252775
0.25175
0.277851
0.378846
0.480693
0.525748
0.539451
0.545051
0.547624
0.548568
0.548465
0.547646
0.546296
0.5442
0.541301
0.26588
0.287906
0.315459
0.340199
0.358265
0.378861
0.430938
0.497225
0.530312
0.533888
0.49438
0.334165
0.252775
0.25026
0.252775
0.251141
0.260524
0.344775
0.466882
0.526127
0.542887
0.549281
0.552173
0.553308
0.553277
0.55261
0.551594
0.550384
0.549239
0.548263
0.308099
0.332898
0.362194
0.384823
0.399087
0.41007
0.441233
0.499889
0.529425
0.533906
0.494833
0.356171
0.259792
0.252775
0.250846
0.252775
0.304112
0.435425
0.520578
0.54356
0.551676
0.554976
0.556337
0.556655
0.556195
0.555292
0.553992
0.552399
0.55086
0.549868
0.346557
0.377299
0.409039
0.429245
0.440828
0.449751
0.469656
0.513618
0.532183
0.534004
0.479053
0.374273
0.293608
0.252301
0.252775
0.267711
0.382836
0.506126
0.540879
0.552034
0.556191
0.557065
0.557106
0.55708
0.557101
0.556892
0.555764
0.553738
0.55124
0.549494
0.381594
0.419823
0.450779
0.467729
0.479066
0.491306
0.50913
0.531447
0.534136
0.534026
0.453224
0.370187
0.341777
0.266918
0.263153
0.313221
0.466833
0.533193
0.549913
0.556109
0.557057
0.55711
0.557065
0.557057
0.557061
0.557088
0.557042
0.555039
0.551213
0.547475
0.413744
0.456009
0.482181
0.498209
0.512059
0.524343
0.534598
0.538803
0.53421
0.528357
0.426251
0.370243
0.371433
0.300585
0.296229
0.379063
0.507596
0.544004
0.554663
0.557042
0.55711
0.55702
0.554059
0.543487
0.553242
0.555041
0.557046
0.556158
0.551371
0.543044
0.440187
0.482025
0.507199
0.523571
0.53595
0.542767
0.545489
0.542723
0.534881
0.523761
0.42413
0.386611
0.390238
0.323165
0.315591
0.425489
0.519072
0.548981
0.55697
0.557109
0.557017
0.551005
0.50405
0.426138
0.533668
0.547703
0.556395
0.556268
0.551601
0.534304
0.456489
0.501484
0.52798
0.542107
0.548899
0.550659
0.550657
0.546402
0.537222
0.527228
0.45071
0.436281
0.413813
0.302941
0.274321
0.425388
0.520717
0.550981
0.557077
0.557034
0.554848
0.514979
0.316097
0.226185
0.384764
0.531691
0.55264
0.55618
0.551919
0.51941
0.466015
0.517419
0.542564
0.550555
0.550686
0.550806
0.550566
0.542918
0.536265
0.533467
0.509459
0.507235
0.429255
0.243626
0.207315
0.372968
0.518852
0.551029
0.557005
0.557053
0.542642
0.409681
0.210473
0.213315
0.211107
0.431745
0.539888
0.55604
0.552845
0.519329
0.475959
0.528647
0.549691
0.550689
0.550817
0.550439
0.503489
0.493492
0.526486
0.532379
0.516479
0.482368
0.367021
0.208038
0.211395
0.266367
0.507901
0.549192
0.557021
0.554307
0.513058
0.298212
0.213315
0.208095
0.213315
0.26049
0.523097
0.550113
0.551914
0.519065
0.492181
0.533978
0.550639
0.550827
0.550434
0.474938
0.291188
0.282066
0.354757
0.378885
0.349533
0.29216
0.228314
0.211395
0.204255
0.211465
0.437333
0.540586
0.556887
0.546344
0.465125
0.231625
0.209149
0.213314
0.208617
0.213329
0.426137
0.542559
0.548563
0.519069
0.522911
0.537504
0.550763
0.55056
0.49981
0.286454
0.211416
0.207358
0.211421
0.208864
0.211408
0.206576
0.211395
0.204791
0.211394
0.206306
0.330195
0.53372
0.556331
0.541069
0.386791
0.211882
0.213314
0.208292
0.213314
0.210385
0.287508
0.529628
0.540897
0.519491
0.517233
0.49213
0.544061
0.541217
0.356208
0.211516
0.207679
0.211413
0.206874
0.211401
0.205688
0.211395
0.205146
0.211394
0.204265
0.211395
0.246402
0.496732
0.549309
0.524613
0.279308
0.213315
0.209172
0.213314
0.209388
0.213314
0.216643
0.436586
0.5398
0.519786
0.4432
0.401584
0.508829
0.444152
0.285682
0.21085
0.211413
0.206866
0.211401
0.206645
0.211395
0.205698
0.211394
0.205353
0.211394
0.205541
0.217041
0.409828
0.539773
0.453547
0.213365
0.210231
0.213314
0.20909
0.213314
0.210841
0.213315
0.341441
0.53393
0.519786
0.41252
0.401838
0.436586
0.404312
0.32194
0.214829
0.208547
0.211413
0.207079
0.211401
0.206465
0.211395
0.206267
0.211394
0.20518
0.211394
0.212288
0.388781
0.519993
0.340268
0.210864
0.213314
0.209263
0.213314
0.210192
0.213314
0.212954
0.302083
0.488636
0.535236
0.429258
0.401286
0.425203
0.431544
0.374311
0.235355
0.211413
0.2073
0.211413
0.207224
0.211401
0.206709
0.211395
0.206101
0.211394
0.205918
0.212703
0.441293
0.468669
0.263018
0.213314
0.209876
0.213314
0.209581
0.213314
0.211706
0.217926
0.325125
0.443707
0.535195
0.44746
0.401838
0.444736
0.451576
0.408342
0.264505
0.209628
0.211413
0.207632
0.211413
0.207227
0.211401
0.20705
0.211395
0.205595
0.211395
0.215988
0.473523
0.464027
0.225585
0.210768
0.213314
0.209642
0.213314
0.211043
0.213314
0.246828
0.361063
0.418644
0.476047
0.462309
0.415441
0.458277
0.463795
0.427347
0.295693
0.211413
0.208425
0.211413
0.20788
0.211413
0.207518
0.211401
0.206599
0.211395
0.206125
0.225866
0.496237
0.440771
0.212812
0.213314
0.210157
0.213314
0.21054
0.213314
0.212912
0.290749
0.392401
0.422842
0.445811
0.476977
0.438455
0.467105
0.472583
0.44441
0.330133
0.210936
0.211413
0.208558
0.211413
0.207969
0.211413
0.207809
0.211401
0.206133
0.211401
0.238395
0.498971
0.397326
0.213315
0.211334
0.213314
0.210478
0.213314
0.212577
0.233616
0.342508
0.419513
0.426287
0.44037
0.492168
0.459596
0.476214
0.480753
0.461032
0.370689
0.220709
0.210046
0.211413
0.20881
0.211413
0.20822
0.211413
0.207332
0.211401
0.206887
0.246165
0.498929
0.375527
0.213189
0.213314
0.211109
0.213314
0.212286
0.219143
0.297361
0.399033
0.443286
0.431312
0.441583
0.506829
0.480172
0.485511
0.488447
0.477008
0.41302
0.267717
0.211414
0.209878
0.211413
0.20903
0.211413
0.208468
0.211413
0.207044
0.211413
0.239033
0.49762
0.393528
0.22489
0.212291
0.213314
0.212183
0.213314
0.269453
0.383153
0.449754
0.463443
0.441609
0.455824
0.519647
0.498067
0.494612
0.495454
0.489864
0.451305
0.339983
0.224064
0.211414
0.210173
0.211413
0.209329
0.211413
0.207953
0.211413
0.207965
0.217696
0.43407
0.413788
0.249453
0.213314
0.212624
0.213314
0.252427
0.364019
0.454356
0.483254
0.482012
0.459964
0.483093
0.529217
0.511367
0.502643
0.50129
0.498921
0.481274
0.407315
0.272439
0.214075
0.211414
0.210694
0.211413
0.209665
0.211413
0.207847
0.211413
0.209728
0.35669
0.409807
0.267653
0.213689
0.213946
0.247145
0.344147
0.456362
0.49718
0.502985
0.500633
0.490336
0.514232
0.536255
0.521097
0.50968
0.505969
0.504653
0.498802
0.455875
0.340638
0.246864
0.22736
0.214192
0.210911
0.211413
0.209294
0.211413
0.208695
0.211414
0.293497
0.380348
0.266574
0.231326
0.255564
0.336946
0.449536
0.505294
0.516381
0.518378
0.51895
0.521337
0.536815
0.542191
0.52955
0.516839
0.510052
0.508506
0.505871
0.483549
0.393361
0.300615
0.2714
0.246946
0.228505
0.214812
0.211413
0.209187
0.211414
0.209504
0.249426
0.314295
0.240423
0.249662
0.338857
0.444296
0.507753
0.523264
0.528305
0.531326
0.534676
0.540671
0.549321
0.547541
0.537878
0.525655
0.515789
0.512108
0.509468
0.495738
0.425665
0.350241
0.320895
0.298856
0.274096
0.246492
0.215146
0.211414
0.209919
0.211414
0.217725
0.238725
0.210081
0.248262
0.417408
0.506257
0.525225
0.532782
0.53746
0.541411
0.545841
0.550876
0.554969
0.551875
0.545468
0.535799
0.525422
0.518982
0.514881
0.505406
0.451028
0.386687
0.359643
0.346504
0.328923
0.298909
0.248864
0.218371
0.211414
0.209402
0.211414
0.209427
0.211414
0.24147
0.457665
0.521367
0.532953
0.5397
0.544472
0.548557
0.552646
0.555531
0.556092
0.554652
0.551321
0.544837
0.536595
0.529835
0.525095
0.519221
0.478776
0.417963
0.393397
0.387088
0.379141
0.353603
0.307891
0.259613
0.221449
0.211414
0.209422
0.211414
0.210149
0.239007
0.460185
0.525848
0.538281
0.544958
0.549326
0.553016
0.555999
0.55601
0.556101
0.555546
0.554687
0.551407
0.5454
0.539737
0.535729
0.531184
0.503134
0.45019
0.430879
0.430074
0.428398
0.410138
0.383163
0.326933
0.238903
0.209231
0.211414
0.207967
0.211414
0.250551
0.449471
0.528421
0.542409
0.548332
0.551888
0.554819
0.554993
0.546841
0.55604
0.554062
0.554989
0.554969
0.550848
0.546275
0.542449
0.534808
0.505114
0.471754
0.46817
0.478089
0.481639
0.482018
0.476583
0.384199
0.235239
0.211414
0.208791
0.211414
0.211076
0.288871
0.454599
0.531115
0.544905
0.549389
0.552088
0.552132
0.541665
0.496504
0.550983
0.548725
0.552377
0.554976
0.552997
0.549823
0.54523
0.529831
0.49677
0.492057
0.50905
0.522006
0.525254
0.528582
0.528068
0.385189
0.217081
0.209255
0.211414
0.207931
0.215319
0.358463
0.48195
0.532055
0.54487
0.548804
0.550439
0.540094
0.490162
0.303399
0.423741
0.545808
0.537
0.553423
0.551699
0.550808
0.544314
0.523137
0.508842
0.525549
0.537827
0.541245
0.54004
0.535845
0.518652
0.332778
0.210456
0.211414
0.208951
0.211414
0.221781
0.439151
0.505249
0.526156
0.541926
0.546638
0.540659
0.457771
0.307608
0.288346
0.328416
0.411222
0.385756
0.538552
0.544212
0.549238
0.545445
0.533109
0.533895
0.543818
0.547745
0.54609
0.540418
0.527373
0.41808
0.262789
0.211414
0.209676
0.211414
0.208621
0.22479
0.48221
0.516227
0.519427
0.534806
0.535398
0.462624
0.297997
0.288346
0.288284
0.438859
0.306154
0.279419
0.40151
0.510551
0.543453
0.550041
0.546598
0.548299
0.551145
0.549419
0.543175
0.531479
0.476796
0.303441
0.216214
0.21041
0.211414
0.210067
0.211414
0.239386
0.4827
0.524083
0.522023
0.528235
0.492011
0.329077
0.297425
0.332306
0.412905
0.534524
0.324454
0.279454
0.322351
0.44096
0.537589
0.553967
0.554895
0.55549
0.554995
0.547986
0.533924
0.506257
0.392433
0.255416
0.2111
0.211414
0.210866
0.211414
0.210697
0.28556
0.494509
0.532148
0.532545
0.539524
0.404425
0.328452
0.353516
0.45398
0.532847
0.559318
0.366079
0.327741
0.406558
0.499229
0.548556
0.558069
0.558498
0.558573
0.557748
0.547832
0.527343
0.477996
0.36425
0.251103
0.212646
0.211327
0.212804
0.215923
0.225479
0.360001
0.519948
0.54053
0.540645
0.540433
0.38988
0.35479
0.458452
0.534757
0.558664
0.560341
0.424647
0.447592
0.52033
0.545417
0.556908
0.55851
0.558647
0.558424
0.548481
0.547156
0.528655
0.478991
0.375672
0.279405
0.24464
0.240388
0.247121
0.263196
0.303344
0.436208
0.535676
0.540642
0.540543
0.523792
0.393743
0.42722
0.52666
0.555747
0.560958
0.55924
0.48601
0.5276
0.54829
0.554546
0.558457
0.558647
0.558456
0.549388
0.45748
0.513943
0.527844
0.496499
0.433947
0.372623
0.344779
0.340251
0.355197
0.383479
0.43997
0.50147
0.521055
0.535923
0.540517
0.479571
0.426858
0.498822
0.54748
0.560876
0.56088
0.551303
0.51693
0.522564
0.524638
0.539373
0.553591
0.558472
0.555316
0.435863
0.246144
0.332141
0.506341
0.516713
0.516264
0.49661
0.478986
0.477428
0.494248
0.507279
0.507433
0.478126
0.370322
0.333817
0.436142
0.460742
0.484102
0.531881
0.555686
0.560919
0.561165
0.542643
0.51803
0.411788
0.347605
0.354419
0.524141
0.558402
0.531509
0.28372
0.171223
0.173363
0.316948
0.466227
0.498357
0.498051
0.494672
0.488934
0.486924
0.480219
0.419432
0.306121
0.194208
0.185606
0.350074
0.475262
0.51437
0.545301
0.559804
0.561276
0.560724
0.508851
0.477466
0.308226
0.306879
0.308306
0.394107
0.548915
0.476849
0.234607
0.17005
0.171161
0.170653
0.239887
0.307301
0.3419
0.351641
0.346425
0.325196
0.298286
0.226594
0.179941
0.168695
0.170692
0.344218
0.49765
0.52737
0.551322
0.560957
0.560936
0.558245
0.492793
0.338565
0.306957
0.308216
0.306925
0.308341
0.457305
0.436114
0.252653
0.171161
0.168049
0.171081
0.168449
0.171021
0.17462
0.18245
0.183957
0.181481
0.175526
0.170763
0.169384
0.170692
0.167055
0.325714
0.509695
0.534089
0.554138
0.56091
0.561283
0.549845
0.49273
0.308046
0.308131
0.306956
0.308216
0.307009
0.346962
0.422
0.278813
0.170609
0.171081
0.167816
0.171018
0.167998
0.170939
0.168779
0.170856
0.169794
0.170763
0.169098
0.170692
0.168234
0.170643
0.278597
0.511493
0.537333
0.555534
0.561046
0.560851
0.546199
0.492843
0.33461
0.307361
0.308216
0.307328
0.308302
0.31756
0.418439
0.297912
0.171082
0.167847
0.171018
0.167674
0.170939
0.16822
0.170856
0.16928
0.170763
0.169457
0.170692
0.168691
0.170643
0.167585
0.222624
0.492554
0.538542
0.555811
0.558993
0.557699
0.542337
0.492822
0.385957
0.308217
0.307896
0.308302
0.307841
0.327412
0.41529
0.307576
0.170043
0.171018
0.167854
0.170939
0.167704
0.170856
0.168628
0.170763
0.16952
0.170694
0.168389
0.170644
0.168519
0.170525
0.182082
0.441215
0.540131
0.555743
0.554429
0.546664
0.541597
0.493917
0.431033
0.320085
0.317326
0.310236
0.308388
0.345293
0.41458
0.30834
0.171018
0.167956
0.170968
0.167575
0.170856
0.168039
0.170763
0.168834
0.170692
0.168851
0.170643
0.168536
0.170552
0.16693
0.170469
0.340804
0.54226
0.555568
0.538658
0.494865
0.494891
0.524798
0.457109
0.39373
0.391882
0.365717
0.324302
0.367039
0.415883
0.301663
0.169296
0.170939
0.167848
0.170856
0.167502
0.170764
0.168117
0.170692
0.168944
0.170643
0.168623
0.170643
0.168082
0.17045
0.168245
0.24896
0.454395
0.534737
0.413395
0.306103
0.311521
0.49029
0.484898
0.46592
0.461795
0.427138
0.35764
0.39733
0.425236
0.283375
0.170939
0.167983
0.170856
0.167447
0.170763
0.1675
0.170693
0.168319
0.170643
0.169152
0.170526
0.168405
0.17045
0.166525
0.170374
0.217981
0.344962
0.385583
0.291251
0.282959
0.28623
0.368635
0.501363
0.493385
0.489121
0.459501
0.376014
0.420385
0.432877
0.254508
0.168646
0.170856
0.167745
0.170763
0.167082
0.170693
0.167616
0.170643
0.169167
0.170553
0.168242
0.17045
0.167615
0.170373
0.16669
0.214625
0.343086
0.32575
0.283748
0.286228
0.282736
0.328114
0.49039
0.444366
0.485003
0.454572
0.376503
0.423388
0.432893
0.225565
0.17086
0.167789
0.170763
0.166999
0.170692
0.167083
0.170643
0.16852
0.170575
0.168956
0.17045
0.168096
0.170373
0.166208
0.170298
0.213201
0.376491
0.34105
0.286228
0.283256
0.286085
0.326631
0.466655
0.377754
0.424155
0.398088
0.375635
0.413351
0.429815
0.198603
0.167589
0.170763
0.167345
0.170692
0.166901
0.170643
0.167814
0.170525
0.169016
0.17045
0.168182
0.170373
0.167592
0.170298
0.165695
0.215501
0.400791
0.354062
0.284005
0.286211
0.282837
0.327958
0.473002
0.377036
0.37743
0.376078
0.376854
0.408265
0.373425
0.172251
0.170763
0.1675
0.170692
0.166896
0.170643
0.167264
0.170525
0.168283
0.17045
0.168912
0.170373
0.168142
0.170298
0.165933
0.170225
0.219528
0.420624
0.357016
0.286332
0.283867
0.286139
0.326321
0.520914
0.412069
0.377198
0.37743
0.376078
0.415965
0.346967
0.170767
0.166732
0.170692
0.167238
0.170643
0.166909
0.170525
0.167632
0.17045
0.168922
0.170373
0.168215
0.170298
0.167652
0.170225
0.16525
0.220929
0.437382
0.357139
0.284485
0.286332
0.283162
0.325916
0.550703
0.508867
0.408534
0.377179
0.37743
0.445082
0.339836
0.16807
0.170692
0.167521
0.170643
0.166933
0.170525
0.167135
0.17045
0.168191
0.170373
0.169001
0.170298
0.168137
0.170225
0.165923
0.170136
0.216677
0.450794
0.35714
0.286441
0.284776
0.286333
0.329053
0.557973
0.548663
0.503283
0.403767
0.376781
0.474891
0.338108
0.170692
0.166632
0.170643
0.167445
0.170525
0.166852
0.17045
0.167543
0.170373
0.169031
0.170298
0.168222
0.170225
0.167787
0.170135
0.16517
0.20678
0.460001
0.36204
0.285363
0.286441
0.284249
0.341967
0.55805
0.558025
0.542764
0.487187
0.377754
0.495271
0.339827
0.167651
0.170643
0.167658
0.170537
0.166931
0.17045
0.167065
0.170373
0.1683
0.170298
0.168996
0.170225
0.168207
0.170135
0.165791
0.170076
0.195726
0.463872
0.367192
0.286632
0.285815
0.286442
0.361012
0.553054
0.558071
0.553751
0.524902
0.42267
0.505619
0.345664
0.170644
0.166635
0.170571
0.167509
0.17045
0.166873
0.170373
0.16763
0.170298
0.168974
0.170225
0.168314
0.170135
0.167754
0.170076
0.165159
0.189951
0.463902
0.371978
0.286455
0.286632
0.28603
0.391766
0.546119
0.558233
0.556936
0.53823
0.474168
0.511455
0.335656
0.167441
0.170585
0.167654
0.170484
0.166991
0.170438
0.167195
0.170331
0.168356
0.170289
0.168807
0.170173
0.168248
0.170135
0.16582
0.170016
0.188634
0.463577
0.377436
0.30029
0.306455
0.292541
0.451395
0.544907
0.55812
0.558053
0.545263
0.500928
0.512168
0.313707
0.170648
0.166681
0.170585
0.167629
0.170484
0.166978
0.170438
0.167744
0.170331
0.168698
0.170289
0.168371
0.170173
0.167884
0.170135
0.16528
0.189695
0.440791
0.386913
0.327182
0.353281
0.396148
0.519763
0.544906
0.558306
0.558176
0.549209
0.513772
0.512218
0.285187
0.167204
0.170647
0.167722
0.170585
0.16714
0.170484
0.167324
0.170438
0.16818
0.170331
0.168571
0.170289
0.168627
0.170173
0.165771
0.170135
0.190111
0.434736
0.399041
0.362667
0.421134
0.510864
0.549844
0.544905
0.558163
0.558317
0.552664
0.521441
0.48843
0.25305
0.170763
0.166752
0.170647
0.167718
0.170585
0.167061
0.170484
0.167648
0.170438
0.168348
0.170333
0.168436
0.170289
0.168296
0.170173
0.165408
0.188946
0.433744
0.41151
0.418624
0.50558
0.547983
0.554172
0.545248
0.558396
0.558216
0.556668
0.528344
0.475578
0.219713
0.166673
0.170763
0.167819
0.170648
0.167149
0.170585
0.167229
0.170484
0.167872
0.17044
0.168403
0.170331
0.168936
0.170289
0.165852
0.170173
0.186173
0.435267
0.430148
0.490524
0.542983
0.554224
0.554215
0.493353
0.55791
0.55854
0.55812
0.533443
0.452415
0.188369
0.170833
0.166871
0.170763
0.167623
0.170648
0.166957
0.170585
0.16741
0.170484
0.168163
0.170439
0.168324
0.170332
0.168774
0.170289
0.165652
0.183065
0.436096
0.467993
0.52748
0.552939
0.55421
0.554245
0.390417
0.535624
0.558102
0.558355
0.536199
0.408854
0.170939
0.166374
0.170833
0.167936
0.170763
0.166936
0.170647
0.167058
0.170585
0.167745
0.170485
0.168317
0.170438
0.168877
0.17033
0.1661
0.170289
0.179618
0.433089
0.50123
0.540452
0.55411
0.554338
0.536577
0.354573
0.47556
0.552318
0.55702
0.538058
0.346237
0.169943
0.170937
0.166998
0.170833
0.167528
0.170763
0.1668
0.170648
0.167313
0.170585
0.168163
0.170484
0.168354
0.170438
0.168807
0.17033
0.165771
0.176265
0.425064
0.516277
0.54458
0.554336
0.554105
0.53465
0.353045
0.418204
0.540952
0.551855
0.533314
0.277554
0.171018
0.166359
0.170937
0.16799
0.170833
0.166879
0.170763
0.16699
0.170648
0.167786
0.170585
0.168359
0.170484
0.168795
0.170438
0.166216
0.17033
0.172771
0.406412
0.523863
0.547619
0.554075
0.554405
0.534589
0.353042
0.384249
0.51895
0.543292
0.468543
0.248314
0.169979
0.171018
0.16694
0.170937
0.167482
0.170833
0.16682
0.170764
0.167362
0.170647
0.168271
0.170585
0.168375
0.170484
0.168617
0.170438
0.165848
0.170439
0.375101
0.532474
0.551365
0.554309
0.553989
0.534579
0.365124
0.373828
0.475246
0.524513
0.427464
0.261061
0.171075
0.166309
0.171018
0.167863
0.170937
0.166871
0.170833
0.167046
0.170763
0.167932
0.170647
0.168523
0.170585
0.168878
0.170484
0.166141
0.170438
0.169933
0.330956
0.536948
0.553163
0.553769
0.538922
0.496778
0.383267
0.38556
0.463942
0.497257
0.44373
0.297239
0.170711
0.171075
0.166829
0.171018
0.167485
0.170937
0.166832
0.170833
0.167524
0.170763
0.168483
0.170647
0.168543
0.170585
0.168608
0.170484
0.166068
0.170484
0.292232
0.507391
0.547037
0.50599
0.440202
0.452633
0.39524
0.401161
0.467689
0.495784
0.471108
0.343372
0.180636
0.166388
0.171075
0.167825
0.171018
0.166958
0.170937
0.167208
0.170833
0.168145
0.170763
0.168798
0.170647
0.169079
0.170585
0.166281
0.170484
0.171591
0.310429
0.459133
0.51408
0.474731
0.428797
0.42873
0.399996
0.417196
0.479943
0.502755
0.487231
0.382899
0.203075
0.171159
0.167002
0.171075
0.167629
0.171018
0.166993
0.170937
0.167761
0.170833
0.168774
0.170763
0.168928
0.170647
0.168723
0.170585
0.166536
0.184974
0.34335
0.4602
0.488403
0.470775
0.428197
0.428797
0.400055
0.426438
0.487873
0.506391
0.495817
0.40212
0.219835
0.166667
0.171161
0.167997
0.171075
0.167215
0.171018
0.167412
0.170937
0.16844
0.170833
0.16917
0.170763
0.169403
0.170647
0.166762
0.170585
0.19956
0.358128
0.468907
0.486253
0.471462
0.428861
0.432253
0.40017
0.427231
0.48823
0.507144
0.501244
0.403695
0.222599
0.171208
0.167425
0.171161
0.16785
0.171075
0.167182
0.171018
0.168057
0.170937
0.169183
0.170833
0.169363
0.170763
0.169046
0.170647
0.167377
0.206683
0.363713
0.469966
0.486021
0.46595
0.428267
0.438991
0.40017
0.420998
0.479666
0.507374
0.502953
0.390663
0.215385
0.167289
0.171208
0.168172
0.171161
0.167421
0.171075
0.167633
0.171018
0.168821
0.170937
0.16961
0.170833
0.169692
0.170763
0.167416
0.170647
0.210175
0.370086
0.470491
0.481174
0.461276
0.42893
0.446267
0.400427
0.416276
0.472348
0.507443
0.505019
0.38051
0.205583
0.171301
0.167783
0.171208
0.16803
0.171161
0.167373
0.171075
0.1684
0.171018
0.169657
0.170937
0.169838
0.170833
0.169376
0.170763
0.168366
0.218155
0.38958
0.478174
0.479396
0.462487
0.428746
0.46262
0.400472
0.421863
0.474529
0.507518
0.507528
0.387483
0.202194
0.16784
0.171301
0.168431
0.171208
0.167621
0.171161
0.167949
0.171075
0.169354
0.171018
0.170198
0.170937
0.169988
0.170833
0.168112
0.170763
0.238395
0.422337
0.486927
0.48404
0.472606
0.456158
0.495979
0.415501
0.439425
0.485305
0.508568
0.509506
0.412287
0.204739
0.171346
0.168194
0.171301
0.168259
0.171208
0.167691
0.171161
0.168866
0.171075
0.170336
0.171018
0.170491
0.170937
0.169789
0.170833
0.169366
0.267808
0.453492
0.493647
0.49408
0.494538
0.502743
0.527779
0.436595
0.459105
0.493463
0.508964
0.512866
0.430173
0.210079
0.168402
0.171346
0.168593
0.171301
0.167916
0.171208
0.168366
0.171161
0.170117
0.171075
0.170873
0.171018
0.170577
0.170937
0.169064
0.170833
0.291926
0.473724
0.502947
0.510986
0.52217
0.535322
0.546844
0.458791
0.47796
0.502613
0.513878
0.518732
0.435255
0.213897
0.171441
0.168705
0.171346
0.168483
0.171301
0.1681
0.171208
0.169578
0.171161
0.173041
0.179328
0.17832
0.171018
0.17039
0.170937
0.170334
0.303694
0.485537
0.514986
0.529453
0.541991
0.550459
0.554373
0.485304
0.500794
0.51487
0.520061
0.522322
0.434771
0.214581
0.169116
0.171441
0.168893
0.171346
0.168349
0.171301
0.168994
0.171208
0.173781
0.196259
0.211992
0.208938
0.184451
0.171018
0.170215
0.170937
0.305057
0.492056
0.528013
0.542603
0.551663
0.554388
0.554415
0.515143
0.522006
0.523715
0.521097
0.52227
0.422146
0.210323
0.171485
0.169492
0.171441
0.168934
0.171346
0.16863
0.171301
0.170743
0.195702
0.241276
0.265444
0.260203
0.221703
0.182131
0.171018
0.175668
0.305223
0.501068
0.538321
0.549725
0.554359
0.55438
0.553639
0.541068
0.539798
0.531701
0.522383
0.515554
0.391369
0.199445
0.170084
0.171485
0.169406
0.171441
0.16888
0.171346
0.170121
0.178287
0.232351
0.294162
0.325015
0.318538
0.273048
0.218247
0.184508
0.196584
0.307141
0.506049
0.544793
0.552392
0.554284
0.545443
0.470642
0.556274
0.552935
0.543521
0.529982
0.506132
0.360189
0.191995
0.171583
0.170283
0.171485
0.16967
0.171441
0.169431
0.171346
0.199482
0.272655
0.3432
0.381374
0.374878
0.330382
0.274729
0.231377
0.24168
0.31836
0.485836
0.544767
0.548767
0.538182
0.450224
0.238391
0.557444
0.557407
0.554034
0.542156
0.510856
0.352122
0.192841
0.171294
0.171583
0.170331
0.171485
0.16965
0.171441
0.172111
0.228563
0.31021
0.385725
0.430278
0.426158
0.390264
0.343845
0.305301
0.310331
0.355781
0.461587
0.537891
0.536881
0.452686
0.235353
0.145163
0.55716
0.557371
0.557331
0.552403
0.523607
0.362971
0.208522
0.174249
0.171347
0.171583
0.170713
0.171485
0.170585
0.183559
0.259022
0.345334
0.423465
0.467112
0.46727
0.446098
0.415468
0.388959
0.39006
0.418266
0.468349
0.496299
0.42794
0.255242
0.147958
0.145257
0.449078
0.535955
0.550372
0.552393
0.531215
0.392968
0.261349
0.209575
0.183246
0.171381
0.171583
0.170673
0.171485
0.203522
0.289318
0.380801
0.456201
0.490679
0.493281
0.486199
0.473562
0.460776
0.458282
0.469435
0.469658
0.421211
0.311236
0.210952
0.151679
0.145353
0.21451
0.425209
0.533174
0.544352
0.527251
0.443946
0.358926
0.295426
0.235048
0.190167
0.171632
0.171583
0.172273
0.228626
0.321075
0.417071
0.482133
0.503448
0.506022
0.505597
0.503784
0.501048
0.497691
0.491598
0.463326
0.397858
0.32605
0.247607
0.177305
0.145447
0.0945062
0.212324
0.450266
0.534836
0.524508
0.497883
0.466206
0.409894
0.329631
0.248089
0.192153
0.173469
0.188128
0.259782
0.359983
0.45381
0.500394
0.510347
0.51218
0.512791
0.513273
0.513929
0.51244
0.502846
0.468938
0.422125
0.378358
0.310045
0.226145
0.161775
0.0924383
0.108076
0.218974
0.439233
0.526971
0.526943
0.518774
0.494979
0.435917
0.340761
0.248589
0.197916
0.22589
0.305004
0.410008
0.488032
0.512738
0.516751
0.518069
0.518191
0.518065
0.518389
0.518342
0.512845
0.493182
0.467243
0.43628
0.378564
0.294378
0.216236
0.0924383
0.103924
0.133841
0.23617
0.44915
0.527215
0.527361
0.524486
0.503675
0.439038
0.337311
0.257282
0.28606
0.369317
0.465539
0.51255
0.522317
0.524959
0.526298
0.526333
0.525585
0.524754
0.524417
0.522433
0.515451
0.503386
0.48457
0.447098
0.377847
0.304071
0.0924383
0.116739
0.14653
0.183477
0.27512
0.46735
0.527225
0.527465
0.525855
0.502964
0.430769
0.344529
0.365683
0.443477
0.50738
0.526255
0.531007
0.533736
0.535378
0.535984
0.535587
0.534437
0.533254
0.532005
0.529312
0.523704
0.514535
0.498972
0.460155
0.401754
0.0968657
0.143392
0.179385
0.209262
0.247977
0.318884
0.473085
0.527225
0.527537
0.526508
0.493028
0.433224
0.448733
0.501302
0.527802
0.534863
0.538416
0.540951
0.542701
0.543791
0.544128
0.543632
0.542505
0.5411
0.53918
0.535889
0.530814
0.524275
0.510408
0.477536
0.117984
0.178532
0.222541
0.259719
0.28664
0.309602
0.35375
0.458044
0.515813
0.526612
0.513744
0.492642
0.50731
0.528428
0.537161
0.540999
0.543785
0.545853
0.547437
0.548678
0.549522
0.549818
0.549454
0.548482
0.546943
0.544609
0.541229
0.53668
0.528417
0.510439
0.157798
0.22456
0.276637
0.321694
0.354948
0.353929
0.35653
0.373004
0.414218
0.493599
0.516322
0.518045
0.530239
0.538161
0.542103
0.544786
0.546938
0.548629
0.550017
0.551267
0.552393
0.553292
0.553783
0.553701
0.552936
0.551412
0.549094
0.545524
0.537753
0.520328
0.213915
0.286862
0.348091
0.396184
0.431436