/*--------------------------------*- C++ -*----------------------------------*\
| =========                 |                                                 |
| \\      /  F ield         | OpenFOAM: The Open Source CFD Toolbox           |
|  \\    /   O peration     | Version:  2.3.0                                 |
|   \\  /    A nd           | Web:      www.OpenFOAM.org                      |
|    \\/     M anipulation  |                                                 |
\*---------------------------------------------------------------------------*/
FoamFile
{
    version     2.0;
    format      ascii;
    class       volScalarField;
    location    "0.65";
    object      epsilon.air;
}
// * * * * * * * * * * * * * * * * * * * * * * * * * * * * * * * * * * * * * //

dimensions      [0 2 -3 0 0 0 0];

internalField   nonuniform List<scalar> 
6000
(
119.006
17.8687
10.9691
9.88877
9.4069
9.15553
9.08129
9.07577
9.12317
9.2798
9.50246
9.75582
10.0541
10.4384
10.9548
10.9593
10.4715
10
9.6068
9.46192
9.31666
9.24159
9.26709
9.26595
9.29136
9.3455
9.60592
10.6527
17.3063
119.462
76.1027
25.5123
15.6283
12.1751
10.731
10.1007
9.89513
10.014
10.2145
10.4019
10.6752
11.0338
11.7149
13.2384
15.152
15.1443
14.143
12.8048
11.7153
11.0653
10.4562
10.0976
10.0887
10.3571
10.6107
10.8172
11.5231
14.0497
23.351
77.9966
53.6227
21.9825
14.6513
11.8956
10.6987
10.0943
9.76909
9.69442
9.74443
9.9354
10.3333
10.8915
11.8095
13.4435
15.1112
14.7587
13.4215
11.9678
10.9139
10.2812
9.82213
9.59043
9.60004
9.77672
10.0379
10.3633
11.1131
13.2011
19.5994
49.8296
43.4032
19.0179
13.9695
11.9699
10.9172
10.2387
9.83206
9.61575
9.60694
9.82143
10.298
11.0533
12.2295
14.5274
16.0689
14.9365
12.9151
11.443
10.5088
9.96418
9.64784
9.48662
9.53953
9.77858
10.1384
10.592
11.4559
13.5199
19.0386
42.4991
40.7143
18.1539
14.228
12.7407
11.78
10.958
10.4079
10.0293
9.96845
10.2529
10.8947
11.8363
13.3664
14.7725
15.0329
14.4986
13.111
11.7965
10.9413
10.4446
10.1818
10.0572
10.1891
10.5907
11.1737
11.8785
12.9242
15.0506
20.4881
43.6638
44.8934
20.3185
16.0122
14.3698
13.3191
12.419
11.7489
11.2087
11.117
11.5921
12.4009
13.5382
14.619
14.5048
14.8946
14.1884
13.2469
12.3878
11.6164
11.1865
11.0637
11.0543
11.257
11.7573
12.4096
13.0944
13.9031
15.3632
19.7692
40.9124
61.1743
27.014
20.4596
17.4565
15.4953
14.3338
13.6573
13.0907
12.9364
13.3199
13.9634
14.6575
14.6469
14.5121
14.4461
13.8994
13.1386
12.4034
11.7719
11.3682
11.2437
11.262
11.4666
11.9201
12.5135
13.0624
13.6067
14.6818
17.3891
32.5308
60.9688
27.1248
21.4168
19.19
17.2608
15.8138
15.2154
14.8039
14.4033
14.5544
14.9038
15.342
15.3211
14.7626
14.1431
13.5632
13.0293
12.5042
11.9844
11.5829
11.3424
11.2213
11.242
11.4838
11.755
11.9001
12.2311
13.3505
15.0368
26.972
54.6778
25.1517
20.1566
18.3447
16.996
16.0437
15.8361
15.9127
15.2503
15.3235
15.9776
16.8153
16.6347
15.5374
14.4953
13.7316
13.1813
12.7237
12.2885
11.8831
11.5287
11.2036
10.9968
10.8896
10.66
10.3922
10.5767
11.8138
13.1983
23.0209
47.9964
22.662
18.5472
17.172
16.4008
15.8593
16.0357
16.7308
16.2372
16.3407
17.3236
18.5357
18.3315
16.9417
15.541
14.4712
13.7359
13.2109
12.7545
12.3144
11.8223
11.3545
10.9319
10.3798
9.70602
9.19334
9.19477
10.2131
11.6378
19.2993
43.5112
20.7172
17.2269
16.2451
15.9992
15.8441
16.3237
17.52
17.3574
17.5774
18.809
20.5917
20.4389
18.7559
17.093
15.7419
14.7813
14.1143
13.5668
13.0393
12.4741
11.9106
11.0801
10.0638
9.1224
8.43879
8.19456
8.73692
10.0274
15.321
39.4398
19.0532
16.0707
15.3495
15.5246
15.9282
16.6485
18.1401
18.4881
18.9823
20.5906
23.1431
22.9033
20.8015
18.9087
17.3864
16.2843
15.4925
14.8562
14.3207
13.8779
12.8972
11.4662
10.1039
9.00307
8.16795
7.61036
7.51666
8.25805
11.6245
35.0949
17.7172
14.9969
14.4825
14.9602
15.9356
16.9389
18.5309
19.547
20.6524
22.9229
26.4858
25.9509
23.1672
21.0054
19.4054
18.2419
17.4166
16.8711
16.6593
15.839
13.9833
12.0944
10.4992
9.23942
8.22957
7.36371
6.76527
6.77345
9.20572
30.0781
16.3786
13.9969
13.6974
14.3826
15.8241
17.2886
18.9718
20.5286
22.4828
25.693
30.4149
29.2998
25.9123
23.5195
21.8924
20.7694
20.1589
20.0662
19.7864
17.6541
15.1427
13.0075
11.2469
9.79181
8.56182
7.49193
6.58809
6.18198
8.71443
25.1483
14.8596
13.1105
13.0036
13.8713
15.6522
17.6512
19.6904
21.6508
24.4872
28.8279
34.3166
32.7996
29.0609
26.5623
25.0218
24.1817
24.089
24.404
22.4811
19.3192
16.5697
14.2809
12.3386
10.6725
9.23131
7.98137
6.97006
6.54652
9.73314
21.028
13.321
12.2602
12.4595
13.548
15.5653
18.0338
20.6596
23.4535
27.1091
32.3526
37.8614
36.3632
32.7138
30.3304
29.0603
28.8113
29.5251
28.4043
24.7171
21.2438
18.3645
15.9139
13.779
11.8978
10.2499
8.85607
7.84324
7.70985
13.2872
18.2401
12.0667
11.6669
12.1904
13.5289
15.6897
18.5167
21.8282
25.7097
30.4255
36.2935
40.9873
39.9193
36.8992
35.0081
34.2291
35.0259
35.3449
31.5315
27.1938
23.5917
20.581
17.9803
15.6538
13.5403
11.6637
10.1085
9.08809
9.34747
17.8911
17.3891
11.5577
11.5313
12.2879
13.8474
16.1751
19.2838
23.2326
28.257
34.3152
41.1112
44.3407
43.4505
41.4473
40.441
40.6145
42.5788
40.0296
34.7597
30.193
26.4562
23.3466
20.6385
18.1276
15.7333
13.5626
11.7843
10.6899
11.2235
22.2482
17.7102
11.704
11.8115
12.8119
14.6331
17.1545
20.4903
24.9495
30.9802
38.5795
46.6611
48.7277
47.9482
46.6684
46.4489
48.5274
50.0724
44.6157
38.7155
33.8581
29.9757
26.8376
24.1229
21.4572
18.6776
16.0812
13.9683
12.7156
13.429
26.7595
19.0754
12.4999
12.7024
13.9138
15.9194
18.6194
22.1964
27.1035
33.7372
42.4017
51.2194
54.3173
54.4356
53.8228
54.0638
58.865
57.754
50.4223
43.6628
38.3124
34.2651
31.2591
28.8
26.1127
22.6743
19.3719
16.7511
15.2413
16.0699
31.7483
21.6807
14.2451
14.3228
15.5711
17.7168
20.6262
24.4826
29.6394
36.4235
45.2228
53.8547
58.9381
63.5589
64.4208
64.8823
72.4852
67.6832
57.817
49.6371
43.5449
39.3399
36.7111
35.0763
32.5769
27.9
23.4639
20.1406
18.2901
19.2115
37.3873
25.1109
16.6281
16.448
17.7335
20.0655
23.2231
27.2823
32.4391
38.9844
47.2171
55.6854
63.1949
73.3445
77.9059
79.7869
88.9124
79.5052
66.4016
56.3606
49.3395
44.9335
42.8003
41.7763
39.4411
33.6825
28.081
23.9871
21.7458
22.8041
43.508
29.7811
19.4704
18.9788
20.3748
22.9867
26.4214
30.6174
35.5334
41.533
49.0865
57.8335
67.6336
80.2996
90.4468
96.3634
105.55
91.3761
75.1603
63.2343
55.2253
50.4696
48.1011
46.6003
42.625
38.5169
32.725
28.0195
25.4276
26.6594
49.0792
35.264
22.5843
21.8367
23.4401
26.4467
30.3373
34.8464
39.0813
44.0459
51.0002
59.8893
70.754
84.5437
96.0362
106.953
119.391
102.178
83.2696
69.6915
60.7804
55.4206
52.6314
47.57
42.6401
40.3129
36.728
31.9553
29.1685
30.6642
55.4662
40.7327
25.7814
24.8788
26.8178
30.4871
35.3237
39.3612
42.2283
46.1902
52.838
61.7136
73.1793
87.4429
99.4262
112.836
124.948
110.766
90.1692
75.3683
65.7442
59.8007
56.5496
48.2014
42.8424
40.1164
39.3216
35.1644
32.5368
34.564
62.5709
46.2262
28.9136
27.8946
30.2936
34.9047
39.7361
42.7109
44.7657
48.467
54.9814
64.22
76.0434
88.8483
102.927
113.225
122.09
115.527
95.6583
80.1339
69.9525
63.8828
57.8443
48.622
42.9524
39.8768
39.3938
37.7619
35.4071
38.1395
69.8837
51.7979
31.6782
30.5718
33.3878
37.8527
42.549
43.2933
45.0975
49.5186
56.0369
64.5658
74.9891
87.435
100.178
108.327
114.829
116.491
99.5407
83.8332
73.72
68.0613
57.7041
48.7189
42.964
39.6908
39.113
40.5219
37.5481
41.0087
76.9009
58.7192
33.4395
32.5045
35.1011
40.0465
43.3351
43.1426
44.6704
48.5352
54.4551
62.1643
71.4149
81.7571
91.66
99.2439
106.781
114.049
101.191
86.1604
76.8395
71.0844
57.7199
48.783
42.8935
39.4949
38.7265
40.6233
39.0544
42.6492
82.9547
67.7783
36.0602
33.7639
36.4959
41.5519
43.6232
43.2072
44.1327
47.1126
51.9356
58.2706
65.743
73.8953
82.0494
89.9203
98.5811
108.611
100.992
87.1298
79.4846
70.1878
57.1711
48.4886
42.6584
39.2907
38.3692
40.0476
40.3921
43.1867
86.6471
71.7829
37.9166
35.0363
37.5687
42.6805
44.7889
43.5096
43.6409
45.5778
49.2259
54.2129
60.1832
66.8314
74.0112
81.9259
91.4073
102.978
99.2489
86.8159
81.299
67.934
56.1111
47.8956
42.3323
39.1136
38.2008
39.7499
40.8176
43.3315
88.5772
74.3947
38.8989
35.7117
38.0095
43.4604
46.3608
44.2296
43.3319
44.2719
46.8205
50.6772
55.5274
61.1973
67.7482
75.5974
85.4408
98.0567
95.7035
85.2806
79.9493
65.8996
54.9837
47.3212
42.1217
39.1198
38.2806
39.5876
40.2141
43.9097
89.9465
76.8376
39.0529
35.6304
37.8867
43.3457
47.6493
45.2533
43.3327
43.3351
44.9342
47.8832
51.9106
56.9043
63.0218
70.6817
80.5467
93.231
91.3997
82.539
76.3471
63.652
53.9022
46.9439
42.2048
39.4643
38.8162
39.7088
39.4447
44.0361
90.791
78.0647
38.812
35.1859
37.2975
42.5496
48.0639
46.4515
43.6457
42.8059
43.6185
45.8252
49.2114
53.7126
59.481
66.907
76.5112
88.8908
86.8675
79.4257
72.3682
61.5928
53.1636
46.9802
42.7294
40.3837
39.9645
39.9872
39.024
44.2507
93.2866
78.2513
38.3065
34.4005
36.2847
41.2086
47.4369
47.5312
44.3305
42.714
42.8397
44.4088
47.285
51.3729
56.8493
63.985
73.1093
84.6834
82.7405
76.5785
69.5031
60.2645
53.0758
47.6246
43.9255
42.0349
41.5682
39.9649
38.7995
44.4278
94.0991
77.6259
37.4606
33.2661
34.8713
39.3708
45.743
48.2884
45.1387
42.895
42.461
43.5481
46.0103
49.7541
54.9153
61.7187
70.2953
81.2195
79.7203
74.1512
67.6046
59.8252
53.7527
49.0854
45.9204
44.3784
42.7935
39.6969
38.6809
44.5497
94.3624
75.7961
36.177
31.8121
33.112
37.1032
43.0297
47.8073
45.7536
43.1751
42.3556
43.1239
45.281
48.7475
53.6124
60.0268
68.0863
78.4889
78.6747
72.9397
66.9201
60.5492
55.5464
51.5278
48.8746
46.8359
43.0515
39.461
38.6192
44.6271
94.6105
72.8568
34.5267
30.1379
31.1283
34.5496
39.7073
45.2539
45.6371
43.3628
42.3986
43.036
45.0274
48.3095
52.9134
58.973
66.5994
76.5125
80.1304
74.2297
68.2206
62.8234
58.8237
55.3553
52.6785
48.3077
43.1002
39.4148
38.6289
44.7398
95.3753
69.3685
32.7039
28.3876
29.0929
31.9499
36.2671
41.4238
44.3875
43.2831
42.5226
43.1939
45.1846
48.4089
52.8534
58.5645
65.7031
74.977
82.7312
78.5118
72.3427
66.8854
63.875
60.8021
55.8507
49.1373
43.3651
39.5662
38.7062
44.7505
95.3347
65.8492
30.8995
26.6988
27.1788
29.569
33.1992
37.6737
41.5992
42.5699
42.7163
43.7227
45.7854
48.9928
53.3259
58.8178
65.6015
74.4519
85.0537
85.1244
79.0004
72.978
71.2708
66.2005
57.9639
50.0957
43.963
39.9493
38.9004
44.719
94.8747
62.604
29.2316
25.1672
25.4982
27.552
30.6884
34.5998
38.5544
40.9135
42.5021
44.537
47.1348
50.3703
54.5451
59.8106
66.2659
74.8169
86.5931
91.5227
85.694
80.8585
79.1651
70.2843
60.0809
51.4865
44.9372
40.6161
39.3258
44.9661
95.0889
59.7691
27.7646
23.8414
24.0922
25.9344
28.7545
32.3032
36.1262
39.1085
41.7342
44.9284
48.7414
52.7876
56.934
61.8052
67.9439
75.9404
86.7165
93.5453
90.1395
89.5448
86.3884
74.3431
62.7783
53.408
46.3107
41.5986
40.0396
45.5585
96.039
57.3664
26.5469
22.7516
22.961
24.6856
27.3254
30.6613
34.3771
37.7074
40.9811
45.0011
49.8816
55.3777
60.7353
65.2156
70.7084
78.022
86.8254
93.2305
94.6635
99.4508
94.3542
79.4019
66.2535
55.8502
48.0541
42.8733
41.0205
46.4104
97.2229
55.3806
25.5957
21.9227
22.1174
23.7844
26.3413
29.5799
33.2484
36.8368
40.6179
45.2343
50.9047
57.7237
65.0515
70.2875
74.7026
81.0842
88.4238
95.4169
102.454
111.916
103.57
85.366
70.2509
58.6166
50.0373
44.361
42.2212
47.4976
98.7146
53.8018
24.9007
21.3558
21.5755
23.2448
25.8087
29.0667
32.774
36.5963
40.8021
45.9155
52.2707
60.1212
69.0511
76.3002
79.9928
84.8068
91.8743
100.917
113.447
125.425
112.222
91.1067
74.1221
61.3429
52.056
45.9477
43.563
48.6976
99.0896
52.6573
24.4201
21.0243
21.3213
23.0647
25.7285
29.116
32.9625
37.0287
41.6233
47.2299
54.2686
63.0342
73.5763
83.4075
85.7234
88.689
96.041
107.789
125.259
137.368
118.315
95.3153
77.1849
63.6742
53.9216
47.5031
44.7905
48.5534
98.1112
51.0457
24.0256
20.8575
21.3177
23.217
26.0651
29.648
33.7135
38.0644
43.0932
49.4031
57.4519
67.6522
80.3633
91.4658
90.4094
92.3399
100.12
114.105
135.506
144.942
120.929
97.396
79.1524
65.4819
55.5761
48.9665
45.6098
50.2287
97.1974
46.5238
23.1144
20.7975
21.5196
23.6924
26.8284
30.6845
34.9795
39.7252
45.4906
52.7508
62.0545
74.0514
89.0701
98.4997
93.8067
95.6888
103.86
119.361
142.652
146.388
120.373
97.7965
80.2851
66.913
57.0328
50.2155
47.5665
52.3636
95.1461
46.9804
23.5138
20.9815
21.9336
24.4902
28.0538
32.3262
37.0748
42.4751
48.9567
57.0279
67.4533
81.319
97.3436
101.03
96.3263
98.6174
107.015
123.089
145.961
143.61
118.213
97.5565
81.1016
68.1371
58.4103
52.3816
49.494
55.1448
105.469
47.2751
23.7401
21.1486
22.3476
25.561
29.8294
34.8129
40.3227
46.4497
53.4744
61.9601
72.8387
87.0332
99.2153
98.9128
97.1259
100.292
108.619
123.769
143.602
137.644
115.904
97.6571
82.1466
69.6646
60.7785
53.8502
51.229
56.2837
116.867
45.4198
23.0646
21.2157
22.8305
26.9494
32.2869
38.3636
44.9874
51.9704
59.2319
67.4149
77.5267
88.9323
95.1515
95.2291
96.3149
100.342
108.302
121.029
135.227
130.331
115.301
99.5756
84.2756
72.2404
62.4398
55.9646
52.712
57.22
118.259
45.5163
22.5085
21.4015
23.8618
29.0585
35.6425
43.236
51.5475
59.7542
66.5271
73.0811
80.7508
86.9784
90.21
91.8409
94.5492
99.4629
106.828
115.601
124.176
126.571
119.728
105.189
88.4603
74.9847
65.0435
58.5143
54.1737
58.4253
117.645
43.6053
22.1076
22.3168
26.1244
32.2
39.9972
49.6699
60.7416
71.0023
75.7175
78.091
81.1795
83.9155
86.596
89.1171
92.31
97.4759
104.387
110.699
118.908
132.702
133.345
116.462
95.1224
79.4425
69.6982
61.1154
55.3409
58.6107
116.979
40.7741
23.2027
24.67
29.2243
35.9528
45.1944
57.6525
73.0052
84.4674
85.2659
81.7362
80.843
81.9329
84.0132
85.8727
88.4262
93.1663
100.044
108.224
122.291
149.225
160.242
134.85
105.095
87.06
74.5478
62.8793
55.5639
57.6323
112.771
42.9067
26.7561
27.5776
32.2091
39.5917
50.351
65.9291
83.707
93.3811
93.0559
85.2512
81.8033
81.2558
81.6377
82.435
84.6715
89.7078
98.0825
110.912
133.363
168.008
182.946
150.464
116.083
94.5482
76.9608
62.9118
54.5435
55.5749
106.171
54.1731
32.206
31.1133
34.6184
41.6556
53.6905
70.4634
88.212
92.552
89.9613
85.6533
82.0185
80.6859
80.2041
80.925
83.7976
89.841
99.9369
115.64
136.602
160.364
172.275
151.566
120.249
95.6917
75.8953
61.3002
52.6106
52.8703
95.9045
70.4161
35.4219
33.0655
36.286
42.8483
54.7471
70.9733
86.7961
86.9252
82.5772
80.4111
78.6742
77.4808
77.502
78.9903
82.6887
89.2579
99.02
112.405
127.207
141.037
150.421
143.036
116.249
92.2304
72.9069
58.7689
50.2816
50.199
88.0959
74.5052
37.1123
34.229
37.2729
43.6048
53.5972
68.5693
84.0726
81.7763
75.6609
72.4297
71.1545
71.0462
71.7828
73.8901
77.9286
84.1409
92.4525
102.717
114.209
125.215
133.934
135.731
111.832
88.3438
69.7494
56.1258
47.8604
47.1261
81.9018
66.6039
36.7049
34.3381
37.5544
44.1756
53.719
66.9786
82.3532
78.3951
70.7936
66.5633
64.5349
64.0015
64.8115
67.0406
70.8565
76.3914
83.741
92.6927
102.371
111.843
121.23
129.994
108.946
85.366
67.115
53.8783
45.7872
44.6858
76.6959
60.6919
35.882
34.0744
37.4127
44.0987
53.5734
65.9856
81.7206
76.6008
67.3886
62.0992
59.3555
58.3984
58.8976
60.8051
64.1379
68.9496
75.262
82.8399
91.0833
99.7393
109.659
122.063
106.244
83.0482
65.0081
52.0795
44.2052
43.0047
74.0119
61.0342
35.224
33.6434
36.9813
43.6031
52.9286
65.4092
81.2414
75.2419
64.7449
58.5077
55.0872
53.6403
53.7525
55.2265
57.9954
62.0294
67.3087
73.6511
80.7903
88.6972
98.2976
110.641
102.908
81.0248
63.2972
50.7434
43.017
41.9986
72.3571
64.9292
34.5686
33.2169
36.4788
43.0788
52.5271
65.1499
80.519
73.5882
62.3248
55.4224
51.4394
49.5391
49.2194
50.2338
52.4315
55.7523
60.1293
65.4718
71.6741
78.8419
87.6624
98.9491
99.2759
78.8842
61.9081
50.0469
42.5012
42.0489
75.7347
67.8554
34.3802
33.0114
36.4672
43.1196
52.7964
65.3555
79.7214
71.2099
59.8307
52.5872
48.2181
45.929
45.2225
45.7944
47.4795
50.1752
53.814
58.3422
63.7725
70.2502
78.2781
88.2784
93.2787
75.7678
60.9203
50.3948
44.0526
45.5258
92.7946
65.9986
34.0866
32.912
36.8087
43.7181
53.6458
66.1797
79.1343
68.5994
57.2998
49.9183
45.3028
42.7277
41.6853
41.8798
43.1117
45.2864
48.3309
52.2311
57.0534
63.0114
70.4812
79.8504
87.2862
75.5886
61.2392
51.4547
45.1513
46.8432
95.7579
63.4285
34.0481
33.0798
37.3393
44.5634
54.6914
67.5797
78.5711
65.9016
54.8152
47.4081
42.6577
39.8621
38.5571
38.4263
39.2864
41.037
43.6232
47.0476
51.4506
57.0884
64.4417
74.2431
84.9721
76.6141
61.9221
51.7276
45.2401
46.6976
92.951
63.5876
34.6831
33.5789
37.9259
45.3584
55.6646
69.142
77.1828
63.2791
52.4371
45.0678
40.2326
37.2861
35.7664
35.3798
35.9387
37.3611
39.5986
42.6902
46.8238
52.3446
59.8631
70.5392
84.1498
77.1353
62.0759
51.5427
44.719
45.7135
88.1957
66.1878
35.2033
34.0102
38.2483
45.9031
56.4332
70.7584
75.6608
60.9067
50.2157
42.8754
37.9975
34.9423
33.2672
32.6774
33.0128
34.185
36.17
39.0346
43.0231
48.5487
56.3535
67.8001
83.4401
76.9443
61.8377
50.9663
43.8798
44.3884
84.1695
69.1212
35.5249
34.0191
38.2464
46.1566
57.1384
72.2968
73.8448
58.792
48.1407
40.83
35.9272
32.8046
31.013
30.2845
30.4519
31.443
33.2465
35.9679
39.8884
45.4938
53.6022
65.7402
82.571
76.1945
61.225
50.1291
42.7722
42.7578
79.5204
68.3833
34.9487
33.6105
38.1275
46.1811
57.5066
73.0275
72.1635
56.8625
46.2064
38.9147
34.013
30.8456
28.9846
28.1583
28.2093
29.0694
30.7499
33.3776
37.2808
42.9828
51.3821
64.0328
81.985
75.3246
60.2347
49.007
41.482
41.0344
74.6945
63.1512
33.2393
32.81
37.5959
45.8934
57.4615
73.3111
70.2935
54.9734
44.3609
37.1171
32.2295
29.051
27.1494
26.2654
26.2361
27.0082
28.6002
31.1703
35.07
40.873
49.4939
62.5407
81.1135
74.2156
58.8764
47.6208
40.0271
39.2318
69.562
56.9062
31.1042
31.5728
36.7035
45.0566
56.734
72.6414
68.3687
53.0765
42.5691
35.3989
30.5563
27.3906
25.4828
24.567
24.4921
25.2004
26.7286
29.2577
33.1621
39.0371
47.8356
61.1736
80.3989
73.1024
57.2046
45.966
38.4644
37.5821
65.5041
51.9343
28.9081
29.9167
35.4726
43.7122
55.3732
71.1096
65.8544
50.9917
40.7286
33.7116
28.9582
25.8437
23.9537
23.0356
22.933
23.5967
25.0757
27.5745
31.4716
37.387
46.2745
59.7526
78.9075
71.4751
55.1791
44.0163
36.8078
36.0419
62.749
47.0431
26.8218
28.1688
33.8577
42.0733
53.5964
68.5253
62.776
48.6127
38.7851
32.0185
27.4168
24.3854
22.5415
21.635
21.5202
22.148
23.5898
26.0637
29.9493
35.8549
44.7209
58.0597
76.9763
69.5467
52.9203
41.8769
35.1263
34.7552
62.2688
43.72
25.2429
26.5903
32.1739
40.4499
51.8743
65.6923
58.9793
45.9155
36.699
30.2921
25.9004
22.994
21.213
20.3358
20.215
20.8189
22.2366
24.6961
28.5524
34.4017
43.1292
56.1454
74.2442
67.1296
50.6367
39.8332
33.6254
33.7572
64.0663
41.1232
23.9013
25.2248
30.7044
39.0053
50.4282
62.907
55.1117
43.0651
34.521
28.5321
24.4003
21.6477
19.9539
19.1141
18.9968
19.5837
20.9939
23.4439
27.2653
33.0123
41.5295
54.1143
71.4169
64.5667
48.672
38.2087
32.3309
32.1683
60.0859
38.8487
22.6681
24.0486
29.5342
37.905
49.5111
60.6802
51.2853
40.2094
32.3245
26.7802
22.9281
20.3518
18.7565
17.9644
17.8551
18.4422
19.85
22.2851
26.0591
31.6846
39.9363
52.0747
68.3999
62.0346
46.9171
36.9187
31.0774
29.8025
53.0077
36.3411
21.426
23.03
28.6635
37.2069
48.9436
58.4858
47.8098
37.4794
30.1996
25.0742
21.5096
19.1121
17.6238
16.8804
16.7966
17.3981
18.8007
21.2011
24.912
30.3995
38.3879
50.0895
65.9527
59.9574
45.4308
35.7332
29.4122
27.3601
46.666
33.0287
20.25
22.1763
28.016
36.6715
48.4276
55.894
44.4329
34.8986
28.1794
23.4509
20.1577
17.9399
16.5543
15.8731
15.8286
16.4487
17.8355
20.1876
23.8048
29.1393
36.8657
48.145
63.4765
58.2301
44.0758
34.1739
27.4522
25.0589
42.5095
28.7457
19.4784
21.6437
27.5413
36.2453
47.5755
52.206
41.1483
32.4601
26.2989
21.9344
18.8963
16.8418
15.5656
14.9523
14.9498
15.5821
16.9503
19.2372
22.7366
27.8931
35.3585
46.1972
61.242
56.7016
42.5578
32.3149
25.5143
22.988
38.8831
29.9656
19.0835
21.4777
27.2701
36.0352
46.7757
48.1995
37.9703
30.192
24.5681
20.5469
17.7354
15.837
14.6637
14.1173
14.1501
14.7921
16.1316
18.345
21.7094
26.6538
33.7926
44.1093
58.4
54.8737
40.762
30.4618
23.7617
21.2882
34.5505
32.366
19.3226
21.5154
27.091
35.9076
46.041
44.5996
35.2605
28.1787
23.0222
19.3033
16.693
14.9283
13.8492
13.3597
13.4248
14.0662
15.371
17.5007
20.7168
25.4059
32.1546
41.8185
55.2806
52.6831
38.9544
28.8042
22.3729
20.1696
32.624
33.1556
19.542
21.2122
26.7656
35.5469
45.5004
42.1897
33.1748
26.5182
21.6918
18.2171
15.768
14.1188
13.1167
12.6782
12.7636
13.3978
14.6595
16.6996
19.752
24.1652
30.447
39.3507
51.5257
50.2132
37.23
27.2795
21.0689
19.0512
31.1324
33.4476
19.6341
20.6715
26.2653
34.7892
44.1413
40.2162
31.6273
25.2197
20.6051
17.2957
14.9699
13.4066
12.4685
12.0659
12.1639
12.7832
13.9974
15.9393
18.8196
22.9366
28.7507
36.8679
47.9392
47.6748
35.4877
25.785
19.776
17.7439
28.5094
33.3828
19.4611
20.4698
25.5135
33.8956
42.3963
38.9773
30.5759
24.2757
19.7543
16.5442
14.2962
12.7946
11.8978
11.5213
11.6229
12.223
13.3841
15.2258
17.9299
21.7574
27.1028
34.4691
44.2896
44.7286
33.4115
24.3152
18.8346
16.7977
27.4422
33.2211
19.0276
20.0939
24.7939
32.6309
41.0438
38.1805
29.8788
23.6095
19.1143
15.9423
13.7392
12.2733
11.4036
11.0413
11.142
11.7172
12.8234
14.5643
17.0984
20.6499
25.5658
32.2364
40.9057
41.3284
30.7131
22.9906
18.1949
17.234
31.0285
33.1829
18.6233
19.4443
23.7721
30.967
39.4051
37.6326
29.3415
23.1295
18.6259
15.4618
13.2783
11.8345
10.9809
10.6278
10.7209
11.2694
12.3188
13.9628
16.3362
19.6415
24.1749
30.2225
37.7777
38.2367
28.9609
21.8646
17.8959
17.3039
31.6219
32.8068
18.1869
18.7538
22.6729
29.277
37.4581
36.8763
28.7419
22.6685
18.2112
15.0598
12.8945
11.4667
10.6273
10.28
10.3647
10.8843
11.8778
13.4278
15.6519
18.7401
22.9641
28.519
35.5441
35.4267
27.4541
21.032
17.338
16.8581
30.5293
32.1436
17.7779
18.1498
21.7448
27.8594
35.6721
36.1235
28.0443
22.1583
17.7966
14.6965
12.5648
11.1621
10.3379
10.0011
10.0779
10.5713
11.5095
12.9695
15.0519
17.949
21.9018
27.1094
33.7145
33.0849
25.7617
20.0313
16.6789
16.3558
29.6871
31.6688
17.4948
17.7174
21.0668
26.8615
34.3574
35.2028
27.3322
21.5864
17.3585
14.3466
12.2742
10.9101
10.116
9.79489
9.87335
10.3443
11.2328
12.6045
14.5514
17.2693
21.0115
26.0113
32.2742
30.8898
24.1486
19.0299
16.0626
15.9381
29.3145
31.7394
17.3681
17.4415
20.628
26.2479
33.5316
34.5318
26.6973
21.0129
16.9042
14.0016
12.0142
10.7139
9.96515
9.67767
9.77171
10.2324
11.0773
12.3598
14.1724
16.717
20.2782
25.1422
30.9157
28.8132
22.6373
18.0895
15.4841
15.6145
29.3245
32.1137
17.3095
17.2378
20.2967
25.7559
32.8159
33.7716
26.0845
20.4401
16.4565
13.6762
11.789
10.5726
9.89927
9.66809
9.79644
10.2633
11.0808
12.2727
13.9388
16.2909
19.6578
24.3456
29.5625
26.7802
21.1604
17.1546
14.9004
15.2941
29.683
32.2512
17.2313
17.028
19.9287
25.1377
31.9371
32.9603
25.4315
19.8878
16.0277
13.376
11.6076
10.4969
9.92077
9.76449
9.95935
10.4596
11.2491
12.3579
13.867
15.9854
19.0897
23.489
27.8664
24.6377
19.6828
16.2123
14.2883
14.8819
29.3981
32.2587
17.1541
16.8058
19.4756
24.2934
30.7169
31.8326
24.6788
19.3354
15.6232
13.1089
11.474
10.4967
10.047
10.0207
10.3445
10.9207
11.6918
12.6714
13.9608
15.7864
18.5135
22.4347
25.888
22.4813
18.2396
15.2837
13.6372
14.2898
28.2496
32.5137
17.1523
16.5896
18.9587
23.3227
29.283
30.5333
23.786
18.7484
15.2315
12.8773
11.3874
10.5675
10.2925
10.4525
10.9561
11.6656
12.4471
13.2719
14.2457
15.7066
17.934
21.2341
23.7854
20.4842
16.8992
14.3819
12.9922
13.7693
27.4003
33.1098
17.2103
16.3526
18.3834
22.3016
27.7694
29.0156
22.7858
18.1126
14.8412
12.6753
11.3521
10.7145
10.6144
10.9791
11.6949
12.5619
13.3472
14.0003
14.6564
15.6638
17.3363
19.9603
21.7993
18.7326
15.6984
13.5758
12.5024
13.5303
27.3043
33.8306
17.2808
16.1075
17.7703
21.19
26.1389
27.3096
21.6516
17.4149
14.4433
12.4947
11.3573
10.8883
10.9413
11.4745
12.3428
13.2816
13.9712
14.503
14.9356
15.5468
16.6804
18.6246
19.9197
17.1845
14.6463
12.9373
12.2401
13.6261
28.2454
34.6803
17.4345
15.9269
17.1623
19.9754
24.1759
25.1442
20.3757
16.6671
14.0524
12.3444
11.3843
11.0445
11.1954
11.8095
12.7294
13.4263
13.8124
14.2751
14.7978
15.2475
15.9607
17.2347
18.0982
15.779
13.73
12.4465
12.1734
14.1961
32.1669
36.0112
17.759
15.8465
16.5826
18.7029
22.063
22.8422
19.0525
15.9373
13.7126
12.2464
11.4348
11.1698
11.3553
11.9979
12.783
12.9601
12.9567
13.35
14.1174
14.7796
15.3031
15.9817
16.4073
14.5255
12.9081
12.0402
12.2648
15.1513
33.9335
38.0298
18.3987
15.8811
15.9804
17.3316
19.8199
20.5314
17.7992
15.3192
13.4858
12.2363
11.5174
11.2763
11.46
12.136
12.5278
12.1161
11.9009
12.2219
13.0284
14.0226
14.7429
15.087
14.9502
13.4733
12.1649
11.6821
12.4595
16.2639
36.7094
42.0545
19.5772
16.0672
15.3839
15.8701
17.531
18.2699
16.7093
14.9134
13.4448
12.3319
11.6533
11.3797
11.5781
12.1866
11.9738
11.2548
10.935
11.156
11.842
12.8468
13.8278
14.2565
13.8644
12.6894
11.5631
11.3726
12.7024
18.0627
36.0706
53.2102
21.791
16.4091
14.8504
14.588
15.5628
16.4703
16.0098
14.8268
13.6027
12.5821
11.8609
11.51
11.7313
12.0847
11.348
10.4879
10.0891
10.1615
10.6303
11.4313
12.3617
12.9735
12.8307
12.0335
11.1681
11.1118
12.7173
17.1518
34.0569
66.7697
24.2452
16.7509
14.3623
13.6675
14.2493
15.4481
15.8159
15.0544
13.966
12.9447
12.1262
11.6847
11.9244
11.8381
10.7619
9.83237
9.34077
9.22794
9.44024
9.95655
10.6734
11.3184
11.5408
11.2369
10.7386
10.4464
11.2659
14.4201
31.1977
75.2801
27.785
17.4925
14.1998
13.2304
13.5262
14.567
15.2703
15.1958
14.3953
13.288
12.3646
11.893
12.1084
11.5142
10.2535
9.27563
8.66783
8.36534
8.33854
8.57177
9.01472
9.52099
9.86419
9.88356
9.58382
9.05171
9.32197
11.8195
26.302
71.6501
32.1566
19.2905
14.742
13.2983
13.1509
13.5486
14.0607
14.5491
14.52
13.6014
12.5482
12.173
12.2151
11.209
9.84046
8.7918
8.05514
7.58765
7.36956
7.37643
7.56274
7.84204
8.06614
8.09071
7.82896
7.37172
7.53395
9.57847
19.5041
60.0048
30.0832
20.5802
15.6377
13.5714
12.8729
12.7919
12.9893
13.4612
14.0434
13.8735
12.8017
12.593
12.2704
10.9046
9.46027
8.32824
7.47849
6.88716
6.53204
6.37667
6.36905
6.43557
6.4746
6.38934
6.12359
5.78127
5.86583
7.52921
13.1792
49.7078
24.6435
18.597
15.6145
13.7713
12.7813
12.3972
12.3834
12.6537
13.235
13.712
13.0898
12.8837
12.0916
10.4876
9.00924
7.82078
6.90203
6.23569
5.79128
5.52486
5.38171
5.29473
5.18842
5.00231
4.71508
4.40073
4.33771
5.27964
8.25936
42.4362
20.399
15.5509
14.1721
13.5797
12.9675
12.4004
12.1652
12.2318
12.5905
13.1277
13.01
12.6871
11.512
9.85931
8.411
7.22822
6.30257
5.6134
5.12345
4.78753
4.55488
4.3691
4.17332
3.92658
3.61993
3.29114
3.10305
3.43146
5.09508
34.4146
17.0594
13.0296
12.0277
12.3328
12.7968
12.685
12.3118
12.048
12.0644
12.3835
12.4681
11.9352
10.5348
9.00005
7.66198
6.55888
5.68597
5.01879
4.52122
4.15238
3.86888
3.62598
3.38174
3.10664
2.79364
2.46308
2.21294
2.2187
3.21855
26.6161
14.2768
10.834
9.97981
10.3799
11.4643
12.3084
12.4781
12.0772
11.5771
11.4805
11.4256
10.6546
9.32366
7.9923
6.82919
5.85925
5.07617
4.46008
3.98222
3.60926
3.30604
3.03782
2.77381
2.49292
2.18956
1.87709
1.60607
1.50569
2.20331
19.8148
11.5713
8.71191
8.00093
8.38802
9.412
10.6525
11.7075
11.7969
11.1001
10.4106
10.0907
9.20865
8.06838
6.9703
6.00381
5.18138
4.49973
3.9477
3.50575
3.14853
2.84831
2.57807
2.31497
2.04432
1.76283
1.48078
1.23062
1.11749
1.73779
14.2515
8.76644
6.5649
6.22574
6.69081
7.6177
8.72336
9.81613
10.5012
10.2258
9.22606
8.6696
7.85235
6.92307
6.0391
5.24949
4.56161
3.97611
3.48981
3.09136
2.7622
2.48039
2.22436
1.97663
1.7271
1.47532
1.23132
1.0233
0.941726
1.63376
9.87805
6.08848
4.66257
4.76033
5.39102
6.23962
7.15819
8.07375
8.72066
8.69654
8.02493
7.37962
6.69166
5.95039
5.2397
4.594
4.01761
3.51514
3.09039
2.73775
2.44356
2.19002
1.9591
1.73639
1.51461
1.29617
1.09235
0.931146
0.902192
1.68134
6.7942
4.08283
3.31247
3.71272
4.4741
5.24923
5.98417
6.68608
7.27667
7.31161
6.96347
6.36137
5.76025
5.15173
4.57171
4.03828
3.55122
3.11877
2.74982
2.44257
2.18661
1.96731
1.76867
1.57728
1.3871
1.20303
1.03801
0.919034
0.932711
1.90173
4.65356
2.78619
2.52529
3.04257
3.81436
4.5105
5.10889
5.64625
6.16051
6.33572
6.10784
5.6052
5.03648
4.50185
4.01334
3.56787
3.15519
2.78369
2.46581
2.2022
1.98522
1.80317
1.64192
1.48762
1.33219
1.18294
1.04806
0.957805
1.03498
2.35972
3.09988
1.9644
2.03227
2.61756
3.35067
3.94677
4.4142
4.8453
5.28425
5.54531
5.39348
4.9803
4.45168
3.96454
3.54218
3.16678
2.82078
2.50486
2.23353
2.01045
1.83082
1.68597
1.56439
1.45141
1.33486
1.21709
1.11784
1.0759
1.22864
2.90135
2.37537
1.5538
1.78981
2.38253
3.02283
3.51387
3.8678
4.19724
4.54445
4.779
4.70116
4.38422
3.93322
3.5026
3.13996
2.82695
2.54197
2.27592
2.04491
1.85774
1.71237
1.60208
1.51738
1.44076
1.37272
1.31148
1.27095
1.29278
1.54358
3.6343
2.3944
1.51885
1.7745
2.26668
2.78303
3.183
3.45333
3.68232
3.91273
4.07156
4.03171
3.7999
3.44516
3.0864
2.78932
2.5447
2.31332
2.08864
1.88977
1.73408
1.61972
1.54125
1.48783
1.4459
1.4142
1.4076
1.45138
1.59371
2.03499
4.81291
2.92292
1.67
1.86946
2.2627
2.65155
2.97871
3.17254
3.28945
3.39988
3.47565
3.43893
3.26407
2.99447
2.70988
2.47976
2.30538
2.12597
1.9342
1.76327
1.63536
1.55036
1.50313
1.48523
1.4722
1.46969
1.50965
1.65061
1.98602
2.85517
7.49677
4.43809
2.18789
2.16537
2.37564
2.68708
2.95207
3.03367
3.0196
3.01545
3.01264
2.95553
2.81112
2.6013
2.37991
2.20382
2.08954
1.9648
1.80497
1.66394
1.5653
1.51099
1.49912
1.52303
1.56491
1.60328
1.69645
1.93206
2.48698
3.99878
11.8778
7.78769
3.39601
2.82559
2.73341
2.90677
3.06566
3.02042
2.8596
2.75131
2.67518
2.58916
2.45753
2.28198
2.10583
1.96792
1.88898
1.813
1.69408
1.59108
1.52528
1.50431
1.52514
1.6077
1.7392
1.85615
1.99764
2.32594
3.14962
5.5985
19.7865
13.5299
4.93762
3.72079
3.40285
3.39759
3.35074
3.07005
2.77898
2.5844
2.4432
2.32689
2.19906
2.03982
1.89033
1.77561
1.71077
1.66052
1.59162
1.53355
1.50847
1.52108
1.58008
1.70877
1.91403
2.16547
2.42942
2.95058
4.40372
9.32066
31.4406
25.2155
7.05529
4.73911
4.10889
3.91456
3.6074
3.1228
2.73633
2.47747
2.2853
2.13793
2.00813
1.85807
1.72346
1.6237
1.55962
1.51755
1.49196
1.48385
1.50471
1.55788
1.64795
1.80236
2.05505
2.42938
2.89799
3.88448
6.64981
13.5796
32.7244
36.0209
11.2272
6.36959
4.82729
4.26864
3.71207
3.11222
2.68287
2.39274
2.16159
1.98241
1.83888
1.70041
1.58328
1.50338
1.44358
1.40698
1.40322
1.44105
1.50942
1.58599
1.69824
1.87114
2.15567
2.59884
3.31592
4.88611
8.09681
13.1278
29.9547
35.1502
13.6388
8.66166
5.72506
4.41614
3.69424
3.02128
2.58194
2.28234
2.03564
1.83418
1.67639
1.55122
1.46006
1.40018
1.35875
1.35818
1.37797
1.40834
1.47111
1.56664
1.70505
1.89632
2.21888
2.69829
3.60651
5.28957
7.70515
11.8168
25.9017
30.7131
12.9382
8.67154
6.21674