/*--------------------------------*- C++ -*----------------------------------*\
| =========                 |                                                 |
| \\      /  F ield         | OpenFOAM: The Open Source CFD Toolbox           |
|  \\    /   O peration     | Version:  2.3.0                                 |
|   \\  /    A nd           | Web:      www.OpenFOAM.org                      |
|    \\/     M anipulation  |                                                 |
\*---------------------------------------------------------------------------*/
FoamFile
{
    version     2.0;
    format      ascii;
    class       volScalarField;
    location    "1.59928";
    object      nut.air;
}
// * * * * * * * * * * * * * * * * * * * * * * * * * * * * * * * * * * * * * //

dimensions      [0 2 -1 0 0 0 0];

internalField   nonuniform List<scalar> 
18816
(
6.82357e-08
8.37082e-08
4.57224e-08
6.25653e-08
8.00984e-08
9.56291e-08
8.35325e-08
9.24126e-08
1.2589e-07
1.33281e-07
1.49955e-07
1.64549e-07
1.74054e-07
1.7781e-07
1.76729e-07
1.73638e-07
1.67336e-07
1.59259e-07
1.49377e-07
1.36515e-07
1.19415e-07
9.6736e-08
7.37068e-08
5.83015e-08
6.56399e-08
9.34809e-08
1.12142e-07
6.93294e-08
6.77372e-34
6.68594e-08
4.53499e-08
4.86867e-08
3.22939e-08
7.28367e-08
1.5241e-07
1.74395e-07
1.75698e-07
1.72396e-07
1.72309e-07
1.74878e-07
1.69216e-07
1.66405e-07
1.61396e-07
1.56059e-07
1.50719e-07
1.45526e-07
1.39337e-07
1.29934e-07
1.16487e-07
9.95203e-08
8.42261e-08
7.60803e-08
7.86307e-08
9.19159e-08
1.11081e-07
3.27951e-34
7.12545e-34
4.23255e-08
5.35066e-08
4.64359e-08
6.98948e-10
4.28381e-34
8.8106e-35
8.08314e-35
7.27677e-35
6.46608e-35
6.43913e-35
1.70183e-07
1.6441e-07
1.5751e-07
1.49819e-07
1.42621e-07
1.37405e-07
1.32036e-07
1.23597e-07
1.10463e-07
9.64762e-08
8.47417e-08
7.29311e-08
6.47217e-08
6.49301e-08
7.79085e-08
1.04276e-07
3.19862e-34
7.20242e-34
3.70376e-08
5.88664e-08
4.01446e-08
2.57093e-33
2.51461e-34
8.77809e-35
8.62942e-35
8.07449e-35
6.91309e-35
7.00153e-35
8.19746e-35
1.55304e-07
1.41553e-07
1.20421e-07
1.0466e-07
9.3801e-08
7.7247e-08
5.73491e-08
6.47715e-08
6.34349e-08
5.76135e-08
4.33507e-08
3.83113e-08
4.57175e-08
5.75414e-08
1.0112e-07
3.10645e-34
7.24188e-34
3.58279e-08
5.95119e-08
3.88015e-08
2.40691e-33
2.38473e-34
1.08654e-34
9.27306e-35
8.23958e-35
7.42856e-35
7.39611e-35
9.75596e-35
1.40876e-07
9.82577e-08
6.24726e-08
4.7258e-08
4.00878e-08
3.44651e-08
4.94636e-08
1.62394e-07
2.48745e-07
1.901e-07
6.07368e-08
4.55068e-08
3.67969e-08
4.08949e-08
9.58417e-08
3.17256e-34
7.48088e-34
4.22968e-08
5.90551e-08
4.10488e-08
3.39394e-33
3.2241e-34
1.30836e-34
8.84617e-35
9.43304e-35
7.33308e-35
7.88437e-35
1.05865e-34
1.20063e-07
6.74668e-08
4.597e-08
3.81285e-08
3.23953e-08
2.64368e-08
5.57053e-08
1.72707e-07
2.78244e-07
3.13226e-07
2.11678e-07
5.21266e-08
4.00352e-08
4.29629e-08
8.93561e-08
3.1589e-34
7.23678e-34
3.75267e-08
5.4232e-08
4.8842e-08
3.49821e-08
9.51276e-08
1.34577e-07
9.62529e-35
1.01194e-34
8.30736e-35
7.42838e-35
1.52684e-34
1.02204e-07
5.68567e-08
4.61614e-08
4.18989e-08
3.77076e-08
3.11316e-08
8.67527e-08
1.77569e-07
2.73861e-07
3.10324e-07
3.06965e-07
8.16514e-08
4.03767e-08
3.86286e-08
8.38627e-08
3.28078e-34
8.26313e-34
4.28535e-08
4.66237e-08
5.33157e-08
5.17989e-08
1.38169e-07
1.9622e-07
1.59105e-07
1.47919e-07
1.23073e-07
8.81833e-35
1.74648e-34
8.6236e-08
5.01512e-08
4.59764e-08
4.35432e-08
4.0931e-08
2.82534e-08
8.21002e-08
1.6854e-07
2.74422e-07
3.08944e-07
3.11097e-07
2.18242e-07
4.17813e-08
3.69677e-08
7.97335e-08
3.34789e-34
7.65679e-34
2.81076e-08
4.06061e-08
6.2278e-08
5.04903e-08
1.45367e-07
2.07066e-07
2.11176e-07
1.91945e-07
1.63504e-07
9.4976e-35
1.75632e-34
8.75991e-08
4.69377e-08
3.67439e-08
4.62298e-08
4.68386e-08
2.78261e-08
3.97636e-08
1.61678e-07
2.7764e-07
3.09901e-07
3.01566e-07
2.88586e-07
5.12045e-08
3.59602e-08
7.74165e-08
3.35836e-34
9.48594e-34
3.38314e-08
3.71869e-08
7.52365e-08
5.25291e-08
1.51076e-07
2.09242e-07
2.16378e-07
1.99334e-07
1.66849e-07
1.25198e-07
1.06095e-07
1.00225e-07
7.1808e-08
5.41049e-08
4.87385e-08
5.07979e-08
4.56155e-08
3.40937e-08
1.34913e-07
2.81581e-07
3.14723e-07
2.88949e-07
2.89498e-07
5.19064e-08
3.4727e-08
7.57835e-08
3.48182e-34
1.00167e-33
4.69378e-08
3.64436e-08
1.03212e-07
5.29605e-08
1.5456e-07
2.09661e-07
2.17179e-07
2.00425e-07
1.57195e-07
1.46353e-07
1.2309e-07
1.02267e-07
7.69567e-08
6.11445e-08
5.40331e-08
5.41347e-08
4.4785e-08
3.27843e-08
9.26879e-08
2.85346e-07
3.15135e-07
2.82092e-07
2.64955e-07
5.37174e-08
3.39184e-08
7.42949e-08
3.48462e-34
1.01439e-33
4.10379e-08
3.873e-08
1.64432e-07
5.81048e-08
1.58798e-07
2.09044e-07
2.15638e-07
1.86706e-07
1.4672e-07
1.40911e-07
1.23712e-07
1.02988e-07
8.93312e-08
7.23913e-08
6.76192e-08
6.53652e-08
4.56297e-08
3.27821e-08
8.40579e-08
2.92641e-07
3.17991e-07
2.80999e-07
2.21188e-07
5.43788e-08
3.40311e-08
7.39998e-08
3.60899e-34
1.05335e-33
1.45042e-08
5.61714e-08
8.58721e-08
6.84279e-08
1.63854e-07
2.06693e-07
2.11099e-07
1.68272e-07
1.346e-07
1.29523e-07
1.17895e-07
9.90334e-08
9.11575e-08
7.63104e-08
7.16956e-08
6.39954e-08
4.54583e-08
3.87808e-08
1.35205e-07
3.02207e-07
3.17738e-07
2.79273e-07
1.74855e-07
5.16851e-08
3.56957e-08
7.43056e-08
3.62688e-34
1.04517e-33
2.58773e-08
8.35196e-08
5.79562e-08
7.26562e-08
1.68027e-07
2.03672e-07
2.04741e-07
1.5762e-07
1.23223e-07
1.18431e-07
1.09052e-07
9.35252e-08
9.28577e-08
7.90937e-08
7.4838e-08
6.08057e-08
4.07752e-08
4.41841e-08
2.32721e-07
3.05605e-07
3.16436e-07
2.76455e-07
1.35785e-07
5.0492e-08
3.99274e-08
7.57935e-08
3.66917e-34
1.26002e-33
2.81481e-08
1.21139e-07
5.25127e-08
7.30086e-08
1.69405e-07
2.01486e-07
1.98546e-07
1.51977e-07
1.18529e-07
1.11106e-07
1.03206e-07
8.39638e-08
9.04526e-08
7.62746e-08
6.74803e-08
4.63918e-08
3.90178e-08
1.34342e-07
2.68113e-07
3.07013e-07
3.12689e-07
2.70856e-07
1.09522e-07
4.27279e-08
4.92638e-08
7.8941e-08
3.69598e-34
1.32432e-33
2.91046e-08
1.6392e-07
5.2089e-08
7.02466e-08
1.66636e-07
1.98657e-07
1.95298e-07
1.48757e-07
1.10104e-07
9.97816e-08
9.4009e-08
7.04918e-08
8.32598e-08
6.49487e-08
4.18209e-08
3.43127e-08
1.41805e-07
2.4816e-07
2.68159e-07
3.04682e-07
3.04888e-07
2.66199e-07
9.45006e-08
4.22216e-08
5.35163e-08
8.67838e-08
3.65523e-34
1.67383e-33
3.1709e-08
2.1046e-07
5.93774e-08
6.0726e-08
1.55859e-07
1.90513e-07
1.87294e-07
1.42256e-07
1.01668e-07
9.02522e-08
8.07382e-08
3.37432e-08
3.64338e-08
2.68208e-08
4.41506e-08
1.72562e-07
2.4115e-07
2.56651e-07
2.71053e-07
2.93796e-07
2.93823e-07
2.62463e-07
8.65167e-08
4.23475e-08
6.17752e-08
9.48321e-08
3.75748e-34
1.81145e-33
3.94354e-08
2.66705e-07
1.57819e-07
3.96005e-08
1.17375e-07
1.67235e-07
1.63697e-07
1.05892e-07
6.06025e-08
5.06499e-08
5.11342e-08
1.07255e-07
1.25703e-07
1.78449e-07
2.19971e-07
2.24812e-07
2.5935e-07
2.86029e-07
2.73427e-07
2.76816e-07
2.79879e-07
2.5684e-07
9.97622e-08
4.25452e-08
6.0895e-08
1.01684e-07
3.74046e-34
2.07047e-33
3.93226e-08
3.04284e-07
3.41493e-07
5.30651e-08
4.05544e-08
6.78998e-08
6.50159e-08
3.43473e-08
4.26414e-08
5.60828e-08
3.24658e-08
3.08916e-07
2.5847e-07
2.90739e-07
2.23894e-07
2.27336e-07
2.72765e-07
3.06079e-07
2.71432e-07
2.6274e-07
2.67911e-07
2.51521e-07
1.23636e-07
4.17543e-08
3.44704e-08
1.04729e-07
3.79242e-34
1.81626e-33
4.13909e-08
3.02569e-07
3.84878e-07
3.18323e-07
7.94425e-08
3.02528e-08
5.00285e-08
2.30883e-07
2.81022e-07
3.18826e-07
3.61661e-07
3.74255e-07
3.69135e-07
3.44523e-07
2.87521e-07
2.52435e-07
2.62407e-07
2.7798e-07
2.54392e-07
2.52307e-07
2.56117e-07
2.45706e-07
1.50429e-07
4.86806e-08
2.51571e-08
1.04823e-07
3.48947e-34
1.68372e-33
3.49426e-08
2.84528e-07
3.90704e-07
3.74982e-07
3.14725e-07
2.39046e-07
2.13177e-07
2.52387e-07
2.74166e-07
3.56421e-07
4.13742e-07
6.42373e-07
7.28188e-07
6.8432e-07
4.69872e-07
4.0069e-07
2.15772e-07
1.56612e-07
1.96826e-07
2.35142e-07
2.44821e-07
2.40965e-07
1.83933e-07
5.4991e-08
2.59523e-08
1.04349e-07
3.51496e-34
1.5905e-33
3.23894e-08
2.5561e-07
3.87116e-07
4.08231e-07
3.85054e-07
3.39059e-07
3.39086e-07
2.82077e-07
2.8722e-07
2.76877e-07
2.44099e-07
2.17331e-07
1.96903e-07
1.80877e-07
1.61297e-07
1.36295e-07
1.45162e-07
2.32758e-07
2.21305e-07
2.4306e-07
2.44034e-07
2.41012e-07
2.15852e-07
5.66452e-08
2.75584e-08
1.04031e-07
3.18928e-34
1.6627e-33
3.93057e-08
2.29958e-07
3.59684e-07
4.22915e-07
4.38704e-07
5.32684e-07
3.65631e-07
2.41025e-07
2.45817e-07
2.41629e-07
2.20349e-07
2.02004e-07
1.74841e-07
1.58791e-07
1.52426e-07
1.40958e-07
1.54362e-07
1.73618e-07
2.2131e-07
2.42793e-07
2.42127e-07
2.41218e-07
2.33574e-07
3.42785e-08
2.82866e-08
1.03561e-07
3.04753e-34
1.74778e-33
4.23311e-08
2.08597e-07
3.37876e-07
4.49619e-07
4.7098e-07
5.66395e-07
3.61663e-07
2.23139e-07
2.2316e-07
2.14065e-07
1.8632e-07
1.82353e-07
1.80528e-07
1.70301e-07
1.53556e-07
1.3291e-07
1.5214e-07
1.81183e-07
2.24038e-07
2.40709e-07
2.39121e-07
2.4002e-07
2.38458e-07
4.50364e-32
2.69509e-08
1.0314e-07
3.05544e-34
1.71278e-33
4.6776e-08
1.98648e-07
3.48548e-07
5.22274e-07
6.00676e-07
9.05034e-07
2.77726e-07
1.98559e-07
1.94787e-07
1.74233e-07
1.55889e-07
1.45297e-07
1.65148e-07
1.65229e-07
1.56587e-07
1.40273e-07
1.52064e-07
1.79535e-07
2.19978e-07
2.35642e-07
2.33374e-07
2.3517e-07
2.36858e-07
4.66731e-32
2.86376e-08
1.0243e-07
2.81983e-34
1.60448e-33
4.50203e-08
1.86728e-07
3.95987e-07
6.3241e-07
7.65458e-07
9.15854e-07
2.01424e-07
1.54416e-07
1.41719e-07
1.25431e-07
1.26733e-07
1.10878e-07
1.14257e-07
1.12618e-07
1.12544e-07
1.10245e-07
1.30446e-07
1.67871e-07
2.05672e-07
2.18106e-07
2.17946e-07
2.21046e-07
2.2438e-07
1.3752e-31
3.08643e-08
1.0162e-07
2.71246e-34
1.67484e-33
4.85036e-08
1.72607e-07
3.53671e-07
5.7186e-07
7.83142e-07
7.04017e-07
1.44223e-07
1.1205e-07
1.13227e-07
1.06681e-07
1.07692e-07
9.67282e-08
8.4847e-08
7.57588e-08
7.44182e-08
8.93632e-08
1.13849e-07
1.47616e-07
1.76942e-07
1.85658e-07
1.85403e-07
1.87685e-07
1.90952e-07
2.70647e-25
3.14238e-08
1.00211e-07
2.71291e-34
1.76242e-33
4.15516e-08
7.42002e-08
1.84879e-07
3.51985e-07
5.12718e-07
3.2892e-07
5.94593e-08
5.38038e-08
6.04036e-08
7.11497e-08
7.4791e-08
6.68605e-08
4.68782e-08
4.23312e-08
4.28859e-08
5.70229e-08
7.77634e-08
9.40533e-08
1.01924e-07
1.02347e-07
1.02733e-07
1.03772e-07
1.05142e-07
8.35106e-08
3.03971e-08
1.00116e-07
2.53832e-34
8.49566e-34
5.11884e-08
3.48719e-08
4.20475e-08
5.50259e-08
6.75475e-08
5.31113e-08
4.73927e-08
7.88168e-08
8.77938e-08
9.98081e-08
1.11645e-07
1.17558e-07
1.18343e-07
1.16815e-07
1.13928e-07
1.08525e-07
1.01613e-07
9.27974e-08
8.09227e-08
6.61126e-08
4.86291e-08
3.44414e-08
2.8156e-08
3.21218e-08
5.12563e-08
6.916e-08
7.04802e-34
1.38939e-33
5.17668e-08
4.00894e-08
4.13358e-08
2.51647e-08
4.72785e-08
9.97804e-08
1.18581e-07
1.15696e-07
1.1201e-07
1.14183e-07
1.16826e-07
1.13573e-07
1.12715e-07
1.10218e-07
1.07466e-07
1.04152e-07
1.00603e-07
9.60217e-08
8.87076e-08
7.90147e-08
6.83123e-08
5.83281e-08
5.38704e-08
5.37902e-08
6.25962e-08
7.58983e-08
1.05836e-33
1.88116e-33
3.92915e-08
5.09397e-08
3.44433e-08
3.17908e-09
1.90757e-09
1.75447e-08
2.48178e-08
2.06382e-08
1.7439e-08
2.58603e-08
1.18465e-07
1.14426e-07
1.10599e-07
1.06617e-07
1.02732e-07
1.00197e-07
9.7729e-08
9.35451e-08
8.38435e-08
7.1555e-08
6.19173e-08
5.30517e-08
4.95444e-08
5.02316e-08
5.73709e-08
7.46694e-08
1.15889e-33
1.78982e-33
3.57963e-08
5.16817e-08
2.66315e-08
9.84022e-10
6.55678e-11
1.31421e-09
5.74849e-09
3.45518e-09
1.68199e-09
1.99506e-09
2.34054e-08
1.10075e-07
1.02492e-07
8.90446e-08
7.86646e-08
7.2939e-08
6.27143e-08
5.13903e-08
5.56258e-08
5.61659e-08
4.941e-08
4.63071e-08
4.01687e-08
4.54912e-08
4.27693e-08
7.18754e-08
1.08226e-33
1.73501e-33
3.67367e-08
5.17261e-08
2.39372e-08
8.90965e-10
2.36217e-10
7.34913e-10
2.00657e-09
1.02527e-09
6.42128e-10
3.89517e-10
8.8499e-09
1.00595e-07
7.05711e-08
4.38848e-08
3.30799e-08
2.87898e-08
2.59413e-08
3.85659e-08
1.52979e-07
2.48107e-07
2.37691e-07
1.11173e-07
4.90655e-08
4.17849e-08
3.8609e-08
6.83619e-08
1.1035e-33
1.65521e-33
3.96765e-08
5.05824e-08
2.59404e-08
1.19847e-09
4.69772e-10
7.10752e-10
9.02178e-10
6.66719e-10
3.79449e-10
3.39284e-11
4.53855e-09
8.70497e-08
4.85801e-08
3.16071e-08
2.54788e-08
2.15535e-08
1.94742e-08
3.99294e-08
1.54126e-07
2.56011e-07
2.83179e-07
2.61266e-07
8.21807e-08
4.46978e-08
4.8879e-08
6.43353e-08
1.09135e-33
1.59387e-33
2.84429e-08
4.73326e-08
3.2827e-08
1.89318e-08
4.88175e-08
5.6973e-08
9.13099e-10
7.37724e-10
4.70585e-10
1.28305e-10
3.35776e-09
7.72627e-08
4.25235e-08
3.24718e-08
2.886e-08
2.54095e-08
2.43948e-08
6.28254e-08
1.51645e-07
2.45985e-07
2.76251e-07
2.76452e-07
1.85866e-07
4.58012e-08
4.61286e-08
6.06249e-08
1.13387e-33
1.58396e-33
2.94756e-08
4.1909e-08
3.44549e-08
3.45933e-08
9.27737e-08
1.21511e-07
7.77866e-08
7.54813e-08
6.09669e-08
4.73369e-10
2.64207e-09
6.62949e-08
3.87797e-08
3.33385e-08
3.1024e-08
2.81256e-08
2.22258e-08
5.4985e-08
1.53068e-07
2.45317e-07
2.75459e-07
2.74047e-07
2.45084e-07
4.98734e-08
4.41295e-08
5.77184e-08
1.15575e-33
1.58647e-33
1.50175e-08
3.647e-08
3.4482e-08
3.43163e-08
1.01182e-07
1.3839e-07
1.38508e-07
1.26732e-07
1.06106e-07
9.58489e-10
1.65692e-09
6.70121e-08
4.04802e-08
2.92486e-08
3.4776e-08
3.36406e-08
2.46999e-08
2.98121e-08
1.28297e-07
2.47478e-07
2.77969e-07
2.74582e-07
2.31152e-07
5.82626e-08
4.28281e-08
5.62927e-08
1.16713e-33
1.63838e-33
1.14772e-08
3.09294e-08
3.95682e-08
3.64259e-08
1.05977e-07
1.43021e-07
1.48452e-07
1.36006e-07
1.12943e-07
6.80548e-08
6.06203e-08
7.60736e-08
5.8873e-08
4.60455e-08
3.79475e-08
3.94607e-08
4.58675e-08
2.69884e-08
8.20931e-08
2.52603e-07
2.81356e-07
2.76249e-07
2.10289e-07
6.4424e-08
4.23432e-08
5.54192e-08
1.21448e-33
2.05954e-33
2.08938e-08
3.18046e-08
4.48846e-08
3.72723e-08
1.09114e-07
1.44923e-07
1.51738e-07
1.42521e-07
1.08394e-07
1.00378e-07
8.54878e-08
7.80597e-08
5.96835e-08
4.72249e-08
4.06029e-08
4.06678e-08
3.83863e-08
2.91282e-08
6.1406e-08
2.5731e-07
2.80268e-07
2.76406e-07
1.93786e-07
6.33405e-08
4.18626e-08
5.47628e-08
1.23292e-33
2.16235e-33
2.10992e-08
3.3245e-08
5.88832e-08
4.12831e-08
1.13165e-07
1.46021e-07
1.52244e-07
1.35633e-07
1.05809e-07
1.00003e-07
9.14948e-08
7.68003e-08
6.65803e-08
5.41567e-08
5.04392e-08
4.78738e-08
3.91108e-08
2.91547e-08
6.11198e-08
2.65076e-07
2.82182e-07
2.75951e-07
1.79454e-07
4.8205e-08
4.24023e-08
5.49036e-08
1.21014e-33
2.31334e-33
1.00965e-08
4.45233e-08
4.39603e-08
4.96846e-08
1.18299e-07
1.45744e-07
1.49908e-07
1.19757e-07
9.68274e-08
9.3065e-08
8.73886e-08
7.36429e-08
6.74247e-08
5.76107e-08
5.4059e-08
4.78964e-08
3.71216e-08
3.30586e-08
1.14075e-07
2.7295e-07
2.79557e-07
2.73069e-07
1.65866e-07
4.04854e-08
4.35054e-08
5.51476e-08
1.21298e-33
1.66089e-33
2.44036e-08
5.29491e-08
3.47817e-08
5.25512e-08
1.22118e-07
1.43938e-07
1.45677e-07
1.10535e-07
8.88873e-08
8.45598e-08
8.03001e-08
6.87267e-08
6.85243e-08
5.88025e-08
5.41961e-08
4.37618e-08
3.18928e-08
4.22302e-08
2.32256e-07
2.73838e-07
2.75231e-07
2.6778e-07
1.52488e-07
3.79143e-08
4.63405e-08
5.62698e-08
1.20573e-33
1.94799e-33
2.7359e-08
6.92345e-08
3.35095e-08
5.26763e-08
1.22603e-07
1.42299e-07
1.40794e-07
1.0648e-07
8.39298e-08
7.92828e-08
7.43651e-08
6.25466e-08
6.65669e-08
5.6961e-08
5.02603e-08
3.40969e-08
3.58307e-08
1.42988e-07
2.74438e-07
2.72112e-07
2.68438e-07
2.58948e-07
1.40468e-07
3.41151e-08
5.00315e-08
5.77878e-08
1.1813e-33
1.8987e-33
3.20482e-08
1.05372e-07
3.48482e-08
5.02173e-08
1.20671e-07
1.40794e-07
1.38635e-07
1.04209e-07
7.84292e-08
7.06403e-08
6.71421e-08
5.10394e-08
6.0736e-08
4.6815e-08
2.93279e-08
2.83545e-08
1.57382e-07
2.71877e-07
2.72517e-07
2.64931e-07
2.57801e-07
2.48305e-07
1.32137e-07
3.30772e-08
4.62648e-08
6.17682e-08
1.22714e-33
2.42343e-33
3.99041e-08
1.81328e-07
4.01045e-08
4.24069e-08
1.13411e-07
1.36031e-07
1.34006e-07
1.00111e-07
7.107e-08
6.3709e-08
5.89418e-08
3.99249e-08
2.46669e-08
2.78174e-08
5.94169e-08
1.96098e-07
2.75768e-07
2.89688e-07
2.71612e-07
2.49659e-07
2.45266e-07
2.37278e-07
1.32407e-07
3.29803e-08
5.11237e-08
6.69982e-08
1.22497e-33
2.589e-33
4.96011e-08
3.16093e-07
5.32732e-08
2.57854e-08
8.35643e-08
1.20168e-07
1.17631e-07
7.45688e-08
4.1451e-08
3.59069e-08
3.63453e-08
1.58009e-07
2.12645e-07
2.21851e-07
2.69384e-07
2.72219e-07
2.96994e-07
3.31089e-07
2.70432e-07
2.29292e-07
2.31868e-07
2.27071e-07
1.82897e-07
3.56954e-08
4.9685e-08
7.27453e-08
1.26912e-33
3.32364e-33
4.65558e-08
4.07916e-07
2.41299e-07
3.26309e-08
2.46285e-08
4.38992e-08
4.25349e-08
2.42286e-08
5.48799e-08
1.03057e-07
3.00493e-08
3.77563e-07
2.88781e-07
3.62772e-07
2.49064e-07
2.48008e-07
3.35456e-07
3.45293e-07
2.46991e-07
2.16294e-07
2.22544e-07
2.196e-07
1.98641e-07
6.20444e-08
2.65414e-08
7.5856e-08
1.25353e-33
3.71593e-33
3.40659e-08
4.65173e-07
4.80404e-07
2.33087e-07
3.95125e-08
1.91777e-08
3.82476e-08
2.42253e-07
3.25727e-07
3.93493e-07
4.03322e-07
4.72459e-07
4.44465e-07
4.42951e-07
3.57938e-07
3.13699e-07
3.34982e-07
3.45792e-07
2.12081e-07
2.06594e-07
2.14105e-07
2.13189e-07
2.01666e-07
1.04505e-07
2.5087e-08
7.57037e-08
1.25419e-33
3.59961e-33
2.90612e-08
5.05976e-07
5.47032e-07
4.91355e-07
3.73876e-07
2.63363e-07
2.17552e-07
2.58718e-07
3.23712e-07
4.29605e-07
5.03587e-07
7.29651e-07
8.40831e-07
7.95478e-07
5.92674e-07
5.13336e-07
3.11522e-07
2.26185e-07
1.75599e-07
2.04288e-07
2.11794e-07
2.11395e-07
2.04361e-07
1.2483e-07
2.45058e-08
7.50414e-08
1.22476e-33
3.33274e-33
3.37544e-08
5.25355e-07
6.06436e-07
6.02895e-07
5.366e-07
4.33586e-07
3.75866e-07
2.69123e-07
2.56327e-07
2.43479e-07
2.14188e-07
1.9629e-07
1.91239e-07
1.70943e-07
1.45647e-07
1.22095e-07
1.33456e-07
2.01336e-07
1.96363e-07
2.15437e-07
2.14049e-07
2.11723e-07
2.07623e-07
1.1704e-07
2.52495e-08
7.47132e-08
1.21844e-33
3.57281e-33
5.23697e-08
5.20172e-07
6.26603e-07
6.81105e-07
6.49901e-07
6.76995e-07
4.35051e-07
2.26142e-07
2.00702e-07
1.93089e-07
1.71139e-07
1.62899e-07
1.44027e-07
1.29249e-07
1.19003e-07
1.02736e-07
1.23066e-07
1.46667e-07
1.93696e-07
2.14873e-07
2.11697e-07
2.10519e-07
2.09059e-07
5.02593e-08
2.53806e-08
7.45032e-08
1.20882e-33
3.88621e-33
6.88561e-08
5.18284e-07
6.40159e-07
7.38346e-07
7.0354e-07
7.15299e-07
4.38429e-07
2.02675e-07
1.65458e-07
1.46086e-07
1.18142e-07
1.24572e-07
1.41851e-07
1.36543e-07
1.19538e-07
1.01334e-07
1.2299e-07
1.55761e-07
1.94839e-07
2.09465e-07
2.06734e-07
2.07732e-07
2.07103e-07
1.76648e-08
2.50823e-08
7.43114e-08
1.21093e-33
4.56199e-33
8.90276e-08
5.15244e-07
6.82658e-07
8.2732e-07
8.35403e-07
9.46583e-07
3.52282e-07
1.57744e-07
1.18609e-07
8.88892e-08
8.3559e-08
7.17282e-08
1.02432e-07
1.158e-07
1.09135e-07
9.84252e-08
1.13242e-07
1.45654e-07
1.84971e-07
1.99895e-07
1.96962e-07
1.98188e-07
1.99805e-07
1.43895e-08
2.75673e-08
7.40039e-08
1.21642e-33
4.31374e-33
1.02773e-07
5.31433e-07
7.54085e-07
9.00724e-07
9.1806e-07
7.6694e-07
2.52964e-07
1.00495e-07
7.6081e-08
6.43992e-08
7.14924e-08
5.71696e-08
5.9472e-08
6.65703e-08
5.99758e-08
6.40149e-08
8.60642e-08
1.28148e-07
1.63942e-07
1.75586e-07
1.74924e-07
1.77072e-07
1.79355e-07
3.68497e-08
3.13342e-08
7.36849e-08
1.19348e-33
4.77409e-33
1.38518e-07
4.75406e-07
6.21506e-07
6.19707e-07
6.50126e-07
4.73532e-07
1.87123e-07
6.19443e-08
5.41949e-08
5.58516e-08
5.94577e-08
5.09073e-08
4.01267e-08
5.21504e-08
4.56519e-08
4.83282e-08
6.9185e-08
1.01872e-07
1.25557e-07
1.32061e-07
1.31508e-07
1.32515e-07
1.33577e-07
6.45121e-08
3.27326e-08
7.30231e-08
1.18371e-33
5.3896e-33
1.49584e-07
3.08156e-07
3.73908e-07
4.63147e-07
5.26559e-07
3.55661e-07
7.7188e-08
3.46032e-08
3.6137e-08
4.13675e-08
4.05496e-08
3.74209e-08
4.35315e-08
6.14723e-08
6.33199e-08
3.75286e-08
4.1913e-08
4.72282e-08
4.34486e-08
3.86712e-08
3.90854e-08
3.86037e-08
3.70656e-08
5.21663e-08
4.15365e-08
7.32555e-08
1.17758e-33
5.32944e-09
3.31767e-08
3.33469e-08
3.10756e-08
3.92926e-08
4.98641e-08
3.45169e-08
2.32295e-08
4.68998e-08
5.58186e-08
6.4752e-08
7.46878e-08
7.80137e-08
7.77469e-08
7.64619e-08
7.37516e-08
6.86444e-08
6.20951e-08
5.38324e-08
4.36645e-08
3.39723e-08
2.61873e-08
2.48863e-08
2.73909e-08
2.51752e-08
2.72513e-08
4.00775e-08
4.70148e-09
7.18334e-09
4.30015e-08
4.46719e-08
3.52418e-08
2.10126e-08
3.28141e-08
6.55421e-08
7.91064e-08
7.39733e-08
7.31304e-08
7.85039e-08
8.18921e-08
8.09896e-08
8.12916e-08
8.02056e-08
7.87129e-08
7.96065e-08
8.92001e-08
9.34702e-08
8.87145e-08
8.23815e-08
7.38145e-08
6.65235e-08
6.4347e-08
6.00382e-08
6.28638e-08
5.80133e-08
4.05625e-09
4.43401e-09
3.88136e-08
4.49039e-08
2.32912e-08
1.06777e-08
6.82312e-09
2.86003e-08
3.68505e-08
3.17452e-08
2.9539e-08
4.24844e-08
8.64622e-08
8.48372e-08
8.27185e-08
8.06177e-08
7.85448e-08
7.72945e-08
7.63231e-08
7.44744e-08
6.62584e-08
5.68187e-08
5.48966e-08
5.36448e-08
5.42492e-08
5.1247e-08
5.8777e-08
6.12655e-08
1.37371e-09
1.75767e-32
3.88487e-08
4.22273e-08
1.94128e-08
1.28916e-08
7.0514e-09
1.43962e-08
1.9516e-08
1.6501e-08
1.49827e-08
2.05449e-08
4.25634e-08
8.31714e-08
7.84263e-08
6.98371e-08
6.29427e-08
5.99855e-08
5.2404e-08
4.81609e-08
5.43918e-08
6.33735e-08
6.17216e-08
5.89694e-08
6.05006e-08
6.17997e-08
3.66261e-08
5.48304e-08
6.9132e-33
1.67574e-32
4.01542e-08
4.09582e-08
1.90228e-08
1.24184e-08
9.89743e-09
1.15718e-08
1.42425e-08
1.47993e-08
1.41035e-08
1.63367e-08
2.79637e-08
7.54522e-08
5.22383e-08
3.07851e-08
2.35201e-08
2.13229e-08
2.13081e-08
3.0869e-08
1.18563e-07
2.52043e-07
2.75618e-07
2.56225e-07
1.69494e-07
8.64299e-08
5.50437e-08
5.21215e-08
6.93509e-33
1.79225e-32
3.80453e-08
3.92342e-08
2.10919e-08
1.2301e-08
1.07173e-08
1.12742e-08
1.47855e-08
1.64504e-08
1.49612e-08
1.32881e-08
2.17339e-08
6.50215e-08
3.46538e-08
2.19611e-08
1.80805e-08
1.64371e-08
1.74805e-08
3.06907e-08
1.02694e-07
2.47329e-07
2.77475e-07
2.88242e-07
2.2941e-07
1.12199e-07
6.68431e-08
4.9599e-08
6.54248e-33
2.00033e-32
2.58286e-08
3.56112e-08
2.37227e-08
1.13423e-08
1.91661e-08
1.72054e-08
1.3056e-08
1.51877e-08
1.45786e-08
1.33811e-08
1.9559e-08
5.99806e-08
3.23028e-08
2.39613e-08
2.13055e-08
1.87169e-08
2.11297e-08
4.89748e-08
1.43237e-07
2.4912e-07
2.73626e-07
2.86195e-07
2.3841e-07
1.28109e-07
6.42716e-08
4.71742e-08
6.43308e-33
1.70821e-32
2.72149e-08
3.13833e-08
2.50185e-08
2.31316e-08
5.90826e-08
6.83262e-08
3.04127e-08
3.41609e-08
2.54492e-08
1.38859e-08
1.7394e-08
5.24491e-08
3.12538e-08
2.59371e-08
2.41055e-08
2.08701e-08
2.19431e-08
4.90203e-08
2.00001e-07
2.53922e-07
2.73352e-07
2.82992e-07
2.39253e-07
1.34362e-07
6.13253e-08
4.52181e-08
7.00501e-33
7.31664e-32
1.25326e-08
2.74785e-08
2.64508e-08
2.38992e-08
7.16867e-08
9.36429e-08
8.90483e-08
8.49625e-08
6.83853e-08
1.24432e-08
1.59733e-08
5.33958e-08
3.71869e-08
2.707e-08
2.83227e-08
2.61243e-08
3.18556e-08
3.62813e-08
2.22349e-07
2.61074e-07
2.76898e-07
2.80548e-07
2.39229e-07
1.28508e-07
5.86183e-08
4.45491e-08
7.51077e-33
2.47028e-32
3.41661e-09
2.47891e-08
3.08889e-08
2.59918e-08
7.69231e-08
1.01786e-07
1.05161e-07
9.68578e-08
7.92848e-08
3.62371e-08
3.45658e-08
5.93911e-08
5.07776e-08
4.21341e-08
3.23724e-08
3.30497e-08
4.97599e-08
3.48629e-08
1.77028e-07
2.70235e-07
2.76398e-07
2.75823e-07
2.36609e-07
8.16466e-08
5.48092e-08
4.41848e-08
7.07675e-33
1.10999e-32
5.69853e-09
2.59178e-08
3.63054e-08
2.73189e-08
7.9965e-08
1.05303e-07
1.11189e-07
1.07012e-07
8.18015e-08
7.42388e-08
6.32991e-08
6.49373e-08
5.10403e-08
4.21879e-08
3.42748e-08
3.38386e-08
4.08185e-08
3.87222e-08
1.64002e-07
2.77151e-07
2.74511e-07
2.71906e-07
2.32643e-07
4.90717e-08
4.89473e-08
4.41094e-08
7.44869e-33
2.91913e-32
8.24649e-09
3.29627e-08
4.5144e-08
3.06043e-08
8.36048e-08
1.06884e-07
1.12553e-07
1.05046e-07
8.96289e-08
7.75642e-08
7.97214e-08
6.26916e-08
5.76608e-08
4.56764e-08
4.37566e-08
4.02966e-08
4.19709e-08
4.53532e-08
1.63581e-07
2.82189e-07
2.73231e-07
2.66002e-07
2.25208e-07
3.96536e-08
4.62897e-08
4.44218e-08
6.91904e-33
1.37527e-32
1.33039e-08
3.61179e-08
4.11577e-08
3.76941e-08
8.87081e-08
1.07577e-07
1.11666e-07
9.10429e-08
7.71454e-08
7.33466e-08
7.08665e-08
5.95493e-08
5.47408e-08
4.85502e-08
4.57174e-08
4.07243e-08
3.90295e-08
5.47766e-08
2.26774e-07
2.83435e-07
2.66808e-07
2.57383e-07
2.15518e-07
3.63927e-08
4.67982e-08
4.44891e-08
6.7687e-33
1.5233e-32
2.77756e-08
3.90609e-08
3.59324e-08
4.01947e-08
9.19415e-08
1.06221e-07
1.08263e-07
8.25097e-08
7.47082e-08
6.63646e-08
6.86738e-08
5.57221e-08
5.80642e-08
4.87782e-08
4.4814e-08
3.50498e-08
4.50424e-08
1.07898e-07
3.43839e-07
2.82507e-07
2.58949e-07
2.4738e-07
1.99582e-07
3.46792e-08
4.97191e-08
4.52342e-08
6.13132e-33
5.65226e-33
3.37672e-08
4.26469e-08
3.46335e-08
4.09656e-08
9.18759e-08
1.04167e-07
1.03927e-07
7.86679e-08
6.53888e-08
6.21766e-08
5.89563e-08
5.20845e-08
5.36035e-08
4.75363e-08
4.15619e-08
3.20088e-08
6.71589e-08
3.39192e-07
3.6749e-07
2.76499e-07
2.4861e-07
2.34773e-07
1.84282e-07
3.45345e-08
5.29355e-08
4.5739e-08
6.22492e-33
5.66246e-33
4.4495e-08
5.08371e-08
3.45029e-08
3.92503e-08
9.08642e-08
1.03304e-07
1.02386e-07
7.71251e-08
6.50318e-08
5.58554e-08
5.53476e-08
4.13927e-08
4.87119e-08
3.74948e-08
2.85438e-08
4.64041e-08
3.2271e-07
3.58462e-07
3.64081e-07
2.65101e-07
2.34464e-07
2.23296e-07
1.73594e-07
3.36079e-08
4.57994e-08
4.66546e-08
5.92453e-33
6.96024e-33
5.67104e-08
6.15518e-08
3.48105e-08
3.28742e-08
8.68982e-08
1.01045e-07
1.00152e-07
7.45945e-08
5.73005e-08
4.95602e-08
4.91083e-08
1.26775e-07
2.36886e-08
4.67575e-08
1.76557e-07
2.88775e-07
3.88814e-07
3.77973e-07
3.60919e-07
2.4755e-07
2.21292e-07
2.13872e-07
1.68007e-07
3.4334e-08
4.58572e-08
4.97802e-08
6.82588e-33
9.11924e-33
6.67243e-08
9.19235e-08
3.99847e-08
2.05703e-08
6.50572e-08
9.08434e-08
8.93908e-08
5.53585e-08
3.9529e-08
3.90794e-08
2.94173e-08
3.1876e-07
4.30382e-07
2.94949e-07
3.61395e-07
3.73997e-07
3.85164e-07
4.40504e-07
3.48759e-07
2.20536e-07
2.10014e-07
2.06645e-07
1.9284e-07
3.4513e-08
4.2994e-08
5.49678e-08
7.19989e-33
2.20223e-32
5.38028e-08
2.89712e-07
6.64137e-08
2.7063e-08
1.85401e-08
3.27678e-08
3.05094e-08
2.21835e-08
1.99696e-07
3.12239e-07
7.37648e-08
4.63604e-07
3.26666e-07
4.62182e-07
3.06768e-07
3.09918e-07
4.70087e-07
4.40572e-07
2.77688e-07
2.0333e-07
2.03707e-07
2.03152e-07
1.96246e-07
1.24343e-07
3.04399e-08
5.84716e-08
6.59772e-33
4.4099e-32
3.55761e-08
5.5533e-07
2.7915e-07
7.37675e-08
3.48718e-08
1.98804e-08
4.68293e-08
3.03833e-07
3.95875e-07
4.83251e-07
4.49359e-07
5.79556e-07
5.20597e-07
5.62131e-07
4.48129e-07
4.12772e-07
4.84082e-07
4.93065e-07
2.21218e-07
1.96837e-07
2.00427e-07
2.013e-07
1.977e-07
1.52391e-07
3.07613e-08
5.82125e-08
6.52379e-33
5.83229e-32
3.10977e-08
6.11391e-07
6.80862e-07
5.8009e-07
4.08996e-07
3.15884e-07
2.70683e-07
2.91381e-07
4.06382e-07
4.97119e-07
5.81371e-07
7.93735e-07
9.29655e-07
8.89487e-07
7.14404e-07
6.33248e-07
4.65558e-07
3.79202e-07
1.96651e-07
1.99403e-07
2.03869e-07
2.02768e-07
1.99033e-07
1.47156e-07
3.1648e-08
5.73125e-08
5.93362e-33
1.78383e-32
4.67287e-08
4.728e-07
6.96042e-07
7.38654e-07
6.67514e-07
5.23228e-07
4.29831e-07
2.79662e-07
2.33735e-07
2.17363e-07
1.94186e-07
1.851e-07
1.94276e-07
1.70003e-07
1.40139e-07
1.21127e-07
1.3671e-07
1.96832e-07
1.91726e-07
2.09379e-07
2.06181e-07
2.02861e-07
1.98954e-07
1.13788e-07
3.46525e-08
5.70928e-08
5.77469e-33
1.26961e-32
1.14158e-07
4.84588e-07
5.51718e-07
5.99225e-07
5.41678e-07
5.39319e-07
4.4437e-07
2.59787e-07
1.65034e-07
1.42869e-07
1.20981e-07
1.30287e-07
1.22516e-07
1.07814e-07
9.41993e-08
8.17373e-08
1.09467e-07
1.40285e-07
1.84921e-07
2.0649e-07
2.0054e-07
1.99456e-07
1.97946e-07
8.12412e-08
3.59136e-08
5.72184e-08
5.42841e-33
1.19634e-32
2.42363e-07
6.01827e-07
6.74638e-07
6.35162e-07
5.27611e-07
5.47473e-07
4.3622e-07
2.48899e-07
1.31065e-07
8.06525e-08
6.50243e-08
7.48691e-08
1.07849e-07
1.13035e-07
9.35022e-08
8.16075e-08
1.06833e-07
1.44857e-07
1.82992e-07
1.95608e-07
1.91589e-07
1.92215e-07
1.90125e-07
7.60491e-08
3.58516e-08
5.77578e-08
5.36789e-33
1.04297e-32
2.75291e-07
6.35565e-07
7.92036e-07
6.71623e-07
5.39268e-07
5.51315e-07
3.00599e-07
2.04606e-07
8.59419e-08
5.03192e-08
4.7431e-08
4.862e-08
6.58504e-08
9.98229e-08
8.02448e-08
7.18981e-08
8.70226e-08
1.23805e-07
1.62979e-07
1.79003e-07
1.75491e-07
1.75391e-07
1.75355e-07
7.45258e-08
3.74205e-08
5.83236e-08
5.10909e-33
1.39113e-32
2.96102e-07
6.3581e-07
7.91313e-07
5.43369e-07
4.37167e-07
3.29903e-07
1.66022e-07
1.41568e-07
5.53128e-08
4.89747e-08
4.41271e-08
4.36441e-08
5.50148e-08
1.08444e-07
8.06091e-08
5.96612e-08
6.43344e-08
1.04946e-07
1.3734e-07
1.48492e-07
1.4623e-07
1.46419e-07
1.45683e-07
8.24956e-08
3.9007e-08
5.87728e-08
4.93994e-33
7.45182e-33
2.52853e-07
2.63298e-07
2.13571e-07
1.38602e-07
1.38589e-07
9.97792e-08
8.02415e-08
9.91824e-08
5.19545e-08
4.74188e-08
4.13556e-08
4.0785e-08
6.62551e-08
9.45877e-08
9.52431e-08
6.89876e-08
5.46799e-08
7.78554e-08
9.88368e-08
1.05087e-07
1.03161e-07
1.02529e-07
9.96521e-08
9.35065e-08
4.3281e-08
5.89869e-08
4.90336e-33
9.68624e-33
2.20472e-07
2.74603e-07
2.98613e-07
1.41844e-07
1.15976e-07
1.02449e-07
1.71098e-07
8.31565e-08
7.6048e-08
5.77516e-08
5.20274e-08
5.4384e-08
8.97345e-08
1.1239e-07
1.21732e-07
7.56862e-08
5.85528e-08
6.84158e-08
7.6964e-08
6.29415e-08
6.22083e-08
6.25123e-08
6.23933e-08
6.65554e-08
5.37479e-08
5.92871e-08
4.62738e-33
1.85741e-08
2.81868e-08
3.62883e-08
2.70527e-08
2.94803e-08
3.85351e-08
2.93527e-08
3.50066e-08
3.91359e-08
4.11832e-08
4.64324e-08
5.20956e-08
5.29245e-08
5.24463e-08
5.09223e-08
4.84664e-08
4.43699e-08
4.00256e-08
3.58122e-08
3.31828e-08
3.41146e-08
3.74823e-08
4.19989e-08
4.51413e-08
4.05927e-08
2.94051e-08
2.72429e-08
1.79992e-08
1.85209e-08
3.89536e-08
4.46679e-08
2.99386e-08
2.04346e-08
2.41936e-08
4.45894e-08
5.31522e-08
4.96067e-08
5.07365e-08
5.78046e-08
6.04878e-08
6.15977e-08
6.87616e-08
7.71021e-08
8.00155e-08
7.97854e-08
8.10804e-08
8.69745e-08
9.82134e-08
1.09681e-07
1.14727e-07
1.24656e-07
1.30161e-07
1.00345e-07
7.79279e-08
5.83377e-08
1.24442e-08
2.0128e-08
4.36939e-08
3.79669e-08
2.2613e-08
1.95817e-08
1.12584e-08
2.86985e-08
3.51711e-08
3.21096e-08
3.16881e-08
4.54416e-08
6.74081e-08
6.75668e-08
6.74836e-08
6.68023e-08
6.56136e-08
6.33096e-08
6.31423e-08
6.24987e-08
6.28226e-08
6.1174e-08
5.79426e-08
6.20623e-08
6.87637e-08
6.40733e-08
5.6912e-08
6.3603e-08
9.02172e-09
8.77129e-09
4.59589e-08
3.38809e-08
2.22354e-08
2.25793e-08
1.45708e-08
2.03781e-08
2.50811e-08
2.17661e-08
2.15427e-08
2.94361e-08