/*--------------------------------*- C++ -*----------------------------------*\
| =========                 |                                                 |
| \\      /  F ield         | OpenFOAM: The Open Source CFD Toolbox           |
|  \\    /   O peration     | Version:  2.3.0                                 |
|   \\  /    A nd           | Web:      www.OpenFOAM.org                      |
|    \\/     M anipulation  |                                                 |
\*---------------------------------------------------------------------------*/
FoamFile
{
    version     2.0;
    format      ascii;
    class       volVectorField;
    location    "1.59928";
    object      U.air;
}
// * * * * * * * * * * * * * * * * * * * * * * * * * * * * * * * * * * * * * //

dimensions      [0 1 -1 0 0 0 0];

internalField   nonuniform List<vector> 
18816
(
(-0.0265638 0.019289 -0.00217034)
(-0.0324687 0.00966288 -0.00167396)
(-0.0028925 0.00672212 -0.00133229)
(0.0221389 0.0077348 0.000592499)
(0.0254983 0.0104333 0.000654534)
(0.0181899 0.0147594 -0.000773685)
(0.00842167 0.0226309 -0.00132068)
(-0.0273445 0.0192097 -0.000387297)
(-0.0457101 0.0135423 -0.00228522)
(-0.0460352 0.0136629 -0.00198099)
(-0.0590457 0.0160806 -0.0024942)
(-0.0683241 0.0185212 -0.00253572)
(-0.077435 0.0192356 -0.0024735)
(-0.0850354 0.0219718 -0.00247609)
(-0.0904114 0.023054 -0.00254142)
(-0.0951457 0.0246365 -0.00259994)
(-0.0992239 0.0269491 -0.00272569)
(-0.102288 0.0295621 -0.00294785)
(-0.103315 0.0309633 -0.00312931)
(-0.0989554 0.0318785 -0.00351304)
(-0.0853278 0.031531 -0.00382096)
(-0.0610406 0.0298219 -0.00417974)
(-0.0331787 0.0300021 -0.0039761)
(-0.0042568 0.0276948 -0.00369339)
(0.020195 0.0259266 -0.00365554)
(0.0436888 0.026017 -0.00312542)
(0.0406101 0.0289641 -0.00257802)
(0.02581 0.0239814 -0.00375437)
(-0.0142058 0.078532 -0.00179329)
(-0.0135396 0.0177549 0.00101668)
(-0.00194269 -0.012859 0.00129349)
(0.00215997 -0.0190155 0.00110237)
(-0.00191109 -0.00680986 0.000791508)
(3.21072e-05 0.0334504 0.000322917)
(-0.00464895 0.0741618 -0.00220189)
(-0.0266779 0.08482 -0.00253227)
(-0.0461746 0.0819274 -0.00398656)
(-0.04719 0.080181 -0.00380049)
(-0.0558249 0.0749611 -0.00315939)
(-0.064416 0.0706056 -0.000849909)
(-0.0732744 0.0639368 -0.000938914)
(-0.0796106 0.056533 -0.000704661)
(-0.0832617 0.0524099 -0.000605963)
(-0.0858892 0.0494204 -0.000425889)
(-0.0881113 0.048621 -0.000261601)
(-0.0897159 0.0490017 -9.51285e-05)
(-0.0903361 0.0491282 0.000246579)
(-0.0879215 0.0481038 0.000586741)
(-0.0788228 0.0466849 0.000539083)
(-0.0592735 0.0476697 0.000322528)
(-0.0369332 0.0464085 0.000156124)
(-0.0114672 0.0448795 2.67639e-05)
(0.00712466 0.0438316 7.85904e-05)
(0.0256796 0.0441424 -0.000139987)
(0.0254782 0.0550476 -4.41583e-05)
(0.0157682 0.0984461 -0.00325629)
(-0.00814948 0.0760241 -0.000415333)
(-0.00455024 -0.0151741 0.00041031)
(-0.00206627 -0.0374659 0.00040543)
(-0.00144317 -0.0269353 0.000421573)
(-0.00909726 -0.00667355 0.000128071)
(-0.0107561 0.0214559 -0.000538368)
(-0.0245681 0.0893737 -0.00440364)
(-0.0264813 0.104005 -0.00644235)
(-0.0266137 0.0990154 -0.00711251)
(-0.028201 0.0900012 -0.00588907)
(-0.0395939 0.0831291 -0.00788131)
(-0.0535224 0.0674575 -0.00177978)
(-0.0601829 0.0622016 0.000325715)
(-0.0653186 0.0558602 0.000259676)
(-0.0682461 0.0502433 0.000406398)
(-0.0687485 0.0466997 0.000502044)
(-0.069706 0.0456305 0.000861489)
(-0.0722524 0.0444248 0.00168264)
(-0.0762214 0.0383892 0.00292813)
(-0.0764021 0.0289831 0.00313979)
(-0.0693393 0.0205726 0.00259872)
(-0.0539156 0.018789 0.00184002)
(-0.035779 0.0191467 0.00089934)
(-0.0144739 0.0200158 0.000386897)
(0.000814479 0.0207849 0.000443743)
(0.0193995 0.0303986 -6.40437e-05)
(0.0140954 0.0495499 0.000231826)
(0.00865743 0.104843 -0.00173565)
(-0.00403835 0.078136 0.000163368)
(-0.00449299 -0.0134841 6.27016e-05)
(-0.00588389 -0.0413625 0.000193445)
(-0.00501572 -0.0239864 0.000381931)
(-0.00878579 0.00342116 0.0001144)
(-0.0110714 0.0313528 0.000290702)
(-0.022305 0.094112 0.000314095)
(-0.0222817 0.116891 -0.000249908)
(-0.0159 0.109613 -0.00100571)
(-0.0152584 0.0934551 -0.000571824)
(-0.0222414 0.0863866 -0.000670321)
(-0.0351704 0.0770315 -0.00643617)
(-0.0484725 0.0616122 -3.17184e-05)
(-0.052605 0.0492006 0.000907742)
(-0.0488144 0.0361043 0.00134791)
(-0.0441427 0.0280371 0.00129288)
(-0.0408364 0.024114 0.00127498)
(-0.0409401 0.0145794 0.00143598)
(-0.0365422 -0.00666929 0.00201078)
(-0.0391429 -0.0196634 0.00209872)
(-0.0422923 -0.0219172 0.00168144)
(-0.0380623 -0.0195357 0.00124083)
(-0.0279746 -0.0123845 0.000937424)
(-0.0133077 -0.00539225 0.000317584)
(-0.00347333 -0.00317957 0.000165544)
(0.0121146 0.0218655 0.000416639)
(0.00922393 0.0540435 0.000559462)
(0.00345841 0.113157 -0.000753187)
(-0.00317896 0.0765874 4.3341e-05)
(-0.00353101 -0.00847891 -0.000401771)
(-0.00650406 -0.0435172 -2.12529e-05)
(-0.00600294 -0.0243087 0.000120864)
(-0.00869135 0.00468387 3.34576e-05)
(-0.0115201 0.0366481 -0.000114822)
(-0.0186386 0.0966221 -0.000442305)
(-0.0180262 0.116452 0.000290692)
(-0.0135243 0.109207 -0.000184095)
(-0.0117443 0.0935475 -7.29188e-05)
(-0.0150976 0.0865991 8.56385e-05)
(-0.0244171 0.0756409 -0.0023985)
(-0.0404619 0.0580744 6.67624e-05)
(-0.0402634 0.0367723 0.000509573)
(-0.0293052 0.0162199 4.40482e-05)
(-0.0209797 0.0103609 -0.000396221)
(-0.0146107 0.00842898 -0.000266464)
(-0.0110486 -0.00253427 0.00010213)
(-0.0116368 -0.0234545 0.00102931)
(-0.0208895 -0.0364334 0.00139986)
(-0.0268122 -0.0399354 0.00108523)
(-0.027399 -0.0386306 0.000692813)
(-0.0226468 -0.0318051 0.000340013)
(-0.0123918 -0.0211414 0.000171519)
(-0.00618117 -0.010115 -4.75239e-05)
(0.0036462 0.00345213 0.000118496)
(0.00815519 0.0502104 0.000260577)
(0.0017634 0.11618 -0.000750097)
(0.000874704 0.0755378 1.04922e-06)
(-0.00378787 0.00271608 -0.000244312)
(-0.00688397 -0.0432312 -7.55853e-05)
(-0.00595707 -0.0233334 0.000179503)
(-0.00768955 0.00945049 0.000157713)
(-0.0112469 0.046118 0.00223558)
(-0.0164328 0.104665 0.00542922)
(-0.0154168 0.12745 -0.000522719)
(-0.0115865 0.110434 -0.0002896)
(-0.0096663 0.0937054 -0.000216812)
(-0.0114002 0.0868758 0.000320325)
(-0.0178126 0.0745308 -0.00189691)
(-0.0343537 0.0552331 0.000439009)
(-0.0309748 0.0244506 0.000470696)
(-0.0248554 0.0118885 1.40663e-05)
(-0.0177631 0.00975176 -0.000363587)
(-0.0113557 0.0101007 -0.000358303)
(-0.00790184 0.00162854 -0.000262747)
(-0.00912974 -0.0274646 0.000356185)
(-0.0139063 -0.0411889 0.000459725)
(-0.0158799 -0.0460379 0.000508234)
(-0.0178901 -0.0460746 0.000451482)
(-0.0155377 -0.0397909 0.000222912)
(-0.009448 -0.0319901 0.000151066)
(-0.00417872 -0.0156989 -1.05886e-05)
(0.00208206 -0.00211676 2.13696e-05)
(0.00557958 0.0477995 0.000200035)
(0.000619745 0.119303 -0.000457262)
(0.00219507 0.0735749 -2.87964e-05)
(-0.000540382 0.00999572 0.000406652)
(-0.0040683 -0.0419458 -0.000104855)
(-0.00542778 -0.0240391 3.12096e-05)
(-0.0101932 0.0172431 -0.000163676)
(-0.0173664 0.070241 0.0010916)
(-0.0220869 0.124641 0.00340106)
(-0.0131287 0.126538 0.00901859)
(-0.0117149 0.117417 0.00620501)
(-0.0100168 0.0943107 0.00461168)
(-0.00900213 0.085739 -0.000162651)
(-0.0113897 0.0717664 -0.0011953)
(-0.024229 0.0488076 0.000633654)
(-0.0243252 0.0171682 0.000661877)
(-0.0243614 0.0095909 4.67331e-05)
(-0.0186596 0.00903785 -0.000313181)
(-0.0145638 0.0114737 -0.000256158)
(-0.0102002 0.00246189 2.36029e-05)
(-0.0106836 -0.0284865 0.000117736)
(-0.0111212 -0.0397082 -0.000387439)
(-0.0097824 -0.0471042 4.32297e-05)
(-0.0116134 -0.0498119 5.98693e-05)
(-0.00972525 -0.0449622 0.000116809)
(-0.00642801 -0.0377552 0.000116261)
(-0.00292645 -0.0217315 2.24514e-05)
(0.00170372 -0.00453984 -3.28949e-05)
(0.0032408 0.0455507 8.78865e-05)
(0.000580926 0.120836 -0.000291427)
(0.00274159 0.0716114 3.90614e-05)
(0.00124057 7.05071e-05 0.000647631)
(-0.00268965 -0.0363691 -0.000242079)
(-0.00334785 -0.0214501 -5.68686e-05)
(-0.00933362 0.0226299 3.67448e-05)
(-0.0175927 0.076935 0.000656888)
(-0.0224694 0.127151 0.00109731)
(-0.0199333 0.139638 0.00421684)
(-0.0190869 0.117966 0.00384645)
(-0.0164574 0.0982092 0.00274796)
(-0.00757273 0.0867783 0.000228548)
(-0.00689134 0.0704975 -0.00102092)
(-0.0135143 0.0407316 0.000342787)
(-0.0165378 0.0120158 0.000680378)
(-0.0201248 0.00774001 0.000227093)
(-0.0169698 0.00948653 -0.000225159)
(-0.0151426 0.0131985 -0.000260772)
(-0.010201 -0.00445976 -0.0001713)
(-0.00943847 -0.0260411 -9.71839e-06)
(-0.00876775 -0.0344712 -0.000362492)
(-0.00674742 -0.0448051 -2.84013e-06)
(-0.00725388 -0.0496552 -6.24125e-05)
(-0.00560263 -0.0475551 6.03777e-05)
(-0.00339336 -0.0418547 4.86426e-05)
(-0.000513092 -0.0265944 6.95222e-05)
(0.0025183 -0.00558736 -3.23528e-05)
(0.0020021 0.0446736 0.000120938)
(0.000525836 0.121984 -0.000203237)
(0.00397601 0.0667001 -0.000106948)
(0.00554481 0.00174864 4.58586e-05)
(0.00187502 -0.0289522 -0.000299518)
(-0.000676483 -0.0186196 -0.000313787)
(-0.00508429 0.0241806 -3.35055e-05)
(-0.0139635 0.0818207 0.000390228)
(-0.0207132 0.126436 0.000400846)
(-0.0199154 0.132889 0.00146136)
(-0.0229874 0.110229 0.00146671)
(-0.017941 0.0885987 0.00091523)
(-0.00465449 0.0875866 0.00527128)
(-0.00295397 0.0698109 0.00325746)
(-0.000751054 0.0436702 0.00013998)
(-0.00285911 0.00899861 0.000387443)
(-0.00950801 0.00501294 0.000249525)
(-0.011825 0.0124591 -1.24979e-05)
(-0.0189615 0.015203 -6.31557e-05)
(-0.00766742 0.0063826 -0.00102574)
(-0.00445149 -0.0186941 -0.000383452)
(-0.00448899 -0.028652 -0.000518265)
(-0.0047937 -0.0438295 -4.53403e-05)
(-0.00414125 -0.0497718 -0.000188304)
(-0.00246796 -0.0490903 -5.00244e-05)
(-0.000704484 -0.0441775 1.81211e-05)
(0.00124519 -0.0307707 0.000100063)
(0.00313863 -0.00640671 3.4914e-05)
(0.0013504 0.0444357 0.000156458)
(0.000452075 0.123254 -0.000124174)
(0.00583021 0.0687384 -0.000563765)
(0.0131007 0.0129039 -0.000229082)
(0.0064446 -0.0184675 -0.000153785)
(0.00225001 -0.0101159 -0.000448634)
(-0.00274835 0.0295352 2.30523e-05)
(-0.0126334 0.0883587 0.00048271)
(-0.0206682 0.12697 0.000334362)
(-0.0206762 0.130277 0.000455671)
(-0.0304014 0.113164 0.00095498)
(-0.0275013 0.0771349 -0.000342036)
(-0.00432375 0.0844962 0.00234345)
(0.00224039 0.0665979 0.00163831)
(0.0183298 0.0371758 -8.34313e-05)
(0.0162315 0.0145807 -7.91526e-05)
(0.00791955 0.00912512 -2.57227e-05)
(0.00188748 0.015403 8.68283e-05)
(0.00257561 0.0176836 -0.000165299)
(-0.00129434 0.00355777 0.000910254)
(-0.0062405 -0.0123621 -0.000574819)
(-0.00188229 -0.0267577 0.000171295)
(-0.00428669 -0.0430014 -2.42627e-05)
(-0.00194996 -0.0505339 3.70848e-05)
(-0.00103152 -0.0501534 -2.04368e-05)
(0.00113039 -0.0461397 1.03907e-05)
(0.00267931 -0.0335711 7.55178e-05)
(0.00357825 -0.00747049 4.7048e-05)
(0.00148494 0.0443853 0.000177852)
(0.000304952 0.124151 -9.84384e-05)
(0.00638875 0.0737043 -0.000206181)
(0.0140437 0.0245235 0.000136452)
(0.00626053 -0.0138221 0.000304143)
(0.00313998 -0.00345556 -0.000312425)
(-0.00219343 0.0312582 0.000217193)
(-0.0102661 0.0929183 0.000592246)
(-0.0185963 0.125991 0.000412902)
(-0.0142135 0.129381 0.000775276)
(-0.0393877 0.102569 0.00395945)
(-0.0442231 0.0658291 -0.00109265)
(-0.0116616 0.0642833 5.58681e-05)
(0.000705753 0.0535191 -0.00106384)
(0.0176608 0.0316569 -0.000571796)
(0.011371 0.0204805 -0.00057917)
(0.00570557 0.0166107 -0.000288961)
(0.00226617 0.0171835 -0.000280991)
(0.00498947 0.018238 -0.000487431)
(0.00940509 0.00109301 7.92821e-06)
(0.00503644 -0.00999361 0.000284785)
(0.00157855 -0.0272666 -4.74425e-05)
(-0.000862467 -0.0432275 3.25578e-05)
(-0.000193741 -0.0521116 -8.82331e-05)
(0.00123719 -0.0514009 -6.59798e-05)
(0.00307297 -0.0476395 -3.74791e-05)
(0.00419267 -0.0350336 2.2771e-05)
(0.00451594 -0.0077579 3.47014e-05)
(0.00194806 0.0441071 0.000215258)
(0.000365187 0.124522 -8.73108e-05)
(0.00391758 0.072963 0.00032049)
(0.00735947 0.0201362 0.00102868)
(0.00144278 -0.0167364 0.000434425)
(0.000934592 0.00288803 -0.00014867)
(-0.00484697 0.0330421 0.000282143)
(-0.012854 0.095053 0.000536571)
(-0.0177527 0.122635 0.000390754)
(-0.0149334 0.124306 0.000995969)
(-0.0334601 0.082942 0.00205517)
(-0.0312903 0.0559146 2.85344e-05)
(-0.0158669 0.056352 -0.000231873)
(-0.00380145 0.0514273 -0.000225749)
(0.00506081 0.0364572 -0.000313855)
(0.00341438 0.0323123 -0.000200824)
(0.00186765 0.0228658 -7.61415e-05)
(0.00135291 0.023564 -0.000248142)
(0.00428286 0.0224777 -0.000328472)
(0.00825881 0.00202545 -5.955e-05)
(0.0102697 -0.0101507 -5.89885e-08)
(0.00840253 -0.0236721 0.000264499)
(0.000871309 -0.0435243 0.000250989)
(0.00149523 -0.0518924 2.16421e-05)
(0.00218956 -0.0520733 -1.52099e-05)
(0.00399536 -0.0485834 -6.45718e-05)
(0.00526041 -0.0353922 -6.77002e-05)
(0.0053342 -0.00687287 -1.69391e-05)
(0.00225775 0.0444618 0.000236587)
(0.000129548 0.124758 -9.44616e-05)
(0.00219924 0.0675403 0.000445093)
(-0.00139914 0.000908733 0.000436754)
(-0.00241759 -0.0177249 -0.000102337)
(-0.000871553 0.00443204 -0.000134898)
(-0.00821879 0.0358061 0.000324189)
(-0.0163472 0.0950377 0.000474013)
(-0.0194251 0.117883 0.000336684)
(-0.0183626 0.118053 0.000930868)
(-0.0292298 0.0737383 0.0012229)
(-0.0284718 0.0442224 0.000299105)
(-0.0186973 0.0453331 -0.000228062)
(-0.00948896 0.0415547 -8.2496e-05)
(-0.00256598 0.0312213 -0.000261112)
(0.00191792 0.0305823 -5.3389e-05)
(0.00169528 0.0226552 -7.92056e-05)
(0.00341308 0.0212107 -8.84269e-05)
(0.00584141 0.0165671 -9.65752e-05)
(0.0120338 -0.00339505 6.51149e-05)
(0.0154377 -0.0137653 0.000154006)
(0.0119747 -0.0242681 0.000559777)
(0.0021899 -0.0466871 0.000379449)
(0.00269056 -0.0535293 3.93548e-05)
(0.00304209 -0.0531353 -1.22563e-05)
(0.00482628 -0.0495157 -7.50722e-05)
(0.00611662 -0.0347413 -0.000137205)
(0.00590223 -0.00478116 -5.40322e-05)
(0.00214596 0.04537 0.00025437)
(0.000103334 0.124321 -9.3527e-05)
(0.00216777 0.0587544 0.000258481)
(-0.00390244 -0.0130865 0.000480673)
(-0.0048884 -0.0150999 -0.000256745)
(-0.00362107 0.00684068 -0.000126284)
(-0.0104659 0.0372281 0.000321277)
(-0.0167488 0.0946052 0.00027798)
(-0.0181683 0.114147 0.000166206)
(-0.0172035 0.109982 0.000796274)
(-0.0246684 0.0683744 0.00103239)
(-0.0244988 0.0381089 8.80896e-06)
(-0.0186743 0.0383983 -0.000308401)
(-0.0102647 0.0368899 -0.000199942)
(-0.00511761 0.0285031 -0.000314899)
(0.00101993 0.0314919 -8.5863e-05)
(0.000878839 0.0228166 -0.000169061)
(0.00466354 0.021975 -0.000141992)
(0.0103388 0.0140892 5.28566e-05)
(0.0168728 -0.00905934 0.000136289)
(0.0185481 -0.013183 0.000127096)
(0.0143379 -0.024627 0.000885736)
(0.00320387 -0.0499902 0.000227963)
(0.00404351 -0.0538729 9.09927e-05)
(0.00335207 -0.0534809 -6.22133e-06)
(0.0049113 -0.0501275 -6.67621e-05)
(0.00585784 -0.0331654 -0.00016212)
(0.00561628 -0.00165144 -8.64761e-05)
(0.000802767 0.0463811 0.000189889)
(-9.15858e-05 0.123354 -2.87599e-05)
(0.00245683 0.0527845 2.20865e-05)
(-0.00469853 -0.014958 0.000204374)
(-0.00746991 -0.0124124 -0.000326503)
(-0.0060728 0.00838726 -0.000101506)
(-0.012504 0.0364878 0.000352256)
(-0.0165787 0.0928459 0.000259955)
(-0.0172741 0.112247 6.68758e-05)
(-0.0149959 0.105333 0.000414885)
(-0.0223333 0.0645425 0.00105279)
(-0.0262001 0.0355328 0.000244775)
(-0.0187357 0.03341 -0.000169266)
(-0.0139617 0.0321529 3.82293e-05)
(-0.00740994 0.0201889 -0.0001782)
(-7.82005e-05 0.0272019 4.31764e-06)
(0.00011462 0.0186971 -7.54545e-05)
(0.00820377 0.0141349 0.000163787)
(0.0171195 0.00178055 0.000309064)
(0.0195156 -0.0131513 0.000138899)
(0.0207759 -0.0160171 8.1173e-05)
(0.0147943 -0.0288228 0.000945601)
(0.0043292 -0.0530302 0.000351128)
(0.0046519 -0.0542223 0.000122245)
(0.00335989 -0.0534838 5.44944e-06)
(0.0039245 -0.0501889 -3.70594e-05)
(0.00396943 -0.0318354 -8.35413e-05)
(0.00399781 0.00222247 -0.000140754)
(-0.00181099 0.0497257 6.59975e-05)
(-0.000855752 0.121567 0.000138097)
(0.00234002 0.0502819 -7.27008e-05)
(-0.00547279 -0.012236 3.47038e-05)
(-0.00930864 -0.00921297 -0.000324495)
(-0.00842196 0.0091612 -5.53952e-05)
(-0.0144905 0.0327092 0.000459833)
(-0.017737 0.0871871 0.000454739)
(-0.0165827 0.10929 0.000241031)
(-0.0126537 0.102956 0.000581161)
(-0.0210434 0.0629534 0.0010648)
(-0.0234067 0.0300458 0.000271889)
(-0.0183115 0.0268014 -0.000211095)
(-0.0159924 0.0274463 0.000251638)
(-0.0101377 0.0159839 0.0002286)
(0.00226405 0.0242222 0.000382375)
(0.0066659 0.0166094 0.000169045)
(0.0170198 0.00285225 0.000401009)
(0.0172916 -0.00681199 0.000349898)
(0.019393 -0.0151797 4.73209e-05)
(0.0189113 -0.0153723 0.000365437)
(0.0129783 -0.033254 0.000967268)
(0.00467611 -0.0546411 0.000243954)
(0.0052174 -0.0536388 0.000118711)
(0.00287031 -0.0523763 7.87573e-06)
(0.00196456 -0.0490296 -1.53767e-05)
(9.39389e-05 -0.0308674 5.70835e-05)
(0.000551192 0.00769958 -0.00028657)
(-0.00576397 0.0562093 1.25154e-06)
(-0.00132536 0.117768 0.00035115)
(0.00224307 0.0495981 -0.000134522)
(-0.006453 -0.00719955 -5.91265e-05)
(-0.0108846 -0.00556399 -0.000349435)
(-0.0107613 0.0092441 1.08769e-05)
(-0.0166024 0.0261934 0.000465425)
(-0.0227399 0.0722651 0.000884732)
(-0.0193876 0.0990304 0.00052744)
(-0.0144011 0.0925986 0.00108334)
(-0.025578 0.054272 0.00159002)
(-0.0249032 0.0266415 3.43443e-05)
(-0.015228 0.0248358 -3.04415e-05)
(-0.0104133 0.0255304 -0.000135032)
(-0.00517418 -0.0029539 0.000318661)
(0.00352855 0.0114442 -9.06667e-05)
(0.00903654 -0.000878927 0.00032262)
(0.0109617 -0.00493592 -0.000231908)
(0.0167286 -0.0104674 -0.000143566)
(0.0168716 -0.017732 0.000507782)
(0.0161954 -0.0175754 -0.000171698)
(0.0143686 -0.0381064 0.00082767)
(0.00653448 -0.0545558 0.000147807)
(0.00615361 -0.0519675 9.5363e-05)
(0.00277555 -0.0498931 1.51392e-05)
(-2.22812e-05 -0.0463932 3.22589e-05)
(-0.00408521 -0.031434 0.000266373)
(-0.0032788 0.0140929 -0.000209751)
(-0.00630345 0.059583 1.75283e-06)
(-0.00209463 0.115297 0.000448646)
(0.00225712 0.0515242 -0.000232901)
(-0.00690057 -0.000157042 -0.000232048)
(-0.0114867 -0.00100588 -0.000348912)
(-0.0122115 0.0103292 5.74099e-05)
(-0.0169211 0.0192152 7.37442e-05)
(-0.025789 0.0511051 0.00170888)
(-0.0247414 0.0751879 0.00155832)
(-0.0164244 0.0737995 0.00180623)
(-0.0227362 0.0450194 0.00312977)
(-0.0198984 0.019431 0.000764577)
(-0.0106189 0.0158966 0.000448573)
(-0.000913774 0.0204843 0.000318792)
(0.00112789 -0.00537466 0.000138026)
(0.00198266 -0.00172649 0.000109115)
(0.00620465 -0.00480465 8.74285e-05)
(0.00884735 -0.00775862 0.00013575)
(0.00966439 -0.0139603 7.09553e-05)
(0.0129267 -0.0188208 -1.88648e-05)
(0.015289 -0.0200178 0.000285988)
(0.0131176 -0.0394131 0.000327124)
(0.00785754 -0.0517764 -9.64227e-05)
(0.00740619 -0.048406 4.5677e-05)
(0.0029426 -0.0460465 -1.03603e-06)
(-0.0009641 -0.0425266 4.55141e-05)
(-0.00608766 -0.0317945 0.000390103)
(-0.00536988 0.0120102 0.00036776)
(-0.0032244 0.0606597 -4.48073e-05)
(-0.00112237 0.113331 0.00024751)
(0.00246499 0.0581337 -0.000303995)
(-0.00598923 0.0118897 -0.000336743)
(-0.0109112 0.00465199 -0.000302469)
(-0.011535 0.0137707 -0.000127405)
(-0.0131662 0.0174465 0.000125511)
(-0.0171014 0.02699 0.000101038)
(-0.0164171 0.0395186 0.000678664)
(-0.00710599 0.0349977 0.00126404)
(-0.0125537 0.00735037 0.000609609)
(-0.0144484 0.00132992 0.000242618)
(-0.00910172 -0.00185038 2.70827e-05)
(-0.00224713 0.00333783 0.000100858)
(0.000494237 -0.00739171 0.00024343)
(-0.00071647 -0.0033704 0.000323495)
(0.00272181 -0.0118569 -0.000187983)
(0.00634842 -0.0113795 0.000208984)
(0.00335246 -0.0166526 0.000329817)
(0.00928075 -0.0257828 -0.000432091)
(0.0149473 -0.0260628 0.00054524)
(0.0140016 -0.0380817 0.000337675)
(0.008054 -0.0465041 -0.000268264)
(0.00828925 -0.0441206 5.23776e-05)
(0.00349836 -0.0417017 -2.35659e-06)
(-0.000457988 -0.0385666 6.14099e-05)
(-0.00442314 -0.031848 0.000153971)
(-0.00401215 -0.00185443 0.000199765)
(0.00324075 0.0587013 -0.000125544)
(-0.00058375 0.113857 -0.000200567)
(0.000881815 0.06288 -5.97529e-05)
(-0.00395018 0.0207815 3.85316e-05)
(-0.00846458 0.00898841 -0.000220281)
(-0.00840854 0.0159374 -0.000165405)
(-0.00640072 0.0186243 -1.93842e-05)
(-0.00769013 0.0164956 0.000506843)
(-0.0110219 0.0119412 0.000286887)
(-0.0150378 0.00482363 0.000252102)
(-0.0189778 -0.00208882 0.000102162)
(-0.0143409 -0.00360594 -0.000606872)
(-0.00954313 -0.00612873 -0.000375746)
(-0.00406614 -0.00289157 -0.000515766)
(-0.00285284 -0.00949595 -0.000217208)
(-0.00171577 -0.00712176 -0.000400036)
(-0.000946374 -0.0127265 -0.000177417)
(-0.00266959 -0.0132295 -0.000502432)
(0.00191338 -0.0196885 -0.000617536)
(0.00323851 -0.0284411 -0.000383897)
(0.0160316 -0.0339275 -0.000482489)
(0.0178326 -0.0411169 0.000863786)
(0.00958022 -0.0417817 -0.000144882)
(0.00885062 -0.0406852 0.000108779)
(0.00406319 -0.037806 4.87066e-06)
(0.000904228 -0.0351329 5.27336e-05)
(-0.00161559 -0.0289524 2.61578e-05)
(-0.00219193 -0.00522137 7.67252e-05)
(0.00457179 0.0588791 -0.000241785)
(-0.000281483 0.116804 -0.00044049)
(-0.000414348 0.063051 -1.52372e-05)
(-0.00355779 0.0187203 0.000274383)
(-0.00664322 0.0127221 -0.000213329)
(-0.00600073 0.0177067 -0.000182474)
(-0.00360622 0.0202122 -6.89357e-05)
(-0.00409402 0.018365 7.1773e-05)
(-0.00847676 0.013274 0.000146063)
(-0.0143747 0.0103545 6.84804e-05)
(-0.0228092 0.00434452 0.000593615)
(-0.023814 0.00117996 -0.000683046)
(-0.0141597 0.00198738 -0.000769071)
(-0.0110308 0.00486854 -0.000670953)
(-0.00692647 -0.000697577 -0.00101991)
(-0.0064039 0.000589767 -0.00101191)
(-0.0061186 -0.00223596 -0.00111937)
(-0.00939633 -0.00204911 -0.00124044)
(-0.00684353 -0.0070888 -0.00173366)
(-0.00813621 -0.015576 -0.00213588)
(0.0156382 -0.0209292 -0.0028937)
(0.0201448 -0.0321863 -0.000214794)
(0.0120143 -0.0353066 -0.000206771)
(0.00871816 -0.0353733 5.78463e-06)
(0.0045673 -0.0339246 -6.16855e-06)
(0.00161653 -0.0327796 4.78712e-05)
(0.00035107 -0.0274672 3.01749e-06)
(-0.000726517 -0.00550997 8.31749e-05)
(0.00421329 0.0596544 -0.000270007)
(0.000540315 0.119972 -0.000372084)
(6.48806e-05 0.0618473 2.0807e-06)
(-0.00340195 0.0134963 0.000172822)
(-0.00467492 0.015054 -0.000217585)
(-0.00155719 0.0178215 -0.000178083)
(0.00171894 0.0192117 2.2296e-05)
(0.00396857 0.0185754 0.000151502)
(0.00527616 0.0139843 0.000286153)
(0.00804923 0.00603625 0.000947721)
(0.00343317 -0.0122327 0.00199921)
(-0.00443546 -0.0136234 0.00220064)
(-0.00828142 -0.00990639 0.00204482)
(-0.00976465 -0.00577175 0.00167897)
(-0.0085284 -0.00198178 0.00121379)
(-0.00789451 0.0025963 0.00089587)
(-0.00648368 0.00345418 0.000853928)
(-0.00816618 0.00552669 0.000894871)
(-0.00838816 0.00427445 0.00069159)
(-0.00738081 0.00100625 0.000381179)
(-0.00294812 -0.00212133 0.000105413)
(0.0021874 -0.0252493 -8.32565e-05)
(0.00377934 -0.0316022 -0.000120439)
(0.0043227 -0.0331322 7.60427e-07)
(0.00292543 -0.0319436 5.54586e-06)
(0.00163009 -0.031697 4.94967e-05)
(0.0010796 -0.0256926 -9.3895e-06)
(0.000322149 -0.00595816 8.43258e-05)
(0.00344385 0.060793 -0.000208807)
(0.000964719 0.123294 -0.00031897)
(0.000854721 0.0595153 -6.64595e-05)
(-0.00409995 0.0119404 0.000115811)
(-0.00490746 0.0158247 -0.000185637)
(-0.000807343 0.0174574 -0.000242938)
(0.00218116 0.0174464 -6.98573e-05)
(0.0048517 0.0157104 -3.26998e-05)
(0.00663937 0.00855603 7.96922e-05)
(0.00778408 -0.00648077 0.000341526)
(0.00222358 -0.026607 0.000443504)
(-0.00329269 -0.0342611 0.000483477)
(-0.00556996 -0.0347246 0.000630457)
(-0.00610264 -0.0320832 0.000485152)
(-0.0047055 -0.0253721 0.000454595)
(-0.0067443 -0.0167416 0.00023483)
(-0.00647895 -0.0135048 5.82974e-05)
(-0.00859758 -0.0124109 0.000177556)
(-0.00733485 -0.0141096 -0.000299735)
(-0.0045519 -0.0154851 -0.000100154)
(-0.00043732 -0.0189525 -0.00029494)
(0.00352755 -0.0275308 -8.36943e-05)
(0.00260823 -0.0322925 -5.95075e-05)
(0.00310897 -0.0325181 7.32054e-06)
(0.00224501 -0.0311983 6.55642e-06)
(0.00200496 -0.0314865 1.93722e-05)
(0.00171693 -0.022098 5.01219e-05)
(0.00131703 -0.00649285 0.000100995)
(0.00288941 0.0611109 -0.000108554)
(0.00105947 0.125517 -0.000267889)
(0.00140057 0.0590503 -8.45677e-05)
(-0.00406094 0.0120512 7.14249e-05)
(-0.00442863 0.0153494 -8.36425e-05)
(-0.000194233 0.0161904 -0.000111535)
(0.00298153 0.0156258 1.228e-05)
(0.00610564 0.0141141 9.02137e-05)
(0.00808903 0.007193 0.000204015)
(0.00729348 -0.00712441 0.0006202)
(0.00152818 -0.0265612 0.000597435)
(-0.00322956 -0.0338445 0.000575352)
(-0.00507517 -0.0358965 0.00059852)
(-0.00179067 -0.0320542 3.37303e-06)
(0.00259838 -0.0268788 0.000394453)
(0.00172037 -0.0187144 0.000720497)
(-0.00195138 -0.0124963 0.00068824)
(-0.00698084 -0.0089923 0.000688826)
(-0.00787349 -0.00686662 7.85938e-05)
(-0.00563799 -0.011366 0.000167635)
(-0.00356294 -0.0160794 -1.49385e-05)
(-0.000584489 -0.0273613 -2.17667e-06)
(0.000378246 -0.0321651 -1.5123e-05)
(0.00138815 -0.0327029 -6.42085e-06)
(0.00139844 -0.0316833 8.88553e-06)
(0.00217226 -0.0319305 1.20901e-05)
(0.00160167 -0.0180422 6.22029e-05)
(0.00189265 -0.00681769 8.27775e-05)
(0.00249377 0.0616672 -2.4664e-05)
(0.000890732 0.128377 -0.000238191)
(0.00235247 0.0581535 -0.000141411)
(-0.00468005 0.0118743 0.000132535)
(-0.00534573 0.0139951 -1.42832e-05)
(-0.00152707 0.0137229 3.00694e-05)
(0.000764445 0.013029 6.40029e-05)
(0.00385728 0.011287 0.000133956)
(0.00459944 0.00370097 0.000289056)
(0.00299203 -0.0124468 0.000193067)
(-0.0007719 -0.0289205 1.18671e-05)
(-0.00459326 -0.0341678 -0.000214439)
(-0.00372742 -0.0354151 -0.000443412)
(4.49357e-05 -0.0278432 -0.000632093)
(0.00397282 -0.0270767 -0.000360394)
(0.00438527 -0.023391 -5.09274e-05)
(0.00129206 -0.0200326 0.000189355)
(-0.00264518 -0.0181136 0.000422947)
(-0.00487096 -0.0147126 0.000128054)
(-0.00430118 -0.0168543 8.86868e-05)
(-0.00290369 -0.0208032 -1.32636e-05)
(-0.0010931 -0.0291525 -7.13239e-06)
(-8.89596e-05 -0.033171 -2.85706e-05)
(0.000782312 -0.0330375 -7.57575e-06)
(0.00107105 -0.0328369 -3.64971e-06)
(0.00207462 -0.032756 4.18809e-05)
(0.00171424 -0.0182773 5.63988e-05)
(0.00261586 -0.00790087 8.00176e-05)
(0.00238468 0.0615893 9.30849e-05)
(0.000672391 0.129984 -0.000217755)
(0.00284632 0.0585266 -0.000123565)
(-0.00462767 0.0122644 9.40932e-05)
(-0.0053176 0.011427 7.28504e-06)
(-0.00225428 0.0092908 0.000126254)
(-0.000788451 0.00891894 0.000102373)
(0.00205767 0.00781138 0.000167165)
(0.00183752 0.000645877 0.00028044)
(-9.90678e-06 -0.013179 0.000292768)
(-0.00244014 -0.0241756 0.000126166)
(-0.00431058 -0.0241422 7.53256e-05)
(-0.00156389 -0.0218537 -0.000249372)
(0.00136888 -0.0185258 -0.000145224)
(0.00312582 -0.0167679 -0.000212062)
(0.00317298 -0.017198 0.000229377)
(0.00118951 -0.0171857 0.000192123)
(0.00100416 -0.01831 0.000334686)
(-0.0012097 -0.015286 0.00023373)
(-0.00232315 -0.0169732 0.000105653)
(-0.00179188 -0.0215563 9.85999e-06)
(-0.00108284 -0.0292113 -1.0298e-05)
(-0.000364728 -0.0326721 -2.75858e-05)
(0.000211279 -0.0325835 -3.51829e-05)
(0.000575735 -0.0331915 -3.20484e-05)
(0.00139498 -0.0336523 2.53057e-05)
(0.00155754 -0.0209918 0.000194188)
(0.00320614 -0.00906441 2.74856e-05)
(0.0023403 0.0615681 0.000200825)
(0.000337615 0.131819 -0.000166334)
(0.00298889 0.0559753 -0.000161328)
(-0.00623396 0.0121304 0.000150705)
(-0.00742446 0.0100126 -6.37112e-05)
(-0.00411248 0.00722997 3.07427e-05)
(-0.00247283 0.00757447 -2.34031e-05)
(0.00013575 0.00687109 2.46265e-05)
(-0.000938405 0.000296922 0.000121764)
(-0.00247357 -0.0120742 -8.37858e-05)
(-0.00205144 -0.018995 -0.00023236)
(-0.00149479 -0.0194708 -0.000272113)
(0.000860377 -0.0159801 -0.000435341)
(0.00146555 -0.0153727 -9.18299e-05)
(-0.000274535 -0.0136895 -0.000120114)
(-0.00145184 -0.0157544 -8.02958e-05)
(-0.000441087 -0.014603 -0.000293418)
(0.00238365 -0.015087 -0.000277246)
(0.00203467 -0.0142068 -5.04363e-05)
(0.000104238 -0.0160303 -4.15187e-05)
(-0.000206047 -0.020931 -9.05772e-06)
(-0.000210812 -0.0280383 -5.94777e-06)
(-5.5906e-05 -0.0310262 -2.71744e-05)
(0.000163817 -0.0307797 -2.24633e-05)
(0.00036245 -0.0315961 -2.00665e-05)
(0.000621603 -0.0328856 -1.07102e-05)
(0.00112575 -0.0245918 -6.09331e-05)
(0.00283291 -0.00976688 4.78841e-05)
(0.00236187 0.0609755 0.00023324)
(-0.000159939 0.132153 -0.00018646)
(0.00225602 0.0577426 -0.000188142)
(-0.00500628 0.0150044 -3.03676e-05)
(-0.00526123 0.00803095 -6.55266e-05)
(-0.00317415 0.00241636 5.03927e-05)
(-0.00255991 0.0041258 -1.17218e-05)
(-0.00105079 0.00519275 9.33367e-06)
(-0.00150285 -0.000124544 3.61906e-05)
(-0.00114433 -0.00851948 -0.000214611)
(-0.000657586 -0.0107778 -0.000344858)
(0.00016934 -0.0106585 -0.00036036)
(0.000933618 -0.00964639 -0.000257262)
(0.00072231 -0.0116536 -0.000176888)
(-0.000472973 -0.0100476 -0.000148793)
(-0.00103255 -0.00747303 -0.000310134)
(-0.000255067 -0.00545894 -0.000337432)
(0.00146609 -0.00501957 -0.000352523)
(0.00122 -0.009187 -0.000194587)
(0.00011373 -0.0133048 -0.000176143)
(-5.44425e-05 -0.0187785 -0.00018383)
(-6.73622e-05 -0.0247199 -0.000189039)
(-2.50578e-05 -0.0266431 -0.00019045)
(1.49823e-05 -0.026507 -0.000189147)
(0.000101649 -0.0273598 -0.000187989)
(0.000232226 -0.0289068 -0.0001849)
(0.000635639 -0.0281206 -0.000200868)
(0.00139905 -0.013878 1.41362e-05)
(0.00155902 0.060211 0.000167361)
(-0.000653441 0.133548 -0.000187099)
(-0.0337184 0.0179718 -0.000735867)
(-0.0360682 0.00466639 -0.00264642)
(-0.00296511 -0.00228035 -0.00295175)
(0.0249641 0.00340136 0.000827419)
(0.028757 0.00860707 0.000933691)
(0.0224718 0.0129859 -0.000990645)
(0.011791 0.0225979 -0.00380646)
(-0.0318749 0.0182205 -0.00287423)
(-0.053027 0.0161417 -0.00529657)
(-0.0540548 0.0154609 -0.00425175)
(-0.068564 0.0175407 -0.00410251)
(-0.0787041 0.0183433 -0.0038586)
(-0.088488 0.0179081 -0.00358152)
(-0.0966921 0.0201073 -0.00356148)
(-0.102359 0.0214075 -0.0036934)
(-0.107501 0.0234322 -0.0037938)
(-0.112048 0.0260148 -0.00407761)
(-0.115298 0.0286008 -0.00459743)
(-0.116305 0.0298201 -0.0052199)
(-0.110884 0.0298218 -0.00627097)
(-0.0950781 0.0280233 -0.00736486)
(-0.0677712 0.024835 -0.00841031)
(-0.0379177 0.0238455 -0.00859787)
(-0.00547672 0.0209327 -0.00846328)
(0.0212828 0.0202833 -0.00766424)
(0.0484933 0.02243 -0.00557512)
(0.046166 0.0271996 -0.00371872)
(0.0334909 0.0244791 -0.00182273)
(-0.0275183 0.0879309 -0.00111596)