/*--------------------------------*- C++ -*----------------------------------*\
| =========                 |                                                 |
| \\      /  F ield         | OpenFOAM: The Open Source CFD Toolbox           |
|  \\    /   O peration     | Version:  2.3.0                                 |
|   \\  /    A nd           | Web:      www.OpenFOAM.org                      |
|    \\/     M anipulation  |                                                 |
\*---------------------------------------------------------------------------*/
FoamFile
{
    version     2.0;
    format      ascii;
    class       volVectorField;
    location    "1.59928";
    object      U.waterMean;
}
// * * * * * * * * * * * * * * * * * * * * * * * * * * * * * * * * * * * * * //

dimensions      [0 1 -1 0 0 0 0];

internalField   nonuniform List<vector> 
18816
(
(-0.00589243 -0.00070109 -0.00124067)
(-0.0146366 0.00314043 8.44364e-06)
(-0.0198404 0.00195577 -3.00993e-05)
(-0.0151959 0.00149203 0.000451902)
(-0.0124411 0.000744717 0.000657145)
(-0.00863615 -3.00524e-05 0.000837896)
(-0.00725047 -0.000295111 0.000711492)
(-0.00663767 0.000381976 0.000537167)
(-0.00612387 -4.03541e-06 0.000344762)
(-0.00746675 -2.82126e-05 0.000301796)
(-0.01218 -0.00108025 0.000225894)
(-0.0227448 -0.00244271 0.000265101)
(-0.0303542 -0.00116302 -3.10522e-05)
(-0.0361705 0.000624333 -8.25362e-05)
(-0.0373908 0.000971039 -0.000205594)
(-0.0319555 0.00178644 -0.000351879)
(-0.0263091 0.00297295 -0.000277332)
(-0.020901 0.00274553 -0.000155052)
(-0.0137934 0.00208418 -0.000189183)
(-0.0022071 0.00203235 -0.00039408)
(0.0106232 0.00291422 -0.000456757)
(0.0220463 0.0031947 -0.000427373)
(0.0300429 0.00312814 -0.000316846)
(0.0344037 0.00308349 -0.000320684)
(0.0341858 0.00324922 -0.00038714)
(0.0297332 0.00491594 -0.000359108)
(0.0143144 0.0044152 -5.70879e-05)
(0.00147668 -0.000494757 -0.00147859)
(-0.00282854 0.0298761 -0.000801657)
(-0.00979734 0.0220565 0.000549848)
(-0.0125821 0.0047006 0.000930522)
(-0.0103963 -0.00808361 0.00108246)
(-0.012052 -0.010932 0.00112962)
(-0.0123587 -0.0114497 0.00122036)
(-0.012754 -0.00775505 0.00109903)
(-0.0125726 -0.00203877 0.000867922)
(-0.0129068 0.00409187 0.000463254)
(-0.0123743 0.012597 -4.50505e-05)
(-0.0127696 0.0234535 -0.000786777)
(-0.0159939 0.0257268 0.000178028)
(-0.0193805 0.0195727 0.00021457)
(-0.0249382 0.0129465 0.000328147)
(-0.0270319 0.00767547 0.000386973)
(-0.0242406 0.00377829 0.000428845)
(-0.0198956 0.00196034 0.000615497)
(-0.0155148 -0.00014334 0.000596294)
(-0.010239 -0.00040394 0.000484471)
(-0.00221644 0.000157653 0.000386451)
(0.00675363 0.0026364 0.000501376)
(0.0153053 0.00503974 0.000627253)
(0.0214721 0.00738717 0.000813507)
(0.0260423 0.0105088 0.000870528)
(0.0265482 0.0163912 0.000759328)
(0.0241243 0.0244821 0.000463036)
(0.0139745 0.0326396 0.000186643)
(0.00236308 0.0283974 -0.00122145)
(0.000664486 0.0328716 -0.000762181)
(-0.00249161 0.0149984 0.000155422)
(-0.00714067 -0.00949825 0.000303737)
(-0.00876319 -0.020152 0.000406714)
(-0.0123985 -0.0234288 0.00020876)
(-0.0133943 -0.0238621 0.000148853)
(-0.014243 -0.0213564 -0.000153317)
(-0.0140008 -0.0155549 -0.000499273)
(-0.0147872 -0.00903437 -0.000863151)
(-0.0137272 0.00331389 -0.00123025)
(-0.0108319 0.0177783 -0.00232044)
(-0.0104886 0.0175437 -0.000991168)
(-0.0118489 0.0140873 6.15935e-05)
(-0.0146765 0.00916399 0.00010813)
(-0.0160319 -0.00105815 0.00019506)
(-0.0150951 -0.00692691 0.000230073)
(-0.012446 -0.00983896 0.000160355)
(-0.00947487 -0.0111902 4.62686e-05)
(-0.00512173 -0.0124136 9.53109e-05)
(0.000438868 -0.0133712 8.30855e-05)
(0.00588413 -0.0122828 0.000138312)
(0.0108867 -0.0107464 0.000153226)
(0.0143046 -0.00896162 0.000205897)
(0.0175118 -0.00563466 0.000285603)
(0.0185723 0.00296062 0.000456453)
(0.01882 0.0188371 0.000393676)
(0.00811441 0.0326274 0.000247402)
(-0.000306954 0.0371071 -0.0012491)
(0.00282716 0.043812 -5.56469e-05)
(0.00109684 0.0244351 0.000280407)
(-0.00639642 -0.00541284 0.000331551)
(-0.0083705 -0.016746 0.000261691)
(-0.0113629 -0.0184686 8.84884e-05)
(-0.0120368 -0.0184826 7.53227e-05)
(-0.0129239 -0.0164406 5.5536e-06)
(-0.0132307 -0.0118685 0.000145912)
(-0.0140458 -0.00605771 8.8858e-05)
(-0.0115229 0.0049871 -0.000109354)
(-0.00689123 0.0167444 -0.000134694)
(-0.00575431 0.0221315 -0.00253612)
(-0.00687216 0.0169511 0.000282426)
(-0.00579313 0.010257 0.000530755)
(-0.00513733 -0.00191007 0.000539027)
(-0.00408743 -0.011182 0.000471654)
(-0.00342772 -0.0134172 0.000347079)
(-0.00199484 -0.0153079 0.000430933)
(2.65051e-05 -0.017356 0.00056211)
(0.0028491 -0.0189894 0.000522059)
(0.00556002 -0.0173048 0.000596489)
(0.00691796 -0.0143854 0.000437527)
(0.00780854 -0.0106782 0.000304893)
(0.00888477 -0.00772698 0.000216475)
(0.00957676 0.000417136 0.000400115)
(0.0118218 0.0222835 0.000337794)
(0.00370393 0.0433455 0.000450066)
(-0.00255873 0.0498335 -0.000266935)
(0.00348673 0.0473881 -0.000121247)
(0.00269082 0.0298095 0.000203083)
(-0.00478132 -0.00462103 9.566e-05)
(-0.0062684 -0.0144709 -1.70185e-05)
(-0.00804636 -0.0160046 -9.63335e-05)
(-0.00911196 -0.0159439 -6.4582e-05)
(-0.0095954 -0.0141045 -0.00011915)
(-0.00976435 -0.0117339 6.97753e-05)
(-0.0103023 -0.00718579 6.16148e-05)
(-0.00883847 0.00429124 -9.66243e-05)
(-0.00517087 0.0146495 -0.000131235)
(-0.0030577 0.0187752 -0.000754111)
(-0.00321431 0.0122951 -1.08645e-05)
(-9.19115e-05 0.00280082 0.000179146)
(0.00137278 -0.00724884 0.000139659)
(0.0020469 -0.0149341 8.11246e-05)
(0.000766896 -0.0171825 7.64894e-05)
(0.00141521 -0.021843 0.000147885)
(0.00222632 -0.0254421 0.000261533)
(0.00352471 -0.0288184 0.000284529)
(0.00433932 -0.0269298 0.000518601)
(0.00278032 -0.0216292 0.000409607)
(0.00244616 -0.0155515 0.000245137)
(0.00278737 -0.0106355 8.28574e-05)
(0.0033266 -0.00324269 7.19983e-05)
(0.00549692 0.0206461 4.36682e-05)
(0.00101605 0.045986 0.000203685)
(-0.00258383 0.0531366 -0.000151211)
(0.00454405 0.0499542 3.80453e-05)
(0.00435427 0.03584 0.000384629)
(-0.00210068 -0.000716448 0.00011492)
(-0.00311994 -0.0100088 8.40276e-05)
(-0.00460632 -0.0132327 0.000133694)
(-0.00606655 -0.0134338 0.000224888)
(-0.00665079 -0.0122812 0.000357979)
(-0.0071658 -0.0109899 0.000143254)
(-0.00583484 -0.00806915 7.63056e-05)
(-0.00438453 0.00239571 0.000129288)
(-0.00223463 0.0116972 0.000172598)
(-0.000996956 0.0150077 5.1036e-06)
(-0.00155477 0.00975715 0.000199401)
(0.000931363 -0.000779448 0.000238819)
(0.00141976 -0.00852924 0.000104544)
(0.00259606 -0.0133526 -2.88061e-05)
(0.00165476 -0.0162041 2.13723e-05)
(0.00221994 -0.0229387 7.57514e-05)
(0.00214518 -0.0274252 0.000230937)
(0.00205401 -0.0325709 0.000274426)
(0.00210489 -0.0312852 0.000479248)
(-0.000322027 -0.025392 0.000430447)
(-0.00122565 -0.0184399 0.000324715)
(-0.000691127 -0.0118053 0.000157898)
(-0.000123847 -0.00268207 5.68095e-05)
(0.00150311 0.0227766 8.90303e-05)
(-0.00158001 0.0491732 0.000241704)
(-0.00298059 0.0544378 8.59964e-05)
(0.0040106 0.0504617 0.000126845)
(0.00546764 0.0368241 0.000467455)
(0.000381502 0.00183354 0.000108993)
(-0.000983556 -0.00898174 0.000128722)
(-0.00343643 -0.0139068 0.000175759)
(-0.00541505 -0.0138327 0.000233139)
(-0.00702273 -0.0125079 0.000386558)
(-0.00725064 -0.0139377 0.000886137)
(-0.00422102 -0.0113476 0.000853452)
(-0.00191024 -0.00169485 0.00101613)
(8.47486e-05 0.00617911 0.000128689)
(0.000507193 0.00875495 0.000242875)
(-0.000636334 0.00490123 0.000291037)
(0.000493179 -0.0043295 0.00019117)
(0.00018725 -0.00969009 -2.36339e-05)
(0.00262994 -0.0118958 -0.000214013)
(0.00177887 -0.0148063 -0.000113117)
(0.00226321 -0.0232123 -9.14868e-05)
(0.00115985 -0.0286883 5.55233e-05)
(-0.000178295 -0.0354995 3.20685e-05)
(0.00094848 -0.0342572 0.000188946)
(-0.000834914 -0.0282248 0.000201457)
(-0.00178745 -0.0215683 0.000154719)
(-0.00138209 -0.0146164 0.00010195)
(-0.00147774 -0.00418578 1.06421e-05)
(-0.000477077 0.0227749 5.2922e-05)
(-0.0028122 0.049756 0.000161219)
(-0.00273736 0.053459 0.000135604)
(0.00365086 0.0496861 0.000248423)
(0.00549323 0.0332601 0.000455747)
(0.00147144 0.00448069 9.96355e-05)
(-0.000175646 -0.00776298 0.000165179)
(-0.00279565 -0.0136606 0.00018666)
(-0.00507543 -0.0140611 0.000253194)
(-0.00756335 -0.0128919 0.000279915)
(-0.00767509 -0.013468 0.00046047)
(-0.00364787 -0.0100322 0.000459777)
(-0.00150986 -0.000310278 0.00061746)
(0.000630424 0.00247102 5.82245e-05)
(0.00149636 0.00447934 0.000100265)
(0.00129469 -5.5079e-05 0.000225586)
(0.00186445 -0.0065846 0.000128899)
(0.00170125 -0.010618 1.7568e-05)
(0.00441841 -0.0108733 -7.75408e-05)
(0.00170277 -0.013571 6.29189e-05)
(0.00195372 -0.0231862 -8.27296e-05)
(-0.000691728 -0.0271074 0.000115249)
(-0.00305313 -0.0350637 -6.75851e-05)
(-0.000366702 -0.0347847 6.11704e-05)
(-0.000970183 -0.02856 0.000136097)
(-0.00168267 -0.0224823 0.000140043)
(-0.00138555 -0.015945 0.000104061)
(-0.00175059 -0.00341791 6.36935e-05)
(-0.0014998 0.0232313 9.83882e-05)
(-0.00358369 0.0499885 0.000175669)
(-0.00262282 0.0516772 0.000185141)
(0.00354636 0.0474196 0.000328567)
(0.00556154 0.0314713 0.000279636)
(0.00185531 0.00691661 6.27335e-05)
(-3.28395e-05 -0.00708231 0.000102934)
(-0.0025087 -0.0138341 0.000145117)
(-0.00507759 -0.014681 0.000224483)
(-0.00844153 -0.0140657 0.000178806)
(-0.00853803 -0.0158125 5.01826e-05)
(-0.00493714 -0.0117016 -4.14104e-05)
(-0.00255998 -0.000621805 2.22954e-05)
(-0.000152182 0.00270581 0.000910898)
(0.00266119 0.00476001 0.000987119)
(0.00507428 0.000124907 -1.87504e-05)
(0.00587535 -0.00511238 -8.98263e-05)
(0.00462704 -0.00995576 -0.000136113)
(0.00604409 -0.00700001 -0.000229746)
(0.00181315 -0.00967965 -7.26433e-05)
(0.00394291 -0.0137191 -0.000829534)
(-0.000780148 -0.0223073 0.000109231)
(-0.00494002 -0.0320982 -0.000306387)
(-0.00158375 -0.0340995 -0.000160461)
(-0.00103891 -0.0288094 1.59362e-05)
(-0.00165972 -0.023291 7.20725e-05)
(-0.0014402 -0.0169342 1.59923e-05)
(-0.00122401 -0.00336027 7.13409e-05)
(-0.00148736 0.0226992 0.000128202)
(-0.00375259 0.0494659 0.000168615)
(-0.00230938 0.0492033 0.000176722)
(0.00343995 0.0448734 0.000334747)
(0.00575963 0.0320236 0.000168492)
(0.00224293 0.0100105 6.33748e-05)
(-0.000138556 -0.00502866 6.58051e-05)
(-0.00285366 -0.0123711 6.24116e-05)
(-0.00516181 -0.0131739 0.000128153)
(-0.00875819 -0.0118665 7.96479e-05)
(-0.00829438 -0.0130846 -0.000219122)
(-0.0053033 -0.0090236 -6.23369e-05)
(-0.00359848 -0.000688616 8.77084e-05)
(-0.00026561 0.00252022 0.000445699)
(0.00560822 0.00623406 0.000343751)
(0.00927397 -0.0034069 0.00014073)
(0.0103139 -0.0046079 0.000121689)
(0.00940643 -0.0112806 0.000179039)
(0.00800606 -0.00747123 0.000214382)
(0.011756 -0.00895244 0.00016605)
(0.0052521 -0.0164034 0.00172822)
(-0.0091872 -0.0202312 0.000490223)
(-0.00813831 -0.0303028 -1.79611e-06)
(-0.0043715 -0.0327307 -0.000205329)
(-0.0020321 -0.0286483 2.52251e-05)
(-0.00250721 -0.0232483 3.43385e-05)
(-0.00166067 -0.0169675 1.10424e-05)
(-0.000947762 -0.00378051 0.000157904)
(-0.00121202 0.0224167 0.000175225)
(-0.00377741 0.0487519 0.000160973)
(-0.0019582 0.0466028 0.00016255)
(0.00324031 0.0424122 0.000342886)
(0.00570285 0.033843 0.000142828)
(0.00235039 0.0127536 7.848e-05)
(0.000109796 -0.00305832 4.73329e-05)
(-0.00240297 -0.0110169 -1.59623e-05)
(-0.00274187 -0.0124347 4.19564e-05)
(-0.00549243 -0.0114482 0.000133236)
(-0.00362555 -0.0128534 -0.000161342)
(-0.00368693 -0.0114576 0.000493098)
(-0.00405212 -0.00561379 0.000279289)
(-0.00140311 -0.00293848 0.000237322)
(0.00326079 -7.95772e-05 0.000100182)
(0.00657138 -0.00700312 5.28299e-05)
(0.00629537 -0.00833241 0.000147215)
(0.00527855 -0.0128951 0.000127051)
(0.00468683 -0.0127631 0.000239418)
(0.00403829 -0.0142056 0.000279637)
(0.00294114 -0.0229073 0.000312349)
(-0.0044282 -0.0217774 0.000615862)
(-0.00713738 -0.0300192 -0.000295311)
(-0.0037845 -0.0322214 -0.00017049)
(-0.00283301 -0.0288706 3.53749e-05)
(-0.00336298 -0.0234867 -1.16652e-05)
(-0.00194154 -0.0176083 -1.56445e-05)
(-0.00119427 -0.00653361 0.000127492)
(-0.000819377 0.0216953 0.000174216)
(-0.00353237 0.0478695 0.000146156)
(-0.00158653 0.0440687 0.000141558)
(0.00279718 0.0400268 0.00034115)
(0.0052338 0.0344941 0.000129319)
(0.0022634 0.014887 0.000101164)
(0.000372816 -0.000967754 4.72344e-05)
(-0.00196969 -0.0100123 -2.56745e-05)
(-0.000822636 -0.0120966 1.41839e-05)
(-0.00289606 -0.0121136 0.000232297)
(-0.00239251 -0.0133444 8.634e-05)
(-0.00445832 -0.0143154 0.000227024)
(-0.00356293 -0.0067281 -7.8069e-05)
(-0.00165654 -0.00696314 -8.24127e-05)
(0.00127057 -0.00212439 -0.00013347)
(0.00345856 -0.0085251 -8.49564e-05)
(0.00358536 -0.00659548 -0.000122614)
(0.00368925 -0.0131173 -3.1555e-05)
(0.00294441 -0.0108344 -0.000116771)
(0.00366301 -0.0125734 -7.95929e-05)
(0.00176783 -0.0195796 4.45757e-05)
(-0.00123689 -0.0180367 -9.26182e-05)
(-0.00267119 -0.0250855 -7.86641e-05)
(-0.00428848 -0.0305718 -5.01075e-05)
(-0.00360565 -0.0289232 0.000148015)
(-0.00445501 -0.0235225 -2.13416e-05)
(-0.00226544 -0.0176083 -3.72318e-05)
(-0.00195926 -0.00729514 -2.97615e-05)
(-0.000528631 0.0206422 0.000135114)
(-0.00299086 0.0471078 0.000122096)
(-0.00113598 0.0418261 8.65652e-05)
(0.00230306 0.0374831 0.000315793)
(0.00453769 0.0345856 0.000112473)
(0.00218769 0.0160845 9.80657e-05)
(0.000782445 0.000253918 6.63348e-05)
(-0.00126603 -0.0102681 -1.43418e-05)
(0.000379084 -0.0127243 -5.99769e-06)
(-0.000689733 -0.0141093 0.000212684)
(-7.78958e-05 -0.0152693 0.000189053)
(-0.00293898 -0.0146416 0.000276407)
(-0.00381122 -0.00912845 4.38079e-05)
(-0.00154605 -0.00797099 -4.54214e-05)
(-0.000128594 -0.00573743 -1.49448e-05)
(0.00172745 -0.00930395 -4.15325e-05)
(0.00291755 -0.00892907 6.53385e-08)
(0.0031286 -0.012729 -5.12657e-06)
(0.00331605 -0.0130722 9.41637e-06)
(0.00324134 -0.0145256 4.33632e-06)
(0.00191376 -0.0179438 1.68514e-05)
(0.000325513 -0.0174994 -1.31891e-05)
(-0.00180784 -0.0227651 4.98137e-06)
(-0.00441719 -0.0293375 4.97484e-06)
(-0.00397207 -0.0293919 0.000100199)
(-0.00443855 -0.0238211 -4.87987e-05)
(-0.0019514 -0.0172984 -7.99585e-05)
(-0.00220587 -0.00547511 -0.000105442)
(-0.000381952 0.0192884 6.70124e-05)
(-0.00222681 0.0464325 0.000104947)
(-0.000796516 0.0404595 2.74123e-05)
(0.00183608 0.035374 0.000241077)
(0.00376074 0.0341254 9.23839e-05)
(0.00186908 0.0164969 8.96496e-05)
(0.000618307 0.00109159 8.24794e-05)
(-0.000939826 -0.0102285 -4.29787e-05)
(0.000654378 -0.0134246 -2.45733e-05)
(0.000138599 -0.0156954 0.000135236)
(0.00131066 -0.0168345 0.000173424)
(-0.00247226 -0.0149737 0.000329906)
(-0.00380892 -0.00709818 3.05409e-06)
(-0.00175214 -0.00971128 -6.48715e-05)
(-0.000546342 -0.00495844 -4.33391e-05)
(0.00116678 -0.0110582 -5.58915e-05)
(0.00260104 -0.00709439 -1.61695e-05)
(0.00316237 -0.0133753 -1.4938e-05)
(0.00377684 -0.0101097 -1.65841e-05)
(0.00371894 -0.0109485 3.05021e-05)
(0.00275422 -0.0161983 1.85839e-05)
(0.0018617 -0.0120444 -2.90057e-05)
(-0.000583015 -0.0191213 0.00011402)
(-0.00433618 -0.0284406 8.23736e-05)
(-0.00363878 -0.0292752 6.61164e-05)
(-0.00395576 -0.0238815 -4.78994e-05)
(-0.00170261 -0.0167195 -9.92907e-05)
(-0.00253446 -0.00316151 -0.000106706)
(-0.000374061 0.0183743 -4.92753e-05)
(-0.0013199 0.0460466 7.71889e-05)
(-0.000577839 0.0398178 -3.4079e-05)
(0.00166167 0.0343051 0.000104833)
(0.00295159 0.0342121 8.77228e-05)
(0.000894284 0.0164972 7.35872e-05)
(-0.000303046 0.0016 9.42072e-05)
(-0.0011381 -0.00961673 -6.09757e-05)
(-5.20992e-05 -0.0139046 -2.95667e-05)
(-4.37471e-05 -0.0171614 7.97791e-05)
(0.00164033 -0.0176317 0.000109374)
(-0.00179209 -0.0148049 0.000254254)
(-0.00409023 -0.00964761 3.36388e-06)
(-0.00192038 -0.0109461 -3.37959e-05)
(-0.00118324 -0.00838904 -2.88741e-06)
(0.000677436 -0.0128083 -1.49026e-05)
(0.00266351 -0.010639 2.20039e-06)
(0.00332176 -0.0142213 -9.34207e-06)
(0.00446395 -0.0134134 1.94524e-06)
(0.0044944 -0.0137069 -1.43987e-05)
(0.00389751 -0.0156763 -1.10209e-05)
(0.00374579 -0.013171 -3.53262e-05)
(0.000776767 -0.0171412 0.000195689)
(-0.00348756 -0.0277106 6.43247e-05)
(-0.00236859 -0.0290713 -8.49025e-07)
(-0.0025117 -0.0237612 -4.85053e-05)
(-0.00117909 -0.0160998 -0.000110539)
(-0.00267875 -0.00148523 -9.85065e-05)
(-0.000103292 0.0183598 -0.000182692)
(-0.000427538 0.0459033 4.39233e-05)
(-0.000373953 0.0398255 -9.11262e-05)
(0.00173315 0.0345903 -1.51772e-05)
(0.00226256 0.0349432 0.000108193)
(-0.00027182 0.0169474 7.96688e-05)
(-0.00161287 0.00171318 3.7448e-05)
(-0.00187664 -0.00844819 -8.02679e-05)
(-0.00141758 -0.0140565 -3.17823e-05)
(-0.000849043 -0.0182208 1.09283e-05)
(0.00132 -0.0181999 6.76538e-05)
(-0.00129633 -0.0138479 0.000184155)
(-0.0039757 -0.00885224 0.000294272)
(-0.00246301 -0.0132532 -2.20629e-05)
(-0.00133721 -0.00962571 0.000289798)
(0.000583322 -0.0160372 9.32346e-06)
(0.00279157 -0.0120196 0.000298786)
(0.00360421 -0.0159548 -2.21987e-06)
(0.00529917 -0.0137946 0.000253886)
(0.00427105 -0.0130321 0.000312809)
(0.0050202 -0.0153704 -6.07286e-06)
(0.00476039 -0.0104676 0.000255571)
(0.0013117 -0.0151981 0.000249871)
(-0.0018269 -0.0272849 4.87937e-05)
(-0.000524836 -0.0283717 -4.40344e-05)
(-0.000396676 -0.0230985 -7.81497e-05)
(-0.000108837 -0.0143963 -8.39502e-05)
(-0.00244481 0.000896209 -7.75207e-05)
(3.91594e-05 0.020001 -0.000235595)
(0.000650911 0.0463251 -1.55168e-05)
(-0.000216854 0.0407603 -0.00017943)
(0.00170317 0.0355996 -0.000107363)
(0.0015424 0.0358397 0.00015057)
(-0.00173996 0.0177374 7.74587e-05)
(-0.00283957 0.00262136 -5.73271e-05)
(-0.00285561 -0.00691336 -0.000113314)
(-0.00315886 -0.0134053 -5.45226e-05)
(-0.0022462 -0.0184564 -5.96213e-05)
(-0.000469263 -0.018235 0.000103554)
(-0.00612794 -0.0132434 0.000309646)
(-0.00620251 -0.0100341 -0.000218589)
(-0.00418083 -0.0149337 1.05507e-05)
(-0.00155288 -0.0119843 -0.000280034)
(0.000238871 -0.0187814 1.45798e-05)
(0.00317901 -0.0148744 -0.000297291)
(0.00340133 -0.0187502 0.000309096)
(0.00238633 -0.0155319 -0.000327747)
(0.0080007 -0.0154391 -0.00025279)
(0.00778802 -0.0175461 0.000313153)
(0.00735781 -0.0112637 -0.000195383)
(0.00745283 -0.0146059 0.000403997)
(0.00152616 -0.0268417 9.32538e-05)
(0.00271642 -0.0272492 -8.32377e-05)
(0.00260633 -0.0216916 -0.00012025)
(0.00184833 -0.0121186 -5.8827e-05)
(-0.00121138 0.00282469 -4.88722e-05)
(0.000140087 0.0216647 -0.000173542)
(0.0014784 0.0471906 -6.19637e-05)
(-0.000159443 0.0427383 -0.00024728)
(0.00136437 0.0368585 -0.000136786)
(0.000722947 0.0372269 0.000181406)
(-0.00311906 0.0194578 1.51304e-05)
(-0.00352378 0.005059 -0.000126471)
(-0.00363749 -0.00454509 -0.000134607)
(-0.00503378 -0.0118694 -7.66055e-05)
(-0.0041248 -0.0177341 -0.000148331)
(-0.00282332 -0.018965 0.000123376)
(-0.00745854 -0.0142262 0.000335805)
(-0.00853884 -0.0125302 0.000136646)
(-0.0055192 -0.0172326 4.36277e-05)
(-0.0027265 -0.0145005 6.46011e-05)
(-0.00062159 -0.0199291 2.99178e-05)
(0.000984125 -0.0162672 4.21974e-05)
(0.00277821 -0.0183165 1.83269e-06)
(0.00538701 -0.0172529 8.08851e-05)
(0.00639878 -0.0170771 -6.16416e-06)
(0.00923632 -0.0174927 2.60367e-05)
(0.0127385 -0.0133953 0.000281359)
(0.0105188 -0.0151145 0.000465581)
(0.00566925 -0.0269852 5.05113e-05)
(0.00684185 -0.0259157 -6.2033e-05)
(0.00605377 -0.0193508 -0.00010296)
(0.00394578 -0.00912302 3.34836e-06)
(4.68744e-05 0.00566424 -1.20889e-05)
(0.000217501 0.0233068 -0.000112073)
(0.00187166 0.0486824 -0.00010213)
(-6.82418e-06 0.0451198 -0.000231827)
(0.000829192 0.0381282 -0.000151744)
(-0.000326283 0.0383747 0.000195278)
(-0.00431738 0.0218599 -5.3943e-05)
(-0.00373539 0.00822687 -0.000134447)
(-0.00469524 -0.00125707 -0.000118048)
(-0.00752067 -0.00919731 -8.43792e-05)
(-0.00779594 -0.0158218 -0.000183439)
(-0.00738385 -0.0186707 7.14731e-05)
(-0.0114579 -0.014581 0.000426346)
(-0.0119258 -0.0164533 0.000389326)
(-0.00734712 -0.0219364 -3.83528e-05)
(-0.00381439 -0.0184503 0.000316303)
(-0.00148607 -0.0228384 2.74758e-08)
(-0.000871008 -0.018892 0.000313156)
(0.00239289 -0.0236558 -0.000292385)
(0.00690845 -0.0200007 0.000253384)
(0.0053774 -0.0199485 0.000364173)
(0.0116087 -0.0248256 -0.000347015)
(0.0191056 -0.0192335 0.000566207)
(0.0166023 -0.0168624 0.0010414)
(0.0095353 -0.0259896 -4.14836e-05)
(0.011777 -0.0242227 7.15802e-06)
(0.00942553 -0.016665 -1.49239e-05)
(0.00557823 -0.00578456 7.14537e-05)
(0.00122768 0.00811254 4.93075e-05)
(0.000217569 0.0250012 -4.13945e-05)
(0.00167605 0.050649 -0.000123941)
(1.55927e-05 0.0479127 -0.000190876)
(0.000656124 0.0392431 -0.000149471)
(-0.000988838 0.0393874 0.000166816)
(-0.00432989 0.024747 -0.000103363)
(-0.0031007 0.0119462 -7.64938e-05)
(-0.00478514 0.00288461 -4.89307e-05)
(-0.00864211 -0.00541647 -2.12895e-06)
(-0.0110034 -0.0135143 -6.22022e-06)
(-0.0127728 -0.0195386 0.000171929)
(-0.022301 -0.021235 0.00108604)
(-0.0199975 -0.0237037 -0.000477186)
(-0.00915218 -0.0250634 -0.0003733)
(-0.00483427 -0.0209863 -0.000600401)
(-0.00158743 -0.0234445 -0.000273347)
(-0.000177377 -0.0200488 -0.000549175)
(0.00225209 -0.0225782 -0.000251326)
(0.00291529 -0.0211073 -0.000614132)
(0.00937976 -0.0233129 -0.000544922)
(0.0135194 -0.0277416 -0.00033807)
(0.0271392 -0.0291479 -0.00029435)
(0.0271978 -0.0301172 0.0019522)
(0.0155543 -0.0282218 0.000141125)
(0.0153211 -0.023343 0.000165174)
(0.0107357 -0.0137985 0.000137212)
(0.00551489 -0.00252152 0.000131921)
(0.00148014 0.00988076 0.000110419)
(4.48711e-05 0.0270807 2.55106e-05)
(0.000861961 0.0525573 -8.93291e-05)
(-0.000140786 0.0500205 -0.000100334)
(0.000806739 0.0402833 -0.000147772)
(-0.00127412 0.0408651 0.000125781)
(-0.00379499 0.027625 -0.000115496)
(-0.00210212 0.014816 9.57071e-06)
(-0.00414549 0.00598844 5.9997e-05)
(-0.00769141 -0.00164855 0.000103637)
(-0.0118602 -0.00951468 0.000201627)
(-0.016699 -0.0144165 5.83217e-05)
(-0.0262209 -0.0173601 0.000158914)
(-0.0232263 -0.0160485 -0.00220499)
(-0.00718583 -0.0135782 -0.00187384)
(-0.00437314 -0.00883472 -0.00181956)
(0.000356767 -0.00952012 -0.00168929)
(0.000711665 -0.00758824 -0.00165482)
(0.00289429 -0.0095956 -0.00166645)
(0.00262144 -0.00922081 -0.00173376)
(0.00877283 -0.0115138 -0.00193215)
(0.0101437 -0.0171903 -0.0019865)
(0.0287147 -0.0203 -0.00258375)
(0.0324865 -0.0281922 0.000146942)
(0.0225554 -0.0244541 5.61089e-05)
(0.0168722 -0.0198273 0.000343507)
(0.00966676 -0.0103583 0.000275076)
(0.00420049 -0.000352441 0.000243139)
(0.000653928 0.0100788 0.000166823)
(-0.000489016 0.0284388 7.42288e-05)
(-5.25488e-05 0.0540803 -4.18282e-05)
(-0.000389758 0.0513609 -4.49697e-05)
(0.00120483 0.0407927 -9.31034e-05)
(-0.000600367 0.0425895 0.000118871)
(-0.00211978 0.0293993 -5.8623e-05)
(-0.000172771 0.0158993 9.2321e-05)
(-0.00151856 0.00705396 0.000151592)
(-0.00329982 -0.000507878 0.000236955)
(-0.00624376 -0.00902144 0.000332342)
(-0.00818587 -0.012814 0.000335288)
(-0.00852005 -0.0141029 0.000404063)
(-0.00669867 -0.00184032 0.000412946)
(-0.00357245 0.00172506 0.000435624)
(-0.00223885 0.00664886 0.000465739)
(-9.6187e-06 0.00671666 0.000461132)
(0.000542614 0.00806796 0.000488918)
(0.00189741 0.00728984 0.00045309)
(0.00209071 0.00669306 0.00046043)
(0.00515623 0.00636859 0.000339472)
(0.00629231 0.000319402 0.000291239)
(0.0120117 -0.0028077 0.000142838)
(0.0155436 -0.0200634 0.000231646)
(0.0144101 -0.0208545 0.00031363)
(0.0101295 -0.0181364 0.000428265)
(0.00405161 -0.00885776 0.000333795)
(0.000772771 -0.000469361 0.000294884)
(-0.00117754 0.00939605 0.000202995)
(-0.00174104 0.0283928 0.000135357)
(-0.00133286 0.0543318 4.55114e-05)
(-0.000857025 0.051413 3.03622e-05)
(0.00134672 0.0406266 -6.14975e-05)
(-0.000216129 0.0435661 0.000112722)
(-0.0011912 0.0300914 -5.47445e-05)
(0.000779563 0.015905 7.64607e-05)
(-0.000365738 0.00688126 0.000123315)
(-0.00145848 -0.000878679 0.000172101)
(-0.00485128 -0.0104467 0.0002035)
(-0.00820148 -0.0171353 0.000198353)
(-0.00961563 -0.0209291 6.9089e-05)
(-0.00755473 -0.0183736 -0.000118686)
(-0.00410921 -0.0145159 -6.18448e-05)
(-0.00244819 -0.0114839 -6.32114e-05)
(-0.000505504 -0.0101882 -5.59147e-05)
(0.00010674 -0.00893275 -7.45104e-05)
(0.00155333 -0.00913955 -8.84926e-05)
(0.00210131 -0.0100872 -7.46116e-05)
(0.00465342 -0.011163 -0.000117878)
(0.00638286 -0.014362 -0.000151009)
(0.0115935 -0.0190461 -0.000254992)
(0.015013 -0.0263037 5.90371e-05)
(0.0127745 -0.0246532 0.000294452)
(0.0069607 -0.0184923 0.000297449)
(0.000874738 -0.00815832 0.000168301)
(-0.000918112 -0.00142841 0.00016885)
(-0.00216134 0.00832915 0.000114372)
(-0.00220464 0.0275168 8.75453e-05)
(-0.00193408 0.0534594 6.08399e-05)
(-0.000914764 0.0501386 5.70392e-05)
(0.00154783 0.0399862 -8.35194e-06)
(0.000491837 0.0442788 0.000120264)
(0.000127608 0.0301655 -4.8437e-06)
(0.00192928 0.0153623 0.000146917)
(0.00122765 0.00635849 0.000167144)
(0.00109581 -0.000776611 0.000201221)
(-0.000832373 -0.00875193 0.000218978)
(-0.00451757 -0.0159214 0.000304963)
(-0.00507295 -0.0190406 0.000123478)
(-0.00353328 -0.0144921 3.79924e-05)
(-0.00155764 -0.00914318 1.89974e-05)
(-0.000361851 -0.00483759 2.75771e-05)
(0.000320799 -0.00305835 5.38754e-05)
(0.000605425 -0.00190812 8.12463e-05)
(0.00105669 -0.00183198 7.12479e-05)
(0.00122661 -0.00251434 5.03147e-05)
(0.00212804 -0.00429473 9.73042e-06)
(0.00361259 -0.00924184 1.79705e-05)
(0.00671562 -0.0159529 -1.16711e-05)
(0.00899963 -0.0244284 0.000112887)
(0.00766579 -0.0231637 0.000373517)
(0.00164079 -0.015563 0.000259439)
(-0.00176674 -0.00693225 0.000184456)
(-0.0023819 -0.00205761 0.000170519)
(-0.00319622 0.00767507 0.000164141)
(-0.00278629 0.0264096 0.000111409)
(-0.00263773 0.051835 0.000118691)
(-0.00122729 0.0481757 8.80387e-05)
(0.00156832 0.0386459 1.47771e-06)
(0.00071197 0.0441107 0.000125459)
(0.000670761 0.0294806 -1.29302e-06)
(0.00217398 0.0143965 0.000110534)
(0.00145662 0.00534668 8.24466e-05)
(0.00152077 -0.00157277 7.54938e-05)
(0.00101237 -0.00809906 4.11842e-05)
(-0.00278342 -0.0167632 0.000144025)
(-0.00411566 -0.021019 -5.18537e-06)
(-0.00318674 -0.0177032 -9.01193e-05)
(-0.00167162 -0.0121152 -9.75486e-05)
(-0.000863934 -0.0086395 -7.08875e-05)
(-0.000190878 -0.00685592 -6.85913e-05)
(0.000210491 -0.00613114 -5.90178e-05)
(0.000657822 -0.0062296 -5.99651e-05)
(0.00107155 -0.00717428 -5.82264e-05)
(0.00218054 -0.00885832 -7.8058e-05)
(0.00327991 -0.012809 -8.80111e-05)
(0.00545345 -0.0197425 -0.000102662)
(0.00667767 -0.0266239 1.94435e-05)
(0.00461769 -0.0238459 0.000244205)
(-0.000909663 -0.0140111 2.53141e-05)
(-0.00184622 -0.00727124 1.65474e-05)
(-0.00200791 -0.00314152 7.39777e-05)
(-0.00307806 0.00619492 0.000102774)
(-0.00281192 0.0250039 9.39601e-05)
(-0.00297893 0.0500104 0.000142976)
(-0.0013308 0.0453075 7.90161e-05)
(0.00159125 0.0373389 1.56817e-05)
(0.00106778 0.0438889 0.000114934)
(0.00118603 0.0284738 3.02951e-05)
(0.00218696 0.0134954 0.000126702)
(0.00159614 0.0050778 7.95543e-05)
(0.00170021 -0.00156253 7.99286e-05)
(0.00201167 -0.00600733 3.04958e-05)
(-0.000570598 -0.0142284 0.000148311)
(-0.00149671 -0.0188917 3.34899e-05)
(-0.000928886 -0.0156018 -2.12e-05)
(-0.000155408 -0.00999964 -2.00792e-05)
(0.000236267 -0.00632758 1.10644e-05)
(9.92987e-05 -0.00440772 1.41032e-05)
(0.000143041 -0.00370348 1.32099e-05)
(0.000361667 -0.0037613 5.57987e-06)
(0.000576077 -0.00463913 5.72812e-07)
(0.000763746 -0.00666937 -1.44189e-06)
(0.001346 -0.011287 -1.39685e-05)
(0.00242308 -0.0183631 -2.85765e-05)
(0.0029844 -0.0246562 4.35486e-05)
(0.00156582 -0.0211963 0.000189757)
(-0.00191561 -0.0112292 1.48046e-05)
(-0.00174495 -0.0067176 3.36761e-05)
(-0.00186324 -0.00301886 6.29934e-05)
(-0.00273047 0.00541322 0.000122518)
(-0.00285489 0.0234676 0.000124422)
(-0.00319239 0.0472966 0.000193655)
(-0.00168376 0.0419734 5.16837e-05)
(0.00148421 0.0366044 1.14707e-05)
(0.00112793 0.0434529 0.000116558)
(0.00131037 0.0278351 4.09536e-05)
(0.002082 0.0131371 0.000104705)
(0.00181265 0.00495418 5.97481e-05)
(0.00155155 -0.00178404 2.31334e-05)
(0.00157729 -0.00504039 -4.29339e-05)
(0.000306704 -0.0126012 -1.85553e-05)
(-0.00028342 -0.017602 -3.79811e-05)
(-0.000265669 -0.0148703 -6.10349e-05)
(-3.74249e-05 -0.00988496 -4.92225e-05)
(4.44274e-06 -0.00684183 -2.62701e-05)
(-5.64239e-05 -0.00498154 -2.89776e-05)
(-8.53011e-05 -0.00415662 -4.46629e-05)
(9.95272e-05 -0.00416066 -5.40949e-05)
(0.000299734 -0.00509605 -5.56017e-05)
(0.000578641 -0.00722809 -4.64969e-05)
(0.00075769 -0.0112589 -4.9443e-05)
(0.00106966 -0.0177468 -4.62915e-05)
(0.000976664 -0.0232834 -8.33762e-06)
(0.000205615 -0.0193726 3.14625e-06)
(-0.00134712 -0.00981482 -4.85323e-05)
(-0.00139267 -0.00659503 -1.83413e-06)
(-0.00177043 -0.00304094 4.26319e-05)
(-0.00256468 0.00495923 0.000106901)
(-0.00289611 0.0224237 0.000124275)
(-0.00355692 0.0453806 0.000161014)
(-0.00151703 0.0395375 2.42347e-05)
(0.00118379 0.0348308 -1.42131e-05)
(0.00118825 0.0425434 7.78901e-05)
(0.00114088 0.0260778 5.20666e-05)
(0.00161275 0.0110888 0.000120564)
(0.00149644 0.00405356 6.10512e-05)
(0.0011321 -0.000839036 -1.23403e-05)
(0.00094069 -0.00285368 -5.51505e-05)
(0.000624332 -0.00912154 -7.79935e-05)
(0.000374147 -0.0140646 -8.9042e-05)
(0.000249329 -0.0120688 -8.44105e-05)
(0.000256034 -0.00810186 -7.02681e-05)
(0.000192555 -0.00554173 -4.11341e-05)
(1.77447e-05 -0.00392433 -3.34116e-05)
(-4.23669e-05 -0.00300099 -3.74003e-05)
(4.69444e-06 -0.0029017 -4.29603e-05)
(4.77519e-05 -0.00368339 -4.30491e-05)
(-3.50622e-05 -0.00567487 -4.64969e-05)
(-3.74215e-05 -0.00933431 -7.99309e-05)
(2.94632e-05 -0.0149109 -9.09824e-05)
(-0.00011741 -0.0194804 -9.10237e-05)
(-0.000329007 -0.0155222 -0.000117049)
(-0.000839672 -0.00728688 -7.46942e-05)
(-0.00105006 -0.00517421 -4.63915e-05)
(-0.00136648 -0.00248716 -1.2923e-05)
(-0.00176539 0.00379817 1.28251e-05)
(-0.00172987 0.0205852 8.10309e-05)
(-0.0021679 0.0419791 0.00011245)
(-0.000483731 0.0357592 7.45229e-05)
(-0.00904665 -0.00323406 -0.000342855)
(-0.017499 0.00203214 -0.00082754)
(-0.0228514 -0.00029363 -0.000192407)
(-0.0174184 -0.000979395 0.00071734)
(-0.014408 -0.00170213 0.0010121)
(-0.0100323 -0.00219934 0.00127414)
(-0.00828554 -0.00206776 0.00112254)
(-0.00749718 -0.000905959 0.000658124)
(-0.00721841 -0.00101773 5.53567e-05)
(-0.00913299 -0.000510575 -0.000303807)