/*--------------------------------*- C++ -*----------------------------------*\
| =========                 |                                                 |
| \\      /  F ield         | OpenFOAM: The Open Source CFD Toolbox           |
|  \\    /   O peration     | Version:  2.3.0                                 |
|   \\  /    A nd           | Web:      www.OpenFOAM.org                      |
|    \\/     M anipulation  |                                                 |
\*---------------------------------------------------------------------------*/
FoamFile
{
    version     2.0;
    format      ascii;
    class       volScalarField;
    location    "49";
    object      nut.water;
}
// * * * * * * * * * * * * * * * * * * * * * * * * * * * * * * * * * * * * * //

dimensions      [0 2 -1 0 0 0 0];

internalField   nonuniform List<scalar> 
1875
(
0.00106579
0.00111195
0.00119221
0.00126943
0.00134038
0.00140293
0.0014574
0.00150468
0.0015453
0.0015805
0.00161114
0.00163677
0.00165669
0.00167114
0.0016733
0.00166787
0.00164908
0.00161136
0.00155571
0.00148167
0.00138988
0.00127844
0.00114068
0.000964437
0.000753144
0.00111428
0.00127716
0.00141256
0.00150974
0.00157905
0.00162657
0.00165935
0.00167959
0.00169226
0.00169952
0.00170281
0.00170686
0.00170954
0.00171148
0.00171389
0.00171288
0.00170069
0.00167802
0.00163542
0.00156339
0.00146968
0.00134595
0.00118203
0.000970261
0.000730981
0.00138746
0.00158282
0.00173072
0.00182817
0.00188782
0.00191763
0.00192749
0.00192358
0.00191028
0.00189077
0.00186858
0.00184763
0.00182754
0.00180547
0.00178317
0.00175922
0.00173329
0.00170074
0.00166016
0.0015959
0.00150916
0.00139495
0.00125108
0.00108698
0.000935525
0.00174511
0.00197617
0.00210099
0.00215471
0.00216727
0.00215402
0.00212696
0.00209244
0.00205394
0.00201443
0.00197512
0.00193663
0.00189873
0.00186143
0.00182485
0.00178893
0.00175173
0.0017114
0.00166249
0.00159378
0.00150902
0.00140654
0.00128445
0.00115146
0.00102681
0.00227212
0.00236669
0.00237767
0.00235434
0.0023133
0.002263
0.0022087
0.00215389
0.00210075
0.00204991
0.00200132
0.00195487
0.00191018
0.00186704
0.00182578
0.00178541
0.00174178
0.00169395
0.00163887
0.00157276
0.00149363
0.00139984
0.00129438
0.00118312
0.00107637
0.00263421
0.00262116
0.00255741
0.00247825
0.00239207
0.00230478
0.00222216
0.00214715
0.00208028
0.00202164
0.00196973
0.00192236
0.00187755
0.00183376
0.00178947
0.0017431
0.00169641
0.00164947
0.00159499
0.001533
0.00146229
0.001382
0.0012937
0.00120183
0.00111142
0.00278701
0.0027427
0.00263551
0.002517
0.0023977
0.00228421
0.00218161
0.00209162
0.00201588
0.00195256
0.00189879
0.0018513
0.00180748
0.00176533
0.00172379
0.00168277
0.00164145
0.00159797
0.00154804
0.00149327
0.00143205
0.00136381
0.00129081
0.00121624
0.00114366
0.00295704
0.00284143
0.00268153
0.00252482
0.00237632
0.00223904
0.00211606
0.00201336
0.00192836
0.00186111
0.00180672
0.00176193
0.00172287
0.00168682
0.00165341
0.00162063
0.00158784
0.00154893
0.00150596
0.00145813
0.00140493
0.00134614
0.00128362
0.0012174
0.00114627
0.00304696
0.00288895
0.00269328
0.00250859
0.00233838
0.00217908
0.00204171
0.00192831
0.00183634
0.00176615
0.00171658
0.00167623
0.00164373
0.00161602
0.00159047
0.00156612
0.0015369
0.00150308
0.00146496
0.00142271
0.00137595
0.00132383
0.00126767
0.00120571
0.00113638
0.00309263
0.00290425
0.00268538
0.00248299
0.00229498
0.00211934
0.00196888
0.00184467
0.00174906
0.00168378
0.00163909
0.00160788
0.0015831
0.00156139
0.00154031
0.00151786
0.00149221
0.00146353
0.00143082
0.00139299
0.00134894
0.00129918
0.00124236
0.00117632
0.00109705
0.00314929
0.00291651
0.00267717
0.00246097
0.00226093
0.00207608
0.00191862
0.00179339
0.00169934
0.00163548
0.00159456
0.00156732
0.00154813
0.00153349
0.00151869
0.00150227
0.00148201
0.00145669
0.00142543
0.00138716
0.00134227
0.0012893
0.00122699
0.00115096
0.00105612
0.00319593
0.00292864
0.00267216
0.00244799
0.00224516
0.00206012
0.00190449
0.00178255
0.00169446
0.00163662
0.00160167
0.00158127
0.00156946
0.0015613
0.00155266
0.00154082
0.00152374
0.00150042
0.00146914
0.0014291
0.00137965
0.00132039
0.00125091
0.00116788
0.0010748
0.00316182
0.00289948
0.00265332
0.00243711
0.00224305
0.00206646
0.00191752
0.00180135
0.00172008
0.00167059
0.00164516
0.00163528
0.00163363
0.00163468
0.00163398
0.0016293
0.00161848
0.00159904
0.00156943
0.00152832
0.00147462
0.00140771
0.00132727
0.00123266
0.00113481
0.00298806
0.0028066
0.00261107
0.00242607
0.00225352
0.00209326
0.00195617
0.00184985
0.0017773
0.00173584
0.00171853
0.00171729
0.0017253
0.00173626
0.00174457
0.00174932
0.00174742
0.00173602
0.00171313
0.00167635
0.00162349
0.00155247
0.00146166
0.00134956
0.00122799
0.00288153
0.00273947
0.00258219
0.00242846
0.00227946
0.00213952
0.00201858
0.00192346
0.00185834
0.00182208
0.00180919
0.00181289
0.00182665
0.00184417
0.00186142
0.00187625
0.00188595
0.00188748
0.00187812
0.00185441
0.00181244
0.00174763
0.00165603
0.00153067
0.00137212
0.0028235
0.00270451
0.00257627
0.00244956
0.00232342
0.00220425
0.00209798
0.00201185
0.00195147
0.00191688
0.00190404
0.00190773
0.00192295
0.00194446
0.00196842
0.00199182
0.00201305
0.0020293
0.00203778
0.00203538
0.00201788
0.00197946
0.00191262
0.00180521
0.00163523
0.00277995
0.00268432
0.00258304
0.00248051
0.00237801
0.00227855
0.00218719
0.00210986
0.00205251
0.00201666
0.0020009
0.00200149
0.00201418
0.00203508
0.00206093
0.00208916
0.00211747
0.00214422
0.00216802
0.00218655
0.00219668
0.00219432
0.00217397
0.00212942
0.00203541
0.00275095
0.00267054
0.00259206
0.00251348
0.00243432
0.00235442
0.00227733
0.00220828
0.00215363
0.00211581
0.00209508
0.00209031
0.00209847
0.00211633
0.00214101
0.0021697
0.00220145
0.00223429
0.0022668
0.00229736
0.00232393
0.00234428
0.00235536
0.00235759
0.00234467
0.00268348
0.00261615
0.00255982
0.00250432
0.0024511
0.00239667
0.00233961
0.00228424
0.0022363
0.00219976
0.00217731
0.00216812
0.00217153
0.00218561
0.00220805
0.00223625
0.00226909
0.00230536
0.00234355
0.00238194
0.00241826
0.00244897
0.00246997
0.00247861
0.00246114
0.00245794
0.00244259
0.00243211
0.00241673
0.00239585
0.00237055
0.00234235
0.00230925
0.00227779
0.00224988
0.00223043
0.00222241
0.00222507
0.00223791
0.00225966
0.00228812
0.00232228
0.0023611
0.00240311
0.00244681
0.00249024
0.00253038
0.00256321
0.00258796
0.00259359
0.00209188
0.00215014
0.00219719
0.00223564
0.0022625
0.00227647
0.0022779
0.00227083
0.00226072
0.00225117
0.00224408
0.00224288
0.00225064
0.00226712
0.00229116
0.00232287
0.00236047
0.00240266
0.00244831
0.0024962
0.00254477
0.00259179
0.00263425
0.00267288
0.00270152
0.00172953
0.00184547
0.00194128
0.00201964
0.0020841
0.00213354
0.0021697
0.00219268
0.00220351
0.00221112
0.00221826
0.00222873
0.00224534
0.00226894
0.00230086
0.0023396
0.00238338
0.00243088
0.00248101
0.0025328
0.00258502
0.00263602
0.00268323
0.00272742
0.00276237
0.00149518
0.00164541
0.00176961
0.00186929
0.00194874
0.00201292
0.00206223
0.00210129
0.00213246
0.00215606
0.00217601
0.0021974
0.00222387
0.00225719
0.00229818
0.00234521
0.00239612
0.00244986
0.0025049
0.00256044
0.00261572
0.00266977
0.00272083
0.00277001
0.00281171
0.00144137
0.0015984
0.00173412
0.00184302
0.00192662
0.00198804
0.00203307
0.00206555
0.00209163
0.00211599
0.00214189
0.00217103
0.00220518
0.00224594
0.00229461
0.0023489
0.00240614
0.00246445
0.00252354
0.00258166
0.00263873
0.00269433
0.00274791
0.00280179
0.0028526
0.00149064
0.00167106
0.00182097
0.00193203
0.00201115
0.00206246
0.00209467
0.00211162
0.00212237
0.00213315
0.00214918
0.00217315
0.00220585
0.00224847
0.00230009
0.00235809
0.002419
0.00247912
0.00253889
0.00259648
0.00265166
0.00270528
0.00275857
0.00281592
0.00287699
0.00169782
0.00189389
0.00203505
0.00212863
0.00218459
0.00221126
0.00221822
0.00221156
0.00219967
0.00218998
0.00218865
0.00220002
0.00222709
0.00226778
0.00231853
0.00237583
0.00243526
0.0024928
0.00254781
0.00259888
0.00264582
0.00269062
0.00273526
0.00278551
0.00284359
0.00210926
0.00225924
0.00234332
0.00238411
0.00239352
0.00238245
0.00235867
0.00232662
0.0022924
0.00226343
0.00224734
0.00224911
0.00226887
0.00230387
0.00234905
0.00239964
0.00245079
0.00249853
0.00254099
0.00257761
0.00260793
0.00263338
0.00265686
0.0026849
0.00272341
0.00261769
0.0026503
0.00264318
0.00261779
0.00258165
0.00253627
0.0024852
0.00243255
0.00238299
0.0023415
0.00231416
0.00230554
0.00231588
0.00234198
0.00237781
0.00241699
0.00245285
0.00248452
0.00250791
0.00252078
0.0025234
0.00251757
0.0025054
0.0024908
0.0024802
0.00298239
0.00293826
0.00287076
0.00280127
0.00272846
0.00265406
0.00258089
0.00251154
0.00244893
0.0023976
0.00236371
0.00234865
0.00235143
0.00236693
0.00238907
0.00241076
0.00242872
0.00243687
0.00243219
0.00241444
0.00238419
0.0023429
0.00229184
0.00223488
0.00217626
0.00319058
0.0031307
0.0030338
0.00293429
0.00283468
0.00273757
0.0026459
0.00256176
0.0024878
0.00242826
0.00238928
0.00236608
0.0023589
0.00236214
0.00236934
0.00237135
0.00236282
0.00234132
0.00230606
0.00225677
0.00219409
0.0021194
0.00203567
0.00194767
0.00185853
0.00342985
0.00331931
0.0031787
0.00304454
0.00291697
0.00279689
0.00268626
0.00258827
0.00250316
0.00243456
0.00238705
0.00235739
0.00233889
0.00232536
0.00230998
0.00228454
0.00224796
0.00219833
0.0021347
0.00205727
0.00196712
0.00186496
0.00175436
0.00163397
0.00150457
0.00367043
0.00349928
0.00330972
0.00313884
0.00298163
0.00283685
0.00270836
0.002593
0.00249472
0.00241629
0.00235976
0.00231654
0.00227938
0.00224405
0.00220348
0.00215462
0.00209456
0.00202209
0.00193725
0.00184102
0.00173493
0.00161989
0.0014981
0.0013676
0.00122455
0.00388871
0.00366059
0.00342658
0.00322041
0.00303319
0.00286507
0.00271588
0.00258289
0.00247168
0.00237933
0.002305
0.00224337
0.00218774
0.00213308
0.00207379
0.00200696
0.00193093
0.00184537
0.00175088
0.00164899
0.00154128
0.00143148
0.00132038
0.00120367
0.00107579
0.00410163
0.00381484
0.00353701
0.00329653
0.00308055
0.00288866
0.00271834
0.00256744
0.0024382
0.00232925
0.00223767
0.00216049
0.00209164
0.00202391
0.00195397
0.00187978
0.00180052
0.00171623
0.0016287
0.00153907
0.0014462
0.00134887
0.00124361
0.00112979
0.001012
0.0043071
0.00396517
0.00364606
0.00337365
0.00313236
0.00291928
0.00273141
0.00256445
0.00241894
0.00229512
0.00219112
0.00210188
0.00202282
0.00194982
0.00187953
0.00181008
0.00174055
0.00167068
0.0015987
0.00152084
0.00143721
0.00134437
0.00124394
0.00112924
0.0010108
0.0044886
0.00410358
0.00375261
0.00345567
0.00319531
0.00296586
0.00276424
0.00258447
0.00242896
0.00229457
0.00218007
0.00208345
0.00200129
0.00193008
0.00186653
0.00180796
0.00175235
0.00169771
0.00164008
0.00157826
0.00150826
0.00142558
0.00132833
0.00120714
0.00107585
0.00461376
0.00420816
0.00384349
0.00353715
0.00327009
0.00303285
0.00282181
0.00263189
0.00246471
0.00232285
0.00220483
0.00210753
0.00202745
0.00196119
0.00190563
0.00185807
0.00181579
0.00177541
0.00173299
0.00168632
0.00163
0.00155872
0.00146824
0.00135148
0.00121038
0.00464873
0.00424596
0.00389074
0.00359507
0.00333782
0.00310698
0.00289774
0.00270754
0.00253698
0.00238844
0.00226385
0.0021626
0.00208286
0.00202147
0.00197438
0.00193701
0.00190484
0.0018742
0.00184188
0.0018051
0.00176092
0.0017054
0.00163284
0.00153794
0.00141318
0.00449828
0.00415146
0.0038488
0.00359169
0.0033661
0.00316055
0.00296903
0.00279054
0.00262649
0.00248061
0.00235662
0.00225491
0.002175
0.00211442
0.00206901
0.0020339
0.00200451
0.00197707
0.0019484
0.00191572
0.00187619
0.00182686
0.00176637
0.00169423
0.00160865
0.0041212
0.00388828
0.00368245
0.00349652
0.00332421
0.00316008
0.00300248
0.00285045
0.00270521
0.00257122
0.00245407
0.00235563
0.00227646
0.00221525
0.00216863
0.00213221
0.00210157
0.00207288
0.00204308
0.00200979
0.00197084
0.00192389
0.00186603
0.00179854
0.00171978
0.00359854
0.00348051
0.00337998
0.00328406
0.00318777
0.00308577
0.0029754
0.00286003
0.0027449
0.00263268
0.00252976
0.00243979
0.00236506
0.00230515
0.00225784
0.00221956
0.00218633
0.00215454
0.00212141
0.00208493
0.00204353
0.00199571
0.00193919
0.0018742
0.00180112
0.00295015
0.00295776
0.0029636
0.00296099
0.00294601
0.00291509
0.00286773
0.0028032
0.00272402
0.0026419
0.00256327
0.0024902
0.00242554
0.00237071
0.00232513
0.00228627
0.00225092
0.00221601
0.00217924
0.0021391
0.00209478
0.00204566
0.00199106
0.00193222
0.00187243
0.00230598
0.00241876
0.00251116
0.00258674
0.00264104
0.00267363
0.00268365
0.00267366
0.00264439
0.00259985
0.00254675
0.00249421
0.00244524
0.00240073
0.00236095
0.00232444
0.00228896
0.00225222
0.00221256
0.00216902
0.00212102
0.00206905
0.00201431
0.00196083
0.00191389
0.00183385
0.00200026
0.00213808
0.00225278
0.00234761
0.00242097
0.00247252
0.00250221
0.00251094
0.00250577
0.00248554
0.0024559
0.00242397
0.00239308
0.00236258
0.00233146
0.00229818
0.00226137
0.00221997
0.00217364
0.00212282
0.00206952
0.00201552
0.00196587
0.00192566
0.00160529
0.00176589
0.00190656
0.00202764
0.0021309
0.00221391
0.00228155
0.00233327
0.00236746
0.00238667
0.0023938
0.00238999
0.00237816
0.00236009
0.0023377
0.00231174
0.0022814
0.00224621
0.00220521
0.00215854
0.00210689
0.00205248
0.00199753
0.0019469
0.00190613
0.00152204
0.00169022
0.00182915
0.00193904
0.00202699
0.00209749
0.00215684
0.00220665
0.00224666
0.00227591
0.00229652
0.00230777
0.00231007
0.00230552
0.00229395
0.00227467
0.00224736
0.00221356
0.00217314
0.00212663
0.00207516
0.00202102
0.00196642
0.00191595
0.00187562
0.00156637
0.00173065
0.00185721
0.0019492
0.00201578
0.00206355
0.0021027
0.00213762
0.00216926
0.00219662
0.00221828
0.00223393
0.0022422
0.00224274
0.00223581
0.00222132
0.00219754
0.00216588
0.00212684
0.0020816
0.00203171
0.00197962
0.00192755
0.0018796
0.00184208
0.00175797
0.00188313
0.00197083
0.00202632
0.00205989
0.00208034
0.00209532
0.00211008
0.00212651
0.00214361
0.00215938
0.00217181
0.00217944
0.00218078
0.00217466
0.00216081
0.00213805
0.00210791
0.002071
0.00202859
0.00198214
0.00193397
0.00188587
0.00184158
0.00180735
0.00201341
0.00207538
0.00210831
0.00212277
0.00212289
0.00211517
0.00210667
0.002102
0.00210259
0.00210743
0.00211422
0.00212024
0.00212309
0.00212087
0.00211254
0.0020975
0.00207544
0.00204719
0.00201328
0.00197474
0.00193284
0.00188955
0.00184605
0.00180541
0.00177378
0.00223963
0.00223923
0.00222607
0.00220511
0.00217664
0.00214544
0.00211787
0.00209698
0.00208455
0.00207835
0.00207613
0.00207495
0.00207213
0.00206636
0.00205582
0.00204009
0.00201896
0.00199273
0.00196197
0.00192748
0.00189019
0.00185152
0.0018121
0.00177434
0.00174516
0.00237841
0.00235366
0.00231178
0.00226499
0.00221453
0.0021659
0.0021239
0.00209146
0.00206838
0.00205365
0.00204392
0.00203688
0.00203008
0.00202187
0.00201038
0.0019951
0.00197572
0.00195225
0.00192493
0.00189422
0.0018607
0.00182544
0.0017892
0.0017537
0.00172763
0.00251832
0.00245796
0.00238596
0.00231457
0.0022447
0.00218173
0.00212891
0.00208759
0.00205778
0.00203732
0.00202325
0.00201304
0.00200493
0.00199634
0.00198598
0.00197291
0.00195645
0.00193615
0.00191172
0.00188311
0.00185044
0.0018145
0.00177606
0.00173845
0.00171235
0.00264826
0.00255025
0.00244905
0.00235675
0.00227238
0.00219942
0.00213977
0.00209377
0.00206107
0.00203828
0.00202338
0.00201364
0.00200695
0.00200081
0.00199379
0.00198447
0.00197162
0.00195413
0.00193107
0.00190179
0.0018659
0.00182372
0.00177522
0.00172498
0.00168386
0.00273904
0.00261697
0.00249828
0.00239472
0.00230358
0.00222645
0.00216421
0.00211675
0.00208334
0.0020624
0.00205031
0.00204446
0.00204203
0.00204083
0.00203882
0.00203414
0.00202509
0.0020101
0.00198762
0.00195619
0.00191446
0.00186131
0.00179642
0.00172347
0.00165005
0.00277458
0.00265271
0.00253361
0.00243064
0.00234046
0.00226466
0.00220407
0.0021591
0.00212894
0.00211193
0.00210502
0.00210537
0.00211018
0.00211664
0.00212205
0.00212383
0.00211958
0.00210723
0.00208489
0.00205087
0.00200372
0.00194199
0.00186413
0.00177191
0.0016649
0.0027999
0.00268251
0.00256908
0.0024713
0.00238649
0.00231594
0.00226128
0.00222291
0.0022
0.0021906
0.00219209
0.00220136
0.00221521
0.00223027
0.0022433
0.00225108
0.00225136
0.00224158
0.00221983
0.00218465
0.00213474
0.00206916
0.0019873
0.00189038
0.00177665
0.00283392
0.00271839
0.00261065
0.00251963
0.00244233
0.00237985
0.00233363
0.0023039
0.00229013
0.00229046
0.00230212
0.00232187
0.00234596
0.00237055
0.00239194
0.00240736
0.00241353
0.00240847
0.00239018
0.00235716
0.00230784
0.00224089
0.0021552
0.00205113
0.00192439
0.00286341
0.002755
0.0026565
0.00257499
0.00250734
0.00245448
0.00241809
0.00239873
0.00239565
0.00240695
0.00243
0.00246111
0.0024961
0.00253066
0.00256159
0.00258585
0.00260116
0.00260486
0.00259504
0.00256964
0.00252659
0.00246342
0.00237754
0.00226688
0.00212471
0.00287704
0.00278988
0.00270768
0.00263873
0.00258245
0.00254067
0.00251511
0.00250653
0.00251455
0.0025375
0.00257235
0.00261503
0.00266098
0.00270626
0.00274788
0.00278326
0.00281034
0.00282679
0.00283064
0.00281968
0.00279087
0.00273992
0.00266075
0.00254728
0.00238822
0.00291557
0.00284313
0.00277468
0.00271813
0.00267308
0.002642
0.00262695
0.00262895
0.00264785
0.00268194
0.00272802
0.00278172
0.00283839
0.0028945
0.0029475
0.0029956
0.00303703
0.00307034
0.00309362
0.00310449
0.0030994
0.00307336
0.00301869
0.00292684
0.00278386
0.00299055
0.00292643
0.00286717
0.00282036
0.00278545
0.00276444
0.00275923
0.00277095
0.00279964
0.00284353
0.00289928
0.00296227
0.00302801
0.00309346
0.00315682
0.00321737
0.0032742
0.00332594
0.00337108
0.00340767
0.0034331
0.00344372
0.00343385
0.00339366
0.00330848
0.00308043
0.00302549
0.00298124
0.00294805
0.00292485
0.002914
0.00291783
0.00293779
0.00297404
0.00302499
0.00308747
0.00315695
0.00322909
0.0033012
0.00337211
0.00344187
0.00351005
0.00357603
0.00363921
0.00369906
0.00375523
0.00380716
0.00385365
0.00389229
0.00391562
0.00318357
0.0031612
0.00313559
0.00311422
0.00310025
0.00309754
0.00310859
0.0031346
0.00317565
0.00323031
0.00329556
0.00336731
0.00344145
0.00351542
0.00358827
0.00366024
0.00373162
0.0038027
0.00387419
0.00394739
0.00402424
0.0041073
0.00419939
0.004303
0.00440621
0.00339394
0.00336672
0.00333881
0.00331898
0.0033098
0.00331309
0.00332983
0.00336022
0.00340368
0.0034587
0.00352265
0.00359184
0.00366243
0.00373182
0.00379893
0.00386384
0.00392725
0.0039903
0.00405509
0.00412516
0.00420574
0.00430357
0.00442697
0.0045814
0.00474225
0.0036692
0.00359656
0.00354988
0.00352794
0.00352445
0.00353624
0.0035613
0.00359793
0.00364447
0.00369899
0.00375909
0.00382189
0.00388412
0.00394293
0.00399666
0.0040447
0.00408737
0.00412597
0.00416337
0.0042051
0.0042607
0.00434533
0.00448329
0.00470898
0.00502531
0.00385689
0.0037163
0.00366418
0.00366158
0.00368415
0.00372062
0.00376567
0.00381648
0.00387122
0.00392832
0.003986
0.00404213
0.00409417
0.00413975
0.00417668
0.00420313
0.00421777
0.00422001
0.00421062
0.0041928
0.00417424
0.0041714
0.00421742
0.00438213
0.00478559
0.00333578
0.00342025
0.00353381
0.00364348
0.00374251
0.00383125
0.00391192
0.00398648
0.00405615
0.0041216
0.00418263
0.00423831
0.00428716
0.00432678
0.00435444
0.00436701
0.00436105
0.00433285
0.00427837
0.0041927
0.00407081
0.00390774
0.00369758
0.00343716
0.00315924
0.00236486
0.00294048
0.00333833
0.00360299
0.00378908
0.00392941
0.00404241
0.00413825
0.00422244
0.00429841
0.00436705
0.00442781
0.00448018
0.00452215
0.00455076
0.00456222
0.00455172
0.00451335
0.00443996
0.00432214
0.00414728
0.00389823
0.0035482
0.00305279
0.00238714
0.00489653
0.00425396
0.00412411
0.00412371
0.00417826
0.00425427
0.00433772
0.00442091
0.00450091
0.00457788
0.00465006
0.00471633
0.00477616
0.00482761
0.00486782
0.00489292
0.00489797
0.00487666
0.00482235
0.00472969
0.0045999
0.00445507
0.00436725
0.00449877
0.00551264
0.0124346
0.00719939
0.00574824
0.00501075
0.00476228
0.00471872
0.00474264
0.00479429
0.00485984
0.00492986
0.00500522
0.00507849
0.00515018
0.0052198
0.0052852
0.00534305
0.00538878
0.00541621
0.00541851
0.00538266
0.00528512
0.00519115
0.00531581
0.00658482
0.0152072
0.0225337
0.0123503
0.00817263
0.00604551
0.00509137
0.0046644
0.00452003
0.00451298
0.00455907
0.0046107
0.00464303
0.0046684
0.00471177
0.00477167
0.00483787
0.00492064
0.00501903
0.00512348
0.00518756
0.00521345
0.00518754
0.0050943
0.00582613
0.00981757
0.0270678
0.0223699
0.0106401
0.00692706
0.00534205
0.00470773
0.00476226
0.00484525
0.00486545
0.00447248
0.00352032
0.0028273
0.002613
0.00256529
0.00258649
0.00268206
0.0028725
0.00324023
0.00381067
0.00447033
0.00480274
0.0049584
0.004786
0.00550421
0.00989778
0.0236502
0.0157324
0.00982586
0.00658171
0.00507726
0.00464928
0.00454783
0.00408853
0.00307362
0.00119974
0.000420208
0.000221715
0.000173723
0.000168981
0.000186363
0.000230941
0.000328148
0.00059992
0.00136137
0.00293226
0.00451923
0.00506327
0.00484097
0.00551127
0.00898255
0.0140073
0.0104762
0.0089126
0.00628286
0.00500043
0.00459878
0.00435191
0.00342536
0.00176597
0.000549584
0.000224911
4.81067e-05
5.15511e-06
1.41431e-06
1.42637e-06
1.92532e-06
3.92665e-06
1.36865e-05
5.72503e-05
0.000450443
0.00169429
0.00423999
0.00470303
0.0052909
0.00828548
0.0105771
0.00526137
0.0059467
0.00465331
0.00411805
0.00408088
0.00405209
0.00367793
0.00275891
0.00180423
0.000777179
9.95708e-05
5.96279e-06
7.92455e-07
7.41041e-07
7.38974e-07
7.35786e-07
7.27324e-07
7.38011e-07
1.64265e-06
0.000169005
0.00131419
0.00336676
0.00456984
0.00652635
0.00635892
)
;

boundaryField
{
    inlet
    {
        type            calculated;
        value           uniform 8.4375e-07;
    }
    outlet
    {
        type            calculated;
        value           nonuniform List<scalar> 
25
(
0.00526137
0.0059467
0.00465331
0.00411805
0.00408088
0.00405209
0.00367793
0.00275891
0.00180423
8.4375e-07
8.4375e-07
8.4375e-07
8.4375e-07
8.4375e-07
8.4375e-07
8.4375e-07
8.4375e-07
8.4375e-07
8.4375e-07
8.4375e-07
0.00131419
0.00336676
0.00456984
0.00652635
0.00635892
)
;
    }
    walls
    {
        type            nutkWallFunction;
        Cmu             0.09;
        kappa           0.41;
        E               9.8;
        value           nonuniform List<scalar> 
150
(
1.68822e-05
1.9325e-05
2.00206e-05
2.02458e-05
2.04257e-05
2.07487e-05
2.10848e-05
2.13833e-05
2.15866e-05
2.17089e-05
2.17693e-05
2.17146e-05
2.16289e-05
2.15529e-05
2.14797e-05
2.14374e-05
2.14233e-05
2.13963e-05
2.13046e-05
2.10939e-05
2.07427e-05
2.03219e-05
2.0026e-05
1.99787e-05
2.01588e-05
2.04963e-05
2.08901e-05
2.12767e-05
2.15824e-05
2.1879e-05
2.21341e-05
2.23522e-05
2.25408e-05
2.26852e-05
2.278e-05
2.28331e-05
2.28532e-05
2.28351e-05
2.2768e-05
2.26173e-05
2.23342e-05
2.18986e-05
2.13118e-05
2.06302e-05
2.00756e-05
1.9872e-05
1.99053e-05
2.01021e-05
2.03556e-05
2.0597e-05
2.07971e-05
2.0953e-05
2.1062e-05
2.1126e-05
2.11513e-05
2.11679e-05
2.12068e-05
2.12754e-05
2.13812e-05
2.15247e-05
2.17171e-05
2.19754e-05
2.23297e-05
2.27934e-05
2.34192e-05
2.42944e-05
2.5575e-05
2.71866e-05
2.70728e-05
2.62382e-05
2.37069e-05
2.18768e-05
2.10708e-05
2.0644e-05
1.9258e-05
1.3937e-05
1.66174e-05
1.75455e-05
1.8029e-05
1.82688e-05
1.83844e-05
1.83999e-05
1.8375e-05
1.83046e-05
1.82504e-05
1.82901e-05
1.84758e-05
1.89e-05
1.93964e-05
1.97943e-05
2.01604e-05
2.05085e-05
2.08008e-05
2.10084e-05
2.11588e-05
2.12789e-05
2.13779e-05
2.14456e-05
2.1475e-05
2.14684e-05
2.14111e-05
2.12815e-05
2.10557e-05
2.06971e-05
2.01952e-05
1.9601e-05
1.89492e-05
1.84503e-05
1.83055e-05
1.84411e-05
1.87412e-05
1.90766e-05
1.94144e-05
1.97027e-05
1.99232e-05
2.00692e-05
2.01479e-05
2.01738e-05
2.01681e-05
2.0121e-05
2.00428e-05
1.99485e-05
1.98536e-05
1.97675e-05
1.96921e-05
1.96511e-05
1.96597e-05
1.97414e-05
1.992e-05
2.0183e-05
2.05296e-05
2.09849e-05
2.15005e-05
2.20353e-05
2.25913e-05
2.31651e-05
2.37241e-05
2.42773e-05
2.48887e-05
2.56455e-05
2.67069e-05
2.84945e-05
3.05357e-05
3.0402e-05
2.97053e-05
2.82037e-05
2.65854e-05
2.55009e-05
2.51206e-05
2.42673e-05
)
;
    }
    defaultFaces
    {
        type            empty;
    }
}


// ************************************************************************* //
