/*--------------------------------*- C++ -*----------------------------------*\
| =========                 |                                                 |
| \\      /  F ield         | OpenFOAM: The Open Source CFD Toolbox           |
|  \\    /   O peration     | Version:  2.3.0                                 |
|   \\  /    A nd           | Web:      www.OpenFOAM.org                      |
|    \\/     M anipulation  |                                                 |
\*---------------------------------------------------------------------------*/
FoamFile
{
    version     2.0;
    format      ascii;
    class       volScalarField;
    location    "0.55";
    object      p;
}
// * * * * * * * * * * * * * * * * * * * * * * * * * * * * * * * * * * * * * //

dimensions      [1 -1 -2 0 0 0 0];

internalField   nonuniform List<scalar> 
6000
(
106173
106180
106188
106196
106205
106210
106208
106194
106182
106178
106179
106185
106195
106200
106201
106199
106192
106184
106180
106183
106193
106211
106222
106226
106225
106221
106218
106217
106211
106205
106131
106130
106130
106132
106137
106141
106138
106129
106127
106128
106128
106126
106130
106136
106137
106133
106128
106129
106133
106132
106135
106141
106150
106154
106156
106158
106160
106162
106165
106168
106105
106104
106103
106102
106102
106103
106098
106094
106093
106091
106090
106089
106088
106093
106095
106091
106091
106095
106097
106100
106103
106106
106112
106118
106124
106130
106135
106139
106142
106143
106081
106082
106081
106078
106074
106069
106063
106062
106060
106057
106056
106054
106053
106053
106055
106055
106058
106061
106065
106069
106074
106078
106083
106091
106099
106107
106114
106120
106123
106121
106058
106062
106062
106058
106052
106044
106037
106032
106027
106024
106022
106021
106022
106021
106023
106025
106027
106029
106033
106038
106045
106053
106060
106069
106078
106086
106095
106102
106103
106101
106035
106039
106041
106039
106032
106021
106011
106002
105995
105990
105988
105989
105992
105994
105996
105997
105996
105998
106002
106008
106016
106026
106037
106048
106058
106067
106075
106079
106079
106079
106007
106007
106010
106012
106008
105997
105983
105971
105961
105956
105955
105957
105964
105968
105969
105969
105966
105967
105971
105978
105987
105999
106013
106026
106037
106045
106047
106043
106044
106048
105964
105961
105960
105964
105967
105965
105954
105938
105927
105920
105919
105923
105932
105937
105939
105939
105935
105935
105940
105948
105959
105972
105985
105996
106004
106003
105993
105987
105989
105996
105898
105892
105889
105892
105899
105910
105915
105904
105890
105882
105881
105886
105894
105897
105900
105902
105903
105903
105908
105917
105928
105940
105944
105941
105935
105926
105919
105916
105918
105923
105813
105808
105806
105807
105814
105830
105854
105862
105851
105840
105838
105842
105842
105842
105847
105856
105864
105867
105873
105882
105890
105886
105865
105849
105841
105837
105836
105837
105841
105843
105722
105718
105715
105714
105718
105731
105759
105792
105797
105786
105780
105778
105771
105773
105782
105796
105812
105823
105830
105833
105818
105781
105752
105739
105738
105742
105748
105754
105760
105764
105631
105626
105619
105613
105610
105618
105638
105670
105699
105692
105682
105681
105681
105691
105706
105722
105743
105759
105762
105737
105689
105644
105616
105614
105627
105644
105658
105668
105675
105682
105542
105531
105518
105507
105494
105496
105507
105524
105540
105538
105535
105555
105577
105601
105621
105638
105656
105665
105643
105595
105538
105492
105470
105479
105516
105549
105570
105578
105581
105596
105456
105430
105403
105399
105388
105387
105392
105398
105400
105400
105403
105428
105472
105509
105533
105549
105559
105545
105505
105446
105401
105375
105368
105375
105411
105456
105493
105514
105518
105524
105376
105358
105336
105327
105326
105327
105329
105332
105335
105339
105341
105344
105382
105425
105449
105463
105459
105432
105377
105339
105326
105323
105323
105326
105339
105379
105423
105448
105462
105465
105323
105311
105301
105296
105295
105296
105297
105299
105303
105308
105309
105306
105321
105355
105376
105384
105373
105333
105301
105292
105291
105293
105295
105297
105303
105329
105367
105398
105414
105421
105290
105284
105279
105275
105273
105273
105274
105276
105278
105280
105281
105280
105281
105302
105318
105320
105305
105279
105266
105266
105266
105266
105267
105268
105272
105290
105324
105354
105370
105376
105264
105262
105259
105254
105251
105250
105250
105251
105252
105253
105254
105253
105252
105263
105274
105274
105264
105250
105245
105243
105242
105241
105239
105239
105240
105245
105268
105292
105306
105315
105240
105239
105236
105231
105229
105227
105226
105226
105227
105227
105227
105227
105227
105232
105239
105239
105235
105230
105224
105221
105219
105216
105213
105211
105210
105204
105207
105225
105233
105248
105216
105214
105213
105209
105206
105204
105202
105202
105202
105201
105201
105202
105202
105206
105209
105209
105209
105209
105203
105199
105196
105192
105189
105187
105184
105178
105174
105176
105182
105191
105191
105190
105190
105187
105184
105181
105179
105178
105177
105176
105176
105176
105177
105180
105182
105183
105185
105188
105182
105177
105174
105170
105167
105166
105164
105160
105156
105155
105157
105160
105168
105167
105167
105166
105162
105159
105156
105154
105153
105152
105151
105150
105150
105153
105156
105158
105161
105165
105160
105155
105152
105149
105147
105146
105145
105143
105142
105141
105142
105142
105146
105145
105146
105145
105141
105137
105134
105132
105130
105128
105127
105125
105124
105125
105129
105133
105138
105141
105138
105134
105131
105129
105127
105127
105127
105126
105128
105128
105128
105127
105124
105125
105125
105126
105122
105117
105113
105109
105107
105105
105103
105102
105101
105099
105104
105109
105115
105119
105118
105114
105111
105109
105108
105109
105109
105110
105112
105113
105113
105111
105102
105103
105105
105106
105103
105097
105092
105088
105085
105083
105081
105080
105079
105076
105080
105087
105092
105096
105097
105094
105092
105091
105090
105091
105092
105093
105094
105095
105094
105093
105076
105078
105081
105084
105084
105077
105072
105068
105065
105063
105061
105059
105058
105056
105058
105061
105059
105065
105073
105074
105073
105073
105073
105075
105075
105077
105077
105075
105073
105071
105046
105049
105054
105059
105061
105058
105052
105048
105045
105044
105042
105040
105039
105038
105038
105034
105026
105031
105045
105052
105054
105055
105057
105059
105059
105059
105057
105053
105049
105045
105013
105017
105023
105031
105038
105039
105033
105030
105027
105025
105024
105023
105022
105021
105019
105009
105003
105006
105015
105027
105034
105038
105042
105043
105040
105039
105035
105028
105021
105016
104976
104981
104989
105000
105012
105018
105015
105012
105010
105008
105007
105006
105005
105004
104999
104987
104982
104985
104990
105001
105011
105018
105024
105020
105017
105014
105008
104998
104987
104981
104934
104940
104950
104965
104983
104996
104998
104995
104994
104993
104992
104991
104990
104987
104977
104963
104959
104960
104965
104973
104984
104995
104997
104989
104988
104984
104975
104960
104946
104938
104885
104892
104905
104924
104948
104971
104979
104979
104979
104979
104979
104977
104975
104968
104951
104936
104933
104933
104936
104942
104952
104963
104960
104951
104953
104948
104933
104912
104896
104887
104828
104836
104852
104874
104903
104935
104952
104959
104963
104965
104965
104963
104956
104942
104921
104908
104905
104904
104905
104908
104914
104923
104916
104911
104911
104902
104879
104853
104834
104824
104763
104771
104788
104814
104846
104882
104910
104926
104935
104940
104941
104938
104928
104909
104890
104880
104877
104874
104873
104874
104876
104880
104871
104867
104860
104840
104809
104780
104760
104750
104687
104694
104714
104743
104777
104812
104844
104868
104882
104889
104889
104887
104880
104869
104857
104853
104849
104845
104842
104841
104843
104842
104824
104814
104795
104762
104724
104693
104672
104663
104603
104605
104630
104662
104698
104731
104759
104781
104791
104794
104795
104798
104804
104814
104821
104823
104821
104816
104811
104809
104813
104800
104763
104740
104710
104669
104628
104594
104570
104564
104516
104518
104536
104576
104614
104644
104666
104678
104681
104681
104683
104693
104710
104736
104767
104780
104783
104782
104778
104773
104773
104737
104687
104652
104613
104566
104521
104482
104448
104453
104457
104455
104464
104490
104532
104561
104575
104575
104567
104557
104564
104580
104605
104636
104674
104705
104722
104731
104731
104721
104703
104652
104602
104559
104512
104457
104406
104365
104342
104341
104414
104414
104418
104430
104453
104482
104486
104470
104438
104409
104438
104464
104493
104526
104559
104591
104618
104637
104647
104632
104588
104545
104504
104460
104407
104348
104312
104292
104287
104284
104381
104382
104384
104386
104400
104409
104399
104352
104304
104289
104317
104350
104383
104413
104440
104465
104484
104499
104505
104491
104437
104412
104398
104359
104302
104274
104262
104258
104257
104255
104349
104348
104347
104343
104339
104333
104304
104257
104233
104232
104236
104254
104275
104300
104322
104340
104351
104353
104346
104328
104287
104286
104285
104261
104245
104237
104236
104236
104236
104235
104311
104307
104301
104292
104279
104264
104240
104213
104202
104201
104196
104196
104200
104210
104222
104231
104236
104234
104226
104218
104214
104215
104219
104218
104214
104214
104216
104217
104217
104218
104267
104261
104254
104245
104234
104220
104203
104187
104179
104175
104171
104165
104162
104161
104162
104164
104166
104168
104170
104173
104179
104182
104187
104190
104193
104195
104197
104199
104200
104202
104221
104217
104211
104205
104196
104186
104175
104163
104155
104151
104148
104144
104140
104137
104135
104135
104136
104139
104143
104149
104154
104159
104165
104171
104175
104177
104180
104183
104185
104188
104177
104176
104173
104168
104162
104155
104147
104138
104132
104128
104125
104122
104120
104117
104116
104116
104117
104119
104123
104127
104131
104136
104144
104152
104158
104161
104164
104168
104171
104175
104137
104139
104137
104134
104130
104125
104120
104114
104108
104105
104103
104100
104098
104097
104096
104096
104097
104099
104101
104104
104108
104113
104122
104133
104140
104146
104150
104155
104158
104162
104105
104106
104105
104102
104100
104097
104093
104089
104085
104082
104080
104078
104076
104075
104075
104075
104075
104077
104079
104081
104084
104088
104098
104111
104122
104129
104135
104141
104146
104149
104078
104077
104076
104074
104072
104070
104068
104065
104062
104059
104057
104055
104054
104053
104053
104053
104053
104054
104056
104058
104060
104063
104072
104087
104099
104109
104117
104124
104130
104128
104057
104053
104051
104049
104047
104045
104043
104041
104038
104036
104034
104032
104031
104031
104030
104030
104031
104031
104032
104034
104036
104037
104046
104060
104073
104084
104093
104100
104103
104102
104036
104032
104029
104026
104024
104022
104020
104017
104014
104012
104010
104009
104008
104008
104007
104007
104008
104008
104009
104010
104011
104012
104020
104033
104044
104054
104063
104069
104071
104071
104015
104014
104010
104005
104002
104000
103997
103993
103989
103988
103987
103986
103985
103985
103985
103984
103984
103985
103985
103985
103986
103986
103992
104004
104013
104022
104029
104035
104040
104037
103990
103992
103989
103985
103981
103978
103974
103968
103963
103963
103963
103962
103962
103962
103962
103961
103961
103961
103961
103961
103960
103960
103960
103971
103981
103988
103996
104004
104010
104007
103960
103962
103963
103962
103959
103954
103949
103942
103939
103939
103939
103939
103939
103939
103939
103939
103938
103938
103938
103937
103935
103934
103927
103938
103948
103956
103964
103975
103981
103979
103922
103928
103931
103934
103933
103927
103922
103915
103915
103916
103916
103916
103916
103916
103916
103916
103916
103915
103915
103914
103912
103909
103904
103909
103918
103926
103935
103947
103953
103952
103882
103890
103897
103901
103904
103898
103895
103889
103892
103893
103893
103894
103894
103894
103894
103894
103894
103893
103893
103892
103890
103887
103885
103885
103891
103898
103907
103919
103923
103926
103845
103849
103860
103867
103872
103873
103871
103866
103869
103870
103871
103872
103872
103873
103873
103873
103872
103872
103871
103870
103869
103867
103865
103862
103866
103873
103882
103893
103899
103902
103811
103815
103820
103832
103842
103849
103849
103846
103848
103849
103850
103850
103851
103851
103852
103852
103852
103851
103851
103850
103848
103847
103845
103841
103844
103850
103859
103869
103875
103877
103786
103783
103789
103798
103811
103821
103826
103825
103826
103828
103829
103830
103830
103831
103831
103831
103831
103831
103831
103830
103829
103827
103825
103822
103822
103828
103837
103846
103853
103855
103766
103758
103762
103770
103782
103795
103801
103803
103805
103807
103808
103809
103810
103811
103811
103811
103811
103811
103811
103810
103810
103808
103807
103805
103801
103807
103818
103828
103836
103836
103747
103742
103742
103748
103760
103774
103778
103782
103785
103787
103788
103789
103790
103791
103791
103792
103792
103792
103792
103791
103791
103790
103789
103788
103785
103790
103799
103812
103821
103821
103736
103733
103729
103731
103742
103755
103758
103763
103765
103767
103769
103770
103771
103771
103772
103772
103772
103772
103772
103772
103772
103772
103772
103771
103770
103770
103781
103793
103799
103803
103726
103723
103720
103719
103728
103738
103741
103745
103747
103748
103750
103750
103751
103752
103752
103752
103753
103753
103753
103753
103753
103753
103754
103754
103754
103754
103759
103768
103772
103773
103717
103715
103712
103711
103717
103724
103725
103727
103729
103730
103731
103731
103732
103732
103733
103733
103733
103734
103734
103734
103734
103735
103736
103736
103737
103738
103739
103742
103744
103744
103707
103706
103703
103703
103705
103710
103710
103711
103712
103712
103712
103713
103713
103714
103714
103714
103714
103715
103715
103715
103716
103717
103718
103718
103719
103721
103720
103720
103720
103720
103699
103698
103696
103693
103694
103696
103696
103695
103695
103695
103695
103695
103695
103695
103695
103696
103696
103696
103697
103697
103698
103699
103700
103701
103702
103703
103701
103700
103698
103699
103693
103693
103689
103685
103682
103682
103681
103679
103678
103678
103677
103677
103677
103677
103677
103678
103678
103678
103679
103679
103680
103681
103682
103684
103685
103685
103682
103679
103677
103678
103692
103691
103686
103677
103673
103669
103666
103664
103662
103661
103661
103660
103660
103660
103660
103660
103661
103661
103662
103662
103663
103664
103665
103667
103669
103669
103664
103659
103656
103657
103694
103691
103683
103671
103663
103657
103652
103649
103647
103645
103644
103643
103643
103643
103643
103644
103644
103644
103645
103645
103646
103647
103648
103650
103654
103652
103645
103640
103637
103638
103683
103682
103673
103664
103655
103644
103638
103633
103631
103629
103628
103627
103627
103627
103627
103628
103628
103629
103629
103629
103629
103630
103631
103633
103637
103634
103627
103622
103619
103620
103660
103660
103658
103652
103642
103627
103622
103617
103614
103613
103611
103611
103611
103611
103612
103612
103613
103614
103613
103612
103612
103613
103614
103615
103619
103615
103608
103605
103603
103603
103632
103633
103632
103628
103618
103608
103604
103600
103598
103596
103595
103594
103595
103595
103596
103598
103599
103599
103598
103596
103595
103595
103596
103598
103601
103596
103590
103588
103587
103587
103604
103605
103604
103600
103593
103587
103585
103584
103581
103580
103579
103578
103578
103579
103580
103581
103582
103581
103580
103578
103578
103578
103579
103581
103582
103577
103573
103571
103571
103572
103576
103577
103578
103575
103569
103566
103566
103566
103564
103563
103562
103562
103561
103561
103561
103561
103561
103561
103560
103561
103561
103561
103562
103564
103564
103559
103556
103555
103556
103556
103548
103550
103553
103552
103548
103546
103547
103548
103547
103547
103546
103546
103545
103543
103542
103541
103540
103540
103541
103543
103544
103545
103546
103548
103547
103543
103540
103540
103540
103540
103523
103524
103528
103529
103529
103529
103529
103529
103530
103530
103530
103530
103529
103528
103526
103525
103524
103524
103526
103527
103528
103529
103529
103531
103531
103527
103524
103524
103524
103524
103499
103499
103503
103508
103511
103513
103513
103513
103514
103514
103514
103513
103513
103512
103511
103510
103510
103510
103511
103512
103512
103513
103513
103514
103514
103512
103509
103509
103509
103508
103476
103477
103480
103487
103493
103497
103498
103497
103498
103498
103497
103497
103496
103496
103495
103495
103495
103495
103495
103496
103497
103497
103498
103499
103499
103498
103495
103494
103493
103492
103453
103455
103459
103466
103475
103481
103484
103483
103482
103482
103481
103481
103480
103480
103479
103479
103479
103479
103480
103480
103481
103482
103483
103484
103484
103486
103482
103478
103475
103476
103429
103432
103437
103445
103455
103465
103469
103469
103467
103466
103465
103465
103464
103464
103463
103463
103463
103464
103464
103465
103466
103467
103468
103470
103469
103468
103465
103461
103457
103454
103406
103409
103414
103423
103434
103446
103454
103455
103452
103450
103450
103449
103448
103448
103448
103448
103448
103448
103449
103450
103451
103452
103454
103456
103454
103448
103440
103435
103431
103428
103383
103385
103390
103399
103411
103425
103438
103441
103437
103435
103434
103433
103433
103432
103432
103432
103433
103433
103434
103435
103436
103437
103440
103441
103437
103427
103418
103410
103404
103402
103358
103360
103365
103374
103387
103402
103419
103425
103423
103420
103419
103418
103418
103417
103418
103418
103418
103419
103420
103421
103422
103423
103427
103426
103418
103406
103394
103385
103378
103375
103329
103330
103336
103346
103361
103378
103397
103408
103409
103405
103404
103403
103403
103403
103403
103404
103405
103405
103406
103407
103408
103410
103413
103410
103398
103383
103370
103360
103352
103349
103295
103298
103305
103317
103333
103353
103374
103391
103394
103390
103389
103389
103389
103389
103390
103391
103392
103392
103393
103394
103395
103397
103399
103393
103376
103359
103344
103333
103325
103321
103256
103261
103270
103285
103304
103326
103351
103372
103378
103375
103374
103374
103375
103376
103378
103379
103380
103381
103381
103382
103383
103385
103385
103374
103352
103332
103315
103302
103293
103289
103213
103219
103231
103249
103271
103298
103326
103352
103361
103360
103360
103361
103362
103364
103366
103368
103369
103370
103370
103371
103371
103374
103371
103352
103325
103301
103281
103266
103255
103250
103163
103170
103186
103208
103235
103266
103299
103331
103344
103346
103345
103347
103350
103353
103356
103358
103359
103360
103360
103360
103360
103360
103353
103324
103292
103265
103242
103224
103211
103205
103103
103113
103133
103160
103192
103229
103268
103306
103326
103329
103331
103333
103337
103341
103344
103346
103348
103349
103348
103347
103345
103340
103325
103289
103254
103224
103197
103174
103159
103151
103021
103040
103069
103105
103143
103186
103231
103277
103303
103311
103315
103318
103323
103326
103329
103331
103332
103332
103330
103327
103320
103308
103282
103246
103210
103177
103146
103117
103094
103079
102917
102952
102997
103043
103088
103135
103187
103239
103272
103287
103295
103300
103303
103305
103307
103308
103308
103306
103302
103294
103281
103258
103228
103195
103161
103126
103090
103052
103015
102987
102852
102877
102926
102977
103027
103077
103133
103189
103230
103255
103268
103273
103275
103275
103275
103273
103270
103266
103258
103246
103225
103197
103168
103138
103107
103074
103035
102991
102951
102933
102827
102834
102865
102915
102965
103017
103072
103127
103173
103210
103229
103235
103234
103230
103227
103222
103215
103208
103198
103184
103162
103134
103107
103081
103053
103022
102985
102943
102917
102913
102815
102816
102825
102858
102905
102953
103005
103055
103104
103146
103170
103176
103173
103168
103162
103155
103147
103139
103129
103116
103098
103074
103047
103024
103000
102974
102941
102912
102902
102901
102807
102806
102808
102818
102844
102884
102934
102984
103031
103065
103085
103094
103094
103092
103088
103082
103075
103067
103058
103047
103034
103017
102994
102971
102952
102932
102909
102895
102891
102890
102798
102799
102799
102800
102808
102825
102862
102912
102953
102981
102998
103006
103011
103013
103011
103007
103001
102994
102986
102977
102968
102959
102944
102925
102908
102896
102886
102882
102881
102880
102790
102791
102791
102791
102792
102797
102809
102840
102876
102902
102917
102926
102933
102935
102935
102931
102927
102920
102914
102907
102900
102895
102888
102880
102869
102863
102865
102869
102871
102869
102782
102782
102782
102782
102781
102780
102781
102788
102809
102831
102844
102853
102859
102861
102860
102857
102852
102847
102841
102835
102830
102827
102825
102824
102824
102827
102837
102850
102857
102857
102772
102772
102771
102770
102767
102763
102758
102754
102757
102768
102777
102785
102789
102789
102786
102782
102777
102772
102767
102763
102759
102757
102757
102761
102767
102777
102795
102817
102833
102838
102759
102758
102756
102752
102747
102740
102732
102722
102715
102717
102720
102723
102721
102717
102712
102707
102702
102697
102693
102689
102686
102685
102686
102691
102699
102712
102732
102759
102787
102800
102739
102738
102733
102725
102716
102708
102699
102687
102678
102671
102667
102660
102652
102644
102636
102630
102624
102620
102616
102613
102611
102610
102612
102616
102624
102636
102654
102677
102704
102722
102708
102705
102694
102681
102670
102662
102655
102647
102636
102625
102611
102595
102580
102568
102559
102551
102545
102541
102538
102536
102534
102534
102534
102537
102543
102552
102566
102584
102602
102615
102656
102648
102631
102615
102603
102597
102595
102593
102583
102568
102547
102524
102504
102489
102478
102470
102465
102461
102459
102457
102456
102455
102454
102454
102457
102463
102472
102484
102496
102504
102572
102560
102543
102528
102519
102515
102516
102519
102514
102496
102472
102445
102423
102405
102394
102387
102382
102379
102378
102378
102377
102375
102371
102369
102368
102370
102374
102381
102388
102394
102463
102453
102439
102429
102423
102422
102424
102429
102429
102412
102388
102361
102337
102320
102309
102304
102300
102297
102298
102300
102299
102294
102287
102280
102275
102273
102273
102275
102279
102282
102344
102337
102329
102323
102321
102323
102328
102333
102335
102325
102303
102278
102256
102242
102233
102227
102224
102220
102223
102227
102223
102214
102202
102190
102181
102174
102169
102167
102167
102168
102222
102218
102215
102214
102217
102222
102230
102238
102243
102240
102226
102206
102191
102180
102172
102164
102159
102157
102159
102160
102151
102135
102117
102100
102087
102075
102064
102057
102053
102052
102097
102097
102099
102106
102114
102123
102133
102146
102155
102159
102157
102147
102136
102127
102119
102111
102106
102105
102105
102099
102081
102059
102035
102015
101997
101979
101961
101945
101935
101931
101969
101971
101981
101997
102014
102027
102041
102056
102071
102081
102088
102091
102084
102075
102066
102060
102055
102054
102052
102039
102013
101984
101956
101933
101911
101886
101859
101832
101808
101796
101828
101837
101861
101889
101915
101935
101952
101971
101988
102003
102016
102028
102029
102023
102015
102008
102004
102002
101997
101975
101944
101911
101882
101855
101828
101796
101760
101721
101679
101646
101666
101697
101741
101782
101818
101846
101869
101889
101909
101925
101941
101955
101966
101968
101963
101957
101953
101949
101935
101907
101873
101841
101811
101781
101749
101712
101670
101622
101579
101561
101576
101591
101634
101684
101727
101762
101790
101813
101832
101848
101863
101878
101892
101902
101905
101902
101897
101886
101864
101834
101802
101772
101742
101711
101676
101638
101593
101555
101540
101537
101551
101553
101566
101602
101648
101685
101716
101740
101759
101773
101785
101798
101810
101823
101833
101835
101827
101810
101786
101759
101731
101704
101677
101646
101610
101572
101543
101532
101529
101529
101542
101542
101545
101555
101583
101618
101649
101673
101690
101701
101708
101716
101726
101736
101746
101750
101742
101725
101704
101682
101661
101640
101615
101585
101557
101536
101528
101525
101525
101524
101536
101537
101537
101540
101548
101571
101593
101612
101624
101633
101637
101640
101645
101653
101660
101664
101656
101641
101625
101612
101600
101585
101565
101545
101531
101525
101522
101521
101520
101520
101531
101531
101532
101534
101536
101544
101558
101570
101575
101579
101582
101585
101586
101588
101591
101591
101585
101575
101567
101560
101553
101544
101534
101526
101522
101519
101518
101517
101516
101515
101525
101525
101526
101527
101529
101531
101537
101542
101546
101549
101552
101553
101554
101553
101551
101549
101545
101541
101538
101534
101530
101525
101521
101518
101515
101513
101512
101511
101511
101510
101518
101519
101519
101520
101521
101522
101522
101524
101527
101529
101531
101532
101532
101531
101528
101526
101524
101522
101521
101519
101517
101514
101512
101510
101508
101507
101506
101505
101505
101505
101511
101511
101511
101511
101510
101508
101507
101506
101507
101508
101510
101510
101510
101510
101508
101507
101506
101505
101505
101504
101502
101501
101500
101499
101499
101499
101498
101498
101498
101498
101502
101502
101501
101499
101494
101489
101484
101481
101479
101479
101480
101481
101482
101483
101483
101482
101483
101483
101483
101482
101481
101481
101482
101484
101486
101488
101489
101490
101490
101490
101490
101489
101487
101481
101471
101460
101450
101442
101437
101434
101433
101434
101435
101437
101439
101441
101443
101444
101444
101443
101444
101446
101450
101457
101465
101471
101476
101479
101480
101480
101473
101472
101466
101452
101434
101416
101401
101389
101380
101374
101370
101368
101368
101369
101371
101373
101375
101376
101377
101378
101380
101386
101395
101408
101425
101442
101454
101462
101465
101466
101448
101444
101430
101406
101381
101359
101340
101325
101313
101304
101298
101294
101292
101292
101292
101293
101294
101296
101297
101300
101304
101312
101323
101338
101360
101386
101413
101433
101442
101445
101405
101396
101371
101341
101314
101290
101270
101253
101240
101229
101222
101217
101213
101212
101211
101211
101212
101213
101216
101219
101224
101232
101244
101260
101281
101309
101342
101378
101401
101408
101334
101320
101292
101263
101237
101213
101193
101176
101163
101152
101144
101138
101134
101131
101130
101130
101131
101133
101136
101140
101146
101154
101165
101179
101197
101222
101255
101292
101328
101344
101235
101222
101200
101176
101152
101131
101112
101096
101082
101072
101064
101058
101054
101051
101050
101051
101052
101054
101058
101064
101070
101079
101088
101100
101114
101133
101159
101192
101225
101245
101128
101120
101103
101083
101063
101044
101027
101013
101000
100991
100983
100978
100974
100972
100971
100971
100973
100977
100981
100988
100995
101004
101013
101023
101033
101045
101063
101087
101113
101130
101025
101019
101005
100988
100971
100955
100941
100928
100918
100909
100902
100897
100893
100891
100891
100892
100894
100898
100903
100910
100918
100926
100934
100943
100951
100960
100970
100984
101003
101016
100924
100917
100906
100892
100879
100865
100853
100843
100834
100827
100821
100816
100813
100811
100811
100812
100814
100818
100823
100830
100837
100845
100853
100860
100867
100874
100878
100886
100897
100906
100822
100816
100807
100796
100785
100774
100765
100756
100749
100743
100738
100735
100732
100730
100730
100731
100734
100738
100743
100749
100756
100763
100770
100778
100784
100789
100791
100791
100795
100802
100720
100715
100708
100699
100691
100683
100675
100669
100664
100659
100656
100653
100651
100650
100650
100652
100654
100657
100662
100667
100673
100680
100687
100694
100701
100706
100707
100705
100703
100704
100618
100615
100609
100603
100596
100590
100585
100580
100577
100575
100573
100572
100571
100570
100571
100572
100574
100577
100581
100586
100591
100597
100604
100610
100617
100622
100624
100623
100615
100613
100518
100515
100511
100506
100502
100497
100494
100492
100491
100491
100491
100491
100491
100492
100493
100494
100496
100498
100501
100505
100509
100514
100520
100526
100532
100536
100539
100537
100529
100525
100419
100417
100414
100410
100408
100405
100404
100405
100406
100409
100411
100412
100414
100415
100416
100418
100419
100421
100423
100425
100428
100432
100436
100441
100446
100449
100452
100452
100445
100434
100322
100320
100316
100315
100315
100316
100317
100321
100325
100329
100333
100336
100338
100340
100342
100343
100344
100345
100346
100347
100348
100350
100353
100357
100359
100361
100367
100371
100367
100350
100227
100223
100218
100221
100224
100228
100233
100240
100246
100253
100258
100262
100265
100268
100269
100271
100271
100272
100271
100270
100270
100270
100271
100272
100270
100269
100281
100295
100300
100292
100132
100124
100118
100124
100134
100144
100153
100162
100172
100180
100186
100192
100196
100198
100200
100201
100201
100201
100199
100197
100194
100191
100190
100188
100183
100177
100196
100223
100242
100247
100045
100037
100035
100038
100050
100064
100077
100090
100101
100111
100119
100125
100129
100132
100133
100134
100134
100133
100130
100126
100120
100117
100114
100109
100102
100100
100116
100150
100179
100197
100010
100008
100007
100008
100010
100014
100018
100028
100039
100047
100055
100062
100066
100069
100071
100072
100072
100070
100065
100059
100052
100048
100045
100040
100039
100043
100050
100072
100100
100124
100002
100002
100002
100002
100002
100001
100001
100004
100007
100009
100012
100015
100018
100019
100020
100021
100021
100019
100017
100013
100011
100010
100009
100009
100010
100012
100013
100017
100024
100034
100002
100002
100002
100002
100001
100001
100001
100001
100001
100002
100002
100003
100003
100003
100003
100004
100004
100004
100003
100003
100002
100002
100002