/*--------------------------------*- C++ -*----------------------------------*\
| =========                 |                                                 |
| \\      /  F ield         | OpenFOAM: The Open Source CFD Toolbox           |
|  \\    /   O peration     | Version:  2.3.0                                 |
|   \\  /    A nd           | Web:      www.OpenFOAM.org                      |
|    \\/     M anipulation  |                                                 |
\*---------------------------------------------------------------------------*/
FoamFile
{
    version     2.0;
    format      ascii;
    class       volScalarField;
    location    "0.038";
    object      alpha.water;
}
// * * * * * * * * * * * * * * * * * * * * * * * * * * * * * * * * * * * * * //

dimensions      [0 0 0 0 0 0 0];

internalField   nonuniform List<scalar> 
545
(
1
1
1
1.00001
0.96553
1
1
1
1
1.00001
1
1
1
1.00003
1
1
1
1
1
1.00001
1
1
1
1
0.901898
0.963821
0.954757
0.96327
0.963859
0.957994
0.957735
0.968478
0.99847
0.999499
0.999521
0.999628
0.999716
0.999786
0.999833
0.999862
0.999882
0.999899
0.999911
0.999941
0.978553
0.303779
0.223427
0.223416
0.223406
0.491934
0.989849
0.996118
0.992598
0.991702
0.993214
0.995276
0.995254
0.995421
0.996439
0.996976
0.997072
0.997989
0.99918
0.999548
0.99951
0.6159
0.40249
0.400239
0.400239
0.472822
0.703638
0.896159
0.950417
0.965151
0.965331
0.968125
0.9852
0.999549
0.999696
0.999603
0.999643
0.99964
0.999636
0.999648
0.999676
0.999717
0.999766
0.999823
0.999933
0.999938
0.344623
0.223494
0.223227
0.222687
0.532292
0.986221
0.999261
0.999407
0.998877
0.994733
0.993202
0.993182
0.993179
0.993461
0.993132
0.992545
0.992549
0.994545
0.999652
0.999566
0.687904
0.409845
0.401844
0.400242
0.520014
0.433069
0.741792
0.948228
0.963544
0.965116
0.950566
0.970522
0.996093
0.999732
0.99972
0.99969
0.999711
0.99972
0.999728
0.999743
0.999764
0.999788
0.999819
0.999901
0.999938
0.470294
0.223078
0.222242
0.22205
0.676883
0.995449
0.999507
0.99976
0.999776
0.999562
0.999027
0.998205
0.997946
0.999228
0.999357
0.997676
0.993054
0.996741
0.999916
0.99991
0.814837
0.425897
0.401985
0.400992
0.473551
0.393373
0.647526
0.934838
0.959402
0.963258
0.946922
0.943634
0.993551
0.999758
0.999796
0.999728
0.999749
0.999755
0.999759
0.999768
0.999781
0.999797
0.999818
0.999886
0.999935
0.670504
0.243593
0.221068
0.327326
0.805648
0.998277
0.999722
0.999873
0.999831
0.999704
0.999639
0.999536
0.999438
0.999439
0.999348
0.999091
0.999436
0.999843
0.999913
0.999905
0.944412
0.70867
0.430937
0.51812
0.702708
0.263549
0.522347
0.702536
0.941655
0.921154
0.902496
0.942864
0.99848
0.999765
0.999839
0.999799
0.999781
0.999784
0.999782
0.999782
0.999787
0.999795
0.99981
0.999873
0.99993
0.943804
0.499355
0.382815
0.574454
0.922894
0.99939
0.999937
1.00002
1.00001
0.99988
0.999846
0.999823
0.999798
0.999805
0.999938
1.00001
0.999513
0.999152
0.999496
0.999873
0.999902
0.967809
0.893801
0.974051
0.986538
0.219772
0.672093
0.674163
0.85185
0.835327
0.842234
0.954387
0.998998
0.999837
0.999916
0.999932
1.00003
0.999841
0.999826
0.999808
0.999799
0.999798
0.999806
0.999856
0.999925
0.999974
0.829646
0.579307
0.825486
0.989233
0.999718
0.999874
0.999863
0.999803
0.999989
0.999949
0.999579
0.999463
0.999452
0.999607
0.999654
0.999191
0.999061
0.999369
0.999975
0.998429
0.9912
0.998311
0.997864
0.997661
1
1
1
1
0.864594
1
1
1
1
1.00002
1
1
1
1
1
1
1
1
1
1
1
1
1
1.00013
1.00002
0.248642
0.369033
0.906477
0.943082
0.825491
0.823139
0.943974
0.999401
0.999827
0.999881
0.999792
0.999789
0.999788
0.999779
0.999775
0.999775
0.999779
0.999789
0.999814
0.999935
0.999977
0.998253
0.953496
0.983512
0.998316
0.999653
0.999672
0.999586
0.999677
0.999715
0.99998
0.999876
0.998464
0.997744
0.998853
0.999239
0.998945
0.999123
0.99972
0.999971
1.00007
1.00002
1.00004
0.997851
0.997579
0.372887
0.693753
0.966914
0.953872
0.822587
0.820795
0.946826
0.999685
0.999854
0.999839
0.999758
0.999746
0.999744
0.999747
0.999752
0.999757
0.999763
0.999773
0.999792
0.999817
0.999912
0.999975
0.99991
0.999938
0.999848
0.999603
0.99863
0.99895
0.999366
0.999935
0.999875
0.999358
0.994486
0.992304
0.992301
0.995927
0.999146
0.999344
0.999603
0.999786
0.999846
1.00007
0.999714
0.991593
0.925683
0.536826
0.881993
0.992355
0.938159
0.819905
0.819457
0.915564
0.997602
0.999894
0.999904
0.999755
0.999755
0.999756
0.999752
0.999744
0.999737
0.999734
0.999742
0.999762
0.999784
0.999737
0.999958
1.00001
0.999929
0.999931
0.995742
0.991807
0.994062
0.998545
0.99775
0.993322
0.992303
0.992274
0.99227
0.992292
0.996101
0.995888
0.989843
0.988954
0.995259
0.99965
1.00002
0.991375
0.990052
0.954232
0.956701
0.994392
0.994693
0.921832
0.819169
0.819169
0.867148
0.992111
0.999963
1.00001
0.999979
0.999829
0.99978
0.999737
0.999709
0.999699
0.999708
0.99973
0.999754
0.999772
0.999777
0.999877
1.00019
1.00002
0.993816
0.99179
0.991799
0.995474
0.998317
0.994534
0.992333
0.992294
0.992286
0.995593
0.996001
0.996067
0.981055
0.97938
0.979375
0.980963
0.988029
0.985517
0.985907
0.993923
0.955639
0.999998
0.996923
0.99469
0.929939
0.819152
0.819152
0.86768
0.994495
0.999655
0.999612
0.999629
0.999732
0.999751
0.999717
0.999693
0.999738
0.999855
0.999968
1.00006
1.00007
1.00016
1.00003
0.9941
0.989867
0.989833
0.994275
0.996555
0.99656
0.99592
0.996006
0.996953
0.996999
0.996912
0.988333
0.981206
0.97941
0.979376
0.979375
0.979375
0.979375
0.979377
0.979778
0.996361
0.996377
0.951459
)
;

boundaryField
{
    AirInlet
    {
        type            fixedValue;
        value           uniform 0;
    }
    WaterInlet
    {
        type            fixedValue;
        value           uniform 1;
    }
    ChannelWall
    {
        type            zeroGradient;
    }
    Outlet
    {
        type            inletOutlet;
        inletValue      uniform 0;
        value           nonuniform List<scalar> 
11
(
0.472822
0.520014
0.473551
0.702708
0.986538
0.997661
0.997579
0
0.954232
0.955639
0
)
;
    }
    FrontAndBack
    {
        type            empty;
    }
}


// ************************************************************************* //
