/*--------------------------------*- C++ -*----------------------------------*\
| =========                 |                                                 |
| \\      /  F ield         | OpenFOAM: The Open Source CFD Toolbox           |
|  \\    /   O peration     | Version:  2.3.0                                 |
|   \\  /    A nd           | Web:      www.OpenFOAM.org                      |
|    \\/     M anipulation  |                                                 |
\*---------------------------------------------------------------------------*/
FoamFile
{
    version     2.0;
    format      ascii;
    class       surfaceScalarField;
    location    "0.038";
    object      phi;
}
// * * * * * * * * * * * * * * * * * * * * * * * * * * * * * * * * * * * * * //

dimensions      [0 3 -1 0 0 0 0];

internalField   nonuniform List<scalar> 
1024
(
1.34157e-12
6.58427e-13
1.11151e-12
2.30062e-13
1.06745e-12
4.40587e-14
8.4306e-13
2.24393e-13
1.50389e-12
-6.60825e-13
2.40756e-12
2.50862e-13
2.49632e-12
1.41303e-13
2.57831e-12
-3.79288e-14
2.656e-12
1.46705e-13
5.8152e-13
3.57836e-12
2.66338e-12
-4.1252e-13
2.92842e-12
-1.23738e-13
3.03988e-12
-1.49392e-13
3.35644e-12
-1.69854e-13
1.19402e-12
2.74395e-12
2.3417e-12
-7.5422e-13
2.42466e-12
-2.06692e-13
2.37329e-12
-9.80244e-14
2.39346e-12
-1.90022e-13
1.15122e-13
3.47235e-12
1.24578e-12
1.03909e-12
9.41063e-13
7.51042e-13
8.66164e-13
6.11219e-12
-6.77301e-12
3.30385e-12
2.80833e-12
2.26725e-12
1.0366e-12
1.63371e-12
6.33542e-13
2.03449e-12
-4.00783e-13
1.56278e-12
4.71713e-13
1.00373e-12
5.59048e-13
6.35932e-13
3.67797e-13
4.18799e-13
2.17134e-13
4.0196e-13
1.68385e-14
4.59458e-13
-5.74983e-14
5.10763e-13
-5.13049e-14
5.26801e-13
-1.60379e-14
5.29064e-13
-2.26325e-15
5.32315e-13
-3.25075e-15
5.43233e-13
-1.09184e-14
5.72161e-13
-2.89277e-14
6.69771e-13
-9.761e-14
1.0128e-12
-3.43025e-13
1.30755e-12
-2.94756e-13
-9.89674e-13
2.29723e-12
1.38218e-14
-1.0035e-12
1.8508e-12
-1.83698e-12
3.16146e-12
-1.31066e-12
5.28633e-13
2.63283e-12
4.05183e-13
1.2345e-13
5.14887e-13
-1.09704e-13
5.90895e-13
-7.6008e-14
5.91597e-13
-7.02117e-16
4.81703e-13
1.09894e-13
4.65682e-13
1.60218e-14
3.92263e-13
7.34189e-14
3.13769e-13
7.84939e-14
3.76857e-13
-6.30876e-14
5.96562e-13
-2.19705e-13
7.43787e-13
-1.47225e-13
7.81026e-13
-3.72391e-14
1.0393e-12
-2.5827e-13
1.72023e-12
-6.80935e-13
3.1726e-12
-1.45237e-12
3.46305e-12
-2.90451e-13
3.86385e-12
-4.00799e-13
3.94136e-12
-7.75062e-14
4.70013e-12
-7.58772e-13
2.48524e-12
4.33295e-12
-7.5276e-12
1.7484e-12
5.39288e-12
2.68319e-12
1.01818e-13
2.5259e-12
7.90827e-13
3.42163e-12
-1.29651e-12
4.31813e-12
-4.24794e-13
3.31568e-12
1.5615e-12
1.60668e-12
2.07679e-12
1.09608e-12
7.27733e-13
1.07546e-12
3.74641e-14
1.20276e-12
-1.84803e-13
1.31241e-12
-1.60948e-13
1.36564e-12
-6.92766e-14
1.38166e-12
-1.82757e-14
1.3901e-12
-1.16949e-14
1.41336e-12
-3.41804e-14
1.47359e-12
-8.91527e-14
1.62607e-12
-2.50097e-13
1.88854e-12
-6.05487e-13
1.28622e-12
3.07559e-13
-3.12808e-14
3.61473e-12
3.56719e-13
-1.3915e-12
1.45932e-12
-2.93958e-12
8.8703e-13
-7.38369e-13
1.01118e-12
2.50868e-12
1.38302e-12
-2.48387e-13
1.49375e-12
-2.20437e-13
1.48656e-12
-6.8814e-14
1.3926e-12
9.32554e-14
1.32356e-12
1.78928e-13
1.25323e-12
8.63561e-14
1.15766e-12
1.68987e-13
1.03013e-12
2.06026e-13
1.14929e-12
-1.82251e-13
1.37699e-12
-4.47398e-13
1.52285e-12
-2.93085e-13
1.49878e-12
-1.31767e-14
1.97247e-12
-7.31961e-13
2.62819e-12
-1.33665e-12
3.14341e-12
-1.96759e-12
5.97078e-12
-3.11782e-12
6.43753e-12
-8.67554e-13
6.18534e-12
1.74679e-13
3.01513e-12
2.41144e-12
3.40782e-12
2.99095e-12
-7.77461e-12
2.99274e-12
5.3911e-12
3.93762e-12
-8.43068e-13
3.13528e-12
1.59317e-12
3.90324e-12
-2.06446e-12
3.62482e-12
-1.46375e-13
2.33737e-12
2.84896e-12
1.73451e-12
2.67965e-12
1.51324e-12
9.49005e-13
1.60684e-12
-5.61441e-14
1.78623e-12
-3.64191e-13
1.92717e-12
-3.01888e-13
2.00101e-12
-1.43114e-13
2.02648e-12
-4.37466e-14
2.03651e-12
-2.17275e-14
2.05762e-12
-5.52908e-14
2.111e-12
-1.42529e-13
2.20546e-12
-3.4456e-13
2.31901e-12
-7.19037e-13
2.27647e-12
3.50103e-13
3.38933e-12
2.50187e-12
7.61728e-13
1.23611e-12
1.5368e-13
-2.33153e-12
4.96389e-13
-1.08108e-12
2.08461e-12
9.20453e-13
2.03607e-12
-1.99849e-13
2.15736e-12
-3.41727e-13
2.14952e-12
-6.09735e-14
2.07059e-12
1.72186e-13
1.99013e-12
2.5939e-13
1.91235e-12
1.64134e-13
1.91077e-12
1.70576e-13
1.94181e-12
1.7498e-13
1.90371e-12
-1.44153e-13
1.83058e-12
-3.74269e-13
1.84223e-12
-3.04733e-13
2.1312e-12
-3.02147e-13
2.41888e-12
-1.01964e-12
2.62346e-12
-1.54122e-12
2.74074e-12
-2.08487e-12
3.83986e-12
-4.21694e-12
5.81691e-12
-2.8446e-12
6.30319e-12
-3.11604e-13
7.23489e-12
1.47975e-12
6.6977e-12
2.02085e-12
-6.3231e-12
1.33931e-12
6.07263e-12
3.54338e-12
-3.04713e-12
2.69877e-12
2.43778e-12
4.37252e-12
-3.73822e-12
3.1815e-12
1.04464e-12
1.78813e-12
4.24233e-12
1.90123e-12
2.56655e-12
1.92705e-12
9.23182e-13
2.06539e-12
-1.9448e-13
2.23435e-12
-5.33159e-13
2.36939e-12
-4.36923e-13
2.44387e-12
-2.17595e-13
2.47243e-12
-7.23072e-14
2.48184e-12
-3.11362e-14
2.49303e-12
-6.64779e-14
2.51492e-12
-1.64422e-13
2.52452e-12
-3.54163e-13
2.47811e-12
-6.72625e-13
2.8339e-12
-5.68993e-15
1.57002e-12
3.76575e-12
6.88892e-13
2.11724e-12
9.73364e-13
-2.616e-12
9.86819e-13
-1.09453e-12
2.08362e-12
-1.7635e-13
2.30228e-12
-4.18505e-13
2.49728e-12
-5.36728e-13
2.55675e-12
-1.20446e-13
2.51538e-12
2.13559e-13
2.45003e-12
3.24743e-13
2.39738e-12
2.16785e-13
2.41939e-12
1.48562e-13
2.46405e-12
1.30323e-13
2.40998e-12
-9.00841e-14
2.26615e-12
-2.30441e-13
2.2437e-12
-2.82282e-13
2.44549e-12
-5.03939e-13
2.56736e-12
-1.14151e-12
2.64654e-12
-1.6204e-12
2.82989e-12
-2.26822e-12
2.66269e-12
-4.04974e-12
3.61537e-12
-3.79729e-12
4.35605e-12
-1.05228e-12
5.08238e-12
7.5341e-13
7.12413e-12
1.29255e-12
-6.74949e-12
-6.59805e-13
8.02499e-12
1.77477e-12
-5.48171e-12
1.84792e-12
2.36463e-12
3.85196e-12
-5.74226e-12
3.20611e-12
1.69049e-12
3.07509e-12
4.37335e-12
2.64722e-12
2.99442e-12
2.48085e-12
1.08955e-12
2.47964e-12
-1.9327e-13
2.57055e-12
-6.24071e-13
2.65623e-12
-5.22605e-13
2.70328e-12
-2.64638e-13
2.72267e-12
-9.17042e-14
2.72702e-12
-3.54814e-14
2.726e-12
-6.54536e-14
2.7151e-12
-1.53532e-13
2.65554e-12
-2.94595e-13
2.43018e-12
-4.4727e-13
1.98578e-12
4.38713e-13
1.50581e-12
4.24572e-12
2.46358e-12
1.15947e-12
5.00642e-13
-6.53067e-13
9.27227e-13
-1.52112e-12
1.75744e-12
-1.00656e-12
2.40368e-12
-1.06474e-12
2.68346e-12
-8.16511e-13
2.76776e-12
-2.04748e-13
2.75436e-12
2.26965e-13
2.70189e-12
3.77206e-13
2.66861e-12
2.50071e-13
2.70734e-12
1.09828e-13
2.74361e-12
9.40489e-14
2.70406e-12
-5.0526e-14
2.52486e-12
-5.12475e-14
2.45422e-12
-2.11645e-13
2.58477e-12
-6.34485e-13
2.61936e-12
-1.17611e-12
2.55364e-12
-1.55468e-12
2.37253e-12
-2.08711e-12
1.72762e-12
-3.40483e-12
1.08924e-12
-3.15891e-12
1.10621e-12
-1.06925e-12
1.82497e-12
3.46547e-14
5.87793e-12
-8.42669e-12
2.47721e-12
-1.93733e-12
1.53562e-12
-3.81725e-12
-3.60179e-12
4.04644e-12
-5.49905e-12
2.95992e-12
-4.65574e-12
3.74735e-12
9.03058e-13
3.92464e-12
4.19606e-12
3.43287e-12
3.48619e-12
3.1318e-12
1.39063e-12
3.08327e-12
-1.44742e-13
3.10662e-12
-6.47421e-13
3.10017e-12
-5.16158e-13
3.10021e-12
-2.64676e-13
3.09889e-12
-9.03803e-14
3.09551e-12
-3.21017e-14
3.08302e-12
-5.2963e-14
3.04607e-12
-1.16585e-13
2.94256e-12
-1.91087e-13
2.6551e-12
-1.59807e-13
2.27798e-12
8.15832e-13
3.42664e-12
3.09705e-12
3.80588e-12
7.8023e-13
1.27562e-12
1.87719e-12
1.40847e-12
-1.65397e-12
2.30673e-12
-1.90481e-12
2.85483e-12
-1.61285e-12
3.10801e-12
-1.06969e-12
3.1261e-12
-2.22837e-13
3.1026e-12
2.50459e-13
3.06119e-12
4.1862e-13
3.07755e-12
2.33717e-13
3.15128e-12
3.60937e-14
3.16803e-12
7.7302e-14
3.08946e-12
2.80382e-14
2.87902e-12
1.59198e-13
2.82124e-12
-1.53873e-13
2.89777e-12
-7.11014e-13
2.81264e-12
-1.09097e-12
2.63571e-12
-1.37775e-12
2.17207e-12
-1.62347e-12
1.41011e-12
-2.64287e-12
5.40239e-13
-2.28904e-12
5.2854e-13
-1.05755e-12
6.49454e-13
-8.62595e-14
5.25923e-12
1.24352e-12
7.56479e-13
1.02229e-12
2.21232e-13
8.67341e-13
1.54949e-13
3.47422e-13
5.19919e-13
3.63697e-13
-1.62752e-14
2.3399e-12
4.16578e-13
2.41237e-12
1.48763e-13
2.34601e-12
2.21309e-13
2.46497e-12
4.00956e-13
4.9908e-13
2.32959e-12
2.66331e-12
-2.46731e-13
2.92991e-12
-1.17839e-13
3.03821e-12
1.13004e-13
3.29499e-12
1.4418e-13
3.17367e-13
3.4767e-12
2.40924e-12
-6.55971e-13
2.50966e-12
-2.18262e-13
2.62236e-12
3.06551e-16
2.73975e-12
2.67935e-14
-2.95603e-13
3.35272e-12
1.34403e-12
1.12577e-12
1.12607e-12
1.15287e-12
8.57265e-13
-6.8432e-12
9.30413e-12
2.39269e-12
-7.70026e-12
3.96231e-12
-5.17141e-12
3.46177e-12
-4.99852e-12
1.47906e-12
-2.67303e-12
1.30561e-12
1.07651e-12
2.23985e-12
3.26182e-12
2.53773e-12
3.18831e-12
2.74123e-12
1.18713e-12
2.85634e-12
-2.59845e-13
2.81638e-12
-6.07461e-13
2.73157e-12
-4.31349e-13
2.67377e-12
-2.06879e-13
2.64981e-12
-6.64191e-14
2.63798e-12
-2.02718e-14
2.62123e-12
-3.62113e-14
2.5829e-12
-7.82534e-14
2.49905e-12
-1.0724e-13
2.34023e-12
-9.89593e-16
2.34024e-12
8.15828e-13
3.20593e-12
2.23136e-12
3.011e-12
9.75158e-13
3.35381e-12
1.53438e-12
2.66716e-12
-9.67323e-13
2.72753e-12
-1.96518e-12
2.74268e-12
-1.628e-12
2.73721e-12
-1.06422e-12
2.6391e-12
-1.2473e-13
2.62014e-12
2.69418e-13
2.59528e-12
4.43489e-13
2.64103e-12
1.87966e-13
2.74309e-12
-6.59675e-14
2.73274e-12
8.76465e-14
2.67102e-12
8.97623e-14
2.48388e-12
3.46337e-13
2.43791e-12
-1.07907e-13
2.49204e-12
-7.65139e-13
2.40918e-12
-1.00811e-12
2.13429e-12
-1.10286e-12
1.74564e-12
-1.23482e-12
9.48215e-13
-1.84544e-12
1.80828e-13
-1.52166e-12
4.59674e-14
-9.2269e-13
3.3523e-13
-3.75522e-13
6.24895e-12
3.09374e-12
8.53998e-12
2.86824e-12
-7.47476e-12
2.24701e-12
-4.55018e-12
-6.33784e-13
-2.11773e-12
-2.30429e-13
-3.07638e-12
1.24163e-14
8.33662e-13
1.4513e-12
1.82293e-12
2.05446e-12
2.58515e-12
2.62908e-12
6.12507e-13
2.73525e-12
-3.66015e-13
2.60103e-12
-4.73236e-13
2.45909e-12
-2.89413e-13
2.37656e-12
-1.24346e-13
2.34307e-12
-3.29266e-14
2.33022e-12
-7.42569e-15
2.3139e-12
-1.98909e-14
2.27831e-12
-4.26593e-14
2.2191e-12
-4.80373e-14
2.1567e-12
6.14175e-14
2.30689e-12
6.65631e-13
3.03935e-12
1.49891e-12
3.19101e-12
8.23499e-13
3.7036e-12
1.02179e-12
3.3695e-12
-6.33227e-13
3.00658e-12
-1.60226e-12
2.61093e-12
-1.23235e-12
2.43841e-12
-8.91698e-13
2.25262e-12
6.10619e-14
2.28952e-12
2.32521e-13
2.27829e-12
4.54713e-13
2.36739e-12
9.88695e-14
2.46737e-12
-1.65947e-13
2.42465e-12
1.30363e-13
2.36e-12
1.54409e-13
2.24288e-12
4.63466e-13
2.28727e-12
-1.52301e-13
2.25636e-12
-7.34232e-13
2.06128e-12
-8.13026e-13
1.75676e-12
-7.98335e-13
1.39663e-12
-8.74695e-13
7.6631e-13
-1.21512e-12
6.37091e-14
-8.19056e-13
-7.89547e-14
-7.80027e-13
-4.29489e-13
-2.49876e-14
1.00665e-12
6.21082e-12
5.80587e-12
3.86156e-12
-5.12551e-12
2.3604e-12
-3.04902e-12
1.26383e-12
-1.02115e-12
-3.70744e-13
-1.44181e-12
-3.07416e-13
7.70334e-13
7.56581e-13
7.58935e-13
1.9047e-12
1.43703e-12
2.39119e-12
1.26021e-13
2.31571e-12
-2.90538e-13
2.11856e-12
-2.76086e-13
1.96691e-12
-1.37761e-13
1.89485e-12
-5.22872e-14
1.86987e-12
-7.94762e-15
1.86271e-12
-2.66301e-16
1.84858e-12
-5.76274e-15
1.82083e-12
-1.49062e-14
1.78637e-12
-1.35734e-14
1.79533e-12
5.24585e-14
2.04854e-12
4.12419e-13
2.69703e-12
8.50414e-13
3.02496e-12
4.95572e-13
3.4481e-12
5.98648e-13
3.19849e-12
-3.8362e-13
2.69259e-12
-1.09635e-12
2.03393e-12
-5.73694e-13
1.7494e-12
-6.07175e-13
1.77178e-12
3.86884e-14
1.81181e-12
1.92492e-13
1.8661e-12
4.00422e-13
2.0164e-12
-5.14371e-14
2.03721e-12
-1.86756e-13
2.05289e-12
1.14691e-13
2.02265e-12
1.84648e-13
2.16283e-12
3.23282e-13
2.02912e-12
-1.85925e-14
1.86086e-12
-5.65969e-13
1.57971e-12
-5.31874e-13
1.27149e-12
-4.90122e-13
9.55283e-13
-5.58483e-13
4.06687e-13
-6.66525e-13
-2.4516e-14
-3.87854e-13
-3.4757e-13
-4.56972e-13
2.91194e-13
-6.63753e-13
1.62881e-12
6.13725e-12
3.02133e-12
3.13168e-12
-2.11994e-12
5.513e-13
-4.68639e-13
6.33302e-13
-1.10315e-12
-4.44799e-13
-3.63708e-13
-2.11164e-13
5.36698e-13
1.87815e-13
3.59956e-13
1.58498e-12
3.98623e-14
1.76043e-12
-4.9423e-14
1.58705e-12
-1.17157e-13
1.3957e-12
-8.47406e-14
1.29186e-12
-3.39239e-14
1.25079e-12
-1.12175e-14
1.24158e-12
1.26773e-15
1.23986e-12
1.45398e-15
1.23378e-12
3.12759e-16
1.21921e-12
-3.29132e-16
1.20656e-12
-9.25834e-16
1.2447e-12
1.43179e-14
1.51129e-12
1.45824e-13
2.05624e-12
3.05463e-13
2.3747e-12
1.77121e-13
2.71359e-12
2.59754e-13
2.44618e-12
-1.16206e-13
1.81141e-12
-4.61583e-13
1.37239e-12
-1.3467e-13
9.39323e-13
-1.74112e-13
1.0729e-12
-9.48853e-14
1.18683e-12
7.85546e-14
1.45662e-12
1.30635e-13
1.46168e-12
-5.64997e-14
1.44569e-12
-1.70764e-13
1.42431e-12
1.36077e-13
1.46761e-12
1.41341e-13
1.61902e-12
1.71875e-13
1.46272e-12
1.37706e-13
1.28887e-12
-3.92117e-13
9.95377e-13
-2.38383e-13
7.4068e-13
-2.35424e-13
4.72775e-13
-2.90578e-13
-9.57198e-14
-9.80304e-14
-5.18659e-13
3.50848e-14
-7.5279e-13
-2.22841e-13
-8.54957e-13
-5.61586e-13
7.82466e-13
3.8786e-12
1.75866e-12
1.29002e-12
1.86866e-13
-1.76842e-13
3.59856e-13
7.19812e-13
7.59674e-13
7.10251e-13
5.93094e-13
5.08354e-13
4.7443e-13
4.63212e-13
4.6448e-13
4.65934e-13
4.66246e-13
4.65917e-13
4.64991e-13
4.79309e-13
6.25134e-13
9.30597e-13
1.10772e-12
1.36747e-12
1.25127e-12
7.89683e-13
6.55013e-13
4.80901e-13
3.86016e-13
4.6457e-13
5.95205e-13
5.38706e-13
3.67942e-13
5.04019e-13
6.4536e-13
8.17235e-13
9.54941e-13
5.62824e-13
3.24441e-13
8.90159e-14
-2.01562e-13
-2.99593e-13
-2.64507e-13
-4.87348e-13
-1.04893e-12
)
;

boundaryField
{
    AirInlet
    {
        type            calculated;
        value           uniform -8e-13;
    }
    WaterInlet
    {
        type            calculated;
        value           nonuniform List<scalar> 10(-2e-12 -2e-12 -2e-12 -2e-12 -2e-12 -2e-12 -2e-12 -2e-12 -2e-12 -2e-12);
    }
    ChannelWall
    {
        type            calculated;
        value           uniform 0;
    }
    Outlet
    {
        type            calculated;
        value           nonuniform List<scalar> 
11
(
2.21489e-12
2.09255e-12
3.94501e-12
4.65595e-12
3.07117e-12
1.26815e-12
-6.54498e-13
4.81282e-12
-3.30972e-13
-8.60828e-15
-2.66468e-13
)
;
    }
    FrontAndBack
    {
        type            empty;
        value           nonuniform 0();
    }
}


// ************************************************************************* //
