/*--------------------------------*- C++ -*----------------------------------*\
| =========                 |                                                 |
| \\      /  F ield         | OpenFOAM: The Open Source CFD Toolbox           |
|  \\    /   O peration     | Version:  2.3.0                                 |
|   \\  /    A nd           | Web:      www.OpenFOAM.org                      |
|    \\/     M anipulation  |                                                 |
\*---------------------------------------------------------------------------*/
FoamFile
{
    version     2.0;
    format      ascii;
    class       volScalarField;
    location    "0.75";
    object      alpha.particles;
}
// * * * * * * * * * * * * * * * * * * * * * * * * * * * * * * * * * * * * * //

dimensions      [0 0 0 0 0 0 0];

internalField   nonuniform List<scalar> 
6000
(
0.433151
0.433151
0.433151
0.433148
0.415392
0.362505
0.319307
0.345682
0.374987
0.374991
0.374991
0.371932
0.368492
0.392408
0.43075
0.447793
0.447794
0.440147
0.372979
0.360534
0.352801
0.342606
0.376428
0.376599
0.3766
0.3766
0.373225
0.389208
0.421311
0.432902
0.40231
0.421858
0.419081
0.370111
0.320783
0.317808
0.320721
0.317885
0.326009
0.350657
0.356419
0.3181
0.321101
0.317931
0.327117
0.392446
0.41359
0.355085
0.337627
0.335269
0.337626
0.335272
0.337627
0.342678
0.341189
0.337764
0.337627
0.335955
0.337629
0.381082
0.402215
0.413599
0.382635
0.320883
0.318159
0.320779
0.317883
0.320779
0.319172
0.320882
0.31963
0.320992
0.317837
0.321097
0.319444
0.414586
0.459886
0.374844
0.33527
0.337626
0.335975
0.337626
0.336976
0.337626
0.337389
0.337626
0.336521
0.337626
0.336275
0.387135
0.373772
0.371933
0.32403
0.31924
0.320882
0.317883
0.320779
0.319213
0.320882
0.31932
0.320931
0.318076
0.321084
0.318072
0.321097
0.405138
0.459643
0.367205
0.337626
0.336076
0.337626
0.337113
0.337626
0.345298
0.345601
0.337261
0.337626
0.336152
0.337626
0.387103
0.37385
0.377556
0.320715
0.320931
0.318869
0.320882
0.318952
0.320882
0.320134
0.320931
0.319723
0.321084
0.318174
0.321097
0.320247
0.408022
0.460438
0.344396
0.336008
0.337626
0.337309
0.353659
0.377961
0.402089
0.401446
0.380883
0.348187
0.337626
0.336169
0.387363
0.373927
0.433151
0.346316
0.320348
0.320931
0.318948
0.320882
0.320461
0.320931
0.320679
0.321084
0.319218
0.321097
0.319444
0.321213
0.424841
0.459644
0.337247
0.337626
0.347396
0.387322
0.421306
0.458017
0.480427
0.479908
0.456422
0.396008
0.337723
0.337626
0.387369
0.395676
0.486972
0.44038
0.341302
0.320303
0.320931
0.320387
0.32446
0.345578
0.346567
0.324959
0.321097
0.32029
0.321212
0.361252
0.452495
0.460228
0.337626
0.352126
0.411942
0.476327
0.499005
0.51566
0.526027
0.527462
0.517235
0.47472
0.383867
0.340293
0.372978
0.46556
0.527746
0.518412
0.430873
0.338118
0.320538
0.323743
0.379423
0.425403
0.426869
0.389272
0.347921
0.327939
0.347888
0.437345
0.490955
0.45616
0.372062
0.414662
0.495159
0.525256
0.532479
0.53254
0.532552
0.532543
0.532545
0.531192
0.469254
0.398515
0.398779
0.530612
0.547363
0.544977
0.519727
0.417681
0.343257
0.357523
0.466055
0.502381
0.503368
0.484046
0.437857
0.398712
0.435142
0.503749
0.519637
0.483691
0.453053
0.491171
0.532518
0.532549
0.532547
0.532551
0.532512
0.5325
0.528552
0.52754
0.527004
0.499221
0.472756
0.551379
0.551369
0.551383
0.549443
0.513492
0.421514
0.416431
0.51637
0.533176
0.533299
0.532696
0.51855
0.49567
0.513716
0.532598
0.533276
0.522611
0.518954
0.530114
0.532493
0.532503
0.532503
0.523811
0.447155
0.359177
0.322995
0.35055
0.408096
0.438356
0.438363
0.551428
0.551463
0.551384
0.551404
0.550154
0.512766
0.470115
0.530596
0.53331
0.534003
0.533312
0.533656
0.533298
0.533518
0.533309
0.533652
0.53327
0.514452
0.454317
0.404874
0.428804
0.420234
0.361849
0.303136
0.247665
0.203065
0.187487
0.195661
0.223385
0.246756
0.551467
0.551399
0.551434
0.55135
0.551368
0.547336
0.513619
0.515544
0.534036
0.53328
0.534065
0.533291
0.534097
0.533311
0.534095
0.533241
0.491955
0.361391
0.258475
0.240626
0.267748
0.307785
0.330196
0.330337
0.282929
0.220052
0.173157
0.143686
0.140993
0.141276
0.549047
0.536034
0.541716
0.549772
0.551303
0.551273
0.537923
0.491754
0.48632
0.459602
0.461271
0.489208
0.530364
0.534026
0.519994
0.435341
0.297754
0.236008
0.239865
0.235879
0.241236
0.323411
0.377939
0.383418
0.333442
0.261798
0.198513
0.158984
0.144504
0.147124
0.435609
0.393377
0.470081
0.534039
0.549577
0.551254
0.550962
0.505829
0.34059
0.288273
0.286404
0.302937
0.354784
0.384684
0.327357
0.257363
0.235688
0.239865
0.233579
0.239865
0.258566
0.365308
0.421685
0.423265
0.376175
0.305459
0.238789
0.192809
0.173229
0.181602
0.195028
0.177703
0.24304
0.378586
0.515431
0.548932
0.550979
0.531405
0.350555
0.261599
0.244722
0.244231
0.244571
0.246394
0.239866
0.237185
0.239865
0.233704
0.239865
0.237892
0.294068
0.402516
0.448326
0.451912
0.417936
0.350695
0.282582
0.236627
0.218432
0.23614
0.102223
0.103345
0.115398
0.158055
0.297977
0.48943
0.548716
0.544984
0.416145
0.297631
0.259375
0.249061
0.241045
0.239865
0.238804
0.239865
0.234648
0.239865
0.235605
0.239865
0.334249
0.432264
0.465471
0.46941
0.450693
0.396608
0.333088
0.28952
0.273793
0.303283
0.102063
0.102061
0.104104
0.112226
0.141131
0.257765
0.455438
0.536244
0.469095
0.368319
0.297442
0.269995
0.248743
0.239638
0.239865
0.237275
0.239865
0.234817
0.239865
0.255879
0.377687
0.456545
0.476891
0.479283
0.471607
0.439223
0.390568
0.353554
0.340106
0.383152
0.102069
0.103082
0.111209
0.121893
0.134201
0.158483
0.253183
0.437005
0.475374
0.447661
0.357424
0.30106
0.267378
0.239865
0.239093
0.239865
0.235401
0.239865
0.238361
0.297889
0.42201
0.474644
0.485332
0.48576
0.482597
0.46976
0.445719
0.424936
0.417004
0.466175
0.102071
0.110508
0.124953
0.139605
0.150246
0.173123
0.185907
0.27729
0.475166
0.492631
0.433892
0.349869
0.29793
0.243271
0.239865
0.237938
0.239865
0.236948
0.239865
0.350265
0.458713
0.488508
0.493402
0.493194
0.492182
0.490794
0.488182
0.486428
0.489877
0.518194
0.103404
0.123694
0.140792
0.158012
0.173631
0.198062
0.203811
0.209776
0.341255
0.492297
0.492611
0.419734
0.344799
0.270732
0.239598
0.239865
0.236539
0.239865
0.26061
0.40576
0.483292
0.499514
0.502341
0.503437
0.504964
0.508941
0.514649
0.520532
0.527424
0.537972
0.112026
0.139633
0.157984
0.177729
0.198174
0.220994
0.233255
0.222362
0.232645
0.412747
0.492307
0.482371
0.403035
0.328009
0.248065
0.238989
0.239865
0.239216
0.309164
0.451879
0.499403
0.508965
0.511873
0.514542
0.518043
0.523168
0.529024
0.534691
0.540338
0.545775
0.129815
0.157093
0.177933
0.2013
0.225662
0.246535
0.256931
0.246239
0.232542
0.269658
0.476213
0.491067
0.459822
0.393392
0.29089
0.239865
0.238059
0.240955
0.36786
0.481776
0.510698
0.516966
0.520439
0.523833
0.527898
0.532637
0.537488
0.542104
0.546401
0.549769
0.155229
0.177649
0.200801
0.228542
0.256402
0.27335
0.27681
0.267973
0.237123
0.237127
0.351419
0.49089
0.491069
0.453722
0.367309
0.254689
0.239865
0.26542
0.417021
0.502308
0.518835
0.523789
0.527387
0.530944
0.534953
0.539199
0.543297
0.547044
0.550292
0.552386
0.186446
0.201373
0.224703
0.256283
0.286345
0.298991
0.297535
0.286939
0.253381
0.237131
0.255148
0.424665
0.490896
0.487224
0.445918
0.305501
0.240934
0.305103
0.45206
0.514793
0.525023
0.529551
0.533253
0.53694
0.540761
0.544477
0.547839
0.550769
0.553157
0.554177
0.220126
0.226212
0.247395
0.282041
0.314412
0.324257
0.320518
0.305692
0.273328
0.237818
0.237896
0.316565
0.468043
0.491384
0.493892
0.384413
0.264117
0.332385
0.468074
0.520791
0.529613
0.53451
0.538899
0.542943
0.546405
0.549308
0.551711
0.553736
0.555341
0.555122
0.253496
0.253457
0.27306
0.312025
0.34592
0.352639
0.345927
0.325274
0.293521
0.250192
0.238427
0.271238
0.403625
0.485975
0.514483
0.4591
0.308779
0.352595
0.470907
0.522962
0.533157
0.539465
0.545075
0.549462
0.552208
0.553916
0.555114
0.556101
0.556835
0.555156
0.29313
0.295108
0.319361
0.360971
0.387481
0.386315
0.372871
0.347232
0.315767
0.27383
0.248837
0.267962
0.355699
0.470791
0.514555
0.504351
0.360376
0.371793
0.471399
0.524293
0.537242
0.545374
0.551857
0.555517
0.557034
0.557533
0.55772
0.55785
0.557609
0.553809
0.353805
0.371031
0.403516
0.433276
0.433606
0.421223
0.399717
0.374307
0.345175
0.306559
0.270435
0.27735
0.335195
0.446802
0.513937
0.515464
0.393642
0.386074
0.473341
0.527481
0.543218
0.55203
0.557447
0.558777
0.55884
0.558799
0.558806
0.55874
0.557735
0.550023
0.438766
0.467362
0.489052
0.4855
0.466251
0.447056
0.430095
0.412476
0.389394
0.351567
0.306022
0.301579
0.339497
0.424814
0.506246
0.51586
0.394725
0.396396
0.481396
0.534515
0.549939
0.556607
0.558783
0.558866
0.558813
0.558906
0.558808
0.558823
0.55729
0.542367
0.504469
0.510816
0.510815
0.492286
0.478162
0.473976
0.470918
0.465335
0.450862
0.413133
0.36132
0.341149
0.359624
0.416595
0.492954
0.515493
0.383544
0.41034
0.49773
0.543104
0.553763
0.557113
0.558744
0.554754
0.558731
0.558789
0.558932
0.558786
0.556297
0.529557
0.510817
0.510817
0.508785
0.492307
0.498503
0.509405
0.515398
0.516036
0.507845
0.479522
0.434109
0.400701
0.395006
0.422893
0.487173
0.516116
0.356065
0.436744
0.518101
0.548256
0.552211
0.551937
0.544655
0.443095
0.513536
0.555932
0.558784
0.558956
0.555452
0.51989
0.510817
0.486116
0.491214
0.508402
0.527238
0.536613
0.540894
0.540156
0.533215
0.521789
0.500727
0.47021
0.440258
0.442858
0.480756
0.476873
0.339898
0.469505
0.532953
0.548267
0.547793
0.539402
0.434932
0.252515
0.334183
0.520197
0.558872
0.558761
0.555471
0.519974
0.510811
0.42532
0.503201
0.532642
0.543662
0.545084
0.544948
0.54213
0.535297
0.532188
0.531709
0.519646
0.489981
0.466196
0.466215
0.388067
0.340041
0.482787
0.534649
0.547341
0.540556
0.447613
0.245376
0.21077
0.224177
0.422468
0.546999
0.559007
0.555131
0.520022
0.455015
0.404664
0.522079
0.543942
0.545181
0.544963
0.545028
0.516653
0.535104
0.533137
0.536464
0.536613
0.52376
0.497396
0.445593
0.355011
0.376004
0.493494
0.531463
0.536694
0.431968
0.245687
0.210823
0.21331
0.21261
0.344615
0.542405
0.558639
0.551332
0.520013
0.405587
0.392445
0.520087
0.545025
0.544958
0.544928
0.448456
0.349808
0.467776
0.536277
0.537384
0.537441
0.537385
0.53022
0.41698
0.355665
0.46645
0.522558
0.530665
0.407763
0.230643
0.210906
0.21331
0.211308
0.213311
0.30914
0.543144
0.558944
0.547963
0.53617
0.409878
0.375279
0.486863
0.544858
0.542952
0.424064
0.261762
0.211937
0.26263
0.42428
0.518769
0.537292
0.537322
0.492889
0.360597
0.361488
0.526977
0.527495
0.451622
0.238435
0.210942
0.21331
0.211238
0.21331
0.213062
0.289415
0.490712
0.550387
0.496815
0.493705
0.412008
0.361546
0.440132
0.527943
0.474244
0.304376
0.210865
0.208876
0.210865
0.223404
0.321763
0.393463
0.401131
0.320604
0.271741
0.347824
0.51704
0.526986
0.327868
0.21276
0.21331
0.211266
0.21331
0.21285
0.243822
0.337266
0.422367
0.461524
0.355882
0.38598
0.394595
0.362671
0.388855
0.448602
0.411822
0.29912
0.215
0.210864
0.20787
0.210864
0.208968
0.214502
0.218076
0.210867
0.208435
0.31063
0.382037
0.431236
0.299722
0.213311
0.211204
0.21331
0.212695
0.23346
0.31393
0.398549
0.409316
0.382142
0.351054
0.351534
0.36694
0.36103
0.362671
0.371205
0.402256
0.353306
0.253937
0.210177
0.210864
0.207875
0.210864
0.20813
0.210864
0.205704
0.210865
0.231276
0.253076
0.346641
0.301325
0.215784
0.21331
0.212582
0.225947
0.292204
0.388475
0.42563
0.408848
0.353203
0.351771
0.351598
0.362133
0.362402
0.361712
0.362671
0.409718
0.411037
0.32466
0.220236
0.209282
0.210864
0.208247
0.210864
0.207671
0.210864
0.204781
0.210865
0.210403
0.330403
0.301653
0.218176
0.211724
0.220688
0.279958
0.36951
0.43121
0.429869
0.38677
0.352055
0.351328
0.360158
0.365611
0.361461
0.362671
0.362178
0.411148
0.45009
0.407661
0.261798
0.210864
0.208669
0.210864
0.208415
0.210864
0.204962
0.210864
0.20527
0.210865
0.321292
0.292352
0.217324
0.21331
0.256502
0.359892
0.429685
0.442502
0.420586
0.366488
0.352057
0.352055
0.407502
0.403974
0.362671
0.36239
0.362939
0.406156
0.467892
0.471105
0.330309
0.213407
0.210864
0.208791
0.210864
0.208145
0.210864
0.204226
0.210864
0.207059
0.297437
0.282546
0.217437
0.212314
0.305484
0.428009
0.453079
0.442388
0.406131
0.368469
0.375378
0.382446
0.489357
0.473413
0.370695
0.362939
0.362944
0.398469
0.470236
0.496022
0.40581
0.23811
0.210079
0.210864
0.20885
0.210864
0.204789
0.210864
0.204661
0.210864
0.252815
0.280154
0.227587
0.213311
0.344968
0.454565
0.454697
0.434379
0.410358
0.408373
0.443618
0.486021
0.534621
0.521352
0.444253
0.402174
0.38177
0.400835
0.45713
0.498722
0.450825
0.285226
0.210864
0.209735
0.210864
0.208678
0.210864
0.204215
0.210864
0.205572
0.212481
0.282507
0.269607
0.239428
0.368832
0.454434
0.453651
0.443426
0.449867
0.482057
0.516764
0.538732
0.549648
0.544057
0.517651
0.469888
0.424729
0.413997
0.44769
0.498682
0.456879
0.34104
0.224309
0.210864
0.209612
0.210864
0.204744
0.210864
0.204657
0.210864
0.207769
0.298851
0.357787
0.338915
0.37737
0.453597
0.463212
0.478412
0.505287
0.528946
0.543521
0.549768
0.549811
0.552304
0.543934
0.520862
0.476207
0.4355
0.446314
0.472548
0.445874
0.378561
0.263627
0.214327
0.210864
0.209192
0.210864
0.204206
0.210864
0.205719
0.210864
0.316499
0.475065
0.463537
0.397594
0.459885
0.489256
0.515231
0.534331
0.545153
0.549741
0.549847
0.548852
0.552856
0.551675
0.541748
0.51647
0.469279
0.447412
0.455969
0.435975
0.39712
0.320704
0.245809
0.215503
0.210864
0.204219
0.210864
0.205096
0.210864
0.207471
0.314385
0.530117
0.522588
0.457516
0.481327
0.514879
0.535601
0.545892
0.54972
0.549849
0.549718
0.537465
0.550687
0.552795
0.549407
0.536101
0.504975
0.461632
0.45178
0.446711
0.419855
0.370839
0.304075
0.251423
0.21075
0.210864
0.20403
0.210864
0.206615
0.210864
0.279196
0.530664
0.540456
0.522216
0.514266
0.534034
0.545768
0.549701
0.549829
0.549682
0.540153
0.527922
0.546451
0.552769
0.552285
0.54523
0.526938
0.48836
0.462295
0.477312
0.450078
0.394844
0.359805
0.314705
0.23417
0.20412
0.210864
0.205419
0.210864
0.208507
0.243236
0.467764
0.541695
0.543958
0.540256
0.546262
0.549683
0.549712
0.542567
0.532174
0.482574
0.527891
0.537827
0.55135
0.55235
0.550006
0.538986
0.513431
0.478944
0.500262
0.471904
0.395735
0.386291
0.363245
0.257137
0.210864
0.203824
0.210864
0.207412
0.210864
0.234124
0.437013
0.535269
0.549592
0.549621
0.549657
0.549642
0.537581
0.471488
0.39946
0.359752
0.509037
0.521664
0.536024
0.55223
0.552248
0.54649
0.530473
0.497928
0.500267
0.464455
0.392179
0.389102
0.369002
0.23151
0.203796
0.210864
0.205792
0.210864
0.209914
0.262586
0.491957
0.509784
0.54718
0.549073
0.54238
0.528029
0.429636
0.359104
0.359744
0.358578
0.450257
0.501321
0.501393
0.538617
0.55033
0.550028
0.541089
0.519269
0.49931
0.426975
0.388211
0.389277
0.333869
0.206368
0.210864
0.203591
0.210864
0.209239
0.226791
0.372043
0.531777
0.521292
0.536547
0.521457
0.444163
0.384733
0.358914
0.359743
0.359155
0.359744
0.48421
0.52274
0.500871
0.501462
0.532188
0.547601
0.545433
0.531708
0.473567
0.396671
0.386506
0.382121
0.260387
0.210864
0.202477
0.210864
0.208047
0.216086
0.316
0.509386
0.531922
0.532056
0.532137
0.409219
0.359746
0.358916
0.359743
0.359211
0.380673
0.454543
0.534571
0.548469
0.501545
0.501064
0.501519
0.533583
0.542679
0.536563
0.458463
0.394053
0.393213
0.346844
0.210865
0.203333
0.210864
0.205792
0.210865
0.281747
0.458863
0.531697
0.531868
0.531942
0.501915
0.359747
0.358911
0.359744
0.359622
0.396426
0.478172
0.534306
0.555229
0.563762
0.547563
0.518182
0.501137
0.504773
0.528766
0.532529
0.448032
0.402551
0.413547
0.309145
0.205723
0.210864
0.203654
0.210864
0.239455
0.394576
0.525696
0.531669
0.531803
0.531901
0.419805
0.358809
0.359744
0.366011
0.40745
0.48665
0.537533
0.555325
0.560893
0.566685
0.563768
0.552572
0.528677
0.505014
0.505611
0.503014
0.45554
0.438279
0.415183
0.263425
0.210864
0.203253
0.210864
0.209743
0.2899
0.465833
0.523867
0.531621
0.53176
0.506062
0.35925
0.359744
0.369069
0.405679
0.478835
0.534553
0.554309
0.560493
0.560975
0.566724
0.566545
0.562935
0.5521
0.529411
0.504425
0.482881
0.479992
0.46875
0.362816
0.211681
0.20437
0.210864
0.206937
0.213456
0.325875
0.452263
0.484623
0.527965
0.526584
0.418278
0.359744
0.359363
0.390721
0.454666
0.524244
0.550574
0.559506
0.560979
0.56098
0.565095
0.566574
0.565894
0.561026
0.548358
0.522736
0.493429
0.500181
0.449351
0.285588
0.207472
0.210864
0.205353
0.210864
0.224082
0.320179
0.377872
0.330871
0.416617
0.452355
0.376745
0.359394
0.363094
0.408395
0.499743
0.54262
0.557256
0.560957
0.56098
0.560989
0.55931
0.566423
0.566438
0.565116
0.558007
0.540597
0.510294
0.505206
0.400808
0.239414
0.210864
0.206391
0.210864
0.210151
0.231988
0.285919
0.255522
0.209446
0.247634
0.383405
0.374559
0.359744
0.379288
0.436551
0.525208
0.552438
0.56035
0.560965
0.561035
0.55872
0.549954
0.561088
0.566302
0.566313
0.563691
0.55247
0.528964
0.515691
0.420317
0.231484
0.208503
0.210864
0.209138
0.210864
0.226878
0.236647
0.209001
0.210865
0.209917
0.37961
0.400869
0.384595
0.408268
0.482405
0.541388
0.558137
0.56093
0.56105
0.560926
0.553783
0.547277
0.546014
0.559736
0.566146
0.56612
0.560572
0.545659
0.527472
0.503495
0.245743
0.210865
0.208854
0.210864
0.210496
0.217104
0.21043
0.210865
0.208896
0.210865
0.393703
0.456488
0.448855
0.461714
0.520141
0.552926
0.560876
0.56104
0.560957
0.561013
0.548437
0.539683
0.367086
0.509294
0.555902
0.565949
0.564872
0.555383
0.540931
0.537259
0.256638
0.209602
0.210865
0.210169
0.210864
0.210602
0.210865
0.210319
0.210865
0.250106
0.441725
0.519005
0.517295
0.520072
0.543959
0.558783
0.561012
0.560947
0.560962
0.549476
0.549383
0.364789
0.227484
0.30986
0.502318
0.555153
0.563922
0.560335
0.549334
0.526965
0.25295
0.210865
0.209991
0.210865
0.210206
0.210865
0.210652
0.219451
0.239673
0.347824
0.506898
0.542174
0.548589
0.552408
0.557827
0.560897
0.560927
0.560823
0.541529
0.43343
0.540177
0.244737
0.228369
0.227422
0.337435
0.532309
0.556638
0.55963
0.548015
0.515284
0.28702
0.210458
0.210865
0.210638
0.210865
0.212116
0.231589
0.279302
0.342035
0.468964
0.53841
0.544923
0.556839
0.560778
0.560863
0.560888
0.559885
0.526367
0.319158
0.214686
0.331916
0.22807
0.226042
0.228369
0.237293
0.421241
0.541848
0.556193
0.550372
0.527291
0.380541
0.229489
0.222865
0.221926
0.22362
0.250499
0.337672
0.413974
0.476839
0.532473
0.538749
0.53882
0.553108
0.560326
0.560828
0.560732
0.538954
0.360221
0.194774
0.194009
0.225971
0.22777
0.22807
0.227179
0.22837
0.293425
0.526908
0.556044
0.555945
0.542323
0.445111
0.316149
0.289876
0.283719
0.296104
0.360935
0.491357
0.534527
0.53854
0.538772
0.538531
0.524254
0.426063
0.437814
0.552662
0.545529
0.463006
0.210773
0.194008
0.1904
0.217517
0.22776
0.22634
0.228076
0.227392
0.228569
0.385353
0.555147
0.555287
0.514982
0.480001
0.443789
0.398268
0.38202
0.402609
0.465508
0.488334
0.487914
0.473757
0.446786
0.406603
0.321105
0.231226
0.321206
0.477604
0.442713
0.241156
0.194009
0.192676
0.193787
0.209215
0.227778
0.228076
0.227612
0.228393
0.227845
0.252725
0.401412
0.39471
0.359388
0.445841
0.440462
0.420663
0.404221
0.401897
0.391383
0.331966
0.279543
0.244001
0.211855
0.181111
0.159291
0.190332
0.292108
0.333737
0.250391
0.19401
0.19248
0.193787
0.190757
0.198672
0.283953
0.228068
0.228393
0.228227
0.22871
0.249065
0.312806
0.300142
0.243285
0.261677
0.281396
0.29944
0.292576
0.268126
0.208667
0.170123
0.158547
0.144963
0.135835
0.135147
0.140565
0.201081
0.29256
0.278125
0.196151
0.192577
0.193787
0.192677
0.193574
0.19373
0.471345
0.294657
0.250754
0.230481
0.228851
0.259196
0.3172
0.306044
0.221942
0.149653
0.138092
0.147011
0.145346
0.138434
0.134782
0.136629
0.145119
0.138286
0.135254
0.135834
0.14185
0.215303
0.292639
0.274728
0.198089
0.193787
0.192688
0.193574
0.191296
0.193354
0.551902
0.470977
0.355108
0.284931
0.256122
0.280939
0.331698
0.318916
0.221
0.134816
0.135695
0.132489
0.135606
0.133153
0.135597
0.135635
0.143263
0.138236
0.135769
0.135102
0.142312
0.222674
0.292732
0.274403
0.201105
0.193066
0.193787
0.193027
0.193574
0.193363
0.563244
0.550827
0.501617
0.396875
0.323789
0.321983
0.354526
0.341032
0.226539
0.135695
0.132553
0.135606
0.132312
0.135523
0.133552
0.135596
0.140556
0.137937
0.135489
0.135769
0.13948
0.223175
0.292825
0.285238
0.215285
0.194008
0.193474
0.193787
0.192703
0.202332
0.563303
0.563342
0.552172
0.506804
0.415127
0.362469
0.389796
0.371526
0.23133
0.134157
0.135606
0.132381
0.135523
0.132102
0.135523
0.134786
0.136953
0.136151
0.135689
0.135205
0.13577
0.219721
0.302557
0.309749
0.232911
0.19402
0.194008
0.193778
0.193787
0.23591
0.546477
0.563255
0.563202
0.542169
0.487372
0.40405
0.433113
0.401907
0.22722
0.135606
0.132756
0.135523
0.132068
0.135469
0.132619
0.135523
0.135697
0.135642
0.135537
0.135689
0.135389
0.208973
0.316448
0.338476
0.263737
0.216659
0.214318
0.210819
0.194602
0.318069
0.515443
0.56346
0.563296
0.551823
0.518133
0.444303
0.475207
0.419162
0.208721
0.133753
0.135523
0.132262
0.135469
0.131904
0.135469
0.133978
0.135563
0.135556
0.135596
0.135285
0.135689
0.189524
0.326994
0.371201
0.303195
0.255853
0.259648
0.268159
0.267909
0.473582
0.515582
0.563164
0.563593
0.555865
0.531263
0.476505
0.498037
0.417556
0.179632
0.135523
0.132776
0.135469
0.131958
0.135412
0.13214
0.135469
0.135246
0.135523
0.135139
0.135596
0.13527
0.164017
0.330192
0.401718
0.349739
0.298602
0.312567
0.351651
0.441225
0.544391
0.515643
0.562282
0.563317
0.557628
0.537683
0.495186
0.503606
0.368778
0.155028
0.133471
0.13547
0.132218
0.135412
0.131848
0.135412
0.133564
0.135469
0.13532
0.135523
0.134835
0.135596
0.142795
0.304854
0.420518
0.398701
0.342939
0.379011
0.4708
0.54196
0.559877
0.515682
0.556108
0.563521
0.558671
0.541319
0.509491
0.504146
0.286713
0.139071
0.135474
0.13243
0.135416
0.131916
0.13535
0.131932
0.135412
0.134902
0.135469
0.134681
0.135523
0.134827
0.135814
0.244113
0.42627
0.442226
0.394797
0.465646
0.539929
0.559844
0.560012
0.524681
0.552826
0.563248
0.558863
0.542652
0.520177
0.453928
0.215824
0.135487
0.132815
0.135426
0.132009
0.135353
0.131797
0.13535
0.133418
0.135412
0.134937
0.135469
0.134387
0.135523
0.135127
0.190047
0.418109
0.472694
0.45382
0.526387
0.557408
0.559973
0.557708
0.464914
0.53483
0.562357
0.55845
0.540613
0.521585
0.343902
0.164406
0.133402
0.135446
0.132094
0.135361
0.131836
0.135282
0.131851
0.13535
0.134819
0.135412
0.134531
0.135469
0.134327
0.135523
0.158696
0.363567
0.490786
0.506377
0.547108
0.559904
0.559689
0.514283
0.428078
0.516864
0.55642
0.556626
0.535906
0.469718
0.217962
0.134405
0.135417
0.132191
0.135376
0.131882
0.135284
0.131596
0.135282
0.133392
0.13535
0.134935
0.135412
0.1342
0.135469
0.134407
0.140782
0.291571
0.498388
0.526584
0.553325
0.559713
0.559739
0.514294
0.428073
0.51013
0.552035
0.554058
0.52927
0.30569
0.151902
0.135412
0.132457
0.135371
0.131885
0.13529
0.131671
0.135217
0.131726
0.135282
0.134854
0.13535
0.134583
0.135412
0.134077
0.135469
0.134357
0.223865
0.480355
0.533198
0.554976
0.559786
0.54354
0.514469
0.442424
0.488367
0.543518
0.550587
0.531152
0.212328
0.135436
0.13288
0.13535
0.131997
0.135292
0.131743
0.135217
0.131471
0.135217
0.133246
0.135282
0.13499
0.13535
0.134154
0.135412
0.133863
0.135469
0.167254
0.419079
0.535966
0.55486
0.5544
0.514739
0.51445
0.531887
0.489066
0.531809
0.544639
0.5231
0.16311
0.13328
0.13535
0.132315
0.135284
0.131794
0.13522
0.131546
0.135152
0.131636
0.135217
0.134782
0.135282
0.134693
0.13535
0.134048
0.135412
0.133293
0.135942
0.333063
0.536219
0.550285
0.538979
0.514622
0.526023
0.558816
0.538808
0.536292
0.531727
0.418016
0.142401
0.13535
0.132718
0.135282
0.131909
0.135218
0.131654
0.135152
0.131416
0.135152
0.133171
0.135217
0.13495
0.135282
0.134207
0.13535
0.133825
0.135412
0.133523
0.238779
0.534567
0.543616
0.538419
0.5256
0.55087
0.558965
0.558864
0.551453
0.527962
0.334613
0.135362
0.132806
0.135282
0.132215
0.135217
0.131717
0.135152
0.13149
0.135078
0.131616
0.135152
0.134721
0.135217
0.134685
0.135282
0.133998
0.13535
0.132922
0.135412
0.157172
0.513985
0.542872
0.549642
0.551785
0.551787
0.553492
0.55896
0.558766
0.535952
0.298719
0.13369
0.135282
0.132646
0.135217
0.131816
0.135152
0.131618
0.135078
0.131306
0.135078
0.133173
0.135152
0.134874
0.135217
0.134154
0.135282
0.13394
0.13535
0.13297
0.135415
0.349119
0.539661
0.55179
0.551597
0.523223
0.505736
0.558699
0.558912
0.543421
0.252759
0.135282
0.132653
0.135217
0.132095
0.135152
0.131706
0.135078
0.131369
0.135007
0.131481
0.135078
0.134671
0.135152
0.134726
0.135217
0.133932
0.135307
0.13297
0.13535
0.134713
0.213704
0.462698
0.546081
0.465152
0.449063
0.444753
0.556818
0.558569
0.50965
0.20687
0.132728
0.135217
0.132579
0.135152
0.131765
0.135078
0.131507
0.135007
0.13115
0.135007
0.133044
0.135078
0.134832
0.135152
0.134221
0.135217
0.133871
0.135282
0.13298
0.13535
0.184446
0.34539
0.455737
0.374821
0.401361
0.413469
0.544983
0.553912
0.452518
0.172422
0.135217
0.132636
0.135152
0.132037
0.135078
0.131574
0.135007
0.131187
0.134939
0.131271
0.135007
0.134542
0.135078
0.134797
0.135152
0.133862
0.135217
0.132871
0.135282
0.135097
0.213912
0.324335
0.375347
0.350624
0.391857
0.412565
0.525138
0.545094
0.378394
0.153352
0.132762
0.135152
0.132547
0.135078
0.131634
0.135007
0.131298
0.134939
0.130945
0.134939
0.132871
0.135007
0.134839
0.135078
0.13443
0.135152
0.133722
0.135217
0.133122
0.138023
0.243701
0.343824
0.355199
0.349874
0.382487
0.409001
0.510623
0.516706
0.324847
0.149187
0.135152
0.13262
0.135078
0.131935
0.135007
0.131366
0.134939
0.130945
0.134868
0.130946
0.134939
0.134507
0.135007
0.134911
0.135078
0.133952
0.135152
0.132887
0.135217
0.149846
0.265467
0.348896
0.352984
0.349782
0.379436
0.398343
0.508162
0.500833
0.303286
0.146964
0.132938
0.135078
0.13245
0.135007
0.131454
0.134939
0.131046
0.134868
0.130587
0.134868
0.132815
0.134939
0.134945
0.135007
0.134646
0.135078
0.13378
0.135152
0.133439
0.163842
0.279985
0.350438
0.351032
0.349717
0.379105
0.385753
0.508117
0.498013
0.292685
0.145245
0.135078
0.132542
0.135007
0.131819
0.134939
0.131138
0.134868
0.130621
0.134793
0.130389
0.134868
0.134713
0.142546
0.139344
0.135078
0.134283
0.135152
0.133066
0.135217
0.176029
0.288597
0.348975
0.349252
0.349485
0.391491
0.37381
0.500073
0.493384
0.290046
0.144995
0.132995
0.135007
0.132346
0.134939
0.131303
0.134868
0.130795
0.134793
0.13004
0.134793
0.133178
0.145992
0.163125
0.152798
0.135063
0.135152
0.134173
0.135217
0.134063
0.186035
0.29439
0.348228
0.350129
0.349717
0.424109
0.364732
0.489052
0.491541
0.29205
0.146094
0.135007
0.132394
0.134939
0.131765
0.134868
0.130978
0.134793
0.130249
0.134718
0.129737
0.134793
0.168606
0.192892
0.173344
0.139873
0.134764
0.135217
0.133688
0.135282
0.195366
0.301929
0.351349
0.375729
0.378151
0.488236
0.359418
0.478161
0.493453
0.299614
0.148222
0.133009
0.134939
0.132279
0.134868
0.131257
0.134793
0.130605
0.134718
0.129623
0.134718
0.133524
0.195106
0.22704
0.198896
0.152343
0.135217
0.134662
0.135282
0.134669
0.206608
0.31839
0.378311
0.4235
0.481582
0.533765
0.359434
0.468076
0.496197
0.306648
0.150023
0.134939
0.132359
0.134869
0.131775
0.134801
0.130953
0.134734
0.130062
0.134669
0.129574
0.134734
0.221593
0.267872
0.231316
0.171124
0.135208
0.135282
0.134276
0.13535
0.224891
0.34647
0.429217
0.498611
0.537214
0.551913
0.359443
0.458739
0.496114
0.309997
0.151177
0.133182
0.134906
0.132189
0.134837
0.131373
0.13477
0.130683
0.134706
0.129651
0.134706
0.132475
0.247428
0.316572
0.274308
0.199457
0.145065
0.135213
0.13535
0.13526
0.253681
0.394158
0.493904
0.53974
0.552129
0.552208
0.359462
0.448297
0.487331
0.315404
0.1526
0.134906
0.132421
0.134837
0.13172
0.13477
0.13109
0.134706
0.130296
0.134641
0.129689
0.134706
0.264305
0.367734
0.332662
0.242847
0.169552
0.137799
0.135034
0.146897
0.294582
0.459833
0.534115
0.552103
0.552209
0.552189
0.3651
0.436599
0.477234
0.3295
0.156283
0.133461
0.134906
0.13215
0.134837
0.13136
0.13477
0.130849
0.134706
0.13013
0.134706
0.13142
0.265885
0.407191
0.405116
0.300674
0.20641
0.157195
0.135412
0.180165
0.352786
0.513495
0.549693
0.552198
0.552135
0.545751
0.37848
0.42885
0.468031
0.349121
0.164625
0.134975
0.132579
0.134906
0.13172
0.134837
0.131102
0.13477
0.130554
0.134706
0.130544
0.13477
0.226105
0.422897
0.462683
0.363935
0.255277
0.194235
0.160689
0.228593
0.428393
0.538366
0.552141
0.552032
0.541716
0.404415
0.399092
0.42562
0.461544
0.373259
0.18075
0.134003
0.134975
0.132252
0.134906
0.131384
0.134837
0.130908
0.13477
0.130441
0.13477
0.132331
0.165323
0.375861
0.477334
0.434068
0.318422
0.245524
0.22162
0.292114
0.489047
0.549653
0.550577
0.523495
0.315326
0.152855
0.430748
0.433506
0.459171
0.399804
0.206162
0.135044
0.132955
0.134975
0.131813
0.134906
0.131166
0.134837
0.130815
0.13477
0.131182
0.134837
0.138964
0.269798
0.477166
0.491182
0.391001
0.31102
0.307759
0.376267
0.514361
0.547177
0.515737
0.298833
0.122585
0.096456
0.477836
0.460137
0.469134
0.42837
0.242337
0.134761
0.135044
0.132491
0.134975
0.131453
0.134906
0.131085
0.134837
0.130915
0.134837
0.133139
0.135051
0.206677
0.419985
0.501368
0.457283
0.386935
0.401764
0.466035
0.514005
0.509725
0.33454
0.142942
0.0965285
0.0964939
0.521928
0.505535
0.495456
0.460717
0.289735
0.13822
0.133592
0.135044
0.132074
0.134975
0.131267
0.134906
0.13118
0.134837
0.131958
0.134906
0.136194
0.196328
0.365598
0.501249
0.496055
0.456954
0.477836
0.511623
0.511827
0.386178
0.209577
0.127501
0.100097
0.0965327
0.546313
0.537392
0.524002
0.495286
0.351083
0.158334
0.135116
0.133005
0.135044
0.131616
0.134975
0.131288
0.134906
0.131441
0.134906
0.133761
0.14133
0.207636
0.348045
0.493436
0.500476
0.492339
0.505708
0.511445
0.465626
0.315571
0.213744
0.154383
0.11607
0.0965705
0.552633
0.551858
0.543295
0.521667
0.421399
0.197589
0.134679
0.135116
0.132603
0.135044
0.131418
0.134975
0.131538
0.134906
0.132588
0.134975
0.152854
0.235706
0.364414
0.483539
0.500475
0.495658
0.504215
0.504242
0.416281
0.321796
0.252658
0.189786
0.142476
0.107777
0.552657
0.552654
0.552591
0.541741
0.484242
0.252344
0.137083
0.134008
0.135116
0.131988
0.135044
0.131516
0.134975
0.131981
0.134975
0.134403
0.170138
0.271649
0.394248
0.484929
0.500476
0.490756
0.482578
0.459307
0.403875
0.356941
0.293114
0.227685
0.175956
0.137649
0.552371
0.55258
0.552641