/*--------------------------------*- C++ -*----------------------------------*\
| =========                 |                                                 |
| \\      /  F ield         | OpenFOAM: The Open Source CFD Toolbox           |
|  \\    /   O peration     | Version:  2.3.0                                 |
|   \\  /    A nd           | Web:      www.OpenFOAM.org                      |
|    \\/     M anipulation  |                                                 |
\*---------------------------------------------------------------------------*/
FoamFile
{
    version     2.0;
    format      ascii;
    class       volScalarField;
    location    "0.75";
    object      alpha.air;
}
// * * * * * * * * * * * * * * * * * * * * * * * * * * * * * * * * * * * * * //

dimensions      [0 0 0 0 0 0 0];

internalField   nonuniform List<scalar> 
6000
(
0.566849
0.566849
0.566849
0.566852
0.584608
0.637495
0.680693
0.654318
0.625013
0.625009
0.625009
0.628068
0.631508
0.607592
0.56925
0.552207
0.552206
0.559853
0.627021
0.639466
0.647199
0.657394
0.623572
0.623401
0.6234
0.6234
0.626775
0.610792
0.578689
0.567098
0.59769
0.578142
0.580919
0.629889
0.679217
0.682192
0.679279
0.682115
0.673991
0.649343
0.643581
0.6819
0.678899
0.682069
0.672883
0.607554
0.58641
0.644915
0.662373
0.664731
0.662374
0.664728
0.662373
0.657322
0.658811
0.662236
0.662373
0.664045
0.662371
0.618918
0.597785
0.586401
0.617365
0.679117
0.681841
0.679221
0.682117
0.679221
0.680828
0.679118
0.68037
0.679008
0.682163
0.678903
0.680556
0.585414
0.540114
0.625156
0.66473
0.662374
0.664025
0.662374
0.663024
0.662374
0.662611
0.662374
0.663479
0.662374
0.663725
0.612865
0.626228
0.628067
0.67597
0.68076
0.679118
0.682117
0.679221
0.680787
0.679118
0.68068
0.679069
0.681924
0.678916
0.681928
0.678903
0.594862
0.540357
0.632795
0.662374
0.663924
0.662374
0.662887
0.662374
0.654702
0.654399
0.662739
0.662374
0.663848
0.662374
0.612897
0.62615
0.622444
0.679285
0.679069
0.681131
0.679118
0.681048
0.679118
0.679866
0.679069
0.680277
0.678916
0.681826
0.678903
0.679753
0.591978
0.539562
0.655604
0.663992
0.662374
0.662691
0.646341
0.622039
0.597911
0.598554
0.619117
0.651813
0.662374
0.663831
0.612637
0.626073
0.566849
0.653684
0.679652
0.679069
0.681052
0.679118
0.679539
0.679069
0.679321
0.678916
0.680782
0.678903
0.680556
0.678787
0.575159
0.540356
0.662753
0.662374
0.652604
0.612678
0.578694
0.541983
0.519573
0.520092
0.543578
0.603992
0.662277
0.662374
0.612631
0.604324
0.513028
0.55962
0.658698
0.679697
0.679069
0.679613
0.67554
0.654422
0.653433
0.675041
0.678903
0.67971
0.678788
0.638748
0.547505
0.539772
0.662374
0.647874
0.588058
0.523673
0.500995
0.48434
0.473973
0.472538
0.482765
0.52528
0.616133
0.659707
0.627022
0.53444
0.472254
0.481588
0.569127
0.661882
0.679462
0.676257
0.620577
0.574597
0.573131
0.610728
0.652079
0.672061
0.652112
0.562655
0.509045
0.54384
0.627938
0.585338
0.504841
0.474744
0.467521
0.46746
0.467448
0.467457
0.467455
0.468808
0.530746
0.601485
0.601221
0.469388
0.452637
0.455023
0.480273
0.582319
0.656743
0.642477
0.533945
0.497619
0.496632
0.515954
0.562143
0.601288
0.564858
0.496251
0.480363
0.516309
0.546947
0.508829
0.467482
0.467451
0.467453
0.467449
0.467488
0.4675
0.471448
0.47246
0.472996
0.500779
0.527244
0.448621
0.448631
0.448617
0.450557
0.486508
0.578486
0.583569
0.48363
0.466824
0.466701
0.467304
0.48145
0.50433
0.486284
0.467402
0.466724
0.477389
0.481046
0.469886
0.467507
0.467497
0.467497
0.476189
0.552845
0.640823
0.677005
0.64945
0.591904
0.561644
0.561637
0.448572
0.448537
0.448616
0.448596
0.449846
0.487234
0.529885
0.469404
0.46669
0.465997
0.466688
0.466344
0.466702
0.466482
0.466691
0.466348
0.46673
0.485548
0.545683
0.595126
0.571196
0.579766
0.638151
0.696864
0.752335
0.796935
0.812513
0.804339
0.776615
0.753244
0.448533
0.448601
0.448566
0.44865
0.448632
0.452664
0.486381
0.484456
0.465964
0.46672
0.465935
0.466709
0.465903
0.466689
0.465905
0.466759
0.508045
0.638609
0.741525
0.759374
0.732252
0.692215
0.669804
0.669663
0.717071
0.779948
0.826843
0.856314
0.859007
0.858724
0.450953
0.463966
0.458284
0.450228
0.448697
0.448727
0.462077
0.508246
0.51368
0.540398
0.538729
0.510792
0.469636
0.465974
0.480006
0.564659
0.702246
0.763992
0.760135
0.764121
0.758764
0.676589
0.622061
0.616582
0.666558
0.738202
0.801487
0.841016
0.855496
0.852876
0.564391
0.606623
0.529919
0.465961
0.450423
0.448746
0.449038
0.494171
0.65941
0.711727
0.713596
0.697063
0.645216
0.615316
0.672643
0.742637
0.764312
0.760135
0.766421
0.760135
0.741434
0.634692
0.578315
0.576735
0.623825
0.694541
0.761211
0.807191
0.826771
0.818398
0.804972
0.822297
0.75696
0.621414
0.484569
0.451068
0.449021
0.468595
0.649445
0.738401
0.755278
0.755769
0.755429
0.753606
0.760134
0.762815
0.760135
0.766296
0.760135
0.762108
0.705932
0.597484
0.551674
0.548088
0.582064
0.649305
0.717418
0.763373
0.781568
0.76386
0.897777
0.896655
0.884602
0.841945
0.702023
0.51057
0.451284
0.455016
0.583855
0.702369
0.740625
0.750939
0.758955
0.760135
0.761196
0.760135
0.765352
0.760135
0.764395
0.760135
0.665751
0.567736
0.534529
0.53059
0.549307
0.603392
0.666912
0.71048
0.726207
0.696717
0.897937
0.897939
0.895896
0.887774
0.858869
0.742235
0.544562
0.463756
0.530905
0.631681
0.702558
0.730005
0.751257
0.760362
0.760135
0.762725
0.760135
0.765183
0.760135
0.744121
0.622313
0.543455
0.523109
0.520717
0.528393
0.560777
0.609432
0.646446
0.659894
0.616848
0.897931
0.896918
0.888791
0.878107
0.865799
0.841517
0.746817
0.562995
0.524626
0.552339
0.642576
0.69894
0.732622
0.760135
0.760907
0.760135
0.764599
0.760135
0.761639
0.702111
0.57799
0.525356
0.514668
0.51424
0.517403
0.53024
0.554281
0.575064
0.582996
0.533825
0.897929
0.889492
0.875047
0.860395
0.849754
0.826877
0.814093
0.72271
0.524834
0.507369
0.566108
0.650131
0.70207
0.756729
0.760135
0.762062
0.760135
0.763052
0.760135
0.649735
0.541287
0.511492
0.506598
0.506806
0.507818
0.509206
0.511818
0.513572
0.510123
0.481806
0.896596
0.876306
0.859208
0.841988
0.826369
0.801938
0.796189
0.790224
0.658745
0.507703
0.507389
0.580266
0.655201
0.729268
0.760402
0.760135
0.763461
0.760135
0.73939
0.59424
0.516708
0.500486
0.497659
0.496563
0.495036
0.491059
0.485351
0.479468
0.472576
0.462028
0.887974
0.860367
0.842016
0.822271
0.801826
0.779006
0.766745
0.777638
0.767355
0.587253
0.507693
0.517629
0.596965
0.671991
0.751935
0.761011
0.760135
0.760784
0.690836
0.548121
0.500597
0.491035
0.488127
0.485458
0.481957
0.476832
0.470976
0.465309
0.459662
0.454225
0.870185
0.842907
0.822067
0.7987
0.774338
0.753465
0.743069
0.753761
0.767458
0.730342
0.523787
0.508933
0.540178
0.606608
0.70911
0.760135
0.761941
0.759045
0.63214
0.518224
0.489302
0.483034
0.479561
0.476167
0.472102
0.467363
0.462512
0.457896
0.453599
0.450231
0.844771
0.822351
0.799199
0.771458
0.743598
0.72665
0.72319
0.732027
0.762877
0.762873
0.648581
0.50911
0.508931
0.546278
0.632691
0.745311
0.760135
0.73458
0.582979
0.497692
0.481165
0.476211
0.472613
0.469056
0.465047
0.460801
0.456703
0.452956
0.449708
0.447614
0.813554
0.798627
0.775297
0.743717
0.713655
0.701009
0.702465
0.713061
0.746619
0.762869
0.744852
0.575335
0.509104
0.512776
0.554082
0.694499
0.759066
0.694897
0.54794
0.485207
0.474977
0.470449
0.466747
0.46306
0.459239
0.455523
0.452161
0.449231
0.446843
0.445823
0.779874
0.773788
0.752605
0.717959
0.685588
0.675743
0.679482
0.694308
0.726672
0.762182
0.762104
0.683435
0.531957
0.508616
0.506108
0.615587
0.735883
0.667615
0.531926
0.479209
0.470387
0.46549
0.461101
0.457057
0.453595
0.450692
0.448289
0.446264
0.444659
0.444878
0.746504
0.746543
0.72694
0.687975
0.65408
0.647361
0.654073
0.674726
0.706479
0.749808
0.761573
0.728762
0.596375
0.514025
0.485517
0.5409
0.691221
0.647405
0.529093
0.477038
0.466843
0.460535
0.454925
0.450538
0.447792
0.446084
0.444886
0.443899
0.443165
0.444844
0.70687
0.704892
0.680639
0.639029
0.612519
0.613685
0.627129
0.652768
0.684233
0.72617
0.751163
0.732038
0.644301
0.529209
0.485445
0.495649
0.639624
0.628207
0.528601
0.475707
0.462758
0.454626
0.448143
0.444483
0.442966
0.442467
0.44228
0.44215
0.442391
0.446191
0.646195
0.628969
0.596484
0.566724
0.566394
0.578777
0.600283
0.625693
0.654825
0.693441
0.729565
0.72265
0.664805
0.553198
0.486063
0.484536
0.606358
0.613926
0.526659
0.472519
0.456782
0.44797
0.442553
0.441223
0.44116
0.441201
0.441194
0.44126
0.442265
0.449977
0.561234
0.532638
0.510948
0.5145
0.533749
0.552944
0.569905
0.587524
0.610606
0.648433
0.693978
0.698421
0.660503
0.575186
0.493754
0.48414
0.605275
0.603604
0.518604
0.465485
0.450061
0.443393
0.441217
0.441134
0.441187
0.441094
0.441192
0.441177
0.44271
0.457633
0.495531
0.489184
0.489185
0.507714
0.521838
0.526024
0.529082
0.534665
0.549138
0.586867
0.63868
0.658851
0.640376
0.583405
0.507046
0.484507
0.616456
0.58966
0.50227
0.456896
0.446237
0.442887
0.441256
0.445246
0.441269
0.441211
0.441068
0.441214
0.443703
0.470443
0.489183
0.489183
0.491215
0.507693
0.501497
0.490595
0.484602
0.483964
0.492155
0.520478
0.565891
0.599299
0.604994
0.577107
0.512827
0.483884
0.643935
0.563256
0.481899
0.451744
0.447789
0.448063
0.455345
0.556905
0.486464
0.444068
0.441216
0.441044
0.444548
0.48011
0.489183
0.513884
0.508786
0.491598
0.472762
0.463387
0.459106
0.459844
0.466785
0.478211
0.499273
0.52979
0.559742
0.557142
0.519244
0.523127
0.660102
0.530495
0.467047
0.451733
0.452207
0.460598
0.565068
0.747485
0.665817
0.479803
0.441128
0.441239
0.444529
0.480026
0.489189
0.57468
0.496799
0.467358
0.456338
0.454916
0.455052
0.45787
0.464703
0.467812
0.468291
0.480354
0.510019
0.533804
0.533785
0.611933
0.659959
0.517213
0.465351
0.452659
0.459444
0.552387
0.754624
0.78923
0.775823
0.577532
0.453001
0.440993
0.444869
0.479978
0.544985
0.595336
0.477921
0.456058
0.454819
0.455037
0.454972
0.483347
0.464896
0.466863
0.463536
0.463387
0.47624
0.502604
0.554407
0.644989
0.623996
0.506506
0.468537
0.463306
0.568032
0.754313
0.789177
0.78669
0.78739
0.655385
0.457595
0.441361
0.448668
0.479987
0.594413
0.607555
0.479913
0.454975
0.455042
0.455072
0.551544
0.650192
0.532224
0.463723
0.462616
0.462559
0.462615
0.46978
0.58302
0.644335
0.53355
0.477442
0.469335
0.592237
0.769357
0.789094
0.78669
0.788692
0.786689
0.69086
0.456856
0.441056
0.452037
0.46383
0.590122
0.624721
0.513137
0.455142
0.457048
0.575936
0.738238
0.788063
0.73737
0.57572
0.481231
0.462708
0.462678
0.507111
0.639403
0.638512
0.473023
0.472505
0.548378
0.761565
0.789058
0.78669
0.788762
0.78669
0.786938
0.710585
0.509288
0.449613
0.503185
0.506295
0.587992
0.638454
0.559868
0.472057
0.525756
0.695624
0.789135
0.791124
0.789135
0.776596
0.678237
0.606537
0.598869
0.679396
0.728259
0.652176
0.48296
0.473014
0.672132
0.78724
0.78669
0.788734
0.78669
0.78715
0.756178
0.662734
0.577633
0.538476
0.644118
0.61402
0.605405
0.637329
0.611145
0.551398
0.588178
0.70088
0.785
0.789136
0.79213
0.789136
0.791032
0.785498
0.781924
0.789133
0.791565
0.68937
0.617963
0.568764
0.700278
0.786689
0.788796
0.78669
0.787305
0.76654
0.68607
0.601451
0.590684
0.617858
0.648946
0.648466
0.63306
0.63897
0.637329
0.628795
0.597744
0.646694
0.746063
0.789823
0.789136
0.792125
0.789136
0.79187
0.789136
0.794296
0.789135
0.768724
0.746924
0.653359
0.698675
0.784216
0.78669
0.787418
0.774053
0.707796
0.611525
0.57437
0.591152
0.646797
0.648229
0.648402
0.637867
0.637598
0.638288
0.637329
0.590282
0.588963
0.67534
0.779764
0.790718
0.789136
0.791753
0.789136
0.792329
0.789136
0.795219
0.789135
0.789597
0.669597
0.698347
0.781824
0.788276
0.779312
0.720042
0.63049
0.56879
0.570131
0.61323
0.647945
0.648672
0.639842
0.634389
0.638539
0.637329
0.637822
0.588852
0.54991
0.592339
0.738202
0.789136
0.791331
0.789136
0.791585
0.789136
0.795038
0.789136
0.79473
0.789135
0.678708
0.707648
0.782676
0.78669
0.743498
0.640108
0.570315
0.557498
0.579414
0.633512
0.647943
0.647945
0.592498
0.596026
0.637329
0.63761
0.637061
0.593844
0.532108
0.528895
0.669691
0.786593
0.789136
0.791209
0.789136
0.791855
0.789136
0.795774
0.789136
0.792941
0.702563
0.717454
0.782563
0.787686
0.694516
0.571991
0.546921
0.557612
0.593869
0.631531
0.624622
0.617554
0.510643
0.526587
0.629305
0.637061
0.637056
0.601531
0.529764
0.503978
0.59419
0.76189
0.789921
0.789136
0.79115
0.789136
0.795211
0.789136
0.795339
0.789136
0.747185
0.719846
0.772413
0.786689
0.655032
0.545435
0.545303
0.565621
0.589642
0.591627
0.556382
0.513979
0.465379
0.478648
0.555747
0.597826
0.61823
0.599165
0.54287
0.501278
0.549175
0.714774
0.789136
0.790265
0.789136
0.791322
0.789136
0.795785
0.789136
0.794428
0.787519
0.717493
0.730393
0.760572
0.631168
0.545566
0.546349
0.556574
0.550133
0.517943
0.483236
0.461268
0.450352
0.455943
0.482349
0.530112
0.575271
0.586003
0.55231
0.501318
0.543121
0.65896
0.775691
0.789136
0.790388
0.789136
0.795256
0.789136
0.795343
0.789136
0.792231
0.701149
0.642213
0.661085
0.62263
0.546403
0.536788
0.521588
0.494713
0.471054
0.456479
0.450232
0.450189
0.447696
0.456066
0.479138
0.523793
0.5645
0.553686
0.527452
0.554126
0.621439
0.736373
0.785673
0.789136
0.790808
0.789136
0.795794
0.789136
0.794281
0.789136
0.683501
0.524935
0.536463
0.602406
0.540115
0.510744
0.484769
0.465669
0.454847
0.450259
0.450153
0.451148
0.447144
0.448325
0.458252
0.48353
0.530721
0.552588
0.544031
0.564025
0.60288
0.679296
0.754191
0.784497
0.789136
0.795781
0.789136
0.794904
0.789136
0.792529
0.685615
0.469883
0.477412
0.542484
0.518673
0.485121
0.464399
0.454108
0.45028
0.450151
0.450282
0.462535
0.449313
0.447205
0.450593
0.463899
0.495025
0.538368
0.54822
0.553289
0.580145
0.629161
0.695925
0.748577
0.78925
0.789136
0.79597
0.789136
0.793385
0.789136
0.720804
0.469336
0.459544
0.477784
0.485734
0.465966
0.454232
0.450299
0.450171
0.450318
0.459847
0.472078
0.453549
0.447231
0.447715
0.45477
0.473062
0.51164
0.537705
0.522688
0.549922
0.605156
0.640195
0.685295
0.76583
0.79588
0.789136
0.794581
0.789136
0.791493
0.756764
0.532236
0.458305
0.456042
0.459744
0.453738
0.450317
0.450288
0.457433
0.467826
0.517426
0.472109
0.462173
0.44865
0.44765
0.449994
0.461014
0.486569
0.521056
0.499738
0.528096
0.604265
0.613709
0.636755
0.742863
0.789136
0.796176
0.789136
0.792588
0.789136
0.765876
0.562987
0.464731
0.450408
0.450379
0.450343
0.450358
0.462419
0.528512
0.60054
0.640248
0.490963
0.478336
0.463976
0.44777
0.447752
0.45351
0.469527
0.502072
0.499733
0.535545
0.607821
0.610898
0.630998
0.76849
0.796204
0.789136
0.794208
0.789136
0.790086
0.737414
0.508043
0.490216
0.45282
0.450927
0.45762
0.471971
0.570364
0.640896
0.640256
0.641422
0.549743
0.498679
0.498607
0.461383
0.44967
0.449972
0.458911
0.480731
0.50069
0.573025
0.611789
0.610723
0.666131
0.793632
0.789136
0.796409
0.789136
0.790761
0.773209
0.627957
0.468223
0.478708
0.463453
0.478543
0.555837
0.615267
0.641086
0.640257
0.640845
0.640256
0.51579
0.47726
0.499129
0.498538
0.467812
0.452399
0.454567
0.468292
0.526433
0.603329
0.613494
0.617879
0.739613
0.789136
0.797523
0.789136
0.791953
0.783914
0.684
0.490614
0.468078
0.467944
0.467863
0.590781
0.640254
0.641084
0.640257
0.640789
0.619327
0.545457
0.465429
0.451531
0.498455
0.498936
0.498481
0.466417
0.457321
0.463437
0.541537
0.605947
0.606787
0.653156
0.789135
0.796667
0.789136
0.794208
0.789135
0.718253
0.541137
0.468303
0.468132
0.468058
0.498085
0.640253
0.641089
0.640256
0.640378
0.603574
0.521828
0.465694
0.444771
0.436238
0.452437
0.481818
0.498863
0.495227
0.471234
0.467471
0.551968
0.597449
0.586453
0.690855
0.794277
0.789136
0.796346
0.789136
0.760545
0.605424
0.474304
0.468331
0.468197
0.468099
0.580195
0.641191
0.640256
0.633989
0.59255
0.51335
0.462467
0.444675
0.439107
0.433315
0.436232
0.447428
0.471323
0.494986
0.494389
0.496986
0.54446
0.561721
0.584817
0.736575
0.789136
0.796747
0.789136
0.790257
0.7101
0.534167
0.476133
0.468379
0.46824
0.493938
0.64075
0.640256
0.630931
0.594321
0.521165
0.465447
0.445691
0.439507
0.439025
0.433276
0.433455
0.437065
0.4479
0.470589
0.495575
0.517119
0.520008
0.53125
0.637184
0.788319
0.79563
0.789136
0.793063
0.786544
0.674125
0.547737
0.515377
0.472035
0.473416
0.581722
0.640256
0.640637
0.609279
0.545334
0.475756
0.449426
0.440494
0.439021
0.43902
0.434905
0.433426
0.434106
0.438974
0.451642
0.477264
0.506571
0.499819
0.550649
0.714412
0.792528
0.789136
0.794647
0.789136
0.775918
0.679821
0.622128
0.669129
0.583383
0.547645
0.623255
0.640606
0.636906
0.591605
0.500257
0.45738
0.442744
0.439043
0.43902
0.439011
0.44069
0.433577
0.433562
0.434884
0.441993
0.459403
0.489706
0.494794
0.599192
0.760586
0.789136
0.793609
0.789136
0.789849
0.768012
0.714081
0.744478
0.790554
0.752366
0.616595
0.625441
0.640256
0.620712
0.563449
0.474792
0.447562
0.43965
0.439035
0.438965
0.44128
0.450046
0.438912
0.433698
0.433687
0.436309
0.44753
0.471036
0.484309
0.579683
0.768516
0.791497
0.789136
0.790862
0.789136
0.773122
0.763353
0.790999
0.789135
0.790083
0.62039
0.599131
0.615405
0.591732
0.517595
0.458612
0.441863
0.43907
0.43895
0.439074
0.446217
0.452723
0.453986
0.440264
0.433854
0.43388
0.439428
0.454341
0.472528
0.496505
0.754257
0.789135
0.791146
0.789136
0.789504
0.782896
0.78957
0.789135
0.791104
0.789135
0.606297
0.543512
0.551145
0.538286
0.479859
0.447074
0.439124
0.43896
0.439043
0.438987
0.451563
0.460317
0.632914
0.490706
0.444098
0.434051
0.435128
0.444617
0.459069
0.462741
0.743362
0.790398
0.789135
0.789831
0.789136
0.789398
0.789135
0.789681
0.789135
0.749894
0.558275
0.480995
0.482705
0.479928
0.456041
0.441217
0.438988
0.439053
0.439038
0.450524
0.450617
0.635211
0.772516
0.69014
0.497682
0.444847
0.436078
0.439665
0.450666
0.473035
0.74705
0.789135
0.790009
0.789135
0.789794
0.789135
0.789348
0.780549
0.760327
0.652176
0.493102
0.457826
0.451411
0.447592
0.442173
0.439103
0.439073
0.439177
0.458471
0.56657
0.459823
0.755263
0.771631
0.772578
0.662565
0.467691
0.443362
0.44037
0.451985
0.484716
0.71298
0.789542
0.789135
0.789362
0.789135
0.787884
0.768411
0.720698
0.657965
0.531036
0.46159
0.455077
0.443161
0.439222
0.439137
0.439112
0.440115
0.473633
0.680842
0.785314
0.668084
0.77193
0.773958
0.771631
0.762707
0.578759
0.458152
0.443807
0.449628
0.472709
0.619459
0.770511
0.777135
0.778074
0.77638
0.749501
0.662328
0.586026
0.523161
0.467527
0.461251
0.46118
0.446892
0.439674
0.439172
0.439268
0.461046
0.639779
0.805226
0.805991
0.774029
0.77223
0.77193
0.772821
0.77163
0.706575
0.473092
0.443956
0.444055
0.457677
0.554889
0.683851
0.710124
0.716281
0.703896
0.639065
0.508643
0.465473
0.46146
0.461228
0.461469
0.475746
0.573937
0.562186
0.447338
0.454471
0.536994
0.789227
0.805992
0.8096
0.782483
0.77224
0.77366
0.771924
0.772608
0.771431
0.614647
0.444853
0.444713
0.485018
0.519999
0.556211
0.601732
0.61798
0.597391
0.534492
0.511666
0.512086
0.526243
0.553214
0.593397
0.678895
0.768774
0.678794
0.522396
0.557287
0.758844
0.805991
0.807324
0.806213
0.790785
0.772222
0.771924
0.772388
0.771607
0.772155
0.747275
0.598588
0.60529
0.640612
0.554159
0.559538
0.579337
0.595779
0.598103
0.608617
0.668034
0.720457
0.755999
0.788145
0.818889
0.840709
0.809668
0.707892
0.666263
0.749609
0.80599
0.80752
0.806213
0.809243
0.801328
0.716047
0.771932
0.771607
0.771773
0.77129
0.750935
0.687194
0.699858
0.756715
0.738323
0.718604
0.70056
0.707424
0.731874
0.791333
0.829877
0.841453
0.855037
0.864165
0.864853
0.859435
0.798919
0.70744
0.721875
0.803849
0.807423
0.806213
0.807323
0.806426
0.80627
0.528655
0.705343
0.749246
0.769519
0.771149
0.740804
0.6828
0.693956
0.778058
0.850347
0.861908
0.852989
0.854654
0.861566
0.865218
0.863371
0.854881
0.861714
0.864746
0.864166
0.85815
0.784697
0.707361
0.725272
0.801911
0.806213
0.807312
0.806426
0.808704
0.806646
0.448098
0.529023
0.644892
0.715069
0.743878
0.719061
0.668302
0.681084
0.779
0.865184
0.864305
0.867511
0.864394
0.866847
0.864403
0.864365
0.856737
0.861764
0.864231
0.864898
0.857688
0.777326
0.707268
0.725597
0.798895
0.806934
0.806213
0.806973
0.806426
0.806637
0.436756
0.449173
0.498383
0.603125
0.676211
0.678017
0.645474
0.658968
0.773461
0.864305
0.867447
0.864394
0.867688
0.864477
0.866448
0.864404
0.859444
0.862063
0.864511
0.864231
0.86052
0.776825
0.707175
0.714762
0.784715
0.805992
0.806526
0.806213
0.807297
0.797668
0.436697
0.436658
0.447828
0.493196
0.584873
0.637531
0.610204
0.628474
0.76867
0.865843
0.864394
0.867619
0.864477
0.867898
0.864477
0.865214
0.863047
0.863849
0.864311
0.864795
0.86423
0.780279
0.697443
0.690251
0.767089
0.80598
0.805992
0.806222
0.806213
0.76409
0.453523
0.436745
0.436798
0.457831
0.512628
0.59595
0.566887
0.598093
0.77278
0.864394
0.867244
0.864477
0.867932
0.864531
0.867381
0.864477
0.864303
0.864358
0.864463
0.864311
0.864611
0.791027
0.683552
0.661524
0.736263
0.783341
0.785682
0.789181
0.805398
0.681931
0.484557
0.43654
0.436704
0.448177
0.481867
0.555697
0.524793
0.580838
0.791279
0.866247
0.864477
0.867738
0.864531
0.868096
0.864531
0.866022
0.864437
0.864444
0.864404
0.864715
0.864311
0.810476
0.673006
0.628799
0.696805
0.744147
0.740352
0.731841
0.732091
0.526418
0.484418
0.436836
0.436407
0.444135
0.468737
0.523495
0.501963
0.582444
0.820368
0.864477
0.867224
0.864531
0.868042
0.864588
0.86786
0.864531
0.864754
0.864477
0.864861
0.864404
0.86473
0.835983
0.669808
0.598282
0.650261
0.701398
0.687433
0.648349
0.558775
0.455609
0.484357
0.437718
0.436683
0.442372
0.462317
0.504814
0.496394
0.631222
0.844972
0.866529
0.86453
0.867782
0.864588
0.868152
0.864588
0.866436
0.864531
0.86468
0.864477
0.865165
0.864404
0.857205
0.695146
0.579482
0.601299
0.657061
0.620989
0.5292
0.45804
0.440123
0.484318
0.443892
0.436479
0.441329
0.458681
0.490509
0.495854
0.713287
0.860929
0.864526
0.86757
0.864584
0.868084
0.86465
0.868068
0.864588
0.865098
0.864531
0.865319
0.864477
0.865173
0.864186
0.755887
0.57373
0.557774
0.605203
0.534354
0.460071
0.440156
0.439988
0.475319
0.447174
0.436752
0.441137
0.457348
0.479823
0.546072
0.784176
0.864513
0.867185
0.864574
0.867991
0.864647
0.868203
0.86465
0.866582
0.864588
0.865063
0.864531
0.865613
0.864477
0.864873
0.809953
0.581891
0.527306
0.54618
0.473613
0.442592
0.440027
0.442292
0.535086
0.46517
0.437643
0.44155
0.459387
0.478415
0.656098
0.835594
0.866598
0.864554
0.867906
0.864639
0.868164
0.864718
0.868149
0.86465
0.865181
0.864588
0.865469
0.864531
0.865673
0.864477
0.841304
0.636433
0.509214
0.493623
0.452892
0.440096
0.440311
0.485717
0.571922
0.483136
0.44358
0.443374
0.464094
0.530282
0.782038
0.865595
0.864583
0.867809
0.864624
0.868118
0.864716
0.868404
0.864718
0.866608
0.86465
0.865065
0.864588
0.8658
0.864531
0.865593
0.859218
0.708429
0.501612
0.473416
0.446675
0.440287
0.440261
0.485706
0.571927
0.48987
0.447965
0.445942
0.47073
0.69431
0.848098
0.864588
0.867543
0.864629
0.868115
0.86471
0.868329
0.864783
0.868274
0.864718
0.865146
0.86465
0.865417
0.864588
0.865923
0.864531
0.865643
0.776135
0.519645
0.466802
0.445024
0.440214
0.45646
0.485531
0.557576
0.511633
0.456482
0.449413
0.468848
0.787672
0.864564
0.86712
0.86465
0.868003
0.864708
0.868257
0.864783
0.868529
0.864783
0.866754
0.864718
0.86501
0.86465
0.865846
0.864588
0.866137
0.864531
0.832746
0.580921
0.464034
0.44514
0.4456
0.485261
0.48555
0.468113
0.510934
0.468191
0.455361
0.4769
0.83689
0.86672
0.86465
0.867685
0.864716
0.868206
0.86478
0.868454
0.864848
0.868364
0.864783
0.865218
0.864718
0.865307
0.86465
0.865952
0.864588
0.866707
0.864058
0.666937
0.463781
0.449715
0.461021
0.485378
0.473977
0.441184
0.461192
0.463708
0.468273
0.581984
0.857599
0.86465
0.867282
0.864718
0.868091
0.864782
0.868346
0.864848
0.868584
0.864848
0.866829
0.864783
0.86505
0.864718
0.865793
0.86465
0.866175
0.864588
0.866477
0.761221
0.465433
0.456384
0.461581
0.4744
0.44913
0.441035
0.441136
0.448547
0.472038
0.665387
0.864638
0.867194
0.864718
0.867785
0.864783
0.868283
0.864848
0.86851
0.864922
0.868384
0.864848
0.865279
0.864783
0.865315
0.864718
0.866002
0.86465
0.867078
0.864588
0.842828
0.486015
0.457128
0.450358
0.448215
0.448213
0.446508
0.44104
0.441234
0.464048
0.701281
0.86631
0.864718
0.867354
0.864783
0.868184
0.864848
0.868382
0.864922
0.868694
0.864922
0.866827
0.864848
0.865126
0.864783
0.865846
0.864718
0.86606
0.86465
0.86703
0.864585
0.650881
0.460339
0.44821
0.448403
0.476777
0.494264
0.441301
0.441088
0.456579
0.747241
0.864718
0.867347
0.864783
0.867905
0.864848
0.868294
0.864922
0.868631
0.864993
0.868519
0.864922
0.865329
0.864848
0.865274
0.864783
0.866068
0.864693
0.86703
0.86465
0.865287
0.786296
0.537302
0.453919
0.534848
0.550937
0.555247
0.443182
0.441431
0.49035
0.79313
0.867272
0.864783
0.867421
0.864848
0.868235
0.864922
0.868493
0.864993
0.86885
0.864993
0.866956
0.864922
0.865168
0.864848
0.865779
0.864783
0.866129
0.864718
0.86702
0.86465
0.815554
0.65461
0.544263
0.625179
0.598639
0.586531
0.455017
0.446088
0.547482
0.827578
0.864783
0.867364
0.864848
0.867963
0.864922
0.868426
0.864993
0.868813
0.865061
0.868729
0.864993
0.865458
0.864922
0.865203
0.864848
0.866138
0.864783
0.867129
0.864718
0.864903
0.786088
0.675665
0.624653
0.649376
0.608143
0.587435
0.474862
0.454906
0.621606
0.846648
0.867238
0.864848
0.867453
0.864922
0.868366
0.864993
0.868702
0.865061
0.869055
0.865061
0.867129
0.864993
0.865161
0.864922
0.86557
0.864848
0.866278
0.864783
0.866878
0.861977
0.756299
0.656176
0.644801
0.650126
0.617513
0.590999
0.489377
0.483294
0.675153
0.850813
0.864848
0.86738
0.864922
0.868065
0.864993
0.868634
0.865061
0.869055
0.865132
0.869054
0.865061
0.865493
0.864993
0.865089
0.864922
0.866048
0.864848
0.867113
0.864783
0.850154
0.734533
0.651104
0.647016
0.650218
0.620564
0.601657
0.491838
0.499167
0.696714
0.853036
0.867062
0.864922
0.86755
0.864993
0.868546
0.865061
0.868954
0.865132
0.869413
0.865132
0.867185
0.865061
0.865055
0.864993
0.865354
0.864922
0.86622
0.864848
0.866561
0.836158
0.720015
0.649562
0.648968
0.650283
0.620895
0.614247
0.491883
0.501987
0.707315
0.854755
0.864922
0.867458
0.864993
0.868181
0.865061
0.868862
0.865132
0.869379
0.865207
0.869611
0.865132
0.865287
0.857454
0.860656
0.864922
0.865717
0.864848
0.866934
0.864783
0.823971
0.711403
0.651025
0.650748
0.650515
0.608509
0.62619
0.499927
0.506616
0.709954
0.855005
0.867005
0.864993
0.867654
0.865061
0.868697
0.865132
0.869205
0.865207
0.86996
0.865207
0.866822
0.854008
0.836875
0.847202
0.864937
0.864848
0.865827
0.864783
0.865937
0.813965
0.70561
0.651772
0.649871
0.650283
0.575891
0.635268
0.510948
0.508459
0.70795
0.853906
0.864993
0.867606
0.865061
0.868235
0.865132
0.869022
0.865207
0.869751
0.865282
0.870263
0.865207
0.831394
0.807108
0.826656
0.860127
0.865236
0.864783
0.866312
0.864718
0.804634
0.698071
0.648651
0.624271
0.621849
0.511764
0.640582
0.521839
0.506547
0.700386
0.851778
0.866991
0.865061
0.867721
0.865132
0.868743
0.865207
0.869395
0.865282
0.870377
0.865282
0.866476
0.804894
0.77296
0.801104
0.847657
0.864783
0.865338
0.864718
0.865331
0.793392
0.68161
0.621689
0.5765
0.518418
0.466235
0.640566
0.531924
0.503803
0.693352
0.849977
0.865061
0.867641
0.865131
0.868225
0.865199
0.869047
0.865266
0.869938
0.865331
0.870426
0.865266
0.778407
0.732128
0.768684
0.828876
0.864792
0.864718
0.865724
0.86465
0.775109
0.65353
0.570783
0.501389
0.462786
0.448087
0.640557
0.541261
0.503886
0.690003
0.848823
0.866818
0.865094
0.867811
0.865163
0.868627
0.86523
0.869317
0.865294
0.870349
0.865294
0.867525
0.752572
0.683428
0.725692
0.800543
0.854935
0.864787
0.86465
0.86474
0.746319
0.605842
0.506096
0.46026
0.447871
0.447792
0.640538
0.551703
0.512669
0.684596
0.8474
0.865094
0.867579
0.865163
0.86828
0.86523
0.86891
0.865294
0.869704
0.865359
0.870311
0.865294
0.735695
0.632266
0.667338
0.757153
0.830448
0.862201
0.864966
0.853103
0.705418
0.540167
0.465885
0.447897
0.447791
0.447811
0.6349
0.563401
0.522766
0.6705
0.843717
0.866539
0.865094
0.86785
0.865163
0.86864
0.86523
0.869151
0.865294
0.86987
0.865294
0.86858
0.734115
0.592809
0.594884
0.699326
0.79359
0.842805
0.864588
0.819835
0.647214
0.486505
0.450307
0.447802
0.447865
0.454249
0.62152
0.57115
0.531969
0.650879
0.835375
0.865025
0.867421
0.865094
0.86828
0.865163
0.868898
0.86523
0.869446
0.865294
0.869456
0.86523
0.773895
0.577103
0.537317
0.636065
0.744723
0.805765
0.839311
0.771407
0.571607
0.461634
0.447859
0.447968
0.458284
0.595585
0.600908
0.57438
0.538456
0.626741
0.81925
0.865997
0.865025
0.867748
0.865094
0.868616
0.865163
0.869092
0.86523
0.869559
0.86523
0.867669
0.834677
0.624139
0.522666
0.565932
0.681578
0.754476
0.77838
0.707886
0.510953
0.450347
0.449423
0.476505
0.684674
0.847145
0.569252
0.566494
0.540829
0.600196
0.793838
0.864956
0.867045
0.865025
0.868187
0.865094
0.868834
0.865163
0.869185
0.86523
0.868818
0.865163
0.861036
0.730202
0.522834
0.508818
0.608999
0.68898
0.692241
0.623733
0.485639
0.452823
0.484263
0.701167
0.877415
0.903544
0.522164
0.539863
0.530866
0.57163
0.757663
0.865239
0.864956
0.867509
0.865025
0.868547
0.865094
0.868915
0.865163
0.869085
0.865163
0.866861
0.864949
0.793323
0.580015
0.498632
0.542717
0.613065
0.598236
0.533965
0.485995
0.490275
0.66546
0.857058
0.903472
0.903506
0.478072
0.494465
0.504544
0.539283
0.710265
0.86178
0.866408
0.864956
0.867926
0.865025
0.868733
0.865094
0.86882
0.865163
0.868042
0.865094
0.863806
0.803672
0.634402
0.498751
0.503945
0.543046
0.522164
0.488377
0.488173
0.613822
0.790423
0.872499
0.899903
0.903467
0.453687
0.462608
0.475998
0.504714
0.648917
0.841666
0.864884
0.866995
0.864956
0.868384
0.865025
0.868712
0.865094
0.868559
0.865094
0.866239
0.85867
0.792364
0.651955
0.506564
0.499524
0.507661
0.494292
0.488555
0.534374
0.684429
0.786256
0.845617
0.88393
0.90343
0.447367
0.448142
0.456705
0.478333
0.578601
0.802411
0.865321
0.864884
0.867397
0.864956
0.868582
0.865025
0.868462
0.865094
0.867412
0.865025
0.847146
0.764294
0.635586
0.516461
0.499525
0.504342
0.495785
0.495758
0.583719
0.678204
0.747342
0.810214
0.857524
0.892223
0.447343
0.447346
0.447409
0.458259
0.515758
0.747656
0.862917
0.865992
0.864884
0.868012
0.864956
0.868484
0.865025
0.868019
0.865025
0.865597
0.829862
0.728351
0.605752
0.515071
0.499524
0.509244
0.517422
0.540693
0.596125
0.643059
0.706886
0.772315
0.824044
0.862351
0.447629
0.44742
0.447359
0.447538
0.479406