/*--------------------------------*- C++ -*----------------------------------*\
| =========                 |                                                 |
| \\      /  F ield         | OpenFOAM: The Open Source CFD Toolbox           |
|  \\    /   O peration     | Version:  2.3.0                                 |
|   \\  /    A nd           | Web:      www.OpenFOAM.org                      |
|    \\/     M anipulation  |                                                 |
\*---------------------------------------------------------------------------*/
FoamFile
{
    version     2.0;
    format      ascii;
    class       volScalarField;
    location    "0.75";
    object      p;
}
// * * * * * * * * * * * * * * * * * * * * * * * * * * * * * * * * * * * * * //

dimensions      [1 -1 -2 0 0 0 0];

internalField   nonuniform List<scalar> 
6000
(
105854
105853
105843
105826
105809
105801
105798
105797
105797
105800
105802
105803
105807
105811
105815
105830
105836
105827
105819
105815
105812
105809
105808
105804
105800
105795
105791
105791
105794
105800
105782
105779
105768
105756
105751
105749
105748
105745
105744
105744
105745
105748
105751
105753
105756
105765
105772
105766
105764
105762
105759
105757
105753
105750
105745
105741
105738
105736
105736
105739
105737
105733
105724
105720
105718
105715
105713
105712
105711
105711
105712
105715
105716
105719
105723
105731
105738
105732
105728
105726
105725
105724
105722
105720
105715
105710
105705
105701
105701
105705
105698
105695
105690
105688
105685
105682
105680
105679
105679
105679
105681
105682
105684
105686
105689
105694
105699
105693
105692
105692
105693
105694
105695
105693
105687
105679
105670
105664
105662
105665
105666
105668
105664
105659
105655
105651
105649
105649
105650
105650
105650
105651
105652
105654
105657
105662
105662
105656
105656
105660
105664
105668
105669
105666
105658
105647
105635
105625
105620
105621
105635
105640
105639
105631
105625
105621
105620
105621
105623
105624
105622
105621
105621
105623
105628
105630
105625
105621
105623
105629
105636
105637
105634
105627
105617
105607
105595
105584
105577
105575
105602
105605
105611
105605
105596
105591
105590
105595
105599
105600
105598
105594
105593
105595
105600
105596
105585
105584
105588
105594
105595
105589
105578
105565
105555
105549
105547
105542
105535
105530
105556
105555
105566
105573
105566
105559
105560
105566
105571
105572
105572
105570
105567
105568
105566
105553
105540
105543
105544
105540
105526
105513
105500
105486
105474
105468
105472
105485
105486
105481
105478
105475
105491
105519
105528
105523
105522
105525
105525
105527
105533
105536
105534
105530
105514
105492
105481
105482
105471
105449
105434
105423
105410
105385
105359
105349
105357
105384
105405
105406
105363
105368
105387
105423
105463
105471
105466
105459
105453
105453
105459
105469
105473
105459
105432
105407
105392
105378
105350
105323
105319
105316
105305
105291
105281
105275
105275
105280
105289
105295
105230
105238
105261
105299
105347
105384
105381
105365
105361
105357
105359
105365
105369
105357
105333
105306
105276
105247
105223
105215
105220
105234
105244
105249
105250
105249
105247
105245
105246
105247
105079
105084
105112
105158
105210
105255
105270
105254
105249
105238
105236
105244
105253
105248
105229
105198
105173
105164
105164
105167
105174
105191
105211
105227
105234
105236
105234
105233
105232
105232
104907
104915
104951
105007
105069
105123
105155
105152
105130
105115
105112
105117
105128
105132
105123
105115
105115
105121
105129
105138
105148
105164
105186
105206
105218
105223
105224
105224
105223
105224
104805
104809
104827
104869
104933
105001
105052
105077
105066
105059
105057
105056
105057
105061
105065
105071
105080
105090
105099
105109
105122
105137
105159
105182
105199
105207
105211
105213
105214
105215
104774
104776
104780
104792
104824
104886
104962
105021
105033
105032
105031
105031
105030
105032
105037
105045
105053
105061
105070
105080
105093
105108
105130
105155
105175
105189
105196
105200
105202
105203
104764
104765
104766
104769
104777
104804
104866
104956
104999
105008
105011
105012
105012
105013
105016
105021
105026
105033
105042
105052
105064
105078
105099
105123
105146
105164
105176
105182
105186
105188
104757
104758
104759
104760
104762
104770
104795
104870
104946
104977
104987
104991
104993
104993
104994
104997
105001
105006
105014
105024
105034
105048
105066
105087
105110
105131
105148
105158
105163
105166
104750
104751
104752
104753
104755
104757
104765
104794
104874
104934
104959
104968
104971
104971
104971
104972
104975
104979
104986
104996
105004
105015
105030
105047
105067
105089
105108
105122
105130
105133
104742
104743
104744
104745
104747
104749
104751
104758
104795
104875
104922
104941
104948
104949
104948
104947
104949
104952
104959
104967
104973
104980
104990
105003
105019
105038
105056
105071
105080
105081
104734
104735
104735
104736
104737
104738
104740
104740
104749
104798
104869
104906
104922
104926
104924
104922
104922
104925
104932
104937
104938
104941
104947
104956
104967
104981
104994
105006
105012
105012
104725
104725
104725
104725
104726
104726
104726
104725
104725
104738
104800
104857
104888
104901
104900
104896
104895
104897
104904
104904
104900
104898
104899
104904
104910
104918
104926
104933
104937
104937
104715
104714
104714
104713
104713
104711
104710
104707
104704
104704
104729
104794
104841
104868
104875
104869
104866
104868
104872
104867
104858
104851
104847
104847
104849
104852
104856
104859
104860
104861
104703
104702
104701
104700
104698
104695
104690
104686
104682
104678
104681
104722
104781
104823
104844
104842
104836
104837
104836
104825
104811
104799
104791
104786
104783
104783
104783
104784
104784
104784
104689
104688
104686
104684
104680
104675
104669
104663
104657
104652
104648
104661
104712
104764
104802
104810
104803
104802
104795
104777
104758
104742
104729
104721
104715
104711
104709
104708
104707
104706
104673
104672
104669
104666
104660
104652
104644
104637
104631
104625
104620
104621
104647
104696
104745
104769
104764
104757
104746
104723
104699
104679
104663
104651
104642
104636
104632
104630
104629
104628
104655
104653
104650
104645
104636
104626
104616
104608
104602
104597
104592
104589
104597
104631
104678
104715
104714
104704
104688
104662
104635
104611
104591
104576
104565
104558
104554
104551
104550
104549
104633
104632
104628
104620
104607
104594
104584
104576
104571
104566
104561
104557
104557
104574
104608
104645
104651
104640
104623
104595
104564
104536
104512
104494
104482
104475
104472
104471
104470
104469
104604
104603
104597
104583
104566
104553
104544
104540
104536
104532
104527
104521
104517
104520
104539
104566
104574
104567
104552
104522
104486
104452
104423
104403
104392
104389
104389
104390
104390
104390
104558
104555
104543
104524
104509
104500
104497
104496
104496
104494
104489
104481
104473
104467
104472
104487
104490
104490
104476
104443
104400
104359
104324
104299
104293
104297
104304
104309
104311
104312
104479
104471
104458
104444
104437
104436
104437
104441
104445
104446
104443
104435
104423
104409
104402
104407
104405
104412
104397
104356
104305
104255
104209
104167
104177
104199
104218
104230
104236
104238
104373
104363
104358
104356
104356
104357
104359
104364
104371
104380
104384
104377
104362
104344
104328
104321
104321
104332
104311
104262
104204
104145
104087
104056
104067
104098
104133
104154
104165
104169
104263
104249
104258
104264
104265
104260
104256
104255
104266
104284
104300
104302
104288
104267
104244
104229
104242
104249
104219
104165
104102
104039
104002
103994
103995
104018
104054
104085
104099
104104
104152
104149
104164
104168
104163
104151
104135
104125
104140
104164
104188
104202
104199
104180
104156
104149
104170
104167
104127
104067
104002
103966
103957
103960
103959
103969
103994
104024
104038
104042
104058
104065
104074
104073
104060
104035
103995
103979
104003
104038
104066
104086
104094
104087
104070
104079
104107
104088
104036
103971
103933
103925
103928
103932
103934
103939
103952
103973
103983
103986
103989
103992
103992
103985
103963
103915
103883
103876
103887
103917
103949
103972
103985
103985
103981
104002
104039
104005
103948
103903
103894
103898
103903
103907
103911
103915
103923
103929
103932
103934
103931
103927
103921
103907
103877
103847
103832
103830
103829
103834
103849
103866
103877
103881
103890
103915
103945
103924
103882
103866
103870
103874
103879
103884
103890
103894
103900
103890
103887
103886
103874
103871
103861
103848
103829
103813
103808
103805
103800
103794
103794
103797
103804
103812
103824
103839
103848
103853
103842
103841
103846
103851
103856
103863
103869
103871
103869
103860
103852
103850
103824
103823
103814
103804
103797
103792
103788
103783
103777
103772
103768
103767
103770
103778
103787
103791
103788
103803
103812
103816
103821
103827
103834
103842
103847
103845
103836
103829
103825
103824
103784
103783
103778
103772
103771
103772
103769
103762
103756
103751
103748
103748
103750
103755
103760
103761
103758
103770
103785
103790
103796
103803
103812
103820
103821
103815
103806
103802
103800
103801
103752
103749
103747
103744
103745
103749
103748
103741
103734
103729
103727
103726
103727
103731
103734
103736
103736
103746
103758
103764
103770
103779
103789
103794
103790
103783
103777
103777
103777
103780
103724
103720
103718
103716
103717
103722
103724
103720
103711
103706
103703
103702
103703
103705
103708
103711
103714
103720
103730
103737
103743
103753
103762
103763
103758
103752
103751
103753
103754
103759
103699
103693
103690
103688
103688
103692
103696
103696
103688
103682
103679
103677
103677
103679
103681
103684
103688
103693
103704
103711
103716
103724
103729
103728
103725
103724
103726
103730
103733
103735
103672
103668
103665
103662
103660
103661
103666
103668
103664
103657
103653
103651
103651
103651
103653
103657
103660
103665
103678
103688
103691
103695
103695
103693
103692
103695
103700
103703
103706
103702
103642
103643
103639
103635
103631
103629
103633
103637
103638
103632
103627
103624
103623
103623
103625
103628
103632
103637
103652
103667
103670
103666
103662
103659
103660
103663
103666
103666
103662
103656
103606
103609
103608
103605
103600
103597
103598
103604
103609
103606
103600
103596
103594
103594
103594
103597
103601
103608
103622
103643
103648
103636
103628
103624
103623
103622
103619
103613
103606
103601
103564
103567
103570
103569
103566
103562
103563
103570
103577
103579
103574
103568
103564
103563
103563
103565
103568
103573
103585
103612
103615
103600
103591
103584
103578
103571
103561
103552
103544
103539
103517
103521
103525
103529
103529
103527
103528
103535
103544
103549
103546
103539
103533
103529
103529
103531
103533
103537
103543
103564
103566
103559
103547
103536
103525
103512
103499
103488
103478
103475
103468
103472
103478
103484
103488
103489
103491
103499
103507
103512
103513
103508
103499
103494
103494
103495
103498
103501
103502
103512
103515
103511
103496
103482
103466
103450
103433
103419
103409
103413
103416
103422
103429
103437
103444
103448
103451
103458
103463
103466
103470
103469
103460
103456
103456
103460
103464
103467
103469
103471
103468
103457
103441
103423
103404
103384
103364
103352
103348
103357
103365
103370
103378
103387
103396
103403
103406
103410
103411
103412
103416
103417
103412
103413
103418
103424
103430
103437
103442
103442
103428
103407
103384
103362
103340
103320
103310
103305
103305
103309
103317
103321
103326
103335
103345
103354
103358
103357
103355
103357
103359
103359
103362
103370
103378
103388
103398
103409
103420
103415
103384
103356
103325
103299
103283
103274
103272
103272
103274
103275
103275
103275
103275
103282
103293
103303
103307
103304
103301
103305
103306
103305
103316
103327
103338
103352
103367
103383
103397
103379
103337
103303
103270
103251
103242
103240
103242
103246
103249
103250
103236
103229
103230
103232
103241
103251
103258
103256
103256
103258
103257
103258
103272
103284
103298
103315
103335
103357
103361
103325
103287
103247
103221
103213
103210
103212
103216
103221
103226
103224
103194
103190
103187
103186
103192
103202
103211
103214
103215
103215
103212
103219
103230
103242
103257
103276
103301
103319
103296
103265
103230
103194
103182
103180
103180
103184
103190
103195
103195
103191
103151
103152
103149
103146
103147
103156
103168
103174
103176
103174
103171
103181
103189
103200
103213
103232
103254
103248
103223
103199
103168
103146
103145
103147
103150
103155
103159
103158
103154
103151
103103
103105
103108
103108
103109
103115
103125
103134
103136
103130
103131
103142
103149
103157
103167
103180
103182
103160
103149
103133
103111
103106
103108
103112
103117
103120
103119
103113
103109
103106
103053
103056
103061
103067
103073
103078
103086
103095
103096
103091
103097
103105
103111
103116
103122
103123
103102
103074
103071
103070
103066
103070
103073
103077
103080
103079
103073
103066
103061
103058
103000
103005
103013
103022
103033
103043
103052
103062
103063
103062
103069
103073
103075
103078
103080
103069
103042
103024
103021
103028
103032
103036
103039
103041
103040
103034
103025
103017
103011
103007
102946
102952
102963
102976
102992
103008
103022
103036
103042
103041
103044
103044
103045
103046
103043
103030
103013
103005
103001
103004
103007
103008
103009
103006
103000
102987
102975
102965
102957
102952
102892
102895
102908
102927
102948
102971
102992
103013
103029
103025
103023
103021
103020
103020
103016
103006
102998
102993
102990
102990
102987
102983
102979
102971
102956
102938
102922
102908
102897
102892
102837
102831
102849
102874
102902
102931
102959
102985
103014
103009
103003
103001
102999
102998
102994
102989
102985
102981
102980
102979
102969
102957
102945
102930
102908
102885
102865
102845
102828
102826
102788
102784
102796
102820
102854
102889
102923
102955
102988
102989
102984
102981
102979
102978
102976
102974
102972
102970
102971
102967
102947
102923
102901
102879
102853
102827
102801
102774
102748
102755
102754
102756
102759
102775
102807
102846
102887
102927
102965
102968
102963
102960
102959
102958
102958
102959
102960
102960
102960
102945
102908
102876
102848
102822
102794
102764
102731
102702
102687
102688
102734
102737
102738
102743
102765
102803
102849
102895
102941
102950
102943
102940
102938
102938
102940
102944
102946
102943
102932
102890
102847
102816
102790
102765
102735
102700
102669
102653
102651
102649
102719
102720
102721
102723
102732
102759
102807
102856
102904
102927
102922
102919
102917
102917
102919
102924
102918
102899
102855
102801
102761
102732
102720
102709
102678
102647
102632
102629
102630
102628
102705
102705
102706
102706
102708
102724
102763
102807
102844
102878
102890
102889
102886
102884
102882
102870
102831
102783
102731
102691
102668
102661
102672
102660
102634
102618
102612
102613
102613
102612
102693
102691
102691
102690
102690
102695
102709
102735
102754
102789
102824
102827
102822
102811
102785
102724
102676
102645
102624
102614
102611
102616
102624
102624
102605
102597
102597
102598
102597
102597
102682
102679
102677
102675
102673
102672
102676
102671
102667
102679
102697
102706
102701
102679
102642
102611
102595
102586
102581
102581
102584
102591
102594
102590
102583
102582
102583
102583
102583
102583
102673
102669
102665
102661
102657
102653
102647
102634
102621
102610
102607
102607
102602
102591
102579
102573
102569
102567
102566
102567
102570
102574
102575
102571
102569
102569
102570
102570
102570
102571
102665
102659
102654
102648
102642
102635
102625
102609
102593
102581
102575
102570
102566
102563
102560
102558
102556
102555
102554
102555
102557
102559
102560
102558
102557
102557
102557
102558
102558
102559
102647
102647
102641
102634
102626
102617
102604
102587
102572
102563
102559
102555
102551
102549
102546
102544
102543
102541
102541
102541
102542
102544
102546
102546
102546
102546
102546
102547
102547
102549
102622
102623
102622
102615
102607
102596
102583
102566
102552
102545
102542
102538
102536
102533
102531
102530
102528
102527
102527
102527
102527
102529
102532
102535
102536
102536
102536
102537
102538
102540
102589
102593
102591
102588
102581
102571
102559
102543
102530
102526
102523
102521
102519
102517
102515
102514
102513
102512
102512
102512
102512
102513
102518
102523
102525
102526
102527
102528
102529
102532
102557
102562
102556
102552
102549
102542
102533
102519
102508
102506
102504
102503
102502
102500
102499
102498
102497
102497
102496
102496
102496
102497
102503
102510
102515
102517
102519
102520
102522
102525
102523
102526
102523
102517
102514
102512
102506
102495
102487
102486
102486
102485
102485
102484
102483
102482
102482
102481
102481
102480
102480
102480
102486
102496
102502
102505
102508
102511
102514
102517
102487
102488
102488
102484
102482
102481
102478
102470
102466
102467
102468
102468
102468
102467
102467
102466
102466
102465
102465
102464
102464
102462
102466
102478
102487
102491
102494
102498
102503
102503
102453
102455
102456
102454
102452
102453
102452
102446
102447
102449
102450
102451
102451
102451
102451
102451
102450
102450
102449
102448
102447
102446
102446
102457
102467
102472
102476
102481
102485
102486
102427
102429
102428
102427
102427
102428
102428
102426
102429
102432
102433
102434
102435
102435
102435
102435
102434
102434
102433
102432
102431
102430
102428
102435
102445
102451
102454
102459
102463
102462
102406
102405
102404
102403
102404
102406
102407
102408
102413
102415
102417
102418
102419
102419
102420
102419
102419
102418
102418
102417
102416
102414
102412
102415
102422
102427
102431
102436
102441
102435
102382
102381
102380
102382
102385
102388
102388
102392
102397
102399
102401
102403
102404
102404
102404
102404
102404
102403
102403
102402
102401
102399
102397
102396
102400
102405
102409
102415
102420
102415
102356
102356
102358
102364
102369
102372
102373
102378
102382
102384
102386
102388
102389
102389
102390
102389
102389
102389
102388
102387
102386
102385
102382
102380
102382
102385
102388
102392
102390
102388
102333
102334
102339
102348
102357
102358
102361
102365
102368
102370
102372
102373
102374
102375
102375
102375
102375
102374
102374
102373
102372
102371
102369
102366
102367
102368
102369
102367
102362
102355
102318
102315
102322
102334
102347
102347
102350
102352
102355
102356
102358
102359
102360
102361
102361
102361
102361
102361
102360
102359
102358
102357
102356
102353
102353
102353
102350
102345
102338
102335
102314
102303
102310
102323
102338
102337
102339
102340
102342
102343
102344
102345
102346
102347
102347
102347
102347
102347
102347
102346
102345
102344
102343
102341
102339
102339
102335
102329
102321
102328
102315
102303
102304
102315
102325
102326
102327
102328
102329
102330
102331
102332
102333
102333
102334
102334
102334
102334
102334
102333
102333
102332
102331
102329
102327
102328
102323
102319
102318
102326
102316
102309
102303
102307
102313
102314
102314
102315
102316
102317
102318
102319
102320
102320
102321
102321
102321
102321
102321
102321
102320
102320
102319
102318
102316
102318
102316
102317
102323
102330
102319
102317
102304
102299
102301
102302
102302
102303
102304
102304
102305
102306
102307
102307
102308
102308
102308
102308
102308
102308
102308
102308
102307
102306
102306
102306
102310
102319
102328
102335
102321
102320
102304
102292
102289
102290
102290
102290
102291
102292
102292
102293
102294
102294
102295
102296
102296
102296
102296
102296
102296
102296
102296
102296
102295
102295
102304
102312
102319
102319
102310
102305
102293
102285
102277
102277
102277
102278
102278
102279
102280
102280
102281
102282
102283
102283
102284
102284
102284
102284
102285
102285
102285
102285
102285
102286
102290
102297
102298
102299
102293
102292
102280
102272
102264
102265
102265
102265
102266
102266
102267
102268
102269
102270
102270
102271
102272
102272
102273
102273
102273
102274
102274
102274
102275
102277
102277
102279
102281
102282
102276
102277
102268
102256
102252
102252
102252
102253
102253
102254
102254
102255
102256
102257
102258
102259
102260
102261
102261
102262
102262
102263
102263
102264
102265
102266
102266
102265
102266
102266
102259
102258
102251
102241
102240
102240
102240
102240
102240
102241
102242
102243
102244
102245
102246
102248
102249
102250
102250
102251
102251
102252
102252
102253
102254
102255
102254
102253
102252
102252
102241
102240
102234
102228
102227
102227
102227
102227
102228
102228
102229
102230
102231
102233
102234
102236
102238
102239
102240
102240
102241
102242
102242
102243
102244
102244
102242
102240
102239
102239
102224
102224
102220
102216
102215
102215
102215
102215
102215
102216
102217
102218
102219
102221
102222
102224
102227
102229
102230
102231
102231
102231
102232
102232
102233
102233
102230
102228
102226
102227
102209
102209
102206
102204
102203
102202
102202
102202
102202
102203
102204
102205
102206
102208
102210
102213
102216
102219
102221
102221
102222
102222
102222
102223
102223
102223
102220
102217
102215
102215
102194
102195
102194
102192
102190
102190
102190
102190
102190
102190
102191
102192
102193
102195
102197
102200
102205
102209
102212
102212
102212
102213
102213
102213
102214
102213
102210
102207
102204
102204
102180
102181
102181
102179
102178
102177
102177
102177
102177
102177
102178
102178
102180
102181
102184
102187
102192
102199
102202
102204
102204
102204
102204
102205
102205
102204
102200
102195
102192
102190
102167
102167
102168
102167
102165
102165
102164
102164
102164
102164
102164
102165
102166
102167
102169
102172
102179
102187
102193
102196
102196
102196
102196
102197
102198
102196
102190
102183
102176
102172
102153
102154
102155
102154
102153
102152
102152
102151
102151
102151
102151
102151
102152
102153
102155
102157
102163
102175
102184
102188
102188
102188
102189
102189
102190
102187
102178
102165
102154
102146
102139
102140
102142
102141
102141
102140
102139
102139
102138
102138
102138
102138
102138
102138
102139
102141
102145
102159
102173
102180
102181
102181
102181
102182
102182
102177
102161
102140
102122
102108
102126
102126
102129
102129
102129
102127
102127
102126
102125
102125
102125
102124
102124
102124
102124
102124
102126
102140
102160
102171
102173
102174
102174
102175
102174
102163
102135
102107
102079
102052
102112
102113
102116
102117
102117
102115
102114
102114
102113
102112
102111
102111
102110
102109
102109
102108
102107
102117
102143
102159
102164
102166
102166
102167
102164
102141
102102
102063
102026
102016
102098
102099
102102
102105
102105
102103
102102
102101
102100
102099
102099
102098
102097
102096
102095
102094
102091
102095
102119
102143
102153
102156
102157
102156
102149
102110
102060
102019
102004
102002
102083
102084
102088
102093
102094
102092
102090
102089
102088
102087
102086
102085
102084
102083
102082
102081
102079
102079
102093
102122
102137
102142
102143
102139
102123
102071
102020
102000
101996
101996
102067
102069
102074
102081
102083
102080
102079
102077
102076
102075
102074
102073
102071
102070
102069
102069
102068
102068
102074
102097
102115
102121
102121
102111
102081
102030
102000
101993
101992
101992
102049
102052
102059
102069
102072
102069
102067
102065
102064
102063
102062
102060
102059
102058
102058
102058
102058
102058
102060
102073
102088
102094
102091
102074
102036
102003
101992
101989
101989
101988
102027
102032
102042
102054
102060
102059
102056
102054
102052
102051
102050
102048
102047
102047
102046
102047
102048
102048
102049
102053
102061
102063
102056
102037
102007
101991
101987
101985
101984
101984
102001
102008
102021
102037
102048
102048
102045
102042
102040
102039
102038
102037
102036
102035
102035
102036
102037
102038
102037
102037
102037
102033
102024
102007
101991
101984
101981
101980
101979
101979
101963
101976
101994
102016
102035
102037
102034
102031
102029
102027
102026
102025
102024
102024
102024
102024
102026
102027
102025
102021
102015
102007
101997
101986
101978
101974
101973
101973
101972
101972
101901
101931
101959
101988
102018
102026
102023
102020
102018
102016
102014
102013
102013
102012
102013
102013
102015
102014
102011
102004
101994
101985
101975
101967
101963
101962
101963
101964
101964
101964
101865
101880
101912
101952
101992
102013
102013
102010
102007
102004
102003
102002
102001
102001
102002
102003
102004
102002
101996
101986
101974
101963
101954
101948
101946
101946
101948
101951
101953
101953
101852
101855
101871
101912
101961
101996
102001
101999
101996
101993
101991
101990
101990
101990
101991
101993
101993
101990
101981
101966
101952
101940
101931
101926
101923
101924
101928
101933
101936
101938
101848
101848
101852
101874
101922
101969
101986
101988
101985
101982
101980
101979
101978
101979
101980
101983
101983
101977
101962
101943
101927
101914
101904
101899
101896
101897
101901
101907
101912
101915
101845
101845
101846
101853
101883
101933
101966
101975
101974
101970
101968
101967
101967
101968
101970
101972
101971
101959
101938
101916
101898
101884
101873
101866
101862
101862
101865
101871
101878
101882
101842
101843
101843
101845
101857
101896
101939
101959
101962
101958
101956
101955
101955
101956
101959
101961
101954
101933
101907
101884
101864
101848
101836
101828
101823
101821
101822
101826
101831
101835
101839
101840
101841
101842
101846
101866
101910
101939
101948
101947
101944
101943
101943
101945
101948
101946
101931
101902
101873
101847
101825
101807
101794
101783
101777
101773
101772
101774
101776
101779
101835
101836
101837
101839
101841
101850
101878
101916
101933
101935
101931
101930
101931
101933
101936
101928
101902
101867
101835
101806
101782
101762
101746
101734
101725
101720
101717
101717
101717
101718
101831
101832
101833
101834
101836
101841
101855
101889
101915
101921
101919
101918
101919
101922
101921
101904
101866
101827
101792
101761
101734
101711
101693
101679
101669
101662
101658
101656
101655
101654
101826
101826
101827
101827
101829
101832
101839
101861
101893
101906
101906
101904
101907
101909
101901
101870
101824
101781
101743
101710
101681
101656
101636
101620
101608
101600
101594
101591
101589
101588
101819
101819
101818
101817
101817
101819
101823
101836
101864
101886
101890
101890
101893
101891
101869
101822
101772
101727
101688
101653
101622
101596
101574
101556
101542
101532
101525
101521
101518
101517
101808
101808
101804
101799
101796
101798
101802
101809
101829
101857
101869
101872
101873
101858
101814
101761
101710
101665
101625
101589
101558
101530
101507
101487
101471
101459
101451
101445
101442
101441
101788
101785
101774
101760
101752
101754
101766
101774
101786
101810
101832
101839
101833
101795
101740
101687
101639
101595
101555
101519
101487
101459
101434
101413
101396
101382
101372
101365
101361
101359
101744
101732
101704
101684
101676
101680
101696
101716
101729
101741
101763
101772
101751
101703
101652
101605
101560
101518
101480
101444
101412
101384
101358
101335
101316
101301
101289
101280
101275
101272
101648
101625
101600
101584
101579
101585
101602
101625
101646
101655
101661
101658
101637
101598
101557
101516
101475
101437
101400
101366
101334
101305
101278
101254
101233
101216
101202
101191
101185
101181
101506
101492
101476
101467
101467
101477
101495
101518
101541
101554
101548
101535
101516
101490
101457
101422
101386
101351
101316
101283
101251
101222
101194
101168
101145
101126
101110
101098
101090
101086
101357
101350
101342
101339
101344
101357
101378
101402
101426
101442
101435
101421
101402
101383
101356
101326
101295
101262
101230
101197
101165
101133
101103
101075
101050
101028
101010
100997
100989
100985
101207
101204
101201
101202
101210
101229
101254
101282
101309
101327
101328
101318
101298
101281
101258
101231
101203
101173
101141
101108
101075
101040
101007
100975
100945
100920
100900
100888
100880
100876
101055
101054
101054
101055
101067
101093
101126
101160
101191
101216
101226
101220
101199
101182
101161
101138
101112
101083
101052
101018
100982
100945
100907
100870
100834
100803
100782
100771
100764
100759
100901
100901
100901
100908
100927
100957
100998
101039
101075
101105
101124
101119
101099
101082
101066
101046
101023
100996
100965
100930
100891
100850
100809
100766
100724
100690
100668
100657
100643
100633
100743
100744
100754
100774
100800
100831
100876
100923
100963
100993
101012
101013
100996
100984
100973
100957
100938
100912
100880
100844
100804
100761
100717
100671
100627
100596
100576
100556
100526
100496
100575
100593
100624
100656
100685
100719
100766
100817
100858
100885
100901
100903
100891
100890
100884
100873
100856
100832
100801
100764
100723
100679
100635
100590
100549
100517
100494
100462
100416
100386
100412
100451
100504
100547
100581
100621
100668
100722
100765
100789
100801
100804
100802
100803
100802
100796
100781
100757
100727
100689
100648
100606
100563
100520
100480
100445
100410
100367
100341
100336
100324
100342
100393
100447
100487
100531
100582
100639
100686
100710
100721
100726
100732
100729
100732
100726
100711
100689
100658
100621
100580
100539
100499
100456
100414
100374
100336
100317
100313
100315
100299
100303
100316
100356
100403
100451
100505
100566
100617
100648
100659
100669
100676
100674
100675
100665
100648
100625
100595
100559
100519
100478
100438
100396
100350
100314
100300
100298
100300
100302
100291
100292
100294
100303
100331
100380
100436
100500
100557
100594
100608
100621
100628
100627
100623
100610
100590
100567
100538
100502
100463
100423
100383
100337
100300
100288
100287
100289
100291
100292
100286
100287
100287
100288
100294
100321
100374
100440
100500
100542
100559
100573
100580
100579
100571
100557
100537
100514
100487
100452
100414
100373
100332
100294
100279
100278
100279
100281
100282
100282
100282
100282
100282
100282
100282
100290
100322
100383
100445
100489
100510
100521
100527
100527
100518
100506
100488
100467
100441
100409
100371
100330
100293
100273
100270
100271
100272
100273
100273
100272
100276
100276
100276
100276
100276
100278
100294
100335
100395
100437
100460
100471
100476
100476
100469
100457
100442
100424
100400
100371
100336
100297
100272
100263
100263
100263
100264
100264
100262
100261
100269
100269
100269
100269
100269
100270
100279
100306
100354
100391
100412
100422
100427
100427
100421
100411
100398
100381
100364
100339
100308
100278
100260