/*--------------------------------*- C++ -*----------------------------------*\
| =========                 |                                                 |
| \\      /  F ield         | OpenFOAM: The Open Source CFD Toolbox           |
|  \\    /   O peration     | Version:  2.3.0                                 |
|   \\  /    A nd           | Web:      www.OpenFOAM.org                      |
|    \\/     M anipulation  |                                                 |
\*---------------------------------------------------------------------------*/
FoamFile
{
    version     2.0;
    format      ascii;
    class       surfaceScalarField;
    location    "0.75";
    object      phi;
}
// * * * * * * * * * * * * * * * * * * * * * * * * * * * * * * * * * * * * * //

dimensions      [0 3 -1 0 0 0 0];

internalField   nonuniform List<scalar> 
11770
(
3.04492e-06
4.54255e-05
1.1446e-05
3.9959e-05
2.00854e-05
3.97839e-05
2.28445e-05
4.58332e-05
1.98953e-05
5.15207e-05
1.53416e-05
5.30765e-05
7.17773e-06
5.67934e-05
2.06786e-06
5.37956e-05
-3.3441e-08
5.06789e-05
1.36141e-06
4.70816e-05
3.09823e-06
4.67128e-05
-3.55273e-06
5.52527e-05
-7.76722e-06
5.26998e-05
-1.27509e-05
5.35101e-05
-1.7606e-05
5.34874e-05
-6.81913e-06
3.74774e-05
8.45038e-06
3.27705e-05
1.24152e-05
4.4412e-05
1.00803e-05
5.0797e-05
6.71858e-06
5.19267e-05
4.6088e-06
5.0653e-05
1.98494e-06
5.12162e-05
3.39784e-06
4.70857e-05
5.37312e-06
4.64889e-05
6.51438e-06
4.73944e-05
5.55403e-06
4.95979e-05
1.53368e-06
5.27161e-05
-2.68082e-06
5.28988e-05
-5.23909e-06
5.12059e-05
4.3133e-05
6.46125e-06
4.02686e-05
1.05915e-05
3.69859e-05
1.25242e-05
3.89751e-05
9.50717e-06
5.00783e-05
7.04248e-06
5.52883e-05
7.47026e-06
5.40029e-05
1.16464e-05
5.41143e-05
1.08283e-05
5.61003e-05
7.62988e-06
5.52763e-05
6.02718e-06
5.00205e-05
3.3394e-06
5.07363e-05
-7.47183e-07
6.07835e-05
-3.90925e-06
5.71662e-05
-6.78021e-06
5.76736e-05
-1.44261e-05
6.25238e-05
-8.06251e-06
3.2228e-05
2.06977e-06
2.36467e-05
2.46778e-08
4.77144e-05
-1.92627e-06
5.40447e-05
-2.20657e-06
5.35784e-05
-6.54827e-07
5.04597e-05
3.99341e-06
4.79746e-05
5.20317e-06
4.72296e-05
7.45162e-06
4.55721e-05
9.1377e-06
4.70506e-05
1.02055e-05
4.99088e-05
1.06975e-05
5.36506e-05
7.62299e-06
5.73574e-05
-7.5745e-07
6.0923e-05
4.36305e-05
3.75801e-06
3.65855e-05
7.60529e-06
3.32112e-05
4.02853e-06
4.26445e-05
3.18209e-06
5.10383e-05
6.38478e-06
5.22081e-05
7.62318e-06
5.29016e-05
8.10528e-06
5.37847e-05
8.73931e-06
5.56127e-05
9.00101e-06
5.5157e-05
6.11847e-06
5.30397e-05
3.01277e-06
5.3988e-05
3.97128e-06
6.00104e-05
9.97596e-07
6.03278e-05
-3.35926e-06
6.22085e-05
-6.4682e-06
6.58029e-05
-4.74255e-06
3.06032e-05
-9.71243e-07
1.99529e-05
-2.8597e-06
4.97642e-05
-7.28995e-06
5.86344e-05
-7.43253e-06
5.38655e-05
-5.56179e-06
4.87247e-05
-2.31179e-06
4.48761e-05
2.63166e-06
4.24299e-05
9.23433e-06
3.91143e-05
1.52744e-05
4.11352e-05
1.8754e-05
4.65233e-05
1.7864e-05
5.46199e-05
1.23597e-05
6.2939e-05
4.99258e-06
6.83618e-05
4.86932e-05
-2.9808e-08
3.664e-05
3.48805e-06
2.97167e-05
3.97488e-07
4.57719e-05
2.78296e-06
4.86814e-05
3.81153e-06
5.1204e-05
4.49212e-06
5.22482e-05
4.72805e-06
5.3579e-05
5.13707e-06
5.5235e-05
6.36821e-06
5.39636e-05
7.04401e-06
5.24013e-05
6.37202e-06
5.47002e-05
6.89991e-06
5.9539e-05
5.46631e-06
6.18347e-05
3.414e-06
6.43346e-05
3.4523e-06
6.5827e-05
1.74335e-06
3.23385e-05
-9.24354e-07
2.26425e-05
-9.27291e-06
5.81799e-05
-1.18571e-05
6.12679e-05
-1.241e-05
5.44544e-05
-1.09849e-05
4.73291e-05
-6.79088e-06
4.07152e-05
1.3336e-06
3.43374e-05
1.2288e-05
2.81915e-05
2.23271e-05
3.11214e-05
2.80175e-05
4.08517e-05
2.63825e-05
5.62738e-05
1.79518e-05
7.13897e-05
8.20435e-06
7.81299e-05
5.69219e-05
-3.83547e-06
4.04916e-05
-1.37328e-07
2.60319e-05
3.26212e-06
4.23918e-05
2.29284e-06
4.96627e-05
8.84176e-07
5.26232e-05
-1.1471e-07
5.32575e-05
-4.74528e-07
5.39497e-05
1.42549e-06
5.33465e-05
5.23895e-06
5.01641e-05
8.3671e-06
4.92885e-05
9.80714e-06
5.32784e-05
1.10977e-05
5.82733e-05
1.04236e-05
6.25448e-05
9.12741e-06
6.56707e-05
8.86541e-06
6.61219e-05
5.80061e-06
3.54108e-05
-1.45378e-06
2.99092e-05
-1.26866e-05
6.9457e-05
-1.65528e-05
6.51563e-05
-1.6711e-05
5.46274e-05
-1.27248e-05
4.33531e-05
-6.74103e-06
3.47407e-05
1.8637e-06
2.57404e-05
1.04758e-05
1.9586e-05
1.93998e-05
2.22044e-05
2.80857e-05
3.21759e-05
3.1021e-05
5.33545e-05
2.35005e-05
7.89313e-05
1.20042e-05
8.96468e-05
6.89447e-05
-1.16454e-06
4.16706e-05
-6.76079e-07
2.55516e-05
5.88364e-06
3.5841e-05
5.03154e-06
5.0524e-05
1.31768e-06
5.63468e-05
-2.95889e-06
5.75441e-05
-5.54002e-06
5.65414e-05
-3.21523e-06
5.10314e-05
4.04956e-06
4.29083e-05
1.02608e-05
4.3087e-05
1.27422e-05
5.08096e-05
1.28488e-05
5.81827e-05
1.18712e-05
6.35439e-05
8.92525e-06
6.86389e-05
1.14472e-05
6.36114e-05
5.17162e-06
4.16893e-05
-4.86036e-06
3.99563e-05
-1.37116e-05
7.83401e-05
-1.83803e-05
6.98406e-05
-1.63549e-05
5.26122e-05
-1.03269e-05
3.7332e-05
-4.20358e-06
2.86227e-05
1.48723e-06
2.00535e-05
4.72008e-06
1.6356e-05
8.06549e-06
1.88625e-05
1.32975e-05
2.69501e-05
2.21505e-05
4.45137e-05
2.35625e-05
7.75411e-05
1.40437e-05
9.91878e-05
8.30073e-05
1.11137e-06
4.05723e-05
1.06557e-07
2.6562e-05
3.20223e-06
3.27524e-05
6.76461e-06
4.69701e-05
2.90224e-06
6.02206e-05
-4.40066e-06
6.48594e-05
-1.12059e-05
6.33599e-05
-6.91193e-06
4.67477e-05
1.24264e-06
3.4761e-05
8.40355e-06
3.59332e-05
1.29896e-05
4.62324e-05
1.25994e-05
5.85832e-05
7.48846e-06
6.86667e-05
3.3799e-06
7.27572e-05
6.63959e-06
6.0357e-05
6.13802e-07
4.77236e-05
-8.68201e-06
4.92738e-05
-1.30941e-05
8.27799e-05
-1.41478e-05
7.09111e-05
-9.46098e-06
4.79361e-05
-5.85847e-06
3.37372e-05
-2.30982e-06
2.50798e-05
-7.05122e-07
1.84522e-05
-7.10594e-07
1.63637e-05
-1.54217e-06
1.96967e-05
-2.37747e-06
2.77899e-05
1.67236e-06
4.04732e-05
1.01315e-05
6.91006e-05
9.6741e-06
9.96689e-05
9.27085e-05
3.92782e-06
3.66586e-05
-3.85173e-07
3.08826e-05
-2.07605e-06
3.44522e-05
1.41664e-06
4.34875e-05
1.54345e-06
6.01063e-05
-6.52478e-06
7.29432e-05
-1.28098e-05
6.96608e-05
-5.40171e-06
3.93484e-05
-1.32052e-06
3.06854e-05
9.44291e-07
3.36739e-05
4.14645e-06
4.30369e-05
4.80188e-06
5.79357e-05
7.17415e-07
7.276e-05
2.0038e-06
7.14798e-05
5.29213e-06
5.70789e-05
9.56013e-07
5.2076e-05
-8.65202e-06
5.89056e-05
-6.77368e-06
8.09298e-05
-4.62578e-06
6.87853e-05
-3.65268e-06
4.69779e-05
-3.92816e-06
3.40228e-05
-2.97299e-06
2.41313e-05
-2.37052e-06
1.78526e-05
-3.94327e-06
1.79394e-05
-7.98145e-06
2.37416e-05
-1.38616e-05
3.36797e-05
-1.84367e-05
4.50648e-05
-1.30221e-05
6.37091e-05
-1.76967e-06
8.84504e-05
9.09806e-05
2.01484e-06
3.46608e-05
-3.38769e-06
3.62979e-05
-8.50316e-06
3.95824e-05
-8.6967e-06
4.36972e-05
-3.97342e-06
5.53993e-05
-5.60177e-06
7.45925e-05
-6.86968e-06
7.09499e-05
-2.99574e-06
3.54833e-05
-3.38176e-06
3.10772e-05
-5.24974e-06
3.55484e-05
-5.67442e-06
4.34708e-05
-3.54456e-06
5.58188e-05
7.87738e-08
6.91522e-05
6.07457e-06
6.55019e-05
6.07854e-06
5.70935e-05
2.11031e-06
5.60672e-05
-2.61257e-06
6.36555e-05
2.53714e-06
7.58164e-05
2.82734e-06
6.85285e-05
-1.76184e-06
5.15921e-05
-3.85844e-06
3.61335e-05
-3.19396e-06
2.34736e-05
-5.84344e-07
1.52431e-05
-2.65148e-06
2.00062e-05
-1.11723e-05
3.22654e-05
-2.1612e-05
4.41329e-05
-2.91971e-05
5.26713e-05
-2.38389e-05
5.83828e-05
-8.83893e-06
7.34991e-05
8.21992e-05
-1.82604e-06
3.65087e-05
-7.30351e-06
4.17964e-05
-1.30351e-05
4.53375e-05
-1.69811e-05
4.76693e-05
-1.33239e-05
5.17681e-05
-4.24909e-06
6.55458e-05
-1.54169e-06
6.82709e-05
-2.84732e-06
3.67997e-05
-5.182e-06
3.34206e-05
-8.10011e-06
3.84773e-05
-1.04552e-05
4.58407e-05
-8.85309e-06
5.42362e-05
-7.95607e-07
6.11195e-05
5.26477e-06
5.94666e-05
5.37738e-06
5.70059e-05
3.57405e-06
5.78975e-05
3.82187e-06
6.34406e-05
7.40346e-06
7.22803e-05
3.97548e-06
7.20031e-05
-5.42591e-06
6.10223e-05
-8.3079e-06
3.9024e-05
-7.78748e-06
2.29519e-05
-6.49442e-06
1.39493e-05
-4.67866e-06
1.81908e-05
-5.937e-06
3.35269e-05
-1.30873e-05
5.12925e-05
-1.79261e-05
5.75247e-05
-1.84486e-05
5.89296e-05
-1.10206e-05
6.61055e-05
7.12177e-05
-4.60133e-06
4.11387e-05
-1.09717e-05
4.81981e-05
-1.70226e-05
5.1422e-05
-2.11726e-05
5.18539e-05
-2.0667e-05
5.12975e-05
-9.10069e-06
5.40126e-05
-7.58045e-07
5.99604e-05
-3.8387e-06
3.98964e-05
-6.03482e-06
3.56283e-05
-9.69108e-06
4.21488e-05
-1.25558e-05
4.87256e-05
-1.16669e-05
5.33714e-05
-4.91119e-06
5.43907e-05
1.19185e-06
5.33898e-05
4.47138e-06
5.37522e-05
6.63218e-06
5.5766e-05
8.25649e-06
6.18497e-05
6.098e-06
7.44787e-05
-5.89035e-06
8.40326e-05
-1.89558e-05
7.41161e-05
-2.72782e-05
4.73594e-05
-2.97147e-05
2.5391e-05
-2.96446e-05
1.38782e-05
-2.14559e-05
9.99976e-06
-8.8905e-06
2.0961e-05
-1.20138e-06
4.36052e-05
-1.00816e-06
5.73349e-05
-8.04337e-06
6.59696e-05
-8.07314e-06
6.61427e-05
6.31546e-05
-5.90435e-06
4.70813e-05
-1.49813e-05
5.73182e-05
-2.1614e-05
5.80992e-05
-2.46298e-05
5.49109e-05
-2.43165e-05
5.10217e-05
-1.71465e-05
4.68742e-05
-3.36656e-06
4.62082e-05
-3.83472e-06
4.03815e-05
-5.55629e-06
3.73589e-05
-1.13936e-05
4.79982e-05
-1.58511e-05
5.32008e-05
-1.6199e-05
5.37418e-05
-1.04422e-05
4.86575e-05
-3.61871e-06
4.65893e-05
1.86616e-06
4.82885e-05
3.89534e-06
5.37587e-05
-3.23697e-06
6.90088e-05
-1.7764e-05
8.90356e-05
-3.11998e-05
9.74937e-05
-4.4675e-05
8.76123e-05
-6.0993e-05
6.36946e-05
-5.91749e-05
2.35838e-05
-4.8708e-05
3.41577e-06
-3.5972e-05
-2.73714e-06
-2.13518e-05
6.33814e-06
-6.44095e-06
2.86925e-05
1.18341e-06
4.97096e-05
1.27342e-06
6.58794e-05
-7.60089e-07
6.81762e-05
6.23942e-05
-8.26434e-06
5.53811e-05
-2.12287e-05
7.03346e-05
-2.82879e-05
6.52098e-05
-2.9261e-05
5.59301e-05
-2.77164e-05
4.95155e-05
-2.29417e-05
4.21282e-05
-1.04235e-05
3.37086e-05
-1.31383e-06
3.12836e-05
-4.84268e-06
4.08993e-05
-1.17118e-05
5.48852e-05
-1.65756e-05
5.80852e-05
-1.93213e-05
5.65092e-05
-1.65921e-05
4.59466e-05
-1.17062e-05
4.17135e-05
-1.05224e-05
4.71199e-05
-2.09591e-05
6.42133e-05
-4.10166e-05
8.90887e-05
-5.20728e-05
0.000100118
-5.23626e-05
9.78085e-05
-5.60452e-05
9.13163e-05
-6.02001e-05
6.78678e-05
-5.09421e-05
1.43351e-05
-4.20062e-05
-5.51731e-06
-3.63457e-05
-8.39871e-06
-2.93554e-05
-6.54931e-07
-1.86631e-05
1.79979e-05
-1.11238e-05
4.21689e-05
-6.11508e-06
6.087e-05
-4.88254e-06
6.69428e-05
5.75099e-05
-1.30303e-05
6.84386e-05
-2.33384e-05
8.06819e-05
-3.07963e-05
7.27084e-05
-3.23154e-05
5.74895e-05
-3.13082e-05
4.85438e-05
-2.77682e-05
3.8617e-05
-2.09864e-05
2.6943e-05
-7.19515e-06
1.74994e-05
-2.10053e-06
3.58152e-05
-6.14811e-06
5.8949e-05
-1.10589e-05
6.30133e-05
-1.5605e-05
6.10718e-05
-2.14311e-05
5.17865e-05
-2.81611e-05
4.84537e-05
-4.1542e-05
6.05156e-05
-5.76857e-05
8.03772e-05
-6.05228e-05
9.19506e-05
-5.76009e-05
9.72206e-05
-5.69266e-05
9.71583e-05
-5.79906e-05
9.24049e-05
-4.67383e-05
5.66333e-05
-3.7172e-05
4.77441e-06
-3.40408e-05
-8.64771e-06
-3.37708e-05
-8.66984e-06
-3.22249e-05
-2.20288e-06
-2.71927e-05
1.29639e-05
-2.06695e-05
3.56454e-05
-1.44538e-05
5.46545e-05
-9.25501e-06
6.17441e-05
4.82534e-05
-1.34384e-05
8.18938e-05
-2.42798e-05
9.1544e-05
-3.12684e-05
7.97196e-05
-3.39068e-05
6.01531e-05
-3.32877e-05
4.79515e-05
-3.30974e-05
3.84517e-05
-3.11861e-05
2.50547e-05
-2.45701e-05
1.08949e-05
-1.50246e-05
2.62795e-05
-9.84628e-06
5.37837e-05
-9.44013e-06
6.2621e-05
-1.16873e-05
6.3332e-05
-2.40405e-05
6.41517e-05
-4.05754e-05
6.50013e-05
-5.32452e-05
7.32016e-05
-5.63956e-05
8.35474e-05
-5.60989e-05
9.16751e-05
-5.48844e-05
9.60288e-05
-5.3687e-05
9.59846e-05
-5.1521e-05
9.02642e-05
-3.37194e-05
3.88463e-05
-2.75791e-05
-1.3633e-06
-2.79026e-05
-8.32455e-06
-3.01292e-05
-6.44432e-06
-3.16125e-05
-7.20832e-07
-3.05212e-05
1.18718e-05
-2.58518e-05
3.09766e-05
-1.90757e-05
4.78797e-05
-1.09896e-05
5.3659e-05
3.72627e-05
-1.37063e-05
9.56128e-05
-1.9056e-05
9.69075e-05
-2.64795e-05
8.71575e-05
-3.64354e-05
7.01242e-05
-3.70767e-05
4.86107e-05
-3.50554e-05
3.64513e-05
-3.64343e-05
2.64593e-05
-3.66047e-05
1.10893e-05
-3.13206e-05
2.10102e-05
-1.98949e-05
4.23701e-05
-1.39507e-05
5.66887e-05
-1.2311e-05
6.17041e-05
-1.97844e-05
7.1637e-05
-3.23589e-05
7.75887e-05
-4.1134e-05
8.19917e-05
-4.56737e-05
8.81047e-05
-4.77364e-05
9.37572e-05
-4.9014e-05
9.73281e-05
-4.94694e-05
9.64637e-05
-4.00617e-05
8.08794e-05
-2.31877e-05
2.19817e-05
-2.05188e-05
-4.03167e-06
-2.27785e-05
-6.06591e-06
-2.62262e-05
-2.99776e-06
-2.91505e-05
2.2028e-06
-2.97088e-05
1.24307e-05
-2.61595e-05
2.74292e-05
-1.85695e-05
4.02924e-05
-9.43977e-06
4.45316e-05
2.78223e-05
-1.09441e-05
0.000106569
-1.61911e-05
0.000102167
-1.9437e-05
9.04158e-05
-2.49406e-05
7.56397e-05
-3.40315e-05
5.77144e-05
-3.77756e-05
4.02107e-05
-4.08858e-05
2.95932e-05
-4.61731e-05
1.64078e-05
-4.57499e-05
2.06134e-05
-3.10252e-05
2.76614e-05
-1.90685e-05
4.47439e-05
-1.28983e-05
5.55456e-05
-1.35134e-05
7.22649e-05
-2.25498e-05
8.664e-05
-3.02615e-05
8.97196e-05
-3.58828e-05
9.37438e-05
-3.96467e-05
9.75403e-05
-4.29709e-05
0.000100674
-4.35143e-05
9.7031e-05
-2.64211e-05
6.38051e-05
-1.43161e-05
9.88119e-06
-1.43852e-05
-3.96356e-06
-1.7419e-05
-3.03394e-06
-2.11454e-05
7.27244e-07
-2.46596e-05
5.71659e-06
-2.58933e-05
1.36658e-05
-2.27332e-05
2.42724e-05
-1.5091e-05
3.2654e-05
-6.05417e-06
3.54982e-05
2.1768e-05
-1.11436e-05
0.000117727
-1.49887e-05
0.000106025
-1.45785e-05
9.00181e-05
-1.4084e-05
7.51568e-05
-1.81959e-05
6.18374e-05
-2.62799e-05
4.83062e-05
-3.67568e-05
4.00851e-05
-4.75499e-05
2.72314e-05
-4.66039e-05
1.97054e-05
-3.78086e-05
1.88887e-05
-2.44804e-05
3.14292e-05
-1.55806e-05
4.66572e-05
-9.52743e-06
6.62248e-05
-1.41351e-05
9.12637e-05
-2.11719e-05
9.6774e-05
-2.72601e-05
9.98508e-05
-3.22577e-05
0.000102558
-3.54756e-05
0.000103914
-3.45925e-05
9.61716e-05
-1.34887e-05
4.27148e-05
-7.2608e-06
3.65433e-06
-9.25951e-06
-1.9669e-06
-1.26595e-05
3.6372e-07
-1.61129e-05
4.17889e-06
-1.91396e-05
8.74288e-06
-2.00705e-05
1.45983e-05
-1.70147e-05
2.12202e-05
-1.02915e-05
2.59353e-05
-2.24093e-06
2.74516e-05
1.95279e-05
-9.99691e-06
0.000127739
-9.78122e-06
0.000105824
-7.19667e-06
8.74463e-05
-4.25133e-06
7.22231e-05
-3.21944e-06
6.08164e-05
-3.88038e-06
4.89771e-05
-1.32874e-05
4.95028e-05
-3.10823e-05
4.50428e-05
-3.33141e-05
2.19662e-05
-3.46764e-05
2.02798e-05
-2.82993e-05
2.50696e-05
-2.03015e-05
3.86718e-05
-9.65664e-06
5.55925e-05
-6.00215e-06
8.76253e-05
-1.24549e-05
0.000103246
-1.9545e-05
0.000106961
-2.57974e-05
0.000108831
-3.01094e-05
0.000108249
-2.20405e-05
8.81246e-05
-4.02211e-06
2.47042e-05
-2.32002e-06
1.95138e-06
-5.13458e-06
8.45046e-07
-8.31522e-06
3.54167e-06
-1.10843e-05
6.94599e-06
-1.30785e-05
1.07363e-05
-1.32327e-05
1.47535e-05
-1.05334e-05
1.85237e-05
-5.71101e-06
2.11168e-05
-2.3317e-07
2.19779e-05
1.92963e-05
-5.06142e-06
0.000132816
-1.94661e-06
0.000102723
1.60864e-06
8.3904e-05
5.3389e-06
6.85047e-05
9.74174e-06
5.64243e-05
1.16022e-05
4.71266e-05
1.11038e-05
5.00112e-05
-1.65887e-06
5.78172e-05
-2.55574e-05
4.58823e-05
-2.72672e-05
2.2016e-05
-2.68531e-05
2.468e-05
-2.10887e-05
3.29235e-05
-1.26974e-05
4.72145e-05
-2.92251e-07
7.52357e-05
-3.54299e-06
0.000106516
-1.1697e-05
0.000115137
-1.99661e-05
0.000117123
-2.47744e-05
0.000113082
-8.14636e-06
7.15151e-05
2.29775e-06
1.42634e-05
1.12005e-06
3.12727e-06
-1.92297e-06
3.88522e-06
-4.72242e-06
6.33828e-06
-6.80853e-06
9.02985e-06
-7.89898e-06
1.18255e-05
-7.59761e-06
1.44522e-05
-5.76598e-06
1.66936e-05
-3.00185e-06
1.83552e-05
-2.19746e-07
1.91987e-05
1.90784e-05
2.42641e-06
0.000130407
6.17261e-06
9.89916e-05
1.02137e-05
7.98761e-05
1.42926e-05
6.44377e-05
2.0076e-05
5.06515e-05
2.3723e-05
4.34896e-05
2.80973e-05
4.56476e-05
2.5519e-05
6.04081e-05
1.95213e-06
6.94634e-05
-2.15753e-05
4.5564e-05
-2.28759e-05
2.60061e-05
-2.08761e-05
3.09449e-05
-1.58168e-05
4.21716e-05
-1.35898e-06
6.07935e-05
5.3055e-06
9.98709e-05
-3.6745e-06
0.000124141
-1.32123e-05
0.000126686
-1.70862e-05
0.000116983
2.48209e-06
5.19608e-05
6.11903e-06
1.06273e-05
3.456e-06
5.78809e-06
3.8187e-07
6.95645e-06
-2.083e-06
8.80024e-06
-3.73236e-06
1.06768e-05
-4.43054e-06
1.2522e-05
-4.18626e-06
1.42072e-05
-3.18411e-06
1.56917e-05
-1.76605e-06
1.69382e-05
-4.34998e-07
1.78692e-05
1.86447e-05
9.08688e-06
0.000121338
1.3051e-05
9.50425e-05
1.6437e-05
7.65035e-05
2.2402e-05
5.84844e-05
2.92504e-05
4.38136e-05
3.4507e-05
3.82432e-05
3.78635e-05
4.23025e-05
4.06087e-05
5.76776e-05
2.98086e-05
8.02815e-05
-3.60031e-06
7.89922e-05
-1.55993e-05
3.80276e-05
-1.8084e-05
3.34545e-05
-1.51805e-05
3.92886e-05
-5.60513e-06
5.1235e-05
1.118e-05
8.31046e-05
5.66858e-06
0.000129679
-7.51938e-06
0.000139904
-5.68731e-06
0.000115178
8.77598e-06
3.75067e-05
8.17146e-06
1.12314e-05
4.92856e-06
9.02869e-06
1.97398e-06
9.90815e-06
-2.48312e-07
1.10196e-05
-1.68378e-06
1.21096e-05
-2.32079e-06
1.31569e-05
-2.2929e-06
1.41779e-05
-1.80226e-06
1.52003e-05
-1.07181e-06
1.62076e-05
-3.76021e-07
1.71736e-05
1.8269e-05
1.34586e-05
0.000107897
1.74375e-05
9.10791e-05
2.18203e-05
7.21341e-05
2.92732e-05
5.10431e-05
3.66002e-05
3.64969e-05
4.14519e-05
3.34021e-05
4.43442e-05
3.94225e-05
4.82763e-05
5.37614e-05
4.63222e-05
8.22577e-05
2.81026e-05
9.72358e-05
-6.66273e-06
7.28156e-05
-1.13174e-05
3.81337e-05
-1.13922e-05
3.9388e-05
-7.87847e-06
4.77414e-05
8.45426e-06
6.67904e-05
1.45825e-05
0.000123578
-8.80093e-07
0.000155401
5.73888e-06
0.000108586
1.1809e-05
3.14425e-05
9.26558e-06
1.3774e-05
5.87934e-06
1.24126e-05
3.07917e-06
1.27055e-05
1.01646e-06
1.30793e-05
-3.02346e-07
1.34255e-05
-9.58948e-07
1.3811e-05
-1.10778e-06
1.43246e-05
-9.21673e-07
1.50126e-05
-5.65742e-07
1.58505e-05
-2.04529e-07
1.68115e-05
1.80638e-05
1.46837e-05
9.32303e-05
2.11558e-05
8.46225e-05
2.74478e-05
6.58557e-05
3.42362e-05
4.42659e-05
4.0468e-05
3.02752e-05
4.46267e-05
2.9254e-05
4.76892e-05
3.63728e-05
5.08372e-05
5.06302e-05
5.45363e-05
7.85825e-05
4.71779e-05
0.000104624
1.6661e-05
0.000103359
-4.04566e-06
5.8864e-05
-6.00852e-06
4.13758e-05
-5.02098e-06
4.67771e-05
3.76647e-06
5.80223e-05
2.06317e-05
0.00010674
8.87901e-06
0.000167197
1.35499e-05
0.000103944
1.32665e-05
3.17306e-05
9.85951e-06
1.71799e-05
6.5272e-06
1.57427e-05
3.8558e-06
1.5374e-05
1.93125e-06
1.50008e-05
7.02067e-07
1.46517e-05
2.16748e-08
1.44885e-05
-2.60916e-07
1.46045e-05
-2.8057e-07
1.50298e-05
-1.5985e-07
1.57276e-05
-7.21585e-09
1.66569e-05
1.80551e-05
1.43467e-05
7.88995e-05
2.42272e-05
7.4757e-05
3.1184e-05
5.89118e-05
3.74437e-05
3.80167e-05
4.22619e-05
2.54664e-05
4.54766e-05
2.60501e-05
4.82065e-05
3.36561e-05
5.07288e-05
4.8125e-05
5.61356e-05
7.32e-05
5.42807e-05
0.000106511
3.94542e-05
0.000118218
8.93442e-06
8.94103e-05
1.58883e-06
4.8745e-05
1.05634e-06
4.73333e-05
3.93081e-06
5.5168e-05
2.0938e-05
8.976e-05
2.07308e-05
0.000167455
1.85257e-05
0.000106181
1.42568e-05
3.60044e-05
1.03647e-05
2.10707e-05
7.07254e-06
1.90326e-05
4.5138e-06
1.79299e-05
2.71321e-06
1.67983e-05
1.5356e-06
1.58261e-05
7.8875e-07
1.5232e-05
3.65029e-07
1.50249e-05
1.86195e-07
1.52054e-05
1.5772e-07
1.5753e-05
1.71937e-07
1.664e-05
1.82248e-05
1.32965e-05
6.56172e-05
2.45073e-05
6.35599e-05
3.30859e-05
5.0345e-05
3.9321e-05
3.17912e-05
4.25921e-05
2.22046e-05
4.4527e-05
2.41261e-05
4.62807e-05
3.19157e-05
4.81643e-05
4.62586e-05
5.30573e-05
6.83305e-05
5.70462e-05
0.000102555
5.11134e-05
0.000124189
2.89385e-05
0.000111617
1.15471e-05
6.61594e-05
9.024e-06
4.98781e-05
9.28338e-06
5.49281e-05
1.8549e-05
8.05197e-05
2.6812e-05
0.000159251
2.14697e-05
0.000111561
1.5337e-05
4.21433e-05
1.10864e-05
2.53203e-05
7.83703e-06
2.22798e-05
5.40837e-06
2.0356e-05
3.65602e-06
1.85478e-05
2.34731e-06
1.71317e-05
1.37618e-06
1.61997e-05
7.46757e-07
1.56505e-05
4.42105e-07
1.5506e-05
3.66816e-07
1.58244e-05
3.43872e-07
1.66593e-05
1.85658e-05
9.63328e-06
5.59971e-05
2.17088e-05
5.14968e-05
3.23634e-05
3.97011e-05
3.85841e-05
2.55803e-05
4.03054e-05
2.04934e-05
4.11302e-05
2.33126e-05
4.17933e-05
3.12661e-05
4.36373e-05
4.44313e-05
4.8463e-05
6.35271e-05
5.65559e-05
9.44934e-05
5.725e-05
0.000123534
4.64253e-05
0.000122478
2.57177e-05
8.68922e-05
1.83209e-05
5.72935e-05
1.59729e-05
5.7293e-05
1.72878e-05
7.92285e-05
2.55422e-05
0.000151061
2.16696e-05
0.000115476
1.62399e-05
4.75809e-05
1.22798e-05
2.928e-05
9.32478e-06
2.52334e-05
7.00191e-06
2.26772e-05
5.04942e-06
2.04985e-05
3.19513e-06
1.89836e-05
1.69377e-06
1.76974e-05
7.48172e-07
1.65915e-05
3.6321e-07
1.5886e-05
3.69306e-07
1.58134e-05
4.8671e-07
1.65374e-05
1.90489e-05
6.78872e-06
4.92229e-05
1.78645e-05
4.04339e-05
2.81785e-05
2.93987e-05
3.33721e-05
2.0398e-05
3.46327e-05
1.9244e-05
3.49445e-05
2.30125e-05
3.54292e-05
3.07944e-05
3.77547e-05
4.21215e-05
4.30976e-05
5.82046e-05
5.31473e-05
8.44731e-05
5.96758e-05
0.000117045
5.71714e-05
0.000125023
4.08488e-05
0.000103245
2.78976e-05
7.02634e-05
2.28689e-05
6.23366e-05
1.98792e-05
8.22401e-05
2.04899e-05
0.000150517
2.00781e-05
0.000115933
1.74208e-05
5.02472e-05
1.45608e-05
3.21406e-05
1.21198e-05
2.76744e-05
9.73215e-06
2.5065e-05
7.06884e-06
2.31618e-05
3.90376e-06
2.21486e-05
1.44457e-06
2.01536e-05
1.15269e-07
1.79157e-05
-2.32949e-07
1.62283e-05
6.00852e-08
1.55142e-05
5.56125e-07
1.60356e-05
1.96009e-05
5.7395e-06
4.3503e-05
1.31212e-05
3.30685e-05
2.11304e-05
2.1403e-05
2.5069e-05
1.64717e-05
2.68872e-05
1.74374e-05
2.80808e-05
2.18301e-05
2.94186e-05
2.94689e-05
3.18356e-05
3.97191e-05
3.67694e-05
5.32893e-05
4.61054e-05
7.51635e-05
5.70315e-05
0.000106157
6.09054e-05
0.000121192
5.18534e-05
0.000112333
3.65199e-05
8.56198e-05
2.7703e-05
7.1169e-05
2.25918e-05
8.73719e-05
1.41494e-05
0.00015903
1.90143e-05
0.00011111
1.99902e-05
4.92806e-05
1.86053e-05
3.35283e-05
1.65937e-05
2.96889e-05
1.3964e-05
2.76978e-05
1.02699e-05
2.68601e-05
3.7433e-06
2.86809e-05
-1.87359e-07
2.4082e-05
-1.7381e-06
1.94603e-05
-1.68332e-06
1.6166e-05
-7.91593e-07
1.46148e-05
3.57871e-07
1.48789e-05
1.99538e-05
6.11868e-06
3.74078e-05
9.84448e-06
2.93618e-05
1.49873e-05
1.62725e-05
1.80609e-05
1.34092e-05
2.12477e-05
1.42606e-05
2.41581e-05
1.89297e-05
2.6102e-05
2.75367e-05
2.72047e-05
3.8631e-05
2.91028e-05
5.14093e-05
3.49697e-05
6.93211e-05
4.76968e-05
9.34643e-05
5.73334e-05
0.000111597
5.57903e-05
0.000113918
4.27289e-05
9.87113e-05
3.14941e-05
8.24232e-05
2.39654e-05
9.49228e-05
7.99249e-06
0.00017508
2.01636e-05
9.89771e-05
2.43823e-05
4.5072e-05
2.42978e-05
3.36191e-05
2.27929e-05
3.12011e-05
2.04941e-05
3.00057e-05
1.70181e-05
3.0346e-05
9.29181e-07
4.47799e-05
-5.02168e-06
3.00271e-05
-5.52479e-06
1.99558e-05
-4.31709e-06
1.49496e-05
-2.43927e-06
1.2728e-05
-4.74432e-07
1.29056e-05
1.9474e-05
5.6552e-06
3.1775e-05
5.11549e-06
2.99207e-05
8.70565e-06
1.26931e-05
1.39789e-05
8.14484e-06
1.91641e-05
9.08312e-06
2.21681e-05
1.59346e-05
2.29807e-05
2.67364e-05
2.19507e-05
3.96776e-05
2.00978e-05
5.32829e-05
2.14397e-05
6.8005e-05
3.16636e-05
8.32727e-05
4.52453e-05
9.80545e-05
5.07882e-05
0.000108418
4.47733e-05
0.000104763
3.3519e-05
9.3704e-05
1.95388e-05
0.00010893
4.22755e-06
0.000190479
2.37231e-05
7.95141e-05
2.96333e-05
3.91733e-05
3.07777e-05
3.24856e-05
3.06388e-05
3.13542e-05
3.01647e-05
3.04985e-05
2.58518e-05
3.46761e-05
-1.16866e-06
7.18198e-05
-1.26313e-05
4.14952e-05
-1.12715e-05
1.85909e-05
-7.99846e-06
1.16682e-05
-4.78013e-06
9.50027e-06
-1.94232e-06
1.00586e-05
1.75253e-05
5.98107e-06
2.5813e-05
-1.62727e-06
3.75546e-05
4.61804e-06
6.45825e-06
1.21234e-05
6.45881e-07
1.65742e-05
4.63838e-06
1.79595e-05
1.45581e-05
1.69874e-05
2.77226e-05
1.36036e-05
4.30826e-05
9.77121e-06
5.71416e-05
8.68166e-06
6.91243e-05
1.47161e-05
7.727e-05
2.7283e-05
8.55222e-05
3.87749e-05
9.69658e-05
4.17737e-05
0.000101805
3.31524e-05
0.000102359
7.45711e-06
0.000134666
7.90801e-06
0.000190117
2.80452e-05
5.94023e-05
3.40161e-05
3.32153e-05
3.63493e-05
3.01676e-05
3.77299e-05
2.99968e-05
3.76098e-05
3.06382e-05
1.69057e-05
5.53952e-05
-5.43734e-06
9.41857e-05
-2.36465e-05
5.97202e-05
-1.64865e-05
1.14329e-05
-1.12477e-05
6.42304e-06
-6.91591e-06
5.16029e-06
-3.49256e-06
6.62704e-06
1.40264e-05
9.03881e-07
2.49241e-05
-6.04116e-06
4.45348e-05
3.62151e-06
-3.19623e-06
9.95727e-06
-5.6863e-06
1.32136e-05
1.38708e-06
1.429e-05
1.34917e-05
1.15465e-05
3.0485e-05
2.57034e-06
5.20877e-05
-1.60681e-06
6.13519e-05
-1.72337e-06
6.9274e-05
2.31703e-06
7.32621e-05
1.05858e-05
7.72841e-05
2.3542e-05
8.40433e-05
3.31822e-05
9.22025e-05
2.39939e-05
0.000111589
-5.6845e-06
0.000164405
1.51759e-05
0.000169331
3.09896e-05
4.3607e-05
3.67458e-05
2.74735e-05
3.90113e-05
2.79248e-05
3.80415e-05
3.09885e-05
1.91456e-05
4.9547e-05
-9.59652e-06
8.4153e-05
-9.31832e-06
9.39292e-05
-2.43346e-05
7.47527e-05
-2.20062e-05
9.10659e-06
-1.32432e-05
-2.34201e-06
-8.03526e-06
-5.29246e-08
-4.56579e-06
3.15231e-06
9.45605e-06
-5.19046e-06
3.01349e-05
-4.16825e-06
4.35506e-05
2.93953e-06
-1.02992e-05
7.94081e-06
-1.0686e-05
1.20062e-05
-2.67446e-06
1.47628e-05
1.0746e-05
6.65557e-06
3.86119e-05
-1.06572e-05
6.94382e-05
-1.4279e-05
6.50103e-05
-9.94854e-06
6.49776e-05
-5.33133e-06
6.8676e-05
3.56388e-07
7.16249e-05
9.30975e-06
7.51177e-05
1.94982e-05
8.2047e-05
5.33699e-06
0.000125802
-1.65555e-05
0.000186381
2.00969e-05
0.000132739
2.89416e-05
3.47806e-05
3.62592e-05
2.01741e-05
3.56828e-05
2.85233e-05
1.40607e-05
5.26249e-05
-1.69147e-05
8.05362e-05
-2.32146e-05
9.04714e-05
-1.65726e-05
8.73059e-05
-1.66259e-05
7.48206e-05
-2.00476e-05
1.25301e-05
-1.26183e-05
-9.77176e-06
-7.925e-06
-4.74816e-06
-4.58981e-06
-1.84319e-07
4.86433e-06
-7.79197e-07
3.09389e-05
7.93604e-07
4.20126e-05
2.22804e-06
-1.17298e-05
7.61851e-06
-1.60766e-05
1.48023e-05
-9.85617e-06
1.60301e-05
9.52491e-06
7.0678e-06
4.75944e-05
-1.21175e-05
8.8662e-05
-2.11877e-05
7.41123e-05
-1.57204e-05
5.95407e-05
-1.04716e-05
6.34546e-05
-4.73228e-06
6.59121e-05
1.24651e-06
6.91646e-05
5.32677e-06
7.79981e-05
-1.46029e-05
0.000145805
-2.32441e-05
0.00019513
1.75175e-05
9.20311e-05
2.62804e-05
2.60357e-05
3.07659e-05
1.57042e-05
8.85298e-06
5.04526e-05
-2.12859e-05
8.27784e-05
-3.07091e-05
8.99778e-05
-2.79594e-05
8.77402e-05
-2.1457e-05
8.082e-05
-1.41046e-05
6.74808e-05
-1.44702e-05
1.2897e-05
-9.56087e-06
-1.46798e-05
-6.40912e-06
-7.89827e-06
-5.16987e-06
-1.42133e-06
-3.0468e-07
4.62006e-06
2.63411e-05
5.80224e-06
4.08606e-05
2.02511e-06
-7.94735e-06
7.83903e-06
-2.1892e-05
1.69209e-05
-1.89407e-05
2.16946e-05
4.7555e-06
1.09195e-05
5.83864e-05
7.66971e-06
9.19385e-05
-6.27758e-06
8.80834e-05
-1.42352e-05
6.75197e-05
-1.06422e-05
5.98826e-05
-5.8566e-06
6.11472e-05
-2.91284e-06
6.62442e-05
-1.02644e-05
8.53815e-05
-2.99268e-05
0.000165554
-1.97356e-05
0.00018505
1.13962e-05
6.09356e-05
2.39203e-05
1.35201e-05
1.36243e-05
2.60108e-05
-2.13769e-05
8.54717e-05
-3.27514e-05
9.41726e-05
-3.50102e-05
9.22565e-05
-3.21129e-05
8.48612e-05
-2.57495e-05
7.4472e-05
-1.12803e-05
5.30222e-05
-5.57676e-06
7.19411e-06
-3.04275e-06
-1.72191e-05
-3.32865e-06
-7.61127e-06
-4.00121e-06
-7.4571e-07
-4.30351e-06
3.90933e-06
2.245e-05
1.13283e-05
3.34653e-05
4.11937e-06
-7.31075e-07
5.65534e-06
-2.34307e-05
1.37574e-05
-2.70462e-05
1.59655e-05
2.55128e-06
1.72325e-05
5.71332e-05
2.75484e-05
8.16425e-05
2.68189e-05
8.88353e-05
1.00656e-05
8.42923e-05
-4.61719e-07
7.04276e-05
-5.12377e-06
6.58272e-05
-1.24366e-05
7.35794e-05
-3.04446e-05
0.000103428
-3.1368e-05
0.000166551
-8.43373e-06
0.000162197
2.55614e-06
4.99672e-05
4.48335e-06
1.15931e-05
-1.54098e-05
4.59149e-05
-3.32643e-05
0.000103349
-3.88937e-05
9.9825e-05
-3.91841e-05
9.25684e-05
-3.59796e-05
8.16755e-05
-2.51061e-05
6.36132e-05
-4.17428e-07
2.83418e-05
1.23838e-05
-5.60578e-06
9.82992e-06
-1.46681e-05
9.23518e-06
-7.01653e-06
6.76729e-06
1.72565e-06
2.46697e-06
1.41301e-06
2.10508e-05
1.22599e-05
2.2634e-05
6.92343e-06
4.61242e-06
2.05806e-07
-1.67142e-05
-3.86556e-07
-2.64567e-05
9.53863e-06
-7.37155e-06
2.55519e-05
4.11311e-05
3.23388e-05
7.48738e-05
3.3264e-05
8.79306e-05
2.84259e-05
8.91512e-05
1.22109e-05
8.66627e-05
-8.35687e-06
8.64147e-05
-2.72654e-05
9.25117e-05
-3.72935e-05
0.00011349
-1.89278e-05
0.000148236
6.43703e-07
0.000142675
-1.1348e-05
6.19792e-05
-2.35709e-05
2.38223e-05
-3.28851e-05
5.5246e-05
-4.04291e-05
0.000110922
-4.49897e-05
0.000104412
-4.38669e-05
9.14691e-05
-3.59309e-05
7.37588e-05
-1.37618e-05
4.14567e-05
1.06549e-05
3.93029e-06
1.82102e-05
-1.31597e-05
1.57742e-05
-1.22303e-05
8.84139e-06
-8.10497e-08
5.25873e-06
5.31143e-06
7.72964e-06
9.13754e-07
2.01473e-05
7.77709e-06
1.57799e-05
5.35251e-06
7.04256e-06
-5.11431e-06
-6.2468e-06
-8.82959e-06
-2.27431e-05
2.57508e-06
-1.87759e-05
2.74219e-05
1.62927e-05
3.39431e-05
6.83704e-05
3.21046e-05
8.97904e-05
2.54834e-05
9.57937e-05
1.35066e-05
9.86603e-05
-1.7945e-06
0.000101737
-1.66018e-05
0.000107343
-2.14031e-05
0.00011832
-6.76928e-06
0.000133638
2.33873e-06
0.000133603
-2.3185e-05
8.75266e-05
-3.58201e-05
3.64724e-05
-4.04058e-05
5.98528e-05
-4.53866e-05
0.000115935
-5.01664e-05
0.000109221
-4.67431e-05
8.80713e-05
-2.61151e-05
5.31487e-05
6.9855e-07
1.46521e-05
1.42286e-05
-9.59691e-06
1.51975e-05
-1.41274e-05
1.01058e-05
-7.13635e-06
4.03555e-06
5.99315e-06
1.36183e-06
7.98837e-06
9.09514e-06
2.43129e-06
1.77236e-05
4.1895e-06
1.40281e-05
2.37542e-06
8.86156e-06
-4.98625e-06
1.11707e-06
-9.85017e-06
-1.78799e-05
-3.90294e-06
-2.47238e-05
1.98933e-05
-7.49871e-06
3.52145e-05
5.30658e-05
3.14143e-05
9.36138e-05
2.41267e-05
0.000103105
1.5403e-05
0.000107408
4.74514e-06
0.00011242
-5.03767e-06
0.000117153
-1.05831e-05
0.000123894
-6.72141e-06
0.000129809
-3.77662e-06
0.000130691
-2.30781e-05
0.000106854
-3.53929e-05
4.88033e-05
-4.38044e-05
6.82865e-05
-4.8179e-05
0.000120344
-5.19411e-05
0.000113016
-3.91678e-05
7.53242e-05
-1.03067e-05
2.43016e-05
8.496e-06
-4.14534e-06
1.25825e-05
-1.36817e-05
1.02455e-05
-1.1789e-05
3.23523e-06
-1.23511e-07
6.17442e-07
8.61466e-06
-2.3126e-06
1.09217e-05
6.78547e-06
5.05974e-06
1.26695e-05
3.94869e-06
1.51446e-05
1.95705e-06
1.0858e-05
-2.66628e-06
5.74401e-06
-8.06084e-06
-1.24848e-05
-7.02179e-06
-2.57638e-05
7.45928e-06
-2.19782e-05
3.14215e-05
2.91172e-05
3.11178e-05
9.39427e-05
2.50954e-05
0.000109155
1.79627e-05
0.000114569
9.95588e-06
0.000120456
2.41012e-06
0.000124729
-3.55512e-06
0.000129891
-6.16514e-06
0.000132451
-7.53075e-06
0.000132089
-2.06825e-05
0.000120035
-3.79408e-05
6.60799e-05