/*--------------------------------*- C++ -*----------------------------------*\
| =========                 |                                                 |
| \\      /  F ield         | OpenFOAM: The Open Source CFD Toolbox           |
|  \\    /   O peration     | Version:  2.3.0                                 |
|   \\  /    A nd           | Web:      www.OpenFOAM.org                      |
|    \\/     M anipulation  |                                                 |
\*---------------------------------------------------------------------------*/
FoamFile
{
    version     2.0;
    format      ascii;
    class       volScalarField;
    location    "0.75";
    object      pMean;
}
// * * * * * * * * * * * * * * * * * * * * * * * * * * * * * * * * * * * * * //

dimensions      [1 -1 -2 0 0 0 0];

internalField   nonuniform List<scalar> 
6000
(
106473
106472
106470
106469
106469
106469
106468
106467
106467
106467
106468
106468
106469
106470
106472
106472
106471
106469
106468
106466
106466
106466
106467
106468
106468
106467
106467
106468
106469
106469
106404
106403
106401
106400
106400
106400
106399
106398
106398
106399
106400
106401
106401
106402
106402
106401
106400
106399
106399
106398
106397
106397
106398
106398
106398
106398
106398
106399
106400
106400
106352
106351
106351
106351
106352
106352
106351
106351
106351
106352
106354
106354
106354
106353
106353
106352
106352
106352
106352
106351
106350
106350
106350
106350
106350
106350
106349
106349
106348
106348
106297
106296
106297
106297
106298
106298
106298
106299
106300
106301
106302
106303
106301
106300
106300
106301
106301
106301
106301
106299
106298
106298
106297
106296
106296
106295
106294
106292
106291
106292
106242
106242
106242
106242
106243
106244
106245
106246
106247
106248
106249
106249
106247
106248
106250
106251
106251
106250
106249
106247
106246
106245
106243
106242
106240
106238
106237
106235
106235
106236
106187
106187
106187
106186
106187
106189
106191
106192
106193
106194
106194
106194
106196
106199
106202
106202
106201
106199
106197
106194
106193
106191
106189
106186
106183
106180
106179
106179
106180
106182
106133
106133
106132
106131
106132
106134
106137
106138
106138
106139
106139
106142
106147
106151
106153
106153
106150
106148
106144
106142
106139
106137
106134
106131
106127
106125
106124
106126
106129
106131
106080
106079
106077
106077
106079
106082
106085
106085
106083
106083
106086
106091
106096
106100
106101
106101
106098
106095
106091
106087
106085
106083
106082
106080
106077
106076
106076
106079
106083
106085
106027
106025
106023
106023
106027
106031
106034
106033
106031
106031
106035
106040
106045
106048
106049
106048
106045
106042
106038
106034
106033
106034
106034
106033
106032
106031
106032
106035
106039
106041
105975
105973
105970
105971
105974
105980
105984
105984
105982
105982
105985
105990
105994
105996
105996
105996
105994
105992
105989
105986
105986
105987
105989
105989
105989
105989
105990
105993
105996
105999
105925
105923
105920
105920
105923
105929
105934
105936
105935
105934
105936
105941
105943
105945
105946
105947
105946
105945
105943
105941
105941
105942
105943
105945
105947
105947
105949
105952
105955
105958
105877
105875
105873
105872
105873
105878
105884
105889
105888
105887
105888
105891
105894
105896
105898
105899
105900
105899
105898
105897
105897
105896
105897
105900
105903
105905
105908
105911
105915
105917
105832
105831
105828
105826
105826
105829
105834
105841
105842
105841
105840
105841
105845
105848
105850
105852
105854
105854
105853
105852
105851
105849
105849
105852
105857
105861
105866
105870
105874
105876
105790
105788
105786
105783
105781
105781
105785
105792
105796
105795
105793
105792
105796
105800
105804
105806
105808
105808
105807
105805
105802
105800
105800
105803
105809
105815
105822
105828
105832
105833
105747
105746
105744
105740
105737
105735
105737
105743
105749
105749
105747
105745
105748
105753
105757
105760
105761
105761
105759
105756
105753
105750
105750
105753
105759
105767
105776
105783
105786
105787
105704
105704
105702
105698
105694
105692
105691
105695
105700
105703
105701
105699
105701
105707
105710
105713
105714
105713
105711
105707
105703
105700
105699
105702
105707
105716
105726
105732
105736
105736
105661
105660
105659
105656
105652
105649
105647
105648
105652
105655
105655
105654
105655
105660
105663
105666
105667
105665
105662
105658
105653
105650
105649
105651
105656
105663
105672
105678
105682
105682
105617
105617
105616
105614
105609
105605
105603
105603
105605
105608
105609
105610
105610
105613
105616
105619
105619
105617
105613
105608
105603
105599
105598
105599
105603
105609
105616
105621
105624
105625
105572
105572
105572
105570
105566
105562
105560
105558
105559
105561
105564
105565
105565
105567
105569
105570
105571
105569
105565
105559
105554
105549
105547
105547
105550
105554
105559
105563
105565
105566
105528
105528
105528
105526
105522
105518
105516
105515
105514
105515
105518
105519
105519
105520
105521
105522
105522
105521
105517
105511
105505
105500
105497
105495
105497
105500
105503
105506
105508
105509
105482
105482
105483
105482
105478
105474
105473
105471
105470
105470
105471
105472
105473
105472
105472
105473
105473
105473
105468
105463
105457
105452
105448
105445
105445
105447
105450
105453
105455
105456
105436
105436
105437
105436
105433
105430
105428
105427
105426
105425
105425
105426
105426
105425
105424
105424
105424
105424
105421
105415
105409
105404
105400
105397
105396
105397
105400
105403
105405
105406
105389
105389
105390
105390
105388
105385
105384
105383
105382
105380
105379
105379
105379
105378
105376
105376
105376
105376
105373
105368
105362
105357
105353
105350
105349
105349
105352
105355
105357
105357
105342
105342
105342
105343
105343
105340
105339
105338
105337
105335
105334
105333
105332
105331
105330
105328
105328
105328
105326
105321
105316
105311
105307
105305
105303
105303
105305
105308
105309
105309
105294
105294
105294
105296
105297
105295
105293
105292
105291
105290
105289
105287
105286
105285
105284
105282
105281
105281
105279
105275
105270
105266
105262
105260
105258
105258
105259
105261
105261
105261
105246
105245
105246
105248
105250
105249
105247
105246
105245
105244
105243
105242
105241
105239
105238
105237
105236
105236
105233
105229
105224
105221
105218
105216
105214
105213
105213
105214
105214
105214
105198
105197
105198
105200
105203
105203
105201
105199
105198
105198
105197
105196
105195
105194
105193
105192
105191
105191
105188
105183
105179
105176
105174
105172
105170
105168
105168
105167
105167
105167
105149
105148
105149
105152
105154
105156
105154
105152
105151
105151
105151
105150
105150
105149
105148
105147
105146
105146
105143
105138
105134
105132
105130
105128
105126
105124
105123
105122
105121
105121
105099
105099
105101
105103
105106
105107
105106
105104
105103
105103
105104
105104
105104
105103
105102
105102
105101
105102
105099
105094
105089
105088
105087
105084
105082
105081
105079
105077
105076
105076
105050
105049
105052
105055
105058
105059
105058
105056
105055
105055
105056
105057
105057
105057
105056
105056
105056
105056
105054
105048
105045
105044
105043
105040
105039
105038
105035
105033
105032
105031
105002
105001
105004
105007
105011
105012
105010
105008
105007
105007
105008
105010
105010
105010
105010
105010
105011
105011
105008
105003
105001
105000
104999
104997
104996
104995
104992
104990
104987
104987
104955
104954
104957
104960
104963
104965
104962
104960
104959
104960
104961
104963
104964
104964
104964
104965
104965
104966
104963
104959
104957
104957
104956
104955
104955
104953
104949
104946
104943
104942
104909
104909
104911
104914
104916
104917
104915
104913
104913
104914
104915
104916
104917
104918
104918
104919
104920
104921
104918
104915
104915
104915
104914
104913
104913
104910
104905
104901
104898
104898
104863
104863
104866
104868
104870
104871
104870
104869
104868
104868
104869
104870
104871
104872
104873
104874
104875
104876
104873
104872
104873
104874
104873
104871
104870
104867
104861
104856
104852
104852
104816
104817
104820
104822
104823
104825
104825
104824
104824
104823
104824
104825
104826
104827
104828
104829
104830
104831
104830
104830
104831
104832
104830
104829
104827
104822
104815
104810
104806
104806
104769
104770
104773
104775
104777
104780
104781
104780
104779
104778
104779
104779
104780
104782
104783
104784
104785
104786
104786
104787
104788
104787
104786
104785
104782
104776
104769
104764
104760
104759
104721
104722
104725
104728
104731
104734
104735
104735
104734
104733
104734
104734
104735
104737
104738
104739
104739
104740
104742
104742
104743
104742
104741
104740
104736
104729
104722
104717
104713
104713
104673
104675
104678
104681
104684
104687
104689
104689
104688
104687
104688
104689
104690
104691
104693
104694
104694
104695
104697
104697
104696
104696
104696
104694
104689
104681
104675
104670
104667
104666
104628
104629
104631
104633
104636
104639
104642
104642
104641
104641
104642
104644
104645
104646
104647
104648
104649
104649
104652
104652
104650
104650
104650
104647
104641
104633
104627
104623
104621
104620
104583
104584
104585
104585
104588
104592
104595
104595
104595
104596
104597
104598
104600
104601
104602
104602
104603
104603
104605
104606
104604
104604
104603
104599
104592
104585
104580
104577
104575
104575
104538
104537
104538
104538
104541
104545
104548
104549
104550
104550
104551
104553
104554
104555
104556
104556
104557
104557
104559
104559
104558
104557
104555
104551
104545
104538
104534
104531
104530
104531
104491
104490
104490
104492
104494
104499
104502
104504
104504
104505
104506
104507
104508
104509
104510
104510
104511
104511
104512
104513
104511
104510
104507
104503
104498
104492
104489
104487
104486
104486
104443
104442
104443
104445
104448
104452
104456
104458
104459
104460
104461
104462
104463
104463
104464
104464
104465
104465
104465
104466
104465
104463
104460
104456
104452
104447
104444
104442
104442
104442
104395
104394
104396
104398
104402
104406
104410
104412
104413
104414
104415
104416
104417
104417
104417
104418
104418
104418
104419
104419
104418
104416
104413
104410
104406
104403
104400
104398
104398
104398
104347
104347
104349
104352
104355
104359
104363
104365
104367
104368
104369
104370
104371
104371
104371
104371
104371
104371
104371
104372
104371
104369
104366
104364
104362
104359
104356
104355
104354
104355
104301
104301
104303
104306
104309
104312
104316
104318
104319
104321
104322
104323
104323
104324
104324
104324
104324
104324
104324
104324
104324
104322
104320
104319
104317
104314
104313
104312
104311
104311
104255
104256
104257
104260
104263
104266
104269
104270
104271
104273
104274
104275
104275
104275
104276
104276
104277
104277
104277
104277
104277
104274
104273
104272
104271
104270
104268
104268
104267
104268
104211
104210
104212
104214
104217
104219
104222
104223
104223
104223
104224
104225
104226
104226
104227
104228
104229
104230
104230
104229
104228
104226
104225
104225
104225
104224
104223
104223
104223
104223
104166
104166
104167
104168
104171
104173
104175
104175
104174
104173
104174
104175
104176
104177
104179
104181
104182
104183
104183
104182
104180
104178
104177
104177
104177
104177
104177
104178
104178
104178
104121
104121
104122
104123
104124
104126
104127
104125
104123
104122
104124
104125
104126
104128
104131
104133
104134
104135
104136
104135
104132
104129
104128
104129
104129
104129
104130
104132
104132
104131
104075
104076
104076
104077
104077
104078
104078
104075
104072
104072
104074
104075
104077
104080
104083
104085
104087
104088
104088
104087
104083
104080
104078
104079
104080
104081
104083
104085
104085
104084
104027
104028
104028
104028
104028
104028
104027
104024
104022
104023
104025
104027
104030
104033
104035
104038
104039
104041
104041
104039
104034
104030
104027
104028
104030
104032
104034
104036
104036
104034
103975
103975
103975
103975
103976
103977
103976
103973
103973
103975
103978
103980
103983
103985
103988
103990
103991
103993
103993
103990
103984
103980
103977
103978
103980
103982
103984
103985
103985
103984
103921
103920
103920
103921
103924
103926
103925
103924
103926
103928
103930
103933
103935
103938
103940
103941
103943
103944
103943
103939
103934
103930
103928
103928
103930
103931
103933
103934
103933
103932
103866
103865
103867
103869
103872
103875
103876
103876
103878
103881
103883
103885
103888
103890
103892
103893
103894
103893
103891
103888
103883
103880
103878
103878
103879
103881
103882
103882
103882
103881
103814
103814
103816
103819
103822
103825
103827
103829
103831
103833
103835
103838
103840
103842
103843
103844
103844
103842
103840
103837
103833
103831
103829
103828
103829
103830
103831
103831
103830
103830
103764
103765
103767
103770
103773
103777
103780
103781
103783
103785
103788
103791
103793
103794
103795
103796
103794
103792
103790
103787
103783
103781
103780
103779
103779
103780
103780
103780
103780
103780
103718
103718
103720
103722
103725
103730
103733
103735
103736
103738
103741
103743
103745
103747
103747
103747
103746
103744
103741
103738
103735
103733
103732
103731
103731
103730
103730
103729
103730
103731
103672
103672
103673
103675
103679
103683
103687
103688
103689
103691
103694
103696
103698
103699
103699
103699
103698
103697
103694
103691
103688
103685
103684
103684
103683
103682
103681
103679
103680
103681
103627
103626
103627
103629
103632
103637
103641
103642
103644
103645
103647
103649
103650
103651
103652
103652
103651
103649
103647
103645
103641
103639
103637
103636
103635
103634
103631
103629
103630
103631
103582
103581
103582
103583
103585
103590
103594
103596
103598
103600
103601
103602
103603
103604
103604
103604
103604
103602
103601
103598
103595
103592
103590
103590
103589
103586
103583
103580
103580
103581
103536
103535
103536
103536
103539
103543
103547
103550
103552
103554
103555
103556
103556
103557
103557
103557
103556
103555
103553
103551
103547
103545
103544
103543
103542
103539
103535
103533
103532
103532
103488
103489
103489
103490
103492
103496
103500
103503
103506
103507
103508
103509
103509
103510
103510
103509
103508
103507
103505
103502
103500
103498
103497
103497
103496
103493
103489
103488
103486
103485
103440
103441
103441
103442
103445
103448
103453
103456
103459
103460
103461
103461
103462
103462
103462
103461
103460
103458
103457
103454
103453
103451
103451
103451
103450
103448
103444
103443
103441
103440
103392
103392
103393
103395
103397
103401
103405
103408
103410
103412
103413
103413
103414
103414
103413
103412
103411
103410
103408
103407
103406
103405
103405
103405
103404
103402
103399
103398
103395
103394
103343
103344
103345
103347
103350
103354
103358
103360
103362
103363
103364
103365
103365
103365
103364
103363
103362
103361
103360
103360
103359
103359
103359
103359
103359
103356
103354
103352
103349
103349
103296
103295
103297
103299
103303
103307
103311
103312
103313
103314
103316
103316
103316
103316
103316
103315
103314
103314
103314
103313
103313
103313
103313
103313
103312
103309
103307
103304
103302
103302
103248
103248
103249
103252
103255
103260
103263
103265
103266
103266
103267
103268
103268
103268
103268
103268
103268
103268
103267
103267
103267
103267
103266
103266
103265
103262
103259
103257
103255
103255
103200
103200
103202
103204
103208
103212
103216
103217
103218
103219
103220
103220
103221
103221
103221
103221
103221
103221
103221
103220
103220
103220
103220
103219
103218
103215
103212
103209
103208
103207
103152
103152
103154
103156
103160
103164
103168
103170
103171
103172
103172
103173
103173
103174
103174
103174
103174
103174
103174
103174
103173
103173
103172
103172
103170
103167
103165
103162
103160
103159
103104
103105
103106
103108
103112
103116
103120
103122
103123
103124
103125
103125
103126
103126
103127
103127
103127
103127
103126
103126
103126
103126
103125
103125
103123
103120
103118
103115
103113
103112
103055
103056
103058
103060
103063
103067
103071
103074
103075
103076
103077
103078
103078
103078
103079
103079
103079
103079
103079
103079
103079
103078
103078
103078
103076
103074
103071
103068
103066
103066
103006
103007
103008
103010
103014
103018
103022
103025
103027
103028
103029
103030
103030
103030
103031
103031
103031
103031
103031
103031
103031
103031
103031
103030
103029
103027
103024
103021
103019
103019
102955
102957
102958
102960
102964
102968
102973
102977
102979
102980
102981
102982
102982
102983
102983
102983
102983
102983
102983
102983
102983
102983
102983
102983
102981
102979
102976
102974
102971
102971
102904
102906
102908
102910
102914
102918
102923
102928
102931
102932
102933
102934
102935
102935
102936
102936
102936
102936
102936
102936
102936
102935
102935
102934
102933
102930
102928
102925
102923
102923
102854
102855
102857
102860
102864
102869
102874
102879
102882
102884
102885
102886
102887
102887
102888
102888
102888
102888
102888
102888
102888
102887
102887
102885
102883
102881
102878
102875
102874
102873
102803
102805
102807
102810
102814
102819
102824
102829
102833
102835
102837
102838
102839
102839
102840
102840
102840
102840
102840
102840
102839
102839
102838
102836
102833
102830
102828
102825
102824
102822
102752
102755
102757
102760
102763
102769
102774
102780
102784
102787
102788
102789
102790
102791
102791
102792
102792
102792
102792
102791
102791
102790
102788
102786
102783
102780
102777
102774
102773
102771
102703
102704
102707
102709
102713
102718
102725
102730
102735
102738
102739
102741
102741
102742
102742
102743
102743
102743
102743
102742
102742
102741
102739
102736
102733
102729
102726
102723
102721
102719
102653
102654
102656
102659
102663
102668
102674
102681
102685
102688
102690
102691
102692
102693
102693
102693
102694
102694
102693
102693
102693
102691
102689
102686
102682
102678
102674
102671
102669
102667
102602
102603
102605
102608
102613
102618
102624
102631
102635
102638
102640
102642
102642
102643
102644
102644
102644
102644
102644
102643
102643
102641
102639
102636
102631
102627
102622
102618
102616
102615
102551
102551
102554
102558
102562
102567
102574
102580
102585
102588
102590
102592
102592
102593
102594
102594
102594
102594
102594
102593
102593
102591
102589
102585
102581
102576
102570
102566
102562
102561
102500
102500
102503
102507
102512
102517
102523
102530
102535
102538
102540
102541
102542
102543
102543
102543
102544
102544
102543
102543
102542
102540
102538
102534
102529
102524
102519
102514
102510
102509
102448
102449
102452
102457
102461
102467
102473
102479
102484
102487
102489
102490
102491
102492
102492
102493
102493
102493
102493
102492
102491
102489
102487
102483
102478
102472
102467
102462
102457
102456
102396
102398
102402
102406
102411
102416
102422
102428
102432
102436
102437
102439
102440
102441
102441
102442
102442
102442
102441
102441
102439
102437
102435
102431
102425
102420
102415
102410
102405
102403
102345
102347
102351
102355
102359
102365
102371
102376
102381
102384
102386
102387
102388
102389
102390
102390
102390
102390
102389
102389
102387
102385
102383
102379
102373
102368
102363
102357
102353
102350
102293
102296
102299
102303
102308
102313
102319
102325
102329
102332
102334
102335
102336
102337
102338
102338
102338
102338
102337
102336
102335
102333
102330
102326
102320
102315
102309
102303
102299
102297
102240
102242
102246
102250
102256
102261
102267
102273
102277
102279
102281
102283
102284
102285
102285
102285
102285
102285
102284
102283
102281
102280
102277
102273
102267
102261
102254
102249
102245
102242
102185
102188
102191
102196
102203
102209
102215
102221
102225
102227
102229
102231
102231
102232
102232
102232
102232
102232
102231
102230
102228
102226
102223
102219
102213
102206
102199
102193
102188
102186
102129
102132
102136
102142
102149
102156
102163
102168
102172
102174
102176
102178
102178
102179
102179
102179
102179
102178
102177
102176
102174
102172
102169
102164
102158
102151
102143
102136
102131
102129
102073
102075
102080
102087
102095
102102
102109
102115
102119
102122
102123
102124
102125
102125
102125
102125
102125
102124
102123
102122
102120
102118
102114
102109
102103
102094
102086
102079
102074
102072
102017
102019
102024
102030
102039
102048
102055
102061
102065
102068
102070
102070
102070
102071
102071
102071
102071
102070
102069
102067
102066
102063
102059
102053
102046
102037
102028
102021
102017
102015
101961
101963
101967
101974
101983
101993
102000
102006
102011
102014
102015
102015
102016
102016
102016
102016
102016
102015
102014
102013
102011
102008
102003
101997
101989
101980
101971
101965
101960
101958
101905
101907
101911
101918
101927
101937
101945
101951
101956
101959
101960
101960
101960
101961
101961
101961
101960
101960
101959
101957
101955
101951
101946
101940
101931
101923
101915
101909
101904
101903
101850
101852
101856
101862
101870
101880
101889
101895
101900
101903
101904
101905
101905
101905
101905
101905
101904
101904
101903
101901
101899
101895
101889
101883
101875
101866
101858
101852
101848
101847
101795
101797
101800
101806
101814
101824
101832
101838
101843
101847
101848
101849
101849
101849
101849
101848
101848
101847
101846
101845
101842
101838
101832
101825
101818
101810
101802
101796
101793
101791
101740
101742
101746
101751
101759
101768
101776
101782
101787
101790
101792
101792
101792
101792
101792
101791
101791
101791
101789
101787
101784
101780
101774
101768
101761
101753
101745
101740
101737
101735
101686
101687
101691
101697
101704
101712
101719
101725
101730
101733
101735
101736
101736
101735
101735
101734
101734
101733
101732
101729
101726
101722
101716
101710
101704
101696
101688
101683
101680
101678
101631
101633
101636
101642
101650
101657
101663
101669
101674
101677
101679
101679
101679
101679
101678
101677
101676
101675
101674
101672
101668
101664
101658
101653
101647
101639
101631
101625
101622
101621
101579
101581
101584
101590
101597
101604
101610
101616
101620
101623
101625
101626
101626
101625
101624
101623
101621
101620
101619
101617
101613
101609
101604
101598
101592
101585
101576
101570
101567
101566
101531
101533
101536
101542
101550
101556
101562
101568
101572
101575
101577
101577
101577
101576
101575
101573
101571
101570
101569
101566
101563
101558
101553
101548
101541
101534
101525
101519
101517
101516
101485
101487
101490
101496
101503
101510
101516
101521
101525
101528
101530
101531
101530
101529
101528
101526
101523
101521
101520
101518
101514
101510
101505
101499
101492
101484
101476
101471
101469
101469
101440
101442
101445
101451
101458
101464
101471
101476
101480
101483
101485
101485
101485
101484
101482
101480
101477
101474
101473
101471
101467
101462
101457
101451
101443
101435
101427
101424
101423
101423
101395
101397
101400
101406
101413
101419
101425
101431
101435
101438
101440
101440
101440
101439
101437
101434
101431
101428
101426
101423
101420
101415
101409
101402
101394
101386
101381
101379
101378
101377
101351
101353
101356
101361
101368
101374
101381
101387
101391
101394
101396
101396
101395
101394
101392
101390
101386
101383
101380
101377
101372
101367
101361
101354
101346
101339
101335
101334
101333
101332
101306
101308
101312
101317
101323
101329
101336
101342
101347
101350
101352
101352
101351
101350
101348
101345
101342
101338
101335
101331
101326
101320
101314
101306
101299
101293
101290
101289
101288
101287
101262
101264
101268
101272
101278
101284
101291
101298
101303
101306
101308
101308
101308
101306
101304
101301
101298
101294
101290
101285
101280
101274
101266
101259
101253
101248
101246
101244
101243
101242
101218
101220
101224
101228
101234
101240
101246
101253
101259
101262
101264
101265
101264
101262
101260
101257
101253
101250
101245
101240
101234
101227
101220
101213
101207
101204
101201
101200
101197
101196
101175
101176
101180
101184
101189
101195
101202
101209
101214
101218
101220
101221
101220
101218
101216
101213
101209
101205
101200
101194
101188
101181
101174
101167
101162
101159
101156
101155
101152
101151
101132
101133
101136
101139
101145
101151
101157
101164
101170
101174
101176
101176
101176
101174
101171
101168
101164
101160
101155
101149
101142
101135
101128
101122
101117
101114
101111
101109
101107
101106
101090
101090
101092
101095
101100
101106
101112
101119
101125
101129
101131
101131
101131
101129
101127
101124
101120
101115
101109
101103
101096
101089
101082
101076
101072
101068
101065
101063
101061
101061
101048
101048
101049
101051
101055
101061
101067
101074
101079
101083
101085
101086
101086
101084
101082
101079
101074
101069
101064
101057
101050
101043
101037
101031
101026
101022
101019
101017
101015
101015
101006
101006
101006
101008
101011
101016
101022
101028
101034
101038
101040
101041
101040
101039
101037
101034
101029
101024
101018
101011
101005
100998
100991
100985
100980
100976
100973
100971
100969
100969
100964
100964
100964
100965
100968
100972
100977
100983
100989
100992
100994
100995
100995
100994
100992
100988
100984
100978
100972
100966
100959
100952
100946
100940
100935
100931
100928
100925
100923
100923
100922
100922
100922
100923
100925
100928
100933
100938
100943
100947
100948
100949
100949
100948
100946
100943
100938
100933
100926
100920
100914
100907
100901
100895
100890
100886
100883
100880
100878
100877
100878
100878
100878
100879
100881
100883
100887
100892
100897
100901
100902
100903
100903
100902
100900
100897
100892
100886
100880
100874
100868
100862
100856
100850
100846
100842
100838
100835
100833
100831
100833
100833
100833
100834
100835
100837
100841
100845
100850
100853
100855
100856
100856
100855
100853
100849
100844
100839
100833
100827
100822
100816
100810
100805
100801
100797
100793
100789
100786
100784
100784
100785
100785
100786
100787
100789
100792
100797
100801
100805
100807
100807
100807
100806
100804
100800
100796
100791
100785
100779
100774
100768
100763
100758
100753
100749
100745
100741
100738
100735
100734
100734
100735
100735
100736
100739
100742
100747
100751
100755
100756
100757
100757
100756
100754
100750
100746
100741
100735
100730
100725
100719
100714
100709
100704
100700
100696
100692
100688
100686
100683
100682
100683
100684
100685
100687
100691
100695
100699
100703
100705
100705
100705
100704
100702
100699
100695
100690
100685
100680
100675
100669
100664
100658
100653
100649
100645
100641
100638
100636
100631
100630
100630
100631
100632
100634
100638
100643
100647
100650
100652
100653
100653
100652
100650
100647
100643
100639
100634
100629
100624
100619
100613
100608
100603
100598
100595
100591
100588
100587
100580
100579
100579
100579
100581
100582
100586
100590
100594
100598
100600
100600
100600
100600
100598
100595
100592
100588
100583
100579
100574
100569
100563
100558
100553
100549
100546
100543
100540
100540
100531
100530
100529
100529
100531
100532
100535
100539
100543
100546
100548
100548
100548
100548
100547
100545
100542
100538
100534
100530
100526
100521
100516
100511
100506
100503
100500
100497
100495
100494
100483
100482
100482
100482
100483
100484
100487
100491
100494
100497
100498
100498
100498
100498
100497
100496
100493
100490
100487
100484
100480
100476
100471
100466
100463
100460
100457
100454
100452
100452
100438
100437
100437
100437
100437
100439
100441
100445
100448
100451
100452
100452
100452
100452
100451
100450
100448
100446
100443
100440
100437
100433
100429
100425
100422
100419
100417
100414
100412
100412
100396
100395
100394
100394
100394
100396
100399
100402
100405
100408
100408
100409
100409
100409
100408
100407
100406
100404
100402
100400
100397
100394
100390
100386
100383
100381
100378
100376
100375
100375
100355
100354
100353
100353
100353
100355
100358
100362
100365
100367
100368
100368
100368
100368
100368
100368
100367
100365
100363
100361
100359
100356
100353
100349
100345
100343
100342
100340
100339
100339
100317
100316
100314
100314
100314
100316
100320
100324
100327
100329
100330
100330
100330
100331
100331
100331
100330
100329
100327
100325
100323
100320
100317
100313
100310
100308
100307
100306
100306
100306
100281
100279
100278
100277
100278
100281
100284
100288
100292
100294
100295
100296
100296
100296
100297
100297
100297
100296
100294
100292
100290
100288
100284
100280
100277
100275
100274
100274
100274
100275
100247
100246
100245
100244
100246
100248
100252
100256
100260
100262
100263
100264
100265
100265
100266
100266
100266
100265
100264
100262
100260
100257
100254
100250
100247
100246
100245
100245
100245
100245
100216
100216
100215
100215
100216
100218
100221
100226
100230
100232
100234
100235
100236
100237
100237
100237
100237
100236
100235
100233
100231
100229
100226
100222
100220
100219
100219
100219
100219
100219
100190
100189
100189
100188
100189
100191
100194
100198
100202
100205
100207
100208
100210
100210
100211
100211
100210
100209
100208
100206
100204
100202
100199
100196
100195
100195
100196
100196
100196
100196
100167
100166
100165
100164
100165
100166
100169
100172
100177
100180
100182
100184
100185
100186
100186
100186
100185
100184
100183
100181
100179
100177
100174
100172
100172
100173
100174
100175
100176
100176
100146
100145
100143
100142
100142
100143
100145
100149
100153
100156
100158
100160
100162
100162
100163
100162
100162
100160
100159
100157
100155
100153
100151
100150
100151
100152
100154
100156
100157
100157
100125
100124
100122
100122
100122
100123
100124
100127
100131
100134
100136
100138
100139
100140
100141
100140
100139
100138
100137
100135
100132
100130
100130
100130
100130
100132
100134
100137
100139
100140
100106
100105
100104
100104
100104
100105
100106
100108
100111
100113
100115
100117
100118
100119
100119
100119
100118
100117
100116
100114
100112
100110
100110
100110
100111
100113
100115
100118
100120
100122
100091
100091
100091
100091
100091
100091
100091
100092
100094
100095
100097
100098
100099
100099
100099
100099
100099
100098
100097
100096
100094
100093
100093
100094
100094
100095
100097
100100
100102
100104
100080
100079
100079
100079
100079
100079
100078
100078
100079
100081
100081
100082
100083
100083
100083
100083
100083
100082
100081
100081
100080
100079
100079
100080
100080
100081
100081
100083
100085
100086
100069
100069
100069
100069
100068
100068
100067
100067
100067
100068
100068
100069
100069
100069
100069
100069
100069
100068
100068
100068
100067
100067