/*--------------------------------*- C++ -*----------------------------------*\
| =========                 |                                                 |
| \\      /  F ield         | OpenFOAM: The Open Source CFD Toolbox           |
|  \\    /   O peration     | Version:  2.3.0                                 |
|   \\  /    A nd           | Web:      www.OpenFOAM.org                      |
|    \\/     M anipulation  |                                                 |
\*---------------------------------------------------------------------------*/
FoamFile
{
    version     2.0;
    format      ascii;
    class       volScalarField;
    location    "3.9006";
    object      alpha.air;
}
// * * * * * * * * * * * * * * * * * * * * * * * * * * * * * * * * * * * * * //

dimensions      [0 0 0 0 0 0 0];

internalField   nonuniform List<scalar> 
1000
(
0.384188
0.27521
0.265073
0.270923
0.274813
0.247352
0.19356
0.152455
0.112007
0.112344
0.239346
0.298529
0.309209
0.197399
0.145593
0.111305
0.0920139
0.085606
0.10293
0.245117
0.263656
0.0251863
0.0124238
0.0126264
0.0134741
0.00740609
0.00316805
0.00228478
0.00224304
0.00397122
0.0872194
0.25796
0.122702
0.0178891
0.00404474
0.00255203
0.00129098
0.000448858
0.00190777
0.151641
0.207448
0.00202241
8.33159e-05
3.52219e-05
2.27586e-05
1.2705e-05
3.50572e-05
0.00017007
0.000512628
0.00323658
0.043368
0.234381
0.0784582
0.0019925
0.0029754
0.0039233
0.00133374
6.12602e-05
0.00174164
0.120512
0.17822
0.00146677
5.75158e-05
8.68379e-06
4.25414e-07
3.53204e-07
5.14784e-06
2.31777e-05
0.000129997
0.0041172
0.0463287
0.217338
0.0987349
0.00441905
0.00469629
0.00817384
0.00394201
0.000153842
0.00320822
0.107813
0.157046
0.00149781
0.000161736
4.5325e-05
2.48484e-06
1.57076e-08
9.73329e-08
6.33659e-07
5.39277e-05
0.00418485
0.0471299
0.199435
0.135408
0.0285515
0.00613832
0.011796
0.00708619
0.000373456
0.00375947
0.102504
0.135642
0.00198153
0.000772225
0.000300439
1.83111e-05
1.84211e-09
2.24328e-09
2.22049e-08
2.45802e-05
0.00238787
0.0426508
0.17438
0.157441
0.0805565
0.016941
0.0149348
0.0102731
0.000639304
0.00340766
0.102489
0.116117
0.00406972
0.00407169
0.00246781
5.92405e-05
8.28834e-10
2.47828e-10
9.23152e-10
3.01578e-07
4.51013e-05
0.00253851
0.144048
0.1568
0.11977
0.0495827
0.0230592
0.0126356
0.000887031
0.00275837
0.101731
0.0996352
0.0082776
0.0131108
0.0141821
9.07129e-05
6.51783e-10
1.24018e-11
1.31718e-10
2.10547e-09
2.46982e-08
4.00201e-06
0.0351254
0.13324
0.130363
0.0788135
0.0337237
0.0137445
0.000828148
0.00194416
0.0988216
0.0973311
0.014774
0.025328
0.0280005
6.89473e-05
3.95955e-10
5.04798e-13
6.00803e-14
3.58477e-14
2.23434e-13
9.68875e-09
0.000530591
0.0964562
0.127018
0.0984976
0.047132
0.0138249
0.000364951
0.000928828
0.0933287
0.0978116
0.0322554
0.0518106
0.0114463
3.38518e-06
1.1059e-10
1.94112e-14
2.15701e-15
1.24012e-15
1.4992e-14
7.80801e-10
1.67093e-06
0.0633071
0.113106
0.095426
0.0537588
0.00863463
4.32846e-05
0.000124938
0.0872707
0.301576
0.197399
0.192539
0.195944
0.196185
0.159748
0.115239
0.07787
0.0484785
0.0365555
0.0557454
0.154815
0.228872
0.15204
0.110333
0.0851942
0.0737451
0.0719156
0.086098
0.213885
0.163097
0.00686967
0.00485908
0.00454633
0.00356739
0.00179685
0.000807102
0.000407081
0.000154292
0.00145337
0.0586262
0.153578
0.0362449
0.00893671
0.0040196
0.00354407
0.00131882
0.000253537
0.000743624
0.116882
0.115308
0.000719844
1.82096e-05
5.31297e-06
3.40651e-06
2.8021e-06
7.99891e-06
1.61348e-05
5.12868e-05
0.00236706
0.0544845
0.156592
0.0464323
0.00434928
0.00607996
0.00754966
0.00281618
9.84796e-05
0.000458883
0.0871749
0.0921354
0.000603677
2.49446e-05
4.89311e-06
4.52737e-07
2.36843e-07
7.63899e-07
1.47016e-06
6.16777e-05
0.00268845
0.036144
0.144799
0.070381
0.0064299
0.00872409
0.0119608
0.00579838
0.000324158
0.00101422
0.0753588
0.0770088
0.000667649
0.000119899
4.04958e-05
3.75946e-06
1.01834e-08
8.53032e-09
2.23581e-07
6.59576e-05
0.00199092
0.0147052
0.113993
0.0906817
0.0267345
0.0106377
0.0153394
0.0092252
0.000640484
0.00150095
0.0695317
0.0650143
0.00119708
0.000785706
0.000345602
1.85376e-05
1.30489e-09
3.87287e-09
3.09089e-08
1.84111e-05
0.0012916
0.0181834
0.054989
0.0754576
0.0557632
0.0222153
0.0178561
0.0123537
0.00101011
0.00165396
0.0688445
0.0544945
0.00304179
0.00388862
0.00271384
3.66732e-05
5.8563e-10
3.53323e-10
9.75806e-10
1.05941e-07
1.45585e-05
0.000590609
0.037318
0.0595379
0.0514487
0.0332963
0.0227967
0.0142977
0.00134288
0.0013631
0.0683776
0.0490487
0.00670516
0.0110929
0.0092969
4.10488e-05
3.50195e-10
2.36184e-12
2.28684e-11
1.75914e-10
1.89197e-09
2.80969e-07
0.0134359
0.061137
0.0579906
0.0413356
0.0269679
0.01476
0.00104038
0.000685638
0.0668717
0.0497775
0.0109727
0.020603
0.0126096
1.25406e-05
1.91792e-10
4.12453e-15
1.61873e-16
1.22423e-16
2.0485e-15
1.04921e-09
0.000222744
0.0481308
0.066672
0.051715
0.0325273
0.0142657
0.000527917
0.000180593
0.0645271
0.0514266
0.0206964
0.037947
0.00240045
2.5366e-07
5.13087e-11
1.09669e-16
4.24003e-18
6.78076e-19
1.05714e-16
1.0193e-10
1.31316e-07
0.0357064
0.0664136
0.0591374
0.0379012
0.00879088
5.51072e-05
8.10931e-06
0.0617344
0.269084
0.169436
0.165013
0.16851
0.168266
0.131352
0.092322
0.0642692
0.0413139
0.0304468
0.0507956
0.163852
0.208043
0.137016
0.0996023
0.0791721
0.0686287
0.0677313
0.0813822
0.205229
0.123194
0.00388742
0.00293104
0.00263145
0.002018
0.000944573
0.000355574
0.000130934
3.78598e-05
0.00024105
0.0218465
0.111251
0.0292613
0.00654353
0.0038924
0.00370947
0.00148533
0.000241204
0.000440151
0.107381
0.0778209
0.000331487
4.85216e-06
1.65188e-06
7.55676e-07
3.39442e-07
2.6922e-07
2.37614e-07
3.54448e-06
0.000446494
0.0224339
0.109503
0.0350806
0.00551535
0.00651724
0.00802238
0.00334807
0.000154738
0.000154613
0.0781618
0.057357
0.000267972
6.33949e-06
1.25944e-06
9.41985e-08
2.39905e-08
2.80333e-08
3.65528e-08
9.15871e-06
0.000510546
0.00954035
0.101836
0.0563824
0.00793413
0.00950417
0.0122933
0.00625796
0.000478255
0.000431
0.0665407
0.0449516
0.000280083
3.82673e-05
1.48227e-05
1.41119e-06
1.58423e-09
3.19277e-09
2.88696e-08
1.0411e-05
0.000359674
0.00373741
0.0777789
0.0680343
0.0268446
0.0121354
0.0154738
0.00959269
0.000873178
0.000664212
0.061085
0.0359862
0.000478187
0.000304929
0.000159153
6.1985e-06
5.68057e-10
1.0514e-09
9.5215e-09
3.14018e-06
0.000185268
0.00244667
0.00655103
0.0422659
0.0374053
0.0227937
0.0179227
0.0127617
0.00141171
0.000719426
0.0592299
0.0288799
0.0012252
0.00158529
0.00106093
9.85453e-06
5.68462e-10
2.79987e-10
3.62719e-09
8.00961e-08
1.63608e-05
0.000236782
0.00243693
0.00968568
0.0257456
0.0244292
0.0214015
0.0150499
0.00202173
0.000567618
0.0581125
0.0229867
0.00279215
0.00452384
0.00257596
9.54263e-06
5.92214e-10
1.81347e-12
4.54834e-11
1.2337e-09
3.62726e-08
5.31814e-07
0.00256806
0.0100519
0.0157897
0.0209257
0.0202844
0.0155568
0.00215004
0.000234786
0.0561179
0.0226384
0.00462652
0.00890911
0.00286949
1.88894e-06
4.6092e-10
8.32514e-16
2.8849e-17
1.19227e-17
1.36294e-16
1.71312e-10
6.05399e-05
0.0054036
0.0140075
0.0179464
0.0181198
0.0143057
0.00121015
4.59924e-05
0.05368
0.0228576
0.0092151
0.0175479
0.00030716
2.00239e-08
1.6654e-10
2.51244e-17
7.07301e-19
9.67058e-20
5.29327e-18
1.09355e-11
7.17827e-09
0.00814926
0.0170824
0.0187623
0.0176411
0.00936578
0.000161537
1.09082e-06
0.0506836
0.299691
0.1939
0.188912
0.193623
0.194554
0.158306
0.113764
0.0766703
0.0474979
0.035195
0.0551303
0.161143
0.228217
0.152924
0.11074
0.0854515
0.0739296
0.0719724
0.0861538
0.213828
0.161446
0.00612054
0.00449391
0.00418339
0.00331805
0.00166562
0.000725944
0.000341145
0.000114248
0.00111302
0.0550277
0.149483
0.0383481
0.00929023
0.00428209
0.00381809
0.00148597
0.00026899
0.000758816
0.117012
0.113665
0.0006741
1.64607e-05
4.3922e-06
2.35961e-06
1.34865e-06
2.70896e-06
6.97752e-06
3.08159e-05
0.00152816
0.0509307
0.153434
0.047057
0.00469666
0.00648197
0.00796716
0.00324908
0.000134878
0.00046985
0.0873451
0.0908434
0.000595803
2.45222e-05
4.69553e-06
3.195e-07
5.74449e-08
2.29772e-07
6.05334e-07
4.12935e-05
0.00173568
0.0287063
0.142489
0.0656026
0.00637952
0.00918542
0.0121986
0.00628262
0.000435794
0.00102807
0.0755372
0.0757079
0.000664908
0.000120612
4.00121e-05
3.80256e-06
3.0429e-09
3.44051e-09
2.18775e-07
6.15177e-05
0.00169462
0.0106511
0.118603
0.0910511
0.0259191
0.0106722
0.0152272
0.00959984
0.000815069
0.00149993
0.0696498
0.0635472
0.00120386
0.000783104
0.000341125
1.88683e-05
1.16487e-09
2.61673e-09
1.10951e-07
4.68802e-05
0.00171275
0.0110802
0.0320391
0.0693163
0.0518954
0.0211316
0.0176027
0.0129911
0.00129428
0.00165332
0.068934
0.0527729
0.00305781
0.00387326
0.00267232
3.74639e-05
5.02805e-10
3.27227e-10
3.92752e-09
5.86202e-06
0.000487657
0.00422782
0.0035332
0.0273548
0.0429485
0.0349305
0.0249559
0.0161763
0.00174387
0.0014153
0.0684643
0.0472898
0.00673437
0.0110735
0.00928471
4.20804e-05
3.53827e-10
9.47953e-12
2.30759e-10
6.91463e-09
1.88243e-06
1.98557e-05
0.00361766
0.0180904
0.0315488
0.0315625
0.0278825
0.0180124
0.00179893
0.000745946
0.0669561
0.0480107
0.0110376
0.0205697
0.0128036
1.30009e-05
1.92815e-10
4.19938e-15
1.62838e-16
3.68839e-16
6.56181e-15
6.37872e-08
0.00264559
0.0335122
0.0373103
0.0331024
0.0282803
0.0173448
0.00103122
0.000197399
0.064615
0.0496624
0.0206715
0.0375604
0.00250686
2.69419e-07
5.1398e-11
1.12836e-16
3.79152e-18
3.82687e-19
3.43583e-16
1.65945e-11
2.03283e-05
0.0411993
0.0516257
0.0408953
0.0298667
0.0111204
0.00012909
8.75397e-06
0.061869
0.378699
0.26652
0.257421
0.263887
0.267731
0.239811
0.186661
0.146579
0.105894
0.106239
0.234757
0.307372
0.309201
0.199705
0.147132
0.112505
0.0926018
0.0860317
0.103534
0.245833
0.256605
0.0207716
0.0110992
0.0105747
0.0107469
0.00595688
0.00281038
0.00189546
0.00158696
0.00288366
0.0836732
0.262447
0.133821
0.0188416
0.00400308
0.00241998
0.0011229
0.000444346
0.00191149
0.152613
0.20107
0.00179478
7.16175e-05
2.62428e-05
1.57096e-05
9.27442e-06
1.88841e-05
8.85482e-05
0.000268581
0.00277908
0.0458619
0.2415
0.0761309
0.00196586
0.00274444
0.0036063
0.00106877
5.11899e-05
0.00173351
0.121495
0.172534
0.00143796
5.6521e-05
8.59221e-06
3.7667e-07
2.34374e-07
2.8017e-06
1.14829e-05
0.000103161
0.00452334
0.046411
0.227
0.0953091
0.00387142
0.00447948
0.00798586
0.00340527
0.000118587
0.00320503
0.108762
0.151946
0.00147609
0.00016316
4.53605e-05
2.54176e-06
2.00115e-08
4.08424e-08
4.15418e-07
8.89218e-05
0.00513141
0.046117
0.208802
0.143796
0.0321338
0.00621641
0.0120949
0.00648521
0.000281057
0.00376353
0.103346
0.131207
0.00197101
0.000776292
0.000300605
1.87837e-05
2.09771e-09
3.83568e-09
6.63123e-08
5.26832e-05
0.00367922
0.0500952
0.174415
0.156809
0.0804644
0.0172179
0.0162622
0.00975979
0.000478593
0.00343116
0.103456
0.112221
0.00406373
0.00408132
0.00246425
6.0871e-05
8.36435e-10
2.8511e-10
1.75627e-09
2.15614e-06
0.000339247
0.0128585
0.13404
0.154418
0.113894
0.046628
0.0244457
0.0121596
0.000662786
0.00278142
0.10282
0.0962549
0.00828685
0.0131572
0.0142455
9.33137e-05
6.66516e-10
1.69607e-11
1.47289e-10
1.51979e-09
7.23169e-07
6.22055e-05
0.0741407
0.142362
0.13058
0.0717233
0.0328441
0.0130983
0.000667881
0.00196827
0.100049
0.0943594
0.0147877
0.0255141
0.0285581
7.13775e-05
4.01371e-10
5.02408e-13
5.68496e-14
3.96435e-14
1.92845e-13
4.82181e-09
0.0128047
0.107853
0.127013
0.0883061
0.0427741
0.0117321
0.000259437
0.000956345
0.0946886
0.0949319
0.0321641
0.0520876
0.0119892
3.53295e-06
1.10788e-10
1.92425e-14
1.86555e-15
1.42567e-15
1.33483e-14
1.57426e-09
0.000714284
0.0704576
0.115622
0.0897521
0.0442853
0.00591115
2.36502e-05
0.000133331
0.0886665
)
;

boundaryField
{
    aeration
    {
        type            fixedValue;
        value           uniform 0.5;
    }
    xsides
    {
        type            zeroGradient;
    }
    zsides
    {
        type            zeroGradient;
    }
    outlet
    {
        type            inletOutlet;
        phi             phi.air;
        inletValue      uniform 0;
        value           nonuniform List<scalar> 
100
(
0.0978116
0.0514266
0.0228576
0.0496624
0.0949319
0.0322554
0.0206964
0.0092151
0.0206715
0.0321641
0.0518106
0.037947
0.0175479
0.0375604
0.0520876
0
0
0
0
0
0
0
0
0
0
0
0
0
0
0
0
0
0
0
0
0
0
0
0
0
0
0
0
0
0
0
0
0
0
0
0
0
0
0
0
0
0
0
0
0
0.0633071
0.0357064
0.00814926
0.0411993
0.0704576
0.113106
0.0664136
0.0170824
0.0516257
0.115622
0.095426
0.0591374
0.0187623
0.0408953
0.0897521
0.0537588
0.0379012
0.0176411
0.0298667
0.0442853
0.00863463
0.00879088
0.00936578
0.0111204
0.00591115
0
0
0
0
0
0
0
0
0
0
0.0872707
0.0617344
0.0506836
0.061869
0.0886665
)
;
    }
}


// ************************************************************************* //
