/*--------------------------------*- C++ -*----------------------------------*\
| =========                 |                                                 |
| \\      /  F ield         | OpenFOAM: The Open Source CFD Toolbox           |
|  \\    /   O peration     | Version:  2.3.0                                 |
|   \\  /    A nd           | Web:      www.OpenFOAM.org                      |
|    \\/     M anipulation  |                                                 |
\*---------------------------------------------------------------------------*/
FoamFile
{
    version     2.0;
    format      ascii;
    class       volVectorField;
    location    "2";
    object      U.waterMean;
}
// * * * * * * * * * * * * * * * * * * * * * * * * * * * * * * * * * * * * * //

dimensions      [0 1 -1 0 0 0 0];

internalField   nonuniform List<vector> 
10000
(
(-0.223959 -0.9693 -0.564992)
(0.0311094 -0.954935 -0.558662)
(0.0935028 -0.797154 -0.508674)
(0.144738 -0.571349 -0.355129)
(0.159849 -0.386389 -0.236887)
(0.157466 -0.2727 -0.245291)
(0.110255 -0.19904 -0.20529)
(0.0546748 -0.176851 -0.203348)
(0.0286875 -0.17101 -0.208258)
(0.00328752 -0.169851 -0.197351)
(-0.00589854 -0.170864 -0.202108)
(-0.0386069 -0.182519 -0.182855)
(-0.0768992 -0.174539 -0.182051)
(-0.112423 -0.193867 -0.200459)
(-0.160062 -0.251676 -0.209201)
(-0.172088 -0.368412 -0.239895)
(-0.11798 -0.556242 -0.329588)
(-0.062443 -0.737605 -0.46721)
(-0.00844802 -0.80896 -0.471729)
(0.19942 -0.790806 -0.474255)
(0.00633185 -1.04789 -0.0814164)
(-0.000304556 -0.975305 -0.0695674)
(0.00183817 -0.791403 -0.0493664)
(0.00339073 -0.460095 -0.0104321)
(0.0188029 -0.299052 -0.0937269)
(0.0197906 -0.140875 -0.364383)
(0.00556738 -0.136053 -0.269509)
(-0.0101573 -0.133243 -0.281682)
(0.000362495 -0.141864 -0.253463)
(-0.000217115 -0.14572 -0.226524)
(0.00281912 -0.131325 -0.256399)
(-0.000297603 -0.135581 -0.232466)
(-0.00389314 -0.136087 -0.236039)
(0.00755432 -0.131961 -0.275165)
(-0.0285007 -0.155567 -0.233315)
(-0.0452963 -0.282598 -0.148072)
(-0.00267125 -0.448657 -0.0109773)
(-0.00228735 -0.764419 -0.0541444)
(0.000370353 -0.815904 -0.050968)
(-0.00171457 -0.811591 -0.0571685)
(0.000445587 -1.07031 -0.030341)
(0.00212693 -0.968802 -0.0221423)
(0.00405924 -0.794618 -0.020412)
(0.00226904 -0.479883 -0.0107549)
(0.00416614 -0.325832 -0.063838)
(0.00282803 -0.185121 -0.127331)
(0.00139887 -0.16552 -0.15956)
(-0.000142819 -0.162859 -0.165111)
(0.000285118 -0.167216 -0.165061)
(-0.000122446 -0.164534 -0.164771)
(-0.000473886 -0.156069 -0.167556)
(-0.000680638 -0.158214 -0.161434)
(-0.00108766 -0.159044 -0.158076)
(-0.00199252 -0.160672 -0.155969)
(-0.00404732 -0.183785 -0.12849)
(-0.00474342 -0.331627 -0.0774972)
(-0.00204207 -0.507508 -0.0153434)
(-0.00497378 -0.763399 -0.0197825)
(-0.00178128 -0.81368 -0.0162175)
(0.00083723 -0.821455 -0.0192371)
(0.00349815 -1.03733 -0.0123618)
(0.00141607 -0.936892 -0.00998924)
(0.00387215 -0.760953 -0.00396963)
(0.0018488 -0.421481 0.00439671)
(0.00183106 -0.300399 -0.0597156)
(0.000333304 -0.172184 -0.145498)
(0.000753135 -0.152803 -0.18777)
(-0.000297095 -0.149515 -0.187194)
(-0.000128518 -0.157346 -0.182137)
(-0.00010858 -0.15564 -0.1781)
(-0.000396951 -0.144455 -0.184524)
(-0.000531265 -0.150119 -0.184413)
(-0.000325265 -0.152618 -0.181507)
(-0.00112434 -0.152193 -0.18369)
(-0.000908166 -0.176846 -0.148048)
(-0.00107307 -0.314606 -0.072719)
(-0.00192542 -0.448767 0.000111366)
(-0.00598838 -0.730519 -0.00417495)
(-0.00156274 -0.791142 -0.00266762)
(-0.00117633 -0.78963 -0.00304545)
(0.000899197 -1.05661 -0.0143233)
(0.00218528 -0.944106 -0.0110563)
(0.00457644 -0.786248 -0.00727068)
(0.00383597 -0.433604 0.00129087)
(0.0046646 -0.287459 -0.061117)
(0.000739062 -0.169187 -0.142409)
(0.000654388 -0.151664 -0.183539)
(-0.000163866 -0.148424 -0.181674)
(-0.000117174 -0.156443 -0.176853)
(-9.68262e-05 -0.154599 -0.174715)
(-0.000161079 -0.144014 -0.179321)
(-0.000223501 -0.14978 -0.178463)
(-0.000209677 -0.150652 -0.177843)
(-0.00107329 -0.149155 -0.180993)
(-0.00115279 -0.172275 -0.146556)
(-0.00412844 -0.30468 -0.0731163)
(-0.00328171 -0.454076 -0.00124924)
(-0.00728729 -0.7528 -0.00553317)
(-0.00220219 -0.81061 -0.00208135)
(0.00153348 -0.807236 -0.00482891)
(0.00180208 -1.06318 -0.0142732)
(0.00168894 -0.941372 -0.0104469)
(0.00403353 -0.789406 -0.0055096)
(0.00294012 -0.419218 0.0036847)
(0.0032289 -0.258233 -0.0610727)
(0.000910246 -0.15494 -0.149512)
(0.000746538 -0.141145 -0.188463)
(-6.83929e-05 -0.138106 -0.187314)
(-0.000223067 -0.146974 -0.180916)
(-0.000105853 -0.145898 -0.178205)
(-0.00011875 -0.134454 -0.183694)
(-9.13127e-05 -0.141236 -0.181641)
(6.10759e-05 -0.141602 -0.1815)
(-0.000734588 -0.139144 -0.185878)
(-0.000993515 -0.158962 -0.151805)
(-0.0031695 -0.279813 -0.0743055)
(-0.00270921 -0.431204 0.00106528)
(-0.00682112 -0.755393 -0.00349935)
(-0.00188241 -0.821259 -0.00114752)
(0.00146258 -0.809174 -0.00391847)
(0.000429449 -1.0713 -0.0139325)
(0.00140036 -0.937961 -0.00900609)
(0.00402957 -0.803279 -0.00595591)
(0.00431663 -0.417165 0.00413408)
(0.00532566 -0.230279 -0.056995)
(0.00136018 -0.14333 -0.147952)
(0.000944344 -0.131519 -0.185724)
(0.000148521 -0.127865 -0.18452)
(-0.000134898 -0.137454 -0.177352)
(-1.68105e-05 -0.137735 -0.174774)
(3.00381e-06 -0.127262 -0.179796)
(0.000195622 -0.13346 -0.17756)
(0.000425451 -0.132462 -0.178593)
(-0.000265279 -0.129176 -0.184357)
(-0.000770941 -0.147736 -0.150924)
(-0.00534628 -0.25607 -0.0710187)
(-0.00393156 -0.421163 0.00203526)
(-0.00642583 -0.765902 -0.00307956)
(-0.00147679 -0.83508 -0.00142331)
(0.00128575 -0.81393 -0.00390629)
(-0.000224719 -1.07666 -0.0142206)
(0.00100991 -0.934644 -0.00774269)
(0.00346681 -0.817268 -0.00537187)
(0.00467617 -0.413743 0.00511842)
(0.00381702 -0.174167 -0.0459611)
(0.00188606 -0.119735 -0.141014)
(0.00105057 -0.111264 -0.175841)
(0.000195086 -0.107741 -0.174601)
(-0.000310386 -0.115415 -0.165002)
(-8.70375e-05 -0.117007 -0.161301)
(0.000311741 -0.109474 -0.168035)
(0.000793898 -0.115033 -0.164502)
(0.00107473 -0.113854 -0.166437)
(0.000516475 -0.110245 -0.174071)
(-0.000678871 -0.124399 -0.143354)
(-0.00438563 -0.206593 -0.0603835)
(-0.00442048 -0.411009 0.00318386)
(-0.00606672 -0.778412 -0.00255718)
(-0.00122848 -0.84526 -0.000931491)
(0.00111362 -0.813499 -0.00281938)
(-0.00060003 -1.0794 -0.0135443)
(0.000571361 -0.930566 -0.00577479)
(0.00282803 -0.835578 -0.00559858)
(0.00526931 -0.420763 0.0055601)
(0.000323284 -0.104546 -0.0027933)
(-0.00145334 -0.0757697 -0.0979854)
(0.000813504 -0.0703191 -0.125444)
(5.10778e-05 -0.0651125 -0.123058)
(-0.000703489 -0.0712414 -0.113412)
(0.000104018 -0.0742498 -0.108682)
(0.000456142 -0.0707528 -0.114714)
(0.000635373 -0.0738406 -0.11065)
(0.0013082 -0.0716653 -0.113231)
(0.000531749 -0.0703654 -0.123418)
(0.00225936 -0.0795171 -0.0993534)
(-0.000751767 -0.133206 -0.0152721)
(-0.00515494 -0.414263 0.00383742)
(-0.00532098 -0.789358 -0.00304592)
(-0.0011867 -0.855302 -0.000518618)
(0.00152099 -0.813569 -0.00178776)
(-0.000377049 -1.0816 -0.0125501)
(0.000324416 -0.926658 -0.00429926)
(0.00226392 -0.853536 -0.00680622)
(0.00298169 -0.438632 0.00244814)
(0.0018472 -0.0642788 0.00844533)
(0.000354631 -0.0335836 0.00547097)
(0.000290033 -0.0304849 0.00591815)
(0.000135652 -0.0237469 0.00562905)
(0.000242619 -0.0295263 0.00641576)
(-0.000103325 -0.030247 0.00667391)
(1.85831e-05 -0.0241999 0.00627243)
(0.000160286 -0.0295053 0.00663083)
(-5.82844e-05 -0.0290054 0.00639331)
(-0.000322852 -0.0293245 0.00607148)
(-0.000438124 -0.0365848 0.00611427)
(-0.00186102 -0.0591492 0.0103813)
(-0.00295336 -0.428747 0.0015091)
(-0.00429578 -0.796972 -0.00309637)
(-0.000355433 -0.863704 -5.75286e-05)
(0.00176727 -0.812129 -0.00125907)
(-0.000952949 -1.08188 -0.00958089)
(0.000220119 -0.923245 -0.00225606)
(0.00219321 -0.869661 -0.0073636)
(0.00271461 -0.445927 0.000948534)
(0.00100936 -0.0798495 0.000281338)
(-0.00029132 -0.0445935 -0.000245657)
(0.000101126 -0.0312532 -2.4746e-05)
(9.38714e-05 -0.029208 0.000195318)
(-0.000110265 -0.0274016 0.000604856)
(0.000136769 -0.0280878 0.000532251)
(-1.78857e-05 -0.0292551 0.000228925)
(-0.000134226 -0.0279843 0.000350694)
(-2.75662e-05 -0.0272273 0.000403919)
(-0.000155214 -0.028537 0.00025895)
(-5.86347e-05 -0.0393034 -0.000462582)
(-0.000534486 -0.0895464 -0.00134396)
(-0.00220013 -0.43096 0.000645351)
(-0.00368502 -0.803374 -0.00334566)
(-0.000172973 -0.871687 6.91869e-05)
(0.00173724 -0.807988 -0.000250735)
(-0.00119051 -1.0791 -0.0068609)
(5.67717e-05 -0.917691 -0.000795435)
(0.00229435 -0.884467 -0.00753021)
(0.00306912 -0.446281 0.00129713)
(0.00060783 -0.0703589 0.000662189)
(-0.000389698 -0.040799 6.66123e-05)
(-7.08497e-05 -0.0405304 -0.00148355)
(3.34007e-05 -0.0264726 0.000190573)
(-9.45735e-05 -0.0323603 -0.000801809)
(0.000185469 -0.0337507 -0.00078465)
(2.15833e-05 -0.0263012 0.000204515)
(-9.72916e-05 -0.0346507 -0.000914112)
(-3.48788e-05 -0.0334307 -0.000834547)
(4.88541e-05 -0.0355325 -0.000956667)
(0.000333953 -0.0503892 -0.00135378)
(0.000703567 -0.091934 -0.0011925)
(-0.00266682 -0.42352 0.00112356)
(-0.00333511 -0.808671 -0.00353234)
(-0.000377742 -0.873718 0.000423559)
(0.00132648 -0.798629 0.000753806)
(-0.00340952 -1.07962 -0.00470488)
(0.000596741 -0.9154 0.000835292)
(0.0025381 -0.901758 -0.00807141)
(0.00301996 -0.447591 0.00100231)
(0.000764954 -0.0680022 0.000464418)
(-7.70707e-05 -0.0427337 -0.000102994)
(-0.000178772 -0.0418712 -0.000430241)
(-7.60762e-05 -0.0275732 -0.000154082)
(0.000133505 -0.0323413 -0.000400127)
(-4.52962e-05 -0.0320052 -0.000273484)
(6.63762e-05 -0.0268119 -2.21263e-05)
(0.000159539 -0.0323818 -0.000188212)
(-1.95508e-05 -0.031377 -0.000184527)
(9.06503e-05 -0.0341881 -0.000241428)
(0.000277075 -0.0456013 3.1415e-05)
(-4.26595e-05 -0.0754384 0.000870225)
(-0.00213063 -0.413612 0.00180222)
(-0.00240986 -0.811981 -0.00365713)
(-0.000680692 -0.87301 0.00183849)
(0.00228826 -0.790884 0.00198269)
(-0.00562658 -1.07854 -0.00445616)
(0.000921991 -0.913166 0.00141401)
(0.00211796 -0.919294 -0.0100098)
(0.00190989 -0.446984 0.00105224)
(0.000627541 -0.0627923 0.000678812)
(-0.000199909 -0.0405721 9.26224e-05)
(-0.000231063 -0.0418622 -0.000577865)
(-0.000153048 -0.0290275 -0.000477655)
(-5.00606e-05 -0.0353306 -0.00107752)
(3.79673e-05 -0.035193 -0.00095681)
(0.000103345 -0.0269961 -0.000280469)
(-5.93617e-06 -0.0346178 -0.000571676)
(7.78854e-06 -0.0336679 -0.000562664)
(0.000125255 -0.0368207 -0.000604859)
(0.000282121 -0.0471333 -0.000289681)
(-0.000133505 -0.0752527 0.000526027)
(-0.00131472 -0.406659 0.00219311)
(-0.00129121 -0.814328 -0.00372676)
(-0.00100987 -0.869945 0.00317498)
(0.00229412 -0.779252 0.00323923)
(-0.00606366 -1.07217 -0.00462642)
(0.00048034 -0.906673 0.00244226)
(0.0011033 -0.928421 -0.0110341)
(0.000490703 -0.444614 0.000422169)
(0.000601728 -0.0586684 0.000740604)
(-0.000136288 -0.0390723 0.000222578)
(-0.000142222 -0.0462262 -0.000435407)
(-0.000161883 -0.0330907 -0.000552188)
(-4.00115e-05 -0.0431582 -0.00139739)
(-2.48674e-05 -0.0422916 -0.0012777)
(1.6948e-05 -0.0303625 -0.000372389)
(-2.20682e-05 -0.0385737 -0.000493588)
(9.53595e-05 -0.037838 -0.000482835)
(0.000115449 -0.0407387 -0.000464259)
(0.000282002 -0.0490028 -0.000138557)
(3.64414e-05 -0.0693672 0.000787136)
(-0.000112434 -0.398174 0.00225213)
(-0.000147906 -0.813115 -0.00343302)
(-0.00132427 -0.860674 0.00646641)
(0.00249769 -0.762079 0.00390822)
(-0.00674089 -1.04506 -0.00246091)
(0.000806834 -0.890257 0.00255688)
(5.39363e-05 -0.933198 -0.00955899)
(-0.000993558 -0.441918 -0.000168295)
(0.000469889 -0.0552757 0.000702984)
(-2.73357e-05 -0.0367389 0.000328821)
(-3.82033e-05 -0.0434984 0.00012988)
(-7.08518e-05 -0.0335603 -0.000166995)
(5.8504e-05 -0.0467254 -0.000698202)
(-0.000201039 -0.0456385 -0.000747495)
(-0.000153285 -0.0301491 -0.000153676)
(-6.05058e-05 -0.0383463 -0.000595325)
(0.000102746 -0.0373566 -0.000565166)
(0.000137323 -0.0399354 -0.000379907)
(0.000247414 -0.0477881 -4.30923e-06)
(2.8347e-05 -0.0669211 0.000775653)
(0.0013883 -0.388111 0.00266039)
(0.00131578 -0.804355 -0.000605284)
(-0.00131403 -0.845476 0.0105064)
(0.00234088 -0.731152 0.00576313)
(-0.00768392 -0.988395 0.000241067)
(0.00150608 -0.854625 0.00352065)
(-0.000961872 -0.931486 -0.00654504)
(-0.002451 -0.436288 0.000181271)
(0.000336706 -0.0539636 0.00057814)
(4.37594e-05 -0.0358236 0.000100886)
(0.000122854 -0.0421399 0.000433911)
(3.61879e-05 -0.0335448 0.000184422)
(0.000155697 -0.0441932 0.000249293)
(-0.00026869 -0.0441344 0.000172146)
(-6.36146e-05 -0.0310838 1.22154e-05)
(0.00010383 -0.0431845 -0.00042454)
(-8.27295e-05 -0.0423698 -0.000603008)
(1.28071e-05 -0.0430812 -0.000385222)
(0.000226728 -0.0474619 -0.000180027)
(0.000321144 -0.0649552 0.000811867)
(0.00268503 -0.376286 0.00360428)
(0.0025736 -0.787974 0.00232655)
(-0.000869505 -0.816205 0.014672)
(0.00140703 -0.681285 0.0071852)
(-0.00579166 -0.90004 0.0012212)
(0.000996013 -0.791122 0.00386729)
(-0.00200767 -0.921626 -0.00389481)
(-0.00328562 -0.428808 0.00093278)
(5.88112e-05 -0.0545627 0.000103566)
(0.000152221 -0.0379946 -0.000523527)
(0.000166906 -0.0389541 0.00163453)
(5.37651e-05 -0.0321003 0.00024552)
(0.000287989 -0.04059 0.00180994)
(-0.000305481 -0.0403009 0.00177246)
(4.36606e-05 -0.0312269 7.92076e-05)
(0.000129356 -0.0395183 0.00134664)
(-0.000309762 -0.0413958 0.00062456)
(-0.000144925 -0.0431471 0.000313459)
(0.000247362 -0.0495671 8.80655e-05)
(0.000489335 -0.0637393 0.00156307)
(0.00364308 -0.359024 0.00519015)
(0.00346447 -0.762418 0.00440278)
(-3.65502e-06 -0.771488 0.0188434)
(0.000665297 -0.605094 0.00768238)
(-0.00119949 -0.754881 0.00338109)
(0.00031155 -0.683287 0.00193262)
(-0.00322039 -0.897595 -0.000137207)
(-0.00411739 -0.412996 0.00312899)
(-0.00156399 -0.0601965 -0.00139147)
(-0.000222928 -0.0439003 -0.00216933)
(0.000150568 -0.0333915 0.000854868)
(6.49896e-05 -0.0328195 -0.000467945)
(0.000127213 -0.0335453 0.00119097)
(-0.000131974 -0.0338701 0.00109631)
(-5.04293e-05 -0.0323006 -0.000599906)
(-0.000162593 -0.0341456 0.00076067)
(-4.52847e-05 -0.0427546 -0.00134671)
(7.01175e-05 -0.0495972 -0.00266688)
(0.000329381 -0.0583568 -0.00344267)
(0.00167066 -0.0701109 -0.00112645)
(0.00375952 -0.329982 0.0084104)
(0.00422654 -0.719359 0.00922773)
(0.000447804 -0.695125 0.0224198)
(-0.00159184 -0.479935 0.00790496)
(-1.57433e-05 -0.631678 0.001294)
(-0.00051375 -0.582853 0.00111153)
(-0.00310595 -0.86054 0.000169264)
(-0.00459395 -0.387784 0.00354694)
(-0.00463341 -0.0788584 -0.000957617)
(-0.000582827 -0.0652051 -0.00142965)
(-0.000260588 -0.0416001 -0.000450996)
(-7.39414e-05 -0.0390415 -0.000513231)
(-0.000104703 -0.0398891 -0.00026043)
(0.000141294 -0.0406982 -0.00032494)
(6.10976e-05 -0.0392367 -0.000595384)
(0.00022522 -0.0433301 -0.000534869)
(0.00036135 -0.0698297 -0.00220022)
(0.000337997 -0.0901611 -0.00319636)
(0.000287533 -0.109198 -0.0036194)
(0.00355011 -0.102925 -0.00214678)
(0.00307497 -0.283964 0.00899348)
(0.00301785 -0.664913 0.00931361)
(0.000462511 -0.616661 0.0143717)
(-0.00109373 -0.363196 0.00606748)
(-0.237016 -0.963957 -0.507166)
(0.0332578 -0.952281 -0.500554)
(0.0995388 -0.793734 -0.454792)
(0.152218 -0.572075 -0.320495)
(0.166993 -0.384615 -0.212898)
(0.161478 -0.270572 -0.227404)
(0.111723 -0.19435 -0.187099)
(0.0553202 -0.173279 -0.186565)
(0.0291966 -0.167186 -0.193513)
(0.00340571 -0.165957 -0.182841)
(-0.00589533 -0.167525 -0.187495)
(-0.0386509 -0.179259 -0.168295)
(-0.077777 -0.170737 -0.166705)
(-0.113549 -0.19019 -0.183946)
(-0.163548 -0.247968 -0.191353)
(-0.178633 -0.366305 -0.218422)
(-0.124698 -0.558109 -0.297031)
(-0.0665687 -0.733665 -0.416538)
(-0.00921337 -0.807042 -0.422242)
(0.210591 -0.788356 -0.42734)
(0.00453351 -1.05053 -0.0767541)
(-6.64403e-05 -0.984264 -0.0673337)
(0.00295817 -0.801292 -0.0481863)
(0.00505493 -0.486528 -0.0135591)
(0.0213895 -0.296368 -0.0969351)
(0.0208923 -0.135842 -0.367447)
(0.00572693 -0.12993 -0.270122)
(-0.0105101 -0.129053 -0.282064)
(0.000386554 -0.135663 -0.254118)
(-0.000188705 -0.139445 -0.22691)
(0.00286039 -0.126929 -0.257121)
(-0.000370147 -0.129354 -0.233526)
(-0.00388741 -0.130201 -0.23676)
(0.00782458 -0.126526 -0.27509)
(-0.0290719 -0.148308 -0.233999)
(-0.0495907 -0.272399 -0.151107)
(-0.00413404 -0.484766 -0.0135855)
(-0.00306571 -0.770499 -0.0520694)
(0.000358994 -0.825881 -0.0490423)
(-0.000191769 -0.819715 -0.054917)
(4.08761e-05 -1.08858 -0.0283245)
(0.00207253 -0.995464 -0.0213265)
(0.00428722 -0.821086 -0.0192767)
(0.00297857 -0.509673 -0.011406)
(0.00482996 -0.328208 -0.063836)
(0.00298265 -0.182779 -0.125951)
(0.00139872 -0.161162 -0.158631)
(-0.000148795 -0.160336 -0.164236)
(0.000302081 -0.162784 -0.164316)
(-0.00012536 -0.159732 -0.16422)
(-0.000466682 -0.153296 -0.166834)
(-0.000669612 -0.153377 -0.160591)
(-0.0010858 -0.15429 -0.157205)
(-0.00199709 -0.156306 -0.15488)
(-0.00414929 -0.177904 -0.12744)
(-0.00555779 -0.326068 -0.0762611)
(-0.00266011 -0.531616 -0.0149184)
(-0.00502247 -0.786088 -0.018827)
(-0.00187156 -0.839521 -0.0148145)
(0.00115709 -0.844362 -0.0179477)
(0.00378856 -1.06593 -0.0112008)
(0.00134412 -0.97101 -0.00946119)
(0.00411371 -0.797677 -0.00311334)
(0.00236604 -0.463228 0.00361056)
(0.00187759 -0.302995 -0.0611896)
(0.000343228 -0.169512 -0.146144)
(0.000745037 -0.148573 -0.188317)
(-0.00031004 -0.147161 -0.187752)
(-0.000121354 -0.152771 -0.182599)
(-0.000104678 -0.150783 -0.178508)
(-0.000397869 -0.141632 -0.185012)
(-0.000535137 -0.14548 -0.18477)
(-0.000320386 -0.148108 -0.181819)
(-0.0011196 -0.147989 -0.184145)
(-0.000916164 -0.171493 -0.148523)
(-0.00124966 -0.308763 -0.0737234)
(-0.00253103 -0.485031 -0.000849371)
(-0.00620938 -0.763577 -0.00339761)
(-0.00161434 -0.825437 -0.00148218)
(-0.00152979 -0.822122 -0.00224967)
(0.00103057 -1.08519 -0.0134823)
(0.00224694 -0.977658 -0.0108573)
(0.0049611 -0.819003 -0.00613312)
(0.00464881 -0.470463 0.00152695)
(0.00478829 -0.291287 -0.0626269)
(0.000700462 -0.167225 -0.14292)
(0.000633749 -0.147819 -0.183972)
(-0.000182804 -0.146494 -0.182089)
(-0.000120117 -0.15235 -0.177259)
(-9.69601e-05 -0.150198 -0.175105)
(-0.000167112 -0.141546 -0.179722)
(-0.000233098 -0.145556 -0.178817)
(-0.000202524 -0.146546 -0.178246)
(-0.001059 -0.145363 -0.181474)
(-0.001125 -0.167378 -0.147114)
(-0.00425395 -0.300151 -0.0743751)
(-0.00409986 -0.485865 -0.0014551)
(-0.00765029 -0.783572 -0.00463879)
(-0.0023514 -0.8449 -0.00146887)
(0.00135292 -0.839167 -0.00432716)
(0.002001 -1.09237 -0.0134417)
(0.00164066 -0.974492 -0.0103184)
(0.00435751 -0.823026 -0.00448234)
(0.00358634 -0.456926 0.00356636)
(0.00328099 -0.262399 -0.0632272)
(0.000824656 -0.153694 -0.150445)
(0.00071434 -0.138021 -0.18922)
(-9.36567e-05 -0.136824 -0.188091)
(-0.000236749 -0.143647 -0.181651)
(-0.000110163 -0.14221 -0.178872)
(-0.000123802 -0.132524 -0.184366)
(-0.000109353 -0.137633 -0.182282)
(5.9957e-05 -0.138062 -0.182173)
(-0.000727616 -0.13586 -0.186606)
(-0.000969405 -0.154762 -0.152619)
(-0.00330834 -0.276415 -0.0761304)
(-0.00344811 -0.465092 0.000560755)
(-0.00712109 -0.787194 -0.00288315)
(-0.00201358 -0.855715 -0.000796621)
(0.0012424 -0.841324 -0.00367706)
(0.000611114 -1.10145 -0.0134384)
(0.00141211 -0.971904 -0.00898978)
(0.00438717 -0.837058 -0.00486059)
(0.00504891 -0.453698 0.00435532)
(0.0052998 -0.236084 -0.0601235)
(0.00126398 -0.142387 -0.149135)
(0.000916373 -0.128974 -0.186801)
(0.000129304 -0.12682 -0.185629)
(-0.00014349 -0.13474 -0.178532)
(-1.9721e-05 -0.134737 -0.175867)
(-9.39985e-06 -0.125534 -0.180761)
(0.000168745 -0.130338 -0.178565)
(0.000416823 -0.129457 -0.179613)
(-0.000260801 -0.126272 -0.185378)
(-0.000720601 -0.143966 -0.151977)
(-0.00550075 -0.254041 -0.0737157)
(-0.0047109 -0.454986 0.00188526)
(-0.00674608 -0.798094 -0.00245117)
(-0.00156661 -0.868897 -0.000969535)
(0.00101012 -0.846652 -0.0035702)
(-6.34214e-05 -1.10721 -0.0139618)
(0.000996903 -0.968763 -0.00747855)
(0.00377162 -0.850932 -0.00438054)
(0.00524895 -0.449599 0.00574656)
(0.00394539 -0.184165 -0.0505619)
(0.00189044 -0.118658 -0.143446)
(0.00103538 -0.109325 -0.178056)
(0.000187173 -0.106572 -0.176868)
(-0.00030884 -0.113535 -0.167405)
(-7.71361e-05 -0.114965 -0.16368)
(0.000301702 -0.108015 -0.170219)
(0.000775546 -0.112738 -0.166771)
(0.00106592 -0.111469 -0.168691)
(0.000526691 -0.107802 -0.176166)
(-0.000689736 -0.121391 -0.145692)
(-0.00488424 -0.206775 -0.0647906)
(-0.00513016 -0.445639 0.00354653)
(-0.0063725 -0.809736 -0.00221817)
(-0.00134148 -0.879256 -0.000538742)
(0.00102384 -0.847279 -0.00265189)
(-0.00051021 -1.11045 -0.0131611)
(0.000534063 -0.965238 -0.00541293)
(0.00312709 -0.867963 -0.0046662)
(0.00551691 -0.454551 0.0066756)
(0.00104758 -0.119017 -0.00638847)
(-0.00146418 -0.074967 -0.100824)
(0.000835889 -0.0689127 -0.128061)
(5.85325e-05 -0.0644221 -0.125775)
(-0.000714065 -0.0702517 -0.116204)
(0.000130895 -0.0730015 -0.111567)
(0.000463349 -0.0695547 -0.117617)
(0.000631255 -0.0724789 -0.113488)
(0.00133591 -0.0702905 -0.115976)
(0.000548523 -0.0685993 -0.126021)
(0.00225705 -0.0775038 -0.10212)
(-0.00131171 -0.140407 -0.0201257)
(-0.00541957 -0.447255 0.0047253)
(-0.00561243 -0.820151 -0.00270793)
(-0.001375 -0.889194 -0.000238348)
(0.00151214 -0.847914 -0.0019028)
(-0.000446782 -1.11347 -0.0120433)
(0.000287426 -0.96223 -0.00392699)
(0.0025772 -0.884905 -0.00586627)
(0.00299773 -0.466636 0.00321888)
(0.00217227 -0.0789859 0.00768814)
(0.000446213 -0.0369279 0.00457212)
(0.000304194 -0.0342492 0.00481202)
(0.000131999 -0.0264376 0.00457547)
(0.000239361 -0.0329886 0.00518927)
(-0.000113971 -0.0336791 0.00539069)
(2.28433e-05 -0.0267754 0.00506602)
(0.000177914 -0.0328557 0.00535226)
(-4.78675e-05 -0.0322563 0.00516684)
(-0.000339285 -0.0327527 0.00491486)
(-0.000565544 -0.0404112 0.00497025)
(-0.00251089 -0.0784211 0.00886707)
(-0.00292696 -0.455725 0.00199805)
(-0.00454625 -0.827084 -0.00281296)
(-0.000548803 -0.897705 -0.000104745)
(0.00170895 -0.846488 -0.00138905)
(-0.00113702 -1.11496 -0.00932513)
(0.000278815 -0.959433 -0.00181844)
(0.0025211 -0.900132 -0.00641668)
(0.00272433 -0.47078 0.00119916)
(0.00112653 -0.0803513 0.000578243)
(-0.000286544 -0.0423153 -2.42031e-05)
(9.34613e-05 -0.0296404 0.000122569)
(8.52959e-05 -0.0279793 0.000265732)
(-0.000114455 -0.026119 0.000551852)
(0.000139399 -0.0267793 0.000501109)
(-1.60868e-05 -0.0280057 0.000287543)
(-0.000135517 -0.0265911 0.000367182)
(-2.45295e-05 -0.0258512 0.000403236)
(-0.000138242 -0.0270447 0.000308218)
(-3.52391e-05 -0.0367992 -0.000163873)
(-0.00057098 -0.0836034 -0.000258642)
(-0.00221616 -0.454883 0.000476507)
(-0.00393325 -0.833231 -0.0032014)
(-0.000361016 -0.904711 -5.66779e-05)
(0.00174058 -0.842525 -0.000446093)
(-0.0014796 -1.11438 -0.00688589)
(0.00019246 -0.955743 -0.000320504)
(0.00271901 -0.914685 -0.00667362)
(0.00304598 -0.469735 0.00152092)
(0.000676023 -0.072836 0.000408752)
(-0.000370473 -0.0394335 4.77691e-05)
(-6.75306e-05 -0.0382761 -0.00115807)
(2.65561e-05 -0.0251384 0.00014524)
(-9.14476e-05 -0.0306315 -0.000664984)
(0.000177325 -0.0319795 -0.000652247)
(2.04329e-05 -0.0250357 0.000158566)
(-9.33752e-05 -0.0327756 -0.000740622)
(-3.3136e-05 -0.0316209 -0.000682146)
(4.78102e-05 -0.0335885 -0.000777881)
(0.000310337 -0.0475818 -0.00110498)
(0.000632358 -0.0904199 -0.00146129)
(-0.00262326 -0.447283 0.000887308)
(-0.00360509 -0.837831 -0.00344387)
(-0.000655437 -0.907099 0.000219998)
(0.00134519 -0.834458 0.000395439)
(-0.00385665 -1.11458 -0.00504037)
(0.000823579 -0.955089 0.000900524)
(0.00301805 -0.931008 -0.0075288)
(0.00297312 -0.469281 0.00110284)
(0.000795964 -0.0693132 0.000346684)
(-6.50839e-05 -0.0406645 -6.10717e-05)
(-0.000169888 -0.040389 -0.000293595)
(-7.10628e-05 -0.0259151 -0.000111518)
(0.000130269 -0.0309326 -0.000261316)
(-4.84052e-05 -0.0310534 -0.000171721)
(6.29388e-05 -0.0254065 -1.81804e-05)
(0.000159002 -0.0317132 -0.000105941)
(-1.97402e-05 -0.0305717 -0.00010401)
(8.05277e-05 -0.0330825 -0.000147198)
(0.000247706 -0.0450435 2.60351e-05)
(-7.27561e-05 -0.0804981 0.000462689)
(-0.00209852 -0.438355 0.00147997)
(-0.00273254 -0.840982 -0.00362847)
(-0.000977651 -0.907471 0.00140867)
(0.00231885 -0.82747 0.00132593)
(-0.00616229 -1.11432 -0.00543988)
(0.00120144 -0.954402 0.000987655)
(0.00271135 -0.946249 -0.00969911)
(0.00190371 -0.467127 0.00104744)
(0.000615235 -0.0643069 0.000464581)
(-0.00017834 -0.0394977 4.86278e-05)
(-0.000218618 -0.0412431 -0.000407013)
(-0.000141792 -0.0272957 -0.000314822)
(-4.90162e-05 -0.0339116 -0.00075003)
(3.48186e-05 -0.0339148 -0.000664997)
(9.68219e-05 -0.0256131 -0.000182542)
(-8.98906e-06 -0.0336701 -0.000377497)
(5.58663e-06 -0.0325974 -0.000387186)
(0.000115777 -0.0355008 -0.000412131)
(0.000261159 -0.0461553 -0.000163729)
(-0.000138454 -0.0784607 0.000400277)
(-0.00130327 -0.430954 0.00182478)
(-0.00167924 -0.842681 -0.00376064)
(-0.00135509 -0.905342 0.00264092)
(0.00235938 -0.816381 0.0022672)
(-0.00667118 -1.10875 -0.00576937)
(0.000762415 -0.950181 0.00136386)
(0.00183049 -0.95395 -0.010698)
(0.000541607 -0.464183 0.000312674)
(0.000581603 -0.0597552 0.000539001)
(-0.000123159 -0.0384503 0.000154768)
(-0.000129996 -0.0454326 -0.000311976)
(-0.000150472 -0.0310955 -0.000361788)
(-3.94557e-05 -0.0411748 -0.00099054)
(-2.30966e-05 -0.0403847 -0.000909099)
(1.04633e-05 -0.028425 -0.000246482)
(-2.56359e-05 -0.0371568 -0.000379494)
(9.03105e-05 -0.0362408 -0.000363933)
(0.000107618 -0.0390826 -0.000340292)
(0.000263386 -0.0476521 -0.00010564)
(2.48718e-05 -0.073631 0.000552243)
(-0.000143945 -0.422844 0.00176744)
(-0.000613123 -0.840665 -0.00362977)
(-0.00165416 -0.898438 0.00556847)
(0.00262851 -0.800977 0.00279507)
(-0.00752312 -1.08658 -0.00492904)
(0.00120111 -0.938258 0.000418946)
(0.000869594 -0.95822 -0.00930656)
(-0.000833944 -0.461378 -0.000429337)
(0.000491859 -0.0557315 0.000534754)
(-2.50462e-05 -0.0362636 0.000246994)
(-2.98557e-05 -0.0445036 6.12366e-05)
(-6.49159e-05 -0.0327064 -0.000109093)
(5.57315e-05 -0.0463875 -0.00056496)
(-0.000192474 -0.0453248 -0.000598559)
(-0.000144893 -0.029272 -0.000119217)
(-5.50294e-05 -0.0382211 -0.00048073)
(9.89421e-05 -0.0370502 -0.000438425)
(0.000125565 -0.0396032 -0.000295375)
(0.000228913 -0.0472444 -3.53906e-05)
(-6.40335e-05 -0.0703242 0.000599831)
(0.00128064 -0.414296 0.00195458)
(0.000828607 -0.832642 -0.00113486)
(-0.00173411 -0.886508 0.00892075)
(0.00266291 -0.774756 0.0035705)
(-0.00880551 -1.04146 -0.00533822)
(0.00208945 -0.912203 -0.000573476)
(-6.68905e-05 -0.957718 -0.0067346)
(-0.00214671 -0.456733 -0.00033592)
(0.000415695 -0.0531602 0.000472031)
(4.16966e-05 -0.0346067 9.59565e-05)
(0.000134261 -0.0434122 0.00030867)
(3.44896e-05 -0.0325093 0.000138893)
(0.000156965 -0.0460774 0.000119349)
(-0.000265943 -0.0458051 6.9941e-05)
(-5.53782e-05 -0.0299272 1.9719e-05)
(0.000102622 -0.0427249 -0.000299945)
(-8.08916e-05 -0.0414946 -0.000402755)
(2.65707e-06 -0.0424098 -0.000252234)
(0.00020759 -0.0472213 -0.00010636)
(0.000163459 -0.0674867 0.0006442)
(0.00245317 -0.405171 0.00257925)
(0.00210018 -0.818753 0.00119202)
(-0.00135849 -0.864376 0.0119908)
(0.00203163 -0.733919 0.00283575)
(-0.00720698 -0.973088 -0.0083927)
(0.00156714 -0.866985 -0.00360536)
(-0.00125871 -0.950772 -0.00508605)
(-0.00288436 -0.452411 5.9658e-06)
(0.00018169 -0.0520325 0.000179501)
(0.000141463 -0.0355169 -0.00031085)
(0.000162126 -0.040357 0.00132817)
(5.08302e-05 -0.0309073 0.000162713)
(0.000284416 -0.042859 0.00146875)
(-0.000298274 -0.0425607 0.00143868)
(4.44144e-05 -0.0297368 6.25525e-05)
(0.000129381 -0.0411345 0.00113225)
(-0.000303688 -0.041906 0.000660756)
(-0.000141919 -0.0431557 0.000478284)
(0.000228247 -0.0489709 0.00039179)
(0.000274364 -0.0652353 0.00157213)
(0.00329058 -0.394064 0.00354956)
(0.00304627 -0.799707 0.00228482)
(-0.000410864 -0.831776 0.014438)
(0.00169591 -0.675095 3.50472e-05)
(-0.00276745 -0.87604 -0.00846376)
(0.000714119 -0.800304 -0.00742255)
(-0.00291794 -0.937171 -0.00267926)
(-0.00386539 -0.446317 0.0015397)
(-0.00126175 -0.055863 -0.000745467)
(-0.000209872 -0.0406445 -0.00132123)
(0.000119975 -0.0325674 0.000775478)
(6.09734e-05 -0.0306745 -0.000296893)
(0.000108085 -0.0334681 0.00104221)
(-0.000110318 -0.0336166 0.000981133)
(-4.72234e-05 -0.0300351 -0.000376594)
(-0.000146149 -0.0335318 0.000733835)
(-3.11761e-05 -0.0401598 -0.000541131)
(7.04379e-05 -0.0458084 -0.00126568)
(0.000294978 -0.0537008 -0.00164909)
(0.00130916 -0.0649487 -4.32552e-05)
(0.00332515 -0.382184 0.0055535)
(0.00404593 -0.774018 0.00549887)
(0.000338062 -0.784725 0.0164068)
(-7.54311e-05 -0.592826 -0.00221204)
(-0.00129366 -0.826811 -0.00624771)
(-0.000619411 -0.767158 -0.00532005)
(-0.00329966 -0.925537 -0.0026012)
(-0.00467899 -0.438772 0.00144268)
(-0.00423292 -0.0711511 -0.000474754)
(-0.000527706 -0.0594264 -0.000812397)
(-0.00023737 -0.0384645 -0.000311514)
(-7.01944e-05 -0.0362297 -0.000363502)
(-0.00010319 -0.0373627 -0.000212639)
(0.000140313 -0.0380496 -0.000248664)
(5.69294e-05 -0.0362783 -0.000404902)
(0.000201277 -0.0401277 -0.000360174)
(0.00033101 -0.0629248 -0.00124169)
(0.000303882 -0.0782294 -0.00161487)
(0.000255191 -0.0936975 -0.00172175)
(0.00321782 -0.0901221 -0.00102708)
(0.00280342 -0.374035 0.00595967)
(0.00315112 -0.752703 0.00538635)
(0.000689573 -0.753706 0.00914737)
(0.000322938 -0.545742 -0.00131181)
(-0.251062 -0.958425 -0.455406)
(0.0350242 -0.950385 -0.455021)
(0.105152 -0.791115 -0.413221)
(0.160118 -0.572878 -0.290878)
(0.175217 -0.382467 -0.192727)
(0.165192 -0.268313 -0.214666)
(0.112734 -0.190342 -0.177008)
(0.0557023 -0.170704 -0.178337)
(0.0292987 -0.164493 -0.186318)
(0.00342639 -0.163181 -0.175954)
(-0.00597492 -0.165189 -0.180405)
(-0.0384838 -0.176948 -0.161011)
(-0.0782283 -0.167923 -0.158567)
(-0.114437 -0.18681 -0.174356)
(-0.166654 -0.244138 -0.178803)
(-0.185863 -0.363844 -0.200391)
(-0.131631 -0.559581 -0.269359)
(-0.0703054 -0.730387 -0.377453)
(-0.00988241 -0.805704 -0.383727)
(0.222326 -0.78614 -0.386329)
(0.00207865 -1.05539 -0.0727041)
(8.49083e-05 -0.997469 -0.0659523)
(0.00441288 -0.813745 -0.0474199)
(0.00755838 -0.51092 -0.0155937)
(0.0234511 -0.294122 -0.0984206)
(0.0213548 -0.13418 -0.368613)