/*--------------------------------*- C++ -*----------------------------------*\
| =========                 |                                                 |
| \\      /  F ield         | OpenFOAM: The Open Source CFD Toolbox           |
|  \\    /   O peration     | Version:  2.3.0                                 |
|   \\  /    A nd           | Web:      www.OpenFOAM.org                      |
|    \\/     M anipulation  |                                                 |
\*---------------------------------------------------------------------------*/
FoamFile
{
    version     2.0;
    format      ascii;
    class       volScalarField;
    location    "0.086";
    object      p;
}
// * * * * * * * * * * * * * * * * * * * * * * * * * * * * * * * * * * * * * //

dimensions      [1 -1 -2 0 0 0 0];

internalField   nonuniform List<scalar> 
545
(
-9.44169e+07
-1.73073e+07
-2.22796e+06
-2.94483e+06
-1.00097e+07
6.81222e+07
-3.43021e+06
-2.64941e+06
-2.82703e+06
-8.11848e+06
1.18372e+08
4.36476e+06
-318374
-377822
-8.52744e+06
6.87176e+07
-3.64462e+06
-2.09645e+06
-57516.4
-7.61139e+06
-1.08659e+08
-2.65517e+06
-427944
5.09176e+06
1.38988e+07
-8.20992e+06
-2.06663e+06
-806462
-1482.91
121882
131095
113909
102474
95947.6
90539.9
88459
84934.4
83653.5
80204
79162
75912.2
75290.1
72454.8
72465.5
70005
70571.8
68512.7
69586.3
67747.2
68925.2
66884
67687.2
64957
65196.4
61886.1
61696.3
58126.9
57979.5
54399
54357
50743.9
50612.7
46485.2
45557.7
39904.7
37035.5
29061.9
23685.8
14575.2
10166
-7.22376e+06
-1.25445e+06
-757548
-140363
712.175
68030.1
85994.6
92359
91850.1
90071.3
87644.1
85520.8
83015.1
80848.1
78433.8
76570.1
74523.7
73161.7
71656.3
70750.7
69740.7
69315
68731.2
68629.9
68057.8
67804.4
66789.7
65890.3
64230.8
62823
60706.3
59064.2
56991.3
55391.1
53374.6
51798.1
49622.1
47593.1
44580.1
41078.4
36097.2
30187.4
22384.4
14484.5
4264.39
-8.48958e+06
-567913
-425674
14603.9
42732.7
73195.5
84140.6
90461.1
91233.9
89275.6
87777.7
85077.4
83371
80432.6
78825.4
76129.6
74940.4
72709.3
72123.9
70286.6
70238.5
68831.5
69255.8
68141.8
68587.2
67294.5
67324.5
65324.1
64759.6
62231
61260.1
58464.5
57604.6
54823.5
54008.2
51235.5
50257.6
46990.9
45234.9
40485.3
36763.1
29677.5
22840.5
14064.9
7712.4
-8.99082e+06
799751
246338
288656
131848
98175.2
89943
92167.8
90957.4
89426.8
87137.6
85454.6
82885.1
80901.8
78306.9
76674.1
74377.9
73291.8
71594
70914.1
69682.3
69462
68652.8
68816.7
67910.9
67976
66622.7
65971.7
63990.8
62966.1
60468.8
59215.7
56891.5
55632.3
53294.1
52020.4
49478.3
47743.6
44398.8
41199.5
35961.3
30503.2
22068.5
13858.5
2369.26
-2.0543e+06
3.93123e+06
1.39779e+06
518163
167167
107240
93413.9
91576.8
90707.6
88625
87268.4
85021.8
83323.1
80435
78767.3
76261.4
74804.8
72843.5
72183
70427.5
70306.2
68869.8
69294
68249.8
68466.1
67390.8
67229.7
65231.8
64567.6
62381.5
61003
58585.5
57593.2
55048.4
54035.5
51312.5
50227.9
46868
45088.8
40289
36533.7
30040.6
22502.1
14079.7
6874.99
-1.6121e+07
5.59514e+06
2.26846e+06
663016
175268
104195
91915
93281.4
93005.6
92215.9
91311.6
88981.3
84887.8
81200.8
78842.6
80276.3
78803.5
76869.2
74666.2
74429.7
72671.3
70038.8
70783.3
71489.1
71167.3
70640.1
67560.9
65999.7
64573.5
67084.5
65744.3
62668.1
60311.8
59334.3
55834.9
52354.1
49374.5
48071.9
48039.9
46616.7
39152.3
32857.8
26912.3
17853.1
2775.53
-1.08666e+08
-2.66199e+06
-434110
5.08705e+06
1.38957e+07
6.871e+07
-3.65152e+06
-2.10251e+06
-62181.8
-7.61454e+06
1.18364e+08
4.35779e+06
-324290
-382398
-8.53065e+06
6.81147e+07
-3.43722e+06
-2.65513e+06
-2.83149e+06
-8.12166e+06
-9.44243e+07
-1.73143e+07
-2.23352e+06
-2.9492e+06
-1.00129e+07
-2.05544e+06
3.93116e+06
1.39717e+06
518110
166555
107348
92832.7
91685.8
90219.7
88831.7
86872
85288.9
82965.6
80784.9
78447
76615.4
74533.6
73220.1
71929.7
70810.6
70062.8
69272.5
69023.2
68589
68143.8
67660.8
66841.8
65482.1
64182.7
62627.9
60696.5
58883.5
57326.6
55375.1
53785.6
51650.9
49913
47127.8
44720.3
40419.1
36081.9
30200.4
22243.6
14454.4
6624.98
-8.99254e+06
799114
245449
288069
131023
97851.2
89242.1
91885.6
90404.9
89358
86783.3
85523.9
82636.7
81102.2
78159.4
76937.5
74303
73606.2
71553.3
71248.2
69656.7
69799
68572.7
69046.3
67707.1
68062.4
66295.5
65998.7
63665.3
63037.6
60262.6
59398.6
56776.7
55888.9
53213.3
52251.5
49284.9
47812.3
44020.5
41019.1
35393.6
30381.2
21921
14217.7
2249.07
-8.49163e+06
-569061
-426791
13571.2
41709
72429.8
83285.8
89813.2
90617
88949.2
87451.6
84964.3
83219.8
80499.5
78830
76317.6
75046.9
72971.7
72281.5
70581.6
70413.2
69111.4
69347.5
68273.5
68489.2
67215.9
67049.3
65150.9
64480.4
62138
61139
58541.1
57629.7
55011.5
54079.2
51369.6
50164.5
46879.3
44826.4
40000.4
36066.3
29240.4
22717.7
14349.5
7720.91
-7.22597e+06
-1.25593e+06
-758857
-141639
-518.216
66917.2
84930.7
91460.5
91126.3
89578.3
87283.9
85306.3
82884.6
80855.8
78506.3
76744.7
74727.2
73430
71923.2
71060.4
70027.2
69600.6
68919.3
68737.2
68005.1
67646.5
66512.5
65602.9
63937.4
62633.9
60601.5
59091.3
57082
55562.4
53522.9
51903.6
49573.5
47384.1
44112
40399
35257.5
29497.5
22131.4
14646.3
4345.8
-8.2122e+06
-2.06829e+06
-807876
-2865.78
120521
129768
112692
101433
95146.6
89958.7
88057
84667.2
83517.3
80186.6
79254.6
76090.1
75533.4
72740
72781.8
70337.6
70908
68815
69816
67858.7
68892.2
66703.3
67399.7
64620
64879
61651.5
61580
58134
58089
54570.4
54535.1
50848.7
50579.4
46241.9
45051.1
39141.1
36111.6
28224.8
23269
14554
10193.3
)
;

boundaryField
{
    AirInlet
    {
        type            calculated;
        value           uniform -1.61173e+07;
    }
    WaterInlet
    {
        type            calculated;
        value           nonuniform List<scalar> 10(-9.44169e+07 6.81222e+07 1.18372e+08 6.87176e+07 -1.08659e+08 -1.08666e+08 6.871e+07 1.18364e+08 6.81147e+07 -9.44243e+07);
    }
    ChannelWall
    {
        type            calculated;
        value           nonuniform List<scalar> 
110
(
-1.08659e+08
-2.65517e+06
-427944
5.09176e+06
1.38988e+07
-1.08666e+08
-2.66199e+06
-434110
5.08705e+06
1.38957e+07
-9.44243e+07
-1.73143e+07
-2.23352e+06
-2.9492e+06
-1.00129e+07
-8.2122e+06
-2.06829e+06
-807877
-2865.83
120521
129768
112692
101433
95146.6
89958.7
88056.9
84667.2
83517.2
80186.5
79254.5
76090.1
75533.3
72740
72781.8
70337.6
70908
68815
69815.9
67858.6
68892.1
66703.3
67399.6
64619.9
64879
61651.5
61579.9
58134
58089
54570.3
54535
50848.6
50579.3
46241.9
45051
39141
36111.6
28224.8
23269
14553.9
10193.3
-9.44169e+07
-1.73073e+07
-2.22796e+06
-2.94483e+06
-1.00097e+07
-8.20992e+06
-2.06663e+06
-806462
-1482.86
121882
131095
113909
102474
95947.6
90539.9
88459.1
84934.4
83653.6
80204
79162
75912.2
75290.1
72454.9
72465.6
70005
70571.8
68512.8
69586.3
67747.3
68925.2
66884.1
67687.3
64957.1
65196.5
61886.2
61696.4
58126.9
57979.5
54399
54357
50743.9
50612.8
46485.2
45557.7
39904.7
37035.6
29061.9
23685.8
14575.3
10166
)
;
    }
    Outlet
    {
        type            calculated;
        value           nonuniform List<scalar> 
11
(
-0.044145
-0.132435
-0.220725
-0.308996
-0.395466
-0.394194
-0.580985
-0.671943
-0.760274
-0.848565
-0.936855
)
;
    }
    FrontAndBack
    {
        type            empty;
    }
}


// ************************************************************************* //
