/*--------------------------------*- C++ -*----------------------------------*\
| =========                 |                                                 |
| \\      /  F ield         | OpenFOAM: The Open Source CFD Toolbox           |
|  \\    /   O peration     | Version:  2.3.0                                 |
|   \\  /    A nd           | Web:      www.OpenFOAM.org                      |
|    \\/     M anipulation  |                                                 |
\*---------------------------------------------------------------------------*/
FoamFile
{
    version     2.0;
    format      ascii;
    class       volScalarField;
    location    "0.81";
    object      epsilon.air;
}
// * * * * * * * * * * * * * * * * * * * * * * * * * * * * * * * * * * * * * //

dimensions      [0 2 -3 0 0 0 0];

internalField   nonuniform List<scalar> 
6000
(
119.865
17.7728
11.2082
10.6969
11.2898
10.9286
10.1632
10.171
10.4476
10.6039
10.389
10.2815
10.3996
11.2973
11.679
10.6366
9.97872
9.59603
9.45823
9.33967
9.30725
9.34083
9.48629
9.81061
10.3754
10.9582
11.0752
12.2098
21.1259
119.943
66.7557
21.9993
14.1182
13.188
14.0538
13.7991
13.7416
14.0696
14.1847
13.4987
13.646
13.9841
13.9268
14.0196
14.1641
12.5525
11.7771
11.789
11.8179
11.4097
11.2441
11.2572
11.425
12.1601
13.8166
15.3603
16.1208
17.8652
28.9317
63.7238
42.609
19.836
14.2197
13.1769
13.2214
13.2002
13.0208
12.9768
12.9426
12.7034
12.744
12.9582
13.1415
13.4098
13.6507
13.4833
13.1704
13.2347
12.5024
12.109
11.9972
12.0065
12.0976
12.5212
13.43
14.4846
15.4588
17.775
25.6298
41.4462
36.4183
16.9742
13.6768
12.745
12.4414
12.2569
11.986
11.8885
11.8262
11.7556
11.8336
12.0571
12.4161
12.9473
13.671
14.2263
13.6398
13.8329
13.1116
12.8373
12.6422
12.5614
12.5949
12.9209
13.4744
13.9863
14.7137
16.694
21.6574
34.6662
29.9678
15.1792
13.1014
11.9862
11.6149
11.326
11.0972
11.019
11.0024
11.0355
11.1761
11.4673
11.9705
12.7773
14.0027
15.0134
14.3284
14.5527
13.6916
13.5869
13.4231
13.317
13.3139
13.6091
13.8871
14.0454
14.3706
15.7049
19.6145
34.0228
25.4687
14.4105
12.1428
11.2288
10.8064
10.5431
10.4042
10.3723
10.4153
10.529
10.7483
11.1293
11.7753
12.8341
14.4977
15.6924
15.2026
15.3192
14.4988
14.4835
14.3417
14.161
14.0749
14.2324
14.4056
14.3573
14.4653
15.4095
18.9059
34.9328
22.8674
12.6926
11.0309
10.496
10.1226
9.93127
9.86382
9.89202
10.0079
10.2095
10.519
11.0005
11.7744
13.0069
14.9322
16.2189
16.139
15.7134
15.2689
15.2954
15.0523
14.6347
14.4956
14.6431
14.7409
14.7162
14.7949
15.519
18.86
36.6634
22.0225
11.4474
10.1936
9.84872
9.57479
9.44898
9.44183
9.54321
9.75519
10.0475
10.4512
11.0261
11.883
13.2108
15.2371
16.5531
16.9118
16.0101
15.8593
15.8304
15.1774
14.5227
14.3324
14.6197
14.9153
14.8709
15.0158
15.8021
19.1909
40.0653
21.7371
10.7924
9.5862
9.36837
9.20226
9.12378
9.16386
9.34126
9.63948
10.0146
10.4949
11.1522
12.0817
13.3818
15.2312
16.5776
16.9087
16.1891
16.3479
15.9401
15.0752
14.4201
14.1623
14.3222
14.8276
14.8753
14.9671
16.0408
19.9865
43.9816
20.812
10.2768
8.99863
8.9559
8.91344
8.94987
9.06924
9.30103
9.64874
10.0793
10.6296
11.3519
12.3
13.484
15.0292
16.2677
16.4732
16.31
16.6078
15.9757
15.2505
14.7144
14.4151
14.3403
14.4296
14.5604
14.577
15.8052
20.1792
43.8488
18.3343
9.8039
8.57423
8.54579
8.70471
8.88796
9.15223
9.38694
9.73968
10.2059
10.8205
11.585
12.5016
13.5265
14.7342
15.7811
16.0738
16.5326
16.822
16.4717
15.9833
15.5525
15.2629
15.1036
14.8397
14.2005
13.7393
14.9205
19.4866
40.8407
16.6706
9.73194
8.55896
8.35896
8.53436
8.84609
9.3351
9.58871
9.91591
10.3755
10.9902
11.7837
12.6832
13.6083
14.594
15.5258
16.0602
16.97
17.5761
17.7374
17.4254
17.0226
16.7765
16.7459
16.4554
15.208
13.7064
13.7188
17.1959
32.8068
17.0518
10.0166
8.88596
8.57038
8.52046
8.87195
9.45989
9.91124
10.1951
10.654
11.2714
11.9804
12.8311
13.7253
14.6259
15.5987
16.4671
17.936
19.4261
19.966
19.6727
19.1106
18.7993
18.8631
18.7626
17.1477
14.9126
14.1166
16.1908
26.1073
19.7707
10.9149
9.5908
9.18381
8.93399
9.07287
9.7355
10.4362
10.8029
11.2156
11.7825
12.4446
13.1394
13.9623
14.8915
16.151
17.7961
20.5281
22.8238
23.4656
22.8119
21.6882
20.9634
20.8634
20.7602
19.3152
17.5155
16.5325
18.0774
28.8443
25.3646
12.316
10.5816
10.1367
9.88666
9.84986
10.4546
11.3133
11.8697
12.3557
12.8647
13.4261
14.0287
14.8004
15.9001
17.6863
20.7822
25.3009
28.254
28.5384
26.9055
24.503
22.5507
21.9593
20.6694
19.0229
17.6493
17.3248
19.3504
31.5594
30.5737
14.1392
11.9623
11.454
11.2837
11.4127
12.0412
12.8825
13.5855
14.2663
14.94
15.4653
15.9792
16.871
18.3115
20.8408
25.6181
32.0938
35.8086
35.2992
31.8835
27.1453
23.2823
21.0036
19.1258
17.6403
16.6992
16.5247
18.2836
28.3289
36.67
16.7868
13.909
13.2595
13.1945
13.5347
14.2908
15.2164
16.1276
17.0933
18.0866
18.8077
19.329
20.438
22.3983
25.7189
31.7242
40.0338
44.3501
42.7885
36.8178
29.1888
23.5457
20.017
17.7935
16.1956
15.1093
14.7055
15.6884
22.7104
51.3838
21.2623
16.5212
15.4729
15.5079
16.063
16.9852
18.1577
19.4715
20.9206
22.3785
23.3434
23.8777
25.2121
27.6321
31.6384
38.2294
48.1033
54.0495
49.7942
40.2235
30.4603
23.7124
19.7265
17.2266
15.3821
14.0481
13.3535
13.885
20.7761
70.495
26.5364
19.7495
18.1825
18.1983
18.7839
19.9165
21.45
23.3526
25.6079
27.8636
29.0188
29.4466
30.82
33.4407
37.4623
43.3111
51.1728
58.9879
54.5788
41.9954
31.3852
24.4813
20.1833
17.3771
15.3463
13.8111
12.8823
13.1326
21.3611
84.6638
34.2633
24.1782
21.4351
21.0015
21.5687
22.9215
24.8664
27.3915
30.5524
33.6158
34.9751
35.5587
36.8541
38.9249
41.5171
44.7418
49.763
54.8429
53.4407
42.6962
32.9115
26.1387
21.47
18.22
15.8526
14.0948
13.0267
13.2676
23.5278
78.7452
35.9806
28.1316
24.892
23.8331
24.4764
25.9157
28.2788
31.1224
34.4996
37.7267
39.4072
39.7818
40.9575
42.0432
42.8627
44.6335
47.6997
50.9115
50.659
42.6672
34.5162
28.1834
23.3127
19.6776
16.9572
14.9216
13.7223
14.1971
27.6882
63.8153
34.1283
27.9681
26.8554
26.5675
27.1252
29.0332
31.794
34.8191
37.8204
40.4746
42.8086
42.0834
42.2848
42.8014
43.4662
44.6751
46.7993
49.3455
50.0985
43.3701
36.0686
30.1303
25.2523
21.3866
18.4046
16.2031
15.0004
15.8709
31.6577
52.0196
30.155
26.1427
26.0013
27.4614
29.6644
32.3955
35.5427
39.7246
42.4872
44.2122
45.7796
44.7493
43.903
43.7472
44.1134
45.0781
46.9355
49.469
50.7802
44.5892
37.6446
31.883
27.0469
23.1066
20.0081
17.7499
16.617
17.8902
35.4819
45.6817
26.7812
24.2991
24.858
27.0094
30.5911
35.3423
40.6607
45.9587
49.8455
50.1717
49.3184
48.1334
46.2184
45.2462
45.2033
46.0992
47.8683
50.617
52.386
46.14
39.2752
33.5236
28.692
24.7421
21.6357
19.4238
18.4353
20.1871
39.6556
42.8049
24.4728
22.9825
24.1082
26.645
30.654
36.6205
44.6626
53.3758
60.9267
60.6027
55.416
52.6958
49.9104
47.953
47.2372
47.8933
49.6663
52.6838
54.3765
47.9022
40.9786
35.1572
30.2899
26.3324
23.252
21.1232
20.3049
22.5432
44.0912
41.7895
23.0356
22.0826
23.565
26.3577
30.5478
36.7647
45.7468
57.4266
69.7189
73.4447
64.5206
57.9296
54.8752
52.2477
50.5558
50.569
52.2158
55.3252
56.6647
49.8304
42.7732
36.842
31.9161
27.9389
24.8786
22.8238
22.1631
24.8486
48.6486
40.4403
22.0857
21.2699
22.9314
25.9688
30.4039
36.9323
46.1882
57.9769
70.3281
78.5708
75.3088
65.0329
60.4382
57.8741
55.2523
54.2385
55.4622
58.4636
58.9139
51.7602
44.6054
38.5669
33.5826
29.5839
26.5375
24.5417
24.0215
27.1233
53.2852
37.3136
21.2246
20.4453
22.2769
25.6996
30.6605
37.7357
47.2154
58.229
68.636
77.1527
81.4535
73.6778
66.3663
63.5384
60.8761
58.8434
59.2419
61.6876
60.9104
53.4934
46.3433
40.2657
35.2581
31.2576
28.2322
26.2908
25.9023
29.4044
57.9922
31.2262
20.0779
19.9471
22.2216
26.2425
31.9725
39.7069
49.2149
58.8384
66.9554
74.4744
80.5415
81.529
74.4416
68.9747
66.5865
64.1204
63.4871
64.6036
62.1344
54.7577
47.8252
41.858
36.9039
32.945
29.9632
28.0831
27.8272
31.725
62.7712
28.7008
20.1766
20.6303
23.4988
28.2062
34.6097
42.7347
51.8959
60.3128
67.0194
73.4018
79.762
85.0337
84.4814
75.6005
71.8035
69.3916
67.8713
67.037
62.7318
55.7206
49.0949
43.3363
38.5181
34.6534
31.7452
29.9404
29.8239
34.1193
67.6308
34.6436
22.8073
23.386
26.5137
31.4618
37.9698
46.039
55.0352
63.2508
68.9752
74.3319
80.2145
86.8812
91.5817
83.1197
76.1765
73.4332
71.7768
69.2085
63.2403
56.7231
50.3755
44.8234
40.1738
36.4333
33.6172
31.8971
31.9246
36.6215
72.5995
53.0771
28.6475
27.8705
30.3955
34.9957
41.1762
49.1114
58.6104
67.6698
73.2496
77.1976
81.9158
87.7474
92.7961
90.0768
80.9693
76.3743
73.5234
69.4151
63.4672
57.572
51.6756
46.4121
41.9614
38.3532
35.6272
33.989
34.1576
39.2595
77.7319
70.2996
34.3254
31.7405
33.8394
38.0684
44.0436
52.1605
62.483
73.0873
79.0751
81.7062
84.6813
89.0362
94.4366
98.6721
87.6498
79.8437
74.3403
69.3703
63.747
58.2248
52.9394
48.1127
43.924
40.453
37.8066
36.2384
36.5383
42.0479
83.0932
82.8622
39.3815
35.1127
36.6744
40.7793
46.8328
55.1814
66.1515
78.8474
86.074
87.0256
88.0376
90.9672
96.9346
106.461
95.5692
85.1224
77.3142
70.9869
64.9844
59.4261
54.458
50.0194
46.0945
42.7597
40.1774
38.6569
39.0708
44.9864
88.726
93.2615
44.0302
38.6143
39.6933
43.6032
49.8194
58.2207
69.3499
83.3796
93.8992
93.2091
91.7153
93.2938
98.7027
108.595
103.095
90.9902
81.5595
73.9793
67.4628
61.7776
56.8193
52.4753
48.6512
45.3641
42.7806
41.2569
41.753
48.0819
94.7054
103.547
48.6914
42.33
43.1219
46.91
53.0927
61.3826
72.2314
86.1324
100.503
99.7625
95.8282
96.0721
100.21
108.474
110.329
97.7105
86.6272
78.0186
71.0254
65.1636
60.1214
55.6968
51.7763
48.3732
45.6613
44.0403
44.5571
51.2811
100.994
114.778
53.7587
46.3845
46.8498
50.5866
56.571
64.7575
75.0855
88.2292
103.73
106.209
100.502
99.5066
102.886
110.689
116.987
105.043
92.4708
82.9576
75.541
69.4906
64.3114
59.6989
55.5205
51.8222
48.8197
46.9752
47.4201
54.4955
107.771
128.008
60.0135
50.9142
50.8791
54.5341
60.4511
68.4209
78.2681
90.3797
105.189
111.836
105.85
103.863
107.013
114.903
121.436
111.45
98.6007
88.5933
80.924
74.7573
69.4263
64.5063
59.8776
55.6712
52.1853
49.9849
50.2341
57.5834
114.484
131.287
63.9667
56.0183
55.2004
58.7644
64.8015
72.7317
82.2761
93.4704
106.589
115.738
111.63
109.101
112.448
120.903
126.955
117.021
104.47
94.7068
87.1156
81.055
75.6284
70.2394
64.8541
59.8479
55.674
52.9581
52.7797
59.9897
123.034
143.099
69.084
59.5302
59.6382
63.2405
69.6674
78.0111
87.7003
98.3436
109.26
117.716
117.397
115.018
118.775
128.116
134.179
122.792
110.248
100.881
93.8898
88.5243
83.3409
77.1061
70.4618
64.2353
59.2179
55.8386
54.9987
63.0744
125.131
143.123
71.171
62.8291
63.4476
67.7996
75.0727
84.4609
95.2066
106.331
115.292
120.702
122.625
121.239
125.31
135.762
140.58
128.191
115.832
106.902
100.874
97.2839
92.8163
85.4393
76.5675
68.534
62.3886
57.9731
58.5173
67.2001
125.35
137.002
72.9878
65.135
67.1233
71.7984
80.3908
92.0892
105.414
118.521
126.102
128.597
128.716
127.973
132.402
143.891
147.571
134.395
121.866
112.941
107.805
106.3
103.416
93.7798
82.7514
72.1033
64.2467
61.3531
62.1219
70.7502
125.704
134.421
75.3731
67.2984
69.452
75.7412
84.2808
99.8693
118.568
134.306
142.322
144.741
141.977
137.531
142.065
154.089
156.24
142.179
128.526
118.887
113.76
112.544
109.351
99.9909
85.7331
74.11
67.1494
64.1436
64.4658
74.1134
134.611
140.924
78.7113
70.0123
71.9254
78.2274
88.5008
105.001
128.105
148.33
162.188
169.742
164.873
153.206
153.462
163.361
165.026
150.975
135.154
123.939
118.936
113.16
108.373
100.244
86.9198
76.3743
69.7369
66.4114
66.6997
77.0102
155.054
162.41
83.6229
73.5129
74.9194
80.9053
91.7384
108.19
130.818
155.308
175.516
189.39
182.805
168.92
163.884
168.829
172.335
159.317
140.518
127.924
119.822
112.733
106.565
97.9628
87.1707
78.1779
71.8569
68.2315
68.2327
78.9432
166.537
188.561
88.9035
77.4455
78.5525
84.4035
94.7101
110.362
130.63
155.706
178.508
190.099
183.355
173.267
169.478
172.909
177.486
165.215
144.132
129.07
119.655
112.923
105.883
96.6711
86.9636
79.0013
72.9331
69.061
69.1006
80.726
169.912
203.005
93.5807
81.2347
82.468
88.5477
98.3675
112.575
130.999
154.686
178.709
185.479
177.7
170.671
169.782
175.865
179.174
167.161
145.462
130.108
121.429
114.273
105.943
95.9145
86.5137
78.8937
72.926
69.2156
69.8104
82.078
171.536
211.286
98.732
85.1119
86.3535
92.9055
102.698
115.79
132.885
155.285
180.548
184.223
174.902
168.592
167.588
171.244
174.293
166.636
147.189
132.975
124.486
115.459
105.366
94.9137
85.7234
78.2395
72.5366
69.2249
70.1968
82.7747
173.042
220.4
103.945
89.4863
90.4082
97.2598
107.625
120.538
136.92
158.551
184.126
185.618
173.844
166.827
164.285
165.481
168.011
166.941
151.166
137.031
126.862
115.451
104.128
93.7228
84.8293
77.622
72.2089
69.1919
70.3765
83.1366
173.922
226.462
108.93
94.0503
94.9302
102.039
113.084
126.981
143.622
164.981
189.496
186.613
173.062
165.06
161.336
161.248
163.959
166.94
156.962
141.617
127.674
114.926
103.243
92.9926
84.3399
77.3186
72.1028
69.2702
70.622
83.4564
173.415
233.191
114.814
99.0857
99.9307
107.417
119.291
134.627
152.81
174.787
197.001
187.169
172.587
163.799
159.441
159.086
162.277
167.432
163.285
146.487
129.541
115.242
103.214
92.9314
84.3262
77.4042
72.3371
69.748
71.2623
84.0646
169.166
241.511
121.271
104.852
105.479
113.253
126.06
143.107
163.674
187.967
204.549
187.934
172.706
163.21
158.632
158.47
162.512
169.395
168.444
150.257
131.464
116.261
103.755
93.3382
84.7272
77.8932
73.0632
70.8559
72.0812
85.0687
168.75
267.089
129.43
110.877
111.154
119.316
132.89
151.766
175.374
201.011
205.108
188.129
173.133
163.261
158.578
158.699
163.595
172
171.43
152.178
132.818
117.28
104.597
94.1047
85.4679
78.6766
73.9064
72.1088
74.5325
89.1392
176.179
280.45
135.893
116.616
116.578
124.682
139.19
159.372
185.431
208.026
202.585
187.746
173.817
163.909
159.1
159.258
164.416
173.186
170.203
151.79
133.478
118.212
105.663
95.2095
86.4934
79.7034
75.6126
73.6634
76.0794
90.9281
184.029
298.084
143.894
122.277
121.653
129.807
144.244
165.461
192.203
208.031
200.155
187.437
174.888
165.335
160.301
159.834
164.224
171.876
166.324
150.035
133.55
119.208
107.128
96.8432
87.9111
81.5095
76.9614
74.8309
77.122
91.6784
193.843
323.883
151.527
127.284
126.074
134.023
148.391
169.376
195.089
206.133
199.023
187.712
176.382
167.278
161.884
160.487
163.778
168.697
162.919
149.093
134.243
120.786
109.239
99.1644
90.2647
83.0516
78.3122
76.1961
78.255
93.4313
200.587
340.803
156.636
130.825
129.125
136.794
150.796
170.77
193.691
204.736
198.931
188.468
177.981
169.324
163.645
161.459
163.775
166.236
161.489
150.294
136.489
123.174
112.142
101.352
91.9922
85.048
80.0918
77.5128
79.7086
95.9543
205.994
344.724
159.256
133.005
130.926
138.131
151.322
169.691
190.556
203.857
199.475
189.125
179.192
171.053
165.339
163.128
164.944
166.283
162.736
153.653
140.203
125.924
113.272
102.386
93.6124
86.6182
81.3072
78.6945
81.2882
98.4577
211.848
344.628
160.276
133.972
131.703
138.444
150.78
167.588
186.971
202.757
200.122
189.635
179.961
172.33
166.936
165.402
167.171
167.868
164.773
155.708
141.908
126.365
113.612
103.188
94.5527
87.4474
82.17
79.7407
82.6494
100.413
217.29
342.737
160.103
133.923
131.525
138.016
149.65
165.061
183.047
200.561
201.332
190.696
181.106
173.748
168.687
167.781
169.097
169.386
165.475
155.611
141.401
126.376
114.041
103.841
95.2267
88.1097
82.9278
80.6049
83.6182
101.789
221.6
339.496
159.108
133.203
130.678
136.902
148.106
162.703
179.887
198.466
203.832
193.55
183.818
176.228
171.128
170.157
170.347
169.768
165.454
156.273
142.368
127.558
114.988
104.666
95.9476
88.7951
83.5788
81.208
84.2726
102.789
224.678
335.667
157.5
131.992
129.46
135.514
146.505
160.921
178.046
197.988
208.285
199.449
189.239
180.759
174.949
173.227
172.071
170.63
166.805
158.593
145.268
129.932
116.65
105.81
96.7656
89.4341
84.0554
81.6515
84.7886
103.531
226.767
332.46
155.487
130.444
128.048
134.101
145.083
159.692
177.406
198.311
213.805
208.719
197.941
188.102
181.017
178.246
175.947
173.924
170.776
163.373
149.81
133.23
118.933
107.283
97.7171
90.0357
84.5253
82.0963
85.25
104.062
227.736
328.836
153.115
128.601
126.517
132.742
143.882
158.772
176.957
198.296
218.964
220.314
209.81
198.468
189.924
186.216
183.144
180.761
177.806
170.635
155.348
137.045
121.761
109.217
98.9795
90.9243
85.189
82.6413
85.7312
104.498
229
319.134
149.7
126.638
124.893
131.44
142.853
158.035
176.473
197.571
219.961
231.84
223.593
211.156
201.322
197.137
194
190.817
187.917
179.695
161.039
141.195
124.976
111.657
100.814
92.2241
86.128
83.3553
86.3086
105.156
231.222
285.092
142.59
124.075
123.191
130.208
142.015
157.57
176.293
197.416
220.5
240.901
238.521
225.243
213.961
209
206.85
203.428
200.8
188.728
166.435
145.734
128.755
114.755
103.158
93.9273
87.3605
84.2861
87.1661
106.017
231.445
272.76
140.046
121.252
121.469
129.119
141.458
157.598
176.983
198.935
223.443
248.491
254.542
240.018
226.764
220.747
219.375
217.692
214.545
196.249
171.977
151.016
133.422
118.548
106.044
96.0164
88.8583
85.4652
88.1176
104.053
216.666
246.486
136.535
121.104
120.298
128.306
141.246
158.285
178.914
202.433
228.693
256.379
270.559
254.265
238.844
232.443
232.369
233.579
226.83
203.026
178.584
157.532
139.23
123.237
109.538
98.4352
90.4503
86.5338
88.622
107.819
227.233
239.515
134.854
119.912
121.41
127.899
141.242
159.444
181.886
207.426
235.375
266.296
285.553
266.697
249.21
243.342
245.292
249.157
235.593
210.024
187.047
166.145
146.797
129.154
113.706
101.014
91.784
86.6951
89.2647
105.572
219.134
259.918
136.026
118.591
120.738
129.365
141.343
160.649
185.559
213.779
245.075
279.989
301.339
277.175
258.083
252.993
257.373
260.977
241.244
219.27
199.508
178.576
157.14
136.69
118.462
103.303
92.4935
87.9354
88.0734
100.909
194.227
301.784
138.906
119.4
120.117
129.115
143.225
162.058
190.526
223.316
258.847
296.591
313.796
285.923
267.075
262.013
266.65
265.541
247.251
233.244
219.105
197.186
171.484
146.067
123.202
104.702
94.3654
87.5745
85.5196
96.9286
177.088
308.336
138.236
119.67
121.007
129.381
144.426
165.306
197.525
236.981
278.421
314.129
317.957
292.877
277.565
272.826
273.757
266.713
257.763
253.885
247.17
224.864
190.031
156.502
126.478
105.978
94.6975
86.4645
83.6425
94.0626
168.264
303.308
139.145
119.926
122.552
132.117
147.036
170.188
207.404
255.836
304.081
327.4
316.065
299.938
290.7
285.788
278.752
273.817
275.976
279.192
274.338
252.85
210.819
165.277
127.894
107.678
94.7691
86.2894
83.0111
92.9344
169.511
285.984
137.723
120.69
124.277
136.426
152.951
177.756
219.857
280.951
333.895
332.202
314.215
305.034
298.66
293.101
285.736
288.193
292.9
290.297
280.651
263.268
217.63
166.436
129.483
108.984
96.4851
87.9724
84.2921
93.5567
182.348
274.456
137.195
120.924
125.634
139.853
160.213
187.439
231.399
297.224
343.654
327.19
308.719
300.352
292.362
287.162
283.752
285.192
282.653
273.055
263.999
251.128
210.428
163.528
131.882
113.368
100.641
91.082
86.8741
96.222
204.913
270.949
135.346
120.061
125.323
140.576
163.31
193.187
235.129
290.132
314.708
302.161
287.414
279.529
273.164
269.625
266.508
261.253
253.37
245.236
239.137
230.961
200.693
162.587
135.828
117.917
103.723
93.0804
88.791
99.6891
220.629
259.666
132.306
117.843
123.285
138.471
161.225
190.812
228.358
267.934
275.5
267.785
258.998
252.089
246.904
242.853
237.587
231.39
225.385
219.801
215.443
211.273
192.119
161.087
137.081
119.293
104.772
93.9908
89.7891
101.103
217.996
245.005
128.816
114.87
120.283
134.755
156.372
184.26
217.716
244.528
242.979
237.063
230.523
224.377
219.349
214.897
210.419
206.171
202.096
198.111
194.864
193.138
184.626
159.707
136.995
119.262
104.769
94.2362
90.237
101.469
209.366
251.011
125.701
111.847
116.924
130.599
151.062
177.637
207.904
223.068
216.647
210.849
204.96
199.329
194.633
190.704
187.304
184.523
182.052
179.59
177.544
177.028
176.531
159.461
137.584
119.492
104.868
94.5666
90.9738
102.582
201.279
266.481
123.881
110.089
114.055
126.759
146.209
172.345
199.167
202.34
194.305
188.192
182.62
177.567
173.383
170.02
167.422
165.657
164.469
163.476
162.888
163.352
166.705
160.655
140.315
121.121
105.849
95.7235
92.2101
103.108
206.236
254.047
123.617
109.441
112.742
123.568
141.903
166.594
187.555
182.828
174.851
168.648
163.326
158.78
155.074
152.224
150.218
149.142
148.88
149.102
149.87
151.427
155.103
158.127
144.805
124.672
108.083
97.8863
94.4747
105.218
215.365
249.595
126.349
109.914
111.941
121.872
138.521
161.928
172.078
165.175
157.621
151.537
146.54
142.426
139.168
136.747
135.189
134.564
134.878
135.871
137.567
140.034
143.63
148.021
145.521
128.514
110.96
100.687
97.6719
111.003
225.165
276.102
129.935
110.138
111.218
120.338
136.361
156.114
157.961
149.814
142.279
136.402
131.746
128.046
125.191
123.155
121.932
121.594
122.172
123.507
125.591
128.472
132.195
136.44
138.283
129.685
112.46
102.542
100.313
116.262
230.419
285.361
127.451
108.028
109.335
118.303
134.191
149.693
145.775
136.226
128.651
122.992
118.677
115.343
112.852
111.131
110.176
110.009
110.644
112.001
114.09
116.934
120.588
124.913
128.634
126.029
111.48
101.887
100.582
119.098
254.856
253.932
120.142
104.435
106.505
115.836
131.443
142.584
134.022
123.984
116.566
111.168
107.144
104.131
101.938
100.485
99.727
99.6533
100.235
101.456
103.346
105.928
109.291
113.581
118.53
120.19
108.405
98.564
96.6239
111.358
236.485
223.333
112.706
100.762
104.073
113.795
128.576
133.999
122.801
112.962
105.879
100.747
96.9903
94.2388
92.3021
91.0557
90.4543
90.4189
90.9071
91.9305
93.5511
95.7875
98.7582
102.721
107.988
112.404
103.636
93.621
90.1643
101.765
207.592
208.029
108.293
97.8722
102.134
112.569
126.14
124.73
112.426
103.073
96.3742
91.5387
88.0311
85.5248
83.8047
82.7444
82.2528
82.2328
82.6129
83.4323
84.7681
86.6448
89.1768
92.6211
97.4216
102.814
97.1473
86.8654
82.2686
91.5292
182.087
205.192
106.002
96.1544
100.852
111.605
122.773
114.982
102.881
94.1246
87.8663
83.3541
80.1218
77.8522
76.3483
75.4583
75.0805
75.0561
75.3262
75.9424
76.9909
78.5009
80.5758
83.3965
87.2827
91.9164
89.228
79.081
73.9356
81.474
151.867
207.12
105.2
95.8403
100.536
110.752
116.952
105.281
94.0437
85.9964
80.2214
76.0788
73.1425
71.1365
69.8582
69.1675
68.906
68.8937
69.0488
69.4456
70.1831
71.3146
72.9277
75.1115
77.9538
80.9799
79.6589
71.0846
66.4334
73.045
139.266
209.589
106.864
96.872
101.526
110.555
109.023
96.0951
85.9525
78.6413
73.3846
69.6345
67.0312
65.3145
64.3099
63.8586
63.7753
63.7828
63.803
63.9313
64.3124
65.0438
66.2008
67.818
69.8759
71.6738
69.9814
64.9311
62.1021
70.5967
150.453
215.266
110.393
99.222
103.664
109.812
100.31
87.8855
78.6941
72.069
67.3239
63.9959
61.7521
60.3744
59.7011
59.5702
59.7241
59.7992
59.6345
59.4094
59.3634
59.6581
60.3608
61.4945
63.0518
64.4526
62.8064
58.9133
57.8805
66.8672
146.116
217.811
110.65
102.179
107.045
106.741
92.7503
80.8294
72.334
66.2958
62.0497
59.1474
57.2983
56.3131
56.0397
56.3169
56.8362
57.0031
56.5976
55.907
55.3368
55.1351
55.3742
56.0787
57.2526
58.3155
56.6721
53.3417
52.8546
61.6473
134.7
199.733
108.115
104.432
111.343
102.289
86.2599
74.7602
66.8285
61.3259
57.5508
55.0843
53.6621
53.1165
53.3078
54.1058
55.0791
55.4272
54.7043
53.4274
52.2318
51.4646
51.2275
51.5321
52.3619
53.0542
51.2475
48.3631
48.2746
56.7577
124.517
182.37
103.259
103.1
111.237
96.5987
80.4091
69.4619
62.0949
57.1016
53.7931
51.7652
50.8014
50.7114
51.4336
52.8165
54.433
54.9529
53.7672
51.879
50.0262
48.6364
47.9021
47.8217
48.3374
48.6167
46.6116
44.1017
44.3045
52.5714
115.165
175.642
101.022
99.6507
104.998
89.4088
74.7516
64.7447
58.0162
53.5441
50.6931
49.1225
48.5972
48.9915
50.2533
52.2771
54.5786
55.3323
53.4871
51.0563
48.6467
46.6312
45.3756
44.9179
45.1217
44.9841
42.7749
40.5948
41.0276
48.999
106.51
176.701
96.831
96.7222
97.4641
82.6268
69.634
60.5892
54.5144
50.5452
48.1484
47.016
46.9157
47.7763
49.5707
52.2052
55.2725
56.3606
53.6803
50.7071
47.9405
45.3646
43.597
42.7745
42.677
42.0372
39.6422
37.7937
38.5506
46.4783
103.293
177.717
94.6289
94.2101
92.3508
77.5259
65.3969
57.0569
51.5239
48.0093
46.0293
45.289
45.5835
46.8767
49.1326
52.3033
56.0916
57.9431
54.4488
50.6767
47.6572
44.6966
42.4838
41.321
40.9103
39.6882
37.1716
35.6227
36.6863
45.0378
104.095
169.648
91.181
90.4724
88.8261
73.8698
62.0481
54.1198
48.9898
45.8394
44.2139
43.7984
44.439
46.0883
48.7425
52.3548
56.8489
60.0536
56.0594
51.0545
47.5984
44.4668
41.926
40.4835
39.7223
37.8948
35.2971
33.9432
35.1248
43.446
101.928
160.321
86.4158
86.0616
85.7985
71.22
59.429
51.7169
46.8392
43.9615
42.5992
42.4412
43.3458
45.2808
48.2271
52.1961
57.3414
62.7149
58.8651
52.1497
47.8616
44.6094
41.8904
40.2278
38.9991
36.482
33.8569
32.5417
33.3431
40.2087
90.0658
151.54
81.5108
81.109
82.8202
69.2377
57.4164
49.7691
45.0254
42.3082
41.1201
41.1344
42.2261
44.3459
47.5087
51.7395
57.3344
64.5057
62.8284
54.4394
48.7898
45.2307
42.3795
40.3754
38.3622
35.2685
32.6577
31.125
31.5521
37.6372
81.3618
142.523
76.4792
75.9403
79.5672
67.7832
55.9107
48.2347
43.5014
40.8468
39.7324
39.8427
41.0269
43.2476
46.5135
50.8881
56.5855
64.1727
67.3519
58.3022
50.7076
46.4715
43.339
40.6373
37.6233
34.1829
31.3929
29.6917
29.9966
35.6475
77.6355
134.18
71.7827
70.9619
76.1034
66.6195
54.8641
47.0675
42.2504
39.5531
38.4324
38.5541
39.7561
41.9827
45.2626
49.6445
55.2641
62.6804
70.3102
63.395
53.7426
48.1965
44.4158
40.6617
36.7393
33.0039
30.0715
28.374
28.7332
34.3978
76.0101
127.234
67.5514
66.2001
72.3076
65.8805
54.2657
46.256
41.2538
38.4318
37.227
37.2927
38.4354
40.6049
43.801
48.0908
53.5666
60.4789
68.884
68.228
57.621
50.2367
45.178
40.3356
35.7315
31.7539
28.8043
27.2514
27.7794
33.5536
76.6546
121.006
63.9004
61.9463
68.1773
65.2123
54.1603
45.7922
40.5259
37.4993
36.1461
36.0918
37.1213
39.1672
42.2203
46.314
51.535
57.9087
65.3162
69.5731
61.6505
52.3561
45.5946
39.7525
34.6695
30.5283
27.6395
26.3649
27.3698
32.2685
63.3176
116.057
60.9964
58.4217
64.3366
64.7249
54.4784
45.7198
40.0897
36.7954
35.2269
34.9998
35.867
37.7508
40.6109
44.4706
49.3769
55.3095
61.9859
67.3953
64.4507
54.4996
46.0541
39.2077
33.6506
29.3722
26.5959
25.7069
26.917
33.4307
66.9736
113.423
58.9748
55.7234
61.1417
64.2784
55.3831
46.0561
40.0072
36.3603
34.517
34.0653
34.7395
36.4258
39.0797
42.691
47.2775
52.8122
59.0613
64.5364
64.3131
55.4248
46.1825
38.5766
32.6329
28.2073
25.4593
24.396
26.108
31.6132
64.0519
114.142
57.7737
53.8105
58.6061
63.7802
56.7817
46.9295
40.2877
36.2401
34.0567
33.3393
33.7923
35.2695
37.7093
41.0844
45.376
50.5684
56.4371
61.8608
62.7578
55.1746
45.7292
37.6769
31.4496
26.8548
23.7292
22.9769
24.0455
28.3027
58.3391
116.249
57.0449
52.3574
56.4375
62.8355
58.6679
48.3788
41.023
36.4389
33.885
32.8597
33.0734
34.3344
36.5749
39.7387
43.7989
48.7067
54.2405
59.341
60.5582
54.0518
44.6924
36.5032
30.086
25.266
22.1841
21.4365
21.8414
25.495
52.9357
112.893
55.7731
51.0866
54.6221
61.2603
60.4937
50.4
42.2273
37.0099
34.0114
32.664
32.619
33.6706
35.7332
38.7343
42.6366
47.3764
52.6811
57.3831
58.1613
52.2814
43.2985
35.2046
28.7013
23.7018
20.9274
19.8133
19.9061
22.9089
46.134
108.084
54.2184
49.8713
53.1967
59.7257
62.1601
52.8999
43.8806
37.9815
34.4655
32.7647
32.4633
33.3156
35.2301
38.121
41.9476
46.6168
51.8092
56.0423
55.9397
50.0766
41.752
33.88
27.3969
22.6262
19.8245
18.4039
18.2767
20.6574
39.8803
105.706
53.4947
49.069
52.1978
58.619
63.698
55.9445
46.0165
39.3675
35.305
33.1837
32.6083
33.2939
35.0858
37.9173
41.7181
46.3945
51.4904
55.0912
53.8989
47.7482
39.945
32.4965
26.2668
21.727
18.7749
17.1969
16.8073
18.6307
35.0311
107.613
53.9292
49.0746
51.7504
57.8267
64.7348
59.3604
48.6594
41.2026
36.5482
33.9878
33.086
33.5683
35.2663
38.065
41.8707
46.5691
51.5664
54.322
51.7673
45.272
37.9398
30.9949
25.193
20.8444
17.8296
16.0627
15.4694
16.868
31.3167
115.372
56.0042
49.962
51.9921
57.5959
65.0981
62.9938
51.9209
43.5541
38.238
35.1981
33.962
34.2304
35.8136
38.5691
42.3825
47.1477
51.8968
53.4423
49.4882
42.8096
35.9065
29.5179
24.1636
20.0218
16.9884
15.044
14.2817
15.3617
28.2412
123.55
60.091
51.9324
52.9185
57.9862
65.3699
67.0059
55.9965
46.549
40.4531
36.866
35.2604
35.3091
36.793
39.5203
43.3825
48.2778
52.642
52.417
47.2568
40.604
34.082
28.1914
23.2288
19.2744
16.2584
14.1799
13.2259
14.0749
25.3853
128.907
64.4042
55.1223
54.5439
58.9135
66.1491
71.1651
60.9971
50.3442
43.3056
39.0756
37.0421
36.8532
38.2443
41.0151
45.0641
50.1807
53.7031
51.4536
45.4621
38.8652
32.6221
27.0879
22.4005
18.5962
15.629
13.4859
12.3869
13.0384
23.1992
142.13
71.2371
58.3422
56.5326
60.0029
67.3515
75.0266
67.0091
55.1438
46.9421
41.9178
39.3866
38.9515
40.3021
43.2441
47.7464
53.0986
55.1207
50.9251
44.2839
37.6509
31.5429
26.2095
21.6874
17.9859
15.0755
12.9375
11.7804
12.3681
22.3082
141.531
71.9408
60.3757
57.5773
61.0006
68.5922
78.4344
74.4016
61.3001
51.5238
45.4886
42.3687
41.6918
43.0807
46.3659
51.5832
56.9932
56.7761
50.7643
43.605
36.8442
30.7564
25.5065
21.0733
17.4383
14.5788
12.4884
11.3561
12.0299
22.5404
141.05
69.7163
59.5661
57.9124
60.8972
69.5059
80.9391
82.7135
68.9063
57.0967
49.8386
46.0555
45.1296
46.6508
50.4567
56.4909
61.2397
58.2787
50.7492
43.1483
36.2163
30.1126
24.8978
20.5217
16.9385
14.1265
12.0968
11.0353
11.8813
23.4431
139.655
66.595
56.8241
56.6232
60.5833
69.3463
82.4512
90.0278
77.4368
63.5797
54.968
50.4634
49.2911
51.0114
55.4603
62.1105
65.2013
59.3156
50.6899
42.6811
35.5894
29.4843
24.3085
19.9876
16.4626
13.7046
11.7365
10.7526
11.7741
24.4951
134.384
63.2902
53.6818
54.1171
59.2081
68.2898
82.2435
94.3445
86.1298
70.83
60.8423
55.5696
54.1415
56.0772
61.2531
68.1317
68.0683
59.7235
50.4864
42.1883
34.9953
28.8731
23.7242
19.456
15.9942
13.2984
11.3913
10.4734
11.6052
25.0375
123.091
59.4653
50.4423
51.3424
56.954
66.5047
80.6868
95.3754
94.1883
78.7266
67.3894
61.3336
59.6274
61.7381
67.6548
73.9002
69.8043
59.8809
50.2543
41.7725
34.501
28.3436
23.1953
18.9563
15.5431
12.904
11.0536
10.1917
11.3902
25.1124
107.38
54.8361
47.0253
48.474
54.4845
64.2616
78.227
94.5503
100.439
86.8853
74.452
67.6611
65.6667
67.9653
74.581
79.0178
71.1395
60.1437
50.1246
41.4683
34.1039
27.8992
22.7353
18.5065
15.1231
12.5261
10.7205
9.89795
11.1222
24.8389
91.4743
49.9896
43.5199
45.5678
52.0404
61.9845
75.5444
92.4681
103.938
94.6545
81.8024
74.3777
72.1321
74.8041
81.9796
82.976
72.2367
60.452
50.0727
41.2305
33.7626
27.5049
22.321
18.095
14.732
12.1653
10.3916
9.58946
10.7918
24.2205
76.7048
44.4066
39.9562
42.7644
49.738
59.7848