/*--------------------------------*- C++ -*----------------------------------*\
| =========                 |                                                 |
| \\      /  F ield         | OpenFOAM: The Open Source CFD Toolbox           |
|  \\    /   O peration     | Version:  2.3.0                                 |
|   \\  /    A nd           | Web:      www.OpenFOAM.org                      |
|    \\/     M anipulation  |                                                 |
\*---------------------------------------------------------------------------*/
FoamFile
{
    version     2.0;
    format      ascii;
    class       volVectorField;
    location    "0.81";
    object      U.airMean;
}
// * * * * * * * * * * * * * * * * * * * * * * * * * * * * * * * * * * * * * //

dimensions      [0 1 -1 0 0 0 0];

internalField   nonuniform List<vector> 
6000
(
(0.000600641 0.253414 0)
(0.0312407 0.220039 0)
(0.0567679 0.226872 0)
(0.0649949 0.224591 0)
(0.0574527 0.221135 0)
(0.0411546 0.218588 0)
(0.0345489 0.20438 0)
(0.0304437 0.197223 0)
(0.021972 0.197216 0)
(0.0134267 0.199697 0)
(0.0101036 0.20008 0)
(0.00286563 0.189114 0)
(-0.0064793 0.191748 0)
(-0.0198758 0.205676 0)
(-0.0291702 0.206586 0)
(-0.0228111 0.198457 0)
(-0.00793745 0.187056 0)
(-0.00135686 0.192379 0)
(-0.0100906 0.211812 0)
(-0.0199282 0.209523 0)
(-0.0249288 0.204809 0)
(-0.0256706 0.20999 0)
(-0.0181186 0.201197 0)
(-0.0110906 0.194887 0)
(-0.0120369 0.20187 0)
(-0.0239727 0.209978 0)
(-0.033063 0.223319 0)
(-0.0352397 0.237009 0)
(-0.0272483 0.223706 0)
(-0.00325072 0.249342 0)
(0.0267579 0.932312 0)
(0.0561046 0.943608 0)
(0.0761428 0.96131 0)
(0.0741454 0.989296 0)
(0.0699087 1.00342 0)
(0.0753058 1.00407 0)
(0.0756909 0.99967 0)
(0.0494299 1.01754 0)
(0.0193849 1.01839 0)
(0.00188741 0.997315 0)
(0.00790198 0.994375 0)
(0.00969248 1.01258 0)
(0.00192947 1.01255 0)
(-0.00491097 1.01158 0)
(-0.00928592 1.00312 0)
(-0.00992098 0.983814 0)
(-0.0105853 0.989269 0)
(-0.0194625 1.01565 0)
(-0.0243516 1.00326 0)
(-0.0292315 1.00553 0)
(-0.0315412 1.00383 0)
(-0.0383391 0.990137 0)
(-0.0409638 0.989076 0)
(-0.0496048 1.00384 0)
(-0.061656 1.01407 0)
(-0.072629 1.01251 0)
(-0.0681642 0.991248 0)
(-0.0539611 0.96366 0)
(-0.0355999 0.965147 0)
(-0.019311 0.927803 0)
(0.00679564 0.766301 0)
(0.037427 0.757888 0)
(0.047568 0.791175 0)
(0.0494681 0.830014 0)
(0.0605306 0.826862 0)
(0.0745409 0.836471 0)
(0.0722127 0.849381 0)
(0.0445024 0.877214 0)
(0.019586 0.865119 0)
(0.00924623 0.819757 0)
(0.0175547 0.814325 0)
(0.0264651 0.829251 0)
(0.0299922 0.842899 0)
(0.0186479 0.858569 0)
(0.00259805 0.847151 0)
(-0.0154554 0.825091 0)
(-0.0362964 0.822897 0)
(-0.0403838 0.837967 0)
(-0.0401839 0.840472 0)
(-0.0427414 0.829639 0)
(-0.0406588 0.818152 0)
(-0.0470046 0.82618 0)
(-0.0596055 0.822431 0)
(-0.0698685 0.843166 0)
(-0.0745805 0.84709 0)
(-0.0627099 0.82732 0)
(-0.0365894 0.811108 0)
(-0.0203775 0.793214 0)
(-0.0184031 0.798155 0)
(0.000322291 0.776422 0)
(0.00175093 0.763083 0)
(0.0159577 0.769258 0)
(0.0150215 0.811478 0)
(0.0340846 0.833627 0)
(0.0553169 0.829563 0)
(0.0675749 0.843221 0)
(0.0617321 0.881066 0)
(0.0411631 0.91306 0)
(0.0261332 0.897653 0)
(0.0200335 0.843056 0)
(0.0256397 0.828323 0)
(0.0356879 0.847613 0)
(0.0410242 0.86895 0)
(0.0251268 0.886046 0)
(-0.00259627 0.871757 0)
(-0.0280239 0.860555 0)
(-0.0461782 0.850088 0)
(-0.0516123 0.858025 0)
(-0.0537979 0.856925 0)
(-0.0488907 0.84823 0)
(-0.0504606 0.852249 0)
(-0.0608622 0.860123 0)
(-0.0717518 0.850304 0)
(-0.0784512 0.864529 0)
(-0.0700097 0.854076 0)
(-0.0467086 0.824756 0)
(-0.019128 0.813438 0)
(0.00199906 0.809588 0)
(-0.00718252 0.827028 0)
(-0.00194004 0.780232 0)
(0.00302568 0.754017 0)
(-0.00352024 0.755198 0)
(0.00888684 0.789076 0)
(0.0344103 0.803128 0)
(0.0527841 0.813294 0)
(0.056977 0.845035 0)
(0.045513 0.897624 0)
(0.0288918 0.929535 0)
(0.0193441 0.90382 0)
(0.0161692 0.839245 0)
(0.0201856 0.819158 0)
(0.0290144 0.83153 0)
(0.0222548 0.867013 0)
(0.000886474 0.904953 0)
(-0.0218066 0.896126 0)
(-0.0295817 0.881333 0)
(-0.0341911 0.856678 0)
(-0.0448062 0.867641 0)
(-0.0514594 0.849196 0)
(-0.0462631 0.8368 0)
(-0.0479235 0.848711 0)
(-0.0552108 0.863092 0)
(-0.0650999 0.858396 0)
(-0.0728082 0.865988 0)
(-0.0654625 0.838244 0)
(-0.0482223 0.801288 0)
(-0.0261917 0.784011 0)
(-0.00636309 0.788112 0)
(-0.00647792 0.826989 0)
(-0.000364166 0.766013 0)
(0.00318628 0.74629 0)
(0.00771161 0.743431 0)
(0.0198695 0.764361 0)
(0.0478195 0.774776 0)
(0.0502999 0.799755 0)
(0.0447675 0.846077 0)
(0.0313271 0.907521 0)
(0.0177505 0.937579 0)
(0.0090357 0.909265 0)
(0.0057446 0.844612 0)
(0.0049779 0.818299 0)
(-0.00550369 0.834196 0)
(-0.0278805 0.892427 0)
(-0.0377204 0.915369 0)
(-0.032101 0.891728 0)
(-0.015676 0.872871 0)
(-0.00895761 0.870773 0)
(-0.0223436 0.885168 0)
(-0.0340883 0.852397 0)
(-0.0397539 0.840319 0)
(-0.0468631 0.860176 0)
(-0.0547167 0.874267 0)
(-0.0636461 0.87389 0)
(-0.071812 0.866528 0)
(-0.0695167 0.826032 0)
(-0.0608684 0.778236 0)
(-0.0508214 0.754818 0)
(-0.0350488 0.763867 0)
(-0.023476 0.808646 0)
(-0.00389445 0.747501 0)
(0.00877087 0.72596 0)
(0.0271947 0.720432 0)
(0.0479723 0.732773 0)
(0.0584507 0.760543 0)
(0.0561184 0.795098 0)
(0.0394767 0.850836 0)
(0.0284867 0.915728 0)
(0.0165798 0.945883 0)
(0.000571486 0.915789 0)
(-0.0113712 0.844524 0)
(-0.025107 0.822265 0)
(-0.0533767 0.851677 0)
(-0.0720345 0.892244 0)
(-0.0506765 0.893094 0)
(-0.028712 0.874389 0)
(-0.0104576 0.857808 0)
(0.00123841 0.870432 0)
(-0.00837023 0.897459 0)
(-0.0230076 0.85742 0)
(-0.0364651 0.848243 0)
(-0.0458743 0.867299 0)
(-0.0610859 0.882257 0)
(-0.0749146 0.879977 0)
(-0.0840881 0.861797 0)
(-0.0826572 0.812023 0)
(-0.0838924 0.757461 0)
(-0.0836841 0.72585 0)
(-0.0738056 0.730234 0)
(-0.0502871 0.76445 0)
(-0.0106918 0.713976 0)
(0.0206028 0.689742 0)
(0.0493618 0.689679 0)
(0.0650521 0.708638 0)
(0.0660562 0.752858 0)
(0.0506214 0.799732 0)
(0.0395381 0.856405 0)
(0.0303007 0.915429 0)
(0.0254209 0.954424 0)
(0.00354107 0.930097 0)
(-0.0288766 0.855473 0)
(-0.0595263 0.838503 0)
(-0.0839313 0.867494 0)
(-0.0805047 0.871019 0)
(-0.0481454 0.863922 0)
(-0.0235336 0.861387 0)
(-0.00697016 0.847451 0)
(-0.00457216 0.875699 0)
(-0.0114678 0.905536 0)
(-0.0252036 0.871187 0)
(-0.0404186 0.853615 0)
(-0.0579404 0.881624 0)
(-0.0818287 0.894396 0)
(-0.0962514 0.887161 0)
(-0.103103 0.853825 0)
(-0.103556 0.799064 0)
(-0.109344 0.741875 0)
(-0.114868 0.707246 0)
(-0.105286 0.69349 0)
(-0.0700967 0.70964 0)
(-0.0187819 0.665942 0)
(0.0240231 0.641647 0)
(0.0585423 0.657272 0)
(0.0687855 0.686784 0)
(0.0572922 0.755477 0)
(0.0406512 0.803983 0)
(0.0263367 0.865514 0)
(0.0285577 0.914594 0)
(0.0279146 0.959206 0)
(0.0100673 0.955235 0)
(-0.0432716 0.887969 0)
(-0.0818822 0.850848 0)
(-0.0822675 0.862412 0)
(-0.0646509 0.84005 0)
(-0.0378934 0.839649 0)
(-0.0182673 0.840319 0)
(-0.00995905 0.84252 0)
(-0.0185122 0.878428 0)
(-0.0286357 0.911715 0)
(-0.0344737 0.8722 0)
(-0.0557729 0.865096 0)
(-0.0873019 0.899818 0)
(-0.110922 0.905984 0)
(-0.117646 0.889332 0)
(-0.122815 0.848346 0)
(-0.121925 0.792014 0)
(-0.128776 0.730644 0)
(-0.135175 0.690042 0)
(-0.120344 0.650684 0)
(-0.0814615 0.650624 0)
(-0.0216948 0.608096 0)
(0.0216198 0.595821 0)
(0.0574399 0.628814 0)
(0.0629026 0.677831 0)
(0.0463522 0.761888 0)
(0.0265861 0.807717 0)
(0.0209701 0.867927 0)
(0.026398 0.910865 0)
(0.0258885 0.957602 0)
(0.0146414 0.987062 0)
(-0.0432678 0.933488 0)
(-0.0768529 0.853269 0)
(-0.0615699 0.838598 0)
(-0.0413876 0.819529 0)
(-0.0273135 0.823048 0)
(-0.0216291 0.834426 0)
(-0.0272053 0.84806 0)
(-0.042935 0.890459 0)
(-0.0484192 0.913509 0)
(-0.0545903 0.877214 0)
(-0.0837681 0.892412 0)
(-0.123094 0.921945 0)
(-0.140066 0.910952 0)
(-0.141599 0.888082 0)
(-0.138088 0.846363 0)
(-0.134115 0.785316 0)
(-0.136904 0.724862 0)
(-0.141005 0.676531 0)
(-0.12271 0.611002 0)
(-0.0863978 0.597689 0)
(-0.0222622 0.551009 0)
(0.0167494 0.554058 0)
(0.0515133 0.601718 0)
(0.0548495 0.669659 0)
(0.0397448 0.768983 0)
(0.0174187 0.816476 0)
(0.0115869 0.870023 0)
(0.0193539 0.922954 0)
(0.0245093 0.954455 0)
(0.0262285 1.01774 0)
(-0.0175196 0.977721 0)
(-0.052234 0.852804 0)
(-0.0416444 0.810995 0)
(-0.0266631 0.807474 0)
(-0.026071 0.819883 0)
(-0.0336971 0.837788 0)
(-0.0501285 0.862748 0)
(-0.0686265 0.896764 0)
(-0.0712147 0.91196 0)
(-0.0829798 0.885187 0)
(-0.117357 0.925546 0)
(-0.152023 0.936991 0)
(-0.163365 0.914085 0)
(-0.15474 0.885623 0)
(-0.145539 0.83929 0)
(-0.13834 0.78038 0)
(-0.138724 0.721119 0)
(-0.141625 0.660439 0)
(-0.124592 0.576876 0)
(-0.0909544 0.544995 0)
(-0.0220069 0.495294 0)
(0.0121268 0.517989 0)
(0.0422982 0.578814 0)
(0.0460751 0.661076 0)
(0.0400533 0.772985 0)
(0.016412 0.82494 0)
(0.00881767 0.869903 0)
(0.0124686 0.924638 0)
(0.02816 0.946468 0)
(0.0371078 1.02953 0)
(0.021814 1.02133 0)
(-0.0208263 0.868592 0)
(-0.0306715 0.795818 0)
(-0.0243743 0.808417 0)
(-0.0322596 0.825022 0)
(-0.048498 0.852697 0)
(-0.0701238 0.879259 0)
(-0.0885203 0.909884 0)
(-0.0935329 0.910948 0)
(-0.109706 0.910299 0)
(-0.14407 0.958257 0)
(-0.164247 0.948869 0)
(-0.161107 0.911625 0)
(-0.153406 0.876071 0)
(-0.149891 0.831781 0)
(-0.144563 0.773083 0)
(-0.14393 0.718757 0)
(-0.146582 0.647825 0)
(-0.127116 0.546372 0)
(-0.0940002 0.492321 0)
(-0.0209368 0.438301 0)
(0.00709849 0.488834 0)
(0.0338616 0.562306 0)
(0.0407414 0.642876 0)
(0.0479139 0.773238 0)
(0.0263656 0.834994 0)
(0.0128474 0.873021 0)
(0.0128618 0.921645 0)
(0.0272403 0.94493 0)
(0.0371221 1.02365 0)
(0.050169 1.04851 0)
(0.0110652 0.910075 0)
(-0.0264875 0.79668 0)
(-0.0323433 0.813557 0)
(-0.0423781 0.840226 0)
(-0.0629222 0.871012 0)
(-0.0869007 0.903363 0)
(-0.103964 0.921078 0)
(-0.110697 0.918978 0)
(-0.128767 0.942937 0)
(-0.155069 0.975812 0)
(-0.154055 0.950548 0)
(-0.144957 0.903287 0)
(-0.147234 0.875545 0)
(-0.155456 0.829608 0)
(-0.15863 0.771221 0)
(-0.160003 0.713691 0)
(-0.159262 0.63309 0)
(-0.128788 0.509894 0)
(-0.0902461 0.439759 0)
(-0.0187232 0.381098 0)
(0.00245476 0.466623 0)
(0.0280885 0.546358 0)
(0.0400285 0.619538 0)
(0.0566481 0.765688 0)
(0.0431637 0.843454 0)
(0.0237133 0.883202 0)
(0.0181439 0.917622 0)
(0.0208726 0.949541 0)
(0.0373994 1.00607 0)
(0.0598936 1.05688 0)
(0.037584 0.958936 0)
(-0.0201755 0.825929 0)
(-0.0439742 0.822177 0)
(-0.0557557 0.855197 0)
(-0.0769319 0.896642 0)
(-0.100001 0.925124 0)
(-0.113778 0.931881 0)
(-0.117096 0.929923 0)
(-0.135283 0.970291 0)
(-0.145051 0.980965 0)
(-0.134834 0.943537 0)
(-0.129532 0.901152 0)
(-0.144254 0.886657 0)
(-0.167563 0.837977 0)
(-0.180302 0.773453 0)
(-0.186375 0.712597 0)
(-0.173517 0.61275 0)
(-0.123596 0.465267 0)
(-0.0743127 0.39268 0)
(-0.0159657 0.333304 0)
(-0.000807777 0.452011 0)
(0.0196011 0.525153 0)
(0.0386912 0.591927 0)
(0.0650318 0.749859 0)
(0.066383 0.845457 0)
(0.0420167 0.894245 0)
(0.0277789 0.919928 0)
(0.0181692 0.949375 0)
(0.0385913 0.994479 0)
(0.057375 1.04765 0)
(0.0561237 0.996893 0)
(-0.00515303 0.87811 0)
(-0.0497643 0.836308 0)
(-0.0653456 0.873338 0)
(-0.0861348 0.920807 0)
(-0.107587 0.945721 0)
(-0.112893 0.934075 0)
(-0.11374 0.944499 0)
(-0.125567 0.983801 0)
(-0.127269 0.979952 0)
(-0.116695 0.933516 0)
(-0.120393 0.906886 0)
(-0.147232 0.904518 0)
(-0.180462 0.854389 0)
(-0.204944 0.783799 0)
(-0.208979 0.703897 0)
(-0.17415 0.571802 0)
(-0.106404 0.411658 0)
(-0.0543634 0.351979 0)
(-0.00793478 0.304091 0)
(-0.00354722 0.447135 0)
(0.00755938 0.503885 0)
(0.0318266 0.560416 0)
(0.069557 0.716171 0)
(0.0881369 0.84701 0)
(0.0654454 0.907687 0)
(0.0408828 0.932233 0)
(0.0244843 0.950906 0)
(0.0354802 0.983698 0)
(0.0582473 1.03873 0)
(0.0624962 1.01538 0)
(0.0139797 0.948329 0)
(-0.0407569 0.860728 0)
(-0.0660164 0.892998 0)
(-0.0859914 0.947333 0)
(-0.106714 0.956627 0)
(-0.106532 0.935876 0)
(-0.105079 0.952539 0)
(-0.109483 0.990605 0)
(-0.107582 0.97338 0)
(-0.100046 0.927739 0)
(-0.114832 0.921471 0)
(-0.146846 0.930131 0)
(-0.182635 0.878388 0)
(-0.213552 0.797501 0)
(-0.205979 0.676339 0)
(-0.149734 0.513259 0)
(-0.0803009 0.359332 0)
(-0.0383236 0.319183 0)
(-0.00390654 0.292131 0)
(-0.00909156 0.448394 0)
(-0.00417103 0.48658 0)
(0.0210833 0.521219 0)
(0.0673624 0.667093 0)
(0.102052 0.840353 0)
(0.0844039 0.918245 0)
(0.0601217 0.950364 0)
(0.0390068 0.957079 0)
(0.033645 0.978155 0)
(0.0530435 1.02215 0)
(0.0655438 1.02888 0)
(0.0300617 0.996307 0)
(-0.0156222 0.902568 0)
(-0.0584984 0.915418 0)
(-0.0777188 0.97002 0)
(-0.0972139 0.969525 0)
(-0.0955566 0.93217 0)
(-0.0909586 0.956955 0)
(-0.0889443 0.988442 0)
(-0.084601 0.963799 0)
(-0.0830567 0.928279 0)
(-0.104345 0.940845 0)
(-0.136772 0.953197 0)
(-0.170357 0.90257 0)
(-0.194575 0.813126 0)
(-0.171523 0.631175 0)
(-0.114203 0.456111 0)
(-0.0568585 0.322558 0)
(-0.0287677 0.302591 0)
(-0.0078276 0.284623 0)
(-0.0144118 0.458354 0)
(-0.00940612 0.472326 0)
(0.0132751 0.48196 0)
(0.0621427 0.609883 0)
(0.104888 0.828437 0)
(0.099206 0.922905 0)
(0.08187 0.964088 0)
(0.057143 0.97459 0)
(0.0357625 0.98004 0)
(0.0474161 1.00612 0)
(0.0585684 1.03403 0)
(0.0464066 1.0224 0)
(0.00361701 0.953269 0)
(-0.0412406 0.942333 0)
(-0.0634387 0.993363 0)
(-0.081202 0.980729 0)
(-0.0833183 0.930025 0)
(-0.0746565 0.952771 0)
(-0.0637067 0.980735 0)
(-0.0603 0.955266 0)
(-0.062591 0.933234 0)
(-0.0853407 0.959326 0)
(-0.114152 0.976118 0)
(-0.145387 0.926951 0)
(-0.151462 0.800325 0)
(-0.129636 0.595542 0)
(-0.0812924 0.403716 0)
(-0.0391491 0.300253 0)
(-0.0232088 0.2972 0)
(-0.00877181 0.274902 0)
(-0.0123815 0.468213 0)
(-0.00623055 0.458193 0)
(0.0131159 0.446891 0)
(0.0586504 0.554067 0)
(0.101491 0.804586 0)
(0.108835 0.9211 0)
(0.0997151 0.971304 0)
(0.0769954 1.0008 0)
(0.0516293 0.988776 0)
(0.0432676 1.00062 0)
(0.0535753 1.03511 0)
(0.0509967 1.04745 0)
(0.0126296 1.00025 0)
(-0.0213326 0.973135 0)
(-0.0436108 1.01318 0)
(-0.0618703 0.994044 0)
(-0.068102 0.931942 0)
(-0.0580318 0.936982 0)
(-0.0370722 0.972712 0)
(-0.0341343 0.947616 0)
(-0.0395044 0.940206 0)
(-0.0568378 0.973061 0)
(-0.0813302 0.99314 0)
(-0.107059 0.944673 0)
(-0.103962 0.777428 0)
(-0.0903595 0.573811 0)
(-0.055924 0.359494 0)
(-0.0271694 0.284621 0)
(-0.0191555 0.294039 0)
(-0.00653626 0.266259 0)
(-0.00527326 0.476192 0)
(0.00152146 0.448209 0)
(0.0203037 0.416174 0)
(0.060395 0.505107 0)
(0.101024 0.776291 0)
(0.117444 0.915001 0)
(0.10875 0.972245 0)
(0.0963821 1.01834 0)
(0.0644788 1.01188 0)
(0.0467713 1.00296 0)
(0.0479668 1.03269 0)
(0.0543734 1.06641 0)
(0.0249916 1.03333 0)
(-0.00444557 0.999905 0)
(-0.0170606 1.03255 0)
(-0.0389651 1.01119 0)
(-0.0520069 0.936649 0)
(-0.0407784 0.914685 0)
(-0.0137216 0.959615 0)
(-0.00803209 0.94375 0)
(-0.0131506 0.944046 0)
(-0.0257389 0.979969 0)
(-0.0432206 1.00499 0)
(-0.0606088 0.95897 0)
(-0.0628455 0.75333 0)
(-0.0563137 0.563424 0)
(-0.0378103 0.329943 0)
(-0.0212006 0.272513 0)
(-0.0174433 0.289714 0)
(0.000550671 0.253411 0)
(0.00178598 0.474257 0)
(0.0145373 0.438325 0)
(0.0332076 0.390348 0)
(0.0672665 0.467796 0)
(0.105335 0.737399 0)
(0.125394 0.910797 0)
(0.115925 0.970705 0)
(0.108578 1.02825 0)
(0.083311 1.03793 0)
(0.0586342 1.01568 0)
(0.0478296 1.02989 0)
(0.057162 1.07895 0)
(0.0459824 1.06857 0)
(0.015549 1.01532 0)
(0.00517321 1.04915 0)
(-0.0132982 1.03118 0)
(-0.0340754 0.947887 0)
(-0.0264222 0.893168 0)
(0.00201502 0.943465 0)
(0.0146803 0.938999 0)
(0.0100405 0.946008 0)
(0.00349247 0.982412 0)
(-0.0104584 1.00954 0)
(-0.0165748 0.964511 0)
(-0.0351185 0.745119 0)
(-0.0367801 0.557427 0)
(-0.0273672 0.314547 0)
(-0.0196611 0.26349 0)
(-0.0154778 0.279152 0)
(0.00794743 0.246714 0)
(0.00885324 0.464119 0)
(0.0281954 0.425269 0)
(0.0433601 0.369314 0)
(0.0748821 0.435666 0)
(0.11102 0.697224 0)
(0.13262 0.909691 0)
(0.121081 0.969171 0)
(0.12023 1.03188 0)
(0.102273 1.05662 0)
(0.0764016 1.04 0)
(0.0549434 1.03533 0)
(0.0595776 1.07486 0)
(0.0697397 1.09051 0)
(0.0421667 1.04424 0)
(0.0249678 1.05721 0)
(0.0098053 1.05287 0)
(-0.0149366 0.96311 0)
(-0.014191 0.875856 0)
(0.00979489 0.921348 0)
(0.0299339 0.93281 0)
(0.0285557 0.944339 0)
(0.0237325 0.982378 0)
(0.0140068 1.0102 0)
(0.0102537 0.970214 0)
(-0.023993 0.753158 0)
(-0.0319801 0.550441 0)
(-0.02899 0.308543 0)
(-0.0230474 0.252687 0)
(-0.0106045 0.266072 0)
(0.00921321 0.244255 0)
(0.0147842 0.442266 0)
(0.0373452 0.416497 0)
(0.0466746 0.354658 0)
(0.0735438 0.407095 0)
(0.111525 0.656901 0)
(0.139016 0.906251 0)
(0.128758 0.970754 0)
(0.130396 1.02938 0)
(0.124049 1.06916 0)
(0.101432 1.06744 0)
(0.0709712 1.0507 0)
(0.0648147 1.06821 0)
(0.0811893 1.09444 0)
(0.0744991 1.07938 0)
(0.0450231 1.07057 0)
(0.0292632 1.07256 0)
(0.00389597 0.984905 0)
(-0.00444179 0.868199 0)
(0.0132324 0.899274 0)
(0.0394159 0.920943 0)
(0.0404559 0.943454 0)
(0.0351137 0.981918 0)
(0.0240333 1.0098 0)
(0.0197715 0.978431 0)
(-0.0215414 0.776752 0)
(-0.0318239 0.543668 0)
(-0.036804 0.306338 0)
(-0.0297596 0.237125 0)
(-0.0104678 0.245249 0)
(0.00739759 0.245358 0)
(0.0143459 0.416905 0)
(0.0411303 0.408912 0)
(0.0428472 0.348577 0)
(0.0649219 0.378777 0)
(0.104777 0.614074 0)
(0.141227 0.895914 0)
(0.139726 0.968786 0)
(0.139047 1.02404 0)
(0.140805 1.07371 0)
(0.126416 1.08962 0)
(0.0943732 1.07864 0)
(0.0759297 1.06471 0)
(0.0822502 1.08778 0)
(0.0897487 1.09392 0)
(0.0751907 1.10189 0)
(0.0481869 1.09093 0)
(0.0234654 1.01014 0)
(0.00612438 0.869957 0)
(0.0167278 0.874793 0)
(0.0426793 0.909121 0)
(0.0466714 0.941597 0)
(0.0378512 0.987233 0)
(0.0224787 1.01262 0)
(0.0147301 0.987141 0)
(-0.0183788 0.8005 0)
(-0.0276833 0.540472 0)
(-0.0362979 0.310891 0)
(-0.0282654 0.223046 0)
(-0.0129647 0.231027 0)
(0.00168165 0.245125 0)
(0.012281 0.390753 0)
(0.0407418 0.403989 0)
(0.0378412 0.347562 0)
(0.051176 0.357214 0)
(0.0890183 0.566326 0)
(0.137287 0.878331 0)
(0.148209 0.966286 0)
(0.146812 1.01811 0)
(0.152386 1.0717 0)
(0.146017 1.10663 0)
(0.120896 1.10493 0)
(0.0901137 1.08133 0)
(0.082693 1.07825 0)
(0.0911745 1.09677 0)
(0.093434 1.11881 0)
(0.07041 1.11705 0)
(0.0402787 1.04139 0)
(0.0187053 0.877943 0)
(0.0217805 0.859076 0)
(0.0399085 0.893984 0)
(0.0434421 0.944308 0)
(0.0355869 0.995135 0)
(0.0145503 1.02567 0)
(0.00788273 0.990673 0)
(-0.0133765 0.816523 0)
(-0.0175249 0.541972 0)
(-0.0254746 0.314495 0)
(-0.0201012 0.216236 0)
(-0.0141503 0.219898 0)
(-0.00155841 0.240802 0)
(0.00731398 0.366062 0)
(0.0372811 0.397352 0)
(0.0311282 0.350941 0)
(0.036158 0.345586 0)
(0.0690182 0.517353 0)
(0.124485 0.846705 0)
(0.154117 0.960931 0)
(0.152446 1.01397 0)
(0.155276 1.06556 0)
(0.154636 1.11373 0)
(0.138911 1.12838 0)
(0.108936 1.10868 0)
(0.0875398 1.08095 0)
(0.0857054 1.0904 0)
(0.0951055 1.12638 0)
(0.0872242 1.1462 0)
(0.0523398 1.07714 0)
(0.0305538 0.893718 0)
(0.028237 0.850486 0)
(0.033199 0.889541 0)
(0.0319833 0.944549 0)
(0.023177 1.00742 0)
(0.00367922 1.03936 0)
(0.00429642 0.991446 0)
(-0.00664534 0.828355 0)
(-0.00488827 0.538444 0)
(-0.009333 0.319684 0)
(-0.00806002 0.217691 0)
(-0.0121709 0.21815 0)
(-0.00239908 0.235253 0)
(-0.000585841 0.349453 0)
(0.0275564 0.391631 0)
(0.0229851 0.355659 0)
(0.0223428 0.340117 0)
(0.0462995 0.474447 0)
(0.10472 0.799441 0)
(0.148564 0.946278 0)
(0.15142 1.01267 0)
(0.147579 1.06179 0)
(0.150303 1.11489 0)
(0.144928 1.13912 0)
(0.12466 1.13384 0)
(0.0938705 1.10099 0)
(0.0788986 1.08772 0)
(0.0844627 1.12602 0)
(0.0878824 1.1612 0)
(0.0571391 1.12047 0)
(0.0361952 0.908702 0)
(0.0324944 0.856015 0)
(0.025366 0.890567 0)
(0.0153512 0.955213 0)
(0.00135966 1.01817 0)
(-0.0111014 1.04913 0)
(0.00753127 0.983138 0)
(0.00445184 0.836857 0)
(0.00689098 0.531773 0)
(0.00563707 0.322801 0)
(0.00155294 0.225428 0)
(-0.00875637 0.218485 0)
(-0.00216901 0.229207 0)
(-0.00709888 0.342153 0)
(0.0178951 0.382918 0)
(0.0131433 0.361256 0)
(0.0100735 0.339782 0)
(0.0249473 0.43904 0)
(0.081981 0.744029 0)
(0.131561 0.925418 0)
(0.140653 1.01181 0)
(0.134068 1.06116 0)
(0.136561 1.11091 0)
(0.138601 1.14508 0)
(0.129801 1.15097 0)
(0.101894 1.1315 0)
(0.0769386 1.09596 0)
(0.068792 1.12414 0)
(0.0733515 1.17277 0)
(0.0538435 1.15523 0)
(0.0354537 0.927583 0)
(0.0333623 0.86714 0)
(0.0182487 0.904915 0)
(-0.00284649 0.972264 0)
(-0.0230659 1.03511 0)
(-0.0196916 1.03898 0)
(0.00567159 0.962433 0)
(0.0113608 0.845383 0)
(0.01596 0.521716 0)
(0.0179691 0.327916 0)
(0.0106546 0.235441 0)
(-0.00553816 0.223465 0)
(0.000478884 0.224139 0)
(-0.00474851 0.337834 0)
(0.0132215 0.377972 0)
(0.00255624 0.362658 0)
(-8.56652e-05 0.345124 0)
(0.00848257 0.409653 0)
(0.062687 0.68704 0)
(0.113251 0.900317 0)
(0.12492 1.00776 0)
(0.118687 1.05973 0)
(0.118695 1.10348 0)
(0.123935 1.14235 0)
(0.123759 1.16136 0)
(0.106128 1.15448 0)
(0.0756797 1.12147 0)
(0.0536559 1.12588 0)
(0.0497634 1.18324 0)
(0.0425671 1.18117 0)
(0.0327223 0.944789 0)
(0.0324391 0.88717 0)
(0.0132852 0.925783 0)
(-0.0153815 1.00217 0)
(-0.0312842 1.04224 0)
(-0.0166357 1.01924 0)
(-0.00424396 0.948638 0)
(0.00685264 0.841175 0)
(0.0210136 0.505922 0)
(0.0270013 0.331979 0)
(0.0192264 0.249402 0)
(0.000478444 0.22852 0)
(0.00492458 0.222985 0)
(0.000267661 0.328743 0)
(0.0152375 0.385202 0)
(-0.0040615 0.367114 0)
(-0.00574155 0.351302 0)
(-0.00136418 0.383317 0)
(0.0494775 0.627726 0)
(0.101223 0.876613 0)
(0.111857 1.00355 0)
(0.105928 1.05857 0)
(0.103567 1.0977 0)
(0.107749 1.13722 0)
(0.110024 1.16223 0)
(0.102997 1.17074 0)
(0.074969 1.15374 0)
(0.0466324 1.14134 0)
(0.0327925 1.1907 0)
(0.0303915 1.19236 0)
(0.0330373 0.960942 0)
(0.0350313 0.904658 0)
(0.0124424 0.956147 0)
(-0.0172257 1.02472 0)
(-0.0259379 1.04461 0)
(-0.015957 1.00063 0)
(-0.0154913 0.950857 0)
(-0.0054797 0.823912 0)
(0.0226111 0.483072 0)
(0.0313967 0.33631 0)
(0.0266042 0.261551 0)
(0.00659149 0.23781 0)
(0.00724746 0.228313 0)
(-0.00203279 0.314385 0)
(0.0152132 0.39827 0)
(-0.00671303 0.368103 0)
(-0.00861387 0.356355 0)
(-0.00653429 0.363361 0)
(0.0404245 0.56444 0)
(0.0954963 0.851962 0)
(0.107215 0.997601 0)
(0.098916 1.06025 0)
(0.0934682 1.09294 0)
(0.0952478 1.13326 0)
(0.0951288 1.16468 0)
(0.0915375 1.18004 0)
(0.0695863 1.17996 0)
(0.0424859 1.16421 0)
(0.0189095 1.20192 0)
(0.016191 1.19996 0)
(0.0296232 0.963975 0)
(0.0337722 0.926564 0)
(0.0144234 0.986282 0)
(-0.0146869 1.047 0)
(-0.0189974 1.04059 0)
(-0.0224241 0.995048 0)
(-0.0280769 0.95696 0)
(-0.0145226 0.790228 0)
(0.0201006 0.458626 0)
(0.0324109 0.336315 0)
(0.0306535 0.27199 0)
(0.0104328 0.249223 0)
(0.0075807 0.234954 0)
(-0.00589171 0.303118 0)
(0.00853831 0.409035 0)
(-0.0113949 0.365761 0)
(-0.00976656 0.358233 0)
(-0.00672182 0.348389 0)
(0.0348741 0.501723 0)
(0.0912713 0.824106 0)
(0.105378 0.994799 0)
(0.0935534 1.06002 0)
(0.0868289 1.09174 0)
(0.0863837 1.12928 0)
(0.0855195 1.16352 0)
(0.0821663 1.18858 0)
(0.0686946 1.1973 0)
(0.0403879 1.19419 0)
(0.0111553 1.21595 0)
(0.00847404 1.20125 0)
(0.0292029 0.966022 0)
(0.0296189 0.943296 0)
(0.0104641 1.01989 0)
(-0.0157406 1.05959 0)
(-0.0194322 1.04048 0)
(-0.0301303 0.994347 0)
(-0.0406352 0.961948 0)
(-0.0180268 0.748991 0)
(0.0174972 0.435451 0)
(0.0330967 0.33381 0)
(0.0332882 0.282984 0)
(0.011773 0.265814 0)
(0.00749789 0.243314 0)
(-0.00972374 0.298884 0)
(-0.00246322 0.419231 0)
(-0.0161434 0.364439 0)
(-0.00985721 0.355904 0)
(-0.00446791 0.335959 0)
(0.0287077 0.443646 0)
(0.0811096 0.790716 0)
(0.0971592 0.991901 0)
(0.0866347 1.06084 0)
(0.0804489 1.09175 0)
(0.0795011 1.12831 0)
(0.0781287 1.16408 0)
(0.0755636 1.19234 0)
(0.0668736 1.21232 0)
(0.0404497 1.2232 0)
(0.00791892 1.23587 0)
(0.00724705 1.19608 0)
(0.0279084 0.961645 0)
(0.0187893 0.963884 0)
(0.00017751 1.04779 0)
(-0.0264056 1.06885 0)
(-0.0286012 1.03769 0)
(-0.038706 1.00023 0)
(-0.0485112 0.961419 0)
(-0.0178125 0.700099 0)
(0.0182072 0.415851 0)
(0.0363836 0.328181 0)
(0.0355783 0.294425 0)
(0.0120281 0.283048 0)
(0.00690873 0.250194 0)
(-0.0128655 0.306499 0)
(-0.013015 0.422694 0)
(-0.0196909 0.358774 0)
(-0.0105125 0.350355 0)
(-0.00107627 0.32843 0)
(0.0211501 0.397 0)
(0.0664989 0.758048 0)
(0.0858634 0.989478 0)
(0.0791831 1.05826 0)
(0.0744428 1.09182 0)
(0.073454 1.12824 0)
(0.0722456 1.1639 0)
(0.0697046 1.19853 0)
(0.0640847 1.222 0)
(0.0402876 1.25434 0)
(0.0100226 1.25419 0)
(0.0102422 1.18882 0)
(0.0223457 0.968507 0)
(0.00672146 0.98192 0)
(-0.0127733 1.08093 0)
(-0.0404217 1.07737 0)
(-0.042204 1.03931 0)
(-0.0460909 1.00535 0)
(-0.0499878 0.956844 0)
(-0.0140254 0.65084 0)
(0.025013 0.397545 0)
(0.0438074 0.323474 0)
(0.0390301 0.306695 0)
(0.0122768 0.306323 0)
(0.00589555 0.257612 0)
(-0.0116219 0.32098 0)
(-0.0162592 0.429636 0)
(-0.0240786 0.356642 0)
(-0.0125091 0.340725 0)
(-0.00117363 0.324506 0)
(0.015779 0.362762 0)
(0.0489497 0.722849 0)
(0.0770295 0.981527 0)
(0.0742611 1.05581 0)
(0.0698951 1.09199 0)
(0.0680474 1.12782 0)
(0.0677237 1.1648 0)
(0.0653701 1.20085 0)
(0.0594361 1.23367 0)
(0.0417209 1.27677 0)
(0.0170991 1.27604 0)
(0.0129493 1.18701 0)
(0.0157861 0.98158 0)
(-0.0071825 1.00302 0)
(-0.0300442 1.11164 0)
(-0.0552501 1.0865 0)
(-0.0586968 1.03554 0)
(-0.0552249 1.00674 0)
(-0.0507297 0.94389 0)
(-0.00516214 0.601229 0)
(0.0388112 0.376016 0)
(0.0539387 0.324147 0)
(0.0431137 0.32209 0)
(0.015143 0.329829 0)
(0.00719082 0.262945 0)
(-0.0097649 0.331539 0)
(-0.013849 0.439685 0)
(-0.0253699 0.357118 0)
(-0.0130867 0.330472 0)
(-0.000904668 0.320795 0)
(0.0116972 0.341341 0)
(0.0337605 0.686678 0)
(0.0661772 0.969174 0)
(0.0717462 1.05389 0)
(0.0655363 1.09285 0)
(0.0624875 1.12872 0)
(0.0626457 1.16498 0)
(0.0611461 1.20633 0)
(0.0547889 1.24168 0)
(0.0409956 1.29517 0)
(0.027584 1.28951 0)
(0.0172984 1.19613 0)
(0.010162 1.00299 0)
(-0.0189021 1.02676 0)
(-0.0429572 1.14315 0)
(-0.0655731 1.09173 0)
(-0.0715341 1.03591 0)
(-0.0706339 1.00271 0)
(-0.0470897 0.916311 0)
(0.0134545 0.5484 0)
(0.0579994 0.357297 0)
(0.0622667 0.332147 0)
(0.0476489 0.337494 0)
(0.0211363 0.355074 0)
(0.0139373 0.273743 0)
(-0.0116776 0.33647 0)
(-0.00881142 0.4442 0)
(-0.0149629 0.35304 0)
(-0.0100817 0.323213 0)
(-0.00185457 0.316796 0)
(0.00870311 0.331649 0)
(0.0224983 0.657238 0)
(0.0578739 0.945121 0)
(0.0704794 1.05119 0)
(0.0627894 1.0962 0)
(0.0572138 1.1281 0)
(0.0573025 1.16534 0)
(0.0570602 1.20802 0)
(0.0509209 1.25338 0)
(0.0404453 1.30421 0)
(0.0357126 1.29869 0)
(0.0244072 1.2142 0)
(0.00724768 1.03305 0)
(-0.0276065 1.05248 0)
(-0.0493416 1.17535 0)
(-0.072291 1.10409 0)
(-0.083875 1.0405 0)
(-0.0806951 0.991303 0)
(-0.0315555 0.868764 0)
(0.0424728 0.492246 0)
(0.075321 0.350726 0)
(0.06567 0.345288 0)
(0.0498084 0.352837 0)
(0.0274546 0.371664 0)
(0.0199441 0.289739 0)
(-0.0181371 0.341069 0)
(-0.00581026 0.436104 0)
(-0.00447909 0.353773 0)
(-0.00680546 0.321805 0)
(-0.00662114 0.315002 0)
(0.00216505 0.327327 0)
(0.0148728 0.629818 0)
(0.0546175 0.919465 0)
(0.0701991 1.05007 0)
(0.0604639 1.10042 0)
(0.052726 1.13075 0)
(0.0519677 1.16342 0)
(0.0519053 1.21009 0)
(0.0482744 1.25915 0)
(0.0407783 1.31487 0)
(0.0412468 1.29792 0)
(0.0305957 1.23819 0)
(0.00741707 1.07285 0)
(-0.0330974 1.08023 0)
(-0.0539154 1.20357 0)
(-0.0778 1.1241 0)
(-0.0937672 1.04444 0)
(-0.0773852 0.965042 0)
(-0.000277084 0.799449 0)
(0.0716833 0.445134 0)
(0.0829987 0.3603 0)
(0.0637592 0.361915 0)
(0.0482833 0.36371 0)
(0.0252698 0.38393 0)
(0.0232312 0.307656 0)
(-0.023347 0.350199 0)
(-0.00792271 0.415386 0)
(0.00253751 0.349636 0)
(-0.00223648 0.329149 0)
(-0.0128724 0.317392 0)
(-0.0113227 0.325176 0)
(0.00325381 0.596404 0)
(0.0522271 0.888173 0)
(0.0699267 1.04715 0)
(0.05964 1.10782 0)
(0.0490503 1.13248 0)
(0.048061 1.1652 0)
(0.04583 1.20896 0)
(0.0456081 1.26532 0)
(0.0437723 1.31546 0)
(0.0454903 1.30163 0)
(0.0353077 1.25502 0)
(0.00546704 1.11979 0)
(-0.037737 1.11079 0)
(-0.0618456 1.22602 0)
(-0.0831135 1.15115 0)
(-0.0983479 1.04022 0)
(-0.0583887 0.91595 0)
(0.0345964 0.719923 0)
(0.0875136 0.421184 0)
(0.0803339 0.379314 0)
(0.0568798 0.378138 0)
(0.037766 0.377199 0)
(0.0133119 0.386931 0)
(0.0228349 0.322271 0)
(-0.0206728 0.363141 0)
(-0.00297091 0.392503 0)
(0.00511681 0.33826 0)
(0.00131765 0.339218 0)
(-0.0163414 0.327787 0)
(-0.0261742 0.328883 0)
(-0.01243 0.553675 0)
(0.0455343 0.852001 0)
(0.0706825 1.04592 0)
(0.0577671 1.11068 0)
(0.0481009 1.1373 0)
(0.0434359 1.16597 0)
(0.0416226 1.21081 0)
(0.0429649 1.26246 0)
(0.0476697 1.31832 0)
(0.0486059 1.30385 0)
(0.0360191 1.27517 0)
(-0.000379521 1.17071 0)
(-0.0467703 1.14515 0)
(-0.0724699 1.24371 0)
(-0.0861696 1.17891 0)
(-0.0895167 1.02148 0)
(-0.0288538 0.845376 0)
(0.0552669 0.652029 0)
(0.0861534 0.416567 0)
(0.0697183 0.400436 0)
(0.0430346 0.397705 0)
(0.0222087 0.388161 0)
(-0.00115531 0.38671 0)
(0.0178632 0.325596 0)
(-0.00897667 0.366233 0)
(0.0124712 0.380597 0)
(0.00604683 0.331285 0)
(0.00152656 0.349857 0)
(-0.0190067 0.345105 0)
(-0.0358534 0.339669 0)
(-0.0253172 0.50873 0)
(0.0321933 0.803905 0)
(0.0670444 1.03974 0)
(0.057697 1.11702 0)
(0.0480771 1.13864 0)
(0.0412116 1.17142 0)
(0.0388848 1.20897 0)
(0.0404607 1.26076 0)
(0.0487642 1.31196 0)
(0.0471752 1.31858 0)
(0.0298975 1.29215 0)
(-0.0135372 1.22848 0)
(-0.0592385 1.18065 0)
(-0.0822649 1.25348 0)
(-0.0812349 1.19296 0)
(-0.0680097 0.984257 0)
(-0.00747235 0.779285 0)
(0.0556748 0.604097 0)
(0.0720517 0.421973 0)
(0.0528257 0.422797 0)
(0.0228194 0.41735 0)
(0.00524104 0.395162 0)
(-0.0147386 0.3828 0)
(0.0134605 0.318254 0)
(0.00188116 0.354167 0)
(0.0278948 0.380452 0)
(0.0107261 0.335162 0)
(-0.00200143 0.359511 0)
(-0.0195866 0.365325 0)
(-0.03777 0.352328 0)
(-0.0275269 0.470082 0)
(0.0177318 0.755094 0)
(0.0578845 1.02685 0)
(0.0575274 1.11649 0)
(0.0490612 1.14466 0)
(0.0427201 1.17362 0)
(0.0391629 1.21255 0)
(0.040735 1.25324 0)
(0.0457288 1.31234 0)
(0.0394685 1.33147 0)
(0.0156341 1.32082 0)
(-0.0278118 1.28023 0)
(-0.0677026 1.2155 0)
(-0.086729 1.24813 0)
(-0.0701152 1.19006 0)
(-0.0468874 0.943895 0)
(-0.00428899 0.731327 0)
(0.0394121 0.56956 0)
(0.0498737 0.430396 0)
(0.0279839 0.445899 0)
(0.00266545 0.434184 0)
(-0.0104999 0.395874 0)
(-0.025897 0.378399 0)
(0.00952005 0.304344 0)
(0.00353052 0.331298 0)
(0.0306934 0.383188 0)
(0.00984872 0.346209 0)
(-0.00620319 0.370348 0)
(-0.0207679 0.383542 0)
(-0.0339984 0.36313 0)