/*--------------------------------*- C++ -*----------------------------------*\
| =========                 |                                                 |
| \\      /  F ield         | OpenFOAM: The Open Source CFD Toolbox           |
|  \\    /   O peration     | Version:  2.3.0                                 |
|   \\  /    A nd           | Web:      www.OpenFOAM.org                      |
|    \\/     M anipulation  |                                                 |
\*---------------------------------------------------------------------------*/
FoamFile
{
    version     2.0;
    format      ascii;
    class       volScalarField;
    location    "0.034";
    object      nut;
}
// * * * * * * * * * * * * * * * * * * * * * * * * * * * * * * * * * * * * * //

dimensions      [0 2 -1 0 0 0 0];

internalField   nonuniform List<scalar> 
545
(
7.56733
7.20612
6.62969
6.13243
5.79214
7.71384
7.22275
6.61205
6.10207
5.73528
7.96574
7.23626
6.56975
6.03907
5.63357
8.34665
7.22529
6.50184
5.94891
5.47808
8.9113
7.16322
6.4237
5.85228
5.259
5.61822
5.52324
5.49305
5.48356
5.48058
5.47963
5.47932
5.47921
5.47916
5.47913
5.47911
5.47909
5.47906
5.47905
5.47903
5.47901
5.47899
5.47897
5.47896
5.47894
5.47893
5.47891
5.4789
5.47889
5.47887
5.47886
5.47885
5.47884
5.47883
5.47882
5.47881
5.4788
5.47879
5.47879
5.47878
5.47878
5.47877
5.47877
5.47876
5.47876
5.47875
5.47875
5.47875
5.47875
5.47875
5.5747
5.50993
5.48884
5.48223
5.48016
5.4795
5.47928
5.4792
5.47916
5.47913
5.47911
5.47908
5.47906
5.47904
5.47903
5.47901
5.47899
5.47897
5.47896
5.47894
5.47893
5.47891
5.4789
5.47888
5.47887
5.47886
5.47885
5.47884
5.47883
5.47882
5.47881
5.4788
5.47879
5.47879
5.47878
5.47877
5.47877
5.47876
5.47876
5.47876
5.47875
5.47875
5.47875
5.47875
5.47875
5.51138
5.48761
5.48169
5.47999
5.47947
5.47929
5.47922
5.47918
5.47915
5.47913
5.47911
5.47908
5.47906
5.47904
5.47903
5.47901
5.47899
5.47897
5.47896
5.47894
5.47893
5.47891
5.4789
5.47888
5.47887
5.47886
5.47885
5.47884
5.47883
5.47882
5.47881
5.4788
5.47879
5.47879
5.47878
5.47877
5.47877
5.47876
5.47876
5.47876
5.47875
5.47875
5.47875
5.47875
5.47875
5.42902
5.46157
5.47366
5.47751
5.4787
5.47905
5.47914
5.47916
5.47914
5.47912
5.4791
5.47908
5.47906
5.47904
5.47903
5.47901
5.47899
5.47897
5.47896
5.47894
5.47893
5.47891
5.4789
5.47888
5.47887
5.47886
5.47885
5.47884
5.47883
5.47882
5.47881
5.4788
5.47879
5.47879
5.47878
5.47877
5.47877
5.47876
5.47876
5.47876
5.47875
5.47875
5.47875
5.47875
5.47875
5.333
5.43954
5.46729
5.47557
5.4781
5.47886
5.47908
5.47914
5.47914
5.47912
5.4791
5.47908
5.47906
5.47904
5.47903
5.47901
5.47899
5.47897
5.47896
5.47894
5.47893
5.47891
5.4789
5.47888
5.47887
5.47886
5.47885
5.47884
5.47883
5.47882
5.47881
5.4788
5.47879
5.47879
5.47878
5.47877
5.47877
5.47876
5.47876
5.47876
5.47875
5.47875
5.47875
5.47875
5.47875
5.34368
5.43284
5.46471
5.47475
5.47784
5.47878
5.47906
5.47913
5.47914
5.47912
5.4791
5.47908
5.47906
5.47904
5.47903
5.47901
5.47899
5.47897
5.47896
5.47894
5.47893
5.47891
5.4789
5.47888
5.47887
5.47886
5.47885
5.47884
5.47883
5.47882
5.47881
5.4788
5.47879
5.47879
5.47878
5.47877
5.47877
5.47876
5.47876
5.47876
5.47875
5.47875
5.47875
5.47875
5.47875
8.9113
7.16322
6.4237
5.85228
5.259
8.34665
7.22529
6.50184
5.94891
5.47808
7.96574
7.23626
6.56975
6.03907
5.63357
7.71384
7.22275
6.61205
6.10207
5.73528
7.56733
7.20612
6.62969
6.13243
5.79214
5.333
5.43954
5.46729
5.47557
5.4781
5.47886
5.47908
5.47914
5.47914
5.47912
5.4791
5.47908
5.47906
5.47904
5.47903
5.47901
5.47899
5.47897
5.47896
5.47894
5.47893
5.47891
5.4789
5.47888
5.47887
5.47886
5.47885
5.47884
5.47883
5.47882
5.47881
5.4788
5.47879
5.47879
5.47878
5.47877
5.47877
5.47876
5.47876
5.47876
5.47875
5.47875
5.47875
5.47875
5.47875
5.42902
5.46157
5.47366
5.47751
5.4787
5.47905
5.47914
5.47916
5.47914
5.47912
5.4791
5.47908
5.47906
5.47904
5.47903
5.47901
5.47899
5.47897
5.47896
5.47894
5.47893
5.47891
5.4789
5.47888
5.47887
5.47886
5.47885
5.47884
5.47883
5.47882
5.47881
5.4788
5.47879
5.47879
5.47878
5.47877
5.47877
5.47876
5.47876
5.47876
5.47875
5.47875
5.47875
5.47875
5.47875
5.51138
5.48761
5.48169
5.47999
5.47947
5.47929
5.47922
5.47918
5.47915
5.47913
5.47911
5.47908
5.47906
5.47904
5.47903
5.47901
5.47899
5.47897
5.47896
5.47894
5.47893
5.47891
5.4789
5.47888
5.47887
5.47886
5.47885
5.47884
5.47883
5.47882
5.47881
5.4788
5.47879
5.47879
5.47878
5.47877
5.47877
5.47876
5.47876
5.47876
5.47875
5.47875
5.47875
5.47875
5.47875
5.5747
5.50993
5.48884
5.48223
5.48016
5.4795
5.47928
5.4792
5.47916
5.47913
5.47911
5.47908
5.47906
5.47904
5.47903
5.47901
5.47899
5.47897
5.47896
5.47894
5.47893
5.47891
5.4789
5.47888
5.47887
5.47886
5.47885
5.47884
5.47883
5.47882
5.47881
5.4788
5.47879
5.47879
5.47878
5.47877
5.47877
5.47876
5.47876
5.47876
5.47875
5.47875
5.47875
5.47875
5.47875
5.61822
5.52324
5.49305
5.48356
5.48058
5.47963
5.47932
5.47921
5.47916
5.47913
5.47911
5.47909
5.47906
5.47905
5.47903
5.47901
5.47899
5.47897
5.47896
5.47894
5.47893
5.47891
5.4789
5.47889
5.47887
5.47886
5.47885
5.47884
5.47883
5.47882
5.47881
5.4788
5.47879
5.47879
5.47878
5.47878
5.47877
5.47877
5.47876
5.47876
5.47875
5.47875
5.47875
5.47875
5.47875
)
;

boundaryField
{
    AirInlet
    {
        type            fixedValue;
        value           uniform 0;
    }
    WaterInlet
    {
        type            fixedValue;
        value           uniform 0;
    }
    ChannelWall
    {
        type            fixedValue;
        value           uniform 0;
    }
    Outlet
    {
        type            calculated;
        value           nonuniform List<scalar> 
11
(
5.47875
5.47875
5.47875
5.47875
5.47875
5.47875
5.47875
5.47875
5.47875
5.47875
5.47875
)
;
    }
    FrontAndBack
    {
        type            empty;
    }
}


// ************************************************************************* //
