/*--------------------------------*- C++ -*----------------------------------*\
| =========                 |                                                 |
| \\      /  F ield         | OpenFOAM: The Open Source CFD Toolbox           |
|  \\    /   O peration     | Version:  2.3.0                                 |
|   \\  /    A nd           | Web:      www.OpenFOAM.org                      |
|    \\/     M anipulation  |                                                 |
\*---------------------------------------------------------------------------*/
FoamFile
{
    version     2.0;
    format      ascii;
    class       volScalarField;
    location    "0.034";
    object      p_rgh;
}
// * * * * * * * * * * * * * * * * * * * * * * * * * * * * * * * * * * * * * //

dimensions      [1 -1 -2 0 0 0 0];

internalField   nonuniform List<scalar> 
545
(
-9.26823e+07
-1.69406e+07
-2.13184e+06
-2.83589e+06
-9.77819e+06
6.69726e+07
-3.31024e+06
-2.54459e+06
-2.7207e+06
-7.92012e+06
1.1633e+08
4.34708e+06
-255237
-314497
-8.32228e+06
6.7557e+07
-3.52102e+06
-2.00158e+06
-399.964
-7.42235e+06
-1.06671e+08
-2.55002e+06
-364084
5.05787e+06
1.37057e+07
-8.01108e+06
-1.97977e+06
-743927
46331
169151
173970
155668
142224
136289
128978
126729
121440
120851
117028
117743
114283
114717
110310
109857
104636
103261
97133.2
94796.9
87493.4
84109.7
75896.4
71935.9
63456.6
59481.8
51018.9
47207.8
39132.2
35814.8
28617.1
26405.7
20494.2
19418.2
14478.5
14372.2
10797.6
12315.9
9590.65
10721.9
7451.7
8638.48
-7.043e+06
-1.18186e+06
-696301
-90300.4
48874.2
112506
127800
132961
131555
128782
125211
122333
119628
118122
116505
115376
113388
111361
108431
105728
101849
98273.4
93442.7
88674.8
82772.6
77082.2
70578.7
64604.4
58089.9
52136.3
45808.7
40210.3
34415.9
29748.4
25094.1
21699.5
18105.3
15617
13028.6
11924.6
10985.4
10698.3
9252.82
7314.44
1954.35
-8.28637e+06
-507782
-370606
61547
91353.6
117458
126067
130374
131156
127617
125685
121750
120488
117675
117347
114719
114092
110559
109043
104937
102452
97507.2
94130.8
87952.6
83515.1
76387.8
71285.6
63816.1
58750.5
51305.1
46436
39401.7
35080.3
29052
25846.5
21064.4
18835.4
14890.4
13698
11182.2
11530.7
9857.4
9641.86
6793.89
5917.54
-8.77923e+06
835422
288437
330790
178855
142221
130548
132103
130292
128212
124854
122846
119984
118885
116675
115744
113178
111433
107981
105869
101336
98470.6
93134
88979.5
82606.2
77455.7
70325.5
64767.7
57693.4
52201.6
45379.9
40356.6
34100.3
30137.8
24980.1
22180
17912.6
15951.7
12682.3
12109.3
10410.7
10534.9
8544.32
6265.69
-368.898
-1.96693e+06
3.91057e+06
1.41863e+06
554058
209146
147580
133218
131264
130445
127021
125661
122440
121225
118425
117805
114944
114070
110441
108686
105064
101914
97677.5
93944.8
88156.3
83569.3
76672.5
71269.1
63769.9
58528.3
51189.8
46175.8
39519.7
34948.4
29498.3
25964
21521.3
18843.2
15336.2
13378.7
11319.8
10998.9
9675.38
9016.42
6123.75
4620.79
-1.57862e+07
5.54517e+06
2.27257e+06
694674
214169
143058
130146
132188
132562
132202
128294
126816
123929
120340
117189
117595
117077
116239
110689
107725
105405
101782
94837.1
91046.4
84724.2
78327
70421
65765.7
61132
56737.9
48819.3
43524.5
37577
33513.6
25812.2
22666.9
18469.6
19952.6
17989.1
15380
13633
13637.8
11565.5
6891.56
-353.258
-1.06678e+08
-2.55787e+06
-371084
5.05224e+06
1.37018e+07
6.75493e+07
-3.52904e+06
-2.00865e+06
-6106.64
-7.42646e+06
1.16322e+08
4.33891e+06
-262348
-320266
-8.32668e+06
6.69643e+07
-3.31846e+06
-2.55171e+06
-2.72649e+06
-7.9247e+06
-9.26909e+07
-1.69488e+07
-2.13896e+06
-2.84168e+06
-9.78284e+06
-1.96842e+06
3.91015e+06
1.4178e+06
553735
208227
147178
132231
130940
129797
127163
125646
123207
121649
119294
118035
115393
113890
110484
108249
104983
101521
97663.8
93677.5
88285.8
83488.4
76905.6
71224
63920.1
58386.5
51200.2
45969.1
39511.6
34842.8
29695.1
26189.6
22029.8
19207.8
15675.2
13435
11352
10827.9
9579.39
8755.78
5961.04
4446.64
-8.78171e+06
834087
287080
329698
177371
140987
128995
131020
129318
128122
125203
124075
121224
120276
117460
116314
113082
111217
107368
105423
100757
98182.8
92820.5
89011.8
82638.7
77707.1
70420.7
64895.8
57565.1
52073.7
45098.1
40216.3
34021.3
30436.2
25550.7
23079.1
18752.1
16605
12950.5
12137.4
10095.3
10134.1
8001.31
5871.77
-624.703
-8.28954e+06
-509916
-372399
59858.1
89421.6
115492
123984
128624
129897
127317
126329
123366
122418
119525
118594
115372
114055
110119
108273
104182
101710
96975.2
93755.6
87887.1
83619.5
76643.7
71478.9
63919.8
58634.5
51066.3
46096.3
39166.6
35049.3
29465.3
26718.5
22311.3
20090.7
15863.9
14221.4
11258.8
11061.8
9058.59
8748.64
6166.84
5602.62
-7.04663e+06
-1.18453e+06
-698453
-92354.7
46616.7
110035
125258
130746
130046
128337
125999
124219
122018
120355
118076
116115
113354
110775
107540
104775
100967
97578
92999.3
88535.8
82888
77335.6
70816.7
64697.1
57973.1
51827.8
45422.9
39919.6
34429.6
30271.3
26205.1
23226.2
19667.7
16835.2
13767.1
12069.5
10398.2
9549.38
8041.88
6503.38
1672.71
-8.01492e+06
-1.98273e+06
-746305
44113.8
166724
171235
152877
139805
134651
128460
127534
123421
123419
119454
119468
115091
114682
109674
108907
103608
102304
96370.6
94299.5
87312.9
84196.5
76140.3
72169.7
63547.2
59352.8
50693.5
46799.6
38837.4
35861.1
29226.6
27639.5
22165
21110.6
15825.1
15214
10990.7
11679.9
8276.53
9340.79
6490.43
8325.56
)
;

boundaryField
{
    AirInlet
    {
        type            fixedFluxPressure;
        gradient        uniform 3.63682e+08;
        value           uniform -1.57825e+07;
    }
    WaterInlet
    {
        type            fixedFluxPressure;
        gradient        nonuniform List<scalar> 10(0 -0.0445988 0 0 0 0 0 0 0 0);
        value           nonuniform List<scalar> 10(-9.26823e+07 6.69726e+07 1.1633e+08 6.7557e+07 -1.06671e+08 -1.06678e+08 6.75493e+07 1.16322e+08 6.69643e+07 -9.26909e+07);
    }
    ChannelWall
    {
        type            fixedFluxPressure;
        gradient        uniform 0;
        value           nonuniform List<scalar> 
110
(
-1.06671e+08
-2.55002e+06
-364084
5.05787e+06
1.37057e+07
-1.06678e+08
-2.55787e+06
-371084
5.05224e+06
1.37018e+07
-9.26909e+07
-1.69488e+07
-2.13896e+06
-2.84168e+06
-9.78284e+06
-8.01492e+06
-1.98273e+06
-746305
44113.8
166724
171235
152877
139805
134651
128460
127534
123421
123419
119454
119468
115091
114682
109674
108907
103608
102304
96370.6
94299.5
87312.9
84196.5
76140.3
72169.7
63547.2
59352.8
50693.5
46799.6
38837.4
35861.1
29226.6
27639.5
22165
21110.6
15825.1
15214
10990.7
11679.9
8276.53
9340.79
6490.43
8325.56
-9.26823e+07
-1.69406e+07
-2.13184e+06
-2.83589e+06
-9.77819e+06
-8.01108e+06
-1.97977e+06
-743927
46331
169151
173970
155668
142224
136289
128978
126729
121440
120851
117028
117743
114283
114717
110310
109857
104636
103261
97133.2
94796.9
87493.4
84109.7
75896.4
71935.9
63456.6
59481.8
51018.9
47207.8
39132.2
35814.8
28617.1
26405.7
20494.2
19418.2
14478.5
14372.2
10797.6
12315.9
9590.65
10721.9
7451.7
8638.48
)
;
    }
    Outlet
    {
        type            totalPressure;
        rho             rho;
        psi             none;
        gamma           1;
        p0              uniform 0;
        value           uniform 0;
    }
    FrontAndBack
    {
        type            empty;
    }
}


// ************************************************************************* //
