/*--------------------------------*- C++ -*----------------------------------*\
| =========                 |                                                 |
| \\      /  F ield         | OpenFOAM: The Open Source CFD Toolbox           |
|  \\    /   O peration     | Version:  2.3.0                                 |
|   \\  /    A nd           | Web:      www.OpenFOAM.org                      |
|    \\/     M anipulation  |                                                 |
\*---------------------------------------------------------------------------*/
FoamFile
{
    version     2.0;
    format      ascii;
    class       volScalarField;
    location    "0.41";
    object      k.air;
}
// * * * * * * * * * * * * * * * * * * * * * * * * * * * * * * * * * * * * * //

dimensions      [0 2 -2 0 0 0 0];

internalField   nonuniform List<scalar> 
6000
(
0.82002
0.908141
0.966251
1.02447
1.03929
1.02959
1.03319
1.05548
1.07432
1.0619
1.03368
1.00967
0.989154
0.975183
0.969021
0.970007
0.977167
0.991086
1.01107
1.0351
1.06346
1.07026
1.03342
1.01361
1.02107
1.03816
1.01205
0.957069
0.907206
0.82146
0.528778
0.831338
1.02637
1.17391
1.24316
1.26478
1.29309
1.32041
1.29165
1.20425
1.13478
1.10077
1.0834
1.07162
1.0618
1.06652
1.07629
1.08606
1.10599
1.15186
1.23622
1.31232
1.29456
1.25386
1.22808
1.20932
1.13623
1.00012
0.823032
0.529364
0.371921
0.755063
0.978554
1.10925
1.18344
1.2179
1.24948
1.27254
1.25952
1.21378
1.17789
1.16009
1.12964
1.09047
1.06858
1.07711
1.11023
1.14578
1.16471
1.18247
1.22668
1.26289
1.25695
1.22108
1.1874
1.15362
1.07649
0.952105
0.734618
0.36421
0.361532
0.745673
0.92323
1.0353
1.1045
1.15023
1.1911
1.22518
1.23622
1.23515
1.20999
1.18966
1.16097
1.12326
1.10184
1.10923
1.14126
1.17689
1.19607
1.21442
1.23085
1.22755
1.20823
1.16514
1.12253
1.07782
1.00747
0.898844
0.72214
0.3489
0.374749
0.719778
0.869539
0.969802
1.03941
1.09549
1.14657
1.19168
1.22637
1.25873
1.25319
1.24168
1.22224
1.17917
1.15434
1.16145
1.19833
1.23475
1.24176
1.25324
1.23898
1.20537
1.1686
1.11936
1.06778
1.01336
0.944174
0.844943
0.696416
0.362258
0.358445
0.675839
0.815518
0.913537
0.989069
1.05592
1.12048
1.18357
1.24497
1.30504
1.30585
1.31315
1.30856
1.25564
1.22316
1.23192
1.27843
1.31556
1.30014
1.30123
1.27115
1.2087
1.1504
1.08848
1.02607
0.962266
0.888205
0.791464
0.654567
0.3463
0.317446
0.62038
0.763475
0.866072
0.95137
1.03126
1.11338
1.19811
1.29481
1.38548
1.36716
1.38038
1.39055
1.35119
1.31732
1.32931
1.37093
1.38564
1.35962
1.36379
1.33848
1.23529
1.15248
1.07283
0.996656
0.921767
0.839747
0.738728
0.599765
0.305534
0.276014
0.560078
0.714411
0.826971
0.924297
1.01933
1.12011
1.22603
1.35399
1.44992
1.4206
1.44271
1.44725
1.40756
1.38713
1.39536
1.42784
1.44874
1.41213
1.40893
1.39989
1.27069
1.16626
1.06894
0.97801
0.890662
0.798103
0.688657
0.537862
0.264291
0.238079
0.5034
0.670976
0.795195
0.905313
1.01459
1.12811
1.24333
1.39022
1.45814
1.4602
1.49232
1.46535
1.42574
1.41208
1.41648
1.44543
1.48777
1.46097
1.42813
1.41475
1.28978
1.17581
1.07097
0.967768
0.868033
0.764037
0.643547
0.480665
0.22633
0.207645
0.460469
0.636433
0.770707
0.89088
1.00943
1.12961
1.24653
1.39865
1.45552
1.49241
1.5256
1.49104
1.45427
1.43989
1.44582
1.47466
1.51665
1.50262
1.44271
1.41021
1.2962
1.17589
1.07065
0.961948
0.85343
0.739394
0.608686
0.437602
0.196615
0.195014
0.443091
0.615145
0.754301
0.88038
1.00341
1.12497
1.24753
1.39892
1.46402
1.52253
1.56799
1.53843
1.50073
1.48449
1.49139
1.52149
1.56267
1.54418
1.46256
1.41272
1.30168
1.17404
1.06813
0.959247
0.846981
0.727764
0.591533
0.425714
0.18618
0.197918
0.451196
0.613172
0.748352
0.873785
0.996615
1.11885
1.24717
1.38991
1.46987
1.54386
1.61388
1.59493
1.55659
1.53784
1.54529
1.57438
1.60961
1.5796
1.48234
1.41044
1.30297
1.17373
1.06541
0.958967
0.848911
0.730824
0.599829
0.444017
0.193382
0.216509
0.484269
0.629936
0.753906
0.875259
0.995627
1.11699
1.24833
1.37867
1.46594
1.55785
1.65498
1.6462
1.60764
1.5881
1.59562
1.62201
1.65138
1.6081
1.50134
1.40838
1.30649
1.17924
1.06817
0.964646
0.86103
0.753405
0.644727
0.493951
0.219513
0.244725
0.531689
0.675602
0.777347
0.887796
1.00312
1.12284
1.25406
1.37326
1.46991
1.58305
1.69376
1.68799
1.64835
1.62956
1.63741
1.6632
1.69968
1.6491
1.53368
1.42033
1.31665
1.19443
1.08221
0.983563
0.89165
0.812916
0.712618
0.53495
0.246776
0.266184
0.570183
0.735489
0.823404
0.917313
1.02514
1.14015
1.26801
1.3839
1.50147
1.63386
1.74428
1.72641
1.69043
1.6729
1.68232
1.70872
1.75836
1.71734
1.59903
1.46474
1.34187
1.22085
1.1107
1.01961
0.944852
0.894377
0.761379
0.574317
0.261102
0.283193
0.606938
0.784867
0.885858
0.96435
1.06224
1.17252
1.29858
1.43123
1.58252
1.72632
1.82189
1.76997
1.75023
1.73556
1.74697
1.77347
1.82159
1.82267
1.71452
1.56939
1.40974
1.26989
1.15659
1.07475
1.02141
0.956841
0.805318
0.608653
0.276601
0.300113
0.646855
0.833456
0.959122
1.03743
1.12651
1.23381
1.37066
1.54787
1.7239
1.85955
1.90518
1.83267
1.82493
1.81296
1.8243
1.85051
1.87853
1.94972
1.88189
1.74696
1.56307
1.37574
1.24661
1.17795
1.12958
1.03162
0.859208
0.6387
0.279408
0.318488
0.688732
0.892639
1.04322
1.14541
1.23608
1.34579
1.52156
1.74255
1.91442
1.988
1.93165
1.88357
1.87335
1.85842
1.86931
1.89993
1.92082
1.99597
2.03986
1.97399
1.80321
1.57436
1.40321
1.33129
1.26623
1.12876
0.927112
0.680897
0.29047
0.3322
0.727732
0.954881
1.13433
1.2731
1.37889
1.51122
1.73776
1.97084
2.05364
2.00398
1.92189
1.89291
1.8571
1.83156
1.84331
1.88818
1.93258
1.97596
2.06524
2.12305
2.05597
1.84277
1.62609
1.51337
1.40686
1.22995
0.999717
0.725886
0.307842
0.345117
0.76579
1.01595
1.22387
1.39742
1.53099
1.69525
1.94116
2.08737
2.03815
1.95488
1.90057
1.85209
1.79889
1.77365
1.78405
1.82959
1.89728
1.95103
2.01305
2.09985
2.15306
2.06342
1.87734
1.71747
1.5541
1.33909
1.07811
0.772148
0.321801
0.357811
0.804795
1.07829
1.31542
1.52292
1.69164
1.86049
2.01562
2.04784
1.96909
1.89935
1.83707
1.78108
1.74
1.72211
1.73019
1.76476
1.82078
1.8873
1.95862
2.03446
2.11454
2.11746
2.06729
1.96218
1.74933
1.47655
1.1687
0.823194
0.338965
0.369362
0.839707
1.14453
1.41893
1.6793
1.89459
1.98042
2.01951
1.99792
1.92012
1.84208
1.78078
1.73563
1.70176
1.68524
1.69274
1.72276
1.77199
1.83206
1.91311
2.00923
2.10433
2.14075
2.17562
2.27828
2.02748
1.65128
1.27136
0.878368
0.357436
0.372869
0.843109
1.2082
1.53273
1.88416
2.16329
2.09928
2.07452
2.02137
1.92173
1.85147
1.78538
1.73457
1.69836
1.68397
1.69174
1.72334
1.77673
1.85017
1.93989
2.02576
2.15018
2.22508
2.30144
2.57196
2.32772
1.84118
1.37076
0.921893
0.365201
0.386137
0.855752
1.23424
1.61955
2.01251
2.29469
2.21801
2.13412
2.05462
1.97088
1.90747
1.84095
1.78735
1.75139
1.73748
1.74539
1.77606
1.82762
1.89921
1.97674
2.054
2.14552
2.23126
2.33846
2.56789
2.49977
1.9515
1.42994
0.930291
0.380164
0.402109
0.904831
1.27455
1.6131
2.01392
2.27851
2.20691
2.1086
2.03378
1.95825
1.89197
1.83273
1.78812
1.76287
1.75207
1.75839
1.77803
1.81458
1.86806
1.93732
2.00808
2.08729
2.17205
2.29873
2.47038
2.45118
1.9462
1.41812
0.940372
0.399123
0.41755
0.93829
1.28345
1.59726
1.9365
2.19173
2.12272
2.02674
1.94723
1.88183
1.82245
1.76848
1.72722
1.70194
1.69135
1.69497
1.7123
1.74351
1.78884
1.84483
1.90528
1.97606
2.06737
2.18186
2.31578
2.30654
1.87127
1.40881
0.966904
0.410767
0.423177
0.94075
1.26783
1.55937
1.8527
2.11737
2.04428
1.93904
1.85295
1.78431
1.72842
1.68335
1.6496
1.62848
1.61917
1.62155
1.63502
1.65975
1.69519
1.74081
1.79598
1.86603
1.95694
2.06954
2.20258
2.21031
1.8001
1.39266
0.98019
0.417728
0.423037
0.930464
1.23763
1.51343
1.78599
2.05968
2.0067
1.87712
1.77821
1.70238
1.64494
1.60168
1.57087
1.55139
1.54254
1.54353
1.55423
1.57449
1.60487
1.64572
1.69919
1.76994
1.86472
1.98715
2.14533
2.14649
1.74464
1.36297
0.976387
0.419395
0.411945
0.904929
1.20059
1.46558
1.72923
2.01043
1.99685
1.8385
1.71995
1.63349
1.57061
1.52553
1.49428
1.47477
1.46538
1.46533
1.47416
1.49218
1.52015
1.55971
1.61393
1.68865
1.79169
1.93284
2.124
2.10273
1.70064
1.33504
0.964015
0.415334
0.386489
0.867189
1.15792
1.41713
1.67932
1.96546
2.01269
1.81713
1.67524
1.57498
1.50456
1.45532
1.4221
1.40137
1.39111
1.39007
1.3979
1.41491
1.44246
1.48277
1.54026
1.62171
1.73783
1.90328
2.13081
2.06349
1.66145
1.30634
0.945965
0.408117
0.353655
0.813506
1.11096
1.36941
1.63518
1.92532
2.03257
1.80456
1.63861
1.52422
1.44514
1.391
1.3548
1.33241
1.32099
1.3192
1.32649
1.34354
1.37182
1.41464
1.47711
1.56808
1.70027
1.89233
2.14501
2.01902
1.61978
1.27411
0.924067
0.397248
0.329199
0.766496
1.06481
1.32429
1.59595
1.89652
2.06064
1.79854
1.60842
1.47936
1.39151
1.3319
1.29254
1.2681
1.25557
1.25307
1.26034
1.27789
1.30792
1.35409
1.42289
1.52446
1.6741
1.89161
2.15991
1.96386
1.5724
1.23683
0.896512
0.38407
0.331207
0.742963
1.02461
1.28266
1.55771
1.87138
2.07278
1.79292
1.58126
1.43881
1.34244
1.27757
1.23485
1.20846
1.19471
1.19179
1.19913
1.21769
1.24979
1.29986
1.37512
1.48718
1.6521
1.89078
2.14838
1.89161
1.51789
1.19474
0.865247
0.367831
0.339084
0.741296
0.999483
1.24641
1.51938
1.83961
2.06493
1.7784
1.55339
1.40036
1.29683
1.22718
1.18142
1.15312
1.13834
1.13504
1.14274
1.16242
1.1968
1.25065
1.3319
1.45257
1.6296
1.88271
2.11222
1.81513
1.46053
1.15101
0.83292
0.35314
0.331785
0.734971
0.98652
1.22243
1.48634
1.79971
2.02435
1.74846
1.52066
1.36211
1.25348
1.18013
1.13181
1.10191
1.08625
1.08274
1.09085
1.11176
1.14829
1.20569
1.2921
1.42033
1.60799
1.8753
2.06344
1.74304
1.40521
1.10853
0.802653
0.341308
0.311846
0.714353
0.967161
1.20279
1.45949
1.76342
1.97583
1.70537
1.48258
1.32288
1.2117
1.13586
1.08571
1.05454
1.03825
1.03461
1.04325
1.06531
1.10392
1.16447
1.25558
1.39029
1.5871
1.8665
2.01774
1.68035
1.35394
1.06857
0.775369
0.332861
0.291379
0.684491
0.93941
1.17817
1.43438
1.73746
1.92664
1.65977
1.44197
1.28359
1.17149
1.09429
1.04285
1.01083
0.994069
0.990482
0.999629
1.02286
1.06336
1.12685
1.22211
1.36283
1.56789
1.85914
1.96929
1.62215
1.30459
1.02942
0.74984
0.326066
0.274777
0.653706
0.909827
1.15045
1.4097
1.72214
1.89165
1.61902
1.40341
1.24598
1.13363
1.05556
1.0033
0.970639
0.953618
0.95012
0.959853
0.98417
1.02649
1.09259
1.1916
1.33715
1.5481
1.84469
1.91891
1.56616
1.25682
0.991218
0.723946
0.320218
0.260885
0.625889
0.881847
1.12315
1.38495
1.70587
1.85348
1.58421
1.36939
1.21202
1.09899
1.02014
0.967124
0.93398
0.916753
0.913444
0.923739
0.949151
0.993139
1.06166
1.16384
1.31315
1.52796
1.82728
1.86432
1.51054
1.21029
0.954548
0.698974
0.314315
0.247908
0.598719
0.851717
1.09604
1.35965
1.68232
1.81925
1.55637
1.34192
1.18291
1.06844
0.988402
0.934536
0.900859
0.883465
0.880337
0.891235
0.917697
0.963315
1.03403
1.13899
1.29082
1.5068
1.80202
1.80601
1.45477
1.16424
0.919239
0.677154
0.305218
0.234143
0.569885
0.815547
1.062
1.32786
1.64674
1.78598
1.53691
1.32106
1.15905
1.04231
0.960617
0.905623
0.871311
0.853705
0.850755
0.862248
0.889789
0.937054
1.00999
1.11754
1.27143
1.48708
1.77632
1.74399
1.3977
1.11732
0.883552
0.651674
0.287345
0.22073
0.537578
0.774033
1.01688
1.28528
1.59677
1.75645
1.52342
1.30515
1.13973
1.02032
0.936645
0.880346
0.845268
0.827371
0.8246
0.836704
0.865378
0.914361
0.989711
1.1001
1.25646
1.47229
1.7482
1.67609
1.33774
1.06815
0.844295
0.615437
0.263274
0.206195
0.503396
0.72884
0.963432
1.22948
1.53545
1.71998
1.51011
1.29022
1.12303
1.00147
0.916013
0.858414
0.822531
0.804325
0.801693
0.81444
0.8443
0.895125
0.973135
1.08699
1.24735
1.46538
1.72117
1.60007
1.27251
1.01441
0.794832
0.569968
0.238628
0.191094
0.46944
0.682962
0.907936
1.16771
1.47255
1.68235
1.49159
1.27373
1.10696
0.984601
0.898007
0.839378
0.802807
0.784322
0.781822
0.795168
0.82621
0.878885
0.959649
1.07719
1.24221
1.46435
1.69028
1.513
1.19931
0.951167
0.735911
0.522157
0.216619
0.177498
0.437619
0.640178
0.855637
1.10844
1.41157
1.63901
1.47204
1.25593
1.09078
0.968888
0.881902
0.82271
0.785649
0.766957
0.764587
0.778477
0.810509
0.86477
0.947625
1.06767
1.23489
1.45766
1.63752
1.40653
1.11543
0.879484
0.67455
0.476487
0.198842
0.166637
0.410315
0.604358
0.8094
1.05312
1.35179
1.59763
1.4497
1.23664
1.07444
0.953851
0.867273
0.807882
0.77058
0.751717
0.749469
0.763727
0.7965
0.851669
0.935446
1.05538
1.21986
1.43511
1.54593
1.29174
1.02456
0.804852
0.61583
0.434715
0.182141
0.161064
0.394239
0.579523
0.770512
1.00064
1.28303
1.54155
1.42205
1.21606
1.05786
0.939439
0.853672
0.794457
0.757027
0.738084
0.735818
0.750273
0.783258
0.83859
0.921827
1.03976
1.19898
1.39702
1.43224
1.17722
0.934648
0.734085
0.561856
0.398052
0.166462
0.167239
0.398961
0.567344
0.740355
0.947381
1.21244
1.46623
1.38437
1.19323
1.04096
0.925327
0.840692
0.781801
0.744421
0.725348
0.72299
0.73724
0.769872
0.8242
0.905316
1.01886
1.1706
1.34809
1.30731
1.06758
0.85202
0.672123
0.515104
0.365653
0.154262
0.173731
0.40263
0.557731
0.714122
0.903516
1.14677
1.38224
1.34146
1.16824
1.02294
0.910705
0.827453
0.769207
0.731935
0.712801
0.710107
0.723805
0.755167
0.807195
0.883697
0.989174
1.12691
1.27143
1.1832
0.972109
0.784248
0.623481
0.481137
0.33292
0.144446
0.172621
0.399375
0.547772
0.695529
0.869815
1.08155
1.29535
1.29521
1.13772
1.00079
0.893257
0.812473
0.755343
0.718574
0.699348
0.696254
0.708815
0.738051
0.785953
0.855275
0.947829
1.06622
1.16601
1.07715
0.901499
0.73633
0.590701
0.460611
0.330729
0.144028
0.170087
0.390839
0.535034
0.674478
0.831109
1.01456
1.20111
1.2356
1.09531
0.968768
0.869579
0.79316
0.738316
0.702587
0.683574
0.679885
0.690941
0.716789
0.75918
0.819699
0.89895
0.995
1.04862
1.00235
0.863796
0.711603
0.576895
0.459371
0.337594
0.148469
0.167742
0.382739
0.520849
0.651159
0.794643
0.95808
1.11788
1.15603
1.04186
0.926677
0.836349
0.766378
0.715322
0.681425
0.663025
0.658819
0.668052
0.690615
0.728166
0.782168
0.851727
0.91584
0.968391
0.971766
0.857794
0.707177
0.576024
0.458123
0.334674
0.149165
0.165698
0.375508
0.507675
0.630941
0.765297
0.917843
1.06269
1.09084
0.987163
0.884987
0.802284
0.737913
0.690658
0.659175
0.641882
0.63759
0.645714
0.666244
0.700642
0.749188
0.804409
0.856701
0.932008
0.974264
0.87262
0.713736
0.578624
0.459101
0.334387
0.149091
0.163611
0.368204
0.495268
0.613882
0.742687
0.889901
1.03275
1.05659
0.949081
0.851172
0.774783
0.715065
0.671256
0.642073
0.626041
0.622097
0.629638
0.648375
0.67933
0.721042
0.766749
0.82272
0.913888
0.975899
0.889312
0.722651
0.582352
0.461596
0.337122
0.150546
0.160949
0.360286
0.48302
0.59775
0.722794
0.867334
1.01276
1.03812
0.926003
0.82778
0.755285
0.69952
0.65901
0.632189
0.61756
0.614106
0.621146
0.638158
0.665177
0.69969
0.739516
0.796916
0.882176
0.95799
0.894588
0.72819
0.584434
0.462606
0.339258
0.151422
0.157705
0.351212
0.470259
0.581413
0.702606
0.843611
0.990823
1.01849
0.905676
0.808459
0.739434
0.688192
0.65178
0.628348
0.615445
0.611661
0.617337
0.631622
0.653041
0.679749
0.714568
0.765716
0.835582
0.917367
0.885098
0.727762
0.58275
0.460531
0.337891
0.149751
0.154054
0.340909
0.456554
0.56402
0.680658
0.815892
0.960636
0.99161
0.880294
0.787044
0.721927
0.676059
0.644626
0.624582
0.613234
0.609074
0.612428
0.622414
0.637049
0.656621
0.685923
0.72861
0.789607
0.86926
0.861012
0.719082
0.575675
0.454648
0.332461
0.145595
0.149596
0.329955
0.441815
0.545145
0.656389
0.784003
0.922167
0.957427
0.849492
0.761161
0.700215
0.659317
0.632147
0.614965
0.605318
0.60128
0.602015
0.607246
0.615883
0.629993
0.654511
0.692371
0.747079
0.819422
0.822974
0.699818
0.562208
0.444512
0.324057
0.140866
0.144365
0.318302
0.425941
0.524676
0.629978
0.749185
0.879041
0.919087
0.814958
0.731041
0.67385
0.636458
0.61183
0.596331
0.587907
0.584055
0.58349
0.585958
0.591034
0.601857
0.623925
0.65902
0.70724
0.767782
0.770609
0.666798
0.542527
0.431057
0.314275
0.136275
0.13864
0.305869
0.409019
0.502791
0.601968
0.713103
0.834588
0.877638
0.776779
0.697438
0.643297
0.608012
0.584879
0.570302
0.562249
0.558484
0.557937
0.559904
0.563869
0.573239
0.593942
0.62739
0.669388
0.716028
0.707903
0.62403
0.518517
0.415909
0.304178
0.132236
0.133038
0.293223
0.391553
0.479957
0.572895
0.676824
0.791209
0.834659
0.736821
0.662151
0.610413
0.576406
0.554197
0.5401
0.532076
0.52842
0.528436
0.530953
0.535182
0.544254
0.56392
0.595813
0.63488
0.668701
0.646075
0.578136
0.493561
0.401306
0.294062
0.128341
0.128044
0.281207
0.374336
0.456828
0.542943
0.639597
0.74728
0.789047
0.697103
0.627773
0.578261
0.545607
0.524279
0.510652
0.50264
0.498957
0.498963
0.50156
0.506333
0.515962
0.53545
0.566603
0.605417
0.624116
0.591472
0.532099
0.465753
0.386697
0.284437
0.123071
0.12393
0.270629
0.358314
0.434273
0.512306
0.599691
0.697411
0.735304
0.657194
0.595092
0.548949
0.518295
0.498128
0.485093
0.477128
0.473169
0.472565
0.474716
0.479983
0.490553
0.510146
0.541541
0.577148
0.579158
0.541831
0.488056
0.429724
0.363345
0.268495
0.119051
0.120897
0.262212
0.344572
0.413521
0.482016
0.556857
0.638168
0.670721
0.615361
0.562479
0.521577
0.493733
0.475242
0.463068
0.455311
0.451086
0.449856
0.451512
0.45701
0.46824
0.487296
0.517398
0.544026
0.532583
0.493933
0.445837
0.3921
0.331615
0.253836
0.115994
0.118958
0.256566
0.334121
0.39609
0.454361
0.514164
0.574028
0.602718
0.572359
0.529419
0.494691
0.470184
0.45375
0.442826
0.435665
0.431455
0.42975
0.43091
0.436166
0.446983
0.464351
0.489655
0.502785
0.483213
0.447947
0.406796
0.35849
0.302324
0.233865
0.109987
0.11788
0.2542
0.327394
0.382691
0.43108
0.475498
0.515189
0.541769
0.530146
0.496574
0.467546
0.446569
0.4323
0.422791
0.41647
0.412584
0.410738
0.411524
0.416162
0.425442
0.439573
0.456268
0.455956
0.434678
0.406989
0.374043
0.328567
0.276228
0.211907
0.100312
0.117983
0.256382
0.32366
0.370772
0.408056
0.43748
0.463659
0.486068
0.48585
0.462756
0.439855
0.422374
0.410156
0.401906
0.39638
0.392953
0.391285
0.391849
0.395655
0.402914
0.412708
0.419463
0.411011
0.392329
0.37334
0.346395
0.303072
0.253215
0.192211
0.0909679
0.120675
0.264545
0.321044
0.353152
0.377814
0.398055
0.417274
0.433147
0.437509
0.426562
0.410723
0.397084
0.386791
0.37953
0.374609
0.371578
0.370193
0.370716
0.373708
0.378817
0.383918
0.382837
0.372159
0.357562
0.344372
0.320237
0.281407
0.233467
0.175738
0.0830277
0.127856
0.27786
0.315396
0.330099
0.346369
0.362822
0.378007
0.388789
0.392815
0.38952
0.380669
0.370818
0.362264
0.355774
0.351242
0.348394
0.347163
0.347727
0.350059
0.353154
0.354182
0.349863
0.340125
0.327927
0.315347
0.295057
0.262649
0.217416
0.162972
0.0770286
0.129443
0.284612
0.307636
0.310525
0.321072
0.333818
0.346144
0.354708
0.357782
0.356411
0.351748
0.344961
0.337888
0.332004
0.327668
0.324793
0.323485
0.323907
0.325587
0.327057
0.326166
0.321847
0.313432
0.301805
0.288743
0.272071
0.246683
0.205034
0.153783
0.0730938
0.133648
0.280319
0.307347
0.299472
0.302777
0.311186
0.32086
0.327838
0.330134
0.329105
0.325878
0.320966
0.31517
0.309839
0.305619
0.302639
0.301102
0.301102
0.302001
0.302456
0.301311
0.297824
0.290591
0.279408
0.267428
0.252218
0.232048
0.195282
0.147685
0.0715907
0.133634
0.26949
0.312684
0.297188
0.291346
0.294854
0.301908
0.306852
0.307299
0.30553
0.302808
0.298833
0.294084
0.289421
0.285427
0.282402
0.280592
0.28
0.280071
0.279889
0.278946
0.276874
0.271636
0.262442
0.251782
0.236389
0.217738
0.18657
0.144639
0.0722052
0.133021
0.257173
0.311922
0.301368
0.285313
0.28407
0.288676
0.292369
0.290706
0.286351
0.282247
0.278313
0.274023
0.269793
0.266019
0.26303
0.261041
0.26004
0.259658
0.259478
0.259632
0.26038
0.257764
0.251418
0.240714
0.225227
0.2056
0.178763
0.145131
0.0768206
0.136136
0.248787
0.300701
0.308823
0.283967
0.277494
0.279706
0.282651
0.280236
0.273291
0.266238
0.260583
0.255837
0.251494
0.247696
0.244673
0.242646
0.241641
0.241524
0.242315
0.244897
0.249002
0.249657
0.244259
0.232425
0.217924
0.199533
0.17457
0.14963
0.0861186
0.135455
0.239015
0.283569
0.314853
0.28729
0.273946
0.273351
0.274966
0.272512
0.264705
0.255731
0.247455
0.241021
0.235959
0.231793
0.228613
0.2266
0.225879
0.226462
0.228854
0.234313
0.240485
0.24474
0.237661
0.224789
0.211545
0.196057
0.171655
0.151193
0.0896974
0.127448
0.219463
0.266718
0.305709
0.299917
0.273718
0.268982
0.268362
0.265505
0.25828
0.248223
0.238702
0.230505
0.224197
0.219391
0.215896
0.213889
0.21349
0.214861
0.218813
0.224961
0.232974
0.238594
0.229296
0.216363
0.204042
0.187991
0.166657
0.150028
0.0863991
0.110771
0.192966
0.24279
0.27741
0.303517
0.275846
0.265188
0.263568
0.259312
0.252863
0.242473
0.231513
0.22273
0.215724
0.21036
0.206566
0.204497
0.204286
0.206112
0.209979
0.215454
0.225188
0.229724
0.219113
0.206195
0.193492
0.174429
0.160317
0.138475
0.0753167
0.0972211
0.16997
0.217637
0.250152
0.27944
0.276185
0.264723
0.262347
0.255533
0.248285
0.238107
0.22586
0.215798
0.208506
0.203072
0.199173
0.196957
0.196573
0.1981
0.200714
0.20629
0.216238
0.219261
0.207984
0.194877
0.180117
0.159942
0.148376
0.121381
0.0676141
0.0873932
0.153797
0.198104
0.229185
0.251244
0.262078
0.268262
0.267093
0.25659
0.24631
0.235279
0.222358
0.210762
0.202347
0.196384
0.192205
0.189723
0.189046
0.190038
0.192082
0.19731
0.206737
0.208479
0.197087
0.184008
0.167908
0.147987
0.135385
0.109613
0.0644404
0.0834628
0.144855
0.185937
0.215762
0.235748
0.245219
0.265398
0.277473
0.265638
0.249588
0.234908
0.220943
0.207841
0.198005
0.19104
0.186255
0.183347
0.182303
0.182735
0.184405
0.189044
0.19727
0.198555
0.187821
0.174529
0.158137
0.138028
0.121683
0.0987028
0.0611401
0.0820661
0.138198
0.175629
0.202558
0.220063
0.23088
0.253942
0.2779
0.282946
0.262269
0.238743
0.221344
0.206348
0.194916
0.186803
0.181265
0.177832
0.17639
0.176391
0.177635
0.181542
0.188626
0.190593
0.180762
0.166327
0.149294
0.129315
0.109413
0.0857489
0.0549553
0.0789439
0.127226
0.158663
0.182169
0.199765
0.215461
0.240734
0.270456
0.29239
0.283218
0.249731
0.224429
0.206187
0.192653
0.183342
0.177018
0.173037
0.171221
0.170793
0.17154
0.174743
0.18133
0.184186
0.175128
0.159786
0.14184
0.121999
0.101189
0.0755791
0.0492288
0.071123
0.10759
0.135283
0.15883
0.179612
0.201311
0.228829
0.260941
0.287051
0.295414
0.266159
0.231628
0.207481
0.191318
0.180597
0.173448
0.168923
0.166767
0.165873
0.166229
0.16899
0.175326
0.17835
0.169991
0.154766
0.136969
0.117032
0.0960296
0.0710572
0.0461825
0.0601267
0.0846344
0.113295
0.139516
0.164383
0.190207
0.219505
0.252064
0.27459
0.287159
0.277713
0.243267
0.211181
0.191367
0.17875
0.170658
0.165625
0.163127
0.161566
0.161718
0.164549
0.170132
0.172903
0.164915
0.150807
0.134081
0.114676
0.0934383
0.0689112
0.0449055
0.0510354
0.06866
0.0998421
0.128409
0.155543
0.182936
0.212155
0.243253
0.261982
0.269194
0.271104
0.250454
0.216514
0.19235
0.177779
0.168693
0.163134
0.16019
0.158018
0.157874
0.160411
0.16506
0.167714
0.159963
0.147511
0.13243
0.114295
0.0932199
0.0678625
0.0439605
0.0453911
0.0636089
0.0962252
0.124802
0.151743
0.178622
0.206268
0.234866
0.250881
0.254169
0.25419
0.24374
0.219037
0.193824
0.177421
0.167431
0.161487
0.157823
0.155321
0.154774
0.156401
0.160138
0.163042
0.155539
0.144825
0.131627
0.11495
0.094483
0.0684716
0.043571
0.0432992
0.0642917
0.097145
0.125107
0.150861
0.175864
0.200615
0.225614
0.240119
0.241256
0.239525
0.230251
0.214453
0.193329
0.177041
0.16674
0.160652
0.156154
0.153436
0.152592
0.153435
0.156059
0.158934
0.151659
0.142733
0.131677
0.116879
0.0979325
0.0719382
0.0440609
0.0433963
0.0687949
0.100879
0.127237
0.151165
0.173426
0.194178
0.214367
0.229144
0.23026
0.22747
0.218696
0.205147
0.189534
0.175838
0.166403
0.159989
0.155002
0.152228
0.151288
0.151667
0.153029
0.154663
0.14804
0.141225
0.132369
0.119861
0.102663
0.0780813
0.0462019
0.0450301
0.0765177
0.106482
0.130655
0.151893
0.170854
0.187633
0.203068
0.217157
0.219627
0.217077
0.208727
0.196638
0.183706
0.173308
0.165693
0.15889
0.153954
0.151456
0.150732
0.150877
0.150969
0.150325
0.14504
0.140764
0.134118
0.123832
0.10832
0.0849764
0.0496604
0.0479921
0.0840067
0.112263
0.134207
0.152556
0.168249
0.181798
0.193323
0.203777
0.208433
0.207137
0.199506
0.188652
0.177498
0.169724
0.163864
0.157422
0.152895
0.150818
0.150472
0.150695
0.149902
0.14698
0.143558
0.14151
0.137216
0.129063
0.115154
0.092495
0.0535777
0.0511226
0.0916001
0.118727
0.13828
0.153479
0.165792
0.176684
0.185944
0.192056
0.19728
0.197183
0.19023
0.180432
0.171033
0.165104
0.160753
0.155581
0.151577
0.149911
0.150054
0.150774
0.150122
0.146421
0.143989
0.143455
0.141362
0.135548
0.123461
0.100776
0.057132
0.0547308
0.100629
0.127403
0.144129
0.155625
0.164565
0.172702
0.180287
0.184348
0.187577
0.187198
0.180926
0.172349
0.165051
0.160412
0.157047
0.153295
0.150147
0.148954
0.149675
0.151038
0.151479
0.14859
0.146462
0.146702
0.146387
0.143254
0.134237
0.113397
0.0627892
0.0609941
0.115099
0.140455
0.153241
0.16046
0.16614
0.172076
0.176769
0.178501
0.179268
0.177511
0.172014
0.165317
0.160543
0.157563
0.155208
0.15257
0.149989
0.148843
0.150008
0.152281
0.155109
0.154152
0.152406
0.15246
0.152535
0.150789
0.146193
0.133084
0.0766442
0.0762396
0.138728
0.156961
0.16499
0.16906
0.171776
0.175442
0.177166
0.174841
0.172262
0.169337
0.164948
0.160878
0.158617
0.157816
0.15656
0.154046
0.15117
0.14976
0.151327
0.155191
0.160769
0.16218
0.161127
0.160736
0.160241
0.158465
0.156811
0.146507
0.0942428
0.0974183
0.156301
0.171592
0.175896
0.17923
0.181148
0.183866
0.181909
0.175033
0.169543
0.165513
0.162014
0.159763
0.159092
0.160267
0.160365
0.157637
0.154137
0.152556
0.154654
0.16062
0.168414
0.171347
0.171101
0.170888
0.170363
0.170708
0.170237
0.172928
0.129599
0.13437
0.183582
0.184544
0.187923
0.188708
0.190208
0.192798
0.191412
0.180011
0.171979
0.166445
0.162583
0.160571
0.160571
0.162445
0.163129
0.160732
0.15836
0.158232
0.161329
0.169606
0.178944
0.181921
0.182856
0.184695
0.186998
0.191981
0.205352
0.201955
0.131713
0.136681
0.21351
0.216591
0.204697
0.201615
0.201716
0.202175
0.203523
0.191228
0.179226
0.170388
0.165044
0.162296
0.161074
0.162212
0.16321
0.162593
0.163249
0.165975
0.172158
0.182761
0.192444
0.194887
0.197887
0.20078
0.207108
0.219793
0.226259
0.19553
0.122485
0.127791
0.207747
0.235
0.226703
0.21985
0.217676
0.219075
0.219802
0.2075
0.191141
0.177322
0.168485
0.16379
0.160955
0.160564
0.161707
0.163579
0.167788
0.17456
0.185634
0.200814
0.21172
0.215212
0.218022
0.219363
0.218273
0.219838
0.21631
0.185487
0.112567
0.118644
0.195877
0.221965
0.222808
0.225263
0.232271
0.236941
0.236449
0.222596
0.202555
0.184583
0.171898
0.164726
0.160731
0.159198
0.160371
0.164152
0.171063
0.18156
0.197417
0.216465
0.228817
0.231901
0.231095
0.22528
0.214508
0.208734
0.202496
0.177231
0.108641
0.113827
0.182385
0.204801
0.208799
0.218222
0.231384
0.240084
0.240767
0.22738
0.207072
0.188389
0.173949
0.165042
0.160488
0.158868
0.160104
0.164384
0.172614
0.184887
0.201681
0.220017
0.231539
0.232755
0.227762
0.216951
0.202463
0.196118
0.189353
0.1666
0.105947
0.10969
0.16796
0.189654
0.190137
0.197393
0.213658
0.22764
0.231635
0.221569
0.204104
0.187324
0.173756
0.164777
0.160122
0.158878
0.160236
0.164531
0.172533
0.184282
0.198995
0.213578
0.221211
0.218351
0.208079
0.194223
0.182017
0.179871
0.177731
0.155379
0.103341
0.105474
0.155389
0.170758
0.164168
0.169081
0.184932
0.201608
0.210078
0.206205
0.194718
0.18217
0.171382
0.163751
0.159724
0.158697
0.160265
0.164294
0.171173
0.180543
0.19088
0.199317
0.201467
0.194666
0.182034
0.167398
0.157411
0.157546
0.163908
0.146208
0.099547
0.0978659
0.139054
0.139995
0.133388
0.139799
0.157291
0.175077
0.186241
0.187921
0.18282
0.175007
0.167325
0.161569
0.158617
0.158197
0.159698
0.162958
0.16818
0.174807
0.181096
0.184404
0.181994
0.172777
0.158784
0.142481
0.131208
0.130065
0.138414
0.133704
0.0939389
0.0849768
0.106269
0.102929
0.101677
0.112252
0.133712
0.15263
0.165577
0.171489
0.171638
0.168397
0.163767
0.159889
0.158222
0.158236
0.159153
0.161124
0.164749
0.169074
0.171912
0.171287
0.165623
0.154775
0.139501
0.120859
0.105014
0.100026
0.104908
0.107387
0.0837601
0.0704798
0.073438
0.070112
0.0736989
0.0912654
0.115951
0.13583
0.149961
0.158475
0.162226
0.16263
0.161294
0.159891
0.159386
0.159742
0.160196
0.161037
0.162423
0.163927
0.163796
0.16047
0.152955
0.141113
0.124977
0.104694
0.0829873
0.072834
0.0726189
0.0762321
0.0710412
0.058614
0.0509935
0.0488859
0.0573179
0.0812754
0.105813
0.125213
0.139529
0.149257
0.155138
0.158243
0.159758
0.160728
0.161949
0.162917
0.16272
0.161944
0.161228
0.160014
0.157371
0.152323
0.143976
0.131969
0.116052
0.0959643
0.0723453
0.0543588
0.0498559
0.0538287
0.0600756
0.0490651
0.0382292
0.0400875
0.0549162
0.080395
0.102811
0.120423
0.133856
0.143719
0.150644
0.155469
0.159197
0.16238
0.165374
0.167234
0.166367
0.163939
0.161047
0.157543
0.15312
0.14708
0.1386
0.127249
0.112704
0.0943331
0.0718776
0.0493212
0.0391066
0.0396015
0.0509506
0.041525
0.0339186
0.0400504
0.058592
0.083328
0.104165
0.120392
0.13258
0.141814
0.148936
0.154597
0.159543
0.16444
0.169265
0.172342
0.170709
0.166433
0.16164
0.156763
0.151334
0.144941
0.136894
0.126668
0.113414
0.0964305
0.0753228
0.0520544
0.0376084
0.0335574
0.0431542
0.0372543
0.0346355
0.0463738
0.0706861
0.0925154
0.110027
0.123788
0.134463
0.142827
0.149658
0.155496
0.161066
0.166928
0.172298
0.174825
0.173392
0.169186
0.163269
0.157544
0.151838
0.145548
0.138099
0.129056
0.117804
0.103614
0.0856263
0.0632438
0.0418452
0.0333918
0.0379672
0.0367239
0.0415401
0.0648773
0.087915
0.10659
0.121424
0.132518
0.140776
0.147372
0.153236
0.158802
0.1645
0.16997
0.175146
0.177621
0.176401
0.171961
0.166315
0.160361
0.154768
0.149067
0.142942
0.136025
0.127435
0.115889
0.100737
0.0816853
0.0580931
0.0382045
0.0366839
0.0388522
0.0599904
0.085482
0.105848
0.122453
0.135529
0.145039
0.151584
0.156365
0.160528
0.164787
0.170061
0.176264
0.181437
0.184721
0.183072
0.178278
0.172005
0.165833
0.16084
0.156521
0.152002
0.146845
0.139934
0.130242
0.117232
0.100735
0.0802941
0.0547972
0.038069
0.0455539
0.0802536
0.105886
0.124669
0.13958
0.151228
0.159323
0.164292
0.167286
0.16933
0.172357
0.178964
0.185544
0.192037
0.195589
0.19406
0.188656
0.181669
0.174759
0.168547
0.165633
0.162776
0.159102
0.153675
0.145584
0.134595
0.120573
0.102295
0.0765914
0.0436071
0.0550033
0.102545
0.127752
0.14409
0.156794
0.166877
0.173596
0.176934
0.178039
0.177977
0.181399
0.188534
0.196605
0.202936
0.205341
0.204455
0.200401
0.192903
0.184933